{
	 "smiles": "CC(=C)C(=O)OCC1CO1", 
	 "Tm": 191.15, 
	 "num_atms": 20, 
	 "gaussian": { 
		 "optdone": 1, 
		 "sigma_profile": "yes", 
		 "theory": "DFT", 
		 "functional": "B3LYP", 
		 "basiset": "6-31G**", 
		 "properties": { 
			 "R2extent": 2514.0104, 
			 "electric_dipole_moment_norm": 0.604655455611, 
			 "electric_quadrupole_moment_norm": 12.8759068838, 
			 "total_energy": -498.383826814, 
			 "HOMO_LUMO_gap": 0.22415, 
			 "cosmo_polarized_energy": -9.57, 
			 "cosmo_cavitation_energy": 24.26, 
			 "cosmo_dispersion_energy": -16.91, 
			 "cosmo_repulsion_energy": 1.39, 
			 "cosmo_total_nonelectrostatic_energy": 8.74, 
			 "SMD_solvation_energy": 5.96 
		},
		"coords": [
			{
				"x": 1.5277095556,
				"y": -3.589307803,
				"z": 1.0088593135,
				"element": "C" 
			},
			{
				"x": 2.281739748,
				"y": -2.9796616782,
				"z": -0.1442603555,
				"element": "C" 
			},
			{
				"x": 3.408950782,
				"y": -3.489360677,
				"z": -0.6563597624,
				"element": "C" 
			},
			{
				"x": 1.7591450669,
				"y": -1.7254562291,
				"z": -0.7749211054,
				"element": "C" 
			},
			{
				"x": 2.2630171615,
				"y": -1.1448056784,
				"z": -1.7150661727,
				"element": "O" 
			},
			{
				"x": 0.6242560883,
				"y": -1.3043420743,
				"z": -0.1527882688,
				"element": "O" 
			},
			{
				"x": 0.0039233073,
				"y": -0.1161537891,
				"z": -0.6657344564,
				"element": "C" 
			},
			{
				"x": 0.3355992848,
				"y": 1.1114619234,
				"z": 0.1529292856,
				"element": "C" 
			},
			{
				"x": 1.4752582681,
				"y": 1.1969771068,
				"z": 1.0734094238,
				"element": "C" 
			},
			{
				"x": 0.1370369494,
				"y": 1.0316367061,
				"z": 1.5650407268,
				"element": "O" 
			},
			{
				"x": 1.4327789902,
				"y": -2.883027285,
				"z": 1.839881364,
				"element": "H" 
			},
			{
				"x": 2.0363103603,
				"y": -4.4871418012,
				"z": 1.3688993131,
				"element": "H" 
			},
			{
				"x": 0.5081833041,
				"y": -3.8602695357,
				"z": 0.7152936461,
				"element": "H" 
			},
			{
				"x": 3.9039386692,
				"y": -3.0025351797,
				"z": -1.4896374048,
				"element": "H" 
			},
			{
				"x": 3.852556347,
				"y": -4.3958521549,
				"z": -0.2562070437,
				"element": "H" 
			},
			{
				"x": -1.073024976,
				"y": -0.3047492586,
				"z": -0.6230215444,
				"element": "H" 
			},
			{
				"x": 0.3101883354,
				"y": 0.0395050158,
				"z": -1.703564641,
				"element": "H" 
			},
			{
				"x": -0.0279720733,
				"y": 2.035740419,
				"z": -0.3045512671,
				"element": "H" 
			},
			{
				"x": 2.1275620354,
				"y": 0.3365641922,
				"z": 1.2070127563,
				"element": "H" 
			},
			{
				"x": 1.9341427957,
				"y": 2.1660777811,
				"z": 1.2689861928,
				"element": "H" 
			}
		],
		 "valence_orbital": [ 
			{
				"type": "occ",
				"energy": -0.31668,
				"method": "rhf"
			},
			{
				"type": "occ",
				"energy": -0.30428,
				"method": "rhf"
			},
			{
				"type": "occ",
				"energy": -0.27793,
				"method": "rhf"
			},
			{
				"type": "occ",
				"energy": -0.26994,
				"method": "rhf"
			},
			{
				"type": "occ",
				"energy": -0.26753,
				"method": "rhf"
			},
			{
				"type": "unocc",
				"energy": -0.04338,
				"method": "rhf"
			},
			{
				"type": "unocc",
				"energy": 0.07759,
				"method": "rhf"
			},
			{
				"type": "unocc",
				"energy": 0.08724,
				"method": "rhf"
			},
			{
				"type": "unocc",
				"energy": 0.10423,
				"method": "rhf"
			},
			{
				"type": "unocc",
				"energy": 0.11348,
				"method": "rhf"
			}
		],
		"cosmo_sigma_profile": { 
			"-0.025": 0.0,
			"-0.024": 0.0,
			"-0.023": 0.0,
			"-0.022": 0.0,
			"-0.021": 0.0,
			"-0.02": 0.0,
			"-0.019": 0.0,
			"-0.018": 0.0,
			"-0.017": 0.0,
			"-0.016": 0.0,
			"-0.015": 0.0,
			"-0.014": 0.0,
			"-0.013": 0.0,
			"-0.012": 0.0,
			"-0.011": 0.0,
			"-0.01": 0.0,
			"-0.009": 0.0,
			"-0.008": 0.302762381702,
			"-0.007": 7.94335614134,
			"-0.006": 14.549332403,
			"-0.005": 16.0088445653,
			"-0.004": 18.2537507254,
			"-0.003": 17.489222407,
			"-0.002": 17.3060318581,
			"-0.001": 15.383168621,
			"0.0": 15.4222732889,
			"0.001": 10.4397865107,
			"0.002": 8.45503362073,
			"0.003": 8.33304121764,
			"0.004": 5.27842037937,
			"0.005": 3.96221858124,
			"0.006": 4.48945423317,
			"0.007": 3.54003014947,
			"0.008": 3.70213618991,
			"0.009": 3.55963742733,
			"0.01": 4.24314909185,
			"0.011": 6.35929572405,
			"0.012": 6.26945273037,
			"0.013": 0.491100720465,
			"0.014": 0.0,
			"0.015": 0.0,
			"0.016": 0.0,
			"0.017": 0.0,
			"0.018": 0.0,
			"0.019": 0.0,
			"0.02": 0.0,
			"0.021": 0.0,
			"0.022": 0.0,
			"0.023": 0.0,
			"0.024": 0.0,
			"0.025": 0.0
		}
	}
}
