{
	 "smiles": "NC1=C(N=CN=C1)N1CCCC1", 
	 "Tm": 430.15, 
	 "num_atms": 24, 
	 "gaussian": { 
		 "optdone": 1, 
		 "sigma_profile": "yes", 
		 "theory": "DFT", 
		 "functional": "B3LYP", 
		 "basiset": "6-31G**", 
		 "properties": { 
			 "R2extent": 2201.8341, 
			 "electric_dipole_moment_norm": 3.88937459754, 
			 "electric_quadrupole_moment_norm": 11.2282806119, 
			 "total_energy": -531.086375612, 
			 "HOMO_LUMO_gap": 0.1898, 
			 "cosmo_polarized_energy": -11.57, 
			 "cosmo_cavitation_energy": 25.86, 
			 "cosmo_dispersion_energy": -19.59, 
			 "cosmo_repulsion_energy": 1.57, 
			 "cosmo_total_nonelectrostatic_energy": 7.84, 
			 "SMD_solvation_energy": 0.72 
		},
		"coords": [
			{
				"x": 1.8727024044,
				"y": -0.3220296182,
				"z": -1.4593044876,
				"element": "N" 
			},
			{
				"x": 1.1204981343,
				"y": 0.7983876869,
				"z": -1.0848550132,
				"element": "C" 
			},
			{
				"x": -0.0543879839,
				"y": 0.6721671251,
				"z": -0.29163355,
				"element": "C" 
			},
			{
				"x": -0.711882157,
				"y": 1.7581316442,
				"z": 0.1299035574,
				"element": "N" 
			},
			{
				"x": -0.2646199626,
				"y": 2.9519407715,
				"z": -0.2775591026,
				"element": "C" 
			},
			{
				"x": 0.7713792429,
				"y": 3.1835524103,
				"z": -1.0799775881,
				"element": "N" 
			},
			{
				"x": 1.4580286608,
				"y": 2.0951028027,
				"z": -1.4618390044,
				"element": "C" 
			},
			{
				"x": -0.4960237116,
				"y": -0.5808941138,
				"z": 0.1289556049,
				"element": "N" 
			},
			{
				"x": -0.8313230824,
				"y": -1.6191543325,
				"z": -0.868558011,
				"element": "C" 
			},
			{
				"x": -1.272901532,
				"y": -2.8011629327,
				"z": 0.0059547928,
				"element": "C" 
			},
			{
				"x": -1.8563012181,
				"y": -2.1419799744,
				"z": 1.2878470921,
				"element": "C" 
			},
			{
				"x": -1.5656715224,
				"y": -0.6328025421,
				"z": 1.1369302905,
				"element": "C" 
			},
			{
				"x": 1.9196256572,
				"y": -1.015520283,
				"z": -0.7198546162,
				"element": "H" 
			},
			{
				"x": 2.8017372064,
				"y": -0.0852754074,
				"z": -1.7875666647,
				"element": "H" 
			},
			{
				"x": -0.8142669277,
				"y": 3.820051131,
				"z": 0.0809011176,
				"element": "H" 
			},
			{
				"x": 2.3377483244,
				"y": 2.2642420168,
				"z": -2.0844778369,
				"element": "H" 
			},
			{
				"x": -1.6631166327,
				"y": -1.2756567626,
				"z": -1.5058181424,
				"element": "H" 
			},
			{
				"x": 0.0147600253,
				"y": -1.8380844585,
				"z": -1.5211710972,
				"element": "H" 
			},
			{
				"x": -0.4106765004,
				"y": -3.4265347059,
				"z": 0.2569292908,
				"element": "H" 
			},
			{
				"x": -1.9967560366,
				"y": -3.4352447603,
				"z": -0.513066808,
				"element": "H" 
			},
			{
				"x": -1.3763750518,
				"y": -2.5473485423,
				"z": 2.182796229,
				"element": "H" 
			},
			{
				"x": -2.9302560428,
				"y": -2.3200699523,
				"z": 1.3895010361,
				"element": "H" 
			},
			{
				"x": -2.4546144636,
				"y": -0.0877715227,
				"z": 0.7896890286,
				"element": "H" 
			},
			{
				"x": -1.2349068298,
				"y": -0.15094568,
				"z": 2.0598738826,
				"element": "H" 
			}
		],
		 "valence_orbital": [ 
			{
				"type": "occ",
				"energy": -0.30742,
				"method": "rhf"
			},
			{
				"type": "occ",
				"energy": -0.28847,
				"method": "rhf"
			},
			{
				"type": "occ",
				"energy": -0.24687,
				"method": "rhf"
			},
			{
				"type": "occ",
				"energy": -0.23823,
				"method": "rhf"
			},
			{
				"type": "occ",
				"energy": -0.20507,
				"method": "rhf"
			},
			{
				"type": "unocc",
				"energy": -0.01527,
				"method": "rhf"
			},
			{
				"type": "unocc",
				"energy": 0.00161,
				"method": "rhf"
			},
			{
				"type": "unocc",
				"energy": 0.0686,
				"method": "rhf"
			},
			{
				"type": "unocc",
				"energy": 0.09101,
				"method": "rhf"
			},
			{
				"type": "unocc",
				"energy": 0.10597,
				"method": "rhf"
			}
		],
		"cosmo_sigma_profile": { 
			"-0.025": 0.0,
			"-0.024": 0.0,
			"-0.023": 0.0,
			"-0.022": 0.0,
			"-0.021": 0.0,
			"-0.02": 0.0,
			"-0.019": 0.0,
			"-0.018": 0.0,
			"-0.017": 0.0,
			"-0.016": 0.0,
			"-0.015": 0.0,
			"-0.014": 0.0,
			"-0.013": 0.737521501468,
			"-0.012": 1.96382576856,
			"-0.011": 2.73103747726,
			"-0.01": 2.94458899759,
			"-0.009": 3.26504522862,
			"-0.008": 2.88411943089,
			"-0.007": 2.68621104408,
			"-0.006": 4.73733205449,
			"-0.005": 4.8038466243,
			"-0.004": 7.25735666111,
			"-0.003": 22.9951510887,
			"-0.002": 29.5661693278,
			"-0.001": 21.9273081842,
			"0.0": 20.4278893085,
			"0.001": 14.8056567217,
			"0.002": 10.5120428507,
			"0.003": 9.14435516152,
			"0.004": 4.95127562088,
			"0.005": 5.75098867182,
			"0.006": 4.22911631318,
			"0.007": 4.60884040948,
			"0.008": 3.78686595974,
			"0.009": 3.43758642752,
			"0.01": 2.65674203054,
			"0.011": 2.84375734407,
			"0.012": 2.12819011153,
			"0.013": 1.08894715332,
			"0.014": 2.08084205132,
			"0.015": 1.01246644409,
			"0.016": 0.920034808189,
			"0.017": 0.466220961753,
			"0.018": 0.0,
			"0.019": 0.0,
			"0.02": 0.0,
			"0.021": 0.0,
			"0.022": 0.0,
			"0.023": 0.0,
			"0.024": 0.0,
			"0.025": 0.0
		}
	}
}
