{
	 "smiles": "CCCN(CCC)C1=C(C=C(C=C1[N+]([O-])=O)C(F)(F)F)[N+]([O-])=O", 
	 "Tm": 322.15, 
	 "num_atms": 39, 
	 "gaussian": { 
		 "optdone": 1, 
		 "sigma_profile": "yes", 
		 "theory": "DFT", 
		 "functional": "B3LYP", 
		 "basiset": "6-31G**", 
		 "properties": { 
			 "R2extent": 7933.5108, 
			 "electric_dipole_moment_norm": 0.933630746066, 
			 "electric_quadrupole_moment_norm": 12.7529303182, 
			 "total_energy": -1269.48180493, 
			 "HOMO_LUMO_gap": 0.13338, 
			 "cosmo_polarized_energy": -10.54, 
			 "cosmo_cavitation_energy": 42.52, 
			 "cosmo_dispersion_energy": -27.91, 
			 "cosmo_repulsion_energy": 2.05, 
			 "cosmo_total_nonelectrostatic_energy": 16.66, 
			 "SMD_solvation_energy": 12.49 
		},
		"coords": [
			{
				"x": -1.8915502286,
				"y": 2.9060634459,
				"z": -1.3530438156,
				"element": "C" 
			},
			{
				"x": -1.2230994192,
				"y": 3.2348323471,
				"z": -0.0153004457,
				"element": "C" 
			},
			{
				"x": -0.0463559877,
				"y": 2.3305500437,
				"z": 0.3663216988,
				"element": "C" 
			},
			{
				"x": -0.3918382375,
				"y": 0.9095435195,
				"z": 0.642198923,
				"element": "N" 
			},
			{
				"x": -1.2899147865,
				"y": 0.6753249857,
				"z": 1.7924438825,
				"element": "C" 
			},
			{
				"x": -2.7587208367,
				"y": 0.4532435488,
				"z": 1.3944836367,
				"element": "C" 
			},
			{
				"x": -2.9977360276,
				"y": -0.8615258298,
				"z": 0.6467348799,
				"element": "C" 
			},
			{
				"x": 0.6365280519,
				"y": -0.0056694691,
				"z": 0.3911991078,
				"element": "C" 
			},
			{
				"x": 1.4394186326,
				"y": -0.6516843524,
				"z": 1.3620701138,
				"element": "C" 
			},
			{
				"x": 2.3710330566,
				"y": -1.6402549895,
				"z": 1.0543071335,
				"element": "C" 
			},
			{
				"x": 2.6241575757,
				"y": -1.9595034041,
				"z": -0.2750831919,
				"element": "C" 
			},
			{
				"x": 1.9204166708,
				"y": -1.2989227921,
				"z": -1.2837518555,
				"element": "C" 
			},
			{
				"x": 0.9412138792,
				"y": -0.3827652829,
				"z": -0.9357513613,
				"element": "C" 
			},
			{
				"x": 0.1553426354,
				"y": 0.185261396,
				"z": -2.0506337607,
				"element": "N" 
			},
			{
				"x": 0.721111685,
				"y": 1.024057857,
				"z": -2.7484264713,
				"element": "O" 
			},
			{
				"x": -0.9777182818,
				"y": -0.2453558156,
				"z": -2.2236113898,
				"element": "O" 
			},
			{
				"x": 3.6968360813,
				"y": -2.9558343899,
				"z": -0.6300615454,
				"element": "C" 
			},
			{
				"x": 3.8637868459,
				"y": -3.8702716666,
				"z": 0.3459944392,
				"element": "F" 
			},
			{
				"x": 4.8887359731,
				"y": -2.3498368835,
				"z": -0.8202246042,
				"element": "F" 
			},
			{
				"x": 3.3985061095,
				"y": -3.6119931154,
				"z": -1.7710606603,
				"element": "F" 
			},
			{
				"x": 1.4117422804,
				"y": -0.2350753253,
				"z": 2.7760216739,
				"element": "N" 
			},
			{
				"x": 1.3246321343,
				"y": 0.9688459208,
				"z": 3.0100722691,
				"element": "O" 
			},
			{
				"x": 1.5303388642,
				"y": -1.1149090387,
				"z": 3.6259931883,
				"element": "O" 
			},
			{
				"x": -2.701668339,
				"y": 3.6110913881,
				"z": -1.5646453168,
				"element": "H" 
			},
			{
				"x": -1.1734322669,
				"y": 2.963649096,
				"z": -2.1775619263,
				"element": "H" 
			},
			{
				"x": -2.3124848629,
				"y": 1.897294888,
				"z": -1.3592855119,
				"element": "H" 
			},
			{
				"x": -1.9645502189,
				"y": 3.2400928309,
				"z": 0.7924760503,
				"element": "H" 
			},
			{
				"x": -0.8203153453,
				"y": 4.2555309976,
				"z": -0.0485956715,
				"element": "H" 
			},
			{
				"x": 0.6874005889,
				"y": 2.3391773043,
				"z": -0.4452951522,
				"element": "H" 
			},
			{
				"x": 0.4548810667,
				"y": 2.7365573227,
				"z": 1.2572262411,
				"element": "H" 
			},
			{
				"x": -1.201009486,
				"y": 1.5119727379,
				"z": 2.495410406,
				"element": "H" 
			},
			{
				"x": -0.9661223116,
				"y": -0.2192441755,
				"z": 2.332092226,
				"element": "H" 
			},
			{
				"x": -3.1172684302,
				"y": 1.2950560672,
				"z": 0.7944978117,
				"element": "H" 
			},
			{
				"x": -3.3453529305,
				"y": 0.46349052,
				"z": 2.3230324264,
				"element": "H" 
			},
			{
				"x": -4.0556731693,
				"y": -0.9799844735,
				"z": 0.3922468643,
				"element": "H" 
			},
			{
				"x": -2.7085214003,
				"y": -1.7221904824,
				"z": 1.2620748585,
				"element": "H" 
			},
			{
				"x": -2.4227918269,
				"y": -0.8992986728,
				"z": -0.2822152544,
				"element": "H" 
			},
			{
				"x": 2.9119181231,
				"y": -2.1208154543,
				"z": 1.8602355316,
				"element": "H" 
			},
			{
				"x": 2.0975241386,
				"y": -1.5321006037,
				"z": -2.3276854275,
				"element": "H" 
			}
		],
		 "valence_orbital": [ 
			{
				"type": "occ",
				"energy": -0.32441,
				"method": "rhf"
			},
			{
				"type": "occ",
				"energy": -0.3205,
				"method": "rhf"
			},
			{
				"type": "occ",
				"energy": -0.30311,
				"method": "rhf"
			},
			{
				"type": "occ",
				"energy": -0.29367,
				"method": "rhf"
			},
			{
				"type": "occ",
				"energy": -0.24033,
				"method": "rhf"
			},
			{
				"type": "unocc",
				"energy": -0.10695,
				"method": "rhf"
			},
			{
				"type": "unocc",
				"energy": -0.09586,
				"method": "rhf"
			},
			{
				"type": "unocc",
				"energy": -0.06106,
				"method": "rhf"
			},
			{
				"type": "unocc",
				"energy": -0.04339,
				"method": "rhf"
			},
			{
				"type": "unocc",
				"energy": 0.05394,
				"method": "rhf"
			}
		],
		"cosmo_sigma_profile": { 
			"-0.025": 0.0,
			"-0.024": 0.0,
			"-0.023": 0.0,
			"-0.022": 0.0,
			"-0.021": 0.0,
			"-0.02": 0.0,
			"-0.019": 0.0,
			"-0.018": 0.0,
			"-0.017": 0.0,
			"-0.016": 0.0,
			"-0.015": 0.0,
			"-0.014": 0.0,
			"-0.013": 0.0747736156031,
			"-0.012": 0.691256417979,
			"-0.011": 1.45812663814,
			"-0.01": 1.55181947776,
			"-0.009": 3.18166339988,
			"-0.008": 4.6194482017,
			"-0.007": 4.64665112568,
			"-0.006": 6.55012460531,
			"-0.005": 8.43276912073,
			"-0.004": 17.8810754307,
			"-0.003": 37.6799280561,
			"-0.002": 40.1872979476,
			"-0.001": 32.6429977547,
			"0.0": 31.3338992232,
			"0.001": 30.3600566694,
			"0.002": 39.7794289932,
			"0.003": 20.2205849726,
			"0.004": 8.00756674774,
			"0.005": 9.21000098255,
			"0.006": 13.3875941124,
			"0.007": 13.6016989046,
			"0.008": 7.06739385687,
			"0.009": 3.40692062232,
			"0.01": 0.182309506216,
			"0.011": 0.0,
			"0.012": 0.0,
			"0.013": 0.0,
			"0.014": 0.0,
			"0.015": 0.0,
			"0.016": 0.0,
			"0.017": 0.0,
			"0.018": 0.0,
			"0.019": 0.0,
			"0.02": 0.0,
			"0.021": 0.0,
			"0.022": 0.0,
			"0.023": 0.0,
			"0.024": 0.0,
			"0.025": 0.0
		}
	}
}
