{
	 "smiles": "CC1=CC=C2C=CC=CC2=N1", 
	 "Tm": 271.4, 
	 "num_atms": 20, 
	 "gaussian": { 
		 "optdone": 1, 
		 "sigma_profile": "yes", 
		 "theory": "DFT", 
		 "functional": "B3LYP", 
		 "basiset": "6-31G**", 
		 "properties": { 
			 "R2extent": 2145.552, 
			 "electric_dipole_moment_norm": 1.71275584366, 
			 "electric_quadrupole_moment_norm": 9.5051618245, 
			 "total_energy": -441.256153808, 
			 "HOMO_LUMO_gap": 0.18169, 
			 "cosmo_polarized_energy": -6.7, 
			 "cosmo_cavitation_energy": 23.47, 
			 "cosmo_dispersion_energy": -17.66, 
			 "cosmo_repulsion_energy": 1.4, 
			 "cosmo_total_nonelectrostatic_energy": 7.21, 
			 "SMD_solvation_energy": 2.5 
		},
		"coords": [
			{
				"x": 2.9080183945,
				"y": -0.2290093063,
				"z": -1.0338108437,
				"element": "C" 
			},
			{
				"x": 1.8558322279,
				"y": -0.4450494385,
				"z": 0.0257510259,
				"element": "C" 
			},
			{
				"x": 2.2244183773,
				"y": -0.447004549,
				"z": 1.4047209741,
				"element": "C" 
			},
			{
				"x": 1.261836891,
				"y": -0.6440594067,
				"z": 2.3616460633,
				"element": "C" 
			},
			{
				"x": -0.0867506566,
				"y": -0.8431301211,
				"z": 1.9655755081,
				"element": "C" 
			},
			{
				"x": -1.1505151733,
				"y": -1.0545676483,
				"z": 2.8801341351,
				"element": "C" 
			},
			{
				"x": -2.436731288,
				"y": -1.240968449,
				"z": 2.4232645385,
				"element": "C" 
			},
			{
				"x": -2.7100322832,
				"y": -1.2232575704,
				"z": 1.033069908,
				"element": "C" 
			},
			{
				"x": -1.6967227694,
				"y": -1.0200494358,
				"z": 0.1220775295,
				"element": "C" 
			},
			{
				"x": -0.3610085038,
				"y": -0.8249359701,
				"z": 0.5620932132,
				"element": "C" 
			},
			{
				"x": 0.6116237657,
				"y": -0.6270203004,
				"z": -0.3775281183,
				"element": "N" 
			},
			{
				"x": 3.6858601218,
				"y": -1.0000094363,
				"z": -0.9809906022,
				"element": "H" 
			},
			{
				"x": 2.4468041994,
				"y": -0.2593854101,
				"z": -2.0218600696,
				"element": "H" 
			},
			{
				"x": 3.4063303973,
				"y": 0.7390309421,
				"z": -0.9039838094,
				"element": "H" 
			},
			{
				"x": 3.2634784874,
				"y": -0.2923321763,
				"z": 1.6809714595,
				"element": "H" 
			},
			{
				"x": 1.5158525424,
				"y": -0.6501311443,
				"z": 3.4190647631,
				"element": "H" 
			},
			{
				"x": -0.9337281099,
				"y": -1.066962753,
				"z": 3.9456113548,
				"element": "H" 
			},
			{
				"x": -3.2473631191,
				"y": -1.4024416282,
				"z": 3.1278178481,
				"element": "H" 
			},
			{
				"x": -3.7291766241,
				"y": -1.3717026839,
				"z": 0.6875538863,
				"element": "H" 
			},
			{
				"x": -1.881326877,
				"y": -1.0023135143,
				"z": -0.9471787643,
				"element": "H" 
			}
		],
		 "valence_orbital": [ 
			{
				"type": "occ",
				"energy": -0.32877,
				"method": "rhf"
			},
			{
				"type": "occ",
				"energy": -0.30117,
				"method": "rhf"
			},
			{
				"type": "occ",
				"energy": -0.24771,
				"method": "rhf"
			},
			{
				"type": "occ",
				"energy": -0.24229,
				"method": "rhf"
			},
			{
				"type": "occ",
				"energy": -0.22773,
				"method": "rhf"
			},
			{
				"type": "unocc",
				"energy": -0.04604,
				"method": "rhf"
			},
			{
				"type": "unocc",
				"energy": -0.0122,
				"method": "rhf"
			},
			{
				"type": "unocc",
				"energy": 0.02553,
				"method": "rhf"
			},
			{
				"type": "unocc",
				"energy": 0.08807,
				"method": "rhf"
			},
			{
				"type": "unocc",
				"energy": 0.09836,
				"method": "rhf"
			}
		],
		"cosmo_sigma_profile": { 
			"-0.025": 0.0,
			"-0.024": 0.0,
			"-0.023": 0.0,
			"-0.022": 0.0,
			"-0.021": 0.0,
			"-0.02": 0.0,
			"-0.019": 0.0,
			"-0.018": 0.0,
			"-0.017": 0.0,
			"-0.016": 0.0,
			"-0.015": 0.0,
			"-0.014": 0.0,
			"-0.013": 0.0,
			"-0.012": 0.0,
			"-0.011": 0.0,
			"-0.01": 0.0,
			"-0.009": 0.0,
			"-0.008": 0.0,
			"-0.007": 2.82743100779,
			"-0.006": 10.5178683147,
			"-0.005": 13.9615082923,
			"-0.004": 19.053995272,
			"-0.003": 16.4342871256,
			"-0.002": 13.8532987779,
			"-0.001": 14.1414132163,
			"0.0": 14.1233577175,
			"0.001": 12.6189305375,
			"0.002": 16.7640877851,
			"0.003": 18.739541694,
			"0.004": 14.1287634341,
			"0.005": 8.47367572546,
			"0.006": 2.23098642169,
			"0.007": 1.64394984174,
			"0.008": 1.52583405258,
			"0.009": 1.00543084897,
			"0.01": 1.13891648053,
			"0.011": 1.16101666859,
			"0.012": 0.907409543173,
			"0.013": 0.597089433837,
			"0.014": 0.858608965253,
			"0.015": 0.801499804094,
			"0.016": 0.338279174252,
			"0.017": 0.0,
			"0.018": 0.0,
			"0.019": 0.0,
			"0.02": 0.0,
			"0.021": 0.0,
			"0.022": 0.0,
			"0.023": 0.0,
			"0.024": 0.0,
			"0.025": 0.0
		}
	}
}
