{
	 "smiles": "CC1=NN2C(=C1)N=C(Cl)C1=C2C=CC=C1", 
	 "Tm": 412.15, 
	 "num_atms": 23, 
	 "gaussian": { 
		 "optdone": 1, 
		 "sigma_profile": "yes", 
		 "theory": "DFT", 
		 "functional": "B3LYP", 
		 "basiset": "6-31G**", 
		 "properties": { 
			 "R2extent": 5078.2777, 
			 "electric_dipole_moment_norm": 2.44281675531, 
			 "electric_quadrupole_moment_norm": 14.8859661772, 
			 "total_energy": -1048.43656252, 
			 "HOMO_LUMO_gap": 0.15788, 
			 "cosmo_polarized_energy": -7.57, 
			 "cosmo_cavitation_energy": 28.86, 
			 "cosmo_dispersion_energy": -21.89, 
			 "cosmo_repulsion_energy": 1.68, 
			 "cosmo_total_nonelectrostatic_energy": 8.65, 
			 "SMD_solvation_energy": 2.18 
		},
		"coords": [
			{
				"x": 0.9504567033,
				"y": 2.2187780774,
				"z": -2.4121690275,
				"element": "C" 
			},
			{
				"x": 1.0109193045,
				"y": 1.7802781682,
				"z": -0.9799970894,
				"element": "C" 
			},
			{
				"x": 0.2360177543,
				"y": 0.7674962377,
				"z": -0.5558603881,
				"element": "N" 
			},
			{
				"x": 0.5359877902,
				"y": 0.6385471167,
				"z": 0.7549089088,
				"element": "N" 
			},
			{
				"x": 1.492782132,
				"y": 1.5554763162,
				"z": 1.1754275077,
				"element": "C" 
			},
			{
				"x": 1.8123362762,
				"y": 2.307646069,
				"z": 0.0535322779,
				"element": "C" 
			},
			{
				"x": 1.9318696465,
				"y": 1.5890626408,
				"z": 2.4643756665,
				"element": "N" 
			},
			{
				"x": 1.429241233,
				"y": 0.7370519339,
				"z": 3.2915215383,
				"element": "C" 
			},
			{
				"x": 2.0202390997,
				"y": 0.8088821268,
				"z": 4.9518251923,
				"element": "Cl" 
			},
			{
				"x": 0.4297725194,
				"y": -0.2601513627,
				"z": 2.9640551573,
				"element": "C" 
			},
			{
				"x": -0.0213766148,
				"y": -0.2866253721,
				"z": 1.6169411514,
				"element": "C" 
			},
			{
				"x": -0.9866740039,
				"y": -1.210865719,
				"z": 1.1906389524,
				"element": "C" 
			},
			{
				"x": -1.5034997015,
				"y": -2.1104532346,
				"z": 2.1082208163,
				"element": "C" 
			},
			{
				"x": -1.072207895,
				"y": -2.1034242841,
				"z": 3.4478436991,
				"element": "C" 
			},
			{
				"x": -0.1197679167,
				"y": -1.1916288866,
				"z": 3.8688493164,
				"element": "C" 
			},
			{
				"x": 1.2175843967,
				"y": 1.3972617558,
				"z": -3.0846720185,
				"element": "H" 
			},
			{
				"x": 1.6380552566,
				"y": 3.0482123484,
				"z": -2.5924392418,
				"element": "H" 
			},
			{
				"x": -0.0599854629,
				"y": 2.544396089,
				"z": -2.6795346316,
				"element": "H" 
			},
			{
				"x": 2.5235394318,
				"y": 3.1172445412,
				"z": 0.0036334811,
				"element": "H" 
			},
			{
				"x": -1.3004989633,
				"y": -1.1941270764,
				"z": 0.1540723828,
				"element": "H" 
			},
			{
				"x": -2.2511530174,
				"y": -2.8293542079,
				"z": 1.786645806,
				"element": "H" 
			},
			{
				"x": -1.4872052227,
				"y": -2.8150422855,
				"z": 4.1542235285,
				"element": "H" 
			},
			{
				"x": 0.216567254,
				"y": -1.1809609925,
				"z": 4.8989570141,
				"element": "H" 
			}
		],
		 "valence_orbital": [ 
			{
				"type": "occ",
				"energy": -0.30327,
				"method": "rhf"
			},
			{
				"type": "occ",
				"energy": -0.28143,
				"method": "rhf"
			},
			{
				"type": "occ",
				"energy": -0.27687,
				"method": "rhf"
			},
			{
				"type": "occ",
				"energy": -0.23716,
				"method": "rhf"
			},
			{
				"type": "occ",
				"energy": -0.22878,
				"method": "rhf"
			},
			{
				"type": "unocc",
				"energy": -0.0709,
				"method": "rhf"
			},
			{
				"type": "unocc",
				"energy": -0.03292,
				"method": "rhf"
			},
			{
				"type": "unocc",
				"energy": 0.00744,
				"method": "rhf"
			},
			{
				"type": "unocc",
				"energy": 0.02784,
				"method": "rhf"
			},
			{
				"type": "unocc",
				"energy": 0.04526,
				"method": "rhf"
			}
		],
		"cosmo_sigma_profile": { 
			"-0.025": 0.0,
			"-0.024": 0.0,
			"-0.023": 0.0,
			"-0.022": 0.0,
			"-0.021": 0.0,
			"-0.02": 0.0,
			"-0.019": 0.0,
			"-0.018": 0.0,
			"-0.017": 0.0,
			"-0.016": 0.0,
			"-0.015": 0.0,
			"-0.014": 0.0,
			"-0.013": 0.0,
			"-0.012": 0.0,
			"-0.011": 0.0,
			"-0.01": 0.0,
			"-0.009": 0.0,
			"-0.008": 0.570348947424,
			"-0.007": 7.34474168006,
			"-0.006": 10.1894195621,
			"-0.005": 16.0455958367,
			"-0.004": 14.8256910248,
			"-0.003": 16.1119684188,
			"-0.002": 21.2450308264,
			"-0.001": 24.1361338589,
			"0.0": 23.6467180885,
			"0.001": 21.7033541824,
			"0.002": 22.7338059444,
			"0.003": 20.7518038288,
			"0.004": 11.4004735051,
			"0.005": 4.83434460334,
			"0.006": 4.1259428457,
			"0.007": 3.33299088012,
			"0.008": 2.57454920487,
			"0.009": 2.17439376926,
			"0.01": 2.13745031814,
			"0.011": 2.31143387928,
			"0.012": 1.9745023712,
			"0.013": 0.987069301628,
			"0.014": 0.0,
			"0.015": 0.0,
			"0.016": 0.0,
			"0.017": 0.0,
			"0.018": 0.0,
			"0.019": 0.0,
			"0.02": 0.0,
			"0.021": 0.0,
			"0.022": 0.0,
			"0.023": 0.0,
			"0.024": 0.0,
			"0.025": 0.0
		}
	}
}
