{
	 "smiles": "NC1=C(N)C=C(C=C1)S(=O)(=O)C(F)(F)F", 
	 "Tm": 383.15, 
	 "num_atms": 22, 
	 "gaussian": { 
		 "optdone": 1, 
		 "sigma_profile": "yes", 
		 "theory": "DFT", 
		 "functional": "B3LYP", 
		 "basiset": "6-31G**", 
		 "properties": { 
			 "R2extent": 3972.9297, 
			 "electric_dipole_moment_norm": 7.31243204823, 
			 "electric_quadrupole_moment_norm": 12.6374045187, 
			 "total_energy": -1228.54860872, 
			 "HOMO_LUMO_gap": 0.18341, 
			 "cosmo_polarized_energy": -17.33, 
			 "cosmo_cavitation_energy": 29.26, 
			 "cosmo_dispersion_energy": -21.14, 
			 "cosmo_repulsion_energy": 1.57, 
			 "cosmo_total_nonelectrostatic_energy": 9.69, 
			 "SMD_solvation_energy": 5.41 
		},
		"coords": [
			{
				"x": 0.497624248,
				"y": 3.1776860327,
				"z": 1.5836132663,
				"element": "N" 
			},
			{
				"x": 0.6156551451,
				"y": 1.8851332284,
				"z": 1.0866336388,
				"element": "C" 
			},
			{
				"x": 0.2167287893,
				"y": 1.653953348,
				"z": -0.2584863859,
				"element": "C" 
			},
			{
				"x": -0.3161887178,
				"y": 2.7432609614,
				"z": -0.9738339369,
				"element": "N" 
			},
			{
				"x": 0.3217509744,
				"y": 0.3735121122,
				"z": -0.7893881437,
				"element": "C" 
			},
			{
				"x": 0.8354715335,
				"y": -0.6656842811,
				"z": -0.0016913386,
				"element": "C" 
			},
			{
				"x": 1.2692693849,
				"y": -0.4457157985,
				"z": 1.3062878624,
				"element": "C" 
			},
			{
				"x": 1.1539824342,
				"y": 0.8340030721,
				"z": 1.8408961841,
				"element": "C" 
			},
			{
				"x": 0.9498808694,
				"y": -2.2920631755,
				"z": -0.6966464495,
				"element": "S" 
			},
			{
				"x": 1.9512086912,
				"y": -3.0736977196,
				"z": 0.0357816063,
				"element": "O" 
			},
			{
				"x": 0.9398547669,
				"y": -2.2035636338,
				"z": -2.1611568872,
				"element": "O" 
			},
			{
				"x": -0.7034419542,
				"y": -3.0521394477,
				"z": -0.2387113855,
				"element": "C" 
			},
			{
				"x": -0.8425828611,
				"y": -3.0782236574,
				"z": 1.0912567894,
				"element": "F" 
			},
			{
				"x": -0.757298095,
				"y": -4.2957574257,
				"z": -0.7137734597,
				"element": "F" 
			},
			{
				"x": -1.6991295898,
				"y": -2.3314810201,
				"z": -0.7676603682,
				"element": "F" 
			},
			{
				"x": 0.6015002693,
				"y": 3.2643358127,
				"z": 2.5855949546,
				"element": "H" 
			},
			{
				"x": -0.3142470483,
				"y": 3.675119816,
				"z": 1.2343815331,
				"element": "H" 
			},
			{
				"x": 0.2826504676,
				"y": 3.5635821493,
				"z": -0.9354479199,
				"element": "H" 
			},
			{
				"x": -0.531199078,
				"y": 2.5193579114,
				"z": -1.938006497,
				"element": "H" 
			},
			{
				"x": 0.0359031841,
				"y": 0.1774191849,
				"z": -1.8179588507,
				"element": "H" 
			},
			{
				"x": 1.6888733666,
				"y": -1.2590640719,
				"z": 1.8866809682,
				"element": "H" 
			},
			{
				"x": 1.47293322,
				"y": 1.024526602,
				"z": 2.8621348194,
				"element": "H" 
			}
		],
		 "valence_orbital": [ 
			{
				"type": "occ",
				"energy": -0.32362,
				"method": "rhf"
			},
			{
				"type": "occ",
				"energy": -0.30824,
				"method": "rhf"
			},
			{
				"type": "occ",
				"energy": -0.29425,
				"method": "rhf"
			},
			{
				"type": "occ",
				"energy": -0.25363,
				"method": "rhf"
			},
			{
				"type": "occ",
				"energy": -0.21986,
				"method": "rhf"
			},
			{
				"type": "unocc",
				"energy": -0.03645,
				"method": "rhf"
			},
			{
				"type": "unocc",
				"energy": -0.0126,
				"method": "rhf"
			},
			{
				"type": "unocc",
				"energy": 0.05238,
				"method": "rhf"
			},
			{
				"type": "unocc",
				"energy": 0.05781,
				"method": "rhf"
			},
			{
				"type": "unocc",
				"energy": 0.07694,
				"method": "rhf"
			}
		],
		"cosmo_sigma_profile": { 
			"-0.025": 0.0,
			"-0.024": 0.0,
			"-0.023": 0.0,
			"-0.022": 0.0,
			"-0.021": 0.0,
			"-0.02": 0.0,
			"-0.019": 0.0,
			"-0.018": 0.0,
			"-0.017": 0.0,
			"-0.016": 0.0,
			"-0.015": 0.0,
			"-0.014": 0.223232176741,
			"-0.013": 2.16973892476,
			"-0.012": 4.73745074135,
			"-0.011": 4.90879833123,
			"-0.01": 6.87719636255,
			"-0.009": 6.18195767028,
			"-0.008": 5.54006610614,
			"-0.007": 6.2442802423,
			"-0.006": 6.67524062802,
			"-0.005": 7.08511947111,
			"-0.004": 6.83764744299,
			"-0.003": 8.16372981711,
			"-0.002": 9.74851512861,
			"-0.001": 13.108744192,
			"0.0": 21.8121130441,
			"0.001": 40.0359802029,
			"0.002": 18.5585333153,
			"0.003": 13.5152097151,
			"0.004": 8.7118828203,
			"0.005": 4.39149032093,
			"0.006": 4.52929126352,
			"0.007": 4.24441940915,
			"0.008": 4.9054975824,
			"0.009": 8.2880379745,
			"0.01": 10.4409205003,
			"0.011": 3.96871351586,
			"0.012": 0.771194002045,
			"0.013": 0.53217553308,
			"0.014": 0.110936001333,
			"0.015": 0.0,
			"0.016": 0.0,
			"0.017": 0.0,
			"0.018": 0.0,
			"0.019": 0.0,
			"0.02": 0.0,
			"0.021": 0.0,
			"0.022": 0.0,
			"0.023": 0.0,
			"0.024": 0.0,
			"0.025": 0.0
		}
	}
}
