{
	 "smiles": "CC(Cl)C(=O)N1CC(=O)NC2=C1C=CC(=C2)C(F)(F)F", 
	 "Tm": 426.15, 
	 "num_atms": 30, 
	 "gaussian": { 
		 "optdone": 1, 
		 "sigma_profile": "yes", 
		 "theory": "DFT", 
		 "functional": "B3LYP", 
		 "basiset": "6-31G**", 
		 "properties": { 
			 "R2extent": 6638.6751, 
			 "electric_dipole_moment_norm": 2.38626221736, 
			 "electric_quadrupole_moment_norm": 17.8458722939, 
			 "total_energy": -1482.99921909, 
			 "HOMO_LUMO_gap": 0.18421, 
			 "cosmo_polarized_energy": -16.69, 
			 "cosmo_cavitation_energy": 36.6, 
			 "cosmo_dispersion_energy": -25.33, 
			 "cosmo_repulsion_energy": 1.88, 
			 "cosmo_total_nonelectrostatic_energy": 13.15, 
			 "SMD_solvation_energy": 7.97 
		},
		"coords": [
			{
				"x": -1.861418718,
				"y": 2.410210652,
				"z": -0.0446320227,
				"element": "C" 
			},
			{
				"x": -1.7591775117,
				"y": 2.3495304951,
				"z": -1.5632786301,
				"element": "C" 
			},
			{
				"x": -0.3128763754,
				"y": 3.3002120638,
				"z": -2.1766437998,
				"element": "Cl" 
			},
			{
				"x": -1.8439107046,
				"y": 0.975473074,
				"z": -2.2608423744,
				"element": "C" 
			},
			{
				"x": -2.5671247567,
				"y": 0.89556869,
				"z": -3.2429985122,
				"element": "O" 
			},
			{
				"x": -1.2175954604,
				"y": -0.1622712014,
				"z": -1.7559202012,
				"element": "N" 
			},
			{
				"x": -1.6727120444,
				"y": -1.4533622655,
				"z": -2.2929019915,
				"element": "C" 
			},
			{
				"x": -2.2023721379,
				"y": -2.355055127,
				"z": -1.1818094584,
				"element": "C" 
			},
			{
				"x": -3.0702389159,
				"y": -3.1903683452,
				"z": -1.3458167779,
				"element": "O" 
			},
			{
				"x": -1.5790761094,
				"y": -2.1584991416,
				"z": 0.0374216034,
				"element": "N" 
			},
			{
				"x": -0.4686718291,
				"y": -1.3245306053,
				"z": 0.2117446916,
				"element": "C" 
			},
			{
				"x": -0.2611763922,
				"y": -0.2774972029,
				"z": -0.7130020055,
				"element": "C" 
			},
			{
				"x": 0.8827981107,
				"y": 0.5158630323,
				"z": -0.5999770047,
				"element": "C" 
			},
			{
				"x": 1.7624541026,
				"y": 0.3388767107,
				"z": 0.4662814901,
				"element": "C" 
			},
			{
				"x": 1.5235798455,
				"y": -0.6662370638,
				"z": 1.4060220725,
				"element": "C" 
			},
			{
				"x": 0.4200363642,
				"y": -1.5084030479,
				"z": 1.2713711698,
				"element": "C" 
			},
			{
				"x": 2.5061171611,
				"y": -0.9009623039,
				"z": 2.5223012411,
				"element": "C" 
			},
			{
				"x": 3.5066495539,
				"y": -1.7260367583,
				"z": 2.138390674,
				"element": "F" 
			},
			{
				"x": 3.080278291,
				"y": 0.2501309072,
				"z": 2.9317026207,
				"element": "F" 
			},
			{
				"x": 1.9169949698,
				"y": -1.4706253831,
				"z": 3.5973835249,
				"element": "F" 
			},
			{
				"x": -0.9765860336,
				"y": 2.0259069053,
				"z": 0.4601602522,
				"element": "H" 
			},
			{
				"x": -2.0136784081,
				"y": 3.4471433796,
				"z": 0.2646174258,
				"element": "H" 
			},
			{
				"x": -2.7314178506,
				"y": 1.8273969425,
				"z": 0.2788020057,
				"element": "H" 
			},
			{
				"x": -2.6008930963,
				"y": 2.8770373714,
				"z": -2.0092222427,
				"element": "H" 
			},
			{
				"x": -2.4663212459,
				"y": -1.2694698944,
				"z": -3.0130306691,
				"element": "H" 
			},
			{
				"x": -0.8484164377,
				"y": -1.9673596681,
				"z": -2.8051832124,
				"element": "H" 
			},
			{
				"x": -1.8305964915,
				"y": -2.8143026258,
				"z": 0.7666070565,
				"element": "H" 
			},
			{
				"x": 1.0700672832,
				"y": 1.2862121892,
				"z": -1.3366256952,
				"element": "H" 
			},
			{
				"x": 2.6339607407,
				"y": 0.976328012,
				"z": 0.5608999815,
				"element": "H" 
			},
			{
				"x": 0.2485240964,
				"y": -2.3023097906,
				"z": 1.9908787877,
				"element": "H" 
			}
		],
		 "valence_orbital": [ 
			{
				"type": "occ",
				"energy": -0.3124,
				"method": "rhf"
			},
			{
				"type": "occ",
				"energy": -0.28515,
				"method": "rhf"
			},
			{
				"type": "occ",
				"energy": -0.27667,
				"method": "rhf"
			},
			{
				"type": "occ",
				"energy": -0.26136,
				"method": "rhf"
			},
			{
				"type": "occ",
				"energy": -0.24319,
				"method": "rhf"
			},
			{
				"type": "unocc",
				"energy": -0.05898,
				"method": "rhf"
			},
			{
				"type": "unocc",
				"energy": -0.0392,
				"method": "rhf"
			},
			{
				"type": "unocc",
				"energy": -0.02831,
				"method": "rhf"
			},
			{
				"type": "unocc",
				"energy": 0.00734,
				"method": "rhf"
			},
			{
				"type": "unocc",
				"energy": 0.03761,
				"method": "rhf"
			}
		],
		"cosmo_sigma_profile": { 
			"-0.025": 0.0,
			"-0.024": 0.0,
			"-0.023": 0.0,
			"-0.022": 0.0,
			"-0.021": 0.0,
			"-0.02": 0.0,
			"-0.019": 0.0,
			"-0.018": 0.0,
			"-0.017": 0.0450072722786,
			"-0.016": 0.89896344347,
			"-0.015": 1.58061977892,
			"-0.014": 1.12537409129,
			"-0.013": 1.15216854202,
			"-0.012": 1.10749662191,
			"-0.011": 1.34798485261,
			"-0.01": 1.37391947989,
			"-0.009": 2.38918564249,
			"-0.008": 6.80891388169,
			"-0.007": 10.2879666777,
			"-0.006": 12.8628409786,
			"-0.005": 16.7234295198,
			"-0.004": 15.7198343876,
			"-0.003": 17.5672915937,
			"-0.002": 21.7398137924,
			"-0.001": 22.2488508457,
			"0.0": 21.3737564012,
			"0.001": 23.4391300331,
			"0.002": 30.8036118135,
			"0.003": 32.2166343369,
			"0.004": 8.37304826442,
			"0.005": 8.91034540655,
			"0.006": 4.71010621498,
			"0.007": 2.69202114262,
			"0.008": 3.10771644601,
			"0.009": 2.14680597544,
			"0.01": 4.18086581393,
			"0.011": 6.01534028129,
			"0.012": 8.45589098553,
			"0.013": 2.82870613098,
			"0.014": 0.0391042604455,
			"0.015": 0.0,
			"0.016": 0.0,
			"0.017": 0.0,
			"0.018": 0.0,
			"0.019": 0.0,
			"0.02": 0.0,
			"0.021": 0.0,
			"0.022": 0.0,
			"0.023": 0.0,
			"0.024": 0.0,
			"0.025": 0.0
		}
	}
}
