{
	 "smiles": "C(=N/C1=CC=C(C=C1)C#CC1=CC=C(C=C1)N=CC1=CC=CC=C1)C1=CC=CC=C1", 
	 "Tm": 480.15, 
	 "num_atms": 50, 
	 "gaussian": { 
		 "optdone": 1, 
		 "sigma_profile": "yes", 
		 "theory": "DFT", 
		 "functional": "B3LYP", 
		 "basiset": "6-31G**", 
		 "properties": { 
			 "R2extent": 38514.6618, 
			 "electric_dipole_moment_norm": 1.51007989855, 
			 "electric_quadrupole_moment_norm": 38.2893050551, 
			 "total_energy": -1188.47605017, 
			 "HOMO_LUMO_gap": 0.12212, 
			 "cosmo_polarized_energy": -14.72, 
			 "cosmo_cavitation_energy": 58.36, 
			 "cosmo_dispersion_energy": -41.45, 
			 "cosmo_repulsion_energy": 3.09, 
			 "cosmo_total_nonelectrostatic_energy": 20.01, 
			 "SMD_solvation_energy": 7.55 
		},
		"coords": [
			{
				"x": -3.0343378198,
				"y": -4.5142065561,
				"z": 4.2569032182,
				"element": "C" 
			},
			{
				"x": -3.1387660321,
				"y": -3.2370416649,
				"z": 4.2057789213,
				"element": "N" 
			},
			{
				"x": -2.5260335757,
				"y": -2.5151353193,
				"z": 3.1725043479,
				"element": "C" 
			},
			{
				"x": -2.0125641081,
				"y": -1.2417412172,
				"z": 3.479213283,
				"element": "C" 
			},
			{
				"x": -1.3941401915,
				"y": -0.4709490563,
				"z": 2.5063600427,
				"element": "C" 
			},
			{
				"x": -1.2961259264,
				"y": -0.9322372389,
				"z": 1.1753335128,
				"element": "C" 
			},
			{
				"x": -1.8438503529,
				"y": -2.1937972281,
				"z": 0.862321314,
				"element": "C" 
			},
			{
				"x": -2.4458706629,
				"y": -2.971815311,
				"z": 1.8425878453,
				"element": "C" 
			},
			{
				"x": -0.6771174315,
				"y": -0.1378483743,
				"z": 0.1716824528,
				"element": "C" 
			},
			{
				"x": -0.1451166091,
				"y": 0.5424776147,
				"z": -0.6867632291,
				"element": "C" 
			},
			{
				"x": 0.477684581,
				"y": 1.3350721544,
				"z": -1.6894852683,
				"element": "C" 
			},
			{
				"x": 1.0181862292,
				"y": 2.6001396588,
				"z": -1.3781066829,
				"element": "C" 
			},
			{
				"x": 1.6296313694,
				"y": 3.3735980608,
				"z": -2.3561620945,
				"element": "C" 
			},
			{
				"x": 1.719785367,
				"y": 2.9120625309,
				"z": -3.6837543474,
				"element": "C" 
			},
			{
				"x": 1.1492499348,
				"y": 1.6665364926,
				"z": -4.0038042979,
				"element": "C" 
			},
			{
				"x": 0.5549977555,
				"y": 0.8839300574,
				"z": -3.0253509224,
				"element": "C" 
			},
			{
				"x": 2.3022186914,
				"y": 3.6488711516,
				"z": -4.7239818302,
				"element": "N" 
			},
			{
				"x": 3.3433460008,
				"y": 4.3660164776,
				"z": -4.5085085331,
				"element": "C" 
			},
			{
				"x": 3.9528473458,
				"y": 5.206962903,
				"z": -5.544315601,
				"element": "C" 
			},
			{
				"x": 3.4055014016,
				"y": 5.2908391058,
				"z": -6.8373280645,
				"element": "C" 
			},
			{
				"x": 4.0051978942,
				"y": 6.0958573494,
				"z": -7.7992131854,
				"element": "C" 
			},
			{
				"x": 5.1561800431,
				"y": 6.8296638994,
				"z": -7.4872909645,
				"element": "C" 
			},
			{
				"x": 5.7062819292,
				"y": 6.7533260195,
				"z": -6.20658762,
				"element": "C" 
			},
			{
				"x": 5.1074052152,
				"y": 5.9455784614,
				"z": -5.2407398945,
				"element": "C" 
			},
			{
				"x": -3.7094169692,
				"y": -5.3228382268,
				"z": 5.2776771553,
				"element": "C" 
			},
			{
				"x": -4.5362557527,
				"y": -4.7342398295,
				"z": 6.2515358488,
				"element": "C" 
			},
			{
				"x": -5.1630304106,
				"y": -5.525900143,
				"z": 7.2072256199,
				"element": "C" 
			},
			{
				"x": -4.9773630878,
				"y": -6.9137275161,
				"z": 7.2058257643,
				"element": "C" 
			},
			{
				"x": -4.1591507539,
				"y": -7.5069967926,
				"z": 6.2429174191,
				"element": "C" 
			},
			{
				"x": -3.5283764611,
				"y": -6.7149247298,
				"z": 5.2844179385,
				"element": "C" 
			},
			{
				"x": -2.4152087646,
				"y": -5.0743750881,
				"z": 3.5399131867,
				"element": "H" 
			},
			{
				"x": -2.0999888381,
				"y": -0.8841994753,
				"z": 4.5001483045,
				"element": "H" 
			},
			{
				"x": -0.9876713835,
				"y": 0.5031319716,
				"z": 2.7585893627,
				"element": "H" 
			},
			{
				"x": -1.7972289299,
				"y": -2.549518015,
				"z": -0.1620439166,
				"element": "H" 
			},
			{
				"x": -2.8907331724,
				"y": -3.9253561498,
				"z": 1.5745590535,
				"element": "H" 
			},
			{
				"x": 0.9434825204,
				"y": 2.9695302883,
				"z": -0.3602637019,
				"element": "H" 
			},
			{
				"x": 2.0101229048,
				"y": 4.3585880055,
				"z": -2.1031490413,
				"element": "H" 
			},
			{
				"x": 1.1990448725,
				"y": 1.3274256022,
				"z": -5.0335197135,
				"element": "H" 
			},
			{
				"x": 0.1324408608,
				"y": -0.0822880066,
				"z": -3.2813585424,
				"element": "H" 
			},
			{
				"x": 3.8473228708,
				"y": 4.3769285707,
				"z": -3.5302076692,
				"element": "H" 
			},
			{
				"x": 2.5133586924,
				"y": 4.7149261024,
				"z": -7.0595895464,
				"element": "H" 
			},
			{
				"x": 3.578203349,
				"y": 6.1562344176,
				"z": -8.7962132614,
				"element": "H" 
			},
			{
				"x": 5.6207923206,
				"y": 7.4581511616,
				"z": -8.2417057155,
				"element": "H" 
			},
			{
				"x": 6.5991361881,
				"y": 7.3209842774,
				"z": -5.9614528618,
				"element": "H" 
			},
			{
				"x": 5.5339456204,
				"y": 5.8832756872,
				"z": -4.2423374177,
				"element": "H" 
			},
			{
				"x": -4.6678184149,
				"y": -3.6574648165,
				"z": 6.2359812263,
				"element": "H" 
			},
			{
				"x": -5.799983046,
				"y": -5.0655976576,
				"z": 7.9571553434,
				"element": "H" 
			},
			{
				"x": -5.4699352444,
				"y": -7.5284473128,
				"z": 7.9538194241,
				"element": "H" 
			},
			{
				"x": -4.0127914541,
				"y": -8.5831370839,
				"z": 6.2391789907,
				"element": "H" 
			},
			{
				"x": -2.8896885648,
				"y": -7.173925212,
				"z": 4.5334043478,
				"element": "H" 
			}
		],
		 "valence_orbital": [ 
			{
				"type": "occ",
				"energy": -0.2542,
				"method": "rhf"
			},
			{
				"type": "occ",
				"energy": -0.25248,
				"method": "rhf"
			},
			{
				"type": "occ",
				"energy": -0.24956,
				"method": "rhf"
			},
			{
				"type": "occ",
				"energy": -0.22952,
				"method": "rhf"
			},
			{
				"type": "occ",
				"energy": -0.19356,
				"method": "rhf"
			},
			{
				"type": "unocc",
				"energy": -0.07144,
				"method": "rhf"
			},
			{
				"type": "unocc",
				"energy": -0.05807,
				"method": "rhf"
			},
			{
				"type": "unocc",
				"energy": -0.02181,
				"method": "rhf"
			},
			{
				"type": "unocc",
				"energy": -0.0066,
				"method": "rhf"
			},
			{
				"type": "unocc",
				"energy": -0.00637,
				"method": "rhf"
			}
		],
		"cosmo_sigma_profile": { 
			"-0.025": 0.0,
			"-0.024": 0.0,
			"-0.023": 0.0,
			"-0.022": 0.0,
			"-0.021": 0.0,
			"-0.02": 0.0,
			"-0.019": 0.0,
			"-0.018": 0.0,
			"-0.017": 0.0,
			"-0.016": 0.0,
			"-0.015": 0.0,
			"-0.014": 0.0,
			"-0.013": 0.0,
			"-0.012": 0.0,
			"-0.011": 0.0,
			"-0.01": 0.0,
			"-0.009": 0.0,
			"-0.008": 0.50313292196,
			"-0.007": 11.4328496175,
			"-0.006": 34.7801442122,
			"-0.005": 39.0431144817,
			"-0.004": 38.8204653104,
			"-0.003": 30.1426114133,
			"-0.002": 27.5807571878,
			"-0.001": 24.5071243033,
			"0.0": 27.8750093792,
			"0.001": 32.9186751495,
			"0.002": 39.3780306631,
			"0.003": 56.7253117916,
			"0.004": 61.9482215674,
			"0.005": 24.3514714195,
			"0.006": 8.18949618125,
			"0.007": 3.64679387412,
			"0.008": 3.0864825289,
			"0.009": 2.2778575368,
			"0.01": 2.08917216935,
			"0.011": 1.63348115155,
			"0.012": 0.24129208656,
			"0.013": 0.0,
			"0.014": 0.0,
			"0.015": 0.0,
			"0.016": 0.0,
			"0.017": 0.0,
			"0.018": 0.0,
			"0.019": 0.0,
			"0.02": 0.0,
			"0.021": 0.0,
			"0.022": 0.0,
			"0.023": 0.0,
			"0.024": 0.0,
			"0.025": 0.0
		}
	}
}
