{
	 "smiles": "CC1=CC(I)=CN=C1NC(=O)C(C)(C)C", 
	 "Tm": 416.15, 
	 "num_atms": 30, 
	 "gaussian": { 
		 "optdone": 1, 
		 "sigma_profile": "no", 
		 "theory": "DFT", 
		 "functional": "B3LYP", 
		 "basiset": "6-31G**", 
		 "properties": { 
			 "R2extent": 4224.8312, 
			 "electric_dipole_moment_norm": 2.11683180484, 
			 "electric_quadrupole_moment_norm": 15.0044429417, 
			 "total_energy": -624.350501414, 
			 "HOMO_LUMO_gap": 0.18358, 
			 "cosmo_polarized_energy": -103593.78, 
			 "cosmo_cavitation_energy": 35.04, 
			 "cosmo_dispersion_energy": -26.17, 
			 "cosmo_repulsion_energy": 2.02, 
			 "cosmo_total_nonelectrostatic_energy": 10.88, 
			 "SMD_solvation_energy": 5.93 
		},
		"coords": [
			{
				"x": -1.3393558873,
				"y": -0.5136342237,
				"z": -2.4237251185,
				"element": "C" 
			},
			{
				"x": -0.5234250937,
				"y": -0.8174832595,
				"z": -1.192009067,
				"element": "C" 
			},
			{
				"x": 0.2477946985,
				"y": -1.9714540419,
				"z": -1.1153566962,
				"element": "C" 
			},
			{
				"x": 1.0014286234,
				"y": -2.2401493321,
				"z": 0.0318999926,
				"element": "C" 
			},
			{
				"x": 2.1828708321,
				"y": -3.9862767056,
				"z": 0.1744237004,
				"element": "I" 
			},
			{
				"x": 0.9559442443,
				"y": -1.3293283313,
				"z": 1.0799348568,
				"element": "C" 
			},
			{
				"x": 0.2196831928,
				"y": -0.2141324254,
				"z": 1.0273472011,
				"element": "N" 
			},
			{
				"x": -0.5008958101,
				"y": 0.0504049139,
				"z": -0.0616600627,
				"element": "C" 
			},
			{
				"x": -1.2760981728,
				"y": 1.2087859182,
				"z": -0.1311164907,
				"element": "N" 
			},
			{
				"x": -1.5931470936,
				"y": 2.3529514983,
				"z": 0.6364307104,
				"element": "C" 
			},
			{
				"x": -2.3945074588,
				"y": 3.1065839049,
				"z": 0.1010439017,
				"element": "O" 
			},
			{
				"x": -1.0009109988,
				"y": 2.6668492692,
				"z": 2.0226900853,
				"element": "C" 
			},
			{
				"x": -1.585795892,
				"y": 4.02209887,
				"z": 2.4684872501,
				"element": "C" 
			},
			{
				"x": -1.4224517183,
				"y": 1.5886269313,
				"z": 3.0471658967,
				"element": "C" 
			},
			{
				"x": 0.5368901521,
				"y": 2.797661641,
				"z": 1.9417502716,
				"element": "C" 
			},
			{
				"x": -1.2116895984,
				"y": -1.2971904146,
				"z": -3.1740383789,
				"element": "H" 
			},
			{
				"x": -1.0415145963,
				"y": 0.4354873723,
				"z": -2.8869095244,
				"element": "H" 
			},
			{
				"x": -2.4116197857,
				"y": -0.4489586944,
				"z": -2.1985900902,
				"element": "H" 
			},
			{
				"x": 0.2594118438,
				"y": -2.6596941555,
				"z": -1.954410197,
				"element": "H" 
			},
			{
				"x": 1.5225758265,
				"y": -1.4903847536,
				"z": 1.9930432023,
				"element": "H" 
			},
			{
				"x": -1.8076248118,
				"y": 1.294141321,
				"z": -0.9880483431,
				"element": "H" 
			},
			{
				"x": -1.1860746466,
				"y": 4.2771630295,
				"z": 3.4554407085,
				"element": "H" 
			},
			{
				"x": -2.6757447273,
				"y": 3.9858995644,
				"z": 2.5326338924,
				"element": "H" 
			},
			{
				"x": -1.3235036971,
				"y": 4.8204529135,
				"z": 1.7700734957,
				"element": "H" 
			},
			{
				"x": -1.016212708,
				"y": 0.6090520564,
				"z": 2.7966015961,
				"element": "H" 
			},
			{
				"x": -1.0481610376,
				"y": 1.8718824771,
				"z": 4.0369331072,
				"element": "H" 
			},
			{
				"x": -2.513916719,
				"y": 1.5207892949,
				"z": 3.1117122964,
				"element": "H" 
			},
			{
				"x": 1.0118172057,
				"y": 1.8583005654,
				"z": 1.660103998,
				"element": "H" 
			},
			{
				"x": 0.8236240603,
				"y": 3.5753357456,
				"z": 1.2254016306,
				"element": "H" 
			},
			{
				"x": 0.9215097738,
				"y": 3.0933190506,
				"z": 2.9238461747,
				"element": "H" 
			}
		],
		 "valence_orbital": [ 
			{
				"type": "occ",
				"energy": -0.28159,
				"method": "rhf"
			},
			{
				"type": "occ",
				"energy": -0.27811,
				"method": "rhf"
			},
			{
				"type": "occ",
				"energy": -0.27168,
				"method": "rhf"
			},
			{
				"type": "occ",
				"energy": -0.25718,
				"method": "rhf"
			},
			{
				"type": "occ",
				"energy": -0.22927,
				"method": "rhf"
			},
			{
				"type": "unocc",
				"energy": -0.04569,
				"method": "rhf"
			},
			{
				"type": "unocc",
				"energy": -0.04243,
				"method": "rhf"
			},
			{
				"type": "unocc",
				"energy": -0.03294,
				"method": "rhf"
			},
			{
				"type": "unocc",
				"energy": 0.02494,
				"method": "rhf"
			},
			{
				"type": "unocc",
				"energy": 0.03754,
				"method": "rhf"
			}
		],
		"cosmo_sigma_profile": { 
			"0.0": 0.0,
			"0.0": 0.0,
			"0.0": 0.0,
			"0.0": 0.0,
			"0.0": 0.0,
			"0.0": 0.0,
			"0.0": 0.0,
			"0.0": 0.0,
			"0.0": 0.0,
			"0.0": 0.0,
			"0.0": 0.0,
			"0.0": 0.0,
			"0.0": 0.0,
			"0.0": 0.0,
			"0.0": 0.0,
			"0.0": 0.0,
			"0.0": 0.0,
			"0.0": 0.0,
			"0.0": 0.0,
			"0.0": 0.0,
			"0.0": 0.0,
			"0.0": 0.0,
			"0.0": 0.0,
			"0.0": 0.0,
			"0.0": 0.0,
			"0.0": 0.0,
			"0.0": 0.0,
			"0.0": 0.0,
			"0.0": 0.0,
			"0.0": 0.0,
			"0.0": 0.0,
			"0.0": 0.0,
			"0.0": 0.0,
			"0.0": 0.0,
			"0.0": 0.0,
			"0.0": 0.0,
			"0.0": 0.0,
			"0.0": 0.0,
			"0.0": 0.0,
			"0.0": 0.0,
			"0.0": 0.0,
			"0.0": 0.0,
			"0.0": 0.0,
			"0.0": 0.0,
			"0.0": 0.0,
			"0.0": 0.0,
			"0.0": 0.0,
			"0.0": 0.0,
			"0.0": 0.0,
			"0.0": 0.0,
			"0.0": 0.0
		}
	}
}
