{
	 "smiles": "CN1C=C(C(=O)CBr)C2=C1C=CC=C2", 
	 "Tm": 406.15, 
	 "num_atms": 24, 
	 "gaussian": { 
		 "optdone": 1, 
		 "sigma_profile": "yes", 
		 "theory": "DFT", 
		 "functional": "B3LYP", 
		 "basiset": "6-31G**", 
		 "properties": { 
			 "R2extent": 6114.3194, 
			 "electric_dipole_moment_norm": 6.28192091004, 
			 "electric_quadrupole_moment_norm": 21.4468514974, 
			 "total_energy": -3126.58111507, 
			 "HOMO_LUMO_gap": 0.17562, 
			 "cosmo_polarized_energy": -15.17, 
			 "cosmo_cavitation_energy": 30.1, 
			 "cosmo_dispersion_energy": -22.32, 
			 "cosmo_repulsion_energy": 1.74, 
			 "cosmo_total_nonelectrostatic_energy": 9.52, 
			 "SMD_solvation_energy": 4.44 
		},
		"coords": [
			{
				"x": 2.9431060324,
				"y": 0.0405091847,
				"z": -1.1101474843,
				"element": "C" 
			},
			{
				"x": 1.6352823924,
				"y": 0.3176360101,
				"z": -0.5443371827,
				"element": "N" 
			},
			{
				"x": 1.3791911161,
				"y": 1.098725905,
				"z": 0.5423777297,
				"element": "C" 
			},
			{
				"x": 0.0207807626,
				"y": 1.1449914911,
				"z": 0.8055734816,
				"element": "C" 
			},
			{
				"x": -0.4950137304,
				"y": 1.9306077669,
				"z": 1.9364991296,
				"element": "C" 
			},
			{
				"x": 0.2466711822,
				"y": 2.5612355788,
				"z": 2.6734560355,
				"element": "O" 
			},
			{
				"x": -2.0128315298,
				"y": 1.9071567548,
				"z": 2.1291397654,
				"element": "C" 
			},
			{
				"x": -2.6252567265,
				"y": 2.9716685916,
				"z": 3.6478992385,
				"element": "Br" 
			},
			{
				"x": -0.6171428843,
				"y": 0.3213417303,
				"z": -0.2058367028,
				"element": "C" 
			},
			{
				"x": 0.4302029716,
				"y": -0.1774787338,
				"z": -1.0306549306,
				"element": "C" 
			},
			{
				"x": 0.2035358944,
				"y": -1.0170709936,
				"z": -2.1242337625,
				"element": "C" 
			},
			{
				"x": -1.1130286767,
				"y": -1.368793439,
				"z": -2.4014315002,
				"element": "C" 
			},
			{
				"x": -2.1690586187,
				"y": -0.8911937003,
				"z": -1.6038674545,
				"element": "C" 
			},
			{
				"x": -1.9360632725,
				"y": -0.0556634581,
				"z": -0.5166575813,
				"element": "C" 
			},
			{
				"x": 3.7012991387,
				"y": 0.5609765169,
				"z": -0.5236317247,
				"element": "H" 
			},
			{
				"x": 3.1552240931,
				"y": -1.0333981963,
				"z": -1.0872164916,
				"element": "H" 
			},
			{
				"x": 2.9982806434,
				"y": 0.3890517275,
				"z": -2.1466166226,
				"element": "H" 
			},
			{
				"x": 2.1732794425,
				"y": 1.5907111917,
				"z": 1.0853648731,
				"element": "H" 
			},
			{
				"x": -2.5152238798,
				"y": 2.3008647933,
				"z": 1.2433808366,
				"element": "H" 
			},
			{
				"x": -2.3595164192,
				"y": 0.8857398139,
				"z": 2.2979444039,
				"element": "H" 
			},
			{
				"x": 1.0218918387,
				"y": -1.3829588546,
				"z": -2.7365697216,
				"element": "H" 
			},
			{
				"x": -1.3280806718,
				"y": -2.0196454533,
				"z": -3.2433164013,
				"element": "H" 
			},
			{
				"x": -3.1879313259,
				"y": -1.1813237458,
				"z": -1.8424581551,
				"element": "H" 
			},
			{
				"x": -2.7740977725,
				"y": 0.293509518,
				"z": 0.076240222,
				"element": "H" 
			}
		],
		 "valence_orbital": [ 
			{
				"type": "occ",
				"energy": -0.26426,
				"method": "rhf"
			},
			{
				"type": "occ",
				"energy": -0.26391,
				"method": "rhf"
			},
			{
				"type": "occ",
				"energy": -0.24932,
				"method": "rhf"
			},
			{
				"type": "occ",
				"energy": -0.23877,
				"method": "rhf"
			},
			{
				"type": "occ",
				"energy": -0.219,
				"method": "rhf"
			},
			{
				"type": "unocc",
				"energy": -0.04338,
				"method": "rhf"
			},
			{
				"type": "unocc",
				"energy": -0.01206,
				"method": "rhf"
			},
			{
				"type": "unocc",
				"energy": 0.01082,
				"method": "rhf"
			},
			{
				"type": "unocc",
				"energy": 0.01197,
				"method": "rhf"
			},
			{
				"type": "unocc",
				"energy": 0.07427,
				"method": "rhf"
			}
		],
		"cosmo_sigma_profile": { 
			"-0.025": 0.0,
			"-0.024": 0.0,
			"-0.023": 0.0,
			"-0.022": 0.0,
			"-0.021": 0.0,
			"-0.02": 0.0,
			"-0.019": 0.0,
			"-0.018": 0.0,
			"-0.017": 0.0,
			"-0.016": 0.0,
			"-0.015": 0.0,
			"-0.014": 0.0,
			"-0.013": 0.0,
			"-0.012": 0.0,
			"-0.011": 0.0,
			"-0.01": 0.582610793816,
			"-0.009": 3.73102146961,
			"-0.008": 8.3311940806,
			"-0.007": 10.136976921,
			"-0.006": 18.4029087992,
			"-0.005": 18.0677053759,
			"-0.004": 19.3956450045,
			"-0.003": 19.3510046632,
			"-0.002": 12.5010449248,
			"-0.001": 11.4448293242,
			"0.0": 9.56049424078,
			"0.001": 13.8267733288,
			"0.002": 14.0923797508,
			"0.003": 15.1655566623,
			"0.004": 15.9095544827,
			"0.005": 16.3418440755,
			"0.006": 16.6029544312,
			"0.007": 2.77632265161,
			"0.008": 1.73620509528,
			"0.009": 2.30955719643,
			"0.01": 2.14065423895,
			"0.011": 2.70081743272,
			"0.012": 4.47337357096,
			"0.013": 3.16410346678,
			"0.014": 1.14269741821,
			"0.015": 0.00226123733495,
			"0.016": 0.0,
			"0.017": 0.0,
			"0.018": 0.0,
			"0.019": 0.0,
			"0.02": 0.0,
			"0.021": 0.0,
			"0.022": 0.0,
			"0.023": 0.0,
			"0.024": 0.0,
			"0.025": 0.0
		}
	}
}
