{
	 "smiles": "CC1=CC(=C(C)O1)S(N)(=O)=O", 
	 "Tm": 360.15, 
	 "num_atms": 20, 
	 "gaussian": { 
		 "optdone": 1, 
		 "sigma_profile": "yes", 
		 "theory": "DFT", 
		 "functional": "B3LYP", 
		 "basiset": "6-31G**", 
		 "properties": { 
			 "R2extent": 2175.4465, 
			 "electric_dipole_moment_norm": 5.89370282335, 
			 "electric_quadrupole_moment_norm": 15.8353960974, 
			 "total_energy": -912.592216105, 
			 "HOMO_LUMO_gap": 0.22046, 
			 "cosmo_polarized_energy": -17.72, 
			 "cosmo_cavitation_energy": 25.38, 
			 "cosmo_dispersion_energy": -19.09, 
			 "cosmo_repulsion_energy": 1.52, 
			 "cosmo_total_nonelectrostatic_energy": 7.81, 
			 "SMD_solvation_energy": 4.91 
		},
		"coords": [
			{
				"x": 1.4431573119,
				"y": 2.5554530897,
				"z": -1.5501201975,
				"element": "C" 
			},
			{
				"x": 0.6581071029,
				"y": 1.5298898167,
				"z": -0.8119908906,
				"element": "C" 
			},
			{
				"x": 0.9595297631,
				"y": 0.3202031584,
				"z": -0.2721994157,
				"element": "C" 
			},
			{
				"x": -0.2666415462,
				"y": -0.1816043251,
				"z": 0.2901918044,
				"element": "C" 
			},
			{
				"x": -1.2406605434,
				"y": 0.7557296854,
				"z": 0.0570995878,
				"element": "C" 
			},
			{
				"x": -2.6952282478,
				"y": 0.857395598,
				"z": 0.3492536205,
				"element": "C" 
			},
			{
				"x": -0.6768771419,
				"y": 1.8009178463,
				"z": -0.6137788691,
				"element": "O" 
			},
			{
				"x": -0.4199755326,
				"y": -1.727101421,
				"z": 1.1365492061,
				"element": "S" 
			},
			{
				"x": 0.0959157773,
				"y": -1.4758810862,
				"z": 2.7192919881,
				"element": "N" 
			},
			{
				"x": -1.8423647109,
				"y": -2.0546609085,
				"z": 1.2369246509,
				"element": "O" 
			},
			{
				"x": 0.5623983323,
				"y": -2.634637579,
				"z": 0.5494064462,
				"element": "O" 
			},
			{
				"x": 1.0389290551,
				"y": 2.7198465488,
				"z": -2.5552501697,
				"element": "H" 
			},
			{
				"x": 2.4804876808,
				"y": 2.2278865588,
				"z": -1.6472150891,
				"element": "H" 
			},
			{
				"x": 1.4332578661,
				"y": 3.519470353,
				"z": -1.0289500746,
				"element": "H" 
			},
			{
				"x": 1.9133316782,
				"y": -0.1854893381,
				"z": -0.2920128507,
				"element": "H" 
			},
			{
				"x": -3.2581582467,
				"y": 1.0248523365,
				"z": -0.5753719195,
				"element": "H" 
			},
			{
				"x": -3.0440521519,
				"y": -0.0658411333,
				"z": 0.8111574171,
				"element": "H" 
			},
			{
				"x": -2.9040335556,
				"y": 1.7014010561,
				"z": 1.0170972151,
				"element": "H" 
			},
			{
				"x": 1.0804567299,
				"y": -1.2332565883,
				"z": 2.7711200657,
				"element": "H" 
			},
			{
				"x": -0.4964796205,
				"y": -0.8234736682,
				"z": 3.2235974745,
				"element": "H" 
			}
		],
		 "valence_orbital": [ 
			{
				"type": "occ",
				"energy": -0.31385,
				"method": "rhf"
			},
			{
				"type": "occ",
				"energy": -0.30487,
				"method": "rhf"
			},
			{
				"type": "occ",
				"energy": -0.30076,
				"method": "rhf"
			},
			{
				"type": "occ",
				"energy": -0.28315,
				"method": "rhf"
			},
			{
				"type": "occ",
				"energy": -0.2337,
				"method": "rhf"
			},
			{
				"type": "unocc",
				"energy": -0.01324,
				"method": "rhf"
			},
			{
				"type": "unocc",
				"energy": 0.02875,
				"method": "rhf"
			},
			{
				"type": "unocc",
				"energy": 0.05663,
				"method": "rhf"
			},
			{
				"type": "unocc",
				"energy": 0.08252,
				"method": "rhf"
			},
			{
				"type": "unocc",
				"energy": 0.09628,
				"method": "rhf"
			}
		],
		"cosmo_sigma_profile": { 
			"-0.025": 0.0,
			"-0.024": 0.0,
			"-0.023": 0.0,
			"-0.022": 0.0,
			"-0.021": 0.0,
			"-0.02": 0.0,
			"-0.019": 0.0,
			"-0.018": 0.0,
			"-0.017": 0.0,
			"-0.016": 0.0690272107525,
			"-0.015": 1.71081080292,
			"-0.014": 2.98084885967,
			"-0.013": 2.4180070564,
			"-0.012": 2.77192190777,
			"-0.011": 2.61050326232,
			"-0.01": 1.90868816034,
			"-0.009": 2.61360631636,
			"-0.008": 1.66033921624,
			"-0.007": 2.95993004688,
			"-0.006": 9.27605622937,
			"-0.005": 13.9131584874,
			"-0.004": 11.8489460366,
			"-0.003": 15.5504789617,
			"-0.002": 17.8754759001,
			"-0.001": 18.1699194337,
			"0.0": 12.3227250343,
			"0.001": 8.78672513787,
			"0.002": 8.67171718713,
			"0.003": 8.02603738697,
			"0.004": 7.19009217222,
			"0.005": 4.08910734472,
			"0.006": 4.5987976359,
			"0.007": 5.9244813943,
			"0.008": 5.50977489782,
			"0.009": 4.68854272108,
			"0.01": 6.10606815336,
			"0.011": 10.5441897781,
			"0.012": 6.01543731311,
			"0.013": 0.449754811544,
			"0.014": 0.0,
			"0.015": 0.0,
			"0.016": 0.0,
			"0.017": 0.0,
			"0.018": 0.0,
			"0.019": 0.0,
			"0.02": 0.0,
			"0.021": 0.0,
			"0.022": 0.0,
			"0.023": 0.0,
			"0.024": 0.0,
			"0.025": 0.0
		}
	}
}
