{
	 "smiles": "CCCCC1=CC=CC=C1", 
	 "Tm": 185.15, 
	 "num_atms": 24, 
	 "gaussian": { 
		 "optdone": 1, 
		 "sigma_profile": "yes", 
		 "theory": "DFT", 
		 "functional": "B3LYP", 
		 "basiset": "6-31G**", 
		 "properties": { 
			 "R2extent": 2094.0822, 
			 "electric_dipole_moment_norm": 0.251751246273, 
			 "electric_quadrupole_moment_norm": 4.36211612523, 
			 "total_energy": -389.518333674, 
			 "HOMO_LUMO_gap": 0.23817, 
			 "cosmo_polarized_energy": -3.09, 
			 "cosmo_cavitation_energy": 26.13, 
			 "cosmo_dispersion_energy": -18.49, 
			 "cosmo_repulsion_energy": 1.51, 
			 "cosmo_total_nonelectrostatic_energy": 9.15, 
			 "SMD_solvation_energy": 4.09 
		},
		"coords": [
			{
				"x": 0.3587420984,
				"y": 3.7317623045,
				"z": 0.3320428299,
				"element": "C" 
			},
			{
				"x": 1.4484996998,
				"y": 2.7968091829,
				"z": 0.8701856884,
				"element": "C" 
			},
			{
				"x": 2.3035370218,
				"y": 2.1280347194,
				"z": -0.2181486397,
				"element": "C" 
			},
			{
				"x": 1.5592409999,
				"y": 1.1094717074,
				"z": -1.1127005972,
				"element": "C" 
			},
			{
				"x": 1.0614846827,
				"y": -0.1139166469,
				"z": -0.3696647954,
				"element": "C" 
			},
			{
				"x": 1.957541386,
				"y": -1.1168456534,
				"z": 0.0309779656,
				"element": "C" 
			},
			{
				"x": 1.5159101036,
				"y": -2.2393903549,
				"z": 0.7306966437,
				"element": "C" 
			},
			{
				"x": 0.1621690954,
				"y": -2.3826196695,
				"z": 1.0446825597,
				"element": "C" 
			},
			{
				"x": -0.7417088121,
				"y": -1.3957500884,
				"z": 0.650679087,
				"element": "C" 
			},
			{
				"x": -0.2934509209,
				"y": -0.2737836197,
				"z": -0.0503062765,
				"element": "C" 
			},
			{
				"x": -0.3786154556,
				"y": 3.1967347844,
				"z": -0.2757692518,
				"element": "H" 
			},
			{
				"x": -0.1844851641,
				"y": 4.2149352818,
				"z": 1.1508363724,
				"element": "H" 
			},
			{
				"x": 0.7891401062,
				"y": 4.5228227819,
				"z": -0.2934335918,
				"element": "H" 
			},
			{
				"x": 2.1144964286,
				"y": 3.3703428426,
				"z": 1.5273545664,
				"element": "H" 
			},
			{
				"x": 0.9918347728,
				"y": 2.0233307234,
				"z": 1.5000116776,
				"element": "H" 
			},
			{
				"x": 2.7367593935,
				"y": 2.9044491189,
				"z": -0.863663234,
				"element": "H" 
			},
			{
				"x": 3.1501119914,
				"y": 1.6172848016,
				"z": 0.2582692482,
				"element": "H" 
			},
			{
				"x": 0.7171112015,
				"y": 1.6011085023,
				"z": -1.6128318035,
				"element": "H" 
			},
			{
				"x": 2.243900863,
				"y": 0.7922906158,
				"z": -1.9094200915,
				"element": "H" 
			},
			{
				"x": 3.0125937348,
				"y": -1.0181206937,
				"z": -0.215085316,
				"element": "H" 
			},
			{
				"x": 2.227261039,
				"y": -3.0056535813,
				"z": 1.0267660128,
				"element": "H" 
			},
			{
				"x": -0.1841003924,
				"y": -3.2576274434,
				"z": 1.5873162236,
				"element": "H" 
			},
			{
				"x": -1.7976995755,
				"y": -1.4987148411,
				"z": 0.88529754,
				"element": "H" 
			},
			{
				"x": -1.006674298,
				"y": 0.4865452254,
				"z": -0.3596928179,
				"element": "H" 
			}
		],
		 "valence_orbital": [ 
			{
				"type": "occ",
				"energy": -0.32214,
				"method": "rhf"
			},
			{
				"type": "occ",
				"energy": -0.31827,
				"method": "rhf"
			},
			{
				"type": "occ",
				"energy": -0.31323,
				"method": "rhf"
			},
			{
				"type": "occ",
				"energy": -0.24439,
				"method": "rhf"
			},
			{
				"type": "occ",
				"energy": -0.23579,
				"method": "rhf"
			},
			{
				"type": "unocc",
				"energy": 0.00238,
				"method": "rhf"
			},
			{
				"type": "unocc",
				"energy": 0.00539,
				"method": "rhf"
			},
			{
				"type": "unocc",
				"energy": 0.08231,
				"method": "rhf"
			},
			{
				"type": "unocc",
				"energy": 0.10697,
				"method": "rhf"
			},
			{
				"type": "unocc",
				"energy": 0.11288,
				"method": "rhf"
			}
		],
		"cosmo_sigma_profile": { 
			"-0.025": 0.0,
			"-0.024": 0.0,
			"-0.023": 0.0,
			"-0.022": 0.0,
			"-0.021": 0.0,
			"-0.02": 0.0,
			"-0.019": 0.0,
			"-0.018": 0.0,
			"-0.017": 0.0,
			"-0.016": 0.0,
			"-0.015": 0.0,
			"-0.014": 0.0,
			"-0.013": 0.0,
			"-0.012": 0.0,
			"-0.011": 0.0,
			"-0.01": 0.0,
			"-0.009": 0.0,
			"-0.008": 0.0,
			"-0.007": 0.0,
			"-0.006": 0.9353138078,
			"-0.005": 7.86249868552,
			"-0.004": 11.6768485371,
			"-0.003": 22.1193714706,
			"-0.002": 25.3077867017,
			"-0.001": 26.6349527022,
			"0.0": 28.8711298373,
			"0.001": 27.5589049207,
			"0.002": 17.8703171263,
			"0.003": 7.82197192758,
			"0.004": 8.18429698261,
			"0.005": 7.56237141471,
			"0.006": 7.9424830564,
			"0.007": 4.13109962019,
			"0.008": 0.000765294334384,
			"0.009": 0.0,
			"0.01": 0.0,
			"0.011": 0.0,
			"0.012": 0.0,
			"0.013": 0.0,
			"0.014": 0.0,
			"0.015": 0.0,
			"0.016": 0.0,
			"0.017": 0.0,
			"0.018": 0.0,
			"0.019": 0.0,
			"0.02": 0.0,
			"0.021": 0.0,
			"0.022": 0.0,
			"0.023": 0.0,
			"0.024": 0.0,
			"0.025": 0.0
		}
	}
}
