{
	 "smiles": "C(CSC1=CC=CC=C1)SC1=CC=CC=C1", 
	 "Tm": 342.15, 
	 "num_atms": 30, 
	 "gaussian": { 
		 "optdone": 1, 
		 "sigma_profile": "yes", 
		 "theory": "DFT", 
		 "functional": "B3LYP", 
		 "basiset": "6-31G**", 
		 "properties": { 
			 "R2extent": 6482.2989, 
			 "electric_dipole_moment_norm": 3.39793305408, 
			 "electric_quadrupole_moment_norm": 14.734309071, 
			 "total_energy": -1338.29886069, 
			 "HOMO_LUMO_gap": 0.19505, 
			 "cosmo_polarized_energy": -9.61, 
			 "cosmo_cavitation_energy": 37.02, 
			 "cosmo_dispersion_energy": -26.2, 
			 "cosmo_repulsion_energy": 1.98, 
			 "cosmo_total_nonelectrostatic_energy": 12.79, 
			 "SMD_solvation_energy": 5.17 
		},
		"coords": [
			{
				"x": 2.5023792457,
				"y": -1.8397484933,
				"z": 0.9035137463,
				"element": "C" 
			},
			{
				"x": 1.3851839087,
				"y": -0.8120369503,
				"z": 1.0540294297,
				"element": "C" 
			},
			{
				"x": 1.9788786342,
				"y": 0.9052796164,
				"z": 0.7059360351,
				"element": "S" 
			},
			{
				"x": 0.6231413076,
				"y": 1.8445210111,
				"z": 1.4188163664,
				"element": "C" 
			},
			{
				"x": 0.8227975707,
				"y": 2.5623736146,
				"z": 2.6054900989,
				"element": "C" 
			},
			{
				"x": -0.211597861,
				"y": 3.3302160788,
				"z": 3.1445065172,
				"element": "C" 
			},
			{
				"x": -1.4543853816,
				"y": 3.3772559998,
				"z": 2.5110264259,
				"element": "C" 
			},
			{
				"x": -1.6582948344,
				"y": 2.6624007103,
				"z": 1.3282362575,
				"element": "C" 
			},
			{
				"x": -0.6222587071,
				"y": 1.9079621594,
				"z": 0.7771444897,
				"element": "C" 
			},
			{
				"x": 3.2853753686,
				"y": -1.9488609999,
				"z": -0.7638545049,
				"element": "S" 
			},
			{
				"x": 1.8847943546,
				"y": -2.4390537119,
				"z": -1.7779688159,
				"element": "C" 
			},
			{
				"x": 1.1917961376,
				"y": -1.4768835323,
				"z": -2.5257700571,
				"element": "C" 
			},
			{
				"x": 0.1279446497,
				"y": -1.8610533773,
				"z": -3.3453029107,
				"element": "C" 
			},
			{
				"x": -0.2502027634,
				"y": -3.2026214494,
				"z": -3.4222374166,
				"element": "C" 
			},
			{
				"x": 0.4405692232,
				"y": -4.1644746696,
				"z": -2.6811337512,
				"element": "C" 
			},
			{
				"x": 1.5081778915,
				"y": -3.7868153084,
				"z": -1.8658846516,
				"element": "C" 
			},
			{
				"x": 3.3353518832,
				"y": -1.6078848039,
				"z": 1.574269615,
				"element": "H" 
			},
			{
				"x": 2.1172146737,
				"y": -2.828115281,
				"z": 1.1745354622,
				"element": "H" 
			},
			{
				"x": 1.0158264345,
				"y": -0.8370984403,
				"z": 2.0840508571,
				"element": "H" 
			},
			{
				"x": 0.5543038994,
				"y": -1.0509562279,
				"z": 0.3845171759,
				"element": "H" 
			},
			{
				"x": 1.78804921,
				"y": 2.5157539411,
				"z": 3.099799553,
				"element": "H" 
			},
			{
				"x": -0.0464306677,
				"y": 3.8865140278,
				"z": 4.0629339881,
				"element": "H" 
			},
			{
				"x": -2.2594908741,
				"y": 3.9712897706,
				"z": 2.9338238922,
				"element": "H" 
			},
			{
				"x": -2.6213703647,
				"y": 2.7019243203,
				"z": 0.8269662275,
				"element": "H" 
			},
			{
				"x": -0.7725383482,
				"y": 1.3714812312,
				"z": -0.1548485528,
				"element": "H" 
			},
			{
				"x": 1.4910506596,
				"y": -0.4357858291,
				"z": -2.4581553101,
				"element": "H" 
			},
			{
				"x": -0.4038882882,
				"y": -1.1109149024,
				"z": -3.9238489545,
				"element": "H" 
			},
			{
				"x": -1.0769675525,
				"y": -3.4993826077,
				"z": -4.0612882243,
				"element": "H" 
			},
			{
				"x": 0.1541336079,
				"y": -5.2105000733,
				"z": -2.7444854946,
				"element": "H" 
			},
			{
				"x": 2.0591569825,
				"y": -4.5334858235,
				"z": -1.3020174933,
				"element": "H" 
			}
		],
		 "valence_orbital": [ 
			{
				"type": "occ",
				"energy": -0.2559,
				"method": "rhf"
			},
			{
				"type": "occ",
				"energy": -0.25508,
				"method": "rhf"
			},
			{
				"type": "occ",
				"energy": -0.25189,
				"method": "rhf"
			},
			{
				"type": "occ",
				"energy": -0.23173,
				"method": "rhf"
			},
			{
				"type": "occ",
				"energy": -0.21548,
				"method": "rhf"
			},
			{
				"type": "unocc",
				"energy": -0.02043,
				"method": "rhf"
			},
			{
				"type": "unocc",
				"energy": -0.01605,
				"method": "rhf"
			},
			{
				"type": "unocc",
				"energy": -0.00763,
				"method": "rhf"
			},
			{
				"type": "unocc",
				"energy": -0.00605,
				"method": "rhf"
			},
			{
				"type": "unocc",
				"energy": 0.04161,
				"method": "rhf"
			}
		],
		"cosmo_sigma_profile": { 
			"-0.025": 0.0,
			"-0.024": 0.0,
			"-0.023": 0.0,
			"-0.022": 0.0,
			"-0.021": 0.0,
			"-0.02": 0.0,
			"-0.019": 0.0,
			"-0.018": 0.0,
			"-0.017": 0.0,
			"-0.016": 0.0,
			"-0.015": 0.0,
			"-0.014": 0.0,
			"-0.013": 0.0,
			"-0.012": 0.0,
			"-0.011": 0.0,
			"-0.01": 0.0,
			"-0.009": 0.0,
			"-0.008": 0.0,
			"-0.007": 0.709225228247,
			"-0.006": 17.9814135046,
			"-0.005": 27.8953468338,
			"-0.004": 33.0623930141,
			"-0.003": 24.9191766595,
			"-0.002": 20.6388100593,
			"-0.001": 17.6198921124,
			"0.0": 18.9791791152,
			"0.001": 21.1326948206,
			"0.002": 21.5550517373,
			"0.003": 24.5519319709,
			"0.004": 23.2763508697,
			"0.005": 23.0656781328,
			"0.006": 8.03787171375,
			"0.007": 5.21211406251,
			"0.008": 5.10416202801,
			"0.009": 3.60959886264,
			"0.01": 1.29179601159,
			"0.011": 0.0448803160247,
			"0.012": 0.0,
			"0.013": 0.0,
			"0.014": 0.0,
			"0.015": 0.0,
			"0.016": 0.0,
			"0.017": 0.0,
			"0.018": 0.0,
			"0.019": 0.0,
			"0.02": 0.0,
			"0.021": 0.0,
			"0.022": 0.0,
			"0.023": 0.0,
			"0.024": 0.0,
			"0.025": 0.0
		}
	}
}
