{
	 "smiles": "NC(=O)C1=CC2=C(OCO2)C=C1", 
	 "Tm": 441.15, 
	 "num_atms": 19, 
	 "gaussian": { 
		 "optdone": 1, 
		 "sigma_profile": "yes", 
		 "theory": "DFT", 
		 "functional": "B3LYP", 
		 "basiset": "6-31G**", 
		 "properties": { 
			 "R2extent": 2721.115, 
			 "electric_dipole_moment_norm": 3.81751225014, 
			 "electric_quadrupole_moment_norm": 9.24896329163, 
			 "total_energy": -589.483282377, 
			 "HOMO_LUMO_gap": 0.18348, 
			 "cosmo_polarized_energy": -14.63, 
			 "cosmo_cavitation_energy": 23.43, 
			 "cosmo_dispersion_energy": -18.01, 
			 "cosmo_repulsion_energy": 1.43, 
			 "cosmo_total_nonelectrostatic_energy": 6.85, 
			 "SMD_solvation_energy": 5.5 
		},
		"coords": [
			{
				"x": 0.7933505877,
				"y": 0.3511463395,
				"z": -2.3507202287,
				"element": "N" 
			},
			{
				"x": -0.068806954,
				"y": -0.3594921195,
				"z": -1.5433200711,
				"element": "C" 
			},
			{
				"x": -0.5195075982,
				"y": -1.4453196173,
				"z": -1.8888258805,
				"element": "O" 
			},
			{
				"x": -0.3977782009,
				"y": 0.2584302928,
				"z": -0.217100622,
				"element": "C" 
			},
			{
				"x": 0.3772841035,
				"y": 1.2977495919,
				"z": 0.3504731824,
				"element": "C" 
			},
			{
				"x": -0.0277510079,
				"y": 1.7831881969,
				"z": 1.5750188091,
				"element": "C" 
			},
			{
				"x": -1.1468928558,
				"y": 1.2807761819,
				"z": 2.2380646426,
				"element": "C" 
			},
			{
				"x": -1.3207292015,
				"y": 1.9472754403,
				"z": 3.4223944013,
				"element": "O" 
			},
			{
				"x": -0.1944486985,
				"y": 2.82574299,
				"z": 3.5515332613,
				"element": "C" 
			},
			{
				"x": 0.543610022,
				"y": 2.7833548175,
				"z": 2.3250946909,
				"element": "O" 
			},
			{
				"x": -1.9128093591,
				"y": 0.2599209796,
				"z": 1.7065379666,
				"element": "C" 
			},
			{
				"x": -1.5114328227,
				"y": -0.247933135,
				"z": 0.4621281374,
				"element": "C" 
			},
			{
				"x": 0.8962011854,
				"y": -0.0186580182,
				"z": -3.2851402018,
				"element": "H" 
			},
			{
				"x": 0.8631116617,
				"y": 1.3525437733,
				"z": -2.2551227024,
				"element": "H" 
			},
			{
				"x": 1.2743909872,
				"y": 1.6779244711,
				"z": -0.1243450055,
				"element": "H" 
			},
			{
				"x": 0.4429258638,
				"y": 2.482493174,
				"z": 4.3777937476,
				"element": "H" 
			},
			{
				"x": -0.5479431098,
				"y": 3.8464463996,
				"z": 3.7308343993,
				"element": "H" 
			},
			{
				"x": -2.7783384683,
				"y": -0.1277904775,
				"z": 2.2314761632,
				"element": "H" 
			},
			{
				"x": -2.0602361349,
				"y": -1.0578992809,
				"z": -0.0046746899,
				"element": "H" 
			}
		],
		 "valence_orbital": [ 
			{
				"type": "occ",
				"energy": -0.31713,
				"method": "rhf"
			},
			{
				"type": "occ",
				"energy": -0.27029,
				"method": "rhf"
			},
			{
				"type": "occ",
				"energy": -0.25591,
				"method": "rhf"
			},
			{
				"type": "occ",
				"energy": -0.24776,
				"method": "rhf"
			},
			{
				"type": "occ",
				"energy": -0.21479,
				"method": "rhf"
			},
			{
				"type": "unocc",
				"energy": -0.03131,
				"method": "rhf"
			},
			{
				"type": "unocc",
				"energy": -0.00445,
				"method": "rhf"
			},
			{
				"type": "unocc",
				"energy": 0.06417,
				"method": "rhf"
			},
			{
				"type": "unocc",
				"energy": 0.08232,
				"method": "rhf"
			},
			{
				"type": "unocc",
				"energy": 0.09452,
				"method": "rhf"
			}
		],
		"cosmo_sigma_profile": { 
			"-0.025": 0.0,
			"-0.024": 0.0,
			"-0.023": 0.0,
			"-0.022": 0.0,
			"-0.021": 0.0,
			"-0.02": 0.0,
			"-0.019": 0.0,
			"-0.018": 0.0,
			"-0.017": 0.0,
			"-0.016": 0.0,
			"-0.015": 0.00591684238343,
			"-0.014": 1.35265826909,
			"-0.013": 1.74765138086,
			"-0.012": 3.26145805847,
			"-0.011": 1.88758583013,
			"-0.01": 2.61614786064,
			"-0.009": 3.03601748495,
			"-0.008": 7.79120519516,
			"-0.007": 11.2993168009,
			"-0.006": 10.4630102718,
			"-0.005": 9.78858852207,
			"-0.004": 7.92228541465,
			"-0.003": 6.8714156539,
			"-0.002": 7.2373178241,
			"-0.001": 9.50055871593,
			"0.0": 10.5602972199,
			"0.001": 13.1898013884,
			"0.002": 16.8075192996,
			"0.003": 12.770535139,
			"0.004": 9.32254582623,
			"0.005": 6.20466525011,
			"0.006": 5.07800624569,
			"0.007": 3.58532419463,
			"0.008": 5.93803984208,
			"0.009": 4.32985717585,
			"0.01": 2.23231199667,
			"0.011": 1.46338066583,
			"0.012": 2.30901483507,
			"0.013": 3.80241377324,
			"0.014": 4.55804680343,
			"0.015": 0.46082303735,
			"0.016": 0.0,
			"0.017": 0.0,
			"0.018": 0.0,
			"0.019": 0.0,
			"0.02": 0.0,
			"0.021": 0.0,
			"0.022": 0.0,
			"0.023": 0.0,
			"0.024": 0.0,
			"0.025": 0.0
		}
	}
}
