{
	 "smiles": "CC1=C(C)C(O)=C(C)C=C1", 
	 "Tm": 331.15, 
	 "num_atms": 22, 
	 "gaussian": { 
		 "optdone": 1, 
		 "sigma_profile": "yes", 
		 "theory": "DFT", 
		 "functional": "B3LYP", 
		 "basiset": "6-31G**", 
		 "properties": { 
			 "R2extent": 1612.1105, 
			 "electric_dipole_moment_norm": 1.69234852793, 
			 "electric_quadrupole_moment_norm": 6.43786422038, 
			 "total_energy": -425.429937825, 
			 "HOMO_LUMO_gap": 0.21653, 
			 "cosmo_polarized_energy": -7.03, 
			 "cosmo_cavitation_energy": 24.07, 
			 "cosmo_dispersion_energy": -17.89, 
			 "cosmo_repulsion_energy": 1.44, 
			 "cosmo_total_nonelectrostatic_energy": 7.62, 
			 "SMD_solvation_energy": 4.37 
		},
		"coords": [
			{
				"x": 0.8361544403,
				"y": -2.6901681718,
				"z": -0.6508472229,
				"element": "C" 
			},
			{
				"x": 0.7035432196,
				"y": -1.1867784233,
				"z": -0.5405521736,
				"element": "C" 
			},
			{
				"x": -0.5513110782,
				"y": -0.548398381,
				"z": -0.6242663242,
				"element": "C" 
			},
			{
				"x": -1.8425743613,
				"y": -1.3116156673,
				"z": -0.8281679414,
				"element": "C" 
			},
			{
				"x": -0.6080172124,
				"y": 0.8511834557,
				"z": -0.5143285099,
				"element": "C" 
			},
			{
				"x": -1.7986817863,
				"y": 1.5312178282,
				"z": -0.5875143499,
				"element": "O" 
			},
			{
				"x": 0.5379231442,
				"y": 1.641485847,
				"z": -0.3240445079,
				"element": "C" 
			},
			{
				"x": 0.4141248105,
				"y": 3.1392759202,
				"z": -0.2133180642,
				"element": "C" 
			},
			{
				"x": 1.7632647644,
				"y": 0.9818848513,
				"z": -0.2453040056,
				"element": "C" 
			},
			{
				"x": 1.8481341877,
				"y": -0.4065650613,
				"z": -0.3511912937,
				"element": "C" 
			},
			{
				"x": 0.4686539922,
				"y": -3.0679101055,
				"z": -1.6125405502,
				"element": "H" 
			},
			{
				"x": 0.2773519682,
				"y": -3.2129756267,
				"z": 0.1346452815,
				"element": "H" 
			},
			{
				"x": 1.8834533164,
				"y": -2.9901881431,
				"z": -0.5611112371,
				"element": "H" 
			},
			{
				"x": -2.5462583621,
				"y": -1.1564768273,
				"z": 0.0022215742,
				"element": "H" 
			},
			{
				"x": -1.6757428454,
				"y": -2.3864243582,
				"z": -0.8989881055,
				"element": "H" 
			},
			{
				"x": -2.3549601616,
				"y": -1.0111560113,
				"z": -1.7533692692,
				"element": "H" 
			},
			{
				"x": -2.5196641791,
				"y": 0.9038989925,
				"z": -0.7187551008,
				"element": "H" 
			},
			{
				"x": 1.3947905098,
				"y": 3.6011080423,
				"z": -0.0700988077,
				"element": "H" 
			},
			{
				"x": -0.0416726726,
				"y": 3.5701042271,
				"z": -1.1119221848,
				"element": "H" 
			},
			{
				"x": -0.2277704311,
				"y": 3.426221879,
				"z": 0.6272445905,
				"element": "H" 
			},
			{
				"x": 2.6676566644,
				"y": 1.5672279569,
				"z": -0.0983232636,
				"element": "H" 
			},
			{
				"x": 2.8178020725,
				"y": -0.8923522234,
				"z": -0.2858685339,
				"element": "H" 
			}
		],
		 "valence_orbital": [ 
			{
				"type": "occ",
				"energy": -0.33611,
				"method": "rhf"
			},
			{
				"type": "occ",
				"energy": -0.32197,
				"method": "rhf"
			},
			{
				"type": "occ",
				"energy": -0.31377,
				"method": "rhf"
			},
			{
				"type": "occ",
				"energy": -0.22532,
				"method": "rhf"
			},
			{
				"type": "occ",
				"energy": -0.20651,
				"method": "rhf"
			},
			{
				"type": "unocc",
				"energy": 0.01002,
				"method": "rhf"
			},
			{
				"type": "unocc",
				"energy": 0.02307,
				"method": "rhf"
			},
			{
				"type": "unocc",
				"energy": 0.06814,
				"method": "rhf"
			},
			{
				"type": "unocc",
				"energy": 0.11033,
				"method": "rhf"
			},
			{
				"type": "unocc",
				"energy": 0.12029,
				"method": "rhf"
			}
		],
		"cosmo_sigma_profile": { 
			"-0.025": 0.0,
			"-0.024": 0.0,
			"-0.023": 0.0,
			"-0.022": 0.0,
			"-0.021": 0.0,
			"-0.02": 0.0,
			"-0.019": 0.0,
			"-0.018": 0.0,
			"-0.017": 0.0,
			"-0.016": 0.0471110419929,
			"-0.015": 0.679975622152,
			"-0.014": 0.894211233322,
			"-0.013": 0.589030476551,
			"-0.012": 1.07371779625,
			"-0.011": 1.1464768556,
			"-0.01": 1.1731744088,
			"-0.009": 1.14332737484,
			"-0.008": 1.22155502116,
			"-0.007": 1.60285012297,
			"-0.006": 1.7656565603,
			"-0.005": 3.95384740831,
			"-0.004": 16.8030779839,
			"-0.003": 21.0696762496,
			"-0.002": 19.2546772621,
			"-0.001": 18.9439777124,
			"0.0": 21.4219259972,
			"0.001": 17.708836755,
			"0.002": 9.24161862241,
			"0.003": 8.3612267943,
			"0.004": 8.49955476714,
			"0.005": 8.68739144005,
			"0.006": 7.85126629812,
			"0.007": 7.9667935202,
			"0.008": 2.70385666204,
			"0.009": 1.72535916387,
			"0.01": 2.02616875241,
			"0.011": 1.40213586186,
			"0.012": 0.0392102061663,
			"0.013": 0.0,
			"0.014": 0.0,
			"0.015": 0.0,
			"0.016": 0.0,
			"0.017": 0.0,
			"0.018": 0.0,
			"0.019": 0.0,
			"0.02": 0.0,
			"0.021": 0.0,
			"0.022": 0.0,
			"0.023": 0.0,
			"0.024": 0.0,
			"0.025": 0.0
		}
	}
}
