{
	 "smiles": "NC1=CN=C(OC2=CC=C(Cl)C=C2)C=C1", 
	 "Tm": 363.15, 
	 "num_atms": 24, 
	 "gaussian": { 
		 "optdone": 1, 
		 "sigma_profile": "yes", 
		 "theory": "DFT", 
		 "functional": "B3LYP", 
		 "basiset": "6-31G**", 
		 "properties": { 
			 "R2extent": 6366.4812, 
			 "electric_dipole_moment_norm": 5.15937044706, 
			 "electric_quadrupole_moment_norm": 19.1290654717, 
			 "total_energy": -1069.50569662, 
			 "HOMO_LUMO_gap": 0.17548, 
			 "cosmo_polarized_energy": -12.59, 
			 "cosmo_cavitation_energy": 30.85, 
			 "cosmo_dispersion_energy": -22.88, 
			 "cosmo_repulsion_energy": 1.8, 
			 "cosmo_total_nonelectrostatic_energy": 9.78, 
			 "SMD_solvation_energy": 4.43 
		},
		"coords": [
			{
				"x": 2.4293636383,
				"y": 0.2576172642,
				"z": 4.4315275361,
				"element": "N" 
			},
			{
				"x": 1.7570179864,
				"y": 0.2309997774,
				"z": 3.206447572,
				"element": "C" 
			},
			{
				"x": 2.1221023655,
				"y": 1.0755182246,
				"z": 2.1497879923,
				"element": "C" 
			},
			{
				"x": 1.5547864224,
				"y": 1.0432677115,
				"z": 0.9372288487,
				"element": "N" 
			},
			{
				"x": 0.5846255401,
				"y": 0.1717330949,
				"z": 0.7258109028,
				"element": "C" 
			},
			{
				"x": -0.003104531,
				"y": 0.0677262849,
				"z": -0.5137717623,
				"element": "O" 
			},
			{
				"x": 0.1296594583,
				"y": 1.0497858712,
				"z": -1.4767998767,
				"element": "C" 
			},
			{
				"x": 0.0041665353,
				"y": 2.4152081866,
				"z": -1.2061361606,
				"element": "C" 
			},
			{
				"x": 0.0513737457,
				"y": 3.331500452,
				"z": -2.25508981,
				"element": "C" 
			},
			{
				"x": 0.2165232974,
				"y": 2.8777280745,
				"z": -3.5637878407,
				"element": "C" 
			},
			{
				"x": 0.2743394875,
				"y": 4.041178378,
				"z": -4.8839477073,
				"element": "Cl" 
			},
			{
				"x": 0.3352912157,
				"y": 1.5171593588,
				"z": -3.8402755834,
				"element": "C" 
			},
			{
				"x": 0.2943345569,
				"y": 0.6029498554,
				"z": -2.7884711858,
				"element": "C" 
			},
			{
				"x": 0.1213611811,
				"y": -0.7200514842,
				"z": 1.7024205435,
				"element": "C" 
			},
			{
				"x": 0.7215478441,
				"y": -0.6876508487,
				"z": 2.9511565246,
				"element": "C" 
			},
			{
				"x": 1.8788821855,
				"y": -0.0395758456,
				"z": 5.2259639339,
				"element": "H" 
			},
			{
				"x": 2.9182751574,
				"y": 1.121334927,
				"z": 4.6259886783,
				"element": "H" 
			},
			{
				"x": 2.916759794,
				"y": 1.8083479172,
				"z": 2.2879733203,
				"element": "H" 
			},
			{
				"x": -0.1197329986,
				"y": 2.7610712513,
				"z": -0.1879512484,
				"element": "H" 
			},
			{
				"x": -0.0430628834,
				"y": 4.3934673601,
				"z": -2.0571356928,
				"element": "H" 
			},
			{
				"x": 0.4619887866,
				"y": 1.176206163,
				"z": -4.8616970349,
				"element": "H" 
			},
			{
				"x": 0.3844446225,
				"y": -0.4621465852,
				"z": -2.9732669486,
				"element": "H" 
			},
			{
				"x": -0.681770964,
				"y": -1.4102837897,
				"z": 1.4706550696,
				"element": "H" 
			},
			{
				"x": 0.3955275566,
				"y": -1.3705915993,
				"z": 3.7315699295,
				"element": "H" 
			}
		],
		 "valence_orbital": [ 
			{
				"type": "occ",
				"energy": -0.28133,
				"method": "rhf"
			},
			{
				"type": "occ",
				"energy": -0.27085,
				"method": "rhf"
			},
			{
				"type": "occ",
				"energy": -0.25527,
				"method": "rhf"
			},
			{
				"type": "occ",
				"energy": -0.23237,
				"method": "rhf"
			},
			{
				"type": "occ",
				"energy": -0.20244,
				"method": "rhf"
			},
			{
				"type": "unocc",
				"energy": -0.02696,
				"method": "rhf"
			},
			{
				"type": "unocc",
				"energy": -0.00652,
				"method": "rhf"
			},
			{
				"type": "unocc",
				"energy": -0.00466,
				"method": "rhf"
			},
			{
				"type": "unocc",
				"energy": 0.01703,
				"method": "rhf"
			},
			{
				"type": "unocc",
				"energy": 0.03689,
				"method": "rhf"
			}
		],
		"cosmo_sigma_profile": { 
			"-0.025": 0.0,
			"-0.024": 0.0,
			"-0.023": 0.0,
			"-0.022": 0.0,
			"-0.021": 0.0,
			"-0.02": 0.0,
			"-0.019": 0.0,
			"-0.018": 0.0,
			"-0.017": 0.0,
			"-0.016": 0.0,
			"-0.015": 0.0,
			"-0.014": 0.0,
			"-0.013": 0.986127118824,
			"-0.012": 3.10188951267,
			"-0.011": 3.06746499922,
			"-0.01": 3.04819420776,
			"-0.009": 3.66588371709,
			"-0.008": 4.57670318389,
			"-0.007": 10.7428182638,
			"-0.006": 13.3469219465,
			"-0.005": 13.6728077597,
			"-0.004": 10.3709740215,
			"-0.003": 11.4712171149,
			"-0.002": 10.42793766,
			"-0.001": 12.2963096283,
			"0.0": 13.371192302,
			"0.001": 18.4947127029,
			"0.002": 27.7849268894,
			"0.003": 33.4243462405,
			"0.004": 22.2553952471,
			"0.005": 12.6777885056,
			"0.006": 4.066936591,
			"0.007": 2.9953114053,
			"0.008": 4.51389730274,
			"0.009": 2.05294283907,
			"0.01": 1.94010974913,
			"0.011": 0.91487811068,
			"0.012": 1.36401847475,
			"0.013": 2.01525533451,
			"0.014": 0.906354379691,
			"0.015": 0.16040058743,
			"0.016": 0.0,
			"0.017": 0.0,
			"0.018": 0.0,
			"0.019": 0.0,
			"0.02": 0.0,
			"0.021": 0.0,
			"0.022": 0.0,
			"0.023": 0.0,
			"0.024": 0.0,
			"0.025": 0.0
		}
	}
}
