{
	 "smiles": "ClS(=O)(=O)C1=CC=C(C=C1)N1CCCS1(=O)=O", 
	 "Tm": 458.15, 
	 "num_atms": 27, 
	 "gaussian": { 
		 "optdone": 1, 
		 "sigma_profile": "yes", 
		 "theory": "DFT", 
		 "functional": "B3LYP", 
		 "basiset": "6-31G**", 
		 "properties": { 
			 "R2extent": 7466.7297, 
			 "electric_dipole_moment_norm": 9.9126304748, 
			 "electric_quadrupole_moment_norm": 21.047946782, 
			 "total_energy": -1961.05860585, 
			 "HOMO_LUMO_gap": 0.16448, 
			 "cosmo_polarized_energy": -22.23, 
			 "cosmo_cavitation_energy": 35.09, 
			 "cosmo_dispersion_energy": -26.53, 
			 "cosmo_repulsion_energy": 1.95, 
			 "cosmo_total_nonelectrostatic_energy": 10.52, 
			 "SMD_solvation_energy": 3.05 
		},
		"coords": [
			{
				"x": 1.0123441814,
				"y": -2.0255497375,
				"z": -4.7186895899,
				"element": "Cl" 
			},
			{
				"x": 0.7287733525,
				"y": 0.0795158273,
				"z": -4.4498365794,
				"element": "S" 
			},
			{
				"x": 2.0432630856,
				"y": 0.6834870203,
				"z": -4.6307728303,
				"element": "O" 
			},
			{
				"x": -0.4141521218,
				"y": 0.4343066893,
				"z": -5.2835373608,
				"element": "O" 
			},
			{
				"x": 0.2632110359,
				"y": 0.1696886646,
				"z": -2.7391106618,
				"element": "C" 
			},
			{
				"x": 1.254300322,
				"y": 0.3176203261,
				"z": -1.7638189679,
				"element": "C" 
			},
			{
				"x": 0.8861733113,
				"y": 0.4133042302,
				"z": -0.43099535,
				"element": "C" 
			},
			{
				"x": -0.4731541921,
				"y": 0.3338101419,
				"z": -0.0603848173,
				"element": "C" 
			},
			{
				"x": -1.4535134939,
				"y": 0.1851604943,
				"z": -1.0602189928,
				"element": "C" 
			},
			{
				"x": -1.0873597397,
				"y": 0.1060978353,
				"z": -2.3990273967,
				"element": "C" 
			},
			{
				"x": -0.8424454765,
				"y": 0.444769688,
				"z": 1.2855203326,
				"element": "N" 
			},
			{
				"x": -2.2369125858,
				"y": 0.5317044472,
				"z": 1.7232616827,
				"element": "C" 
			},
			{
				"x": -2.1818096658,
				"y": 0.7891364832,
				"z": 3.2361113936,
				"element": "C" 
			},
			{
				"x": -1.1143364536,
				"y": -0.1550499242,
				"z": 3.7857378923,
				"element": "C" 
			},
			{
				"x": 0.2125747097,
				"y": -0.139751248,
				"z": 2.5388573886,
				"element": "S" 
			},
			{
				"x": 0.6616969868,
				"y": -1.4978663212,
				"z": 2.226977137,
				"element": "O" 
			},
			{
				"x": 1.2020764183,
				"y": 0.8961793762,
				"z": 2.8431232349,
				"element": "O" 
			},
			{
				"x": 2.2971910838,
				"y": 0.3850858482,
				"z": -2.052136269,
				"element": "H" 
			},
			{
				"x": 1.6470975837,
				"y": 0.5758926264,
				"z": 0.3231445448,
				"element": "H" 
			},
			{
				"x": -2.5031484448,
				"y": 0.1263339972,
				"z": -0.7992939507,
				"element": "H" 
			},
			{
				"x": -1.8403857488,
				"y": -0.0017004695,
				"z": -3.171500404,
				"element": "H" 
			},
			{
				"x": -2.7272437914,
				"y": 1.3562192249,
				"z": 1.1976107382,
				"element": "H" 
			},
			{
				"x": -2.7896909143,
				"y": -0.3948324124,
				"z": 1.5055931354,
				"element": "H" 
			},
			{
				"x": -3.1517944669,
				"y": 0.6038043988,
				"z": 3.7039032398,
				"element": "H" 
			},
			{
				"x": -1.8996473011,
				"y": 1.8283548019,
				"z": 3.4261661166,
				"element": "H" 
			},
			{
				"x": -1.4576729606,
				"y": -1.1904024961,
				"z": 3.8510753351,
				"element": "H" 
			},
			{
				"x": -0.6672347138,
				"y": 0.1550804877,
				"z": 4.731240999,
				"element": "H" 
			}
		],
		 "valence_orbital": [ 
			{
				"type": "occ",
				"energy": -0.32379,
				"method": "rhf"
			},
			{
				"type": "occ",
				"energy": -0.30985,
				"method": "rhf"
			},
			{
				"type": "occ",
				"energy": -0.3056,
				"method": "rhf"
			},
			{
				"type": "occ",
				"energy": -0.28701,
				"method": "rhf"
			},
			{
				"type": "occ",
				"energy": -0.24814,
				"method": "rhf"
			},
			{
				"type": "unocc",
				"energy": -0.08366,
				"method": "rhf"
			},
			{
				"type": "unocc",
				"energy": -0.03803,
				"method": "rhf"
			},
			{
				"type": "unocc",
				"energy": -0.03561,
				"method": "rhf"
			},
			{
				"type": "unocc",
				"energy": 0.0263,
				"method": "rhf"
			},
			{
				"type": "unocc",
				"energy": 0.03056,
				"method": "rhf"
			}
		],
		"cosmo_sigma_profile": { 
			"-0.025": 0.0,
			"-0.024": 0.0,
			"-0.023": 0.0,
			"-0.022": 0.0,
			"-0.021": 0.0,
			"-0.02": 0.0,
			"-0.019": 0.0,
			"-0.018": 0.0,
			"-0.017": 0.0,
			"-0.016": 0.0,
			"-0.015": 0.0,
			"-0.014": 0.0,
			"-0.013": 0.0,
			"-0.012": 0.0,
			"-0.011": 0.0,
			"-0.01": 0.753585038196,
			"-0.009": 6.51630570696,
			"-0.008": 13.2495217125,
			"-0.007": 20.4631593723,
			"-0.006": 25.6846566761,
			"-0.005": 19.049751763,
			"-0.004": 13.4564047338,
			"-0.003": 11.249796057,
			"-0.002": 9.6849884138,
			"-0.001": 12.8934756366,
			"0.0": 16.6946647319,
			"0.001": 23.4663271958,
			"0.002": 14.7913267278,
			"0.003": 14.8977552339,
			"0.004": 16.4471548548,
			"0.005": 7.07117612223,
			"0.006": 6.02916341428,
			"0.007": 7.96523351733,
			"0.008": 13.5509000089,
			"0.009": 10.7473746609,
			"0.01": 12.7185127525,
			"0.011": 5.25809752731,
			"0.012": 0.103595361132,
			"0.013": 0.0,
			"0.014": 0.0,
			"0.015": 0.0,
			"0.016": 0.0,
			"0.017": 0.0,
			"0.018": 0.0,
			"0.019": 0.0,
			"0.02": 0.0,
			"0.021": 0.0,
			"0.022": 0.0,
			"0.023": 0.0,
			"0.024": 0.0,
			"0.025": 0.0
		}
	}
}
