{
	 "smiles": "ClS(=O)(=O)C1=CC2=C(NC(=O)N2)C=C1", 
	 "Tm": 484.15, 
	 "num_atms": 19, 
	 "gaussian": { 
		 "optdone": 1, 
		 "sigma_profile": "yes", 
		 "theory": "DFT", 
		 "functional": "B3LYP", 
		 "basiset": "6-31G**", 
		 "properties": { 
			 "R2extent": 5883.6653, 
			 "electric_dipole_moment_norm": 4.12131941131, 
			 "electric_quadrupole_moment_norm": 30.6642439114, 
			 "total_energy": -1463.27829736, 
			 "HOMO_LUMO_gap": 0.15523, 
			 "cosmo_polarized_energy": -20.3, 
			 "cosmo_cavitation_energy": 27.63, 
			 "cosmo_dispersion_energy": -21.17, 
			 "cosmo_repulsion_energy": 1.62, 
			 "cosmo_total_nonelectrostatic_energy": 8.08, 
			 "SMD_solvation_energy": 3.98 
		},
		"coords": [
			{
				"x": -4.0589670763,
				"y": -1.5274256189,
				"z": 0.5347942281,
				"element": "Cl" 
			},
			{
				"x": -2.2577271835,
				"y": -2.680299971,
				"z": 0.6407857001,
				"element": "S" 
			},
			{
				"x": -2.6582164097,
				"y": -4.0645904879,
				"z": 0.421166751,
				"element": "O" 
			},
			{
				"x": -1.5829493096,
				"y": -2.2466813658,
				"z": 1.8588035603,
				"element": "O" 
			},
			{
				"x": -1.36151523,
				"y": -2.0851634815,
				"z": -0.7744444253,
				"element": "C" 
			},
			{
				"x": -0.5203386245,
				"y": -0.9751547596,
				"z": -0.6001324922,
				"element": "C" 
			},
			{
				"x": 0.1594748161,
				"y": -0.5425171337,
				"z": -1.7245202037,
				"element": "C" 
			},
			{
				"x": 0.004540681,
				"y": -1.1939146924,
				"z": -2.9747816001,
				"element": "C" 
			},
			{
				"x": 0.8151899214,
				"y": -0.5242007753,
				"z": -3.8692570099,
				"element": "N" 
			},
			{
				"x": 1.4952352014,
				"y": 0.5375540912,
				"z": -3.2532563954,
				"element": "C" 
			},
			{
				"x": 2.2766817213,
				"y": 1.3129153701,
				"z": -3.7612874148,
				"element": "O" 
			},
			{
				"x": 1.0618354282,
				"y": 0.4908017937,
				"z": -1.9258406142,
				"element": "N" 
			},
			{
				"x": -0.8343384293,
				"y": -2.2931305388,
				"z": -3.1227910812,
				"element": "C" 
			},
			{
				"x": -1.5310224372,
				"y": -2.7403110791,
				"z": -1.9971017393,
				"element": "C" 
			},
			{
				"x": -0.4113082775,
				"y": -0.5038805332,
				"z": 0.3694428141,
				"element": "H" 
			},
			{
				"x": 0.9420535494,
				"y": -0.7309361528,
				"z": -4.8475812427,
				"element": "H" 
			},
			{
				"x": 1.3923599177,
				"y": 1.1508323002,
				"z": -1.2397900021,
				"element": "H" 
			},
			{
				"x": -0.9453391889,
				"y": -2.7937718269,
				"z": -4.0785184873,
				"element": "H" 
			},
			{
				"x": -2.1918490701,
				"y": -3.5965251382,
				"z": -2.0614903457,
				"element": "H" 
			}
		],
		 "valence_orbital": [ 
			{
				"type": "occ",
				"energy": -0.3236,
				"method": "rhf"
			},
			{
				"type": "occ",
				"energy": -0.31175,
				"method": "rhf"
			},
			{
				"type": "occ",
				"energy": -0.29619,
				"method": "rhf"
			},
			{
				"type": "occ",
				"energy": -0.27752,
				"method": "rhf"
			},
			{
				"type": "occ",
				"energy": -0.24448,
				"method": "rhf"
			},
			{
				"type": "unocc",
				"energy": -0.08925,
				"method": "rhf"
			},
			{
				"type": "unocc",
				"energy": -0.04428,
				"method": "rhf"
			},
			{
				"type": "unocc",
				"energy": -0.03195,
				"method": "rhf"
			},
			{
				"type": "unocc",
				"energy": 0.04059,
				"method": "rhf"
			},
			{
				"type": "unocc",
				"energy": 0.05306,
				"method": "rhf"
			}
		],
		"cosmo_sigma_profile": { 
			"-0.025": 0.0,
			"-0.024": 0.0,
			"-0.023": 0.0,
			"-0.022": 0.0,
			"-0.021": 0.0,
			"-0.02": 0.0,
			"-0.019": 0.0,
			"-0.018": 0.0804256832858,
			"-0.017": 2.03928048758,
			"-0.016": 3.25295106846,
			"-0.015": 2.67977539595,
			"-0.014": 1.37881340101,
			"-0.013": 2.27183223989,
			"-0.012": 3.16484683697,
			"-0.011": 2.84562065595,
			"-0.01": 2.84482745184,
			"-0.009": 3.24349491572,
			"-0.008": 6.60045645968,
			"-0.007": 6.21756316047,
			"-0.006": 5.89723297848,
			"-0.005": 6.3887125391,
			"-0.004": 7.61636277845,
			"-0.003": 8.65104994475,
			"-0.002": 12.800034657,
			"-0.001": 19.6331637747,
			"0.0": 20.1270301189,
			"0.001": 17.5449427483,
			"0.002": 13.8360150822,
			"0.003": 13.2999224456,
			"0.004": 15.0682430681,
			"0.005": 4.65036457015,
			"0.006": 3.76211818896,
			"0.007": 6.02207214305,
			"0.008": 10.4846211057,
			"0.009": 7.90592398407,
			"0.01": 1.69349078465,
			"0.011": 2.15703635088,
			"0.012": 4.43931010952,
			"0.013": 5.81128871263,
			"0.014": 0.603210442978,
			"0.015": 0.0,
			"0.016": 0.0,
			"0.017": 0.0,
			"0.018": 0.0,
			"0.019": 0.0,
			"0.02": 0.0,
			"0.021": 0.0,
			"0.022": 0.0,
			"0.023": 0.0,
			"0.024": 0.0,
			"0.025": 0.0
		}
	}
}
