{
	 "smiles": "CC1=NC=CN1C1=CC=C(C=C1)C#N", 
	 "Tm": 413.15, 
	 "num_atms": 23, 
	 "gaussian": { 
		 "optdone": 1, 
		 "sigma_profile": "yes", 
		 "theory": "DFT", 
		 "functional": "B3LYP", 
		 "basiset": "6-31G**", 
		 "properties": { 
			 "R2extent": 3917.0095, 
			 "electric_dipole_moment_norm": 1.48715079599, 
			 "electric_quadrupole_moment_norm": 32.9384855692, 
			 "total_energy": -588.829966624, 
			 "HOMO_LUMO_gap": 0.16335, 
			 "cosmo_polarized_energy": -15.0, 
			 "cosmo_cavitation_energy": 28.47, 
			 "cosmo_dispersion_energy": -19.95, 
			 "cosmo_repulsion_energy": 1.55, 
			 "cosmo_total_nonelectrostatic_energy": 10.07, 
			 "SMD_solvation_energy": 5.13 
		},
		"coords": [
			{
				"x": 1.2657779579,
				"y": 1.9076955206,
				"z": -0.5157131567,
				"element": "C" 
			},
			{
				"x": 0.4767132956,
				"y": 1.1319048471,
				"z": -1.5221826303,
				"element": "C" 
			},
			{
				"x": 0.8309328826,
				"y": 0.9706527965,
				"z": -2.7783059807,
				"element": "N" 
			},
			{
				"x": -0.1289737012,
				"y": 0.1634218045,
				"z": -3.3496451733,
				"element": "C" 
			},
			{
				"x": -1.0742239286,
				"y": -0.1884361816,
				"z": -2.4287899671,
				"element": "C" 
			},
			{
				"x": -0.6987536163,
				"y": 0.4421106644,
				"z": -1.2446262447,
				"element": "N" 
			},
			{
				"x": -1.3733970759,
				"y": 0.3062485311,
				"z": -0.0061946615,
				"element": "C" 
			},
			{
				"x": -1.6344323578,
				"y": 1.4259876992,
				"z": 0.7951153405,
				"element": "C" 
			},
			{
				"x": -2.3009444779,
				"y": 1.2782158657,
				"z": 2.0061273812,
				"element": "C" 
			},
			{
				"x": -2.7332733222,
				"y": 0.0088025289,
				"z": 2.4245303766,
				"element": "C" 
			},
			{
				"x": -2.4824456279,
				"y": -1.1110770913,
				"z": 1.6133330056,
				"element": "C" 
			},
			{
				"x": -1.8018929715,
				"y": -0.9625769432,
				"z": 0.4112412475,
				"element": "C" 
			},
			{
				"x": -3.4275740763,
				"y": -0.142827965,
				"z": 3.6691820607,
				"element": "C" 
			},
			{
				"x": -3.9909437696,
				"y": -0.2661797574,
				"z": 4.6794877792,
				"element": "N" 
			},
			{
				"x": 1.3308203841,
				"y": 1.3909643305,
				"z": 0.4467392823,
				"element": "H" 
			},
			{
				"x": 2.2723364984,
				"y": 2.0401363542,
				"z": -0.9150827328,
				"element": "H" 
			},
			{
				"x": 0.8474381106,
				"y": 2.9042099491,
				"z": -0.3314947048,
				"element": "H" 
			},
			{
				"x": -0.0836754035,
				"y": -0.1142731836,
				"z": -4.3935293136,
				"element": "H" 
			},
			{
				"x": -1.9802676031,
				"y": -0.7701891903,
				"z": -2.4933207357,
				"element": "H" 
			},
			{
				"x": -1.3361413356,
				"y": 2.411560503,
				"z": 0.4581337104,
				"element": "H" 
			},
			{
				"x": -2.5047335769,
				"y": 2.1453782502,
				"z": 2.6249386258,
				"element": "H" 
			},
			{
				"x": -2.8109449152,
				"y": -2.0928395573,
				"z": 1.9368863198,
				"element": "H" 
			},
			{
				"x": -1.5822013696,
				"y": -1.829289775,
				"z": -0.2026298283,
				"element": "H" 
			}
		],
		 "valence_orbital": [ 
			{
				"type": "occ",
				"energy": -0.30401,
				"method": "rhf"
			},
			{
				"type": "occ",
				"energy": -0.29159,
				"method": "rhf"
			},
			{
				"type": "occ",
				"energy": -0.27315,
				"method": "rhf"
			},
			{
				"type": "occ",
				"energy": -0.25794,
				"method": "rhf"
			},
			{
				"type": "occ",
				"energy": -0.23026,
				"method": "rhf"
			},
			{
				"type": "unocc",
				"energy": -0.06691,
				"method": "rhf"
			},
			{
				"type": "unocc",
				"energy": -0.04062,
				"method": "rhf"
			},
			{
				"type": "unocc",
				"energy": 0.01614,
				"method": "rhf"
			},
			{
				"type": "unocc",
				"energy": 0.02817,
				"method": "rhf"
			},
			{
				"type": "unocc",
				"energy": 0.05959,
				"method": "rhf"
			}
		],
		"cosmo_sigma_profile": { 
			"-0.025": 0.0,
			"-0.024": 0.0,
			"-0.023": 0.0,
			"-0.022": 0.0,
			"-0.021": 0.0,
			"-0.02": 0.0,
			"-0.019": 0.0,
			"-0.018": 0.0,
			"-0.017": 0.0,
			"-0.016": 0.0,
			"-0.015": 0.0,
			"-0.014": 0.0,
			"-0.013": 0.0,
			"-0.012": 0.0,
			"-0.011": 0.0,
			"-0.01": 0.0,
			"-0.009": 1.82211748924,
			"-0.008": 10.4331561694,
			"-0.007": 13.7884684069,
			"-0.006": 12.8706626736,
			"-0.005": 14.7832695299,
			"-0.004": 12.4329756624,
			"-0.003": 18.0778291027,
			"-0.002": 19.2018547114,
			"-0.001": 21.0774874674,
			"0.0": 17.5567567307,
			"0.001": 17.8944303,
			"0.002": 10.2801825185,
			"0.003": 6.34517630233,
			"0.004": 6.25362032001,
			"0.005": 8.17979695496,
			"0.006": 5.22892571582,
			"0.007": 4.89520649602,
			"0.008": 4.93039735524,
			"0.009": 4.69159314108,
			"0.01": 4.66346535885,
			"0.011": 3.81613711208,
			"0.012": 3.62524417584,
			"0.013": 2.11156338275,
			"0.014": 1.04841108694,
			"0.015": 1.4547196892,
			"0.016": 0.957422267984,
			"0.017": 0.728696507701,
			"0.018": 0.686552045773,
			"0.019": 0.0334827411938,
			"0.02": 0.0,
			"0.021": 0.0,
			"0.022": 0.0,
			"0.023": 0.0,
			"0.024": 0.0,
			"0.025": 0.0
		}
	}
}
