{
	 "smiles": "CCOC(=O)C1=C(C)NC(=O)NC1C1=CC=CC=C1", 
	 "Tm": 453.15, 
	 "num_atms": 35, 
	 "gaussian": { 
		 "optdone": 1, 
		 "sigma_profile": "yes", 
		 "theory": "DFT", 
		 "functional": "B3LYP", 
		 "basiset": "6-31G**", 
		 "properties": { 
			 "R2extent": 5429.3731, 
			 "electric_dipole_moment_norm": 2.41302482789, 
			 "electric_quadrupole_moment_norm": 23.4545490057, 
			 "total_energy": -878.349886522, 
			 "HOMO_LUMO_gap": 0.18671, 
			 "cosmo_polarized_energy": -17.1, 
			 "cosmo_cavitation_energy": 38.33, 
			 "cosmo_dispersion_energy": -26.12, 
			 "cosmo_repulsion_energy": 2.05, 
			 "cosmo_total_nonelectrostatic_energy": 14.26, 
			 "SMD_solvation_energy": 7.76 
		},
		"coords": [
			{
				"x": -2.0809496722,
				"y": 1.4442920085,
				"z": 2.587042838,
				"element": "C" 
			},
			{
				"x": -0.6163339502,
				"y": 1.5310272215,
				"z": 2.2001635246,
				"element": "C" 
			},
			{
				"x": -0.3316776513,
				"y": 0.4130805106,
				"z": 1.3335947122,
				"element": "O" 
			},
			{
				"x": 0.9357813424,
				"y": 0.3484057035,
				"z": 0.8453732752,
				"element": "C" 
			},
			{
				"x": 1.7801058598,
				"y": 1.1763284885,
				"z": 1.1532177597,
				"element": "O" 
			},
			{
				"x": 1.09347783,
				"y": -0.8121572876,
				"z": -0.0508621409,
				"element": "C" 
			},
			{
				"x": 2.2904648578,
				"y": -1.1469973437,
				"z": -0.6116448977,
				"element": "C" 
			},
			{
				"x": 3.6042713465,
				"y": -0.432699866,
				"z": -0.4535359436,
				"element": "C" 
			},
			{
				"x": 2.368609093,
				"y": -2.263481802,
				"z": -1.4276293597,
				"element": "N" 
			},
			{
				"x": 1.3870400972,
				"y": -3.256735971,
				"z": -1.5320609551,
				"element": "C" 
			},
			{
				"x": 1.5918565005,
				"y": -4.288636944,
				"z": -2.1535912819,
				"element": "O" 
			},
			{
				"x": 0.2437396248,
				"y": -2.9694120712,
				"z": -0.8450390127,
				"element": "N" 
			},
			{
				"x": -0.1520571203,
				"y": -1.6337093895,
				"z": -0.3686274401,
				"element": "C" 
			},
			{
				"x": -1.1060033446,
				"y": -0.9480535685,
				"z": -1.3525590291,
				"element": "C" 
			},
			{
				"x": -0.6533590481,
				"y": -0.4635626424,
				"z": -2.5871059568,
				"element": "C" 
			},
			{
				"x": -1.5427592526,
				"y": 0.1167497456,
				"z": -3.4903701765,
				"element": "C" 
			},
			{
				"x": -2.8992306864,
				"y": 0.2234148994,
				"z": -3.1714548033,
				"element": "C" 
			},
			{
				"x": -3.3593157877,
				"y": -0.254061718,
				"z": -1.9441136149,
				"element": "C" 
			},
			{
				"x": -2.4654184866,
				"y": -0.8360957543,
				"z": -1.042433258,
				"element": "C" 
			},
			{
				"x": -2.3432351639,
				"y": 2.2825926797,
				"z": 3.240005736,
				"element": "H" 
			},
			{
				"x": -2.2908269171,
				"y": 0.5138957015,
				"z": 3.1231844006,
				"element": "H" 
			},
			{
				"x": -2.7200479482,
				"y": 1.4839368216,
				"z": 1.7003249917,
				"element": "H" 
			},
			{
				"x": 0.0438499878,
				"y": 1.4826598867,
				"z": 3.0721827767,
				"element": "H" 
			},
			{
				"x": -0.3863064415,
				"y": 2.4591916597,
				"z": 1.6678717676,
				"element": "H" 
			},
			{
				"x": 3.4920360489,
				"y": 0.4714916877,
				"z": 0.1370417538,
				"element": "H" 
			},
			{
				"x": 4.0041684019,
				"y": -0.1779028145,
				"z": -1.4426116781,
				"element": "H" 
			},
			{
				"x": 4.3295665805,
				"y": -1.0975691989,
				"z": 0.0314310468,
				"element": "H" 
			},
			{
				"x": 3.2584798622,
				"y": -2.5297199088,
				"z": -1.8242162483,
				"element": "H" 
			},
			{
				"x": -0.4976565933,
				"y": -3.6350302323,
				"z": -1.0152147702,
				"element": "H" 
			},
			{
				"x": -0.7056225675,
				"y": -1.7851677791,
				"z": 0.5621189097,
				"element": "H" 
			},
			{
				"x": 0.4000722436,
				"y": -0.538131088,
				"z": -2.8417722398,
				"element": "H" 
			},
			{
				"x": -1.1776468091,
				"y": 0.4881077294,
				"z": -4.4437889259,
				"element": "H" 
			},
			{
				"x": -3.5909620903,
				"y": 0.6771574936,
				"z": -3.8753572574,
				"element": "H" 
			},
			{
				"x": -4.41172666,
				"y": -0.173098033,
				"z": -1.6866758145,
				"element": "H" 
			},
			{
				"x": -2.8252834863,
				"y": -1.2014088247,
				"z": -0.0834886878,
				"element": "H" 
			}
		],
		 "valence_orbital": [ 
			{
				"type": "occ",
				"energy": -0.26505,
				"method": "rhf"
			},
			{
				"type": "occ",
				"energy": -0.26017,
				"method": "rhf"
			},
			{
				"type": "occ",
				"energy": -0.25323,
				"method": "rhf"
			},
			{
				"type": "occ",
				"energy": -0.24285,
				"method": "rhf"
			},
			{
				"type": "occ",
				"energy": -0.22578,
				"method": "rhf"
			},
			{
				"type": "unocc",
				"energy": -0.03907,
				"method": "rhf"
			},
			{
				"type": "unocc",
				"energy": -0.00769,
				"method": "rhf"
			},
			{
				"type": "unocc",
				"energy": -0.00209,
				"method": "rhf"
			},
			{
				"type": "unocc",
				"energy": 0.05973,
				"method": "rhf"
			},
			{
				"type": "unocc",
				"energy": 0.07319,
				"method": "rhf"
			}
		],
		"cosmo_sigma_profile": { 
			"-0.025": 0.0,
			"-0.024": 0.0,
			"-0.023": 0.0,
			"-0.022": 0.0,
			"-0.021": 0.0,
			"-0.02": 0.0,
			"-0.019": 0.0,
			"-0.018": 0.0,
			"-0.017": 0.0,
			"-0.016": 0.0516745846612,
			"-0.015": 0.815991767929,
			"-0.014": 1.38038804582,
			"-0.013": 2.1664329906,
			"-0.012": 2.38316645856,
			"-0.011": 1.47304926522,
			"-0.01": 2.31964118656,
			"-0.009": 2.09722534462,
			"-0.008": 2.38199107619,
			"-0.007": 3.7461164815,
			"-0.006": 10.9170338952,
			"-0.005": 18.310153744,
			"-0.004": 27.2827339818,
			"-0.003": 28.0766654612,
			"-0.002": 27.6165192038,
			"-0.001": 27.6776956332,
			"0.0": 25.597503402,
			"0.001": 19.909528581,
			"0.002": 16.4867925046,
			"0.003": 14.3431715519,
			"0.004": 13.5898371562,
			"0.005": 12.9933414009,
			"0.006": 10.4853168852,
			"0.007": 2.86850170639,
			"0.008": 3.66035985891,
			"0.009": 2.36611862047,
			"0.01": 2.27373174303,
			"0.011": 3.2329864021,
			"0.012": 5.04076399758,
			"0.013": 6.97250629723,
			"0.014": 4.60172360688,
			"0.015": 0.159665134665,
			"0.016": 0.0,
			"0.017": 0.0,
			"0.018": 0.0,
			"0.019": 0.0,
			"0.02": 0.0,
			"0.021": 0.0,
			"0.022": 0.0,
			"0.023": 0.0,
			"0.024": 0.0,
			"0.025": 0.0
		}
	}
}
