{
	 "smiles": "OC1=CC(OC2=CC=NC=C2)=CC=C1", 
	 "Tm": 393.15, 
	 "num_atms": 23, 
	 "gaussian": { 
		 "optdone": 1, 
		 "sigma_profile": "yes", 
		 "theory": "DFT", 
		 "functional": "B3LYP", 
		 "basiset": "6-31G**", 
		 "properties": { 
			 "R2extent": 3591.32, 
			 "electric_dipole_moment_norm": 4.07871835017, 
			 "electric_quadrupole_moment_norm": 16.1725978043, 
			 "total_energy": -629.773173895, 
			 "HOMO_LUMO_gap": 0.21274, 
			 "cosmo_polarized_energy": -12.52, 
			 "cosmo_cavitation_energy": 27.88, 
			 "cosmo_dispersion_energy": -20.4, 
			 "cosmo_repulsion_energy": 1.6, 
			 "cosmo_total_nonelectrostatic_energy": 9.08, 
			 "SMD_solvation_energy": 4.02 
		},
		"coords": [
			{
				"x": -2.3291005066,
				"y": -2.367210488,
				"z": -3.7972166717,
				"element": "O" 
			},
			{
				"x": -1.3441203611,
				"y": -2.2430001286,
				"z": -2.8620409768,
				"element": "C" 
			},
			{
				"x": -1.5540044551,
				"y": -1.3109339142,
				"z": -1.8392115373,
				"element": "C" 
			},
			{
				"x": -0.5792794602,
				"y": -1.1525850439,
				"z": -0.8604858089,
				"element": "C" 
			},
			{
				"x": -0.8642404767,
				"y": -0.2859914029,
				"z": 0.186911896,
				"element": "O" 
			},
			{
				"x": -0.071238958,
				"y": 0.8040977576,
				"z": 0.4230988879,
				"element": "C" 
			},
			{
				"x": -0.2449220005,
				"y": 1.4486795812,
				"z": 1.6517629628,
				"element": "C" 
			},
			{
				"x": 0.5183505116,
				"y": 2.5823561693,
				"z": 1.9124833535,
				"element": "C" 
			},
			{
				"x": 1.4156757592,
				"y": 3.1019031278,
				"z": 1.0615142306,
				"element": "N" 
			},
			{
				"x": 1.5596021531,
				"y": 2.4688239951,
				"z": -0.1084306265,
				"element": "C" 
			},
			{
				"x": 0.8525801411,
				"y": 1.3263512492,
				"z": -0.4860920616,
				"element": "C" 
			},
			{
				"x": 0.6038219479,
				"y": -1.897657636,
				"z": -0.872499484,
				"element": "C" 
			},
			{
				"x": 0.7984979546,
				"y": -2.8142765537,
				"z": -1.9041584576,
				"element": "C" 
			},
			{
				"x": -0.1640120644,
				"y": -2.99444408,
				"z": -2.8989465649,
				"element": "C" 
			},
			{
				"x": -2.0697811593,
				"y": -3.0342414398,
				"z": -4.4460371822,
				"element": "H" 
			},
			{
				"x": -2.467405174,
				"y": -0.7287566316,
				"z": -1.8078644395,
				"element": "H" 
			},
			{
				"x": -0.9594091045,
				"y": 1.0630160392,
				"z": 2.370586257,
				"element": "H" 
			},
			{
				"x": 0.4027611989,
				"y": 3.101066482,
				"z": 2.862649815,
				"element": "H" 
			},
			{
				"x": 2.2845601538,
				"y": 2.8972989673,
				"z": -0.7988687934,
				"element": "H" 
			},
			{
				"x": 1.0163687162,
				"y": 0.8670750135,
				"z": -1.4533623872,
				"element": "H" 
			},
			{
				"x": 1.3403728576,
				"y": -1.7634350867,
				"z": -0.0884811074,
				"element": "H" 
			},
			{
				"x": 1.7094182225,
				"y": -3.404713844,
				"z": -1.9316417301,
				"element": "H" 
			},
			{
				"x": -0.002195896,
				"y": -3.7170221328,
				"z": -3.6953695736,
				"element": "H" 
			}
		],
		 "valence_orbital": [ 
			{
				"type": "occ",
				"energy": -0.26397,
				"method": "rhf"
			},
			{
				"type": "occ",
				"energy": -0.26081,
				"method": "rhf"
			},
			{
				"type": "occ",
				"energy": -0.25106,
				"method": "rhf"
			},
			{
				"type": "occ",
				"energy": -0.24683,
				"method": "rhf"
			},
			{
				"type": "occ",
				"energy": -0.22993,
				"method": "rhf"
			},
			{
				"type": "unocc",
				"energy": -0.01719,
				"method": "rhf"
			},
			{
				"type": "unocc",
				"energy": -0.0114,
				"method": "rhf"
			},
			{
				"type": "unocc",
				"energy": -0.00262,
				"method": "rhf"
			},
			{
				"type": "unocc",
				"energy": 0.00441,
				"method": "rhf"
			},
			{
				"type": "unocc",
				"energy": 0.06196,
				"method": "rhf"
			}
		],
		"cosmo_sigma_profile": { 
			"-0.025": 0.0,
			"-0.024": 0.0,
			"-0.023": 0.0,
			"-0.022": 0.0,
			"-0.021": 0.0,
			"-0.02": 0.0,
			"-0.019": 0.0,
			"-0.018": 0.450708897455,
			"-0.017": 1.3865489152,
			"-0.016": 1.19990729677,
			"-0.015": 0.559513976828,
			"-0.014": 1.22174422462,
			"-0.013": 1.25413363561,
			"-0.012": 1.19387772955,
			"-0.011": 0.53025415273,
			"-0.01": 0.953395377246,
			"-0.009": 1.37647903878,
			"-0.008": 1.22262280436,
			"-0.007": 6.5302203757,
			"-0.006": 15.0765862039,
			"-0.005": 15.452782536,
			"-0.004": 14.2759646445,
			"-0.003": 10.9602442283,
			"-0.002": 11.8975064422,
			"-0.001": 11.7927915427,
			"0.0": 15.0919563388,
			"0.001": 16.9077386577,
			"0.002": 21.7104164437,
			"0.003": 23.9275697623,
			"0.004": 13.3752052574,
			"0.005": 9.42664722601,
			"0.006": 3.57600885865,
			"0.007": 4.47605510187,
			"0.008": 4.19372182563,
			"0.009": 2.88848983775,
			"0.01": 2.84608735636,
			"0.011": 2.90095846899,
			"0.012": 0.704102388872,
			"0.013": 0.87421503064,
			"0.014": 1.27555586727,
			"0.015": 0.749708951607,
			"0.016": 0.945571904307,
			"0.017": 0.542011287079,
			"0.018": 0.0861638466899,
			"0.019": 0.0,
			"0.02": 0.0,
			"0.021": 0.0,
			"0.022": 0.0,
			"0.023": 0.0,
			"0.024": 0.0,
			"0.025": 0.0
		}
	}
}
