{
	 "smiles": "COC(=O)C1=NOC(C)=C1C(C)=NO", 
	 "Tm": 395.15, 
	 "num_atms": 24, 
	 "gaussian": { 
		 "optdone": 1, 
		 "sigma_profile": "yes", 
		 "theory": "DFT", 
		 "functional": "B3LYP", 
		 "basiset": "6-31G**", 
		 "properties": { 
			 "R2extent": 3170.9458, 
			 "electric_dipole_moment_norm": 4.71640150645, 
			 "electric_quadrupole_moment_norm": 15.6043622872, 
			 "total_energy": -721.169868163, 
			 "HOMO_LUMO_gap": 0.20739, 
			 "cosmo_polarized_energy": -16.78, 
			 "cosmo_cavitation_energy": 29.19, 
			 "cosmo_dispersion_energy": -20.06, 
			 "cosmo_repulsion_energy": 1.62, 
			 "cosmo_total_nonelectrostatic_energy": 10.76, 
			 "SMD_solvation_energy": 6.81 
		},
		"coords": [
			{
				"x": -2.0939939026,
				"y": 1.6890050794,
				"z": 1.6535925689,
				"element": "C" 
			},
			{
				"x": -1.0504819327,
				"y": 1.096283266,
				"z": 0.8638213258,
				"element": "O" 
			},
			{
				"x": 0.1999354616,
				"y": 1.3049739749,
				"z": 1.3230495842,
				"element": "C" 
			},
			{
				"x": 0.4672944118,
				"y": 1.8874084152,
				"z": 2.3477521279,
				"element": "O" 
			},
			{
				"x": 1.1995154924,
				"y": 0.6871278354,
				"z": 0.4008360824,
				"element": "C" 
			},
			{
				"x": 2.2987537336,
				"y": 0.1872821981,
				"z": 0.9175616807,
				"element": "N" 
			},
			{
				"x": 3.0085871701,
				"y": -0.3242766455,
				"z": -0.1601700055,
				"element": "O" 
			},
			{
				"x": 2.3192555751,
				"y": -0.1225398356,
				"z": -1.30542697,
				"element": "C" 
			},
			{
				"x": 2.9768757575,
				"y": -0.5915082871,
				"z": -2.5580162303,
				"element": "C" 
			},
			{
				"x": 1.1408129408,
				"y": 0.5169698049,
				"z": -1.0237765568,
				"element": "C" 
			},
			{
				"x": 0.094375909,
				"y": 0.9534389007,
				"z": -1.9726874158,
				"element": "C" 
			},
			{
				"x": -0.5359233239,
				"y": -0.0571633628,
				"z": -2.8950059159,
				"element": "C" 
			},
			{
				"x": -0.3555312276,
				"y": 2.1541220876,
				"z": -2.0573955334,
				"element": "N" 
			},
			{
				"x": 0.2713190371,
				"y": 3.0236945881,
				"z": -1.1514470214,
				"element": "O" 
			},
			{
				"x": -3.025047081,
				"y": 1.4357553075,
				"z": 1.1472789117,
				"element": "H" 
			},
			{
				"x": -1.9651226302,
				"y": 2.7731633824,
				"z": 1.702825104,
				"element": "H" 
			},
			{
				"x": -2.0840794499,
				"y": 1.2852979704,
				"z": 2.6689071578,
				"element": "H" 
			},
			{
				"x": 4.0499688858,
				"y": -0.3858029578,
				"z": -2.5174409651,
				"element": "H" 
			},
			{
				"x": 2.8494367639,
				"y": -1.6715726024,
				"z": -2.6940438369,
				"element": "H" 
			},
			{
				"x": 2.5572416973,
				"y": -0.0812681329,
				"z": -3.4267379682,
				"element": "H" 
			},
			{
				"x": 0.2121675371,
				"y": -0.5579001826,
				"z": -3.5192435575,
				"element": "H" 
			},
			{
				"x": -1.0429892113,
				"y": -0.8351346639,
				"z": -2.3128525822,
				"element": "H" 
			},
			{
				"x": -1.2633904714,
				"y": 0.4351201058,
				"z": -3.5430485176,
				"element": "H" 
			},
			{
				"x": -0.1732811427,
				"y": 3.862423754,
				"z": -1.3319314668,
				"element": "H" 
			}
		],
		 "valence_orbital": [ 
			{
				"type": "occ",
				"energy": -0.30309,
				"method": "rhf"
			},
			{
				"type": "occ",
				"energy": -0.28389,
				"method": "rhf"
			},
			{
				"type": "occ",
				"energy": -0.281,
				"method": "rhf"
			},
			{
				"type": "occ",
				"energy": -0.26984,
				"method": "rhf"
			},
			{
				"type": "occ",
				"energy": -0.24627,
				"method": "rhf"
			},
			{
				"type": "unocc",
				"energy": -0.03888,
				"method": "rhf"
			},
			{
				"type": "unocc",
				"energy": -0.02346,
				"method": "rhf"
			},
			{
				"type": "unocc",
				"energy": 0.02274,
				"method": "rhf"
			},
			{
				"type": "unocc",
				"energy": 0.06897,
				"method": "rhf"
			},
			{
				"type": "unocc",
				"energy": 0.07629,
				"method": "rhf"
			}
		],
		"cosmo_sigma_profile": { 
			"-0.025": 0.0,
			"-0.024": 0.0,
			"-0.023": 0.0,
			"-0.022": 0.0,
			"-0.021": 0.0,
			"-0.02": 0.0,
			"-0.019": 0.0,
			"-0.018": 0.174628573186,
			"-0.017": 0.828990713351,
			"-0.016": 1.01422202692,
			"-0.015": 1.21854906079,
			"-0.014": 0.730324872792,
			"-0.013": 0.439860769005,
			"-0.012": 0.244596541169,
			"-0.011": 1.07527490403,
			"-0.01": 0.885949755625,
			"-0.009": 0.602335441783,
			"-0.008": 0.403240160217,
			"-0.007": 8.01898952815,
			"-0.006": 14.8267876963,
			"-0.005": 19.1030021119,
			"-0.004": 23.8104320957,
			"-0.003": 22.262151005,
			"-0.002": 19.7482265745,
			"-0.001": 15.2829145794,
			"0.0": 9.87823083227,
			"0.001": 7.59895037266,
			"0.002": 8.24124819003,
			"0.003": 8.73978178195,
			"0.004": 8.00770622866,
			"0.005": 9.61914710028,
			"0.006": 9.33676811955,
			"0.007": 9.13985871708,
			"0.008": 5.0710417641,
			"0.009": 5.54559800969,
			"0.01": 6.55855816944,
			"0.011": 7.61008277089,
			"0.012": 4.37659004788,
			"0.013": 1.08998390914,
			"0.014": 0.00822977666554,
			"0.015": 0.0,
			"0.016": 0.0,
			"0.017": 0.0,
			"0.018": 0.0,
			"0.019": 0.0,
			"0.02": 0.0,
			"0.021": 0.0,
			"0.022": 0.0,
			"0.023": 0.0,
			"0.024": 0.0,
			"0.025": 0.0
		}
	}
}
