{
	 "smiles": "NCCC1=CNC=N1", 
	 "Tm": 359.15, 
	 "num_atms": 17, 
	 "gaussian": { 
		 "optdone": 1, 
		 "sigma_profile": "yes", 
		 "theory": "DFT", 
		 "functional": "B3LYP", 
		 "basiset": "6-31G**", 
		 "properties": { 
			 "R2extent": 1190.1504, 
			 "electric_dipole_moment_norm": 3.22669571543, 
			 "electric_quadrupole_moment_norm": 13.1215238075, 
			 "total_energy": -360.201650444, 
			 "HOMO_LUMO_gap": 0.24777, 
			 "cosmo_polarized_energy": -14.4, 
			 "cosmo_cavitation_energy": 20.24, 
			 "cosmo_dispersion_energy": -15.05, 
			 "cosmo_repulsion_energy": 1.29, 
			 "cosmo_total_nonelectrostatic_energy": 6.47, 
			 "SMD_solvation_energy": 1.08 
		},
		"coords": [
			{
				"x": 1.9379740966,
				"y": -0.5945826849,
				"z": -0.5948535842,
				"element": "N" 
			},
			{
				"x": 1.699295907,
				"y": 0.65651527,
				"z": -1.3233207719,
				"element": "C" 
			},
			{
				"x": 0.2051178628,
				"y": 0.8086780789,
				"z": -1.6524459793,
				"element": "C" 
			},
			{
				"x": -0.6492666402,
				"y": 0.9931996616,
				"z": -0.4321446046,
				"element": "C" 
			},
			{
				"x": -1.5240880963,
				"y": 0.1041580024,
				"z": 0.1489517723,
				"element": "C" 
			},
			{
				"x": -2.0397114913,
				"y": 0.7563115396,
				"z": 1.2529838289,
				"element": "N" 
			},
			{
				"x": -1.4603408008,
				"y": 1.9927826095,
				"z": 1.2932398887,
				"element": "C" 
			},
			{
				"x": -0.6188103347,
				"y": 2.1687058926,
				"z": 0.2991008266,
				"element": "N" 
			},
			{
				"x": 2.9249998509,
				"y": -0.6735476147,
				"z": -0.3617961671,
				"element": "H" 
			},
			{
				"x": 1.4395268106,
				"y": -0.5577421969,
				"z": 0.2923104428,
				"element": "H" 
			},
			{
				"x": 2.0270046567,
				"y": 1.5624120765,
				"z": -0.7862632051,
				"element": "H" 
			},
			{
				"x": 2.2648776201,
				"y": 0.6145266205,
				"z": -2.262154214,
				"element": "H" 
			},
			{
				"x": 0.0777056423,
				"y": 1.6774640782,
				"z": -2.3090303514,
				"element": "H" 
			},
			{
				"x": -0.1243340167,
				"y": -0.0792267732,
				"z": -2.202681269,
				"element": "H" 
			},
			{
				"x": -1.8211972122,
				"y": -0.898006952,
				"z": -0.1191547317,
				"element": "H" 
			},
			{
				"x": -2.7237193536,
				"y": 0.3906210483,
				"z": 1.8972509479,
				"element": "H" 
			},
			{
				"x": -1.6930345014,
				"y": 2.7153313439,
				"z": 2.0640071711,
				"element": "H" 
			}
		],
		 "valence_orbital": [ 
			{
				"type": "occ",
				"energy": -0.33969,
				"method": "rhf"
			},
			{
				"type": "occ",
				"energy": -0.27177,
				"method": "rhf"
			},
			{
				"type": "occ",
				"energy": -0.26198,
				"method": "rhf"
			},
			{
				"type": "occ",
				"energy": -0.2256,
				"method": "rhf"
			},
			{
				"type": "occ",
				"energy": -0.21596,
				"method": "rhf"
			},
			{
				"type": "unocc",
				"energy": 0.03181,
				"method": "rhf"
			},
			{
				"type": "unocc",
				"energy": 0.06713,
				"method": "rhf"
			},
			{
				"type": "unocc",
				"energy": 0.07534,
				"method": "rhf"
			},
			{
				"type": "unocc",
				"energy": 0.10506,
				"method": "rhf"
			},
			{
				"type": "unocc",
				"energy": 0.13262,
				"method": "rhf"
			}
		],
		"cosmo_sigma_profile": { 
			"-0.025": 0.0,
			"-0.024": 0.0,
			"-0.023": 0.0,
			"-0.022": 0.0,
			"-0.021": 0.0,
			"-0.02": 0.0,
			"-0.019": 0.0,
			"-0.018": 0.0,
			"-0.017": 0.123604420756,
			"-0.016": 1.52803075763,
			"-0.015": 1.70319919105,
			"-0.014": 1.18795359862,
			"-0.013": 1.09611685712,
			"-0.012": 1.20271106234,
			"-0.011": 1.34049459818,
			"-0.01": 1.70776753878,
			"-0.009": 2.68108378612,
			"-0.008": 7.05617019367,
			"-0.007": 6.16626686714,
			"-0.006": 6.80129798816,
			"-0.005": 5.46106083697,
			"-0.004": 6.16691722747,
			"-0.003": 10.7695943171,
			"-0.002": 12.3012232844,
			"-0.001": 13.8506735945,
			"0.0": 13.5705981325,
			"0.001": 9.40985350522,
			"0.002": 7.23996293509,
			"0.003": 7.0488714909,
			"0.004": 7.12850812639,
			"0.005": 4.70493274033,
			"0.006": 4.06774449315,
			"0.007": 3.51353760679,
			"0.008": 2.17878519688,
			"0.009": 2.62628148891,
			"0.01": 2.05547008587,
			"0.011": 1.53822537057,
			"0.012": 1.93817936907,
			"0.013": 1.27362190146,
			"0.014": 2.74209961269,
			"0.015": 1.25986720328,
			"0.016": 1.04280001157,
			"0.017": 1.72697115025,
			"0.018": 1.31806537091,
			"0.019": 0.825511298275,
			"0.02": 0.356441980015,
			"0.021": 0.0557232379167,
			"0.022": 0.0,
			"0.023": 0.0,
			"0.024": 0.0,
			"0.025": 0.0
		}
	}
}
