{
	 "smiles": "ClC(=O)OCC1C2=C(C=CC=C2)C2=C1C=CC=C2", 
	 "Tm": 336.15, 
	 "num_atms": 29, 
	 "gaussian": { 
		 "optdone": 1, 
		 "sigma_profile": "yes", 
		 "theory": "DFT", 
		 "functional": "B3LYP", 
		 "basiset": "6-31G**", 
		 "properties": { 
			 "R2extent": 4945.7525, 
			 "electric_dipole_moment_norm": 3.1118495256, 
			 "electric_quadrupole_moment_norm": 16.3292332854, 
			 "total_energy": -1188.88551458, 
			 "HOMO_LUMO_gap": 0.18406, 
			 "cosmo_polarized_energy": -10.7, 
			 "cosmo_cavitation_energy": 35.52, 
			 "cosmo_dispersion_energy": -24.5, 
			 "cosmo_repulsion_energy": 1.92, 
			 "cosmo_total_nonelectrostatic_energy": 12.94, 
			 "SMD_solvation_energy": 6.53 
		},
		"coords": [
			{
				"x": -0.1131295566,
				"y": -3.5919170746,
				"z": 1.9860349184,
				"element": "Cl" 
			},
			{
				"x": 0.2808898368,
				"y": -1.9425971623,
				"z": 2.5266071235,
				"element": "C" 
			},
			{
				"x": 0.6018027697,
				"y": -1.6806746447,
				"z": 3.6489715123,
				"element": "O" 
			},
			{
				"x": 0.1543978598,
				"y": -1.1148889086,
				"z": 1.4970540754,
				"element": "O" 
			},
			{
				"x": 0.4476883762,
				"y": 0.2775309095,
				"z": 1.7962865548,
				"element": "C" 
			},
			{
				"x": 0.2581481005,
				"y": 1.0900920758,
				"z": 0.5179652293,
				"element": "C" 
			},
			{
				"x": 1.1381416673,
				"y": 0.6576702806,
				"z": -0.64663961,
				"element": "C" 
			},
			{
				"x": 0.3437781883,
				"y": 0.3802835132,
				"z": -1.776815239,
				"element": "C" 
			},
			{
				"x": 0.9375111718,
				"y": -0.0243814907,
				"z": -2.9739166387,
				"element": "C" 
			},
			{
				"x": 2.3274766007,
				"y": -0.1516143115,
				"z": -3.0281261669,
				"element": "C" 
			},
			{
				"x": 3.1144814304,
				"y": 0.1242831775,
				"z": -1.9051201018,
				"element": "C" 
			},
			{
				"x": 2.5209929353,
				"y": 0.5337802269,
				"z": -0.7051049495,
				"element": "C" 
			},
			{
				"x": -1.0667288426,
				"y": 0.6017057926,
				"z": -1.4271203681,
				"element": "C" 
			},
			{
				"x": -1.1390099211,
				"y": 1.015058133,
				"z": -0.0820543059,
				"element": "C" 
			},
			{
				"x": -2.3651372668,
				"y": 1.3005889123,
				"z": 0.5062762652,
				"element": "C" 
			},
			{
				"x": -3.5307067589,
				"y": 1.1672016382,
				"z": -0.257658447,
				"element": "C" 
			},
			{
				"x": -3.4609008005,
				"y": 0.7569260121,
				"z": -1.5931188077,
				"element": "C" 
			},
			{
				"x": -2.2297809154,
				"y": 0.4728111551,
				"z": -2.1887116478,
				"element": "C" 
			},
			{
				"x": 1.474041293,
				"y": 0.3457908216,
				"z": 2.1684653818,
				"element": "H" 
			},
			{
				"x": -0.2255396539,
				"y": 0.6130532527,
				"z": 2.5904961399,
				"element": "H" 
			},
			{
				"x": 0.4907804498,
				"y": 2.1292872878,
				"z": 0.7984872283,
				"element": "H" 
			},
			{
				"x": 0.3327689149,
				"y": -0.2395016509,
				"z": -3.8503899518,
				"element": "H" 
			},
			{
				"x": 2.8026667355,
				"y": -0.4676472259,
				"z": -3.9523535663,
				"element": "H" 
			},
			{
				"x": 4.1939366521,
				"y": 0.0210427534,
				"z": -1.9642849166,
				"element": "H" 
			},
			{
				"x": 3.1407335298,
				"y": 0.7493774843,
				"z": 0.1619980171,
				"element": "H" 
			},
			{
				"x": -2.4285013492,
				"y": 1.6233126687,
				"z": 1.5427432766,
				"element": "H" 
			},
			{
				"x": -4.4958754866,
				"y": 1.3848397688,
				"z": 0.1900774477,
				"element": "H" 
			},
			{
				"x": -4.3740246233,
				"y": 0.6588593014,
				"z": -2.1731753113,
				"element": "H" 
			},
			{
				"x": -2.1832013369,
				"y": 0.1555273035,
				"z": -3.2266731418,
				"element": "H" 
			}
		],
		 "valence_orbital": [ 
			{
				"type": "occ",
				"energy": -0.30045,
				"method": "rhf"
			},
			{
				"type": "occ",
				"energy": -0.28648,
				"method": "rhf"
			},
			{
				"type": "occ",
				"energy": -0.25565,
				"method": "rhf"
			},
			{
				"type": "occ",
				"energy": -0.25108,
				"method": "rhf"
			},
			{
				"type": "occ",
				"energy": -0.22067,
				"method": "rhf"
			},
			{
				"type": "unocc",
				"energy": -0.03661,
				"method": "rhf"
			},
			{
				"type": "unocc",
				"energy": -0.01921,
				"method": "rhf"
			},
			{
				"type": "unocc",
				"energy": -0.00668,
				"method": "rhf"
			},
			{
				"type": "unocc",
				"energy": 0.0049,
				"method": "rhf"
			},
			{
				"type": "unocc",
				"energy": 0.01746,
				"method": "rhf"
			}
		],
		"cosmo_sigma_profile": { 
			"-0.025": 0.0,
			"-0.024": 0.0,
			"-0.023": 0.0,
			"-0.022": 0.0,
			"-0.021": 0.0,
			"-0.02": 0.0,
			"-0.019": 0.0,
			"-0.018": 0.0,
			"-0.017": 0.0,
			"-0.016": 0.0,
			"-0.015": 0.0,
			"-0.014": 0.0,
			"-0.013": 0.0,
			"-0.012": 0.0,
			"-0.011": 0.0,
			"-0.01": 0.0,
			"-0.009": 0.0,
			"-0.008": 1.3035178265,
			"-0.007": 13.621807886,
			"-0.006": 21.0508228905,
			"-0.005": 22.4760895966,
			"-0.004": 21.829746762,
			"-0.003": 21.6578810892,
			"-0.002": 15.1604534996,
			"-0.001": 16.2982948283,
			"0.0": 16.3157795252,
			"0.001": 15.6670494419,
			"0.002": 20.0212223596,
			"0.003": 27.0019654491,
			"0.004": 23.8841442451,
			"0.005": 22.7451216922,
			"0.006": 15.8692409941,
			"0.007": 2.82399347861,
			"0.008": 2.76994060748,
			"0.009": 5.06094527142,
			"0.01": 1.44484104833,
			"0.011": 0.00323528729598,
			"0.012": 0.0,
			"0.013": 0.0,
			"0.014": 0.0,
			"0.015": 0.0,
			"0.016": 0.0,
			"0.017": 0.0,
			"0.018": 0.0,
			"0.019": 0.0,
			"0.02": 0.0,
			"0.021": 0.0,
			"0.022": 0.0,
			"0.023": 0.0,
			"0.024": 0.0,
			"0.025": 0.0
		}
	}
}
