{
	 "smiles": "O=C1C(=O)C2=CC=CC3=C2C1=CC=C3", 
	 "Tm": 533.15, 
	 "num_atms": 20, 
	 "gaussian": { 
		 "optdone": 1, 
		 "sigma_profile": "yes", 
		 "theory": "DFT", 
		 "functional": "B3LYP", 
		 "basiset": "6-31G**", 
		 "properties": { 
			 "R2extent": 2631.3161, 
			 "electric_dipole_moment_norm": 6.23583043788, 
			 "electric_quadrupole_moment_norm": 11.6617066838, 
			 "total_energy": -611.330732047, 
			 "HOMO_LUMO_gap": 0.13843, 
			 "cosmo_polarized_energy": -12.5, 
			 "cosmo_cavitation_energy": 25.17, 
			 "cosmo_dispersion_energy": -18.51, 
			 "cosmo_repulsion_energy": 1.41, 
			 "cosmo_total_nonelectrostatic_energy": 8.06, 
			 "SMD_solvation_energy": 5.22 
		},
		"coords": [
			{
				"x": 0.6381679978,
				"y": 2.7043459877,
				"z": -2.0939006207,
				"element": "O" 
			},
			{
				"x": 0.2958236066,
				"y": 1.701843278,
				"z": -1.5067324492,
				"element": "C" 
			},
			{
				"x": 0.3594601353,
				"y": 1.5012756612,
				"z": 0.0621024475,
				"element": "C" 
			},
			{
				"x": 0.7577052788,
				"y": 2.3276040132,
				"z": 0.853026872,
				"element": "O" 
			},
			{
				"x": -0.1593597298,
				"y": 0.1306896134,
				"z": 0.3083056108,
				"element": "C" 
			},
			{
				"x": -0.3470676454,
				"y": -0.6090911374,
				"z": 1.4568070456,
				"element": "C" 
			},
			{
				"x": -0.8760899618,
				"y": -1.9206682319,
				"z": 1.3362044948,
				"element": "C" 
			},
			{
				"x": -1.2057582592,
				"y": -2.4723356287,
				"z": 0.1072279615,
				"element": "C" 
			},
			{
				"x": -1.0225791284,
				"y": -1.7320194299,
				"z": -1.093753203,
				"element": "C" 
			},
			{
				"x": -0.4953353268,
				"y": -0.4304270942,
				"z": -0.9487192049,
				"element": "C" 
			},
			{
				"x": -0.2548261291,
				"y": 0.4318051688,
				"z": -2.0471494842,
				"element": "C" 
			},
			{
				"x": -0.5408077823,
				"y": 0.0022924768,
				"z": -3.3259341383,
				"element": "C" 
			},
			{
				"x": -1.0717591376,
				"y": -1.3028933786,
				"z": -3.4969078002,
				"element": "C" 
			},
			{
				"x": -1.3081713426,
				"y": -2.1488529444,
				"z": -2.4236612898,
				"element": "C" 
			},
			{
				"x": -0.0965723804,
				"y": -0.199150154,
				"z": 2.4304398978,
				"element": "H" 
			},
			{
				"x": -1.0269475603,
				"y": -2.5098083571,
				"z": 2.2359163024,
				"element": "H" 
			},
			{
				"x": -1.6084197382,
				"y": -3.4806689988,
				"z": 0.0588028981,
				"element": "H" 
			},
			{
				"x": -0.3644852125,
				"y": 0.6461646969,
				"z": -4.1821468431,
				"element": "H" 
			},
			{
				"x": -1.2996799884,
				"y": -1.6487152319,
				"z": -4.5007919328,
				"element": "H" 
			},
			{
				"x": -1.7158976959,
				"y": -3.1410903091,
				"z": -2.5981365645,
				"element": "H" 
			}
		],
		 "valence_orbital": [ 
			{
				"type": "occ",
				"energy": -0.30912,
				"method": "rhf"
			},
			{
				"type": "occ",
				"energy": -0.30548,
				"method": "rhf"
			},
			{
				"type": "occ",
				"energy": -0.27156,
				"method": "rhf"
			},
			{
				"type": "occ",
				"energy": -0.24411,
				"method": "rhf"
			},
			{
				"type": "occ",
				"energy": -0.23429,
				"method": "rhf"
			},
			{
				"type": "unocc",
				"energy": -0.09586,
				"method": "rhf"
			},
			{
				"type": "unocc",
				"energy": -0.08358,
				"method": "rhf"
			},
			{
				"type": "unocc",
				"energy": -0.03314,
				"method": "rhf"
			},
			{
				"type": "unocc",
				"energy": 0.0365,
				"method": "rhf"
			},
			{
				"type": "unocc",
				"energy": 0.04132,
				"method": "rhf"
			}
		],
		"cosmo_sigma_profile": { 
			"-0.025": 0.0,
			"-0.024": 0.0,
			"-0.023": 0.0,
			"-0.022": 0.0,
			"-0.021": 0.0,
			"-0.02": 0.0,
			"-0.019": 0.0,
			"-0.018": 0.0,
			"-0.017": 0.0,
			"-0.016": 0.0,
			"-0.015": 0.0,
			"-0.014": 0.0,
			"-0.013": 0.0,
			"-0.012": 0.0,
			"-0.011": 0.0,
			"-0.01": 0.0,
			"-0.009": 0.0,
			"-0.008": 3.40446120274,
			"-0.007": 15.4159325407,
			"-0.006": 15.7978001419,
			"-0.005": 14.2401700791,
			"-0.004": 11.3088038609,
			"-0.003": 11.4293703266,
			"-0.002": 10.1538299872,
			"-0.001": 15.953168638,
			"0.0": 20.5522899159,
			"0.001": 22.7383890778,
			"0.002": 17.5337212673,
			"0.003": 6.87747781559,
			"0.004": 2.9315336683,
			"0.005": 1.41422595743,
			"0.006": 3.32959956748,
			"0.007": 3.69153015711,
			"0.008": 2.94379273775,
			"0.009": 6.32574247522,
			"0.01": 8.47492668485,
			"0.011": 7.31861428807,
			"0.012": 2.32666180882,
			"0.013": 0.0216479920961,
			"0.014": 0.0,
			"0.015": 0.0,
			"0.016": 0.0,
			"0.017": 0.0,
			"0.018": 0.0,
			"0.019": 0.0,
			"0.02": 0.0,
			"0.021": 0.0,
			"0.022": 0.0,
			"0.023": 0.0,
			"0.024": 0.0,
			"0.025": 0.0
		}
	}
}
