{
	 "smiles": "FC(Cl)(Cl)C#N", 
	 "Tm": 163.15, 
	 "num_atms": 6, 
	 "gaussian": { 
		 "optdone": 1, 
		 "sigma_profile": "yes", 
		 "theory": "DFT", 
		 "functional": "B3LYP", 
		 "basiset": "6-31G**", 
		 "properties": { 
			 "R2extent": 1425.7251, 
			 "electric_dipole_moment_norm": 1.67504670084, 
			 "electric_quadrupole_moment_norm": 4.3094593292, 
			 "total_energy": -1151.12810003, 
			 "HOMO_LUMO_gap": 0.27402, 
			 "cosmo_polarized_energy": -3.14, 
			 "cosmo_cavitation_energy": 15.65, 
			 "cosmo_dispersion_energy": -11.19, 
			 "cosmo_repulsion_energy": 0.97, 
			 "cosmo_total_nonelectrostatic_energy": 5.43, 
			 "SMD_solvation_energy": 4.09 
		},
		"coords": [
			{
				"x": -0.4336950896,
				"y": -0.0123925743,
				"z": 1.4300586472,
				"element": "F" 
			},
			{
				"x": 0.8994478027,
				"y": 0.120231974,
				"z": 1.2762585014,
				"element": "C" 
			},
			{
				"x": 1.7162080201,
				"y": -0.6533627392,
				"z": 2.6724666013,
				"element": "Cl" 
			},
			{
				"x": 1.2942735802,
				"y": 1.8671244303,
				"z": 1.1893892395,
				"element": "Cl" 
			},
			{
				"x": 1.3126814449,
				"y": -0.5423271675,
				"z": 0.0328217527,
				"element": "C" 
			},
			{
				"x": 1.6215842418,
				"y": -1.0687739233,
				"z": -0.9527947422,
				"element": "N" 
			}
		],
		 "valence_orbital": [ 
			{
				"type": "occ",
				"energy": -0.3846,
				"method": "rhf"
			},
			{
				"type": "occ",
				"energy": -0.37745,
				"method": "rhf"
			},
			{
				"type": "occ",
				"energy": -0.35932,
				"method": "rhf"
			},
			{
				"type": "occ",
				"energy": -0.35247,
				"method": "rhf"
			},
			{
				"type": "occ",
				"energy": -0.3429,
				"method": "rhf"
			},
			{
				"type": "unocc",
				"energy": -0.06888,
				"method": "rhf"
			},
			{
				"type": "unocc",
				"energy": -0.05778,
				"method": "rhf"
			},
			{
				"type": "unocc",
				"energy": -0.01642,
				"method": "rhf"
			},
			{
				"type": "unocc",
				"energy": 0.06106,
				"method": "rhf"
			},
			{
				"type": "unocc",
				"energy": 0.09914,
				"method": "rhf"
			}
		],
		"cosmo_sigma_profile": { 
			"-0.025": 0.0,
			"-0.024": 0.0,
			"-0.023": 0.0,
			"-0.022": 0.0,
			"-0.021": 0.0,
			"-0.02": 0.0,
			"-0.019": 0.0,
			"-0.018": 0.0,
			"-0.017": 0.0,
			"-0.016": 0.0,
			"-0.015": 0.0,
			"-0.014": 0.0,
			"-0.013": 0.0,
			"-0.012": 0.0,
			"-0.011": 0.0,
			"-0.01": 0.0,
			"-0.009": 0.0135746413294,
			"-0.008": 0.79361308576,
			"-0.007": 2.134547591,
			"-0.006": 3.46328985146,
			"-0.005": 5.53058127587,
			"-0.004": 8.19572037255,
			"-0.003": 9.33678158166,
			"-0.002": 11.1005173858,
			"-0.001": 14.213165185,
			"0.0": 21.1695647015,
			"0.001": 30.1039489338,
			"0.002": 6.45806730306,
			"0.003": 2.15528866838,
			"0.004": 2.6862957998,
			"0.005": 3.3082009689,
			"0.006": 2.65933931209,
			"0.007": 2.74358686524,
			"0.008": 2.36672206069,
			"0.009": 2.23672682044,
			"0.01": 1.2198870728,
			"0.011": 0.0153522948844,
			"0.012": 0.0,
			"0.013": 0.0,
			"0.014": 0.0,
			"0.015": 0.0,
			"0.016": 0.0,
			"0.017": 0.0,
			"0.018": 0.0,
			"0.019": 0.0,
			"0.02": 0.0,
			"0.021": 0.0,
			"0.022": 0.0,
			"0.023": 0.0,
			"0.024": 0.0,
			"0.025": 0.0
		}
	}
}
