{
	 "smiles": "COC(=O)C1=CNN=N1", 
	 "Tm": 413.15, 
	 "num_atms": 14, 
	 "gaussian": { 
		 "optdone": 1, 
		 "sigma_profile": "yes", 
		 "theory": "DFT", 
		 "functional": "B3LYP", 
		 "basiset": "6-31G**", 
		 "properties": { 
			 "R2extent": 1338.4653, 
			 "electric_dipole_moment_norm": 2.73538552676, 
			 "electric_quadrupole_moment_norm": 18.8319997117, 
			 "total_energy": -470.099017609, 
			 "HOMO_LUMO_gap": 0.24258, 
			 "cosmo_polarized_energy": -17.82, 
			 "cosmo_cavitation_energy": 19.44, 
			 "cosmo_dispersion_energy": -14.53, 
			 "cosmo_repulsion_energy": 1.21, 
			 "cosmo_total_nonelectrostatic_energy": 6.12, 
			 "SMD_solvation_energy": 4.2 
		},
		"coords": [
			{
				"x": 2.2915437169,
				"y": 1.6745419362,
				"z": -0.8602863078,
				"element": "C" 
			},
			{
				"x": 0.9748088961,
				"y": 1.266191296,
				"z": -0.4556565971,
				"element": "O" 
			},
			{
				"x": 0.5978912422,
				"y": 0.0515845904,
				"z": -0.8855206452,
				"element": "C" 
			},
			{
				"x": 1.2874363665,
				"y": -0.6825526673,
				"z": -1.569026048,
				"element": "O" 
			},
			{
				"x": -0.7609981413,
				"y": -0.3124852116,
				"z": -0.4398934738,
				"element": "C" 
			},
			{
				"x": -1.4050880948,
				"y": -1.4991004125,
				"z": -0.7327567367,
				"element": "C" 
			},
			{
				"x": -2.5981870253,
				"y": -1.3710381167,
				"z": -0.1188602182,
				"element": "N" 
			},
			{
				"x": -2.7048203744,
				"y": -0.1757738418,
				"z": 0.5244320109,
				"element": "N" 
			},
			{
				"x": -1.591995923,
				"y": 0.4603837748,
				"z": 0.3274231667,
				"element": "N" 
			},
			{
				"x": 2.4326702211,
				"y": 2.6664110541,
				"z": -0.4321615345,
				"element": "H" 
			},
			{
				"x": 3.0442441869,
				"y": 0.9797767914,
				"z": -0.4791419118,
				"element": "H" 
			},
			{
				"x": 2.3653579832,
				"y": 1.711305261,
				"z": -1.9501168025,
				"element": "H" 
			},
			{
				"x": -1.1011131061,
				"y": -2.3625106305,
				"z": -1.3020888397,
				"element": "H" 
			},
			{
				"x": -3.3707499481,
				"y": -2.0210338236,
				"z": -0.0856460626,
				"element": "H" 
			}
		],
		 "valence_orbital": [ 
			{
				"type": "occ",
				"energy": -0.31893,
				"method": "rhf"
			},
			{
				"type": "occ",
				"energy": -0.3027,
				"method": "rhf"
			},
			{
				"type": "occ",
				"energy": -0.28371,
				"method": "rhf"
			},
			{
				"type": "occ",
				"energy": -0.27513,
				"method": "rhf"
			},
			{
				"type": "occ",
				"energy": -0.27499,
				"method": "rhf"
			},
			{
				"type": "unocc",
				"energy": -0.03241,
				"method": "rhf"
			},
			{
				"type": "unocc",
				"energy": -0.01436,
				"method": "rhf"
			},
			{
				"type": "unocc",
				"energy": 0.05982,
				"method": "rhf"
			},
			{
				"type": "unocc",
				"energy": 0.10673,
				"method": "rhf"
			},
			{
				"type": "unocc",
				"energy": 0.11336,
				"method": "rhf"
			}
		],
		"cosmo_sigma_profile": { 
			"-0.025": 0.0,
			"-0.024": 0.0,
			"-0.023": 0.0,
			"-0.022": 0.0,
			"-0.021": 0.0,
			"-0.02": 0.0,
			"-0.019": 0.760331968074,
			"-0.018": 2.32948734446,
			"-0.017": 1.71593494758,
			"-0.016": 1.00747087505,
			"-0.015": 0.794016289596,
			"-0.014": 1.36086083351,
			"-0.013": 1.06977732189,
			"-0.012": 1.57996910471,
			"-0.011": 3.2835845033,
			"-0.01": 1.99764377018,
			"-0.009": 2.40030908289,
			"-0.008": 2.09558639925,
			"-0.007": 2.64361338475,
			"-0.006": 7.21719611527,
			"-0.005": 9.10011036963,
			"-0.004": 10.5721731768,
			"-0.003": 12.2899167038,
			"-0.002": 11.3217455051,
			"-0.001": 11.5495939741,
			"0.0": 6.90343307794,
			"0.001": 5.02077770996,
			"0.002": 4.54583834125,
			"0.003": 3.76069519601,
			"0.004": 4.09810377318,
			"0.005": 3.98048244406,
			"0.006": 3.40231873135,
			"0.007": 4.21283172277,
			"0.008": 5.30906475945,
			"0.009": 5.30837168286,
			"0.01": 5.96269990165,
			"0.011": 6.95476444532,
			"0.012": 6.62520017431,
			"0.013": 2.44877234084,
			"0.014": 1.39888176525,
			"0.015": 0.741091027084,
			"0.016": 0.0166426197409,
			"0.017": 0.0,
			"0.018": 0.0,
			"0.019": 0.0,
			"0.02": 0.0,
			"0.021": 0.0,
			"0.022": 0.0,
			"0.023": 0.0,
			"0.024": 0.0,
			"0.025": 0.0
		}
	}
}
