{
	 "smiles": "CCC1=NC(=NC(Cl)=C1)C1=CC=NC=C1", 
	 "Tm": 373.15, 
	 "num_atms": 25, 
	 "gaussian": { 
		 "optdone": 1, 
		 "sigma_profile": "yes", 
		 "theory": "DFT", 
		 "functional": "B3LYP", 
		 "basiset": "6-31G**", 
		 "properties": { 
			 "R2extent": 4860.071, 
			 "electric_dipole_moment_norm": 4.06834202225, 
			 "electric_quadrupole_moment_norm": 7.28246874006, 
			 "total_energy": -1049.65691355, 
			 "HOMO_LUMO_gap": 0.18147, 
			 "cosmo_polarized_energy": -8.72, 
			 "cosmo_cavitation_energy": 31.47, 
			 "cosmo_dispersion_energy": -22.85, 
			 "cosmo_repulsion_energy": 1.81, 
			 "cosmo_total_nonelectrostatic_energy": 10.42, 
			 "SMD_solvation_energy": 1.76 
		},
		"coords": [
			{
				"x": -0.8208158469,
				"y": -3.0072434048,
				"z": 0.7395922606,
				"element": "C" 
			},
			{
				"x": 0.6914090238,
				"y": -2.7674799812,
				"z": 0.8913137252,
				"element": "C" 
			},
			{
				"x": 1.0335410107,
				"y": -1.2983533716,
				"z": 0.9386183156,
				"element": "C" 
			},
			{
				"x": 0.8512945976,
				"y": -0.5966739974,
				"z": -0.1924611096,
				"element": "N" 
			},
			{
				"x": 1.1326539831,
				"y": 0.7106135044,
				"z": -0.1671916298,
				"element": "C" 
			},
			{
				"x": 1.5860647778,
				"y": 1.3873642709,
				"z": 0.9078391254,
				"element": "N" 
			},
			{
				"x": 1.7575389297,
				"y": 0.6841804487,
				"z": 2.0076450429,
				"element": "C" 
			},
			{
				"x": 2.3479320256,
				"y": 1.543829199,
				"z": 3.4215993078,
				"element": "Cl" 
			},
			{
				"x": 1.4997655303,
				"y": -0.6825723615,
				"z": 2.1034112558,
				"element": "C" 
			},
			{
				"x": 0.9359535869,
				"y": 1.4881676486,
				"z": -1.4177708794,
				"element": "C" 
			},
			{
				"x": 1.2027697141,
				"y": 2.862037754,
				"z": -1.465259342,
				"element": "C" 
			},
			{
				"x": 0.9996558271,
				"y": 3.5411210046,
				"z": -2.6655013957,
				"element": "C" 
			},
			{
				"x": 0.561203831,
				"y": 2.959406379,
				"z": -3.789912626,
				"element": "N" 
			},
			{
				"x": 0.3096398621,
				"y": 1.6445764564,
				"z": -3.7327915139,
				"element": "C" 
			},
			{
				"x": 0.4772586321,
				"y": 0.8690249173,
				"z": -2.587224149,
				"element": "C" 
			},
			{
				"x": -1.0324246073,
				"y": -4.0773881264,
				"z": 0.6582307412,
				"element": "H" 
			},
			{
				"x": -1.1963484346,
				"y": -2.5107651544,
				"z": -0.1589993257,
				"element": "H" 
			},
			{
				"x": -1.372014296,
				"y": -2.616373389,
				"z": 1.600839379,
				"element": "H" 
			},
			{
				"x": 1.2143460169,
				"y": -3.2075045655,
				"z": 0.0345596859,
				"element": "H" 
			},
			{
				"x": 1.0658664301,
				"y": -3.2615370908,
				"z": 1.7939668641,
				"element": "H" 
			},
			{
				"x": 1.6542643103,
				"y": -1.2297827215,
				"z": 3.0247451964,
				"element": "H" 
			},
			{
				"x": 1.5596188287,
				"y": 3.378160616,
				"z": -0.581808229,
				"element": "H" 
			},
			{
				"x": 1.2000956419,
				"y": 4.6093130212,
				"z": -2.7262439713,
				"element": "H" 
			},
			{
				"x": -0.04554644,
				"y": 1.1851496514,
				"z": -4.6535789244,
				"element": "H" 
			},
			{
				"x": 0.2607770653,
				"y": -0.1925707075,
				"z": -2.5901178043,
				"element": "H" 
			}
		],
		 "valence_orbital": [ 
			{
				"type": "occ",
				"energy": -0.30243,
				"method": "rhf"
			},
			{
				"type": "occ",
				"energy": -0.27153,
				"method": "rhf"
			},
			{
				"type": "occ",
				"energy": -0.26509,
				"method": "rhf"
			},
			{
				"type": "occ",
				"energy": -0.26226,
				"method": "rhf"
			},
			{
				"type": "occ",
				"energy": -0.25474,
				"method": "rhf"
			},
			{
				"type": "unocc",
				"energy": -0.07327,
				"method": "rhf"
			},
			{
				"type": "unocc",
				"energy": -0.05409,
				"method": "rhf"
			},
			{
				"type": "unocc",
				"energy": -0.00845,
				"method": "rhf"
			},
			{
				"type": "unocc",
				"energy": 0.00963,
				"method": "rhf"
			},
			{
				"type": "unocc",
				"energy": 0.02135,
				"method": "rhf"
			}
		],
		"cosmo_sigma_profile": { 
			"-0.025": 0.0,
			"-0.024": 0.0,
			"-0.023": 0.0,
			"-0.022": 0.0,
			"-0.021": 0.0,
			"-0.02": 0.0,
			"-0.019": 0.0,
			"-0.018": 0.0,
			"-0.017": 0.0,
			"-0.016": 0.0,
			"-0.015": 0.0,
			"-0.014": 0.0,
			"-0.013": 0.0,
			"-0.012": 0.0,
			"-0.011": 0.0,
			"-0.01": 0.0,
			"-0.009": 1.08177601919,
			"-0.008": 2.0816351323,
			"-0.007": 4.22571969677,
			"-0.006": 9.34591108469,
			"-0.005": 12.115572441,
			"-0.004": 16.1707520161,
			"-0.003": 22.0874583828,
			"-0.002": 31.0696467161,
			"-0.001": 26.5591935001,
			"0.0": 23.8730607529,
			"0.001": 26.5235712922,
			"0.002": 23.7201466596,
			"0.003": 14.3600966074,
			"0.004": 13.3135559095,
			"0.005": 6.86767830656,
			"0.006": 4.52904674022,
			"0.007": 4.35693294769,
			"0.008": 3.51095607543,
			"0.009": 2.59569295348,
			"0.01": 0.712105515865,
			"0.011": 1.09625242709,
			"0.012": 0.607333520839,
			"0.013": 1.04740465443,
			"0.014": 1.00852446614,
			"0.015": 0.849064568302,
			"0.016": 0.710703382301,
			"0.017": 0.202988833983,
			"0.018": 0.0,
			"0.019": 0.0,
			"0.02": 0.0,
			"0.021": 0.0,
			"0.022": 0.0,
			"0.023": 0.0,
			"0.024": 0.0,
			"0.025": 0.0
		}
	}
}
