{
	 "smiles": "OC(=O)C1CC(=O)CC1C(O)=O", 
	 "Tm": 460.15, 
	 "num_atms": 20, 
	 "gaussian": { 
		 "optdone": 1, 
		 "sigma_profile": "yes", 
		 "theory": "DFT", 
		 "functional": "B3LYP", 
		 "basiset": "6-31G**", 
		 "properties": { 
			 "R2extent": 3030.0718, 
			 "electric_dipole_moment_norm": 2.20051656208, 
			 "electric_quadrupole_moment_norm": 13.4367403715, 
			 "total_energy": -647.710647013, 
			 "HOMO_LUMO_gap": 0.22227, 
			 "cosmo_polarized_energy": -19.13, 
			 "cosmo_cavitation_energy": 24.29, 
			 "cosmo_dispersion_energy": -17.46, 
			 "cosmo_repulsion_energy": 1.43, 
			 "cosmo_total_nonelectrostatic_energy": 8.26, 
			 "SMD_solvation_energy": 6.7 
		},
		"coords": [
			{
				"x": 1.670382571,
				"y": 1.6958851451,
				"z": 3.8020323841,
				"element": "O" 
			},
			{
				"x": 1.6803761293,
				"y": 1.6250822244,
				"z": 2.4550210772,
				"element": "C" 
			},
			{
				"x": 2.4803955677,
				"y": 2.2283499551,
				"z": 1.7703268636,
				"element": "O" 
			},
			{
				"x": 0.634676308,
				"y": 0.6527837036,
				"z": 1.9358153744,
				"element": "C" 
			},
			{
				"x": 1.2751221664,
				"y": -0.7447664665,
				"z": 1.7497391186,
				"element": "C" 
			},
			{
				"x": 1.794619169,
				"y": -0.7689963388,
				"z": 0.3036143957,
				"element": "C" 
			},
			{
				"x": 2.5058651327,
				"y": -1.6282709985,
				"z": -0.1634045251,
				"element": "O" 
			},
			{
				"x": 1.2527368664,
				"y": 0.4529655312,
				"z": -0.4404008633,
				"element": "C" 
			},
			{
				"x": 0.1762681312,
				"y": 1.0244362458,
				"z": 0.50026465,
				"element": "C" 
			},
			{
				"x": -0.1640643188,
				"y": 2.4932470742,
				"z": 0.3527165767,
				"element": "C" 
			},
			{
				"x": -0.128361466,
				"y": 2.8996135285,
				"z": -0.9348664493,
				"element": "O" 
			},
			{
				"x": -0.4854419969,
				"y": 3.2219760391,
				"z": 1.2660705819,
				"element": "O" 
			},
			{
				"x": 2.3848510155,
				"y": 2.3073848294,
				"z": 4.0499465581,
				"element": "H" 
			},
			{
				"x": -0.197743946,
				"y": 0.6365576681,
				"z": 2.6403339681,
				"element": "H" 
			},
			{
				"x": 2.0696358821,
				"y": -0.983906184,
				"z": 2.4610093151,
				"element": "H" 
			},
			{
				"x": 0.5141495921,
				"y": -1.5297055581,
				"z": 1.8447194633,
				"element": "H" 
			},
			{
				"x": 0.8919573195,
				"y": 0.1834168112,
				"z": -1.4349920798,
				"element": "H" 
			},
			{
				"x": 2.0768041566,
				"y": 1.1640511579,
				"z": -0.5592073717,
				"element": "H" 
			},
			{
				"x": -0.7662788509,
				"y": 0.4893136231,
				"z": 0.3139678821,
				"element": "H" 
			},
			{
				"x": -0.3798494289,
				"y": 3.8389820093,
				"z": -0.9317069196,
				"element": "H" 
			}
		],
		 "valence_orbital": [ 
			{
				"type": "occ",
				"energy": -0.33109,
				"method": "rhf"
			},
			{
				"type": "occ",
				"energy": -0.32277,
				"method": "rhf"
			},
			{
				"type": "occ",
				"energy": -0.2882,
				"method": "rhf"
			},
			{
				"type": "occ",
				"energy": -0.28321,
				"method": "rhf"
			},
			{
				"type": "occ",
				"energy": -0.24896,
				"method": "rhf"
			},
			{
				"type": "unocc",
				"energy": -0.02669,
				"method": "rhf"
			},
			{
				"type": "unocc",
				"energy": -0.00615,
				"method": "rhf"
			},
			{
				"type": "unocc",
				"energy": 0.00533,
				"method": "rhf"
			},
			{
				"type": "unocc",
				"energy": 0.06792,
				"method": "rhf"
			},
			{
				"type": "unocc",
				"energy": 0.07178,
				"method": "rhf"
			}
		],
		"cosmo_sigma_profile": { 
			"-0.025": 0.0,
			"-0.024": 0.0,
			"-0.023": 0.0,
			"-0.022": 0.0,
			"-0.021": 0.0,
			"-0.02": 0.0,
			"-0.019": 0.53307105137,
			"-0.018": 1.6305936292,
			"-0.017": 2.56980841744,
			"-0.016": 1.02385831061,
			"-0.015": 1.02731008194,
			"-0.014": 1.89234428003,
			"-0.013": 1.57787738049,
			"-0.012": 1.00104069325,
			"-0.011": 1.37447107281,
			"-0.01": 1.43622478689,
			"-0.009": 3.0490346014,
			"-0.008": 8.71407834732,
			"-0.007": 12.2187898667,
			"-0.006": 13.0016609478,
			"-0.005": 9.89836358038,
			"-0.004": 9.16789203943,
			"-0.003": 10.3043175986,
			"-0.002": 9.69228364716,
			"-0.001": 6.58590917913,
			"0.0": 6.35901037885,
			"0.001": 6.46986436337,
			"0.002": 6.56365962586,
			"0.003": 5.81373013447,
			"0.004": 5.89942175736,
			"0.005": 8.40777731516,
			"0.006": 6.5991414585,
			"0.007": 7.58852920562,
			"0.008": 7.19831819063,
			"0.009": 6.43168423694,
			"0.01": 7.41550309672,
			"0.011": 11.8303640259,
			"0.012": 6.71025794314,
			"0.013": 0.758339427578,
			"0.014": 0.0,
			"0.015": 0.0,
			"0.016": 0.0,
			"0.017": 0.0,
			"0.018": 0.0,
			"0.019": 0.0,
			"0.02": 0.0,
			"0.021": 0.0,
			"0.022": 0.0,
			"0.023": 0.0,
			"0.024": 0.0,
			"0.025": 0.0
		}
	}
}
