{
	 "smiles": "NC1=C(C=NO1)C#N", 
	 "Tm": 417.15, 
	 "num_atms": 11, 
	 "gaussian": { 
		 "optdone": 1, 
		 "sigma_profile": "yes", 
		 "theory": "DFT", 
		 "functional": "B3LYP", 
		 "basiset": "6-31G**", 
		 "properties": { 
			 "R2extent": 1595.9765, 
			 "electric_dipole_moment_norm": 3.2366312317, 
			 "electric_quadrupole_moment_norm": 13.4723597874, 
			 "total_energy": -393.639396339, 
			 "HOMO_LUMO_gap": 0.22374, 
			 "cosmo_polarized_energy": -16.07, 
			 "cosmo_cavitation_energy": 17.23, 
			 "cosmo_dispersion_energy": -12.31, 
			 "cosmo_repulsion_energy": 1.04, 
			 "cosmo_total_nonelectrostatic_energy": 5.96, 
			 "SMD_solvation_energy": 4.84 
		},
		"coords": [
			{
				"x": -0.7418549647,
				"y": 1.0204256992,
				"z": 0.4034611455,
				"element": "N" 
			},
			{
				"x": -1.2528887996,
				"y": -0.0790758868,
				"z": -0.1931429422,
				"element": "C" 
			},
			{
				"x": -1.9422390806,
				"y": -0.2536686802,
				"z": -1.3864253307,
				"element": "C" 
			},
			{
				"x": -2.2364722086,
				"y": -1.6509073199,
				"z": -1.380615707,
				"element": "C" 
			},
			{
				"x": -1.7864494547,
				"y": -2.2688615926,
				"z": -0.3228416361,
				"element": "N" 
			},
			{
				"x": -1.1467724173,
				"y": -1.244575255,
				"z": 0.447486557,
				"element": "O" 
			},
			{
				"x": -2.2418040236,
				"y": 0.741239023,
				"z": -2.3415736875,
				"element": "C" 
			},
			{
				"x": -2.4679684041,
				"y": 1.5869765614,
				"z": -3.1111560963,
				"element": "N" 
			},
			{
				"x": -0.6422608475,
				"y": 1.8562364961,
				"z": -0.152129195,
				"element": "H" 
			},
			{
				"x": -0.0919617177,
				"y": 0.8890670579,
				"z": 1.1635415409,
				"element": "H" 
			},
			{
				"x": -2.7692280817,
				"y": -2.2157561031,
				"z": -2.1351046486,
				"element": "H" 
			}
		],
		 "valence_orbital": [ 
			{
				"type": "occ",
				"energy": -0.36482,
				"method": "rhf"
			},
			{
				"type": "occ",
				"energy": -0.34829,
				"method": "rhf"
			},
			{
				"type": "occ",
				"energy": -0.32037,
				"method": "rhf"
			},
			{
				"type": "occ",
				"energy": -0.31084,
				"method": "rhf"
			},
			{
				"type": "occ",
				"energy": -0.24311,
				"method": "rhf"
			},
			{
				"type": "unocc",
				"energy": -0.01937,
				"method": "rhf"
			},
			{
				"type": "unocc",
				"energy": -0.00637,
				"method": "rhf"
			},
			{
				"type": "unocc",
				"energy": 0.0113,
				"method": "rhf"
			},
			{
				"type": "unocc",
				"energy": 0.04704,
				"method": "rhf"
			},
			{
				"type": "unocc",
				"energy": 0.07634,
				"method": "rhf"
			}
		],
		"cosmo_sigma_profile": { 
			"-0.025": 0.0,
			"-0.024": 0.0,
			"-0.023": 0.0,
			"-0.022": 0.0,
			"-0.021": 0.0,
			"-0.02": 0.0,
			"-0.019": 0.0,
			"-0.018": 0.0,
			"-0.017": 0.11165497194,
			"-0.016": 2.41779939649,
			"-0.015": 2.2836929312,
			"-0.014": 2.71566291433,
			"-0.013": 2.9189558686,
			"-0.012": 2.20231542847,
			"-0.011": 3.01299322089,
			"-0.01": 4.91696472303,
			"-0.009": 4.34236445389,
			"-0.008": 2.96237472223,
			"-0.007": 3.37958694721,
			"-0.006": 3.96575140635,
			"-0.005": 3.52046656018,
			"-0.004": 4.39653844665,
			"-0.003": 5.76076130991,
			"-0.002": 7.5809926651,
			"-0.001": 9.54167649347,
			"0.0": 8.92179040077,
			"0.001": 5.82755479591,
			"0.002": 4.03526859261,
			"0.003": 3.82083785481,
			"0.004": 5.16472855738,
			"0.005": 4.68858223071,
			"0.006": 6.75225335954,
			"0.007": 7.10667208926,
			"0.008": 5.35380193495,
			"0.009": 4.81972296436,
			"0.01": 5.25209914236,
			"0.011": 4.48140359029,
			"0.012": 3.99642866835,
			"0.013": 3.14484183294,
			"0.014": 0.352817619822,
			"0.015": 0.0,
			"0.016": 0.0,
			"0.017": 0.0,
			"0.018": 0.0,
			"0.019": 0.0,
			"0.02": 0.0,
			"0.021": 0.0,
			"0.022": 0.0,
			"0.023": 0.0,
			"0.024": 0.0,
			"0.025": 0.0
		}
	}
}
