{
	 "smiles": "CC(C)(C)C(O)C1CCCC1", 
	 "Tm": 322.15, 
	 "num_atms": 31, 
	 "gaussian": { 
		 "optdone": 1, 
		 "sigma_profile": "yes", 
		 "theory": "DFT", 
		 "functional": "B3LYP", 
		 "basiset": "6-31G**", 
		 "properties": { 
			 "R2extent": 2600.6961, 
			 "electric_dipole_moment_norm": 1.48123642272, 
			 "electric_quadrupole_moment_norm": 3.84911827176, 
			 "total_energy": -468.353288058, 
			 "HOMO_LUMO_gap": 0.32091, 
			 "cosmo_polarized_energy": -5.48, 
			 "cosmo_cavitation_energy": 29.13, 
			 "cosmo_dispersion_energy": -20.97, 
			 "cosmo_repulsion_energy": 1.66, 
			 "cosmo_total_nonelectrostatic_energy": 9.81, 
			 "SMD_solvation_energy": 4.34 
		},
		"coords": [
			{
				"x": 1.2649810887,
				"y": -1.6700206324,
				"z": -0.6845396517,
				"element": "C" 
			},
			{
				"x": 0.6790615532,
				"y": -0.3967011176,
				"z": -0.0383825641,
				"element": "C" 
			},
			{
				"x": 1.7896724987,
				"y": 0.6678693108,
				"z": 0.0298392888,
				"element": "C" 
			},
			{
				"x": 0.2196893732,
				"y": -0.7328162493,
				"z": 1.3954152567,
				"element": "C" 
			},
			{
				"x": -0.5276724272,
				"y": 0.0708599343,
				"z": -0.9216402699,
				"element": "C" 
			},
			{
				"x": -1.4957757334,
				"y": -0.9842171762,
				"z": -1.0148891626,
				"element": "O" 
			},
			{
				"x": -1.220749547,
				"y": 1.4008034813,
				"z": -0.5414371787,
				"element": "C" 
			},
			{
				"x": -2.6124253095,
				"y": 1.5538798393,
				"z": -1.2068938141,
				"element": "C" 
			},
			{
				"x": -2.8710868456,
				"y": 3.0647931718,
				"z": -1.1869283592,
				"element": "C" 
			},
			{
				"x": -1.5091694357,
				"y": 3.6522130484,
				"z": -1.5924065265,
				"element": "C" 
			},
			{
				"x": -0.4583530218,
				"y": 2.7046951571,
				"z": -0.9517050433,
				"element": "C" 
			},
			{
				"x": 2.0819148217,
				"y": -2.0725867785,
				"z": -0.0752828049,
				"element": "H" 
			},
			{
				"x": 0.4974619699,
				"y": -2.4391245197,
				"z": -0.7953025127,
				"element": "H" 
			},
			{
				"x": 1.6681792559,
				"y": -1.4529891808,
				"z": -1.6807364722,
				"element": "H" 
			},
			{
				"x": 1.4752907343,
				"y": 1.5656248049,
				"z": 0.5688419368,
				"element": "H" 
			},
			{
				"x": 2.6624094892,
				"y": 0.2610847762,
				"z": 0.5531233454,
				"element": "H" 
			},
			{
				"x": 2.1200539991,
				"y": 0.9701757491,
				"z": -0.9700812538,
				"element": "H" 
			},
			{
				"x": 1.0675603193,
				"y": -1.0895147642,
				"z": 1.9897805016,
				"element": "H" 
			},
			{
				"x": -0.5320989026,
				"y": -1.5299617465,
				"z": 1.4034993721,
				"element": "H" 
			},
			{
				"x": -0.196081484,
				"y": 0.138353481,
				"z": 1.9131766059,
				"element": "H" 
			},
			{
				"x": -0.1562085075,
				"y": 0.1761902212,
				"z": -1.9506839275,
				"element": "H" 
			},
			{
				"x": -1.9520065222,
				"y": -1.0386320794,
				"z": -0.165000819,
				"element": "H" 
			},
			{
				"x": -1.3734254711,
				"y": 1.4208531799,
				"z": 0.5470777215,
				"element": "H" 
			},
			{
				"x": -3.3914190274,
				"y": 0.973428041,
				"z": -0.704256167,
				"element": "H" 
			},
			{
				"x": -2.5677823438,
				"y": 1.1934317724,
				"z": -2.2423335761,
				"element": "H" 
			},
			{
				"x": -3.6869132416,
				"y": 3.3725886083,
				"z": -1.8492217615,
				"element": "H" 
			},
			{
				"x": -3.1364241242,
				"y": 3.3867001377,
				"z": -0.1710058652,
				"element": "H" 
			},
			{
				"x": -1.3796098686,
				"y": 4.6939579034,
				"z": -1.2824083124,
				"element": "H" 
			},
			{
				"x": -1.4152921501,
				"y": 3.6315883284,
				"z": -2.6846615397,
				"element": "H" 
			},
			{
				"x": 0.3494454413,
				"y": 2.4880525347,
				"z": -1.6575835744,
				"element": "H" 
			},
			{
				"x": 0.009373419,
				"y": 3.1731207638,
				"z": -0.0807728724,
				"element": "H" 
			}
		],
		 "valence_orbital": [ 
			{
				"type": "occ",
				"energy": -0.31899,
				"method": "rhf"
			},
			{
				"type": "occ",
				"energy": -0.31491,
				"method": "rhf"
			},
			{
				"type": "occ",
				"energy": -0.30737,
				"method": "rhf"
			},
			{
				"type": "occ",
				"energy": -0.29366,
				"method": "rhf"
			},
			{
				"type": "occ",
				"energy": -0.25574,
				"method": "rhf"
			},
			{
				"type": "unocc",
				"energy": 0.06517,
				"method": "rhf"
			},
			{
				"type": "unocc",
				"energy": 0.08682,
				"method": "rhf"
			},
			{
				"type": "unocc",
				"energy": 0.0934,
				"method": "rhf"
			},
			{
				"type": "unocc",
				"energy": 0.09719,
				"method": "rhf"
			},
			{
				"type": "unocc",
				"energy": 0.13061,
				"method": "rhf"
			}
		],
		"cosmo_sigma_profile": { 
			"-0.025": 0.0,
			"-0.024": 0.0,
			"-0.023": 0.0,
			"-0.022": 0.0,
			"-0.021": 0.0,
			"-0.02": 0.0,
			"-0.019": 0.0,
			"-0.018": 0.0,
			"-0.017": 0.0,
			"-0.016": 0.0,
			"-0.015": 0.0,
			"-0.014": 0.152373392903,
			"-0.013": 0.639828339439,
			"-0.012": 0.795560020169,
			"-0.011": 0.969194220862,
			"-0.01": 0.793488156826,
			"-0.009": 1.25260363709,
			"-0.008": 0.668994136224,
			"-0.007": 1.0837613443,
			"-0.006": 1.42947202337,
			"-0.005": 1.68795084567,
			"-0.004": 2.05490330676,
			"-0.003": 12.4639249245,
			"-0.002": 40.6465761122,
			"-0.001": 38.8215039613,
			"0.0": 37.8038702596,
			"0.001": 32.4373873875,
			"0.002": 29.136722591,
			"0.003": 3.1204358732,
			"0.004": 2.44634119332,
			"0.005": 1.77136967191,
			"0.006": 1.04245997154,
			"0.007": 1.02195590114,
			"0.008": 1.29870952287,
			"0.009": 1.65804414336,
			"0.01": 1.13869032664,
			"0.011": 1.01887584804,
			"0.012": 1.1564774856,
			"0.013": 0.912577083989,
			"0.014": 1.45856050871,
			"0.015": 1.2673247502,
			"0.016": 0.0833939258431,
			"0.017": 0.0,
			"0.018": 0.0,
			"0.019": 0.0,
			"0.02": 0.0,
			"0.021": 0.0,
			"0.022": 0.0,
			"0.023": 0.0,
			"0.024": 0.0,
			"0.025": 0.0
		}
	}
}
