{
	 "smiles": "BrC(C(Br)=C(Br)C1=CC=CC=C1)=C(Br)C1=CC=CC=C1", 
	 "Tm": 509.15, 
	 "num_atms": 30, 
	 "gaussian": { 
		 "optdone": 1, 
		 "sigma_profile": "yes", 
		 "theory": "DFT", 
		 "functional": "B3LYP", 
		 "basiset": "6-31G**", 
		 "properties": { 
			 "R2extent": 14735.2526, 
			 "electric_dipole_moment_norm": 3.46303363253, 
			 "electric_quadrupole_moment_norm": 11.1871555214, 
			 "total_energy": -10901.2991, 
			 "HOMO_LUMO_gap": 0.16365, 
			 "cosmo_polarized_energy": -7.65, 
			 "cosmo_cavitation_energy": 43.38, 
			 "cosmo_dispersion_energy": -29.31, 
			 "cosmo_repulsion_energy": 2.29, 
			 "cosmo_total_nonelectrostatic_energy": 16.36, 
			 "SMD_solvation_energy": 3.05 
		},
		"coords": [
			{
				"x": -0.7568696046,
				"y": -3.2649480771,
				"z": -1.1313819509,
				"element": "Br" 
			},
			{
				"x": 0.6567258002,
				"y": -2.5164091792,
				"z": -0.0420343332,
				"element": "C" 
			},
			{
				"x": 2.0061289159,
				"y": -2.9056125019,
				"z": -0.4707860098,
				"element": "C" 
			},
			{
				"x": 2.4460195732,
				"y": -4.7227565523,
				"z": -0.0614464262,
				"element": "Br" 
			},
			{
				"x": 2.8617246268,
				"y": -2.0663292857,
				"z": -1.0850954659,
				"element": "C" 
			},
			{
				"x": 4.651386658,
				"y": -2.6073029925,
				"z": -1.4904353769,
				"element": "Br" 
			},
			{
				"x": 2.5298913198,
				"y": -0.6799891297,
				"z": -1.4911929338,
				"element": "C" 
			},
			{
				"x": 1.4279006519,
				"y": -0.4313967745,
				"z": -2.325267177,
				"element": "C" 
			},
			{
				"x": 1.1157556533,
				"y": 0.8730916003,
				"z": -2.7086476434,
				"element": "C" 
			},
			{
				"x": 1.8974934742,
				"y": 1.9415528736,
				"z": -2.2667110774,
				"element": "C" 
			},
			{
				"x": 3.000355497,
				"y": 1.6998745194,
				"z": -1.4437698769,
				"element": "C" 
			},
			{
				"x": 3.3211184142,
				"y": 0.3988627251,
				"z": -1.064287939,
				"element": "C" 
			},
			{
				"x": 0.332103827,
				"y": -1.7871079601,
				"z": 1.0395056089,
				"element": "C" 
			},
			{
				"x": 1.755256839,
				"y": -1.2466760447,
				"z": 2.2218768163,
				"element": "Br" 
			},
			{
				"x": -1.0084662429,
				"y": -1.3262115429,
				"z": 1.4588721304,
				"element": "C" 
			},
			{
				"x": -1.5241818625,
				"y": -1.676113591,
				"z": 2.7162687721,
				"element": "C" 
			},
			{
				"x": -2.7878376209,
				"y": -1.2360756239,
				"z": 3.1033440732,
				"element": "C" 
			},
			{
				"x": -3.540829907,
				"y": -0.4251211425,
				"z": 2.2507651133,
				"element": "C" 
			},
			{
				"x": -3.0251545178,
				"y": -0.0577644923,
				"z": 1.0066860061,
				"element": "C" 
			},
			{
				"x": -1.7666501276,
				"y": -0.5063699726,
				"z": 0.6090090276,
				"element": "C" 
			},
			{
				"x": 0.8258223949,
				"y": -1.2612798998,
				"z": -2.6791962676,
				"element": "H" 
			},
			{
				"x": 0.2667933151,
				"y": 1.0509960834,
				"z": -3.3623792505,
				"element": "H" 
			},
			{
				"x": 1.6544145324,
				"y": 2.9564004319,
				"z": -2.5676761802,
				"element": "H" 
			},
			{
				"x": 3.6145625959,
				"y": 2.5264371759,
				"z": -1.0990048042,
				"element": "H" 
			},
			{
				"x": 4.1838046343,
				"y": 0.2108373561,
				"z": -0.4338669603,
				"element": "H" 
			},
			{
				"x": -0.9319822712,
				"y": -2.2937299041,
				"z": 3.383950032,
				"element": "H" 
			},
			{
				"x": -3.1828053245,
				"y": -1.5222526169,
				"z": 4.0735891203,
				"element": "H" 
			},
			{
				"x": -4.5226902605,
				"y": -0.0767474385,
				"z": 2.5576927689,
				"element": "H" 
			},
			{
				"x": -3.6012807709,
				"y": 0.5816483013,
				"z": 0.3443733468,
				"element": "H" 
			},
			{
				"x": -1.3607102125,
				"y": -0.2171063449,
				"z": -0.3545531427,
				"element": "H" 
			}
		],
		 "valence_orbital": [ 
			{
				"type": "occ",
				"energy": -0.26113,
				"method": "rhf"
			},
			{
				"type": "occ",
				"energy": -0.26048,
				"method": "rhf"
			},
			{
				"type": "occ",
				"energy": -0.25924,
				"method": "rhf"
			},
			{
				"type": "occ",
				"energy": -0.24533,
				"method": "rhf"
			},
			{
				"type": "occ",
				"energy": -0.23261,
				"method": "rhf"
			},
			{
				"type": "unocc",
				"energy": -0.06896,
				"method": "rhf"
			},
			{
				"type": "unocc",
				"energy": -0.0438,
				"method": "rhf"
			},
			{
				"type": "unocc",
				"energy": -0.03886,
				"method": "rhf"
			},
			{
				"type": "unocc",
				"energy": -0.01399,
				"method": "rhf"
			},
			{
				"type": "unocc",
				"energy": -0.01084,
				"method": "rhf"
			}
		],
		"cosmo_sigma_profile": { 
			"-0.025": 0.0,
			"-0.024": 0.0,
			"-0.023": 0.0,
			"-0.022": 0.0,
			"-0.021": 0.0,
			"-0.02": 0.0,
			"-0.019": 0.0,
			"-0.018": 0.0,
			"-0.017": 0.0,
			"-0.016": 0.0,
			"-0.015": 0.0,
			"-0.014": 0.0,
			"-0.013": 0.0,
			"-0.012": 0.0,
			"-0.011": 0.0,
			"-0.01": 0.0,
			"-0.009": 0.0,
			"-0.008": 0.0,
			"-0.007": 2.6333617784,
			"-0.006": 17.2593384044,
			"-0.005": 25.3591042806,
			"-0.004": 28.197465263,
			"-0.003": 23.1726248215,
			"-0.002": 25.8511247521,
			"-0.001": 27.1987912996,
			"0.0": 28.9397227005,
			"0.001": 32.6720040908,
			"0.002": 39.1629877619,
			"0.003": 50.3309388259,
			"0.004": 48.5639281287,
			"0.005": 11.4773165823,
			"0.006": 0.0540525641802,
			"0.007": 0.0,
			"0.008": 0.0,
			"0.009": 0.0,
			"0.01": 0.0,
			"0.011": 0.0,
			"0.012": 0.0,
			"0.013": 0.0,
			"0.014": 0.0,
			"0.015": 0.0,
			"0.016": 0.0,
			"0.017": 0.0,
			"0.018": 0.0,
			"0.019": 0.0,
			"0.02": 0.0,
			"0.021": 0.0,
			"0.022": 0.0,
			"0.023": 0.0,
			"0.024": 0.0,
			"0.025": 0.0
		}
	}
}
