{
	 "smiles": "FC1=CC=C(C=C1)C(=O)NC1CCNCC1", 
	 "Tm": 449.15, 
	 "num_atms": 31, 
	 "gaussian": { 
		 "optdone": 1, 
		 "sigma_profile": "yes", 
		 "theory": "DFT", 
		 "functional": "B3LYP", 
		 "basiset": "6-31G**", 
		 "properties": { 
			 "R2extent": 6089.2046, 
			 "electric_dipole_moment_norm": 4.16087612168, 
			 "electric_quadrupole_moment_norm": 8.26456676541, 
			 "total_energy": -750.889978784, 
			 "HOMO_LUMO_gap": 0.16882, 
			 "cosmo_polarized_energy": -14.73, 
			 "cosmo_cavitation_energy": 32.83, 
			 "cosmo_dispersion_energy": -24.16, 
			 "cosmo_repulsion_energy": 1.85, 
			 "cosmo_total_nonelectrostatic_energy": 10.52, 
			 "SMD_solvation_energy": 2.89 
		},
		"coords": [
			{
				"x": 4.7186817052,
				"y": -1.815074831,
				"z": 4.6109634782,
				"element": "F" 
			},
			{
				"x": 3.7969761885,
				"y": -1.2537717166,
				"z": 3.8044595986,
				"element": "C" 
			},
			{
				"x": 3.9352361539,
				"y": -1.391850437,
				"z": 2.4277410006,
				"element": "C" 
			},
			{
				"x": 2.9750725885,
				"y": -0.8125153146,
				"z": 1.5992071618,
				"element": "C" 
			},
			{
				"x": 1.8907643961,
				"y": -0.1059529677,
				"z": 2.140245707,
				"element": "C" 
			},
			{
				"x": 1.7973983946,
				"y": 0.0329258649,
				"z": 3.5326340401,
				"element": "C" 
			},
			{
				"x": 2.7425600686,
				"y": -0.5458294193,
				"z": 4.3738296862,
				"element": "C" 
			},
			{
				"x": 0.8228177586,
				"y": 0.5607465354,
				"z": 1.3106966391,
				"element": "C" 
			},
			{
				"x": 0.1779001401,
				"y": 1.5031589663,
				"z": 1.7676740455,
				"element": "O" 
			},
			{
				"x": 0.6440577567,
				"y": 0.0399968665,
				"z": 0.0605000896,
				"element": "N" 
			},
			{
				"x": -0.3135469798,
				"y": 0.4514600915,
				"z": -0.989266068,
				"element": "C" 
			},
			{
				"x": -0.1285569301,
				"y": 1.9041670214,
				"z": -1.4952268026,
				"element": "C" 
			},
			{
				"x": -0.9622488918,
				"y": 2.9626236448,
				"z": -0.7452862489,
				"element": "C" 
			},
			{
				"x": -2.3748407885,
				"y": 2.5995020204,
				"z": -0.5875451319,
				"element": "N" 
			},
			{
				"x": -2.5221733958,
				"y": 1.2991540856,
				"z": 0.0738328395,
				"element": "C" 
			},
			{
				"x": -1.7985525265,
				"y": 0.1531946538,
				"z": -0.6588665983,
				"element": "C" 
			},
			{
				"x": 4.7854710955,
				"y": -1.9317185316,
				"z": 2.0255765944,
				"element": "H" 
			},
			{
				"x": 3.1037171792,
				"y": -0.8861862836,
				"z": 0.5231759314,
				"element": "H" 
			},
			{
				"x": 0.97090207,
				"y": 0.6076759963,
				"z": 3.935858024,
				"element": "H" 
			},
			{
				"x": 2.6792624119,
				"y": -0.4551351393,
				"z": 5.4527790118,
				"element": "H" 
			},
			{
				"x": 1.0988550213,
				"y": -0.8433524656,
				"z": -0.1110033352,
				"element": "H" 
			},
			{
				"x": -0.0356950926,
				"y": -0.2052229265,
				"z": -1.8213483374,
				"element": "H" 
			},
			{
				"x": 0.9368478492,
				"y": 2.1617298448,
				"z": -1.4820926912,
				"element": "H" 
			},
			{
				"x": -0.4393094927,
				"y": 1.9092597622,
				"z": -2.549727959,
				"element": "H" 
			},
			{
				"x": -0.5479424273,
				"y": 3.1194715303,
				"z": 0.252390817,
				"element": "H" 
			},
			{
				"x": -0.9066786955,
				"y": 3.9151592671,
				"z": -1.2853195449,
				"element": "H" 
			},
			{
				"x": -2.8147599125,
				"y": 2.5570429468,
				"z": -1.5065486503,
				"element": "H" 
			},
			{
				"x": -3.5906632466,
				"y": 1.0656180175,
				"z": 0.1515985765,
				"element": "H" 
			},
			{
				"x": -2.127729025,
				"y": 1.3979148558,
				"z": 1.0882450912,
				"element": "H" 
			},
			{
				"x": -2.312265491,
				"y": -0.0221910154,
				"z": -1.6152349693,
				"element": "H" 
			},
			{
				"x": -1.8661578822,
				"y": -0.7830009235,
				"z": -0.0914419955,
				"element": "H" 
			}
		],
		 "valence_orbital": [ 
			{
				"type": "occ",
				"energy": -0.27071,
				"method": "rhf"
			},
			{
				"type": "occ",
				"energy": -0.26032,
				"method": "rhf"
			},
			{
				"type": "occ",
				"energy": -0.25035,
				"method": "rhf"
			},
			{
				"type": "occ",
				"energy": -0.24635,
				"method": "rhf"
			},
			{
				"type": "occ",
				"energy": -0.20426,
				"method": "rhf"
			},
			{
				"type": "unocc",
				"energy": -0.03544,
				"method": "rhf"
			},
			{
				"type": "unocc",
				"energy": -0.02057,
				"method": "rhf"
			},
			{
				"type": "unocc",
				"energy": 0.05265,
				"method": "rhf"
			},
			{
				"type": "unocc",
				"energy": 0.06008,
				"method": "rhf"
			},
			{
				"type": "unocc",
				"energy": 0.08352,
				"method": "rhf"
			}
		],
		"cosmo_sigma_profile": { 
			"-0.025": 0.0,
			"-0.024": 0.0,
			"-0.023": 0.0,
			"-0.022": 0.0,
			"-0.021": 0.0,
			"-0.02": 0.0,
			"-0.019": 0.0,
			"-0.018": 0.0,
			"-0.017": 0.0,
			"-0.016": 0.0,
			"-0.015": 0.0,
			"-0.014": 0.636512305957,
			"-0.013": 1.1291627177,
			"-0.012": 1.29713341959,
			"-0.011": 1.40903739463,
			"-0.01": 1.79278789725,
			"-0.009": 2.09626940516,
			"-0.008": 4.37623736312,
			"-0.007": 8.1120079097,
			"-0.006": 8.06755923851,
			"-0.005": 12.68397716,
			"-0.004": 12.0331267002,
			"-0.003": 23.8070534525,
			"-0.002": 22.1596116323,
			"-0.001": 20.6356460921,
			"0.0": 29.8263608883,
			"0.001": 24.6282384756,
			"0.002": 17.7096387614,
			"0.003": 18.7738588908,
			"0.004": 16.3611282361,
			"0.005": 4.72910232047,
			"0.006": 2.8340944925,
			"0.007": 3.77150719784,
			"0.008": 3.34606362788,
			"0.009": 2.53877801255,
			"0.01": 2.22294315903,
			"0.011": 1.91239495778,
			"0.012": 2.00613107347,
			"0.013": 2.57479618957,
			"0.014": 1.86233306288,
			"0.015": 0.305767984448,
			"0.016": 0.887861751076,
			"0.017": 0.801348075722,
			"0.018": 0.574856445339,
			"0.019": 0.457551104062,
			"0.02": 0.0882853464855,
			"0.021": 0.0,
			"0.022": 0.0,
			"0.023": 0.0,
			"0.024": 0.0,
			"0.025": 0.0
		}
	}
}
