{
	 "smiles": "ClCC(=O)C1=CC=C(C=C1)N1CCCC1=O", 
	 "Tm": 401.15, 
	 "num_atms": 28, 
	 "gaussian": { 
		 "optdone": 1, 
		 "sigma_profile": "yes", 
		 "theory": "DFT", 
		 "functional": "B3LYP", 
		 "basiset": "6-31G**", 
		 "properties": { 
			 "R2extent": 7331.6563, 
			 "electric_dipole_moment_norm": 6.61229744113, 
			 "electric_quadrupole_moment_norm": 16.9155242148, 
			 "total_energy": -1129.9213043, 
			 "HOMO_LUMO_gap": 0.1714, 
			 "cosmo_polarized_energy": -17.62, 
			 "cosmo_cavitation_energy": 33.09, 
			 "cosmo_dispersion_energy": -24.69, 
			 "cosmo_repulsion_energy": 1.91, 
			 "cosmo_total_nonelectrostatic_energy": 10.31, 
			 "SMD_solvation_energy": 5.67 
		},
		"coords": [
			{
				"x": -2.6861456032,
				"y": -4.3361766727,
				"z": -3.9618550005,
				"element": "Cl" 
			},
			{
				"x": -2.0804576861,
				"y": -2.7149536557,
				"z": -3.5039863347,
				"element": "C" 
			},
			{
				"x": -1.8314703222,
				"y": -2.5648008779,
				"z": -1.99671662,
				"element": "C" 
			},
			{
				"x": -2.0346864756,
				"y": -3.479425028,
				"z": -1.2203244885,
				"element": "O" 
			},
			{
				"x": -1.3261575318,
				"y": -1.2387447849,
				"z": -1.5343568269,
				"element": "C" 
			},
			{
				"x": -1.0791217114,
				"y": -1.0728204124,
				"z": -0.1636202725,
				"element": "C" 
			},
			{
				"x": -0.6088309045,
				"y": 0.1309603862,
				"z": 0.3396896218,
				"element": "C" 
			},
			{
				"x": -0.3683420297,
				"y": 1.2232855851,
				"z": -0.5193314644,
				"element": "C" 
			},
			{
				"x": -0.6113240851,
				"y": 1.0648026906,
				"z": -1.8987390235,
				"element": "C" 
			},
			{
				"x": -1.0807697379,
				"y": -0.1489214778,
				"z": -2.3857064596,
				"element": "C" 
			},
			{
				"x": 0.0939023793,
				"y": 2.4394615043,
				"z": 0.0184414527,
				"element": "N" 
			},
			{
				"x": 0.1948536846,
				"y": 2.6494529354,
				"z": 1.4709046832,
				"element": "C" 
			},
			{
				"x": 0.4417822319,
				"y": 4.1614741385,
				"z": 1.6132901649,
				"element": "C" 
			},
			{
				"x": 1.1409913029,
				"y": 4.5354917246,
				"z": 0.3034453598,
				"element": "C" 
			},
			{
				"x": 0.6354146884,
				"y": 3.5070928963,
				"z": -0.7029760208,
				"element": "C" 
			},
			{
				"x": 0.7139570794,
				"y": 3.5971627641,
				"z": -1.9148098958,
				"element": "O" 
			},
			{
				"x": -1.1534023359,
				"y": -2.5392489506,
				"z": -4.0555736255,
				"element": "H" 
			},
			{
				"x": -2.8174490608,
				"y": -1.9797363545,
				"z": -3.8368785716,
				"element": "H" 
			},
			{
				"x": -1.2620535792,
				"y": -1.9135609227,
				"z": 0.4969777243,
				"element": "H" 
			},
			{
				"x": -0.4191341762,
				"y": 0.2137079507,
				"z": 1.4028752074,
				"element": "H" 
			},
			{
				"x": -0.4204367715,
				"y": 1.8897510115,
				"z": -2.5686203598,
				"element": "H" 
			},
			{
				"x": -1.2569279716,
				"y": -0.2297927074,
				"z": -3.4538464273,
				"element": "H" 
			},
			{
				"x": 1.024276803,
				"y": 2.0603253877,
				"z": 1.8858010106,
				"element": "H" 
			},
			{
				"x": -0.7259432204,
				"y": 2.3304499104,
				"z": 1.9667310469,
				"element": "H" 
			},
			{
				"x": -0.5162092203,
				"y": 4.6848380413,
				"z": 1.6912718734,
				"element": "H" 
			},
			{
				"x": 1.0245095337,
				"y": 4.3954633523,
				"z": 2.5068882776,
				"element": "H" 
			},
			{
				"x": 2.2309468766,
				"y": 4.4280181811,
				"z": 0.3720910099,
				"element": "H" 
			},
			{
				"x": 0.9344278439,
				"y": 5.5452433847,
				"z": -0.0562660411,
				"element": "H" 
			}
		],
		 "valence_orbital": [ 
			{
				"type": "occ",
				"energy": -0.29325,
				"method": "rhf"
			},
			{
				"type": "occ",
				"energy": -0.26842,
				"method": "rhf"
			},
			{
				"type": "occ",
				"energy": -0.26388,
				"method": "rhf"
			},
			{
				"type": "occ",
				"energy": -0.2575,
				"method": "rhf"
			},
			{
				"type": "occ",
				"energy": -0.23411,
				"method": "rhf"
			},
			{
				"type": "unocc",
				"energy": -0.06271,
				"method": "rhf"
			},
			{
				"type": "unocc",
				"energy": -0.01607,
				"method": "rhf"
			},
			{
				"type": "unocc",
				"energy": 0.00142,
				"method": "rhf"
			},
			{
				"type": "unocc",
				"energy": 0.02922,
				"method": "rhf"
			},
			{
				"type": "unocc",
				"energy": 0.04962,
				"method": "rhf"
			}
		],
		"cosmo_sigma_profile": { 
			"-0.025": 0.0,
			"-0.024": 0.0,
			"-0.023": 0.0,
			"-0.022": 0.0,
			"-0.021": 0.0,
			"-0.02": 0.0,
			"-0.019": 0.0,
			"-0.018": 0.0,
			"-0.017": 0.0,
			"-0.016": 0.0,
			"-0.015": 0.0,
			"-0.014": 0.0,
			"-0.013": 0.0,
			"-0.012": 0.0,
			"-0.011": 0.0,
			"-0.01": 0.279661858064,
			"-0.009": 7.16729945102,
			"-0.008": 6.80462780479,
			"-0.007": 8.28272213407,
			"-0.006": 15.3088617852,
			"-0.005": 24.4220236311,
			"-0.004": 27.6393058696,
			"-0.003": 18.4534334914,
			"-0.002": 15.0781424836,
			"-0.001": 15.8785495354,
			"0.0": 11.7554058859,
			"0.001": 15.1559219775,
			"0.002": 14.6902542033,
			"0.003": 18.794757899,
			"0.004": 12.5137477506,
			"0.005": 8.65713224969,
			"0.006": 10.9526681625,
			"0.007": 4.54801830253,
			"0.008": 3.61139349789,
			"0.009": 3.80180719351,
			"0.01": 4.89295384724,
			"0.011": 5.91648293203,
			"0.012": 5.92676778806,
			"0.013": 4.21435465184,
			"0.014": 0.738309820029,
			"0.015": 0.0,
			"0.016": 0.0,
			"0.017": 0.0,
			"0.018": 0.0,
			"0.019": 0.0,
			"0.02": 0.0,
			"0.021": 0.0,
			"0.022": 0.0,
			"0.023": 0.0,
			"0.024": 0.0,
			"0.025": 0.0
		}
	}
}
