{
	 "smiles": "CCOC(=O)C1=C(N)SC=C1C1=CC=C(Cl)C=C1", 
	 "Tm": 385.15, 
	 "num_atms": 30, 
	 "gaussian": { 
		 "optdone": 1, 
		 "sigma_profile": "yes", 
		 "theory": "DFT", 
		 "functional": "B3LYP", 
		 "basiset": "6-31G**", 
		 "properties": { 
			 "R2extent": 7352.5037, 
			 "electric_dipole_moment_norm": 2.41611623272, 
			 "electric_quadrupole_moment_norm": 9.79700674441, 
			 "total_energy": -1566.21038539, 
			 "HOMO_LUMO_gap": 0.17792, 
			 "cosmo_polarized_energy": -10.98, 
			 "cosmo_cavitation_energy": 37.48, 
			 "cosmo_dispersion_energy": -26.83, 
			 "cosmo_repulsion_energy": 2.07, 
			 "cosmo_total_nonelectrostatic_energy": 12.72, 
			 "SMD_solvation_energy": 6.61 
		},
		"coords": [
			{
				"x": -0.3272093612,
				"y": -3.3252791178,
				"z": 0.4178725862,
				"element": "C" 
			},
			{
				"x": -0.7393032779,
				"y": -2.0590314142,
				"z": -0.3181207471,
				"element": "C" 
			},
			{
				"x": 0.0284919639,
				"y": -0.9170793495,
				"z": 0.1267022997,
				"element": "O" 
			},
			{
				"x": 1.2257297623,
				"y": -0.7161001205,
				"z": -0.4620911301,
				"element": "C" 
			},
			{
				"x": 1.6574665702,
				"y": -1.466456085,
				"z": -1.3401926084,
				"element": "O" 
			},
			{
				"x": 1.9502887934,
				"y": 0.446085968,
				"z": 0.046046482,
				"element": "C" 
			},
			{
				"x": 3.2728811609,
				"y": 0.6440000943,
				"z": -0.369584676,
				"element": "C" 
			},
			{
				"x": 3.9842718142,
				"y": -0.127725666,
				"z": -1.2246862838,
				"element": "N" 
			},
			{
				"x": 4.0062638086,
				"y": 2.0103407753,
				"z": 0.4373864699,
				"element": "S" 
			},
			{
				"x": 2.5293985772,
				"y": 2.3232424269,
				"z": 1.3248110584,
				"element": "C" 
			},
			{
				"x": 1.533316149,
				"y": 1.441204084,
				"z": 1.0258975845,
				"element": "C" 
			},
			{
				"x": 0.1912472575,
				"y": 1.6051109426,
				"z": 1.6420965029,
				"element": "C" 
			},
			{
				"x": -0.9663843745,
				"y": 1.7485270619,
				"z": 0.8603116835,
				"element": "C" 
			},
			{
				"x": -2.2068363751,
				"y": 1.9828512484,
				"z": 1.4466838676,
				"element": "C" 
			},
			{
				"x": -2.29786246,
				"y": 2.074701601,
				"z": 2.8364646655,
				"element": "C" 
			},
			{
				"x": -3.8646920104,
				"y": 2.3661683442,
				"z": 3.5832043969,
				"element": "Cl" 
			},
			{
				"x": -1.168599831,
				"y": 1.9380373438,
				"z": 3.63920629,
				"element": "C" 
			},
			{
				"x": 0.06790499,
				"y": 1.7054053342,
				"z": 3.0353333236,
				"element": "C" 
			},
			{
				"x": 0.7030700953,
				"y": -3.5932449155,
				"z": 0.1720903303,
				"element": "H" 
			},
			{
				"x": -0.9788236011,
				"y": -4.1548473106,
				"z": 0.1231853837,
				"element": "H" 
			},
			{
				"x": -0.4109868651,
				"y": -3.1900511907,
				"z": 1.5001203692,
				"element": "H" 
			},
			{
				"x": -0.6155650925,
				"y": -2.172506032,
				"z": -1.3975860132,
				"element": "H" 
			},
			{
				"x": -1.7740721385,
				"y": -1.7871865629,
				"z": -0.0959128926,
				"element": "H" 
			},
			{
				"x": 3.4425675332,
				"y": -0.8396508752,
				"z": -1.7066816363,
				"element": "H" 
			},
			{
				"x": 4.8578590303,
				"y": 0.1973526176,
				"z": -1.604082463,
				"element": "H" 
			},
			{
				"x": 2.4711442613,
				"y": 3.1896150894,
				"z": 1.9671487815,
				"element": "H" 
			},
			{
				"x": -0.8935231634,
				"y": 1.6832395854,
				"z": -0.2199286047,
				"element": "H" 
			},
			{
				"x": -3.0949281755,
				"y": 2.1000514286,
				"z": 0.8353489706,
				"element": "H" 
			},
			{
				"x": -1.2541742596,
				"y": 2.0069613375,
				"z": 4.718059267,
				"element": "H" 
			},
			{
				"x": 0.9507592186,
				"y": 1.5855633571,
				"z": 3.6556967423,
				"element": "H" 
			}
		],
		 "valence_orbital": [ 
			{
				"type": "occ",
				"energy": -0.27482,
				"method": "rhf"
			},
			{
				"type": "occ",
				"energy": -0.26341,
				"method": "rhf"
			},
			{
				"type": "occ",
				"energy": -0.25803,
				"method": "rhf"
			},
			{
				"type": "occ",
				"energy": -0.23468,
				"method": "rhf"
			},
			{
				"type": "occ",
				"energy": -0.20095,
				"method": "rhf"
			},
			{
				"type": "unocc",
				"energy": -0.02303,
				"method": "rhf"
			},
			{
				"type": "unocc",
				"energy": -0.0204,
				"method": "rhf"
			},
			{
				"type": "unocc",
				"energy": -0.00865,
				"method": "rhf"
			},
			{
				"type": "unocc",
				"energy": 0.0062,
				"method": "rhf"
			},
			{
				"type": "unocc",
				"energy": 0.02567,
				"method": "rhf"
			}
		],
		"cosmo_sigma_profile": { 
			"-0.025": 0.0,
			"-0.024": 0.0,
			"-0.023": 0.0,
			"-0.022": 0.0,
			"-0.021": 0.0,
			"-0.02": 0.0,
			"-0.019": 0.0,
			"-0.018": 0.0,
			"-0.017": 0.0,
			"-0.016": 5.31492497221e-06,
			"-0.015": 0.921612398886,
			"-0.014": 1.42501544981,
			"-0.013": 1.04852671975,
			"-0.012": 1.47183596898,
			"-0.011": 1.1942443271,
			"-0.01": 2.10216069769,
			"-0.009": 2.19881844832,
			"-0.008": 3.28357950296,
			"-0.007": 5.84116951971,
			"-0.006": 10.1357724495,
			"-0.005": 14.9036069658,
			"-0.004": 19.1243999941,
			"-0.003": 21.1880762409,
			"-0.002": 21.6027578167,
			"-0.001": 21.9925961369,
			"0.0": 24.8685559596,
			"0.001": 24.8271869152,
			"0.002": 31.5178435651,
			"0.003": 30.2802842962,
			"0.004": 29.5763487376,
			"0.005": 16.414872919,
			"0.006": 4.26151105761,
			"0.007": 3.65786644027,
			"0.008": 2.41579937216,
			"0.009": 2.32119173491,
			"0.01": 1.71868609632,
			"0.011": 1.40061898859,
			"0.012": 1.60225157977,
			"0.013": 0.205113800716,
			"0.014": 0.0,
			"0.015": 0.0,
			"0.016": 0.0,
			"0.017": 0.0,
			"0.018": 0.0,
			"0.019": 0.0,
			"0.02": 0.0,
			"0.021": 0.0,
			"0.022": 0.0,
			"0.023": 0.0,
			"0.024": 0.0,
			"0.025": 0.0
		}
	}
}
