{
	 "smiles": "CCOP(=S)(OCC)SCSC(C)(C)C", 
	 "Tm": 243.95, 
	 "num_atms": 36, 
	 "gaussian": { 
		 "optdone": 1, 
		 "sigma_profile": "yes", 
		 "theory": "DFT", 
		 "functional": "B3LYP", 
		 "basiset": "6-31G**", 
		 "properties": { 
			 "R2extent": 6959.8267, 
			 "electric_dipole_moment_norm": 4.39908437064, 
			 "electric_quadrupole_moment_norm": 23.1144164136, 
			 "total_energy": -2042.05738623, 
			 "HOMO_LUMO_gap": 0.22919, 
			 "cosmo_polarized_energy": -11.9, 
			 "cosmo_cavitation_energy": 43.58, 
			 "cosmo_dispersion_energy": -29.59, 
			 "cosmo_repulsion_energy": 2.26, 
			 "cosmo_total_nonelectrostatic_energy": 16.24, 
			 "SMD_solvation_energy": 6.46 
		},
		"coords": [
			{
				"x": 0.7547195752,
				"y": -3.4886351736,
				"z": 2.6516833843,
				"element": "C" 
			},
			{
				"x": -0.4587885175,
				"y": -2.6047938152,
				"z": 2.8649711684,
				"element": "C" 
			},
			{
				"x": -0.6918047979,
				"y": -1.8716039988,
				"z": 1.6304243851,
				"element": "O" 
			},
			{
				"x": -2.0061614197,
				"y": -0.9332011936,
				"z": 1.4847168758,
				"element": "P" 
			},
			{
				"x": -3.7558420487,
				"y": -1.7466095315,
				"z": 1.7081236832,
				"element": "S" 
			},
			{
				"x": -1.6079362908,
				"y": 0.2209391097,
				"z": 2.5686693333,
				"element": "O" 
			},
			{
				"x": -2.5647234924,
				"y": 1.2443399906,
				"z": 2.9439734192,
				"element": "C" 
			},
			{
				"x": -1.9280420666,
				"y": 2.0970936294,
				"z": 4.0252348629,
				"element": "C" 
			},
			{
				"x": -1.7023688595,
				"y": -0.0942318403,
				"z": -0.4191036839,
				"element": "S" 
			},
			{
				"x": 0.0601380215,
				"y": 0.5043563951,
				"z": -0.272249412,
				"element": "C" 
			},
			{
				"x": 0.5828734444,
				"y": 1.4632613283,
				"z": -1.7219756626,
				"element": "S" 
			},
			{
				"x": 1.3600542723,
				"y": 0.2050302409,
				"z": -2.8793372144,
				"element": "C" 
			},
			{
				"x": 0.3544423217,
				"y": -0.8800292318,
				"z": -3.2858272621,
				"element": "C" 
			},
			{
				"x": 2.6098157841,
				"y": -0.414792192,
				"z": -2.2391866566,
				"element": "C" 
			},
			{
				"x": 1.7571021484,
				"y": 1.0496387145,
				"z": -4.1023175365,
				"element": "C" 
			},
			{
				"x": 1.6379203209,
				"y": -2.8895435916,
				"z": 2.4118624817,
				"element": "H" 
			},
			{
				"x": 0.9615576738,
				"y": -4.0572765914,
				"z": 3.5639702148,
				"element": "H" 
			},
			{
				"x": 0.5802412074,
				"y": -4.1950677956,
				"z": 1.8356145225,
				"element": "H" 
			},
			{
				"x": -1.3510084465,
				"y": -3.1966013027,
				"z": 3.0937920283,
				"element": "H" 
			},
			{
				"x": -0.2979586744,
				"y": -1.8828407438,
				"z": 3.6719445616,
				"element": "H" 
			},
			{
				"x": -2.8101495703,
				"y": 1.8405325309,
				"z": 2.0571930931,
				"element": "H" 
			},
			{
				"x": -3.4796491074,
				"y": 0.7584854572,
				"z": 3.2965691269,
				"element": "H" 
			},
			{
				"x": -1.6818990057,
				"y": 1.4915488607,
				"z": 4.9020739347,
				"element": "H" 
			},
			{
				"x": -1.0116959189,
				"y": 2.5719958021,
				"z": 3.663095757,
				"element": "H" 
			},
			{
				"x": -2.6251624424,
				"y": 2.8828762796,
				"z": 4.3329479416,
				"element": "H" 
			},
			{
				"x": 0.1226424979,
				"y": 1.1675762111,
				"z": 0.5909119756,
				"element": "H" 
			},
			{
				"x": 0.7096860342,
				"y": -0.3538720232,
				"z": -0.1019733012,
				"element": "H" 
			},
			{
				"x": -0.5354000388,
				"y": -0.4431738438,
				"z": -3.7467638052,
				"element": "H" 
			},
			{
				"x": 0.8212442878,
				"y": -1.5569177853,
				"z": -4.012309738,
				"element": "H" 
			},
			{
				"x": 0.0311609747,
				"y": -1.4805671157,
				"z": -2.4313679689,
				"element": "H" 
			},
			{
				"x": 3.0896109184,
				"y": -1.0958549328,
				"z": -2.9526745694,
				"element": "H" 
			},
			{
				"x": 3.3342942353,
				"y": 0.3539345165,
				"z": -1.9569443674,
				"element": "H" 
			},
			{
				"x": 2.3666863081,
				"y": -1.0021412631,
				"z": -1.3482477795,
				"element": "H" 
			},
			{
				"x": 2.2412985106,
				"y": 0.4062397489,
				"z": -4.8453952007,
				"element": "H" 
			},
			{
				"x": 0.8818616401,
				"y": 1.5091654918,
				"z": -4.5710320199,
				"element": "H" 
			},
			{
				"x": 2.4618405207,
				"y": 1.8424396588,
				"z": -3.8324665715,
				"element": "H" 
			}
		],
		 "valence_orbital": [ 
			{
				"type": "occ",
				"energy": -0.29945,
				"method": "rhf"
			},
			{
				"type": "occ",
				"energy": -0.2621,
				"method": "rhf"
			},
			{
				"type": "occ",
				"energy": -0.24646,
				"method": "rhf"
			},
			{
				"type": "occ",
				"energy": -0.23627,
				"method": "rhf"
			},
			{
				"type": "occ",
				"energy": -0.22747,
				"method": "rhf"
			},
			{
				"type": "unocc",
				"energy": 0.00172,
				"method": "rhf"
			},
			{
				"type": "unocc",
				"energy": 0.00384,
				"method": "rhf"
			},
			{
				"type": "unocc",
				"energy": 0.03166,
				"method": "rhf"
			},
			{
				"type": "unocc",
				"energy": 0.04225,
				"method": "rhf"
			},
			{
				"type": "unocc",
				"energy": 0.05698,
				"method": "rhf"
			}
		],
		"cosmo_sigma_profile": { 
			"-0.025": 0.0,
			"-0.024": 0.0,
			"-0.023": 0.0,
			"-0.022": 0.0,
			"-0.021": 0.0,
			"-0.02": 0.0,
			"-0.019": 0.0,
			"-0.018": 0.0,
			"-0.017": 0.0,
			"-0.016": 0.0,
			"-0.015": 0.0,
			"-0.014": 0.0,
			"-0.013": 0.0,
			"-0.012": 0.0,
			"-0.011": 0.0,
			"-0.01": 0.0,
			"-0.009": 0.0,
			"-0.008": 0.498458083633,
			"-0.007": 2.92587502204,
			"-0.006": 4.13658633935,
			"-0.005": 15.6398607734,
			"-0.004": 39.3889826191,
			"-0.003": 42.7514471368,
			"-0.002": 37.8699525749,
			"-0.001": 36.4352337786,
			"0.0": 41.6363145615,
			"0.001": 22.8990102364,
			"0.002": 14.7786430234,
			"0.003": 16.7788620902,
			"0.004": 15.4661588608,
			"0.005": 13.663643713,
			"0.006": 11.6572263649,
			"0.007": 11.1632574952,
			"0.008": 10.1199889235,
			"0.009": 6.31711860416,
			"0.01": 0.939683431176,
			"0.011": 0.0,
			"0.012": 0.0,
			"0.013": 0.0,
			"0.014": 0.0,
			"0.015": 0.0,
			"0.016": 0.0,
			"0.017": 0.0,
			"0.018": 0.0,
			"0.019": 0.0,
			"0.02": 0.0,
			"0.021": 0.0,
			"0.022": 0.0,
			"0.023": 0.0,
			"0.024": 0.0,
			"0.025": 0.0
		}
	}
}
