{
	 "smiles": "NC1=CC=C(C=C1)C(C1=CC=CC=C1)(C1=CC=CC=C1)C1=CC=CC=C1", 
	 "Tm": 531.15, 
	 "num_atms": 47, 
	 "gaussian": { 
		 "optdone": 1, 
		 "sigma_profile": "yes", 
		 "theory": "DFT", 
		 "functional": "B3LYP", 
		 "basiset": "6-31G**", 
		 "properties": { 
			 "R2extent": 8442.0203, 
			 "electric_dipole_moment_norm": 1.96835543792, 
			 "electric_quadrupole_moment_norm": 9.20775197483, 
			 "total_energy": -1020.06071199, 
			 "HOMO_LUMO_gap": 0.18385, 
			 "cosmo_polarized_energy": -12.23, 
			 "cosmo_cavitation_energy": 47.77, 
			 "cosmo_dispersion_energy": -32.18, 
			 "cosmo_repulsion_energy": 2.47, 
			 "cosmo_total_nonelectrostatic_energy": 18.07, 
			 "SMD_solvation_energy": 7.89 
		},
		"coords": [
			{
				"x": 2.4634471828,
				"y": -2.7527179007,
				"z": 3.1871987339,
				"element": "N" 
			},
			{
				"x": 1.790690997,
				"y": -1.9948110751,
				"z": 2.2260526897,
				"element": "C" 
			},
			{
				"x": 0.5530710669,
				"y": -1.3933262186,
				"z": 2.5169088971,
				"element": "C" 
			},
			{
				"x": -0.086632311,
				"y": -0.5980693045,
				"z": 1.5748961125,
				"element": "C" 
			},
			{
				"x": 0.4706095365,
				"y": -0.3413291449,
				"z": 0.3078366053,
				"element": "C" 
			},
			{
				"x": 1.6958852502,
				"y": -0.9563879819,
				"z": 0.026158478,
				"element": "C" 
			},
			{
				"x": 2.3448479502,
				"y": -1.7660966982,
				"z": 0.9598057933,
				"element": "C" 
			},
			{
				"x": -0.3162445582,
				"y": 0.5482994418,
				"z": -0.6962663492,
				"element": "C" 
			},
			{
				"x": -0.3606992582,
				"y": 2.0348710417,
				"z": -0.232345461,
				"element": "C" 
			},
			{
				"x": 0.1468564679,
				"y": 2.4797439722,
				"z": 0.9938659278,
				"element": "C" 
			},
			{
				"x": 0.0979528638,
				"y": 3.8326080857,
				"z": 1.3489057867,
				"element": "C" 
			},
			{
				"x": -0.4596318631,
				"y": 4.7718068889,
				"z": 0.4858128552,
				"element": "C" 
			},
			{
				"x": -0.9605216555,
				"y": 4.346721312,
				"z": -0.7476753711,
				"element": "C" 
			},
			{
				"x": -0.9024515241,
				"y": 3.0011118175,
				"z": -1.1013926683,
				"element": "C" 
			},
			{
				"x": 0.3713024488,
				"y": 0.5655851574,
				"z": -2.0936237516,
				"element": "C" 
			},
			{
				"x": -0.190043984,
				"y": 0.0048238804,
				"z": -3.2468134254,
				"element": "C" 
			},
			{
				"x": 0.4695813785,
				"y": 0.0728868848,
				"z": -4.479351598,
				"element": "C" 
			},
			{
				"x": 1.7061398294,
				"y": 0.7028766473,
				"z": -4.587231316,
				"element": "C" 
			},
			{
				"x": 2.275812988,
				"y": 1.2784599561,
				"z": -3.4482397339,
				"element": "C" 
			},
			{
				"x": 1.612604064,
				"y": 1.2170360245,
				"z": -2.2254197931,
				"element": "C" 
			},
			{
				"x": -1.7474216203,
				"y": -0.0621403668,
				"z": -0.7754856992,
				"element": "C" 
			},
			{
				"x": -1.8793881542,
				"y": -1.4390810703,
				"z": -1.0389779663,
				"element": "C" 
			},
			{
				"x": -3.1284671951,
				"y": -2.0498362933,
				"z": -1.112087563,
				"element": "C" 
			},
			{
				"x": -4.2906585768,
				"y": -1.3022105348,
				"z": -0.9025017445,
				"element": "C" 
			},
			{
				"x": -4.1780068795,
				"y": 0.0558511959,
				"z": -0.6192607155,
				"element": "C" 
			},
			{
				"x": -2.9211462424,
				"y": 0.6688612005,
				"z": -0.5574271493,
				"element": "C" 
			},
			{
				"x": 1.8723220725,
				"y": -3.1701864245,
				"z": 3.8930333381,
				"element": "H" 
			},
			{
				"x": 3.1304850538,
				"y": -3.4163237855,
				"z": 2.817594643,
				"element": "H" 
			},
			{
				"x": 0.0899507951,
				"y": -1.5585019741,
				"z": 3.4870333115,
				"element": "H" 
			},
			{
				"x": -1.0525903361,
				"y": -0.171162858,
				"z": 1.8273764215,
				"element": "H" 
			},
			{
				"x": 2.1622289306,
				"y": -0.8217750507,
				"z": -0.9420607939,
				"element": "H" 
			},
			{
				"x": 3.2951122837,
				"y": -2.2262113315,
				"z": 0.6985492291,
				"element": "H" 
			},
			{
				"x": 0.5968178045,
				"y": 1.7748912212,
				"z": 1.6817877033,
				"element": "H" 
			},
			{
				"x": 0.505240026,
				"y": 4.1453834913,
				"z": 2.306565767,
				"element": "H" 
			},
			{
				"x": -0.4971486288,
				"y": 5.821623643,
				"z": 0.7624818842,
				"element": "H" 
			},
			{
				"x": -1.3890035993,
				"y": 5.0655028567,
				"z": -1.4408419659,
				"element": "H" 
			},
			{
				"x": -1.2752684578,
				"y": 2.6919923536,
				"z": -2.0730311312,
				"element": "H" 
			},
			{
				"x": -1.1550251819,
				"y": -0.4840670251,
				"z": -3.1990107945,
				"element": "H" 
			},
			{
				"x": 0.0034141853,
				"y": -0.3685751569,
				"z": -5.3560634564,
				"element": "H" 
			},
			{
				"x": 2.217392382,
				"y": 0.7547858616,
				"z": -5.5442950441,
				"element": "H" 
			},
			{
				"x": 3.2347348881,
				"y": 1.7853644661,
				"z": -3.5131457218,
				"element": "H" 
			},
			{
				"x": 2.0584840285,
				"y": 1.6898549863,
				"z": -1.3559472121,
				"element": "H" 
			},
			{
				"x": -0.9857377041,
				"y": -2.0391648797,
				"z": -1.1788241211,
				"element": "H" 
			},
			{
				"x": -3.1936620056,
				"y": -3.1137562372,
				"z": -1.3233776289,
				"element": "H" 
			},
			{
				"x": -5.2666178951,
				"y": -1.7767366284,
				"z": -0.9514531514,
				"element": "H" 
			},
			{
				"x": -5.0686964931,
				"y": 0.651827445,
				"z": -0.4395073191,
				"element": "H" 
			},
			{
				"x": -2.8683203502,
				"y": 1.7253981096,
				"z": -0.326405531,
				"element": "H" 
			}
		],
		 "valence_orbital": [ 
			{
				"type": "occ",
				"energy": -0.24163,
				"method": "rhf"
			},
			{
				"type": "occ",
				"energy": -0.23938,
				"method": "rhf"
			},
			{
				"type": "occ",
				"energy": -0.23462,
				"method": "rhf"
			},
			{
				"type": "occ",
				"energy": -0.22506,
				"method": "rhf"
			},
			{
				"type": "occ",
				"energy": -0.19559,
				"method": "rhf"
			},
			{
				"type": "unocc",
				"energy": -0.01174,
				"method": "rhf"
			},
			{
				"type": "unocc",
				"energy": -0.00168,
				"method": "rhf"
			},
			{
				"type": "unocc",
				"energy": 0.0011,
				"method": "rhf"
			},
			{
				"type": "unocc",
				"energy": 0.00389,
				"method": "rhf"
			},
			{
				"type": "unocc",
				"energy": 0.00894,
				"method": "rhf"
			}
		],
		"cosmo_sigma_profile": { 
			"-0.025": 0.0,
			"-0.024": 0.0,
			"-0.023": 0.0,
			"-0.022": 0.0,
			"-0.021": 0.0,
			"-0.02": 0.0,
			"-0.019": 0.0,
			"-0.018": 0.0,
			"-0.017": 0.0,
			"-0.016": 0.0,
			"-0.015": 0.0,
			"-0.014": 0.0,
			"-0.013": 0.124697356487,
			"-0.012": 2.03885254908,
			"-0.011": 2.94592211605,
			"-0.01": 2.97742610019,
			"-0.009": 2.78621882294,
			"-0.008": 2.81059684685,
			"-0.007": 2.96836842495,
			"-0.006": 9.10130529156,
			"-0.005": 25.3922754556,
			"-0.004": 30.8765018393,
			"-0.003": 38.316401608,
			"-0.002": 26.9333462615,
			"-0.001": 30.8916072983,
			"0.0": 30.5610760086,
			"0.001": 26.41860198,
			"0.002": 27.7702294302,
			"0.003": 27.4350714113,
			"0.004": 26.3893217136,
			"0.005": 29.8103104329,
			"0.006": 24.9555153743,
			"0.007": 3.96073220053,
			"0.008": 1.26191079697,
			"0.009": 0.719871736511,
			"0.01": 0.559403877213,
			"0.011": 0.75160900494,
			"0.012": 0.815967612952,
			"0.013": 0.741963179912,
			"0.014": 0.541928615513,
			"0.015": 0.311295400757,
			"0.016": 0.0,
			"0.017": 0.0,
			"0.018": 0.0,
			"0.019": 0.0,
			"0.02": 0.0,
			"0.021": 0.0,
			"0.022": 0.0,
			"0.023": 0.0,
			"0.024": 0.0,
			"0.025": 0.0
		}
	}
}
