{
	 "smiles": "COC(=O)C1=C(C)NC(=O)C(Cl)=C1", 
	 "Tm": 513.15, 
	 "num_atms": 21, 
	 "gaussian": { 
		 "optdone": 1, 
		 "sigma_profile": "yes", 
		 "theory": "DFT", 
		 "functional": "B3LYP", 
		 "basiset": "6-31G**", 
		 "properties": { 
			 "R2extent": 5266.6047, 
			 "electric_dipole_moment_norm": 6.54954020447, 
			 "electric_quadrupole_moment_norm": 19.3901210355, 
			 "total_energy": -1050.30871906, 
			 "HOMO_LUMO_gap": 0.17303, 
			 "cosmo_polarized_energy": -17.34, 
			 "cosmo_cavitation_energy": 27.47, 
			 "cosmo_dispersion_energy": -20.18, 
			 "cosmo_repulsion_energy": 1.6, 
			 "cosmo_total_nonelectrostatic_energy": 8.89, 
			 "SMD_solvation_energy": 6.82 
		},
		"coords": [
			{
				"x": -2.223024084,
				"y": -0.0338219357,
				"z": 1.1759020033,
				"element": "C" 
			},
			{
				"x": -1.0754040761,
				"y": 0.001339967,
				"z": 0.309641276,
				"element": "O" 
			},
			{
				"x": -1.1057765609,
				"y": 0.9686410228,
				"z": -0.639487268,
				"element": "C" 
			},
			{
				"x": -2.0338910127,
				"y": 1.7479589429,
				"z": -0.749533049,
				"element": "O" 
			},
			{
				"x": 0.0854992269,
				"y": 0.9857000612,
				"z": -1.5195218894,
				"element": "C" 
			},
			{
				"x": 1.1697312662,
				"y": 0.1249279743,
				"z": -1.4425317124,
				"element": "C" 
			},
			{
				"x": 1.3742059489,
				"y": -1.0000267087,
				"z": -0.4628071917,
				"element": "C" 
			},
			{
				"x": 2.1737789117,
				"y": 0.3011160062,
				"z": -2.3466032658,
				"element": "N" 
			},
			{
				"x": 2.274035887,
				"y": 1.2617641158,
				"z": -3.3818378706,
				"element": "C" 
			},
			{
				"x": 3.257375496,
				"y": 1.2724169011,
				"z": -4.1050172285,
				"element": "O" 
			},
			{
				"x": 1.1119532761,
				"y": 2.1391484928,
				"z": -3.4189393628,
				"element": "C" 
			},
			{
				"x": 1.1019043426,
				"y": 3.3711656004,
				"z": -4.6461382836,
				"element": "Cl" 
			},
			{
				"x": 0.0878935113,
				"y": 1.9969963934,
				"z": -2.5346892274,
				"element": "C" 
			},
			{
				"x": -2.0412734324,
				"y": -0.8555653152,
				"z": 1.8685668697,
				"element": "H" 
			},
			{
				"x": -3.1342178923,
				"y": -0.2101369631,
				"z": 0.5996172233,
				"element": "H" 
			},
			{
				"x": -2.3255295229,
				"y": 0.9100314269,
				"z": 1.7163668051,
				"element": "H" 
			},
			{
				"x": 2.326190619,
				"y": -1.5045587763,
				"z": -0.6489110347,
				"element": "H" 
			},
			{
				"x": 0.5671470821,
				"y": -1.7318171003,
				"z": -0.5366848741,
				"element": "H" 
			},
			{
				"x": 1.3673582362,
				"y": -0.6277533051,
				"z": 0.5637369226,
				"element": "H" 
			},
			{
				"x": 2.9794995268,
				"y": -0.3131657671,
				"z": -2.3146531609,
				"element": "H" 
			},
			{
				"x": -0.7712567498,
				"y": 2.6573389666,
				"z": -2.5740756813,
				"element": "H" 
			}
		],
		 "valence_orbital": [ 
			{
				"type": "occ",
				"energy": -0.31101,
				"method": "rhf"
			},
			{
				"type": "occ",
				"energy": -0.29452,
				"method": "rhf"
			},
			{
				"type": "occ",
				"energy": -0.28741,
				"method": "rhf"
			},
			{
				"type": "occ",
				"energy": -0.26928,
				"method": "rhf"
			},
			{
				"type": "occ",
				"energy": -0.22823,
				"method": "rhf"
			},
			{
				"type": "unocc",
				"energy": -0.0552,
				"method": "rhf"
			},
			{
				"type": "unocc",
				"energy": -0.04107,
				"method": "rhf"
			},
			{
				"type": "unocc",
				"energy": 0.0319,
				"method": "rhf"
			},
			{
				"type": "unocc",
				"energy": 0.05089,
				"method": "rhf"
			},
			{
				"type": "unocc",
				"energy": 0.06698,
				"method": "rhf"
			}
		],
		"cosmo_sigma_profile": { 
			"-0.025": 0.0,
			"-0.024": 0.0,
			"-0.023": 0.0,
			"-0.022": 0.0,
			"-0.021": 0.0,
			"-0.02": 0.0,
			"-0.019": 0.0,
			"-0.018": 0.0,
			"-0.017": 0.145097184733,
			"-0.016": 1.37665189304,
			"-0.015": 1.11591184583,
			"-0.014": 1.08555511236,
			"-0.013": 1.517563827,
			"-0.012": 1.26635508897,
			"-0.011": 0.533182696062,
			"-0.01": 0.920112047419,
			"-0.009": 1.82320896857,
			"-0.008": 1.59814336661,
			"-0.007": 2.71469547745,
			"-0.006": 10.5294866006,
			"-0.005": 13.7951953503,
			"-0.004": 19.0806508634,
			"-0.003": 25.8422650328,
			"-0.002": 21.2675663165,
			"-0.001": 16.9220134207,
			"0.0": 15.7542839818,
			"0.001": 12.371015737,
			"0.002": 9.90087754818,
			"0.003": 10.0231003386,
			"0.004": 10.2524333885,
			"0.005": 5.66872429419,
			"0.006": 3.23331396946,
			"0.007": 3.4743437288,
			"0.008": 2.81446912105,
			"0.009": 2.87269515607,
			"0.01": 3.32608147957,
			"0.011": 5.68513279339,
			"0.012": 7.44622732761,
			"0.013": 5.56109572313,
			"0.014": 1.4454964442,
			"0.015": 0.0,
			"0.016": 0.0,
			"0.017": 0.0,
			"0.018": 0.0,
			"0.019": 0.0,
			"0.02": 0.0,
			"0.021": 0.0,
			"0.022": 0.0,
			"0.023": 0.0,
			"0.024": 0.0,
			"0.025": 0.0
		}
	}
}
