{
	 "smiles": "SC1=NN=C(C2CC2)N1C1CC1", 
	 "Tm": 412.15, 
	 "num_atms": 23, 
	 "gaussian": { 
		 "optdone": 1, 
		 "sigma_profile": "yes", 
		 "theory": "DFT", 
		 "functional": "B3LYP", 
		 "basiset": "6-31G**", 
		 "properties": { 
			 "R2extent": 2998.5693, 
			 "electric_dipole_moment_norm": 4.95096904858, 
			 "electric_quadrupole_moment_norm": 5.53927614224, 
			 "total_energy": -873.833818056, 
			 "HOMO_LUMO_gap": 0.23121, 
			 "cosmo_polarized_energy": -14.73, 
			 "cosmo_cavitation_energy": 27.61, 
			 "cosmo_dispersion_energy": -20.23, 
			 "cosmo_repulsion_energy": 1.58, 
			 "cosmo_total_nonelectrostatic_energy": 8.95, 
			 "SMD_solvation_energy": 1.57 
		},
		"coords": [
			{
				"x": -3.6873266837,
				"y": -1.913155523,
				"z": 0.2677807775,
				"element": "S" 
			},
			{
				"x": -2.1614521187,
				"y": -1.0603824181,
				"z": 0.5393395387,
				"element": "C" 
			},
			{
				"x": -1.3983310244,
				"y": -1.1711784768,
				"z": 1.5970838005,
				"element": "N" 
			},
			{
				"x": -0.3365169458,
				"y": -0.2991520173,
				"z": 1.4177737324,
				"element": "N" 
			},
			{
				"x": -0.4898137351,
				"y": 0.3016592463,
				"z": 0.2620445845,
				"element": "C" 
			},
			{
				"x": 0.4353312066,
				"y": 1.2937189086,
				"z": -0.3207695231,
				"element": "C" 
			},
			{
				"x": 1.885364115,
				"y": 0.8990225107,
				"z": -0.5859148793,
				"element": "C" 
			},
			{
				"x": 1.5527038447,
				"y": 1.8286686848,
				"z": 0.5439630198,
				"element": "C" 
			},
			{
				"x": -1.6396973226,
				"y": -0.1589555261,
				"z": -0.3624682678,
				"element": "N" 
			},
			{
				"x": -2.2263031134,
				"y": 0.2739369464,
				"z": -1.6030788603,
				"element": "C" 
			},
			{
				"x": -2.5091504821,
				"y": -0.7519952244,
				"z": -2.6769817873,
				"element": "C" 
			},
			{
				"x": -1.394251532,
				"y": 0.2401086009,
				"z": -2.8614425108,
				"element": "C" 
			},
			{
				"x": -3.6354030075,
				"y": -2.508442919,
				"z": 1.4745980487,
				"element": "H" 
			},
			{
				"x": -0.01530872,
				"y": 1.9802996682,
				"z": -1.0304188442,
				"element": "H" 
			},
			{
				"x": 2.1668359849,
				"y": -0.1183611633,
				"z": -0.3339836732,
				"element": "H" 
			},
			{
				"x": 2.362772288,
				"y": 1.3027547747,
				"z": -1.4741137449,
				"element": "H" 
			},
			{
				"x": 1.8015146795,
				"y": 2.880275828,
				"z": 0.4417813713,
				"element": "H" 
			},
			{
				"x": 1.6036075783,
				"y": 1.434044558,
				"z": 1.5527733979,
				"element": "H" 
			},
			{
				"x": -2.938711492,
				"y": 1.0884366958,
				"z": -1.4921470738,
				"element": "H" 
			},
			{
				"x": -2.2369972572,
				"y": -1.7807920056,
				"z": -2.4674328777,
				"element": "H" 
			},
			{
				"x": -3.4236037572,
				"y": -0.6321963633,
				"z": -3.2484115957,
				"element": "H" 
			},
			{
				"x": -0.3769363628,
				"y": -0.1254182728,
				"z": -2.7738728773,
				"element": "H" 
			},
			{
				"x": -1.5253261423,
				"y": 1.0549034872,
				"z": -3.5663017562,
				"element": "H" 
			}
		],
		 "valence_orbital": [ 
			{
				"type": "occ",
				"energy": -0.29931,
				"method": "rhf"
			},
			{
				"type": "occ",
				"energy": -0.28956,
				"method": "rhf"
			},
			{
				"type": "occ",
				"energy": -0.2792,
				"method": "rhf"
			},
			{
				"type": "occ",
				"energy": -0.24681,
				"method": "rhf"
			},
			{
				"type": "occ",
				"energy": -0.21764,
				"method": "rhf"
			},
			{
				"type": "unocc",
				"energy": 0.01357,
				"method": "rhf"
			},
			{
				"type": "unocc",
				"energy": 0.01837,
				"method": "rhf"
			},
			{
				"type": "unocc",
				"energy": 0.046,
				"method": "rhf"
			},
			{
				"type": "unocc",
				"energy": 0.0666,
				"method": "rhf"
			},
			{
				"type": "unocc",
				"energy": 0.07898,
				"method": "rhf"
			}
		],
		"cosmo_sigma_profile": { 
			"-0.025": 0.0,
			"-0.024": 0.0,
			"-0.023": 0.0,
			"-0.022": 0.0,
			"-0.021": 0.0,
			"-0.02": 0.0,
			"-0.019": 0.0,
			"-0.018": 0.0,
			"-0.017": 0.0,
			"-0.016": 0.0,
			"-0.015": 0.0,
			"-0.014": 0.0,
			"-0.013": 0.0,
			"-0.012": 0.651784642285,
			"-0.011": 1.70754871308,
			"-0.01": 1.25721383289,
			"-0.009": 0.815071495531,
			"-0.008": 1.56608282883,
			"-0.007": 4.07558047041,
			"-0.006": 11.9127430247,
			"-0.005": 20.9170141555,
			"-0.004": 20.7795813258,
			"-0.003": 17.8633935697,
			"-0.002": 18.6295875569,
			"-0.001": 21.4934759959,
			"0.0": 17.8127290753,
			"0.001": 13.4035648781,
			"0.002": 14.2699653614,
			"0.003": 9.91750880482,
			"0.004": 8.03998630375,
			"0.005": 6.06418984138,
			"0.006": 4.70420388231,
			"0.007": 2.85113322787,
			"0.008": 2.32085010955,
			"0.009": 2.23007096164,
			"0.01": 1.52415895048,
			"0.011": 1.8061548729,
			"0.012": 3.03122580203,
			"0.013": 2.73882813496,
			"0.014": 3.1637836925,
			"0.015": 2.83736907284,
			"0.016": 2.11556061739,
			"0.017": 0.622159883172,
			"0.018": 0.0,
			"0.019": 0.0,
			"0.02": 0.0,
			"0.021": 0.0,
			"0.022": 0.0,
			"0.023": 0.0,
			"0.024": 0.0,
			"0.025": 0.0
		}
	}
}
