{
	 "smiles": "OC(=O)CCN1C=C(Br)C=CC1=O", 
	 "Tm": 446.15, 
	 "num_atms": 21, 
	 "gaussian": { 
		 "optdone": 1, 
		 "sigma_profile": "yes", 
		 "theory": "DFT", 
		 "functional": "B3LYP", 
		 "basiset": "6-31G**", 
		 "properties": { 
			 "R2extent": 5013.4581, 
			 "electric_dipole_moment_norm": 6.76370463134, 
			 "electric_quadrupole_moment_norm": 28.0028045362, 
			 "total_energy": -3161.51527107, 
			 "HOMO_LUMO_gap": 0.16939, 
			 "cosmo_polarized_energy": -18.69, 
			 "cosmo_cavitation_energy": 27.39, 
			 "cosmo_dispersion_energy": -20.64, 
			 "cosmo_repulsion_energy": 1.62, 
			 "cosmo_total_nonelectrostatic_energy": 8.37, 
			 "SMD_solvation_energy": 5.24 
		},
		"coords": [
			{
				"x": 1.4952891755,
				"y": -3.5905407672,
				"z": -1.9359953057,
				"element": "O" 
			},
			{
				"x": 0.218982452,
				"y": -3.7712025397,
				"z": -2.303084385,
				"element": "C" 
			},
			{
				"x": -0.1351746167,
				"y": -4.7232761619,
				"z": -2.958893711,
				"element": "O" 
			},
			{
				"x": -0.758621366,
				"y": -2.6850705205,
				"z": -1.8353832004,
				"element": "C" 
			},
			{
				"x": -0.7408385945,
				"y": -2.459056452,
				"z": -0.3012261207,
				"element": "C" 
			},
			{
				"x": -0.5373826327,
				"y": -1.0494561358,
				"z": 0.0801670675,
				"element": "N" 
			},
			{
				"x": -1.5661874638,
				"y": -0.3146949536,
				"z": 0.6018051543,
				"element": "C" 
			},
			{
				"x": -1.3848635021,
				"y": 0.9883701535,
				"z": 0.9683299561,
				"element": "C" 
			},
			{
				"x": -2.8335994355,
				"y": 1.9830315469,
				"z": 1.6905937915,
				"element": "Br" 
			},
			{
				"x": -0.1063012072,
				"y": 1.5831180864,
				"z": 0.807615045,
				"element": "C" 
			},
			{
				"x": 0.9220979632,
				"y": 0.8500854902,
				"z": 0.2851647203,
				"element": "C" 
			},
			{
				"x": 0.751862297,
				"y": -0.5224674915,
				"z": -0.1207697694,
				"element": "C" 
			},
			{
				"x": 1.6459282047,
				"y": -1.2297969224,
				"z": -0.6159177014,
				"element": "O" 
			},
			{
				"x": 1.6092871725,
				"y": -2.7333865035,
				"z": -1.4559249718,
				"element": "H" 
			},
			{
				"x": -0.4944573766,
				"y": -1.751518843,
				"z": -2.3436636627,
				"element": "H" 
			},
			{
				"x": -1.7534162331,
				"y": -2.9761052614,
				"z": -2.1750499114,
				"element": "H" 
			},
			{
				"x": 0.0631027161,
				"y": -3.033124025,
				"z": 0.1648926743,
				"element": "H" 
			},
			{
				"x": -1.6817175797,
				"y": -2.7811688289,
				"z": 0.1471558461,
				"element": "H" 
			},
			{
				"x": -2.5168666846,
				"y": -0.822210659,
				"z": 0.7064208188,
				"element": "H" 
			},
			{
				"x": 0.0431660409,
				"y": 2.61665989,
				"z": 1.1014013568,
				"element": "H" 
			},
			{
				"x": 1.9116106707,
				"y": 1.2692108983,
				"z": 0.1473623089,
				"element": "H" 
			}
		],
		 "valence_orbital": [ 
			{
				"type": "occ",
				"energy": -0.31189,
				"method": "rhf"
			},
			{
				"type": "occ",
				"energy": -0.2949,
				"method": "rhf"
			},
			{
				"type": "occ",
				"energy": -0.29131,
				"method": "rhf"
			},
			{
				"type": "occ",
				"energy": -0.25607,
				"method": "rhf"
			},
			{
				"type": "occ",
				"energy": -0.24359,
				"method": "rhf"
			},
			{
				"type": "unocc",
				"energy": -0.0742,
				"method": "rhf"
			},
			{
				"type": "unocc",
				"energy": -0.02505,
				"method": "rhf"
			},
			{
				"type": "unocc",
				"energy": -0.02368,
				"method": "rhf"
			},
			{
				"type": "unocc",
				"energy": 0.02018,
				"method": "rhf"
			},
			{
				"type": "unocc",
				"energy": 0.06567,
				"method": "rhf"
			}
		],
		"cosmo_sigma_profile": { 
			"-0.025": 0.0,
			"-0.024": 0.0,
			"-0.023": 0.0,
			"-0.022": 0.0,
			"-0.021": 0.0,
			"-0.02": 0.0,
			"-0.019": 0.0,
			"-0.018": 0.0,
			"-0.017": 0.0,
			"-0.016": 0.0,
			"-0.015": 0.0,
			"-0.014": 0.0,
			"-0.013": 0.0,
			"-0.012": 0.655494651002,
			"-0.011": 2.65349612533,
			"-0.01": 2.44934449067,
			"-0.009": 3.7564209593,
			"-0.008": 7.53819462653,
			"-0.007": 13.5431579518,
			"-0.006": 15.3178036135,
			"-0.005": 14.8006362198,
			"-0.004": 13.657235006,
			"-0.003": 14.7226341433,
			"-0.002": 10.4207655667,
			"-0.001": 14.6917084216,
			"0.0": 16.0772267834,
			"0.001": 14.3159147142,
			"0.002": 11.8107176412,
			"0.003": 10.298445184,
			"0.004": 11.13516636,
			"0.005": 4.22828942833,
			"0.006": 3.85163611576,
			"0.007": 3.33694441158,
			"0.008": 3.28409289405,
			"0.009": 3.67874209301,
			"0.01": 4.79348459819,
			"0.011": 6.13859209556,
			"0.012": 7.9594364502,
			"0.013": 5.76971483139,
			"0.014": 1.35688674773,
			"0.015": 0.00201765907026,
			"0.016": 0.0,
			"0.017": 0.0,
			"0.018": 0.0,
			"0.019": 0.0,
			"0.02": 0.0,
			"0.021": 0.0,
			"0.022": 0.0,
			"0.023": 0.0,
			"0.024": 0.0,
			"0.025": 0.0
		}
	}
}
