{
	 "smiles": "CC(C)CNC(=O)CC#N", 
	 "Tm": 331.15, 
	 "num_atms": 22, 
	 "gaussian": { 
		 "optdone": 1, 
		 "sigma_profile": "yes", 
		 "theory": "DFT", 
		 "functional": "B3LYP", 
		 "basiset": "6-31G**", 
		 "properties": { 
			 "R2extent": 2251.3611, 
			 "electric_dipole_moment_norm": 1.2907430147, 
			 "electric_quadrupole_moment_norm": 15.7885264005, 
			 "total_energy": -458.714847035, 
			 "HOMO_LUMO_gap": 0.27383, 
			 "cosmo_polarized_energy": -12.99, 
			 "cosmo_cavitation_energy": 26.29, 
			 "cosmo_dispersion_energy": -17.67, 
			 "cosmo_repulsion_energy": 1.47, 
			 "cosmo_total_nonelectrostatic_energy": 10.09, 
			 "SMD_solvation_energy": 6.21 
		},
		"coords": [
			{
				"x": 1.7305379289,
				"y": 1.7642864834,
				"z": -1.8113830413,
				"element": "C" 
			},
			{
				"x": 0.4161769611,
				"y": 1.2570058497,
				"z": -1.2027233065,
				"element": "C" 
			},
			{
				"x": -0.7973629024,
				"y": 1.9537451106,
				"z": -1.8319849864,
				"element": "C" 
			},
			{
				"x": 0.3387767184,
				"y": -0.2756736752,
				"z": -1.3441379249,
				"element": "C" 
			},
			{
				"x": -0.8229538802,
				"y": -0.8779375212,
				"z": -0.6964435234,
				"element": "N" 
			},
			{
				"x": -0.7794337651,
				"y": -1.3077139249,
				"z": 0.5885013774,
				"element": "C" 
			},
			{
				"x": 0.2084573865,
				"y": -1.2626763374,
				"z": 1.3062695887,
				"element": "O" 
			},
			{
				"x": -2.0862321952,
				"y": -1.9140590389,
				"z": 1.1604073381,
				"element": "C" 
			},
			{
				"x": -3.2423363285,
				"y": -1.9021655119,
				"z": 0.2685896894,
				"element": "C" 
			},
			{
				"x": -4.1249040355,
				"y": -1.8632602486,
				"z": -0.4856656355,
				"element": "N" 
			},
			{
				"x": 1.7771031652,
				"y": 1.5491710041,
				"z": -2.8862230447,
				"element": "H" 
			},
			{
				"x": 2.5995421371,
				"y": 1.2953072258,
				"z": -1.3376027884,
				"element": "H" 
			},
			{
				"x": 1.8263609189,
				"y": 2.8477214514,
				"z": -1.6881677489,
				"element": "H" 
			},
			{
				"x": 0.4261274083,
				"y": 1.4751529576,
				"z": -0.1265186687,
				"element": "H" 
			},
			{
				"x": -0.8479298154,
				"y": 1.7591403347,
				"z": -2.910919927,
				"element": "H" 
			},
			{
				"x": -1.7373435997,
				"y": 1.6158884924,
				"z": -1.3832926751,
				"element": "H" 
			},
			{
				"x": -0.7403561394,
				"y": 3.0384719457,
				"z": -1.6953667008,
				"element": "H" 
			},
			{
				"x": 1.2245060102,
				"y": -0.7317651863,
				"z": -0.8946351506,
				"element": "H" 
			},
			{
				"x": 0.31441012,
				"y": -0.5538974358,
				"z": -2.4048655351,
				"element": "H" 
			},
			{
				"x": -1.6964592745,
				"y": -0.9299976552,
				"z": -1.2008948492,
				"element": "H" 
			},
			{
				"x": -2.3203347846,
				"y": -1.3645754097,
				"z": 2.0777844144,
				"element": "H" 
			},
			{
				"x": -1.8595520339,
				"y": -2.9429689102,
				"z": 1.4588730983,
				"element": "H" 
			}
		],
		 "valence_orbital": [ 
			{
				"type": "occ",
				"energy": -0.34239,
				"method": "rhf"
			},
			{
				"type": "occ",
				"energy": -0.33645,
				"method": "rhf"
			},
			{
				"type": "occ",
				"energy": -0.33465,
				"method": "rhf"
			},
			{
				"type": "occ",
				"energy": -0.26794,
				"method": "rhf"
			},
			{
				"type": "occ",
				"energy": -0.26336,
				"method": "rhf"
			},
			{
				"type": "unocc",
				"energy": 0.01047,
				"method": "rhf"
			},
			{
				"type": "unocc",
				"energy": 0.01445,
				"method": "rhf"
			},
			{
				"type": "unocc",
				"energy": 0.02679,
				"method": "rhf"
			},
			{
				"type": "unocc",
				"energy": 0.07126,
				"method": "rhf"
			},
			{
				"type": "unocc",
				"energy": 0.08935,
				"method": "rhf"
			}
		],
		"cosmo_sigma_profile": { 
			"-0.025": 0.0,
			"-0.024": 0.0,
			"-0.023": 0.0,
			"-0.022": 0.0,
			"-0.021": 0.0,
			"-0.02": 0.0,
			"-0.019": 0.0,
			"-0.018": 0.0,
			"-0.017": 0.0,
			"-0.016": 0.0,
			"-0.015": 0.0,
			"-0.014": 0.0,
			"-0.013": 0.0,
			"-0.012": 0.202476576469,
			"-0.011": 0.776295766362,
			"-0.01": 4.91294698483,
			"-0.009": 6.18003582747,
			"-0.008": 5.39354098511,
			"-0.007": 5.95641701749,
			"-0.006": 8.70021122569,
			"-0.005": 8.37861139242,
			"-0.004": 8.20695370338,
			"-0.003": 19.3986567769,
			"-0.002": 21.0924491262,
			"-0.001": 22.1839981674,
			"0.0": 19.8043476814,
			"0.001": 18.8507914273,
			"0.002": 9.11923492684,
			"0.003": 3.58873371743,
			"0.004": 3.41036260958,
			"0.005": 4.35074624494,
			"0.006": 3.46311159926,
			"0.007": 2.8965986436,
			"0.008": 4.28664652109,
			"0.009": 4.09998547783,
			"0.01": 4.73770730619,
			"0.011": 4.10256470112,
			"0.012": 3.92509123651,
			"0.013": 6.43480146688,
			"0.014": 1.9996952093,
			"0.015": 0.0,
			"0.016": 0.0,
			"0.017": 0.0,
			"0.018": 0.0,
			"0.019": 0.0,
			"0.02": 0.0,
			"0.021": 0.0,
			"0.022": 0.0,
			"0.023": 0.0,
			"0.024": 0.0,
			"0.025": 0.0
		}
	}
}
