{
	 "smiles": "CN(C)CCC=C1C2=CC=CC=C2CCC2=CC=CC=C12", 
	 "Tm": 469.15, 
	 "num_atms": 44, 
	 "gaussian": { 
		 "optdone": 1, 
		 "sigma_profile": "yes", 
		 "theory": "DFT", 
		 "functional": "B3LYP", 
		 "basiset": "6-31G**", 
		 "properties": { 
			 "R2extent": 7104.1249, 
			 "electric_dipole_moment_norm": 1.10466598572, 
			 "electric_quadrupole_moment_norm": 6.41213961872, 
			 "total_energy": -830.729884441, 
			 "HOMO_LUMO_gap": 0.19144, 
			 "cosmo_polarized_energy": -7.26, 
			 "cosmo_cavitation_energy": 44.28, 
			 "cosmo_dispersion_energy": -30.46, 
			 "cosmo_repulsion_energy": 2.36, 
			 "cosmo_total_nonelectrostatic_energy": 16.18, 
			 "SMD_solvation_energy": 5.48 
		},
		"coords": [
			{
				"x": 4.2555419797,
				"y": -1.7080191611,
				"z": 1.744153431,
				"element": "C" 
			},
			{
				"x": 3.0965608726,
				"y": -1.0470437508,
				"z": 2.3303973584,
				"element": "N" 
			},
			{
				"x": 3.2540026188,
				"y": -0.9106262691,
				"z": 3.7726776022,
				"element": "C" 
			},
			{
				"x": 2.7971116541,
				"y": 0.23759494,
				"z": 1.6952352799,
				"element": "C" 
			},
			{
				"x": 2.1877905705,
				"y": 0.1050444994,
				"z": 0.286139861,
				"element": "C" 
			},
			{
				"x": 0.875602467,
				"y": -0.6323983936,
				"z": 0.3046897714,
				"element": "C" 
			},
			{
				"x": -0.2717682005,
				"y": -0.3197443042,
				"z": -0.3321521359,
				"element": "C" 
			},
			{
				"x": -0.3974915794,
				"y": 0.7995465903,
				"z": -1.319079418,
				"element": "C" 
			},
			{
				"x": 0.5693573278,
				"y": 0.8700864682,
				"z": -2.3430985163,
				"element": "C" 
			},
			{
				"x": 0.5400471784,
				"y": 1.8530733129,
				"z": -3.3261281445,
				"element": "C" 
			},
			{
				"x": -0.4817041237,
				"y": 2.8027553767,
				"z": -3.3106756031,
				"element": "C" 
			},
			{
				"x": -1.452990593,
				"y": 2.737695545,
				"z": -2.3172626827,
				"element": "C" 
			},
			{
				"x": -1.4446024115,
				"y": 1.7506361784,
				"z": -1.3180997407,
				"element": "C" 
			},
			{
				"x": -2.5967330422,
				"y": 1.81454794,
				"z": -0.3210377044,
				"element": "C" 
			},
			{
				"x": -2.5707475255,
				"y": 0.8774248898,
				"z": 0.8970812792,
				"element": "C" 
			},
			{
				"x": -2.6149230321,
				"y": -0.5836062485,
				"z": 0.5215522395,
				"element": "C" 
			},
			{
				"x": -3.7385182558,
				"y": -1.3773565817,
				"z": 0.768963332,
				"element": "C" 
			},
			{
				"x": -3.7522593287,
				"y": -2.7311172832,
				"z": 0.4258579966,
				"element": "C" 
			},
			{
				"x": -2.6282908354,
				"y": -3.3050012545,
				"z": -0.167349122,
				"element": "C" 
			},
			{
				"x": -1.5006610934,
				"y": -2.5213423136,
				"z": -0.4199433513,
				"element": "C" 
			},
			{
				"x": -1.4830450786,
				"y": -1.1620140955,
				"z": -0.0848575241,
				"element": "C" 
			},
			{
				"x": 4.4013297113,
				"y": -2.6829841972,
				"z": 2.2199522049,
				"element": "H" 
			},
			{
				"x": 4.1013800635,
				"y": -1.8828853785,
				"z": 0.676144175,
				"element": "H" 
			},
			{
				"x": 5.1915070657,
				"y": -1.1268552266,
				"z": 1.8625860437,
				"element": "H" 
			},
			{
				"x": 4.1091171007,
				"y": -0.2691181498,
				"z": 4.063239766,
				"element": "H" 
			},
			{
				"x": 3.4097973753,
				"y": -1.8971039979,
				"z": 4.2216574626,
				"element": "H" 
			},
			{
				"x": 2.3460721853,
				"y": -0.4811642668,
				"z": 4.2075012177,
				"element": "H" 
			},
			{
				"x": 2.0739224688,
				"y": 0.7597289866,
				"z": 2.332228771,
				"element": "H" 
			},
			{
				"x": 3.6962341374,
				"y": 0.883790389,
				"z": 1.641274677,
				"element": "H" 
			},
			{
				"x": 2.9048827008,
				"y": -0.4109577443,
				"z": -0.3688004565,
				"element": "H" 
			},
			{
				"x": 2.0687908165,
				"y": 1.1078158723,
				"z": -0.1360038389,
				"element": "H" 
			},
			{
				"x": 0.8607486491,
				"y": -1.4944242792,
				"z": 0.9693358805,
				"element": "H" 
			},
			{
				"x": 1.3451079443,
				"y": 0.1117280571,
				"z": -2.3702978904,
				"element": "H" 
			},
			{
				"x": 1.3014508019,
				"y": 1.8706936291,
				"z": -4.1006968717,
				"element": "H" 
			},
			{
				"x": -0.5259542717,
				"y": 3.5814321834,
				"z": -4.0668557682,
				"element": "H" 
			},
			{
				"x": -2.2530013775,
				"y": 3.4752075705,
				"z": -2.3071850861,
				"element": "H" 
			},
			{
				"x": -3.5294630172,
				"y": 1.6306918643,
				"z": -0.8724572292,
				"element": "H" 
			},
			{
				"x": -2.668407678,
				"y": 2.8485516645,
				"z": 0.0412867299,
				"element": "H" 
			},
			{
				"x": -1.6697883945,
				"y": 1.0769481792,
				"z": 1.4908364012,
				"element": "H" 
			},
			{
				"x": -3.4287482097,
				"y": 1.1223695346,
				"z": 1.5327607784,
				"element": "H" 
			},
			{
				"x": -4.6084260958,
				"y": -0.9320188084,
				"z": 1.2465257347,
				"element": "H" 
			},
			{
				"x": -4.6343605207,
				"y": -3.3330007582,
				"z": 0.6256515317,
				"element": "H" 
			},
			{
				"x": -2.627662495,
				"y": -4.3576784708,
				"z": -0.4359878636,
				"element": "H" 
			},
			{
				"x": -0.6238085294,
				"y": -2.9596027376,
				"z": -0.8879605778,
				"element": "H" 
			}
		],
		 "valence_orbital": [ 
			{
				"type": "occ",
				"energy": -0.23807,
				"method": "rhf"
			},
			{
				"type": "occ",
				"energy": -0.23616,
				"method": "rhf"
			},
			{
				"type": "occ",
				"energy": -0.2277,
				"method": "rhf"
			},
			{
				"type": "occ",
				"energy": -0.218,
				"method": "rhf"
			},
			{
				"type": "occ",
				"energy": -0.20859,
				"method": "rhf"
			},
			{
				"type": "unocc",
				"energy": -0.01715,
				"method": "rhf"
			},
			{
				"type": "unocc",
				"energy": -1e-05,
				"method": "rhf"
			},
			{
				"type": "unocc",
				"energy": 0.01057,
				"method": "rhf"
			},
			{
				"type": "unocc",
				"energy": 0.01306,
				"method": "rhf"
			},
			{
				"type": "unocc",
				"energy": 0.04576,
				"method": "rhf"
			}
		],
		"cosmo_sigma_profile": { 
			"-0.025": 0.0,
			"-0.024": 0.0,
			"-0.023": 0.0,
			"-0.022": 0.0,
			"-0.021": 0.0,
			"-0.02": 0.0,
			"-0.019": 0.0,
			"-0.018": 0.0,
			"-0.017": 0.0,
			"-0.016": 0.0,
			"-0.015": 0.0,
			"-0.014": 0.0,
			"-0.013": 0.0,
			"-0.012": 0.0,
			"-0.011": 0.0,
			"-0.01": 0.0,
			"-0.009": 0.0,
			"-0.008": 0.0,
			"-0.007": 0.0,
			"-0.006": 1.6507861652,
			"-0.005": 14.3915017336,
			"-0.004": 29.3840166213,
			"-0.003": 40.4184923364,
			"-0.002": 39.9508709966,
			"-0.001": 52.7440371582,
			"0.0": 44.4225999828,
			"0.001": 24.5779170918,
			"0.002": 21.095158739,
			"0.003": 20.990383045,
			"0.004": 16.2887774643,
			"0.005": 16.5815344674,
			"0.006": 15.9010405119,
			"0.007": 5.86168631712,
			"0.008": 0.802516357973,
			"0.009": 0.964784715709,
			"0.01": 0.41384522482,
			"0.011": 0.731229877726,
			"0.012": 0.791734823318,
			"0.013": 0.166561760872,
			"0.014": 0.0,
			"0.015": 0.0,
			"0.016": 0.0,
			"0.017": 0.0,
			"0.018": 0.0,
			"0.019": 0.0,
			"0.02": 0.0,
			"0.021": 0.0,
			"0.022": 0.0,
			"0.023": 0.0,
			"0.024": 0.0,
			"0.025": 0.0
		}
	}
}
