{
	 "smiles": "CC1(C)C(NC2=CC=CC=C12)C(O)=O", 
	 "Tm": 350.15, 
	 "num_atms": 27, 
	 "gaussian": { 
		 "optdone": 1, 
		 "sigma_profile": "yes", 
		 "theory": "DFT", 
		 "functional": "B3LYP", 
		 "basiset": "6-31G**", 
		 "properties": { 
			 "R2extent": 2756.8849, 
			 "electric_dipole_moment_norm": 3.24896852863, 
			 "electric_quadrupole_moment_norm": 13.4985032859, 
			 "total_energy": -632.217843594, 
			 "HOMO_LUMO_gap": 0.19768, 
			 "cosmo_polarized_energy": -14.68, 
			 "cosmo_cavitation_energy": 29.02, 
			 "cosmo_dispersion_energy": -20.71, 
			 "cosmo_repulsion_energy": 1.6, 
			 "cosmo_total_nonelectrostatic_energy": 9.91, 
			 "SMD_solvation_energy": 4.43 
		},
		"coords": [
			{
				"x": 0.5584072571,
				"y": 0.5438564634,
				"z": 2.6508596302,
				"element": "C" 
			},
			{
				"x": 0.5047171821,
				"y": 0.7017356783,
				"z": 1.1241604476,
				"element": "C" 
			},
			{
				"x": 1.3365102351,
				"y": 1.9288825809,
				"z": 0.6867502051,
				"element": "C" 
			},
			{
				"x": 0.9570515036,
				"y": -0.6357205636,
				"z": 0.3908334352,
				"element": "C" 
			},
			{
				"x": 0.019891932,
				"y": -0.8713187652,
				"z": -0.7044713593,
				"element": "N" 
			},
			{
				"x": -1.0872734953,
				"y": -0.0222199226,
				"z": -0.5205377019,
				"element": "C" 
			},
			{
				"x": -2.2645356015,
				"y": -0.0038244555,
				"z": -1.2687750332,
				"element": "C" 
			},
			{
				"x": -3.2749505661,
				"y": 0.8863547267,
				"z": -0.8917742108,
				"element": "C" 
			},
			{
				"x": -3.1195101929,
				"y": 1.7292286272,
				"z": 0.2122130486,
				"element": "C" 
			},
			{
				"x": -1.9278251516,
				"y": 1.7084525653,
				"z": 0.948557325,
				"element": "C" 
			},
			{
				"x": -0.9138897763,
				"y": 0.8331940906,
				"z": 0.5765868238,
				"element": "C" 
			},
			{
				"x": 2.3899867609,
				"y": -0.6184891226,
				"z": -0.1273784327,
				"element": "C" 
			},
			{
				"x": 3.3569445889,
				"y": -0.7051755764,
				"z": 0.8187690211,
				"element": "O" 
			},
			{
				"x": 2.6817706371,
				"y": -0.5256937186,
				"z": -1.2950068447,
				"element": "O" 
			},
			{
				"x": -0.0396300293,
				"y": -0.3087896838,
				"z": 2.9870785749,
				"element": "H" 
			},
			{
				"x": 1.5890909339,
				"y": 0.4061614864,
				"z": 3.0052593444,
				"element": "H" 
			},
			{
				"x": 0.1757566292,
				"y": 1.4405085492,
				"z": 3.1484949853,
				"element": "H" 
			},
			{
				"x": 1.3567652341,
				"y": 2.0226834312,
				"z": -0.402576468,
				"element": "H" 
			},
			{
				"x": 0.8941130352,
				"y": 2.8428045001,
				"z": 1.0944990792,
				"element": "H" 
			},
			{
				"x": 2.3700637856,
				"y": 1.8629032209,
				"z": 1.0439255829,
				"element": "H" 
			},
			{
				"x": 0.8755989453,
				"y": -1.4603418655,
				"z": 1.1184909576,
				"element": "H" 
			},
			{
				"x": 0.4698993531,
				"y": -0.8475203814,
				"z": -1.6152688992,
				"element": "H" 
			},
			{
				"x": -2.3939953029,
				"y": -0.6726809341,
				"z": -2.1142522834,
				"element": "H" 
			},
			{
				"x": -4.1998413921,
				"y": 0.9118903271,
				"z": -1.4612235006,
				"element": "H" 
			},
			{
				"x": -3.9210954589,
				"y": 2.4034878962,
				"z": 0.4977937615,
				"element": "H" 
			},
			{
				"x": -1.799005028,
				"y": 2.3803756565,
				"z": 1.7937743806,
				"element": "H" 
			},
			{
				"x": 2.9586839816,
				"y": -0.8198448108,
				"z": 1.6941181309,
				"element": "H" 
			}
		],
		 "valence_orbital": [ 
			{
				"type": "occ",
				"energy": -0.3249,
				"method": "rhf"
			},
			{
				"type": "occ",
				"energy": -0.29134,
				"method": "rhf"
			},
			{
				"type": "occ",
				"energy": -0.28239,
				"method": "rhf"
			},
			{
				"type": "occ",
				"energy": -0.24611,
				"method": "rhf"
			},
			{
				"type": "occ",
				"energy": -0.20326,
				"method": "rhf"
			},
			{
				"type": "unocc",
				"energy": -0.00558,
				"method": "rhf"
			},
			{
				"type": "unocc",
				"energy": -0.00298,
				"method": "rhf"
			},
			{
				"type": "unocc",
				"energy": 0.0118,
				"method": "rhf"
			},
			{
				"type": "unocc",
				"energy": 0.0362,
				"method": "rhf"
			},
			{
				"type": "unocc",
				"energy": 0.09496,
				"method": "rhf"
			}
		],
		"cosmo_sigma_profile": { 
			"-0.025": 0.0,
			"-0.024": 0.0,
			"-0.023": 0.0,
			"-0.022": 0.0,
			"-0.021": 0.0,
			"-0.02": 0.0,
			"-0.019": 0.0,
			"-0.018": 0.461962301849,
			"-0.017": 0.636303098224,
			"-0.016": 1.41966567424,
			"-0.015": 1.0806717449,
			"-0.014": 1.17057468874,
			"-0.013": 1.093943575,
			"-0.012": 1.36384716373,
			"-0.011": 2.07618869165,
			"-0.01": 1.60655244944,
			"-0.009": 1.87783912437,
			"-0.008": 2.1017012418,
			"-0.007": 2.99857869127,
			"-0.006": 5.4991939506,
			"-0.005": 14.208929329,
			"-0.004": 18.6008959712,
			"-0.003": 21.1215260893,
			"-0.002": 19.1058922009,
			"-0.001": 18.8720597371,
			"0.0": 20.9433243428,
			"0.001": 13.9317138738,
			"0.002": 8.83210516174,
			"0.003": 8.98521109384,
			"0.004": 8.9977057658,
			"0.005": 9.24860795363,
			"0.006": 11.3776988284,
			"0.007": 7.91282994732,
			"0.008": 3.78530985514,
			"0.009": 4.22256292495,
			"0.01": 6.09440242971,
			"0.011": 4.67357519841,
			"0.012": 2.66429177146,
			"0.013": 1.19358756807,
			"0.014": 0.240614138661,
			"0.015": 0.0,
			"0.016": 0.0,
			"0.017": 0.0,
			"0.018": 0.0,
			"0.019": 0.0,
			"0.02": 0.0,
			"0.021": 0.0,
			"0.022": 0.0,
			"0.023": 0.0,
			"0.024": 0.0,
			"0.025": 0.0
		}
	}
}
