{
	 "smiles": "COC1=C(NC(=O)C=C)C=CC=C1", 
	 "Tm": 342.15, 
	 "num_atms": 24, 
	 "gaussian": { 
		 "optdone": 1, 
		 "sigma_profile": "yes", 
		 "theory": "DFT", 
		 "functional": "B3LYP", 
		 "basiset": "6-31G**", 
		 "properties": { 
			 "R2extent": 2830.7691, 
			 "electric_dipole_moment_norm": 4.21786232587, 
			 "electric_quadrupole_moment_norm": 17.2845138338, 
			 "total_energy": -592.863196205, 
			 "HOMO_LUMO_gap": 0.17241, 
			 "cosmo_polarized_energy": -11.5, 
			 "cosmo_cavitation_energy": 28.08, 
			 "cosmo_dispersion_energy": -20.04, 
			 "cosmo_repulsion_energy": 1.61, 
			 "cosmo_total_nonelectrostatic_energy": 9.65, 
			 "SMD_solvation_energy": 6.87 
		},
		"coords": [
			{
				"x": 1.0995905776,
				"y": 2.6580085197,
				"z": 1.3349728662,
				"element": "C" 
			},
			{
				"x": 0.4641365766,
				"y": 1.3887711962,
				"z": 1.3262439755,
				"element": "O" 
			},
			{
				"x": -0.3753355036,
				"y": 1.0887596893,
				"z": 0.2867846426,
				"element": "C" 
			},
			{
				"x": -1.0125780681,
				"y": -0.1724437457,
				"z": 0.3827478512,
				"element": "C" 
			},
			{
				"x": -0.7247767468,
				"y": -0.9400285812,
				"z": 1.528184321,
				"element": "N" 
			},
			{
				"x": -0.8204502426,
				"y": -2.2897187253,
				"z": 1.8131815335,
				"element": "C" 
			},
			{
				"x": -0.8099843989,
				"y": -2.6664299788,
				"z": 2.980443286,
				"element": "O" 
			},
			{
				"x": -0.8363082909,
				"y": -3.3093895657,
				"z": 0.7213769067,
				"element": "C" 
			},
			{
				"x": -0.1111504535,
				"y": -3.2583491456,
				"z": -0.3982746079,
				"element": "C" 
			},
			{
				"x": -1.9281981376,
				"y": -0.5400861112,
				"z": -0.6061779051,
				"element": "C" 
			},
			{
				"x": -2.1706845637,
				"y": 0.2957445793,
				"z": -1.6988626927,
				"element": "C" 
			},
			{
				"x": -1.5248421686,
				"y": 1.5246859343,
				"z": -1.7961877969,
				"element": "C" 
			},
			{
				"x": -0.6331029586,
				"y": 1.927957734,
				"z": -0.7970045112,
				"element": "C" 
			},
			{
				"x": 1.6956929273,
				"y": 2.6901304969,
				"z": 2.2480158049,
				"element": "H" 
			},
			{
				"x": 0.367491793,
				"y": 3.4752071613,
				"z": 1.3496027943,
				"element": "H" 
			},
			{
				"x": 1.7604282529,
				"y": 2.7820355498,
				"z": 0.4679332625,
				"element": "H" 
			},
			{
				"x": -0.4720928915,
				"y": -0.4008169005,
				"z": 2.3481328094,
				"element": "H" 
			},
			{
				"x": -1.3776120127,
				"y": -4.2112921656,
				"z": 0.9944754655,
				"element": "H" 
			},
			{
				"x": -0.0735499668,
				"y": -4.1024934969,
				"z": -1.0805402588,
				"element": "H" 
			},
			{
				"x": 0.4738476039,
				"y": -2.385093387,
				"z": -0.6687511249,
				"element": "H" 
			},
			{
				"x": -2.4480159359,
				"y": -1.4861439935,
				"z": -0.5214012408,
				"element": "H" 
			},
			{
				"x": -2.8791286273,
				"y": -0.0143194182,
				"z": -2.4606433019,
				"element": "H" 
			},
			{
				"x": -1.7146054828,
				"y": 2.1817951844,
				"z": -2.6392638667,
				"element": "H" 
			},
			{
				"x": -0.1417712814,
				"y": 2.8908091702,
				"z": -0.8717882124,
				"element": "H" 
			}
		],
		 "valence_orbital": [ 
			{
				"type": "occ",
				"energy": -0.30145,
				"method": "rhf"
			},
			{
				"type": "occ",
				"energy": -0.27674,
				"method": "rhf"
			},
			{
				"type": "occ",
				"energy": -0.24846,
				"method": "rhf"
			},
			{
				"type": "occ",
				"energy": -0.24011,
				"method": "rhf"
			},
			{
				"type": "occ",
				"energy": -0.20914,
				"method": "rhf"
			},
			{
				"type": "unocc",
				"energy": -0.03673,
				"method": "rhf"
			},
			{
				"type": "unocc",
				"energy": 0.00356,
				"method": "rhf"
			},
			{
				"type": "unocc",
				"energy": 0.00696,
				"method": "rhf"
			},
			{
				"type": "unocc",
				"energy": 0.07353,
				"method": "rhf"
			},
			{
				"type": "unocc",
				"energy": 0.08288,
				"method": "rhf"
			}
		],
		"cosmo_sigma_profile": { 
			"-0.025": 0.0,
			"-0.024": 0.0,
			"-0.023": 0.0,
			"-0.022": 0.0,
			"-0.021": 0.0,
			"-0.02": 0.0,
			"-0.019": 0.0,
			"-0.018": 0.0,
			"-0.017": 0.0,
			"-0.016": 0.0,
			"-0.015": 0.0,
			"-0.014": 0.0,
			"-0.013": 0.0,
			"-0.012": 0.0102126570412,
			"-0.011": 0.399474274042,
			"-0.01": 0.681866158925,
			"-0.009": 0.595598591962,
			"-0.008": 0.470910258354,
			"-0.007": 2.79544301361,
			"-0.006": 15.6526475233,
			"-0.005": 22.3587811554,
			"-0.004": 24.220940787,
			"-0.003": 21.2786518977,
			"-0.002": 15.9728181389,
			"-0.001": 14.5529946491,
			"0.0": 12.9606435506,
			"0.001": 14.2354914935,
			"0.002": 15.1550929553,
			"0.003": 13.1815123568,
			"0.004": 11.5886376264,
			"0.005": 10.5473658575,
			"0.006": 6.73241453177,
			"0.007": 2.20128632101,
			"0.008": 2.20647409232,
			"0.009": 1.39108533703,
			"0.01": 1.28072251306,
			"0.011": 1.64749791373,
			"0.012": 2.96096260158,
			"0.013": 5.242251563,
			"0.014": 3.2104463693,
			"0.015": 0.191101428015,
			"0.016": 0.0,
			"0.017": 0.0,
			"0.018": 0.0,
			"0.019": 0.0,
			"0.02": 0.0,
			"0.021": 0.0,
			"0.022": 0.0,
			"0.023": 0.0,
			"0.024": 0.0,
			"0.025": 0.0
		}
	}
}
