{
	 "smiles": "NC1=CC2=C(C=C1)N(CC1=CC=C(Cl)C=C1)C(=O)CC2", 
	 "Tm": 416.15, 
	 "num_atms": 35, 
	 "gaussian": { 
		 "optdone": 1, 
		 "sigma_profile": "yes", 
		 "theory": "DFT", 
		 "functional": "B3LYP", 
		 "basiset": "6-31G**", 
		 "properties": { 
			 "R2extent": 7565.4949, 
			 "electric_dipole_moment_norm": 5.36063863546, 
			 "electric_quadrupole_moment_norm": 15.0127257315, 
			 "total_energy": -1263.69457245, 
			 "HOMO_LUMO_gap": 0.17572, 
			 "cosmo_polarized_energy": -16.2, 
			 "cosmo_cavitation_energy": 39.49, 
			 "cosmo_dispersion_energy": -28.06, 
			 "cosmo_repulsion_energy": 2.16, 
			 "cosmo_total_nonelectrostatic_energy": 13.59, 
			 "SMD_solvation_energy": 6.06 
		},
		"coords": [
			{
				"x": 1.1841976402,
				"y": -4.2592284841,
				"z": 1.2146666912,
				"element": "N" 
			},
			{
				"x": 1.1246809544,
				"y": -2.8959430203,
				"z": 0.9088098482,
				"element": "C" 
			},
			{
				"x": 1.9096062751,
				"y": -2.3519729481,
				"z": -0.1204444274,
				"element": "C" 
			},
			{
				"x": 1.8153676128,
				"y": -1.0120895081,
				"z": -0.4856767976,
				"element": "C" 
			},
			{
				"x": 0.9277007255,
				"y": -0.1568708371,
				"z": 0.1979353407,
				"element": "C" 
			},
			{
				"x": 0.1444253439,
				"y": -0.6942593207,
				"z": 1.2262708145,
				"element": "C" 
			},
			{
				"x": 0.2376562326,
				"y": -2.0395518979,
				"z": 1.5747675975,
				"element": "C" 
			},
			{
				"x": 0.8411575276,
				"y": 1.2189289524,
				"z": -0.1758528276,
				"element": "N" 
			},
			{
				"x": -0.3157926934,
				"y": 2.0349162303,
				"z": 0.2237781678,
				"element": "C" 
			},
			{
				"x": -1.5761612883,
				"y": 1.7346288121,
				"z": -0.5643238251,
				"element": "C" 
			},
			{
				"x": -1.5963248295,
				"y": 1.933528444,
				"z": -1.9523958247,
				"element": "C" 
			},
			{
				"x": -2.746802828,
				"y": 1.682872957,
				"z": -2.6963314925,
				"element": "C" 
			},
			{
				"x": -3.894515233,
				"y": 1.2319292416,
				"z": -2.0420973833,
				"element": "C" 
			},
			{
				"x": -5.3522727909,
				"y": 0.9128563391,
				"z": -2.974899818,
				"element": "Cl" 
			},
			{
				"x": -3.9058562412,
				"y": 1.0343980427,
				"z": -0.6640061075,
				"element": "C" 
			},
			{
				"x": -2.7415634772,
				"y": 1.287553742,
				"z": 0.064568766,
				"element": "C" 
			},
			{
				"x": 1.8289792907,
				"y": 1.8502164009,
				"z": -0.9172017661,
				"element": "C" 
			},
			{
				"x": 1.7322050581,
				"y": 3.0204300519,
				"z": -1.2733593001,
				"element": "O" 
			},
			{
				"x": 3.0443986858,
				"y": 1.0018861256,
				"z": -1.2525051367,
				"element": "C" 
			},
			{
				"x": 2.6442759843,
				"y": -0.4326611406,
				"z": -1.6046170849,
				"element": "C" 
			},
			{
				"x": 2.0541396378,
				"y": -4.7125383955,
				"z": 0.9702967169,
				"element": "H" 
			},
			{
				"x": 0.8938419663,
				"y": -4.4971127871,
				"z": 2.1534009274,
				"element": "H" 
			},
			{
				"x": 2.6056737888,
				"y": -2.9932137811,
				"z": -0.6574819662,
				"element": "H" 
			},
			{
				"x": -0.551595205,
				"y": -0.0716089834,
				"z": 1.7738084165,
				"element": "H" 
			},
			{
				"x": -0.3894217622,
				"y": -2.4272086162,
				"z": 2.3734568666,
				"element": "H" 
			},
			{
				"x": -0.008277404,
				"y": 3.0676779327,
				"z": 0.0508577596,
				"element": "H" 
			},
			{
				"x": -0.495546833,
				"y": 1.9169777203,
				"z": 1.295914035,
				"element": "H" 
			},
			{
				"x": -0.7037383359,
				"y": 2.301832666,
				"z": -2.4497846222,
				"element": "H" 
			},
			{
				"x": -2.7599944354,
				"y": 1.8410240437,
				"z": -3.7691294223,
				"element": "H" 
			},
			{
				"x": -4.8061011987,
				"y": 0.685606338,
				"z": -0.1702914384,
				"element": "H" 
			},
			{
				"x": -2.7507548109,
				"y": 1.1356613256,
				"z": 1.1409485258,
				"element": "H" 
			},
			{
				"x": 3.7074465647,
				"y": 0.9983269561,
				"z": -0.3766234379,
				"element": "H" 
			},
			{
				"x": 3.5707697087,
				"y": 1.5046735706,
				"z": -2.0657345135,
				"element": "H" 
			},
			{
				"x": 2.059538301,
				"y": -0.4282192604,
				"z": -2.5361582797,
				"element": "H" 
			},
			{
				"x": 3.5288580684,
				"y": -1.0490469123,
				"z": -1.792665002,
				"element": "H" 
			}
		],
		 "valence_orbital": [ 
			{
				"type": "occ",
				"energy": -0.2595,
				"method": "rhf"
			},
			{
				"type": "occ",
				"energy": -0.25262,
				"method": "rhf"
			},
			{
				"type": "occ",
				"energy": -0.24887,
				"method": "rhf"
			},
			{
				"type": "occ",
				"energy": -0.23684,
				"method": "rhf"
			},
			{
				"type": "occ",
				"energy": -0.1911,
				"method": "rhf"
			},
			{
				"type": "unocc",
				"energy": -0.01538,
				"method": "rhf"
			},
			{
				"type": "unocc",
				"energy": -0.01021,
				"method": "rhf"
			},
			{
				"type": "unocc",
				"energy": -0.00515,
				"method": "rhf"
			},
			{
				"type": "unocc",
				"energy": -4e-05,
				"method": "rhf"
			},
			{
				"type": "unocc",
				"energy": 0.03157,
				"method": "rhf"
			}
		],
		"cosmo_sigma_profile": { 
			"-0.025": 0.0,
			"-0.024": 0.0,
			"-0.023": 0.0,
			"-0.022": 0.0,
			"-0.021": 0.0,
			"-0.02": 0.0,
			"-0.019": 0.0,
			"-0.018": 0.0,
			"-0.017": 0.0,
			"-0.016": 0.0,
			"-0.015": 0.0,
			"-0.014": 0.0,
			"-0.013": 0.113948978736,
			"-0.012": 2.02769166502,
			"-0.011": 2.85617271574,
			"-0.01": 2.78461086503,
			"-0.009": 4.33519773091,
			"-0.008": 5.13870041526,
			"-0.007": 9.09029995219,
			"-0.006": 13.3365130651,
			"-0.005": 22.0328002723,
			"-0.004": 25.7778429003,
			"-0.003": 24.1891023895,
			"-0.002": 22.7613486619,
			"-0.001": 20.4758377966,
			"0.0": 17.062298353,
			"0.001": 19.055983506,
			"0.002": 21.0002778308,
			"0.003": 23.3173895541,
			"0.004": 27.7092814514,
			"0.005": 18.1750430231,
			"0.006": 11.1424030396,
			"0.007": 4.06879783768,
			"0.008": 1.93592122744,
			"0.009": 2.73591724779,
			"0.01": 1.34376068516,
			"0.011": 2.59642370531,
			"0.012": 2.53642268887,
			"0.013": 4.29317620294,
			"0.014": 3.36512062168,
			"0.015": 0.84984794557,
			"0.016": 0.0,
			"0.017": 0.0,
			"0.018": 0.0,
			"0.019": 0.0,
			"0.02": 0.0,
			"0.021": 0.0,
			"0.022": 0.0,
			"0.023": 0.0,
			"0.024": 0.0,
			"0.025": 0.0
		}
	}
}
