{
	 "smiles": "NS(=O)(=O)C1=C(CN2C=CN=C2)C=CC=C1", 
	 "Tm": 423.15, 
	 "num_atms": 27, 
	 "gaussian": { 
		 "optdone": 1, 
		 "sigma_profile": "yes", 
		 "theory": "DFT", 
		 "functional": "B3LYP", 
		 "basiset": "6-31G**", 
		 "properties": { 
			 "R2extent": 3644.3172, 
			 "electric_dipole_moment_norm": 6.71169460718, 
			 "electric_quadrupole_moment_norm": 13.8590759591, 
			 "total_energy": -1100.50206059, 
			 "HOMO_LUMO_gap": 0.18504, 
			 "cosmo_polarized_energy": -20.94, 
			 "cosmo_cavitation_energy": 30.92, 
			 "cosmo_dispersion_energy": -22.71, 
			 "cosmo_repulsion_energy": 1.67, 
			 "cosmo_total_nonelectrostatic_energy": 9.88, 
			 "SMD_solvation_energy": 3.59 
		},
		"coords": [
			{
				"x": -0.4358973974,
				"y": 1.095477547,
				"z": 2.2363334238,
				"element": "N" 
			},
			{
				"x": -0.2075653759,
				"y": -0.5510795183,
				"z": 2.2550193985,
				"element": "S" 
			},
			{
				"x": 1.2011020292,
				"y": -0.7664468961,
				"z": 2.5967228231,
				"element": "O" 
			},
			{
				"x": -1.29216568,
				"y": -1.0930276617,
				"z": 3.0714961996,
				"element": "O" 
			},
			{
				"x": -0.4763770503,
				"y": -1.1945948109,
				"z": 0.575248149,
				"element": "C" 
			},
			{
				"x": 0.5010444384,
				"y": -1.1666538137,
				"z": -0.4431724348,
				"element": "C" 
			},
			{
				"x": 1.8963639136,
				"y": -0.5860088472,
				"z": -0.2841096709,
				"element": "C" 
			},
			{
				"x": 1.8961941066,
				"y": 0.8740611547,
				"z": -0.1815486508,
				"element": "N" 
			},
			{
				"x": 1.3107318158,
				"y": 1.7657993909,
				"z": -1.0608321903,
				"element": "C" 
			},
			{
				"x": 1.5447384076,
				"y": 3.0116089724,
				"z": -0.5335256264,
				"element": "C" 
			},
			{
				"x": 2.256252591,
				"y": 2.9155881526,
				"z": 0.6429628477,
				"element": "N" 
			},
			{
				"x": 2.45818231,
				"y": 1.6239848683,
				"z": 0.8186456159,
				"element": "C" 
			},
			{
				"x": 0.1602549186,
				"y": -1.7243452268,
				"z": -1.6817493935,
				"element": "C" 
			},
			{
				"x": -1.0948754561,
				"y": -2.2866629493,
				"z": -1.9179563537,
				"element": "C" 
			},
			{
				"x": -2.0449078705,
				"y": -2.3074975149,
				"z": -0.9003041884,
				"element": "C" 
			},
			{
				"x": -1.7312386738,
				"y": -1.7657365347,
				"z": 0.3462047462,
				"element": "C" 
			},
			{
				"x": -1.3853472349,
				"y": 1.3845692888,
				"z": 2.0336271325,
				"element": "H" 
			},
			{
				"x": 0.2947337024,
				"y": 1.6442154994,
				"z": 1.7909223458,
				"element": "H" 
			},
			{
				"x": 2.3706252555,
				"y": -0.9698034624,
				"z": 0.6194031371,
				"element": "H" 
			},
			{
				"x": 2.5006799341,
				"y": -0.8821087244,
				"z": -1.1474809072,
				"element": "H" 
			},
			{
				"x": 0.7891482515,
				"y": 1.4342947849,
				"z": -1.9453191826,
				"element": "H" 
			},
			{
				"x": 1.2412217456,
				"y": 3.9700827238,
				"z": -0.9318023614,
				"element": "H" 
			},
			{
				"x": 2.97045144,
				"y": 1.163623287,
				"z": 1.6519964199,
				"element": "H" 
			},
			{
				"x": 0.903058155,
				"y": -1.7221373134,
				"z": -2.4752225117,
				"element": "H" 
			},
			{
				"x": -1.3217434983,
				"y": -2.7111871966,
				"z": -2.8912588044,
				"element": "H" 
			},
			{
				"x": -3.0219612442,
				"y": -2.7507427708,
				"z": -1.0655559378,
				"element": "H" 
			},
			{
				"x": -2.4449035337,
				"y": -1.8004724289,
				"z": 1.1613559746,
				"element": "H" 
			}
		],
		 "valence_orbital": [ 
			{
				"type": "occ",
				"energy": -0.28665,
				"method": "rhf"
			},
			{
				"type": "occ",
				"energy": -0.27797,
				"method": "rhf"
			},
			{
				"type": "occ",
				"energy": -0.27444,
				"method": "rhf"
			},
			{
				"type": "occ",
				"energy": -0.26946,
				"method": "rhf"
			},
			{
				"type": "occ",
				"energy": -0.23767,
				"method": "rhf"
			},
			{
				"type": "unocc",
				"energy": -0.05263,
				"method": "rhf"
			},
			{
				"type": "unocc",
				"energy": -0.03411,
				"method": "rhf"
			},
			{
				"type": "unocc",
				"energy": 0.01432,
				"method": "rhf"
			},
			{
				"type": "unocc",
				"energy": 0.05019,
				"method": "rhf"
			},
			{
				"type": "unocc",
				"energy": 0.06032,
				"method": "rhf"
			}
		],
		"cosmo_sigma_profile": { 
			"-0.025": 0.0,
			"-0.024": 0.0,
			"-0.023": 0.0,
			"-0.022": 0.0,
			"-0.021": 0.0,
			"-0.02": 0.0,
			"-0.019": 0.0,
			"-0.018": 0.0,
			"-0.017": 0.0,
			"-0.016": 0.521567332697,
			"-0.015": 1.36643504633,
			"-0.014": 1.04752468236,
			"-0.013": 1.54337497869,
			"-0.012": 1.17660999071,
			"-0.011": 0.986126418825,
			"-0.01": 1.27944507474,
			"-0.009": 1.22914865077,
			"-0.008": 6.68952052431,
			"-0.007": 15.0677199215,
			"-0.006": 18.7702378297,
			"-0.005": 18.4120864356,
			"-0.004": 16.9912190883,
			"-0.003": 16.4000395123,
			"-0.002": 12.2207782495,
			"-0.001": 11.9410844723,
			"0.0": 14.829727475,
			"0.001": 14.4102132656,
			"0.002": 16.8903040705,
			"0.003": 14.0992196778,
			"0.004": 6.51628225938,
			"0.005": 6.53720087874,
			"0.006": 5.4181488785,
			"0.007": 6.04658845304,
			"0.008": 5.29840994378,
			"0.009": 4.98543503905,
			"0.01": 7.86778762296,
			"0.011": 8.78542129063,
			"0.012": 5.04217772033,
			"0.013": 0.941317953727,
			"0.014": 0.298361923058,
			"0.015": 1.4764366983,
			"0.016": 1.14027244156,
			"0.017": 0.997541375339,
			"0.018": 0.429790598265,
			"0.019": 0.0,
			"0.02": 0.0,
			"0.021": 0.0,
			"0.022": 0.0,
			"0.023": 0.0,
			"0.024": 0.0,
			"0.025": 0.0
		}
	}
}
