{
	 "smiles": "SC1=NN=C(S1)C1=CC=CC=C1", 
	 "Tm": 473.15, 
	 "num_atms": 18, 
	 "gaussian": { 
		 "optdone": 1, 
		 "sigma_profile": "yes", 
		 "theory": "DFT", 
		 "functional": "B3LYP", 
		 "basiset": "6-31G**", 
		 "properties": { 
			 "R2extent": 4418.3436, 
			 "electric_dipole_moment_norm": 3.89258603116, 
			 "electric_quadrupole_moment_norm": 17.9003814119, 
			 "total_energy": -1214.30848374, 
			 "HOMO_LUMO_gap": 0.16727, 
			 "cosmo_polarized_energy": -11.75, 
			 "cosmo_cavitation_energy": 26.08, 
			 "cosmo_dispersion_energy": -20.56, 
			 "cosmo_repulsion_energy": 1.52, 
			 "cosmo_total_nonelectrostatic_energy": 7.04, 
			 "SMD_solvation_energy": 1.88 
		},
		"coords": [
			{
				"x": -2.3420015201,
				"y": 1.3923172275,
				"z": 5.1833876266,
				"element": "S" 
			},
			{
				"x": -1.3534970139,
				"y": 1.0066562899,
				"z": 3.7714391383,
				"element": "C" 
			},
			{
				"x": -0.1345500903,
				"y": 0.5727429969,
				"z": 3.9168098649,
				"element": "N" 
			},
			{
				"x": 0.4844278431,
				"y": 0.3246445619,
				"z": 2.7300146285,
				"element": "N" 
			},
			{
				"x": -0.2511633825,
				"y": 0.5653056605,
				"z": 1.6774296456,
				"element": "C" 
			},
			{
				"x": -1.8673289254,
				"y": 1.1544845866,
				"z": 2.0984080616,
				"element": "S" 
			},
			{
				"x": 0.2084041018,
				"y": 0.3700857647,
				"z": 0.2977717388,
				"element": "C" 
			},
			{
				"x": 1.5147125795,
				"y": -0.1028840078,
				"z": 0.0754712359,
				"element": "C" 
			},
			{
				"x": 1.9767511669,
				"y": -0.2973416282,
				"z": -1.2222825629,
				"element": "C" 
			},
			{
				"x": 1.1494835848,
				"y": -0.0253089921,
				"z": -2.3158404364,
				"element": "C" 
			},
			{
				"x": -0.1476649547,
				"y": 0.4442256371,
				"z": -2.1026282043,
				"element": "C" 
			},
			{
				"x": -0.616424798,
				"y": 0.6410843367,
				"z": -0.8052488865,
				"element": "C" 
			},
			{
				"x": -3.4357024723,
				"y": 1.7691320257,
				"z": 4.4934562862,
				"element": "H" 
			},
			{
				"x": 2.1469448369,
				"y": -0.3103562247,
				"z": 0.9313702562,
				"element": "H" 
			},
			{
				"x": 2.9868614523,
				"y": -0.6628035041,
				"z": -1.3820004349,
				"element": "H" 
			},
			{
				"x": 1.5139673022,
				"y": -0.1784344858,
				"z": -3.3273140286,
				"element": "H" 
			},
			{
				"x": -0.7967752061,
				"y": 0.6580219835,
				"z": -2.9464352363,
				"element": "H" 
			},
			{
				"x": -1.6284445039,
				"y": 1.0070277716,
				"z": -0.6543086928,
				"element": "H" 
			}
		],
		 "valence_orbital": [ 
			{
				"type": "occ",
				"energy": -0.30627,
				"method": "rhf"
			},
			{
				"type": "occ",
				"energy": -0.27399,
				"method": "rhf"
			},
			{
				"type": "occ",
				"energy": -0.26879,
				"method": "rhf"
			},
			{
				"type": "occ",
				"energy": -0.26396,
				"method": "rhf"
			},
			{
				"type": "occ",
				"energy": -0.23178,
				"method": "rhf"
			},
			{
				"type": "unocc",
				"energy": -0.06451,
				"method": "rhf"
			},
			{
				"type": "unocc",
				"energy": -0.02896,
				"method": "rhf"
			},
			{
				"type": "unocc",
				"energy": -0.01485,
				"method": "rhf"
			},
			{
				"type": "unocc",
				"energy": -0.00189,
				"method": "rhf"
			},
			{
				"type": "unocc",
				"energy": 0.02,
				"method": "rhf"
			}
		],
		"cosmo_sigma_profile": { 
			"-0.025": 0.0,
			"-0.024": 0.0,
			"-0.023": 0.0,
			"-0.022": 0.0,
			"-0.021": 0.0,
			"-0.02": 0.0,
			"-0.019": 0.0,
			"-0.018": 0.0,
			"-0.017": 0.0,
			"-0.016": 0.0,
			"-0.015": 0.0,
			"-0.014": 0.0,
			"-0.013": 1.782043104,
			"-0.012": 2.44010152121,
			"-0.011": 2.16038897753,
			"-0.01": 1.89704037193,
			"-0.009": 1.04809044441,
			"-0.008": 2.30572400377,
			"-0.007": 5.0024331241,
			"-0.006": 11.723016642,
			"-0.005": 12.6805777769,
			"-0.004": 12.6544214278,
			"-0.003": 11.2537729919,
			"-0.002": 16.2155881577,
			"-0.001": 16.0337696286,
			"0.0": 16.4603257278,
			"0.001": 18.7589499425,
			"0.002": 18.7871208484,
			"0.003": 17.178699392,
			"0.004": 17.8537157944,
			"0.005": 6.59164890267,
			"0.006": 4.64707109062,
			"0.007": 2.83482852235,
			"0.008": 2.42763567547,
			"0.009": 2.44187329038,
			"0.01": 1.89703996208,
			"0.011": 3.5638344689,
			"0.012": 2.75959396114,
			"0.013": 1.41255695687,
			"0.014": 0.634206234366,
			"0.015": 0.0233401031142,
			"0.016": 0.0,
			"0.017": 0.0,
			"0.018": 0.0,
			"0.019": 0.0,
			"0.02": 0.0,
			"0.021": 0.0,
			"0.022": 0.0,
			"0.023": 0.0,
			"0.024": 0.0,
			"0.025": 0.0
		}
	}
}
