{
	 "smiles": "CC(N(C)C)C(=O)NC1=C(C)N(C)N(C1=O)C1=CC=CC=C1", 
	 "Tm": 454.15, 
	 "num_atms": 44, 
	 "gaussian": { 
		 "optdone": 1, 
		 "sigma_profile": "yes", 
		 "theory": "DFT", 
		 "functional": "B3LYP", 
		 "basiset": "6-31G**", 
		 "properties": { 
			 "R2extent": 7854.5001, 
			 "electric_dipole_moment_norm": 6.72906301724, 
			 "electric_quadrupole_moment_norm": 11.1275956123, 
			 "total_energy": -992.394720589, 
			 "HOMO_LUMO_gap": 0.18011, 
			 "cosmo_polarized_energy": -20.33, 
			 "cosmo_cavitation_energy": 45.8, 
			 "cosmo_dispersion_energy": -29.68, 
			 "cosmo_repulsion_energy": 2.25, 
			 "cosmo_total_nonelectrostatic_energy": 18.38, 
			 "SMD_solvation_energy": 9.44 
		},
		"coords": [
			{
				"x": 0.8850168079,
				"y": -1.9547517509,
				"z": 3.6182583493,
				"element": "C" 
			},
			{
				"x": 1.0321199528,
				"y": -0.8449281582,
				"z": 2.5677687955,
				"element": "C" 
			},
			{
				"x": 1.1138705198,
				"y": 0.5377509792,
				"z": 3.084352773,
				"element": "N" 
			},
			{
				"x": 2.1696681896,
				"y": 0.7448328796,
				"z": 4.0737832713,
				"element": "C" 
			},
			{
				"x": -0.1679909324,
				"y": 1.0450155119,
				"z": 3.5547993012,
				"element": "C" 
			},
			{
				"x": 2.2708811953,
				"y": -1.1136330191,
				"z": 1.6920364301,
				"element": "C" 
			},
			{
				"x": 3.2203791787,
				"y": -1.7812958333,
				"z": 2.0779921574,
				"element": "O" 
			},
			{
				"x": 2.2901210809,
				"y": -0.5322451566,
				"z": 0.4398600164,
				"element": "N" 
			},
			{
				"x": 1.2332054873,
				"y": 0.1393785332,
				"z": -0.2038662151,
				"element": "C" 
			},
			{
				"x": 1.0776450495,
				"y": 1.4876987868,
				"z": -0.3267188318,
				"element": "C" 
			},
			{
				"x": 1.8844851456,
				"y": 2.5732714797,
				"z": 0.3010506254,
				"element": "C" 
			},
			{
				"x": -0.0060589187,
				"y": 1.7760787456,
				"z": -1.1466877348,
				"element": "N" 
			},
			{
				"x": -0.942512621,
				"y": 2.8321670434,
				"z": -0.737685458,
				"element": "C" 
			},
			{
				"x": -0.6289457523,
				"y": 0.5394958367,
				"z": -1.4443347712,
				"element": "N" 
			},
			{
				"x": 0.1517203484,
				"y": -0.5282335763,
				"z": -0.9265464407,
				"element": "C" 
			},
			{
				"x": -0.0796547906,
				"y": -1.7166190453,
				"z": -1.0946642969,
				"element": "O" 
			},
			{
				"x": -1.4358092888,
				"y": 0.4377598116,
				"z": -2.6085954479,
				"element": "C" 
			},
			{
				"x": -2.3516698973,
				"y": -0.619497907,
				"z": -2.7041706127,
				"element": "C" 
			},
			{
				"x": -3.1470815597,
				"y": -0.7355033226,
				"z": -3.8425023859,
				"element": "C" 
			},
			{
				"x": -3.057393982,
				"y": 0.1993987139,
				"z": -4.8763798927,
				"element": "C" 
			},
			{
				"x": -2.1451691861,
				"y": 1.2501604942,
				"z": -4.773312058,
				"element": "C" 
			},
			{
				"x": -1.3257387832,
				"y": 1.3687716005,
				"z": -3.6506249975,
				"element": "C" 
			},
			{
				"x": 0.0472121466,
				"y": -1.7465934661,
				"z": 4.2905179736,
				"element": "H" 
			},
			{
				"x": 1.799056327,
				"y": -2.0670196067,
				"z": 4.2041358015,
				"element": "H" 
			},
			{
				"x": 0.6929936071,
				"y": -2.912532195,
				"z": 3.1262148287,
				"element": "H" 
			},
			{
				"x": 0.1560791501,
				"y": -0.8673767892,
				"z": 1.91049262,
				"element": "H" 
			},
			{
				"x": 3.1111554998,
				"y": 0.3258804444,
				"z": 3.7107289285,
				"element": "H" 
			},
			{
				"x": 2.3081705549,
				"y": 1.8202420736,
				"z": 4.2314288612,
				"element": "H" 
			},
			{
				"x": 1.952716672,
				"y": 0.2885147745,
				"z": 5.0554099365,
				"element": "H" 
			},
			{
				"x": -0.5501575976,
				"y": 0.5407010917,
				"z": 4.4611082129,
				"element": "H" 
			},
			{
				"x": -0.9218988952,
				"y": 0.9399442813,
				"z": 2.7671776139,
				"element": "H" 
			},
			{
				"x": -0.0704480069,
				"y": 2.110556743,
				"z": 3.792411021,
				"element": "H" 
			},
			{
				"x": 3.0762134729,
				"y": -0.8449074056,
				"z": -0.1192754917,
				"element": "H" 
			},
			{
				"x": 2.8016448637,
				"y": 2.1429790871,
				"z": 0.704986302,
				"element": "H" 
			},
			{
				"x": 1.3461531675,
				"y": 3.0362508254,
				"z": 1.1349208022,
				"element": "H" 
			},
			{
				"x": 2.139129875,
				"y": 3.3526249959,
				"z": -0.4240736138,
				"element": "H" 
			},
			{
				"x": -1.6799546117,
				"y": 2.9788959127,
				"z": -1.5271759366,
				"element": "H" 
			},
			{
				"x": -0.3830450421,
				"y": 3.7597046329,
				"z": -0.6087020483,
				"element": "H" 
			},
			{
				"x": -1.4586766759,
				"y": 2.5780931436,
				"z": 0.1969769782,
				"element": "H" 
			},
			{
				"x": -2.4126676317,
				"y": -1.3438004767,
				"z": -1.9025508226,
				"element": "H" 
			},
			{
				"x": -3.8492325691,
				"y": -1.5609430422,
				"z": -3.9151619826,
				"element": "H" 
			},
			{
				"x": -3.6891407514,
				"y": 0.1072415313,
				"z": -5.754601101,
				"element": "H" 
			},
			{
				"x": -2.0561776034,
				"y": 1.9770164932,
				"z": -5.5756927328,
				"element": "H" 
			},
			{
				"x": -0.5891131952,
				"y": 2.1620543039,
				"z": -3.5857887271,
				"element": "H" 
			}
		],
		 "valence_orbital": [ 
			{
				"type": "occ",
				"energy": -0.25195,
				"method": "rhf"
			},
			{
				"type": "occ",
				"energy": -0.24492,
				"method": "rhf"
			},
			{
				"type": "occ",
				"energy": -0.23361,
				"method": "rhf"
			},
			{
				"type": "occ",
				"energy": -0.21655,
				"method": "rhf"
			},
			{
				"type": "occ",
				"energy": -0.20924,
				"method": "rhf"
			},
			{
				"type": "unocc",
				"energy": -0.02913,
				"method": "rhf"
			},
			{
				"type": "unocc",
				"energy": -0.00526,
				"method": "rhf"
			},
			{
				"type": "unocc",
				"energy": 0.0032,
				"method": "rhf"
			},
			{
				"type": "unocc",
				"energy": 0.02301,
				"method": "rhf"
			},
			{
				"type": "unocc",
				"energy": 0.05934,
				"method": "rhf"
			}
		],
		"cosmo_sigma_profile": { 
			"-0.025": 0.0,
			"-0.024": 0.0,
			"-0.023": 0.0,
			"-0.022": 0.0,
			"-0.021": 0.0,
			"-0.02": 0.0,
			"-0.019": 0.0,
			"-0.018": 0.0,
			"-0.017": 0.0,
			"-0.016": 0.0,
			"-0.015": 0.0,
			"-0.014": 0.514898686739,
			"-0.013": 1.24719871898,
			"-0.012": 0.819016573616,
			"-0.011": 0.516270977892,
			"-0.01": 1.1920915632,
			"-0.009": 0.936326958997,
			"-0.008": 0.790396962036,
			"-0.007": 3.04332734773,
			"-0.006": 12.8976926384,
			"-0.005": 22.1199891002,
			"-0.004": 33.8969653384,
			"-0.003": 41.9561058075,
			"-0.002": 40.6580046104,
			"-0.001": 42.2172280374,
			"0.0": 35.3075881451,
			"0.001": 20.7787125524,
			"0.002": 17.1502730841,
			"0.003": 14.7233641814,
			"0.004": 13.6691497527,
			"0.005": 15.268106031,
			"0.006": 5.51701063952,
			"0.007": 3.50499650725,
			"0.008": 3.43796736205,
			"0.009": 2.99360475889,
			"0.01": 2.62166035484,
			"0.011": 3.25737182051,
			"0.012": 3.92825088215,
			"0.013": 8.29060765746,
			"0.014": 6.7538375346,
			"0.015": 0.390122089481,
			"0.016": 0.0,
			"0.017": 0.0,
			"0.018": 0.0,
			"0.019": 0.0,
			"0.02": 0.0,
			"0.021": 0.0,
			"0.022": 0.0,
			"0.023": 0.0,
			"0.024": 0.0,
			"0.025": 0.0
		}
	}
}
