{
	 "smiles": "ClC1=C(Cl)C(Cl)=C(Cl)C2=C1C(=O)NC2=O", 
	 "Tm": 573.15, 
	 "num_atms": 16, 
	 "gaussian": { 
		 "optdone": 1, 
		 "sigma_profile": "yes", 
		 "theory": "DFT", 
		 "functional": "B3LYP", 
		 "basiset": "6-31G**", 
		 "properties": { 
			 "R2extent": 4586.5049, 
			 "electric_dipole_moment_norm": 0.35246723252, 
			 "electric_quadrupole_moment_norm": 10.929214803, 
			 "total_energy": -2351.42399349, 
			 "HOMO_LUMO_gap": 0.16726, 
			 "cosmo_polarized_energy": -11.64, 
			 "cosmo_cavitation_energy": 28.53, 
			 "cosmo_dispersion_energy": -21.68, 
			 "cosmo_repulsion_energy": 1.67, 
			 "cosmo_total_nonelectrostatic_energy": 8.52, 
			 "SMD_solvation_energy": 5.18 
		},
		"coords": [
			{
				"x": -0.3233003188,
				"y": -3.1760711163,
				"z": -0.6638896201,
				"element": "Cl" 
			},
			{
				"x": -0.4776353483,
				"y": -1.5176099247,
				"z": -0.1943852333,
				"element": "C" 
			},
			{
				"x": -1.362306897,
				"y": -1.1332447775,
				"z": 0.8379458517,
				"element": "C" 
			},
			{
				"x": -2.3064997933,
				"y": -2.3390325131,
				"z": 1.6459565964,
				"element": "Cl" 
			},
			{
				"x": -1.481677502,
				"y": 0.2206571773,
				"z": 1.2139424064,
				"element": "C" 
			},
			{
				"x": -2.5718942575,
				"y": 0.6705871012,
				"z": 2.481733446,
				"element": "Cl" 
			},
			{
				"x": -0.7187271857,
				"y": 1.2171643684,
				"z": 0.5651217414,
				"element": "C" 
			},
			{
				"x": -0.857320565,
				"y": 2.8815010971,
				"z": 1.0184660145,
				"element": "Cl" 
			},
			{
				"x": 0.144981173,
				"y": 0.8197073312,
				"z": -0.4467637744,
				"element": "C" 
			},
			{
				"x": 0.2634342993,
				"y": -0.5239295023,
				"z": -0.8199192655,
				"element": "C" 
			},
			{
				"x": 1.2704836265,
				"y": -0.6196048713,
				"z": -1.932856421,
				"element": "C" 
			},
			{
				"x": 1.6646397417,
				"y": -1.5903339276,
				"z": -2.5379019159,
				"element": "O" 
			},
			{
				"x": 1.6853514812,
				"y": 0.6981397451,
				"z": -2.1444605997,
				"element": "N" 
			},
			{
				"x": 1.0717970745,
				"y": 1.6338780471,
				"z": -1.3070385632,
				"element": "C" 
			},
			{
				"x": 1.275176888,
				"y": 2.8265111834,
				"z": -1.3113059399,
				"element": "O" 
			},
			{
				"x": 2.3700975832,
				"y": 0.9524805819,
				"z": -2.8429447233,
				"element": "H" 
			}
		],
		 "valence_orbital": [ 
			{
				"type": "occ",
				"energy": -0.31316,
				"method": "rhf"
			},
			{
				"type": "occ",
				"energy": -0.31157,
				"method": "rhf"
			},
			{
				"type": "occ",
				"energy": -0.2852,
				"method": "rhf"
			},
			{
				"type": "occ",
				"energy": -0.28201,
				"method": "rhf"
			},
			{
				"type": "occ",
				"energy": -0.27622,
				"method": "rhf"
			},
			{
				"type": "unocc",
				"energy": -0.10896,
				"method": "rhf"
			},
			{
				"type": "unocc",
				"energy": -0.07456,
				"method": "rhf"
			},
			{
				"type": "unocc",
				"energy": -0.04381,
				"method": "rhf"
			},
			{
				"type": "unocc",
				"energy": -0.00879,
				"method": "rhf"
			},
			{
				"type": "unocc",
				"energy": 0.00764,
				"method": "rhf"
			}
		],
		"cosmo_sigma_profile": { 
			"-0.025": 0.0,
			"-0.024": 0.0,
			"-0.023": 0.0,
			"-0.022": 0.0,
			"-0.021": 0.0,
			"-0.02": 0.0,
			"-0.019": 0.0,
			"-0.018": 0.155978346026,
			"-0.017": 1.55038847755,
			"-0.016": 1.0483774138,
			"-0.015": 0.822038346715,
			"-0.014": 1.07679740155,
			"-0.013": 0.368451449533,
			"-0.012": 1.37817108233,
			"-0.011": 1.21733308524,
			"-0.01": 0.330667292763,
			"-0.009": 0.866762048527,
			"-0.008": 2.34792380177,
			"-0.007": 3.65654905675,
			"-0.006": 4.97016448429,
			"-0.005": 10.1292391666,
			"-0.004": 27.4275497649,
			"-0.003": 24.0528168751,
			"-0.002": 14.9821860611,
			"-0.001": 14.5328562926,
			"0.0": 15.1796259578,
			"0.001": 20.7416162443,
			"0.002": 29.7403844023,
			"0.003": 22.6357198136,
			"0.004": 5.03514936397,
			"0.005": 3.46829637576,
			"0.006": 2.71122669046,
			"0.007": 3.75867971628,
			"0.008": 4.74855633818,
			"0.009": 5.88263603924,
			"0.01": 10.1845435232,
			"0.011": 4.90885006091,
			"0.012": 0.041465591856,
			"0.013": 0.0,
			"0.014": 0.0,
			"0.015": 0.0,
			"0.016": 0.0,
			"0.017": 0.0,
			"0.018": 0.0,
			"0.019": 0.0,
			"0.02": 0.0,
			"0.021": 0.0,
			"0.022": 0.0,
			"0.023": 0.0,
			"0.024": 0.0,
			"0.025": 0.0
		}
	}
}
