{
	 "smiles": "CCN(CC)CC1=CSC(N)=N1", 
	 "Tm": 338.15, 
	 "num_atms": 27, 
	 "gaussian": { 
		 "optdone": 1, 
		 "sigma_profile": "yes", 
		 "theory": "DFT", 
		 "functional": "B3LYP", 
		 "basiset": "6-31G**", 
		 "properties": { 
			 "R2extent": 2912.3406, 
			 "electric_dipole_moment_norm": 2.01638854639, 
			 "electric_quadrupole_moment_norm": 10.291125317, 
			 "total_energy": -876.321749835, 
			 "HOMO_LUMO_gap": 0.18819, 
			 "cosmo_polarized_energy": -9.94, 
			 "cosmo_cavitation_energy": 30.25, 
			 "cosmo_dispersion_energy": -21.78, 
			 "cosmo_repulsion_energy": 1.72, 
			 "cosmo_total_nonelectrostatic_energy": 10.19, 
			 "SMD_solvation_energy": 2.46 
		},
		"coords": [
			{
				"x": 1.4755818484,
				"y": 2.1477478609,
				"z": 0.6042584443,
				"element": "C" 
			},
			{
				"x": 2.1412783539,
				"y": 1.0010925108,
				"z": -0.1760910737,
				"element": "C" 
			},
			{
				"x": 1.5393303322,
				"y": -0.329693744,
				"z": -0.0991423842,
				"element": "N" 
			},
			{
				"x": 1.4687561864,
				"y": -0.9064144686,
				"z": 1.239534547,
				"element": "C" 
			},
			{
				"x": 1.559184351,
				"y": -2.436222206,
				"z": 1.2414382589,
				"element": "C" 
			},
			{
				"x": 0.4159340965,
				"y": -0.6213807774,
				"z": -0.9880988905,
				"element": "C" 
			},
			{
				"x": -0.9807010587,
				"y": -0.2037247571,
				"z": -0.5579715779,
				"element": "C" 
			},
			{
				"x": -1.9074954684,
				"y": -1.0455533955,
				"z": -0.0182257583,
				"element": "C" 
			},
			{
				"x": -3.3959857609,
				"y": -0.18854696,
				"z": 0.3188523425,
				"element": "S" 
			},
			{
				"x": -2.6178537128,
				"y": 1.2748277,
				"z": -0.3014128816,
				"element": "C" 
			},
			{
				"x": -3.3135753851,
				"y": 2.4596895426,
				"z": -0.4029663988,
				"element": "N" 
			},
			{
				"x": -1.3944528133,
				"y": 1.1116149841,
				"z": -0.712586387,
				"element": "N" 
			},
			{
				"x": 1.413695066,
				"y": 1.9193905788,
				"z": 1.6740793685,
				"element": "H" 
			},
			{
				"x": 0.4666580107,
				"y": 2.3395327366,
				"z": 0.2329392226,
				"element": "H" 
			},
			{
				"x": 2.070337271,
				"y": 3.0628870019,
				"z": 0.4977292186,
				"element": "H" 
			},
			{
				"x": 2.1946950808,
				"y": 1.2726258092,
				"z": -1.2373874195,
				"element": "H" 
			},
			{
				"x": 3.1812378831,
				"y": 0.9023647627,
				"z": 0.1675028179,
				"element": "H" 
			},
			{
				"x": 0.5626551044,
				"y": -0.5971284197,
				"z": 1.7903448503,
				"element": "H" 
			},
			{
				"x": 2.3209434137,
				"y": -0.509529175,
				"z": 1.8036211705,
				"element": "H" 
			},
			{
				"x": 1.5967544236,
				"y": -2.8116257527,
				"z": 2.2696461054,
				"element": "H" 
			},
			{
				"x": 0.694951153,
				"y": -2.9027641366,
				"z": 0.7579865701,
				"element": "H" 
			},
			{
				"x": 2.4593669852,
				"y": -2.7683179884,
				"z": 0.715178881,
				"element": "H" 
			},
			{
				"x": 0.6289876191,
				"y": -0.148521067,
				"z": -1.952850255,
				"element": "H" 
			},
			{
				"x": 0.3910170606,
				"y": -1.7028432011,
				"z": -1.1664336731,
				"element": "H" 
			},
			{
				"x": -1.820845322,
				"y": -2.1014919427,
				"z": 0.1929785159,
				"element": "H" 
			},
			{
				"x": -2.7123119503,
				"y": 3.2530669399,
				"z": -0.5841521477,
				"element": "H" 
			},
			{
				"x": -4.018942768,
				"y": 2.6346175643,
				"z": 0.2984285336,
				"element": "H" 
			}
		],
		 "valence_orbital": [ 
			{
				"type": "occ",
				"energy": -0.31444,
				"method": "rhf"
			},
			{
				"type": "occ",
				"energy": -0.27198,
				"method": "rhf"
			},
			{
				"type": "occ",
				"energy": -0.26808,
				"method": "rhf"
			},
			{
				"type": "occ",
				"energy": -0.20889,
				"method": "rhf"
			},
			{
				"type": "occ",
				"energy": -0.19095,
				"method": "rhf"
			},
			{
				"type": "unocc",
				"energy": -0.00276,
				"method": "rhf"
			},
			{
				"type": "unocc",
				"energy": 0.01372,
				"method": "rhf"
			},
			{
				"type": "unocc",
				"energy": 0.0567,
				"method": "rhf"
			},
			{
				"type": "unocc",
				"energy": 0.07078,
				"method": "rhf"
			},
			{
				"type": "unocc",
				"energy": 0.08613,
				"method": "rhf"
			}
		],
		"cosmo_sigma_profile": { 
			"-0.025": 0.0,
			"-0.024": 0.0,
			"-0.023": 0.0,
			"-0.022": 0.0,
			"-0.021": 0.0,
			"-0.02": 0.0,
			"-0.019": 0.0,
			"-0.018": 0.0,
			"-0.017": 0.0,
			"-0.016": 0.0,
			"-0.015": 0.154759675426,
			"-0.014": 1.85980192406,
			"-0.013": 2.03535151353,
			"-0.012": 2.60945648803,
			"-0.011": 3.09370473747,
			"-0.01": 2.37764641148,
			"-0.009": 1.87442392185,
			"-0.008": 2.10778234575,
			"-0.007": 3.67480141972,
			"-0.006": 3.56308447484,
			"-0.005": 5.95934909419,
			"-0.004": 8.82400958563,
			"-0.003": 14.5055117291,
			"-0.002": 24.5289839164,
			"-0.001": 24.7651845948,
			"0.0": 28.4704908495,
			"0.001": 24.1212612184,
			"0.002": 23.2948709765,
			"0.003": 17.6764586043,
			"0.004": 12.5448017404,
			"0.005": 10.3217031291,
			"0.006": 4.57598269364,
			"0.007": 3.38906337734,
			"0.008": 2.57660458961,
			"0.009": 1.91729368012,
			"0.01": 1.91437112689,
			"0.011": 2.42628321827,
			"0.012": 1.48872892184,
			"0.013": 0.664023914239,
			"0.014": 1.08454690729,
			"0.015": 0.162451214241,
			"0.016": 0.0,
			"0.017": 0.0,
			"0.018": 0.0,
			"0.019": 0.0,
			"0.02": 0.0,
			"0.021": 0.0,
			"0.022": 0.0,
			"0.023": 0.0,
			"0.024": 0.0,
			"0.025": 0.0
		}
	}
}
