{
	 "smiles": "ClC(=O)C1=CC=CO1", 
	 "Tm": 271.65, 
	 "num_atms": 11, 
	 "gaussian": { 
		 "optdone": 1, 
		 "sigma_profile": "yes", 
		 "theory": "DFT", 
		 "functional": "B3LYP", 
		 "basiset": "6-31G**", 
		 "properties": { 
			 "R2extent": 1780.3587, 
			 "electric_dipole_moment_norm": 4.55773263147, 
			 "electric_quadrupole_moment_norm": 8.56511630452, 
			 "total_energy": -802.953615384, 
			 "HOMO_LUMO_gap": 0.18725, 
			 "cosmo_polarized_energy": -7.5, 
			 "cosmo_cavitation_energy": 18.14, 
			 "cosmo_dispersion_energy": -13.55, 
			 "cosmo_repulsion_energy": 1.13, 
			 "cosmo_total_nonelectrostatic_energy": 5.72, 
			 "SMD_solvation_energy": 4.97 
		},
		"coords": [
			{
				"x": 1.7148294197,
				"y": 2.813644188,
				"z": 2.0634427244,
				"element": "Cl" 
			},
			{
				"x": 0.5497143888,
				"y": 2.6002950393,
				"z": 0.6902116604,
				"element": "C" 
			},
			{
				"x": 0.0086053564,
				"y": 3.5446926413,
				"z": 0.1889295176,
				"element": "O" 
			},
			{
				"x": 0.3541010231,
				"y": 1.220033199,
				"z": 0.2839152037,
				"element": "C" 
			},
			{
				"x": -0.4519225613,
				"y": 0.7208606105,
				"z": -0.7123777483,
				"element": "C" 
			},
			{
				"x": -0.2783354373,
				"y": -0.6892071247,
				"z": -0.6961007544,
				"element": "C" 
			},
			{
				"x": 0.6185017625,
				"y": -0.9446669032,
				"z": 0.3065907583,
				"element": "C" 
			},
			{
				"x": 1.0113116385,
				"y": 0.1987459292,
				"z": 0.9096556782,
				"element": "O" 
			},
			{
				"x": -1.0813960178,
				"y": 1.3101581761,
				"z": -1.362529989,
				"element": "H" 
			},
			{
				"x": -0.7509709507,
				"y": -1.4185831698,
				"z": -1.3373849336,
				"element": "H" 
			},
			{
				"x": 1.0556613782,
				"y": -1.8528725857,
				"z": 0.6929478826,
				"element": "H" 
			}
		],
		 "valence_orbital": [ 
			{
				"type": "occ",
				"energy": -0.31956,
				"method": "rhf"
			},
			{
				"type": "occ",
				"energy": -0.31892,
				"method": "rhf"
			},
			{
				"type": "occ",
				"energy": -0.31039,
				"method": "rhf"
			},
			{
				"type": "occ",
				"energy": -0.29531,
				"method": "rhf"
			},
			{
				"type": "occ",
				"energy": -0.26349,
				"method": "rhf"
			},
			{
				"type": "unocc",
				"energy": -0.07624,
				"method": "rhf"
			},
			{
				"type": "unocc",
				"energy": 0.01759,
				"method": "rhf"
			},
			{
				"type": "unocc",
				"energy": 0.02259,
				"method": "rhf"
			},
			{
				"type": "unocc",
				"energy": 0.07812,
				"method": "rhf"
			},
			{
				"type": "unocc",
				"energy": 0.10053,
				"method": "rhf"
			}
		],
		"cosmo_sigma_profile": { 
			"-0.025": 0.0,
			"-0.024": 0.0,
			"-0.023": 0.0,
			"-0.022": 0.0,
			"-0.021": 0.0,
			"-0.02": 0.0,
			"-0.019": 0.0,
			"-0.018": 0.0,
			"-0.017": 0.0,
			"-0.016": 0.0,
			"-0.015": 0.0,
			"-0.014": 0.0,
			"-0.013": 0.0,
			"-0.012": 0.0,
			"-0.011": 0.909463230767,
			"-0.01": 2.19432072159,
			"-0.009": 4.32937785306,
			"-0.008": 5.3307247915,
			"-0.007": 4.05903018774,
			"-0.006": 5.84337500755,
			"-0.005": 6.21661619039,
			"-0.004": 6.95681131931,
			"-0.003": 6.57740107324,
			"-0.002": 9.4352680959,
			"-0.001": 14.5638603412,
			"0.0": 12.6220942981,
			"0.001": 12.4888928773,
			"0.002": 11.3377911121,
			"0.003": 8.63464145199,
			"0.004": 11.3068887508,
			"0.005": 7.79213815616,
			"0.006": 4.63200820942,
			"0.007": 3.7082257295,
			"0.008": 3.8559626649,
			"0.009": 5.00978380873,
			"0.01": 1.40090082609,
			"0.011": 0.00759872169158,
			"0.012": 0.0,
			"0.013": 0.0,
			"0.014": 0.0,
			"0.015": 0.0,
			"0.016": 0.0,
			"0.017": 0.0,
			"0.018": 0.0,
			"0.019": 0.0,
			"0.02": 0.0,
			"0.021": 0.0,
			"0.022": 0.0,
			"0.023": 0.0,
			"0.024": 0.0,
			"0.025": 0.0
		}
	}
}
