{
	 "smiles": "CC1=C(CO)N2C=CC=CC2=N1", 
	 "Tm": 431.15, 
	 "num_atms": 22, 
	 "gaussian": { 
		 "optdone": 1, 
		 "sigma_profile": "yes", 
		 "theory": "DFT", 
		 "functional": "B3LYP", 
		 "basiset": "6-31G**", 
		 "properties": { 
			 "R2extent": 2229.4289, 
			 "electric_dipole_moment_norm": 3.59279314322, 
			 "electric_quadrupole_moment_norm": 11.554655367, 
			 "total_energy": -533.701831671, 
			 "HOMO_LUMO_gap": 0.17561, 
			 "cosmo_polarized_energy": -13.31, 
			 "cosmo_cavitation_energy": 25.3, 
			 "cosmo_dispersion_energy": -18.89, 
			 "cosmo_repulsion_energy": 1.51, 
			 "cosmo_total_nonelectrostatic_energy": 7.92, 
			 "SMD_solvation_energy": 2.92 
		},
		"coords": [
			{
				"x": 3.5865534178,
				"y": -0.8220396353,
				"z": 0.0487458011,
				"element": "C" 
			},
			{
				"x": 2.1593255375,
				"y": -0.8073799236,
				"z": -0.4048714546,
				"element": "C" 
			},
			{
				"x": 1.0281086273,
				"y": -0.5114531813,
				"z": 0.347158893,
				"element": "C" 
			},
			{
				"x": 0.8307210298,
				"y": -0.1945882315,
				"z": 1.7845614799,
				"element": "C" 
			},
			{
				"x": 0.1517987459,
				"y": 1.0610609284,
				"z": 1.9165461771,
				"element": "O" 
			},
			{
				"x": -0.0359234902,
				"y": -0.6502058412,
				"z": -0.5317581964,
				"element": "N" 
			},
			{
				"x": -1.3836284872,
				"y": -0.4549654132,
				"z": -0.3558712506,
				"element": "C" 
			},
			{
				"x": -2.2306604494,
				"y": -0.6721227752,
				"z": -1.4078624712,
				"element": "C" 
			},
			{
				"x": -1.7186858258,
				"y": -1.0759947141,
				"z": -2.6729114219,
				"element": "C" 
			},
			{
				"x": -0.3661474928,
				"y": -1.2451907664,
				"z": -2.8532109647,
				"element": "C" 
			},
			{
				"x": 0.5149232499,
				"y": -1.0306388902,
				"z": -1.7687699655,
				"element": "C" 
			},
			{
				"x": 1.8399578266,
				"y": -1.1276425756,
				"z": -1.6931751492,
				"element": "N" 
			},
			{
				"x": 3.978894166,
				"y": -1.8451430235,
				"z": 0.072424694,
				"element": "H" 
			},
			{
				"x": 4.2072701897,
				"y": -0.2558389,
				"z": -0.6522201585,
				"element": "H" 
			},
			{
				"x": 3.7071802295,
				"y": -0.3876903828,
				"z": 1.0445776651,
				"element": "H" 
			},
			{
				"x": 0.2419908215,
				"y": -0.9912970147,
				"z": 2.2726416791,
				"element": "H" 
			},
			{
				"x": 1.8138061226,
				"y": -0.174975492,
				"z": 2.2744868111,
				"element": "H" 
			},
			{
				"x": -0.0404330714,
				"y": 1.1926601957,
				"z": 2.8543939158,
				"element": "H" 
			},
			{
				"x": -1.6900331558,
				"y": -0.0980910856,
				"z": 0.6182063116,
				"element": "H" 
			},
			{
				"x": -3.294060614,
				"y": -0.5165069363,
				"z": -1.2662986118,
				"element": "H" 
			},
			{
				"x": -2.4032135148,
				"y": -1.2388009138,
				"z": -3.4991256324,
				"element": "H" 
			},
			{
				"x": 0.0619561372,
				"y": -1.5407554276,
				"z": -3.8040681508,
				"element": "H" 
			}
		],
		 "valence_orbital": [ 
			{
				"type": "occ",
				"energy": -0.31126,
				"method": "rhf"
			},
			{
				"type": "occ",
				"energy": -0.28017,
				"method": "rhf"
			},
			{
				"type": "occ",
				"energy": -0.25886,
				"method": "rhf"
			},
			{
				"type": "occ",
				"energy": -0.2298,
				"method": "rhf"
			},
			{
				"type": "occ",
				"energy": -0.20045,
				"method": "rhf"
			},
			{
				"type": "unocc",
				"energy": -0.02484,
				"method": "rhf"
			},
			{
				"type": "unocc",
				"energy": 0.00679,
				"method": "rhf"
			},
			{
				"type": "unocc",
				"energy": 0.05242,
				"method": "rhf"
			},
			{
				"type": "unocc",
				"energy": 0.08823,
				"method": "rhf"
			},
			{
				"type": "unocc",
				"energy": 0.10166,
				"method": "rhf"
			}
		],
		"cosmo_sigma_profile": { 
			"-0.025": 0.0,
			"-0.024": 0.0,
			"-0.023": 0.0,
			"-0.022": 0.0,
			"-0.021": 0.0,
			"-0.02": 0.0,
			"-0.019": 0.0,
			"-0.018": 0.0,
			"-0.017": 0.0,
			"-0.016": 0.650394616235,
			"-0.015": 1.10402292719,
			"-0.014": 1.13983885485,
			"-0.013": 0.723407515199,
			"-0.012": 1.03402656115,
			"-0.011": 1.26480044403,
			"-0.01": 0.723534462171,
			"-0.009": 0.629258020988,
			"-0.008": 0.903386917126,
			"-0.007": 5.62645539104,
			"-0.006": 10.8985202883,
			"-0.005": 17.4579208856,
			"-0.004": 17.4445473204,
			"-0.003": 14.4346926576,
			"-0.002": 13.0064580283,
			"-0.001": 14.0545470766,
			"0.0": 15.8451567377,
			"0.001": 12.9146616007,
			"0.002": 12.6302421402,
			"0.003": 14.2988390032,
			"0.004": 12.2696640431,
			"0.005": 4.71211936651,
			"0.006": 3.63203683557,
			"0.007": 3.12125457119,
			"0.008": 3.15808857627,
			"0.009": 2.39736554313,
			"0.01": 2.13276647888,
			"0.011": 2.5206945608,
			"0.012": 1.97699961508,
			"0.013": 2.5083865554,
			"0.014": 2.28158388342,
			"0.015": 1.19981998286,
			"0.016": 0.274903757241,
			"0.017": 1.23109763657,
			"0.018": 0.836467825352,
			"0.019": 0.176235622005,
			"0.02": 0.0,
			"0.021": 0.0,
			"0.022": 0.0,
			"0.023": 0.0,
			"0.024": 0.0,
			"0.025": 0.0
		}
	}
}
