{
	 "smiles": "CCOC(=O)C1=C(NC(=O)CCl)OC2=C(C1C1=CC=C(Br)C=C1)C(=O)OC1=C2C=CC=C1", 
	 "Tm": 431.15, 
	 "num_atms": 49, 
	 "gaussian": { 
		 "optdone": 1, 
		 "sigma_profile": "yes", 
		 "theory": "DFT", 
		 "functional": "B3LYP", 
		 "basiset": "6-31G**", 
		 "properties": { 
			 "R2extent": 18846.7793, 
			 "electric_dipole_moment_norm": 4.95384076147, 
			 "electric_quadrupole_moment_norm": 26.1623368868, 
			 "total_energy": -4424.40637227, 
			 "HOMO_LUMO_gap": 0.15111, 
			 "cosmo_polarized_energy": -22.36, 
			 "cosmo_cavitation_energy": 57.5, 
			 "cosmo_dispersion_energy": -38.63, 
			 "cosmo_repulsion_energy": 2.9, 
			 "cosmo_total_nonelectrostatic_energy": 21.78, 
			 "SMD_solvation_energy": 10.8 
		},
		"coords": [
			{
				"x": 1.5020222402,
				"y": -5.7986115063,
				"z": -2.3775805713,
				"element": "C" 
			},
			{
				"x": 1.0906588536,
				"y": -4.4324938686,
				"z": -2.8909678821,
				"element": "C" 
			},
			{
				"x": 0.7723766437,
				"y": -3.6095012712,
				"z": -1.7374132036,
				"element": "O" 
			},
			{
				"x": 0.4299783124,
				"y": -2.3144855789,
				"z": -1.9981939479,
				"element": "C" 
			},
			{
				"x": 0.4104347727,
				"y": -1.8694807658,
				"z": -3.1297931174,
				"element": "O" 
			},
			{
				"x": 0.0943986072,
				"y": -1.5050825581,
				"z": -0.8104278544,
				"element": "C" 
			},
			{
				"x": -0.0514799376,
				"y": -1.9777364808,
				"z": 0.4603629677,
				"element": "C" 
			},
			{
				"x": 0.1841080314,
				"y": -3.2852906821,
				"z": 0.8404597779,
				"element": "N" 
			},
			{
				"x": -0.096461298,
				"y": -4.0686474976,
				"z": 1.9559986657,
				"element": "C" 
			},
			{
				"x": 0.1197002404,
				"y": -5.2665120921,
				"z": 1.8927986858,
				"element": "O" 
			},
			{
				"x": -0.6428577415,
				"y": -3.4571416268,
				"z": 3.2352649841,
				"element": "C" 
			},
			{
				"x": 0.6899887652,
				"y": -2.6964678527,
				"z": 4.2009186497,
				"element": "Cl" 
			},
			{
				"x": -0.4513756435,
				"y": -1.1851048368,
				"z": 1.5039832404,
				"element": "O" 
			},
			{
				"x": -0.9696843072,
				"y": 0.0626933242,
				"z": 1.2312553122,
				"element": "C" 
			},
			{
				"x": -0.8806228384,
				"y": 0.6196756226,
				"z": 0.000897283,
				"element": "C" 
			},
			{
				"x": -0.103388592,
				"y": -0.0293444709,
				"z": -1.1163530508,
				"element": "C" 
			},
			{
				"x": 1.2221244759,
				"y": 0.7042801367,
				"z": -1.3624061944,
				"element": "C" 
			},
			{
				"x": 2.2752674896,
				"y": 0.6196583707,
				"z": -0.4437374837,
				"element": "C" 
			},
			{
				"x": 3.475189367,
				"y": 1.2966158962,
				"z": -0.6591258529,
				"element": "C" 
			},
			{
				"x": 3.6178849365,
				"y": 2.0689909987,
				"z": -1.8105101152,
				"element": "C" 
			},
			{
				"x": 5.2606213074,
				"y": 2.9988255711,
				"z": -2.1191441245,
				"element": "Br" 
			},
			{
				"x": 2.584321181,
				"y": 2.1736640446,
				"z": -2.7388461239,
				"element": "C" 
			},
			{
				"x": 1.390905867,
				"y": 1.4897807814,
				"z": -2.5071304715,
				"element": "C" 
			},
			{
				"x": -1.5468886061,
				"y": 1.8900637318,
				"z": -0.2749670447,
				"element": "C" 
			},
			{
				"x": -1.5814447154,
				"y": 2.4384294064,
				"z": -1.3521351655,
				"element": "O" 
			},
			{
				"x": -2.2105356119,
				"y": 2.4943444142,
				"z": 0.7868317507,
				"element": "O" 
			},
			{
				"x": -2.2269213734,
				"y": 1.9635454063,
				"z": 2.0431239142,
				"element": "C" 
			},
			{
				"x": -1.6139201777,
				"y": 0.7305805923,
				"z": 2.3387743927,
				"element": "C" 
			},
			{
				"x": -1.650291733,
				"y": 0.2575828058,
				"z": 3.6635503789,
				"element": "C" 
			},
			{
				"x": -2.2997644038,
				"y": 0.9873255062,
				"z": 4.649597801,
				"element": "C" 
			},
			{
				"x": -2.9227384742,
				"y": 2.2029006247,
				"z": 4.3312534816,
				"element": "C" 
			},
			{
				"x": -2.8855980201,
				"y": 2.6963849382,
				"z": 3.0324037669,
				"element": "C" 
			},
			{
				"x": 2.3907255865,
				"y": -5.7301439156,
				"z": -1.7435799776,
				"element": "H" 
			},
			{
				"x": 0.6986507385,
				"y": -6.2628586715,
				"z": -1.7981308688,
				"element": "H" 
			},
			{
				"x": 1.7357193621,
				"y": -6.452154909,
				"z": -3.2235394788,
				"element": "H" 
			},
			{
				"x": 1.8883416593,
				"y": -3.9410743259,
				"z": -3.4542467424,
				"element": "H" 
			},
			{
				"x": 0.2076221662,
				"y": -4.4791084952,
				"z": -3.5349530513,
				"element": "H" 
			},
			{
				"x": 0.5427286903,
				"y": -3.8497209707,
				"z": 0.0714919866,
				"element": "H" 
			},
			{
				"x": -1.3977095652,
				"y": -2.6938753364,
				"z": 3.0604153382,
				"element": "H" 
			},
			{
				"x": -1.038708696,
				"y": -4.2759670466,
				"z": 3.8319557855,
				"element": "H" 
			},
			{
				"x": -0.6870279074,
				"y": 0.0514525945,
				"z": -2.0370925922,
				"element": "H" 
			},
			{
				"x": 2.169151802,
				"y": 0.0157815683,
				"z": 0.4536315479,
				"element": "H" 
			},
			{
				"x": 4.2871542999,
				"y": 1.2248632247,
				"z": 0.0555550985,
				"element": "H" 
			},
			{
				"x": 2.7086847047,
				"y": 2.7790205252,
				"z": -3.6294127532,
				"element": "H" 
			},
			{
				"x": 0.5789126279,
				"y": 1.5738221905,
				"z": -3.2217961204,
				"element": "H" 
			},
			{
				"x": -1.1351844346,
				"y": -0.6613502066,
				"z": 3.9142005384,
				"element": "H" 
			},
			{
				"x": -2.317011865,
				"y": 0.6178365789,
				"z": 5.6696905666,
				"element": "H" 
			},
			{
				"x": -3.4315853901,
				"y": 2.7706487861,
				"z": 5.1041221513,
				"element": "H" 
			},
			{
				"x": -3.3494713964,
				"y": 3.6381873259,
				"z": 2.7611457229,
				"element": "H" 
			}
		],
		 "valence_orbital": [ 
			{
				"type": "occ",
				"energy": -0.26684,
				"method": "rhf"
			},
			{
				"type": "occ",
				"energy": -0.25967,
				"method": "rhf"
			},
			{
				"type": "occ",
				"energy": -0.2502,
				"method": "rhf"
			},
			{
				"type": "occ",
				"energy": -0.24285,
				"method": "rhf"
			},
			{
				"type": "occ",
				"energy": -0.23407,
				"method": "rhf"
			},
			{
				"type": "unocc",
				"energy": -0.08296,
				"method": "rhf"
			},
			{
				"type": "unocc",
				"energy": -0.0609,
				"method": "rhf"
			},
			{
				"type": "unocc",
				"energy": -0.02772,
				"method": "rhf"
			},
			{
				"type": "unocc",
				"energy": -0.02319,
				"method": "rhf"
			},
			{
				"type": "unocc",
				"energy": -0.01314,
				"method": "rhf"
			}
		],
		"cosmo_sigma_profile": { 
			"-0.025": 0.0,
			"-0.024": 0.0,
			"-0.023": 0.0,
			"-0.022": 0.0,
			"-0.021": 0.0,
			"-0.02": 0.0,
			"-0.019": 0.0,
			"-0.018": 0.0,
			"-0.017": 0.0,
			"-0.016": 0.0,
			"-0.015": 0.0,
			"-0.014": 0.0,
			"-0.013": 0.0,
			"-0.012": 0.0,
			"-0.011": 0.0438693703322,
			"-0.01": 0.851892877591,
			"-0.009": 2.96962122923,
			"-0.008": 5.86316764528,
			"-0.007": 15.8055966109,
			"-0.006": 25.5050218428,
			"-0.005": 31.0150767393,
			"-0.004": 39.9389729446,
			"-0.003": 39.7538425408,
			"-0.002": 36.5869485164,
			"-0.001": 35.7126697898,
			"0.0": 35.1150801552,
			"0.001": 31.6076162313,
			"0.002": 32.5881671199,
			"0.003": 35.4833371493,
			"0.004": 28.5487366848,
			"0.005": 18.2283947761,
			"0.006": 6.87637502757,
			"0.007": 5.64846044587,
			"0.008": 5.64836706481,
			"0.009": 6.70355313378,
			"0.01": 6.6987154445,
			"0.011": 11.49366247,
			"0.012": 7.35742723874,
			"0.013": 0.910340353296,
			"0.014": 0.0,
			"0.015": 0.0,
			"0.016": 0.0,
			"0.017": 0.0,
			"0.018": 0.0,
			"0.019": 0.0,
			"0.02": 0.0,
			"0.021": 0.0,
			"0.022": 0.0,
			"0.023": 0.0,
			"0.024": 0.0,
			"0.025": 0.0
		}
	}
}
