{
	 "smiles": "OC(=O)C1=C(C=C(F)C=C1)[N+]([O-])=O", 
	 "Tm": 422.15, 
	 "num_atms": 17, 
	 "gaussian": { 
		 "optdone": 1, 
		 "sigma_profile": "yes", 
		 "theory": "DFT", 
		 "functional": "B3LYP", 
		 "basiset": "6-31G**", 
		 "properties": { 
			 "R2extent": 2479.2041, 
			 "electric_dipole_moment_norm": 4.19866381364, 
			 "electric_quadrupole_moment_norm": 8.08459601588, 
			 "total_energy": -724.533234414, 
			 "HOMO_LUMO_gap": 0.15309, 
			 "cosmo_polarized_energy": -12.5, 
			 "cosmo_cavitation_energy": 23.13, 
			 "cosmo_dispersion_energy": -17.16, 
			 "cosmo_repulsion_energy": 1.31, 
			 "cosmo_total_nonelectrostatic_energy": 7.27, 
			 "SMD_solvation_energy": 7.8 
		},
		"coords": [
			{
				"x": 2.9488010148,
				"y": 0.1039793365,
				"z": 0.5212304743,
				"element": "O" 
			},
			{
				"x": 1.8241640667,
				"y": 0.2437517491,
				"z": 1.2131462481,
				"element": "C" 
			},
			{
				"x": 1.8245763981,
				"y": 0.7272105129,
				"z": 2.3244243105,
				"element": "O" 
			},
			{
				"x": 0.4849427881,
				"y": -0.1620697912,
				"z": 0.5843782133,
				"element": "C" 
			},
			{
				"x": 0.1639896489,
				"y": -1.1119631473,
				"z": -0.4126986857,
				"element": "C" 
			},
			{
				"x": -1.1558813053,
				"y": -1.3991177232,
				"z": -0.7709003012,
				"element": "C" 
			},
			{
				"x": -2.1839679175,
				"y": -0.7049817785,
				"z": -0.154837987,
				"element": "C" 
			},
			{
				"x": -3.4474500299,
				"y": -0.9623987417,
				"z": -0.517844661,
				"element": "F" 
			},
			{
				"x": -1.9287487818,
				"y": 0.2403240781,
				"z": 0.8312456079,
				"element": "C" 
			},
			{
				"x": -0.609235518,
				"y": 0.4781558443,
				"z": 1.1938012131,
				"element": "C" 
			},
			{
				"x": 1.1502635087,
				"y": -1.9088245798,
				"z": -1.1769584516,
				"element": "N" 
			},
			{
				"x": 2.2491220818,
				"y": -1.4054428675,
				"z": -1.4597243224,
				"element": "O" 
			},
			{
				"x": 0.8128541516,
				"y": -3.0221146831,
				"z": -1.5478646078,
				"element": "O" 
			},
			{
				"x": 2.7748128665,
				"y": -0.3167778115,
				"z": -0.3499623005,
				"element": "H" 
			},
			{
				"x": -1.3698883394,
				"y": -2.1518092499,
				"z": -1.5176785526,
				"element": "H" 
			},
			{
				"x": -2.7506080616,
				"y": 0.7636505766,
				"z": 1.3069850773,
				"element": "H" 
			},
			{
				"x": -0.3791465718,
				"y": 1.1741282761,
				"z": 1.9913587253,
				"element": "H" 
			}
		],
		 "valence_orbital": [ 
			{
				"type": "occ",
				"energy": -0.33661,
				"method": "rhf"
			},
			{
				"type": "occ",
				"energy": -0.31966,
				"method": "rhf"
			},
			{
				"type": "occ",
				"energy": -0.30815,
				"method": "rhf"
			},
			{
				"type": "occ",
				"energy": -0.29563,
				"method": "rhf"
			},
			{
				"type": "occ",
				"energy": -0.28081,
				"method": "rhf"
			},
			{
				"type": "unocc",
				"energy": -0.12772,
				"method": "rhf"
			},
			{
				"type": "unocc",
				"energy": -0.06464,
				"method": "rhf"
			},
			{
				"type": "unocc",
				"energy": -0.04419,
				"method": "rhf"
			},
			{
				"type": "unocc",
				"energy": 0.0303,
				"method": "rhf"
			},
			{
				"type": "unocc",
				"energy": 0.05414,
				"method": "rhf"
			}
		],
		"cosmo_sigma_profile": { 
			"-0.025": 0.0,
			"-0.024": 0.0,
			"-0.023": 0.0,
			"-0.022": 0.0,
			"-0.021": 0.0,
			"-0.02": 0.0,
			"-0.019": 0.0,
			"-0.018": 0.0,
			"-0.017": 0.0,
			"-0.016": 0.0,
			"-0.015": 0.00490415386475,
			"-0.014": 0.307874126865,
			"-0.013": 0.393536899615,
			"-0.012": 0.600522671132,
			"-0.011": 0.789443191621,
			"-0.01": 2.43561723602,
			"-0.009": 5.25144543135,
			"-0.008": 8.00417291197,
			"-0.007": 8.36900969006,
			"-0.006": 7.17743523019,
			"-0.005": 9.20839867535,
			"-0.004": 9.74968758747,
			"-0.003": 15.2875922288,
			"-0.002": 18.0462022563,
			"-0.001": 12.6494229733,
			"0.0": 11.268279025,
			"0.001": 6.16471427143,
			"0.002": 8.55322363411,
			"0.003": 14.2130289208,
			"0.004": 5.17620421029,
			"0.005": 7.24628042501,
			"0.006": 8.26923472833,
			"0.007": 5.3667328805,
			"0.008": 5.44579453391,
			"0.009": 3.38049181724,
			"0.01": 4.25106264461,
			"0.011": 5.60479546549,
			"0.012": 3.18182223542,
			"0.013": 0.97911260194,
			"0.014": 0.0,
			"0.015": 0.0,
			"0.016": 0.0,
			"0.017": 0.0,
			"0.018": 0.0,
			"0.019": 0.0,
			"0.02": 0.0,
			"0.021": 0.0,
			"0.022": 0.0,
			"0.023": 0.0,
			"0.024": 0.0,
			"0.025": 0.0
		}
	}
}
