{
	 "smiles": "OC1CC(N(C1)C(=O)CC1=C(F)C=CC=C1)C(O)=O", 
	 "Tm": 475.15, 
	 "num_atms": 33, 
	 "gaussian": { 
		 "optdone": 1, 
		 "sigma_profile": "yes", 
		 "theory": "DFT", 
		 "functional": "B3LYP", 
		 "basiset": "6-31G**", 
		 "properties": { 
			 "R2extent": 5502.8429, 
			 "electric_dipole_moment_norm": 4.48670836249, 
			 "electric_quadrupole_moment_norm": 21.1144484766, 
			 "total_energy": -959.321747735, 
			 "HOMO_LUMO_gap": 0.22065, 
			 "cosmo_polarized_energy": -21.16, 
			 "cosmo_cavitation_energy": 36.7, 
			 "cosmo_dispersion_energy": -25.22, 
			 "cosmo_repulsion_energy": 1.95, 
			 "cosmo_total_nonelectrostatic_energy": 13.43, 
			 "SMD_solvation_energy": 7.37 
		},
		"coords": [
			{
				"x": -2.0410676293,
				"y": 1.3719283948,
				"z": 4.333820547,
				"element": "O" 
			},
			{
				"x": -1.1349344019,
				"y": 0.4578711398,
				"z": 3.7440160315,
				"element": "C" 
			},
			{
				"x": -1.7547986909,
				"y": -0.443295624,
				"z": 2.6593256601,
				"element": "C" 
			},
			{
				"x": -0.5389759768,
				"y": -0.8323582081,
				"z": 1.7915694751,
				"element": "C" 
			},
			{
				"x": 0.3051042744,
				"y": 0.356091244,
				"z": 1.8685161441,
				"element": "N" 
			},
			{
				"x": -0.0615939988,
				"y": 1.2423156682,
				"z": 2.9805240426,
				"element": "C" 
			},
			{
				"x": 1.367536085,
				"y": 0.6829026363,
				"z": 1.0724370908,
				"element": "C" 
			},
			{
				"x": 2.0022940887,
				"y": 1.7169806043,
				"z": 1.2557418493,
				"element": "O" 
			},
			{
				"x": 1.712006621,
				"y": -0.2454827894,
				"z": -0.0980421074,
				"element": "C" 
			},
			{
				"x": 1.1178011168,
				"y": 0.2714321152,
				"z": -1.3938429617,
				"element": "C" 
			},
			{
				"x": 0.0992177912,
				"y": -0.4139963707,
				"z": -2.0551179951,
				"element": "C" 
			},
			{
				"x": -0.3760191313,
				"y": -1.5686802525,
				"z": -1.5072727223,
				"element": "F" 
			},
			{
				"x": -0.4675716891,
				"y": 0.0243606199,
				"z": -3.2453166353,
				"element": "C" 
			},
			{
				"x": -0.0027249949,
				"y": 1.2135471772,
				"z": -3.8067595162,
				"element": "C" 
			},
			{
				"x": 1.0079529339,
				"y": 1.9371532616,
				"z": -3.1685039192,
				"element": "C" 
			},
			{
				"x": 1.5588908856,
				"y": 1.4684445165,
				"z": -1.976269512,
				"element": "C" 
			},
			{
				"x": 0.1725061182,
				"y": -2.0789823522,
				"z": 2.3317496271,
				"element": "C" 
			},
			{
				"x": -0.632353387,
				"y": -3.1645438849,
				"z": 2.2409844458,
				"element": "O" 
			},
			{
				"x": 1.2971987002,
				"y": -2.1244504539,
				"z": 2.7726843301,
				"element": "O" 
			},
			{
				"x": -2.6159225806,
				"y": 0.8837177207,
				"z": 4.9363510052,
				"element": "H" 
			},
			{
				"x": -0.6557630997,
				"y": -0.1677865735,
				"z": 4.5127927076,
				"element": "H" 
			},
			{
				"x": -2.4501776985,
				"y": 0.1594220706,
				"z": 2.066750999,
				"element": "H" 
			},
			{
				"x": -2.2882525424,
				"y": -1.3135606414,
				"z": 3.0483105648,
				"element": "H" 
			},
			{
				"x": -0.8420932416,
				"y": -1.0592226045,
				"z": 0.7654968899,
				"element": "H" 
			},
			{
				"x": -0.4876356305,
				"y": 2.1818325742,
				"z": 2.609006293,
				"element": "H" 
			},
			{
				"x": 0.8150675592,
				"y": 1.4860687379,
				"z": 3.5841807689,
				"element": "H" 
			},
			{
				"x": 1.405818774,
				"y": -1.2767577386,
				"z": 0.0729935006,
				"element": "H" 
			},
			{
				"x": 2.8029255248,
				"y": -0.2312718935,
				"z": -0.1649369622,
				"element": "H" 
			},
			{
				"x": -1.253326087,
				"y": -0.5633121414,
				"z": -3.7076986202,
				"element": "H" 
			},
			{
				"x": -0.4322008072,
				"y": 1.572350615,
				"z": -4.7372013393,
				"element": "H" 
			},
			{
				"x": 1.3675346297,
				"y": 2.8663163474,
				"z": -3.599695209,
				"element": "H" 
			},
			{
				"x": 2.3321111351,
				"y": 2.03310616,
				"z": -1.4646092717,
				"element": "H" 
			},
			{
				"x": -0.11935465,
				"y": -3.9165400749,
				"z": 2.582214799,
				"element": "H" 
			}
		],
		 "valence_orbital": [ 
			{
				"type": "occ",
				"energy": -0.2798,
				"method": "rhf"
			},
			{
				"type": "occ",
				"energy": -0.2587,
				"method": "rhf"
			},
			{
				"type": "occ",
				"energy": -0.24982,
				"method": "rhf"
			},
			{
				"type": "occ",
				"energy": -0.2417,
				"method": "rhf"
			},
			{
				"type": "occ",
				"energy": -0.235,
				"method": "rhf"
			},
			{
				"type": "unocc",
				"energy": -0.01435,
				"method": "rhf"
			},
			{
				"type": "unocc",
				"energy": -0.00672,
				"method": "rhf"
			},
			{
				"type": "unocc",
				"energy": 0.00078,
				"method": "rhf"
			},
			{
				"type": "unocc",
				"energy": 0.02967,
				"method": "rhf"
			},
			{
				"type": "unocc",
				"energy": 0.06106,
				"method": "rhf"
			}
		],
		"cosmo_sigma_profile": { 
			"-0.025": 0.0,
			"-0.024": 0.0,
			"-0.023": 0.0,
			"-0.022": 0.0,
			"-0.021": 0.0,
			"-0.02": 0.0,
			"-0.019": 0.274641924584,
			"-0.018": 1.13343576934,
			"-0.017": 0.961501268726,
			"-0.016": 1.66472092707,
			"-0.015": 1.97923030382,
			"-0.014": 2.18172948764,
			"-0.013": 1.67974643709,
			"-0.012": 1.09592505912,
			"-0.011": 1.04010628332,
			"-0.01": 1.41208964293,
			"-0.009": 1.59163748671,
			"-0.008": 2.6957845334,
			"-0.007": 5.77019388839,
			"-0.006": 15.0702119242,
			"-0.005": 24.6235811858,
			"-0.004": 24.7321435834,
			"-0.003": 20.5920669798,
			"-0.002": 20.6864356534,
			"-0.001": 16.8168437547,
			"0.0": 17.1260069997,
			"0.001": 15.9961558141,
			"0.002": 14.756583675,
			"0.003": 17.5929573039,
			"0.004": 20.7338027566,
			"0.005": 10.6528817548,
			"0.006": 5.76159432978,
			"0.007": 4.88709293928,
			"0.008": 6.24050805107,
			"0.009": 4.21995616499,
			"0.01": 4.95416534868,
			"0.011": 7.76864240879,
			"0.012": 3.71663983978,
			"0.013": 5.47969709958,
			"0.014": 3.98644688178,
			"0.015": 0.0791218967701,
			"0.016": 0.0,
			"0.017": 0.0,
			"0.018": 0.0,
			"0.019": 0.0,
			"0.02": 0.0,
			"0.021": 0.0,
			"0.022": 0.0,
			"0.023": 0.0,
			"0.024": 0.0,
			"0.025": 0.0
		}
	}
}
