{
	 "smiles": "OC(C#N)C1=CC=CC=C1", 
	 "Tm": 263.15, 
	 "num_atms": 17, 
	 "gaussian": { 
		 "optdone": 1, 
		 "sigma_profile": "yes", 
		 "theory": "DFT", 
		 "functional": "B3LYP", 
		 "basiset": "6-31G**", 
		 "properties": { 
			 "R2extent": 1746.5174, 
			 "electric_dipole_moment_norm": 2.82192943569, 
			 "electric_quadrupole_moment_norm": 18.9917256322, 
			 "total_energy": -439.008043936, 
			 "HOMO_LUMO_gap": 0.23391, 
			 "cosmo_polarized_energy": -12.47, 
			 "cosmo_cavitation_energy": 22.23, 
			 "cosmo_dispersion_energy": -15.68, 
			 "cosmo_repulsion_energy": 1.3, 
			 "cosmo_total_nonelectrostatic_energy": 7.84, 
			 "SMD_solvation_energy": 5.37 
		},
		"coords": [
			{
				"x": -0.9118131333,
				"y": -0.812355592,
				"z": -1.9551933418,
				"element": "O" 
			},
			{
				"x": -0.7800486822,
				"y": 0.5410999974,
				"z": -1.5505629469,
				"element": "C" 
			},
			{
				"x": -2.0122471414,
				"y": 1.3023091586,
				"z": -1.8819695051,
				"element": "C" 
			},
			{
				"x": -2.9738669667,
				"y": 1.8805010112,
				"z": -2.1803962304,
				"element": "N" 
			},
			{
				"x": -0.4990712511,
				"y": 0.5889864755,
				"z": -0.0563722542,
				"element": "C" 
			},
			{
				"x": 0.3646603089,
				"y": 1.5576288975,
				"z": 0.4617275522,
				"element": "C" 
			},
			{
				"x": 0.6048715342,
				"y": 1.6206732084,
				"z": 1.8350363714,
				"element": "C" 
			},
			{
				"x": -0.0138938906,
				"y": 0.7108652315,
				"z": 2.6936260413,
				"element": "C" 
			},
			{
				"x": -0.8735896061,
				"y": -0.26078789,
				"z": 2.1755310154,
				"element": "C" 
			},
			{
				"x": -1.1205479755,
				"y": -0.321559474,
				"z": 0.80452482,
				"element": "C" 
			},
			{
				"x": -1.1804129079,
				"y": -0.8302963867,
				"z": -2.8839516289,
				"element": "H" 
			},
			{
				"x": 0.0473278915,
				"y": 1.0382287447,
				"z": -2.0806759158,
				"element": "H" 
			},
			{
				"x": 0.8522481479,
				"y": 2.2627794268,
				"z": -0.2070016572,
				"element": "H" 
			},
			{
				"x": 1.2787435702,
				"y": 2.3746041608,
				"z": 2.2309970864,
				"element": "H" 
			},
			{
				"x": 0.1755266903,
				"y": 0.75605548,
				"z": 3.7621269687,
				"element": "H" 
			},
			{
				"x": -1.3536679672,
				"y": -0.9726994347,
				"z": 2.8405756229,
				"element": "H" 
			},
			{
				"x": -1.7798186209,
				"y": -1.0781330149,
				"z": 0.3931780019,
				"element": "H" 
			}
		],
		 "valence_orbital": [ 
			{
				"type": "occ",
				"energy": -0.33848,
				"method": "rhf"
			},
			{
				"type": "occ",
				"energy": -0.32973,
				"method": "rhf"
			},
			{
				"type": "occ",
				"energy": -0.30603,
				"method": "rhf"
			},
			{
				"type": "occ",
				"energy": -0.26063,
				"method": "rhf"
			},
			{
				"type": "occ",
				"energy": -0.25838,
				"method": "rhf"
			},
			{
				"type": "unocc",
				"energy": -0.02447,
				"method": "rhf"
			},
			{
				"type": "unocc",
				"energy": -0.01364,
				"method": "rhf"
			},
			{
				"type": "unocc",
				"energy": 0.01954,
				"method": "rhf"
			},
			{
				"type": "unocc",
				"energy": 0.03658,
				"method": "rhf"
			},
			{
				"type": "unocc",
				"energy": 0.07467,
				"method": "rhf"
			}
		],
		"cosmo_sigma_profile": { 
			"-0.025": 0.0,
			"-0.024": 0.0,
			"-0.023": 0.0,
			"-0.022": 0.0,
			"-0.021": 0.0,
			"-0.02": 0.0,
			"-0.019": 0.0280758684336,
			"-0.018": 0.717734317288,
			"-0.017": 0.774553906992,
			"-0.016": 1.20669606084,
			"-0.015": 0.990449876033,
			"-0.014": 0.915277778641,
			"-0.013": 0.856083228437,
			"-0.012": 1.07403648392,
			"-0.011": 1.36193121654,
			"-0.01": 1.52911835548,
			"-0.009": 4.54620069888,
			"-0.008": 3.68273859225,
			"-0.007": 3.83729399764,
			"-0.006": 9.32208996434,
			"-0.005": 11.7830103321,
			"-0.004": 13.0192028811,
			"-0.003": 10.398060919,
			"-0.002": 9.15355776345,
			"-0.001": 7.76581278004,
			"0.0": 8.74229895082,
			"0.001": 9.40938924656,
			"0.002": 10.0030597181,
			"0.003": 11.5010280393,
			"0.004": 12.7796770463,
			"0.005": 12.8451209541,
			"0.006": 4.56213647342,
			"0.007": 4.58654126042,
			"0.008": 4.80957326615,
			"0.009": 4.74000966419,
			"0.01": 3.899142884,
			"0.011": 3.82940856945,
			"0.012": 2.88600328762,
			"0.013": 0.799138122109,
			"0.014": 0.0,
			"0.015": 0.0,
			"0.016": 0.0,
			"0.017": 0.0,
			"0.018": 0.0,
			"0.019": 0.0,
			"0.02": 0.0,
			"0.021": 0.0,
			"0.022": 0.0,
			"0.023": 0.0,
			"0.024": 0.0,
			"0.025": 0.0
		}
	}
}
