{
	 "smiles": "NC1=NC2=C(CN(CC3=CC=CC=C3)CC2)C=N1", 
	 "Tm": 453.15, 
	 "num_atms": 34, 
	 "gaussian": { 
		 "optdone": 1, 
		 "sigma_profile": "yes", 
		 "theory": "DFT", 
		 "functional": "B3LYP", 
		 "basiset": "6-31G**", 
		 "properties": { 
			 "R2extent": 6206.8322, 
			 "electric_dipole_moment_norm": 0.874274407723, 
			 "electric_quadrupole_moment_norm": 10.6257290865, 
			 "total_energy": -762.152819817, 
			 "HOMO_LUMO_gap": 0.18981, 
			 "cosmo_polarized_energy": -12.25, 
			 "cosmo_cavitation_energy": 36.37, 
			 "cosmo_dispersion_energy": -26.36, 
			 "cosmo_repulsion_energy": 2.05, 
			 "cosmo_total_nonelectrostatic_energy": 12.05, 
			 "SMD_solvation_energy": 1.13 
		},
		"coords": [
			{
				"x": 4.1653072235,
				"y": -1.6888149655,
				"z": -1.580681585,
				"element": "N" 
			},
			{
				"x": 2.9488886696,
				"y": -1.1631028461,
				"z": -1.2369248718,
				"element": "C" 
			},
			{
				"x": 2.9350199741,
				"y": -0.2663341376,
				"z": -0.2358518373,
				"element": "N" 
			},
			{
				"x": 1.7506837201,
				"y": 0.2836095126,
				"z": 0.0556204585,
				"element": "C" 
			},
			{
				"x": 0.577446199,
				"y": -0.0519300633,
				"z": -0.6325781862,
				"element": "C" 
			},
			{
				"x": -0.7493806186,
				"y": 0.594281884,
				"z": -0.310957836,
				"element": "C" 
			},
			{
				"x": -0.7461473242,
				"y": 1.2080581913,
				"z": 1.0184982708,
				"element": "N" 
			},
			{
				"x": -2.0148434203,
				"y": 1.8736855559,
				"z": 1.3089121929,
				"element": "C" 
			},
			{
				"x": -3.173409792,
				"y": 0.9070518461,
				"z": 1.4786752167,
				"element": "C" 
			},
			{
				"x": -3.0147406326,
				"y": -0.2689480912,
				"z": 2.2251906874,
				"element": "C" 
			},
			{
				"x": -4.0902990274,
				"y": -1.1340993162,
				"z": 2.422705625,
				"element": "C" 
			},
			{
				"x": -5.3432813783,
				"y": -0.8344781486,
				"z": 1.8809462464,
				"element": "C" 
			},
			{
				"x": -5.5102263363,
				"y": 0.3327942004,
				"z": 1.1352727059,
				"element": "C" 
			},
			{
				"x": -4.4293308303,
				"y": 1.1942224929,
				"z": 0.9331317755,
				"element": "C" 
			},
			{
				"x": 0.407979795,
				"y": 2.095049992,
				"z": 1.1745527982,
				"element": "C" 
			},
			{
				"x": 1.7008275607,
				"y": 1.2750198667,
				"z": 1.1916788598,
				"element": "C" 
			},
			{
				"x": 0.7242086983,
				"y": -1.0119760121,
				"z": -1.6354910653,
				"element": "C" 
			},
			{
				"x": 1.8863270289,
				"y": -1.5791482884,
				"z": -1.9558494953,
				"element": "N" 
			},
			{
				"x": 4.9117262767,
				"y": -1.5794299161,
				"z": -0.9128830104,
				"element": "H" 
			},
			{
				"x": 4.153843939,
				"y": -2.5190441393,
				"z": -2.1514481781,
				"element": "H" 
			},
			{
				"x": -1.5498875291,
				"y": -0.1523976373,
				"z": -0.3491407855,
				"element": "H" 
			},
			{
				"x": -0.9905225323,
				"y": 1.3501037902,
				"z": -1.0892969157,
				"element": "H" 
			},
			{
				"x": -2.2765585944,
				"y": 2.6230874374,
				"z": 0.5358888063,
				"element": "H" 
			},
			{
				"x": -1.8790847813,
				"y": 2.4320736601,
				"z": 2.2446067035,
				"element": "H" 
			},
			{
				"x": -2.035413299,
				"y": -0.5001519927,
				"z": 2.633385326,
				"element": "H" 
			},
			{
				"x": -3.95188362,
				"y": -2.0435466855,
				"z": 3.0010934313,
				"element": "H" 
			},
			{
				"x": -6.1810301754,
				"y": -1.5084889869,
				"z": 2.0359265632,
				"element": "H" 
			},
			{
				"x": -6.4787049213,
				"y": 0.5710172651,
				"z": 0.704233373,
				"element": "H" 
			},
			{
				"x": -4.5625523125,
				"y": 2.0992898392,
				"z": 0.3448242142,
				"element": "H" 
			},
			{
				"x": 0.3041643388,
				"y": 2.6410860309,
				"z": 2.1178642426,
				"element": "H" 
			},
			{
				"x": 0.4527281865,
				"y": 2.8537640387,
				"z": 0.367861309,
				"element": "H" 
			},
			{
				"x": 1.7681944278,
				"y": 0.7185796324,
				"z": 2.1351965154,
				"element": "H" 
			},
			{
				"x": 2.5814720518,
				"y": 1.9240393169,
				"z": 1.1433462912,
				"element": "H" 
			},
			{
				"x": -0.1433209644,
				"y": -1.3463233258,
				"z": -2.2067078463,
				"element": "H" 
			}
		],
		 "valence_orbital": [ 
			{
				"type": "occ",
				"energy": -0.2474,
				"method": "rhf"
			},
			{
				"type": "occ",
				"energy": -0.24258,
				"method": "rhf"
			},
			{
				"type": "occ",
				"energy": -0.23602,
				"method": "rhf"
			},
			{
				"type": "occ",
				"energy": -0.22237,
				"method": "rhf"
			},
			{
				"type": "occ",
				"energy": -0.21354,
				"method": "rhf"
			},
			{
				"type": "unocc",
				"energy": -0.02373,
				"method": "rhf"
			},
			{
				"type": "unocc",
				"energy": -0.00161,
				"method": "rhf"
			},
			{
				"type": "unocc",
				"energy": 0.00138,
				"method": "rhf"
			},
			{
				"type": "unocc",
				"energy": 0.01133,
				"method": "rhf"
			},
			{
				"type": "unocc",
				"energy": 0.09104,
				"method": "rhf"
			}
		],
		"cosmo_sigma_profile": { 
			"-0.025": 0.0,
			"-0.024": 0.0,
			"-0.023": 0.0,
			"-0.022": 0.0,
			"-0.021": 0.0,
			"-0.02": 0.0,
			"-0.019": 0.0,
			"-0.018": 0.0,
			"-0.017": 0.0,
			"-0.016": 0.0,
			"-0.015": 0.0,
			"-0.014": 0.127746857053,
			"-0.013": 1.65019615381,
			"-0.012": 2.11143722172,
			"-0.011": 1.98456829727,
			"-0.01": 2.0757974059,
			"-0.009": 1.87360832662,
			"-0.008": 1.68019419609,
			"-0.007": 2.23857721724,
			"-0.006": 6.01629807651,
			"-0.005": 18.2913188994,
			"-0.004": 23.0485305054,
			"-0.003": 32.3667476643,
			"-0.002": 34.0083997947,
			"-0.001": 25.4526386074,
			"0.0": 17.9609003383,
			"0.001": 20.2627757412,
			"0.002": 15.8751789854,
			"0.003": 14.7744154881,
			"0.004": 13.5901595345,
			"0.005": 13.0267318254,
			"0.006": 12.8467780971,
			"0.007": 6.63784439285,
			"0.008": 4.14781013647,
			"0.009": 3.13584151073,
			"0.01": 3.53948011209,
			"0.011": 2.32642108451,
			"0.012": 1.29947649288,
			"0.013": 1.84273331288,
			"0.014": 1.29228751928,
			"0.015": 1.53656604517,
			"0.016": 0.263376163838,
			"0.017": 0.0,
			"0.018": 0.0,
			"0.019": 0.0,
			"0.02": 0.0,
			"0.021": 0.0,
			"0.022": 0.0,
			"0.023": 0.0,
			"0.024": 0.0,
			"0.025": 0.0
		}
	}
}
