{
	 "smiles": "[O-][N+](=O)C1=CC(F)=CC=C1C#N", 
	 "Tm": 345.15, 
	 "num_atms": 15, 
	 "gaussian": { 
		 "optdone": 1, 
		 "sigma_profile": "yes", 
		 "theory": "DFT", 
		 "functional": "B3LYP", 
		 "basiset": "6-31G**", 
		 "properties": { 
			 "R2extent": 2196.8514, 
			 "electric_dipole_moment_norm": 5.61894334729, 
			 "electric_quadrupole_moment_norm": 19.4356951388, 
			 "total_energy": -628.204533913, 
			 "HOMO_LUMO_gap": 0.16948, 
			 "cosmo_polarized_energy": -13.45, 
			 "cosmo_cavitation_energy": 22.28, 
			 "cosmo_dispersion_energy": -15.72, 
			 "cosmo_repulsion_energy": 1.22, 
			 "cosmo_total_nonelectrostatic_energy": 7.78, 
			 "SMD_solvation_energy": 7.76 
		},
		"coords": [
			{
				"x": 0.8510030787,
				"y": 2.0247262127,
				"z": -2.0179276957,
				"element": "O" 
			},
			{
				"x": 0.7154702258,
				"y": 0.8830051899,
				"z": -1.5918668822,
				"element": "N" 
			},
			{
				"x": 1.196496452,
				"y": -0.1272752791,
				"z": -2.1001054819,
				"element": "O" 
			},
			{
				"x": -0.0920018094,
				"y": 0.7030191024,
				"z": -0.3669698283,
				"element": "C" 
			},
			{
				"x": -0.2391564379,
				"y": -0.596261292,
				"z": 0.1053703898,
				"element": "C" 
			},
			{
				"x": -0.991602586,
				"y": -0.8002820484,
				"z": 1.2539835747,
				"element": "C" 
			},
			{
				"x": -1.1391146192,
				"y": -2.0481534035,
				"z": 1.7166707988,
				"element": "F" 
			},
			{
				"x": -1.5948741095,
				"y": 0.25289476,
				"z": 1.9357917533,
				"element": "C" 
			},
			{
				"x": -1.4356380502,
				"y": 1.5442935009,
				"z": 1.4473317259,
				"element": "C" 
			},
			{
				"x": -0.6819173777,
				"y": 1.8021872952,
				"z": 0.2859873484,
				"element": "C" 
			},
			{
				"x": -0.5804270863,
				"y": 3.169251734,
				"z": -0.1321367892,
				"element": "C" 
			},
			{
				"x": -0.593358709,
				"y": 4.313694641,
				"z": -0.3379997279,
				"element": "N" 
			},
			{
				"x": 0.2264546844,
				"y": -1.420477215,
				"z": -0.4182961373,
				"element": "H" 
			},
			{
				"x": -2.175019616,
				"y": 0.0540269256,
				"z": 2.8297158117,
				"element": "H" 
			},
			{
				"x": -1.8959140394,
				"y": 2.3804498765,
				"z": 1.9612511399,
				"element": "H" 
			}
		],
		 "valence_orbital": [ 
			{
				"type": "occ",
				"energy": -0.33066,
				"method": "rhf"
			},
			{
				"type": "occ",
				"energy": -0.32619,
				"method": "rhf"
			},
			{
				"type": "occ",
				"energy": -0.31727,
				"method": "rhf"
			},
			{
				"type": "occ",
				"energy": -0.30838,
				"method": "rhf"
			},
			{
				"type": "occ",
				"energy": -0.28825,
				"method": "rhf"
			},
			{
				"type": "unocc",
				"energy": -0.11877,
				"method": "rhf"
			},
			{
				"type": "unocc",
				"energy": -0.07035,
				"method": "rhf"
			},
			{
				"type": "unocc",
				"energy": -0.03028,
				"method": "rhf"
			},
			{
				"type": "unocc",
				"energy": 0.02245,
				"method": "rhf"
			},
			{
				"type": "unocc",
				"energy": 0.05003,
				"method": "rhf"
			}
		],
		"cosmo_sigma_profile": { 
			"-0.025": 0.0,
			"-0.024": 0.0,
			"-0.023": 0.0,
			"-0.022": 0.0,
			"-0.021": 0.0,
			"-0.02": 0.0,
			"-0.019": 0.0,
			"-0.018": 0.0,
			"-0.017": 0.0,
			"-0.016": 0.0,
			"-0.015": 0.0,
			"-0.014": 0.0,
			"-0.013": 0.0,
			"-0.012": 0.0,
			"-0.011": 0.0,
			"-0.01": 3.36718491982,
			"-0.009": 7.27190739723,
			"-0.008": 7.61381724393,
			"-0.007": 6.79117276405,
			"-0.006": 6.65029725432,
			"-0.005": 8.07293870521,
			"-0.004": 13.5725499976,
			"-0.003": 22.3703295004,
			"-0.002": 13.0164620579,
			"-0.001": 10.0704190927,
			"0.0": 5.01264041724,
			"0.001": 4.89437948577,
			"0.002": 9.28943834591,
			"0.003": 10.7643982755,
			"0.004": 4.42305097548,
			"0.005": 5.4081156311,
			"0.006": 8.86088665324,
			"0.007": 11.7022021774,
			"0.008": 9.26547355235,
			"0.009": 4.96895219552,
			"0.01": 3.1715781088,
			"0.011": 2.60468319915,
			"0.012": 2.02324591353,
			"0.013": 0.379017953851,
			"0.014": 0.0,
			"0.015": 0.0,
			"0.016": 0.0,
			"0.017": 0.0,
			"0.018": 0.0,
			"0.019": 0.0,
			"0.02": 0.0,
			"0.021": 0.0,
			"0.022": 0.0,
			"0.023": 0.0,
			"0.024": 0.0,
			"0.025": 0.0
		}
	}
}
