{
	 "smiles": "CCCN(CCC)C(=O)C1=CC=C(N)C=C1", 
	 "Tm": 355.15, 
	 "num_atms": 36, 
	 "gaussian": { 
		 "optdone": 1, 
		 "sigma_profile": "yes", 
		 "theory": "DFT", 
		 "functional": "B3LYP", 
		 "basiset": "6-31G**", 
		 "properties": { 
			 "R2extent": 5106.2333, 
			 "electric_dipole_moment_norm": 4.70757069942, 
			 "electric_quadrupole_moment_norm": 19.3186790421, 
			 "total_energy": -692.19077943, 
			 "HOMO_LUMO_gap": 0.19025, 
			 "cosmo_polarized_energy": -14.82, 
			 "cosmo_cavitation_energy": 36.74, 
			 "cosmo_dispersion_energy": -25.62, 
			 "cosmo_repulsion_energy": 2.02, 
			 "cosmo_total_nonelectrostatic_energy": 13.13, 
			 "SMD_solvation_energy": 6.59 
		},
		"coords": [
			{
				"x": -2.9416282686,
				"y": -0.6914555742,
				"z": -1.6130185635,
				"element": "C" 
			},
			{
				"x": -1.7271015311,
				"y": 0.243409073,
				"z": -1.5775007551,
				"element": "C" 
			},
			{
				"x": -0.3586296768,
				"y": -0.3962022651,
				"z": -1.87851405,
				"element": "C" 
			},
			{
				"x": 0.2623059302,
				"y": -1.1879270919,
				"z": -0.8008236642,
				"element": "N" 
			},
			{
				"x": -0.1447369838,
				"y": -2.6052502268,
				"z": -0.6997461698,
				"element": "C" 
			},
			{
				"x": -0.3314651448,
				"y": -3.1085417215,
				"z": 0.7398059423,
				"element": "C" 
			},
			{
				"x": -1.4273927637,
				"y": -2.3966059789,
				"z": 1.5374386518,
				"element": "C" 
			},
			{
				"x": 1.5724678577,
				"y": -0.9357477424,
				"z": -0.4021310662,
				"element": "C" 
			},
			{
				"x": 2.3093624712,
				"y": -1.8516758556,
				"z": -0.0349433132,
				"element": "O" 
			},
			{
				"x": 2.0765010007,
				"y": 0.4756563212,
				"z": -0.3766224253,
				"element": "C" 
			},
			{
				"x": 3.4476156758,
				"y": 0.6795780193,
				"z": -0.6001695392,
				"element": "C" 
			},
			{
				"x": 4.0097733954,
				"y": 1.9456140169,
				"z": -0.5271720672,
				"element": "C" 
			},
			{
				"x": 3.2187768847,
				"y": 3.061815573,
				"z": -0.1924924606,
				"element": "C" 
			},
			{
				"x": 3.7887809519,
				"y": 4.3221916305,
				"z": -0.0583111976,
				"element": "N" 
			},
			{
				"x": 1.8510524291,
				"y": 2.8583168167,
				"z": 0.0655139703,
				"element": "C" 
			},
			{
				"x": 1.294947531,
				"y": 1.5873564982,
				"z": -0.0290289638,
				"element": "C" 
			},
			{
				"x": -3.8698101998,
				"y": -0.1192525354,
				"z": -1.5121847083,
				"element": "H" 
			},
			{
				"x": -2.9226884688,
				"y": -1.4250507668,
				"z": -0.8037952169,
				"element": "H" 
			},
			{
				"x": -2.9928834543,
				"y": -1.2372237437,
				"z": -2.5626201236,
				"element": "H" 
			},
			{
				"x": -1.8752910092,
				"y": 1.0295202514,
				"z": -2.3301110943,
				"element": "H" 
			},
			{
				"x": -1.6818324222,
				"y": 0.7533851394,
				"z": -0.6081442443,
				"element": "H" 
			},
			{
				"x": 0.3408242977,
				"y": 0.3966697779,
				"z": -2.1455596151,
				"element": "H" 
			},
			{
				"x": -0.4512871668,
				"y": -1.037070621,
				"z": -2.768746254,
				"element": "H" 
			},
			{
				"x": -1.0802653068,
				"y": -2.7112169135,
				"z": -1.2541481946,
				"element": "H" 
			},
			{
				"x": 0.61225547,
				"y": -3.2276222791,
				"z": -1.1933824696,
				"element": "H" 
			},
			{
				"x": -0.5583888113,
				"y": -4.1811549075,
				"z": 0.6784140517,
				"element": "H" 
			},
			{
				"x": 0.6268596389,
				"y": -3.0243718315,
				"z": 1.257861321,
				"element": "H" 
			},
			{
				"x": -1.4598260458,
				"y": -2.7647416997,
				"z": 2.5681447507,
				"element": "H" 
			},
			{
				"x": -1.2506770583,
				"y": -1.3170731732,
				"z": 1.5758982978,
				"element": "H" 
			},
			{
				"x": -2.4200251285,
				"y": -2.5597441383,
				"z": 1.1014185543,
				"element": "H" 
			},
			{
				"x": 4.0661828296,
				"y": -0.1820008463,
				"z": -0.8289396203,
				"element": "H" 
			},
			{
				"x": 5.0722998976,
				"y": 2.0805682587,
				"z": -0.7147368761,
				"element": "H" 
			},
			{
				"x": 3.158496463,
				"y": 5.1067168529,
				"z": -0.1419455242,
				"element": "H" 
			},
			{
				"x": 4.6621397808,
				"y": 4.467735861,
				"z": -0.5439540704,
				"element": "H" 
			},
			{
				"x": 1.2295380868,
				"y": 3.7021191321,
				"z": 0.3552373919,
				"element": "H" 
			},
			{
				"x": 0.2422488484,
				"y": 1.4564766901,
				"z": 0.1980093154,
				"element": "H" 
			}
		],
		 "valence_orbital": [ 
			{
				"type": "occ",
				"energy": -0.30205,
				"method": "rhf"
			},
			{
				"type": "occ",
				"energy": -0.25074,
				"method": "rhf"
			},
			{
				"type": "occ",
				"energy": -0.2401,
				"method": "rhf"
			},
			{
				"type": "occ",
				"energy": -0.22665,
				"method": "rhf"
			},
			{
				"type": "occ",
				"energy": -0.20426,
				"method": "rhf"
			},
			{
				"type": "unocc",
				"energy": -0.01401,
				"method": "rhf"
			},
			{
				"type": "unocc",
				"energy": 0.0005,
				"method": "rhf"
			},
			{
				"type": "unocc",
				"energy": 0.06004,
				"method": "rhf"
			},
			{
				"type": "unocc",
				"energy": 0.0784,
				"method": "rhf"
			},
			{
				"type": "unocc",
				"energy": 0.08421,
				"method": "rhf"
			}
		],
		"cosmo_sigma_profile": { 
			"-0.025": 0.0,
			"-0.024": 0.0,
			"-0.023": 0.0,
			"-0.022": 0.0,
			"-0.021": 0.0,
			"-0.02": 0.0,
			"-0.019": 0.0,
			"-0.018": 0.0,
			"-0.017": 0.0,
			"-0.016": 0.0,
			"-0.015": 0.0,
			"-0.014": 0.0,
			"-0.013": 1.09350829611,
			"-0.012": 3.00765439525,
			"-0.011": 2.71876650483,
			"-0.01": 3.0089578972,
			"-0.009": 3.58863027233,
			"-0.008": 2.72920598414,
			"-0.007": 2.93397444674,
			"-0.006": 4.84182909868,
			"-0.005": 7.72365949513,
			"-0.004": 13.5320558967,
			"-0.003": 30.090904816,
			"-0.002": 35.3817292068,
			"-0.001": 34.0037670117,
			"0.0": 30.0459888226,
			"0.001": 32.1082343348,
			"0.002": 18.3623889994,
			"0.003": 9.48443442376,
			"0.004": 8.38136085233,
			"0.005": 12.6469489495,
			"0.006": 8.81855031005,
			"0.007": 2.23042140797,
			"0.008": 2.17831634239,
			"0.009": 2.98376544906,
			"0.01": 2.75592452634,
			"0.011": 1.99392618557,
			"0.012": 2.44303783326,
			"0.013": 2.99055233044,
			"0.014": 3.85524834646,
			"0.015": 1.39839363334,
			"0.016": 0.0140958872552,
			"0.017": 0.0,
			"0.018": 0.0,
			"0.019": 0.0,
			"0.02": 0.0,
			"0.021": 0.0,
			"0.022": 0.0,
			"0.023": 0.0,
			"0.024": 0.0,
			"0.025": 0.0
		}
	}
}
