{
	 "smiles": "CC(Cl)C1CC(=NO1)C1=CC=CC=C1", 
	 "Tm": 333.15, 
	 "num_atms": 26, 
	 "gaussian": { 
		 "optdone": 1, 
		 "sigma_profile": "yes", 
		 "theory": "DFT", 
		 "functional": "B3LYP", 
		 "basiset": "6-31G**", 
		 "properties": { 
			 "R2extent": 5080.1537, 
			 "electric_dipole_moment_norm": 4.97703182027, 
			 "electric_quadrupole_moment_norm": 16.6219017044, 
			 "total_energy": -1016.52560902, 
			 "HOMO_LUMO_gap": 0.17864, 
			 "cosmo_polarized_energy": -14.21, 
			 "cosmo_cavitation_energy": 30.88, 
			 "cosmo_dispersion_energy": -22.63, 
			 "cosmo_repulsion_energy": 1.77, 
			 "cosmo_total_nonelectrostatic_energy": 10.02, 
			 "SMD_solvation_energy": 4.23 
		},
		"coords": [
			{
				"x": -0.4749387965,
				"y": 4.3166134707,
				"z": 2.3483291489,
				"element": "C" 
			},
			{
				"x": -0.9523284364,
				"y": 2.91964128,
				"z": 2.7301688695,
				"element": "C" 
			},
			{
				"x": -2.3841783282,
				"y": 3.0723974823,
				"z": 3.8568707998,
				"element": "Cl" 
			},
			{
				"x": -1.3425433153,
				"y": 2.0708320439,
				"z": 1.5231559604,
				"element": "C" 
			},
			{
				"x": -0.1827508035,
				"y": 1.7786235798,
				"z": 0.5540841643,
				"element": "C" 
			},
			{
				"x": -0.3233466639,
				"y": 0.2799673758,
				"z": 0.3923207367,
				"element": "C" 
			},
			{
				"x": -1.1889443719,
				"y": -0.2317723269,
				"z": 1.1962705055,
				"element": "N" 
			},
			{
				"x": -1.7826677679,
				"y": 0.7578303206,
				"z": 1.9693519732,
				"element": "O" 
			},
			{
				"x": 0.4615463415,
				"y": -0.5511146132,
				"z": -0.5293582466,
				"element": "C" 
			},
			{
				"x": 0.2513026981,
				"y": -1.9416052091,
				"z": -0.5994647208,
				"element": "C" 
			},
			{
				"x": 1.0007323821,
				"y": -2.7225131054,
				"z": -1.4717373181,
				"element": "C" 
			},
			{
				"x": 1.9725428382,
				"y": -2.1364461343,
				"z": -2.2906081803,
				"element": "C" 
			},
			{
				"x": 2.1879498963,
				"y": -0.7601813023,
				"z": -2.2290716449,
				"element": "C" 
			},
			{
				"x": 1.4376285637,
				"y": 0.0281770652,
				"z": -1.3556080077,
				"element": "C" 
			},
			{
				"x": 0.4289903081,
				"y": 4.2577424872,
				"z": 1.7324636319,
				"element": "H" 
			},
			{
				"x": -1.2454825009,
				"y": 4.8513233152,
				"z": 1.7850858261,
				"element": "H" 
			},
			{
				"x": -0.2401762949,
				"y": 4.8975127058,
				"z": 3.242626245,
				"element": "H" 
			},
			{
				"x": -0.1955880737,
				"y": 2.3845139566,
				"z": 3.3095513939,
				"element": "H" 
			},
			{
				"x": -2.1871780593,
				"y": 2.542483108,
				"z": 1.0052839908,
				"element": "H" 
			},
			{
				"x": 0.801131684,
				"y": 2.0255014278,
				"z": 0.9751537412,
				"element": "H" 
			},
			{
				"x": -0.2789764554,
				"y": 2.3196651857,
				"z": -0.3910953772,
				"element": "H" 
			},
			{
				"x": -0.5036087279,
				"y": -2.3900907174,
				"z": 0.0372043328,
				"element": "H" 
			},
			{
				"x": 0.8279665114,
				"y": -3.793972814,
				"z": -1.5158937242,
				"element": "H" 
			},
			{
				"x": 2.5551329647,
				"y": -2.7503981883,
				"z": -2.9711743881,
				"element": "H" 
			},
			{
				"x": 2.939748906,
				"y": -0.2963307374,
				"z": -2.8609959842,
				"element": "H" 
			},
			{
				"x": 1.6158355014,
				"y": 1.0987003438,
				"z": -1.318313728,
				"element": "H" 
			}
		],
		 "valence_orbital": [ 
			{
				"type": "occ",
				"energy": -0.29608,
				"method": "rhf"
			},
			{
				"type": "occ",
				"energy": -0.29139,
				"method": "rhf"
			},
			{
				"type": "occ",
				"energy": -0.28174,
				"method": "rhf"
			},
			{
				"type": "occ",
				"energy": -0.25936,
				"method": "rhf"
			},
			{
				"type": "occ",
				"energy": -0.22448,
				"method": "rhf"
			},
			{
				"type": "unocc",
				"energy": -0.04584,
				"method": "rhf"
			},
			{
				"type": "unocc",
				"energy": -0.00852,
				"method": "rhf"
			},
			{
				"type": "unocc",
				"energy": 0.01855,
				"method": "rhf"
			},
			{
				"type": "unocc",
				"energy": 0.03978,
				"method": "rhf"
			},
			{
				"type": "unocc",
				"energy": 0.07583,
				"method": "rhf"
			}
		],
		"cosmo_sigma_profile": { 
			"-0.025": 0.0,
			"-0.024": 0.0,
			"-0.023": 0.0,
			"-0.022": 0.0,
			"-0.021": 0.0,
			"-0.02": 0.0,
			"-0.019": 0.0,
			"-0.018": 0.0,
			"-0.017": 0.0,
			"-0.016": 0.0,
			"-0.015": 0.0,
			"-0.014": 0.0,
			"-0.013": 0.0,
			"-0.012": 0.0,
			"-0.011": 0.0,
			"-0.01": 0.0,
			"-0.009": 0.0742458786645,
			"-0.008": 2.43623887942,
			"-0.007": 11.1837607142,
			"-0.006": 22.58351289,
			"-0.005": 21.7450181666,
			"-0.004": 23.0305534634,
			"-0.003": 15.6164966093,
			"-0.002": 15.7992425107,
			"-0.001": 14.0181338024,
			"0.0": 12.0869001656,
			"0.001": 11.775003778,
			"0.002": 14.2249101759,
			"0.003": 14.7535619952,
			"0.004": 17.2953986618,
			"0.005": 14.8698034854,
			"0.006": 10.2899163956,
			"0.007": 6.25484525791,
			"0.008": 3.02146309608,
			"0.009": 3.4784114263,
			"0.01": 4.25588183929,
			"0.011": 5.30775331919,
			"0.012": 2.24165779352,
			"0.013": 0.722801238225,
			"0.014": 0.000157482354044,
			"0.015": 0.0,
			"0.016": 0.0,
			"0.017": 0.0,
			"0.018": 0.0,
			"0.019": 0.0,
			"0.02": 0.0,
			"0.021": 0.0,
			"0.022": 0.0,
			"0.023": 0.0,
			"0.024": 0.0,
			"0.025": 0.0
		}
	}
}
