{
	 "smiles": "OC(C1=CC=CC=C1)C1=CC=C(Cl)C=C1", 
	 "Tm": 333.55, 
	 "num_atms": 26, 
	 "gaussian": { 
		 "optdone": 1, 
		 "sigma_profile": "yes", 
		 "theory": "DFT", 
		 "functional": "B3LYP", 
		 "basiset": "6-31G**", 
		 "properties": { 
			 "R2extent": 5564.1585, 
			 "electric_dipole_moment_norm": 1.18399237751, 
			 "electric_quadrupole_moment_norm": 16.639305505, 
			 "total_energy": -1037.4243184, 
			 "HOMO_LUMO_gap": 0.21454, 
			 "cosmo_polarized_energy": -9.44, 
			 "cosmo_cavitation_energy": 31.81, 
			 "cosmo_dispersion_energy": -22.76, 
			 "cosmo_repulsion_energy": 1.8, 
			 "cosmo_total_nonelectrostatic_energy": 10.85, 
			 "SMD_solvation_energy": 5.01 
		},
		"coords": [
			{
				"x": 1.8549580031,
				"y": 0.8528183634,
				"z": 1.6431879181,
				"element": "O" 
			},
			{
				"x": 0.5893653683,
				"y": 0.2316682426,
				"z": 1.8507953413,
				"element": "C" 
			},
			{
				"x": -0.3919312172,
				"y": 0.8031981339,
				"z": 0.8327717907,
				"element": "C" 
			},
			{
				"x": 0.0292124536,
				"y": 1.6812720108,
				"z": -0.1701193063,
				"element": "C" 
			},
			{
				"x": -0.8904806751,
				"y": 2.1929582969,
				"z": -1.0897443862,
				"element": "C" 
			},
			{
				"x": -2.2364623412,
				"y": 1.8364759227,
				"z": -1.0151852472,
				"element": "C" 
			},
			{
				"x": -2.6627604302,
				"y": 0.9622409362,
				"z": -0.011694879,
				"element": "C" 
			},
			{
				"x": -1.7461726282,
				"y": 0.4502200812,
				"z": 0.9044196223,
				"element": "C" 
			},
			{
				"x": 0.7033541958,
				"y": -1.2859089014,
				"z": 1.7581932724,
				"element": "C" 
			},
			{
				"x": 1.3252971839,
				"y": -1.8777514602,
				"z": 0.6496044471,
				"element": "C" 
			},
			{
				"x": 1.4472028556,
				"y": -3.2609922411,
				"z": 0.5515317748,
				"element": "C" 
			},
			{
				"x": 0.9381491446,
				"y": -4.0630335441,
				"z": 1.5757210726,
				"element": "C" 
			},
			{
				"x": 1.0880241172,
				"y": -5.8112737558,
				"z": 1.4580744931,
				"element": "Cl" 
			},
			{
				"x": 0.3191058139,
				"y": -3.5014233376,
				"z": 2.6893377988,
				"element": "C" 
			},
			{
				"x": 0.2109900274,
				"y": -2.1110334577,
				"z": 2.7731098649,
				"element": "C" 
			},
			{
				"x": 2.4921816198,
				"y": 0.4112136259,
				"z": 2.2188358153,
				"element": "H" 
			},
			{
				"x": 0.2102708851,
				"y": 0.4773718599,
				"z": 2.8568904935,
				"element": "H" 
			},
			{
				"x": 1.0736383824,
				"y": 1.9651995011,
				"z": -0.2197617847,
				"element": "H" 
			},
			{
				"x": -0.5504871594,
				"y": 2.8749243729,
				"z": -1.8643573163,
				"element": "H" 
			},
			{
				"x": -2.9497104625,
				"y": 2.2364744117,
				"z": -1.730218001,
				"element": "H" 
			},
			{
				"x": -3.7093346465,
				"y": 0.6789127007,
				"z": 0.0568062657,
				"element": "H" 
			},
			{
				"x": -2.0842862946,
				"y": -0.2351411809,
				"z": 1.6779009181,
				"element": "H" 
			},
			{
				"x": 1.7169902695,
				"y": -1.2437593675,
				"z": -0.1399703103,
				"element": "H" 
			},
			{
				"x": 1.9274385412,
				"y": -3.7176475566,
				"z": -0.30695546,
				"element": "H" 
			},
			{
				"x": -0.0643040901,
				"y": -4.1379580392,
				"z": 3.4791119013,
				"element": "H" 
			},
			{
				"x": -0.2614489166,
				"y": -1.6681256176,
				"z": 3.6466139007,
				"element": "H" 
			}
		],
		 "valence_orbital": [ 
			{
				"type": "occ",
				"energy": -0.28903,
				"method": "rhf"
			},
			{
				"type": "occ",
				"energy": -0.26681,
				"method": "rhf"
			},
			{
				"type": "occ",
				"energy": -0.24844,
				"method": "rhf"
			},
			{
				"type": "occ",
				"energy": -0.24636,
				"method": "rhf"
			},
			{
				"type": "occ",
				"energy": -0.23669,
				"method": "rhf"
			},
			{
				"type": "unocc",
				"energy": -0.02215,
				"method": "rhf"
			},
			{
				"type": "unocc",
				"energy": -0.01956,
				"method": "rhf"
			},
			{
				"type": "unocc",
				"energy": -0.00025,
				"method": "rhf"
			},
			{
				"type": "unocc",
				"energy": 0.00702,
				"method": "rhf"
			},
			{
				"type": "unocc",
				"energy": 0.02873,
				"method": "rhf"
			}
		],
		"cosmo_sigma_profile": { 
			"-0.025": 0.0,
			"-0.024": 0.0,
			"-0.023": 0.0,
			"-0.022": 0.0,
			"-0.021": 0.0,
			"-0.02": 0.0,
			"-0.019": 0.0,
			"-0.018": 0.0,
			"-0.017": 0.0,
			"-0.016": 0.475988020074,
			"-0.015": 0.96898129844,
			"-0.014": 0.942022439709,
			"-0.013": 0.953451871577,
			"-0.012": 0.439093744504,
			"-0.011": 0.434773036208,
			"-0.01": 0.592521917982,
			"-0.009": 0.940319088178,
			"-0.008": 1.53885207132,
			"-0.007": 5.70712323222,
			"-0.006": 12.1427548119,
			"-0.005": 21.1269204985,
			"-0.004": 16.4896324881,
			"-0.003": 18.7015459881,
			"-0.002": 15.9484326365,
			"-0.001": 15.6518542868,
			"0.0": 14.9451234453,
			"0.001": 17.9699712443,
			"0.002": 22.9751011859,
			"0.003": 23.6905671813,
			"0.004": 26.6574813123,
			"0.005": 17.9175005713,
			"0.006": 10.029208817,
			"0.007": 3.10915813547,
			"0.008": 1.00365393128,
			"0.009": 1.00910703003,
			"0.01": 1.96085327377,
			"0.011": 0.784180420635,
			"0.012": 0.790740957261,
			"0.013": 0.303657823001,
			"0.014": 0.0,
			"0.015": 0.0,
			"0.016": 0.0,
			"0.017": 0.0,
			"0.018": 0.0,
			"0.019": 0.0,
			"0.02": 0.0,
			"0.021": 0.0,
			"0.022": 0.0,
			"0.023": 0.0,
			"0.024": 0.0,
			"0.025": 0.0
		}
	}
}
