{
	 "smiles": "OC(=O)C1CCN1CC1=CC=CC=C1", 
	 "Tm": 450.15, 
	 "num_atms": 27, 
	 "gaussian": { 
		 "optdone": 1, 
		 "sigma_profile": "yes", 
		 "theory": "DFT", 
		 "functional": "B3LYP", 
		 "basiset": "6-31G**", 
		 "properties": { 
			 "R2extent": 4216.4512, 
			 "electric_dipole_moment_norm": 1.26386121469, 
			 "electric_quadrupole_moment_norm": 9.83204186627, 
			 "total_energy": -632.180706479, 
			 "HOMO_LUMO_gap": 0.20728, 
			 "cosmo_polarized_energy": -10.23, 
			 "cosmo_cavitation_energy": 30.29, 
			 "cosmo_dispersion_energy": -21.53, 
			 "cosmo_repulsion_energy": 1.73, 
			 "cosmo_total_nonelectrostatic_energy": 10.49, 
			 "SMD_solvation_energy": 4.39 
		},
		"coords": [
			{
				"x": 4.2949653263,
				"y": -0.1887552648,
				"z": 2.9211351634,
				"element": "O" 
			},
			{
				"x": 3.1145266978,
				"y": -0.7407001645,
				"z": 2.549943134,
				"element": "C" 
			},
			{
				"x": 2.4865215165,
				"y": -1.4849953238,
				"z": 3.2748305902,
				"element": "O" 
			},
			{
				"x": 2.7185197053,
				"y": -0.3311980742,
				"z": 1.139243225,
				"element": "C" 
			},
			{
				"x": 2.7081002309,
				"y": -1.5667781237,
				"z": 0.1808635927,
				"element": "C" 
			},
			{
				"x": 1.1701706604,
				"y": -1.5605868638,
				"z": 0.3474728765,
				"element": "C" 
			},
			{
				"x": 1.2745828988,
				"y": -0.18780913,
				"z": 0.8854542409,
				"element": "N" 
			},
			{
				"x": 0.3525736368,
				"y": 0.2851155806,
				"z": 1.9076672583,
				"element": "C" 
			},
			{
				"x": -1.031967206,
				"y": 0.5381624816,
				"z": 1.3392675439,
				"element": "C" 
			},
			{
				"x": -1.1952406963,
				"y": 1.1730691111,
				"z": 0.1004031862,
				"element": "C" 
			},
			{
				"x": -2.4699461596,
				"y": 1.4336574052,
				"z": -0.4014573142,
				"element": "C" 
			},
			{
				"x": -3.6026690259,
				"y": 1.0647151299,
				"z": 0.3291004857,
				"element": "C" 
			},
			{
				"x": -3.4503325061,
				"y": 0.4288953279,
				"z": 1.5617357438,
				"element": "C" 
			},
			{
				"x": -2.1723428209,
				"y": 0.1644081272,
				"z": 2.0591179827,
				"element": "C" 
			},
			{
				"x": 4.486660257,
				"y": -0.5314914169,
				"z": 3.8111255567,
				"element": "H" 
			},
			{
				"x": 3.3224796005,
				"y": 0.530406606,
				"z": 0.835166414,
				"element": "H" 
			},
			{
				"x": 3.0403298533,
				"y": -1.3012021121,
				"z": -0.8240630486,
				"element": "H" 
			},
			{
				"x": 3.2389052397,
				"y": -2.45553499,
				"z": 0.5248546952,
				"element": "H" 
			},
			{
				"x": 0.5584803998,
				"y": -1.6486840912,
				"z": -0.5567096395,
				"element": "H" 
			},
			{
				"x": 0.8285558558,
				"y": -2.2967271245,
				"z": 1.0888024258,
				"element": "H" 
			},
			{
				"x": 0.2804197444,
				"y": -0.4064701754,
				"z": 2.7616986414,
				"element": "H" 
			},
			{
				"x": 0.7641833857,
				"y": 1.2273721063,
				"z": 2.2990829421,
				"element": "H" 
			},
			{
				"x": -0.3107804519,
				"y": 1.4473251187,
				"z": -0.4667591193,
				"element": "H" 
			},
			{
				"x": -2.5809810979,
				"y": 1.925536397,
				"z": -1.3641407043,
				"element": "H" 
			},
			{
				"x": -4.5955945416,
				"y": 1.2675010428,
				"z": -0.0624109196,
				"element": "H" 
			},
			{
				"x": -4.3248749766,
				"y": 0.1314215205,
				"z": 2.1338419656,
				"element": "H" 
			},
			{
				"x": -2.0578455262,
				"y": -0.3392530999,
				"z": 3.0161330813,
				"element": "H" 
			}
		],
		 "valence_orbital": [ 
			{
				"type": "occ",
				"energy": -0.32004,
				"method": "rhf"
			},
			{
				"type": "occ",
				"energy": -0.28436,
				"method": "rhf"
			},
			{
				"type": "occ",
				"energy": -0.24293,
				"method": "rhf"
			},
			{
				"type": "occ",
				"energy": -0.23818,
				"method": "rhf"
			},
			{
				"type": "occ",
				"energy": -0.21493,
				"method": "rhf"
			},
			{
				"type": "unocc",
				"energy": -0.00765,
				"method": "rhf"
			},
			{
				"type": "unocc",
				"energy": 0.00468,
				"method": "rhf"
			},
			{
				"type": "unocc",
				"energy": 0.00927,
				"method": "rhf"
			},
			{
				"type": "unocc",
				"energy": 0.07473,
				"method": "rhf"
			},
			{
				"type": "unocc",
				"energy": 0.09574,
				"method": "rhf"
			}
		],
		"cosmo_sigma_profile": { 
			"-0.025": 0.0,
			"-0.024": 0.0,
			"-0.023": 0.0,
			"-0.022": 0.0,
			"-0.021": 0.0,
			"-0.02": 0.0,
			"-0.019": 0.0402518138105,
			"-0.018": 0.770652870858,
			"-0.017": 0.767569293774,
			"-0.016": 1.08251720413,
			"-0.015": 0.677480027309,
			"-0.014": 0.70998508002,
			"-0.013": 0.267255499095,
			"-0.012": 0.643556615337,
			"-0.011": 1.13810393179,
			"-0.01": 0.933154764372,
			"-0.009": 0.425225976831,
			"-0.008": 0.38312331775,
			"-0.007": 1.07334430375,
			"-0.006": 4.28865652779,
			"-0.005": 17.9673561632,
			"-0.004": 19.8745545712,
			"-0.003": 26.568457221,
			"-0.002": 23.6115774302,
			"-0.001": 25.6688776413,
			"0.0": 16.6611304207,
			"0.001": 12.3017620081,
			"0.002": 12.6450807195,
			"0.003": 12.0443676626,
			"0.004": 11.6401771117,
			"0.005": 12.1393552858,
			"0.006": 11.8591087077,
			"0.007": 6.0500666106,
			"0.008": 4.01257417133,
			"0.009": 3.85481195909,
			"0.01": 2.16149950606,
			"0.011": 3.24091030422,
			"0.012": 3.37568504261,
			"0.013": 0.0826531514016,
			"0.014": 0.0,
			"0.015": 0.0,
			"0.016": 0.0,
			"0.017": 0.0,
			"0.018": 0.0,
			"0.019": 0.0,
			"0.02": 0.0,
			"0.021": 0.0,
			"0.022": 0.0,
			"0.023": 0.0,
			"0.024": 0.0,
			"0.025": 0.0
		}
	}
}
