{
	 "smiles": "CC1=CC2=CC3=C(NC(C)=C3)C=C2N1", 
	 "Tm": 443.15, 
	 "num_atms": 26, 
	 "gaussian": { 
		 "optdone": 1, 
		 "sigma_profile": "yes", 
		 "theory": "DFT", 
		 "functional": "B3LYP", 
		 "basiset": "6-31G**", 
		 "properties": { 
			 "R2extent": 4513.925, 
			 "electric_dipole_moment_norm": 2.91670462851, 
			 "electric_quadrupole_moment_norm": 16.9616790879, 
			 "total_energy": -574.03321823, 
			 "HOMO_LUMO_gap": 0.16641, 
			 "cosmo_polarized_energy": -13.38, 
			 "cosmo_cavitation_energy": 29.27, 
			 "cosmo_dispersion_energy": -21.94, 
			 "cosmo_repulsion_energy": 1.72, 
			 "cosmo_total_nonelectrostatic_energy": 9.05, 
			 "SMD_solvation_energy": 4.39 
		},
		"coords": [
			{
				"x": 1.0858724583,
				"y": 5.3573216163,
				"z": 0.5525652113,
				"element": "C" 
			},
			{
				"x": 0.9190814463,
				"y": 3.8879014697,
				"z": 0.7648704464,
				"element": "C" 
			},
			{
				"x": 1.4637878288,
				"y": 2.8252430256,
				"z": 0.0943810761,
				"element": "C" 
			},
			{
				"x": 0.9758062306,
				"y": 1.6132226167,
				"z": 0.7036346366,
				"element": "C" 
			},
			{
				"x": 1.183464297,
				"y": 0.2528051552,
				"z": 0.4519287929,
				"element": "C" 
			},
			{
				"x": 0.5303966401,
				"y": -0.6801372195,
				"z": 1.2645380899,
				"element": "C" 
			},
			{
				"x": -0.3258309764,
				"y": -0.2299064804,
				"z": 2.3231800144,
				"element": "C" 
			},
			{
				"x": -0.8243111492,
				"y": -1.3614533778,
				"z": 2.9450023349,
				"element": "N" 
			},
			{
				"x": -0.3222984086,
				"y": -2.5031676656,
				"z": 2.3278309149,
				"element": "C" 
			},
			{
				"x": -0.705583049,
				"y": -3.8650684144,
				"z": 2.8078399621,
				"element": "C" 
			},
			{
				"x": 0.5031245407,
				"y": -2.1209722919,
				"z": 1.3040603552,
				"element": "C" 
			},
			{
				"x": -0.5561442044,
				"y": 1.1167728834,
				"z": 2.603048337,
				"element": "C" 
			},
			{
				"x": 0.1107593015,
				"y": 2.0178476144,
				"z": 1.7734699424,
				"element": "C" 
			},
			{
				"x": 0.100946491,
				"y": 3.4018320979,
				"z": 1.7801590526,
				"element": "N" 
			},
			{
				"x": 0.1308850648,
				"y": 5.8492987065,
				"z": 0.3263292832,
				"element": "H" 
			},
			{
				"x": 1.5067267433,
				"y": 5.8535621109,
				"z": 1.4367904017,
				"element": "H" 
			},
			{
				"x": 1.7617871106,
				"y": 5.5406792096,
				"z": -0.2855750733,
				"element": "H" 
			},
			{
				"x": 2.1414439616,
				"y": 2.8977561737,
				"z": -0.7452086215,
				"element": "H" 
			},
			{
				"x": 1.8356910891,
				"y": -0.0711315808,
				"z": -0.3545878753,
				"element": "H" 
			},
			{
				"x": -1.4567120193,
				"y": -1.3616333,
				"z": 3.728173001,
				"element": "H" 
			},
			{
				"x": -0.4129986739,
				"y": -4.0280631883,
				"z": 3.8533325737,
				"element": "H" 
			},
			{
				"x": -0.2134929107,
				"y": -4.6285948957,
				"z": 2.2013455051,
				"element": "H" 
			},
			{
				"x": -1.7886245595,
				"y": -4.0323759544,
				"z": 2.742603641,
				"element": "H" 
			},
			{
				"x": 1.0358734754,
				"y": -2.7945944357,
				"z": 0.6469468189,
				"element": "H" 
			},
			{
				"x": -1.2082763854,
				"y": 1.4406473582,
				"z": 3.4094253211,
				"element": "H" 
			},
			{
				"x": -0.4200743428,
				"y": 3.9748087663,
				"z": 2.4232158579,
				"element": "H" 
			}
		],
		 "valence_orbital": [ 
			{
				"type": "occ",
				"energy": -0.28824,
				"method": "rhf"
			},
			{
				"type": "occ",
				"energy": -0.2629,
				"method": "rhf"
			},
			{
				"type": "occ",
				"energy": -0.22951,
				"method": "rhf"
			},
			{
				"type": "occ",
				"energy": -0.18097,
				"method": "rhf"
			},
			{
				"type": "occ",
				"energy": -0.16562,
				"method": "rhf"
			},
			{
				"type": "unocc",
				"energy": 0.00079,
				"method": "rhf"
			},
			{
				"type": "unocc",
				"energy": 0.04801,
				"method": "rhf"
			},
			{
				"type": "unocc",
				"energy": 0.08483,
				"method": "rhf"
			},
			{
				"type": "unocc",
				"energy": 0.08644,
				"method": "rhf"
			},
			{
				"type": "unocc",
				"energy": 0.08895,
				"method": "rhf"
			}
		],
		"cosmo_sigma_profile": { 
			"-0.025": 0.0,
			"-0.024": 0.0,
			"-0.023": 0.0,
			"-0.022": 0.0,
			"-0.021": 0.0,
			"-0.02": 0.0,
			"-0.019": 0.0,
			"-0.018": 0.0,
			"-0.017": 0.0,
			"-0.016": 0.0,
			"-0.015": 0.458383672491,
			"-0.014": 2.48979757077,
			"-0.013": 2.54655810484,
			"-0.012": 2.66480502551,
			"-0.011": 2.00397392902,
			"-0.01": 1.53252612964,
			"-0.009": 3.1409015603,
			"-0.008": 2.89843552576,
			"-0.007": 2.87074350681,
			"-0.006": 4.48931723715,
			"-0.005": 10.392972831,
			"-0.004": 21.9071579246,
			"-0.003": 20.3150537586,
			"-0.002": 19.232923901,
			"-0.001": 20.6261327095,
			"0.0": 17.1847840059,
			"0.001": 11.5138675377,
			"0.002": 7.98444010789,
			"0.003": 7.68770909399,
			"0.004": 8.67239585755,
			"0.005": 10.7156981703,
			"0.006": 15.8903012012,
			"0.007": 17.7217501325,
			"0.008": 16.1325230935,
			"0.009": 1.39565028056,
			"0.01": 0.0,
			"0.011": 0.0,
			"0.012": 0.0,
			"0.013": 0.0,
			"0.014": 0.0,
			"0.015": 0.0,
			"0.016": 0.0,
			"0.017": 0.0,
			"0.018": 0.0,
			"0.019": 0.0,
			"0.02": 0.0,
			"0.021": 0.0,
			"0.022": 0.0,
			"0.023": 0.0,
			"0.024": 0.0,
			"0.025": 0.0
		}
	}
}
