{
	 "smiles": "OC(=O)CC1=C(F)C=CC=C1", 
	 "Tm": 336.15, 
	 "num_atms": 18, 
	 "gaussian": { 
		 "optdone": 1, 
		 "sigma_profile": "yes", 
		 "theory": "DFT", 
		 "functional": "B3LYP", 
		 "basiset": "6-31G**", 
		 "properties": { 
			 "R2extent": 2430.1666, 
			 "electric_dipole_moment_norm": 4.90015135787, 
			 "electric_quadrupole_moment_norm": 12.8223316955, 
			 "total_energy": -559.365290613, 
			 "HOMO_LUMO_gap": 0.22419, 
			 "cosmo_polarized_energy": -11.62, 
			 "cosmo_cavitation_energy": 22.56, 
			 "cosmo_dispersion_energy": -16.51, 
			 "cosmo_repulsion_energy": 1.31, 
			 "cosmo_total_nonelectrostatic_energy": 7.35, 
			 "SMD_solvation_energy": 5.34 
		},
		"coords": [
			{
				"x": 3.0438917431,
				"y": -0.4695166975,
				"z": -1.8445929247,
				"element": "O" 
			},
			{
				"x": 3.0864452041,
				"y": -0.3242976754,
				"z": -0.5004460247,
				"element": "C" 
			},
			{
				"x": 3.7113519497,
				"y": 0.5721996708,
				"z": 0.0072947842,
				"element": "O" 
			},
			{
				"x": 2.3077127726,
				"y": -1.3726259415,
				"z": 0.3111116454,
				"element": "C" 
			},
			{
				"x": 0.8126954175,
				"y": -1.3486919548,
				"z": 0.0699652034,
				"element": "C" 
			},
			{
				"x": 0.249362743,
				"y": -1.9454044586,
				"z": -1.0572747897,
				"element": "C" 
			},
			{
				"x": 1.0987842055,
				"y": -2.5424952576,
				"z": -1.9554120643,
				"element": "F" 
			},
			{
				"x": -1.1090171047,
				"y": -1.9616810225,
				"z": -1.328693544,
				"element": "C" 
			},
			{
				"x": -1.9692514672,
				"y": -1.341044391,
				"z": -0.4207284953,
				"element": "C" 
			},
			{
				"x": -1.4516805631,
				"y": -0.7247129701,
				"z": 0.7200563662,
				"element": "C" 
			},
			{
				"x": -0.0764996364,
				"y": -0.7311569218,
				"z": 0.9591298595,
				"element": "C" 
			},
			{
				"x": 2.5048874633,
				"y": -1.2388967429,
				"z": -2.0897871015,
				"element": "H" 
			},
			{
				"x": 2.708828282,
				"y": -2.3636822919,
				"z": 0.0658548241,
				"element": "H" 
			},
			{
				"x": 2.5213381403,
				"y": -1.1719356353,
				"z": 1.3611892217,
				"element": "H" 
			},
			{
				"x": -1.4702554094,
				"y": -2.4483301326,
				"z": -2.2279274908,
				"element": "H" 
			},
			{
				"x": -3.0381113066,
				"y": -1.3389128499,
				"z": -0.6094845606,
				"element": "H" 
			},
			{
				"x": -2.1182941813,
				"y": -0.2401354295,
				"z": 1.4263149124,
				"element": "H" 
			},
			{
				"x": 0.3228117478,
				"y": -0.2529792978,
				"z": 1.849030179,
				"element": "H" 
			}
		],
		 "valence_orbital": [ 
			{
				"type": "occ",
				"energy": -0.36066,
				"method": "rhf"
			},
			{
				"type": "occ",
				"energy": -0.30995,
				"method": "rhf"
			},
			{
				"type": "occ",
				"energy": -0.28444,
				"method": "rhf"
			},
			{
				"type": "occ",
				"energy": -0.26829,
				"method": "rhf"
			},
			{
				"type": "occ",
				"energy": -0.25362,
				"method": "rhf"
			},
			{
				"type": "unocc",
				"energy": -0.02943,
				"method": "rhf"
			},
			{
				"type": "unocc",
				"energy": -0.01946,
				"method": "rhf"
			},
			{
				"type": "unocc",
				"energy": 0.01715,
				"method": "rhf"
			},
			{
				"type": "unocc",
				"energy": 0.0667,
				"method": "rhf"
			},
			{
				"type": "unocc",
				"energy": 0.08993,
				"method": "rhf"
			}
		],
		"cosmo_sigma_profile": { 
			"-0.025": 0.0,
			"-0.024": 0.0,
			"-0.023": 0.0,
			"-0.022": 0.0,
			"-0.021": 0.0,
			"-0.02": 0.0,
			"-0.019": 0.0,
			"-0.018": 0.0,
			"-0.017": 0.0,
			"-0.016": 0.0,
			"-0.015": 0.0,
			"-0.014": 0.0,
			"-0.013": 0.0,
			"-0.012": 0.158458712482,
			"-0.011": 1.06810146076,
			"-0.01": 1.74820848265,
			"-0.009": 1.97737261722,
			"-0.008": 2.95103664203,
			"-0.007": 10.7378858954,
			"-0.006": 12.7626594566,
			"-0.005": 14.1935009131,
			"-0.004": 12.3441350995,
			"-0.003": 11.9667563732,
			"-0.002": 11.5636916116,
			"-0.001": 10.3869171668,
			"0.0": 11.2592201644,
			"0.001": 10.4028084727,
			"0.002": 12.5533879879,
			"0.003": 13.2071569474,
			"0.004": 10.5452181242,
			"0.005": 2.93557372558,
			"0.006": 1.85409091498,
			"0.007": 2.23424174004,
			"0.008": 2.67195145735,
			"0.009": 3.32492174092,
			"0.01": 4.70078870682,
			"0.011": 5.41942687085,
			"0.012": 5.69904806586,
			"0.013": 1.90380624777,
			"0.014": 0.0231162609195,
			"0.015": 0.0,
			"0.016": 0.0,
			"0.017": 0.0,
			"0.018": 0.0,
			"0.019": 0.0,
			"0.02": 0.0,
			"0.021": 0.0,
			"0.022": 0.0,
			"0.023": 0.0,
			"0.024": 0.0,
			"0.025": 0.0
		}
	}
}
