{
	 "smiles": "BrC1=CC(Br)=C(OC2=CC=C(Br)C(Br)=C2Br)C(Br)=C1", 
	 "Tm": 453.15, 
	 "num_atms": 23, 
	 "gaussian": { 
		 "optdone": 1, 
		 "sigma_profile": "yes", 
		 "theory": "DFT", 
		 "functional": "B3LYP", 
		 "basiset": "6-31G**", 
		 "properties": { 
			 "R2extent": 20222.4111, 
			 "electric_dipole_moment_norm": 3.00739148599, 
			 "electric_quadrupole_moment_norm": 6.34161111312, 
			 "total_energy": -15963.3003193, 
			 "HOMO_LUMO_gap": 0.1885, 
			 "cosmo_polarized_energy": -7.9, 
			 "cosmo_cavitation_energy": 42.13, 
			 "cosmo_dispersion_energy": -30.93, 
			 "cosmo_repulsion_energy": 2.42, 
			 "cosmo_total_nonelectrostatic_energy": 13.61, 
			 "SMD_solvation_energy": 0.86 
		},
		"coords": [
			{
				"x": 2.5523969681,
				"y": 1.8223509782,
				"z": -3.8404357737,
				"element": "Br" 
			},
			{
				"x": 1.5838393674,
				"y": 0.9897284022,
				"z": -2.4281533563,
				"element": "C" 
			},
			{
				"x": 2.1164694041,
				"y": 0.9944159923,
				"z": -1.1411534095,
				"element": "C" 
			},
			{
				"x": 1.4007709237,
				"y": 0.3823614179,
				"z": -0.1137545587,
				"element": "C" 
			},
			{
				"x": 2.1259998336,
				"y": 0.3736737732,
				"z": 1.6399392481,
				"element": "Br" 
			},
			{
				"x": 0.163173306,
				"y": -0.2305913515,
				"z": -0.3571783009,
				"element": "C" 
			},
			{
				"x": -0.4838909111,
				"y": -0.9172158662,
				"z": 0.6371938152,
				"element": "O" 
			},
			{
				"x": -1.4126319518,
				"y": -0.2815149106,
				"z": 1.4291281448,
				"element": "C" 
			},
			{
				"x": -1.7478347763,
				"y": 1.0623081348,
				"z": 1.2854109887,
				"element": "C" 
			},
			{
				"x": -2.6969850585,
				"y": 1.631116092,
				"z": 2.1266214593,
				"element": "C" 
			},
			{
				"x": -3.3175791513,
				"y": 0.8700238644,
				"z": 3.113858227,
				"element": "C" 
			},
			{
				"x": -4.6033112245,
				"y": 1.7344353179,
				"z": 4.2167899436,
				"element": "Br" 
			},
			{
				"x": -2.9879268141,
				"y": -0.4857882685,
				"z": 3.2685398595,
				"element": "C" 
			},
			{
				"x": -3.8256619228,
				"y": -1.5292547542,
				"z": 4.6075115568,
				"element": "Br" 
			},
			{
				"x": -2.029551673,
				"y": -1.0619949747,
				"z": 2.4194778376,
				"element": "C" 
			},
			{
				"x": -1.5287803006,
				"y": -2.8834508403,
				"z": 2.5610951228,
				"element": "Br" 
			},
			{
				"x": -0.3421951874,
				"y": -0.2216132653,
				"z": -1.6653128236,
				"element": "C" 
			},
			{
				"x": -2.0046915077,
				"y": -1.0576095924,
				"z": -2.0374357945,
				"element": "Br" 
			},
			{
				"x": 0.3597106002,
				"y": 0.3856158593,
				"z": -2.7049942626,
				"element": "C" 
			},
			{
				"x": 3.0709521053,
				"y": 1.4612437832,
				"z": -0.9364226353,
				"element": "H" 
			},
			{
				"x": -1.2707463127,
				"y": 1.6631505285,
				"z": 0.5204296695,
				"element": "H" 
			},
			{
				"x": -2.9604773858,
				"y": 2.6762283243,
				"z": 2.0178119031,
				"element": "H" 
			},
			{
				"x": -0.0436483309,
				"y": 0.3817813554,
				"z": -3.7090668609,
				"element": "H" 
			}
		],
		 "valence_orbital": [ 
			{
				"type": "occ",
				"energy": -0.2707,
				"method": "rhf"
			},
			{
				"type": "occ",
				"energy": -0.26837,
				"method": "rhf"
			},
			{
				"type": "occ",
				"energy": -0.26224,
				"method": "rhf"
			},
			{
				"type": "occ",
				"energy": -0.25467,
				"method": "rhf"
			},
			{
				"type": "occ",
				"energy": -0.24065,
				"method": "rhf"
			},
			{
				"type": "unocc",
				"energy": -0.05215,
				"method": "rhf"
			},
			{
				"type": "unocc",
				"energy": -0.0515,
				"method": "rhf"
			},
			{
				"type": "unocc",
				"energy": -0.04836,
				"method": "rhf"
			},
			{
				"type": "unocc",
				"energy": -0.03904,
				"method": "rhf"
			},
			{
				"type": "unocc",
				"energy": -0.0372,
				"method": "rhf"
			}
		],
		"cosmo_sigma_profile": { 
			"-0.025": 0.0,
			"-0.024": 0.0,
			"-0.023": 0.0,
			"-0.022": 0.0,
			"-0.021": 0.0,
			"-0.02": 0.0,
			"-0.019": 0.0,
			"-0.018": 0.0,
			"-0.017": 0.0,
			"-0.016": 0.0,
			"-0.015": 0.0,
			"-0.014": 0.0,
			"-0.013": 0.0,
			"-0.012": 0.0,
			"-0.011": 0.0,
			"-0.01": 0.0441356160489,
			"-0.009": 2.70874867397,
			"-0.008": 7.11709370578,
			"-0.007": 7.11340984314,
			"-0.006": 9.59640327732,
			"-0.005": 15.7538211131,
			"-0.004": 16.2293570341,
			"-0.003": 17.2367370401,
			"-0.002": 22.3386094509,
			"-0.001": 38.8928464672,
			"0.0": 48.8769197653,
			"0.001": 35.8572919465,
			"0.002": 42.4627468861,
			"0.003": 49.5147181987,
			"0.004": 34.4532051023,
			"0.005": 7.35162205838,
			"0.006": 2.43792790942,
			"0.007": 1.39160999985,
			"0.008": 0.247346979805,
			"0.009": 0.0,
			"0.01": 0.0,
			"0.011": 0.0,
			"0.012": 0.0,
			"0.013": 0.0,
			"0.014": 0.0,
			"0.015": 0.0,
			"0.016": 0.0,
			"0.017": 0.0,
			"0.018": 0.0,
			"0.019": 0.0,
			"0.02": 0.0,
			"0.021": 0.0,
			"0.022": 0.0,
			"0.023": 0.0,
			"0.024": 0.0,
			"0.025": 0.0
		}
	}
}
