{
	 "smiles": "CCOC1=CC=C(OCC)C(N)=C1", 
	 "Tm": 358.15, 
	 "num_atms": 28, 
	 "gaussian": { 
		 "optdone": 1, 
		 "sigma_profile": "yes", 
		 "theory": "DFT", 
		 "functional": "B3LYP", 
		 "basiset": "6-31G**", 
		 "properties": { 
			 "R2extent": 3939.8388, 
			 "electric_dipole_moment_norm": 1.94714982474, 
			 "electric_quadrupole_moment_norm": 8.14848538994, 
			 "total_energy": -595.296186895, 
			 "HOMO_LUMO_gap": 0.20253, 
			 "cosmo_polarized_energy": -10.22, 
			 "cosmo_cavitation_energy": 31.02, 
			 "cosmo_dispersion_energy": -22.5, 
			 "cosmo_repulsion_energy": 1.83, 
			 "cosmo_total_nonelectrostatic_energy": 10.35, 
			 "SMD_solvation_energy": 5.82 
		},
		"coords": [
			{
				"x": 2.489042835,
				"y": -3.7837953765,
				"z": -1.7714490584,
				"element": "C" 
			},
			{
				"x": 1.8532872573,
				"y": -2.4121646889,
				"z": -1.9218471818,
				"element": "C" 
			},
			{
				"x": 1.1642953721,
				"y": -2.1226830701,
				"z": -0.7100100998,
				"element": "O" 
			},
			{
				"x": 0.4959679435,
				"y": -0.9345484531,
				"z": -0.5962584574,
				"element": "C" 
			},
			{
				"x": -0.1604529918,
				"y": -0.7229960059,
				"z": 0.6246843397,
				"element": "C" 
			},
			{
				"x": -0.8630576162,
				"y": 0.461595295,
				"z": 0.8230975371,
				"element": "C" 
			},
			{
				"x": -0.9230296927,
				"y": 1.432970829,
				"z": -0.1735634645,
				"element": "C" 
			},
			{
				"x": -1.5856598266,
				"y": 2.6365578588,
				"z": 0.0270847653,
				"element": "O" 
			},
			{
				"x": -2.9951858639,
				"y": 2.5884267184,
				"z": -0.2515909811,
				"element": "C" 
			},
			{
				"x": -3.5707439391,
				"y": 3.9714222591,
				"z": -0.0037135855,
				"element": "C" 
			},
			{
				"x": -0.2642738369,
				"y": 1.2300152952,
				"z": -1.3995865838,
				"element": "C" 
			},
			{
				"x": -0.3695051082,
				"y": 2.2026521541,
				"z": -2.3955144793,
				"element": "N" 
			},
			{
				"x": 0.4499291685,
				"y": 0.0369504055,
				"z": -1.6018045573,
				"element": "C" 
			},
			{
				"x": 1.7246478575,
				"y": -4.5440407641,
				"z": -1.5879144844,
				"element": "H" 
			},
			{
				"x": 3.0328520996,
				"y": -4.0501818243,
				"z": -2.6831156132,
				"element": "H" 
			},
			{
				"x": 3.1908431926,
				"y": -3.7928039479,
				"z": -0.9327694838,
				"element": "H" 
			},
			{
				"x": 1.1506157034,
				"y": -2.3984926553,
				"z": -2.7678037213,
				"element": "H" 
			},
			{
				"x": 2.6195482249,
				"y": -1.6463821487,
				"z": -2.1123733949,
				"element": "H" 
			},
			{
				"x": -0.1021034502,
				"y": -1.486633263,
				"z": 1.3920130832,
				"element": "H" 
			},
			{
				"x": -1.3648037214,
				"y": 0.6541624577,
				"z": 1.7669383353,
				"element": "H" 
			},
			{
				"x": -3.1561374772,
				"y": 2.2718383209,
				"z": -1.2914714028,
				"element": "H" 
			},
			{
				"x": -3.4717205664,
				"y": 1.8433367275,
				"z": 0.4007198209,
				"element": "H" 
			},
			{
				"x": -4.6490228693,
				"y": 3.9730917945,
				"z": -0.1919752666,
				"element": "H" 
			},
			{
				"x": -3.397809995,
				"y": 4.2800330063,
				"z": 1.0313849103,
				"element": "H" 
			},
			{
				"x": -3.1049791071,
				"y": 4.7104640652,
				"z": -0.6628560112,
				"element": "H" 
			},
			{
				"x": 0.4029184027,
				"y": 2.2279037827,
				"z": -3.0472468945,
				"element": "H" 
			},
			{
				"x": -0.5848137263,
				"y": 3.1164730122,
				"z": -2.016184089,
				"element": "H" 
			},
			{
				"x": 0.9537517312,
				"y": -0.1140717842,
				"z": -2.5498739811,
				"element": "H" 
			}
		],
		 "valence_orbital": [ 
			{
				"type": "occ",
				"energy": -0.32006,
				"method": "rhf"
			},
			{
				"type": "occ",
				"energy": -0.27944,
				"method": "rhf"
			},
			{
				"type": "occ",
				"energy": -0.26268,
				"method": "rhf"
			},
			{
				"type": "occ",
				"energy": -0.21894,
				"method": "rhf"
			},
			{
				"type": "occ",
				"energy": -0.18655,
				"method": "rhf"
			},
			{
				"type": "unocc",
				"energy": 0.01598,
				"method": "rhf"
			},
			{
				"type": "unocc",
				"energy": 0.0323,
				"method": "rhf"
			},
			{
				"type": "unocc",
				"energy": 0.08355,
				"method": "rhf"
			},
			{
				"type": "unocc",
				"energy": 0.10048,
				"method": "rhf"
			},
			{
				"type": "unocc",
				"energy": 0.10722,
				"method": "rhf"
			}
		],
		"cosmo_sigma_profile": { 
			"-0.025": 0.0,
			"-0.024": 0.0,
			"-0.023": 0.0,
			"-0.022": 0.0,
			"-0.021": 0.0,
			"-0.02": 0.0,
			"-0.019": 0.0,
			"-0.018": 0.0,
			"-0.017": 0.0,
			"-0.016": 0.0,
			"-0.015": 0.0,
			"-0.014": 0.0,
			"-0.013": 0.0238496044718,
			"-0.012": 1.20970457194,
			"-0.011": 1.42800193345,
			"-0.01": 2.36530917051,
			"-0.009": 2.26170343887,
			"-0.008": 2.71327785816,
			"-0.007": 2.86850710171,
			"-0.006": 3.83766942624,
			"-0.005": 8.89219753048,
			"-0.004": 22.439216622,
			"-0.003": 31.1932200112,
			"-0.002": 28.1106650392,
			"-0.001": 23.1800535992,
			"0.0": 22.3351954854,
			"0.001": 14.8996636645,
			"0.002": 7.9440205416,
			"0.003": 9.25486310962,
			"0.004": 9.13310076123,
			"0.005": 13.5628001624,
			"0.006": 14.298440009,
			"0.007": 5.97947096931,
			"0.008": 3.49019656928,
			"0.009": 2.80593423272,
			"0.01": 3.16472122074,
			"0.011": 2.57735261932,
			"0.012": 1.59243277302,
			"0.013": 0.934777154066,
			"0.014": 0.430956021177,
			"0.015": 0.236070240254,
			"0.016": 0.0,
			"0.017": 0.0,
			"0.018": 0.0,
			"0.019": 0.0,
			"0.02": 0.0,
			"0.021": 0.0,
			"0.022": 0.0,
			"0.023": 0.0,
			"0.024": 0.0,
			"0.025": 0.0
		}
	}
}
