{
	 "smiles": "COC1=CC2=C(C=C1)C=C(CCl)C(Cl)=N2", 
	 "Tm": 407.15, 
	 "num_atms": 24, 
	 "gaussian": { 
		 "optdone": 1, 
		 "sigma_profile": "yes", 
		 "theory": "DFT", 
		 "functional": "B3LYP", 
		 "basiset": "6-31G**", 
		 "properties": { 
			 "R2extent": 5644.3262, 
			 "electric_dipole_moment_norm": 4.2972002618, 
			 "electric_quadrupole_moment_norm": 13.6617741304, 
			 "total_energy": -1474.95918088, 
			 "HOMO_LUMO_gap": 0.1679, 
			 "cosmo_polarized_energy": -11.57, 
			 "cosmo_cavitation_energy": 31.74, 
			 "cosmo_dispersion_energy": -23.45, 
			 "cosmo_repulsion_energy": 1.83, 
			 "cosmo_total_nonelectrostatic_energy": 10.12, 
			 "SMD_solvation_energy": 3.91 
		},
		"coords": [
			{
				"x": 1.2177614522,
				"y": 2.4239166411,
				"z": -3.7288623418,
				"element": "C" 
			},
			{
				"x": 0.0679455248,
				"y": 2.7399214532,
				"z": -2.9527467216,
				"element": "O" 
			},
			{
				"x": -0.0295161914,
				"y": 2.2099421442,
				"z": -1.7073529143,
				"element": "C" 
			},
			{
				"x": 0.9105199132,
				"y": 1.381096436,
				"z": -1.1210436832,
				"element": "C" 
			},
			{
				"x": 0.6900361795,
				"y": 0.8910401127,
				"z": 0.1895290642,
				"element": "C" 
			},
			{
				"x": -0.4953673738,
				"y": 1.2516733315,
				"z": 0.900352302,
				"element": "C" 
			},
			{
				"x": -1.4380446579,
				"y": 2.1070057656,
				"z": 0.2665169575,
				"element": "C" 
			},
			{
				"x": -1.2135173998,
				"y": 2.573849587,
				"z": -1.0024112949,
				"element": "C" 
			},
			{
				"x": -0.656358721,
				"y": 0.7299075034,
				"z": 2.2014862048,
				"element": "C" 
			},
			{
				"x": 0.2967198286,
				"y": -0.0980225307,
				"z": 2.7651300887,
				"element": "C" 
			},
			{
				"x": 0.1157029138,
				"y": -0.6478178819,
				"z": 4.1434015038,
				"element": "C" 
			},
			{
				"x": -0.6764134966,
				"y": -2.3042593271,
				"z": 4.137685379,
				"element": "Cl" 
			},
			{
				"x": 1.4333875609,
				"y": -0.3784281097,
				"z": 1.9471309181,
				"element": "C" 
			},
			{
				"x": 2.7056653443,
				"y": -1.4211135852,
				"z": 2.597909219,
				"element": "Cl" 
			},
			{
				"x": 1.6341226731,
				"y": 0.076496422,
				"z": 0.7462073846,
				"element": "N" 
			},
			{
				"x": 1.2926590232,
				"y": 1.3449607645,
				"z": -3.910478627,
				"element": "H" 
			},
			{
				"x": 1.0905627157,
				"y": 2.9443104872,
				"z": -4.6787138711,
				"element": "H" 
			},
			{
				"x": 2.1365617052,
				"y": 2.7722383131,
				"z": -3.2417092762,
				"element": "H" 
			},
			{
				"x": 1.8225605131,
				"y": 1.0805603046,
				"z": -1.6198701986,
				"element": "H" 
			},
			{
				"x": -2.3428849574,
				"y": 2.3859565168,
				"z": 0.7994436986,
				"element": "H" 
			},
			{
				"x": -1.9214516685,
				"y": 3.2257157068,
				"z": -1.5030829232,
				"element": "H" 
			},
			{
				"x": -1.5498113963,
				"y": 0.9812627646,
				"z": 2.768798748,
				"element": "H" 
			},
			{
				"x": -0.5450953878,
				"y": -0.0127717324,
				"z": 4.733041419,
				"element": "H" 
			},
			{
				"x": 1.0617559027,
				"y": -0.7807410874,
				"z": 4.6642389646,
				"element": "H" 
			}
		],
		 "valence_orbital": [ 
			{
				"type": "occ",
				"energy": -0.29614,
				"method": "rhf"
			},
			{
				"type": "occ",
				"energy": -0.29197,
				"method": "rhf"
			},
			{
				"type": "occ",
				"energy": -0.27461,
				"method": "rhf"
			},
			{
				"type": "occ",
				"energy": -0.2489,
				"method": "rhf"
			},
			{
				"type": "occ",
				"energy": -0.23211,
				"method": "rhf"
			},
			{
				"type": "unocc",
				"energy": -0.06421,
				"method": "rhf"
			},
			{
				"type": "unocc",
				"energy": -0.03696,
				"method": "rhf"
			},
			{
				"type": "unocc",
				"energy": 0.00908,
				"method": "rhf"
			},
			{
				"type": "unocc",
				"energy": 0.02605,
				"method": "rhf"
			},
			{
				"type": "unocc",
				"energy": 0.03306,
				"method": "rhf"
			}
		],
		"cosmo_sigma_profile": { 
			"-0.025": 0.0,
			"-0.024": 0.0,
			"-0.023": 0.0,
			"-0.022": 0.0,
			"-0.021": 0.0,
			"-0.02": 0.0,
			"-0.019": 0.0,
			"-0.018": 0.0,
			"-0.017": 0.0,
			"-0.016": 0.0,
			"-0.015": 0.0,
			"-0.014": 0.0,
			"-0.013": 0.0,
			"-0.012": 0.0,
			"-0.011": 0.0,
			"-0.01": 0.229482978857,
			"-0.009": 2.63950342673,
			"-0.008": 6.51840220741,
			"-0.007": 10.1842435192,
			"-0.006": 17.4807024122,
			"-0.005": 17.505553752,
			"-0.004": 16.8694301848,
			"-0.003": 14.5226158031,
			"-0.002": 11.3993958009,
			"-0.001": 15.783057337,
			"0.0": 18.24529961,
			"0.001": 24.0363603319,
			"0.002": 24.0164524578,
			"0.003": 18.9557894635,
			"0.004": 16.8652395415,
			"0.005": 13.5478273532,
			"0.006": 12.878595126,
			"0.007": 6.4961162457,
			"0.008": 3.01722015531,
			"0.009": 3.22560161674,
			"0.01": 1.40430352112,
			"0.011": 0.978443022623,
			"0.012": 0.824974633604,
			"0.013": 0.667962369619,
			"0.014": 0.423341490233,
			"0.015": 0.0,
			"0.016": 0.0,
			"0.017": 0.0,
			"0.018": 0.0,
			"0.019": 0.0,
			"0.02": 0.0,
			"0.021": 0.0,
			"0.022": 0.0,
			"0.023": 0.0,
			"0.024": 0.0,
			"0.025": 0.0
		}
	}
}
