{
	 "smiles": "FC1=CC=C(NC2=NN=C(S)S2)C=C1", 
	 "Tm": 459.15, 
	 "num_atms": 20, 
	 "gaussian": { 
		 "optdone": 1, 
		 "sigma_profile": "yes", 
		 "theory": "DFT", 
		 "functional": "B3LYP", 
		 "basiset": "6-31G**", 
		 "properties": { 
			 "R2extent": 4941.3251, 
			 "electric_dipole_moment_norm": 3.12758378945, 
			 "electric_quadrupole_moment_norm": 24.3169135669, 
			 "total_energy": -1368.8860728, 
			 "HOMO_LUMO_gap": 0.17128, 
			 "cosmo_polarized_energy": -14.73, 
			 "cosmo_cavitation_energy": 29.05, 
			 "cosmo_dispersion_energy": -22.39, 
			 "cosmo_repulsion_energy": 1.64, 
			 "cosmo_total_nonelectrostatic_energy": 8.3, 
			 "SMD_solvation_energy": 2.84 
		},
		"coords": [
			{
				"x": -2.8691259913,
				"y": 4.6063841129,
				"z": 0.7125349575,
				"element": "F" 
			},
			{
				"x": -2.5334605248,
				"y": 3.3031278436,
				"z": 0.6245568003,
				"element": "C" 
			},
			{
				"x": -3.4161159323,
				"y": 2.4142030341,
				"z": 0.0199283127,
				"element": "C" 
			},
			{
				"x": -3.0588079591,
				"y": 1.0733958646,
				"z": -0.0814402754,
				"element": "C" 
			},
			{
				"x": -1.8342219213,
				"y": 0.6163229262,
				"z": 0.4328405688,
				"element": "C" 
			},
			{
				"x": -1.5440628861,
				"y": -0.7564178411,
				"z": 0.3210545407,
				"element": "N" 
			},
			{
				"x": -0.3458997469,
				"y": -1.409164019,
				"z": 0.280671138,
				"element": "C" 
			},
			{
				"x": -0.3047297817,
				"y": -2.7235331127,
				"z": 0.338687014,
				"element": "N" 
			},
			{
				"x": 0.9485279789,
				"y": -3.2237856062,
				"z": 0.1591213162,
				"element": "N" 
			},
			{
				"x": 1.8604249818,
				"y": -2.3172209866,
				"z": -0.0109740727,
				"element": "C" 
			},
			{
				"x": 3.5867140693,
				"y": -2.6903283154,
				"z": -0.1088708255,
				"element": "S" 
			},
			{
				"x": 1.2273012639,
				"y": -0.6570592578,
				"z": 0.0389549346,
				"element": "S" 
			},
			{
				"x": -0.9729429739,
				"y": 1.5283917679,
				"z": 1.0603344988,
				"element": "C" 
			},
			{
				"x": -1.3180424702,
				"y": 2.877141996,
				"z": 1.1441001837,
				"element": "C" 
			},
			{
				"x": -4.3594461403,
				"y": 2.7765715582,
				"z": -0.3734145726,
				"element": "H" 
			},
			{
				"x": -3.729762674,
				"y": 0.3728860513,
				"z": -0.5707578629,
				"element": "H" 
			},
			{
				"x": -2.3284424611,
				"y": -1.3919313352,
				"z": 0.2491256625,
				"element": "H" 
			},
			{
				"x": 3.8169909646,
				"y": -2.0817300986,
				"z": -1.2922025231,
				"element": "H" 
			},
			{
				"x": -0.0464409492,
				"y": 1.1922615309,
				"z": 1.5106092119,
				"element": "H" 
			},
			{
				"x": -0.6600568461,
				"y": 3.5924838868,
				"z": 1.6250409924,
				"element": "H" 
			}
		],
		 "valence_orbital": [ 
			{
				"type": "occ",
				"energy": -0.28767,
				"method": "rhf"
			},
			{
				"type": "occ",
				"energy": -0.27875,
				"method": "rhf"
			},
			{
				"type": "occ",
				"energy": -0.26735,
				"method": "rhf"
			},
			{
				"type": "occ",
				"energy": -0.26047,
				"method": "rhf"
			},
			{
				"type": "occ",
				"energy": -0.21736,
				"method": "rhf"
			},
			{
				"type": "unocc",
				"energy": -0.04608,
				"method": "rhf"
			},
			{
				"type": "unocc",
				"energy": -0.03255,
				"method": "rhf"
			},
			{
				"type": "unocc",
				"energy": -0.01023,
				"method": "rhf"
			},
			{
				"type": "unocc",
				"energy": -0.00024,
				"method": "rhf"
			},
			{
				"type": "unocc",
				"energy": 0.01639,
				"method": "rhf"
			}
		],
		"cosmo_sigma_profile": { 
			"-0.025": 0.0,
			"-0.024": 0.0,
			"-0.023": 0.0,
			"-0.022": 0.0,
			"-0.021": 0.0,
			"-0.02": 0.0,
			"-0.019": 0.0,
			"-0.018": 0.0,
			"-0.017": 0.0,
			"-0.016": 0.322141923673,
			"-0.015": 1.12596968593,
			"-0.014": 1.37715000502,
			"-0.013": 0.988400220411,
			"-0.012": 2.10240642949,
			"-0.011": 4.41555595193,
			"-0.01": 2.95425467515,
			"-0.009": 2.96549154984,
			"-0.008": 4.36329574067,
			"-0.007": 9.34497283356,
			"-0.006": 10.8346253983,
			"-0.005": 9.19438173627,
			"-0.004": 8.38382166624,
			"-0.003": 9.65940875441,
			"-0.002": 15.7619002909,
			"-0.001": 18.6838533766,
			"0.0": 20.4839662536,
			"0.001": 23.6562150915,
			"0.002": 20.1863572834,
			"0.003": 19.3538650905,
			"0.004": 15.8165959485,
			"0.005": 8.29703572619,
			"0.006": 4.32726587274,
			"0.007": 4.09099047883,
			"0.008": 3.3148467006,
			"0.009": 2.77479455308,
			"0.01": 2.22931324285,
			"0.011": 3.82666878265,
			"0.012": 2.87993061319,
			"0.013": 2.69074015903,
			"0.014": 2.06888882999,
			"0.015": 0.410056975992,
			"0.016": 0.0,
			"0.017": 0.0,
			"0.018": 0.0,
			"0.019": 0.0,
			"0.02": 0.0,
			"0.021": 0.0,
			"0.022": 0.0,
			"0.023": 0.0,
			"0.024": 0.0,
			"0.025": 0.0
		}
	}
}
