{
	 "smiles": "CCOC(=O)C1=C(O)N=C(S1)C1=CC=C(C)C=C1", 
	 "Tm": 402.15, 
	 "num_atms": 31, 
	 "gaussian": { 
		 "optdone": 1, 
		 "sigma_profile": "yes", 
		 "theory": "DFT", 
		 "functional": "B3LYP", 
		 "basiset": "6-31G**", 
		 "properties": { 
			 "R2extent": 8154.5197, 
			 "electric_dipole_moment_norm": 3.36290437866, 
			 "electric_quadrupole_moment_norm": 12.9066744853, 
			 "total_energy": -1181.8524291, 
			 "HOMO_LUMO_gap": 0.14666, 
			 "cosmo_polarized_energy": -13.23, 
			 "cosmo_cavitation_energy": 37.36, 
			 "cosmo_dispersion_energy": -27.61, 
			 "cosmo_repulsion_energy": 2.11, 
			 "cosmo_total_nonelectrostatic_energy": 11.87, 
			 "SMD_solvation_energy": 6.5 
		},
		"coords": [
			{
				"x": 2.1743027552,
				"y": 1.3454594871,
				"z": 6.3040353017,
				"element": "C" 
			},
			{
				"x": 2.2437398194,
				"y": 2.3375850633,
				"z": 5.1524427055,
				"element": "C" 
			},
			{
				"x": 2.2822572905,
				"y": 1.6610360483,
				"z": 3.8745845963,
				"element": "O" 
			},
			{
				"x": 1.0884525294,
				"y": 1.3133216786,
				"z": 3.3482816665,
				"element": "C" 
			},
			{
				"x": 0.0100032927,
				"y": 1.5389477698,
				"z": 3.8749964225,
				"element": "O" 
			},
			{
				"x": 1.2248482846,
				"y": 0.6341054221,
				"z": 2.0627393212,
				"element": "C" 
			},
			{
				"x": 2.3236221352,
				"y": 0.2837488257,
				"z": 1.2965794002,
				"element": "C" 
			},
			{
				"x": 3.6015880264,
				"y": 0.5298777267,
				"z": 1.6266333758,
				"element": "O" 
			},
			{
				"x": 2.0674759825,
				"y": -0.3580158361,
				"z": 0.1247324906,
				"element": "N" 
			},
			{
				"x": 0.7722565345,
				"y": -0.5269038661,
				"z": -0.0582375864,
				"element": "C" 
			},
			{
				"x": -0.2214583551,
				"y": 0.1098427926,
				"z": 1.2321827196,
				"element": "S" 
			},
			{
				"x": 0.2115095434,
				"y": -1.1904195005,
				"z": -1.2382644273,
				"element": "C" 
			},
			{
				"x": -1.1719560324,
				"y": -1.3579095758,
				"z": -1.4143061576,
				"element": "C" 
			},
			{
				"x": -1.6698913142,
				"y": -1.9904331303,
				"z": -2.548331702,
				"element": "C" 
			},
			{
				"x": -0.8113476188,
				"y": -2.4795400956,
				"z": -3.5435262666,
				"element": "C" 
			},
			{
				"x": -1.3549550645,
				"y": -3.1935045787,
				"z": -4.7567677477,
				"element": "C" 
			},
			{
				"x": 0.5690963404,
				"y": -2.3059924737,
				"z": -3.3642265707,
				"element": "C" 
			},
			{
				"x": 1.0772422568,
				"y": -1.6753038124,
				"z": -2.2344871262,
				"element": "C" 
			},
			{
				"x": 1.2338810062,
				"y": 0.7899709758,
				"z": 6.2744156243,
				"element": "H" 
			},
			{
				"x": 3.0070785747,
				"y": 0.6375536476,
				"z": 6.2580194765,
				"element": "H" 
			},
			{
				"x": 2.2283191028,
				"y": 1.8797233913,
				"z": 7.2586933082,
				"element": "H" 
			},
			{
				"x": 1.3890392028,
				"y": 3.018166698,
				"z": 5.167592987,
				"element": "H" 
			},
			{
				"x": 3.1704213171,
				"y": 2.9158944228,
				"z": 5.1776146842,
				"element": "H" 
			},
			{
				"x": 4.138938626,
				"y": 0.1722781702,
				"z": 0.9031241977,
				"element": "H" 
			},
			{
				"x": -1.8675228974,
				"y": -0.9896743975,
				"z": -0.6650933478,
				"element": "H" 
			},
			{
				"x": -2.7443123338,
				"y": -2.1056096784,
				"z": -2.6650529128,
				"element": "H" 
			},
			{
				"x": -0.703011497,
				"y": -3.0605611,
				"z": -5.6251917396,
				"element": "H" 
			},
			{
				"x": -1.4373045511,
				"y": -4.2725259237,
				"z": -4.5741756446,
				"element": "H" 
			},
			{
				"x": -2.3532303829,
				"y": -2.8322401823,
				"z": -5.0208959477,
				"element": "H" 
			},
			{
				"x": 1.2554973562,
				"y": -2.6702968832,
				"z": -4.1244867626,
				"element": "H" 
			},
			{
				"x": 2.1458200706,
				"y": -1.5443810859,
				"z": -2.1058243381,
				"element": "H" 
			}
		],
		 "valence_orbital": [ 
			{
				"type": "occ",
				"energy": -0.28461,
				"method": "rhf"
			},
			{
				"type": "occ",
				"energy": -0.26489,
				"method": "rhf"
			},
			{
				"type": "occ",
				"energy": -0.26289,
				"method": "rhf"
			},
			{
				"type": "occ",
				"energy": -0.26016,
				"method": "rhf"
			},
			{
				"type": "occ",
				"energy": -0.2163,
				"method": "rhf"
			},
			{
				"type": "unocc",
				"energy": -0.06964,
				"method": "rhf"
			},
			{
				"type": "unocc",
				"energy": -0.01236,
				"method": "rhf"
			},
			{
				"type": "unocc",
				"energy": -0.0009,
				"method": "rhf"
			},
			{
				"type": "unocc",
				"energy": 0.01367,
				"method": "rhf"
			},
			{
				"type": "unocc",
				"energy": 0.04325,
				"method": "rhf"
			}
		],
		"cosmo_sigma_profile": { 
			"-0.025": 0.0,
			"-0.024": 0.0,
			"-0.023": 0.0,
			"-0.022": 0.0,
			"-0.021": 0.0,
			"-0.02": 0.0,
			"-0.019": 0.0,
			"-0.018": 0.592701282656,
			"-0.017": 1.33802666716,
			"-0.016": 0.557482719133,
			"-0.015": 0.393998314523,
			"-0.014": 0.590069941096,
			"-0.013": 0.993837928473,
			"-0.012": 0.793604054738,
			"-0.011": 0.824613260474,
			"-0.01": 0.717289029827,
			"-0.009": 0.454062156716,
			"-0.008": 0.607212543265,
			"-0.007": 2.65550942495,
			"-0.006": 8.52069633653,
			"-0.005": 16.5724839558,
			"-0.004": 26.3249169847,
			"-0.003": 23.5356484261,
			"-0.002": 26.042689531,
			"-0.001": 34.0515285707,
			"0.0": 33.8590966474,
			"0.001": 23.8042319198,
			"0.002": 22.2194659395,
			"0.003": 17.8349966827,
			"0.004": 17.2303134102,
			"0.005": 7.00213930858,
			"0.006": 5.06243327637,
			"0.007": 4.66975856163,
			"0.008": 4.48700646896,
			"0.009": 3.21423530442,
			"0.01": 3.27542057178,
			"0.011": 3.96219913174,
			"0.012": 5.93877198027,
			"0.013": 1.46402549696,
			"0.014": 0.0,
			"0.015": 0.0,
			"0.016": 0.0,
			"0.017": 0.0,
			"0.018": 0.0,
			"0.019": 0.0,
			"0.02": 0.0,
			"0.021": 0.0,
			"0.022": 0.0,
			"0.023": 0.0,
			"0.024": 0.0,
			"0.025": 0.0
		}
	}
}
