{
	 "smiles": "O=C1CCCC2=C(N1)C=CS2", 
	 "Tm": 393.15, 
	 "num_atms": 20, 
	 "gaussian": { 
		 "optdone": 1, 
		 "sigma_profile": "yes", 
		 "theory": "DFT", 
		 "functional": "B3LYP", 
		 "basiset": "6-31G**", 
		 "properties": { 
			 "R2extent": 2432.6769, 
			 "electric_dipole_moment_norm": 2.59170740633, 
			 "electric_quadrupole_moment_norm": 14.9863726522, 
			 "total_energy": -838.443138768, 
			 "HOMO_LUMO_gap": 0.19181, 
			 "cosmo_polarized_energy": -10.99, 
			 "cosmo_cavitation_energy": 24.1, 
			 "cosmo_dispersion_energy": -18.81, 
			 "cosmo_repulsion_energy": 1.45, 
			 "cosmo_total_nonelectrostatic_energy": 6.74, 
			 "SMD_solvation_energy": 4.13 
		},
		"coords": [
			{
				"x": 2.0683509647,
				"y": -2.180630966,
				"z": 0.9092461852,
				"element": "O" 
			},
			{
				"x": 1.34351658,
				"y": -1.2219207556,
				"z": 0.6783593525,
				"element": "C" 
			},
			{
				"x": 0.7599192423,
				"y": -0.9583403262,
				"z": -0.6982745342,
				"element": "C" 
			},
			{
				"x": -0.7580478947,
				"y": -0.7008123398,
				"z": -0.7177484429,
				"element": "C" 
			},
			{
				"x": -1.1317867284,
				"y": 0.7640656691,
				"z": -0.4687130345,
				"element": "C" 
			},
			{
				"x": -0.6280457402,
				"y": 1.3275644139,
				"z": 0.8335097248,
				"element": "C" 
			},
			{
				"x": 0.2974127368,
				"y": 0.8544492348,
				"z": 1.7381703934,
				"element": "C" 
			},
			{
				"x": 1.0323837084,
				"y": -0.3454157405,
				"z": 1.6994130958,
				"element": "N" 
			},
			{
				"x": 0.4854630798,
				"y": 1.7330485399,
				"z": 2.8628009201,
				"element": "C" 
			},
			{
				"x": -0.28348198,
				"y": 2.8539703415,
				"z": 2.8033378723,
				"element": "C" 
			},
			{
				"x": -1.2527924124,
				"y": 2.8754314414,
				"z": 1.3696868654,
				"element": "S" 
			},
			{
				"x": 1.2869872577,
				"y": -0.1049963628,
				"z": -1.1473413184,
				"element": "H" 
			},
			{
				"x": 1.0167298203,
				"y": -1.8411402299,
				"z": -1.2868756846,
				"element": "H" 
			},
			{
				"x": -1.150272449,
				"y": -0.985137707,
				"z": -1.6999498587,
				"element": "H" 
			},
			{
				"x": -1.2558344641,
				"y": -1.3490763337,
				"z": 0.0129256691,
				"element": "H" 
			},
			{
				"x": -2.2238366272,
				"y": 0.8651858616,
				"z": -0.5082751422,
				"element": "H" 
			},
			{
				"x": -0.7457369692,
				"y": 1.3684134632,
				"z": -1.3029420929,
				"element": "H" 
			},
			{
				"x": 1.4949939079,
				"y": -0.606123867,
				"z": 2.5612840331,
				"element": "H" 
			},
			{
				"x": 1.1762242743,
				"y": 1.5171243896,
				"z": 3.6711967936,
				"element": "H" 
			},
			{
				"x": -0.333746307,
				"y": 3.6677412733,
				"z": 3.5127892033,
				"element": "H" 
			}
		],
		 "valence_orbital": [ 
			{
				"type": "occ",
				"energy": -0.33824,
				"method": "rhf"
			},
			{
				"type": "occ",
				"energy": -0.30419,
				"method": "rhf"
			},
			{
				"type": "occ",
				"energy": -0.25047,
				"method": "rhf"
			},
			{
				"type": "occ",
				"energy": -0.24278,
				"method": "rhf"
			},
			{
				"type": "occ",
				"energy": -0.21156,
				"method": "rhf"
			},
			{
				"type": "unocc",
				"energy": -0.01975,
				"method": "rhf"
			},
			{
				"type": "unocc",
				"energy": 0.01873,
				"method": "rhf"
			},
			{
				"type": "unocc",
				"energy": 0.01909,
				"method": "rhf"
			},
			{
				"type": "unocc",
				"energy": 0.08271,
				"method": "rhf"
			},
			{
				"type": "unocc",
				"energy": 0.08469,
				"method": "rhf"
			}
		],
		"cosmo_sigma_profile": { 
			"-0.025": 0.0,
			"-0.024": 0.0,
			"-0.023": 0.0,
			"-0.022": 0.0,
			"-0.021": 0.0,
			"-0.02": 0.0,
			"-0.019": 0.0,
			"-0.018": 0.0,
			"-0.017": 0.0,
			"-0.016": 0.0,
			"-0.015": 0.105987053559,
			"-0.014": 0.800601556066,
			"-0.013": 1.06970472858,
			"-0.012": 1.15572186729,
			"-0.011": 1.45851586433,
			"-0.01": 0.784290392726,
			"-0.009": 1.41082472953,
			"-0.008": 3.88129745586,
			"-0.007": 4.02716423019,
			"-0.006": 4.75138381461,
			"-0.005": 10.604284737,
			"-0.004": 19.4046809588,
			"-0.003": 22.3470200551,
			"-0.002": 20.1665190795,
			"-0.001": 14.3079713138,
			"0.0": 8.28520047561,
			"0.001": 9.37704469418,
			"0.002": 11.89414789,
			"0.003": 9.90034660407,
			"0.004": 13.724302335,
			"0.005": 11.7258498915,
			"0.006": 3.08289955929,
			"0.007": 1.04378809435,
			"0.008": 1.02226779672,
			"0.009": 1.52869452604,
			"0.01": 1.20737754997,
			"0.011": 1.71210189236,
			"0.012": 2.19214197519,
			"0.013": 4.51871426924,
			"0.014": 4.56392479749,
			"0.015": 0.675364385994,
			"0.016": 0.0,
			"0.017": 0.0,
			"0.018": 0.0,
			"0.019": 0.0,
			"0.02": 0.0,
			"0.021": 0.0,
			"0.022": 0.0,
			"0.023": 0.0,
			"0.024": 0.0,
			"0.025": 0.0
		}
	}
}
