{
	 "smiles": "NC1=C(NC(=O)C2=CC=CS2)C=C2OCCOC2=C1", 
	 "Tm": 452.15, 
	 "num_atms": 31, 
	 "gaussian": { 
		 "optdone": 1, 
		 "sigma_profile": "yes", 
		 "theory": "DFT", 
		 "functional": "B3LYP", 
		 "basiset": "6-31G**", 
		 "properties": { 
			 "R2extent": 5686.7639, 
			 "electric_dipole_moment_norm": 4.50823233319, 
			 "electric_quadrupole_moment_norm": 10.9382759775, 
			 "total_energy": -1235.95495863, 
			 "HOMO_LUMO_gap": 0.15093, 
			 "cosmo_polarized_energy": -17.82, 
			 "cosmo_cavitation_energy": 36.29, 
			 "cosmo_dispersion_energy": -26.4, 
			 "cosmo_repulsion_energy": 2.0, 
			 "cosmo_total_nonelectrostatic_energy": 11.89, 
			 "SMD_solvation_energy": 7.37 
		},
		"coords": [
			{
				"x": 3.1062165422,
				"y": -0.6498433025,
				"z": -0.9140044879,
				"element": "N" 
			},
			{
				"x": 1.9980138057,
				"y": 0.1930897573,
				"z": -0.8877712069,
				"element": "C" 
			},
			{
				"x": 0.7459758273,
				"y": -0.2615414858,
				"z": -1.3622832339,
				"element": "C" 
			},
			{
				"x": 0.6377918193,
				"y": -1.6047490324,
				"z": -1.8398734196,
				"element": "N" 
			},
			{
				"x": -0.1190913399,
				"y": -2.6503619628,
				"z": -1.340432875,
				"element": "C" 
			},
			{
				"x": -0.3473887001,
				"y": -3.6280764418,
				"z": -2.0474498318,
				"element": "O" 
			},
			{
				"x": -0.6011988342,
				"y": -2.6259714447,
				"z": 0.0662068533,
				"element": "C" 
			},
			{
				"x": -1.3606480258,
				"y": -3.6535887528,
				"z": 0.5811101379,
				"element": "C" 
			},
			{
				"x": -1.6638691921,
				"y": -3.5032908452,
				"z": 1.959537405,
				"element": "C" 
			},
			{
				"x": -1.1222648196,
				"y": -2.3616100023,
				"z": 2.4910764297,
				"element": "C" 
			},
			{
				"x": -0.2506813416,
				"y": -1.4446534328,
				"z": 1.3125343439,
				"element": "S" 
			},
			{
				"x": -0.3486348636,
				"y": 0.6079767204,
				"z": -1.4057440893,
				"element": "C" 
			},
			{
				"x": -0.2378488584,
				"y": 1.9199103262,
				"z": -0.9623056394,
				"element": "C" 
			},
			{
				"x": -1.347361775,
				"y": 2.73823169,
				"z": -1.0085410963,
				"element": "O" 
			},
			{
				"x": -1.225585499,
				"y": 3.8912545248,
				"z": -0.1802700352,
				"element": "C" 
			},
			{
				"x": 0.1228852325,
				"y": 4.5561233902,
				"z": -0.4071272668,
				"element": "C" 
			},
			{
				"x": 1.1825356051,
				"y": 3.6645620646,
				"z": -0.0520565833,
				"element": "O" 
			},
			{
				"x": 1.006466353,
				"y": 2.3781845586,
				"z": -0.4924679372,
				"element": "C" 
			},
			{
				"x": 2.1050428012,
				"y": 1.5226928439,
				"z": -0.4571163489,
				"element": "C" 
			},
			{
				"x": 3.8233396617,
				"y": -0.4354670823,
				"z": -0.2352356438,
				"element": "H" 
			},
			{
				"x": 2.868213459,
				"y": -1.6331090927,
				"z": -0.9334423997,
				"element": "H" 
			},
			{
				"x": 0.8954266814,
				"y": -1.7802529704,
				"z": -2.8059705783,
				"element": "H" 
			},
			{
				"x": -1.6654625009,
				"y": -4.4862978172,
				"z": -0.040170393,
				"element": "H" 
			},
			{
				"x": -2.2545762605,
				"y": -4.2095335292,
				"z": 2.5314640524,
				"element": "H" 
			},
			{
				"x": -1.1972429639,
				"y": -1.9965340853,
				"z": 3.5068851169,
				"element": "H" 
			},
			{
				"x": -1.3068697244,
				"y": 0.257033493,
				"z": -1.7740427339,
				"element": "H" 
			},
			{
				"x": -2.045933116,
				"y": 4.5601780799,
				"z": -0.4528446167,
				"element": "H" 
			},
			{
				"x": -1.3293415414,
				"y": 3.6102045792,
				"z": 0.8774831843,
				"element": "H" 
			},
			{
				"x": 0.2216005544,
				"y": 4.8489314588,
				"z": -1.4611115423,
				"element": "H" 
			},
			{
				"x": 0.2425699434,
				"y": 5.4420937818,
				"z": 0.2217256311,
				"element": "H" 
			},
			{
				"x": 3.0510210701,
				"y": 1.9168140116,
				"z": -0.0989611953,
				"element": "H" 
			}
		],
		 "valence_orbital": [ 
			{
				"type": "occ",
				"energy": -0.253,
				"method": "rhf"
			},
			{
				"type": "occ",
				"energy": -0.24879,
				"method": "rhf"
			},
			{
				"type": "occ",
				"energy": -0.23631,
				"method": "rhf"
			},
			{
				"type": "occ",
				"energy": -0.22833,
				"method": "rhf"
			},
			{
				"type": "occ",
				"energy": -0.1922,
				"method": "rhf"
			},
			{
				"type": "unocc",
				"energy": -0.04127,
				"method": "rhf"
			},
			{
				"type": "unocc",
				"energy": -0.00628,
				"method": "rhf"
			},
			{
				"type": "unocc",
				"energy": 0.01791,
				"method": "rhf"
			},
			{
				"type": "unocc",
				"energy": 0.04084,
				"method": "rhf"
			},
			{
				"type": "unocc",
				"energy": 0.04515,
				"method": "rhf"
			}
		],
		"cosmo_sigma_profile": { 
			"-0.025": 0.0,
			"-0.024": 0.0,
			"-0.023": 0.0,
			"-0.022": 0.0,
			"-0.021": 0.0,
			"-0.02": 0.0,
			"-0.019": 0.0,
			"-0.018": 0.0,
			"-0.017": 0.0,
			"-0.016": 0.0,
			"-0.015": 0.0,
			"-0.014": 0.405670274197,
			"-0.013": 1.3045366415,
			"-0.012": 2.0841040892,
			"-0.011": 3.19796070038,
			"-0.01": 3.10583457435,
			"-0.009": 4.19370266827,
			"-0.008": 6.42383826852,
			"-0.007": 13.892177558,
			"-0.006": 19.4996974189,
			"-0.005": 22.9580038035,
			"-0.004": 19.7161314486,
			"-0.003": 15.6694504388,
			"-0.002": 13.5158008322,
			"-0.001": 14.0207210838,
			"0.0": 12.6832439811,
			"0.001": 14.4454870528,
			"0.002": 15.6707345617,
			"0.003": 26.2506972328,
			"0.004": 29.5072920361,
			"0.005": 11.4439391668,
			"0.006": 4.97039720881,
			"0.007": 4.98559588401,
			"0.008": 4.94973651943,
			"0.009": 4.91413964545,
			"0.01": 4.97105594527,
			"0.011": 4.13392271724,
			"0.012": 2.66579349508,
			"0.013": 5.63911754092,
			"0.014": 3.26579199632,
			"0.015": 0.176450362947,
			"0.016": 0.0,
			"0.017": 0.0,
			"0.018": 0.0,
			"0.019": 0.0,
			"0.02": 0.0,
			"0.021": 0.0,
			"0.022": 0.0,
			"0.023": 0.0,
			"0.024": 0.0,
			"0.025": 0.0
		}
	}
}
