{
	 "smiles": "ClC1=C(C=CN=C1)C#N", 
	 "Tm": 345.65, 
	 "num_atms": 12, 
	 "gaussian": { 
		 "optdone": 1, 
		 "sigma_profile": "yes", 
		 "theory": "DFT", 
		 "functional": "B3LYP", 
		 "basiset": "6-31G**", 
		 "properties": { 
			 "R2extent": 1727.4935, 
			 "electric_dipole_moment_norm": 2.65320314149, 
			 "electric_quadrupole_moment_norm": 19.3547376291, 
			 "total_energy": -800.1078935, 
			 "HOMO_LUMO_gap": 0.19581, 
			 "cosmo_polarized_energy": -8.62, 
			 "cosmo_cavitation_energy": 19.66, 
			 "cosmo_dispersion_energy": -14.16, 
			 "cosmo_repulsion_energy": 1.16, 
			 "cosmo_total_nonelectrostatic_energy": 6.65, 
			 "SMD_solvation_energy": 3.21 
		},
		"coords": [
			{
				"x": 1.3291734106,
				"y": -2.3705713486,
				"z": -0.6029178448,
				"element": "Cl" 
			},
			{
				"x": 0.6544451435,
				"y": -0.7734421999,
				"z": -0.7370999255,
				"element": "C" 
			},
			{
				"x": 1.4619568022,
				"y": 0.338669492,
				"z": -1.0310969339,
				"element": "C" 
			},
			{
				"x": 0.8384246652,
				"y": 1.5930043634,
				"z": -1.1218448477,
				"element": "C" 
			},
			{
				"x": -0.5359411115,
				"y": 1.6752811586,
				"z": -0.9184413465,
				"element": "C" 
			},
			{
				"x": -1.3041784106,
				"y": 0.6145785977,
				"z": -0.6382638559,
				"element": "N" 
			},
			{
				"x": -0.7173462023,
				"y": -0.5803677624,
				"z": -0.5507210855,
				"element": "C" 
			},
			{
				"x": 2.8755660102,
				"y": 0.2209544398,
				"z": -1.2352973745,
				"element": "C" 
			},
			{
				"x": 4.0237478152,
				"y": 0.1633913625,
				"z": -1.4068049767,
				"element": "N" 
			},
			{
				"x": 1.4266581967,
				"y": 2.4753522684,
				"z": -1.3468863588,
				"element": "H" 
			},
			{
				"x": -1.042338949,
				"y": 2.6351934717,
				"z": -0.9832739559,
				"element": "H" 
			},
			{
				"x": -1.3523673701,
				"y": -1.4326438433,
				"z": -0.3228514943,
				"element": "H" 
			}
		],
		 "valence_orbital": [ 
			{
				"type": "occ",
				"energy": -0.3534,
				"method": "rhf"
			},
			{
				"type": "occ",
				"energy": -0.34352,
				"method": "rhf"
			},
			{
				"type": "occ",
				"energy": -0.3072,
				"method": "rhf"
			},
			{
				"type": "occ",
				"energy": -0.28892,
				"method": "rhf"
			},
			{
				"type": "occ",
				"energy": -0.28264,
				"method": "rhf"
			},
			{
				"type": "unocc",
				"energy": -0.08683,
				"method": "rhf"
			},
			{
				"type": "unocc",
				"energy": -0.0486,
				"method": "rhf"
			},
			{
				"type": "unocc",
				"energy": 0.00478,
				"method": "rhf"
			},
			{
				"type": "unocc",
				"energy": 0.01686,
				"method": "rhf"
			},
			{
				"type": "unocc",
				"energy": 0.05147,
				"method": "rhf"
			}
		],
		"cosmo_sigma_profile": { 
			"-0.025": 0.0,
			"-0.024": 0.0,
			"-0.023": 0.0,
			"-0.022": 0.0,
			"-0.021": 0.0,
			"-0.02": 0.0,
			"-0.019": 0.0,
			"-0.018": 0.0,
			"-0.017": 0.0,
			"-0.016": 0.0,
			"-0.015": 0.0,
			"-0.014": 0.0,
			"-0.013": 0.0,
			"-0.012": 0.0,
			"-0.011": 0.0,
			"-0.01": 1.31505797606,
			"-0.009": 3.61332184959,
			"-0.008": 7.7646685166,
			"-0.007": 5.22998321576,
			"-0.006": 5.27468927606,
			"-0.005": 6.47098354148,
			"-0.004": 10.792308055,
			"-0.003": 15.6517342947,
			"-0.002": 15.9683860025,
			"-0.001": 14.3037020937,
			"0.0": 9.8441988609,
			"0.001": 7.81636576982,
			"0.002": 13.0365864017,
			"0.003": 10.1192871,
			"0.004": 4.47748154513,
			"0.005": 4.25970128153,
			"0.006": 4.03309773045,
			"0.007": 4.2354163727,
			"0.008": 4.06259871835,
			"0.009": 3.94920585068,
			"0.01": 3.43987881217,
			"0.011": 3.13456463907,
			"0.012": 2.05960590904,
			"0.013": 0.805028851016,
			"0.014": 0.783868575994,
			"0.015": 0.127596008165,
			"0.016": 0.0,
			"0.017": 0.0,
			"0.018": 0.0,
			"0.019": 0.0,
			"0.02": 0.0,
			"0.021": 0.0,
			"0.022": 0.0,
			"0.023": 0.0,
			"0.024": 0.0,
			"0.025": 0.0
		}
	}
}
