{
	 "smiles": "CC(C)CCCC(C)CCCC(C)CCCC1(C)CCC2=C(O1)C(C)=C(C)C(O)=C2C", 
	 "Tm": 276.15, 
	 "num_atms": 81, 
	 "gaussian": { 
		 "optdone": 1, 
		 "sigma_profile": "yes", 
		 "theory": "DFT", 
		 "functional": "B3LYP", 
		 "basiset": "6-31G**", 
		 "properties": { 
			 "R2extent": 20383.8108, 
			 "electric_dipole_moment_norm": 2.48636091105, 
			 "electric_quadrupole_moment_norm": 15.1595176487, 
			 "total_energy": -1285.73381102, 
			 "HOMO_LUMO_gap": 0.19105, 
			 "cosmo_polarized_energy": -9.31, 
			 "cosmo_cavitation_energy": 73.12, 
			 "cosmo_dispersion_energy": -45.13, 
			 "cosmo_repulsion_energy": 3.46, 
			 "cosmo_total_nonelectrostatic_energy": 31.44, 
			 "SMD_solvation_energy": 10.71 
		},
		"coords": [
			{
				"x": 0.3347340271,
				"y": 0.6109144184,
				"z": -8.5258998113,
				"element": "C" 
			},
			{
				"x": -0.8179883554,
				"y": 0.7450615214,
				"z": -7.5182289941,
				"element": "C" 
			},
			{
				"x": -1.1223570939,
				"y": 2.2218764048,
				"z": -7.2208576948,
				"element": "C" 
			},
			{
				"x": -0.5858346169,
				"y": -0.0840256632,
				"z": -6.2343235288,
				"element": "C" 
			},
			{
				"x": 0.6206033768,
				"y": 0.3142809288,
				"z": -5.3695624392,
				"element": "C" 
			},
			{
				"x": 0.7673922411,
				"y": -0.5783944715,
				"z": -4.1282371929,
				"element": "C" 
			},
			{
				"x": 1.882554873,
				"y": -0.1705876043,
				"z": -3.1434347053,
				"element": "C" 
			},
			{
				"x": 3.2709742856,
				"y": -0.2103310527,
				"z": -3.8027309458,
				"element": "C" 
			},
			{
				"x": 1.8368388825,
				"y": -1.0731428767,
				"z": -1.8883768424,
				"element": "C" 
			},
			{
				"x": 2.6392375478,
				"y": -0.587645416,
				"z": -0.6576966602,
				"element": "C" 
			},
			{
				"x": 1.8136414227,
				"y": 0.1564967882,
				"z": 0.4118913883,
				"element": "C" 
			},
			{
				"x": 1.195732111,
				"y": 1.50994347,
				"z": 0.0030381745,
				"element": "C" 
			},
			{
				"x": 2.2675340894,
				"y": 2.5700343707,
				"z": -0.3016725034,
				"element": "C" 
			},
			{
				"x": 0.1547617884,
				"y": 2.0263903022,
				"z": 1.0293290399,
				"element": "C" 
			},
			{
				"x": 0.6562536723,
				"y": 2.2896529706,
				"z": 2.4710461864,
				"element": "C" 
			},
			{
				"x": 0.4905852776,
				"y": 1.148556521,
				"z": 3.4960706345,
				"element": "C" 
			},
			{
				"x": -0.9454407403,
				"y": 0.7612801404,
				"z": 3.9412769076,
				"element": "C" 
			},
			{
				"x": -1.8379230906,
				"y": 1.9792192654,
				"z": 4.1822836703,
				"element": "C" 
			},
			{
				"x": -0.9050560425,
				"y": -0.1251970592,
				"z": 5.1965195687,
				"element": "C" 
			},
			{
				"x": -0.1585842978,
				"y": -1.4368205114,
				"z": 4.9392775384,
				"element": "C" 
			},
			{
				"x": -0.5904681936,
				"y": -2.0711756959,
				"z": 3.6308007309,
				"element": "C" 
			},
			{
				"x": -1.316075653,
				"y": -1.3112616373,
				"z": 2.6998650082,
				"element": "C" 
			},
			{
				"x": -1.6251141243,
				"y": 0.0198910376,
				"z": 2.8975430123,
				"element": "O" 
			},
			{
				"x": -1.8023260312,
				"y": -1.8790348564,
				"z": 1.505184056,
				"element": "C" 
			},
			{
				"x": -2.6267184418,
				"y": -1.0518837882,
				"z": 0.5460516836,
				"element": "C" 
			},
			{
				"x": -1.5242389275,
				"y": -3.22400024,
				"z": 1.219665383,
				"element": "C" 
			},
			{
				"x": -2.0217852338,
				"y": -3.8648816174,
				"z": -0.0546136811,
				"element": "C" 
			},
			{
				"x": -0.7694769472,
				"y": -3.9720883574,
				"z": 2.1368153094,
				"element": "C" 
			},
			{
				"x": -0.5139053551,
				"y": -5.2865187777,
				"z": 1.8087419638,
				"element": "O" 
			},
			{
				"x": -0.2959430143,
				"y": -3.4164843782,
				"z": 3.3327216142,
				"element": "C" 
			},
			{
				"x": 0.523325457,
				"y": -4.2864999133,
				"z": 4.2628745746,
				"element": "C" 
			},
			{
				"x": 0.0887461683,
				"y": 1.1102782502,
				"z": -9.4695426386,
				"element": "H" 
			},
			{
				"x": 0.5487113586,
				"y": -0.4401569658,
				"z": -8.750571647,
				"element": "H" 
			},
			{
				"x": 1.2573983883,
				"y": 1.0655421649,
				"z": -8.1482276315,
				"element": "H" 
			},
			{
				"x": -1.7138282185,
				"y": 0.3201666095,
				"z": -7.9944081712,
				"element": "H" 
			},
			{
				"x": -0.2541410745,
				"y": 2.735374992,
				"z": -6.7929334681,
				"element": "H" 
			},
			{
				"x": -1.9523816651,
				"y": 2.3239065515,
				"z": -6.5125726561,
				"element": "H" 
			},
			{
				"x": -1.3978601547,
				"y": 2.7562601019,
				"z": -8.1367602764,
				"element": "H" 
			},
			{
				"x": -0.4796831414,
				"y": -1.1405540512,
				"z": -6.5190758284,
				"element": "H" 
			},
			{
				"x": -1.4940552435,
				"y": -0.0289710438,
				"z": -5.617439315,
				"element": "H" 
			},
			{
				"x": 0.5202296328,
				"y": 1.3592772238,
				"z": -5.0464105207,
				"element": "H" 
			},
			{
				"x": 1.5355158954,
				"y": 0.2651079735,
				"z": -5.9712386029,
				"element": "H" 
			},
			{
				"x": 0.9351983315,
				"y": -1.6184656113,
				"z": -4.44670337,
				"element": "H" 
			},
			{
				"x": -0.1888457561,
				"y": -0.5816374133,
				"z": -3.5859528954,
				"element": "H" 
			},
			{
				"x": 1.6853304893,
				"y": 0.8659679086,
				"z": -2.833961806,
				"element": "H" 
			},
			{
				"x": 3.3522690922,
				"y": 0.5026583645,
				"z": -4.628609624,
				"element": "H" 
			},
			{
				"x": 3.479395995,
				"y": -1.2109198214,
				"z": -4.2026375873,
				"element": "H" 
			},
			{
				"x": 4.0650554131,
				"y": 0.0299502468,
				"z": -3.0885036435,
				"element": "H" 
			},
			{
				"x": 0.7897073466,
				"y": -1.2166555031,
				"z": -1.587866033,
				"element": "H" 
			},
			{
				"x": 2.1948014343,
				"y": -2.0687402011,
				"z": -2.1850234938,
				"element": "H" 
			},
			{
				"x": 3.0881553318,
				"y": -1.458925026,
				"z": -0.1653178273,
				"element": "H" 
			},
			{
				"x": 3.4871660216,
				"y": 0.0305661946,
				"z": -0.9775021948,
				"element": "H" 
			},
			{
				"x": 1.0077189589,
				"y": -0.512797145,
				"z": 0.7412024405,
				"element": "H" 
			},
			{
				"x": 2.4573259856,
				"y": 0.3138963221,
				"z": 1.2888615477,
				"element": "H" 
			},
			{
				"x": 0.627439291,
				"y": 1.3479300461,
				"z": -0.9240117281,
				"element": "H" 
			},
			{
				"x": 1.8076602304,
				"y": 3.5185715205,
				"z": -0.6011013663,
				"element": "H" 
			},
			{
				"x": 2.9301126924,
				"y": 2.2558612743,
				"z": -1.1139511197,
				"element": "H" 
			},
			{
				"x": 2.8999376986,
				"y": 2.7694821523,
				"z": 0.5713693705,
				"element": "H" 
			},
			{
				"x": -0.2497926594,
				"y": 2.9653529606,
				"z": 0.6286437241,
				"element": "H" 
			},
			{
				"x": -0.6848903147,
				"y": 1.3265254327,
				"z": 1.0650896826,
				"element": "H" 
			},
			{
				"x": 0.1592213451,
				"y": 3.1842298595,
				"z": 2.8629756726,
				"element": "H" 
			},
			{
				"x": 1.7216338561,
				"y": 2.5507932985,
				"z": 2.4470318395,
				"element": "H" 
			},
			{
				"x": 0.9859496284,
				"y": 0.2461765814,
				"z": 3.125830384,
				"element": "H" 
			},
			{
				"x": 1.0327941258,
				"y": 1.4409048356,
				"z": 4.4061178221,
				"element": "H" 
			},
			{
				"x": -2.0067662466,
				"y": 2.5320200921,
				"z": 3.2552316615,
				"element": "H" 
			},
			{
				"x": -2.810910978,
				"y": 1.6613257156,
				"z": 4.5674395222,
				"element": "H" 
			},
			{
				"x": -1.3793891282,
				"y": 2.6557299473,
				"z": 4.9107937552,
				"element": "H" 
			},
			{
				"x": -0.4490991956,
				"y": 0.4226812227,
				"z": 6.0283539261,
				"element": "H" 
			},
			{
				"x": -1.9405057809,
				"y": -0.3454277152,
				"z": 5.4820268485,
				"element": "H" 
			},
			{
				"x": -0.351479543,
				"y": -2.1214995815,
				"z": 5.7727063751,
				"element": "H" 
			},
			{
				"x": 0.9259889833,
				"y": -1.2592759955,
				"z": 4.9418387695,
				"element": "H" 
			},
			{
				"x": -2.0735258217,
				"y": -0.8356974196,
				"z": -0.377422372,
				"element": "H" 
			},
			{
				"x": -3.537797679,
				"y": -1.5828328231,
				"z": 0.2494268787,
				"element": "H" 
			},
			{
				"x": -2.9144322525,
				"y": -0.101739902,
				"z": 0.9942778406,
				"element": "H" 
			},
			{
				"x": -1.724374471,
				"y": -3.2842193889,
				"z": -0.9353249108,
				"element": "H" 
			},
			{
				"x": -1.6297596795,
				"y": -4.8756687719,
				"z": -0.1635309048,
				"element": "H" 
			},
			{
				"x": -3.1174536124,
				"y": -3.924835458,
				"z": -0.0706777412,
				"element": "H" 
			},
			{
				"x": -0.0317064951,
				"y": -5.704733212,
				"z": 2.5309564548,
				"element": "H" 
			},
			{
				"x": -0.0739453481,
				"y": -5.0929473528,
				"z": 4.7124387109,
				"element": "H" 
			},
			{
				"x": 1.3651298432,
				"y": -4.7563609221,
				"z": 3.7351753645,
				"element": "H" 
			},
			{
				"x": 0.9577980291,
				"y": -3.7191007411,
				"z": 5.0857293381,
				"element": "H" 
			}
		],
		 "valence_orbital": [ 
			{
				"type": "occ",
				"energy": -0.28672,
				"method": "rhf"
			},
			{
				"type": "occ",
				"energy": -0.27984,
				"method": "rhf"
			},
			{
				"type": "occ",
				"energy": -0.26833,
				"method": "rhf"
			},
			{
				"type": "occ",
				"energy": -0.21716,
				"method": "rhf"
			},
			{
				"type": "occ",
				"energy": -0.18316,
				"method": "rhf"
			},
			{
				"type": "unocc",
				"energy": 0.00789,
				"method": "rhf"
			},
			{
				"type": "unocc",
				"energy": 0.03803,
				"method": "rhf"
			},
			{
				"type": "unocc",
				"energy": 0.06464,
				"method": "rhf"
			},
			{
				"type": "unocc",
				"energy": 0.07245,
				"method": "rhf"
			},
			{
				"type": "unocc",
				"energy": 0.07964,
				"method": "rhf"
			}
		],
		"cosmo_sigma_profile": { 
			"-0.025": 0.0,
			"-0.024": 0.0,
			"-0.023": 0.0,
			"-0.022": 0.0,
			"-0.021": 0.0,
			"-0.02": 0.0,
			"-0.019": 0.0,
			"-0.018": 0.0,
			"-0.017": 0.0,
			"-0.016": 0.0,
			"-0.015": 0.304736694885,
			"-0.014": 0.897661302041,
			"-0.013": 0.89250311459,
			"-0.012": 1.0436167255,
			"-0.011": 0.902439120047,
			"-0.01": 0.811186266409,
			"-0.009": 1.27285886077,
			"-0.008": 1.58344629151,
			"-0.007": 1.31234718389,
			"-0.006": 1.56593682734,
			"-0.005": 2.65259407014,
			"-0.004": 12.3687258771,
			"-0.003": 35.56567577,
			"-0.002": 72.0897664082,
			"-0.001": 110.03620985,
			"0.0": 108.866856757,
			"0.001": 94.1645886077,
			"0.002": 57.6013677714,
			"0.003": 14.1574792878,
			"0.004": 8.56040645063,
			"0.005": 11.6106505881,
			"0.006": 9.0314405119,
			"0.007": 4.9703327759,
			"0.008": 2.78123453203,
			"0.009": 3.0527510861,
			"0.01": 2.26967689902,
			"0.011": 1.23095239489,
			"0.012": 0.0375840729479,
			"0.013": 0.0,
			"0.014": 0.0,
			"0.015": 0.0,
			"0.016": 0.0,
			"0.017": 0.0,
			"0.018": 0.0,
			"0.019": 0.0,
			"0.02": 0.0,
			"0.021": 0.0,
			"0.022": 0.0,
			"0.023": 0.0,
			"0.024": 0.0,
			"0.025": 0.0
		}
	}
}
