{
	 "smiles": "NC1=CC(=NN1C1=CC=CC=C1)C1=CC=C(Cl)C=C1", 
	 "Tm": 465.15, 
	 "num_atms": 31, 
	 "gaussian": { 
		 "optdone": 1, 
		 "sigma_profile": "yes", 
		 "theory": "DFT", 
		 "functional": "B3LYP", 
		 "basiset": "6-31G**", 
		 "properties": { 
			 "R2extent": 10447.4428, 
			 "electric_dipole_moment_norm": 5.39617878966, 
			 "electric_quadrupole_moment_norm": 15.5923868708, 
			 "total_energy": -1203.26586877, 
			 "HOMO_LUMO_gap": 0.17189, 
			 "cosmo_polarized_energy": -13.72, 
			 "cosmo_cavitation_energy": 37.23, 
			 "cosmo_dispersion_energy": -27.38, 
			 "cosmo_repulsion_energy": 2.08, 
			 "cosmo_total_nonelectrostatic_energy": 11.93, 
			 "SMD_solvation_energy": 5.25 
		},
		"coords": [
			{
				"x": -1.0805356506,
				"y": 0.3142141006,
				"z": 1.5348614208,
				"element": "N" 
			},
			{
				"x": -0.1930184819,
				"y": 0.3745491629,
				"z": 0.4631452689,
				"element": "C" 
			},
			{
				"x": 1.1183419747,
				"y": -0.0480665098,
				"z": 0.3645642213,
				"element": "C" 
			},
			{
				"x": 1.5207634241,
				"y": 0.3018709209,
				"z": -0.9529809673,
				"element": "C" 
			},
			{
				"x": 0.5331375459,
				"y": 0.8945591612,
				"z": -1.6217005462,
				"element": "N" 
			},
			{
				"x": -0.5136728137,
				"y": 0.9547870751,
				"z": -0.7416310765,
				"element": "N" 
			},
			{
				"x": -1.7519315766,
				"y": 1.501061905,
				"z": -1.1697809797,
				"element": "C" 
			},
			{
				"x": -2.5614546652,
				"y": 2.2288128215,
				"z": -0.2873544236,
				"element": "C" 
			},
			{
				"x": -3.7758477133,
				"y": 2.74925923,
				"z": -0.7385210709,
				"element": "C" 
			},
			{
				"x": -4.1771917109,
				"y": 2.5686835199,
				"z": -2.0620914437,
				"element": "C" 
			},
			{
				"x": -3.3521700717,
				"y": 1.8618664704,
				"z": -2.9415267606,
				"element": "C" 
			},
			{
				"x": -2.1456539794,
				"y": 1.32303622,
				"z": -2.5025856538,
				"element": "C" 
			},
			{
				"x": 2.8264066841,
				"y": 0.0863407789,
				"z": -1.5960182077,
				"element": "C" 
			},
			{
				"x": 3.043759678,
				"y": 0.5026511839,
				"z": -2.9207221822,
				"element": "C" 
			},
			{
				"x": 4.2714581962,
				"y": 0.3044739534,
				"z": -3.5441120915,
				"element": "C" 
			},
			{
				"x": 5.3026373704,
				"y": -0.3183425673,
				"z": -2.8392682865,
				"element": "C" 
			},
			{
				"x": 6.8583090083,
				"y": -0.572955587,
				"z": -3.6213129147,
				"element": "Cl" 
			},
			{
				"x": 5.1175986974,
				"y": -0.7405863665,
				"z": -1.5244076565,
				"element": "C" 
			},
			{
				"x": 3.8822369867,
				"y": -0.5352534447,
				"z": -0.9124516464,
				"element": "C" 
			},
			{
				"x": -0.7892919956,
				"y": -0.3626290378,
				"z": 2.2286273167,
				"element": "H" 
			},
			{
				"x": -2.0445657989,
				"y": 0.1563421745,
				"z": 1.2627724846,
				"element": "H" 
			},
			{
				"x": 1.6868791598,
				"y": -0.5465090244,
				"z": 1.1348455532,
				"element": "H" 
			},
			{
				"x": -2.2320117141,
				"y": 2.4065331238,
				"z": 0.7300831662,
				"element": "H" 
			},
			{
				"x": -4.3992853364,
				"y": 3.3139639599,
				"z": -0.0514070855,
				"element": "H" 
			},
			{
				"x": -5.1199966744,
				"y": 2.9808268599,
				"z": -2.4086809714,
				"element": "H" 
			},
			{
				"x": -3.6525774299,
				"y": 1.7223847652,
				"z": -3.9759144247,
				"element": "H" 
			},
			{
				"x": -1.4933982904,
				"y": 0.7749737409,
				"z": -3.1716562739,
				"element": "H" 
			},
			{
				"x": 2.234338231,
				"y": 0.9875219117,
				"z": -3.4551774669,
				"element": "H" 
			},
			{
				"x": 4.4315532305,
				"y": 0.6292517152,
				"z": -4.5664171162,
				"element": "H" 
			},
			{
				"x": 5.9277694759,
				"y": -1.2219471371,
				"z": -0.9878749868,
				"element": "H" 
			},
			{
				"x": 3.74631424,
				"y": -0.8656750803,
				"z": 0.1124948016,
				"element": "H" 
			}
		],
		 "valence_orbital": [ 
			{
				"type": "occ",
				"energy": -0.2603,
				"method": "rhf"
			},
			{
				"type": "occ",
				"energy": -0.25578,
				"method": "rhf"
			},
			{
				"type": "occ",
				"energy": -0.24877,
				"method": "rhf"
			},
			{
				"type": "occ",
				"energy": -0.21996,
				"method": "rhf"
			},
			{
				"type": "occ",
				"energy": -0.20456,
				"method": "rhf"
			},
			{
				"type": "unocc",
				"energy": -0.03267,
				"method": "rhf"
			},
			{
				"type": "unocc",
				"energy": -0.01221,
				"method": "rhf"
			},
			{
				"type": "unocc",
				"energy": -0.00789,
				"method": "rhf"
			},
			{
				"type": "unocc",
				"energy": -0.0042,
				"method": "rhf"
			},
			{
				"type": "unocc",
				"energy": 0.03736,
				"method": "rhf"
			}
		],
		"cosmo_sigma_profile": { 
			"-0.025": 0.0,
			"-0.024": 0.0,
			"-0.023": 0.0,
			"-0.022": 0.0,
			"-0.021": 0.0,
			"-0.02": 0.0,
			"-0.019": 0.0,
			"-0.018": 0.0,
			"-0.017": 0.0,
			"-0.016": 0.0,
			"-0.015": 0.0,
			"-0.014": 0.206536305672,
			"-0.013": 2.07492772239,
			"-0.012": 2.29264321918,
			"-0.011": 2.83434276414,
			"-0.01": 3.00729299393,
			"-0.009": 2.28625134255,
			"-0.008": 3.97264159863,
			"-0.007": 8.61609817965,
			"-0.006": 15.5178319706,
			"-0.005": 19.5996248997,
			"-0.004": 18.8252409699,
			"-0.003": 14.5240916426,
			"-0.002": 15.6138114809,
			"-0.001": 15.7075253373,
			"0.0": 17.7799023553,
			"0.001": 21.5104400213,
			"0.002": 24.858191544,
			"0.003": 32.6496634831,
			"0.004": 37.5338676154,
			"0.005": 24.2874196581,
			"0.006": 5.099182308,
			"0.007": 3.21952572039,
			"0.008": 2.61264801455,
			"0.009": 2.6282083212,
			"0.01": 1.32207625343,
			"0.011": 1.1482024942,
			"0.012": 1.44944703442,
			"0.013": 0.310536853504,
			"0.014": 0.0,
			"0.015": 0.0,
			"0.016": 0.0,
			"0.017": 0.0,
			"0.018": 0.0,
			"0.019": 0.0,
			"0.02": 0.0,
			"0.021": 0.0,
			"0.022": 0.0,
			"0.023": 0.0,
			"0.024": 0.0,
			"0.025": 0.0
		}
	}
}
