{
	 "smiles": "CC1=CC=C(C=C1)S(=O)(=O)N(CCC(O)=O)C1=CC=CC=C1", 
	 "Tm": 419.15, 
	 "num_atms": 39, 
	 "gaussian": { 
		 "optdone": 1, 
		 "sigma_profile": "yes", 
		 "theory": "DFT", 
		 "functional": "B3LYP", 
		 "basiset": "6-31G**", 
		 "properties": { 
			 "R2extent": 7190.9929, 
			 "electric_dipole_moment_norm": 4.20432413712, 
			 "electric_quadrupole_moment_norm": 15.375720562, 
			 "total_energy": -1373.73094062, 
			 "HOMO_LUMO_gap": 0.20833, 
			 "cosmo_polarized_energy": -18.62, 
			 "cosmo_cavitation_energy": 43.89, 
			 "cosmo_dispersion_energy": -29.08, 
			 "cosmo_repulsion_energy": 2.21, 
			 "cosmo_total_nonelectrostatic_energy": 17.01, 
			 "SMD_solvation_energy": 7.68 
		},
		"coords": [
			{
				"x": -1.6041813916,
				"y": -0.2701411651,
				"z": 4.9658932701,
				"element": "C" 
			},
			{
				"x": -0.9842441249,
				"y": -0.157684065,
				"z": 3.593994714,
				"element": "C" 
			},
			{
				"x": -1.4375540402,
				"y": 0.8147651593,
				"z": 2.6861192282,
				"element": "C" 
			},
			{
				"x": -0.8886666075,
				"y": 0.9244648913,
				"z": 1.413290762,
				"element": "C" 
			},
			{
				"x": 0.1315796982,
				"y": 0.0446278023,
				"z": 1.0372071465,
				"element": "C" 
			},
			{
				"x": 0.6061346234,
				"y": -0.9249188633,
				"z": 1.9174152239,
				"element": "C" 
			},
			{
				"x": 0.042211033,
				"y": -1.0192769443,
				"z": 3.1908486506,
				"element": "C" 
			},
			{
				"x": 0.8885353808,
				"y": 0.2053983777,
				"z": -0.5782546969,
				"element": "S" 
			},
			{
				"x": 2.002019917,
				"y": -0.7509727453,
				"z": -0.6387217789,
				"element": "O" 
			},
			{
				"x": 1.1411647565,
				"y": 1.6236370245,
				"z": -0.8628693561,
				"element": "O" 
			},
			{
				"x": -0.3891083497,
				"y": -0.2373595371,
				"z": -1.6155439149,
				"element": "N" 
			},
			{
				"x": -0.5076464859,
				"y": 0.5204637273,
				"z": -2.889465953,
				"element": "C" 
			},
			{
				"x": -1.2166489852,
				"y": 1.8675343846,
				"z": -2.7245642295,
				"element": "C" 
			},
			{
				"x": -2.63219021,
				"y": 1.7076116795,
				"z": -2.216748179,
				"element": "C" 
			},
			{
				"x": -2.9810946839,
				"y": 2.7022378051,
				"z": -1.3628943377,
				"element": "O" 
			},
			{
				"x": -3.4008168849,
				"y": 0.8211188237,
				"z": -2.523055569,
				"element": "O" 
			},
			{
				"x": -0.7520444638,
				"y": -1.6379659676,
				"z": -1.6456250694,
				"element": "C" 
			},
			{
				"x": -2.0450759232,
				"y": -1.9944287694,
				"z": -1.2481362334,
				"element": "C" 
			},
			{
				"x": -2.4466949038,
				"y": -3.3294166877,
				"z": -1.3013299458,
				"element": "C" 
			},
			{
				"x": -1.5583701128,
				"y": -4.3120560251,
				"z": -1.7423609499,
				"element": "C" 
			},
			{
				"x": -0.2675252025,
				"y": -3.9555882917,
				"z": -2.138088154,
				"element": "C" 
			},
			{
				"x": 0.1385583329,
				"y": -2.6214140233,
				"z": -2.0961656805,
				"element": "C" 
			},
			{
				"x": -2.6255629624,
				"y": -0.6648555637,
				"z": 4.9050818746,
				"element": "H" 
			},
			{
				"x": -1.0287736147,
				"y": -0.9378533461,
				"z": 5.6122961433,
				"element": "H" 
			},
			{
				"x": -1.6658009506,
				"y": 0.7071900865,
				"z": 5.4560715355,
				"element": "H" 
			},
			{
				"x": -2.2283348359,
				"y": 1.4977422917,
				"z": 2.9860428888,
				"element": "H" 
			},
			{
				"x": -1.2456737115,
				"y": 1.6813350282,
				"z": 0.7225703124,
				"element": "H" 
			},
			{
				"x": 1.4063152307,
				"y": -1.5858782258,
				"z": 1.6042996342,
				"element": "H" 
			},
			{
				"x": 0.4099295428,
				"y": -1.7737258322,
				"z": 3.8809859638,
				"element": "H" 
			},
			{
				"x": 0.4707148402,
				"y": 0.6803148305,
				"z": -3.3552718436,
				"element": "H" 
			},
			{
				"x": -1.0968151762,
				"y": -0.1173884988,
				"z": -3.5503295689,
				"element": "H" 
			},
			{
				"x": -0.6512734784,
				"y": 2.5303998584,
				"z": -2.070882115,
				"element": "H" 
			},
			{
				"x": -1.2797860308,
				"y": 2.3503848504,
				"z": -3.7093169991,
				"element": "H" 
			},
			{
				"x": -3.9090592376,
				"y": 2.5364296689,
				"z": -1.1227430246,
				"element": "H" 
			},
			{
				"x": -2.7284095883,
				"y": -1.2180818263,
				"z": -0.9242184648,
				"element": "H" 
			},
			{
				"x": -3.4537569309,
				"y": -3.6002495541,
				"z": -0.9978903,
				"element": "H" 
			},
			{
				"x": -1.8712734721,
				"y": -5.351618857,
				"z": -1.7801172482,
				"element": "H" 
			},
			{
				"x": 0.4264583983,
				"y": -4.7164448777,
				"z": -2.4834203936,
				"element": "H" 
			},
			{
				"x": 1.1428606053,
				"y": -2.3390366234,
				"z": -2.3895033424,
				"element": "H" 
			}
		],
		 "valence_orbital": [ 
			{
				"type": "occ",
				"energy": -0.27033,
				"method": "rhf"
			},
			{
				"type": "occ",
				"energy": -0.26575,
				"method": "rhf"
			},
			{
				"type": "occ",
				"energy": -0.25338,
				"method": "rhf"
			},
			{
				"type": "occ",
				"energy": -0.25045,
				"method": "rhf"
			},
			{
				"type": "occ",
				"energy": -0.24269,
				"method": "rhf"
			},
			{
				"type": "unocc",
				"energy": -0.03436,
				"method": "rhf"
			},
			{
				"type": "unocc",
				"energy": -0.01737,
				"method": "rhf"
			},
			{
				"type": "unocc",
				"energy": -0.01158,
				"method": "rhf"
			},
			{
				"type": "unocc",
				"energy": -0.00405,
				"method": "rhf"
			},
			{
				"type": "unocc",
				"energy": 0.00495,
				"method": "rhf"
			}
		],
		"cosmo_sigma_profile": { 
			"-0.025": 0.0,
			"-0.024": 0.0,
			"-0.023": 0.0,
			"-0.022": 0.0,
			"-0.021": 0.0,
			"-0.02": 0.0,
			"-0.019": 0.0355719384439,
			"-0.018": 0.698378598219,
			"-0.017": 0.896655085354,
			"-0.016": 0.687337382436,
			"-0.015": 1.19207133516,
			"-0.014": 0.115747796259,
			"-0.013": 0.830066381444,
			"-0.012": 1.02258835234,
			"-0.011": 1.00966857388,
			"-0.01": 0.173032819413,
			"-0.009": 0.449334482495,
			"-0.008": 1.33544522591,
			"-0.007": 6.31333058883,
			"-0.006": 19.5261135382,
			"-0.005": 28.398484298,
			"-0.004": 32.6176974044,
			"-0.003": 28.1052152643,
			"-0.002": 25.4843805948,
			"-0.001": 27.5744673523,
			"0.0": 25.6570765704,
			"0.001": 20.874580805,
			"0.002": 22.5585610682,
			"0.003": 26.3447066156,
			"0.004": 18.3692979503,
			"0.005": 12.7728818724,
			"0.006": 5.18265271961,
			"0.007": 5.62647586844,
			"0.008": 6.01436356511,
			"0.009": 6.803898073,
			"0.01": 7.47341411345,
			"0.011": 9.03228656811,
			"0.012": 5.72505376327,
			"0.013": 0.0786815410677,
			"0.014": 0.0,
			"0.015": 0.0,
			"0.016": 0.0,
			"0.017": 0.0,
			"0.018": 0.0,
			"0.019": 0.0,
			"0.02": 0.0,
			"0.021": 0.0,
			"0.022": 0.0,
			"0.023": 0.0,
			"0.024": 0.0,
			"0.025": 0.0
		}
	}
}
