{
	 "smiles": "NC1=NC2=CC=C(C=C2S1)[N+]([O-])=O", 
	 "Tm": 521.15, 
	 "num_atms": 18, 
	 "gaussian": { 
		 "optdone": 1, 
		 "sigma_profile": "yes", 
		 "theory": "DFT", 
		 "functional": "B3LYP", 
		 "basiset": "6-31G**", 
		 "properties": { 
			 "R2extent": 3819.4984, 
			 "electric_dipole_moment_norm": 7.1947352599, 
			 "electric_quadrupole_moment_norm": 16.3886043427, 
			 "total_energy": -982.561966131, 
			 "HOMO_LUMO_gap": 0.15386, 
			 "cosmo_polarized_energy": -15.39, 
			 "cosmo_cavitation_energy": 25.15, 
			 "cosmo_dispersion_energy": -19.46, 
			 "cosmo_repulsion_energy": 1.48, 
			 "cosmo_total_nonelectrostatic_energy": 7.17, 
			 "SMD_solvation_energy": 4.4 
		},
		"coords": [
			{
				"x": 5.2992966029,
				"y": -1.6804832641,
				"z": -1.4387013765,
				"element": "N" 
			},
			{
				"x": 4.0865805641,
				"y": -1.1965892348,
				"z": -1.0582749483,
				"element": "C" 
			},
			{
				"x": 3.9251272806,
				"y": -0.3007955186,
				"z": -0.1290218032,
				"element": "N" 
			},
			{
				"x": 2.5944706682,
				"y": 0.0353128006,
				"z": -0.0025567723,
				"element": "C" 
			},
			{
				"x": 2.0823119791,
				"y": 0.9717821137,
				"z": 0.9098287729,
				"element": "C" 
			},
			{
				"x": 0.7169807428,
				"y": 1.2160471411,
				"z": 0.9469014567,
				"element": "C" 
			},
			{
				"x": -0.1351128942,
				"y": 0.5258275577,
				"z": 0.0745908388,
				"element": "C" 
			},
			{
				"x": 0.3300708971,
				"y": -0.4128263492,
				"z": -0.8480654448,
				"element": "C" 
			},
			{
				"x": 1.6966770347,
				"y": -0.6432804004,
				"z": -0.8725140042,
				"element": "C" 
			},
			{
				"x": 2.6084935754,
				"y": -1.7440192196,
				"z": -1.9024613374,
				"element": "S" 
			},
			{
				"x": -1.5735837408,
				"y": 0.7945804135,
				"z": 0.1270064669,
				"element": "N" 
			},
			{
				"x": -1.9734900128,
				"y": 1.624578868,
				"z": 0.9449930384,
				"element": "O" 
			},
			{
				"x": -2.3025211556,
				"y": 0.1744217479,
				"z": -0.6504435201,
				"element": "O" 
			},
			{
				"x": 5.3536083087,
				"y": -2.5616758918,
				"z": -1.9247427756,
				"element": "H" 
			},
			{
				"x": 6.068585276,
				"y": -1.4532536497,
				"z": -0.8246135372,
				"element": "H" 
			},
			{
				"x": 2.764185115,
				"y": 1.4914392768,
				"z": 1.5737010952,
				"element": "H" 
			},
			{
				"x": 0.2879286741,
				"y": 1.9311451448,
				"z": 1.6369682211,
				"element": "H" 
			},
			{
				"x": -0.3711089151,
				"y": -0.9180115358,
				"z": -1.4997943704,
				"element": "H" 
			}
		],
		 "valence_orbital": [ 
			{
				"type": "occ",
				"energy": -0.30015,
				"method": "rhf"
			},
			{
				"type": "occ",
				"energy": -0.29634,
				"method": "rhf"
			},
			{
				"type": "occ",
				"energy": -0.28185,
				"method": "rhf"
			},
			{
				"type": "occ",
				"energy": -0.25455,
				"method": "rhf"
			},
			{
				"type": "occ",
				"energy": -0.2363,
				"method": "rhf"
			},
			{
				"type": "unocc",
				"energy": -0.08244,
				"method": "rhf"
			},
			{
				"type": "unocc",
				"energy": -0.02433,
				"method": "rhf"
			},
			{
				"type": "unocc",
				"energy": -0.01897,
				"method": "rhf"
			},
			{
				"type": "unocc",
				"energy": -0.01357,
				"method": "rhf"
			},
			{
				"type": "unocc",
				"energy": 0.03747,
				"method": "rhf"
			}
		],
		"cosmo_sigma_profile": { 
			"-0.025": 0.0,
			"-0.024": 0.0,
			"-0.023": 0.0,
			"-0.022": 0.0,
			"-0.021": 0.0,
			"-0.02": 0.0,
			"-0.019": 0.0,
			"-0.018": 0.0,
			"-0.017": 0.0,
			"-0.016": 0.822340303143,
			"-0.015": 2.61005312091,
			"-0.014": 3.06436635301,
			"-0.013": 2.55266558129,
			"-0.012": 2.30849905093,
			"-0.011": 2.4840134062,
			"-0.01": 1.8152004605,
			"-0.009": 2.75945179956,
			"-0.008": 3.68277908915,
			"-0.007": 5.12684628049,
			"-0.006": 7.88170422517,
			"-0.005": 7.63296307201,
			"-0.004": 7.24923932586,
			"-0.003": 9.4622973114,
			"-0.002": 11.3212081856,
			"-0.001": 15.5471147874,
			"0.0": 17.1848631368,
			"0.001": 23.8812024948,
			"0.002": 16.5566599095,
			"0.003": 9.79498081257,
			"0.004": 7.37884243562,
			"0.005": 4.17636080103,
			"0.006": 6.18201580821,
			"0.007": 6.85469067812,
			"0.008": 10.9394384669,
			"0.009": 6.17087319614,
			"0.01": 4.71801612849,
			"0.011": 1.88703270696,
			"0.012": 0.946978689092,
			"0.013": 0.938525869764,
			"0.014": 0.699889468972,
			"0.015": 0.0900012504343,
			"0.016": 0.0,
			"0.017": 0.0,
			"0.018": 0.0,
			"0.019": 0.0,
			"0.02": 0.0,
			"0.021": 0.0,
			"0.022": 0.0,
			"0.023": 0.0,
			"0.024": 0.0,
			"0.025": 0.0
		}
	}
}
