{
	 "smiles": "CC1C2CC3=CC=C(O)C=C3C1(C)CCN2CCC1=CC=CC=C1", 
	 "Tm": 454.15, 
	 "num_atms": 51, 
	 "gaussian": { 
		 "optdone": 1, 
		 "sigma_profile": "yes", 
		 "theory": "DFT", 
		 "functional": "B3LYP", 
		 "basiset": "6-31G**", 
		 "properties": { 
			 "R2extent": 11623.5416, 
			 "electric_dipole_moment_norm": 1.8195135861, 
			 "electric_quadrupole_moment_norm": 12.743653925, 
			 "total_energy": -984.600858555, 
			 "HOMO_LUMO_gap": 0.19752, 
			 "cosmo_polarized_energy": -11.88, 
			 "cosmo_cavitation_energy": 48.53, 
			 "cosmo_dispersion_energy": -33.68, 
			 "cosmo_repulsion_energy": 2.52, 
			 "cosmo_total_nonelectrostatic_energy": 17.37, 
			 "SMD_solvation_energy": 5.72 
		},
		"coords": [
			{
				"x": 0.6364655632,
				"y": 3.4686409099,
				"z": 0.3006145447,
				"element": "C" 
			},
			{
				"x": 0.197581075,
				"y": 2.1072360517,
				"z": -0.2602222931,
				"element": "C" 
			},
			{
				"x": 1.1103019631,
				"y": 0.95325331,
				"z": 0.2214285091,
				"element": "C" 
			},
			{
				"x": 2.5435293608,
				"y": 1.1547725718,
				"z": -0.3079554676,
				"element": "C" 
			},
			{
				"x": 2.643561565,
				"y": 1.714730943,
				"z": -1.7165773512,
				"element": "C" 
			},
			{
				"x": 3.905608008,
				"y": 1.8017775145,
				"z": -2.3234422402,
				"element": "C" 
			},
			{
				"x": 4.0800813076,
				"y": 2.3287737263,
				"z": -3.5964913066,
				"element": "C" 
			},
			{
				"x": 2.9602547422,
				"y": 2.7901131142,
				"z": -4.2942877087,
				"element": "C" 
			},
			{
				"x": 3.1616761951,
				"y": 3.3059314771,
				"z": -5.5465076047,
				"element": "O" 
			},
			{
				"x": 1.6967405262,
				"y": 2.7139541362,
				"z": -3.7074961542,
				"element": "C" 
			},
			{
				"x": 1.5169408345,
				"y": 2.1825959206,
				"z": -2.4204524217,
				"element": "C" 
			},
			{
				"x": 0.112208492,
				"y": 2.0442466746,
				"z": -1.8145382578,
				"element": "C" 
			},
			{
				"x": -0.8662619199,
				"y": 3.1117101636,
				"z": -2.3398470405,
				"element": "C" 
			},
			{
				"x": -0.4575426554,
				"y": 0.6396243061,
				"z": -2.1829288293,
				"element": "C" 
			},
			{
				"x": 0.3603922757,
				"y": -0.5138375929,
				"z": -1.5797717649,
				"element": "C" 
			},
			{
				"x": 0.5913672405,
				"y": -0.3812598186,
				"z": -0.1343094644,
				"element": "N" 
			},
			{
				"x": -0.536481212,
				"y": -0.8323013272,
				"z": 0.6841412889,
				"element": "C" 
			},
			{
				"x": -0.5237994611,
				"y": -2.3635398284,
				"z": 0.8871766278,
				"element": "C" 
			},
			{
				"x": -1.6709453042,
				"y": -2.838259997,
				"z": 1.7516552975,
				"element": "C" 
			},
			{
				"x": -2.9157143115,
				"y": -3.1539584826,
				"z": 1.1887502508,
				"element": "C" 
			},
			{
				"x": -3.9871301422,
				"y": -3.5523023256,
				"z": 1.9894055139,
				"element": "C" 
			},
			{
				"x": -3.8313722459,
				"y": -3.6423536134,
				"z": 3.3739178069,
				"element": "C" 
			},
			{
				"x": -2.5975324695,
				"y": -3.3321090034,
				"z": 3.9488902205,
				"element": "C" 
			},
			{
				"x": -1.5298955097,
				"y": -2.9334646842,
				"z": 3.1432976284,
				"element": "C" 
			},
			{
				"x": 0.7641353283,
				"y": 3.4101181953,
				"z": 1.3878244005,
				"element": "H" 
			},
			{
				"x": 1.5839881463,
				"y": 3.8054433715,
				"z": -0.1306627868,
				"element": "H" 
			},
			{
				"x": -0.1102986876,
				"y": 4.2433865356,
				"z": 0.1036296156,
				"element": "H" 
			},
			{
				"x": -0.8139773232,
				"y": 1.9067683888,
				"z": 0.1208824261,
				"element": "H" 
			},
			{
				"x": 1.1581981587,
				"y": 0.9764056117,
				"z": 1.3166732209,
				"element": "H" 
			},
			{
				"x": 3.0699853037,
				"y": 0.1957415502,
				"z": -0.2393111325,
				"element": "H" 
			},
			{
				"x": 3.0688912148,
				"y": 1.8376686913,
				"z": 0.3731663197,
				"element": "H" 
			},
			{
				"x": 4.7755093516,
				"y": 1.4433542632,
				"z": -1.7771863457,
				"element": "H" 
			},
			{
				"x": 5.0593385123,
				"y": 2.3911764144,
				"z": -4.0592839236,
				"element": "H" 
			},
			{
				"x": 2.3119763033,
				"y": 3.5871485191,
				"z": -5.9095888711,
				"element": "H" 
			},
			{
				"x": 0.8395488128,
				"y": 3.077426067,
				"z": -4.2684030667,
				"element": "H" 
			},
			{
				"x": -1.8017612607,
				"y": 3.071673409,
				"z": -1.7709990607,
				"element": "H" 
			},
			{
				"x": -1.1251945326,
				"y": 2.9411426259,
				"z": -3.390106266,
				"element": "H" 
			},
			{
				"x": -0.4597793222,
				"y": 4.1233790488,
				"z": -2.2541572007,
				"element": "H" 
			},
			{
				"x": -0.4930371191,
				"y": 0.5331811826,
				"z": -3.2745013273,
				"element": "H" 
			},
			{
				"x": -1.4952184839,
				"y": 0.5885040916,
				"z": -1.8260450266,
				"element": "H" 
			},
			{
				"x": 1.3305316377,
				"y": -0.5758083801,
				"z": -2.085060408,
				"element": "H" 
			},
			{
				"x": -0.1424182256,
				"y": -1.4677428607,
				"z": -1.7686544367,
				"element": "H" 
			},
			{
				"x": -1.5203026348,
				"y": -0.5353218504,
				"z": 0.2799376228,
				"element": "H" 
			},
			{
				"x": -0.4601821741,
				"y": -0.3580635492,
				"z": 1.6690461088,
				"element": "H" 
			},
			{
				"x": -0.5676673392,
				"y": -2.8604773089,
				"z": -0.0890368875,
				"element": "H" 
			},
			{
				"x": 0.4369047431,
				"y": -2.636942039,
				"z": 1.33613431,
				"element": "H" 
			},
			{
				"x": -3.0431486083,
				"y": -3.0930909892,
				"z": 0.1101496349,
				"element": "H" 
			},
			{
				"x": -4.9418297604,
				"y": -3.7970328876,
				"z": 1.5317570494,
				"element": "H" 
			},
			{
				"x": -4.6627416112,
				"y": -3.9561727095,
				"z": 3.9987113397,
				"element": "H" 
			},
			{
				"x": -2.4645105484,
				"y": -3.4047999137,
				"z": 5.024893449,
				"element": "H" 
			},
			{
				"x": -0.5699737988,
				"y": -2.6987396238,
				"z": 3.5978414588,
				"element": "H" 
			}
		],
		 "valence_orbital": [ 
			{
				"type": "occ",
				"energy": -0.24507,
				"method": "rhf"
			},
			{
				"type": "occ",
				"energy": -0.23936,
				"method": "rhf"
			},
			{
				"type": "occ",
				"energy": -0.23759,
				"method": "rhf"
			},
			{
				"type": "occ",
				"energy": -0.20936,
				"method": "rhf"
			},
			{
				"type": "occ",
				"energy": -0.19569,
				"method": "rhf"
			},
			{
				"type": "unocc",
				"energy": 0.00183,
				"method": "rhf"
			},
			{
				"type": "unocc",
				"energy": 0.00329,
				"method": "rhf"
			},
			{
				"type": "unocc",
				"energy": 0.00397,
				"method": "rhf"
			},
			{
				"type": "unocc",
				"energy": 0.01864,
				"method": "rhf"
			},
			{
				"type": "unocc",
				"energy": 0.07286,
				"method": "rhf"
			}
		],
		"cosmo_sigma_profile": { 
			"-0.025": 0.0,
			"-0.024": 0.0,
			"-0.023": 0.0,
			"-0.022": 0.0,
			"-0.021": 0.0,
			"-0.02": 0.0,
			"-0.019": 0.0,
			"-0.018": 0.0,
			"-0.017": 0.858979284491,
			"-0.016": 1.06546940259,
			"-0.015": 0.774195967321,
			"-0.014": 1.31174408336,
			"-0.013": 1.09149397523,
			"-0.012": 1.13947201091,
			"-0.011": 0.575096599687,
			"-0.01": 0.418943020827,
			"-0.009": 1.39147501082,
			"-0.008": 1.11725302786,
			"-0.007": 1.29522207992,
			"-0.006": 2.68622549163,
			"-0.005": 14.161175379,
			"-0.004": 21.7980590935,
			"-0.003": 40.3385320813,
			"-0.002": 54.7098364545,
			"-0.001": 47.0836889716,
			"0.0": 40.541989295,
			"0.001": 34.3010375781,
			"0.002": 22.1766874564,
			"0.003": 15.7303706687,
			"0.004": 16.5760187291,
			"0.005": 18.5981687296,
			"0.006": 17.4458807523,
			"0.007": 9.19865323824,
			"0.008": 2.0069572214,
			"0.009": 2.42887874083,
			"0.01": 2.38811294745,
			"0.011": 2.45906030018,
			"0.012": 2.21465985422,
			"0.013": 0.446789020907,
			"0.014": 0.340245648113,
			"0.015": 0.0691389058574,
			"0.016": 0.0,
			"0.017": 0.0,
			"0.018": 0.0,
			"0.019": 0.0,
			"0.02": 0.0,
			"0.021": 0.0,
			"0.022": 0.0,
			"0.023": 0.0,
			"0.024": 0.0,
			"0.025": 0.0
		}
	}
}
