{
	 "smiles": "NC1=CC(=C(O)C=C1)[N+]([O-])=O", 
	 "Tm": 401.15, 
	 "num_atms": 17, 
	 "gaussian": { 
		 "optdone": 1, 
		 "sigma_profile": "yes", 
		 "theory": "DFT", 
		 "functional": "B3LYP", 
		 "basiset": "6-31G**", 
		 "properties": { 
			 "R2extent": 1960.1929, 
			 "electric_dipole_moment_norm": 4.92564426852, 
			 "electric_quadrupole_moment_norm": 7.12723716036, 
			 "total_energy": -567.333911244, 
			 "HOMO_LUMO_gap": 0.11707, 
			 "cosmo_polarized_energy": -12.35, 
			 "cosmo_cavitation_energy": 21.66, 
			 "cosmo_dispersion_energy": -16.57, 
			 "cosmo_repulsion_energy": 1.33, 
			 "cosmo_total_nonelectrostatic_energy": 6.41, 
			 "SMD_solvation_energy": 6.13 
		},
		"coords": [
			{
				"x": 3.4736580257,
				"y": -0.2886971325,
				"z": 1.0039103579,
				"element": "N" 
			},
			{
				"x": 2.3096109922,
				"y": 0.1789615252,
				"z": 0.3871395432,
				"element": "C" 
			},
			{
				"x": 1.4441181018,
				"y": -0.6756324834,
				"z": -0.2850258046,
				"element": "C" 
			},
			{
				"x": 0.3183117677,
				"y": -0.1657681973,
				"z": -0.9536035241,
				"element": "C" 
			},
			{
				"x": 0.0179824192,
				"y": 1.215519102,
				"z": -0.9652634505,
				"element": "C" 
			},
			{
				"x": -1.0408005661,
				"y": 1.7615308852,
				"z": -1.5792453162,
				"element": "O" 
			},
			{
				"x": 0.9039956414,
				"y": 2.0639406866,
				"z": -0.2762026754,
				"element": "C" 
			},
			{
				"x": 2.0151138537,
				"y": 1.5639726988,
				"z": 0.3758914746,
				"element": "C" 
			},
			{
				"x": -0.5424944646,
				"y": -1.1068413173,
				"z": -1.6314454327,
				"element": "N" 
			},
			{
				"x": -1.5523502794,
				"y": -0.6637093435,
				"z": -2.230630455,
				"element": "O" 
			},
			{
				"x": -0.2673206501,
				"y": -2.3023328091,
				"z": -1.6031692416,
				"element": "O" 
			},
			{
				"x": 3.797603828,
				"y": 0.2693991439,
				"z": 1.7820870716,
				"element": "H" 
			},
			{
				"x": 3.4683561277,
				"y": -1.2736396235,
				"z": 1.2314636605,
				"element": "H" 
			},
			{
				"x": 1.612829288,
				"y": -1.7452280528,
				"z": -0.3163510335,
				"element": "H" 
			},
			{
				"x": -1.5281635437,
				"y": 1.0120036892,
				"z": -1.9962439586,
				"element": "H" 
			},
			{
				"x": 0.6854462589,
				"y": 3.1262092654,
				"z": -0.2764713491,
				"element": "H" 
			},
			{
				"x": 2.6833031997,
				"y": 2.2508119632,
				"z": 0.8893601336,
				"element": "H" 
			}
		],
		 "valence_orbital": [ 
			{
				"type": "occ",
				"energy": -0.31278,
				"method": "rhf"
			},
			{
				"type": "occ",
				"energy": -0.30267,
				"method": "rhf"
			},
			{
				"type": "occ",
				"energy": -0.29804,
				"method": "rhf"
			},
			{
				"type": "occ",
				"energy": -0.27995,
				"method": "rhf"
			},
			{
				"type": "occ",
				"energy": -0.2107,
				"method": "rhf"
			},
			{
				"type": "unocc",
				"energy": -0.09363,
				"method": "rhf"
			},
			{
				"type": "unocc",
				"energy": -0.00799,
				"method": "rhf"
			},
			{
				"type": "unocc",
				"energy": 0.01306,
				"method": "rhf"
			},
			{
				"type": "unocc",
				"energy": 0.0667,
				"method": "rhf"
			},
			{
				"type": "unocc",
				"energy": 0.09007,
				"method": "rhf"
			}
		],
		"cosmo_sigma_profile": { 
			"-0.025": 0.0,
			"-0.024": 0.0,
			"-0.023": 0.0,
			"-0.022": 0.0,
			"-0.021": 0.0,
			"-0.02": 0.0,
			"-0.019": 0.0,
			"-0.018": 0.0,
			"-0.017": 0.0,
			"-0.016": 0.0,
			"-0.015": 0.0,
			"-0.014": 0.00506281158489,
			"-0.013": 1.60893939525,
			"-0.012": 3.20358082989,
			"-0.011": 3.47902530759,
			"-0.01": 3.45250723852,
			"-0.009": 4.04748398638,
			"-0.008": 4.59178216658,
			"-0.007": 7.1208916982,
			"-0.006": 8.53778474708,
			"-0.005": 9.17600156746,
			"-0.004": 8.35330090381,
			"-0.003": 7.4801626744,
			"-0.002": 8.23732559528,
			"-0.001": 7.63676318027,
			"0.0": 10.7190043062,
			"0.001": 12.5921269787,
			"0.002": 14.0530821133,
			"0.003": 11.3997544722,
			"0.004": 5.99558800606,
			"0.005": 4.84794208427,
			"0.006": 5.63781338699,
			"0.007": 7.95155571149,
			"0.008": 7.27065549937,
			"0.009": 7.06138426116,
			"0.01": 5.15722312683,
			"0.011": 1.44639788994,
			"0.012": 0.773603142081,
			"0.013": 0.688211525717,
			"0.014": 0.467862186729,
			"0.015": 0.0550400167447,
			"0.016": 0.0,
			"0.017": 0.0,
			"0.018": 0.0,
			"0.019": 0.0,
			"0.02": 0.0,
			"0.021": 0.0,
			"0.022": 0.0,
			"0.023": 0.0,
			"0.024": 0.0,
			"0.025": 0.0
		}
	}
}
