{
	 "smiles": "CC1=CCC(=O)O1", 
	 "Tm": 291.15, 
	 "num_atms": 13, 
	 "gaussian": { 
		 "optdone": 1, 
		 "sigma_profile": "yes", 
		 "theory": "DFT", 
		 "functional": "B3LYP", 
		 "basiset": "6-31G**", 
		 "properties": { 
			 "R2extent": 1155.1041, 
			 "electric_dipole_moment_norm": 3.91530203305, 
			 "electric_quadrupole_moment_norm": 10.9194362098, 
			 "total_energy": -344.587805585, 
			 "HOMO_LUMO_gap": 0.22981, 
			 "cosmo_polarized_energy": -8.32, 
			 "cosmo_cavitation_energy": 16.97, 
			 "cosmo_dispersion_energy": -12.84, 
			 "cosmo_repulsion_energy": 1.11, 
			 "cosmo_total_nonelectrostatic_energy": 5.24, 
			 "SMD_solvation_energy": 4.37 
		},
		"coords": [
			{
				"x": 0.4673155345,
				"y": 2.3806477522,
				"z": 1.481689071,
				"element": "C" 
			},
			{
				"x": -0.2621563424,
				"y": 1.4588141089,
				"z": 0.5721524802,
				"element": "C" 
			},
			{
				"x": -0.3239654298,
				"y": 0.1264210489,
				"z": 0.4895471345,
				"element": "C" 
			},
			{
				"x": -1.2359286111,
				"y": -0.2382814355,
				"z": -0.6438852639,
				"element": "C" 
			},
			{
				"x": -1.6650129943,
				"y": 1.1309708124,
				"z": -1.1706321924,
				"element": "C" 
			},
			{
				"x": -2.3972005669,
				"y": 1.4135327366,
				"z": -2.0779076782,
				"element": "O" 
			},
			{
				"x": -1.0444066997,
				"y": 2.0978452566,
				"z": -0.3958631997,
				"element": "O" 
			},
			{
				"x": -0.2335305,
				"y": 3.0273345489,
				"z": 2.0211766295,
				"element": "H" 
			},
			{
				"x": 1.1402939443,
				"y": 3.032710507,
				"z": 0.9139307152,
				"element": "H" 
			},
			{
				"x": 1.0542912375,
				"y": 1.8134976827,
				"z": 2.2072283256,
				"element": "H" 
			},
			{
				"x": 0.1973625626,
				"y": -0.568003144,
				"z": 1.133449783,
				"element": "H" 
			},
			{
				"x": -0.7552444741,
				"y": -0.8037291679,
				"z": -1.4518838355,
				"element": "H" 
			},
			{
				"x": -2.1253176608,
				"y": -0.8084607067,
				"z": -0.3480019693,
				"element": "H" 
			}
		],
		 "valence_orbital": [ 
			{
				"type": "occ",
				"energy": -0.38708,
				"method": "rhf"
			},
			{
				"type": "occ",
				"energy": -0.37703,
				"method": "rhf"
			},
			{
				"type": "occ",
				"energy": -0.34559,
				"method": "rhf"
			},
			{
				"type": "occ",
				"energy": -0.27417,
				"method": "rhf"
			},
			{
				"type": "occ",
				"energy": -0.23943,
				"method": "rhf"
			},
			{
				"type": "unocc",
				"energy": -0.00962,
				"method": "rhf"
			},
			{
				"type": "unocc",
				"energy": 0.0335,
				"method": "rhf"
			},
			{
				"type": "unocc",
				"energy": 0.09824,
				"method": "rhf"
			},
			{
				"type": "unocc",
				"energy": 0.10894,
				"method": "rhf"
			},
			{
				"type": "unocc",
				"energy": 0.12898,
				"method": "rhf"
			}
		],
		"cosmo_sigma_profile": { 
			"-0.025": 0.0,
			"-0.024": 0.0,
			"-0.023": 0.0,
			"-0.022": 0.0,
			"-0.021": 0.0,
			"-0.02": 0.0,
			"-0.019": 0.0,
			"-0.018": 0.0,
			"-0.017": 0.0,
			"-0.016": 0.0,
			"-0.015": 0.0,
			"-0.014": 0.0,
			"-0.013": 0.0,
			"-0.012": 0.0,
			"-0.011": 0.0,
			"-0.01": 0.0,
			"-0.009": 0.0,
			"-0.008": 1.19594962378,
			"-0.007": 5.9985942005,
			"-0.006": 8.84522914457,
			"-0.005": 13.9215207883,
			"-0.004": 13.1182113402,
			"-0.003": 12.8365153035,
			"-0.002": 12.286342364,
			"-0.001": 11.9969141626,
			"0.0": 7.7746657102,
			"0.001": 5.12921596248,
			"0.002": 5.41074268843,
			"0.003": 3.83931416974,
			"0.004": 4.32776831556,
			"0.005": 2.6692530247,
			"0.006": 2.16469685546,
			"0.007": 2.03222947511,
			"0.008": 3.79637881613,
			"0.009": 4.17078493652,
			"0.01": 3.77396677892,
			"0.011": 5.80769360754,
			"0.012": 3.57325359961,
			"0.013": 0.199917611074,
			"0.014": 0.0,
			"0.015": 0.0,
			"0.016": 0.0,
			"0.017": 0.0,
			"0.018": 0.0,
			"0.019": 0.0,
			"0.02": 0.0,
			"0.021": 0.0,
			"0.022": 0.0,
			"0.023": 0.0,
			"0.024": 0.0,
			"0.025": 0.0
		}
	}
}
