{
	 "smiles": "CC1=NC(=NN1)C(C)(C)O", 
	 "Tm": 459.15, 
	 "num_atms": 21, 
	 "gaussian": { 
		 "optdone": 1, 
		 "sigma_profile": "yes", 
		 "theory": "DFT", 
		 "functional": "B3LYP", 
		 "basiset": "6-31G**", 
		 "properties": { 
			 "R2extent": 1743.157, 
			 "electric_dipole_moment_norm": 5.00133330823, 
			 "electric_quadrupole_moment_norm": 8.12432393926, 
			 "total_energy": -474.748042092, 
			 "HOMO_LUMO_gap": 0.24235, 
			 "cosmo_polarized_energy": -13.65, 
			 "cosmo_cavitation_energy": 24.02, 
			 "cosmo_dispersion_energy": -17.65, 
			 "cosmo_repulsion_energy": 1.47, 
			 "cosmo_total_nonelectrostatic_energy": 7.84, 
			 "SMD_solvation_energy": 2.24 
		},
		"coords": [
			{
				"x": 2.8511837075,
				"y": 0.7162664846,
				"z": -1.2645476465,
				"element": "C" 
			},
			{
				"x": 1.6836357044,
				"y": 0.6636093248,
				"z": -0.3351836984,
				"element": "C" 
			},
			{
				"x": 0.4014360715,
				"y": 0.6902537835,
				"z": -0.6702539374,
				"element": "N" 
			},
			{
				"x": -0.2548634263,
				"y": 0.6185664385,
				"z": 0.5278594976,
				"element": "C" 
			},
			{
				"x": 0.5382371563,
				"y": 0.5489186569,
				"z": 1.5858733906,
				"element": "N" 
			},
			{
				"x": 1.7732993575,
				"y": 0.5791615709,
				"z": 1.0127200116,
				"element": "N" 
			},
			{
				"x": -1.7724715023,
				"y": 0.621668957,
				"z": 0.5876362919,
				"element": "C" 
			},
			{
				"x": -2.2785220976,
				"y": -0.6850296848,
				"z": 1.2224844478,
				"element": "C" 
			},
			{
				"x": -2.2671033169,
				"y": 1.8439666515,
				"z": 1.3800574098,
				"element": "C" 
			},
			{
				"x": -2.284447391,
				"y": 0.7066909796,
				"z": -0.739955708,
				"element": "O" 
			},
			{
				"x": 2.4810926967,
				"y": 0.7816099483,
				"z": -2.2881936223,
				"element": "H" 
			},
			{
				"x": 3.4839220889,
				"y": 1.5884712662,
				"z": -1.0677599132,
				"element": "H" 
			},
			{
				"x": 3.4760612783,
				"y": -0.1791717847,
				"z": -1.1777376371,
				"element": "H" 
			},
			{
				"x": 2.5967383096,
				"y": 0.5391422244,
				"z": 1.5951148329,
				"element": "H" 
			},
			{
				"x": -1.9418731452,
				"y": -1.5434137197,
				"z": 0.6341412129,
				"element": "H" 
			},
			{
				"x": -3.3725202263,
				"y": -0.6836208194,
				"z": 1.2313394265,
				"element": "H" 
			},
			{
				"x": -1.9119421854,
				"y": -0.7943683331,
				"z": 2.2473063788,
				"element": "H" 
			},
			{
				"x": -3.3610717642,
				"y": 1.8513978285,
				"z": 1.3891400869,
				"element": "H" 
			},
			{
				"x": -1.9222733045,
				"y": 2.7656845328,
				"z": 0.9027393114,
				"element": "H" 
			},
			{
				"x": -1.9002688894,
				"y": 1.8218538952,
				"z": 2.4103695107,
				"element": "H" 
			},
			{
				"x": -1.5191491214,
				"y": 0.7403417989,
				"z": -1.3360496467,
				"element": "H" 
			}
		],
		 "valence_orbital": [ 
			{
				"type": "occ",
				"energy": -0.31603,
				"method": "rhf"
			},
			{
				"type": "occ",
				"energy": -0.29924,
				"method": "rhf"
			},
			{
				"type": "occ",
				"energy": -0.28143,
				"method": "rhf"
			},
			{
				"type": "occ",
				"energy": -0.26322,
				"method": "rhf"
			},
			{
				"type": "occ",
				"energy": -0.24209,
				"method": "rhf"
			},
			{
				"type": "unocc",
				"energy": 0.00026,
				"method": "rhf"
			},
			{
				"type": "unocc",
				"energy": 0.05216,
				"method": "rhf"
			},
			{
				"type": "unocc",
				"energy": 0.0666,
				"method": "rhf"
			},
			{
				"type": "unocc",
				"energy": 0.1069,
				"method": "rhf"
			},
			{
				"type": "unocc",
				"energy": 0.11098,
				"method": "rhf"
			}
		],
		"cosmo_sigma_profile": { 
			"-0.025": 0.0,
			"-0.024": 0.0,
			"-0.023": 0.0,
			"-0.022": 0.0,
			"-0.021": 0.0,
			"-0.02": 0.0,
			"-0.019": 0.0,
			"-0.018": 0.114012877727,
			"-0.017": 1.45786454483,
			"-0.016": 1.56468942739,
			"-0.015": 1.10493001348,
			"-0.014": 1.04905558743,
			"-0.013": 0.914846904905,
			"-0.012": 1.2039801727,
			"-0.011": 1.12407231169,
			"-0.01": 0.747297780787,
			"-0.009": 1.08215860961,
			"-0.008": 1.99371176268,
			"-0.007": 2.67348346729,
			"-0.006": 7.35198425903,
			"-0.005": 6.84192312932,
			"-0.004": 10.3058902211,
			"-0.003": 16.7149436381,
			"-0.002": 19.7672709789,
			"-0.001": 17.7546531981,
			"0.0": 18.5882688691,
			"0.001": 19.5522887934,
			"0.002": 8.87299238912,
			"0.003": 5.93887812393,
			"0.004": 5.9351848758,
			"0.005": 5.30002285056,
			"0.006": 4.7618182063,
			"0.007": 2.92915423233,
			"0.008": 3.41879555974,
			"0.009": 4.81423237357,
			"0.01": 2.47491956298,
			"0.011": 2.66103798216,
			"0.012": 2.57221877659,
			"0.013": 2.46421786297,
			"0.014": 2.45417547457,
			"0.015": 1.53261720573,
			"0.016": 0.0,
			"0.017": 0.0,
			"0.018": 0.0,
			"0.019": 0.0,
			"0.02": 0.0,
			"0.021": 0.0,
			"0.022": 0.0,
			"0.023": 0.0,
			"0.024": 0.0,
			"0.025": 0.0
		}
	}
}
