{
	 "smiles": "CCN(CC)CCC#N", 
	 "Tm": 209.15, 
	 "num_atms": 23, 
	 "gaussian": { 
		 "optdone": 1, 
		 "sigma_profile": "yes", 
		 "theory": "DFT", 
		 "functional": "B3LYP", 
		 "basiset": "6-31G**", 
		 "properties": { 
			 "R2extent": 1618.013, 
			 "electric_dipole_moment_norm": 3.59089958088, 
			 "electric_quadrupole_moment_norm": 14.3428649345, 
			 "total_energy": -384.663612759, 
			 "HOMO_LUMO_gap": 0.24697, 
			 "cosmo_polarized_energy": -9.76, 
			 "cosmo_cavitation_energy": 25.06, 
			 "cosmo_dispersion_energy": -17.33, 
			 "cosmo_repulsion_energy": 1.44, 
			 "cosmo_total_nonelectrostatic_energy": 9.16, 
			 "SMD_solvation_energy": 3.72 
		},
		"coords": [
			{
				"x": -1.7966175537,
				"y": -0.3254299529,
				"z": 1.1128560913,
				"element": "C" 
			},
			{
				"x": -0.9839326777,
				"y": 0.7573583078,
				"z": 0.4020003472,
				"element": "C" 
			},
			{
				"x": 0.3863999464,
				"y": 0.3452559841,
				"z": 0.0667448233,
				"element": "N" 
			},
			{
				"x": 1.2427447949,
				"y": 1.4675017872,
				"z": -0.3297608182,
				"element": "C" 
			},
			{
				"x": 1.6851457953,
				"y": 2.3348367922,
				"z": 0.8524979732,
				"element": "C" 
			},
			{
				"x": 0.5109620367,
				"y": -0.814590537,
				"z": -0.7968498412,
				"element": "C" 
			},
			{
				"x": 0.0646242383,
				"y": -0.6763360032,
				"z": -2.2922561091,
				"element": "C" 
			},
			{
				"x": -1.3830272679,
				"y": -0.7010806963,
				"z": -2.506229465,
				"element": "C" 
			},
			{
				"x": -2.532246924,
				"y": -0.7470255426,
				"z": -2.6696639184,
				"element": "N" 
			},
			{
				"x": -2.0592542555,
				"y": -1.1539525595,
				"z": 0.4492310011,
				"element": "H" 
			},
			{
				"x": -1.2427870612,
				"y": -0.7227878875,
				"z": 1.9692668164,
				"element": "H" 
			},
			{
				"x": -2.7365838721,
				"y": 0.1005506831,
				"z": 1.4769451588,
				"element": "H" 
			},
			{
				"x": -1.5374979066,
				"y": 1.1136074748,
				"z": -0.484778689,
				"element": "H" 
			},
			{
				"x": -0.899489002,
				"y": 1.6173683687,
				"z": 1.0731727797,
				"element": "H" 
			},
			{
				"x": 0.7622160058,
				"y": 2.1083688437,
				"z": -1.0936584198,
				"element": "H" 
			},
			{
				"x": 2.1396913832,
				"y": 1.0481246191,
				"z": -0.8010046959,
				"element": "H" 
			},
			{
				"x": 0.8439100353,
				"y": 2.842976773,
				"z": 1.332802158,
				"element": "H" 
			},
			{
				"x": 2.3809960787,
				"y": 3.1085969979,
				"z": 0.5114212788,
				"element": "H" 
			},
			{
				"x": 2.186314487,
				"y": 1.7217160531,
				"z": 1.6070315893,
				"element": "H" 
			},
			{
				"x": -0.0264145554,
				"y": -1.6567512034,
				"z": -0.3526917509,
				"element": "H" 
			},
			{
				"x": 1.5696389768,
				"y": -1.0966815351,
				"z": -0.8216988244,
				"element": "H" 
			},
			{
				"x": 0.4946198579,
				"y": -1.5093307703,
				"z": -2.8615713105,
				"element": "H" 
			},
			{
				"x": 0.4703874396,
				"y": 0.2439040031,
				"z": -2.7270061745,
				"element": "H" 
			}
		],
		 "valence_orbital": [ 
			{
				"type": "occ",
				"energy": -0.34479,
				"method": "rhf"
			},
			{
				"type": "occ",
				"energy": -0.33624,
				"method": "rhf"
			},
			{
				"type": "occ",
				"energy": -0.32395,
				"method": "rhf"
			},
			{
				"type": "occ",
				"energy": -0.31716,
				"method": "rhf"
			},
			{
				"type": "occ",
				"energy": -0.21463,
				"method": "rhf"
			},
			{
				"type": "unocc",
				"energy": 0.03234,
				"method": "rhf"
			},
			{
				"type": "unocc",
				"energy": 0.04075,
				"method": "rhf"
			},
			{
				"type": "unocc",
				"energy": 0.0776,
				"method": "rhf"
			},
			{
				"type": "unocc",
				"energy": 0.09893,
				"method": "rhf"
			},
			{
				"type": "unocc",
				"energy": 0.1061,
				"method": "rhf"
			}
		],
		"cosmo_sigma_profile": { 
			"-0.025": 0.0,
			"-0.024": 0.0,
			"-0.023": 0.0,
			"-0.022": 0.0,
			"-0.021": 0.0,
			"-0.02": 0.0,
			"-0.019": 0.0,
			"-0.018": 0.0,
			"-0.017": 0.0,
			"-0.016": 0.0,
			"-0.015": 0.0,
			"-0.014": 0.0,
			"-0.013": 0.0,
			"-0.012": 0.0,
			"-0.011": 0.0,
			"-0.01": 0.0,
			"-0.009": 0.0,
			"-0.008": 2.00743348812,
			"-0.007": 5.18876878218,
			"-0.006": 6.58963305292,
			"-0.005": 15.5239493998,
			"-0.004": 15.3160825475,
			"-0.003": 17.263959302,
			"-0.002": 21.857353527,
			"-0.001": 24.63794157,
			"0.0": 21.5334537888,
			"0.001": 17.4378042423,
			"0.002": 9.01890183453,
			"0.003": 3.53203757617,
			"0.004": 4.32676105977,
			"0.005": 3.25682877191,
			"0.006": 3.44465500441,
			"0.007": 2.89989064086,
			"0.008": 3.41955482888,
			"0.009": 4.05180663779,
			"0.01": 3.30030060711,
			"0.011": 3.27574204503,
			"0.012": 2.92577817259,
			"0.013": 3.27604407974,
			"0.014": 1.29829118173,
			"0.015": 0.0453384469201,
			"0.016": 0.0,
			"0.017": 0.0,
			"0.018": 0.0,
			"0.019": 0.0,
			"0.02": 0.0,
			"0.021": 0.0,
			"0.022": 0.0,
			"0.023": 0.0,
			"0.024": 0.0,
			"0.025": 0.0
		}
	}
}
