{
	 "smiles": "CC1=C(C)C2=C(N1)C(=CC=C2)C(O)=O", 
	 "Tm": 480.15, 
	 "num_atms": 25, 
	 "gaussian": { 
		 "optdone": 1, 
		 "sigma_profile": "yes", 
		 "theory": "DFT", 
		 "functional": "B3LYP", 
		 "basiset": "6-31G**", 
		 "properties": { 
			 "R2extent": 3039.4054, 
			 "electric_dipole_moment_norm": 2.95307733221, 
			 "electric_quadrupole_moment_norm": 18.1928603818, 
			 "total_energy": -631.038480677, 
			 "HOMO_LUMO_gap": 0.15695, 
			 "cosmo_polarized_energy": -12.76, 
			 "cosmo_cavitation_energy": 28.28, 
			 "cosmo_dispersion_energy": -21.03, 
			 "cosmo_repulsion_energy": 1.64, 
			 "cosmo_total_nonelectrostatic_energy": 8.9, 
			 "SMD_solvation_energy": 5.56 
		},
		"coords": [
			{
				"x": 3.3328827758,
				"y": -0.3061809821,
				"z": 0.4450289531,
				"element": "C" 
			},
			{
				"x": 1.9390667293,
				"y": 0.2240836072,
				"z": 0.541793583,
				"element": "C" 
			},
			{
				"x": 1.4680619446,
				"y": 1.5164635572,
				"z": 0.639907548,
				"element": "C" 
			},
			{
				"x": 2.2606057024,
				"y": 2.7887114893,
				"z": 0.6717065274,
				"element": "C" 
			},
			{
				"x": 0.0304846489,
				"y": 1.4245451197,
				"z": 0.7101059717,
				"element": "C" 
			},
			{
				"x": -0.3045774826,
				"y": 0.0417108401,
				"z": 0.6455194416,
				"element": "C" 
			},
			{
				"x": 0.8635935784,
				"y": -0.6565594375,
				"z": 0.5410523692,
				"element": "N" 
			},
			{
				"x": -1.6340559991,
				"y": -0.4202615608,
				"z": 0.6815512912,
				"element": "C" 
			},
			{
				"x": -2.6336948133,
				"y": 0.5552061467,
				"z": 0.8144984912,
				"element": "C" 
			},
			{
				"x": -2.324623923,
				"y": 1.9206248719,
				"z": 0.8844910784,
				"element": "C" 
			},
			{
				"x": -1.0023322594,
				"y": 2.3627712889,
				"z": 0.8275961337,
				"element": "C" 
			},
			{
				"x": -1.8766949784,
				"y": -1.8804606737,
				"z": 0.5857889998,
				"element": "C" 
			},
			{
				"x": -3.1564297069,
				"y": -2.3089923712,
				"z": 0.4541522545,
				"element": "O" 
			},
			{
				"x": -0.9804903403,
				"y": -2.7061598639,
				"z": 0.6123390431,
				"element": "O" 
			},
			{
				"x": 4.0609864536,
				"y": 0.5066874067,
				"z": 0.4641705059,
				"element": "H" 
			},
			{
				"x": 3.4840185059,
				"y": -0.8698332068,
				"z": -0.4837342836,
				"element": "H" 
			},
			{
				"x": 3.5632682814,
				"y": -0.9816370192,
				"z": 1.2780431157,
				"element": "H" 
			},
			{
				"x": 1.9999298562,
				"y": 3.4484287223,
				"z": -0.1652895666,
				"element": "H" 
			},
			{
				"x": 2.0786271216,
				"y": 3.3543670102,
				"z": 1.5939684184,
				"element": "H" 
			},
			{
				"x": 3.3358336436,
				"y": 2.5995027995,
				"z": 0.6134544881,
				"element": "H" 
			},
			{
				"x": 0.8784751585,
				"y": -1.6672441304,
				"z": 0.5193012583,
				"element": "H" 
			},
			{
				"x": -3.6799663985,
				"y": 0.2671329858,
				"z": 0.8951956492,
				"element": "H" 
			},
			{
				"x": -3.1297534177,
				"y": 2.6409812898,
				"z": 0.9898347696,
				"element": "H" 
			},
			{
				"x": -0.780711063,
				"y": 3.4251362285,
				"z": 0.8813796721,
				"element": "H" 
			},
			{
				"x": -3.7519040182,
				"y": -1.556324118,
				"z": 0.3367442872,
				"element": "H" 
			}
		],
		 "valence_orbital": [ 
			{
				"type": "occ",
				"energy": -0.31453,
				"method": "rhf"
			},
			{
				"type": "occ",
				"energy": -0.27791,
				"method": "rhf"
			},
			{
				"type": "occ",
				"energy": -0.27262,
				"method": "rhf"
			},
			{
				"type": "occ",
				"energy": -0.22589,
				"method": "rhf"
			},
			{
				"type": "occ",
				"energy": -0.20535,
				"method": "rhf"
			},
			{
				"type": "unocc",
				"energy": -0.0484,
				"method": "rhf"
			},
			{
				"type": "unocc",
				"energy": 0.0155,
				"method": "rhf"
			},
			{
				"type": "unocc",
				"energy": 0.03627,
				"method": "rhf"
			},
			{
				"type": "unocc",
				"energy": 0.05838,
				"method": "rhf"
			},
			{
				"type": "unocc",
				"energy": 0.08581,
				"method": "rhf"
			}
		],
		"cosmo_sigma_profile": { 
			"-0.025": 0.0,
			"-0.024": 0.0,
			"-0.023": 0.0,
			"-0.022": 0.0,
			"-0.021": 0.0,
			"-0.02": 0.0,
			"-0.019": 0.135588553566,
			"-0.018": 0.753102289212,
			"-0.017": 1.23211883881,
			"-0.016": 0.602486493533,
			"-0.015": 0.994787106194,
			"-0.014": 0.995023972866,
			"-0.013": 0.736758105153,
			"-0.012": 1.36914454989,
			"-0.011": 1.87898993469,
			"-0.01": 1.76219116428,
			"-0.009": 2.0957777855,
			"-0.008": 2.35406177843,
			"-0.007": 1.79489501073,
			"-0.006": 4.99520792853,
			"-0.005": 13.4425651959,
			"-0.004": 16.5073211905,
			"-0.003": 18.3001749554,
			"-0.002": 18.7663206896,
			"-0.001": 20.5207096615,
			"0.0": 18.8523011566,
			"0.001": 15.1597055712,
			"0.002": 12.3561403787,
			"0.003": 12.5096302982,
			"0.004": 14.966869279,
			"0.005": 15.8222191049,
			"0.006": 5.1918215547,
			"0.007": 2.44409326461,
			"0.008": 2.59426175056,
			"0.009": 2.88478986805,
			"0.01": 3.83807465369,
			"0.011": 4.41842909639,
			"0.012": 2.5961164947,
			"0.013": 2.02378104068,
			"0.014": 0.364222136767,
			"0.015": 0.0,
			"0.016": 0.0,
			"0.017": 0.0,
			"0.018": 0.0,
			"0.019": 0.0,
			"0.02": 0.0,
			"0.021": 0.0,
			"0.022": 0.0,
			"0.023": 0.0,
			"0.024": 0.0,
			"0.025": 0.0
		}
	}
}
