{
	 "smiles": "COC1=CC2=C(OCCC2=O)C=C1", 
	 "Tm": 318.15, 
	 "num_atms": 23, 
	 "gaussian": { 
		 "optdone": 1, 
		 "sigma_profile": "yes", 
		 "theory": "DFT", 
		 "functional": "B3LYP", 
		 "basiset": "6-31G**", 
		 "properties": { 
			 "R2extent": 2654.8908, 
			 "electric_dipole_moment_norm": 3.20196653324, 
			 "electric_quadrupole_moment_norm": 15.8383187511, 
			 "total_energy": -612.744693781, 
			 "HOMO_LUMO_gap": 0.15421, 
			 "cosmo_polarized_energy": -11.17, 
			 "cosmo_cavitation_energy": 26.38, 
			 "cosmo_dispersion_energy": -19.92, 
			 "cosmo_repulsion_energy": 1.57, 
			 "cosmo_total_nonelectrostatic_energy": 8.03, 
			 "SMD_solvation_energy": 5.82 
		},
		"coords": [
			{
				"x": -1.5863436148,
				"y": -2.9578613947,
				"z": -2.3570570242,
				"element": "C" 
			},
			{
				"x": -0.4272929879,
				"y": -2.1830028296,
				"z": -2.1031715682,
				"element": "O" 
			},
			{
				"x": -0.4620272607,
				"y": -1.284257742,
				"z": -1.073256631,
				"element": "C" 
			},
			{
				"x": 0.7011947858,
				"y": -0.5478927486,
				"z": -0.858050951,
				"element": "C" 
			},
			{
				"x": 0.7709812406,
				"y": 0.3967966703,
				"z": 0.1725120021,
				"element": "C" 
			},
			{
				"x": -0.3551882049,
				"y": 0.6183831336,
				"z": 0.9940048217,
				"element": "C" 
			},
			{
				"x": -0.3600530487,
				"y": 1.5294969876,
				"z": 2.0130020557,
				"element": "O" 
			},
			{
				"x": 0.6177746844,
				"y": 2.571391195,
				"z": 1.8986995733,
				"element": "C" 
			},
			{
				"x": 2.0159976194,
				"y": 2.0070703534,
				"z": 1.6736700108,
				"element": "C" 
			},
			{
				"x": 2.0432443114,
				"y": 1.1129557997,
				"z": 0.4393859691,
				"element": "C" 
			},
			{
				"x": 3.0455393638,
				"y": 0.9734432103,
				"z": -0.2434849837,
				"element": "O" 
			},
			{
				"x": -1.5174621463,
				"y": -0.1250080272,
				"z": 0.7832746046,
				"element": "C" 
			},
			{
				"x": -1.5726845429,
				"y": -1.0720026775,
				"z": -0.2377824935,
				"element": "C" 
			},
			{
				"x": -2.4483919927,
				"y": -2.3293418618,
				"z": -2.6178861433,
				"element": "H" 
			},
			{
				"x": -1.3416666923,
				"y": -3.5970580971,
				"z": -3.2067980744,
				"element": "H" 
			},
			{
				"x": -1.8514092568,
				"y": -3.5891748266,
				"z": -1.4983239483,
				"element": "H" 
			},
			{
				"x": 1.5741839845,
				"y": -0.7101718625,
				"z": -1.4807619284,
				"element": "H" 
			},
			{
				"x": 0.5516954619,
				"y": 3.1401423614,
				"z": 2.8286071992,
				"element": "H" 
			},
			{
				"x": 0.3350940699,
				"y": 3.232265117,
				"z": 1.0658459806,
				"element": "H" 
			},
			{
				"x": 2.7575276604,
				"y": 2.8025930707,
				"z": 1.5592421972,
				"element": "H" 
			},
			{
				"x": 2.3121478798,
				"y": 1.3970469841,
				"z": 2.538195349,
				"element": "H" 
			},
			{
				"x": -2.3760991782,
				"y": 0.0535798414,
				"z": 1.4218991993,
				"element": "H" 
			},
			{
				"x": -2.488662136,
				"y": -1.6333926571,
				"z": -0.3802652162,
				"element": "H" 
			}
		],
		 "valence_orbital": [ 
			{
				"type": "occ",
				"energy": -0.32473,
				"method": "rhf"
			},
			{
				"type": "occ",
				"energy": -0.29312,
				"method": "rhf"
			},
			{
				"type": "occ",
				"energy": -0.25996,
				"method": "rhf"
			},
			{
				"type": "occ",
				"energy": -0.24526,
				"method": "rhf"
			},
			{
				"type": "occ",
				"energy": -0.20933,
				"method": "rhf"
			},
			{
				"type": "unocc",
				"energy": -0.05512,
				"method": "rhf"
			},
			{
				"type": "unocc",
				"energy": 0.00742,
				"method": "rhf"
			},
			{
				"type": "unocc",
				"energy": 0.04588,
				"method": "rhf"
			},
			{
				"type": "unocc",
				"energy": 0.08932,
				"method": "rhf"
			},
			{
				"type": "unocc",
				"energy": 0.10324,
				"method": "rhf"
			}
		],
		"cosmo_sigma_profile": { 
			"-0.025": 0.0,
			"-0.024": 0.0,
			"-0.023": 0.0,
			"-0.022": 0.0,
			"-0.021": 0.0,
			"-0.02": 0.0,
			"-0.019": 0.0,
			"-0.018": 0.0,
			"-0.017": 0.0,
			"-0.016": 0.0,
			"-0.015": 0.0,
			"-0.014": 0.0,
			"-0.013": 0.0,
			"-0.012": 0.0,
			"-0.011": 0.0,
			"-0.01": 0.0,
			"-0.009": 0.0,
			"-0.008": 0.183240155217,
			"-0.007": 5.41329897704,
			"-0.006": 19.6286308021,
			"-0.005": 25.8060377333,
			"-0.004": 19.354800785,
			"-0.003": 19.7768116541,
			"-0.002": 11.7787446825,
			"-0.001": 8.44978870637,
			"0.0": 9.36612232259,
			"0.001": 9.59839937485,
			"0.002": 15.0928204783,
			"0.003": 19.0195220352,
			"0.004": 9.09076334627,
			"0.005": 5.4438220386,
			"0.006": 4.10490051369,
			"0.007": 3.72340928721,
			"0.008": 4.65905360112,
			"0.009": 4.10630328218,
			"0.01": 5.11361147993,
			"0.011": 3.66333216501,
			"0.012": 4.52861139037,
			"0.013": 1.55998927033,
			"0.014": 0.181222757756,
			"0.015": 0.0,
			"0.016": 0.0,
			"0.017": 0.0,
			"0.018": 0.0,
			"0.019": 0.0,
			"0.02": 0.0,
			"0.021": 0.0,
			"0.022": 0.0,
			"0.023": 0.0,
			"0.024": 0.0,
			"0.025": 0.0
		}
	}
}
