{
	 "smiles": "COC1=CN=C(OC)N2N=C(NS(=O)(=O)C3=C(OCC(F)F)C=CC=C3C(F)(F)F)N=C12", 
	 "Tm": 485.15, 
	 "num_atms": 46, 
	 "gaussian": { 
		 "optdone": 1, 
		 "sigma_profile": "yes", 
		 "theory": "DFT", 
		 "functional": "B3LYP", 
		 "basiset": "6-31G**", 
		 "properties": { 
			 "R2extent": 16218.6505, 
			 "electric_dipole_moment_norm": 6.84329136089, 
			 "electric_quadrupole_moment_norm": 21.2005637791, 
			 "total_energy": -2165.26423238, 
			 "HOMO_LUMO_gap": 0.15967, 
			 "cosmo_polarized_energy": -24.67, 
			 "cosmo_cavitation_energy": 53.31, 
			 "cosmo_dispersion_energy": -35.75, 
			 "cosmo_repulsion_energy": 2.55, 
			 "cosmo_total_nonelectrostatic_energy": 20.11, 
			 "SMD_solvation_energy": 9.47 
		},
		"coords": [
			{
				"x": -2.7383988636,
				"y": -1.1028506005,
				"z": -1.8752947203,
				"element": "C" 
			},
			{
				"x": -1.592444069,
				"y": -1.6237574632,
				"z": -2.57295932,
				"element": "O" 
			},
			{
				"x": -0.500443665,
				"y": -1.9625874369,
				"z": -1.845331335,
				"element": "C" 
			},
			{
				"x": 0.2583316233,
				"y": -3.0485753179,
				"z": -2.2319335015,
				"element": "C" 
			},
			{
				"x": 1.4143748428,
				"y": -3.4383602981,
				"z": -1.6232809173,
				"element": "N" 
			},
			{
				"x": 1.8405578652,
				"y": -2.7680074328,
				"z": -0.5925231585,
				"element": "C" 
			},
			{
				"x": 2.9486935607,
				"y": -3.0580308349,
				"z": 0.0868855793,
				"element": "O" 
			},
			{
				"x": 3.6876062744,
				"y": -4.2004340783,
				"z": -0.3742988426,
				"element": "C" 
			},
			{
				"x": 1.1507196315,
				"y": -1.6805344109,
				"z": -0.1240338363,
				"element": "N" 
			},
			{
				"x": 1.4829386479,
				"y": -0.8746918721,
				"z": 0.9289613337,
				"element": "N" 
			},
			{
				"x": 0.4798641674,
				"y": 0.0034734646,
				"z": 0.89875249,
				"element": "C" 
			},
			{
				"x": 0.4378289308,
				"y": 1.0083102624,
				"z": 1.8591475228,
				"element": "N" 
			},
			{
				"x": -0.5520865884,
				"y": 2.3810938062,
				"z": 1.7835674137,
				"element": "S" 
			},
			{
				"x": -0.0796423506,
				"y": 3.2109946952,
				"z": 2.8920142366,
				"element": "O" 
			},
			{
				"x": -1.9270148686,
				"y": 1.9279099167,
				"z": 1.7106519265,
				"element": "O" 
			},
			{
				"x": -0.0787142195,
				"y": 3.2046922239,
				"z": 0.2260712504,
				"element": "C" 
			},
			{
				"x": 1.291709071,
				"y": 3.4953973329,
				"z": 0.0728603823,
				"element": "C" 
			},
			{
				"x": 2.1535864729,
				"y": 3.0859185009,
				"z": 1.0615464423,
				"element": "O" 
			},
			{
				"x": 3.1238534363,
				"y": 4.0034549065,
				"z": 1.567383442,
				"element": "C" 
			},
			{
				"x": 2.4976238468,
				"y": 5.0750388359,
				"z": 2.4486971679,
				"element": "C" 
			},
			{
				"x": 3.5244904373,
				"y": 5.7949594543,
				"z": 2.9970508897,
				"element": "F" 
			},
			{
				"x": 1.7539901029,
				"y": 5.9195274619,
				"z": 1.673365697,
				"element": "F" 
			},
			{
				"x": 1.7691777388,
				"y": 4.0993262404,
				"z": -1.0924167258,
				"element": "C" 
			},
			{
				"x": 0.8786014455,
				"y": 4.4550206965,
				"z": -2.0936160547,
				"element": "C" 
			},
			{
				"x": -0.4852159098,
				"y": 4.2179508946,
				"z": -1.936148751,
				"element": "C" 
			},
			{
				"x": -0.9821590578,
				"y": 3.5976818857,
				"z": -0.7871764179,
				"element": "C" 
			},
			{
				"x": -2.4993539311,
				"y": 3.4568001467,
				"z": -0.7030540837,
				"element": "C" 
			},
			{
				"x": -2.9886569453,
				"y": 4.0283645429,
				"z": 0.4095662679,
				"element": "F" 
			},
			{
				"x": -3.0905048092,
				"y": 4.0890213818,
				"z": -1.7483735405,
				"element": "F" 
			},
			{
				"x": -2.9137298186,
				"y": 2.1804717913,
				"z": -0.7572873859,
				"element": "F" 
			},
			{
				"x": -0.4503947829,
				"y": -0.1462092658,
				"z": -0.072409969,
				"element": "N" 
			},
			{
				"x": -0.0196736671,
				"y": -1.2286819583,
				"z": -0.7227639514,
				"element": "C" 
			},
			{
				"x": -3.0761460541,
				"y": -1.8086332563,
				"z": -1.1076786679,
				"element": "H" 
			},
			{
				"x": -3.5127285508,
				"y": -0.997061165,
				"z": -2.6363159624,
				"element": "H" 
			},
			{
				"x": -2.5235696404,
				"y": -0.1383369099,
				"z": -1.4145595982,
				"element": "H" 
			},
			{
				"x": -0.0650008577,
				"y": -3.6377251003,
				"z": -3.0843384873,
				"element": "H" 
			},
			{
				"x": 3.0748053377,
				"y": -5.1035538108,
				"z": -0.3196555607,
				"element": "H" 
			},
			{
				"x": 4.0168294449,
				"y": -4.0560993336,
				"z": -1.4063047509,
				"element": "H" 
			},
			{
				"x": 4.542629407,
				"y": -4.2738270604,
				"z": 0.29697289,
				"element": "H" 
			},
			{
				"x": 1.3317033491,
				"y": 1.2097587324,
				"z": 2.2916445178,
				"element": "H" 
			},
			{
				"x": 3.6890655518,
				"y": 4.4967239474,
				"z": 0.7695829285,
				"element": "H" 
			},
			{
				"x": 3.8131882247,
				"y": 3.4026091643,
				"z": 2.1635041125,
				"element": "H" 
			},
			{
				"x": 1.8582115369,
				"y": 4.6744894436,
				"z": 3.2385601883,
				"element": "H" 
			},
			{
				"x": 2.8317919371,
				"y": 4.2804464853,
				"z": -1.2076318556,
				"element": "H" 
			},
			{
				"x": 1.2432825326,
				"y": 4.9243053412,
				"z": -3.0016945814,
				"element": "H" 
			},
			{
				"x": -1.1782767675,
				"y": 4.5224160504,
				"z": -2.7082047036,
				"element": "H" 
			}
		],
		 "valence_orbital": [ 
			{
				"type": "occ",
				"energy": -0.28914,
				"method": "rhf"
			},
			{
				"type": "occ",
				"energy": -0.28762,
				"method": "rhf"
			},
			{
				"type": "occ",
				"energy": -0.26584,
				"method": "rhf"
			},
			{
				"type": "occ",
				"energy": -0.25208,
				"method": "rhf"
			},
			{
				"type": "occ",
				"energy": -0.22103,
				"method": "rhf"
			},
			{
				"type": "unocc",
				"energy": -0.06136,
				"method": "rhf"
			},
			{
				"type": "unocc",
				"energy": -0.03728,
				"method": "rhf"
			},
			{
				"type": "unocc",
				"energy": -0.03521,
				"method": "rhf"
			},
			{
				"type": "unocc",
				"energy": -0.01784,
				"method": "rhf"
			},
			{
				"type": "unocc",
				"energy": 0.02955,
				"method": "rhf"
			}
		],
		"cosmo_sigma_profile": { 
			"-0.025": 0.0,
			"-0.024": 0.0,
			"-0.023": 0.0,
			"-0.022": 0.0,
			"-0.021": 0.0,
			"-0.02": 0.0,
			"-0.019": 0.0,
			"-0.018": 0.0,
			"-0.017": 0.0,
			"-0.016": 0.0,
			"-0.015": 0.247105252949,
			"-0.014": 1.03448022564,
			"-0.013": 0.182363645408,
			"-0.012": 0.263402611779,
			"-0.011": 0.895029286518,
			"-0.01": 2.84458693414,
			"-0.009": 4.98688413123,
			"-0.008": 12.4506302582,
			"-0.007": 17.9574708309,
			"-0.006": 23.9271610905,
			"-0.005": 26.1546553411,
			"-0.004": 28.8509917371,
			"-0.003": 29.16266575,
			"-0.002": 24.5708805977,
			"-0.001": 26.6610363626,
			"0.0": 30.0278758188,
			"0.001": 31.05393037,
			"0.002": 34.4311512731,
			"0.003": 29.5177342694,
			"0.004": 28.3200800833,
			"0.005": 16.4238004077,
			"0.006": 10.5392968915,
			"0.007": 8.48815395937,
			"0.008": 7.9572048811,
			"0.009": 10.1137435081,
			"0.01": 11.5969814014,
			"0.011": 4.29025145935,
			"0.012": 2.78619591635,
			"0.013": 1.78020595574,
			"0.014": 0.496256229851,
			"0.015": 0.0,
			"0.016": 0.0,
			"0.017": 0.0,
			"0.018": 0.0,
			"0.019": 0.0,
			"0.02": 0.0,
			"0.021": 0.0,
			"0.022": 0.0,
			"0.023": 0.0,
			"0.024": 0.0,
			"0.025": 0.0
		}
	}
}
