{
	 "smiles": "CC1=CC=C2C=CNC2=C1", 
	 "Tm": 304.15, 
	 "num_atms": 19, 
	 "gaussian": { 
		 "optdone": 1, 
		 "sigma_profile": "yes", 
		 "theory": "DFT", 
		 "functional": "B3LYP", 
		 "basiset": "6-31G**", 
		 "properties": { 
			 "R2extent": 1549.2302, 
			 "electric_dipole_moment_norm": 1.99310192915, 
			 "electric_quadrupole_moment_norm": 10.3006249529, 
			 "total_energy": -403.141688015, 
			 "HOMO_LUMO_gap": 0.19528, 
			 "cosmo_polarized_energy": -8.05, 
			 "cosmo_cavitation_energy": 22.19, 
			 "cosmo_dispersion_energy": -16.79, 
			 "cosmo_repulsion_energy": 1.35, 
			 "cosmo_total_nonelectrostatic_energy": 6.75, 
			 "SMD_solvation_energy": 3.83 
		},
		"coords": [
			{
				"x": 1.5971031746,
				"y": 2.8365989502,
				"z": -0.3626234287,
				"element": "C" 
			},
			{
				"x": 1.1355488453,
				"y": 1.4747911513,
				"z": 0.1036813002,
				"element": "C" 
			},
			{
				"x": 2.0897053796,
				"y": 0.4573123394,
				"z": 0.3570043838,
				"element": "C" 
			},
			{
				"x": 1.7208403961,
				"y": -0.8084578747,
				"z": 0.7861266679,
				"element": "C" 
			},
			{
				"x": 0.3577315946,
				"y": -1.0991096286,
				"z": 0.9782547831,
				"element": "C" 
			},
			{
				"x": -0.3810040619,
				"y": -2.257504606,
				"z": 1.4003376838,
				"element": "C" 
			},
			{
				"x": -1.7074117509,
				"y": -1.9150198617,
				"z": 1.388828486,
				"element": "C" 
			},
			{
				"x": -1.8407594407,
				"y": -0.5986419577,
				"z": 0.9815807239,
				"element": "N" 
			},
			{
				"x": -0.5912056334,
				"y": -0.0726819473,
				"z": 0.7218880485,
				"element": "C" 
			},
			{
				"x": -0.2180307756,
				"y": 1.2054403596,
				"z": 0.2885599561,
				"element": "C" 
			},
			{
				"x": 2.1461462869,
				"y": 2.7713298993,
				"z": -1.3096378727,
				"element": "H" 
			},
			{
				"x": 2.2720919562,
				"y": 3.3020627288,
				"z": 0.3656244857,
				"element": "H" 
			},
			{
				"x": 0.7533357309,
				"y": 3.5160302535,
				"z": -0.5142754328,
				"element": "H" 
			},
			{
				"x": 3.1427874755,
				"y": 0.6835388875,
				"z": 0.2078891843,
				"element": "H" 
			},
			{
				"x": 2.4762813833,
				"y": -1.5672950196,
				"z": 0.9718093081,
				"element": "H" 
			},
			{
				"x": 0.0227310984,
				"y": -3.2210535945,
				"z": 1.6771133276,
				"element": "H" 
			},
			{
				"x": -2.5800955212,
				"y": -2.5012045336,
				"z": 1.6392042627,
				"element": "H" 
			},
			{
				"x": -2.7128454303,
				"y": -0.1056403006,
				"z": 0.8840427184,
				"element": "H" 
			},
			{
				"x": -0.9645507073,
				"y": 1.9732047545,
				"z": 0.0993914142,
				"element": "H" 
			}
		],
		 "valence_orbital": [ 
			{
				"type": "occ",
				"energy": -0.3247,
				"method": "rhf"
			},
			{
				"type": "occ",
				"energy": -0.31547,
				"method": "rhf"
			},
			{
				"type": "occ",
				"energy": -0.26656,
				"method": "rhf"
			},
			{
				"type": "occ",
				"energy": -0.21102,
				"method": "rhf"
			},
			{
				"type": "occ",
				"energy": -0.19479,
				"method": "rhf"
			},
			{
				"type": "unocc",
				"energy": 0.00049,
				"method": "rhf"
			},
			{
				"type": "unocc",
				"energy": 0.03207,
				"method": "rhf"
			},
			{
				"type": "unocc",
				"energy": 0.07743,
				"method": "rhf"
			},
			{
				"type": "unocc",
				"energy": 0.08346,
				"method": "rhf"
			},
			{
				"type": "unocc",
				"energy": 0.11148,
				"method": "rhf"
			}
		],
		"cosmo_sigma_profile": { 
			"-0.025": 0.0,
			"-0.024": 0.0,
			"-0.023": 0.0,
			"-0.022": 0.0,
			"-0.021": 0.0,
			"-0.02": 0.0,
			"-0.019": 0.0,
			"-0.018": 0.0,
			"-0.017": 0.0,
			"-0.016": 0.136017345477,
			"-0.015": 1.27530771189,
			"-0.014": 1.76146046613,
			"-0.013": 1.21432582551,
			"-0.012": 0.957272382727,
			"-0.011": 0.907367788138,
			"-0.01": 1.53022734098,
			"-0.009": 1.41126204675,
			"-0.008": 2.09065220291,
			"-0.007": 3.57389450521,
			"-0.006": 3.66728788235,
			"-0.005": 8.05965033883,
			"-0.004": 10.8994110705,
			"-0.003": 15.4464071849,
			"-0.002": 15.3325467592,
			"-0.001": 13.8758460434,
			"0.0": 14.305169737,
			"0.001": 12.8496494628,
			"0.002": 9.11678838396,
			"0.003": 7.5527391816,
			"0.004": 9.24859011732,
			"0.005": 11.4850004934,
			"0.006": 13.1276937245,
			"0.007": 13.4143856669,
			"0.008": 3.50476395752,
			"0.009": 0.0,
			"0.01": 0.0,
			"0.011": 0.0,
			"0.012": 0.0,
			"0.013": 0.0,
			"0.014": 0.0,
			"0.015": 0.0,
			"0.016": 0.0,
			"0.017": 0.0,
			"0.018": 0.0,
			"0.019": 0.0,
			"0.02": 0.0,
			"0.021": 0.0,
			"0.022": 0.0,
			"0.023": 0.0,
			"0.024": 0.0,
			"0.025": 0.0
		}
	}
}
