{
	 "smiles": "CC1=CC=C(CC=O)C=C1", 
	 "Tm": 313.15, 
	 "num_atms": 20, 
	 "gaussian": { 
		 "optdone": 1, 
		 "sigma_profile": "yes", 
		 "theory": "DFT", 
		 "functional": "B3LYP", 
		 "basiset": "6-31G**", 
		 "properties": { 
			 "R2extent": 2322.4757, 
			 "electric_dipole_moment_norm": 3.01197056095, 
			 "electric_quadrupole_moment_norm": 6.45398944917, 
			 "total_energy": -424.203696001, 
			 "HOMO_LUMO_gap": 0.20622, 
			 "cosmo_polarized_energy": -7.45, 
			 "cosmo_cavitation_energy": 24.01, 
			 "cosmo_dispersion_energy": -17.14, 
			 "cosmo_repulsion_energy": 1.41, 
			 "cosmo_total_nonelectrostatic_energy": 8.28, 
			 "SMD_solvation_energy": 5.16 
		},
		"coords": [
			{
				"x": 2.2985094108,
				"y": -3.1231898902,
				"z": 1.946039729,
				"element": "C" 
			},
			{
				"x": 1.3992335182,
				"y": -1.9151891936,
				"z": 1.8286061488,
				"element": "C" 
			},
			{
				"x": 1.730706774,
				"y": -0.7016638945,
				"z": 2.4423411292,
				"element": "C" 
			},
			{
				"x": 0.8838045489,
				"y": 0.4045308928,
				"z": 2.3578497094,
				"element": "C" 
			},
			{
				"x": -0.3241878049,
				"y": 0.331177775,
				"z": 1.6561997846,
				"element": "C" 
			},
			{
				"x": -1.2368405158,
				"y": 1.5345032017,
				"z": 1.5191741257,
				"element": "C" 
			},
			{
				"x": -1.1020636279,
				"y": 2.1648932091,
				"z": 0.1408510003,
				"element": "C" 
			},
			{
				"x": -2.0197345091,
				"y": 2.3265901759,
				"z": -0.6313625397,
				"element": "O" 
			},
			{
				"x": -0.6554668847,
				"y": -0.8801281145,
				"z": 1.0319925307,
				"element": "C" 
			},
			{
				"x": 0.1910581418,
				"y": -1.9826538771,
				"z": 1.1195342122,
				"element": "C" 
			},
			{
				"x": 2.3123448238,
				"y": -3.7037251459,
				"z": 1.0181666931,
				"element": "H" 
			},
			{
				"x": 1.9572828166,
				"y": -3.7959539103,
				"z": 2.7428721847,
				"element": "H" 
			},
			{
				"x": 3.3273730762,
				"y": -2.8352400255,
				"z": 2.1805978018,
				"element": "H" 
			},
			{
				"x": 2.6629101859,
				"y": -0.6196089953,
				"z": 2.9959968348,
				"element": "H" 
			},
			{
				"x": 1.1653418315,
				"y": 1.3333430771,
				"z": 2.8484188494,
				"element": "H" 
			},
			{
				"x": -2.2884681392,
				"y": 1.2719885833,
				"z": 1.6676004235,
				"element": "H" 
			},
			{
				"x": -0.9630939926,
				"y": 2.2952540475,
				"z": 2.2623042041,
				"element": "H" 
			},
			{
				"x": -0.0633912704,
				"y": 2.4640273769,
				"z": -0.1273051014,
				"element": "H" 
			},
			{
				"x": -1.584455476,
				"y": -0.9572675701,
				"z": 0.4722615758,
				"element": "H" 
			},
			{
				"x": -0.088962907,
				"y": -2.9113877223,
				"z": 0.6280607041,
				"element": "H" 
			}
		],
		 "valence_orbital": [ 
			{
				"type": "occ",
				"energy": -0.34317,
				"method": "rhf"
			},
			{
				"type": "occ",
				"energy": -0.3392,
				"method": "rhf"
			},
			{
				"type": "occ",
				"energy": -0.26003,
				"method": "rhf"
			},
			{
				"type": "occ",
				"energy": -0.25425,
				"method": "rhf"
			},
			{
				"type": "occ",
				"energy": -0.23505,
				"method": "rhf"
			},
			{
				"type": "unocc",
				"energy": -0.02883,
				"method": "rhf"
			},
			{
				"type": "unocc",
				"energy": -0.00739,
				"method": "rhf"
			},
			{
				"type": "unocc",
				"energy": 0.00461,
				"method": "rhf"
			},
			{
				"type": "unocc",
				"energy": 0.09292,
				"method": "rhf"
			},
			{
				"type": "unocc",
				"energy": 0.10966,
				"method": "rhf"
			}
		],
		"cosmo_sigma_profile": { 
			"-0.025": 0.0,
			"-0.024": 0.0,
			"-0.023": 0.0,
			"-0.022": 0.0,
			"-0.021": 0.0,
			"-0.02": 0.0,
			"-0.019": 0.0,
			"-0.018": 0.0,
			"-0.017": 0.0,
			"-0.016": 0.0,
			"-0.015": 0.0,
			"-0.014": 0.0,
			"-0.013": 0.0,
			"-0.012": 0.0,
			"-0.011": 0.0,
			"-0.01": 0.0,
			"-0.009": 0.0,
			"-0.008": 0.0,
			"-0.007": 2.36204973297,
			"-0.006": 10.4577759054,
			"-0.005": 15.9740693577,
			"-0.004": 20.9195736663,
			"-0.003": 19.7835809336,
			"-0.002": 18.0003573541,
			"-0.001": 15.9211938633,
			"0.0": 15.6212630672,
			"0.001": 12.2864544544,
			"0.002": 8.1620994992,
			"0.003": 7.3388303267,
			"0.004": 9.56268335964,
			"0.005": 8.63322381242,
			"0.006": 8.42190028829,
			"0.007": 1.6284336448,
			"0.008": 2.03917765214,
			"0.009": 2.12113096827,
			"0.01": 2.63369958461,
			"0.011": 4.85109900794,
			"0.012": 3.0234774964,
			"0.013": 0.517532278684,
			"0.014": 0.0,
			"0.015": 0.0,
			"0.016": 0.0,
			"0.017": 0.0,
			"0.018": 0.0,
			"0.019": 0.0,
			"0.02": 0.0,
			"0.021": 0.0,
			"0.022": 0.0,
			"0.023": 0.0,
			"0.024": 0.0,
			"0.025": 0.0
		}
	}
}
