{
	 "smiles": "CC1=NC(Cl)=C(N)C(C)=C1", 
	 "Tm": 330.15, 
	 "num_atms": 19, 
	 "gaussian": { 
		 "optdone": 1, 
		 "sigma_profile": "yes", 
		 "theory": "DFT", 
		 "functional": "B3LYP", 
		 "basiset": "6-31G**", 
		 "properties": { 
			 "R2extent": 2212.3546, 
			 "electric_dipole_moment_norm": 3.94702709137, 
			 "electric_quadrupole_moment_norm": 11.2323344804, 
			 "total_energy": -841.883657726, 
			 "HOMO_LUMO_gap": 0.19111, 
			 "cosmo_polarized_energy": -10.15, 
			 "cosmo_cavitation_energy": 23.9, 
			 "cosmo_dispersion_energy": -18.05, 
			 "cosmo_repulsion_energy": 1.47, 
			 "cosmo_total_nonelectrostatic_energy": 7.33, 
			 "SMD_solvation_energy": 2.52 
		},
		"coords": [
			{
				"x": 1.8074379661,
				"y": -1.645753264,
				"z": 1.2901033544,
				"element": "C" 
			},
			{
				"x": 0.7192863152,
				"y": -1.0868025114,
				"z": 0.4092786498,
				"element": "C" 
			},
			{
				"x": -0.459325419,
				"y": -1.7335656002,
				"z": 0.4157001903,
				"element": "N" 
			},
			{
				"x": -1.4315371075,
				"y": -1.2807283162,
				"z": -0.3383596017,
				"element": "C" 
			},
			{
				"x": -2.9605594492,
				"y": -2.1919093855,
				"z": -0.2869905975,
				"element": "Cl" 
			},
			{
				"x": -1.3683172256,
				"y": -0.1497625188,
				"z": -1.1762178298,
				"element": "C" 
			},
			{
				"x": -2.459741631,
				"y": 0.3076959991,
				"z": -1.9018041797,
				"element": "N" 
			},
			{
				"x": -0.1346652564,
				"y": 0.5350037551,
				"z": -1.1854595526,
				"element": "C" 
			},
			{
				"x": 0.0332216949,
				"y": 1.7670789952,
				"z": -2.0360018319,
				"element": "C" 
			},
			{
				"x": 0.9003222654,
				"y": 0.0474443292,
				"z": -0.3852961737,
				"element": "C" 
			},
			{
				"x": 1.4906134355,
				"y": -1.6529622152,
				"z": 2.3383863182,
				"element": "H" 
			},
			{
				"x": 2.031825342,
				"y": -2.6820829266,
				"z": 1.0163513738,
				"element": "H" 
			},
			{
				"x": 2.7268523302,
				"y": -1.0596211859,
				"z": 1.2106878352,
				"element": "H" 
			},
			{
				"x": -2.2429539954,
				"y": 0.7929290669,
				"z": -2.7605755601,
				"element": "H" 
			},
			{
				"x": -3.2110273622,
				"y": -0.3610103509,
				"z": -2.0029584733,
				"element": "H" 
			},
			{
				"x": 1.0147688552,
				"y": 2.2211791593,
				"z": -1.8831079466,
				"element": "H" 
			},
			{
				"x": -0.0587166644,
				"y": 1.5377728224,
				"z": -3.1068144049,
				"element": "H" 
			},
			{
				"x": -0.7322259838,
				"y": 2.516214485,
				"z": -1.8002622567,
				"element": "H" 
			},
			{
				"x": 1.8564418899,
				"y": 0.5632796624,
				"z": -0.3804593133,
				"element": "H" 
			}
		],
		 "valence_orbital": [ 
			{
				"type": "occ",
				"energy": -0.32036,
				"method": "rhf"
			},
			{
				"type": "occ",
				"energy": -0.31091,
				"method": "rhf"
			},
			{
				"type": "occ",
				"energy": -0.26428,
				"method": "rhf"
			},
			{
				"type": "occ",
				"energy": -0.26125,
				"method": "rhf"
			},
			{
				"type": "occ",
				"energy": -0.21041,
				"method": "rhf"
			},
			{
				"type": "unocc",
				"energy": -0.0193,
				"method": "rhf"
			},
			{
				"type": "unocc",
				"energy": 0.00403,
				"method": "rhf"
			},
			{
				"type": "unocc",
				"energy": 0.04023,
				"method": "rhf"
			},
			{
				"type": "unocc",
				"energy": 0.0705,
				"method": "rhf"
			},
			{
				"type": "unocc",
				"energy": 0.10624,
				"method": "rhf"
			}
		],
		"cosmo_sigma_profile": { 
			"-0.025": 0.0,
			"-0.024": 0.0,
			"-0.023": 0.0,
			"-0.022": 0.0,
			"-0.021": 0.0,
			"-0.02": 0.0,
			"-0.019": 0.0,
			"-0.018": 0.0,
			"-0.017": 0.0,
			"-0.016": 0.0,
			"-0.015": 0.0,
			"-0.014": 0.0,
			"-0.013": 0.359320550689,
			"-0.012": 1.29703228764,
			"-0.011": 2.22824504835,
			"-0.01": 3.30336165569,
			"-0.009": 2.41526211088,
			"-0.008": 2.14163685367,
			"-0.007": 1.81369171896,
			"-0.006": 6.38195547118,
			"-0.005": 10.3567455337,
			"-0.004": 13.4446553953,
			"-0.003": 13.5041832095,
			"-0.002": 13.2064034024,
			"-0.001": 17.4478984927,
			"0.0": 20.2763624594,
			"0.001": 15.2574007719,
			"0.002": 15.1864643185,
			"0.003": 14.3070725584,
			"0.004": 8.73605359116,
			"0.005": 9.51971720214,
			"0.006": 4.69348393809,
			"0.007": 2.88710489677,
			"0.008": 2.31458257129,
			"0.009": 2.47273233041,
			"0.01": 1.71323568134,
			"0.011": 1.70288411992,
			"0.012": 1.6979010089,
			"0.013": 1.48454144299,
			"0.014": 0.49646659439,
			"0.015": 0.668670131443,
			"0.016": 0.0794021683404,
			"0.017": 0.0,
			"0.018": 0.0,
			"0.019": 0.0,
			"0.02": 0.0,
			"0.021": 0.0,
			"0.022": 0.0,
			"0.023": 0.0,
			"0.024": 0.0,
			"0.025": 0.0
		}
	}
}
