{
	 "smiles": "NC(=NO)C1=CC(NC(=O)C2CC2)=CC=C1", 
	 "Tm": 503.15, 
	 "num_atms": 29, 
	 "gaussian": { 
		 "optdone": 1, 
		 "sigma_profile": "yes", 
		 "theory": "DFT", 
		 "functional": "B3LYP", 
		 "basiset": "6-31G**", 
		 "properties": { 
			 "R2extent": 5513.1731, 
			 "electric_dipole_moment_norm": 3.48093152044, 
			 "electric_quadrupole_moment_norm": 13.6394144405, 
			 "total_energy": -741.653706814, 
			 "HOMO_LUMO_gap": 0.17612, 
			 "cosmo_polarized_energy": -19.49, 
			 "cosmo_cavitation_energy": 33.27, 
			 "cosmo_dispersion_energy": -24.4, 
			 "cosmo_repulsion_energy": 1.91, 
			 "cosmo_total_nonelectrostatic_energy": 10.78, 
			 "SMD_solvation_energy": 5.77 
		},
		"coords": [
			{
				"x": 3.8551811853,
				"y": 0.0785796645,
				"z": 0.0673850605,
				"element": "N" 
			},
			{
				"x": 3.3992396076,
				"y": 0.9494821159,
				"z": 1.0332512641,
				"element": "C" 
			},
			{
				"x": 4.1050772395,
				"y": 1.9204984574,
				"z": 1.5204662284,
				"element": "N" 
			},
			{
				"x": 5.4213782277,
				"y": 1.8681281365,
				"z": 0.9805487647,
				"element": "O" 
			},
			{
				"x": 2.000462671,
				"y": 0.8104165765,
				"z": 1.5109853387,
				"element": "C" 
			},
			{
				"x": 1.0754180832,
				"y": 0.0808601796,
				"z": 0.7522537423,
				"element": "C" 
			},
			{
				"x": -0.2415261653,
				"y": -0.0694852366,
				"z": 1.2096153983,
				"element": "C" 
			},
			{
				"x": -1.2209752895,
				"y": -0.7929334572,
				"z": 0.4960987848,
				"element": "N" 
			},
			{
				"x": -1.0687000123,
				"y": -1.592940164,
				"z": -0.6157728881,
				"element": "C" 
			},
			{
				"x": 0.0026310948,
				"y": -1.7810880624,
				"z": -1.1844692525,
				"element": "O" 
			},
			{
				"x": -2.3395132692,
				"y": -2.2291117074,
				"z": -1.0903209399,
				"element": "C" 
			},
			{
				"x": -2.4885087282,
				"y": -2.4272953175,
				"z": -2.5895721173,
				"element": "C" 
			},
			{
				"x": -2.224326866,
				"y": -3.6090589726,
				"z": -1.7156178789,
				"element": "C" 
			},
			{
				"x": -0.6290439247,
				"y": 0.5301009131,
				"z": 2.4164494622,
				"element": "C" 
			},
			{
				"x": 0.2937325992,
				"y": 1.266097962,
				"z": 3.1576012245,
				"element": "C" 
			},
			{
				"x": 1.6068929672,
				"y": 1.4052164434,
				"z": 2.7193089762,
				"element": "C" 
			},
			{
				"x": 4.8526608806,
				"y": 0.1212162017,
				"z": -0.0868334579,
				"element": "H" 
			},
			{
				"x": 3.4574467167,
				"y": -0.8486414041,
				"z": 0.0676530322,
				"element": "H" 
			},
			{
				"x": 5.8391475224,
				"y": 2.6275344363,
				"z": 1.4034704942,
				"element": "H" 
			},
			{
				"x": 1.3476346856,
				"y": -0.3555036697,
				"z": -0.1973358585,
				"element": "H" 
			},
			{
				"x": -2.1521601407,
				"y": -0.7439398749,
				"z": 0.8833386202,
				"element": "H" 
			},
			{
				"x": -3.2440322795,
				"y": -2.013445109,
				"z": -0.5269922515,
				"element": "H" 
			},
			{
				"x": -1.6664709591,
				"y": -2.0614485181,
				"z": -3.1956085452,
				"element": "H" 
			},
			{
				"x": -3.4797227774,
				"y": -2.2944886204,
				"z": -3.0112361939,
				"element": "H" 
			},
			{
				"x": -3.0288737197,
				"y": -4.3109042265,
				"z": -1.5204673678,
				"element": "H" 
			},
			{
				"x": -1.2257127451,
				"y": -4.0323236994,
				"z": -1.7382825405,
				"element": "H" 
			},
			{
				"x": -1.6497943829,
				"y": 0.4164555219,
				"z": 2.7749893551,
				"element": "H" 
			},
			{
				"x": -0.0166231351,
				"y": 1.7243504911,
				"z": 4.0920888287,
				"element": "H" 
			},
			{
				"x": 2.3352809138,
				"y": 1.9635709397,
				"z": 3.2949047173,
				"element": "H" 
			}
		],
		 "valence_orbital": [ 
			{
				"type": "occ",
				"energy": -0.26725,
				"method": "rhf"
			},
			{
				"type": "occ",
				"energy": -0.25721,
				"method": "rhf"
			},
			{
				"type": "occ",
				"energy": -0.25203,
				"method": "rhf"
			},
			{
				"type": "occ",
				"energy": -0.224,
				"method": "rhf"
			},
			{
				"type": "occ",
				"energy": -0.20042,
				"method": "rhf"
			},
			{
				"type": "unocc",
				"energy": -0.0243,
				"method": "rhf"
			},
			{
				"type": "unocc",
				"energy": -0.01076,
				"method": "rhf"
			},
			{
				"type": "unocc",
				"energy": 0.0364,
				"method": "rhf"
			},
			{
				"type": "unocc",
				"energy": 0.06078,
				"method": "rhf"
			},
			{
				"type": "unocc",
				"energy": 0.07161,
				"method": "rhf"
			}
		],
		"cosmo_sigma_profile": { 
			"-0.025": 0.0,
			"-0.024": 0.0,
			"-0.023": 0.0,
			"-0.022": 0.0,
			"-0.021": 0.0,
			"-0.02": 0.0,
			"-0.019": 0.0,
			"-0.018": 0.0,
			"-0.017": 0.42650608905,
			"-0.016": 1.27263796422,
			"-0.015": 2.02841332176,
			"-0.014": 2.27363649733,
			"-0.013": 3.18042383324,
			"-0.012": 2.78971344613,
			"-0.011": 3.41803469591,
			"-0.01": 4.55977245401,
			"-0.009": 5.15341344455,
			"-0.008": 4.89324627173,
			"-0.007": 4.57792149641,
			"-0.006": 8.38510556221,
			"-0.005": 15.2432531046,
			"-0.004": 16.058834223,
			"-0.003": 12.9412673729,
			"-0.002": 13.8388082947,
			"-0.001": 13.8459126446,
			"0.0": 17.2674153771,
			"0.001": 19.3612808429,
			"0.002": 19.53080031,
			"0.003": 19.6930646529,
			"0.004": 17.3444250101,
			"0.005": 14.0230568866,
			"0.006": 6.33565459415,
			"0.007": 7.53267472647,
			"0.008": 7.26177210982,
			"0.009": 5.15615659878,
			"0.01": 4.75946254248,
			"0.011": 3.65296417553,
			"0.012": 3.24185889937,
			"0.013": 2.99180400458,
			"0.014": 0.978342347072,
			"0.015": 0.0,
			"0.016": 0.0,
			"0.017": 0.0,
			"0.018": 0.0,
			"0.019": 0.0,
			"0.02": 0.0,
			"0.021": 0.0,
			"0.022": 0.0,
			"0.023": 0.0,
			"0.024": 0.0,
			"0.025": 0.0
		}
	}
}
