{
	 "smiles": "CC1=CC(=CC=C1)C(=O)N(NC(=O)C1=CC=CC=C1)C(C)(C)C", 
	 "Tm": 484.15, 
	 "num_atms": 45, 
	 "gaussian": { 
		 "optdone": 1, 
		 "sigma_profile": "yes", 
		 "theory": "DFT", 
		 "functional": "B3LYP", 
		 "basiset": "6-31G**", 
		 "properties": { 
			 "R2extent": 9040.6797, 
			 "electric_dipole_moment_norm": 1.77542058679, 
			 "electric_quadrupole_moment_norm": 17.5624614642, 
			 "total_energy": -997.238971866, 
			 "HOMO_LUMO_gap": 0.20075, 
			 "cosmo_polarized_energy": -15.03, 
			 "cosmo_cavitation_energy": 47.33, 
			 "cosmo_dispersion_energy": -31.05, 
			 "cosmo_repulsion_energy": 2.36, 
			 "cosmo_total_nonelectrostatic_energy": 18.64, 
			 "SMD_solvation_energy": 9.53 
		},
		"coords": [
			{
				"x": 3.5957984813,
				"y": 0.3298829653,
				"z": -2.7371018145,
				"element": "C" 
			},
			{
				"x": 2.6509187987,
				"y": 1.297333645,
				"z": -2.0628613096,
				"element": "C" 
			},
			{
				"x": 1.5916602268,
				"y": 0.8352761847,
				"z": -1.2738192455,
				"element": "C" 
			},
			{
				"x": 0.7419931677,
				"y": 1.7327521348,
				"z": -0.6122994475,
				"element": "C" 
			},
			{
				"x": 0.9614686137,
				"y": 3.1116671239,
				"z": -0.714984379,
				"element": "C" 
			},
			{
				"x": 1.9948439462,
				"y": 3.5817240427,
				"z": -1.5219863527,
				"element": "C" 
			},
			{
				"x": 2.8287006508,
				"y": 2.6824468273,
				"z": -2.1900870317,
				"element": "C" 
			},
			{
				"x": -0.2958506823,
				"y": 1.2232209642,
				"z": 0.3309946139,
				"element": "C" 
			},
			{
				"x": -0.4369231979,
				"y": 1.7296275297,
				"z": 1.4402901955,
				"element": "O" 
			},
			{
				"x": -0.9969387566,
				"y": 0.0490914671,
				"z": -0.02015839,
				"element": "N" 
			},
			{
				"x": -1.5064900209,
				"y": -0.5920707397,
				"z": 1.1265913668,
				"element": "N" 
			},
			{
				"x": -0.7960873362,
				"y": -1.7052712297,
				"z": 1.5787581422,
				"element": "C" 
			},
			{
				"x": 0.0626176524,
				"y": -2.2619179972,
				"z": 0.9119442261,
				"element": "O" 
			},
			{
				"x": -1.2054198517,
				"y": -2.2004828118,
				"z": 2.9356714291,
				"element": "C" 
			},
			{
				"x": -0.3226985009,
				"y": -3.0687975205,
				"z": 3.5929278704,
				"element": "C" 
			},
			{
				"x": -0.6321906691,
				"y": -3.5623666625,
				"z": 4.8576104462,
				"element": "C" 
			},
			{
				"x": -1.833543465,
				"y": -3.2028316965,
				"z": 5.4746122671,
				"element": "C" 
			},
			{
				"x": -2.7256323841,
				"y": -2.3519735669,
				"z": 4.8194290613,
				"element": "C" 
			},
			{
				"x": -2.4150286266,
				"y": -1.8518241147,
				"z": 3.554749791,
				"element": "C" 
			},
			{
				"x": -1.9451615302,
				"y": -0.0635954208,
				"z": -1.1972441656,
				"element": "C" 
			},
			{
				"x": -2.1267126766,
				"y": -1.5584597257,
				"z": -1.5071410423,
				"element": "C" 
			},
			{
				"x": -3.2959079572,
				"y": 0.5748272361,
				"z": -0.8116579225,
				"element": "C" 
			},
			{
				"x": -1.4070654366,
				"y": 0.6395841923,
				"z": -2.4515238062,
				"element": "C" 
			},
			{
				"x": 3.1508135838,
				"y": -0.6645241609,
				"z": -2.8303713645,
				"element": "H" 
			},
			{
				"x": 3.8739381596,
				"y": 0.6743364331,
				"z": -3.7383879107,
				"element": "H" 
			},
			{
				"x": 4.5239799964,
				"y": 0.2202673103,
				"z": -2.1628385987,
				"element": "H" 
			},
			{
				"x": 1.4306902004,
				"y": -0.2303661121,
				"z": -1.1365679985,
				"element": "H" 
			},
			{
				"x": 0.322092512,
				"y": 3.7951475109,
				"z": -0.1658482,
				"element": "H" 
			},
			{
				"x": 2.1585503237,
				"y": 4.6504423767,
				"z": -1.6266365743,
				"element": "H" 
			},
			{
				"x": 3.6372351181,
				"y": 3.0607716269,
				"z": -2.8112512815,
				"element": "H" 
			},
			{
				"x": -1.7787479703,
				"y": 0.0777292033,
				"z": 1.8415508053,
				"element": "H" 
			},
			{
				"x": 0.5988643672,
				"y": -3.3411391075,
				"z": 3.0898747386,
				"element": "H" 
			},
			{
				"x": 0.0609920472,
				"y": -4.2285850886,
				"z": 5.3628968188,
				"element": "H" 
			},
			{
				"x": -2.0765796523,
				"y": -3.5896912337,
				"z": 6.4601674309,
				"element": "H" 
			},
			{
				"x": -3.6670583873,
				"y": -2.0827433509,
				"z": 5.2893213123,
				"element": "H" 
			},
			{
				"x": -3.1296641414,
				"y": -1.2152847786,
				"z": 3.0425531299,
				"element": "H" 
			},
			{
				"x": -2.7734729443,
				"y": -1.675523618,
				"z": -2.3824965252,
				"element": "H" 
			},
			{
				"x": -1.1626887996,
				"y": -2.0295076877,
				"z": -1.7121717351,
				"element": "H" 
			},
			{
				"x": -2.5919850833,
				"y": -2.0849850956,
				"z": -0.6712612788,
				"element": "H" 
			},
			{
				"x": -3.1806702962,
				"y": 1.6441494175,
				"z": -0.6041327116,
				"element": "H" 
			},
			{
				"x": -4.0117742451,
				"y": 0.4646545168,
				"z": -1.6324305916,
				"element": "H" 
			},
			{
				"x": -3.7208704848,
				"y": 0.092419221,
				"z": 0.0720253235,
				"element": "H" 
			},
			{
				"x": -2.1436534931,
				"y": 0.5036757801,
				"z": -3.2492323926,
				"element": "H" 
			},
			{
				"x": -1.2684970377,
				"y": 1.7134276204,
				"z": -2.3083811465,
				"element": "H" 
			},
			{
				"x": -0.4610442188,
				"y": 0.2134863896,
				"z": -2.7886957524,
				"element": "H" 
			}
		],
		 "valence_orbital": [ 
			{
				"type": "occ",
				"energy": -0.25737,
				"method": "rhf"
			},
			{
				"type": "occ",
				"energy": -0.253,
				"method": "rhf"
			},
			{
				"type": "occ",
				"energy": -0.24865,
				"method": "rhf"
			},
			{
				"type": "occ",
				"energy": -0.24345,
				"method": "rhf"
			},
			{
				"type": "occ",
				"energy": -0.24056,
				"method": "rhf"
			},
			{
				"type": "unocc",
				"energy": -0.03981,
				"method": "rhf"
			},
			{
				"type": "unocc",
				"energy": -0.03794,
				"method": "rhf"
			},
			{
				"type": "unocc",
				"energy": -0.00712,
				"method": "rhf"
			},
			{
				"type": "unocc",
				"energy": -0.00392,
				"method": "rhf"
			},
			{
				"type": "unocc",
				"energy": 0.03011,
				"method": "rhf"
			}
		],
		"cosmo_sigma_profile": { 
			"-0.025": 0.0,
			"-0.024": 0.0,
			"-0.023": 0.0,
			"-0.022": 0.0,
			"-0.021": 0.0,
			"-0.02": 0.0,
			"-0.019": 0.0,
			"-0.018": 0.0,
			"-0.017": 0.0,
			"-0.016": 0.0,
			"-0.015": 0.0,
			"-0.014": 0.0,
			"-0.013": 0.0,
			"-0.012": 0.0117307051602,
			"-0.011": 0.448710687761,
			"-0.01": 0.856704085186,
			"-0.009": 1.16526179577,
			"-0.008": 0.950231752117,
			"-0.007": 3.32711462892,
			"-0.006": 13.9998525135,
			"-0.005": 20.7573289854,
			"-0.004": 37.8968846444,
			"-0.003": 35.133083043,
			"-0.002": 36.0687822438,
			"-0.001": 38.6379181763,
			"0.0": 43.7367305624,
			"0.001": 31.9869615407,
			"0.002": 19.656885596,
			"0.003": 20.0373081884,
			"0.004": 24.9062278513,
			"0.005": 10.1801284423,
			"0.006": 3.95176849713,
			"0.007": 3.9548260901,
			"0.008": 4.39251052074,
			"0.009": 4.34960340213,
			"0.01": 3.66210135519,
			"0.011": 4.18390013515,
			"0.012": 5.82142460541,
			"0.013": 3.71453713166,
			"0.014": 0.109780840113,
			"0.015": 0.0,
			"0.016": 0.0,
			"0.017": 0.0,
			"0.018": 0.0,
			"0.019": 0.0,
			"0.02": 0.0,
			"0.021": 0.0,
			"0.022": 0.0,
			"0.023": 0.0,
			"0.024": 0.0,
			"0.025": 0.0
		}
	}
}
