{
	 "smiles": "CN1N=C(C=C1N)C1=CC=C(Cl)C=C1", 
	 "Tm": 424.15, 
	 "num_atms": 24, 
	 "gaussian": { 
		 "optdone": 1, 
		 "sigma_profile": "yes", 
		 "theory": "DFT", 
		 "functional": "B3LYP", 
		 "basiset": "6-31G**", 
		 "properties": { 
			 "R2extent": 4753.5372, 
			 "electric_dipole_moment_norm": 5.75500664813, 
			 "electric_quadrupole_moment_norm": 13.3514686335, 
			 "total_energy": -1011.52631154, 
			 "HOMO_LUMO_gap": 0.18459, 
			 "cosmo_polarized_energy": -13.54, 
			 "cosmo_cavitation_energy": 30.08, 
			 "cosmo_dispersion_energy": -22.35, 
			 "cosmo_repulsion_energy": 1.76, 
			 "cosmo_total_nonelectrostatic_energy": 9.48, 
			 "SMD_solvation_energy": 4.1 
		},
		"coords": [
			{
				"x": -1.8337584228,
				"y": -2.5896059998,
				"z": 2.8894079664,
				"element": "C" 
			},
			{
				"x": -1.6528087433,
				"y": -1.49623954,
				"z": 1.9581491021,
				"element": "N" 
			},
			{
				"x": -0.6745687384,
				"y": -1.5487745701,
				"z": 1.0216373356,
				"element": "N" 
			},
			{
				"x": -0.7723369382,
				"y": -0.3968001967,
				"z": 0.3484810006,
				"element": "C" 
			},
			{
				"x": -1.8433968614,
				"y": 0.3947598462,
				"z": 0.8409661784,
				"element": "C" 
			},
			{
				"x": -2.3893593816,
				"y": -0.3506515762,
				"z": 1.8718677651,
				"element": "C" 
			},
			{
				"x": -3.4198451702,
				"y": -0.0897031631,
				"z": 2.784790476,
				"element": "N" 
			},
			{
				"x": 0.1575235448,
				"y": -0.099652896,
				"z": -0.7520970426,
				"element": "C" 
			},
			{
				"x": 0.136270487,
				"y": 1.1382889602,
				"z": -1.4123695386,
				"element": "C" 
			},
			{
				"x": 1.0175412872,
				"y": 1.4167625219,
				"z": -2.4557986318,
				"element": "C" 
			},
			{
				"x": 1.9367306718,
				"y": 0.4451711004,
				"z": -2.8461363099,
				"element": "C" 
			},
			{
				"x": 3.054086708,
				"y": 0.7864919587,
				"z": -4.1631329028,
				"element": "Cl" 
			},
			{
				"x": 1.9836518043,
				"y": -0.7944878191,
				"z": -2.2069684192,
				"element": "C" 
			},
			{
				"x": 1.0966263751,
				"y": -1.0590408629,
				"z": -1.1682784674,
				"element": "C" 
			},
			{
				"x": -0.861722222,
				"y": -3.0527615311,
				"z": 3.0610250455,
				"element": "H" 
			},
			{
				"x": -2.5227004226,
				"y": -3.3484522793,
				"z": 2.498767127,
				"element": "H" 
			},
			{
				"x": -2.2266544931,
				"y": -2.1942141826,
				"z": 3.8291107289,
				"element": "H" 
			},
			{
				"x": -2.1878440936,
				"y": 1.3568633009,
				"z": 0.4929234154,
				"element": "H" 
			},
			{
				"x": -3.7897378265,
				"y": 0.8455274152,
				"z": 2.6677809964,
				"element": "H" 
			},
			{
				"x": -4.1833094912,
				"y": -0.7575589466,
				"z": 2.7352481703,
				"element": "H" 
			},
			{
				"x": -0.5721873115,
				"y": 1.9028737052,
				"z": -1.1091061343,
				"element": "H" 
			},
			{
				"x": 0.9934255634,
				"y": 2.3770497356,
				"z": -2.9591230323,
				"element": "H" 
			},
			{
				"x": 2.7049890535,
				"y": -1.5407074339,
				"z": -2.5218673903,
				"element": "H" 
			},
			{
				"x": 1.1206846211,
				"y": -2.018537547,
				"z": -0.6634774385,
				"element": "H" 
			}
		],
		 "valence_orbital": [ 
			{
				"type": "occ",
				"energy": -0.28151,
				"method": "rhf"
			},
			{
				"type": "occ",
				"energy": -0.2665,
				"method": "rhf"
			},
			{
				"type": "occ",
				"energy": -0.25286,
				"method": "rhf"
			},
			{
				"type": "occ",
				"energy": -0.22251,
				"method": "rhf"
			},
			{
				"type": "occ",
				"energy": -0.20536,
				"method": "rhf"
			},
			{
				"type": "unocc",
				"energy": -0.02077,
				"method": "rhf"
			},
			{
				"type": "unocc",
				"energy": -0.0024,
				"method": "rhf"
			},
			{
				"type": "unocc",
				"energy": 0.03855,
				"method": "rhf"
			},
			{
				"type": "unocc",
				"energy": 0.03974,
				"method": "rhf"
			},
			{
				"type": "unocc",
				"energy": 0.06305,
				"method": "rhf"
			}
		],
		"cosmo_sigma_profile": { 
			"-0.025": 0.0,
			"-0.024": 0.0,
			"-0.023": 0.0,
			"-0.022": 0.0,
			"-0.021": 0.0,
			"-0.02": 0.0,
			"-0.019": 0.0,
			"-0.018": 0.0,
			"-0.017": 0.0,
			"-0.016": 0.0,
			"-0.015": 0.0,
			"-0.014": 0.0208812438167,
			"-0.013": 1.62804666507,
			"-0.012": 3.00840580969,
			"-0.011": 3.06739884159,
			"-0.01": 3.27621762198,
			"-0.009": 2.38679804501,
			"-0.008": 3.25959117907,
			"-0.007": 7.6094866159,
			"-0.006": 12.9641030044,
			"-0.005": 16.1853162068,
			"-0.004": 15.2347214625,
			"-0.003": 14.8121363114,
			"-0.002": 12.5656963635,
			"-0.001": 9.8744321987,
			"0.0": 11.2807302415,
			"0.001": 14.1626070468,
			"0.002": 18.3348872525,
			"0.003": 22.3952424319,
			"0.004": 29.3852454266,
			"0.005": 18.4213503786,
			"0.006": 6.89425641459,
			"0.007": 3.12281216688,
			"0.008": 2.10886841876,
			"0.009": 2.82085553568,
			"0.01": 1.46408084423,
			"0.011": 2.14893511367,
			"0.012": 2.06087247386,
			"0.013": 1.29907714815,
			"0.014": 0.642933889906,
			"0.015": 0.0,
			"0.016": 0.0,
			"0.017": 0.0,
			"0.018": 0.0,
			"0.019": 0.0,
			"0.02": 0.0,
			"0.021": 0.0,
			"0.022": 0.0,
			"0.023": 0.0,
			"0.024": 0.0,
			"0.025": 0.0
		}
	}
}
