{
	 "smiles": "CC1=CC(NC(=O)N2CCNCC2)=CC=C1", 
	 "Tm": 383.15, 
	 "num_atms": 33, 
	 "gaussian": { 
		 "optdone": 1, 
		 "sigma_profile": "yes", 
		 "theory": "DFT", 
		 "functional": "B3LYP", 
		 "basiset": "6-31G**", 
		 "properties": { 
			 "R2extent": 4489.5184, 
			 "electric_dipole_moment_norm": 2.5411513729, 
			 "electric_quadrupole_moment_norm": 16.0406931926, 
			 "total_energy": -707.020456862, 
			 "HOMO_LUMO_gap": 0.20925, 
			 "cosmo_polarized_energy": -12.64, 
			 "cosmo_cavitation_energy": 34.29, 
			 "cosmo_dispersion_energy": -24.5, 
			 "cosmo_repulsion_energy": 1.92, 
			 "cosmo_total_nonelectrostatic_energy": 11.71, 
			 "SMD_solvation_energy": 3.76 
		},
		"coords": [
			{
				"x": 2.791478454,
				"y": 0.2212212811,
				"z": -1.7758866759,
				"element": "C" 
			},
			{
				"x": 1.9115578809,
				"y": -0.8398320099,
				"z": -1.1553903484,
				"element": "C" 
			},
			{
				"x": 1.064864693,
				"y": -0.5116304627,
				"z": -0.0890665497,
				"element": "C" 
			},
			{
				"x": 0.2635623546,
				"y": -1.4857941476,
				"z": 0.5219708114,
				"element": "C" 
			},
			{
				"x": -0.5985572337,
				"y": -1.2143553387,
				"z": 1.6119574635,
				"element": "N" 
			},
			{
				"x": -0.8894100365,
				"y": 0.0059885255,
				"z": 2.242876608,
				"element": "C" 
			},
			{
				"x": -0.9248904481,
				"y": 0.0609527133,
				"z": 3.4690070442,
				"element": "O" 
			},
			{
				"x": -1.147735307,
				"y": 1.0900755304,
				"z": 1.4268387071,
				"element": "N" 
			},
			{
				"x": -1.3945813535,
				"y": 2.3789068702,
				"z": 2.0850457737,
				"element": "C" 
			},
			{
				"x": -2.8945445511,
				"y": 2.669405263,
				"z": 2.1762604217,
				"element": "C" 
			},
			{
				"x": -3.468410938,
				"y": 2.6172791637,
				"z": 0.8284039705,
				"element": "N" 
			},
			{
				"x": -3.2956674787,
				"y": 1.2937386939,
				"z": 0.2304561356,
				"element": "C" 
			},
			{
				"x": -1.7994461731,
				"y": 0.9761999761,
				"z": 0.115047867,
				"element": "C" 
			},
			{
				"x": 0.3240184747,
				"y": -2.8103056897,
				"z": 0.0586049073,
				"element": "C" 
			},
			{
				"x": 1.1726613055,
				"y": -3.14081335,
				"z": -0.9932290699,
				"element": "C" 
			},
			{
				"x": 1.9591276678,
				"y": -2.1641013491,
				"z": -1.6062218518,
				"element": "C" 
			},
			{
				"x": 3.7255994307,
				"y": 0.3386566819,
				"z": -1.2124664397,
				"element": "H" 
			},
			{
				"x": 2.296662222,
				"y": 1.197271226,
				"z": -1.7881192906,
				"element": "H" 
			},
			{
				"x": 3.061709889,
				"y": -0.0358281006,
				"z": -2.8042516782,
				"element": "H" 
			},
			{
				"x": 1.0340847052,
				"y": 0.5090842077,
				"z": 0.2763308468,
				"element": "H" 
			},
			{
				"x": -0.6269493785,
				"y": -1.9503544013,
				"z": 2.3059331961,
				"element": "H" 
			},
			{
				"x": -0.9440856367,
				"y": 2.3452114812,
				"z": 3.0762619908,
				"element": "H" 
			},
			{
				"x": -0.9123793188,
				"y": 3.1616345742,
				"z": 1.4866669833,
				"element": "H" 
			},
			{
				"x": -3.3480168348,
				"y": 1.9386780766,
				"z": 2.8702890097,
				"element": "H" 
			},
			{
				"x": -3.0503818368,
				"y": 3.6713606343,
				"z": 2.5913107612,
				"element": "H" 
			},
			{
				"x": -4.455251137,
				"y": 2.8564545763,
				"z": 0.860448105,
				"element": "H" 
			},
			{
				"x": -3.7769217694,
				"y": 0.4871957054,
				"z": 0.8166253169,
				"element": "H" 
			},
			{
				"x": -3.7424294145,
				"y": 1.2912172645,
				"z": -0.7703235158,
				"element": "H" 
			},
			{
				"x": -1.3299422652,
				"y": 1.6918844433,
				"z": -0.5708260086,
				"element": "H" 
			},
			{
				"x": -1.6562891005,
				"y": -0.0248946342,
				"z": -0.2869913438,
				"element": "H" 
			},
			{
				"x": -0.3019286297,
				"y": -3.5684054145,
				"z": 0.5218022071,
				"element": "H" 
			},
			{
				"x": 1.2117193334,
				"y": -4.1679448845,
				"z": -1.3451674287,
				"element": "H" 
			},
			{
				"x": 2.6105724306,
				"y": -2.429857106,
				"z": -2.4341979256,
				"element": "H" 
			}
		],
		 "valence_orbital": [ 
			{
				"type": "occ",
				"energy": -0.26,
				"method": "rhf"
			},
			{
				"type": "occ",
				"energy": -0.24318,
				"method": "rhf"
			},
			{
				"type": "occ",
				"energy": -0.24031,
				"method": "rhf"
			},
			{
				"type": "occ",
				"energy": -0.22102,
				"method": "rhf"
			},
			{
				"type": "occ",
				"energy": -0.21175,
				"method": "rhf"
			},
			{
				"type": "unocc",
				"energy": -0.0025,
				"method": "rhf"
			},
			{
				"type": "unocc",
				"energy": 0.00041,
				"method": "rhf"
			},
			{
				"type": "unocc",
				"energy": 0.05204,
				"method": "rhf"
			},
			{
				"type": "unocc",
				"energy": 0.0847,
				"method": "rhf"
			},
			{
				"type": "unocc",
				"energy": 0.09168,
				"method": "rhf"
			}
		],
		"cosmo_sigma_profile": { 
			"-0.025": 0.0,
			"-0.024": 0.0,
			"-0.023": 0.0,
			"-0.022": 0.0,
			"-0.021": 0.0,
			"-0.02": 0.0,
			"-0.019": 0.0,
			"-0.018": 0.0,
			"-0.017": 0.0,
			"-0.016": 0.0,
			"-0.015": 0.0,
			"-0.014": 0.136641057231,
			"-0.013": 0.85421270486,
			"-0.012": 0.793564036975,
			"-0.011": 1.65846586508,
			"-0.01": 2.21961714966,
			"-0.009": 2.20566536452,
			"-0.008": 2.16903255616,
			"-0.007": 2.74447889934,
			"-0.006": 4.81484700754,
			"-0.005": 9.56328475619,
			"-0.004": 26.8674173326,
			"-0.003": 31.9793124148,
			"-0.002": 37.1856295045,
			"-0.001": 28.8474196962,
			"0.0": 23.3798331933,
			"0.001": 17.4620084438,
			"0.002": 11.457613822,
			"0.003": 10.0480303772,
			"0.004": 10.2448464227,
			"0.005": 10.0364099603,
			"0.006": 9.46216825309,
			"0.007": 3.45344603419,
			"0.008": 1.87508942917,
			"0.009": 2.23724697183,
			"0.01": 2.0774313021,
			"0.011": 1.3423476808,
			"0.012": 2.30021137718,
			"0.013": 3.3316042672,
			"0.014": 5.82109890083,
			"0.015": 0.990383686882,
			"0.016": 0.617822666648,
			"0.017": 0.467596610677,
			"0.018": 0.124371254451,
			"0.019": 0.0,
			"0.02": 0.0,
			"0.021": 0.0,
			"0.022": 0.0,
			"0.023": 0.0,
			"0.024": 0.0,
			"0.025": 0.0
		}
	}
}
