{
	 "smiles": "NC1=CC=C(CC(=O)N2CCC3=C2C=CC=C3)C=C1", 
	 "Tm": 428.15, 
	 "num_atms": 35, 
	 "gaussian": { 
		 "optdone": 1, 
		 "sigma_profile": "yes", 
		 "theory": "DFT", 
		 "functional": "B3LYP", 
		 "basiset": "6-31G**", 
		 "properties": { 
			 "R2extent": 6425.3853, 
			 "electric_dipole_moment_norm": 3.46197507357, 
			 "electric_quadrupole_moment_norm": 21.9955825147, 
			 "total_energy": -804.095183911, 
			 "HOMO_LUMO_gap": 0.18494, 
			 "cosmo_polarized_energy": -15.17, 
			 "cosmo_cavitation_energy": 37.29, 
			 "cosmo_dispersion_energy": -26.82, 
			 "cosmo_repulsion_energy": 2.06, 
			 "cosmo_total_nonelectrostatic_energy": 12.53, 
			 "SMD_solvation_energy": 5.74 
		},
		"coords": [
			{
				"x": 0.8419333779,
				"y": 3.4125305507,
				"z": 4.5847465431,
				"element": "N" 
			},
			{
				"x": 1.0579214282,
				"y": 3.0045316919,
				"z": 3.26580604,
				"element": "C" 
			},
			{
				"x": 2.003497968,
				"y": 2.0124385498,
				"z": 2.9621897991,
				"element": "C" 
			},
			{
				"x": 2.2497002595,
				"y": 1.6515537489,
				"z": 1.6388088743,
				"element": "C" 
			},
			{
				"x": 1.5700899549,
				"y": 2.2575376668,
				"z": 0.5748856275,
				"element": "C" 
			},
			{
				"x": 1.8869030093,
				"y": 1.8788241171,
				"z": -0.8658795596,
				"element": "C" 
			},
			{
				"x": 0.6684754834,
				"y": 1.8487440885,
				"z": -1.7826952362,
				"element": "C" 
			},
			{
				"x": 0.2331238148,
				"y": 2.8891976081,
				"z": -2.2727137081,
				"element": "O" 
			},
			{
				"x": 0.0803373714,
				"y": 0.6440397081,
				"z": -2.1049796904,
				"element": "N" 
			},
			{
				"x": -0.9324867514,
				"y": 0.6178077975,
				"z": -3.1853366825,
				"element": "C" 
			},
			{
				"x": -0.88477212,
				"y": -0.8332453555,
				"z": -3.7086798054,
				"element": "C" 
			},
			{
				"x": -0.2792555116,
				"y": -1.5875428848,
				"z": -2.5456853771,
				"element": "C" 
			},
			{
				"x": 0.2850835422,
				"y": -0.6755519068,
				"z": -1.6353933994,
				"element": "C" 
			},
			{
				"x": 0.8639765332,
				"y": -1.1227413222,
				"z": -0.4462191671,
				"element": "C" 
			},
			{
				"x": 0.9206453465,
				"y": -2.5026169239,
				"z": -0.215379022,
				"element": "C" 
			},
			{
				"x": 0.3942895033,
				"y": -3.414548321,
				"z": -1.1302004483,
				"element": "C" 
			},
			{
				"x": -0.2201858144,
				"y": -2.9521349497,
				"z": -2.3012873935,
				"element": "C" 
			},
			{
				"x": 0.6321703802,
				"y": 3.2535820904,
				"z": 0.8829115577,
				"element": "C" 
			},
			{
				"x": 0.3770637294,
				"y": 3.6195524902,
				"z": 2.2004286865,
				"element": "C" 
			},
			{
				"x": -0.0581961386,
				"y": 3.8389151139,
				"z": 4.7573317209,
				"element": "H" 
			},
			{
				"x": 1.0698855202,
				"y": 2.7236396827,
				"z": 5.2884758468,
				"element": "H" 
			},
			{
				"x": 2.5497041276,
				"y": 1.5258029036,
				"z": 3.7668105214,
				"element": "H" 
			},
			{
				"x": 2.9941482417,
				"y": 0.8850366409,
				"z": 1.4337444537,
				"element": "H" 
			},
			{
				"x": 2.5336439111,
				"y": 2.6440954718,
				"z": -1.311096717,
				"element": "H" 
			},
			{
				"x": 2.434873092,
				"y": 0.9337093747,
				"z": -0.8953649926,
				"element": "H" 
			},
			{
				"x": -1.9168397862,
				"y": 0.8629209737,
				"z": -2.7686668384,
				"element": "H" 
			},
			{
				"x": -0.6863257478,
				"y": 1.3767269399,
				"z": -3.9273178989,
				"element": "H" 
			},
			{
				"x": -1.8761153764,
				"y": -1.2008672891,
				"z": -3.9885577463,
				"element": "H" 
			},
			{
				"x": -0.245569827,
				"y": -0.9100627096,
				"z": -4.5982488255,
				"element": "H" 
			},
			{
				"x": 1.2217829958,
				"y": -0.4325718257,
				"z": 0.3062915198,
				"element": "H" 
			},
			{
				"x": 1.3684616782,
				"y": -2.861505555,
				"z": 0.7069351103,
				"element": "H" 
			},
			{
				"x": 0.4426244706,
				"y": -4.4798389203,
				"z": -0.926300289,
				"element": "H" 
			},
			{
				"x": -0.6544891534,
				"y": -3.6542714153,
				"z": -3.00824214,
				"element": "H" 
			},
			{
				"x": 0.0988223846,
				"y": 3.7458209566,
				"z": 0.0754842025,
				"element": "H" 
			},
			{
				"x": -0.3541218971,
				"y": 4.3964912132,
				"z": 2.4116944337,
				"element": "H" 
			}
		],
		 "valence_orbital": [ 
			{
				"type": "occ",
				"energy": -0.24885,
				"method": "rhf"
			},
			{
				"type": "occ",
				"energy": -0.24546,
				"method": "rhf"
			},
			{
				"type": "occ",
				"energy": -0.24333,
				"method": "rhf"
			},
			{
				"type": "occ",
				"energy": -0.209,
				"method": "rhf"
			},
			{
				"type": "occ",
				"energy": -0.1969,
				"method": "rhf"
			},
			{
				"type": "unocc",
				"energy": -0.01196,
				"method": "rhf"
			},
			{
				"type": "unocc",
				"energy": -0.00479,
				"method": "rhf"
			},
			{
				"type": "unocc",
				"energy": 0.00297,
				"method": "rhf"
			},
			{
				"type": "unocc",
				"energy": 0.01884,
				"method": "rhf"
			},
			{
				"type": "unocc",
				"energy": 0.04345,
				"method": "rhf"
			}
		],
		"cosmo_sigma_profile": { 
			"-0.025": 0.0,
			"-0.024": 0.0,
			"-0.023": 0.0,
			"-0.022": 0.0,
			"-0.021": 0.0,
			"-0.02": 0.0,
			"-0.019": 0.0,
			"-0.018": 0.0,
			"-0.017": 0.0,
			"-0.016": 0.0,
			"-0.015": 0.0,
			"-0.014": 0.0,
			"-0.013": 0.112021270145,
			"-0.012": 2.29254786892,
			"-0.011": 2.59764744913,
			"-0.01": 2.84774844088,
			"-0.009": 3.3612476904,
			"-0.008": 3.16208426681,
			"-0.007": 2.50906288387,
			"-0.006": 8.73903041391,
			"-0.005": 23.62438984,
			"-0.004": 30.313914012,
			"-0.003": 31.0623658651,
			"-0.002": 24.9078073149,
			"-0.001": 21.3678719392,
			"0.0": 16.4316598308,
			"0.001": 17.4025174138,
			"0.002": 15.5751706483,
			"0.003": 14.1991931723,
			"0.004": 16.0798342516,
			"0.005": 16.8781636348,
			"0.006": 16.0465854554,
			"0.007": 6.91881841851,
			"0.008": 1.98611803039,
			"0.009": 2.66440448453,
			"0.01": 2.35039022736,
			"0.011": 1.76682390044,
			"0.012": 2.67196451242,
			"0.013": 4.04937378649,
			"0.014": 3.67815141997,
			"0.015": 0.653270853787,
			"0.016": 0.0,
			"0.017": 0.0,
			"0.018": 0.0,
			"0.019": 0.0,
			"0.02": 0.0,
			"0.021": 0.0,
			"0.022": 0.0,
			"0.023": 0.0,
			"0.024": 0.0,
			"0.025": 0.0
		}
	}
}
