{
	 "smiles": "CCNC1=CC(O)=CC=C1C", 
	 "Tm": 361.15, 
	 "num_atms": 24, 
	 "gaussian": { 
		 "optdone": 1, 
		 "sigma_profile": "yes", 
		 "theory": "DFT", 
		 "functional": "B3LYP", 
		 "basiset": "6-31G**", 
		 "properties": { 
			 "R2extent": 2185.4704, 
			 "electric_dipole_moment_norm": 1.24615904683, 
			 "electric_quadrupole_moment_norm": 12.1660923081, 
			 "total_energy": -480.774155845, 
			 "HOMO_LUMO_gap": 0.20386, 
			 "cosmo_polarized_energy": -10.32, 
			 "cosmo_cavitation_energy": 26.5, 
			 "cosmo_dispersion_energy": -19.4, 
			 "cosmo_repulsion_energy": 1.58, 
			 "cosmo_total_nonelectrostatic_energy": 8.68, 
			 "SMD_solvation_energy": 4.21 
		},
		"coords": [
			{
				"x": -2.416953701,
				"y": 0.8827777532,
				"z": -3.0480599102,
				"element": "C" 
			},
			{
				"x": -2.4185075214,
				"y": 1.4684225054,
				"z": -1.6303242448,
				"element": "C" 
			},
			{
				"x": -2.3006713506,
				"y": 0.4607203326,
				"z": -0.5872838061,
				"element": "N" 
			},
			{
				"x": -1.0949284102,
				"y": -0.0293084824,
				"z": -0.1084426066,
				"element": "C" 
			},
			{
				"x": 0.1211395126,
				"y": 0.2699785639,
				"z": -0.743016346,
				"element": "C" 
			},
			{
				"x": 1.3217811765,
				"y": -0.2464510272,
				"z": -0.2513665029,
				"element": "C" 
			},
			{
				"x": 2.4623211355,
				"y": 0.0951393938,
				"z": -0.9300452155,
				"element": "O" 
			},
			{
				"x": 1.3359465739,
				"y": -1.0677535404,
				"z": 0.8763076702,
				"element": "C" 
			},
			{
				"x": 0.1206369216,
				"y": -1.3621845317,
				"z": 1.4997575553,
				"element": "C" 
			},
			{
				"x": -1.0974902597,
				"y": -0.8686137107,
				"z": 1.0408979459,
				"element": "C" 
			},
			{
				"x": -2.3911322009,
				"y": -1.2138623908,
				"z": 1.7366651247,
				"element": "C" 
			},
			{
				"x": -2.5019427504,
				"y": 1.6810475416,
				"z": -3.7936776878,
				"element": "H" 
			},
			{
				"x": -3.2571392414,
				"y": 0.1942538133,
				"z": -3.1800569435,
				"element": "H" 
			},
			{
				"x": -1.4959391499,
				"y": 0.3275510178,
				"z": -3.2460992635,
				"element": "H" 
			},
			{
				"x": -1.6172751224,
				"y": 2.2144126751,
				"z": -1.5298645942,
				"element": "H" 
			},
			{
				"x": -3.3588692835,
				"y": 2.0043304348,
				"z": -1.4620528744,
				"element": "H" 
			},
			{
				"x": -3.0803665229,
				"y": 0.3882125164,
				"z": 0.0446122803,
				"element": "H" 
			},
			{
				"x": 0.1626384069,
				"y": 0.8980485793,
				"z": -1.6241229579,
				"element": "H" 
			},
			{
				"x": 3.216274896,
				"y": -0.3212019345,
				"z": -0.4933953449,
				"element": "H" 
			},
			{
				"x": 2.2693677044,
				"y": -1.473535862,
				"z": 1.2585846383,
				"element": "H" 
			},
			{
				"x": 0.1227206377,
				"y": -2.0028955573,
				"z": 2.3786005611,
				"element": "H" 
			},
			{
				"x": -3.1034327348,
				"y": -1.7070063895,
				"z": 1.0612822364,
				"element": "H" 
			},
			{
				"x": -2.2119988439,
				"y": -1.8916238855,
				"z": 2.5753735807,
				"element": "H" 
			},
			{
				"x": -2.897479872,
				"y": -0.3266578152,
				"z": 2.1457267053,
				"element": "H" 
			}
		],
		 "valence_orbital": [ 
			{
				"type": "occ",
				"energy": -0.32639,
				"method": "rhf"
			},
			{
				"type": "occ",
				"energy": -0.32365,
				"method": "rhf"
			},
			{
				"type": "occ",
				"energy": -0.27581,
				"method": "rhf"
			},
			{
				"type": "occ",
				"energy": -0.21054,
				"method": "rhf"
			},
			{
				"type": "occ",
				"energy": -0.18234,
				"method": "rhf"
			},
			{
				"type": "unocc",
				"energy": 0.02152,
				"method": "rhf"
			},
			{
				"type": "unocc",
				"energy": 0.03461,
				"method": "rhf"
			},
			{
				"type": "unocc",
				"energy": 0.07882,
				"method": "rhf"
			},
			{
				"type": "unocc",
				"energy": 0.08303,
				"method": "rhf"
			},
			{
				"type": "unocc",
				"energy": 0.10382,
				"method": "rhf"
			}
		],
		"cosmo_sigma_profile": { 
			"-0.025": 0.0,
			"-0.024": 0.0,
			"-0.023": 0.0,
			"-0.022": 0.0,
			"-0.021": 0.0,
			"-0.02": 0.0,
			"-0.019": 0.0,
			"-0.018": 0.0140248460372,
			"-0.017": 0.702400392256,
			"-0.016": 1.07201992554,
			"-0.015": 0.870091993623,
			"-0.014": 0.90066885677,
			"-0.013": 0.968542809292,
			"-0.012": 0.709996038725,
			"-0.011": 2.12137331656,
			"-0.01": 1.9131855128,
			"-0.009": 2.34629861624,
			"-0.008": 3.28383879661,
			"-0.007": 1.88118514856,
			"-0.006": 2.81100645399,
			"-0.005": 7.73289625124,
			"-0.004": 14.8235581028,
			"-0.003": 19.0884406741,
			"-0.002": 20.7825894806,
			"-0.001": 20.6080415888,
			"0.0": 17.581941923,
			"0.001": 18.285928405,
			"0.002": 9.40426839119,
			"0.003": 7.88619525193,
			"0.004": 7.8290726072,
			"0.005": 8.80282077498,
			"0.006": 11.3816777359,
			"0.007": 10.5680961821,
			"0.008": 5.91265675991,
			"0.009": 1.89575587848,
			"0.01": 1.85756664073,
			"0.011": 1.54437455248,
			"0.012": 2.15190125382,
			"0.013": 0.260774981593,
			"0.014": 0.0,
			"0.015": 0.0,
			"0.016": 0.0,
			"0.017": 0.0,
			"0.018": 0.0,
			"0.019": 0.0,
			"0.02": 0.0,
			"0.021": 0.0,
			"0.022": 0.0,
			"0.023": 0.0,
			"0.024": 0.0,
			"0.025": 0.0
		}
	}
}
