{
	 "smiles": "COC(=O)C1=CC2=C(C=C1)C(Cl)=NC=N2", 
	 "Tm": 378.15, 
	 "num_atms": 22, 
	 "gaussian": { 
		 "optdone": 1, 
		 "sigma_profile": "yes", 
		 "theory": "DFT", 
		 "functional": "B3LYP", 
		 "basiset": "6-31G**", 
		 "properties": { 
			 "R2extent": 4431.658, 
			 "electric_dipole_moment_norm": 3.55826907077, 
			 "electric_quadrupole_moment_norm": 10.3087825993, 
			 "total_energy": -1105.43865212, 
			 "HOMO_LUMO_gap": 0.16896, 
			 "cosmo_polarized_energy": -9.89, 
			 "cosmo_cavitation_energy": 29.09, 
			 "cosmo_dispersion_energy": -21.77, 
			 "cosmo_repulsion_energy": 1.67, 
			 "cosmo_total_nonelectrostatic_energy": 9.0, 
			 "SMD_solvation_energy": 3.39 
		},
		"coords": [
			{
				"x": -3.6487575614,
				"y": -2.8606762684,
				"z": -1.5162497738,
				"element": "C" 
			},
			{
				"x": -2.4171738892,
				"y": -2.1334581955,
				"z": -1.3671348915,
				"element": "O" 
			},
			{
				"x": -2.2482681573,
				"y": -1.5270955682,
				"z": -0.1731332565,
				"element": "C" 
			},
			{
				"x": -3.0626727799,
				"y": -1.5773383392,
				"z": 0.7257090281,
				"element": "O" 
			},
			{
				"x": -0.9470110888,
				"y": -0.7915592841,
				"z": -0.0918416192,
				"element": "C" 
			},
			{
				"x": -0.6585238888,
				"y": -0.1284513167,
				"z": 1.0852449371,
				"element": "C" 
			},
			{
				"x": 0.5561524615,
				"y": 0.5849317194,
				"z": 1.2230741556,
				"element": "C" 
			},
			{
				"x": 1.4749364462,
				"y": 0.6069038849,
				"z": 0.1274762224,
				"element": "C" 
			},
			{
				"x": 1.1583873738,
				"y": -0.0800324926,
				"z": -1.0698795741,
				"element": "C" 
			},
			{
				"x": -0.029703416,
				"y": -0.7658353704,
				"z": -1.1769716416,
				"element": "C" 
			},
			{
				"x": 2.6631403672,
				"y": 1.3549531431,
				"z": 0.3787523932,
				"element": "C" 
			},
			{
				"x": 3.8901466083,
				"y": 1.4730657551,
				"z": -0.8784117939,
				"element": "Cl" 
			},
			{
				"x": 2.9099718642,
				"y": 1.970473658,
				"z": 1.497394287,
				"element": "N" 
			},
			{
				"x": 1.9554945711,
				"y": 1.8757819263,
				"z": 2.4688538657,
				"element": "C" 
			},
			{
				"x": 0.8162227999,
				"y": 1.2319149857,
				"z": 2.3981207428,
				"element": "N" 
			},
			{
				"x": -3.6218816881,
				"y": -3.2802310313,
				"z": -2.5214839029,
				"element": "H" 
			},
			{
				"x": -4.5044273396,
				"y": -2.1912498905,
				"z": -1.4000708882,
				"element": "H" 
			},
			{
				"x": -3.7170143724,
				"y": -3.6543025109,
				"z": -0.7683861733,
				"element": "H" 
			},
			{
				"x": -1.3566127215,
				"y": -0.1467056567,
				"z": 1.9140133783,
				"element": "H" 
			},
			{
				"x": 1.8602078904,
				"y": -0.0583593752,
				"z": -1.8955143568,
				"element": "H" 
			},
			{
				"x": -0.2787887744,
				"y": -1.293582017,
				"z": -2.0895477257,
				"element": "H" 
			},
			{
				"x": 2.1837752951,
				"y": 2.3981522444,
				"z": 3.3946865872,
				"element": "H" 
			}
		],
		 "valence_orbital": [ 
			{
				"type": "occ",
				"energy": -0.31384,
				"method": "rhf"
			},
			{
				"type": "occ",
				"energy": -0.28869,
				"method": "rhf"
			},
			{
				"type": "occ",
				"energy": -0.28819,
				"method": "rhf"
			},
			{
				"type": "occ",
				"energy": -0.27146,
				"method": "rhf"
			},
			{
				"type": "occ",
				"energy": -0.2601,
				"method": "rhf"
			},
			{
				"type": "unocc",
				"energy": -0.09114,
				"method": "rhf"
			},
			{
				"type": "unocc",
				"energy": -0.05855,
				"method": "rhf"
			},
			{
				"type": "unocc",
				"energy": -0.00923,
				"method": "rhf"
			},
			{
				"type": "unocc",
				"energy": 0.0146,
				"method": "rhf"
			},
			{
				"type": "unocc",
				"energy": 0.02108,
				"method": "rhf"
			}
		],
		"cosmo_sigma_profile": { 
			"-0.025": 0.0,
			"-0.024": 0.0,
			"-0.023": 0.0,
			"-0.022": 0.0,
			"-0.021": 0.0,
			"-0.02": 0.0,
			"-0.019": 0.0,
			"-0.018": 0.0,
			"-0.017": 0.0,
			"-0.016": 0.0,
			"-0.015": 0.0,
			"-0.014": 0.0,
			"-0.013": 0.0,
			"-0.012": 0.0,
			"-0.011": 0.0,
			"-0.01": 0.0,
			"-0.009": 0.479590545356,
			"-0.008": 2.65155724759,
			"-0.007": 6.02181028581,
			"-0.006": 12.6531318631,
			"-0.005": 12.7976293909,
			"-0.004": 19.9610915037,
			"-0.003": 23.9362144997,
			"-0.002": 22.7122882565,
			"-0.001": 25.0828037526,
			"0.0": 22.8427030707,
			"0.001": 16.785918064,
			"0.002": 13.609165841,
			"0.003": 11.797107753,
			"0.004": 9.26016711954,
			"0.005": 6.71305957737,
			"0.006": 3.54834379096,
			"0.007": 3.79272259742,
			"0.008": 4.24453181224,
			"0.009": 3.03818365448,
			"0.01": 3.80905571206,
			"0.011": 6.43243646904,
			"0.012": 2.82745598935,
			"0.013": 1.53094392527,
			"0.014": 0.589223113219,
			"0.015": 0.0,
			"0.016": 0.0,
			"0.017": 0.0,
			"0.018": 0.0,
			"0.019": 0.0,
			"0.02": 0.0,
			"0.021": 0.0,
			"0.022": 0.0,
			"0.023": 0.0,
			"0.024": 0.0,
			"0.025": 0.0
		}
	}
}
