{
	 "smiles": "CCCCCC1=C(O)C=C(O)C=C1", 
	 "Tm": 345.65, 
	 "num_atms": 29, 
	 "gaussian": { 
		 "optdone": 1, 
		 "sigma_profile": "yes", 
		 "theory": "DFT", 
		 "functional": "B3LYP", 
		 "basiset": "6-31G**", 
		 "properties": { 
			 "R2extent": 4506.7076, 
			 "electric_dipole_moment_norm": 1.03163372376, 
			 "electric_quadrupole_moment_norm": 8.26672066965, 
			 "total_energy": -579.272472156, 
			 "HOMO_LUMO_gap": 0.21397, 
			 "cosmo_polarized_energy": -11.59, 
			 "cosmo_cavitation_energy": 31.32, 
			 "cosmo_dispersion_energy": -22.34, 
			 "cosmo_repulsion_energy": 1.8, 
			 "cosmo_total_nonelectrostatic_energy": 10.78, 
			 "SMD_solvation_energy": 5.49 
		},
		"coords": [
			{
				"x": -1.608260556,
				"y": 0.1208156075,
				"z": 2.7416162221,
				"element": "C" 
			},
			{
				"x": -2.0642652073,
				"y": -0.8951735553,
				"z": 1.6876803397,
				"element": "C" 
			},
			{
				"x": -2.5117629124,
				"y": -0.2685572563,
				"z": 0.3548286014,
				"element": "C" 
			},
			{
				"x": -1.4346121048,
				"y": 0.5066367868,
				"z": -0.4230160027,
				"element": "C" 
			},
			{
				"x": -0.2530062123,
				"y": -0.3634931994,
				"z": -0.9013641571,
				"element": "C" 
			},
			{
				"x": 0.7560838859,
				"y": 0.398888784,
				"z": -1.7302378605,
				"element": "C" 
			},
			{
				"x": 0.504657717,
				"y": 0.6981613875,
				"z": -3.0841796422,
				"element": "C" 
			},
			{
				"x": -0.6785121868,
				"y": 0.2500625358,
				"z": -3.6106154245,
				"element": "O" 
			},
			{
				"x": 1.4182595166,
				"y": 1.4143237186,
				"z": -3.8570603659,
				"element": "C" 
			},
			{
				"x": 2.6158945795,
				"y": 1.854653418,
				"z": -3.286190507,
				"element": "C" 
			},
			{
				"x": 3.4706388381,
				"y": 2.551808826,
				"z": -4.0953018193,
				"element": "O" 
			},
			{
				"x": 2.8944429647,
				"y": 1.5748466678,
				"z": -1.9471152847,
				"element": "C" 
			},
			{
				"x": 1.9630011849,
				"y": 0.8534890888,
				"z": -1.1962968952,
				"element": "C" 
			},
			{
				"x": -1.3611199358,
				"y": -0.3744467238,
				"z": 3.6866047326,
				"element": "H" 
			},
			{
				"x": -2.3954374483,
				"y": 0.8556781724,
				"z": 2.9476889017,
				"element": "H" 
			},
			{
				"x": -0.7194295821,
				"y": 0.6735472598,
				"z": 2.4196485997,
				"element": "H" 
			},
			{
				"x": -1.2607721456,
				"y": -1.6212717728,
				"z": 1.5086947029,
				"element": "H" 
			},
			{
				"x": -2.9028810837,
				"y": -1.4760215743,
				"z": 2.0929533648,
				"element": "H" 
			},
			{
				"x": -2.9088620698,
				"y": -1.0626797862,
				"z": -0.2923861743,
				"element": "H" 
			},
			{
				"x": -3.3537509071,
				"y": 0.409238216,
				"z": 0.5530763582,
				"element": "H" 
			},
			{
				"x": -1.0469452164,
				"y": 1.3339300144,
				"z": 0.1848333278,
				"element": "H" 
			},
			{
				"x": -1.9010864373,
				"y": 0.9662483623,
				"z": -1.3015300425,
				"element": "H" 
			},
			{
				"x": -0.6506826668,
				"y": -1.2019339343,
				"z": -1.4865303266,
				"element": "H" 
			},
			{
				"x": 0.2628439163,
				"y": -0.798325663,
				"z": -0.0376214031,
				"element": "H" 
			},
			{
				"x": -0.7246136982,
				"y": 0.5035561036,
				"z": -4.5413798524,
				"element": "H" 
			},
			{
				"x": 1.2187679967,
				"y": 1.6392011449,
				"z": -4.9015292589,
				"element": "H" 
			},
			{
				"x": 4.2522117109,
				"y": 2.7971712051,
				"z": -3.5837593412,
				"element": "H" 
			},
			{
				"x": 3.8256597392,
				"y": 1.9100607007,
				"z": -1.4965808814,
				"element": "H" 
			},
			{
				"x": 2.1859383205,
				"y": 0.6323854652,
				"z": -0.1552299117,
				"element": "H" 
			}
		],
		 "valence_orbital": [ 
			{
				"type": "occ",
				"energy": -0.30834,
				"method": "rhf"
			},
			{
				"type": "occ",
				"energy": -0.30624,
				"method": "rhf"
			},
			{
				"type": "occ",
				"energy": -0.29798,
				"method": "rhf"
			},
			{
				"type": "occ",
				"energy": -0.2298,
				"method": "rhf"
			},
			{
				"type": "occ",
				"energy": -0.20467,
				"method": "rhf"
			},
			{
				"type": "unocc",
				"energy": 0.0093,
				"method": "rhf"
			},
			{
				"type": "unocc",
				"energy": 0.02462,
				"method": "rhf"
			},
			{
				"type": "unocc",
				"energy": 0.0703,
				"method": "rhf"
			},
			{
				"type": "unocc",
				"energy": 0.07413,
				"method": "rhf"
			},
			{
				"type": "unocc",
				"energy": 0.09082,
				"method": "rhf"
			}
		],
		"cosmo_sigma_profile": { 
			"-0.025": 0.0,
			"-0.024": 0.0,
			"-0.023": 0.0,
			"-0.022": 0.0,
			"-0.021": 0.0,
			"-0.02": 0.0,
			"-0.019": 0.0,
			"-0.018": 0.221341053681,
			"-0.017": 2.18686902227,
			"-0.016": 1.74983259431,
			"-0.015": 2.03793566888,
			"-0.014": 1.84998723386,
			"-0.013": 2.12908070681,
			"-0.012": 2.34003794242,
			"-0.011": 1.59749959271,
			"-0.01": 1.79155179962,
			"-0.009": 2.08581427295,
			"-0.008": 2.32924978255,
			"-0.007": 2.23067190459,
			"-0.006": 3.28530324498,
			"-0.005": 4.87485640762,
			"-0.004": 6.12454319657,
			"-0.003": 10.4496460863,
			"-0.002": 22.6934458865,
			"-0.001": 28.1480514057,
			"0.0": 31.9678814529,
			"0.001": 30.6660014079,
			"0.002": 17.8786103435,
			"0.003": 10.0178858685,
			"0.004": 13.1020278529,
			"0.005": 13.363474992,
			"0.006": 11.219085926,
			"0.007": 5.0970927931,
			"0.008": 2.91468498567,
			"0.009": 3.0801825658,
			"0.01": 3.47885566423,
			"0.011": 1.87393592474,
			"0.012": 1.32459011648,
			"0.013": 0.0,
			"0.014": 0.0,
			"0.015": 0.0,
			"0.016": 0.0,
			"0.017": 0.0,
			"0.018": 0.0,
			"0.019": 0.0,
			"0.02": 0.0,
			"0.021": 0.0,
			"0.022": 0.0,
			"0.023": 0.0,
			"0.024": 0.0,
			"0.025": 0.0
		}
	}
}
