{
	 "smiles": "FC(F)(F)COC(=O)NC1=NC=CC=C1", 
	 "Tm": 424.15, 
	 "num_atms": 22, 
	 "gaussian": { 
		 "optdone": 1, 
		 "sigma_profile": "yes", 
		 "theory": "DFT", 
		 "functional": "B3LYP", 
		 "basiset": "6-31G**", 
		 "properties": { 
			 "R2extent": 4534.5536, 
			 "electric_dipole_moment_norm": 3.76462790193, 
			 "electric_quadrupole_moment_norm": 9.72153205776, 
			 "total_energy": -868.558614003, 
			 "HOMO_LUMO_gap": 0.20848, 
			 "cosmo_polarized_energy": -13.81, 
			 "cosmo_cavitation_energy": 29.06, 
			 "cosmo_dispersion_energy": -20.34, 
			 "cosmo_repulsion_energy": 1.56, 
			 "cosmo_total_nonelectrostatic_energy": 10.28, 
			 "SMD_solvation_energy": 6.43 
		},
		"coords": [
			{
				"x": 3.0597840358,
				"y": 2.4761889786,
				"z": -1.2558900145,
				"element": "F" 
			},
			{
				"x": 3.273669262,
				"y": 1.3794351355,
				"z": -2.0054449041,
				"element": "C" 
			},
			{
				"x": 3.6974004837,
				"y": 0.3991038762,
				"z": -1.1868876315,
				"element": "F" 
			},
			{
				"x": 4.2689464306,
				"y": 1.6504510274,
				"z": -2.877926094,
				"element": "F" 
			},
			{
				"x": 2.028318312,
				"y": 0.976934139,
				"z": -2.7776549619,
				"element": "C" 
			},
			{
				"x": 0.9652450918,
				"y": 0.7108737436,
				"z": -1.8695257161,
				"element": "O" 
			},
			{
				"x": 0.032432803,
				"y": 1.6853880763,
				"z": -1.757931213,
				"element": "C" 
			},
			{
				"x": 0.0146248424,
				"y": 2.714526192,
				"z": -2.4049586171,
				"element": "O" 
			},
			{
				"x": -0.9308862414,
				"y": 1.4106396088,
				"z": -0.8095635533,
				"element": "N" 
			},
			{
				"x": -1.1733015998,
				"y": 0.3050299318,
				"z": 0.0264469959,
				"element": "C" 
			},
			{
				"x": -0.5975506077,
				"y": -0.8637070055,
				"z": -0.2488833989,
				"element": "N" 
			},
			{
				"x": -0.8681432925,
				"y": -1.8935581563,
				"z": 0.5632073791,
				"element": "C" 
			},
			{
				"x": -1.725573569,
				"y": -1.8209344866,
				"z": 1.65761188,
				"element": "C" 
			},
			{
				"x": -2.3325578815,
				"y": -0.5912393083,
				"z": 1.926847132,
				"element": "C" 
			},
			{
				"x": -2.0542338923,
				"y": 0.4945389656,
				"z": 1.1083568767,
				"element": "C" 
			},
			{
				"x": 2.2354020831,
				"y": 0.0524951386,
				"z": -3.3198220843,
				"element": "H" 
			},
			{
				"x": 1.7625443882,
				"y": 1.780282706,
				"z": -3.466149393,
				"element": "H" 
			},
			{
				"x": -1.5551424396,
				"y": 2.196979538,
				"z": -0.70022166,
				"element": "H" 
			},
			{
				"x": -0.3733060903,
				"y": -2.8300935684,
				"z": 0.3122910577,
				"element": "H" 
			},
			{
				"x": -1.9114693522,
				"y": -2.6933308208,
				"z": 2.2745894547,
				"element": "H" 
			},
			{
				"x": -3.0086920036,
				"y": -0.4773101564,
				"z": 2.7690993665,
				"element": "H" 
			},
			{
				"x": -2.4961107626,
				"y": 1.4682064448,
				"z": 1.2994090992,
				"element": "H" 
			}
		],
		 "valence_orbital": [ 
			{
				"type": "occ",
				"energy": -0.30949,
				"method": "rhf"
			},
			{
				"type": "occ",
				"energy": -0.29345,
				"method": "rhf"
			},
			{
				"type": "occ",
				"energy": -0.29073,
				"method": "rhf"
			},
			{
				"type": "occ",
				"energy": -0.26418,
				"method": "rhf"
			},
			{
				"type": "occ",
				"energy": -0.23982,
				"method": "rhf"
			},
			{
				"type": "unocc",
				"energy": -0.03134,
				"method": "rhf"
			},
			{
				"type": "unocc",
				"energy": -0.02031,
				"method": "rhf"
			},
			{
				"type": "unocc",
				"energy": 0.04984,
				"method": "rhf"
			},
			{
				"type": "unocc",
				"energy": 0.06849,
				"method": "rhf"
			},
			{
				"type": "unocc",
				"energy": 0.09215,
				"method": "rhf"
			}
		],
		"cosmo_sigma_profile": { 
			"-0.025": 0.0,
			"-0.024": 0.0,
			"-0.023": 0.0,
			"-0.022": 0.0,
			"-0.021": 0.0,
			"-0.02": 0.0,
			"-0.019": 0.0,
			"-0.018": 0.0,
			"-0.017": 0.0,
			"-0.016": 0.406317777881,
			"-0.015": 1.27936399927,
			"-0.014": 1.00744836738,
			"-0.013": 0.899051782286,
			"-0.012": 1.50154208019,
			"-0.011": 1.47299037695,
			"-0.01": 1.41100261347,
			"-0.009": 3.73318317641,
			"-0.008": 5.84150519855,
			"-0.007": 10.5476519088,
			"-0.006": 12.6924820709,
			"-0.005": 12.1310198986,
			"-0.004": 10.5357337521,
			"-0.003": 9.69745826796,
			"-0.002": 11.4444417221,
			"-0.001": 10.9691643132,
			"0.0": 15.8991347822,
			"0.001": 17.2689326216,
			"0.002": 36.3612775444,
			"0.003": 31.1929346097,
			"0.004": 5.95615942616,
			"0.005": 3.97093053944,
			"0.006": 2.67838292011,
			"0.007": 2.62160253865,
			"0.008": 3.37195838115,
			"0.009": 2.76606690026,
			"0.01": 2.31095563622,
			"0.011": 4.42457188841,
			"0.012": 5.1795010364,
			"0.013": 1.19328158774,
			"0.014": 0.599516057928,
			"0.015": 0.999328381635,
			"0.016": 0.559828910453,
			"0.017": 0.0245045243116,
			"0.018": 0.0,
			"0.019": 0.0,
			"0.02": 0.0,
			"0.021": 0.0,
			"0.022": 0.0,
			"0.023": 0.0,
			"0.024": 0.0,
			"0.025": 0.0
		}
	}
}
