{
	 "smiles": "O=C(C1=CC=CC=C1)C1=CC=C2C=CC=CC2=C1", 
	 "Tm": 354.15, 
	 "num_atms": 30, 
	 "gaussian": { 
		 "optdone": 1, 
		 "sigma_profile": "yes", 
		 "theory": "DFT", 
		 "functional": "B3LYP", 
		 "basiset": "6-31G**", 
		 "properties": { 
			 "R2extent": 5582.5292, 
			 "electric_dipole_moment_norm": 3.23179468098, 
			 "electric_quadrupole_moment_norm": 15.0042147719, 
			 "total_energy": -730.280409422, 
			 "HOMO_LUMO_gap": 0.15702, 
			 "cosmo_polarized_energy": -9.96, 
			 "cosmo_cavitation_energy": 34.18, 
			 "cosmo_dispersion_energy": -24.79, 
			 "cosmo_repulsion_energy": 1.87, 
			 "cosmo_total_nonelectrostatic_energy": 11.26, 
			 "SMD_solvation_energy": 5.84 
		},
		"coords": [
			{
				"x": -1.8660122478,
				"y": 2.7442003872,
				"z": -1.2881935778,
				"element": "O" 
			},
			{
				"x": -1.4528005744,
				"y": 1.6378430065,
				"z": -0.9550638356,
				"element": "C" 
			},
			{
				"x": -2.2281012629,
				"y": 0.4100684764,
				"z": -1.335484737,
				"element": "C" 
			},
			{
				"x": -3.6127977428,
				"y": 0.5470245683,
				"z": -1.5259109232,
				"element": "C" 
			},
			{
				"x": -4.3820740853,
				"y": -0.5417198837,
				"z": -1.9248697301,
				"element": "C" 
			},
			{
				"x": -3.7734032223,
				"y": -1.7775239865,
				"z": -2.1660955894,
				"element": "C" 
			},
			{
				"x": -2.3939529009,
				"y": -1.917328185,
				"z": -2.00690283,
				"element": "C" 
			},
			{
				"x": -1.623706693,
				"y": -0.8313611933,
				"z": -1.5880542565,
				"element": "C" 
			},
			{
				"x": -0.1821430619,
				"y": 1.5304790133,
				"z": -0.1672354818,
				"element": "C" 
			},
			{
				"x": 0.7519969264,
				"y": 2.6009725603,
				"z": -0.2778374226,
				"element": "C" 
			},
			{
				"x": 1.9098391488,
				"y": 2.5994300824,
				"z": 0.4577006887,
				"element": "C" 
			},
			{
				"x": 2.1966232687,
				"y": 1.5464014871,
				"z": 1.3718150636,
				"element": "C" 
			},
			{
				"x": 3.3803450513,
				"y": 1.5177957978,
				"z": 2.1546375219,
				"element": "C" 
			},
			{
				"x": 3.6157071935,
				"y": 0.4875742272,
				"z": 3.0387362885,
				"element": "C" 
			},
			{
				"x": 2.6765756507,
				"y": -0.563144874,
				"z": 3.1821928011,
				"element": "C" 
			},
			{
				"x": 1.5192911997,
				"y": -0.5647508836,
				"z": 2.436276259,
				"element": "C" 
			},
			{
				"x": 1.2488945482,
				"y": 0.4810618116,
				"z": 1.5124222704,
				"element": "C" 
			},
			{
				"x": 0.0695595905,
				"y": 0.4998996836,
				"z": 0.721950006,
				"element": "C" 
			},
			{
				"x": -4.0624613579,
				"y": 1.5197760825,
				"z": -1.3566252982,
				"element": "H" 
			},
			{
				"x": -5.4544824427,
				"y": -0.4289577016,
				"z": -2.0552921972,
				"element": "H" 
			},
			{
				"x": -4.3725571031,
				"y": -2.6260211739,
				"z": -2.4842968525,
				"element": "H" 
			},
			{
				"x": -1.91540467,
				"y": -2.8704423683,
				"z": -2.2125895159,
				"element": "H" 
			},
			{
				"x": -0.549532012,
				"y": -0.941372353,
				"z": -1.4839715092,
				"element": "H" 
			},
			{
				"x": 0.5163085502,
				"y": 3.4126983825,
				"z": -0.9573159455,
				"element": "H" 
			},
			{
				"x": 2.6242876028,
				"y": 3.4124869904,
				"z": 0.3570799871,
				"element": "H" 
			},
			{
				"x": 4.0992813331,
				"y": 2.3257271936,
				"z": 2.0464236677,
				"element": "H" 
			},
			{
				"x": 4.5250288861,
				"y": 0.4783027436,
				"z": 3.6327467586,
				"element": "H" 
			},
			{
				"x": 2.8740778644,
				"y": -1.3679363839,
				"z": 3.8841526875,
				"element": "H" 
			},
			{
				"x": 0.7957686807,
				"y": -1.3690114823,
				"z": 2.5426862354,
				"element": "H" 
			},
			{
				"x": -0.6497561181,
				"y": -0.3033720248,
				"z": 0.847619467,
				"element": "H" 
			}
		],
		 "valence_orbital": [ 
			{
				"type": "occ",
				"energy": -0.26061,
				"method": "rhf"
			},
			{
				"type": "occ",
				"energy": -0.25876,
				"method": "rhf"
			},
			{
				"type": "occ",
				"energy": -0.25196,
				"method": "rhf"
			},
			{
				"type": "occ",
				"energy": -0.24181,
				"method": "rhf"
			},
			{
				"type": "occ",
				"energy": -0.22354,
				"method": "rhf"
			},
			{
				"type": "unocc",
				"energy": -0.06652,
				"method": "rhf"
			},
			{
				"type": "unocc",
				"energy": -0.03967,
				"method": "rhf"
			},
			{
				"type": "unocc",
				"energy": -0.01423,
				"method": "rhf"
			},
			{
				"type": "unocc",
				"energy": -0.00829,
				"method": "rhf"
			},
			{
				"type": "unocc",
				"energy": 0.02169,
				"method": "rhf"
			}
		],
		"cosmo_sigma_profile": { 
			"-0.025": 0.0,
			"-0.024": 0.0,
			"-0.023": 0.0,
			"-0.022": 0.0,
			"-0.021": 0.0,
			"-0.02": 0.0,
			"-0.019": 0.0,
			"-0.018": 0.0,
			"-0.017": 0.0,
			"-0.016": 0.0,
			"-0.015": 0.0,
			"-0.014": 0.0,
			"-0.013": 0.0,
			"-0.012": 0.0,
			"-0.011": 0.0,
			"-0.01": 0.0,
			"-0.009": 0.0,
			"-0.008": 0.0,
			"-0.007": 3.29181901735,
			"-0.006": 21.2340057685,
			"-0.005": 22.8942417379,
			"-0.004": 26.4067417502,
			"-0.003": 20.499914013,
			"-0.002": 19.6237257659,
			"-0.001": 16.2865950049,
			"0.0": 17.8873765525,
			"0.001": 17.4103731797,
			"0.002": 21.4320320677,
			"0.003": 33.2296217972,
			"0.004": 28.8928768386,
			"0.005": 8.82012762619,
			"0.006": 1.80827020463,
			"0.007": 1.83072177695,
			"0.008": 2.218849236,
			"0.009": 1.66139442581,
			"0.01": 1.75731313505,
			"0.011": 2.917690401,
			"0.012": 4.17896693601,
			"0.013": 0.93386014092,
			"0.014": 0.0,
			"0.015": 0.0,
			"0.016": 0.0,
			"0.017": 0.0,
			"0.018": 0.0,
			"0.019": 0.0,
			"0.02": 0.0,
			"0.021": 0.0,
			"0.022": 0.0,
			"0.023": 0.0,
			"0.024": 0.0,
			"0.025": 0.0
		}
	}
}
