{
	 "smiles": "CC(C)C(=O)NC1=CC(N)=CC=C1", 
	 "Tm": 393.15, 
	 "num_atms": 27, 
	 "gaussian": { 
		 "optdone": 1, 
		 "sigma_profile": "yes", 
		 "theory": "DFT", 
		 "functional": "B3LYP", 
		 "basiset": "6-31G**", 
		 "properties": { 
			 "R2extent": 3309.6192, 
			 "electric_dipole_moment_norm": 4.87861096625, 
			 "electric_quadrupole_moment_norm": 22.1246665227, 
			 "total_energy": -574.248060891, 
			 "HOMO_LUMO_gap": 0.19854, 
			 "cosmo_polarized_energy": -14.72, 
			 "cosmo_cavitation_energy": 29.63, 
			 "cosmo_dispersion_energy": -20.87, 
			 "cosmo_repulsion_energy": 1.68, 
			 "cosmo_total_nonelectrostatic_energy": 10.44, 
			 "SMD_solvation_energy": 5.81 
		},
		"coords": [
			{
				"x": -3.4435223176,
				"y": 0.4916165351,
				"z": 1.7335939821,
				"element": "C" 
			},
			{
				"x": -2.6233802056,
				"y": -0.6746640732,
				"z": 2.3195971147,
				"element": "C" 
			},
			{
				"x": -2.3189635126,
				"y": -1.7561004771,
				"z": 1.2721115687,
				"element": "C" 
			},
			{
				"x": -1.4380896888,
				"y": -0.1579334109,
				"z": 3.1523329225,
				"element": "C" 
			},
			{
				"x": -1.6063498346,
				"y": 0.1184431795,
				"z": 4.3351356525,
				"element": "O" 
			},
			{
				"x": -0.1665495706,
				"y": -0.043966589,
				"z": 2.6194230617,
				"element": "N" 
			},
			{
				"x": 0.3121601935,
				"y": -0.0417664901,
				"z": 1.2746431484,
				"element": "C" 
			},
			{
				"x": 1.2746093579,
				"y": -0.9859957544,
				"z": 0.9081089574,
				"element": "C" 
			},
			{
				"x": 1.8210531808,
				"y": -0.9906263056,
				"z": -0.385707743,
				"element": "C" 
			},
			{
				"x": 2.7383866853,
				"y": -1.9690782379,
				"z": -0.7638536685,
				"element": "N" 
			},
			{
				"x": 1.3713834049,
				"y": -0.0309274912,
				"z": -1.3110323553,
				"element": "C" 
			},
			{
				"x": 0.4182841553,
				"y": 0.9109788584,
				"z": -0.9354724375,
				"element": "C" 
			},
			{
				"x": -0.1090715935,
				"y": 0.9280451718,
				"z": 0.3571550791,
				"element": "C" 
			},
			{
				"x": -3.6495427043,
				"y": 1.2449232996,
				"z": 2.4995264906,
				"element": "H" 
			},
			{
				"x": -2.9249976003,
				"y": 0.9727242591,
				"z": 0.8993725734,
				"element": "H" 
			},
			{
				"x": -4.4020044599,
				"y": 0.11957153,
				"z": 1.3563713898,
				"element": "H" 
			},
			{
				"x": -3.2429177375,
				"y": -1.1293439496,
				"z": 3.1002410181,
				"element": "H" 
			},
			{
				"x": -3.2598959213,
				"y": -2.2061441995,
				"z": 0.9369410572,
				"element": "H" 
			},
			{
				"x": -1.811271358,
				"y": -1.3568071941,
				"z": 0.391784511,
				"element": "H" 
			},
			{
				"x": -1.6979824339,
				"y": -2.5560952261,
				"z": 1.687265831,
				"element": "H" 
			},
			{
				"x": 0.4997887402,
				"y": 0.2181620875,
				"z": 3.3372017919,
				"element": "H" 
			},
			{
				"x": 1.5838317259,
				"y": -1.7338016188,
				"z": 1.6334584358,
				"element": "H" 
			},
			{
				"x": 3.3275118021,
				"y": -1.7328982913,
				"z": -1.5498554648,
				"element": "H" 
			},
			{
				"x": 3.2587075599,
				"y": -2.3949170764,
				"z": -0.0097845691,
				"element": "H" 
			},
			{
				"x": 1.7754532598,
				"y": -0.0283116069,
				"z": -2.3200908188,
				"element": "H" 
			},
			{
				"x": 0.0955029473,
				"y": 1.6568543077,
				"z": -1.6563258416,
				"element": "H" 
			},
			{
				"x": -0.8129340742,
				"y": 1.6927587631,
				"z": 0.6639583125,
				"element": "H" 
			}
		],
		 "valence_orbital": [ 
			{
				"type": "occ",
				"energy": -0.31358,
				"method": "rhf"
			},
			{
				"type": "occ",
				"energy": -0.26908,
				"method": "rhf"
			},
			{
				"type": "occ",
				"energy": -0.23608,
				"method": "rhf"
			},
			{
				"type": "occ",
				"energy": -0.23424,
				"method": "rhf"
			},
			{
				"type": "occ",
				"energy": -0.21091,
				"method": "rhf"
			},
			{
				"type": "unocc",
				"energy": -0.01237,
				"method": "rhf"
			},
			{
				"type": "unocc",
				"energy": 0.00639,
				"method": "rhf"
			},
			{
				"type": "unocc",
				"energy": 0.03585,
				"method": "rhf"
			},
			{
				"type": "unocc",
				"energy": 0.0735,
				"method": "rhf"
			},
			{
				"type": "unocc",
				"energy": 0.09372,
				"method": "rhf"
			}
		],
		"cosmo_sigma_profile": { 
			"-0.025": 0.0,
			"-0.024": 0.0,
			"-0.023": 0.0,
			"-0.022": 0.0,
			"-0.021": 0.0,
			"-0.02": 0.0,
			"-0.019": 0.0,
			"-0.018": 0.0,
			"-0.017": 0.0,
			"-0.016": 0.0,
			"-0.015": 0.0,
			"-0.014": 0.0991311365247,
			"-0.013": 1.32586457491,
			"-0.012": 3.92922362626,
			"-0.011": 3.22979530639,
			"-0.01": 3.59254733376,
			"-0.009": 4.25774945945,
			"-0.008": 3.70136473825,
			"-0.007": 5.08515562934,
			"-0.006": 5.59764130372,
			"-0.005": 9.77647573641,
			"-0.004": 12.4806164755,
			"-0.003": 20.8780375521,
			"-0.002": 20.2506602119,
			"-0.001": 21.151802833,
			"0.0": 22.8276078038,
			"0.001": 20.2980229628,
			"0.002": 12.1381920023,
			"0.003": 9.72991715566,
			"0.004": 10.2195663474,
			"0.005": 9.70307441694,
			"0.006": 7.61701394909,
			"0.007": 2.03649251287,
			"0.008": 2.05937486642,
			"0.009": 2.1627943911,
			"0.01": 2.2099693052,
			"0.011": 1.79833223832,
			"0.012": 2.09026419941,
			"0.013": 4.03074559624,
			"0.014": 5.89482799403,
			"0.015": 2.07958969138,
			"0.016": 0.176049842339,
			"0.017": 0.0,
			"0.018": 0.0,
			"0.019": 0.0,
			"0.02": 0.0,
			"0.021": 0.0,
			"0.022": 0.0,
			"0.023": 0.0,
			"0.024": 0.0,
			"0.025": 0.0
		}
	}
}
