{
	 "smiles": "CC1=CC=CC(=C1N=C=O)C(C)(C)C", 
	 "Tm": 310.15, 
	 "num_atms": 29, 
	 "gaussian": { 
		 "optdone": 1, 
		 "sigma_profile": "yes", 
		 "theory": "DFT", 
		 "functional": "B3LYP", 
		 "basiset": "6-31G**", 
		 "properties": { 
			 "R2extent": 3173.0329, 
			 "electric_dipole_moment_norm": 2.22612711452, 
			 "electric_quadrupole_moment_norm": 8.88757613976, 
			 "total_energy": -596.310709687, 
			 "HOMO_LUMO_gap": 0.20881, 
			 "cosmo_polarized_energy": -4.7, 
			 "cosmo_cavitation_energy": 30.9, 
			 "cosmo_dispersion_energy": -21.58, 
			 "cosmo_repulsion_energy": 1.68, 
			 "cosmo_total_nonelectrostatic_energy": 11.0, 
			 "SMD_solvation_energy": 7.75 
		},
		"coords": [
			{
				"x": -0.3323923305,
				"y": 1.3930421735,
				"z": -3.2564903489,
				"element": "C" 
			},
			{
				"x": -0.7503203433,
				"y": 0.9068208392,
				"z": -1.8917788172,
				"element": "C" 
			},
			{
				"x": -1.8643459843,
				"y": 1.4586054383,
				"z": -1.2566910428,
				"element": "C" 
			},
			{
				"x": -2.2542527016,
				"y": 1.0142764856,
				"z": 0.0016620264,
				"element": "C" 
			},
			{
				"x": -1.5298176566,
				"y": 0.0091994152,
				"z": 0.6389524139,
				"element": "C" 
			},
			{
				"x": -0.402165721,
				"y": -0.5864598973,
				"z": 0.0563968823,
				"element": "C" 
			},
			{
				"x": -0.0297105982,
				"y": -0.1120647977,
				"z": -1.2266517809,
				"element": "C" 
			},
			{
				"x": 1.0879434385,
				"y": -0.666766284,
				"z": -1.8616203528,
				"element": "N" 
			},
			{
				"x": 1.7796722499,
				"y": -0.6447975116,
				"z": -2.847785948,
				"element": "C" 
			},
			{
				"x": 2.5362804295,
				"y": -0.7283054394,
				"z": -3.7518441788,
				"element": "O" 
			},
			{
				"x": 0.3778699109,
				"y": -1.6998831587,
				"z": 0.793615649,
				"element": "C" 
			},
			{
				"x": 0.3535992555,
				"y": -3.0109704804,
				"z": -0.0305847356,
				"element": "C" 
			},
			{
				"x": -0.2443168967,
				"y": -2.0207904629,
				"z": 2.1694981419,
				"element": "C" 
			},
			{
				"x": 1.8388388998,
				"y": -1.2544524126,
				"z": 1.0505885809,
				"element": "C" 
			},
			{
				"x": 0.6828144186,
				"y": 1.8080567048,
				"z": -3.2518391184,
				"element": "H" 
			},
			{
				"x": -0.3466869504,
				"y": 0.5884528405,
				"z": -4.0016728995,
				"element": "H" 
			},
			{
				"x": -1.0066578674,
				"y": 2.177812616,
				"z": -3.6071778714,
				"element": "H" 
			},
			{
				"x": -2.4243008144,
				"y": 2.2419877002,
				"z": -1.7599796066,
				"element": "H" 
			},
			{
				"x": -3.1218827558,
				"y": 1.4477695173,
				"z": 0.4902344731,
				"element": "H" 
			},
			{
				"x": -1.8579542475,
				"y": -0.3153467638,
				"z": 1.6177075432,
				"element": "H" 
			},
			{
				"x": -0.6761189615,
				"y": -3.3492340502,
				"z": -0.1881846054,
				"element": "H" 
			},
			{
				"x": 0.8874798442,
				"y": -3.7999490195,
				"z": 0.5109822163,
				"element": "H" 
			},
			{
				"x": 0.8265989012,
				"y": -2.8944420896,
				"z": -1.006383128,
				"element": "H" 
			},
			{
				"x": -1.274141913,
				"y": -2.382436435,
				"z": 2.0835082521,
				"element": "H" 
			},
			{
				"x": -0.2363208704,
				"y": -1.1547821332,
				"z": 2.839329545,
				"element": "H" 
			},
			{
				"x": 0.3408088817,
				"y": -2.8111656701,
				"z": 2.6498687992,
				"element": "H" 
			},
			{
				"x": 2.3763695008,
				"y": -2.0397620522,
				"z": 1.5938758317,
				"element": "H" 
			},
			{
				"x": 1.8638214301,
				"y": -0.345787166,
				"z": 1.6615623506,
				"element": "H" 
			},
			{
				"x": 2.3795894518,
				"y": -1.0567279063,
				"z": 0.1243017285,
				"element": "H" 
			}
		],
		 "valence_orbital": [ 
			{
				"type": "occ",
				"energy": -0.32042,
				"method": "rhf"
			},
			{
				"type": "occ",
				"energy": -0.32008,
				"method": "rhf"
			},
			{
				"type": "occ",
				"energy": -0.2914,
				"method": "rhf"
			},
			{
				"type": "occ",
				"energy": -0.2456,
				"method": "rhf"
			},
			{
				"type": "occ",
				"energy": -0.2286,
				"method": "rhf"
			},
			{
				"type": "unocc",
				"energy": -0.01979,
				"method": "rhf"
			},
			{
				"type": "unocc",
				"energy": -0.00302,
				"method": "rhf"
			},
			{
				"type": "unocc",
				"energy": 0.02653,
				"method": "rhf"
			},
			{
				"type": "unocc",
				"energy": 0.08117,
				"method": "rhf"
			},
			{
				"type": "unocc",
				"energy": 0.08876,
				"method": "rhf"
			}
		],
		"cosmo_sigma_profile": { 
			"-0.025": 0.0,
			"-0.024": 0.0,
			"-0.023": 0.0,
			"-0.022": 0.0,
			"-0.021": 0.0,
			"-0.02": 0.0,
			"-0.019": 0.0,
			"-0.018": 0.0,
			"-0.017": 0.0,
			"-0.016": 0.0,
			"-0.015": 0.0,
			"-0.014": 0.0,
			"-0.013": 0.0,
			"-0.012": 0.0,
			"-0.011": 0.0,
			"-0.01": 0.0,
			"-0.009": 0.0,
			"-0.008": 0.0,
			"-0.007": 0.0,
			"-0.006": 3.67921713906,
			"-0.005": 12.3059538019,
			"-0.004": 13.2435676891,
			"-0.003": 24.2053112371,
			"-0.002": 36.6004596025,
			"-0.001": 30.7977963133,
			"0.0": 26.408283032,
			"0.001": 31.3379075689,
			"0.002": 19.8233925046,
			"0.003": 9.47837974962,
			"0.004": 8.9840730337,
			"0.005": 9.33314450086,
			"0.006": 5.31389466255,
			"0.007": 2.95288289731,
			"0.008": 7.83695542694,
			"0.009": 1.42129633765,
			"0.01": 0.0,
			"0.011": 0.0,
			"0.012": 0.0,
			"0.013": 0.0,
			"0.014": 0.0,
			"0.015": 0.0,
			"0.016": 0.0,
			"0.017": 0.0,
			"0.018": 0.0,
			"0.019": 0.0,
			"0.02": 0.0,
			"0.021": 0.0,
			"0.022": 0.0,
			"0.023": 0.0,
			"0.024": 0.0,
			"0.025": 0.0
		}
	}
}
