{
	 "smiles": "CCNS(=O)(=O)C1=CC(C)=C(Br)C=C1", 
	 "Tm": 365.15, 
	 "num_atms": 26, 
	 "gaussian": { 
		 "optdone": 1, 
		 "sigma_profile": "yes", 
		 "theory": "DFT", 
		 "functional": "B3LYP", 
		 "basiset": "6-31G**", 
		 "properties": { 
			 "R2extent": 6591.858, 
			 "electric_dipole_moment_norm": 3.72785416694, 
			 "electric_quadrupole_moment_norm": 14.8470870611, 
			 "total_energy": -3524.92172197, 
			 "HOMO_LUMO_gap": 0.20792, 
			 "cosmo_polarized_energy": -12.84, 
			 "cosmo_cavitation_energy": 32.74, 
			 "cosmo_dispersion_energy": -23.89, 
			 "cosmo_repulsion_energy": 1.86, 
			 "cosmo_total_nonelectrostatic_energy": 10.7, 
			 "SMD_solvation_energy": 3.36 
		},
		"coords": [
			{
				"x": 2.3674682073,
				"y": -0.2021674374,
				"z": 0.5064554209,
				"element": "C" 
			},
			{
				"x": 2.4016434857,
				"y": -0.6655669396,
				"z": -0.9475186054,
				"element": "C" 
			},
			{
				"x": 1.0825329876,
				"y": -0.5506906494,
				"z": -1.6083872731,
				"element": "N" 
			},
			{
				"x": -0.0515667563,
				"y": -1.7886638763,
				"z": -1.3821007717,
				"element": "S" 
			},
			{
				"x": 0.6039472642,
				"y": -2.9966133183,
				"z": -0.8650096887,
				"element": "O" 
			},
			{
				"x": -0.8260795335,
				"y": -1.809392908,
				"z": -2.6281923466,
				"element": "O" 
			},
			{
				"x": -1.1076375059,
				"y": -1.1630790356,
				"z": -0.0728356592,
				"element": "C" 
			},
			{
				"x": -1.8614747344,
				"y": -0.0099878503,
				"z": -0.2933943618,
				"element": "C" 
			},
			{
				"x": -2.7254303475,
				"y": 0.4850513387,
				"z": 0.6890597354,
				"element": "C" 
			},
			{
				"x": -3.5328991893,
				"y": 1.7324477666,
				"z": 0.4422223738,
				"element": "C" 
			},
			{
				"x": -2.7972239378,
				"y": -0.2375418747,
				"z": 1.8934813815,
				"element": "C" 
			},
			{
				"x": -3.9504805266,
				"y": 0.3658322165,
				"z": 3.2949576889,
				"element": "Br" 
			},
			{
				"x": -2.0556626059,
				"y": -1.395885182,
				"z": 2.1166490215,
				"element": "C" 
			},
			{
				"x": -1.1997633871,
				"y": -1.8701109309,
				"z": 1.1232268238,
				"element": "C" 
			},
			{
				"x": 1.9901612317,
				"y": 0.8216731047,
				"z": 0.5807860036,
				"element": "H" 
			},
			{
				"x": 1.7296831181,
				"y": -0.8485510254,
				"z": 1.115473509,
				"element": "H" 
			},
			{
				"x": 3.3757996777,
				"y": -0.2355149281,
				"z": 0.9312068637,
				"element": "H" 
			},
			{
				"x": 2.7848117233,
				"y": -1.6906789874,
				"z": -1.0132962717,
				"element": "H" 
			},
			{
				"x": 3.0731024057,
				"y": -0.0227742776,
				"z": -1.5256967068,
				"element": "H" 
			},
			{
				"x": 1.1445704666,
				"y": -0.4231349028,
				"z": -2.6155364076,
				"element": "H" 
			},
			{
				"x": -1.7799458132,
				"y": 0.5120304517,
				"z": -1.2411905172,
				"element": "H" 
			},
			{
				"x": -3.3303827683,
				"y": 2.1332066373,
				"z": -0.5535924669,
				"element": "H" 
			},
			{
				"x": -4.6061533072,
				"y": 1.530355267,
				"z": 0.521379785,
				"element": "H" 
			},
			{
				"x": -3.3011491686,
				"y": 2.5069239462,
				"z": 1.180909061,
				"element": "H" 
			},
			{
				"x": -2.1495389966,
				"y": -1.9233879029,
				"z": 3.0587489416,
				"element": "H" 
			},
			{
				"x": -0.6167319897,
				"y": -2.7726787021,
				"z": 1.2664944671,
				"element": "H" 
			}
		],
		 "valence_orbital": [ 
			{
				"type": "occ",
				"energy": -0.30218,
				"method": "rhf"
			},
			{
				"type": "occ",
				"energy": -0.29693,
				"method": "rhf"
			},
			{
				"type": "occ",
				"energy": -0.27984,
				"method": "rhf"
			},
			{
				"type": "occ",
				"energy": -0.27005,
				"method": "rhf"
			},
			{
				"type": "occ",
				"energy": -0.25369,
				"method": "rhf"
			},
			{
				"type": "unocc",
				"energy": -0.04577,
				"method": "rhf"
			},
			{
				"type": "unocc",
				"energy": -0.02608,
				"method": "rhf"
			},
			{
				"type": "unocc",
				"energy": -0.0022,
				"method": "rhf"
			},
			{
				"type": "unocc",
				"energy": 0.05858,
				"method": "rhf"
			},
			{
				"type": "unocc",
				"energy": 0.07102,
				"method": "rhf"
			}
		],
		"cosmo_sigma_profile": { 
			"-0.025": 0.0,
			"-0.024": 0.0,
			"-0.023": 0.0,
			"-0.022": 0.0,
			"-0.021": 0.0,
			"-0.02": 0.0,
			"-0.019": 0.0,
			"-0.018": 0.0,
			"-0.017": 0.0,
			"-0.016": 0.0,
			"-0.015": 0.171449009011,
			"-0.014": 0.959170023579,
			"-0.013": 1.10215547012,
			"-0.012": 1.08413651493,
			"-0.011": 1.12641042465,
			"-0.01": 0.838433103175,
			"-0.009": 1.53387543687,
			"-0.008": 3.08083032908,
			"-0.007": 7.47796446389,
			"-0.006": 8.99820184317,
			"-0.005": 10.6166806027,
			"-0.004": 16.7167510459,
			"-0.003": 25.0292674152,
			"-0.002": 24.7956253075,
			"-0.001": 27.1914822421,
			"0.0": 24.6638159507,
			"0.001": 27.0855616849,
			"0.002": 18.5905060013,
			"0.003": 12.1479992313,
			"0.004": 11.9143732574,
			"0.005": 3.81795606357,
			"0.006": 3.22472634608,
			"0.007": 4.02684080337,
			"0.008": 4.00894472866,
			"0.009": 3.24562029219,
			"0.01": 7.17843226821,
			"0.011": 8.52619082986,
			"0.012": 3.32036130357,
			"0.013": 0.0,
			"0.014": 0.0,
			"0.015": 0.0,
			"0.016": 0.0,
			"0.017": 0.0,
			"0.018": 0.0,
			"0.019": 0.0,
			"0.02": 0.0,
			"0.021": 0.0,
			"0.022": 0.0,
			"0.023": 0.0,
			"0.024": 0.0,
			"0.025": 0.0
		}
	}
}
