{
	 "smiles": "NC1=CC(=CC=C1)S(=O)(=O)NC1=CC(=CC=C1)C(F)(F)F", 
	 "Tm": 372.15, 
	 "num_atms": 32, 
	 "gaussian": { 
		 "optdone": 1, 
		 "sigma_profile": "yes", 
		 "theory": "DFT", 
		 "functional": "B3LYP", 
		 "basiset": "6-31G**", 
		 "properties": { 
			 "R2extent": 9596.7549, 
			 "electric_dipole_moment_norm": 6.7985483752, 
			 "electric_quadrupole_moment_norm": 29.6989469626, 
			 "total_energy": -1459.61216144, 
			 "HOMO_LUMO_gap": 0.1848, 
			 "cosmo_polarized_energy": -19.84, 
			 "cosmo_cavitation_energy": 39.53, 
			 "cosmo_dispersion_energy": -28.0, 
			 "cosmo_repulsion_energy": 2.04, 
			 "cosmo_total_nonelectrostatic_energy": 13.57, 
			 "SMD_solvation_energy": 6.96 
		},
		"coords": [
			{
				"x": -3.2258289298,
				"y": -4.3660137469,
				"z": 1.8359746791,
				"element": "N" 
			},
			{
				"x": -3.0114532947,
				"y": -2.9944981061,
				"z": 1.8560673671,
				"element": "C" 
			},
			{
				"x": -1.7953489805,
				"y": -2.4648794864,
				"z": 2.3163928291,
				"element": "C" 
			},
			{
				"x": -1.6291563108,
				"y": -1.0828037011,
				"z": 2.3739848909,
				"element": "C" 
			},
			{
				"x": -2.6345823005,
				"y": -0.189317442,
				"z": 2.0068438014,
				"element": "C" 
			},
			{
				"x": -3.8426863014,
				"y": -0.7249484695,
				"z": 1.5510816712,
				"element": "C" 
			},
			{
				"x": -4.0312449839,
				"y": -2.100107998,
				"z": 1.4715113384,
				"element": "C" 
			},
			{
				"x": -0.0737299272,
				"y": -0.432748532,
				"z": 2.9871667887,
				"element": "S" 
			},
			{
				"x": -0.1942584499,
				"y": 1.0230029693,
				"z": 3.0593205498,
				"element": "O" 
			},
			{
				"x": 0.3581097686,
				"y": -1.2379641428,
				"z": 4.1328875213,
				"element": "O" 
			},
			{
				"x": 1.052185078,
				"y": -0.8753166671,
				"z": 1.7757155303,
				"element": "N" 
			},
			{
				"x": 1.4385962557,
				"y": -0.0355100518,
				"z": 0.7051129375,
				"element": "C" 
			},
			{
				"x": 2.7888877147,
				"y": 0.0099169724,
				"z": 0.3374271849,
				"element": "C" 
			},
			{
				"x": 3.1888170328,
				"y": 0.7692312119,
				"z": -0.7616312766,
				"element": "C" 
			},
			{
				"x": 2.257875907,
				"y": 1.5077850787,
				"z": -1.4948248147,
				"element": "C" 
			},
			{
				"x": 0.9162042797,
				"y": 1.4652909027,
				"z": -1.1183215742,
				"element": "C" 
			},
			{
				"x": 0.4988959697,
				"y": 0.6953030589,
				"z": -0.0351671211,
				"element": "C" 
			},
			{
				"x": 4.6500392852,
				"y": 0.8470346051,
				"z": -1.1158452879,
				"element": "C" 
			},
			{
				"x": 5.3239238925,
				"y": -0.2602086273,
				"z": -0.729655208,
				"element": "F" 
			},
			{
				"x": 4.8354994222,
				"y": 0.9915747869,
				"z": -2.4466192011,
				"element": "F" 
			},
			{
				"x": 5.2529288052,
				"y": 1.9010248106,
				"z": -0.5196686902,
				"element": "F" 
			},
			{
				"x": -3.9517900017,
				"y": -4.6961247385,
				"z": 1.2168325867,
				"element": "H" 
			},
			{
				"x": -2.40139397,
				"y": -4.9487042198,
				"z": 1.8221396867,
				"element": "H" 
			},
			{
				"x": -0.9953142199,
				"y": -3.124532894,
				"z": 2.6368968881,
				"element": "H" 
			},
			{
				"x": -2.4749777013,
				"y": 0.8786036569,
				"z": 2.0924448595,
				"element": "H" 
			},
			{
				"x": -4.648595499,
				"y": -0.0589971592,
				"z": 1.2574826665,
				"element": "H" 
			},
			{
				"x": -4.9795472612,
				"y": -2.4974474147,
				"z": 1.118852842,
				"element": "H" 
			},
			{
				"x": 1.8157069899,
				"y": -1.3572315712,
				"z": 2.2404908514,
				"element": "H" 
			},
			{
				"x": 3.5271596047,
				"y": -0.5532901535,
				"z": 0.8995085733,
				"element": "H" 
			},
			{
				"x": 2.5782912428,
				"y": 2.094802997,
				"z": -2.3479128267,
				"element": "H" 
			},
			{
				"x": 0.1799422952,
				"y": 2.0290677864,
				"z": -1.6828718032,
				"element": "H" 
			},
			{
				"x": -0.5511554122,
				"y": 0.6553062852,
				"z": 0.22808176,
				"element": "H" 
			}
		],
		 "valence_orbital": [ 
			{
				"type": "occ",
				"energy": -0.30875,
				"method": "rhf"
			},
			{
				"type": "occ",
				"energy": -0.27503,
				"method": "rhf"
			},
			{
				"type": "occ",
				"energy": -0.27008,
				"method": "rhf"
			},
			{
				"type": "occ",
				"energy": -0.23606,
				"method": "rhf"
			},
			{
				"type": "occ",
				"energy": -0.22661,
				"method": "rhf"
			},
			{
				"type": "unocc",
				"energy": -0.04181,
				"method": "rhf"
			},
			{
				"type": "unocc",
				"energy": -0.02883,
				"method": "rhf"
			},
			{
				"type": "unocc",
				"energy": -0.01547,
				"method": "rhf"
			},
			{
				"type": "unocc",
				"energy": -0.01,
				"method": "rhf"
			},
			{
				"type": "unocc",
				"energy": 0.05214,
				"method": "rhf"
			}
		],
		"cosmo_sigma_profile": { 
			"-0.025": 0.0,
			"-0.024": 0.0,
			"-0.023": 0.0,
			"-0.022": 0.0,
			"-0.021": 0.0,
			"-0.02": 0.0,
			"-0.019": 0.0,
			"-0.018": 0.0,
			"-0.017": 0.0,
			"-0.016": 0.153436894071,
			"-0.015": 1.19732006362,
			"-0.014": 1.29840450572,
			"-0.013": 3.64014584872,
			"-0.012": 4.74640812512,
			"-0.011": 3.87792844338,
			"-0.01": 4.6761039385,
			"-0.009": 4.70976954566,
			"-0.008": 5.20258741614,
			"-0.007": 9.69868669883,
			"-0.006": 13.9840716715,
			"-0.005": 16.259542818,
			"-0.004": 15.3984313004,
			"-0.003": 12.8916134396,
			"-0.002": 14.9944533758,
			"-0.001": 14.592608966,
			"0.0": 17.545514113,
			"0.001": 23.0025363478,
			"0.002": 35.4612140337,
			"0.003": 51.0906892867,
			"0.004": 18.2455692635,
			"0.005": 6.70958811871,
			"0.006": 4.10564856162,
			"0.007": 5.37776626604,
			"0.008": 4.10356072475,
			"0.009": 5.44166173877,
			"0.01": 9.56355246633,
			"0.011": 7.28834528261,
			"0.012": 0.922244070826,
			"0.013": 0.465527129461,
			"0.014": 0.0,
			"0.015": 0.0,
			"0.016": 0.0,
			"0.017": 0.0,
			"0.018": 0.0,
			"0.019": 0.0,
			"0.02": 0.0,
			"0.021": 0.0,
			"0.022": 0.0,
			"0.023": 0.0,
			"0.024": 0.0,
			"0.025": 0.0
		}
	}
}
