{
	 "smiles": "OC(=O)C1=C2C=CC=CC2=NC2=C1CN(CC1=CC=CC=C1)CC2", 
	 "Tm": 498.15, 
	 "num_atms": 42, 
	 "gaussian": { 
		 "optdone": 1, 
		 "sigma_profile": "yes", 
		 "theory": "DFT", 
		 "functional": "B3LYP", 
		 "basiset": "6-31G**", 
		 "properties": { 
			 "R2extent": 9110.0832, 
			 "electric_dipole_moment_norm": 1.23600739075, 
			 "electric_quadrupole_moment_norm": 6.36920231112, 
			 "total_energy": -1032.9453584, 
			 "HOMO_LUMO_gap": 0.14842, 
			 "cosmo_polarized_energy": -14.17, 
			 "cosmo_cavitation_energy": 44.15, 
			 "cosmo_dispersion_energy": -30.81, 
			 "cosmo_repulsion_energy": 2.34, 
			 "cosmo_total_nonelectrostatic_energy": 15.68, 
			 "SMD_solvation_energy": 4.56 
		},
		"coords": [
			{
				"x": -1.5036891695,
				"y": 1.4441694338,
				"z": -0.0832702396,
				"element": "O" 
			},
			{
				"x": -0.4891830103,
				"y": 1.53341714,
				"z": 0.8106593565,
				"element": "C" 
			},
			{
				"x": -0.6320267747,
				"y": 2.075126165,
				"z": 1.8872675192,
				"element": "O" 
			},
			{
				"x": 0.7833245594,
				"y": 0.9209240251,
				"z": 0.3063974719,
				"element": "C" 
			},
			{
				"x": 2.0105884016,
				"y": 1.6325975387,
				"z": 0.5037404553,
				"element": "C" 
			},
			{
				"x": 2.1234166753,
				"y": 2.9014171766,
				"z": 1.1383204388,
				"element": "C" 
			},
			{
				"x": 3.3482038973,
				"y": 3.5216498344,
				"z": 1.2473868778,
				"element": "C" 
			},
			{
				"x": 4.5204517047,
				"y": 2.9144670494,
				"z": 0.7348592855,
				"element": "C" 
			},
			{
				"x": 4.4457622622,
				"y": 1.6876743174,
				"z": 0.119149556,
				"element": "C" 
			},
			{
				"x": 3.1979533613,
				"y": 1.0202909574,
				"z": -0.0094388811,
				"element": "C" 
			},
			{
				"x": 3.1908136867,
				"y": -0.1942099492,
				"z": -0.6209198045,
				"element": "N" 
			},
			{
				"x": 2.0489825587,
				"y": -0.8388121726,
				"z": -0.7617070754,
				"element": "C" 
			},
			{
				"x": 0.7880713158,
				"y": -0.3191547382,
				"z": -0.3218072865,
				"element": "C" 
			},
			{
				"x": -0.4790038949,
				"y": -1.1429676008,
				"z": -0.5796815194,
				"element": "C" 
			},
			{
				"x": -0.2516823395,
				"y": -2.5708188319,
				"z": -0.7844770005,
				"element": "N" 
			},
			{
				"x": -0.0188234278,
				"y": -3.3173083293,
				"z": 0.4566389454,
				"element": "C" 
			},
			{
				"x": -1.2689091394,
				"y": -3.4326594526,
				"z": 1.3115560683,
				"element": "C" 
			},
			{
				"x": -1.2047067483,
				"y": -3.2514585483,
				"z": 2.6975260327,
				"element": "C" 
			},
			{
				"x": -2.343280875,
				"y": -3.4059408233,
				"z": 3.4922325321,
				"element": "C" 
			},
			{
				"x": -3.5644648903,
				"y": -3.7380967738,
				"z": 2.905392198,
				"element": "C" 
			},
			{
				"x": -3.6403125624,
				"y": -3.9132637596,
				"z": 1.5206593791,
				"element": "C" 
			},
			{
				"x": -2.5016141884,
				"y": -3.7620898031,
				"z": 0.7304913498,
				"element": "C" 
			},
			{
				"x": 0.7730315129,
				"y": -2.7780961876,
				"z": -1.8069839884,
				"element": "C" 
			},
			{
				"x": 2.1419707396,
				"y": -2.2110931305,
				"z": -1.4034539532,
				"element": "C" 
			},
			{
				"x": -2.2757189477,
				"y": 1.8484835493,
				"z": 0.3491853616,
				"element": "H" 
			},
			{
				"x": 1.2390527648,
				"y": 3.3693363661,
				"z": 1.5509681593,
				"element": "H" 
			},
			{
				"x": 3.4159047321,
				"y": 4.4891744929,
				"z": 1.7363061389,
				"element": "H" 
			},
			{
				"x": 5.4763675307,
				"y": 3.4209275307,
				"z": 0.8319671095,
				"element": "H" 
			},
			{
				"x": 5.3206158217,
				"y": 1.1890997279,
				"z": -0.2848872701,
				"element": "H" 
			},
			{
				"x": -0.9765957882,
				"y": -0.7432124247,
				"z": -1.4722892595,
				"element": "H" 
			},
			{
				"x": -1.1904198135,
				"y": -1.0230712553,
				"z": 0.2393501951,
				"element": "H" 
			},
			{
				"x": 0.3065468831,
				"y": -4.3242403039,
				"z": 0.1621284837,
				"element": "H" 
			},
			{
				"x": 0.7962349662,
				"y": -2.8993818204,
				"z": 1.0737634982,
				"element": "H" 
			},
			{
				"x": -0.2563010983,
				"y": -2.9859672432,
				"z": 3.1589737781,
				"element": "H" 
			},
			{
				"x": -2.2757422376,
				"y": -3.2594508265,
				"z": 4.5666095438,
				"element": "H" 
			},
			{
				"x": -4.452198094,
				"y": -3.8557401002,
				"z": 3.5204442047,
				"element": "H" 
			},
			{
				"x": -4.5891640831,
				"y": -4.1689608128,
				"z": 1.0567331992,
				"element": "H" 
			},
			{
				"x": -2.5553434552,
				"y": -3.8835596788,
				"z": -0.3471701615,
				"element": "H" 
			},
			{
				"x": 0.4219918652,
				"y": -2.2890929013,
				"z": -2.7248584553,
				"element": "H" 
			},
			{
				"x": 0.8519196036,
				"y": -3.8487744599,
				"z": -2.0256901209,
				"element": "H" 
			},
			{
				"x": 2.8187758593,
				"y": -2.1495464972,
				"z": -2.2621182666,
				"element": "H" 
			},
			{
				"x": 2.6311998361,
				"y": -2.8834868799,
				"z": -0.6861538561,
				"element": "H" 
			}
		],
		 "valence_orbital": [ 
			{
				"type": "occ",
				"energy": -0.24743,
				"method": "rhf"
			},
			{
				"type": "occ",
				"energy": -0.24564,
				"method": "rhf"
			},
			{
				"type": "occ",
				"energy": -0.24123,
				"method": "rhf"
			},
			{
				"type": "occ",
				"energy": -0.23024,
				"method": "rhf"
			},
			{
				"type": "occ",
				"energy": -0.2167,
				"method": "rhf"
			},
			{
				"type": "unocc",
				"energy": -0.06828,
				"method": "rhf"
			},
			{
				"type": "unocc",
				"energy": -0.01601,
				"method": "rhf"
			},
			{
				"type": "unocc",
				"energy": -0.00701,
				"method": "rhf"
			},
			{
				"type": "unocc",
				"energy": -0.00193,
				"method": "rhf"
			},
			{
				"type": "unocc",
				"energy": 0.00189,
				"method": "rhf"
			}
		],
		"cosmo_sigma_profile": { 
			"-0.025": 0.0,
			"-0.024": 0.0,
			"-0.023": 0.0,
			"-0.022": 0.0,
			"-0.021": 0.0,
			"-0.02": 0.0,
			"-0.019": 0.236718493414,
			"-0.018": 1.013159821,
			"-0.017": 0.844180700554,
			"-0.016": 0.843225384033,
			"-0.015": 0.514214414004,
			"-0.014": 0.416161820585,
			"-0.013": 0.723852175535,
			"-0.012": 1.18839535935,
			"-0.011": 0.897338737087,
			"-0.01": 0.523277963156,
			"-0.009": 0.472942735326,
			"-0.008": 0.807241832898,
			"-0.007": 1.5294163031,
			"-0.006": 8.54488333474,
			"-0.005": 24.2903092935,
			"-0.004": 40.4521810751,
			"-0.003": 36.9265514796,
			"-0.002": 28.9614318629,
			"-0.001": 25.2191114907,
			"0.0": 24.2436627869,
			"0.001": 24.8337500563,
			"0.002": 23.2298383922,
			"0.003": 24.9581431142,
			"0.004": 24.714909247,
			"0.005": 14.7007972954,
			"0.006": 12.4829515613,
			"0.007": 6.19510276241,
			"0.008": 5.08250631225,
			"0.009": 2.90830349384,
			"0.01": 4.52794308122,
			"0.011": 5.50390888554,
			"0.012": 1.01101412836,
			"0.013": 1.08624409709,
			"0.014": 0.422879755822,
			"0.015": 0.71251662058,
			"0.016": 0.0519877900683,
			"0.017": 0.0,
			"0.018": 0.0,
			"0.019": 0.0,
			"0.02": 0.0,
			"0.021": 0.0,
			"0.022": 0.0,
			"0.023": 0.0,
			"0.024": 0.0,
			"0.0": 0.0
		}
	}
}
