{
	 "smiles": "CCCCOC1=CC=C(C=N1)N=NC1=CC=C(N)N=C1N", 
	 "Tm": 402.15, 
	 "num_atms": 39, 
	 "gaussian": { 
		 "optdone": 1, 
		 "sigma_profile": "yes", 
		 "theory": "DFT", 
		 "functional": "B3LYP", 
		 "basiset": "6-31G**", 
		 "properties": { 
			 "R2extent": 12627.7925, 
			 "electric_dipole_moment_norm": 2.61002782552, 
			 "electric_quadrupole_moment_norm": 34.0959999366, 
			 "total_energy": -948.06274525, 
			 "HOMO_LUMO_gap": 0.11802, 
			 "cosmo_polarized_energy": -15.85, 
			 "cosmo_cavitation_energy": 43.9, 
			 "cosmo_dispersion_energy": -31.87, 
			 "cosmo_repulsion_energy": 2.51, 
			 "cosmo_total_nonelectrostatic_energy": 14.54, 
			 "SMD_solvation_energy": 4.38 
		},
		"coords": [
			{
				"x": -5.8464410775,
				"y": 1.5180132476,
				"z": 0.3824632727,
				"element": "C" 
			},
			{
				"x": -5.250376569,
				"y": 0.2859702251,
				"z": 1.0710280037,
				"element": "C" 
			},
			{
				"x": -4.2698675411,
				"y": -0.4822389176,
				"z": 0.1749183885,
				"element": "C" 
			},
			{
				"x": -3.6917686896,
				"y": -1.709169659,
				"z": 0.8746207848,
				"element": "C" 
			},
			{
				"x": -2.8552040691,
				"y": -2.4891401536,
				"z": -0.0015891595,
				"element": "O" 
			},
			{
				"x": -1.5610069939,
				"y": -2.1308768018,
				"z": -0.1498971854,
				"element": "C" 
			},
			{
				"x": -0.780489956,
				"y": -2.9266771325,
				"z": -1.0104975226,
				"element": "C" 
			},
			{
				"x": 0.5482743428,
				"y": -2.5864281751,
				"z": -1.1739763961,
				"element": "C" 
			},
			{
				"x": 1.0784644802,
				"y": -1.4717991575,
				"z": -0.4949214519,
				"element": "C" 
			},
			{
				"x": 0.2076666318,
				"y": -0.7617458304,
				"z": 0.343476749,
				"element": "C" 
			},
			{
				"x": -1.081051838,
				"y": -1.0782021144,
				"z": 0.5126507079,
				"element": "N" 
			},
			{
				"x": 2.4408452407,
				"y": -1.1904469755,
				"z": -0.7097203946,
				"element": "N" 
			},
			{
				"x": 2.8596237099,
				"y": -0.110770071,
				"z": -0.1848179436,
				"element": "N" 
			},
			{
				"x": 4.210001648,
				"y": 0.165620741,
				"z": -0.3589609758,
				"element": "C" 
			},
			{
				"x": 5.1515472467,
				"y": -0.6657299791,
				"z": -0.9936570163,
				"element": "C" 
			},
			{
				"x": 6.4729896958,
				"y": -0.2847253535,
				"z": -1.0772210122,
				"element": "C" 
			},
			{
				"x": 6.8417786841,
				"y": 0.9561497537,
				"z": -0.4949972108,
				"element": "C" 
			},
			{
				"x": 8.1372953132,
				"y": 1.4025253058,
				"z": -0.5642839112,
				"element": "N" 
			},
			{
				"x": 5.9744607627,
				"y": 1.7708759054,
				"z": 0.1166069453,
				"element": "N" 
			},
			{
				"x": 4.685697337,
				"y": 1.4013374262,
				"z": 0.1744687973,
				"element": "C" 
			},
			{
				"x": 3.8214024742,
				"y": 2.2735291531,
				"z": 0.7573895701,
				"element": "N" 
			},
			{
				"x": -6.3972490836,
				"y": 1.2379609556,
				"z": -0.5225607116,
				"element": "H" 
			},
			{
				"x": -6.5395043457,
				"y": 2.0485716682,
				"z": 1.0434461574,
				"element": "H" 
			},
			{
				"x": -5.0617879494,
				"y": 2.2231220434,
				"z": 0.0863319053,
				"element": "H" 
			},
			{
				"x": -6.0619919761,
				"y": -0.3844373927,
				"z": 1.3860473269,
				"element": "H" 
			},
			{
				"x": -4.7360778924,
				"y": 0.5952236895,
				"z": 1.9908621918,
				"element": "H" 
			},
			{
				"x": -3.4450805044,
				"y": 0.1748214931,
				"z": -0.1225349303,
				"element": "H" 
			},
			{
				"x": -4.7757150457,
				"y": -0.804396644,
				"z": -0.7443570777,
				"element": "H" 
			},
			{
				"x": -3.1218270507,
				"y": -1.4186355181,
				"z": 1.7613935736,
				"element": "H" 
			},
			{
				"x": -4.4882192036,
				"y": -2.399260779,
				"z": 1.1696674616,
				"element": "H" 
			},
			{
				"x": -1.231176618,
				"y": -3.7746203305,
				"z": -1.5133509653,
				"element": "H" 
			},
			{
				"x": 1.205966956,
				"y": -3.1586216716,
				"z": -1.8211783847,
				"element": "H" 
			},
			{
				"x": 0.5766780358,
				"y": 0.093605661,
				"z": 0.9011293493,
				"element": "H" 
			},
			{
				"x": 4.8039537614,
				"y": -1.6072437506,
				"z": -1.4047577205,
				"element": "H" 
			},
			{
				"x": 7.2161172847,
				"y": -0.9065625459,
				"z": -1.5660363532,
				"element": "H" 
			},
			{
				"x": 8.8726087723,
				"y": 0.7359226913,
				"z": -0.7371030315,
				"element": "H" 
			},
			{
				"x": 8.3638637184,
				"y": 2.185220923,
				"z": 0.0309500113,
				"element": "H" 
			},
			{
				"x": 4.2101957627,
				"y": 3.0441461964,
				"z": 1.2756129488,
				"element": "H" 
			},
			{
				"x": 2.8846045456,
				"y": 1.9527118741,
				"z": 0.9434552096,
				"element": "H" 
			}
		],
		 "valence_orbital": [ 
			{
				"type": "occ",
				"energy": -0.26381,
				"method": "rhf"
			},
			{
				"type": "occ",
				"energy": -0.24597,
				"method": "rhf"
			},
			{
				"type": "occ",
				"energy": -0.2299,
				"method": "rhf"
			},
			{
				"type": "occ",
				"energy": -0.21362,
				"method": "rhf"
			},
			{
				"type": "occ",
				"energy": -0.18452,
				"method": "rhf"
			},
			{
				"type": "unocc",
				"energy": -0.0665,
				"method": "rhf"
			},
			{
				"type": "unocc",
				"energy": -0.01466,
				"method": "rhf"
			},
			{
				"type": "unocc",
				"energy": 0.00474,
				"method": "rhf"
			},
			{
				"type": "unocc",
				"energy": 0.02853,
				"method": "rhf"
			},
			{
				"type": "unocc",
				"energy": 0.05677,
				"method": "rhf"
			}
		],
		"cosmo_sigma_profile": { 
			"-0.025": 0.0,
			"-0.024": 0.0,
			"-0.023": 0.0,
			"-0.022": 0.0,
			"-0.021": 0.0,
			"-0.02": 0.0,
			"-0.019": 0.0,
			"-0.018": 0.0,
			"-0.017": 0.0,
			"-0.016": 0.0,
			"-0.015": 0.0375125200125,
			"-0.014": 1.36461478259,
			"-0.013": 3.31258589272,
			"-0.012": 3.65958343235,
			"-0.011": 3.53719270756,
			"-0.01": 5.19420383805,
			"-0.009": 4.17306902709,
			"-0.008": 3.44647140606,
			"-0.007": 5.49313351022,
			"-0.006": 9.91507528885,
			"-0.005": 11.4377301238,
			"-0.004": 14.3691327233,
			"-0.003": 23.2617763305,
			"-0.002": 28.1720174005,
			"-0.001": 28.8612060405,
			"0.0": 29.3042305724,
			"0.001": 38.2083333486,
			"0.002": 38.045108287,
			"0.003": 29.7605899954,
			"0.004": 18.1062123058,
			"0.005": 10.8608707026,
			"0.006": 8.05544277576,
			"0.007": 8.45424228895,
			"0.008": 5.96824007028,
			"0.009": 5.75411584273,
			"0.01": 4.24861429656,
			"0.011": 2.0943453444,
			"0.012": 1.3839134226,
			"0.013": 0.733707845292,
			"0.014": 0.156353285718,
			"0.015": 0.0,
			"0.016": 0.0,
			"0.017": 0.0,
			"0.018": 0.0,
			"0.019": 0.0,
			"0.02": 0.0,
			"0.021": 0.0,
			"0.022": 0.0,
			"0.023": 0.0,
			"0.024": 0.0,
			"0.025": 0.0
		}
	}
}
