{
	 "smiles": "CC(O)C1=C(C)N=C(S1)C1=C(Br)C=CC=C1", 
	 "Tm": 353.15, 
	 "num_atms": 28, 
	 "gaussian": { 
		 "optdone": 1, 
		 "sigma_profile": "yes", 
		 "theory": "DFT", 
		 "functional": "B3LYP", 
		 "basiset": "6-31G**", 
		 "properties": { 
			 "R2extent": 6967.8681, 
			 "electric_dipole_moment_norm": 1.573331119, 
			 "electric_quadrupole_moment_norm": 22.9980851462, 
			 "total_energy": -3564.07076021, 
			 "HOMO_LUMO_gap": 0.16241, 
			 "cosmo_polarized_energy": -10.48, 
			 "cosmo_cavitation_energy": 34.72, 
			 "cosmo_dispersion_energy": -26.02, 
			 "cosmo_repulsion_energy": 1.99, 
			 "cosmo_total_nonelectrostatic_energy": 10.7, 
			 "SMD_solvation_energy": 3.6 
		},
		"coords": [
			{
				"x": 2.6372181909,
				"y": 2.0310003743,
				"z": -4.1478664503,
				"element": "C" 
			},
			{
				"x": 1.1855511881,
				"y": 1.5369426313,
				"z": -4.0619124337,
				"element": "C" 
			},
			{
				"x": 0.9297640682,
				"y": 0.506345983,
				"z": -5.0190428382,
				"element": "O" 
			},
			{
				"x": 0.8489181319,
				"y": 0.9938639774,
				"z": -2.6934457497,
				"element": "C" 
			},
			{
				"x": 1.2006721774,
				"y": -0.1942514507,
				"z": -2.0951019723,
				"element": "C" 
			},
			{
				"x": 2.0058442698,
				"y": -1.3100597878,
				"z": -2.6999096854,
				"element": "C" 
			},
			{
				"x": 0.7526876809,
				"y": -0.3424920066,
				"z": -0.8077543786,
				"element": "N" 
			},
			{
				"x": 0.0654129441,
				"y": 0.6867831182,
				"z": -0.3727388362,
				"element": "C" 
			},
			{
				"x": -0.0861849729,
				"y": 1.9554268235,
				"z": -1.5863583514,
				"element": "S" 
			},
			{
				"x": -0.4884507886,
				"y": 0.6979559832,
				"z": 0.9975041426,
				"element": "C" 
			},
			{
				"x": -1.2386879012,
				"y": 1.7113840065,
				"z": 1.6236942334,
				"element": "C" 
			},
			{
				"x": -1.7057067225,
				"y": 3.3577441779,
				"z": 0.7600835836,
				"element": "Br" 
			},
			{
				"x": -1.6995788096,
				"y": 1.5816969045,
				"z": 2.9362599395,
				"element": "C" 
			},
			{
				"x": -1.4249884176,
				"y": 0.4314032637,
				"z": 3.6674776268,
				"element": "C" 
			},
			{
				"x": -0.6832437669,
				"y": -0.5937912014,
				"z": 3.075886141,
				"element": "C" 
			},
			{
				"x": -0.2295268401,
				"y": -0.4570895405,
				"z": 1.7729618931,
				"element": "C" 
			},
			{
				"x": 2.8464632,
				"y": 2.4386365053,
				"z": -5.1449872411,
				"element": "H" 
			},
			{
				"x": 2.8224907011,
				"y": 2.8240574092,
				"z": -3.4173259203,
				"element": "H" 
			},
			{
				"x": 3.33434312,
				"y": 1.2111655432,
				"z": -3.9541886798,
				"element": "H" 
			},
			{
				"x": 0.521678497,
				"y": 2.394230389,
				"z": -4.2590898051,
				"element": "H" 
			},
			{
				"x": 1.2369733129,
				"y": 0.8265091252,
				"z": -5.8777486974,
				"element": "H" 
			},
			{
				"x": 2.1237901575,
				"y": -1.169673778,
				"z": -3.773858112,
				"element": "H" 
			},
			{
				"x": 1.5051075537,
				"y": -2.2668058033,
				"z": -2.5218983525,
				"element": "H" 
			},
			{
				"x": 2.9947953442,
				"y": -1.3722431374,
				"z": -2.2303271355,
				"element": "H" 
			},
			{
				"x": -2.2734683443,
				"y": 2.3899917829,
				"z": 3.3742524847,
				"element": "H" 
			},
			{
				"x": -1.7883111584,
				"y": 0.3408641931,
				"z": 4.6865846795,
				"element": "H" 
			},
			{
				"x": -0.4587095435,
				"y": -1.5001350463,
				"z": 3.6299273353,
				"element": "H" 
			},
			{
				"x": 0.3461467281,
				"y": -1.2436604395,
				"z": 1.3003225801,
				"element": "H" 
			}
		],
		 "valence_orbital": [ 
			{
				"type": "occ",
				"energy": -0.27628,
				"method": "rhf"
			},
			{
				"type": "occ",
				"energy": -0.26552,
				"method": "rhf"
			},
			{
				"type": "occ",
				"energy": -0.26268,
				"method": "rhf"
			},
			{
				"type": "occ",
				"energy": -0.24613,
				"method": "rhf"
			},
			{
				"type": "occ",
				"energy": -0.21482,
				"method": "rhf"
			},
			{
				"type": "unocc",
				"energy": -0.05241,
				"method": "rhf"
			},
			{
				"type": "unocc",
				"energy": -0.01187,
				"method": "rhf"
			},
			{
				"type": "unocc",
				"energy": 0.00322,
				"method": "rhf"
			},
			{
				"type": "unocc",
				"energy": 0.01955,
				"method": "rhf"
			},
			{
				"type": "unocc",
				"energy": 0.027,
				"method": "rhf"
			}
		],
		"cosmo_sigma_profile": { 
			"-0.025": 0.0,
			"-0.024": 0.0,
			"-0.023": 0.0,
			"-0.022": 0.0,
			"-0.021": 0.0,
			"-0.02": 0.0,
			"-0.019": 0.0,
			"-0.018": 0.0,
			"-0.017": 0.0,
			"-0.016": 0.20045975785,
			"-0.015": 1.13463612887,
			"-0.014": 0.849121210894,
			"-0.013": 1.1606148778,
			"-0.012": 0.853104968209,
			"-0.011": 1.02447884935,
			"-0.01": 1.37985514882,
			"-0.009": 0.760888399071,
			"-0.008": 0.830922512448,
			"-0.007": 5.23748366768,
			"-0.006": 9.01978320876,
			"-0.005": 15.0202608073,
			"-0.004": 18.6902203269,
			"-0.003": 18.2598752145,
			"-0.002": 21.3036816919,
			"-0.001": 24.5598530078,
			"0.0": 26.7977576458,
			"0.001": 27.2327211937,
			"0.002": 31.3045477753,
			"0.003": 30.0988436534,
			"0.004": 21.1113473314,
			"0.005": 5.06899154564,
			"0.006": 3.29755982638,
			"0.007": 3.25339782344,
			"0.008": 3.1612339195,
			"0.009": 2.20505500777,
			"0.01": 2.74726349904,
			"0.011": 1.49542532388,
			"0.012": 1.13973867609,
			"0.013": 1.06591198053,
			"0.014": 0.729475803161,
			"0.015": 0.0213233506693,
			"0.016": 0.0,
			"0.017": 0.0,
			"0.018": 0.0,
			"0.019": 0.0,
			"0.02": 0.0,
			"0.021": 0.0,
			"0.022": 0.0,
			"0.023": 0.0,
			"0.024": 0.0,
			"0.025": 0.0
		}
	}
}
