{
	 "smiles": "CC(N)C1=CC2=C(C=C1)N(C)C(=O)C2", 
	 "Tm": 375.15, 
	 "num_atms": 28, 
	 "gaussian": { 
		 "optdone": 1, 
		 "sigma_profile": "yes", 
		 "theory": "DFT", 
		 "functional": "B3LYP", 
		 "basiset": "6-31G**", 
		 "properties": { 
			 "R2extent": 3748.7573, 
			 "electric_dipole_moment_norm": 2.27704739301, 
			 "electric_quadrupole_moment_norm": 21.3477503693, 
			 "total_energy": -612.361639603, 
			 "HOMO_LUMO_gap": 0.19483, 
			 "cosmo_polarized_energy": -13.04, 
			 "cosmo_cavitation_energy": 30.69, 
			 "cosmo_dispersion_energy": -22.09, 
			 "cosmo_repulsion_energy": 1.74, 
			 "cosmo_total_nonelectrostatic_energy": 10.35, 
			 "SMD_solvation_energy": 4.53 
		},
		"coords": [
			{
				"x": -2.0851773721,
				"y": -0.3675700349,
				"z": -2.4265334237,
				"element": "C" 
			},
			{
				"x": -1.8860939463,
				"y": 0.8555020806,
				"z": -1.516904232,
				"element": "C" 
			},
			{
				"x": -1.7609227805,
				"y": 2.0469724031,
				"z": -2.3624363992,
				"element": "N" 
			},
			{
				"x": -0.7530639225,
				"y": 0.6148945575,
				"z": -0.5138094253,
				"element": "C" 
			},
			{
				"x": -1.0342448765,
				"y": -0.0243094093,
				"z": 0.7101283153,
				"element": "C" 
			},
			{
				"x": -0.0161866887,
				"y": -0.2854776335,
				"z": 1.6111434098,
				"element": "C" 
			},
			{
				"x": 1.3035735291,
				"y": 0.0918133016,
				"z": 1.3043112967,
				"element": "C" 
			},
			{
				"x": 1.6148401947,
				"y": 0.7280241805,
				"z": 0.1086972465,
				"element": "C" 
			},
			{
				"x": 0.5681677492,
				"y": 0.9811106271,
				"z": -0.7886823856,
				"element": "C" 
			},
			{
				"x": 2.1581659705,
				"y": -0.2625803532,
				"z": 2.3590660483,
				"element": "N" 
			},
			{
				"x": 3.5860834333,
				"y": -0.0315264265,
				"z": 2.3980293181,
				"element": "C" 
			},
			{
				"x": 1.4630262396,
				"y": -0.8785851318,
				"z": 3.3940759672,
				"element": "C" 
			},
			{
				"x": 1.9594082135,
				"y": -1.2870338534,
				"z": 4.4279747643,
				"element": "O" 
			},
			{
				"x": -0.0131462755,
				"y": -0.9328075533,
				"z": 2.9716679261,
				"element": "C" 
			},
			{
				"x": -2.9266600453,
				"y": -0.1997310241,
				"z": -3.1049017112,
				"element": "H" 
			},
			{
				"x": -1.1852728368,
				"y": -0.5480743458,
				"z": -3.0269738003,
				"element": "H" 
			},
			{
				"x": -2.2750956349,
				"y": -1.2696536741,
				"z": -1.8382680767,
				"element": "H" 
			},
			{
				"x": -2.8072400773,
				"y": 0.9852181473,
				"z": -0.9317862577,
				"element": "H" 
			},
			{
				"x": -1.0085350424,
				"y": 1.9250992486,
				"z": -3.0366974674,
				"element": "H" 
			},
			{
				"x": -1.5173436037,
				"y": 2.8570225549,
				"z": -1.7972364702,
				"element": "H" 
			},
			{
				"x": -2.0587457573,
				"y": -0.3079286787,
				"z": 0.9439932061,
				"element": "H" 
			},
			{
				"x": 2.6311978998,
				"y": 1.02633981,
				"z": -0.1278009623,
				"element": "H" 
			},
			{
				"x": 0.7951198416,
				"y": 1.4886878151,
				"z": -1.7221616052,
				"element": "H" 
			},
			{
				"x": 3.8130781469,
				"y": 1.0388340876,
				"z": 2.3341695153,
				"element": "H" 
			},
			{
				"x": 3.9503264129,
				"y": -0.4230051204,
				"z": 3.3489572656,
				"element": "H" 
			},
			{
				"x": 4.0906737267,
				"y": -0.5488862185,
				"z": 1.5740713304,
				"element": "H" 
			},
			{
				"x": -0.6210888844,
				"y": -0.4046193884,
				"z": 3.7148643378,
				"element": "H" 
			},
			{
				"x": -0.3495436136,
				"y": -1.9757299679,
				"z": 2.9672422694,
				"element": "H" 
			}
		],
		 "valence_orbital": [ 
			{
				"type": "occ",
				"energy": -0.29476,
				"method": "rhf"
			},
			{
				"type": "occ",
				"energy": -0.25646,
				"method": "rhf"
			},
			{
				"type": "occ",
				"energy": -0.25357,
				"method": "rhf"
			},
			{
				"type": "occ",
				"energy": -0.24028,
				"method": "rhf"
			},
			{
				"type": "occ",
				"energy": -0.20799,
				"method": "rhf"
			},
			{
				"type": "unocc",
				"energy": -0.01316,
				"method": "rhf"
			},
			{
				"type": "unocc",
				"energy": -0.00387,
				"method": "rhf"
			},
			{
				"type": "unocc",
				"energy": 0.03327,
				"method": "rhf"
			},
			{
				"type": "unocc",
				"energy": 0.07896,
				"method": "rhf"
			},
			{
				"type": "unocc",
				"energy": 0.09807,
				"method": "rhf"
			}
		],
		"cosmo_sigma_profile": { 
			"-0.025": 0.0,
			"-0.024": 0.0,
			"-0.023": 0.0,
			"-0.022": 0.0,
			"-0.021": 0.0,
			"-0.02": 0.0,
			"-0.019": 0.0,
			"-0.018": 0.0,
			"-0.017": 0.0,
			"-0.016": 0.0,
			"-0.015": 0.0,
			"-0.014": 0.0,
			"-0.013": 0.0,
			"-0.012": 0.0,
			"-0.011": 0.0,
			"-0.01": 0.357939223486,
			"-0.009": 2.39619578795,
			"-0.008": 3.45336929039,
			"-0.007": 5.66575984446,
			"-0.006": 11.6674322453,
			"-0.005": 19.9252547192,
			"-0.004": 23.3642898771,
			"-0.003": 27.4975908226,
			"-0.002": 23.7296395882,
			"-0.001": 17.9262976976,
			"0.0": 18.1936747567,
			"0.001": 17.0842820935,
			"0.002": 9.70303385496,
			"0.003": 8.25034979618,
			"0.004": 9.07231403682,
			"0.005": 9.00709193081,
			"0.006": 6.90365612796,
			"0.007": 2.37307457652,
			"0.008": 2.70559823261,
			"0.009": 2.28874752814,
			"0.01": 2.0696251075,
			"0.011": 2.24851383005,
			"0.012": 3.37741438385,
			"0.013": 6.69013876564,
			"0.014": 2.54359260705,
			"0.015": 0.339508785067,
			"0.016": 0.805312561551,
			"0.017": 0.749697496937,
			"0.018": 0.388985447706,
			"0.019": 0.514505613414,
			"0.02": 0.16687411088,
			"0.021": 0.0,
			"0.022": 0.0,
			"0.023": 0.0,
			"0.024": 0.0,
			"0.025": 0.0
		}
	}
}
