{
	 "smiles": "CC1=CC(O)=CC=C1O", 
	 "Tm": 401.15, 
	 "num_atms": 17, 
	 "gaussian": { 
		 "optdone": 1, 
		 "sigma_profile": "yes", 
		 "theory": "DFT", 
		 "functional": "B3LYP", 
		 "basiset": "6-31G**", 
		 "properties": { 
			 "R2extent": 1973.2479, 
			 "electric_dipole_moment_norm": 0.372475368313, 
			 "electric_quadrupole_moment_norm": 14.5642710981, 
			 "total_energy": -422.008629487, 
			 "HOMO_LUMO_gap": 0.19703, 
			 "cosmo_polarized_energy": -11.63, 
			 "cosmo_cavitation_energy": 20.52, 
			 "cosmo_dispersion_energy": -15.51, 
			 "cosmo_repulsion_energy": 1.27, 
			 "cosmo_total_nonelectrostatic_energy": 6.27, 
			 "SMD_solvation_energy": 4.07 
		},
		"coords": [
			{
				"x": 2.5587149464,
				"y": 1.2200394842,
				"z": 2.031866889,
				"element": "C" 
			},
			{
				"x": 2.0051498526,
				"y": 0.9128098336,
				"z": 0.6600900424,
				"element": "C" 
			},
			{
				"x": 2.752030351,
				"y": 1.1694763583,
				"z": -0.4926072611,
				"element": "C" 
			},
			{
				"x": 2.2447969002,
				"y": 0.887299009,
				"z": -1.7631214812,
				"element": "C" 
			},
			{
				"x": 3.0452986601,
				"y": 1.1706743743,
				"z": -2.8413549983,
				"element": "O" 
			},
			{
				"x": 0.9664202453,
				"y": 0.3377835394,
				"z": -1.8876979856,
				"element": "C" 
			},
			{
				"x": 0.2089190207,
				"y": 0.0759518598,
				"z": -0.747224427,
				"element": "C" 
			},
			{
				"x": 0.7191628233,
				"y": 0.3592090014,
				"z": 0.5196377635,
				"element": "C" 
			},
			{
				"x": -0.0842953604,
				"y": 0.0745084545,
				"z": 1.5973075358,
				"element": "O" 
			},
			{
				"x": 3.5634044437,
				"y": 1.6429171291,
				"z": 1.961982343,
				"element": "H" 
			},
			{
				"x": 2.6302510669,
				"y": 0.3199043592,
				"z": 2.6579130616,
				"element": "H" 
			},
			{
				"x": 1.9386826866,
				"y": 1.9486909355,
				"z": 2.5721586897,
				"element": "H" 
			},
			{
				"x": 3.7473472687,
				"y": 1.5963760779,
				"z": -0.4141133492,
				"element": "H" 
			},
			{
				"x": 2.5759367678,
				"y": 0.928953745,
				"z": -3.6496854802,
				"element": "H" 
			},
			{
				"x": 0.5590860005,
				"y": 0.1130822597,
				"z": -2.8712834151,
				"element": "H" 
			},
			{
				"x": -0.7857119884,
				"y": -0.3506195967,
				"z": -0.8247121278,
				"element": "H" 
			},
			{
				"x": 0.3766063149,
				"y": 0.3128431759,
				"z": 2.4105442006,
				"element": "H" 
			}
		],
		 "valence_orbital": [ 
			{
				"type": "occ",
				"energy": -0.3599,
				"method": "rhf"
			},
			{
				"type": "occ",
				"energy": -0.33054,
				"method": "rhf"
			},
			{
				"type": "occ",
				"energy": -0.29755,
				"method": "rhf"
			},
			{
				"type": "occ",
				"energy": -0.24333,
				"method": "rhf"
			},
			{
				"type": "occ",
				"energy": -0.19488,
				"method": "rhf"
			},
			{
				"type": "unocc",
				"energy": 0.00215,
				"method": "rhf"
			},
			{
				"type": "unocc",
				"energy": 0.03,
				"method": "rhf"
			},
			{
				"type": "unocc",
				"energy": 0.06659,
				"method": "rhf"
			},
			{
				"type": "unocc",
				"energy": 0.07806,
				"method": "rhf"
			},
			{
				"type": "unocc",
				"energy": 0.10579,
				"method": "rhf"
			}
		],
		"cosmo_sigma_profile": { 
			"-0.025": 0.0,
			"-0.024": 0.0,
			"-0.023": 0.0,
			"-0.022": 0.0,
			"-0.021": 0.0,
			"-0.02": 0.0,
			"-0.019": 0.0,
			"-0.018": 0.0132338373393,
			"-0.017": 0.668050484625,
			"-0.016": 1.39702085699,
			"-0.015": 1.19896824508,
			"-0.014": 2.18006809384,
			"-0.013": 2.31518190922,
			"-0.012": 1.96212852512,
			"-0.011": 1.41795828884,
			"-0.01": 2.21626417022,
			"-0.009": 2.6528411293,
			"-0.008": 2.63460475638,
			"-0.007": 2.54651246238,
			"-0.006": 5.05950312532,
			"-0.005": 10.2227069159,
			"-0.004": 10.6473932331,
			"-0.003": 10.1223316857,
			"-0.002": 9.01963828974,
			"-0.001": 10.3016906808,
			"0.0": 9.96066618333,
			"0.001": 6.50439985449,
			"0.002": 5.21095599933,
			"0.003": 7.19026170404,
			"0.004": 11.1288155058,
			"0.005": 14.8015251489,
			"0.006": 10.6038472956,
			"0.007": 3.26125741299,
			"0.008": 2.83146832191,
			"0.009": 3.39149578595,
			"0.01": 3.68458578409,
			"0.011": 3.17192725331,
			"0.012": 3.61180115574,
			"0.013": 0.260452822545,
			"0.014": 0.0,
			"0.015": 0.0,
			"0.016": 0.0,
			"0.017": 0.0,
			"0.018": 0.0,
			"0.019": 0.0,
			"0.02": 0.0,
			"0.021": 0.0,
			"0.022": 0.0,
			"0.023": 0.0,
			"0.024": 0.0,
			"0.025": 0.0
		}
	}
}
