{
	 "smiles": "NNC(=O)COC1=CC=C(OC(F)(F)F)C=C1", 
	 "Tm": 405.15, 
	 "num_atms": 26, 
	 "gaussian": { 
		 "optdone": 1, 
		 "sigma_profile": "yes", 
		 "theory": "DFT", 
		 "functional": "B3LYP", 
		 "basiset": "6-31G**", 
		 "properties": { 
			 "R2extent": 6323.5227, 
			 "electric_dipole_moment_norm": 6.53890998103, 
			 "electric_quadrupole_moment_norm": 21.3755876396, 
			 "total_energy": -983.036057921, 
			 "HOMO_LUMO_gap": 0.22672, 
			 "cosmo_polarized_energy": -17.39, 
			 "cosmo_cavitation_energy": 32.94, 
			 "cosmo_dispersion_energy": -23.22, 
			 "cosmo_repulsion_energy": 1.8, 
			 "cosmo_total_nonelectrostatic_energy": 11.52, 
			 "SMD_solvation_energy": 8.64 
		},
		"coords": [
			{
				"x": -1.7110005912,
				"y": 2.0331523031,
				"z": 3.9469233042,
				"element": "N" 
			},
			{
				"x": -2.0121435854,
				"y": 2.7696838564,
				"z": 2.795459468,
				"element": "N" 
			},
			{
				"x": -1.1432493199,
				"y": 2.8570072836,
				"z": 1.7370715096,
				"element": "C" 
			},
			{
				"x": -1.4179070838,
				"y": 3.5209410475,
				"z": 0.7511266874,
				"element": "O" 
			},
			{
				"x": 0.1683421409,
				"y": 2.0714446037,
				"z": 1.8984955365,
				"element": "C" 
			},
			{
				"x": 1.0122817239,
				"y": 2.2404366381,
				"z": 0.7751961155,
				"element": "O" 
			},
			{
				"x": 0.7869646045,
				"y": 1.4046128701,
				"z": -0.3011565722,
				"element": "C" 
			},
			{
				"x": 0.1764331602,
				"y": 1.9147508402,
				"z": -1.450067251,
				"element": "C" 
			},
			{
				"x": 0.0178995078,
				"y": 1.097057192,
				"z": -2.5678886887,
				"element": "C" 
			},
			{
				"x": 0.465407742,
				"y": -0.2204200441,
				"z": -2.5167827136,
				"element": "C" 
			},
			{
				"x": 0.3653368757,
				"y": -1.022785322,
				"z": -3.6697837921,
				"element": "O" 
			},
			{
				"x": -0.7472294529,
				"y": -1.7846507025,
				"z": -3.7922560573,
				"element": "C" 
			},
			{
				"x": -0.8754344252,
				"y": -2.6765878975,
				"z": -2.787516709,
				"element": "F" 
			},
			{
				"x": -0.6574915024,
				"y": -2.4546719785,
				"z": -4.942014286,
				"element": "F" 
			},
			{
				"x": -1.8772155033,
				"y": -1.049866086,
				"z": -3.8112416386,
				"element": "F" 
			},
			{
				"x": 1.0743342733,
				"y": -0.741149231,
				"z": -1.3788427599,
				"element": "C" 
			},
			{
				"x": 1.2390423689,
				"y": 0.0814632597,
				"z": -0.26467946,
				"element": "C" 
			},
			{
				"x": -2.4072023939,
				"y": 1.3066521203,
				"z": 4.0946188677,
				"element": "H" 
			},
			{
				"x": -1.6920476117,
				"y": 2.6403428139,
				"z": 4.7627217484,
				"element": "H" 
			},
			{
				"x": -2.8775838687,
				"y": 3.2931856385,
				"z": 2.7046240404,
				"element": "H" 
			},
			{
				"x": 0.7111183284,
				"y": 2.4477962301,
				"z": 2.7700352122,
				"element": "H" 
			},
			{
				"x": -0.0528701579,
				"y": 1.0145266879,
				"z": 2.0902593465,
				"element": "H" 
			},
			{
				"x": -0.1810395576,
				"y": 2.936860015,
				"z": -1.434436888,
				"element": "H" 
			},
			{
				"x": -0.4502096581,
				"y": 1.468169103,
				"z": -3.4729163865,
				"element": "H" 
			},
			{
				"x": 1.4238402823,
				"y": -1.7675040002,
				"z": -1.3784544079,
				"element": "H" 
			},
			{
				"x": 1.7341237042,
				"y": -0.2903472412,
				"z": 0.6270057743,
				"element": "H" 
			}
		],
		 "valence_orbital": [ 
			{
				"type": "occ",
				"energy": -0.28546,
				"method": "rhf"
			},
			{
				"type": "occ",
				"energy": -0.26885,
				"method": "rhf"
			},
			{
				"type": "occ",
				"energy": -0.25788,
				"method": "rhf"
			},
			{
				"type": "occ",
				"energy": -0.25682,
				"method": "rhf"
			},
			{
				"type": "occ",
				"energy": -0.23595,
				"method": "rhf"
			},
			{
				"type": "unocc",
				"energy": -0.00923,
				"method": "rhf"
			},
			{
				"type": "unocc",
				"energy": -0.00189,
				"method": "rhf"
			},
			{
				"type": "unocc",
				"energy": 0.02275,
				"method": "rhf"
			},
			{
				"type": "unocc",
				"energy": 0.05116,
				"method": "rhf"
			},
			{
				"type": "unocc",
				"energy": 0.08852,
				"method": "rhf"
			}
		],
		"cosmo_sigma_profile": { 
			"-0.025": 0.0,
			"-0.024": 0.0,
			"-0.023": 0.0,
			"-0.022": 0.0,
			"-0.021": 0.0,
			"-0.02": 0.0,
			"-0.019": 0.0,
			"-0.018": 0.0,
			"-0.017": 0.0,
			"-0.016": 0.0,
			"-0.015": 0.0,
			"-0.014": 0.3913012541,
			"-0.013": 1.66349417785,
			"-0.012": 4.49963722324,
			"-0.011": 4.28814844504,
			"-0.01": 5.49071483719,
			"-0.009": 4.95635785109,
			"-0.008": 3.41700993099,
			"-0.007": 7.84711865851,
			"-0.006": 11.3032084595,
			"-0.005": 13.4552895638,
			"-0.004": 11.9654079013,
			"-0.003": 11.172593511,
			"-0.002": 11.6626494882,
			"-0.001": 14.9838965612,
			"0.0": 14.3193579278,
			"0.001": 23.8335416659,
			"0.002": 46.5710056762,
			"0.003": 23.7032492243,
			"0.004": 7.53562782431,
			"0.005": 5.56230789964,
			"0.006": 4.36076862699,
			"0.007": 5.4605343166,
			"0.008": 3.60007671357,
			"0.009": 2.7298457342,
			"0.01": 3.39590401544,
			"0.011": 4.25278273519,
			"0.012": 3.5145126529,
			"0.013": 3.98311407085,
			"0.014": 1.79856234462,
			"0.015": 0.0835999364689,
			"0.016": 0.0,
			"0.017": 0.0,
			"0.018": 0.0,
			"0.019": 0.0,
			"0.02": 0.0,
			"0.021": 0.0,
			"0.022": 0.0,
			"0.023": 0.0,
			"0.024": 0.0,
			"0.025": 0.0
		}
	}
}
