{
	 "smiles": "OC(=O)C1=C(Cl)C=CC(=C1)S(=O)(=O)N1CCCCC1", 
	 "Tm": 488.15, 
	 "num_atms": 33, 
	 "gaussian": { 
		 "optdone": 1, 
		 "sigma_profile": "yes", 
		 "theory": "DFT", 
		 "functional": "B3LYP", 
		 "basiset": "6-31G**", 
		 "properties": { 
			 "R2extent": 7994.1884, 
			 "electric_dipole_moment_norm": 3.4144957534, 
			 "electric_quadrupole_moment_norm": 35.5580312138, 
			 "total_energy": -1679.67368062, 
			 "HOMO_LUMO_gap": 0.17521, 
			 "cosmo_polarized_energy": -17.77, 
			 "cosmo_cavitation_energy": 38.43, 
			 "cosmo_dispersion_energy": -27.62, 
			 "cosmo_repulsion_energy": 2.08, 
			 "cosmo_total_nonelectrostatic_energy": 12.89, 
			 "SMD_solvation_energy": 5.84 
		},
		"coords": [
			{
				"x": 0.5590643398,
				"y": 4.2297146863,
				"z": 3.6768166028,
				"element": "O" 
			},
			{
				"x": 0.7574425507,
				"y": 3.4690480996,
				"z": 2.5881745593,
				"element": "C" 
			},
			{
				"x": 1.0897846909,
				"y": 3.9812789762,
				"z": 1.5436558856,
				"element": "O" 
			},
			{
				"x": 0.5905245499,
				"y": 1.9617811792,
				"z": 2.6870295649,
				"element": "C" 
			},
			{
				"x": -0.0209023356,
				"y": 1.2003880998,
				"z": 3.7007057416,
				"element": "C" 
			},
			{
				"x": -0.7456963365,
				"y": 1.9349929688,
				"z": 5.1379084644,
				"element": "Cl" 
			},
			{
				"x": -0.1148438017,
				"y": -0.1898070829,
				"z": 3.6240045712,
				"element": "C" 
			},
			{
				"x": 0.4120999284,
				"y": -0.862599369,
				"z": 2.5258079462,
				"element": "C" 
			},
			{
				"x": 1.0249412602,
				"y": -0.1269393826,
				"z": 1.5113752677,
				"element": "C" 
			},
			{
				"x": 1.1109551581,
				"y": 1.2569818058,
				"z": 1.5900105126,
				"element": "C" 
			},
			{
				"x": 1.7831501733,
				"y": -1.0092660417,
				"z": 0.1323537845,
				"element": "S" 
			},
			{
				"x": 1.1793988895,
				"y": -2.3502341221,
				"z": 0.1417933707,
				"element": "O" 
			},
			{
				"x": 3.2372276939,
				"y": -0.850300693,
				"z": 0.2179803826,
				"element": "O" 
			},
			{
				"x": 1.2835837102,
				"y": -0.1129900025,
				"z": -1.1862952344,
				"element": "N" 
			},
			{
				"x": 2.3144939487,
				"y": 0.2295391789,
				"z": -2.1998038466,
				"element": "C" 
			},
			{
				"x": 1.6644480774,
				"y": 1.1118645117,
				"z": -3.2667116978,
				"element": "C" 
			},
			{
				"x": 0.5446852571,
				"y": 0.3644907528,
				"z": -4.0288648199,
				"element": "C" 
			},
			{
				"x": -0.1181920342,
				"y": -0.7155047799,
				"z": -3.1450230755,
				"element": "C" 
			},
			{
				"x": -0.1059780727,
				"y": -0.3171024101,
				"z": -1.6668405469,
				"element": "C" 
			},
			{
				"x": 0.2849827378,
				"y": 3.7008256089,
				"z": 4.4435254553,
				"element": "H" 
			},
			{
				"x": -0.6038449858,
				"y": -0.7362745548,
				"z": 4.4223283008,
				"element": "H" 
			},
			{
				"x": 0.3428171652,
				"y": -1.9416516907,
				"z": 2.4453429878,
				"element": "H" 
			},
			{
				"x": 1.5647093883,
				"y": 1.8370003228,
				"z": 0.7951275778,
				"element": "H" 
			},
			{
				"x": 3.1292075664,
				"y": 0.7511737917,
				"z": -1.6963126748,
				"element": "H" 
			},
			{
				"x": 2.7386565877,
				"y": -0.672634468,
				"z": -2.6617421826,
				"element": "H" 
			},
			{
				"x": 2.4399719328,
				"y": 1.4575132056,
				"z": -3.9578359305,
				"element": "H" 
			},
			{
				"x": 1.2617310737,
				"y": 2.0057470995,
				"z": -2.7765339282,
				"element": "H" 
			},
			{
				"x": -0.2051928668,
				"y": 1.0871210898,
				"z": -4.3691018796,
				"element": "H" 
			},
			{
				"x": 0.9506554058,
				"y": -0.107382375,
				"z": -4.930355359,
				"element": "H" 
			},
			{
				"x": 0.4114374729,
				"y": -1.6695667347,
				"z": -3.2452076792,
				"element": "H" 
			},
			{
				"x": -1.1511920567,
				"y": -0.8966022044,
				"z": -3.4607802726,
				"element": "H" 
			},
			{
				"x": -0.6733117844,
				"y": 0.6103803034,
				"z": -1.5146000368,
				"element": "H" 
			},
			{
				"x": -0.5743152842,
				"y": -1.0978857696,
				"z": -1.0635318114,
				"element": "H" 
			}
		],
		 "valence_orbital": [ 
			{
				"type": "occ",
				"energy": -0.3032,
				"method": "rhf"
			},
			{
				"type": "occ",
				"energy": -0.29539,
				"method": "rhf"
			},
			{
				"type": "occ",
				"energy": -0.28558,
				"method": "rhf"
			},
			{
				"type": "occ",
				"energy": -0.28377,
				"method": "rhf"
			},
			{
				"type": "occ",
				"energy": -0.25058,
				"method": "rhf"
			},
			{
				"type": "unocc",
				"energy": -0.07537,
				"method": "rhf"
			},
			{
				"type": "unocc",
				"energy": -0.05549,
				"method": "rhf"
			},
			{
				"type": "unocc",
				"energy": -0.01119,
				"method": "rhf"
			},
			{
				"type": "unocc",
				"energy": 0.02382,
				"method": "rhf"
			},
			{
				"type": "unocc",
				"energy": 0.05504,
				"method": "rhf"
			}
		],
		"cosmo_sigma_profile": { 
			"-0.025": 0.0,
			"-0.024": 0.0,
			"-0.023": 0.0,
			"-0.022": 0.0,
			"-0.021": 0.0,
			"-0.02": 0.0,
			"-0.019": 0.0,
			"-0.018": 0.0,
			"-0.017": 0.0,
			"-0.016": 0.0,
			"-0.015": 0.0,
			"-0.014": 0.0937452984608,
			"-0.013": 1.11527687349,
			"-0.012": 1.06766443022,
			"-0.011": 1.51700209318,
			"-0.01": 1.19722107652,
			"-0.009": 3.23532826315,
			"-0.008": 5.61817424643,
			"-0.007": 4.43806261395,
			"-0.006": 5.11807990166,
			"-0.005": 11.7252471216,
			"-0.004": 30.7572340324,
			"-0.003": 39.8239090599,
			"-0.002": 42.1934413691,
			"-0.001": 36.3775770791,
			"0.0": 29.1372180378,
			"0.001": 13.7928478622,
			"0.002": 9.72463574278,
			"0.003": 5.90330803192,
			"0.004": 4.96727785972,
			"0.005": 4.52286432197,
			"0.006": 4.56182511309,
			"0.007": 5.02843474801,
			"0.008": 6.44512273797,
			"0.009": 7.52768123582,
			"0.01": 11.270621867,
			"0.011": 13.2938763929,
			"0.012": 5.84322087256,
			"0.013": 0.375732727179,
			"0.014": 0.0,
			"0.015": 0.0,
			"0.016": 0.0,
			"0.017": 0.0,
			"0.018": 0.0,
			"0.019": 0.0,
			"0.02": 0.0,
			"0.021": 0.0,
			"0.022": 0.0,
			"0.023": 0.0,
			"0.024": 0.0,
			"0.0": 0.0
		}
	}
}
