{
	 "smiles": "OC(=O)C1=CC=C(NC(=O)C2CC2)S1", 
	 "Tm": 479.15, 
	 "num_atms": 23, 
	 "gaussian": { 
		 "optdone": 1, 
		 "sigma_profile": "yes", 
		 "theory": "DFT", 
		 "functional": "B3LYP", 
		 "basiset": "6-31G**", 
		 "properties": { 
			 "R2extent": 4606.8552, 
			 "electric_dipole_moment_norm": 2.36435955599, 
			 "electric_quadrupole_moment_norm": 31.4736884758, 
			 "total_energy": -1026.9661373, 
			 "HOMO_LUMO_gap": 0.17421, 
			 "cosmo_polarized_energy": -19.28, 
			 "cosmo_cavitation_energy": 29.76, 
			 "cosmo_dispersion_energy": -21.76, 
			 "cosmo_repulsion_energy": 1.68, 
			 "cosmo_total_nonelectrostatic_energy": 9.69, 
			 "SMD_solvation_energy": 6.31 
		},
		"coords": [
			{
				"x": -0.264809655,
				"y": 0.5962110261,
				"z": 5.4222724721,
				"element": "O" 
			},
			{
				"x": -0.6704859351,
				"y": 1.4646030891,
				"z": 4.4574360701,
				"element": "C" 
			},
			{
				"x": -1.0370924206,
				"y": 2.5775239757,
				"z": 4.7551794604,
				"element": "O" 
			},
			{
				"x": -0.6361494715,
				"y": 0.9931298095,
				"z": 3.0544096576,
				"element": "C" 
			},
			{
				"x": -1.233591126,
				"y": 1.6461833695,
				"z": 2.0035099755,
				"element": "C" 
			},
			{
				"x": -1.1259924307,
				"y": 0.9587843325,
				"z": 0.7676502657,
				"element": "C" 
			},
			{
				"x": -0.420292768,
				"y": -0.2191125333,
				"z": 0.8650540319,
				"element": "C" 
			},
			{
				"x": -0.1011669081,
				"y": -1.1381410585,
				"z": -0.1304221127,
				"element": "N" 
			},
			{
				"x": 0.4545278603,
				"y": -0.9227273354,
				"z": -1.395225064,
				"element": "C" 
			},
			{
				"x": 0.5256557738,
				"y": -1.863783461,
				"z": -2.1722698002,
				"element": "O" 
			},
			{
				"x": 0.9529450884,
				"y": 0.4421168467,
				"z": -1.7202767011,
				"element": "C" 
			},
			{
				"x": 0.704399427,
				"y": 0.9374242081,
				"z": -3.140829962,
				"element": "C" 
			},
			{
				"x": 2.0782725178,
				"y": 0.5192688366,
				"z": -2.7394986573,
				"element": "C" 
			},
			{
				"x": 0.1468530395,
				"y": -0.4764226723,
				"z": 2.5090909044,
				"element": "S" 
			},
			{
				"x": -0.1328674951,
				"y": -0.2945825833,
				"z": 5.0666699518,
				"element": "H" 
			},
			{
				"x": -1.765010043,
				"y": 2.578853976,
				"z": 2.1487102361,
				"element": "H" 
			},
			{
				"x": -1.5703401826,
				"y": 1.2950748125,
				"z": -0.1613016186,
				"element": "H" 
			},
			{
				"x": -0.3278855957,
				"y": -2.1143630095,
				"z": 0.0226982499,
				"element": "H" 
			},
			{
				"x": 0.9457618624,
				"y": 1.1782497821,
				"z": -0.926018555,
				"element": "H" 
			},
			{
				"x": 0.486991567,
				"y": 1.9937705601,
				"z": -3.2630250663,
				"element": "H" 
			},
			{
				"x": 0.1471418852,
				"y": 0.2667963164,
				"z": -3.7865012163,
				"element": "H" 
			},
			{
				"x": 2.8325365341,
				"y": 1.2819259142,
				"z": -2.5751506689,
				"element": "H" 
			},
			{
				"x": 2.4406984759,
				"y": -0.4314842019,
				"z": -3.1147618533,
				"element": "H" 
			}
		],
		 "valence_orbital": [ 
			{
				"type": "occ",
				"energy": -0.29977,
				"method": "rhf"
			},
			{
				"type": "occ",
				"energy": -0.28383,
				"method": "rhf"
			},
			{
				"type": "occ",
				"energy": -0.28199,
				"method": "rhf"
			},
			{
				"type": "occ",
				"energy": -0.27222,
				"method": "rhf"
			},
			{
				"type": "occ",
				"energy": -0.24475,
				"method": "rhf"
			},
			{
				"type": "unocc",
				"energy": -0.07054,
				"method": "rhf"
			},
			{
				"type": "unocc",
				"energy": -0.01963,
				"method": "rhf"
			},
			{
				"type": "unocc",
				"energy": -0.00117,
				"method": "rhf"
			},
			{
				"type": "unocc",
				"energy": 0.01677,
				"method": "rhf"
			},
			{
				"type": "unocc",
				"energy": 0.05607,
				"method": "rhf"
			}
		],
		"cosmo_sigma_profile": { 
			"-0.025": 0.0,
			"-0.024": 0.0,
			"-0.023": 0.0,
			"-0.022": 0.0,
			"-0.021": 0.0,
			"-0.02": 0.0,
			"-0.019": 0.00494561350987,
			"-0.018": 0.506797709821,
			"-0.017": 1.14005487948,
			"-0.016": 0.60630303316,
			"-0.015": 2.39734956329,
			"-0.014": 1.17580261311,
			"-0.013": 2.49688458714,
			"-0.012": 2.61172790562,
			"-0.011": 1.84641847943,
			"-0.01": 1.59054773336,
			"-0.009": 1.74851635882,
			"-0.008": 4.32388500474,
			"-0.007": 4.64550534671,
			"-0.006": 8.79745159732,
			"-0.005": 15.7987635916,
			"-0.004": 14.56403518,
			"-0.003": 17.1162926292,
			"-0.002": 18.025695747,
			"-0.001": 19.1899030103,
			"0.0": 20.7613913329,
			"0.001": 20.5139804977,
			"0.002": 17.6201265989,
			"0.003": 8.87544927863,
			"0.004": 4.93881457556,
			"0.005": 5.04943312941,
			"0.006": 3.15556432782,
			"0.007": 3.369899962,
			"0.008": 4.00838565555,
			"0.009": 4.69006122652,
			"0.01": 6.95067551667,
			"0.011": 6.48086105645,
			"0.012": 7.65296026295,
			"0.013": 6.30707203116,
			"0.014": 0.521433324076,
			"0.015": 0.0,
			"0.016": 0.0,
			"0.017": 0.0,
			"0.018": 0.0,
			"0.019": 0.0,
			"0.02": 0.0,
			"0.021": 0.0,
			"0.022": 0.0,
			"0.023": 0.0,
			"0.024": 0.0,
			"0.025": 0.0
		}
	}
}
