{
	 "smiles": "CC1=C2NC3=C(CCCC3N)C2=CC=C1", 
	 "Tm": 404.15, 
	 "num_atms": 31, 
	 "gaussian": { 
		 "optdone": 1, 
		 "sigma_profile": "yes", 
		 "theory": "DFT", 
		 "functional": "B3LYP", 
		 "basiset": "6-31G**", 
		 "properties": { 
			 "R2extent": 3461.1104, 
			 "electric_dipole_moment_norm": 3.10629023274, 
			 "electric_quadrupole_moment_norm": 10.0359933554, 
			 "total_energy": -614.552645597, 
			 "HOMO_LUMO_gap": 0.18888, 
			 "cosmo_polarized_energy": -12.26, 
			 "cosmo_cavitation_energy": 32.0, 
			 "cosmo_dispersion_energy": -23.49, 
			 "cosmo_repulsion_energy": 1.84, 
			 "cosmo_total_nonelectrostatic_energy": 10.35, 
			 "SMD_solvation_energy": 3.4 
		},
		"coords": [
			{
				"x": -1.9371790169,
				"y": 2.769124084,
				"z": -1.5327676325,
				"element": "C" 
			},
			{
				"x": -0.5819581181,
				"y": 2.115115002,
				"z": -1.630531274,
				"element": "C" 
			},
			{
				"x": -0.3027800463,
				"y": 0.9105399318,
				"z": -0.9654988827,
				"element": "C" 
			},
			{
				"x": -1.1199614166,
				"y": 0.1456694582,
				"z": -0.1515339279,
				"element": "N" 
			},
			{
				"x": -0.417501127,
				"y": -0.9792654091,
				"z": 0.2662830553,
				"element": "C" 
			},
			{
				"x": 0.8581144164,
				"y": -0.9378401596,
				"z": -0.2364866677,
				"element": "C" 
			},
			{
				"x": 1.8763725896,
				"y": -2.0057323407,
				"z": 0.0460072572,
				"element": "C" 
			},
			{
				"x": 1.4095086049,
				"y": -2.8972027243,
				"z": 1.2136722726,
				"element": "C" 
			},
			{
				"x": -0.0733458314,
				"y": -3.2797627953,
				"z": 1.0824476733,
				"element": "C" 
			},
			{
				"x": -0.9923820087,
				"y": -2.0405127249,
				"z": 1.1554877713,
				"element": "C" 
			},
			{
				"x": -1.0617924431,
				"y": -1.5616203201,
				"z": 2.5529752703,
				"element": "N" 
			},
			{
				"x": 0.9594193603,
				"y": 0.2588390128,
				"z": -1.0321934198,
				"element": "C" 
			},
			{
				"x": 1.9865756712,
				"y": 0.8459906373,
				"z": -1.7915166651,
				"element": "C" 
			},
			{
				"x": 1.72776382,
				"y": 2.0379713784,
				"z": -2.4552229768,
				"element": "C" 
			},
			{
				"x": 0.4640169917,
				"y": 2.6576604878,
				"z": -2.3755702833,
				"element": "C" 
			},
			{
				"x": -2.2002862595,
				"y": 3.0028077798,
				"z": -0.4927421139,
				"element": "H" 
			},
			{
				"x": -2.731645156,
				"y": 2.1224640812,
				"z": -1.9290830077,
				"element": "H" 
			},
			{
				"x": -1.9644808992,
				"y": 3.7044339055,
				"z": -2.0977735446,
				"element": "H" 
			},
			{
				"x": -2.1085281201,
				"y": 0.2907552124,
				"z": -0.0253861065,
				"element": "H" 
			},
			{
				"x": 2.0380675877,
				"y": -2.6198043565,
				"z": -0.8532651987,
				"element": "H" 
			},
			{
				"x": 2.8509577843,
				"y": -1.5598120514,
				"z": 0.2829396086,
				"element": "H" 
			},
			{
				"x": 1.5372555515,
				"y": -2.3568281632,
				"z": 2.1578365597,
				"element": "H" 
			},
			{
				"x": 2.0275635273,
				"y": -3.8005100809,
				"z": 1.2663275634,
				"element": "H" 
			},
			{
				"x": -0.3578497435,
				"y": -3.9781307216,
				"z": 1.8786171395,
				"element": "H" 
			},
			{
				"x": -0.2478347037,
				"y": -3.7931553602,
				"z": 0.1277513588,
				"element": "H" 
			},
			{
				"x": -1.9888376723,
				"y": -2.3240125676,
				"z": 0.7665922383,
				"element": "H" 
			},
			{
				"x": -1.6818752441,
				"y": -2.1639087309,
				"z": 3.0907023653,
				"element": "H" 
			},
			{
				"x": -1.4577233719,
				"y": -0.6258245122,
				"z": 2.5871271308,
				"element": "H" 
			},
			{
				"x": 2.9633568235,
				"y": 0.3750339385,
				"z": -1.858651607,
				"element": "H" 
			},
			{
				"x": 2.5084783899,
				"y": 2.5064064298,
				"z": -3.047759991,
				"element": "H" 
			},
			{
				"x": 0.2962100599,
				"y": 3.590211679,
				"z": -2.9088839652,
				"element": "H" 
			}
		],
		 "valence_orbital": [ 
			{
				"type": "occ",
				"energy": -0.30775,
				"method": "rhf"
			},
			{
				"type": "occ",
				"energy": -0.25317,
				"method": "rhf"
			},
			{
				"type": "occ",
				"energy": -0.23697,
				"method": "rhf"
			},
			{
				"type": "occ",
				"energy": -0.2077,
				"method": "rhf"
			},
			{
				"type": "occ",
				"energy": -0.18889,
				"method": "rhf"
			},
			{
				"type": "unocc",
				"energy": -1e-05,
				"method": "rhf"
			},
			{
				"type": "unocc",
				"energy": 0.03409,
				"method": "rhf"
			},
			{
				"type": "unocc",
				"energy": 0.0628,
				"method": "rhf"
			},
			{
				"type": "unocc",
				"energy": 0.07856,
				"method": "rhf"
			},
			{
				"type": "unocc",
				"energy": 0.09056,
				"method": "rhf"
			}
		],
		"cosmo_sigma_profile": { 
			"-0.025": 0.0,
			"-0.024": 0.0,
			"-0.023": 0.0,
			"-0.022": 0.0,
			"-0.021": 0.0,
			"-0.02": 0.0,
			"-0.019": 0.0,
			"-0.018": 0.0,
			"-0.017": 0.0,
			"-0.016": 0.0,
			"-0.015": 0.164527917202,
			"-0.014": 0.72375569022,
			"-0.013": 1.12671023979,
			"-0.012": 1.1203491651,
			"-0.011": 1.0999641621,
			"-0.01": 1.78003016022,
			"-0.009": 4.89218946151,
			"-0.008": 5.2052803868,
			"-0.007": 3.64930185875,
			"-0.006": 4.39423188216,
			"-0.005": 6.96685741069,
			"-0.004": 16.4399289647,
			"-0.003": 22.2332532642,
			"-0.002": 26.2725119286,
			"-0.001": 28.2286721137,
			"0.0": 28.2105997787,
			"0.001": 20.9184992038,
			"0.002": 11.6136877689,
			"0.003": 8.53731009305,
			"0.004": 8.14036799906,
			"0.005": 9.88176987443,
			"0.006": 13.1498348108,
			"0.007": 11.6087873781,
			"0.008": 6.62147976453,
			"0.009": 1.3304798758,
			"0.01": 0.546792080491,
			"0.011": 1.08001881587,
			"0.012": 0.773841335114,
			"0.013": 0.847073272211,
			"0.014": 0.861019295013,
			"0.015": 0.741255619037,
			"0.016": 0.488302851207,
			"0.017": 0.425404141241,
			"0.018": 0.150638804974,
			"0.019": 0.0,
			"0.02": 0.0,
			"0.021": 0.0,
			"0.022": 0.0,
			"0.023": 0.0,
			"0.024": 0.0,
			"0.025": 0.0
		}
	}
}
