{
	 "smiles": "CC1=C(C)C=C(NC(=O)C(=O)NN)C=C1", 
	 "Tm": 456.15, 
	 "num_atms": 28, 
	 "gaussian": { 
		 "optdone": 1, 
		 "sigma_profile": "yes", 
		 "theory": "DFT", 
		 "functional": "B3LYP", 
		 "basiset": "6-31G**", 
		 "properties": { 
			 "R2extent": 4208.0075, 
			 "electric_dipole_moment_norm": 2.74089072566, 
			 "electric_quadrupole_moment_norm": 9.69711459146, 
			 "total_energy": -703.602679818, 
			 "HOMO_LUMO_gap": 0.17902, 
			 "cosmo_polarized_energy": -15.87, 
			 "cosmo_cavitation_energy": 32.27, 
			 "cosmo_dispersion_energy": -22.89, 
			 "cosmo_repulsion_energy": 1.83, 
			 "cosmo_total_nonelectrostatic_energy": 11.21, 
			 "SMD_solvation_energy": 7.26 
		},
		"coords": [
			{
				"x": -1.6579592535,
				"y": -2.434496317,
				"z": 2.7274640253,
				"element": "C" 
			},
			{
				"x": -0.6779417952,
				"y": -1.7908681184,
				"z": 1.7765191021,
				"element": "C" 
			},
			{
				"x": -0.8904663069,
				"y": -0.4810594876,
				"z": 1.2907651848,
				"element": "C" 
			},
			{
				"x": -2.1033837684,
				"y": 0.3123757039,
				"z": 1.7149599374,
				"element": "C" 
			},
			{
				"x": 0.0412202503,
				"y": 0.0869275061,
				"z": 0.4207318711,
				"element": "C" 
			},
			{
				"x": 1.1643760233,
				"y": -0.6278053925,
				"z": -0.0053354051,
				"element": "C" 
			},
			{
				"x": 2.1526160136,
				"y": -0.0385305578,
				"z": -0.8492934248,
				"element": "N" 
			},
			{
				"x": 2.0643558428,
				"y": 0.6917765175,
				"z": -1.9960194391,
				"element": "C" 
			},
			{
				"x": 3.0440954314,
				"y": 1.2620336968,
				"z": -2.4742797265,
				"element": "O" 
			},
			{
				"x": 0.7226214337,
				"y": 0.7373714189,
				"z": -2.7545927153,
				"element": "C" 
			},
			{
				"x": -0.2215037812,
				"y": -0.0210082632,
				"z": -2.5699248157,
				"element": "O" 
			},
			{
				"x": 0.7464784028,
				"y": 1.7058450887,
				"z": -3.7052852347,
				"element": "N" 
			},
			{
				"x": -0.2658482931,
				"y": 1.7850417078,
				"z": -4.6817321164,
				"element": "N" 
			},
			{
				"x": 1.3804948551,
				"y": -1.9185070785,
				"z": 0.4763676121,
				"element": "C" 
			},
			{
				"x": 0.4638096453,
				"y": -2.4828367083,
				"z": 1.3623541952,
				"element": "C" 
			},
			{
				"x": -2.6602209063,
				"y": -2.5074672806,
				"z": 2.2879463403,
				"element": "H" 
			},
			{
				"x": -1.7629914,
				"y": -1.8586959303,
				"z": 3.6552534225,
				"element": "H" 
			},
			{
				"x": -1.3389619415,
				"y": -3.4445677854,
				"z": 2.9974946989,
				"element": "H" 
			},
			{
				"x": -2.1467671417,
				"y": 0.4372786942,
				"z": 2.8036777303,
				"element": "H" 
			},
			{
				"x": -3.033089282,
				"y": -0.187421972,
				"z": 1.417346124,
				"element": "H" 
			},
			{
				"x": -2.1027952783,
				"y": 1.3075765293,
				"z": 1.2633366285,
				"element": "H" 
			},
			{
				"x": -0.1095389095,
				"y": 1.1014617337,
				"z": 0.0665205435,
				"element": "H" 
			},
			{
				"x": 3.1119964259,
				"y": -0.0972508246,
				"z": -0.5263806721,
				"element": "H" 
			},
			{
				"x": 1.6454387668,
				"y": 2.1097454654,
				"z": -3.9378850913,
				"element": "H" 
			},
			{
				"x": -1.0202445544,
				"y": 2.3555269012,
				"z": -4.2994446101,
				"element": "H" 
			},
			{
				"x": -0.653841337,
				"y": 0.8444286869,
				"z": -4.7698467709,
				"element": "H" 
			},
			{
				"x": 2.251516021,
				"y": -2.4799156343,
				"z": 0.150894304,
				"element": "H" 
			},
			{
				"x": 0.6367348372,
				"y": -3.4898582997,
				"z": 1.7330883021,
				"element": "H" 
			}
		],
		 "valence_orbital": [ 
			{
				"type": "occ",
				"energy": -0.28825,
				"method": "rhf"
			},
			{
				"type": "occ",
				"energy": -0.25869,
				"method": "rhf"
			},
			{
				"type": "occ",
				"energy": -0.24379,
				"method": "rhf"
			},
			{
				"type": "occ",
				"energy": -0.24272,
				"method": "rhf"
			},
			{
				"type": "occ",
				"energy": -0.2235,
				"method": "rhf"
			},
			{
				"type": "unocc",
				"energy": -0.04448,
				"method": "rhf"
			},
			{
				"type": "unocc",
				"energy": -0.00168,
				"method": "rhf"
			},
			{
				"type": "unocc",
				"energy": 0.00393,
				"method": "rhf"
			},
			{
				"type": "unocc",
				"energy": 0.0849,
				"method": "rhf"
			},
			{
				"type": "unocc",
				"energy": 0.08917,
				"method": "rhf"
			}
		],
		"cosmo_sigma_profile": { 
			"-0.025": 0.0,
			"-0.024": 0.0,
			"-0.023": 0.0,
			"-0.022": 0.0,
			"-0.021": 0.0,
			"-0.02": 0.0,
			"-0.019": 0.0,
			"-0.018": 0.0,
			"-0.017": 0.0,
			"-0.016": 0.00497573468932,
			"-0.015": 0.580148221392,
			"-0.014": 1.02217656603,
			"-0.013": 1.26291953993,
			"-0.012": 2.60804918617,
			"-0.011": 3.22788820199,
			"-0.01": 4.93369708845,
			"-0.009": 3.93859288621,
			"-0.008": 2.71585241301,
			"-0.007": 5.44073486305,
			"-0.006": 9.06582550034,
			"-0.005": 11.0487215761,
			"-0.004": 22.6765192392,
			"-0.003": 21.5934586327,
			"-0.002": 19.8471095599,
			"-0.001": 22.193704312,
			"0.0": 24.5726636141,
			"0.001": 15.7868734287,
			"0.002": 10.6055156993,
			"0.003": 10.5939791698,
			"0.004": 8.68050252058,
			"0.005": 9.87619693025,
			"0.006": 5.9167405499,
			"0.007": 4.92042733611,
			"0.008": 2.40363448918,
			"0.009": 4.10460186641,
			"0.01": 3.8537797084,
			"0.011": 5.47814125592,
			"0.012": 8.01994026634,
			"0.013": 5.54728456487,
			"0.014": 0.671750837527,
			"0.015": 0.6548623713,
			"0.016": 0.589331847174,
			"0.017": 0.0,
			"0.018": 0.0,
			"0.019": 0.0,
			"0.02": 0.0,
			"0.021": 0.0,
			"0.022": 0.0,
			"0.023": 0.0,
			"0.024": 0.0,
			"0.025": 0.0
		}
	}
}
