{
	 "smiles": "CCOC(=O)C1=CNC2=C(OC(F)(F)F)C=CC=C2C1=O", 
	 "Tm": 511.15, 
	 "num_atms": 31, 
	 "gaussian": { 
		 "optdone": 1, 
		 "sigma_profile": "yes", 
		 "theory": "DFT", 
		 "functional": "B3LYP", 
		 "basiset": "6-31G**", 
		 "properties": { 
			 "R2extent": 8093.1322, 
			 "electric_dipole_moment_norm": 2.81162212788, 
			 "electric_quadrupole_moment_norm": 5.9873953018, 
			 "total_energy": -1156.60647269, 
			 "HOMO_LUMO_gap": 0.17443, 
			 "cosmo_polarized_energy": -19.17, 
			 "cosmo_cavitation_energy": 37.74, 
			 "cosmo_dispersion_energy": -26.65, 
			 "cosmo_repulsion_energy": 1.97, 
			 "cosmo_total_nonelectrostatic_energy": 13.06, 
			 "SMD_solvation_energy": 9.42 
		},
		"coords": [
			{
				"x": -3.687736007,
				"y": 1.8160639483,
				"z": 4.698368251,
				"element": "C" 
			},
			{
				"x": -3.4968745114,
				"y": 2.4359210262,
				"z": 3.3271906616,
				"element": "C" 
			},
			{
				"x": -2.4295800239,
				"y": 1.7111881116,
				"z": 2.6757411717,
				"element": "O" 
			},
			{
				"x": -2.1169149524,
				"y": 2.1207765841,
				"z": 1.4401913335,
				"element": "C" 
			},
			{
				"x": -2.6819818456,
				"y": 3.0461019313,
				"z": 0.8753855873,
				"element": "O" 
			},
			{
				"x": -1.0120291064,
				"y": 1.3434099802,
				"z": 0.8105622154,
				"element": "C" 
			},
			{
				"x": -0.6877150225,
				"y": 1.753918144,
				"z": -0.4566552147,
				"element": "C" 
			},
			{
				"x": 0.2848011267,
				"y": 1.1812367277,
				"z": -1.203536495,
				"element": "N" 
			},
			{
				"x": 1.0330757935,
				"y": 0.120334301,
				"z": -0.7247971055,
				"element": "C" 
			},
			{
				"x": 2.0451862488,
				"y": -0.4628691098,
				"z": -1.5061800311,
				"element": "C" 
			},
			{
				"x": 2.3052923265,
				"y": 0.1214245676,
				"z": -2.7601506054,
				"element": "O" 
			},
			{
				"x": 1.8691574822,
				"y": -0.5501483224,
				"z": -3.8643453145,
				"element": "C" 
			},
			{
				"x": 0.5320448481,
				"y": -0.7169379093,
				"z": -3.8479829001,
				"element": "F" 
			},
			{
				"x": 2.4259346893,
				"y": -1.7660521852,
				"z": -3.9827449696,
				"element": "F" 
			},
			{
				"x": 2.1963445386,
				"y": 0.1789730823,
				"z": -4.9288165277,
				"element": "F" 
			},
			{
				"x": 2.806542783,
				"y": -1.5109725079,
				"z": -1.0218252705,
				"element": "C" 
			},
			{
				"x": 2.5506935117,
				"y": -2.0085021027,
				"z": 0.2656621811,
				"element": "C" 
			},
			{
				"x": 1.5510425265,
				"y": -1.4446464602,
				"z": 1.0457363691,
				"element": "C" 
			},
			{
				"x": 0.7817019742,
				"y": -0.3727797801,
				"z": 0.5680901642,
				"element": "C" 
			},
			{
				"x": -0.2854994874,
				"y": 0.2221642375,
				"z": 1.4334082857,
				"element": "C" 
			},
			{
				"x": -0.4906654109,
				"y": -0.2272210037,
				"z": 2.5575991137,
				"element": "O" 
			},
			{
				"x": -3.9533318285,
				"y": 0.7587586975,
				"z": 4.613855769,
				"element": "H" 
			},
			{
				"x": -2.7714343963,
				"y": 1.8910420397,
				"z": 5.2902630505,
				"element": "H" 
			},
			{
				"x": -4.4903773127,
				"y": 2.335056694,
				"z": 5.2319756316,
				"element": "H" 
			},
			{
				"x": -4.3998091567,
				"y": 2.3661130748,
				"z": 2.7119853259,
				"element": "H" 
			},
			{
				"x": -3.2224444379,
				"y": 3.4941843712,
				"z": 3.385867019,
				"element": "H" 
			},
			{
				"x": -1.227116561,
				"y": 2.5805824338,
				"z": -0.9059227731,
				"element": "H" 
			},
			{
				"x": 0.4854334403,
				"y": 1.5249960006,
				"z": -2.1312697863,
				"element": "H" 
			},
			{
				"x": 3.589563325,
				"y": -1.9290207592,
				"z": -1.6435946397,
				"element": "H" 
			},
			{
				"x": 3.144428598,
				"y": -2.8333293046,
				"z": 0.6457379927,
				"element": "H" 
			},
			{
				"x": 1.3317668482,
				"y": -1.8033665084,
				"z": 2.0456015105,
				"element": "H" 
			}
		],
		 "valence_orbital": [ 
			{
				"type": "occ",
				"energy": -0.28257,
				"method": "rhf"
			},
			{
				"type": "occ",
				"energy": -0.27229,
				"method": "rhf"
			},
			{
				"type": "occ",
				"energy": -0.26933,
				"method": "rhf"
			},
			{
				"type": "occ",
				"energy": -0.23776,
				"method": "rhf"
			},
			{
				"type": "occ",
				"energy": -0.23264,
				"method": "rhf"
			},
			{
				"type": "unocc",
				"energy": -0.05821,
				"method": "rhf"
			},
			{
				"type": "unocc",
				"energy": -0.0493,
				"method": "rhf"
			},
			{
				"type": "unocc",
				"energy": -0.00346,
				"method": "rhf"
			},
			{
				"type": "unocc",
				"energy": 0.02797,
				"method": "rhf"
			},
			{
				"type": "unocc",
				"energy": 0.05478,
				"method": "rhf"
			}
		],
		"cosmo_sigma_profile": { 
			"-0.025": 0.0,
			"-0.024": 0.0,
			"-0.023": 0.0,
			"-0.022": 0.0,
			"-0.021": 0.0,
			"-0.02": 0.0,
			"-0.019": 0.0,
			"-0.018": 0.37160731909,
			"-0.017": 1.04253791816,
			"-0.016": 1.01283292009,
			"-0.015": 0.958721214215,
			"-0.014": 0.839526196882,
			"-0.013": 1.22240866196,
			"-0.012": 1.55813673034,
			"-0.011": 1.61041466973,
			"-0.01": 1.43524880663,
			"-0.009": 2.33112640409,
			"-0.008": 3.66866505804,
			"-0.007": 5.86493995102,
			"-0.006": 7.65627134217,
			"-0.005": 13.8779461581,
			"-0.004": 19.0047086564,
			"-0.003": 23.1339311874,
			"-0.002": 29.7033565113,
			"-0.001": 30.4656616149,
			"0.0": 31.752855281,
			"0.001": 35.897723727,
			"0.002": 32.2031081264,
			"0.003": 8.37418713511,
			"0.004": 5.35607226405,
			"0.005": 4.46638531335,
			"0.006": 3.92168449469,
			"0.007": 3.16334022481,
			"0.008": 3.48702862926,
			"0.009": 2.79166051142,
			"0.01": 3.42758368064,
			"0.011": 4.26146819112,
			"0.012": 6.27409284651,
			"0.013": 5.00859918498,
			"0.014": 3.30648333755,
			"0.015": 2.4662179017,
			"0.016": 0.419017077808,
			"0.017": 0.0,
			"0.018": 0.0,
			"0.019": 0.0,
			"0.02": 0.0,
			"0.021": 0.0,
			"0.022": 0.0,
			"0.023": 0.0,
			"0.024": 0.0,
			"0.025": 0.0
		}
	}
}
