{
	 "smiles": "Cl[Si](Cl)(Cl)CCC12CC3CC(CC(C3)C1)C2", 
	 "Tm": 309.15, 
	 "num_atms": 35, 
	 "gaussian": { 
		 "optdone": 1, 
		 "sigma_profile": "yes", 
		 "theory": "DFT", 
		 "functional": "B3LYP", 
		 "basiset": "6-31G**", 
		 "properties": { 
			 "R2extent": 9030.3811, 
			 "electric_dipole_moment_norm": 3.26724848305, 
			 "electric_quadrupole_moment_norm": 13.8713683359, 
			 "total_energy": -2139.00434936, 
			 "HOMO_LUMO_gap": 0.27255, 
			 "cosmo_polarized_energy": -3.56, 
			 "cosmo_cavitation_energy": 39.15, 
			 "cosmo_dispersion_energy": -26.55, 
			 "cosmo_repulsion_energy": 2.15, 
			 "cosmo_total_nonelectrostatic_energy": 14.75, 
			 "SMD_solvation_energy": 3.64 
		},
		"coords": [
			{
				"x": -5.2106578583,
				"y": 0.0059629394,
				"z": 1.0499746079,
				"element": "Cl" 
			},
			{
				"x": -3.8704423014,
				"y": 1.4143452362,
				"z": 1.757569539,
				"element": "Si" 
			},
			{
				"x": -4.5244656458,
				"y": 3.2830814519,
				"z": 1.1573788028,
				"element": "Cl" 
			},
			{
				"x": -3.905981411,
				"y": 1.3538747463,
				"z": 3.8252856039,
				"element": "Cl" 
			},
			{
				"x": -2.1515454108,
				"y": 1.1018221517,
				"z": 1.1012527249,
				"element": "C" 
			},
			{
				"x": -1.5497614216,
				"y": -0.2664283364,
				"z": 1.4826339176,
				"element": "C" 
			},
			{
				"x": -0.1243006995,
				"y": -0.5542948674,
				"z": 0.9523849585,
				"element": "C" 
			},
			{
				"x": -0.0689054964,
				"y": -0.5454452134,
				"z": -0.5957046271,
				"element": "C" 
			},
			{
				"x": 1.3488852864,
				"y": -0.9006104864,
				"z": -1.0928685343,
				"element": "C" 
			},
			{
				"x": 2.3552992087,
				"y": 0.1332002269,
				"z": -0.546606547,
				"element": "C" 
			},
			{
				"x": 2.3307342371,
				"y": 0.1120968478,
				"z": 0.9957955818,
				"element": "C" 
			},
			{
				"x": 2.716434404,
				"y": -1.2947517264,
				"z": 1.4959396121,
				"element": "C" 
			},
			{
				"x": 1.7091261291,
				"y": -2.327144954,
				"z": 0.9501148067,
				"element": "C" 
			},
			{
				"x": 1.735007006,
				"y": -2.3070054169,
				"z": -0.5917447012,
				"element": "C" 
			},
			{
				"x": 0.2929160365,
				"y": -1.9661242185,
				"z": 1.4407673833,
				"element": "C" 
			},
			{
				"x": 0.9110854202,
				"y": 0.4653720431,
				"z": 1.4890677113,
				"element": "C" 
			},
			{
				"x": -1.5296527111,
				"y": 1.9276039217,
				"z": 1.4684564883,
				"element": "H" 
			},
			{
				"x": -2.2142760118,
				"y": 1.2205925386,
				"z": 0.012475143,
				"element": "H" 
			},
			{
				"x": -1.5305823037,
				"y": -0.3554243277,
				"z": 2.5765471234,
				"element": "H" 
			},
			{
				"x": -2.2144205536,
				"y": -1.0617533194,
				"z": 1.1212220115,
				"element": "H" 
			},
			{
				"x": -0.350308438,
				"y": 0.4429301592,
				"z": -0.9816997749,
				"element": "H" 
			},
			{
				"x": -0.7993911324,
				"y": -1.2625790563,
				"z": -0.9954036936,
				"element": "H" 
			},
			{
				"x": 1.3612144316,
				"y": -0.8832486145,
				"z": -2.1900309456,
				"element": "H" 
			},
			{
				"x": 2.1038444931,
				"y": 1.1367095103,
				"z": -0.9149544576,
				"element": "H" 
			},
			{
				"x": 3.3654002711,
				"y": -0.0953647847,
				"z": -0.9105882547,
				"element": "H" 
			},
			{
				"x": 3.042308008,
				"y": 0.8507012289,
				"z": 1.3861179691,
				"element": "H" 
			},
			{
				"x": 3.7327653894,
				"y": -1.5467435945,
				"z": 1.1661711625,
				"element": "H" 
			},
			{
				"x": 2.7228277796,
				"y": -1.3169107702,
				"z": 2.5936873151,
				"element": "H" 
			},
			{
				"x": 1.9735429818,
				"y": -3.3289713773,
				"z": 1.3115641277,
				"element": "H" 
			},
			{
				"x": 1.0375617481,
				"y": -3.0550884876,
				"z": -0.9911490418,
				"element": "H" 
			},
			{
				"x": 2.7346477737,
				"y": -2.576252324,
				"z": -0.9569947242,
				"element": "H" 
			},
			{
				"x": 0.2557479336,
				"y": -2.0002589227,
				"z": 2.5382967305,
				"element": "H" 
			},
			{
				"x": -0.4308193471,
				"y": -2.7085120548,
				"z": 1.0772028804,
				"element": "H" 
			},
			{
				"x": 0.884998423,
				"y": 0.4746953737,
				"z": 2.5876433913,
				"element": "H" 
			},
			{
				"x": 0.6548637815,
				"y": 1.4797244771,
				"z": 1.1566957092,
				"element": "H" 
			}
		],
		 "valence_orbital": [ 
			{
				"type": "occ",
				"energy": -0.32157,
				"method": "rhf"
			},
			{
				"type": "occ",
				"energy": -0.32149,
				"method": "rhf"
			},
			{
				"type": "occ",
				"energy": -0.28388,
				"method": "rhf"
			},
			{
				"type": "occ",
				"energy": -0.28271,
				"method": "rhf"
			},
			{
				"type": "occ",
				"energy": -0.28202,
				"method": "rhf"
			},
			{
				"type": "unocc",
				"energy": -0.00947,
				"method": "rhf"
			},
			{
				"type": "unocc",
				"energy": 0.02532,
				"method": "rhf"
			},
			{
				"type": "unocc",
				"energy": 0.03014,
				"method": "rhf"
			},
			{
				"type": "unocc",
				"energy": 0.05676,
				"method": "rhf"
			},
			{
				"type": "unocc",
				"energy": 0.07319,
				"method": "rhf"
			}
		],
		"cosmo_sigma_profile": { 
			"-0.025": 0.0,
			"-0.024": 0.0,
			"-0.023": 0.0,
			"-0.022": 0.0,
			"-0.021": 0.0,
			"-0.02": 0.0,
			"-0.019": 0.0,
			"-0.018": 0.0,
			"-0.017": 0.0,
			"-0.016": 0.0,
			"-0.015": 0.0,
			"-0.014": 0.0,
			"-0.013": 0.0,
			"-0.012": 0.0,
			"-0.011": 0.0,
			"-0.01": 0.0,
			"-0.009": 0.0,
			"-0.008": 0.0164869020919,
			"-0.007": 2.16544826935,
			"-0.006": 3.83003550566,
			"-0.005": 4.46677210676,
			"-0.004": 5.48151105789,
			"-0.003": 10.025528377,
			"-0.002": 43.9109194067,
			"-0.001": 59.9077421199,
			"0.0": 52.6009527384,
			"0.001": 47.753881275,
			"0.002": 29.9258763923,
			"0.003": 31.0095705665,
			"0.004": 14.9007342384,
			"0.005": 0.0,
			"0.006": 0.0,
			"0.007": 0.0,
			"0.008": 0.0,
			"0.009": 0.0,
			"0.01": 0.0,
			"0.011": 0.0,
			"0.012": 0.0,
			"0.013": 0.0,
			"0.014": 0.0,
			"0.015": 0.0,
			"0.016": 0.0,
			"0.017": 0.0,
			"0.018": 0.0,
			"0.019": 0.0,
			"0.02": 0.0,
			"0.021": 0.0,
			"0.022": 0.0,
			"0.023": 0.0,
			"0.024": 0.0,
			"0.025": 0.0
		}
	}
}
