{
	 "smiles": "OC(=O)C1=CC(NS(=O)(=O)C2=C(Cl)C=CC(Cl)=C2)=CC=C1", 
	 "Tm": 491.15, 
	 "num_atms": 30, 
	 "gaussian": { 
		 "optdone": 1, 
		 "sigma_profile": "yes", 
		 "theory": "DFT", 
		 "functional": "B3LYP", 
		 "basiset": "6-31G**", 
		 "properties": { 
			 "R2extent": 10166.6239, 
			 "electric_dipole_moment_norm": 2.32275896511, 
			 "electric_quadrupole_moment_norm": 39.1356152138, 
			 "total_energy": -2174.9519479, 
			 "HOMO_LUMO_gap": 0.18364, 
			 "cosmo_polarized_energy": -23.95, 
			 "cosmo_cavitation_energy": 40.07, 
			 "cosmo_dispersion_energy": -28.81, 
			 "cosmo_repulsion_energy": 2.16, 
			 "cosmo_total_nonelectrostatic_energy": 13.42, 
			 "SMD_solvation_energy": 6.74 
		},
		"coords": [
			{
				"x": -1.708821477,
				"y": -3.0937872016,
				"z": -3.9487068843,
				"element": "O" 
			},
			{
				"x": -1.0254605853,
				"y": -2.0505201145,
				"z": -3.4103288014,
				"element": "C" 
			},
			{
				"x": -0.2109568542,
				"y": -1.4535327315,
				"z": -4.0748410617,
				"element": "O" 
			},
			{
				"x": -1.3359045836,
				"y": -1.701923769,
				"z": -1.9838993681,
				"element": "C" 
			},
			{
				"x": -0.3997466223,
				"y": -0.9141815411,
				"z": -1.3058387381,
				"element": "C" 
			},
			{
				"x": -0.6105504451,
				"y": -0.5531348221,
				"z": 0.0262532436,
				"element": "C" 
			},
			{
				"x": 0.4083474532,
				"y": 0.1648163587,
				"z": 0.7032954111,
				"element": "N" 
			},
			{
				"x": 0.2545441292,
				"y": 1.4864600138,
				"z": 1.7363869161,
				"element": "S" 
			},
			{
				"x": 1.5408123134,
				"y": 1.5429755297,
				"z": 2.4270976629,
				"element": "O" 
			},
			{
				"x": -1.0084681323,
				"y": 1.3579859524,
				"z": 2.4526953457,
				"element": "O" 
			},
			{
				"x": 0.2003691264,
				"y": 2.9799132697,
				"z": 0.6975765338,
				"element": "C" 
			},
			{
				"x": -0.8935119317,
				"y": 3.3759718176,
				"z": -0.0882059791,
				"element": "C" 
			},
			{
				"x": -2.3694178925,
				"y": 2.4521871196,
				"z": -0.1982028075,
				"element": "Cl" 
			},
			{
				"x": -0.8185336193,
				"y": 4.5588009393,
				"z": -0.8276168961,
				"element": "C" 
			},
			{
				"x": 0.3274009177,
				"y": 5.34836962,
				"z": -0.7940917783,
				"element": "C" 
			},
			{
				"x": 1.4077375892,
				"y": 4.9494899279,
				"z": -0.0085345325,
				"element": "C" 
			},
			{
				"x": 2.8527598766,
				"y": 5.935442679,
				"z": 0.0470737908,
				"element": "Cl" 
			},
			{
				"x": 1.3510921151,
				"y": 3.7756582359,
				"z": 0.7371070073,
				"element": "C" 
			},
			{
				"x": -1.7784388144,
				"y": -0.9680295996,
				"z": 0.6861210317,
				"element": "C" 
			},
			{
				"x": -2.7302177955,
				"y": -1.7093422477,
				"z": -0.009038454,
				"element": "C" 
			},
			{
				"x": -2.5170508172,
				"y": -2.0853205788,
				"z": -1.3360874415,
				"element": "C" 
			},
			{
				"x": -2.1969152723,
				"y": -3.5662135491,
				"z": -3.2601950045,
				"element": "H" 
			},
			{
				"x": 0.4878514872,
				"y": -0.5942875967,
				"z": -1.8428612757,
				"element": "H" 
			},
			{
				"x": 1.3335277767,
				"y": 0.132098497,
				"z": 0.2898076041,
				"element": "H" 
			},
			{
				"x": -1.6681562947,
				"y": 4.8568057112,
				"z": -1.4315624652,
				"element": "H" 
			},
			{
				"x": 0.3785023561,
				"y": 6.2646027832,
				"z": -1.3713473924,
				"element": "H" 
			},
			{
				"x": 2.1824196129,
				"y": 3.4706111749,
				"z": 1.3603177755,
				"element": "H" 
			},
			{
				"x": -1.9331338882,
				"y": -0.6951790169,
				"z": 1.722005281,
				"element": "H" 
			},
			{
				"x": -3.6438689685,
				"y": -2.0070269004,
				"z": 0.4960330007,
				"element": "H" 
			},
			{
				"x": -3.2907107596,
				"y": -2.6408099608,
				"z": -1.8598117239,
				"element": "H" 
			}
		],
		 "valence_orbital": [ 
			{
				"type": "occ",
				"energy": -0.29809,
				"method": "rhf"
			},
			{
				"type": "occ",
				"energy": -0.28451,
				"method": "rhf"
			},
			{
				"type": "occ",
				"energy": -0.273,
				"method": "rhf"
			},
			{
				"type": "occ",
				"energy": -0.26751,
				"method": "rhf"
			},
			{
				"type": "occ",
				"energy": -0.25062,
				"method": "rhf"
			},
			{
				"type": "unocc",
				"energy": -0.06698,
				"method": "rhf"
			},
			{
				"type": "unocc",
				"energy": -0.05823,
				"method": "rhf"
			},
			{
				"type": "unocc",
				"energy": -0.04627,
				"method": "rhf"
			},
			{
				"type": "unocc",
				"energy": -0.02932,
				"method": "rhf"
			},
			{
				"type": "unocc",
				"energy": -0.00804,
				"method": "rhf"
			}
		],
		"cosmo_sigma_profile": { 
			"-0.025": 0.0,
			"-0.024": 0.0,
			"-0.023": 0.0,
			"-0.022": 0.0,
			"-0.021": 0.0,
			"-0.02": 0.0,
			"-0.019": 0.19247433571,
			"-0.018": 1.04777824403,
			"-0.017": 1.31680039881,
			"-0.016": 2.20923377059,
			"-0.015": 2.63969425987,
			"-0.014": 1.67834210529,
			"-0.013": 2.3088494169,
			"-0.012": 2.39920299584,
			"-0.011": 2.75498677054,
			"-0.01": 2.86525562642,
			"-0.009": 4.99765665537,
			"-0.008": 8.30521424743,
			"-0.007": 10.4097380107,
			"-0.006": 11.0496485159,
			"-0.005": 13.2701155762,
			"-0.004": 12.6535397705,
			"-0.003": 17.0739914317,
			"-0.002": 20.2538412886,
			"-0.001": 26.5131258818,
			"0.0": 31.9469622823,
			"0.001": 22.6024410613,
			"0.002": 24.9878822309,
			"0.003": 27.8338287882,
			"0.004": 15.1324380758,
			"0.005": 5.65123896431,
			"0.006": 6.60303350866,
			"0.007": 5.98419189398,
			"0.008": 7.7679193557,
			"0.009": 8.91532343068,
			"0.01": 12.4906478588,
			"0.011": 7.34742887815,
			"0.012": 4.4110336861,
			"0.013": 1.21973233155,
			"0.014": 0.0165690184115,
			"0.015": 0.0,
			"0.016": 0.0,
			"0.017": 0.0,
			"0.018": 0.0,
			"0.019": 0.0,
			"0.02": 0.0,
			"0.021": 0.0,
			"0.022": 0.0,
			"0.023": 0.0,
			"0.024": 0.0,
			"0.025": 0.0
		}
	}
}
