{
	 "smiles": "NC1=CC2=C(C=C1)N=C(O2)C1=NC=CC=C1", 
	 "Tm": 452.15, 
	 "num_atms": 25, 
	 "gaussian": { 
		 "optdone": 1, 
		 "sigma_profile": "yes", 
		 "theory": "DFT", 
		 "functional": "B3LYP", 
		 "basiset": "6-31G**", 
		 "properties": { 
			 "R2extent": 5671.913, 
			 "electric_dipole_moment_norm": 3.76286656287, 
			 "electric_quadrupole_moment_norm": 23.619014092, 
			 "total_energy": -702.177504825, 
			 "HOMO_LUMO_gap": 0.14166, 
			 "cosmo_polarized_energy": -17.61, 
			 "cosmo_cavitation_energy": 30.14, 
			 "cosmo_dispersion_energy": -22.73, 
			 "cosmo_repulsion_energy": 1.74, 
			 "cosmo_total_nonelectrostatic_energy": 9.15, 
			 "SMD_solvation_energy": 2.01 
		},
		"coords": [
			{
				"x": 0.7170567157,
				"y": -0.1916023634,
				"z": -3.6212712431,
				"element": "N" 
			},
			{
				"x": 0.1582044558,
				"y": -0.2079250676,
				"z": -2.3426360892,
				"element": "C" 
			},
			{
				"x": 0.8790064076,
				"y": -0.7459775573,
				"z": -1.2620806224,
				"element": "C" 
			},
			{
				"x": 0.220896395,
				"y": -0.7747511557,
				"z": -0.0435696376,
				"element": "C" 
			},
			{
				"x": -1.0848347032,
				"y": -0.3073657155,
				"z": 0.1648889336,
				"element": "C" 
			},
			{
				"x": -1.7955301244,
				"y": 0.2270372351,
				"z": -0.9153031879,
				"element": "C" 
			},
			{
				"x": -1.1655144077,
				"y": 0.2689314417,
				"z": -2.1524928987,
				"element": "C" 
			},
			{
				"x": -1.4227663549,
				"y": -0.4837204881,
				"z": 1.5010601256,
				"element": "N" 
			},
			{
				"x": -0.3718130873,
				"y": -1.0232532998,
				"z": 2.0354920587,
				"element": "C" 
			},
			{
				"x": 0.6858409715,
				"y": -1.2367232813,
				"z": 1.1563694766,
				"element": "O" 
			},
			{
				"x": -0.1478869971,
				"y": -1.4356286152,
				"z": 3.4252062986,
				"element": "C" 
			},
			{
				"x": -1.1616315795,
				"y": -1.2275999454,
				"z": 4.2841316018,
				"element": "N" 
			},
			{
				"x": -0.9804769283,
				"y": -1.5953252714,
				"z": 5.552538752,
				"element": "C" 
			},
			{
				"x": 0.1942510423,
				"y": -2.1799573667,
				"z": 6.0359251788,
				"element": "C" 
			},
			{
				"x": 1.2396407659,
				"y": -2.3916711187,
				"z": 5.138603163,
				"element": "C" 
			},
			{
				"x": 1.0725428498,
				"y": -2.0154389153,
				"z": 3.808861761,
				"element": "C" 
			},
			{
				"x": 1.7269163684,
				"y": -0.208525814,
				"z": -3.6536148657,
				"element": "H" 
			},
			{
				"x": 0.3301916209,
				"y": 0.4971218678,
				"z": -4.2514081202,
				"element": "H" 
			},
			{
				"x": 1.8899337162,
				"y": -1.1215858509,
				"z": -1.3806254907,
				"element": "H" 
			},
			{
				"x": -2.8066802499,
				"y": 0.597930937,
				"z": -0.7858843837,
				"element": "H" 
			},
			{
				"x": -1.6964194239,
				"y": 0.6726874733,
				"z": -3.0106136197,
				"element": "H" 
			},
			{
				"x": -1.8186959396,
				"y": -1.4143330815,
				"z": 6.2235944691,
				"element": "H" 
			},
			{
				"x": 0.2802324945,
				"y": -2.4576991827,
				"z": 7.0815674787,
				"element": "H" 
			},
			{
				"x": 2.1715062746,
				"y": -2.842872628,
				"z": 5.4669142481,
				"element": "H" 
			},
			{
				"x": 1.8587297173,
				"y": -2.1621522364,
				"z": 3.0778466132,
				"element": "H" 
			}
		],
		 "valence_orbital": [ 
			{
				"type": "occ",
				"energy": -0.27927,
				"method": "rhf"
			},
			{
				"type": "occ",
				"energy": -0.26115,
				"method": "rhf"
			},
			{
				"type": "occ",
				"energy": -0.25362,
				"method": "rhf"
			},
			{
				"type": "occ",
				"energy": -0.24149,
				"method": "rhf"
			},
			{
				"type": "occ",
				"energy": -0.19505,
				"method": "rhf"
			},
			{
				"type": "unocc",
				"energy": -0.05339,
				"method": "rhf"
			},
			{
				"type": "unocc",
				"energy": -0.02041,
				"method": "rhf"
			},
			{
				"type": "unocc",
				"energy": 0.00445,
				"method": "rhf"
			},
			{
				"type": "unocc",
				"energy": 0.02595,
				"method": "rhf"
			},
			{
				"type": "unocc",
				"energy": 0.06718,
				"method": "rhf"
			}
		],
		"cosmo_sigma_profile": { 
			"-0.025": 0.0,
			"-0.024": 0.0,
			"-0.023": 0.0,
			"-0.022": 0.0,
			"-0.021": 0.0,
			"-0.02": 0.0,
			"-0.019": 0.0,
			"-0.018": 0.0,
			"-0.017": 0.0,
			"-0.016": 0.0,
			"-0.015": 0.0,
			"-0.014": 0.0,
			"-0.013": 1.29917519402,
			"-0.012": 3.11565205006,
			"-0.011": 2.33064400108,
			"-0.01": 3.38313047952,
			"-0.009": 3.4653385303,
			"-0.008": 4.94314851334,
			"-0.007": 11.3658697744,
			"-0.006": 15.6020515622,
			"-0.005": 14.5576658656,
			"-0.004": 11.2298211345,
			"-0.003": 10.3485995177,
			"-0.002": 13.3710325045,
			"-0.001": 15.838797676,
			"0.0": 16.9777395907,
			"0.001": 21.270229007,
			"0.002": 23.1016051838,
			"0.003": 15.0818859059,
			"0.004": 15.7988294134,
			"0.005": 10.6017290789,
			"0.006": 3.72323023884,
			"0.007": 3.54232953791,
			"0.008": 2.22550679397,
			"0.009": 2.15008780992,
			"0.01": 3.06774161917,
			"0.011": 2.09179399544,
			"0.012": 2.26627843814,
			"0.013": 2.4568230554,
			"0.014": 2.10160796636,
			"0.015": 0.922642993788,
			"0.016": 1.75861006283,
			"0.017": 1.60393848741,
			"0.018": 1.21768483888,
			"0.019": 0.0341420039383,
			"0.02": 0.0,
			"0.021": 0.0,
			"0.022": 0.0,
			"0.023": 0.0,
			"0.024": 0.0,
			"0.025": 0.0
		}
	}
}
