{
	 "smiles": "CC1=CC=C(C(O)=O)C(C)=C1", 
	 "Tm": 398.15, 
	 "num_atms": 21, 
	 "gaussian": { 
		 "optdone": 1, 
		 "sigma_profile": "yes", 
		 "theory": "DFT", 
		 "functional": "B3LYP", 
		 "basiset": "6-31G**", 
		 "properties": { 
			 "R2extent": 2490.0277, 
			 "electric_dipole_moment_norm": 2.24020561779, 
			 "electric_quadrupole_moment_norm": 12.355342712, 
			 "total_energy": -499.463581679, 
			 "HOMO_LUMO_gap": 0.2022, 
			 "cosmo_polarized_energy": -8.52, 
			 "cosmo_cavitation_energy": 24.48, 
			 "cosmo_dispersion_energy": -18.11, 
			 "cosmo_repulsion_energy": 1.45, 
			 "cosmo_total_nonelectrostatic_energy": 7.82, 
			 "SMD_solvation_energy": 5.53 
		},
		"coords": [
			{
				"x": -1.2726206827,
				"y": -0.7871690834,
				"z": -2.7084364645,
				"element": "C" 
			},
			{
				"x": -1.1733851666,
				"y": 0.0030678883,
				"z": -1.4264399937,
				"element": "C" 
			},
			{
				"x": -2.0855495512,
				"y": 1.0281278046,
				"z": -1.141020335,
				"element": "C" 
			},
			{
				"x": -1.9920094399,
				"y": 1.7301088799,
				"z": 0.0508592102,
				"element": "C" 
			},
			{
				"x": -0.993024981,
				"y": 1.4423744958,
				"z": 0.997365199,
				"element": "C" 
			},
			{
				"x": -1.035995904,
				"y": 2.2917356497,
				"z": 2.2200030069,
				"element": "C" 
			},
			{
				"x": -0.07619492,
				"y": 2.0205357653,
				"z": 3.1418833151,
				"element": "O" 
			},
			{
				"x": -1.8540394819,
				"y": 3.1720990438,
				"z": 2.4159431936,
				"element": "O" 
			},
			{
				"x": -0.0573418312,
				"y": 0.4135810776,
				"z": 0.7321269678,
				"element": "C" 
			},
			{
				"x": 1.0634793509,
				"y": 0.0103652411,
				"z": 1.6638248008,
				"element": "C" 
			},
			{
				"x": -0.1807326113,
				"y": -0.2762288049,
				"z": -0.4823617027,
				"element": "C" 
			},
			{
				"x": -0.3654506963,
				"y": -1.368358569,
				"z": -2.8945859944,
				"element": "H" 
			},
			{
				"x": -1.4395970659,
				"y": -0.1305338578,
				"z": -3.5686479621,
				"element": "H" 
			},
			{
				"x": -2.1145633545,
				"y": -1.489455059,
				"z": -2.6723173318,
				"element": "H" 
			},
			{
				"x": -2.8669971745,
				"y": 1.2745430307,
				"z": -1.8551452304,
				"element": "H" 
			},
			{
				"x": -2.690624521,
				"y": 2.526107091,
				"z": 0.2838867585,
				"element": "H" 
			},
			{
				"x": -0.2399364042,
				"y": 2.6491895505,
				"z": 3.8648021514,
				"element": "H" 
			},
			{
				"x": 0.6835898965,
				"y": -0.3195613391,
				"z": 2.6344812258,
				"element": "H" 
			},
			{
				"x": 1.6413373519,
				"y": -0.8059156894,
				"z": 1.2225835671,
				"element": "H" 
			},
			{
				"x": 1.740978412,
				"y": 0.8441477698,
				"z": 1.8666029676,
				"element": "H" 
			},
			{
				"x": 0.534178775,
				"y": -1.0669608855,
				"z": -0.6977073492,
				"element": "H" 
			}
		],
		 "valence_orbital": [ 
			{
				"type": "occ",
				"energy": -0.33957,
				"method": "rhf"
			},
			{
				"type": "occ",
				"energy": -0.31194,
				"method": "rhf"
			},
			{
				"type": "occ",
				"energy": -0.27166,
				"method": "rhf"
			},
			{
				"type": "occ",
				"energy": -0.24984,
				"method": "rhf"
			},
			{
				"type": "occ",
				"energy": -0.24469,
				"method": "rhf"
			},
			{
				"type": "unocc",
				"energy": -0.04249,
				"method": "rhf"
			},
			{
				"type": "unocc",
				"energy": -0.00205,
				"method": "rhf"
			},
			{
				"type": "unocc",
				"energy": 0.05941,
				"method": "rhf"
			},
			{
				"type": "unocc",
				"energy": 0.08115,
				"method": "rhf"
			},
			{
				"type": "unocc",
				"energy": 0.1023,
				"method": "rhf"
			}
		],
		"cosmo_sigma_profile": { 
			"-0.025": 0.0,
			"-0.024": 0.0,
			"-0.023": 0.0,
			"-0.022": 0.0,
			"-0.021": 0.0,
			"-0.02": 0.0,
			"-0.019": 0.0,
			"-0.018": 0.477385871902,
			"-0.017": 0.587936383213,
			"-0.016": 1.30091642528,
			"-0.015": 0.534530781962,
			"-0.014": 0.994917165664,
			"-0.013": 0.506676790423,
			"-0.012": 0.378128715879,
			"-0.011": 0.705258658497,
			"-0.01": 0.717438070212,
			"-0.009": 0.329743595953,
			"-0.008": 0.529133943569,
			"-0.007": 1.06829312752,
			"-0.006": 2.90283123979,
			"-0.005": 9.58867635615,
			"-0.004": 16.3577896147,
			"-0.003": 16.1521258389,
			"-0.002": 18.050203963,
			"-0.001": 21.5190780811,
			"0.0": 23.0182257868,
			"0.001": 14.9134232409,
			"0.002": 11.8110922156,
			"0.003": 12.41573311,
			"0.004": 13.2170642086,
			"0.005": 8.10950457948,
			"0.006": 2.98535359993,
			"0.007": 1.56693570136,
			"0.008": 1.60590894839,
			"0.009": 1.04548228122,
			"0.01": 1.80147461659,
			"0.011": 2.71171637593,
			"0.012": 4.97766874792,
			"0.013": 0.870603539541,
			"0.014": 0.0,
			"0.015": 0.0,
			"0.016": 0.0,
			"0.017": 0.0,
			"0.018": 0.0,
			"0.019": 0.0,
			"0.02": 0.0,
			"0.021": 0.0,
			"0.022": 0.0,
			"0.023": 0.0,
			"0.024": 0.0,
			"0.025": 0.0
		}
	}
}
