{
	 "smiles": "OC(=O)C1=C(Cl)C=C(Br)C=C1", 
	 "Tm": 446.15, 
	 "num_atms": 15, 
	 "gaussian": { 
		 "optdone": 1, 
		 "sigma_profile": "yes", 
		 "theory": "DFT", 
		 "functional": "B3LYP", 
		 "basiset": "6-31G**", 
		 "properties": { 
			 "R2extent": 3576.4915, 
			 "electric_dipole_moment_norm": 0.102994660056, 
			 "electric_quadrupole_moment_norm": 5.84273375827, 
			 "total_energy": -3451.20810513, 
			 "HOMO_LUMO_gap": 0.19394, 
			 "cosmo_polarized_energy": -8.52, 
			 "cosmo_cavitation_energy": 24.09, 
			 "cosmo_dispersion_energy": -18.51, 
			 "cosmo_repulsion_energy": 1.49, 
			 "cosmo_total_nonelectrostatic_energy": 7.07, 
			 "SMD_solvation_energy": 4.05 
		},
		"coords": [
			{
				"x": -2.1070973431,
				"y": -0.9651911267,
				"z": -2.8439511357,
				"element": "O" 
			},
			{
				"x": -0.8013467617,
				"y": -1.0876710842,
				"z": -2.5422250063,
				"element": "C" 
			},
			{
				"x": -0.0553645409,
				"y": -1.7943064979,
				"z": -3.1937698448,
				"element": "O" 
			},
			{
				"x": -0.3380445358,
				"y": -0.2979561812,
				"z": -1.3575424602,
				"element": "C" 
			},
			{
				"x": -1.0963865931,
				"y": 0.5495154595,
				"z": -0.5244760389,
				"element": "C" 
			},
			{
				"x": -2.8084507683,
				"y": 0.8503955016,
				"z": -0.7310911996,
				"element": "Cl" 
			},
			{
				"x": -0.4978676835,
				"y": 1.217045738,
				"z": 0.5485340784,
				"element": "C" 
			},
			{
				"x": 0.859461009,
				"y": 1.0442950139,
				"z": 0.7980016068,
				"element": "C" 
			},
			{
				"x": 1.6561770064,
				"y": 1.9622772994,
				"z": 2.2636948062,
				"element": "Br" 
			},
			{
				"x": 1.6399781239,
				"y": 0.2136084989,
				"z": -0.0051851339,
				"element": "C" 
			},
			{
				"x": 1.0308765156,
				"y": -0.4412463008,
				"z": -1.0654554603,
				"element": "C" 
			},
			{
				"x": -2.2467577816,
				"y": -1.5295589458,
				"z": -3.6233732921,
				"element": "H" 
			},
			{
				"x": -1.0962875114,
				"y": 1.8636978803,
				"z": 1.1772516869,
				"element": "H" 
			},
			{
				"x": 2.6965629894,
				"y": 0.0844275234,
				"z": 0.1960841429,
				"element": "H" 
			},
			{
				"x": 1.6055478753,
				"y": -1.0951327783,
				"z": -1.7115967493,
				"element": "H" 
			}
		],
		 "valence_orbital": [ 
			{
				"type": "occ",
				"energy": -0.31626,
				"method": "rhf"
			},
			{
				"type": "occ",
				"energy": -0.30257,
				"method": "rhf"
			},
			{
				"type": "occ",
				"energy": -0.28958,
				"method": "rhf"
			},
			{
				"type": "occ",
				"energy": -0.27106,
				"method": "rhf"
			},
			{
				"type": "occ",
				"energy": -0.26201,
				"method": "rhf"
			},
			{
				"type": "unocc",
				"energy": -0.06807,
				"method": "rhf"
			},
			{
				"type": "unocc",
				"energy": -0.03423,
				"method": "rhf"
			},
			{
				"type": "unocc",
				"energy": -0.01514,
				"method": "rhf"
			},
			{
				"type": "unocc",
				"energy": 0.03156,
				"method": "rhf"
			},
			{
				"type": "unocc",
				"energy": 0.0365,
				"method": "rhf"
			}
		],
		"cosmo_sigma_profile": { 
			"-0.025": 0.0,
			"-0.024": 0.0,
			"-0.023": 0.0,
			"-0.022": 0.0,
			"-0.021": 0.0,
			"-0.02": 0.0,
			"-0.019": 0.175625670067,
			"-0.018": 0.908508452988,
			"-0.017": 1.19587741618,
			"-0.016": 0.430736965059,
			"-0.015": 0.88434445114,
			"-0.014": 0.938493527521,
			"-0.013": 0.582862271234,
			"-0.012": 0.605287310059,
			"-0.011": 0.959369564828,
			"-0.01": 0.304640041406,
			"-0.009": 0.777475972357,
			"-0.008": 3.93382596398,
			"-0.007": 5.72528520381,
			"-0.006": 5.40963703774,
			"-0.005": 7.13080719219,
			"-0.004": 7.97168061067,
			"-0.003": 10.7130834006,
			"-0.002": 13.2963323986,
			"-0.001": 17.5633054535,
			"0.0": 29.8233875129,
			"0.001": 19.9935910402,
			"0.002": 13.7225123298,
			"0.003": 18.138116009,
			"0.004": 14.9704937774,
			"0.005": 2.69476954574,
			"0.006": 3.03940024137,
			"0.007": 3.3969675926,
			"0.008": 3.78740608625,
			"0.009": 2.15760302199,
			"0.01": 2.18673570119,
			"0.011": 4.61392547179,
			"0.012": 1.39292730979,
			"0.013": 0.0,
			"0.014": 0.0,
			"0.015": 0.0,
			"0.016": 0.0,
			"0.017": 0.0,
			"0.018": 0.0,
			"0.019": 0.0,
			"0.02": 0.0,
			"0.021": 0.0,
			"0.022": 0.0,
			"0.023": 0.0,
			"0.024": 0.0,
			"0.025": 0.0
		}
	}
}
