{
	 "smiles": "CC(=NOC1=C(F)C(F)=C(F)C(F)=N1)C1=CC=CC=C1", 
	 "Tm": 390.0, 
	 "num_atms": 28, 
	 "gaussian": { 
		 "optdone": 1, 
		 "sigma_profile": "yes", 
		 "theory": "DFT", 
		 "functional": "B3LYP", 
		 "basiset": "6-31G**", 
		 "properties": { 
			 "R2extent": 7310.9489, 
			 "electric_dipole_moment_norm": 3.70825281905, 
			 "electric_quadrupole_moment_norm": 8.40713023808, 
			 "total_energy": -1084.18311229, 
			 "HOMO_LUMO_gap": 0.18449, 
			 "cosmo_polarized_energy": -9.03, 
			 "cosmo_cavitation_energy": 36.23, 
			 "cosmo_dispersion_energy": -25.15, 
			 "cosmo_repulsion_energy": 1.84, 
			 "cosmo_total_nonelectrostatic_energy": 12.93, 
			 "SMD_solvation_energy": 6.78 
		},
		"coords": [
			{
				"x": 3.5527691489,
				"y": -0.2374335229,
				"z": 0.2892383074,
				"element": "C" 
			},
			{
				"x": 2.0529206361,
				"y": -0.3761923729,
				"z": 0.4312449396,
				"element": "C" 
			},
			{
				"x": 1.4159093437,
				"y": 0.3122047094,
				"z": -0.453315131,
				"element": "N" 
			},
			{
				"x": 0.0031859295,
				"y": 0.1804763296,
				"z": -0.3204121413,
				"element": "O" 
			},
			{
				"x": -0.6807575693,
				"y": 0.7059796251,
				"z": -1.3657547455,
				"element": "C" 
			},
			{
				"x": -1.9995823686,
				"y": 1.0924432395,
				"z": -1.0920634439,
				"element": "C" 
			},
			{
				"x": -2.5134141349,
				"y": 1.0013650603,
				"z": 0.1424718062,
				"element": "F" 
			},
			{
				"x": -2.7711867693,
				"y": 1.5856200808,
				"z": -2.1380684146,
				"element": "C" 
			},
			{
				"x": -4.0291502671,
				"y": 1.9669014438,
				"z": -1.9251141199,
				"element": "F" 
			},
			{
				"x": -2.2093328342,
				"y": 1.6938051614,
				"z": -3.4105156143,
				"element": "C" 
			},
			{
				"x": -2.9267998349,
				"y": 2.1692132281,
				"z": -4.4346588404,
				"element": "F" 
			},
			{
				"x": -0.8866170053,
				"y": 1.2863764597,
				"z": -3.5541350354,
				"element": "C" 
			},
			{
				"x": -0.3251430722,
				"y": 1.3793004478,
				"z": -4.7628088732,
				"element": "F" 
			},
			{
				"x": -0.1515707513,
				"y": 0.8025609763,
				"z": -2.5774869215,
				"element": "N" 
			},
			{
				"x": 1.5131354011,
				"y": -1.2355611738,
				"z": 1.519787764,
				"element": "C" 
			},
			{
				"x": 0.310955982,
				"y": -0.9489451237,
				"z": 2.1953388515,
				"element": "C" 
			},
			{
				"x": -0.1229439783,
				"y": -1.7606632732,
				"z": 3.2416905074,
				"element": "C" 
			},
			{
				"x": 0.6184386451,
				"y": -2.8780063349,
				"z": 3.6290561472,
				"element": "C" 
			},
			{
				"x": 1.8110518692,
				"y": -3.1744128104,
				"z": 2.96817862,
				"element": "C" 
			},
			{
				"x": 2.2586173116,
				"y": -2.3552061869,
				"z": 1.9340243751,
				"element": "C" 
			},
			{
				"x": 4.0063052151,
				"y": 0.0623730114,
				"z": 1.2392205505,
				"element": "H" 
			},
			{
				"x": 4.009938246,
				"y": -1.186110187,
				"z": -0.0116550654,
				"element": "H" 
			},
			{
				"x": 3.7796204585,
				"y": 0.506311265,
				"z": -0.47550943,
				"element": "H" 
			},
			{
				"x": -0.2827997706,
				"y": -0.0938100963,
				"z": 1.903435691,
				"element": "H" 
			},
			{
				"x": -1.0487785215,
				"y": -1.517514979,
				"z": 3.7547863994,
				"element": "H" 
			},
			{
				"x": 0.270808051,
				"y": -3.510986295,
				"z": 4.4403535961,
				"element": "H" 
			},
			{
				"x": 2.3975558923,
				"y": -4.0407386608,
				"z": 3.2596614433,
				"element": "H" 
			},
			{
				"x": 3.1912647473,
				"y": -2.5992500212,
				"z": 1.4372087778,
				"element": "H" 
			}
		],
		 "valence_orbital": [ 
			{
				"type": "occ",
				"energy": -0.29102,
				"method": "rhf"
			},
			{
				"type": "occ",
				"energy": -0.28474,
				"method": "rhf"
			},
			{
				"type": "occ",
				"energy": -0.26248,
				"method": "rhf"
			},
			{
				"type": "occ",
				"energy": -0.25883,
				"method": "rhf"
			},
			{
				"type": "occ",
				"energy": -0.23584,
				"method": "rhf"
			},
			{
				"type": "unocc",
				"energy": -0.05135,
				"method": "rhf"
			},
			{
				"type": "unocc",
				"energy": -0.03201,
				"method": "rhf"
			},
			{
				"type": "unocc",
				"energy": -0.01425,
				"method": "rhf"
			},
			{
				"type": "unocc",
				"energy": -0.01097,
				"method": "rhf"
			},
			{
				"type": "unocc",
				"energy": 0.02989,
				"method": "rhf"
			}
		],
		"cosmo_sigma_profile": { 
			"-0.025": 0.0,
			"-0.024": 0.0,
			"-0.023": 0.0,
			"-0.022": 0.0,
			"-0.021": 0.0,
			"-0.02": 0.0,
			"-0.019": 0.0,
			"-0.018": 0.0,
			"-0.017": 0.0,
			"-0.016": 0.0,
			"-0.015": 0.0,
			"-0.014": 0.0,
			"-0.013": 0.0,
			"-0.012": 0.0,
			"-0.011": 0.0,
			"-0.01": 0.0,
			"-0.009": 0.0107463210547,
			"-0.008": 1.23270862705,
			"-0.007": 4.13364015699,
			"-0.006": 12.0173628991,
			"-0.005": 21.1047075587,
			"-0.004": 28.9640481211,
			"-0.003": 22.7006463944,
			"-0.002": 20.9578817778,
			"-0.001": 22.410130497,
			"0.0": 18.9889198316,
			"0.001": 24.2193352242,
			"0.002": 45.0773312661,
			"0.003": 30.3066560422,
			"0.004": 16.8765337564,
			"0.005": 8.64335820953,
			"0.006": 3.04338219927,
			"0.007": 1.94540998879,
			"0.008": 1.69117856031,
			"0.009": 0.98181381957,
			"0.01": 1.36390663672,
			"0.011": 1.81393805777,
			"0.012": 1.18901329337,
			"0.013": 1.05682199562,
			"0.014": 1.14795805041,
			"0.015": 0.836934038666,
			"0.016": 0.281697995431,
			"0.017": 0.0,
			"0.018": 0.0,
			"0.019": 0.0,
			"0.02": 0.0,
			"0.021": 0.0,
			"0.022": 0.0,
			"0.023": 0.0,
			"0.024": 0.0,
			"0.025": 0.0
		}
	}
}
