{
	 "smiles": "CC1(C)C2CCC1(C)CC2=O", 
	 "Tm": 459.15, 
	 "num_atms": 27, 
	 "gaussian": { 
		 "optdone": 1, 
		 "sigma_profile": "yes", 
		 "theory": "DFT", 
		 "functional": "B3LYP", 
		 "basiset": "6-31G**", 
		 "properties": { 
			 "R2extent": 1647.7002, 
			 "electric_dipole_moment_norm": 3.16406475281, 
			 "electric_quadrupole_moment_norm": 8.88864865601, 
			 "total_energy": -465.936057794, 
			 "HOMO_LUMO_gap": 0.22002, 
			 "cosmo_polarized_energy": -6.88, 
			 "cosmo_cavitation_energy": 25.97, 
			 "cosmo_dispersion_energy": -18.84, 
			 "cosmo_repulsion_energy": 1.48, 
			 "cosmo_total_nonelectrostatic_energy": 8.61, 
			 "SMD_solvation_energy": 4.78 
		},
		"coords": [
			{
				"x": -1.3620455623,
				"y": -1.135636165,
				"z": 1.314647179,
				"element": "C" 
			},
			{
				"x": -1.0949314577,
				"y": 0.3008909282,
				"z": 0.8263470056,
				"element": "C" 
			},
			{
				"x": -1.7246677584,
				"y": 1.2581979678,
				"z": 1.8526645039,
				"element": "C" 
			},
			{
				"x": -1.5740645282,
				"y": 0.5396406163,
				"z": -0.6380727835,
				"element": "C" 
			},
			{
				"x": -1.0275925835,
				"y": 1.9632672375,
				"z": -0.9581592317,
				"element": "C" 
			},
			{
				"x": 0.3146771146,
				"y": 2.0187668551,
				"z": -0.1663050494,
				"element": "C" 
			},
			{
				"x": 0.4200283815,
				"y": 0.6123993232,
				"z": 0.4893291428,
				"element": "C" 
			},
			{
				"x": 1.4245229027,
				"y": 0.525744629,
				"z": 1.631294117,
				"element": "C" 
			},
			{
				"x": 0.6904321614,
				"y": -0.3715349915,
				"z": -0.6781133314,
				"element": "C" 
			},
			{
				"x": -0.6580956929,
				"y": -0.4007165764,
				"z": -1.4183992055,
				"element": "C" 
			},
			{
				"x": -0.9199955002,
				"y": -1.0271508115,
				"z": -2.4220003301,
				"element": "O" 
			},
			{
				"x": -0.8732824882,
				"y": -1.3184360402,
				"z": 2.2779582466,
				"element": "H" 
			},
			{
				"x": -1.0241024341,
				"y": -1.9070220306,
				"z": 0.6179616467,
				"element": "H" 
			},
			{
				"x": -2.43691564,
				"y": -1.2871737905,
				"z": 1.4618124001,
				"element": "H" 
			},
			{
				"x": -1.5876509139,
				"y": 2.3143741474,
				"z": 1.6127495543,
				"element": "H" 
			},
			{
				"x": -2.8022145336,
				"y": 1.0750151967,
				"z": 1.9277725594,
				"element": "H" 
			},
			{
				"x": -1.2983261178,
				"y": 1.0885148783,
				"z": 2.847538079,
				"element": "H" 
			},
			{
				"x": -2.6337724589,
				"y": 0.3933748387,
				"z": -0.8566898575,
				"element": "H" 
			},
			{
				"x": -1.7341634852,
				"y": 2.7245991314,
				"z": -0.6161447933,
				"element": "H" 
			},
			{
				"x": -0.8950688695,
				"y": 2.1132863905,
				"z": -2.0337194501,
				"element": "H" 
			},
			{
				"x": 1.1753420792,
				"y": 2.2169954823,
				"z": -0.8133524607,
				"element": "H" 
			},
			{
				"x": 0.3022657185,
				"y": 2.8079021113,
				"z": 0.5916685922,
				"element": "H" 
			},
			{
				"x": 2.4348329519,
				"y": 0.7657193943,
				"z": 1.2806761426,
				"element": "H" 
			},
			{
				"x": 1.458885352,
				"y": -0.480535256,
				"z": 2.0632176293,
				"element": "H" 
			},
			{
				"x": 1.1810132694,
				"y": 1.2298911911,
				"z": 2.4343081507,
				"element": "H" 
			},
			{
				"x": 1.495537819,
				"y": -0.0480508093,
				"z": -1.3469180268,
				"element": "H" 
			},
			{
				"x": 0.9474522745,
				"y": -1.3803238481,
				"z": -0.3369704293,
				"element": "H" 
			}
		],
		 "valence_orbital": [ 
			{
				"type": "occ",
				"energy": -0.33355,
				"method": "rhf"
			},
			{
				"type": "occ",
				"energy": -0.32127,
				"method": "rhf"
			},
			{
				"type": "occ",
				"energy": -0.30709,
				"method": "rhf"
			},
			{
				"type": "occ",
				"energy": -0.29384,
				"method": "rhf"
			},
			{
				"type": "occ",
				"energy": -0.22852,
				"method": "rhf"
			},
			{
				"type": "unocc",
				"energy": -0.0085,
				"method": "rhf"
			},
			{
				"type": "unocc",
				"energy": 0.06466,
				"method": "rhf"
			},
			{
				"type": "unocc",
				"energy": 0.10296,
				"method": "rhf"
			},
			{
				"type": "unocc",
				"energy": 0.10768,
				"method": "rhf"
			},
			{
				"type": "unocc",
				"energy": 0.12064,
				"method": "rhf"
			}
		],
		"cosmo_sigma_profile": { 
			"-0.025": 0.0,
			"-0.024": 0.0,
			"-0.023": 0.0,
			"-0.022": 0.0,
			"-0.021": 0.0,
			"-0.02": 0.0,
			"-0.019": 0.0,
			"-0.018": 0.0,
			"-0.017": 0.0,
			"-0.016": 0.0,
			"-0.015": 0.0,
			"-0.014": 0.0,
			"-0.013": 0.0,
			"-0.012": 0.0,
			"-0.011": 0.0,
			"-0.01": 0.0,
			"-0.009": 0.0,
			"-0.008": 0.0,
			"-0.007": 0.0,
			"-0.006": 0.22042142287,
			"-0.005": 4.0619714032,
			"-0.004": 13.5763882181,
			"-0.003": 28.3735655367,
			"-0.002": 36.9102173019,
			"-0.001": 33.8532416696,
			"0.0": 27.9912243956,
			"0.001": 24.8233679617,
			"0.002": 5.78825603819,
			"0.003": 1.54293822501,
			"0.004": 1.5207049355,
			"0.005": 1.0801660135,
			"0.006": 1.26970174047,
			"0.007": 1.62725171925,
			"0.008": 1.58469384171,
			"0.009": 1.55733923344,
			"0.01": 1.75220064398,
			"0.011": 3.2247309664,
			"0.012": 4.66939119149,
			"0.013": 3.80397655284,
			"0.014": 0.840070303643,
			"0.015": 0.0,
			"0.016": 0.0,
			"0.017": 0.0,
			"0.018": 0.0,
			"0.019": 0.0,
			"0.02": 0.0,
			"0.021": 0.0,
			"0.022": 0.0,
			"0.023": 0.0,
			"0.024": 0.0,
			"0.025": 0.0
		}
	}
}
