{
	 "smiles": "COC(=O)C1=NC2=C(N1)C=CC=C2", 
	 "Tm": 463.15, 
	 "num_atms": 21, 
	 "gaussian": { 
		 "optdone": 1, 
		 "sigma_profile": "yes", 
		 "theory": "DFT", 
		 "functional": "B3LYP", 
		 "basiset": "6-31G**", 
		 "properties": { 
			 "R2extent": 2912.1767, 
			 "electric_dipole_moment_norm": 4.81223659435, 
			 "electric_quadrupole_moment_norm": 11.4764055117, 
			 "total_energy": -607.744603189, 
			 "HOMO_LUMO_gap": 0.17648, 
			 "cosmo_polarized_energy": -15.87, 
			 "cosmo_cavitation_energy": 26.03, 
			 "cosmo_dispersion_energy": -19.49, 
			 "cosmo_repulsion_energy": 1.54, 
			 "cosmo_total_nonelectrostatic_energy": 8.08, 
			 "SMD_solvation_energy": 3.91 
		},
		"coords": [
			{
				"x": 2.2168949613,
				"y": 0.8416232933,
				"z": -3.0647670068,
				"element": "C" 
			},
			{
				"x": 1.5326414236,
				"y": 0.7619475198,
				"z": -1.8030054816,
				"element": "O" 
			},
			{
				"x": 0.9210903397,
				"y": -0.4290273706,
				"z": -1.5562331868,
				"element": "C" 
			},
			{
				"x": 0.9316371119,
				"y": -1.3682205646,
				"z": -2.3158577626,
				"element": "O" 
			},
			{
				"x": 0.2541873003,
				"y": -0.3897137979,
				"z": -0.2340282526,
				"element": "C" 
			},
			{
				"x": -0.4243280404,
				"y": -1.3800397943,
				"z": 0.3002733723,
				"element": "N" 
			},
			{
				"x": -0.8549876923,
				"y": -0.892901073,
				"z": 1.517806781,
				"element": "C" 
			},
			{
				"x": -0.4099440316,
				"y": 0.4431504727,
				"z": 1.7078240123,
				"element": "C" 
			},
			{
				"x": 0.2992418302,
				"y": 0.7363445813,
				"z": 0.565233433,
				"element": "N" 
			},
			{
				"x": -0.7077633564,
				"y": 1.176153769,
				"z": 2.8618073937,
				"element": "C" 
			},
			{
				"x": -1.4694041365,
				"y": 0.5307879822,
				"z": 3.828835753,
				"element": "C" 
			},
			{
				"x": -1.9210375498,
				"y": -0.7978285261,
				"z": 3.6573672008,
				"element": "C" 
			},
			{
				"x": -1.6233932305,
				"y": -1.5211679573,
				"z": 2.5113171777,
				"element": "C" 
			},
			{
				"x": 3.0026233633,
				"y": 0.0844933178,
				"z": -3.122248809,
				"element": "H" 
			},
			{
				"x": 1.5171604102,
				"y": 0.6876603126,
				"z": -3.8897360007,
				"element": "H" 
			},
			{
				"x": 2.6448387971,
				"y": 1.8430267797,
				"z": -3.1060093771,
				"element": "H" 
			},
			{
				"x": 0.7726978634,
				"y": 1.5928036259,
				"z": 0.3226217406,
				"element": "H" 
			},
			{
				"x": -0.364119272,
				"y": 2.1966690012,
				"z": 2.9997896623,
				"element": "H" 
			},
			{
				"x": -1.7249481575,
				"y": 1.061152355,
				"z": 4.741418441,
				"element": "H" 
			},
			{
				"x": -2.5133277461,
				"y": -1.2566988538,
				"z": 4.443186966,
				"element": "H" 
			},
			{
				"x": -1.9654601881,
				"y": -2.5411150729,
				"z": 2.3707039436,
				"element": "H" 
			}
		],
		 "valence_orbital": [ 
			{
				"type": "occ",
				"energy": -0.30928,
				"method": "rhf"
			},
			{
				"type": "occ",
				"energy": -0.28459,
				"method": "rhf"
			},
			{
				"type": "occ",
				"energy": -0.2791,
				"method": "rhf"
			},
			{
				"type": "occ",
				"energy": -0.23631,
				"method": "rhf"
			},
			{
				"type": "occ",
				"energy": -0.23281,
				"method": "rhf"
			},
			{
				"type": "unocc",
				"energy": -0.05633,
				"method": "rhf"
			},
			{
				"type": "unocc",
				"energy": 0.00898,
				"method": "rhf"
			},
			{
				"type": "unocc",
				"energy": 0.02003,
				"method": "rhf"
			},
			{
				"type": "unocc",
				"energy": 0.08062,
				"method": "rhf"
			},
			{
				"type": "unocc",
				"energy": 0.09661,
				"method": "rhf"
			}
		],
		"cosmo_sigma_profile": { 
			"-0.025": 0.0,
			"-0.024": 0.0,
			"-0.023": 0.0,
			"-0.022": 0.0,
			"-0.021": 0.0,
			"-0.02": 0.0,
			"-0.019": 0.0,
			"-0.018": 0.0,
			"-0.017": 0.212735579165,
			"-0.016": 0.852880395257,
			"-0.015": 1.0003059994,
			"-0.014": 1.16443756032,
			"-0.013": 0.631094756631,
			"-0.012": 0.805099368433,
			"-0.011": 1.12351432915,
			"-0.01": 1.03621473403,
			"-0.009": 0.769553475885,
			"-0.008": 1.50290737313,
			"-0.007": 5.06964010242,
			"-0.006": 14.0430585807,
			"-0.005": 16.5414642875,
			"-0.004": 22.0473260844,
			"-0.003": 17.4318370193,
			"-0.002": 12.3936307567,
			"-0.001": 11.3066402452,
			"0.0": 11.5478572772,
			"0.001": 12.0657617493,
			"0.002": 11.8319559904,
			"0.003": 12.7478299544,
			"0.004": 13.0900144964,
			"0.005": 9.80257798369,
			"0.006": 3.01849593722,
			"0.007": 2.69722006442,
			"0.008": 2.20497745376,
			"0.009": 2.93759143861,
			"0.01": 3.46627202594,
			"0.011": 5.97946760417,
			"0.012": 2.94994188575,
			"0.013": 2.22214058742,
			"0.014": 1.76558761801,
			"0.015": 1.30977100072,
			"0.016": 1.07611511247,
			"0.017": 0.254068195536,
			"0.018": 0.0,
			"0.019": 0.0,
			"0.02": 0.0,
			"0.021": 0.0,
			"0.022": 0.0,
			"0.023": 0.0,
			"0.024": 0.0,
			"0.025": 0.0
		}
	}
}
