{
	 "smiles": "[O-][N+](=O)C1=CC(=C(NN=C2CCCCC2)C=C1)[N+]([O-])=O", 
	 "Tm": 432.15, 
	 "num_atms": 34, 
	 "gaussian": { 
		 "optdone": 1, 
		 "sigma_profile": "yes", 
		 "theory": "DFT", 
		 "functional": "B3LYP", 
		 "basiset": "6-31G**", 
		 "properties": { 
			 "R2extent": 9466.7073, 
			 "electric_dipole_moment_norm": 8.4395998116, 
			 "electric_quadrupole_moment_norm": 27.0074273331, 
			 "total_energy": -985.402106286, 
			 "HOMO_LUMO_gap": 0.13079, 
			 "cosmo_polarized_energy": -13.98, 
			 "cosmo_cavitation_energy": 38.1, 
			 "cosmo_dispersion_energy": -27.74, 
			 "cosmo_repulsion_energy": 2.13, 
			 "cosmo_total_nonelectrostatic_energy": 12.49, 
			 "SMD_solvation_energy": 9.26 
		},
		"coords": [
			{
				"x": 6.8643640114,
				"y": 0.9068691553,
				"z": 1.0340490425,
				"element": "O" 
			},
			{
				"x": 5.9614591125,
				"y": 1.7217285127,
				"z": 1.2371720489,
				"element": "N" 
			},
			{
				"x": 6.1357987076,
				"y": 2.9132013242,
				"z": 1.4960012892,
				"element": "O" 
			},
			{
				"x": 4.5880348381,
				"y": 1.2327309789,
				"z": 1.1641734562,
				"element": "C" 
			},
			{
				"x": 3.5452741585,
				"y": 2.1107166676,
				"z": 1.3841386394,
				"element": "C" 
			},
			{
				"x": 2.2299595263,
				"y": 1.6463735796,
				"z": 1.3149704211,
				"element": "C" 
			},
			{
				"x": 1.9438051727,
				"y": 0.2755532119,
				"z": 1.0198062065,
				"element": "C" 
			},
			{
				"x": 0.6749393778,
				"y": -0.2020772963,
				"z": 0.9451535911,
				"element": "N" 
			},
			{
				"x": 0.4449560157,
				"y": -1.5247558606,
				"z": 0.667255401,
				"element": "N" 
			},
			{
				"x": -0.7861325769,
				"y": -1.8977410474,
				"z": 0.5945845112,
				"element": "C" 
			},
			{
				"x": -1.0651965899,
				"y": -3.3492506321,
				"z": 0.3150290525,
				"element": "C" 
			},
			{
				"x": -2.048365288,
				"y": -3.5405750466,
				"z": -0.8664838286,
				"element": "C" 
			},
			{
				"x": -3.1873680555,
				"y": -2.4830129604,
				"z": -0.8847218762,
				"element": "C" 
			},
			{
				"x": -3.3064222378,
				"y": -1.7302894237,
				"z": 0.4486843779,
				"element": "C" 
			},
			{
				"x": -1.9930746372,
				"y": -0.9945711979,
				"z": 0.7655811876,
				"element": "C" 
			},
			{
				"x": 3.0541246987,
				"y": -0.5863544493,
				"z": 0.8013085787,
				"element": "C" 
			},
			{
				"x": 4.3465255646,
				"y": -0.1214497873,
				"z": 0.871713039,
				"element": "C" 
			},
			{
				"x": 1.1860485748,
				"y": 2.6259299926,
				"z": 1.5573018624,
				"element": "N" 
			},
			{
				"x": -0.0055249368,
				"y": 2.2553491398,
				"z": 1.5084398388,
				"element": "O" 
			},
			{
				"x": 1.5098797228,
				"y": 3.784788183,
				"z": 1.8016696354,
				"element": "O" 
			},
			{
				"x": 3.7355529679,
				"y": 3.1510884684,
				"z": 1.6086761871,
				"element": "H" 
			},
			{
				"x": -0.0667266126,
				"y": 0.4723028694,
				"z": 1.1225632557,
				"element": "H" 
			},
			{
				"x": -1.5119427006,
				"y": -3.7849920354,
				"z": 1.2204319296,
				"element": "H" 
			},
			{
				"x": -0.1233031143,
				"y": -3.8745848429,
				"z": 0.1410613787,
				"element": "H" 
			},
			{
				"x": -1.4908527723,
				"y": -3.4964823623,
				"z": -1.8076620524,
				"element": "H" 
			},
			{
				"x": -2.4664697576,
				"y": -4.5505995172,
				"z": -0.8030352864,
				"element": "H" 
			},
			{
				"x": -4.1414921401,
				"y": -2.956932948,
				"z": -1.1366739223,
				"element": "H" 
			},
			{
				"x": -2.9942345631,
				"y": -1.7473567407,
				"z": -1.6757798519,
				"element": "H" 
			},
			{
				"x": -4.1287749647,
				"y": -1.0086139398,
				"z": 0.4103405651,
				"element": "H" 
			},
			{
				"x": -3.5474278562,
				"y": -2.4306077247,
				"z": 1.2579991651,
				"element": "H" 
			},
			{
				"x": -2.0124681174,
				"y": -0.5827003211,
				"z": 1.7853451939,
				"element": "H" 
			},
			{
				"x": -1.8913369588,
				"y": -0.1297363355,
				"z": 0.0926281679,
				"element": "H" 
			},
			{
				"x": 2.8428003635,
				"y": -1.6231028663,
				"z": 0.5781112681,
				"element": "H" 
			},
			{
				"x": 5.1891910666,
				"y": -0.7811447477,
				"z": 0.7052675273,
				"element": "H" 
			}
		],
		 "valence_orbital": [ 
			{
				"type": "occ",
				"energy": -0.30436,
				"method": "rhf"
			},
			{
				"type": "occ",
				"energy": -0.29433,
				"method": "rhf"
			},
			{
				"type": "occ",
				"energy": -0.28817,
				"method": "rhf"
			},
			{
				"type": "occ",
				"energy": -0.28703,
				"method": "rhf"
			},
			{
				"type": "occ",
				"energy": -0.23189,
				"method": "rhf"
			},
			{
				"type": "unocc",
				"energy": -0.1011,
				"method": "rhf"
			},
			{
				"type": "unocc",
				"energy": -0.08684,
				"method": "rhf"
			},
			{
				"type": "unocc",
				"energy": -0.02949,
				"method": "rhf"
			},
			{
				"type": "unocc",
				"energy": -0.00711,
				"method": "rhf"
			},
			{
				"type": "unocc",
				"energy": 0.02053,
				"method": "rhf"
			}
		],
		"cosmo_sigma_profile": { 
			"-0.025": 0.0,
			"-0.024": 0.0,
			"-0.023": 0.0,
			"-0.022": 0.0,
			"-0.021": 0.0,
			"-0.02": 0.0,
			"-0.019": 0.0,
			"-0.018": 0.0,
			"-0.017": 0.0,
			"-0.016": 0.0,
			"-0.015": 0.0,
			"-0.014": 0.0,
			"-0.013": 0.0,
			"-0.012": 0.0,
			"-0.011": 0.0,
			"-0.01": 0.00199346317655,
			"-0.009": 0.4009758503,
			"-0.008": 2.39556755222,
			"-0.007": 5.67474472185,
			"-0.006": 11.4001237968,
			"-0.005": 16.8549845539,
			"-0.004": 23.1789983972,
			"-0.003": 36.3621755439,
			"-0.002": 43.014717308,
			"-0.001": 36.9966739949,
			"0.0": 25.9125819759,
			"0.001": 17.3256003113,
			"0.002": 8.23167773133,
			"0.003": 6.85519454624,
			"0.004": 6.44021338035,
			"0.005": 8.11463904036,
			"0.006": 7.71977959348,
			"0.007": 14.3101877185,
			"0.008": 14.6603556876,
			"0.009": 9.33320646908,
			"0.01": 6.23332876125,
			"0.011": 0.765844300364,
			"0.012": 0.0,
			"0.013": 0.0,
			"0.014": 0.0,
			"0.015": 0.0,
			"0.016": 0.0,
			"0.017": 0.0,
			"0.018": 0.0,
			"0.019": 0.0,
			"0.02": 0.0,
			"0.021": 0.0,
			"0.022": 0.0,
			"0.023": 0.0,
			"0.024": 0.0,
			"0.025": 0.0
		}
	}
}
