{
	 "smiles": "COC1=CC=C2COC(=O)C2=C1OC", 
	 "Tm": 375.15, 
	 "num_atms": 24, 
	 "gaussian": { 
		 "optdone": 1, 
		 "sigma_profile": "yes", 
		 "theory": "DFT", 
		 "functional": "B3LYP", 
		 "basiset": "6-31G**", 
		 "properties": { 
			 "R2extent": 4228.9742, 
			 "electric_dipole_moment_norm": 5.56053117697, 
			 "electric_quadrupole_moment_norm": 15.8442221188, 
			 "total_energy": -687.959442036, 
			 "HOMO_LUMO_gap": 0.17524, 
			 "cosmo_polarized_energy": -14.44, 
			 "cosmo_cavitation_energy": 27.6, 
			 "cosmo_dispersion_energy": -20.6, 
			 "cosmo_repulsion_energy": 1.62, 
			 "cosmo_total_nonelectrostatic_energy": 8.63, 
			 "SMD_solvation_energy": 7.27 
		},
		"coords": [
			{
				"x": -0.5927394751,
				"y": 2.9641540617,
				"z": -0.4563146817,
				"element": "C" 
			},
			{
				"x": -0.2435578984,
				"y": 1.755428939,
				"z": -1.1101083324,
				"element": "O" 
			},
			{
				"x": -1.035063753,
				"y": 0.6658991271,
				"z": -0.9187844874,
				"element": "C" 
			},
			{
				"x": -2.1982076243,
				"y": 0.6625274253,
				"z": -0.1399449957,
				"element": "C" 
			},
			{
				"x": -2.9725883395,
				"y": -0.4956507029,
				"z": 0.0051514093,
				"element": "C" 
			},
			{
				"x": -2.5524308409,
				"y": -1.6471482581,
				"z": -0.6351629308,
				"element": "C" 
			},
			{
				"x": -3.1381675602,
				"y": -3.0324169041,
				"z": -0.6335745095,
				"element": "C" 
			},
			{
				"x": -2.2243423704,
				"y": -3.8222600243,
				"z": -1.4081232311,
				"element": "O" 
			},
			{
				"x": -1.1782778601,
				"y": -3.0636000258,
				"z": -1.87590035,
				"element": "C" 
			},
			{
				"x": -0.291419948,
				"y": -3.5629836743,
				"z": -2.5274537868,
				"element": "O" 
			},
			{
				"x": -1.3891880264,
				"y": -1.6666569034,
				"z": -1.4162707943,
				"element": "C" 
			},
			{
				"x": -0.6063003677,
				"y": -0.5150926059,
				"z": -1.584966774,
				"element": "C" 
			},
			{
				"x": 0.5514590114,
				"y": -0.4247692353,
				"z": -2.2795912725,
				"element": "O" 
			},
			{
				"x": 0.5694319652,
				"y": -0.8533668389,
				"z": -3.6509981407,
				"element": "C" 
			},
			{
				"x": -1.5730257379,
				"y": 3.3359513033,
				"z": -0.7830265656,
				"element": "H" 
			},
			{
				"x": 0.1750397903,
				"y": 3.686905865,
				"z": -0.7358038418,
				"element": "H" 
			},
			{
				"x": -0.5986233433,
				"y": 2.8485245954,
				"z": 0.6353835008,
				"element": "H" 
			},
			{
				"x": -2.5161847054,
				"y": 1.5728046623,
				"z": 0.3541542782,
				"element": "H" 
			},
			{
				"x": -3.8709025217,
				"y": -0.4759981867,
				"z": 0.6149725021,
				"element": "H" 
			},
			{
				"x": -3.2106647668,
				"y": -3.4686661519,
				"z": 0.3697032523,
				"element": "H" 
			},
			{
				"x": -4.127926267,
				"y": -3.0854007782,
				"z": -1.1034240647,
				"element": "H" 
			},
			{
				"x": -0.2332173561,
				"y": -0.361088885,
				"z": -4.2131897474,
				"element": "H" 
			},
			{
				"x": 0.4783651012,
				"y": -1.9375372078,
				"z": -3.7273238663,
				"element": "H" 
			},
			{
				"x": 1.534032894,
				"y": -0.5259595964,
				"z": -4.0424025699,
				"element": "H" 
			}
		],
		 "valence_orbital": [ 
			{
				"type": "occ",
				"energy": -0.29502,
				"method": "rhf"
			},
			{
				"type": "occ",
				"energy": -0.28938,
				"method": "rhf"
			},
			{
				"type": "occ",
				"energy": -0.26771,
				"method": "rhf"
			},
			{
				"type": "occ",
				"energy": -0.25597,
				"method": "rhf"
			},
			{
				"type": "occ",
				"energy": -0.21938,
				"method": "rhf"
			},
			{
				"type": "unocc",
				"energy": -0.04414,
				"method": "rhf"
			},
			{
				"type": "unocc",
				"energy": -0.00666,
				"method": "rhf"
			},
			{
				"type": "unocc",
				"energy": 0.06008,
				"method": "rhf"
			},
			{
				"type": "unocc",
				"energy": 0.07973,
				"method": "rhf"
			},
			{
				"type": "unocc",
				"energy": 0.09421,
				"method": "rhf"
			}
		],
		"cosmo_sigma_profile": { 
			"-0.025": 0.0,
			"-0.024": 0.0,
			"-0.023": 0.0,
			"-0.022": 0.0,
			"-0.021": 0.0,
			"-0.02": 0.0,
			"-0.019": 0.0,
			"-0.018": 0.0,
			"-0.017": 0.0,
			"-0.016": 0.0,
			"-0.015": 0.0,
			"-0.014": 0.0,
			"-0.013": 0.0,
			"-0.012": 0.0,
			"-0.011": 0.0,
			"-0.01": 0.0,
			"-0.009": 0.0,
			"-0.008": 1.39104443475,
			"-0.007": 11.2427589825,
			"-0.006": 17.9226432537,
			"-0.005": 21.8543773637,
			"-0.004": 21.8174318784,
			"-0.003": 21.6544234623,
			"-0.002": 16.1122448096,
			"-0.001": 10.1051765,
			"0.0": 10.1416343588,
			"0.001": 12.7215400308,
			"0.002": 12.8220724059,
			"0.003": 9.92062208419,
			"0.004": 7.01693291731,
			"0.005": 4.94162133377,
			"0.006": 5.73133612651,
			"0.007": 4.39625143759,
			"0.008": 4.16923757689,
			"0.009": 6.30935153725,
			"0.01": 6.52570302736,
			"0.011": 5.7896965456,
			"0.012": 4.31477793916,
			"0.013": 2.26858822472,
			"0.014": 0.949004486618,
			"0.015": 0.101577547599,
			"0.016": 0.0,
			"0.017": 0.0,
			"0.018": 0.0,
			"0.019": 0.0,
			"0.02": 0.0,
			"0.021": 0.0,
			"0.022": 0.0,
			"0.023": 0.0,
			"0.024": 0.0,
			"0.025": 0.0
		}
	}
}
