{
	 "smiles": "NC1=NN(CC2=CC=NC=C2)C=C1", 
	 "Tm": 396.15, 
	 "num_atms": 23, 
	 "gaussian": { 
		 "optdone": 1, 
		 "sigma_profile": "yes", 
		 "theory": "DFT", 
		 "functional": "B3LYP", 
		 "basiset": "6-31G**", 
		 "properties": { 
			 "R2extent": 2931.7372, 
			 "electric_dipole_moment_norm": 1.7235691428, 
			 "electric_quadrupole_moment_norm": 19.6199429515, 
			 "total_energy": -567.961233724, 
			 "HOMO_LUMO_gap": 0.17792, 
			 "cosmo_polarized_energy": -14.54, 
			 "cosmo_cavitation_energy": 27.41, 
			 "cosmo_dispersion_energy": -19.83, 
			 "cosmo_repulsion_energy": 1.58, 
			 "cosmo_total_nonelectrostatic_energy": 9.16, 
			 "SMD_solvation_energy": 2.74 
		},
		"coords": [
			{
				"x": 0.2728469261,
				"y": 1.0987502313,
				"z": -4.1547510135,
				"element": "N" 
			},
			{
				"x": 0.3506159579,
				"y": 0.2365332644,
				"z": -3.0606168486,
				"element": "C" 
			},
			{
				"x": -0.7261079123,
				"y": -0.0176808786,
				"z": -2.315010818,
				"element": "N" 
			},
			{
				"x": -0.3103792703,
				"y": -0.9622594395,
				"z": -1.4195156099,
				"element": "N" 
			},
			{
				"x": -1.2171065201,
				"y": -1.4078886905,
				"z": -0.3790652827,
				"element": "C" 
			},
			{
				"x": -1.1946326177,
				"y": -0.5593901562,
				"z": 0.8819821326,
				"element": "C" 
			},
			{
				"x": -1.2527289725,
				"y": -1.154057596,
				"z": 2.1446679773,
				"element": "C" 
			},
			{
				"x": -1.2636429291,
				"y": -0.3395850561,
				"z": 3.2786170495,
				"element": "C" 
			},
			{
				"x": -1.2160659139,
				"y": 0.9964631957,
				"z": 3.2349082285,
				"element": "N" 
			},
			{
				"x": -1.1579611172,
				"y": 1.5577883046,
				"z": 2.0188637184,
				"element": "C" 
			},
			{
				"x": -1.1470443975,
				"y": 0.8373948368,
				"z": 0.8253379646,
				"element": "C" 
			},
			{
				"x": 1.0021842161,
				"y": -1.2681442084,
				"z": -1.5767911116,
				"element": "C" 
			},
			{
				"x": 1.4739691571,
				"y": -0.5223891822,
				"z": -2.6380918258,
				"element": "C" 
			},
			{
				"x": 1.095783443,
				"y": 1.6751987376,
				"z": -4.2752150518,
				"element": "H" 
			},
			{
				"x": -0.5671052365,
				"y": 1.6643101912,
				"z": -4.1302462544,
				"element": "H" 
			},
			{
				"x": -2.2199648187,
				"y": -1.3995756288,
				"z": -0.8179897173,
				"element": "H" 
			},
			{
				"x": -0.9739702094,
				"y": -2.4462131826,
				"z": -0.133173784,
				"element": "H" 
			},
			{
				"x": -1.2867292772,
				"y": -2.2353491698,
				"z": 2.2515600845,
				"element": "H" 
			},
			{
				"x": -1.3071235753,
				"y": -0.7868517488,
				"z": 4.270568656,
				"element": "H" 
			},
			{
				"x": -1.119503359,
				"y": 2.6457143232,
				"z": 1.9972482319,
				"element": "H" 
			},
			{
				"x": -1.10084886,
				"y": 1.3437307724,
				"z": -0.1332808013,
				"element": "H" 
			},
			{
				"x": 1.4942271705,
				"y": -1.9897874783,
				"z": -0.9400318894,
				"element": "H" 
			},
			{
				"x": 2.4642881159,
				"y": -0.5422114414,
				"z": -3.0676740349,
				"element": "H" 
			}
		],
		 "valence_orbital": [ 
			{
				"type": "occ",
				"energy": -0.27976,
				"method": "rhf"
			},
			{
				"type": "occ",
				"energy": -0.26132,
				"method": "rhf"
			},
			{
				"type": "occ",
				"energy": -0.25267,
				"method": "rhf"
			},
			{
				"type": "occ",
				"energy": -0.24192,
				"method": "rhf"
			},
			{
				"type": "occ",
				"energy": -0.20312,
				"method": "rhf"
			},
			{
				"type": "unocc",
				"energy": -0.0252,
				"method": "rhf"
			},
			{
				"type": "unocc",
				"energy": -0.01104,
				"method": "rhf"
			},
			{
				"type": "unocc",
				"energy": 0.0229,
				"method": "rhf"
			},
			{
				"type": "unocc",
				"energy": 0.0757,
				"method": "rhf"
			},
			{
				"type": "unocc",
				"energy": 0.09488,
				"method": "rhf"
			}
		],
		"cosmo_sigma_profile": { 
			"-0.025": 0.0,
			"-0.024": 0.0,
			"-0.023": 0.0,
			"-0.022": 0.0,
			"-0.021": 0.0,
			"-0.02": 0.0,
			"-0.019": 0.0,
			"-0.018": 0.0,
			"-0.017": 0.0,
			"-0.016": 0.0,
			"-0.015": 0.0,
			"-0.014": 0.0,
			"-0.013": 0.168193260616,
			"-0.012": 1.57003059574,
			"-0.011": 2.20902655607,
			"-0.01": 2.79394413163,
			"-0.009": 2.96762760294,
			"-0.008": 7.88459378076,
			"-0.007": 11.085735488,
			"-0.006": 14.517510216,
			"-0.005": 16.3335978174,
			"-0.004": 14.3311798388,
			"-0.003": 12.1351980561,
			"-0.002": 11.2876719697,
			"-0.001": 9.33757666707,
			"0.0": 11.2809040783,
			"0.001": 11.3397619119,
			"0.002": 20.0833153984,
			"0.003": 15.3406947374,
			"0.004": 9.06942480346,
			"0.005": 8.74276541819,
			"0.006": 7.42838172933,
			"0.007": 4.89032500832,
			"0.008": 4.30096056243,
			"0.009": 3.86710853903,
			"0.01": 1.0363954777,
			"0.011": 2.86339964121,
			"0.012": 3.04466734726,
			"0.013": 3.01164678183,
			"0.014": 1.90500728834,
			"0.015": 2.09814357456,
			"0.016": 1.40930969201,
			"0.017": 0.535587137715,
			"0.018": 0.0,
			"0.019": 0.0,
			"0.02": 0.0,
			"0.021": 0.0,
			"0.022": 0.0,
			"0.023": 0.0,
			"0.024": 0.0,
			"0.025": 0.0
		}
	}
}
