{
	 "smiles": "CC(OC1C(N)C(O)OC(CO)C1O)C(O)=O", 
	 "Tm": 421.15, 
	 "num_atms": 34, 
	 "gaussian": { 
		 "optdone": 1, 
		 "sigma_profile": "yes", 
		 "theory": "DFT", 
		 "functional": "B3LYP", 
		 "basiset": "6-31G**", 
		 "properties": { 
			 "R2extent": 4513.4526, 
			 "electric_dipole_moment_norm": 4.88461070097, 
			 "electric_quadrupole_moment_norm": 10.1082795915, 
			 "total_energy": -934.484632631, 
			 "HOMO_LUMO_gap": 0.21058, 
			 "cosmo_polarized_energy": -24.66, 
			 "cosmo_cavitation_energy": 34.84, 
			 "cosmo_dispersion_energy": -24.52, 
			 "cosmo_repulsion_energy": 1.94, 
			 "cosmo_total_nonelectrostatic_energy": 12.26, 
			 "SMD_solvation_energy": 5.65 
		},
		"coords": [
			{
				"x": -0.0104633441,
				"y": 1.7142154131,
				"z": -2.1776641354,
				"element": "C" 
			},
			{
				"x": 1.2577920044,
				"y": 1.2970115197,
				"z": -1.4141439317,
				"element": "C" 
			},
			{
				"x": 1.1283710984,
				"y": 0.1103859715,
				"z": -0.6608559418,
				"element": "O" 
			},
			{
				"x": 0.1510481293,
				"y": 0.0797421737,
				"z": 0.3958838159,
				"element": "C" 
			},
			{
				"x": -1.0276485068,
				"y": -0.8333359707,
				"z": 0.0044123405,
				"element": "C" 
			},
			{
				"x": -2.1574412885,
				"y": -0.5827012499,
				"z": 0.898319141,
				"element": "N" 
			},
			{
				"x": -0.5405621861,
				"y": -2.2917062552,
				"z": -0.0016651809,
				"element": "C" 
			},
			{
				"x": -1.6378569505,
				"y": -3.1228530643,
				"z": -0.2483651481,
				"element": "O" 
			},
			{
				"x": -0.0200036941,
				"y": -2.6520198807,
				"z": 1.2694929957,
				"element": "O" 
			},
			{
				"x": 1.137620435,
				"y": -1.920791231,
				"z": 1.6777023879,
				"element": "C" 
			},
			{
				"x": 2.4005171958,
				"y": -2.3042356608,
				"z": 0.8975363179,
				"element": "C" 
			},
			{
				"x": 2.571496306,
				"y": -3.7088242791,
				"z": 1.019556342,
				"element": "O" 
			},
			{
				"x": 0.873940604,
				"y": -0.4049126341,
				"z": 1.6763749606,
				"element": "C" 
			},
			{
				"x": 0.0757843221,
				"y": -0.1401736229,
				"z": 2.8319500781,
				"element": "O" 
			},
			{
				"x": 1.8031226846,
				"y": 2.4546295666,
				"z": -0.5682605594,
				"element": "C" 
			},
			{
				"x": 2.1606010178,
				"y": 3.4957911528,
				"z": -1.3550650837,
				"element": "O" 
			},
			{
				"x": 1.920504072,
				"y": 2.4763987078,
				"z": 0.6371173513,
				"element": "O" 
			},
			{
				"x": 0.1971245542,
				"y": 2.5881546438,
				"z": -2.7994592399,
				"element": "H" 
			},
			{
				"x": -0.3317172505,
				"y": 0.8916772783,
				"z": -2.8212375717,
				"element": "H" 
			},
			{
				"x": -0.8305312657,
				"y": 1.962777684,
				"z": -1.4981456161,
				"element": "H" 
			},
			{
				"x": 2.0385884902,
				"y": 1.0738130118,
				"z": -2.151278555,
				"element": "H" 
			},
			{
				"x": -0.2411798788,
				"y": 1.0832011209,
				"z": 0.5888593743,
				"element": "H" 
			},
			{
				"x": -1.3325364658,
				"y": -0.5814172869,
				"z": -1.0181686965,
				"element": "H" 
			},
			{
				"x": -2.8778419321,
				"y": -1.2689479058,
				"z": 0.6830154003,
				"element": "H" 
			},
			{
				"x": -1.8537926324,
				"y": -0.7784043691,
				"z": 1.851024103,
				"element": "H" 
			},
			{
				"x": 0.2355577431,
				"y": -2.4280501188,
				"z": -0.7735656522,
				"element": "H" 
			},
			{
				"x": -1.3628955287,
				"y": -4.0189038141,
				"z": -0.008546777,
				"element": "H" 
			},
			{
				"x": 1.2915720731,
				"y": -2.2226570338,
				"z": 2.7182832081,
				"element": "H" 
			},
			{
				"x": 2.3285639444,
				"y": -1.9896550407,
				"z": -0.1512873115,
				"element": "H" 
			},
			{
				"x": 3.2430702584,
				"y": -1.7508050203,
				"z": 1.3437678586,
				"element": "H" 
			},
			{
				"x": 3.3553873101,
				"y": -3.9547426959,
				"z": 0.5138761326,
				"element": "H" 
			},
			{
				"x": 1.8265084588,
				"y": 0.1351727972,
				"z": 1.7348136985,
				"element": "H" 
			},
			{
				"x": -0.062335792,
				"y": 0.8155342796,
				"z": 2.8791492815,
				"element": "H" 
			},
			{
				"x": 2.4920360143,
				"y": 4.1901318135,
				"z": -0.760425387,
				"element": "H" 
			}
		],
		 "valence_orbital": [ 
			{
				"type": "occ",
				"energy": -0.27724,
				"method": "rhf"
			},
			{
				"type": "occ",
				"energy": -0.26384,
				"method": "rhf"
			},
			{
				"type": "occ",
				"energy": -0.25725,
				"method": "rhf"
			},
			{
				"type": "occ",
				"energy": -0.25029,
				"method": "rhf"
			},
			{
				"type": "occ",
				"energy": -0.22002,
				"method": "rhf"
			},
			{
				"type": "unocc",
				"energy": -0.00944,
				"method": "rhf"
			},
			{
				"type": "unocc",
				"energy": 0.06045,
				"method": "rhf"
			},
			{
				"type": "unocc",
				"energy": 0.06976,
				"method": "rhf"
			},
			{
				"type": "unocc",
				"energy": 0.07591,
				"method": "rhf"
			},
			{
				"type": "unocc",
				"energy": 0.0828,
				"method": "rhf"
			}
		],
		"cosmo_sigma_profile": { 
			"-0.025": 0.0,
			"-0.024": 0.0,
			"-0.023": 0.0,
			"-0.022": 0.0,
			"-0.021": 0.0,
			"-0.02": 0.0,
			"-0.019": 0.0876792464707,
			"-0.018": 1.4313199416,
			"-0.017": 0.339293263666,
			"-0.016": 2.12790965834,
			"-0.015": 4.0245520806,
			"-0.014": 2.79011227219,
			"-0.013": 2.79282103754,
			"-0.012": 3.24131727824,
			"-0.011": 2.93705825159,
			"-0.01": 3.57877539849,
			"-0.009": 2.67295656331,
			"-0.008": 3.97744529769,
			"-0.007": 7.34734683113,
			"-0.006": 10.3458675832,
			"-0.005": 13.6688317098,
			"-0.004": 22.8001103958,
			"-0.003": 22.7442781868,
			"-0.002": 19.8690799308,
			"-0.001": 17.7159097308,
			"0.0": 12.5479180653,
			"0.001": 10.5803271059,
			"0.002": 8.50002482354,
			"0.003": 9.23332318227,
			"0.004": 9.95500868796,
			"0.005": 10.9233865159,
			"0.006": 9.24373904909,
			"0.007": 9.16326356572,
			"0.008": 6.84802935106,
			"0.009": 7.31164184031,
			"0.01": 5.94526544234,
			"0.011": 6.92573773978,
			"0.012": 6.69218992504,
			"0.013": 3.7767659637,
			"0.014": 2.87677511561,
			"0.015": 1.58720788661,
			"0.016": 0.73427364925,
			"0.017": 0.744724103355,
			"0.018": 0.510042959606,
			"0.019": 0.432501847508,
			"0.02": 0.0942193440899,
			"0.021": 0.0,
			"0.022": 0.0,
			"0.023": 0.0,
			"0.024": 0.0,
			"0.025": 0.0
		}
	}
}
