{
	 "smiles": "CC1CCC2=C(C1)SC=C2C(O)=O", 
	 "Tm": 452.15, 
	 "num_atms": 25, 
	 "gaussian": { 
		 "optdone": 1, 
		 "sigma_profile": "yes", 
		 "theory": "DFT", 
		 "functional": "B3LYP", 
		 "basiset": "6-31G**", 
		 "properties": { 
			 "R2extent": 3379.1837, 
			 "electric_dipole_moment_norm": 5.61455487461, 
			 "electric_quadrupole_moment_norm": 19.3476165571, 
			 "total_energy": -936.947756695, 
			 "HOMO_LUMO_gap": 0.19743, 
			 "cosmo_polarized_energy": -12.66, 
			 "cosmo_cavitation_energy": 28.43, 
			 "cosmo_dispersion_energy": -21.57, 
			 "cosmo_repulsion_energy": 1.65, 
			 "cosmo_total_nonelectrostatic_energy": 8.5, 
			 "SMD_solvation_energy": 5.02 
		},
		"coords": [
			{
				"x": 2.1313318663,
				"y": -0.2821201451,
				"z": -2.904186503,
				"element": "C" 
			},
			{
				"x": 1.1877552629,
				"y": -0.2268171093,
				"z": -1.6985146662,
				"element": "C" 
			},
			{
				"x": -0.2902019999,
				"y": -0.2530799102,
				"z": -2.1211821295,
				"element": "C" 
			},
			{
				"x": -1.2386003932,
				"y": -0.3540792939,
				"z": -0.9135053753,
				"element": "C" 
			},
			{
				"x": -0.8534668251,
				"y": 0.6092199877,
				"z": 0.1907805023,
				"element": "C" 
			},
			{
				"x": 0.3769020536,
				"y": 1.2149390168,
				"z": 0.1914302594,
				"element": "C" 
			},
			{
				"x": 1.458821891,
				"y": 1.0229814803,
				"z": -0.8358685458,
				"element": "C" 
			},
			{
				"x": 0.5515366923,
				"y": 2.3059560121,
				"z": 1.5446214457,
				"element": "S" 
			},
			{
				"x": -1.0357150417,
				"y": 1.9502051243,
				"z": 2.1053322966,
				"element": "C" 
			},
			{
				"x": -1.6718851305,
				"y": 1.030594622,
				"z": 1.3089774287,
				"element": "C" 
			},
			{
				"x": -3.0570548344,
				"y": 0.616284017,
				"z": 1.6777457714,
				"element": "C" 
			},
			{
				"x": -3.5466021067,
				"y": -0.5157238784,
				"z": 1.0993816691,
				"element": "O" 
			},
			{
				"x": -3.7453403445,
				"y": 1.2297554676,
				"z": 2.4603559556,
				"element": "O" 
			},
			{
				"x": 1.9581183548,
				"y": 0.5655247855,
				"z": -3.5778994459,
				"element": "H" 
			},
			{
				"x": 3.1803999238,
				"y": -0.2491331681,
				"z": -2.5907758586,
				"element": "H" 
			},
			{
				"x": 1.9833730542,
				"y": -1.2015307429,
				"z": -3.4802209691,
				"element": "H" 
			},
			{
				"x": 1.3738626163,
				"y": -1.1113883647,
				"z": -1.0715569703,
				"element": "H" 
			},
			{
				"x": -0.5169938456,
				"y": 0.6630823548,
				"z": -2.6830393638,
				"element": "H" 
			},
			{
				"x": -0.4749739997,
				"y": -1.0929954724,
				"z": -2.8004385956,
				"element": "H" 
			},
			{
				"x": -2.2679477421,
				"y": -0.166878306,
				"z": -1.2427032865,
				"element": "H" 
			},
			{
				"x": -1.2098664703,
				"y": -1.3908720609,
				"z": -0.5366278997,
				"element": "H" 
			},
			{
				"x": 1.515443054,
				"y": 1.9073956779,
				"z": -1.4881215602,
				"element": "H" 
			},
			{
				"x": 2.4404336941,
				"y": 0.9377516433,
				"z": -0.3534439692,
				"element": "H" 
			},
			{
				"x": -1.4458608141,
				"y": 2.4173667435,
				"z": 2.9890953375,
				"element": "H" 
			},
			{
				"x": -2.8578689155,
				"y": -0.9688384811,
				"z": 0.5955644723,
				"element": "H" 
			}
		],
		 "valence_orbital": [ 
			{
				"type": "occ",
				"energy": -0.32622,
				"method": "rhf"
			},
			{
				"type": "occ",
				"energy": -0.30874,
				"method": "rhf"
			},
			{
				"type": "occ",
				"energy": -0.26864,
				"method": "rhf"
			},
			{
				"type": "occ",
				"energy": -0.25788,
				"method": "rhf"
			},
			{
				"type": "occ",
				"energy": -0.23704,
				"method": "rhf"
			},
			{
				"type": "unocc",
				"energy": -0.03961,
				"method": "rhf"
			},
			{
				"type": "unocc",
				"energy": 0.0046,
				"method": "rhf"
			},
			{
				"type": "unocc",
				"energy": 0.01929,
				"method": "rhf"
			},
			{
				"type": "unocc",
				"energy": 0.06407,
				"method": "rhf"
			},
			{
				"type": "unocc",
				"energy": 0.07625,
				"method": "rhf"
			}
		],
		"cosmo_sigma_profile": { 
			"-0.025": 0.0,
			"-0.024": 0.0,
			"-0.023": 0.0,
			"-0.022": 0.0,
			"-0.021": 0.0,
			"-0.02": 0.0,
			"-0.019": 0.0,
			"-0.018": 0.0,
			"-0.017": 0.0,
			"-0.016": 0.00786435323852,
			"-0.015": 1.01583310366,
			"-0.014": 0.964742258288,
			"-0.013": 0.84096236113,
			"-0.012": 1.09422502233,
			"-0.011": 1.48239452733,
			"-0.01": 1.04064710949,
			"-0.009": 1.46857178914,
			"-0.008": 2.49275314577,
			"-0.007": 2.90276678475,
			"-0.006": 4.20055126644,
			"-0.005": 8.60156671773,
			"-0.004": 11.583872972,
			"-0.003": 28.7978597831,
			"-0.002": 30.7375351621,
			"-0.001": 22.9777044477,
			"0.0": 18.7737435461,
			"0.001": 19.7786160571,
			"0.002": 14.084808006,
			"0.003": 16.1878675541,
			"0.004": 6.51832690291,
			"0.005": 2.2729151541,
			"0.006": 1.99898429113,
			"0.007": 2.29347823665,
			"0.008": 2.64909531861,
			"0.009": 3.01163595441,
			"0.01": 4.06054784736,
			"0.011": 5.27223188551,
			"0.012": 5.65019731545,
			"0.013": 2.5065720593,
			"0.014": 0.401990615046,
			"0.015": 0.0,
			"0.016": 0.0,
			"0.017": 0.0,
			"0.018": 0.0,
			"0.019": 0.0,
			"0.02": 0.0,
			"0.021": 0.0,
			"0.022": 0.0,
			"0.023": 0.0,
			"0.024": 0.0,
			"0.0": 0.0
		}
	}
}
