{
	 "smiles": "CN(C)C1=NC(C=O)=C(Cl)N1C1=CC=C(Br)C=C1", 
	 "Tm": 389.15, 
	 "num_atms": 29, 
	 "gaussian": { 
		 "optdone": 1, 
		 "sigma_profile": "yes", 
		 "theory": "DFT", 
		 "functional": "B3LYP", 
		 "basiset": "6-31G**", 
		 "properties": { 
			 "R2extent": 9816.1347, 
			 "electric_dipole_moment_norm": 5.50961531416, 
			 "electric_quadrupole_moment_norm": 23.904001127, 
			 "total_energy": -3734.95229519, 
			 "HOMO_LUMO_gap": 0.16322, 
			 "cosmo_polarized_energy": -13.52, 
			 "cosmo_cavitation_energy": 37.64, 
			 "cosmo_dispersion_energy": -26.24, 
			 "cosmo_repulsion_energy": 2.06, 
			 "cosmo_total_nonelectrostatic_energy": 13.46, 
			 "SMD_solvation_energy": 4.6 
		},
		"coords": [
			{
				"x": 0.4224511425,
				"y": -0.5219350002,
				"z": -2.3073479601,
				"element": "C" 
			},
			{
				"x": -0.2310242383,
				"y": -0.9292545371,
				"z": -1.0564207228,
				"element": "N" 
			},
			{
				"x": -0.7797276179,
				"y": -2.2850090847,
				"z": -1.1274385765,
				"element": "C" 
			},
			{
				"x": -1.1038593749,
				"y": -0.0067560455,
				"z": -0.4874251799,
				"element": "C" 
			},
			{
				"x": -2.3835326046,
				"y": -0.1799861155,
				"z": -0.272711014,
				"element": "N" 
			},
			{
				"x": -2.8309608204,
				"y": 0.9596773007,
				"z": 0.3779278233,
				"element": "C" 
			},
			{
				"x": -4.2321331196,
				"y": 1.0956869854,
				"z": 0.7758440159,
				"element": "C" 
			},
			{
				"x": -4.7171086779,
				"y": 2.0704678661,
				"z": 1.3235189463,
				"element": "O" 
			},
			{
				"x": -1.7827267069,
				"y": 1.8394677199,
				"z": 0.5374466502,
				"element": "C" 
			},
			{
				"x": -1.7230900976,
				"y": 3.38777195,
				"z": 1.2694375406,
				"element": "Cl" 
			},
			{
				"x": -0.6592901214,
				"y": 1.2294711183,
				"z": -0.0042465955,
				"element": "N" 
			},
			{
				"x": 0.6903228859,
				"y": 1.6982315302,
				"z": 0.0663502969,
				"element": "C" 
			},
			{
				"x": 1.0516038877,
				"y": 2.8967906829,
				"z": -0.5555010272,
				"element": "C" 
			},
			{
				"x": 2.3665499293,
				"y": 3.353865227,
				"z": -0.4759643147,
				"element": "C" 
			},
			{
				"x": 3.3112903529,
				"y": 2.5973569089,
				"z": 0.2159910414,
				"element": "C" 
			},
			{
				"x": 5.1134685941,
				"y": 3.2136697373,
				"z": 0.3182226724,
				"element": "Br" 
			},
			{
				"x": 2.9615553067,
				"y": 1.3959989806,
				"z": 0.8331931949,
				"element": "C" 
			},
			{
				"x": 1.6439553696,
				"y": 0.9489476018,
				"z": 0.7619935359,
				"element": "C" 
			},
			{
				"x": 0.8526705373,
				"y": 0.4753749311,
				"z": -2.2106758086,
				"element": "H" 
			},
			{
				"x": 1.2354285234,
				"y": -1.2203833478,
				"z": -2.5243435302,
				"element": "H" 
			},
			{
				"x": -0.2774331347,
				"y": -0.5237400391,
				"z": -3.1576584467,
				"element": "H" 
			},
			{
				"x": -1.1861107342,
				"y": -2.5684112687,
				"z": -0.1557705534,
				"element": "H" 
			},
			{
				"x": 0.0309734761,
				"y": -2.9698473927,
				"z": -1.3924107469,
				"element": "H" 
			},
			{
				"x": -1.5831062435,
				"y": -2.3775409076,
				"z": -1.8723090295,
				"element": "H" 
			},
			{
				"x": -4.8365155813,
				"y": 0.1984503345,
				"z": 0.5246783436,
				"element": "H" 
			},
			{
				"x": 0.3080781262,
				"y": 3.4698587613,
				"z": -1.0985526998,
				"element": "H" 
			},
			{
				"x": 2.6529285901,
				"y": 4.2846427579,
				"z": -0.9513261977,
				"element": "H" 
			},
			{
				"x": 3.7070511897,
				"y": 0.821050393,
				"z": 1.3699959074,
				"element": "H" 
			},
			{
				"x": 1.3542911616,
				"y": 0.018282952,
				"z": 1.2360024349,
				"element": "H" 
			}
		],
		 "valence_orbital": [ 
			{
				"type": "occ",
				"energy": -0.28709,
				"method": "rhf"
			},
			{
				"type": "occ",
				"energy": -0.27668,
				"method": "rhf"
			},
			{
				"type": "occ",
				"energy": -0.25764,
				"method": "rhf"
			},
			{
				"type": "occ",
				"energy": -0.24236,
				"method": "rhf"
			},
			{
				"type": "occ",
				"energy": -0.21449,
				"method": "rhf"
			},
			{
				"type": "unocc",
				"energy": -0.05127,
				"method": "rhf"
			},
			{
				"type": "unocc",
				"energy": -0.03681,
				"method": "rhf"
			},
			{
				"type": "unocc",
				"energy": -0.03477,
				"method": "rhf"
			},
			{
				"type": "unocc",
				"energy": -0.00826,
				"method": "rhf"
			},
			{
				"type": "unocc",
				"energy": 0.02174,
				"method": "rhf"
			}
		],
		"cosmo_sigma_profile": { 
			"-0.025": 0.0,
			"-0.024": 0.0,
			"-0.023": 0.0,
			"-0.022": 0.0,
			"-0.021": 0.0,
			"-0.02": 0.0,
			"-0.019": 0.0,
			"-0.018": 0.0,
			"-0.017": 0.0,
			"-0.016": 0.0298818221553,
			"-0.015": 0.0778690482042,
			"-0.014": 0.162127239626,
			"-0.013": 0.223558856459,
			"-0.012": 0.214658508197,
			"-0.011": 0.133535223388,
			"-0.01": 0.0563849019654,
			"-0.009": 0.513723991123,
			"-0.008": 3.67900091288,
			"-0.007": 9.28831981817,
			"-0.006": 10.6745713341,
			"-0.005": 17.4026789958,
			"-0.004": 23.743613058,
			"-0.003": 28.8522329276,
			"-0.002": 33.5042098513,
			"-0.001": 25.7028786098,
			"0.0": 23.5210330286,
			"0.001": 28.5568484457,
			"0.002": 27.2497327177,
			"0.003": 18.5389348893,
			"0.004": 16.1938166385,
			"0.005": 7.1120432983,
			"0.006": 3.93064054797,
			"0.007": 3.51729033465,
			"0.008": 3.31220265773,
			"0.009": 3.52597315102,
			"0.01": 3.53473607762,
			"0.011": 4.52336096085,
			"0.012": 5.0130702593,
			"0.013": 2.60215822119,
			"0.014": 0.913063130457,
			"0.015": 0.139909263347,
			"0.016": 0.0,
			"0.017": 0.0,
			"0.018": 0.0,
			"0.019": 0.0,
			"0.02": 0.0,
			"0.021": 0.0,
			"0.022": 0.0,
			"0.023": 0.0,
			"0.024": 0.0,
			"0.025": 0.0
		}
	}
}
