{
	 "smiles": "CCCSCCC", 
	 "Tm": 171.15, 
	 "num_atms": 21, 
	 "gaussian": { 
		 "optdone": 1, 
		 "sigma_profile": "yes", 
		 "theory": "DFT", 
		 "functional": "B3LYP", 
		 "basiset": "6-31G**", 
		 "properties": { 
			 "R2extent": 1543.6951, 
			 "electric_dipole_moment_norm": 1.73356729607, 
			 "electric_quadrupole_moment_norm": 5.6899941529, 
			 "total_energy": -635.280043063, 
			 "HOMO_LUMO_gap": 0.26729, 
			 "cosmo_polarized_energy": -3.99, 
			 "cosmo_cavitation_energy": 23.73, 
			 "cosmo_dispersion_energy": -17.36, 
			 "cosmo_repulsion_energy": 1.44, 
			 "cosmo_total_nonelectrostatic_energy": 7.81, 
			 "SMD_solvation_energy": 3.67 
		},
		"coords": [
			{
				"x": -1.86690862,
				"y": -3.0860714166,
				"z": 0.2899818555,
				"element": "C" 
			},
			{
				"x": -0.3834285108,
				"y": -2.9445589372,
				"z": -0.0599197161,
				"element": "C" 
			},
			{
				"x": 0.4773218711,
				"y": -2.4160399594,
				"z": 1.0959306604,
				"element": "C" 
			},
			{
				"x": 0.1074498184,
				"y": -0.7014830011,
				"z": 1.6675283427,
				"element": "S" 
			},
			{
				"x": 1.3420404168,
				"y": 0.2918228852,
				"z": 0.7298814916,
				"element": "C" 
			},
			{
				"x": 1.0469595155,
				"y": 0.5535272486,
				"z": -0.7529724038,
				"element": "C" 
			},
			{
				"x": -0.2215025532,
				"y": 1.3715880916,
				"z": -1.0051015777,
				"element": "C" 
			},
			{
				"x": -2.0097704607,
				"y": -3.7771503089,
				"z": 1.1290440648,
				"element": "H" 
			},
			{
				"x": -2.2956257859,
				"y": -2.1203745647,
				"z": 0.5748614199,
				"element": "H" 
			},
			{
				"x": -2.4374552279,
				"y": -3.4723005301,
				"z": -0.5606953413,
				"element": "H" 
			},
			{
				"x": -0.2688293619,
				"y": -2.2930585193,
				"z": -0.9337763547,
				"element": "H" 
			},
			{
				"x": 0.0187262094,
				"y": -3.9255666088,
				"z": -0.3505753401,
				"element": "H" 
			},
			{
				"x": 0.3378498209,
				"y": -3.0484730333,
				"z": 1.9795919872,
				"element": "H" 
			},
			{
				"x": 1.5421728999,
				"y": -2.4546080596,
				"z": 0.8424102015,
				"element": "H" 
			},
			{
				"x": 1.3851173862,
				"y": 1.2413157956,
				"z": 1.2754837026,
				"element": "H" 
			},
			{
				"x": 2.318619822,
				"y": -0.1895460195,
				"z": 0.8513639063,
				"element": "H" 
			},
			{
				"x": 0.9914004089,
				"y": -0.4007114278,
				"z": -1.2903334698,
				"element": "H" 
			},
			{
				"x": 1.9145685981,
				"y": 1.0844342011,
				"z": -1.1698389731,
				"element": "H" 
			},
			{
				"x": -0.3796382633,
				"y": 1.5318269485,
				"z": -2.076410094,
				"element": "H" 
			},
			{
				"x": -0.155992129,
				"y": 2.3556518183,
				"z": -0.5264597205,
				"element": "H" 
			},
			{
				"x": -1.1026758546,
				"y": 0.8640753976,
				"z": -0.6018946413,
				"element": "H" 
			}
		],
		 "valence_orbital": [ 
			{
				"type": "occ",
				"energy": -0.34389,
				"method": "rhf"
			},
			{
				"type": "occ",
				"energy": -0.34181,
				"method": "rhf"
			},
			{
				"type": "occ",
				"energy": -0.31743,
				"method": "rhf"
			},
			{
				"type": "occ",
				"energy": -0.28794,
				"method": "rhf"
			},
			{
				"type": "occ",
				"energy": -0.2153,
				"method": "rhf"
			},
			{
				"type": "unocc",
				"energy": 0.05199,
				"method": "rhf"
			},
			{
				"type": "unocc",
				"energy": 0.07201,
				"method": "rhf"
			},
			{
				"type": "unocc",
				"energy": 0.08135,
				"method": "rhf"
			},
			{
				"type": "unocc",
				"energy": 0.11134,
				"method": "rhf"
			},
			{
				"type": "unocc",
				"energy": 0.11835,
				"method": "rhf"
			}
		],
		"cosmo_sigma_profile": { 
			"-0.025": 0.0,
			"-0.024": 0.0,
			"-0.023": 0.0,
			"-0.022": 0.0,
			"-0.021": 0.0,
			"-0.02": 0.0,
			"-0.019": 0.0,
			"-0.018": 0.0,
			"-0.017": 0.0,
			"-0.016": 0.0,
			"-0.015": 0.0,
			"-0.014": 0.0,
			"-0.013": 0.0,
			"-0.012": 0.0,
			"-0.011": 0.0,
			"-0.01": 0.0,
			"-0.009": 0.0,
			"-0.008": 0.0,
			"-0.007": 0.0,
			"-0.006": 0.0956873597254,
			"-0.005": 4.63867838037,
			"-0.004": 10.1407394044,
			"-0.003": 21.791194668,
			"-0.002": 29.5829206024,
			"-0.001": 28.8812108208,
			"0.0": 26.8455554084,
			"0.001": 23.3847877123,
			"0.002": 13.4605320157,
			"0.003": 4.26573375077,
			"0.004": 3.21948859666,
			"0.005": 3.78311852176,
			"0.006": 3.12233551211,
			"0.007": 3.70469269457,
			"0.008": 3.16449327945,
			"0.009": 2.3076049726,
			"0.01": 1.12665633063,
			"0.011": 1.35368272266,
			"0.012": 0.407131402776,
			"0.013": 0.0,
			"0.014": 0.0,
			"0.015": 0.0,
			"0.016": 0.0,
			"0.017": 0.0,
			"0.018": 0.0,
			"0.019": 0.0,
			"0.02": 0.0,
			"0.021": 0.0,
			"0.022": 0.0,
			"0.023": 0.0,
			"0.024": 0.0,
			"0.025": 0.0
		}
	}
}
