{
	 "smiles": "CCC(=O)C(C)=O", 
	 "Tm": 221.15, 
	 "num_atms": 15, 
	 "gaussian": { 
		 "optdone": 1, 
		 "sigma_profile": "yes", 
		 "theory": "DFT", 
		 "functional": "B3LYP", 
		 "basiset": "6-31G**", 
		 "properties": { 
			 "R2extent": 1121.058, 
			 "electric_dipole_moment_norm": 0.28984425128, 
			 "electric_quadrupole_moment_norm": 7.79250400706, 
			 "total_energy": -345.793858187, 
			 "HOMO_LUMO_gap": 0.15452, 
			 "cosmo_polarized_energy": -6.75, 
			 "cosmo_cavitation_energy": 19.03, 
			 "cosmo_dispersion_energy": -13.53, 
			 "cosmo_repulsion_energy": 1.17, 
			 "cosmo_total_nonelectrostatic_energy": 6.67, 
			 "SMD_solvation_energy": 4.94 
		},
		"coords": [
			{
				"x": -0.3639179601,
				"y": -0.2885718589,
				"z": -1.4021759299,
				"element": "C" 
			},
			{
				"x": -1.1129392749,
				"y": 0.1665657668,
				"z": -0.1325018891,
				"element": "C" 
			},
			{
				"x": -0.5332184827,
				"y": 1.4502870861,
				"z": 0.4197636715,
				"element": "C" 
			},
			{
				"x": -1.0219004981,
				"y": 2.5504689676,
				"z": 0.2396799698,
				"element": "O" 
			},
			{
				"x": 0.7769383342,
				"y": 1.3357819125,
				"z": 1.2418381868,
				"element": "C" 
			},
			{
				"x": 1.3751263397,
				"y": 2.6315092292,
				"z": 1.730005752,
				"element": "C" 
			},
			{
				"x": 1.2574746982,
				"y": 0.2392596961,
				"z": 1.4595561561,
				"element": "O" 
			},
			{
				"x": 0.6843951279,
				"y": -0.5048335416,
				"z": -1.1808485375,
				"element": "H" 
			},
			{
				"x": -0.4073768217,
				"y": 0.4793099344,
				"z": -2.1806402253,
				"element": "H" 
			},
			{
				"x": -0.8207112167,
				"y": -1.1993542182,
				"z": -1.7994888134,
				"element": "H" 
			},
			{
				"x": -2.1664372694,
				"y": 0.3538641858,
				"z": -0.3572022272,
				"element": "H" 
			},
			{
				"x": -1.0378624488,
				"y": -0.6161317641,
				"z": 0.6285396768,
				"element": "H" 
			},
			{
				"x": 1.6069533989,
				"y": 3.2815144817,
				"z": 0.8796993719,
				"element": "H" 
			},
			{
				"x": 2.277534146,
				"y": 2.4253674495,
				"z": 2.3061261969,
				"element": "H" 
			},
			{
				"x": 0.6474419275,
				"y": 3.1766626732,
				"z": 2.3395486406,
				"element": "H" 
			}
		],
		 "valence_orbital": [ 
			{
				"type": "occ",
				"energy": -0.37292,
				"method": "rhf"
			},
			{
				"type": "occ",
				"energy": -0.35975,
				"method": "rhf"
			},
			{
				"type": "occ",
				"energy": -0.35543,
				"method": "rhf"
			},
			{
				"type": "occ",
				"energy": -0.30968,
				"method": "rhf"
			},
			{
				"type": "occ",
				"energy": -0.24005,
				"method": "rhf"
			},
			{
				"type": "unocc",
				"energy": -0.08553,
				"method": "rhf"
			},
			{
				"type": "unocc",
				"energy": 0.03401,
				"method": "rhf"
			},
			{
				"type": "unocc",
				"energy": 0.10529,
				"method": "rhf"
			},
			{
				"type": "unocc",
				"energy": 0.11935,
				"method": "rhf"
			},
			{
				"type": "unocc",
				"energy": 0.14261,
				"method": "rhf"
			}
		],
		"cosmo_sigma_profile": { 
			"-0.025": 0.0,
			"-0.024": 0.0,
			"-0.023": 0.0,
			"-0.022": 0.0,
			"-0.021": 0.0,
			"-0.02": 0.0,
			"-0.019": 0.0,
			"-0.018": 0.0,
			"-0.017": 0.0,
			"-0.016": 0.0,
			"-0.015": 0.0,
			"-0.014": 0.0,
			"-0.013": 0.0,
			"-0.012": 0.0,
			"-0.011": 0.0,
			"-0.01": 0.0,
			"-0.009": 0.0,
			"-0.008": 0.629365677348,
			"-0.007": 4.05312255917,
			"-0.006": 6.9522327201,
			"-0.005": 9.9022669662,
			"-0.004": 15.4475893399,
			"-0.003": 18.5662675392,
			"-0.002": 20.4884326717,
			"-0.001": 15.9598017792,
			"0.0": 11.5273321168,
			"0.001": 5.95465196828,
			"0.002": 3.33964407564,
			"0.003": 2.29451895087,
			"0.004": 3.40861683826,
			"0.005": 3.8393894783,
			"0.006": 2.87407178348,
			"0.007": 3.01839348199,
			"0.008": 3.48901721822,
			"0.009": 4.68002904927,
			"0.01": 6.87838224858,
			"0.011": 5.04538003139,
			"0.012": 1.21565536016,
			"0.013": 0.0,
			"0.014": 0.0,
			"0.015": 0.0,
			"0.016": 0.0,
			"0.017": 0.0,
			"0.018": 0.0,
			"0.019": 0.0,
			"0.02": 0.0,
			"0.021": 0.0,
			"0.022": 0.0,
			"0.023": 0.0,
			"0.024": 0.0,
			"0.025": 0.0
		}
	}
}
