{
	 "smiles": "NC1=CC(=NO1)C1=C(Br)C=CC=C1", 
	 "Tm": 348.15, 
	 "num_atms": 20, 
	 "gaussian": { 
		 "optdone": 1, 
		 "sigma_profile": "yes", 
		 "theory": "DFT", 
		 "functional": "B3LYP", 
		 "basiset": "6-31G**", 
		 "properties": { 
			 "R2extent": 4067.8554, 
			 "electric_dipole_moment_norm": 3.09550774349, 
			 "electric_quadrupole_moment_norm": 23.2218594402, 
			 "total_energy": -3103.25565735, 
			 "HOMO_LUMO_gap": 0.18414, 
			 "cosmo_polarized_energy": -13.54, 
			 "cosmo_cavitation_energy": 26.89, 
			 "cosmo_dispersion_energy": -20.41, 
			 "cosmo_repulsion_energy": 1.62, 
			 "cosmo_total_nonelectrostatic_energy": 8.1, 
			 "SMD_solvation_energy": 3.67 
		},
		"coords": [
			{
				"x": 1.4715255979,
				"y": 3.3172482104,
				"z": 2.3681042665,
				"element": "N" 
			},
			{
				"x": 1.267790308,
				"y": 2.1585140383,
				"z": 1.6589179991,
				"element": "C" 
			},
			{
				"x": 0.2715444941,
				"y": 1.2187228454,
				"z": 1.6541556423,
				"element": "C" 
			},
			{
				"x": 0.7417381678,
				"y": 0.2453620148,
				"z": 0.7255999635,
				"element": "C" 
			},
			{
				"x": 1.9176102847,
				"y": 0.5691559786,
				"z": 0.2138155867,
				"element": "N" 
			},
			{
				"x": 2.252946889,
				"y": 1.7999651669,
				"z": 0.8169435121,
				"element": "O" 
			},
			{
				"x": 0.0860173126,
				"y": -0.9800086887,
				"z": 0.21690402,
				"element": "C" 
			},
			{
				"x": -0.7002014282,
				"y": -1.8591627682,
				"z": 0.9806238939,
				"element": "C" 
			},
			{
				"x": -0.986189743,
				"y": -1.6083561357,
				"z": 2.860396822,
				"element": "Br" 
			},
			{
				"x": -1.2876092974,
				"y": -2.9914625549,
				"z": 0.4145913584,
				"element": "C" 
			},
			{
				"x": -1.0937974153,
				"y": -3.2763079201,
				"z": -0.9351674974,
				"element": "C" 
			},
			{
				"x": -0.3071050117,
				"y": -2.4281214323,
				"z": -1.7153387372,
				"element": "C" 
			},
			{
				"x": 0.2672632643,
				"y": -1.2985412877,
				"z": -1.1431622284,
				"element": "C" 
			},
			{
				"x": 0.6340283898,
				"y": 3.7610414959,
				"z": 2.7157188957,
				"element": "H" 
			},
			{
				"x": 2.1236703582,
				"y": 3.9622962832,
				"z": 1.9424052309,
				"element": "H" 
			},
			{
				"x": -0.6459051205,
				"y": 1.2189221578,
				"z": 2.2166855188,
				"element": "H" 
			},
			{
				"x": -1.885422416,
				"y": -3.6468469468,
				"z": 1.0373126631,
				"element": "H" 
			},
			{
				"x": -1.5555135722,
				"y": -4.1583943674,
				"z": -1.3686216461,
				"element": "H" 
			},
			{
				"x": -0.1465670108,
				"y": -2.6408411692,
				"z": -2.7677455426,
				"element": "H" 
			},
			{
				"x": 0.8749759488,
				"y": -0.6273849203,
				"z": -1.7396397211,
				"element": "H" 
			}
		],
		 "valence_orbital": [ 
			{
				"type": "occ",
				"energy": -0.29708,
				"method": "rhf"
			},
			{
				"type": "occ",
				"energy": -0.28468,
				"method": "rhf"
			},
			{
				"type": "occ",
				"energy": -0.25163,
				"method": "rhf"
			},
			{
				"type": "occ",
				"energy": -0.2406,
				"method": "rhf"
			},
			{
				"type": "occ",
				"energy": -0.21755,
				"method": "rhf"
			},
			{
				"type": "unocc",
				"energy": -0.03341,
				"method": "rhf"
			},
			{
				"type": "unocc",
				"energy": -0.01313,
				"method": "rhf"
			},
			{
				"type": "unocc",
				"energy": 0.00578,
				"method": "rhf"
			},
			{
				"type": "unocc",
				"energy": 0.02586,
				"method": "rhf"
			},
			{
				"type": "unocc",
				"energy": 0.05917,
				"method": "rhf"
			}
		],
		"cosmo_sigma_profile": { 
			"-0.025": 0.0,
			"-0.024": 0.0,
			"-0.023": 0.0,
			"-0.022": 0.0,
			"-0.021": 0.0,
			"-0.02": 0.0,
			"-0.019": 0.0,
			"-0.018": 0.0,
			"-0.017": 0.0,
			"-0.016": 0.0,
			"-0.015": 0.842007849395,
			"-0.014": 3.07740997873,
			"-0.013": 2.49923339306,
			"-0.012": 2.14227213418,
			"-0.011": 3.38919288066,
			"-0.01": 1.85649577101,
			"-0.009": 2.07429298202,
			"-0.008": 1.9747475118,
			"-0.007": 7.37612459929,
			"-0.006": 10.0080197596,
			"-0.005": 11.307798828,
			"-0.004": 10.9591510701,
			"-0.003": 10.3849124062,
			"-0.002": 10.1506419529,
			"-0.001": 10.7172315697,
			"0.0": 12.9600106998,
			"0.001": 17.802102713,
			"0.002": 22.6811958466,
			"0.003": 25.9159418349,
			"0.004": 18.3911012629,
			"0.005": 7.74494233829,
			"0.006": 3.26513013156,
			"0.007": 4.37224838109,
			"0.008": 5.23592158232,
			"0.009": 3.43909128278,
			"0.01": 2.22637874298,
			"0.011": 1.75026196884,
			"0.012": 1.88461735616,
			"0.013": 1.21416674694,
			"0.014": 0.866353088829,
			"0.015": 0.506154059412,
			"0.016": 0.0,
			"0.017": 0.0,
			"0.018": 0.0,
			"0.019": 0.0,
			"0.02": 0.0,
			"0.021": 0.0,
			"0.022": 0.0,
			"0.023": 0.0,
			"0.024": 0.0,
			"0.025": 0.0
		}
	}
}
