{
	 "smiles": "CC(C)CNS(=O)(=O)C1=CC=C(C=C1)C#N", 
	 "Tm": 373.15, 
	 "num_atms": 30, 
	 "gaussian": { 
		 "optdone": 1, 
		 "sigma_profile": "yes", 
		 "theory": "DFT", 
		 "functional": "B3LYP", 
		 "basiset": "6-31G**", 
		 "properties": { 
			 "R2extent": 6286.3768, 
			 "electric_dipole_moment_norm": 4.53212177352, 
			 "electric_quadrupole_moment_norm": 22.9757815023, 
			 "total_energy": -1085.66948153, 
			 "HOMO_LUMO_gap": 0.19333, 
			 "cosmo_polarized_energy": -17.12, 
			 "cosmo_cavitation_energy": 36.1, 
			 "cosmo_dispersion_energy": -24.98, 
			 "cosmo_repulsion_energy": 1.94, 
			 "cosmo_total_nonelectrostatic_energy": 13.06, 
			 "SMD_solvation_energy": 6.17 
		},
		"coords": [
			{
				"x": -0.7564380757,
				"y": 1.6357588092,
				"z": -2.4817738086,
				"element": "C" 
			},
			{
				"x": 0.4020246208,
				"y": 0.7857461231,
				"z": -1.937714133,
				"element": "C" 
			},
			{
				"x": 1.6749506868,
				"y": 1.0000229467,
				"z": -2.7698806145,
				"element": "C" 
			},
			{
				"x": 0.7016051457,
				"y": 1.0867964431,
				"z": -0.460404173,
				"element": "C" 
			},
			{
				"x": -0.4504229169,
				"y": 0.751909597,
				"z": 0.3967856996,
				"element": "N" 
			},
			{
				"x": -0.2470733383,
				"y": 0.8528262696,
				"z": 2.0680178874,
				"element": "S" 
			},
			{
				"x": -1.6037327778,
				"y": 0.98706671,
				"z": 2.6059129007,
				"element": "O" 
			},
			{
				"x": 0.8155356158,
				"y": 1.8014763795,
				"z": 2.4203386943,
				"element": "O" 
			},
			{
				"x": 0.3684729949,
				"y": -0.7907638917,
				"z": 2.4665374548,
				"element": "C" 
			},
			{
				"x": -0.5032126945,
				"y": -1.8805821752,
				"z": 2.3901903789,
				"element": "C" 
			},
			{
				"x": -0.0349179718,
				"y": -3.1478945088,
				"z": 2.7150380323,
				"element": "C" 
			},
			{
				"x": 1.3027957571,
				"y": -3.3175532808,
				"z": 3.1180725047,
				"element": "C" 
			},
			{
				"x": 2.1642822448,
				"y": -2.2121597903,
				"z": 3.2005973911,
				"element": "C" 
			},
			{
				"x": 1.693282422,
				"y": -0.9417259254,
				"z": 2.8751646528,
				"element": "C" 
			},
			{
				"x": 1.7869906237,
				"y": -4.6271200255,
				"z": 3.4491021345,
				"element": "C" 
			},
			{
				"x": 2.1796978232,
				"y": -5.6891447312,
				"z": 3.7142405936,
				"element": "N" 
			},
			{
				"x": -0.9245309918,
				"y": 1.4241244491,
				"z": -3.5424403359,
				"element": "H" 
			},
			{
				"x": -0.5380749096,
				"y": 2.7064460752,
				"z": -2.3874653916,
				"element": "H" 
			},
			{
				"x": -1.7015354795,
				"y": 1.4343084363,
				"z": -1.9653687701,
				"element": "H" 
			},
			{
				"x": 0.1152784145,
				"y": -0.2722376262,
				"z": -2.0033279651,
				"element": "H" 
			},
			{
				"x": 1.4969942883,
				"y": 0.7557472351,
				"z": -3.8217473364,
				"element": "H" 
			},
			{
				"x": 2.006380533,
				"y": 2.0441337153,
				"z": -2.7234230781,
				"element": "H" 
			},
			{
				"x": 2.4982352389,
				"y": 0.3709443844,
				"z": -2.4148826956,
				"element": "H" 
			},
			{
				"x": 1.542090608,
				"y": 0.4673737459,
				"z": -0.1303896782,
				"element": "H" 
			},
			{
				"x": 1.0046976371,
				"y": 2.1360018508,
				"z": -0.3387571046,
				"element": "H" 
			},
			{
				"x": -1.2988878985,
				"y": 1.2693773791,
				"z": 0.1771792238,
				"element": "H" 
			},
			{
				"x": -1.5339179291,
				"y": -1.7318539842,
				"z": 2.0881928377,
				"element": "H" 
			},
			{
				"x": -0.6932841996,
				"y": -4.0081868686,
				"z": 2.6638200962,
				"element": "H" 
			},
			{
				"x": 3.1908729885,
				"y": -2.3527078311,
				"z": 3.5208567691,
				"element": "H" 
			},
			{
				"x": 2.33404154,
				"y": -0.0700299107,
				"z": 2.9455278332,
				"element": "H" 
			}
		],
		 "valence_orbital": [ 
			{
				"type": "occ",
				"energy": -0.32162,
				"method": "rhf"
			},
			{
				"type": "occ",
				"energy": -0.30938,
				"method": "rhf"
			},
			{
				"type": "occ",
				"energy": -0.29509,
				"method": "rhf"
			},
			{
				"type": "occ",
				"energy": -0.29325,
				"method": "rhf"
			},
			{
				"type": "occ",
				"energy": -0.27249,
				"method": "rhf"
			},
			{
				"type": "unocc",
				"energy": -0.07916,
				"method": "rhf"
			},
			{
				"type": "unocc",
				"energy": -0.04225,
				"method": "rhf"
			},
			{
				"type": "unocc",
				"energy": 0.024,
				"method": "rhf"
			},
			{
				"type": "unocc",
				"energy": 0.03782,
				"method": "rhf"
			},
			{
				"type": "unocc",
				"energy": 0.04615,
				"method": "rhf"
			}
		],
		"cosmo_sigma_profile": { 
			"-0.025": 0.0,
			"-0.024": 0.0,
			"-0.023": 0.0,
			"-0.022": 0.0,
			"-0.021": 0.0,
			"-0.02": 0.0,
			"-0.019": 0.0,
			"-0.018": 0.0,
			"-0.017": 0.0,
			"-0.016": 0.0,
			"-0.015": 0.0,
			"-0.014": 0.114930085623,
			"-0.013": 0.932310881239,
			"-0.012": 0.816483550372,
			"-0.011": 1.26682570983,
			"-0.01": 1.11554000956,
			"-0.009": 5.18287053125,
			"-0.008": 9.80344940603,
			"-0.007": 9.12998948315,
			"-0.006": 8.71679695446,
			"-0.005": 10.3952397354,
			"-0.004": 16.1939640066,
			"-0.003": 31.0979385937,
			"-0.002": 28.9273027118,
			"-0.001": 30.8408690654,
			"0.0": 32.0604009759,
			"0.001": 22.8203439867,
			"0.002": 7.21962785089,
			"0.003": 6.15445024577,
			"0.004": 5.93317345629,
			"0.005": 5.49062434508,
			"0.006": 5.09053831189,
			"0.007": 7.02956404561,
			"0.008": 7.65991970085,
			"0.009": 6.57255227639,
			"0.01": 10.9825052474,
			"0.011": 10.7137032215,
			"0.012": 3.88106684579,
			"0.013": 0.50569516154,
			"0.014": 0.0,
			"0.015": 0.0,
			"0.016": 0.0,
			"0.017": 0.0,
			"0.018": 0.0,
			"0.019": 0.0,
			"0.02": 0.0,
			"0.021": 0.0,
			"0.022": 0.0,
			"0.023": 0.0,
			"0.024": 0.0,
			"0.025": 0.0
		}
	}
}
