{
	 "smiles": "CN(CCCNC(=O)CCl)S(C)(=O)=O", 
	 "Tm": 353.15, 
	 "num_atms": 29, 
	 "gaussian": { 
		 "optdone": 1, 
		 "sigma_profile": "yes", 
		 "theory": "DFT", 
		 "functional": "B3LYP", 
		 "basiset": "6-31G**", 
		 "properties": { 
			 "R2extent": 6454.7396, 
			 "electric_dipole_moment_norm": 3.54124392552, 
			 "electric_quadrupole_moment_norm": 20.6810419019, 
			 "total_energy": -1469.2901608, 
			 "HOMO_LUMO_gap": 0.26443, 
			 "cosmo_polarized_energy": -21.24, 
			 "cosmo_cavitation_energy": 35.09, 
			 "cosmo_dispersion_energy": -24.93, 
			 "cosmo_repulsion_energy": 1.95, 
			 "cosmo_total_nonelectrostatic_energy": 12.12, 
			 "SMD_solvation_energy": 5.13 
		},
		"coords": [
			{
				"x": 2.1406946339,
				"y": -0.2054912484,
				"z": 2.0305120068,
				"element": "C" 
			},
			{
				"x": 0.6733492995,
				"y": -0.0971136551,
				"z": 2.0472502184,
				"element": "N" 
			},
			{
				"x": -0.0080563724,
				"y": -0.8754655317,
				"z": 0.9895353455,
				"element": "C" 
			},
			{
				"x": 0.1769112322,
				"y": -0.2579702919,
				"z": -0.4008995504,
				"element": "C" 
			},
			{
				"x": -0.3736872577,
				"y": 1.171320387,
				"z": -0.5037231139,
				"element": "C" 
			},
			{
				"x": -0.2398273042,
				"y": 1.737894445,
				"z": -1.8401459572,
				"element": "N" 
			},
			{
				"x": -1.1533398173,
				"y": 1.483393677,
				"z": -2.8047513221,
				"element": "C" 
			},
			{
				"x": -2.1549122031,
				"y": 0.7941600891,
				"z": -2.6465251581,
				"element": "O" 
			},
			{
				"x": -0.9424478358,
				"y": 2.1042912686,
				"z": -4.1878432079,
				"element": "C" 
			},
			{
				"x": 0.558737935,
				"y": 3.1035377861,
				"z": -4.4162162784,
				"element": "Cl" 
			},
			{
				"x": -0.0263040742,
				"y": -0.2674680121,
				"z": 3.6002315687,
				"element": "S" 
			},
			{
				"x": -1.3154172734,
				"y": 0.9902463314,
				"z": 3.5453373751,
				"element": "C" 
			},
			{
				"x": -0.68477266,
				"y": -1.5731142051,
				"z": 3.733855358,
				"element": "O" 
			},
			{
				"x": 0.9824724302,
				"y": 0.1615019073,
				"z": 4.5734760176,
				"element": "O" 
			},
			{
				"x": 2.5535634569,
				"y": 0.3336355553,
				"z": 2.8814162217,
				"element": "H" 
			},
			{
				"x": 2.4839453354,
				"y": -1.2492013068,
				"z": 2.0666031344,
				"element": "H" 
			},
			{
				"x": 2.5121444468,
				"y": 0.2528882393,
				"z": 1.1105744071,
				"element": "H" 
			},
			{
				"x": -1.0754542658,
				"y": -0.9159168557,
				"z": 1.2240807143,
				"element": "H" 
			},
			{
				"x": 0.3472747665,
				"y": -1.9156677026,
				"z": 0.9897441725,
				"element": "H" 
			},
			{
				"x": -0.3556004139,
				"y": -0.8893609991,
				"z": -1.1201659803,
				"element": "H" 
			},
			{
				"x": 1.2332030157,
				"y": -0.2698060149,
				"z": -0.6942772665,
				"element": "H" 
			},
			{
				"x": 0.1381553194,
				"y": 1.8310284932,
				"z": 0.2016621368,
				"element": "H" 
			},
			{
				"x": -1.4396851425,
				"y": 1.1706257263,
				"z": -0.2547383137,
				"element": "H" 
			},
			{
				"x": 0.5709517697,
				"y": 2.2921738608,
				"z": -2.0747137108,
				"element": "H" 
			},
			{
				"x": -1.7937859585,
				"y": 2.7483971643,
				"z": -4.4090824511,
				"element": "H" 
			},
			{
				"x": -0.9080020726,
				"y": 1.3011563747,
				"z": -4.9239862388,
				"element": "H" 
			},
			{
				"x": -1.9993893142,
				"y": 0.7822983409,
				"z": 2.7217375124,
				"element": "H" 
			},
			{
				"x": -0.8439321821,
				"y": 1.9654747454,
				"z": 3.4279581322,
				"element": "H" 
			},
			{
				"x": -1.8484894935,
				"y": 0.9287514316,
				"z": 4.4957942277,
				"element": "H" 
			}
		],
		 "valence_orbital": [ 
			{
				"type": "occ",
				"energy": -0.30898,
				"method": "rhf"
			},
			{
				"type": "occ",
				"energy": -0.29951,
				"method": "rhf"
			},
			{
				"type": "occ",
				"energy": -0.27268,
				"method": "rhf"
			},
			{
				"type": "occ",
				"energy": -0.26584,
				"method": "rhf"
			},
			{
				"type": "occ",
				"energy": -0.25746,
				"method": "rhf"
			},
			{
				"type": "unocc",
				"energy": 0.00697,
				"method": "rhf"
			},
			{
				"type": "unocc",
				"energy": 0.01089,
				"method": "rhf"
			},
			{
				"type": "unocc",
				"energy": 0.05184,
				"method": "rhf"
			},
			{
				"type": "unocc",
				"energy": 0.05769,
				"method": "rhf"
			},
			{
				"type": "unocc",
				"energy": 0.07566,
				"method": "rhf"
			}
		],
		"cosmo_sigma_profile": { 
			"-0.025": 0.0,
			"-0.024": 0.0,
			"-0.023": 0.0,
			"-0.022": 0.0,
			"-0.021": 0.0,
			"-0.02": 0.0,
			"-0.019": 0.0,
			"-0.018": 0.0,
			"-0.017": 0.0,
			"-0.016": 0.0,
			"-0.015": 0.0,
			"-0.014": 0.0,
			"-0.013": 0.601695451604,
			"-0.012": 0.939525878731,
			"-0.011": 0.571205016396,
			"-0.01": 0.74902916483,
			"-0.009": 6.2650796227,
			"-0.008": 10.9061573146,
			"-0.007": 11.1217643257,
			"-0.006": 13.8730285966,
			"-0.005": 20.9234209289,
			"-0.004": 28.3518268011,
			"-0.003": 26.7791116849,
			"-0.002": 22.7697855036,
			"-0.001": 16.6490893641,
			"0.0": 11.3545303325,
			"0.001": 12.2248245099,
			"0.002": 10.8354973276,
			"0.003": 9.0572584227,
			"0.004": 8.09171411724,
			"0.005": 10.909371776,
			"0.006": 6.84367940325,
			"0.007": 3.97800164418,
			"0.008": 4.14076167732,
			"0.009": 4.64593911667,
			"0.01": 6.32480351622,
			"0.011": 11.216766997,
			"0.012": 9.261641228,
			"0.013": 4.80868289023,
			"0.014": 3.09273793055,
			"0.015": 0.127350478706,
			"0.016": 0.0,
			"0.017": 0.0,
			"0.018": 0.0,
			"0.019": 0.0,
			"0.02": 0.0,
			"0.021": 0.0,
			"0.022": 0.0,
			"0.023": 0.0,
			"0.024": 0.0,
			"0.025": 0.0
		}
	}
}
