{
	 "smiles": "O=C1COC2=C(N1)N=CC=C2", 
	 "Tm": 479.15, 
	 "num_atms": 17, 
	 "gaussian": { 
		 "optdone": 1, 
		 "sigma_profile": "yes", 
		 "theory": "DFT", 
		 "functional": "B3LYP", 
		 "basiset": "6-31G**", 
		 "properties": { 
			 "R2extent": 1773.4258, 
			 "electric_dipole_moment_norm": 2.93240204952, 
			 "electric_quadrupole_moment_norm": 2.979343911, 
			 "total_energy": -530.3144524, 
			 "HOMO_LUMO_gap": 0.19399, 
			 "cosmo_polarized_energy": -10.95, 
			 "cosmo_cavitation_energy": 21.29, 
			 "cosmo_dispersion_energy": -16.46, 
			 "cosmo_repulsion_energy": 1.31, 
			 "cosmo_total_nonelectrostatic_energy": 6.14, 
			 "SMD_solvation_energy": 3.2 
		},
		"coords": [
			{
				"x": -0.6033369119,
				"y": -1.6654345729,
				"z": -2.3360577326,
				"element": "O" 
			},
			{
				"x": -0.2103172728,
				"y": -0.868632826,
				"z": -1.5032409603,
				"element": "C" 
			},
			{
				"x": -0.8735050399,
				"y": 0.4961709504,
				"z": -1.3114519072,
				"element": "C" 
			},
			{
				"x": -0.7153781551,
				"y": 1.0687528978,
				"z": -0.0092044594,
				"element": "O" 
			},
			{
				"x": 0.5291326757,
				"y": 0.9491102655,
				"z": 0.543149242,
				"element": "C" 
			},
			{
				"x": 1.3613929616,
				"y": -0.1383433342,
				"z": 0.2181497763,
				"element": "C" 
			},
			{
				"x": 0.8899239713,
				"y": -1.0745366782,
				"z": -0.709209692,
				"element": "N" 
			},
			{
				"x": 2.5555210202,
				"y": -0.3439954988,
				"z": 0.7599425392,
				"element": "N" 
			},
			{
				"x": 2.980500634,
				"y": 0.5416028641,
				"z": 1.675359922,
				"element": "C" 
			},
			{
				"x": 2.235042057,
				"y": 1.6491470106,
				"z": 2.0702949579,
				"element": "C" 
			},
			{
				"x": 0.9801172547,
				"y": 1.8591643722,
				"z": 1.4880854401,
				"element": "C" 
			},
			{
				"x": -1.9444761632,
				"y": 0.3823060786,
				"z": -1.4783833458,
				"element": "H" 
			},
			{
				"x": -0.4713697599,
				"y": 1.1778951888,
				"z": -2.0764089136,
				"element": "H" 
			},
			{
				"x": 1.4405700702,
				"y": -1.9123858945,
				"z": -0.8553200557,
				"element": "H" 
			},
			{
				"x": 3.9583704118,
				"y": 0.3453455691,
				"z": 2.1078446006,
				"element": "H" 
			},
			{
				"x": 2.6227500049,
				"y": 2.3367718526,
				"z": 2.8142151528,
				"element": "H" 
			},
			{
				"x": 0.3501622414,
				"y": 2.699661755,
				"z": 1.7602354358,
				"element": "H" 
			}
		],
		 "valence_orbital": [ 
			{
				"type": "occ",
				"energy": -0.32406,
				"method": "rhf"
			},
			{
				"type": "occ",
				"energy": -0.28061,
				"method": "rhf"
			},
			{
				"type": "occ",
				"energy": -0.27557,
				"method": "rhf"
			},
			{
				"type": "occ",
				"energy": -0.26506,
				"method": "rhf"
			},
			{
				"type": "occ",
				"energy": -0.22743,
				"method": "rhf"
			},
			{
				"type": "unocc",
				"energy": -0.03344,
				"method": "rhf"
			},
			{
				"type": "unocc",
				"energy": -0.02058,
				"method": "rhf"
			},
			{
				"type": "unocc",
				"energy": 0.02324,
				"method": "rhf"
			},
			{
				"type": "unocc",
				"energy": 0.081,
				"method": "rhf"
			},
			{
				"type": "unocc",
				"energy": 0.09831,
				"method": "rhf"
			}
		],
		"cosmo_sigma_profile": { 
			"-0.025": 0.0,
			"-0.024": 0.0,
			"-0.023": 0.0,
			"-0.022": 0.0,
			"-0.021": 0.0,
			"-0.02": 0.0,
			"-0.019": 0.0,
			"-0.018": 0.0,
			"-0.017": 0.0,
			"-0.016": 0.207391558868,
			"-0.015": 0.90469736925,
			"-0.014": 0.632470714536,
			"-0.013": 1.12742481507,
			"-0.012": 0.314700269428,
			"-0.011": 0.800783848469,
			"-0.01": 0.803012125842,
			"-0.009": 1.39614680108,
			"-0.008": 6.77760718737,
			"-0.007": 9.3666902314,
			"-0.006": 11.7671090614,
			"-0.005": 11.6122732263,
			"-0.004": 10.2727544754,
			"-0.003": 9.31646113955,
			"-0.002": 8.78158456448,
			"-0.001": 10.0246558451,
			"0.0": 12.1911599673,
			"0.001": 12.2670783167,
			"0.002": 11.6761015449,
			"0.003": 10.8258224311,
			"0.004": 4.25151956391,
			"0.005": 3.93094084011,
			"0.006": 3.73789992609,
			"0.007": 3.37763132038,
			"0.008": 3.82172507133,
			"0.009": 2.76098276843,
			"0.01": 3.68036974485,
			"0.011": 2.99399522332,
			"0.012": 6.43726440643,
			"0.013": 3.60850136054,
			"0.014": 0.982014667191,
			"0.015": 0.144232970862,
			"0.016": 0.0,
			"0.017": 0.0,
			"0.018": 0.0,
			"0.019": 0.0,
			"0.02": 0.0,
			"0.021": 0.0,
			"0.022": 0.0,
			"0.023": 0.0,
			"0.024": 0.0,
			"0.025": 0.0
		}
	}
}
