{
	 "smiles": "CC(N1N=CC=C1N)C1=C(Cl)C=CC(Cl)=C1", 
	 "Tm": 368.15, 
	 "num_atms": 27, 
	 "gaussian": { 
		 "optdone": 1, 
		 "sigma_profile": "yes", 
		 "theory": "DFT", 
		 "functional": "B3LYP", 
		 "basiset": "6-31G**", 
		 "properties": { 
			 "R2extent": 4786.483, 
			 "electric_dipole_moment_norm": 3.28558605275, 
			 "electric_quadrupole_moment_norm": 18.1643281547, 
			 "total_energy": -1510.41557471, 
			 "HOMO_LUMO_gap": 0.19268, 
			 "cosmo_polarized_energy": -13.14, 
			 "cosmo_cavitation_energy": 33.69, 
			 "cosmo_dispersion_energy": -23.84, 
			 "cosmo_repulsion_energy": 1.87, 
			 "cosmo_total_nonelectrostatic_energy": 11.72, 
			 "SMD_solvation_energy": 4.6 
		},
		"coords": [
			{
				"x": 0.2447817036,
				"y": -1.3050995356,
				"z": 2.2331457919,
				"element": "C" 
			},
			{
				"x": 0.7875700633,
				"y": -0.825393699,
				"z": 0.8770712217,
				"element": "C" 
			},
			{
				"x": 2.1464008938,
				"y": -0.2767629937,
				"z": 0.9509709039,
				"element": "N" 
			},
			{
				"x": 2.995572932,
				"y": -0.627622639,
				"z": -0.0609954844,
				"element": "N" 
			},
			{
				"x": 4.1210718805,
				"y": 0.026619482,
				"z": 0.1930299294,
				"element": "C" 
			},
			{
				"x": 4.0354228765,
				"y": 0.7938045626,
				"z": 1.3740251565,
				"element": "C" 
			},
			{
				"x": 2.7496875574,
				"y": 0.5742972906,
				"z": 1.8404192817,
				"element": "C" 
			},
			{
				"x": 2.0663311472,
				"y": 1.1458889511,
				"z": 2.9297894126,
				"element": "N" 
			},
			{
				"x": -0.1972907491,
				"y": 0.1130636694,
				"z": 0.1802755924,
				"element": "C" 
			},
			{
				"x": -1.197593192,
				"y": -0.3754045715,
				"z": -0.6732799021,
				"element": "C" 
			},
			{
				"x": -1.3557089673,
				"y": -2.1045131718,
				"z": -0.9857754385,
				"element": "Cl" 
			},
			{
				"x": -2.1085006634,
				"y": 0.4743536344,
				"z": -1.3015888311,
				"element": "C" 
			},
			{
				"x": -2.0455706645,
				"y": 1.8472353864,
				"z": -1.0812169135,
				"element": "C" 
			},
			{
				"x": -1.0658575207,
				"y": 2.342196705,
				"z": -0.2226189055,
				"element": "C" 
			},
			{
				"x": -0.9805680626,
				"y": 4.0717759793,
				"z": 0.0801051411,
				"element": "Cl" 
			},
			{
				"x": -0.1545373627,
				"y": 1.4965009624,
				"z": 0.4022709052,
				"element": "C" 
			},
			{
				"x": -0.0298122546,
				"y": -0.4685258675,
				"z": 2.8796126459,
				"element": "H" 
			},
			{
				"x": -0.655768184,
				"y": -1.9015760966,
				"z": 2.0654014533,
				"element": "H" 
			},
			{
				"x": 0.9807855735,
				"y": -1.9375660808,
				"z": 2.7398510067,
				"element": "H" 
			},
			{
				"x": 0.9181747847,
				"y": -1.699032062,
				"z": 0.2374852433,
				"element": "H" 
			},
			{
				"x": 4.9664774205,
				"y": -0.0872328486,
				"z": -0.4731280147,
				"element": "H" 
			},
			{
				"x": 4.7954733375,
				"y": 1.4053195763,
				"z": 1.8384284154,
				"element": "H" 
			},
			{
				"x": 1.786408113,
				"y": 0.4664317892,
				"z": 3.6301674747,
				"element": "H" 
			},
			{
				"x": 2.6393276688,
				"y": 1.8540740721,
				"z": 3.3736711871,
				"element": "H" 
			},
			{
				"x": -2.8610502087,
				"y": 0.0592889596,
				"z": -1.9625548061,
				"element": "H" 
			},
			{
				"x": -2.7455340396,
				"y": 2.5181226994,
				"z": -1.565951783,
				"element": "H" 
			},
			{
				"x": 0.5876059168,
				"y": 1.9052558461,
				"z": 1.0772893159,
				"element": "H" 
			}
		],
		 "valence_orbital": [ 
			{
				"type": "occ",
				"energy": -0.278,
				"method": "rhf"
			},
			{
				"type": "occ",
				"energy": -0.26794,
				"method": "rhf"
			},
			{
				"type": "occ",
				"energy": -0.24402,
				"method": "rhf"
			},
			{
				"type": "occ",
				"energy": -0.24252,
				"method": "rhf"
			},
			{
				"type": "occ",
				"energy": -0.21637,
				"method": "rhf"
			},
			{
				"type": "unocc",
				"energy": -0.02369,
				"method": "rhf"
			},
			{
				"type": "unocc",
				"energy": -0.02059,
				"method": "rhf"
			},
			{
				"type": "unocc",
				"energy": 0.01666,
				"method": "rhf"
			},
			{
				"type": "unocc",
				"energy": 0.02855,
				"method": "rhf"
			},
			{
				"type": "unocc",
				"energy": 0.03723,
				"method": "rhf"
			}
		],
		"cosmo_sigma_profile": { 
			"-0.025": 0.0,
			"-0.024": 0.0,
			"-0.023": 0.0,
			"-0.022": 0.0,
			"-0.021": 0.0,
			"-0.02": 0.0,
			"-0.019": 0.0,
			"-0.018": 0.0,
			"-0.017": 0.0,
			"-0.016": 0.0,
			"-0.015": 0.0,
			"-0.014": 0.0,
			"-0.013": 0.901291954122,
			"-0.012": 2.5483802602,
			"-0.011": 3.32841956584,
			"-0.01": 3.04738485056,
			"-0.009": 2.48564966967,
			"-0.008": 5.46000969516,
			"-0.007": 8.23274707792,
			"-0.006": 9.35053297026,
			"-0.005": 11.1754466996,
			"-0.004": 12.4585274348,
			"-0.003": 15.5330229847,
			"-0.002": 19.014789472,
			"-0.001": 23.1600800778,
			"0.0": 22.8123430479,
			"0.001": 26.8659675953,
			"0.002": 29.6577456896,
			"0.003": 20.8776425752,
			"0.004": 21.7568490221,
			"0.005": 11.9016111846,
			"0.006": 7.33786670807,
			"0.007": 3.70637052502,
			"0.008": 1.76941989229,
			"0.009": 2.11884093552,
			"0.01": 1.28086676842,
			"0.011": 1.55886729143,
			"0.012": 0.997464054721,
			"0.013": 1.15803159083,
			"0.014": 1.23498076975,
			"0.015": 0.873411957728,
			"0.016": 0.693508506572,
			"0.017": 0.0921882944537,
			"0.018": 0.0,
			"0.019": 0.0,
			"0.02": 0.0,
			"0.021": 0.0,
			"0.022": 0.0,
			"0.023": 0.0,
			"0.024": 0.0,
			"0.025": 0.0
		}
	}
}
