{
	 "smiles": "OC1=CC(=CC=C1)C1=NN=CO1", 
	 "Tm": 485.15, 
	 "num_atms": 18, 
	 "gaussian": { 
		 "optdone": 1, 
		 "sigma_profile": "yes", 
		 "theory": "DFT", 
		 "functional": "B3LYP", 
		 "basiset": "6-31G**", 
		 "properties": { 
			 "R2extent": 2824.2216, 
			 "electric_dipole_moment_norm": 2.25349434878, 
			 "electric_quadrupole_moment_norm": 12.4906429106, 
			 "total_energy": -568.379818922, 
			 "HOMO_LUMO_gap": 0.18017, 
			 "cosmo_polarized_energy": -13.92, 
			 "cosmo_cavitation_energy": 23.32, 
			 "cosmo_dispersion_energy": -17.5, 
			 "cosmo_repulsion_energy": 1.37, 
			 "cosmo_total_nonelectrostatic_energy": 7.18, 
			 "SMD_solvation_energy": 3.68 
		},
		"coords": [
			{
				"x": 2.3105964418,
				"y": -1.4626333387,
				"z": 2.470679693,
				"element": "O" 
			},
			{
				"x": 1.3752380288,
				"y": -0.7657400479,
				"z": 1.7648118321,
				"element": "C" 
			},
			{
				"x": 1.7054505873,
				"y": 0.2973989326,
				"z": 0.9256804831,
				"element": "C" 
			},
			{
				"x": 0.6925685367,
				"y": 0.9727625411,
				"z": 0.2272224561,
				"element": "C" 
			},
			{
				"x": -0.6462952043,
				"y": 0.584764878,
				"z": 0.3687032197,
				"element": "C" 
			},
			{
				"x": -0.9591366064,
				"y": -0.4816714653,
				"z": 1.2129201302,
				"element": "C" 
			},
			{
				"x": 0.0369728545,
				"y": -1.1587004914,
				"z": 1.9104490323,
				"element": "C" 
			},
			{
				"x": 1.0712473719,
				"y": 2.080832925,
				"z": -0.6428681921,
				"element": "C" 
			},
			{
				"x": 2.2603566744,
				"y": 2.5564845845,
				"z": -0.8778457336,
				"element": "N" 
			},
			{
				"x": 2.1000712123,
				"y": 3.611464762,
				"z": -1.7767295432,
				"element": "N" 
			},
			{
				"x": 0.8321281572,
				"y": 3.686949583,
				"z": -2.0102587492,
				"element": "C" 
			},
			{
				"x": 0.1052982959,
				"y": 2.7581008185,
				"z": -1.336281046,
				"element": "O" 
			},
			{
				"x": 3.1867108904,
				"y": -1.0987418708,
				"z": 2.286743084,
				"element": "H" 
			},
			{
				"x": 2.7366727245,
				"y": 0.6156057254,
				"z": 0.8006342284,
				"element": "H" 
			},
			{
				"x": -1.4245379875,
				"y": 1.1097426802,
				"z": -0.1730001522,
				"element": "H" 
			},
			{
				"x": -1.9940865928,
				"y": -0.7892256618,
				"z": 1.3286110946,
				"element": "H" 
			},
			{
				"x": -0.1954691047,
				"y": -1.9887570169,
				"z": 2.5690395682,
				"element": "H" 
			},
			{
				"x": 0.3050137199,
				"y": 4.3747624624,
				"z": -2.6532114054,
				"element": "H" 
			}
		],
		 "valence_orbital": [ 
			{
				"type": "occ",
				"energy": -0.32643,
				"method": "rhf"
			},
			{
				"type": "occ",
				"energy": -0.30404,
				"method": "rhf"
			},
			{
				"type": "occ",
				"energy": -0.28153,
				"method": "rhf"
			},
			{
				"type": "occ",
				"energy": -0.25084,
				"method": "rhf"
			},
			{
				"type": "occ",
				"energy": -0.23347,
				"method": "rhf"
			},
			{
				"type": "unocc",
				"energy": -0.0533,
				"method": "rhf"
			},
			{
				"type": "unocc",
				"energy": -0.006,
				"method": "rhf"
			},
			{
				"type": "unocc",
				"energy": 0.01131,
				"method": "rhf"
			},
			{
				"type": "unocc",
				"energy": 0.06012,
				"method": "rhf"
			},
			{
				"type": "unocc",
				"energy": 0.06528,
				"method": "rhf"
			}
		],
		"cosmo_sigma_profile": { 
			"-0.025": 0.0,
			"-0.024": 0.0,
			"-0.023": 0.0,
			"-0.022": 0.0,
			"-0.021": 0.0,
			"-0.02": 0.0,
			"-0.019": 0.0288582535966,
			"-0.018": 0.923503837696,
			"-0.017": 1.14377066965,
			"-0.016": 0.997970916096,
			"-0.015": 1.44398320849,
			"-0.014": 0.850172104339,
			"-0.013": 0.88566361288,
			"-0.012": 3.00631947683,
			"-0.011": 3.3663693696,
			"-0.01": 2.98387292092,
			"-0.009": 2.03308495168,
			"-0.008": 2.10198843085,
			"-0.007": 4.67422716031,
			"-0.006": 7.84176318252,
			"-0.005": 9.04762871986,
			"-0.004": 11.7909996013,
			"-0.003": 10.9299944178,
			"-0.002": 9.5957301316,
			"-0.001": 12.0649052644,
			"0.0": 10.3561482151,
			"0.001": 12.5824786841,
			"0.002": 15.2167803368,
			"0.003": 17.5647805798,
			"0.004": 10.9444275073,
			"0.005": 4.23312283363,
			"0.006": 3.35984371397,
			"0.007": 3.3564982639,
			"0.008": 3.9441515038,
			"0.009": 3.95403414357,
			"0.01": 4.22811313321,
			"0.011": 4.91789855681,
			"0.012": 2.98975339858,
			"0.013": 2.78917743818,
			"0.014": 1.67437534017,
			"0.015": 0.414322433575,
			"0.016": 0.0,
			"0.017": 0.0,
			"0.018": 0.0,
			"0.019": 0.0,
			"0.02": 0.0,
			"0.021": 0.0,
			"0.022": 0.0,
			"0.023": 0.0,
			"0.024": 0.0,
			"0.025": 0.0
		}
	}
}
