{
	 "smiles": "CC1=CC=C(C=C1)S(=O)(=O)NC1=C(Br)C=CC=C1", 
	 "Tm": 362.15, 
	 "num_atms": 30, 
	 "gaussian": { 
		 "optdone": 1, 
		 "sigma_profile": "yes", 
		 "theory": "DFT", 
		 "functional": "B3LYP", 
		 "basiset": "6-31G**", 
		 "properties": { 
			 "R2extent": 7896.8711, 
			 "electric_dipole_moment_norm": 5.7770225627, 
			 "electric_quadrupole_moment_norm": 21.6644354346, 
			 "total_energy": -3677.34568546, 
			 "HOMO_LUMO_gap": 0.19291, 
			 "cosmo_polarized_energy": -13.34, 
			 "cosmo_cavitation_energy": 37.57, 
			 "cosmo_dispersion_energy": -26.53, 
			 "cosmo_repulsion_energy": 2.02, 
			 "cosmo_total_nonelectrostatic_energy": 13.06, 
			 "SMD_solvation_energy": 4.41 
		},
		"coords": [
			{
				"x": 1.6802257792,
				"y": -2.9442099475,
				"z": 1.9624946701,
				"element": "C" 
			},
			{
				"x": 0.7930109481,
				"y": -2.3497371537,
				"z": 0.895829056,
				"element": "C" 
			},
			{
				"x": 1.1941626371,
				"y": -1.2154602636,
				"z": 0.1764620754,
				"element": "C" 
			},
			{
				"x": 0.3702847453,
				"y": -0.6456581512,
				"z": -0.7926889519,
				"element": "C" 
			},
			{
				"x": -0.8768782968,
				"y": -1.220592111,
				"z": -1.0443579189,
				"element": "C" 
			},
			{
				"x": -1.2996898468,
				"y": -2.3568636944,
				"z": -0.3497244466,
				"element": "C" 
			},
			{
				"x": -0.4606945403,
				"y": -2.9128946874,
				"z": 0.6119773412,
				"element": "C" 
			},
			{
				"x": -1.962533424,
				"y": -0.4884190556,
				"z": -2.2663629073,
				"element": "S" 
			},
			{
				"x": -1.1338647976,
				"y": 0.2792873188,
				"z": -3.1953239019,
				"element": "O" 
			},
			{
				"x": -2.9078077029,
				"y": -1.5095791666,
				"z": -2.7151396413,
				"element": "O" 
			},
			{
				"x": -2.9524069327,
				"y": 0.6233762801,
				"z": -1.4343330226,
				"element": "N" 
			},
			{
				"x": -2.4575350938,
				"y": 1.734681548,
				"z": -0.7183255793,
				"element": "C" 
			},
			{
				"x": -2.8743133593,
				"y": 1.9958875851,
				"z": 0.5995046881,
				"element": "C" 
			},
			{
				"x": -4.0943691203,
				"y": 0.8022370561,
				"z": 1.4752984917,
				"element": "Br" 
			},
			{
				"x": -2.436862936,
				"y": 3.1214806209,
				"z": 1.2930083221,
				"element": "C" 
			},
			{
				"x": -1.5453590356,
				"y": 4.0038269605,
				"z": 0.6852288438,
				"element": "C" 
			},
			{
				"x": -1.1171589998,
				"y": 3.7598755288,
				"z": -0.6208070129,
				"element": "C" 
			},
			{
				"x": -1.5780883733,
				"y": 2.6494383109,
				"z": -1.3220549167,
				"element": "C" 
			},
			{
				"x": 2.732934057,
				"y": -2.7059165069,
				"z": 1.7870890533,
				"element": "H" 
			},
			{
				"x": 1.4159764993,
				"y": -2.5527393391,
				"z": 2.952744575,
				"element": "H" 
			},
			{
				"x": 1.5786973842,
				"y": -4.0326025282,
				"z": 2.0066069081,
				"element": "H" 
			},
			{
				"x": 2.1690363836,
				"y": -0.7762954986,
				"z": 0.3704685094,
				"element": "H" 
			},
			{
				"x": 0.6939592416,
				"y": 0.2172165486,
				"z": -1.3632171724,
				"element": "H" 
			},
			{
				"x": -2.2591550878,
				"y": -2.8067016955,
				"z": -0.5811156175,
				"element": "H" 
			},
			{
				"x": -0.7803416528,
				"y": -3.8036156257,
				"z": 1.1462948441,
				"element": "H" 
			},
			{
				"x": -3.7037020704,
				"y": 0.1228636695,
				"z": -0.9665326082,
				"element": "H" 
			},
			{
				"x": -2.7887128685,
				"y": 3.2948333289,
				"z": 2.3035826807,
				"element": "H" 
			},
			{
				"x": -1.1982847535,
				"y": 4.8769508926,
				"z": 1.228554853,
				"element": "H" 
			},
			{
				"x": -0.4345296497,
				"y": 4.4489914594,
				"z": -1.1085540188,
				"element": "H" 
			},
			{
				"x": -1.2741991337,
				"y": 2.4705383169,
				"z": -2.346207196,
				"element": "H" 
			}
		],
		 "valence_orbital": [ 
			{
				"type": "occ",
				"energy": -0.30242,
				"method": "rhf"
			},
			{
				"type": "occ",
				"energy": -0.27122,
				"method": "rhf"
			},
			{
				"type": "occ",
				"energy": -0.26567,
				"method": "rhf"
			},
			{
				"type": "occ",
				"energy": -0.25664,
				"method": "rhf"
			},
			{
				"type": "occ",
				"energy": -0.23552,
				"method": "rhf"
			},
			{
				"type": "unocc",
				"energy": -0.04261,
				"method": "rhf"
			},
			{
				"type": "unocc",
				"energy": -0.0239,
				"method": "rhf"
			},
			{
				"type": "unocc",
				"energy": -0.0197,
				"method": "rhf"
			},
			{
				"type": "unocc",
				"energy": -0.01577,
				"method": "rhf"
			},
			{
				"type": "unocc",
				"energy": -0.0062,
				"method": "rhf"
			}
		],
		"cosmo_sigma_profile": { 
			"-0.025": 0.0,
			"-0.024": 0.0,
			"-0.023": 0.0,
			"-0.022": 0.0,
			"-0.021": 0.0,
			"-0.02": 0.0,
			"-0.019": 0.0,
			"-0.018": 0.0,
			"-0.017": 0.0,
			"-0.016": 0.0,
			"-0.015": 0.0,
			"-0.014": 0.0,
			"-0.013": 0.0,
			"-0.012": 0.105118521376,
			"-0.011": 0.616423406833,
			"-0.01": 1.31966226925,
			"-0.009": 1.08443044391,
			"-0.008": 2.11806734614,
			"-0.007": 8.01687280666,
			"-0.006": 16.6615676787,
			"-0.005": 23.828046097,
			"-0.004": 21.995922091,
			"-0.003": 20.3057138075,
			"-0.002": 21.9215903299,
			"-0.001": 23.6907666453,
			"0.0": 25.5460509435,
			"0.001": 24.1412589694,
			"0.002": 29.4048160837,
			"0.003": 31.4116809248,
			"0.004": 17.1757880691,
			"0.005": 4.84058863199,
			"0.006": 3.73003333307,
			"0.007": 4.11431906197,
			"0.008": 2.87034862462,
			"0.009": 4.74792807257,
			"0.01": 7.56644256626,
			"0.011": 6.70842872607,
			"0.012": 0.32135118246,
			"0.013": 0.0,
			"0.014": 0.0,
			"0.015": 0.0,
			"0.016": 0.0,
			"0.017": 0.0,
			"0.018": 0.0,
			"0.019": 0.0,
			"0.02": 0.0,
			"0.021": 0.0,
			"0.022": 0.0,
			"0.023": 0.0,
			"0.024": 0.0,
			"0.025": 0.0
		}
	}
}
