{
	 "smiles": "CC1=CC(N)=CC(C)=N1", 
	 "Tm": 465.15, 
	 "num_atms": 19, 
	 "gaussian": { 
		 "optdone": 1, 
		 "sigma_profile": "yes", 
		 "theory": "DFT", 
		 "functional": "B3LYP", 
		 "basiset": "6-31G**", 
		 "properties": { 
			 "R2extent": 1373.0347, 
			 "electric_dipole_moment_norm": 3.17558991685, 
			 "electric_quadrupole_moment_norm": 7.95258217625, 
			 "total_energy": -382.294552538, 
			 "HOMO_LUMO_gap": 0.22362, 
			 "cosmo_polarized_energy": -10.97, 
			 "cosmo_cavitation_energy": 22.26, 
			 "cosmo_dispersion_energy": -16.61, 
			 "cosmo_repulsion_energy": 1.38, 
			 "cosmo_total_nonelectrostatic_energy": 7.04, 
			 "SMD_solvation_energy": 2.67 
		},
		"coords": [
			{
				"x": -0.7657540624,
				"y": 1.9336692759,
				"z": -1.6301035244,
				"element": "C" 
			},
			{
				"x": -0.5503136911,
				"y": 0.6336011705,
				"z": -0.8933058115,
				"element": "C" 
			},
			{
				"x": -1.3723040271,
				"y": -0.4688457473,
				"z": -1.1265873943,
				"element": "C" 
			},
			{
				"x": -1.1393361747,
				"y": -1.660763163,
				"z": -0.4218206603,
				"element": "C" 
			},
			{
				"x": -1.8981021892,
				"y": -2.7950270262,
				"z": -0.6569772772,
				"element": "N" 
			},
			{
				"x": -0.0748673221,
				"y": -1.6727317856,
				"z": 0.4938358206,
				"element": "C" 
			},
			{
				"x": 0.6942681458,
				"y": -0.5212603358,
				"z": 0.6611411709,
				"element": "C" 
			},
			{
				"x": 1.8473021566,
				"y": -0.4913080909,
				"z": 1.6353454296,
				"element": "C" 
			},
			{
				"x": 0.4669396069,
				"y": 0.6172180793,
				"z": -0.0154982377,
				"element": "N" 
			},
			{
				"x": 0.1290174598,
				"y": 2.1957976098,
				"z": -2.2044304647,
				"element": "H" 
			},
			{
				"x": -1.6169027871,
				"y": 1.8814789431,
				"z": -2.3143533279,
				"element": "H" 
			},
			{
				"x": -0.9360414963,
				"y": 2.7486101582,
				"z": -0.9189546386,
				"element": "H" 
			},
			{
				"x": -2.1818839256,
				"y": -0.4080705302,
				"z": -1.8489908604,
				"element": "H" 
			},
			{
				"x": -2.8077266564,
				"y": -2.6495685004,
				"z": -1.0702202305,
				"element": "H" 
			},
			{
				"x": -1.8954540493,
				"y": -3.4961396847,
				"z": 0.0695053942,
				"element": "H" 
			},
			{
				"x": 0.1492798435,
				"y": -2.5711681549,
				"z": 1.0626424551,
				"element": "H" 
			},
			{
				"x": 1.6950674898,
				"y": 0.2981345764,
				"z": 2.3786986975,
				"element": "H" 
			},
			{
				"x": 1.9692598864,
				"y": -1.4447176653,
				"z": 2.1564142277,
				"element": "H" 
			},
			{
				"x": 2.7796517923,
				"y": -0.2574091289,
				"z": 1.1108592317,
				"element": "H" 
			}
		],
		 "valence_orbital": [ 
			{
				"type": "occ",
				"energy": -0.33929,
				"method": "rhf"
			},
			{
				"type": "occ",
				"energy": -0.31479,
				"method": "rhf"
			},
			{
				"type": "occ",
				"energy": -0.2349,
				"method": "rhf"
			},
			{
				"type": "occ",
				"energy": -0.23423,
				"method": "rhf"
			},
			{
				"type": "occ",
				"energy": -0.21711,
				"method": "rhf"
			},
			{
				"type": "unocc",
				"energy": 0.00651,
				"method": "rhf"
			},
			{
				"type": "unocc",
				"energy": 0.01073,
				"method": "rhf"
			},
			{
				"type": "unocc",
				"energy": 0.077,
				"method": "rhf"
			},
			{
				"type": "unocc",
				"energy": 0.11065,
				"method": "rhf"
			},
			{
				"type": "unocc",
				"energy": 0.12029,
				"method": "rhf"
			}
		],
		"cosmo_sigma_profile": { 
			"-0.025": 0.0,
			"-0.024": 0.0,
			"-0.023": 0.0,
			"-0.022": 0.0,
			"-0.021": 0.0,
			"-0.02": 0.0,
			"-0.019": 0.0,
			"-0.018": 0.0,
			"-0.017": 0.0,
			"-0.016": 0.0,
			"-0.015": 0.0,
			"-0.014": 0.0,
			"-0.013": 1.38826404155,
			"-0.012": 2.94750367199,
			"-0.011": 2.96968104842,
			"-0.01": 2.83731569362,
			"-0.009": 3.27725599159,
			"-0.008": 2.67275973072,
			"-0.007": 2.8602286441,
			"-0.006": 3.66852302999,
			"-0.005": 6.4519836008,
			"-0.004": 13.4351905764,
			"-0.003": 12.5896936736,
			"-0.002": 13.3475686352,
			"-0.001": 14.2279502452,
			"0.0": 18.7929276013,
			"0.001": 14.2760205268,
			"0.002": 7.56674180556,
			"0.003": 7.43028813885,
			"0.004": 9.55599829444,
			"0.005": 14.0330510678,
			"0.006": 3.78742192809,
			"0.007": 2.28858863555,
			"0.008": 2.90092536132,
			"0.009": 1.53832571946,
			"0.01": 2.37059073524,
			"0.011": 1.54729296082,
			"0.012": 1.561464658,
			"0.013": 1.51725469134,
			"0.014": 0.56422812732,
			"0.015": 0.635180798925,
			"0.016": 1.04602682451,
			"0.017": 0.484647208648,
			"0.018": 0.592904419268,
			"0.019": 0.055316922689,
			"0.02": 0.0,
			"0.021": 0.0,
			"0.022": 0.0,
			"0.023": 0.0,
			"0.024": 0.0,
			"0.025": 0.0
		}
	}
}
