{
	 "smiles": "COC1=CC=C2N=CC=C([C@H](O)[C@H]3C[C@@H]4CC[N@]3C[C@@H]4C=C)C2=C1", 
	 "Tm": 445.15, 
	 "num_atms": 48, 
	 "gaussian": { 
		 "optdone": 1, 
		 "sigma_profile": "yes", 
		 "theory": "DFT", 
		 "functional": "B3LYP", 
		 "basiset": "6-31G**", 
		 "properties": { 
			 "R2extent": 8991.3722, 
			 "electric_dipole_moment_norm": 3.31631697218, 
			 "electric_quadrupole_moment_norm": 10.8134513598, 
			 "total_energy": -1036.48918027, 
			 "HOMO_LUMO_gap": 0.15628, 
			 "cosmo_polarized_energy": -15.98, 
			 "cosmo_cavitation_energy": 46.55, 
			 "cosmo_dispersion_energy": -31.09, 
			 "cosmo_repulsion_energy": 2.35, 
			 "cosmo_total_nonelectrostatic_energy": 17.82, 
			 "SMD_solvation_energy": 4.69 
		},
		"coords": [
			{
				"x": -2.9952116049,
				"y": -1.6266594296,
				"z": -1.05147488,
				"element": "C" 
			},
			{
				"x": -3.3224698755,
				"y": -0.5777413065,
				"z": -1.9490597969,
				"element": "O" 
			},
			{
				"x": -2.7678337176,
				"y": 0.649044315,
				"z": -1.7396388859,
				"element": "C" 
			},
			{
				"x": -3.1536743643,
				"y": 1.6379904077,
				"z": -2.6860819683,
				"element": "C" 
			},
			{
				"x": -2.6712801538,
				"y": 2.9143963237,
				"z": -2.5781175329,
				"element": "C" 
			},
			{
				"x": -1.778700674,
				"y": 3.2801543838,
				"z": -1.5301660453,
				"element": "C" 
			},
			{
				"x": -1.3524620929,
				"y": 4.572616972,
				"z": -1.4915496669,
				"element": "N" 
			},
			{
				"x": -0.5348771468,
				"y": 4.912343273,
				"z": -0.5131202347,
				"element": "C" 
			},
			{
				"x": -0.082110431,
				"y": 4.0191463038,
				"z": 0.4805133926,
				"element": "C" 
			},
			{
				"x": -0.4844909197,
				"y": 2.6952539357,
				"z": 0.4602686176,
				"element": "C" 
			},
			{
				"x": 0.0090241332,
				"y": 1.7667424499,
				"z": 1.5612616791,
				"element": "C" 
			},
			{
				"x": 0.0976153565,
				"y": 2.4681483135,
				"z": 2.803508868,
				"element": "O" 
			},
			{
				"x": 1.4035620481,
				"y": 1.1117543171,
				"z": 1.3734655829,
				"element": "C" 
			},
			{
				"x": 1.4237327748,
				"y": -0.1964395048,
				"z": 0.5372972516,
				"element": "C" 
			},
			{
				"x": 2.8449927704,
				"y": -0.3453043634,
				"z": -0.0549899306,
				"element": "C" 
			},
			{
				"x": 3.8869371223,
				"y": -0.0395353519,
				"z": 1.0445283448,
				"element": "C" 
			},
			{
				"x": 3.7475169529,
				"y": 1.4686249334,
				"z": 1.4301148159,
				"element": "C" 
			},
			{
				"x": 2.4775993921,
				"y": 2.0229705177,
				"z": 0.9178945157,
				"element": "N" 
			},
			{
				"x": 2.5664632977,
				"y": 2.0728527582,
				"z": -0.5563851132,
				"element": "C" 
			},
			{
				"x": 3.0400632368,
				"y": 0.7129310767,
				"z": -1.1764704191,
				"element": "C" 
			},
			{
				"x": 2.328114858,
				"y": 0.396093373,
				"z": -2.4616740029,
				"element": "C" 
			},
			{
				"x": 2.925833807,
				"y": 0.1999883727,
				"z": -3.6383865823,
				"element": "C" 
			},
			{
				"x": -1.3802986903,
				"y": 2.2833459094,
				"z": -0.577724977,
				"element": "C" 
			},
			{
				"x": -1.9003749129,
				"y": 0.9618728672,
				"z": -0.7099839703,
				"element": "C" 
			},
			{
				"x": -3.3054361995,
				"y": -1.3908733443,
				"z": -0.0252626958,
				"element": "H" 
			},
			{
				"x": -1.9191124972,
				"y": -1.8430428864,
				"z": -1.0596880474,
				"element": "H" 
			},
			{
				"x": -3.5414775394,
				"y": -2.5042255018,
				"z": -1.4000540044,
				"element": "H" 
			},
			{
				"x": -3.835262202,
				"y": 1.3478487994,
				"z": -3.4789193799,
				"element": "H" 
			},
			{
				"x": -2.9518562252,
				"y": 3.6891522624,
				"z": -3.2838842246,
				"element": "H" 
			},
			{
				"x": -0.2034752479,
				"y": 5.9500227718,
				"z": -0.4949533353,
				"element": "H" 
			},
			{
				"x": 0.5973678118,
				"y": 4.3557613646,
				"z": 1.2549651283,
				"element": "H" 
			},
			{
				"x": -0.7027087713,
				"y": 0.9339396078,
				"z": 1.6723964975,
				"element": "H" 
			},
			{
				"x": -0.7198493617,
				"y": 2.971694412,
				"z": 2.9151895892,
				"element": "H" 
			},
			{
				"x": 1.6650970049,
				"y": 0.8519415233,
				"z": 2.4047883151,
				"element": "H" 
			},
			{
				"x": 0.6848957475,
				"y": -0.1731662809,
				"z": -0.2710471592,
				"element": "H" 
			},
			{
				"x": 1.1727210215,
				"y": -1.0554670311,
				"z": 1.1713538939,
				"element": "H" 
			},
			{
				"x": 2.9904778472,
				"y": -1.352979995,
				"z": -0.4571955093,
				"element": "H" 
			},
			{
				"x": 3.7138377152,
				"y": -0.6847289908,
				"z": 1.9144606675,
				"element": "H" 
			},
			{
				"x": 4.8971549518,
				"y": -0.2606946553,
				"z": 0.6816048218,
				"element": "H" 
			},
			{
				"x": 4.5653298456,
				"y": 2.0602793061,
				"z": 1.0046286184,
				"element": "H" 
			},
			{
				"x": 3.7798234025,
				"y": 1.6063323968,
				"z": 2.5158640547,
				"element": "H" 
			},
			{
				"x": 3.2540725811,
				"y": 2.879606116,
				"z": -0.8318613895,
				"element": "H" 
			},
			{
				"x": 1.5887098543,
				"y": 2.3464004682,
				"z": -0.9553515785,
				"element": "H" 
			},
			{
				"x": 4.1142998545,
				"y": 0.7658928111,
				"z": -1.3975192343,
				"element": "H" 
			},
			{
				"x": 1.2392130735,
				"y": 0.3447825373,
				"z": -2.4139797709,
				"element": "H" 
			},
			{
				"x": 4.0072637037,
				"y": 0.2526290275,
				"z": -3.7448928262,
				"element": "H" 
			},
			{
				"x": 2.3589068618,
				"y": -0.0165911956,
				"z": -4.5391122362,
				"element": "H" 
			},
			{
				"x": -1.6161643991,
				"y": 0.2038956298,
				"z": 0.0066407431,
				"element": "H" 
			}
		],
		 "valence_orbital": [ 
			{
				"type": "occ",
				"energy": -0.25309,
				"method": "rhf"
			},
			{
				"type": "occ",
				"energy": -0.2489,
				"method": "rhf"
			},
			{
				"type": "occ",
				"energy": -0.23814,
				"method": "rhf"
			},
			{
				"type": "occ",
				"energy": -0.21763,
				"method": "rhf"
			},
			{
				"type": "occ",
				"energy": -0.20506,
				"method": "rhf"
			},
			{
				"type": "unocc",
				"energy": -0.04878,
				"method": "rhf"
			},
			{
				"type": "unocc",
				"energy": -0.00989,
				"method": "rhf"
			},
			{
				"type": "unocc",
				"energy": 0.01755,
				"method": "rhf"
			},
			{
				"type": "unocc",
				"energy": 0.0224,
				"method": "rhf"
			},
			{
				"type": "unocc",
				"energy": 0.07178,
				"method": "rhf"
			}
		],
		"cosmo_sigma_profile": { 
			"-0.025": 0.0,
			"-0.024": 0.0,
			"-0.023": 0.0,
			"-0.022": 0.0,
			"-0.021": 0.0,
			"-0.02": 0.0,
			"-0.019": 0.0,
			"-0.018": 0.0,
			"-0.017": 0.0,
			"-0.016": 0.0593718894607,
			"-0.015": 0.70583142629,
			"-0.014": 1.07633283906,
			"-0.013": 0.444977044094,
			"-0.012": 0.988242330331,
			"-0.011": 0.975351537666,
			"-0.01": 0.590514613413,
			"-0.009": 1.02016889757,
			"-0.008": 1.38116765773,
			"-0.007": 3.49811131148,
			"-0.006": 11.2756325984,
			"-0.005": 20.7365832625,
			"-0.004": 27.5955126266,
			"-0.003": 47.8115247118,
			"-0.002": 43.0180110454,
			"-0.001": 34.5524183608,
			"0.0": 30.4249592022,
			"0.001": 25.800783958,
			"0.002": 23.9700320463,
			"0.003": 23.6507311627,
			"0.004": 14.716568956,
			"0.005": 8.36650658514,
			"0.006": 7.8206384781,
			"0.007": 6.90181201921,
			"0.008": 5.2023334494,
			"0.009": 5.10044581045,
			"0.01": 2.9326492377,
			"0.011": 2.79560340775,
			"0.012": 3.26117804351,
			"0.013": 3.83270855545,
			"0.014": 2.84747560023,
			"0.015": 1.42664121224,
			"0.016": 0.53803763005,
			"0.017": 0.279429321942,
			"0.018": 0.0,
			"0.019": 0.0,
			"0.02": 0.0,
			"0.021": 0.0,
			"0.022": 0.0,
			"0.023": 0.0,
			"0.024": 0.0,
			"0.025": 0.0
		}
	}
}
