{
	 "smiles": "CC(C)C1=CC=C(C)C=C1", 
	 "Tm": 204.65, 
	 "num_atms": 24, 
	 "gaussian": { 
		 "optdone": 1, 
		 "sigma_profile": "yes", 
		 "theory": "DFT", 
		 "functional": "B3LYP", 
		 "basiset": "6-31G**", 
		 "properties": { 
			 "R2extent": 2473.6928, 
			 "electric_dipole_moment_norm": 0.086126186494, 
			 "electric_quadrupole_moment_norm": 4.26237584922, 
			 "total_energy": -389.52345518, 
			 "HOMO_LUMO_gap": 0.23206, 
			 "cosmo_polarized_energy": -3.15, 
			 "cosmo_cavitation_energy": 26.02, 
			 "cosmo_dispersion_energy": -18.68, 
			 "cosmo_repulsion_energy": 1.53, 
			 "cosmo_total_nonelectrostatic_energy": 8.87, 
			 "SMD_solvation_energy": 4.62 
		},
		"coords": [
			{
				"x": -1.4190691546,
				"y": 1.5700434483,
				"z": -0.5850019042,
				"element": "C" 
			},
			{
				"x": -0.2291867291,
				"y": 1.040746577,
				"z": -1.4077464096,
				"element": "C" 
			},
			{
				"x": -0.6320029136,
				"y": -0.2019411137,
				"z": -2.2241900218,
				"element": "C" 
			},
			{
				"x": 0.9915381473,
				"y": 0.7764089174,
				"z": -0.5362574926,
				"element": "C" 
			},
			{
				"x": 2.1841871347,
				"y": 1.4793999614,
				"z": -0.7383907841,
				"element": "C" 
			},
			{
				"x": 3.3101911103,
				"y": 1.2420392895,
				"z": 0.0526483704,
				"element": "C" 
			},
			{
				"x": 3.2846934421,
				"y": 0.2921360561,
				"z": 1.0790122246,
				"element": "C" 
			},
			{
				"x": 4.4907049924,
				"y": 0.0494449025,
				"z": 1.9562575619,
				"element": "C" 
			},
			{
				"x": 2.0911583417,
				"y": -0.4159561939,
				"z": 1.2812074215,
				"element": "C" 
			},
			{
				"x": 0.9682391991,
				"y": -0.1786578696,
				"z": 0.4917605831,
				"element": "C" 
			},
			{
				"x": -2.266117405,
				"y": 1.8093768,
				"z": -1.2375338123,
				"element": "H" 
			},
			{
				"x": -1.7611276971,
				"y": 0.8258244895,
				"z": 0.142709196,
				"element": "H" 
			},
			{
				"x": -1.1472075964,
				"y": 2.4748366588,
				"z": -0.0325274295,
				"element": "H" 
			},
			{
				"x": 0.0513842959,
				"y": 1.8262164083,
				"z": -2.1221288502,
				"element": "H" 
			},
			{
				"x": -0.9380489624,
				"y": -1.0251789985,
				"z": -1.5691350741,
				"element": "H" 
			},
			{
				"x": 0.200099435,
				"y": -0.5582891431,
				"z": -2.8393365413,
				"element": "H" 
			},
			{
				"x": -1.4744122,
				"y": 0.0253813111,
				"z": -2.886960862,
				"element": "H" 
			},
			{
				"x": 2.2360927421,
				"y": 2.2233917489,
				"z": -1.5303077964,
				"element": "H" 
			},
			{
				"x": 4.2225381639,
				"y": 1.8041926941,
				"z": -0.1333231645,
				"element": "H" 
			},
			{
				"x": 4.6239125648,
				"y": -1.0163254434,
				"z": 2.1695651458,
				"element": "H" 
			},
			{
				"x": 4.3914120215,
				"y": 0.5608833382,
				"z": 2.922090392,
				"element": "H" 
			},
			{
				"x": 5.4077705465,
				"y": 0.4160553464,
				"z": 1.4857975751,
				"element": "H" 
			},
			{
				"x": 2.0422033729,
				"y": -1.165558651,
				"z": 2.0681013378,
				"element": "H" 
			},
			{
				"x": 0.062147148,
				"y": -0.7497705343,
				"z": 0.6783903346,
				"element": "H" 
			}
		],
		 "valence_orbital": [ 
			{
				"type": "occ",
				"energy": -0.32828,
				"method": "rhf"
			},
			{
				"type": "occ",
				"energy": -0.318,
				"method": "rhf"
			},
			{
				"type": "occ",
				"energy": -0.31543,
				"method": "rhf"
			},
			{
				"type": "occ",
				"energy": -0.24147,
				"method": "rhf"
			},
			{
				"type": "occ",
				"energy": -0.22625,
				"method": "rhf"
			},
			{
				"type": "unocc",
				"energy": 0.00581,
				"method": "rhf"
			},
			{
				"type": "unocc",
				"energy": 0.00855,
				"method": "rhf"
			},
			{
				"type": "unocc",
				"energy": 0.09162,
				"method": "rhf"
			},
			{
				"type": "unocc",
				"energy": 0.10858,
				"method": "rhf"
			},
			{
				"type": "unocc",
				"energy": 0.11702,
				"method": "rhf"
			}
		],
		"cosmo_sigma_profile": { 
			"-0.025": 0.0,
			"-0.024": 0.0,
			"-0.023": 0.0,
			"-0.022": 0.0,
			"-0.021": 0.0,
			"-0.02": 0.0,
			"-0.019": 0.0,
			"-0.018": 0.0,
			"-0.017": 0.0,
			"-0.016": 0.0,
			"-0.015": 0.0,
			"-0.014": 0.0,
			"-0.013": 0.0,
			"-0.012": 0.0,
			"-0.011": 0.0,
			"-0.01": 0.0,
			"-0.009": 0.0,
			"-0.008": 0.0,
			"-0.007": 0.0,
			"-0.006": 0.0,
			"-0.005": 4.00200039149,
			"-0.004": 15.9733807274,
			"-0.003": 24.788436233,
			"-0.002": 26.5531535618,
			"-0.001": 25.2114658769,
			"0.0": 29.0198826614,
			"0.001": 27.0823985346,
			"0.002": 14.5161023294,
			"0.003": 7.80564754139,
			"0.004": 7.59782719192,
			"0.005": 7.05826064113,
			"0.006": 7.27083392678,
			"0.007": 6.24897418195,
			"0.008": 0.422049638919,
			"0.009": 0.0,
			"0.01": 0.0,
			"0.011": 0.0,
			"0.012": 0.0,
			"0.013": 0.0,
			"0.014": 0.0,
			"0.015": 0.0,
			"0.016": 0.0,
			"0.017": 0.0,
			"0.018": 0.0,
			"0.019": 0.0,
			"0.02": 0.0,
			"0.021": 0.0,
			"0.022": 0.0,
			"0.023": 0.0,
			"0.024": 0.0,
			"0.025": 0.0
		}
	}
}
