{
	 "smiles": "CC1=CC=C(CC2=NN=C(N)S2)C=C1", 
	 "Tm": 483.15, 
	 "num_atms": 25, 
	 "gaussian": { 
		 "optdone": 1, 
		 "sigma_profile": "yes", 
		 "theory": "DFT", 
		 "functional": "B3LYP", 
		 "basiset": "6-31G**", 
		 "properties": { 
			 "R2extent": 4410.6495, 
			 "electric_dipole_moment_norm": 3.46095377606, 
			 "electric_quadrupole_moment_norm": 18.4029080572, 
			 "total_energy": -950.119546336, 
			 "HOMO_LUMO_gap": 0.20822, 
			 "cosmo_polarized_energy": -15.29, 
			 "cosmo_cavitation_energy": 31.11, 
			 "cosmo_dispersion_energy": -22.66, 
			 "cosmo_repulsion_energy": 1.76, 
			 "cosmo_total_nonelectrostatic_energy": 10.22, 
			 "SMD_solvation_energy": 2.85 
		},
		"coords": [
			{
				"x": -2.7296581517,
				"y": -0.8925872797,
				"z": 2.8900051295,
				"element": "C" 
			},
			{
				"x": -1.3893005562,
				"y": -0.6922233149,
				"z": 2.2223755691,
				"element": "C" 
			},
			{
				"x": -0.9457236143,
				"y": -1.5748542413,
				"z": 1.2245239696,
				"element": "C" 
			},
			{
				"x": 0.2815184201,
				"y": -1.3924098181,
				"z": 0.5946651447,
				"element": "C" 
			},
			{
				"x": 1.1129603724,
				"y": -0.318288769,
				"z": 0.9443319344,
				"element": "C" 
			},
			{
				"x": 2.4602599729,
				"y": -0.1332217995,
				"z": 0.2635899143,
				"element": "C" 
			},
			{
				"x": 2.372554099,
				"y": 0.0483062466,
				"z": -1.2255309777,
				"element": "C" 
			},
			{
				"x": 2.7894135328,
				"y": -0.8248189228,
				"z": -2.0882168567,
				"element": "N" 
			},
			{
				"x": 2.5786904512,
				"y": -0.4729881977,
				"z": -3.3964617595,
				"element": "N" 
			},
			{
				"x": 2.0050988899,
				"y": 0.6938436591,
				"z": -3.5147426898,
				"element": "C" 
			},
			{
				"x": 1.766236571,
				"y": 1.2989968957,
				"z": -4.726504949,
				"element": "N" 
			},
			{
				"x": 1.6511275881,
				"y": 1.484009398,
				"z": -1.9806205542,
				"element": "S" 
			},
			{
				"x": 0.676798646,
				"y": 0.5624808636,
				"z": 1.9366140009,
				"element": "C" 
			},
			{
				"x": -0.5564860061,
				"y": 0.3765807348,
				"z": 2.5668728261,
				"element": "C" 
			},
			{
				"x": -2.8409537062,
				"y": -1.9161064978,
				"z": 3.2647414035,
				"element": "H" 
			},
			{
				"x": -2.862060983,
				"y": -0.2100322225,
				"z": 3.734074068,
				"element": "H" 
			},
			{
				"x": -3.5545235373,
				"y": -0.7165554049,
				"z": 2.1889142704,
				"element": "H" 
			},
			{
				"x": -1.5719555741,
				"y": -2.4174636858,
				"z": 0.9401297229,
				"element": "H" 
			},
			{
				"x": 0.604078407,
				"y": -2.0863468958,
				"z": -0.1774915867,
				"element": "H" 
			},
			{
				"x": 2.9845945784,
				"y": 0.7181260008,
				"z": 0.7121997277,
				"element": "H" 
			},
			{
				"x": 3.0904349857,
				"y": -1.0165207149,
				"z": 0.4146301313,
				"element": "H" 
			},
			{
				"x": 0.9376891527,
				"y": 1.8729849171,
				"z": -4.7921961943,
				"element": "H" 
			},
			{
				"x": 1.8827779754,
				"y": 0.6614974543,
				"z": -5.5045791826,
				"element": "H" 
			},
			{
				"x": 1.3064793804,
				"y": 1.4002574887,
				"z": 2.2272855802,
				"element": "H" 
			},
			{
				"x": -0.8729508941,
				"y": 1.0744341059,
				"z": 3.338291358,
				"element": "H" 
			}
		],
		 "valence_orbital": [ 
			{
				"type": "occ",
				"energy": -0.28348,
				"method": "rhf"
			},
			{
				"type": "occ",
				"energy": -0.25523,
				"method": "rhf"
			},
			{
				"type": "occ",
				"energy": -0.24882,
				"method": "rhf"
			},
			{
				"type": "occ",
				"energy": -0.23693,
				"method": "rhf"
			},
			{
				"type": "occ",
				"energy": -0.22711,
				"method": "rhf"
			},
			{
				"type": "unocc",
				"energy": -0.01889,
				"method": "rhf"
			},
			{
				"type": "unocc",
				"energy": -0.00522,
				"method": "rhf"
			},
			{
				"type": "unocc",
				"energy": 0.00157,
				"method": "rhf"
			},
			{
				"type": "unocc",
				"energy": 0.0073,
				"method": "rhf"
			},
			{
				"type": "unocc",
				"energy": 0.0507,
				"method": "rhf"
			}
		],
		"cosmo_sigma_profile": { 
			"-0.025": 0.0,
			"-0.024": 0.0,
			"-0.023": 0.0,
			"-0.022": 0.0,
			"-0.021": 0.0,
			"-0.02": 0.0,
			"-0.019": 0.0,
			"-0.018": 0.0,
			"-0.017": 0.0,
			"-0.016": 0.0,
			"-0.015": 0.767735234747,
			"-0.014": 2.71026590086,
			"-0.013": 2.62422974755,
			"-0.012": 2.94252306868,
			"-0.011": 2.71323159996,
			"-0.01": 2.30335633671,
			"-0.009": 1.54486953305,
			"-0.008": 1.40863263587,
			"-0.007": 2.6171445095,
			"-0.006": 8.33046004103,
			"-0.005": 13.4174971539,
			"-0.004": 18.9386373463,
			"-0.003": 21.5155608758,
			"-0.002": 19.1247829266,
			"-0.001": 18.5960905429,
			"0.0": 23.3665644325,
			"0.001": 20.4499080094,
			"0.002": 15.143509898,
			"0.003": 14.4089485056,
			"0.004": 11.4530264638,
			"0.005": 10.4735137867,
			"0.006": 9.73140766941,
			"0.007": 2.59721334337,
			"0.008": 2.40249591547,
			"0.009": 3.31884995769,
			"0.01": 2.60404655899,
			"0.011": 2.90326202914,
			"0.012": 3.13883113637,
			"0.013": 3.11542120721,
			"0.014": 2.26044983753,
			"0.015": 2.21824914199,
			"0.016": 0.322428883228,
			"0.017": 0.0,
			"0.018": 0.0,
			"0.019": 0.0,
			"0.02": 0.0,
			"0.021": 0.0,
			"0.022": 0.0,
			"0.023": 0.0,
			"0.024": 0.0,
			"0.025": 0.0
		}
	}
}
