{
	 "smiles": "CC1=NN(C(=O)C1C(Br)C1(Br)C(C)=NN(C1=O)C1=CC=CC=C1)C1=CC=CC=C1", 
	 "Tm": 581.15, 
	 "num_atms": 47, 
	 "gaussian": { 
		 "optdone": 1, 
		 "sigma_profile": "yes", 
		 "theory": "DFT", 
		 "functional": "B3LYP", 
		 "basiset": "6-31G**", 
		 "properties": { 
			 "R2extent": 15840.1589, 
			 "electric_dipole_moment_norm": 3.70056909272, 
			 "electric_quadrupole_moment_norm": 13.0032075401, 
			 "total_energy": -6323.29952302, 
			 "HOMO_LUMO_gap": 0.12511, 
			 "cosmo_polarized_energy": -18.56, 
			 "cosmo_cavitation_energy": 53.75, 
			 "cosmo_dispersion_energy": -36.61, 
			 "cosmo_repulsion_energy": 2.72, 
			 "cosmo_total_nonelectrostatic_energy": 19.86, 
			 "SMD_solvation_energy": 6.53 
		},
		"coords": [
			{
				"x": 2.7816577878,
				"y": -3.8821430918,
				"z": -1.4492684057,
				"element": "C" 
			},
			{
				"x": 2.3385810917,
				"y": -2.6427097426,
				"z": -0.741973432,
				"element": "C" 
			},
			{
				"x": 2.9185035271,
				"y": -2.2851972771,
				"z": 0.3503148889,
				"element": "N" 
			},
			{
				"x": 2.3471627886,
				"y": -1.0923877084,
				"z": 0.8090010688,
				"element": "N" 
			},
			{
				"x": 1.3473488172,
				"y": -0.634427798,
				"z": -0.0269324126,
				"element": "C" 
			},
			{
				"x": 0.6992516158,
				"y": 0.3939769072,
				"z": 0.0758394599,
				"element": "O" 
			},
			{
				"x": 1.2596467766,
				"y": -1.6636843874,
				"z": -1.1673249079,
				"element": "C" 
			},
			{
				"x": -0.1310017901,
				"y": -2.2997962421,
				"z": -1.4373203458,
				"element": "C" 
			},
			{
				"x": -0.0015651761,
				"y": -3.1439584551,
				"z": -3.2448320614,
				"element": "Br" 
			},
			{
				"x": -1.3524111017,
				"y": -1.3718966162,
				"z": -1.3323838314,
				"element": "C" 
			},
			{
				"x": -2.99592037,
				"y": -2.3402654525,
				"z": -2.0122569595,
				"element": "Br" 
			},
			{
				"x": -1.8235711074,
				"y": -0.9003106974,
				"z": 0.0254425562,
				"element": "C" 
			},
			{
				"x": -1.9358650145,
				"y": -1.7387724187,
				"z": 1.2536179599,
				"element": "C" 
			},
			{
				"x": -2.2098356303,
				"y": 0.3250999168,
				"z": -0.0075202795,
				"element": "N" 
			},
			{
				"x": -1.9627140723,
				"y": 0.8571861214,
				"z": -1.2706463923,
				"element": "N" 
			},
			{
				"x": -1.3191556519,
				"y": -0.0397007361,
				"z": -2.1074095564,
				"element": "C" 
			},
			{
				"x": -0.8324574148,
				"y": 0.1533013749,
				"z": -3.2043215909,
				"element": "O" 
			},
			{
				"x": -2.2436523831,
				"y": 2.2308517711,
				"z": -1.4991746991,
				"element": "C" 
			},
			{
				"x": -2.0069206273,
				"y": 2.8138668654,
				"z": -2.7530483845,
				"element": "C" 
			},
			{
				"x": -2.3114035709,
				"y": 4.1608873987,
				"z": -2.9469151926,
				"element": "C" 
			},
			{
				"x": -2.8469899436,
				"y": 4.9334936885,
				"z": -1.916201412,
				"element": "C" 
			},
			{
				"x": -3.0786568645,
				"y": 4.3425293325,
				"z": -0.6730677892,
				"element": "C" 
			},
			{
				"x": -2.7814750559,
				"y": 2.9989848447,
				"z": -0.456732113,
				"element": "C" 
			},
			{
				"x": 2.8596712456,
				"y": -0.5026069127,
				"z": 1.9980102936,
				"element": "C" 
			},
			{
				"x": 3.9019227863,
				"y": -1.1460233193,
				"z": 2.6812196689,
				"element": "C" 
			},
			{
				"x": 4.4093644973,
				"y": -0.5834873365,
				"z": 3.8502814173,
				"element": "C" 
			},
			{
				"x": 3.8922848563,
				"y": 0.6133435725,
				"z": 4.3487755021,
				"element": "C" 
			},
			{
				"x": 2.8563962501,
				"y": 1.2460498425,
				"z": 3.661218672,
				"element": "C" 
			},
			{
				"x": 2.3322570566,
				"y": 0.7016448522,
				"z": 2.4889505203,
				"element": "C" 
			},
			{
				"x": 1.9730245714,
				"y": -4.6155571454,
				"z": -1.5266541009,
				"element": "H" 
			},
			{
				"x": 3.0956175921,
				"y": -3.6568589977,
				"z": -2.4735014737,
				"element": "H" 
			},
			{
				"x": 3.6168381061,
				"y": -4.3234213391,
				"z": -0.9016456432,
				"element": "H" 
			},
			{
				"x": 1.5562128618,
				"y": -1.1286563374,
				"z": -2.0782641825,
				"element": "H" 
			},
			{
				"x": -0.2973447256,
				"y": -3.1470151294,
				"z": -0.7710667153,
				"element": "H" 
			},
			{
				"x": -0.9480555761,
				"y": -2.0459860987,
				"z": 1.6180834051,
				"element": "H" 
			},
			{
				"x": -2.4262971973,
				"y": -1.1626335525,
				"z": 2.0400514533,
				"element": "H" 
			},
			{
				"x": -2.518017221,
				"y": -2.6454895466,
				"z": 1.0568311576,
				"element": "H" 
			},
			{
				"x": -1.5851794187,
				"y": 2.2224261912,
				"z": -3.5533035349,
				"element": "H" 
			},
			{
				"x": -2.1240391721,
				"y": 4.6056488759,
				"z": -3.9200829154,
				"element": "H" 
			},
			{
				"x": -3.080125848,
				"y": 5.9814644747,
				"z": -2.0786864059,
				"element": "H" 
			},
			{
				"x": -3.4947881149,
				"y": 4.9289501416,
				"z": 0.141202332,
				"element": "H" 
			},
			{
				"x": -2.9596351433,
				"y": 2.5379274788,
				"z": 0.5056706558,
				"element": "H" 
			},
			{
				"x": 4.3015605172,
				"y": -2.0728269982,
				"z": 2.2913774638,
				"element": "H" 
			},
			{
				"x": 5.2169589538,
				"y": -1.0888190613,
				"z": 4.3720971839,
				"element": "H" 
			},
			{
				"x": 4.2925319113,
				"y": 1.0473159703,
				"z": 5.2599802696,
				"element": "H" 
			},
			{
				"x": 2.4446290653,
				"y": 2.1790506499,
				"z": 4.0349867883,
				"element": "H" 
			},
			{
				"x": 1.5322555154,
				"y": 1.1978321272,
				"z": 1.9579820205,
				"element": "H" 
			}
		],
		 "valence_orbital": [ 
			{
				"type": "occ",
				"energy": -0.26123,
				"method": "rhf"
			},
			{
				"type": "occ",
				"energy": -0.25479,
				"method": "rhf"
			},
			{
				"type": "occ",
				"energy": -0.24536,
				"method": "rhf"
			},
			{
				"type": "occ",
				"energy": -0.22467,
				"method": "rhf"
			},
			{
				"type": "occ",
				"energy": -0.21364,
				"method": "rhf"
			},
			{
				"type": "unocc",
				"energy": -0.08853,
				"method": "rhf"
			},
			{
				"type": "unocc",
				"energy": -0.05529,
				"method": "rhf"
			},
			{
				"type": "unocc",
				"energy": -0.02818,
				"method": "rhf"
			},
			{
				"type": "unocc",
				"energy": -0.01669,
				"method": "rhf"
			},
			{
				"type": "unocc",
				"energy": -0.01071,
				"method": "rhf"
			}
		],
		"cosmo_sigma_profile": { 
			"-0.025": 0.0,
			"-0.024": 0.0,
			"-0.023": 0.0,
			"-0.022": 0.0,
			"-0.021": 0.0,
			"-0.02": 0.0,
			"-0.019": 0.0,
			"-0.018": 0.0,
			"-0.017": 0.0,
			"-0.016": 0.0,
			"-0.015": 0.0,
			"-0.014": 0.0778291321028,
			"-0.013": 0.492753521876,
			"-0.012": 0.677834362536,
			"-0.011": 1.20352628694,
			"-0.01": 4.7298395024,
			"-0.009": 5.01441238496,
			"-0.008": 3.9752055395,
			"-0.007": 4.84593502905,
			"-0.006": 18.3819870728,
			"-0.005": 29.8467455005,
			"-0.004": 35.3026002713,
			"-0.003": 33.0712167798,
			"-0.002": 33.1210664851,
			"-0.001": 34.0329673956,
			"0.0": 26.9671360254,
			"0.001": 29.8743622931,
			"0.002": 33.4306402563,
			"0.003": 37.4158758048,
			"0.004": 32.5754841746,
			"0.005": 32.5765485708,
			"0.006": 12.5182318036,
			"0.007": 6.35492066356,
			"0.008": 7.59819018124,
			"0.009": 4.85851177691,
			"0.01": 3.79618689315,
			"0.011": 2.51897712154,
			"0.012": 0.237701118446,
			"0.013": 0.0,
			"0.014": 0.0,
			"0.015": 0.0,
			"0.016": 0.0,
			"0.017": 0.0,
			"0.018": 0.0,
			"0.019": 0.0,
			"0.02": 0.0,
			"0.021": 0.0,
			"0.022": 0.0,
			"0.023": 0.0,
			"0.024": 0.0,
			"0.025": 0.0
		}
	}
}
