{
	 "smiles": "CC(CC(O)=O)C(=O)C1=CC(F)=CC=C1", 
	 "Tm": 333.15, 
	 "num_atms": 26, 
	 "gaussian": { 
		 "optdone": 1, 
		 "sigma_profile": "yes", 
		 "theory": "DFT", 
		 "functional": "B3LYP", 
		 "basiset": "6-31G**", 
		 "properties": { 
			 "R2extent": 5002.3567, 
			 "electric_dipole_moment_norm": 3.16628208945, 
			 "electric_quadrupole_moment_norm": 18.1983744238, 
			 "total_energy": -751.320109722, 
			 "HOMO_LUMO_gap": 0.18833, 
			 "cosmo_polarized_energy": -16.85, 
			 "cosmo_cavitation_energy": 30.88, 
			 "cosmo_dispersion_energy": -21.68, 
			 "cosmo_repulsion_energy": 1.68, 
			 "cosmo_total_nonelectrostatic_energy": 10.88, 
			 "SMD_solvation_energy": 7.41 
		},
		"coords": [
			{
				"x": -0.5245429127,
				"y": 1.6687489448,
				"z": 1.6229831293,
				"element": "C" 
			},
			{
				"x": -1.1318385295,
				"y": 1.2121575302,
				"z": 0.2769884015,
				"element": "C" 
			},
			{
				"x": -2.5129609898,
				"y": 0.5747459773,
				"z": 0.4698151145,
				"element": "C" 
			},
			{
				"x": -3.5891875555,
				"y": 1.5901286146,
				"z": 0.8278133129,
				"element": "C" 
			},
			{
				"x": -4.7935407728,
				"y": 1.0587258866,
				"z": 1.1675642871,
				"element": "O" 
			},
			{
				"x": -3.4462218007,
				"y": 2.7884292467,
				"z": 0.8058457961,
				"element": "O" 
			},
			{
				"x": -0.1885347584,
				"y": 0.2231751074,
				"z": -0.4086726218,
				"element": "C" 
			},
			{
				"x": -0.4288923987,
				"y": -0.9766149749,
				"z": -0.3884383141,
				"element": "O" 
			},
			{
				"x": 1.0574857316,
				"y": 0.7283872028,
				"z": -1.0806648783,
				"element": "C" 
			},
			{
				"x": 1.321946609,
				"y": 2.0938608812,
				"z": -1.2682322832,
				"element": "C" 
			},
			{
				"x": 2.4933874038,
				"y": 2.4692001084,
				"z": -1.913404503,
				"element": "C" 
			},
			{
				"x": 2.7415250318,
				"y": 3.7822923453,
				"z": -2.0941158316,
				"element": "F" 
			},
			{
				"x": 3.4158479917,
				"y": 1.5390999378,
				"z": -2.3791681315,
				"element": "C" 
			},
			{
				"x": 3.1460868016,
				"y": 0.181334473,
				"z": -2.1899176085,
				"element": "C" 
			},
			{
				"x": 1.9782335335,
				"y": -0.2229741232,
				"z": -1.5491546129,
				"element": "C" 
			},
			{
				"x": 0.4528785379,
				"y": 2.1385436677,
				"z": 1.4866112255,
				"element": "H" 
			},
			{
				"x": -1.1892735744,
				"y": 2.3948350447,
				"z": 2.0962204619,
				"element": "H" 
			},
			{
				"x": -0.3961614187,
				"y": 0.8136803881,
				"z": 2.2955389453,
				"element": "H" 
			},
			{
				"x": -1.2607737819,
				"y": 2.0985150475,
				"z": -0.3533160073,
				"element": "H" 
			},
			{
				"x": -2.4677858127,
				"y": -0.2065887421,
				"z": 1.2382053061,
				"element": "H" 
			},
			{
				"x": -2.8254015653,
				"y": 0.0616198119,
				"z": -0.4488474924,
				"element": "H" 
			},
			{
				"x": -4.7525306505,
				"y": 0.0919563739,
				"z": 1.1394789861,
				"element": "H" 
			},
			{
				"x": 0.6434527598,
				"y": 2.869839583,
				"z": -0.934522453,
				"element": "H" 
			},
			{
				"x": 4.316573355,
				"y": 1.8821818557,
				"z": -2.8766487047,
				"element": "H" 
			},
			{
				"x": 3.8544249361,
				"y": -0.559633718,
				"z": -2.5477418917,
				"element": "H" 
			},
			{
				"x": 1.7511038298,
				"y": -1.2722464704,
				"z": -1.3990196323,
				"element": "H" 
			}
		],
		 "valence_orbital": [ 
			{
				"type": "occ",
				"energy": -0.31931,
				"method": "rhf"
			},
			{
				"type": "occ",
				"energy": -0.27725,
				"method": "rhf"
			},
			{
				"type": "occ",
				"energy": -0.27511,
				"method": "rhf"
			},
			{
				"type": "occ",
				"energy": -0.25988,
				"method": "rhf"
			},
			{
				"type": "occ",
				"energy": -0.25706,
				"method": "rhf"
			},
			{
				"type": "unocc",
				"energy": -0.06873,
				"method": "rhf"
			},
			{
				"type": "unocc",
				"energy": -0.01581,
				"method": "rhf"
			},
			{
				"type": "unocc",
				"energy": 0.00573,
				"method": "rhf"
			},
			{
				"type": "unocc",
				"energy": 0.03002,
				"method": "rhf"
			},
			{
				"type": "unocc",
				"energy": 0.05369,
				"method": "rhf"
			}
		],
		"cosmo_sigma_profile": { 
			"-0.025": 0.0,
			"-0.024": 0.0,
			"-0.023": 0.0,
			"-0.022": 0.0,
			"-0.021": 0.0,
			"-0.02": 0.0304598579359,
			"-0.019": 0.714173147209,
			"-0.018": 1.03338435406,
			"-0.017": 0.89178780061,
			"-0.016": 1.43145882465,
			"-0.015": 1.10943120256,
			"-0.014": 0.669933632009,
			"-0.013": 1.06032452245,
			"-0.012": 1.41311270925,
			"-0.011": 1.3514331929,
			"-0.01": 1.38303079628,
			"-0.009": 1.52906091416,
			"-0.008": 5.23496871642,
			"-0.007": 9.65448353263,
			"-0.006": 12.0513333635,
			"-0.005": 14.1488069321,
			"-0.004": 14.5050296819,
			"-0.003": 14.1145621913,
			"-0.002": 16.9854091971,
			"-0.001": 15.9111964283,
			"0.0": 20.3748325758,
			"0.001": 17.5333541533,
			"0.002": 17.325141702,
			"0.003": 14.0827493015,
			"0.004": 14.2336800144,
			"0.005": 6.2369013069,
			"0.006": 4.35661797722,
			"0.007": 3.33448572278,
			"0.008": 3.85713498894,
			"0.009": 5.06484950262,
			"0.01": 7.04527139663,
			"0.011": 8.02132003088,
			"0.012": 7.01497169657,
			"0.013": 1.44460588954,
			"0.014": 0.0490775777342,
			"0.015": 0.0,
			"0.016": 0.0,
			"0.017": 0.0,
			"0.018": 0.0,
			"0.019": 0.0,
			"0.02": 0.0,
			"0.021": 0.0,
			"0.022": 0.0,
			"0.023": 0.0,
			"0.024": 0.0,
			"0.025": 0.0
		}
	}
}
