{
	 "smiles": "CC1=CC=C(Br)N=C1", 
	 "Tm": 316.15, 
	 "num_atms": 14, 
	 "gaussian": { 
		 "optdone": 1, 
		 "sigma_profile": "yes", 
		 "theory": "DFT", 
		 "functional": "B3LYP", 
		 "basiset": "6-31G**", 
		 "properties": { 
			 "R2extent": 2754.7149, 
			 "electric_dipole_moment_norm": 3.86251749122, 
			 "electric_quadrupole_moment_norm": 6.63471299907, 
			 "total_energy": -2858.41084466, 
			 "HOMO_LUMO_gap": 0.21116, 
			 "cosmo_polarized_energy": -6.87, 
			 "cosmo_cavitation_energy": 20.28, 
			 "cosmo_dispersion_energy": -15.61, 
			 "cosmo_repulsion_energy": 1.3, 
			 "cosmo_total_nonelectrostatic_energy": 5.97, 
			 "SMD_solvation_energy": 1.08 
		},
		"coords": [
			{
				"x": 0.3956807846,
				"y": 2.09243812,
				"z": -0.7645720874,
				"element": "C" 
			},
			{
				"x": 0.3568988136,
				"y": 0.6102386574,
				"z": -0.4920388881,
				"element": "C" 
			},
			{
				"x": 0.8198508233,
				"y": 0.0649768749,
				"z": 0.7150557611,
				"element": "C" 
			},
			{
				"x": 0.7666253474,
				"y": -1.3076901032,
				"z": 0.9273383123,
				"element": "C" 
			},
			{
				"x": 0.2398862511,
				"y": -2.092511769,
				"z": -0.1023886999,
				"element": "C" 
			},
			{
				"x": 0.1499057982,
				"y": -3.9979874764,
				"z": 0.1548621262,
				"element": "Br" 
			},
			{
				"x": -0.2044271493,
				"y": -1.6211312591,
				"z": -1.2482237729,
				"element": "N" 
			},
			{
				"x": -0.1440587641,
				"y": -0.2933285201,
				"z": -1.432959446,
				"element": "C" 
			},
			{
				"x": -0.0066627648,
				"y": 2.3236480686,
				"z": -1.7544940606,
				"element": "H" 
			},
			{
				"x": -0.1922335854,
				"y": 2.6490629112,
				"z": -0.0261258585,
				"element": "H" 
			},
			{
				"x": 1.42007746,
				"y": 2.4790817076,
				"z": -0.7211211016,
				"element": "H" 
			},
			{
				"x": 1.2219839997,
				"y": 0.7145016632,
				"z": 1.4888557608,
				"element": "H" 
			},
			{
				"x": 1.1159332,
				"y": -1.7591536774,
				"z": 1.8478974268,
				"element": "H" 
			},
			{
				"x": -0.5186602144,
				"y": 0.0666548023,
				"z": -2.389885472,
				"element": "H" 
			}
		],
		 "valence_orbital": [ 
			{
				"type": "occ",
				"energy": -0.30853,
				"method": "rhf"
			},
			{
				"type": "occ",
				"energy": -0.29501,
				"method": "rhf"
			},
			{
				"type": "occ",
				"energy": -0.28288,
				"method": "rhf"
			},
			{
				"type": "occ",
				"energy": -0.26857,
				"method": "rhf"
			},
			{
				"type": "occ",
				"energy": -0.2473,
				"method": "rhf"
			},
			{
				"type": "unocc",
				"energy": -0.03614,
				"method": "rhf"
			},
			{
				"type": "unocc",
				"energy": -0.02054,
				"method": "rhf"
			},
			{
				"type": "unocc",
				"energy": 0.01235,
				"method": "rhf"
			},
			{
				"type": "unocc",
				"energy": 0.09894,
				"method": "rhf"
			},
			{
				"type": "unocc",
				"energy": 0.11431,
				"method": "rhf"
			}
		],
		"cosmo_sigma_profile": { 
			"-0.025": 0.0,
			"-0.024": 0.0,
			"-0.023": 0.0,
			"-0.022": 0.0,
			"-0.021": 0.0,
			"-0.02": 0.0,
			"-0.019": 0.0,
			"-0.018": 0.0,
			"-0.017": 0.0,
			"-0.016": 0.0,
			"-0.015": 0.0,
			"-0.014": 0.0,
			"-0.013": 0.0,
			"-0.012": 0.0,
			"-0.011": 0.0,
			"-0.01": 0.0,
			"-0.009": 0.0,
			"-0.008": 1.59355508536,
			"-0.007": 5.21985726282,
			"-0.006": 7.60079647486,
			"-0.005": 11.0812093632,
			"-0.004": 13.5087006125,
			"-0.003": 11.3913488201,
			"-0.002": 12.4119754137,
			"-0.001": 14.5964158854,
			"0.0": 16.2659102432,
			"0.001": 18.9934907188,
			"0.002": 12.0519702757,
			"0.003": 7.9083730523,
			"0.004": 10.2028574324,
			"0.005": 9.0708874543,
			"0.006": 3.69189198989,
			"0.007": 1.57841357685,
			"0.008": 1.6695372488,
			"0.009": 1.03567613277,
			"0.01": 1.91643742165,
			"0.011": 0.806754741932,
			"0.012": 1.03673982729,
			"0.013": 0.896931628868,
			"0.014": 0.76499037679,
			"0.015": 0.319465003598,
			"0.016": 0.0,
			"0.017": 0.0,
			"0.018": 0.0,
			"0.019": 0.0,
			"0.02": 0.0,
			"0.021": 0.0,
			"0.022": 0.0,
			"0.023": 0.0,
			"0.024": 0.0,
			"0.025": 0.0
		}
	}
}
