{
	 "smiles": "OC(=O)C1=CC=C(Br)S1", 
	 "Tm": 414.15, 
	 "num_atms": 12, 
	 "gaussian": { 
		 "optdone": 1, 
		 "sigma_profile": "yes", 
		 "theory": "DFT", 
		 "functional": "B3LYP", 
		 "basiset": "6-31G**", 
		 "properties": { 
			 "R2extent": 3327.2301, 
			 "electric_dipole_moment_norm": 3.51572807111, 
			 "electric_quadrupole_moment_norm": 15.5453101352, 
			 "total_energy": -3312.3604415, 
			 "HOMO_LUMO_gap": 0.18079, 
			 "cosmo_polarized_energy": -11.87, 
			 "cosmo_cavitation_energy": 21.04, 
			 "cosmo_dispersion_energy": -16.66, 
			 "cosmo_repulsion_energy": 1.32, 
			 "cosmo_total_nonelectrostatic_energy": 5.7, 
			 "SMD_solvation_energy": 3.55 
		},
		"coords": [
			{
				"x": 3.4178587674,
				"y": 0.8081055618,
				"z": -2.3158122312,
				"element": "O" 
			},
			{
				"x": 2.1026113617,
				"y": 1.0674692956,
				"z": -2.0959460934,
				"element": "C" 
			},
			{
				"x": 1.4540552664,
				"y": 1.6550479717,
				"z": -2.9296769471,
				"element": "O" 
			},
			{
				"x": 1.5055901812,
				"y": 0.6138085219,
				"z": -0.8169856689,
				"element": "C" 
			},
			{
				"x": 0.1903705007,
				"y": 0.8144792424,
				"z": -0.4719936845,
				"element": "C" 
			},
			{
				"x": -0.1534700055,
				"y": 0.2919377836,
				"z": 0.8024874839,
				"element": "C" 
			},
			{
				"x": 0.9154662753,
				"y": -0.3060539621,
				"z": 1.4181586991,
				"element": "C" 
			},
			{
				"x": 0.931691003,
				"y": -1.131461677,
				"z": 3.1077602073,
				"element": "Br" 
			},
			{
				"x": 2.3584498745,
				"y": -0.2418970688,
				"z": 0.4543908012,
				"element": "S" 
			},
			{
				"x": 3.8288529019,
				"y": 0.3354005167,
				"z": -1.5782760526,
				"element": "H" 
			},
			{
				"x": -0.4942734107,
				"y": 1.328338873,
				"z": -1.1358961657,
				"element": "H" 
			},
			{
				"x": -1.1374027159,
				"y": 0.3498249412,
				"z": 1.2501896519,
				"element": "H" 
			}
		],
		 "valence_orbital": [ 
			{
				"type": "occ",
				"energy": -0.32242,
				"method": "rhf"
			},
			{
				"type": "occ",
				"energy": -0.3173,
				"method": "rhf"
			},
			{
				"type": "occ",
				"energy": -0.2865,
				"method": "rhf"
			},
			{
				"type": "occ",
				"energy": -0.2844,
				"method": "rhf"
			},
			{
				"type": "occ",
				"energy": -0.25329,
				"method": "rhf"
			},
			{
				"type": "unocc",
				"energy": -0.0725,
				"method": "rhf"
			},
			{
				"type": "unocc",
				"energy": -0.03186,
				"method": "rhf"
			},
			{
				"type": "unocc",
				"energy": -0.01038,
				"method": "rhf"
			},
			{
				"type": "unocc",
				"energy": 0.01192,
				"method": "rhf"
			},
			{
				"type": "unocc",
				"energy": 0.05371,
				"method": "rhf"
			}
		],
		"cosmo_sigma_profile": { 
			"-0.025": 0.0,
			"-0.024": 0.0,
			"-0.023": 0.0,
			"-0.022": 0.0,
			"-0.021": 0.0,
			"-0.02": 0.0,
			"-0.019": 0.164202148051,
			"-0.018": 1.03879528162,
			"-0.017": 0.725778952483,
			"-0.016": 1.03699514622,
			"-0.015": 0.920744780324,
			"-0.014": 1.26699437662,
			"-0.013": 0.719528152535,
			"-0.012": 1.07544043193,
			"-0.011": 1.0122905668,
			"-0.01": 0.572299124783,
			"-0.009": 1.62812609803,
			"-0.008": 5.32680814939,
			"-0.007": 5.81621262297,
			"-0.006": 5.37070162238,
			"-0.005": 6.05007133882,
			"-0.004": 6.97057217684,
			"-0.003": 7.00103623724,
			"-0.002": 12.2703508687,
			"-0.001": 14.0014394521,
			"0.0": 19.2029144826,
			"0.001": 23.9539097008,
			"0.002": 17.8240285737,
			"0.003": 10.3847841775,
			"0.004": 2.03159136355,
			"0.005": 2.45286673924,
			"0.006": 2.46082284966,
			"0.007": 2.15581115035,
			"0.008": 2.97177901198,
			"0.009": 3.52577804449,
			"0.01": 4.74843572798,
			"0.011": 5.64553387549,
			"0.012": 3.98635953967,
			"0.013": 0.818422725056,
			"0.014": 0.0,
			"0.015": 0.0,
			"0.016": 0.0,
			"0.017": 0.0,
			"0.018": 0.0,
			"0.019": 0.0,
			"0.02": 0.0,
			"0.021": 0.0,
			"0.022": 0.0,
			"0.023": 0.0,
			"0.024": 0.0,
			"0.025": 0.0
		}
	}
}
