{
	 "smiles": "CC1=CC=C(C=C1)C1=CSC(Cl)=N1", 
	 "Tm": 367.15, 
	 "num_atms": 21, 
	 "gaussian": { 
		 "optdone": 1, 
		 "sigma_profile": "yes", 
		 "theory": "DFT", 
		 "functional": "B3LYP", 
		 "basiset": "6-31G**", 
		 "properties": { 
			 "R2extent": 4774.0207, 
			 "electric_dipole_moment_norm": 2.38941787262, 
			 "electric_quadrupole_moment_norm": 9.38719667526, 
			 "total_energy": -1299.0144158, 
			 "HOMO_LUMO_gap": 0.17253, 
			 "cosmo_polarized_energy": -6.35, 
			 "cosmo_cavitation_energy": 28.74, 
			 "cosmo_dispersion_energy": -22.0, 
			 "cosmo_repulsion_energy": 1.68, 
			 "cosmo_total_nonelectrostatic_energy": 8.42, 
			 "SMD_solvation_energy": 3.29 
		},
		"coords": [
			{
				"x": -0.965277793,
				"y": 2.8803069303,
				"z": -2.9901226274,
				"element": "C" 
			},
			{
				"x": -0.6219913738,
				"y": 1.6968976528,
				"z": -2.1172516656,
				"element": "C" 
			},
			{
				"x": -0.8654798378,
				"y": 0.3852945119,
				"z": -2.5503545134,
				"element": "C" 
			},
			{
				"x": -0.5253373669,
				"y": -0.7096726584,
				"z": -1.7630615555,
				"element": "C" 
			},
			{
				"x": 0.0726530724,
				"y": -0.5329065402,
				"z": -0.504481756,
				"element": "C" 
			},
			{
				"x": 0.3145056661,
				"y": 0.7779437408,
				"z": -0.0652185095,
				"element": "C" 
			},
			{
				"x": -0.0293464059,
				"y": 1.8686768499,
				"z": -0.8600581986,
				"element": "C" 
			},
			{
				"x": 0.4404846818,
				"y": -1.6763216785,
				"z": 0.3516493304,
				"element": "C" 
			},
			{
				"x": 0.2732637936,
				"y": -3.0099539182,
				"z": 0.0678647202,
				"element": "C" 
			},
			{
				"x": 0.8537319722,
				"y": -3.9990614017,
				"z": 1.3688169301,
				"element": "S" 
			},
			{
				"x": 1.2840416456,
				"y": -2.5231343321,
				"z": 2.2084483823,
				"element": "C" 
			},
			{
				"x": 2.014002271,
				"y": -2.5933132882,
				"z": 3.7775104686,
				"element": "Cl" 
			},
			{
				"x": 1.0237056356,
				"y": -1.4260915869,
				"z": 1.5882251654,
				"element": "N" 
			},
			{
				"x": -1.1214242857,
				"y": 3.7846457578,
				"z": -2.3947574795,
				"element": "H" 
			},
			{
				"x": -0.1587756844,
				"y": 3.094338409,
				"z": -3.7029783908,
				"element": "H" 
			},
			{
				"x": -1.8725753053,
				"y": 2.6981996224,
				"z": -3.5747038327,
				"element": "H" 
			},
			{
				"x": -1.3309009849,
				"y": 0.2200121297,
				"z": -3.5190186436,
				"element": "H" 
			},
			{
				"x": -0.7334862255,
				"y": -1.7086863311,
				"z": -2.1348251264,
				"element": "H" 
			},
			{
				"x": 0.7709402003,
				"y": 0.9285087445,
				"z": 0.9065189119,
				"element": "H" 
			},
			{
				"x": 0.1654597302,
				"y": 2.8741122043,
				"z": -0.4950238151,
				"element": "H" 
			},
			{
				"x": -0.1500934055,
				"y": -3.4663948179,
				"z": -0.8144777946,
				"element": "H" 
			}
		],
		 "valence_orbital": [ 
			{
				"type": "occ",
				"energy": -0.29972,
				"method": "rhf"
			},
			{
				"type": "occ",
				"energy": -0.29283,
				"method": "rhf"
			},
			{
				"type": "occ",
				"energy": -0.27174,
				"method": "rhf"
			},
			{
				"type": "occ",
				"energy": -0.25145,
				"method": "rhf"
			},
			{
				"type": "occ",
				"energy": -0.21827,
				"method": "rhf"
			},
			{
				"type": "unocc",
				"energy": -0.04574,
				"method": "rhf"
			},
			{
				"type": "unocc",
				"energy": -0.015,
				"method": "rhf"
			},
			{
				"type": "unocc",
				"energy": -0.0061,
				"method": "rhf"
			},
			{
				"type": "unocc",
				"energy": 0.00029,
				"method": "rhf"
			},
			{
				"type": "unocc",
				"energy": 0.02617,
				"method": "rhf"
			}
		],
		"cosmo_sigma_profile": { 
			"-0.025": 0.0,
			"-0.024": 0.0,
			"-0.023": 0.0,
			"-0.022": 0.0,
			"-0.021": 0.0,
			"-0.02": 0.0,
			"-0.019": 0.0,
			"-0.018": 0.0,
			"-0.017": 0.0,
			"-0.016": 0.0,
			"-0.015": 0.0,
			"-0.014": 0.0,
			"-0.013": 0.0,
			"-0.012": 0.0,
			"-0.011": 0.0066567902729,
			"-0.01": 1.75682537082,
			"-0.009": 3.02677293819,
			"-0.008": 2.45806384098,
			"-0.007": 2.00223634094,
			"-0.006": 3.81911473474,
			"-0.005": 8.4688062815,
			"-0.004": 18.097982903,
			"-0.003": 17.9093954796,
			"-0.002": 20.6694604739,
			"-0.001": 24.8250002534,
			"0.0": 25.7369222503,
			"0.001": 23.6329454922,
			"0.002": 24.7326353186,
			"0.003": 21.631157468,
			"0.004": 12.6492076361,
			"0.005": 12.8467362968,
			"0.006": 5.86600895578,
			"0.007": 1.36104521861,
			"0.008": 1.77849266769,
			"0.009": 1.18554466889,
			"0.01": 0.952334360192,
			"0.011": 0.113886534376,
			"0.012": 0.0,
			"0.013": 0.0,
			"0.014": 0.0,
			"0.015": 0.0,
			"0.016": 0.0,
			"0.017": 0.0,
			"0.018": 0.0,
			"0.019": 0.0,
			"0.02": 0.0,
			"0.021": 0.0,
			"0.022": 0.0,
			"0.023": 0.0,
			"0.024": 0.0,
			"0.025": 0.0
		}
	}
}
