{
	 "smiles": "CC(C)C1C(=O)NC(=O)NC1=O", 
	 "Tm": 487.65, 
	 "num_atms": 22, 
	 "gaussian": { 
		 "optdone": 1, 
		 "sigma_profile": "yes", 
		 "theory": "DFT", 
		 "functional": "B3LYP", 
		 "basiset": "6-31G**", 
		 "properties": { 
			 "R2extent": 2781.5517, 
			 "electric_dipole_moment_norm": 0.86165913214, 
			 "electric_quadrupole_moment_norm": 7.30400894235, 
			 "total_energy": -608.009004365, 
			 "HOMO_LUMO_gap": 0.21758, 
			 "cosmo_polarized_energy": -15.45, 
			 "cosmo_cavitation_energy": 25.41, 
			 "cosmo_dispersion_energy": -18.22, 
			 "cosmo_repulsion_energy": 1.46, 
			 "cosmo_total_nonelectrostatic_energy": 8.65, 
			 "SMD_solvation_energy": 6.6 
		},
		"coords": [
			{
				"x": 0.9199015833,
				"y": 1.0044663187,
				"z": -0.4027809295,
				"element": "C" 
			},
			{
				"x": 1.3522742725,
				"y": -0.1695369985,
				"z": 0.4875041279,
				"element": "C" 
			},
			{
				"x": 0.88917974,
				"y": 0.0157058925,
				"z": 1.9373802957,
				"element": "C" 
			},
			{
				"x": 0.903226337,
				"y": -1.5554723644,
				"z": -0.1027536211,
				"element": "C" 
			},
			{
				"x": 1.7720439482,
				"y": -1.8890685037,
				"z": -1.3106135766,
				"element": "C" 
			},
			{
				"x": 2.9806058889,
				"y": -1.9968797759,
				"z": -1.2349378504,
				"element": "O" 
			},
			{
				"x": 1.1210687334,
				"y": -2.0406835348,
				"z": -2.5289523805,
				"element": "N" 
			},
			{
				"x": -0.2471308027,
				"y": -1.999085772,
				"z": -2.7755969297,
				"element": "C" 
			},
			{
				"x": -0.722047985,
				"y": -2.1570714152,
				"z": -3.88105135,
				"element": "O" 
			},
			{
				"x": -1.024086659,
				"y": -1.769275151,
				"z": -1.6454338403,
				"element": "N" 
			},
			{
				"x": -0.6002228282,
				"y": -1.6275564494,
				"z": -0.3275052679,
				"element": "C" 
			},
			{
				"x": -1.4150770463,
				"y": -1.5475334226,
				"z": 0.572397752,
				"element": "O" 
			},
			{
				"x": 1.3370463344,
				"y": 1.9400068483,
				"z": -0.0181086791,
				"element": "H" 
			},
			{
				"x": -0.1701494545,
				"y": 1.1151511025,
				"z": -0.4192047229,
				"element": "H" 
			},
			{
				"x": 1.2688105759,
				"y": 0.8909487114,
				"z": -1.4349323847,
				"element": "H" 
			},
			{
				"x": 2.446550865,
				"y": -0.2254889098,
				"z": 0.479619312,
				"element": "H" 
			},
			{
				"x": 1.2828810337,
				"y": 0.957914294,
				"z": 2.332926138,
				"element": "H" 
			},
			{
				"x": 1.2546435709,
				"y": -0.7948549007,
				"z": 2.5767594674,
				"element": "H" 
			},
			{
				"x": -0.2003581284,
				"y": 0.0354981588,
				"z": 2.0121324754,
				"element": "H" 
			},
			{
				"x": 1.1386434323,
				"y": -2.311719587,
				"z": 0.6549021288,
				"element": "H" 
			},
			{
				"x": 1.7017831144,
				"y": -2.2419381328,
				"z": -3.334748968,
				"element": "H" 
			},
			{
				"x": -2.0257865257,
				"y": -1.7929264084,
				"z": -1.7979011963,
				"element": "H" 
			}
		],
		 "valence_orbital": [ 
			{
				"type": "occ",
				"energy": -0.31601,
				"method": "rhf"
			},
			{
				"type": "occ",
				"energy": -0.30611,
				"method": "rhf"
			},
			{
				"type": "occ",
				"energy": -0.30383,
				"method": "rhf"
			},
			{
				"type": "occ",
				"energy": -0.29784,
				"method": "rhf"
			},
			{
				"type": "occ",
				"energy": -0.2684,
				"method": "rhf"
			},
			{
				"type": "unocc",
				"energy": -0.05082,
				"method": "rhf"
			},
			{
				"type": "unocc",
				"energy": -0.00893,
				"method": "rhf"
			},
			{
				"type": "unocc",
				"energy": 0.04769,
				"method": "rhf"
			},
			{
				"type": "unocc",
				"energy": 0.07059,
				"method": "rhf"
			},
			{
				"type": "unocc",
				"energy": 0.08913,
				"method": "rhf"
			}
		],
		"cosmo_sigma_profile": { 
			"-0.025": 0.0,
			"-0.024": 0.0,
			"-0.023": 0.0,
			"-0.022": 0.0,
			"-0.021": 0.0,
			"-0.02": 0.0,
			"-0.019": 0.0,
			"-0.018": 0.0,
			"-0.017": 0.338671047655,
			"-0.016": 2.23447276406,
			"-0.015": 1.21835911245,
			"-0.014": 1.68246552582,
			"-0.013": 1.71707550022,
			"-0.012": 1.35282891718,
			"-0.011": 2.03558566556,
			"-0.01": 2.82423993737,
			"-0.009": 3.08384575404,
			"-0.008": 4.94121633071,
			"-0.007": 4.43041276553,
			"-0.006": 5.80810209683,
			"-0.005": 7.27542628401,
			"-0.004": 13.6068131704,
			"-0.003": 21.8097967428,
			"-0.002": 18.2739268768,
			"-0.001": 16.365050349,
			"0.0": 17.1573576248,
			"0.001": 11.9427859087,
			"0.002": 4.9679824678,
			"0.003": 3.00402411979,
			"0.004": 4.19613153392,
			"0.005": 4.10490354601,
			"0.006": 3.77720480928,
			"0.007": 3.196108089,
			"0.008": 4.21946995953,
			"0.009": 4.99000481872,
			"0.01": 6.17562839284,
			"0.011": 13.6408486223,
			"0.012": 8.98359669415,
			"0.013": 0.199507441639,
			"0.014": 0.0,
			"0.015": 0.0,
			"0.016": 0.0,
			"0.017": 0.0,
			"0.018": 0.0,
			"0.019": 0.0,
			"0.02": 0.0,
			"0.021": 0.0,
			"0.022": 0.0,
			"0.023": 0.0,
			"0.024": 0.0,
			"0.025": 0.0
		}
	}
}
