{
	 "smiles": "COC1=CC=C(C=C1)C(=O)C1=NN2C(S1)=NC(=O)C1=C2C=CC=C1", 
	 "Tm": 452.15, 
	 "num_atms": 35, 
	 "gaussian": { 
		 "optdone": 1, 
		 "sigma_profile": "yes", 
		 "theory": "DFT", 
		 "functional": "B3LYP", 
		 "basiset": "6-31G**", 
		 "properties": { 
			 "R2extent": 11115.3919, 
			 "electric_dipole_moment_norm": 9.81695378312, 
			 "electric_quadrupole_moment_norm": 16.4771132924, 
			 "total_energy": -1442.52490169, 
			 "HOMO_LUMO_gap": 0.13387, 
			 "cosmo_polarized_energy": -20.55, 
			 "cosmo_cavitation_energy": 42.31, 
			 "cosmo_dispersion_energy": -31.29, 
			 "cosmo_repulsion_energy": 2.25, 
			 "cosmo_total_nonelectrostatic_energy": 13.27, 
			 "SMD_solvation_energy": 6.51 
		},
		"coords": [
			{
				"x": -4.8106061401,
				"y": 4.297726608,
				"z": 0.49636627,
				"element": "C" 
			},
			{
				"x": -4.81059037,
				"y": 3.6740982794,
				"z": -0.7830176346,
				"element": "O" 
			},
			{
				"x": -3.9725148095,
				"y": 2.6333786142,
				"z": -1.0020115697,
				"element": "C" 
			},
			{
				"x": -3.0889434419,
				"y": 2.1063212611,
				"z": -0.0484886263,
				"element": "C" 
			},
			{
				"x": -2.2667663063,
				"y": 1.0336767923,
				"z": -0.3852401428,
				"element": "C" 
			},
			{
				"x": -2.3090526175,
				"y": 0.4654835085,
				"z": -1.6680304662,
				"element": "C" 
			},
			{
				"x": -3.2135702106,
				"y": 1.0008371085,
				"z": -2.6117272777,
				"element": "C" 
			},
			{
				"x": -4.0275621952,
				"y": 2.068809446,
				"z": -2.2907869081,
				"element": "C" 
			},
			{
				"x": -1.4987004655,
				"y": -0.6898169867,
				"z": -2.1073774571,
				"element": "C" 
			},
			{
				"x": -1.709939222,
				"y": -1.2712259108,
				"z": -3.1702090563,
				"element": "O" 
			},
			{
				"x": -0.3567852463,
				"y": -1.2359037866,
				"z": -1.3035205727,
				"element": "C" 
			},
			{
				"x": 0.1779633614,
				"y": -0.729222437,
				"z": -0.2368561963,
				"element": "N" 
			},
			{
				"x": 1.2167570926,
				"y": -1.4933089541,
				"z": 0.1861355867,
				"element": "N" 
			},
			{
				"x": 1.5217764254,
				"y": -2.6363894927,
				"z": -0.5514748103,
				"element": "C" 
			},
			{
				"x": 0.3910029446,
				"y": -2.7175058138,
				"z": -1.9098084812,
				"element": "S" 
			},
			{
				"x": 2.4541055186,
				"y": -3.4869980629,
				"z": -0.3080541276,
				"element": "N" 
			},
			{
				"x": 3.2796452182,
				"y": -3.2836220133,
				"z": 0.8116679459,
				"element": "C" 
			},
			{
				"x": 4.1709493635,
				"y": -4.068906647,
				"z": 1.0916046642,
				"element": "O" 
			},
			{
				"x": 3.019627984,
				"y": -2.0662371687,
				"z": 1.6377315119,
				"element": "C" 
			},
			{
				"x": 1.9843042758,
				"y": -1.1711204911,
				"z": 1.3157257329,
				"element": "C" 
			},
			{
				"x": 1.7410755407,
				"y": -0.0245241864,
				"z": 2.0815596309,
				"element": "C" 
			},
			{
				"x": 2.5477602177,
				"y": 0.2194062777,
				"z": 3.1866057541,
				"element": "C" 
			},
			{
				"x": 3.5844408645,
				"y": -0.6615782852,
				"z": 3.5299592788,
				"element": "C" 
			},
			{
				"x": 3.8153308623,
				"y": -1.7928790116,
				"z": 2.7587127321,
				"element": "C" 
			},
			{
				"x": -5.1009905044,
				"y": 3.5937302547,
				"z": 1.2854238143,
				"element": "H" 
			},
			{
				"x": -5.5486261191,
				"y": 5.0982339465,
				"z": 0.4376214671,
				"element": "H" 
			},
			{
				"x": -3.8291202781,
				"y": 4.7254505037,
				"z": 0.7336259655,
				"element": "H" 
			},
			{
				"x": -3.0385520455,
				"y": 2.5189630848,
				"z": 0.9517156105,
				"element": "H" 
			},
			{
				"x": -1.592741201,
				"y": 0.634098211,
				"z": 0.3609669316,
				"element": "H" 
			},
			{
				"x": -3.2523344863,
				"y": 0.5530214461,
				"z": -3.5985496905,
				"element": "H" 
			},
			{
				"x": -4.7199474707,
				"y": 2.491299279,
				"z": -3.0110883914,
				"element": "H" 
			},
			{
				"x": 0.941998862,
				"y": 0.6512579495,
				"z": 1.8028519303,
				"element": "H" 
			},
			{
				"x": 2.3695143428,
				"y": 1.1062065129,
				"z": 3.7875198394,
				"element": "H" 
			},
			{
				"x": 4.2049361609,
				"y": -0.4560196327,
				"z": 4.3965222831,
				"element": "H" 
			},
			{
				"x": 4.6080540951,
				"y": -2.4961402032,
				"z": 2.9904244595,
				"element": "H" 
			}
		],
		 "valence_orbital": [ 
			{
				"type": "occ",
				"energy": -0.27459,
				"method": "rhf"
			},
			{
				"type": "occ",
				"energy": -0.2717,
				"method": "rhf"
			},
			{
				"type": "occ",
				"energy": -0.24814,
				"method": "rhf"
			},
			{
				"type": "occ",
				"energy": -0.24724,
				"method": "rhf"
			},
			{
				"type": "occ",
				"energy": -0.23447,
				"method": "rhf"
			},
			{
				"type": "unocc",
				"energy": -0.1006,
				"method": "rhf"
			},
			{
				"type": "unocc",
				"energy": -0.05381,
				"method": "rhf"
			},
			{
				"type": "unocc",
				"energy": -0.03585,
				"method": "rhf"
			},
			{
				"type": "unocc",
				"energy": -0.02948,
				"method": "rhf"
			},
			{
				"type": "unocc",
				"energy": -0.02138,
				"method": "rhf"
			}
		],
		"cosmo_sigma_profile": { 
			"-0.025": 0.0,
			"-0.024": 0.0,
			"-0.023": 0.0,
			"-0.022": 0.0,
			"-0.021": 0.0,
			"-0.02": 0.0,
			"-0.019": 0.0,
			"-0.018": 0.0,
			"-0.017": 0.0,
			"-0.016": 0.0,
			"-0.015": 0.0,
			"-0.014": 0.0,
			"-0.013": 0.0,
			"-0.012": 0.0,
			"-0.011": 0.0,
			"-0.01": 0.0,
			"-0.009": 0.0206549523939,
			"-0.008": 1.83653240822,
			"-0.007": 13.8091337319,
			"-0.006": 26.3774032045,
			"-0.005": 29.9621507732,
			"-0.004": 27.9042246268,
			"-0.003": 26.3609450577,
			"-0.002": 22.8989667552,
			"-0.001": 25.1280340102,
			"0.0": 25.5560569204,
			"0.001": 30.9209288522,
			"0.002": 31.4536061224,
			"0.003": 23.2484980898,
			"0.004": 7.91890659864,
			"0.005": 5.33264117132,
			"0.006": 5.22962593476,
			"0.007": 4.46375249494,
			"0.008": 4.87048112513,
			"0.009": 5.53331149019,
			"0.01": 6.09143629537,
			"0.011": 4.20737230782,
			"0.012": 4.8858699309,
			"0.013": 5.45014974428,
			"0.014": 3.18111980412,
			"0.015": 1.78276703571,
			"0.016": 0.0,
			"0.017": 0.0,
			"0.018": 0.0,
			"0.019": 0.0,
			"0.02": 0.0,
			"0.021": 0.0,
			"0.022": 0.0,
			"0.023": 0.0,
			"0.024": 0.0,
			"0.025": 0.0
		}
	}
}
