{
	 "smiles": "COC(=O)C1=CC=NN=C1", 
	 "Tm": 339.15, 
	 "num_atms": 16, 
	 "gaussian": { 
		 "optdone": 1, 
		 "sigma_profile": "yes", 
		 "theory": "DFT", 
		 "functional": "B3LYP", 
		 "basiset": "6-31G**", 
		 "properties": { 
			 "R2extent": 2344.3858, 
			 "electric_dipole_moment_norm": 3.36133928814, 
			 "electric_quadrupole_moment_norm": 16.8875228592, 
			 "total_energy": -492.162707209, 
			 "HOMO_LUMO_gap": 0.15787, 
			 "cosmo_polarized_energy": -11.78, 
			 "cosmo_cavitation_energy": 21.19, 
			 "cosmo_dispersion_energy": -15.67, 
			 "cosmo_repulsion_energy": 1.27, 
			 "cosmo_total_nonelectrostatic_energy": 6.78, 
			 "SMD_solvation_energy": 3.9 
		},
		"coords": [
			{
				"x": 0.5440687737,
				"y": 1.9350282239,
				"z": 1.9450767799,
				"element": "C" 
			},
			{
				"x": -0.2177554455,
				"y": 0.7832781039,
				"z": 1.5387809672,
				"element": "O" 
			},
			{
				"x": 0.4604881808,
				"y": -0.3788398784,
				"z": 1.5176326127,
				"element": "C" 
			},
			{
				"x": 1.6325821765,
				"y": -0.4896925907,
				"z": 1.8131239753,
				"element": "O" 
			},
			{
				"x": -0.3983259392,
				"y": -1.5238751095,
				"z": 1.0866295105,
				"element": "C" 
			},
			{
				"x": 0.1488650678,
				"y": -2.7967554101,
				"z": 1.0112241034,
				"element": "C" 
			},
			{
				"x": -0.7004717338,
				"y": -3.8266411332,
				"z": 0.6029784592,
				"element": "C" 
			},
			{
				"x": -1.987835203,
				"y": -3.6458518695,
				"z": 0.2885761458,
				"element": "N" 
			},
			{
				"x": -2.5165558264,
				"y": -2.4218507067,
				"z": 0.3603236889,
				"element": "N" 
			},
			{
				"x": -1.7527471184,
				"y": -1.3956522484,
				"z": 0.744956693,
				"element": "C" 
			},
			{
				"x": 0.9287557463,
				"y": 1.7990858747,
				"z": 2.958525236,
				"element": "H" 
			},
			{
				"x": 1.3837365988,
				"y": 2.0956081079,
				"z": 1.2648485245,
				"element": "H" 
			},
			{
				"x": -0.1502314367,
				"y": 2.7734253095,
				"z": 1.905345863,
				"element": "H" 
			},
			{
				"x": 1.190647157,
				"y": -2.9662987774,
				"z": 1.261551379,
				"element": "H" 
			},
			{
				"x": -0.345563463,
				"y": -4.850456064,
				"z": 0.5194428519,
				"element": "H" 
			},
			{
				"x": -2.2478575346,
				"y": -0.4306118322,
				"z": 0.7804832098,
				"element": "H" 
			}
		],
		 "valence_orbital": [ 
			{
				"type": "occ",
				"energy": -0.31769,
				"method": "rhf"
			},
			{
				"type": "occ",
				"energy": -0.31298,
				"method": "rhf"
			},
			{
				"type": "occ",
				"energy": -0.30203,
				"method": "rhf"
			},
			{
				"type": "occ",
				"energy": -0.29883,
				"method": "rhf"
			},
			{
				"type": "occ",
				"energy": -0.24081,
				"method": "rhf"
			},
			{
				"type": "unocc",
				"energy": -0.08294,
				"method": "rhf"
			},
			{
				"type": "unocc",
				"energy": -0.04164,
				"method": "rhf"
			},
			{
				"type": "unocc",
				"energy": 0.02607,
				"method": "rhf"
			},
			{
				"type": "unocc",
				"energy": 0.0908,
				"method": "rhf"
			},
			{
				"type": "unocc",
				"energy": 0.10621,
				"method": "rhf"
			}
		],
		"cosmo_sigma_profile": { 
			"-0.025": 0.0,
			"-0.024": 0.0,
			"-0.023": 0.0,
			"-0.022": 0.0,
			"-0.021": 0.0,
			"-0.02": 0.0,
			"-0.019": 0.0,
			"-0.018": 0.0,
			"-0.017": 0.0,
			"-0.016": 0.0,
			"-0.015": 0.0,
			"-0.014": 0.0,
			"-0.013": 0.0,
			"-0.012": 0.0,
			"-0.011": 0.0,
			"-0.01": 0.0,
			"-0.009": 1.69673059134,
			"-0.008": 5.81008726334,
			"-0.007": 7.09039484912,
			"-0.006": 10.6968251768,
			"-0.005": 14.2810840875,
			"-0.004": 17.9459177342,
			"-0.003": 17.7991380794,
			"-0.002": 17.5970392074,
			"-0.001": 10.2924670995,
			"0.0": 7.36927104383,
			"0.001": 6.52202452284,
			"0.002": 5.85669722354,
			"0.003": 4.93437729337,
			"0.004": 4.70238475859,
			"0.005": 3.81698955372,
			"0.006": 3.61590757509,
			"0.007": 3.02718050265,
			"0.008": 2.94184219902,
			"0.009": 3.56192175809,
			"0.01": 4.45391823968,
			"0.011": 6.37544230276,
			"0.012": 2.45562535736,
			"0.013": 3.34380424578,
			"0.014": 1.77397093087,
			"0.015": 2.14749539456,
			"0.016": 0.224061965734,
			"0.017": 0.0,
			"0.018": 0.0,
			"0.019": 0.0,
			"0.02": 0.0,
			"0.021": 0.0,
			"0.022": 0.0,
			"0.023": 0.0,
			"0.024": 0.0,
			"0.025": 0.0
		}
	}
}
