{
	 "smiles": "COC1=CC(I)=CC(C=O)=C1O", 
	 "Tm": 402.15, 
	 "num_atms": 19, 
	 "gaussian": { 
		 "optdone": 1, 
		 "sigma_profile": "no", 
		 "theory": "DFT", 
		 "functional": "B3LYP", 
		 "basiset": "6-31G**", 
		 "properties": { 
			 "R2extent": 2498.545, 
			 "electric_dipole_moment_norm": 0.529508696812, 
			 "electric_quadrupole_moment_norm": 8.53464860144, 
			 "total_energy": -546.105132512, 
			 "HOMO_LUMO_gap": 0.1402, 
			 "cosmo_polarized_energy": -99682.81, 
			 "cosmo_cavitation_energy": 26.43, 
			 "cosmo_dispersion_energy": -21.18, 
			 "cosmo_repulsion_energy": 1.64, 
			 "cosmo_total_nonelectrostatic_energy": 6.89, 
			 "SMD_solvation_energy": 5.63 
		},
		"coords": [
			{
				"x": 2.1498374721,
				"y": 1.1432452189,
				"z": -0.0242720234,
				"element": "C" 
			},
			{
				"x": 0.7642576898,
				"y": 1.3036490717,
				"z": -0.3477142493,
				"element": "O" 
			},
			{
				"x": -0.1866056963,
				"y": 0.4001571617,
				"z": 0.0031848758,
				"element": "C" 
			},
			{
				"x": -1.4805701293,
				"y": 0.7380116942,
				"z": -0.4050907089,
				"element": "C" 
			},
			{
				"x": -2.5815137944,
				"y": -0.080789162,
				"z": -0.1271329002,
				"element": "C" 
			},
			{
				"x": -4.5079185657,
				"y": 0.5085460756,
				"z": -0.7833582894,
				"element": "I" 
			},
			{
				"x": -2.4144587539,
				"y": -1.263317729,
				"z": 0.5691774394,
				"element": "C" 
			},
			{
				"x": -1.1202117773,
				"y": -1.6253255313,
				"z": 0.9911216342,
				"element": "C" 
			},
			{
				"x": -0.938267201,
				"y": -2.8695039693,
				"z": 1.7245375346,
				"element": "C" 
			},
			{
				"x": 0.1486345419,
				"y": -3.2826666369,
				"z": 2.1404488018,
				"element": "O" 
			},
			{
				"x": 0.008529109,
				"y": -0.8085708786,
				"z": 0.7191875001,
				"element": "C" 
			},
			{
				"x": 1.2356643435,
				"y": -1.1713012934,
				"z": 1.1305453605,
				"element": "O" 
			},
			{
				"x": 2.3113115386,
				"y": 1.1095976573,
				"z": 1.055478407,
				"element": "H" 
			},
			{
				"x": 2.5690160121,
				"y": 0.2426233618,
				"z": -0.4784071068,
				"element": "H" 
			},
			{
				"x": 2.6337735706,
				"y": 2.0275188606,
				"z": -0.4427608972,
				"element": "H" 
			},
			{
				"x": -1.5955396668,
				"y": 1.6678059225,
				"z": -0.9499163739,
				"element": "H" 
			},
			{
				"x": -3.2510847563,
				"y": -1.9151842374,
				"z": 0.7969901337,
				"element": "H" 
			},
			{
				"x": -1.8534204572,
				"y": -3.4637067061,
				"z": 1.9068066545,
				"element": "H" 
			},
			{
				"x": 1.1325665206,
				"y": -2.0388888805,
				"z": 1.6038742076,
				"element": "H" 
			}
		],
		 "valence_orbital": [ 
			{
				"type": "occ",
				"energy": -0.28699,
				"method": "rhf"
			},
			{
				"type": "occ",
				"energy": -0.28114,
				"method": "rhf"
			},
			{
				"type": "occ",
				"energy": -0.27318,
				"method": "rhf"
			},
			{
				"type": "occ",
				"energy": -0.25267,
				"method": "rhf"
			},
			{
				"type": "occ",
				"energy": -0.22038,
				"method": "rhf"
			},
			{
				"type": "unocc",
				"energy": -0.08018,
				"method": "rhf"
			},
			{
				"type": "unocc",
				"energy": -0.04395,
				"method": "rhf"
			},
			{
				"type": "unocc",
				"energy": -0.01094,
				"method": "rhf"
			},
			{
				"type": "unocc",
				"energy": 0.02329,
				"method": "rhf"
			},
			{
				"type": "unocc",
				"energy": 0.04047,
				"method": "rhf"
			}
		],
		"cosmo_sigma_profile": { 
			"0.0": 0.0,
			"0.0": 0.0,
			"0.0": 0.0,
			"0.0": 0.0,
			"0.0": 0.0,
			"0.0": 0.0,
			"0.0": 0.0,
			"0.0": 0.0,
			"0.0": 0.0,
			"0.0": 0.0,
			"0.0": 0.0,
			"0.0": 0.0,
			"0.0": 0.0,
			"0.0": 0.0,
			"0.0": 0.0,
			"0.0": 0.0,
			"0.0": 0.0,
			"0.0": 0.0,
			"0.0": 0.0,
			"0.0": 0.0,
			"0.0": 0.0,
			"0.0": 0.0,
			"0.0": 0.0,
			"0.0": 0.0,
			"0.0": 0.0,
			"0.0": 0.0,
			"0.0": 0.0,
			"0.0": 0.0,
			"0.0": 0.0,
			"0.0": 0.0,
			"0.0": 0.0,
			"0.0": 0.0,
			"0.0": 0.0,
			"0.0": 0.0,
			"0.0": 0.0,
			"0.0": 0.0,
			"0.0": 0.0,
			"0.0": 0.0,
			"0.0": 0.0,
			"0.0": 0.0,
			"0.0": 0.0,
			"0.0": 0.0,
			"0.0": 0.0,
			"0.0": 0.0,
			"0.0": 0.0,
			"0.0": 0.0,
			"0.0": 0.0,
			"0.0": 0.0,
			"0.0": 0.0,
			"0.0": 0.0,
			"0.0": 0.0
		}
	}
}
