{
	 "smiles": "O=C1NC2=C(C=CC=C2)N1C1CCNCC1", 
	 "Tm": 457.15, 
	 "num_atms": 31, 
	 "gaussian": { 
		 "optdone": 1, 
		 "sigma_profile": "yes", 
		 "theory": "DFT", 
		 "functional": "B3LYP", 
		 "basiset": "6-31G**", 
		 "properties": { 
			 "R2extent": 3687.7826, 
			 "electric_dipole_moment_norm": 2.99392945976, 
			 "electric_quadrupole_moment_norm": 10.403051958, 
			 "total_energy": -705.822318092, 
			 "HOMO_LUMO_gap": 0.19782, 
			 "cosmo_polarized_energy": -13.83, 
			 "cosmo_cavitation_energy": 31.44, 
			 "cosmo_dispersion_energy": -23.41, 
			 "cosmo_repulsion_energy": 1.81, 
			 "cosmo_total_nonelectrostatic_energy": 9.84, 
			 "SMD_solvation_energy": 3.21 
		},
		"coords": [
			{
				"x": 0.7951064985,
				"y": 1.3522130554,
				"z": 2.1745488437,
				"element": "O" 
			},
			{
				"x": 0.3646278189,
				"y": 0.4077163294,
				"z": 1.5300555002,
				"element": "C" 
			},
			{
				"x": 0.3010159205,
				"y": -0.9162151575,
				"z": 1.9353967768,
				"element": "N" 
			},
			{
				"x": -0.247372715,
				"y": -1.7151467547,
				"z": 0.9444656529,
				"element": "C" 
			},
			{
				"x": -0.5487570838,
				"y": -0.8632244884,
				"z": -0.1453060691,
				"element": "C" 
			},
			{
				"x": -1.1181485783,
				"y": -1.4073008466,
				"z": -1.2944664316,
				"element": "C" 
			},
			{
				"x": -1.3734546852,
				"y": -2.7845267228,
				"z": -1.3314443249,
				"element": "C" 
			},
			{
				"x": -1.070489722,
				"y": -3.611848411,
				"z": -0.2484286472,
				"element": "C" 
			},
			{
				"x": -0.4984510345,
				"y": -3.0797691406,
				"z": 0.912564482,
				"element": "C" 
			},
			{
				"x": -0.1682439094,
				"y": 0.435408609,
				"z": 0.2273165968,
				"element": "N" 
			},
			{
				"x": -0.2200853534,
				"y": 1.7470070784,
				"z": -0.4503808339,
				"element": "C" 
			},
			{
				"x": 0.6914665735,
				"y": 1.8773775155,
				"z": -1.6950324793,
				"element": "C" 
			},
			{
				"x": 0.0087825649,
				"y": 1.5856130857,
				"z": -3.0366121612,
				"element": "C" 
			},
			{
				"x": -1.2313132491,
				"y": 2.358298771,
				"z": -3.1324897167,
				"element": "N" 
			},
			{
				"x": -2.2080891843,
				"y": 1.9727231362,
				"z": -2.1119647846,
				"element": "C" 
			},
			{
				"x": -1.6454506792,
				"y": 2.2873711849,
				"z": -0.7208406082,
				"element": "C" 
			},
			{
				"x": 0.6253500811,
				"y": -1.2051702096,
				"z": 2.8437572078,
				"element": "H" 
			},
			{
				"x": -1.3633970646,
				"y": -0.7922604351,
				"z": -2.148023823,
				"element": "H" 
			},
			{
				"x": -1.8170636982,
				"y": -3.2103747733,
				"z": -2.2261999265,
				"element": "H" 
			},
			{
				"x": -1.2785333622,
				"y": -4.6757632265,
				"z": -0.3032743117,
				"element": "H" 
			},
			{
				"x": -0.2574346523,
				"y": -3.7105950719,
				"z": 1.7627571201,
				"element": "H" 
			},
			{
				"x": 0.2139805256,
				"y": 2.3850118999,
				"z": 0.3226252082,
				"element": "H" 
			},
			{
				"x": 1.5805387404,
				"y": 1.2509949363,
				"z": -1.569392798,
				"element": "H" 
			},
			{
				"x": 1.0306378045,
				"y": 2.9191976158,
				"z": -1.724521322,
				"element": "H" 
			},
			{
				"x": -0.1451597596,
				"y": 0.499031714,
				"z": -3.1578022666,
				"element": "H" 
			},
			{
				"x": 0.6741431974,
				"y": 1.8975214615,
				"z": -3.8496040319,
				"element": "H" 
			},
			{
				"x": -1.635764218,
				"y": 2.2525971782,
				"z": -4.0581672783,
				"element": "H" 
			},
			{
				"x": -3.1206873332,
				"y": 2.5590406057,
				"z": -2.2678921051,
				"element": "H" 
			},
			{
				"x": -2.5041034063,
				"y": 0.910709825,
				"z": -2.1722186189,
				"element": "H" 
			},
			{
				"x": -2.3278469242,
				"y": 1.9373208672,
				"z": 0.0604361478,
				"element": "H" 
			},
			{
				"x": -1.5866031127,
				"y": 3.3784403689,
				"z": -0.6347609978,
				"element": "H" 
			}
		],
		 "valence_orbital": [ 
			{
				"type": "occ",
				"energy": -0.29467,
				"method": "rhf"
			},
			{
				"type": "occ",
				"energy": -0.26454,
				"method": "rhf"
			},
			{
				"type": "occ",
				"energy": -0.23307,
				"method": "rhf"
			},
			{
				"type": "occ",
				"energy": -0.2224,
				"method": "rhf"
			},
			{
				"type": "occ",
				"energy": -0.20266,
				"method": "rhf"
			},
			{
				"type": "unocc",
				"energy": -0.00484,
				"method": "rhf"
			},
			{
				"type": "unocc",
				"energy": 0.01454,
				"method": "rhf"
			},
			{
				"type": "unocc",
				"energy": 0.06949,
				"method": "rhf"
			},
			{
				"type": "unocc",
				"energy": 0.07461,
				"method": "rhf"
			},
			{
				"type": "unocc",
				"energy": 0.08208,
				"method": "rhf"
			}
		],
		"cosmo_sigma_profile": { 
			"-0.025": 0.0,
			"-0.024": 0.0,
			"-0.023": 0.0,
			"-0.022": 0.0,
			"-0.021": 0.0,
			"-0.02": 0.0,
			"-0.019": 0.0,
			"-0.018": 0.0,
			"-0.017": 0.0343776638825,
			"-0.016": 1.12511428065,
			"-0.015": 1.13381060758,
			"-0.014": 1.14876726874,
			"-0.013": 1.22654477354,
			"-0.012": 0.940778931198,
			"-0.011": 0.690804588525,
			"-0.01": 1.85294330189,
			"-0.009": 2.58072716613,
			"-0.008": 2.35601342273,
			"-0.007": 3.86280160906,
			"-0.006": 6.1949692453,
			"-0.005": 9.40100266426,
			"-0.004": 19.170305165,
			"-0.003": 26.4345653594,
			"-0.002": 26.6399599417,
			"-0.001": 33.4086126073,
			"0.0": 23.1161435417,
			"0.001": 12.3380293107,
			"0.002": 11.0072393915,
			"0.003": 9.61881388815,
			"0.004": 8.86730566559,
			"0.005": 9.99997226019,
			"0.006": 8.8453283281,
			"0.007": 3.54805659835,
			"0.008": 2.28616052339,
			"0.009": 1.3142810866,
			"0.01": 1.50929391641,
			"0.011": 2.264162925,
			"0.012": 2.64324619886,
			"0.013": 4.54061977698,
			"0.014": 5.78165785602,
			"0.015": 0.395913550439,
			"0.016": 0.60710061598,
			"0.017": 0.600577676857,
			"0.018": 0.279168487244,
			"0.019": 0.0,
			"0.02": 0.0,
			"0.021": 0.0,
			"0.022": 0.0,
			"0.023": 0.0,
			"0.024": 0.0,
			"0.025": 0.0
		}
	}
}
