{
	 "smiles": "CN1C=C(N=C1C)S(=O)(=O)N1CCC(CC1)C(O)=O", 
	 "Tm": 536.15, 
	 "num_atms": 36, 
	 "gaussian": { 
		 "optdone": 1, 
		 "sigma_profile": "yes", 
		 "theory": "DFT", 
		 "functional": "B3LYP", 
		 "basiset": "6-31G**", 
		 "properties": { 
			 "R2extent": 6148.1594, 
			 "electric_dipole_moment_norm": 3.80614547673, 
			 "electric_quadrupole_moment_norm": 51.0363007862, 
			 "total_energy": -1292.69859808, 
			 "HOMO_LUMO_gap": 0.23741, 
			 "cosmo_polarized_energy": -30.4, 
			 "cosmo_cavitation_energy": 39.01, 
			 "cosmo_dispersion_energy": -26.99, 
			 "cosmo_repulsion_energy": 2.04, 
			 "cosmo_total_nonelectrostatic_energy": 14.06, 
			 "SMD_solvation_energy": 5.13 
		},
		"coords": [
			{
				"x": -2.4315703233,
				"y": -3.4913354556,
				"z": 1.2176916086,
				"element": "C" 
			},
			{
				"x": -1.4962860396,
				"y": -2.3989698658,
				"z": 1.4478225375,
				"element": "N" 
			},
			{
				"x": -0.2396873534,
				"y": -2.5046302236,
				"z": 1.9986444417,
				"element": "C" 
			},
			{
				"x": 0.2529336209,
				"y": -1.2237473353,
				"z": 2.0044488177,
				"element": "C" 
			},
			{
				"x": -0.6518248206,
				"y": -0.3385636524,
				"z": 1.4776540687,
				"element": "N" 
			},
			{
				"x": -1.6988439494,
				"y": -1.0695086785,
				"z": 1.1444105927,
				"element": "C" 
			},
			{
				"x": -2.9494154292,
				"y": -0.5557060288,
				"z": 0.5111504116,
				"element": "C" 
			},
			{
				"x": 1.8355273377,
				"y": -0.7340103298,
				"z": 2.6440575312,
				"element": "S" 
			},
			{
				"x": 1.6301624303,
				"y": 0.2678949785,
				"z": 3.6905216825,
				"element": "O" 
			},
			{
				"x": 2.5368403661,
				"y": -1.9947104992,
				"z": 2.9083483023,
				"element": "O" 
			},
			{
				"x": 2.6712314624,
				"y": 0.0396968491,
				"z": 1.4179148142,
				"element": "N" 
			},
			{
				"x": 2.48304575,
				"y": 1.4741761266,
				"z": 1.1771313605,
				"element": "C" 
			},
			{
				"x": 1.589893606,
				"y": 1.7551864358,
				"z": -0.0400453702,
				"element": "C" 
			},
			{
				"x": 2.0981598083,
				"y": 0.9910684829,
				"z": -1.2892142033,
				"element": "C" 
			},
			{
				"x": 2.2534935884,
				"y": -0.5058882122,
				"z": -0.9815802509,
				"element": "C" 
			},
			{
				"x": 3.131142633,
				"y": -0.7323971099,
				"z": 0.2562394992,
				"element": "C" 
			},
			{
				"x": 1.1691916472,
				"y": 1.2095815115,
				"z": -2.4821574206,
				"element": "C" 
			},
			{
				"x": 1.0969703163,
				"y": 2.48900295,
				"z": -2.9434952328,
				"element": "O" 
			},
			{
				"x": 0.5110062271,
				"y": 0.3467978047,
				"z": -3.0092267503,
				"element": "O" 
			},
			{
				"x": -1.9817487427,
				"y": -4.421348673,
				"z": 1.5664183827,
				"element": "H" 
			},
			{
				"x": -2.6591228407,
				"y": -3.5890990357,
				"z": 0.1522219068,
				"element": "H" 
			},
			{
				"x": -3.3630631232,
				"y": -3.3254290549,
				"z": 1.7665209255,
				"element": "H" 
			},
			{
				"x": 0.1840693708,
				"y": -3.4374432541,
				"z": 2.3339145495,
				"element": "H" 
			},
			{
				"x": -3.8355070275,
				"y": -0.7736969889,
				"z": 1.1186736668,
				"element": "H" 
			},
			{
				"x": -3.1115668721,
				"y": -0.9880034728,
				"z": -0.4831815153,
				"element": "H" 
			},
			{
				"x": -2.8624445616,
				"y": 0.5259075605,
				"z": 0.4044922474,
				"element": "H" 
			},
			{
				"x": 3.4816606748,
				"y": 1.9066693447,
				"z": 1.0174470276,
				"element": "H" 
			},
			{
				"x": 2.0721019064,
				"y": 1.9236999848,
				"z": 2.0814558299,
				"element": "H" 
			},
			{
				"x": 0.5674927237,
				"y": 1.4391603787,
				"z": 0.1908956765,
				"element": "H" 
			},
			{
				"x": 1.5717346163,
				"y": 2.838453476,
				"z": -0.2186457539,
				"element": "H" 
			},
			{
				"x": 3.0845110488,
				"y": 1.4017780616,
				"z": -1.5632323492,
				"element": "H" 
			},
			{
				"x": 2.6898440256,
				"y": -1.0214563156,
				"z": -1.8436228499,
				"element": "H" 
			},
			{
				"x": 1.2605501456,
				"y": -0.9368816817,
				"z": -0.8253281982,
				"element": "H" 
			},
			{
				"x": 3.169645963,
				"y": -1.7868636697,
				"z": 0.5344847465,
				"element": "H" 
			},
			{
				"x": 4.1647797285,
				"y": -0.4204721893,
				"z": 0.0484934968,
				"element": "H" 
			},
			{
				"x": 1.6798920862,
				"y": 3.0631877815,
				"z": -2.4267242299,
				"element": "H" 
			}
		],
		 "valence_orbital": [ 
			{
				"type": "occ",
				"energy": -0.28806,
				"method": "rhf"
			},
			{
				"type": "occ",
				"energy": -0.28518,
				"method": "rhf"
			},
			{
				"type": "occ",
				"energy": -0.2708,
				"method": "rhf"
			},
			{
				"type": "occ",
				"energy": -0.2543,
				"method": "rhf"
			},
			{
				"type": "occ",
				"energy": -0.23438,
				"method": "rhf"
			},
			{
				"type": "unocc",
				"energy": 0.00303,
				"method": "rhf"
			},
			{
				"type": "unocc",
				"energy": 0.00903,
				"method": "rhf"
			},
			{
				"type": "unocc",
				"energy": 0.02044,
				"method": "rhf"
			},
			{
				"type": "unocc",
				"energy": 0.04669,
				"method": "rhf"
			},
			{
				"type": "unocc",
				"energy": 0.06356,
				"method": "rhf"
			}
		],
		"cosmo_sigma_profile": { 
			"-0.025": 0.0,
			"-0.024": 0.0,
			"-0.023": 0.0,
			"-0.022": 0.0,
			"-0.021": 0.0,
			"-0.02": 0.0,
			"-0.019": 0.118637752481,
			"-0.018": 0.783735033189,
			"-0.017": 1.43821245271,
			"-0.016": 0.974957960816,
			"-0.015": 0.552886217149,
			"-0.014": 1.18395157616,
			"-0.013": 1.10658848663,
			"-0.012": 1.29717268986,
			"-0.011": 1.2742957069,
			"-0.01": 3.08161899417,
			"-0.009": 3.59481097809,
			"-0.008": 4.09258901836,
			"-0.007": 11.6317008969,
			"-0.006": 21.5274634603,
			"-0.005": 26.464631526,
			"-0.004": 31.0257979756,
			"-0.003": 26.8601073118,
			"-0.002": 20.3915372643,
			"-0.001": 17.7184366401,
			"0.0": 15.1459991325,
			"0.001": 11.452252926,
			"0.002": 8.91016503243,
			"0.003": 7.76805093436,
			"0.004": 7.10423278846,
			"0.005": 8.968148624,
			"0.006": 6.47414108407,
			"0.007": 8.19135837715,
			"0.008": 6.31655976638,
			"0.009": 8.81181189258,
			"0.01": 11.5957630369,
			"0.011": 15.3406031374,
			"0.012": 12.1907824573,
			"0.013": 3.11796196315,
			"0.014": 0.281376351715,
			"0.015": 0.0,
			"0.016": 0.0,
			"0.017": 0.0,
			"0.018": 0.0,
			"0.019": 0.0,
			"0.02": 0.0,
			"0.021": 0.0,
			"0.022": 0.0,
			"0.023": 0.0,
			"0.024": 0.0,
			"0.025": 0.0
		}
	}
}
