{
	 "smiles": "CNC(=O)C1=CC(N)=C(Cl)C=C1", 
	 "Tm": 418.15, 
	 "num_atms": 21, 
	 "gaussian": { 
		 "optdone": 1, 
		 "sigma_profile": "yes", 
		 "theory": "DFT", 
		 "functional": "B3LYP", 
		 "basiset": "6-31G**", 
		 "properties": { 
			 "R2extent": 3627.4622, 
			 "electric_dipole_moment_norm": 4.08440969174, 
			 "electric_quadrupole_moment_norm": 10.0084800964, 
			 "total_energy": -955.217382773, 
			 "HOMO_LUMO_gap": 0.18008, 
			 "cosmo_polarized_energy": -15.72, 
			 "cosmo_cavitation_energy": 26.76, 
			 "cosmo_dispersion_energy": -20.06, 
			 "cosmo_repulsion_energy": 1.61, 
			 "cosmo_total_nonelectrostatic_energy": 8.31, 
			 "SMD_solvation_energy": 4.65 
		},
		"coords": [
			{
				"x": -2.4979785536,
				"y": 2.3211819404,
				"z": 0.1365513338,
				"element": "C" 
			},
			{
				"x": -1.4266517874,
				"y": 1.3438712334,
				"z": 0.0497576726,
				"element": "N" 
			},
			{
				"x": -1.6841364302,
				"y": 0.0262838867,
				"z": -0.231727168,
				"element": "C" 
			},
			{
				"x": -2.8112624441,
				"y": -0.3868876537,
				"z": -0.4882177479,
				"element": "O" 
			},
			{
				"x": -0.4931414082,
				"y": -0.8932052862,
				"z": -0.212105086,
				"element": "C" 
			},
			{
				"x": 0.8109285835,
				"y": -0.4473060245,
				"z": -0.4419787098,
				"element": "C" 
			},
			{
				"x": 1.9074756018,
				"y": -1.3280884671,
				"z": -0.4222963789,
				"element": "C" 
			},
			{
				"x": 3.2004679024,
				"y": -0.8633169992,
				"z": -0.6089432238,
				"element": "N" 
			},
			{
				"x": 1.632861207,
				"y": -2.6842715052,
				"z": -0.1582617394,
				"element": "C" 
			},
			{
				"x": 2.96737709,
				"y": -3.8356179409,
				"z": -0.1288967043,
				"element": "Cl" 
			},
			{
				"x": 0.3357704655,
				"y": -3.1424160871,
				"z": 0.0584766177,
				"element": "C" 
			},
			{
				"x": -0.7323240987,
				"y": -2.2522274324,
				"z": 0.025488603,
				"element": "C" 
			},
			{
				"x": -2.8418953836,
				"y": 2.4681961588,
				"z": 1.1684246763,
				"element": "H" 
			},
			{
				"x": -3.3359470412,
				"y": 1.949659056,
				"z": -0.4533410976,
				"element": "H" 
			},
			{
				"x": -2.1657665814,
				"y": 3.2832611974,
				"z": -0.2648916773,
				"element": "H" 
			},
			{
				"x": -0.5422643421,
				"y": 1.5692829545,
				"z": 0.4788644337,
				"element": "H" 
			},
			{
				"x": 1.0001517682,
				"y": 0.5962854819,
				"z": -0.6802477798,
				"element": "H" 
			},
			{
				"x": 3.2820081177,
				"y": -0.0001707631,
				"z": -1.1264037911,
				"element": "H" 
			},
			{
				"x": 3.880854287,
				"y": -1.5589161909,
				"z": -0.881237952,
				"element": "H" 
			},
			{
				"x": 0.1735112593,
				"y": -4.1981407058,
				"z": 0.2469553169,
				"element": "H" 
			},
			{
				"x": -1.7512382118,
				"y": -2.588256853,
				"z": 0.176730402,
				"element": "H" 
			}
		],
		 "valence_orbital": [ 
			{
				"type": "occ",
				"energy": -0.31779,
				"method": "rhf"
			},
			{
				"type": "occ",
				"energy": -0.25999,
				"method": "rhf"
			},
			{
				"type": "occ",
				"energy": -0.25112,
				"method": "rhf"
			},
			{
				"type": "occ",
				"energy": -0.24618,
				"method": "rhf"
			},
			{
				"type": "occ",
				"energy": -0.2155,
				"method": "rhf"
			},
			{
				"type": "unocc",
				"energy": -0.03542,
				"method": "rhf"
			},
			{
				"type": "unocc",
				"energy": -0.00186,
				"method": "rhf"
			},
			{
				"type": "unocc",
				"energy": 0.02683,
				"method": "rhf"
			},
			{
				"type": "unocc",
				"energy": 0.06039,
				"method": "rhf"
			},
			{
				"type": "unocc",
				"energy": 0.07503,
				"method": "rhf"
			}
		],
		"cosmo_sigma_profile": { 
			"-0.025": 0.0,
			"-0.024": 0.0,
			"-0.023": 0.0,
			"-0.022": 0.0,
			"-0.021": 0.0,
			"-0.02": 0.0,
			"-0.019": 0.0,
			"-0.018": 0.0,
			"-0.017": 0.0,
			"-0.016": 0.0,
			"-0.015": 0.0,
			"-0.014": 0.952501978472,
			"-0.013": 2.39811844015,
			"-0.012": 3.5415119413,
			"-0.011": 3.9781337834,
			"-0.01": 3.52851748175,
			"-0.009": 4.40633634238,
			"-0.008": 4.61298285158,
			"-0.007": 4.67896754558,
			"-0.006": 5.87169180059,
			"-0.005": 10.381482125,
			"-0.004": 12.173465889,
			"-0.003": 12.7687842579,
			"-0.002": 15.5619505777,
			"-0.001": 14.3343849412,
			"0.0": 12.3720025879,
			"0.001": 15.1857582648,
			"0.002": 15.6188068934,
			"0.003": 18.957720207,
			"0.004": 19.5739871159,
			"0.005": 8.078855738,
			"0.006": 3.25298471562,
			"0.007": 2.41376946364,
			"0.008": 2.64558053628,
			"0.009": 2.44520510699,
			"0.01": 2.05769499196,
			"0.011": 1.97115537859,
			"0.012": 2.67497921222,
			"0.013": 3.8519918534,
			"0.014": 4.38416772094,
			"0.015": 0.30898437243,
			"0.016": 0.0,
			"0.017": 0.0,
			"0.018": 0.0,
			"0.019": 0.0,
			"0.02": 0.0,
			"0.021": 0.0,
			"0.022": 0.0,
			"0.023": 0.0,
			"0.024": 0.0,
			"0.025": 0.0
		}
	}
}
