{
	 "smiles": "ON=C1CCCC2=CC=CC=C12", 
	 "Tm": 377.15, 
	 "num_atms": 23, 
	 "gaussian": { 
		 "optdone": 1, 
		 "sigma_profile": "yes", 
		 "theory": "DFT", 
		 "functional": "B3LYP", 
		 "basiset": "6-31G**", 
		 "properties": { 
			 "R2extent": 2755.1818, 
			 "electric_dipole_moment_norm": 0.663805250055, 
			 "electric_quadrupole_moment_norm": 5.92208462452, 
			 "total_energy": -517.629343137, 
			 "HOMO_LUMO_gap": 0.18392, 
			 "cosmo_polarized_energy": -7.76, 
			 "cosmo_cavitation_energy": 25.35, 
			 "cosmo_dispersion_energy": -19.22, 
			 "cosmo_repulsion_energy": 1.54, 
			 "cosmo_total_nonelectrostatic_energy": 7.67, 
			 "SMD_solvation_energy": 3.83 
		},
		"coords": [
			{
				"x": 0.1927714141,
				"y": -3.5499521132,
				"z": 3.0347894984,
				"element": "O" 
			},
			{
				"x": 0.4004434498,
				"y": -2.23063702,
				"z": 2.5955198852,
				"element": "N" 
			},
			{
				"x": -0.4562882245,
				"y": -1.8854668109,
				"z": 1.6970274668,
				"element": "C" 
			},
			{
				"x": -1.5504832529,
				"y": -2.8048152897,
				"z": 1.1993831484,
				"element": "C" 
			},
			{
				"x": -2.1420871321,
				"y": -2.3507174823,
				"z": -0.1387493882,
				"element": "C" 
			},
			{
				"x": -2.5381022154,
				"y": -0.8722841783,
				"z": -0.0787221771,
				"element": "C" 
			},
			{
				"x": -1.3587252672,
				"y": -0.0049534484,
				"z": 0.3077760525,
				"element": "C" 
			},
			{
				"x": -1.2488502621,
				"y": 1.3046051732,
				"z": -0.1765107849,
				"element": "C" 
			},
			{
				"x": -0.1740699169,
				"y": 2.1171697368,
				"z": 0.1743077556,
				"element": "C" 
			},
			{
				"x": 0.8216396981,
				"y": 1.619560121,
				"z": 1.0214369209,
				"element": "C" 
			},
			{
				"x": 0.7320565953,
				"y": 0.3212104168,
				"z": 1.5068630135,
				"element": "C" 
			},
			{
				"x": -0.3538922327,
				"y": -0.5054031771,
				"z": 1.163132809,
				"element": "C" 
			},
			{
				"x": 0.9088920879,
				"y": -3.6618902577,
				"z": 3.6734486115,
				"element": "H" 
			},
			{
				"x": -2.3393296088,
				"y": -2.8406505615,
				"z": 1.9651072619,
				"element": "H" 
			},
			{
				"x": -1.1525408257,
				"y": -3.8216596312,
				"z": 1.1384501155,
				"element": "H" 
			},
			{
				"x": -1.4021547867,
				"y": -2.4935287162,
				"z": -0.9362490726,
				"element": "H" 
			},
			{
				"x": -3.0080169682,
				"y": -2.9721142609,
				"z": -0.3914694007,
				"element": "H" 
			},
			{
				"x": -3.3469047792,
				"y": -0.7464048723,
				"z": 0.6572426665,
				"element": "H" 
			},
			{
				"x": -2.9445175088,
				"y": -0.5375425379,
				"z": -1.0395470232,
				"element": "H" 
			},
			{
				"x": -2.0205596696,
				"y": 1.6854821395,
				"z": -0.8413657153,
				"element": "H" 
			},
			{
				"x": -0.107346847,
				"y": 3.129029638,
				"z": -0.2153985285,
				"element": "H" 
			},
			{
				"x": 1.6672216795,
				"y": 2.2432631892,
				"z": 1.2970208044,
				"element": "H" 
			},
			{
				"x": 1.498444573,
				"y": -0.077600057,
				"z": 2.1619060803,
				"element": "H" 
			}
		],
		 "valence_orbital": [ 
			{
				"type": "occ",
				"energy": -0.32068,
				"method": "rhf"
			},
			{
				"type": "occ",
				"energy": -0.28003,
				"method": "rhf"
			},
			{
				"type": "occ",
				"energy": -0.26402,
				"method": "rhf"
			},
			{
				"type": "occ",
				"energy": -0.24062,
				"method": "rhf"
			},
			{
				"type": "occ",
				"energy": -0.21651,
				"method": "rhf"
			},
			{
				"type": "unocc",
				"energy": -0.03259,
				"method": "rhf"
			},
			{
				"type": "unocc",
				"energy": 0.00317,
				"method": "rhf"
			},
			{
				"type": "unocc",
				"energy": 0.05452,
				"method": "rhf"
			},
			{
				"type": "unocc",
				"energy": 0.08048,
				"method": "rhf"
			},
			{
				"type": "unocc",
				"energy": 0.09775,
				"method": "rhf"
			}
		],
		"cosmo_sigma_profile": { 
			"-0.025": 0.0,
			"-0.024": 0.0,
			"-0.023": 0.0,
			"-0.022": 0.0,
			"-0.021": 0.0,
			"-0.02": 0.0,
			"-0.019": 0.0,
			"-0.018": 0.0127231638004,
			"-0.017": 0.690556984577,
			"-0.016": 1.34682535663,
			"-0.015": 0.581391592377,
			"-0.014": 0.736620699754,
			"-0.013": 0.777022598187,
			"-0.012": 0.565613656671,
			"-0.011": 0.28461098865,
			"-0.01": 0.967302608537,
			"-0.009": 0.728397008359,
			"-0.008": 0.958052154523,
			"-0.007": 0.638278544674,
			"-0.006": 2.56024896872,
			"-0.005": 8.55194637016,
			"-0.004": 17.3072569406,
			"-0.003": 23.9195393801,
			"-0.002": 22.3916364953,
			"-0.001": 20.7739915389,
			"0.0": 15.5204353789,
			"0.001": 9.19954314332,
			"0.002": 9.0240871878,
			"0.003": 11.1205833278,
			"0.004": 13.1670955203,
			"0.005": 13.292459095,
			"0.006": 10.2335171237,
			"0.007": 4.22834257382,
			"0.008": 3.62427271124,
			"0.009": 3.45919473549,
			"0.01": 2.53055249849,
			"0.011": 0.870941945227,
			"0.012": 0.0339227994399,
			"0.013": 0.0,
			"0.014": 0.0,
			"0.015": 0.0,
			"0.016": 0.0,
			"0.017": 0.0,
			"0.018": 0.0,
			"0.019": 0.0,
			"0.02": 0.0,
			"0.021": 0.0,
			"0.022": 0.0,
			"0.023": 0.0,
			"0.024": 0.0,
			"0.025": 0.0
		}
	}
}
