{
	 "smiles": "OC(=O)C1=CC(Br)=CN=C1", 
	 "Tm": 457.15, 
	 "num_atms": 14, 
	 "gaussian": { 
		 "optdone": 1, 
		 "sigma_profile": "yes", 
		 "theory": "DFT", 
		 "functional": "B3LYP", 
		 "basiset": "6-31G**", 
		 "properties": { 
			 "R2extent": 3101.5401, 
			 "electric_dipole_moment_norm": 2.64166828538, 
			 "electric_quadrupole_moment_norm": 12.4426090741, 
			 "total_energy": -3007.64710748, 
			 "HOMO_LUMO_gap": 0.19784, 
			 "cosmo_polarized_energy": -13.86, 
			 "cosmo_cavitation_energy": 21.6, 
			 "cosmo_dispersion_energy": -16.5, 
			 "cosmo_repulsion_energy": 1.33, 
			 "cosmo_total_nonelectrostatic_energy": 6.43, 
			 "SMD_solvation_energy": 2.43 
		},
		"coords": [
			{
				"x": 0.5605303111,
				"y": -1.9702124174,
				"z": 2.3619341183,
				"element": "O" 
			},
			{
				"x": 0.1969448862,
				"y": -0.7317555674,
				"z": 1.9454264361,
				"element": "C" 
			},
			{
				"x": 0.3631332966,
				"y": 0.2267476969,
				"z": 2.6603946788,
				"element": "O" 
			},
			{
				"x": -0.4064397363,
				"y": -0.6243212532,
				"z": 0.5746290585,
				"element": "C" 
			},
			{
				"x": -1.1203945568,
				"y": 0.5397879031,
				"z": 0.2647069765,
				"element": "C" 
			},
			{
				"x": -1.6741311266,
				"y": 0.6498596664,
				"z": -1.0026515772,
				"element": "C" 
			},
			{
				"x": -2.6733948439,
				"y": 2.1903593848,
				"z": -1.4981767099,
				"element": "Br" 
			},
			{
				"x": -1.4928476739,
				"y": -0.3850385092,
				"z": -1.9277855949,
				"element": "C" 
			},
			{
				"x": -0.7902275857,
				"y": -1.4845980714,
				"z": -1.6465452113,
				"element": "N" 
			},
			{
				"x": -0.2606248025,
				"y": -1.5943388655,
				"z": -0.4241066073,
				"element": "C" 
			},
			{
				"x": 0.2302836286,
				"y": -2.6501091494,
				"z": 1.7583951748,
				"element": "H" 
			},
			{
				"x": -1.2230455546,
				"y": 1.3188553922,
				"z": 1.0111651757,
				"element": "H" 
			},
			{
				"x": -1.9252378577,
				"y": -0.3144249772,
				"z": -2.9223667521,
				"element": "H" 
			},
			{
				"x": 0.3333516155,
				"y": -2.4925112327,
				"z": -0.255919166,
				"element": "H" 
			}
		],
		 "valence_orbital": [ 
			{
				"type": "occ",
				"energy": -0.31324,
				"method": "rhf"
			},
			{
				"type": "occ",
				"energy": -0.31131,
				"method": "rhf"
			},
			{
				"type": "occ",
				"energy": -0.29845,
				"method": "rhf"
			},
			{
				"type": "occ",
				"energy": -0.28013,
				"method": "rhf"
			},
			{
				"type": "occ",
				"energy": -0.27439,
				"method": "rhf"
			},
			{
				"type": "unocc",
				"energy": -0.07655,
				"method": "rhf"
			},
			{
				"type": "unocc",
				"energy": -0.05653,
				"method": "rhf"
			},
			{
				"type": "unocc",
				"energy": -0.01245,
				"method": "rhf"
			},
			{
				"type": "unocc",
				"energy": 0.02429,
				"method": "rhf"
			},
			{
				"type": "unocc",
				"energy": 0.04854,
				"method": "rhf"
			}
		],
		"cosmo_sigma_profile": { 
			"-0.025": 0.0,
			"-0.024": 0.0,
			"-0.023": 0.0,
			"-0.022": 0.0,
			"-0.021": 0.0,
			"-0.02": 0.247234188953,
			"-0.019": 0.73298693303,
			"-0.018": 1.23114995094,
			"-0.017": 1.20900220017,
			"-0.016": 0.908949717079,
			"-0.015": 1.26859082745,
			"-0.014": 1.22676485547,
			"-0.013": 1.1243620544,
			"-0.012": 1.09581572197,
			"-0.011": 1.29252894265,
			"-0.01": 1.28314526556,
			"-0.009": 1.67753415676,
			"-0.008": 5.39703814674,
			"-0.007": 4.7998781491,
			"-0.006": 5.2189726637,
			"-0.005": 7.08755813819,
			"-0.004": 8.68401082407,
			"-0.003": 10.2975829521,
			"-0.002": 15.9316476533,
			"-0.001": 18.2882327224,
			"0.0": 10.8332609564,
			"0.001": 8.33536283441,
			"0.002": 11.3012271544,
			"0.003": 12.3235873478,
			"0.004": 8.63874143084,
			"0.005": 4.52154278857,
			"0.006": 3.52994125718,
			"0.007": 3.02772384416,
			"0.008": 3.25362691387,
			"0.009": 5.60037700315,
			"0.01": 5.91942918087,
			"0.011": 6.19202725775,
			"0.012": 3.06799866222,
			"0.013": 1.0763583486,
			"0.014": 0.838470094061,
			"0.015": 0.19229142165,
			"0.016": 0.0,
			"0.017": 0.0,
			"0.018": 0.0,
			"0.019": 0.0,
			"0.02": 0.0,
			"0.021": 0.0,
			"0.022": 0.0,
			"0.023": 0.0,
			"0.024": 0.0,
			"0.025": 0.0
		}
	}
}
