{
	 "smiles": "CC(=O)CC1=CC=CC=C1", 
	 "Tm": 258.15, 
	 "num_atms": 20, 
	 "gaussian": { 
		 "optdone": 1, 
		 "sigma_profile": "yes", 
		 "theory": "DFT", 
		 "functional": "B3LYP", 
		 "basiset": "6-31G**", 
		 "properties": { 
			 "R2extent": 1751.6438, 
			 "electric_dipole_moment_norm": 2.6091135372, 
			 "electric_quadrupole_moment_norm": 9.27347078445, 
			 "total_energy": -424.211535965, 
			 "HOMO_LUMO_gap": 0.21173, 
			 "cosmo_polarized_energy": -8.08, 
			 "cosmo_cavitation_energy": 23.86, 
			 "cosmo_dispersion_energy": -16.87, 
			 "cosmo_repulsion_energy": 1.38, 
			 "cosmo_total_nonelectrostatic_energy": 8.38, 
			 "SMD_solvation_energy": 4.78 
		},
		"coords": [
			{
				"x": -3.2226187862,
				"y": 1.0664521829,
				"z": 0.3526450568,
				"element": "C" 
			},
			{
				"x": -2.0225787102,
				"y": 1.8304780363,
				"z": 0.8775785788,
				"element": "C" 
			},
			{
				"x": -2.0008888769,
				"y": 2.3226821053,
				"z": 1.9893413908,
				"element": "O" 
			},
			{
				"x": -0.8073716179,
				"y": 1.9297164728,
				"z": -0.0524953639,
				"element": "C" 
			},
			{
				"x": 0.0356283083,
				"y": 0.6668205174,
				"z": 0.0275588318,
				"element": "C" 
			},
			{
				"x": 0.1800684844,
				"y": -0.1819834471,
				"z": -1.0764777384,
				"element": "C" 
			},
			{
				"x": 0.9501052303,
				"y": -1.3438763691,
				"z": -0.9866679845,
				"element": "C" 
			},
			{
				"x": 1.5824993598,
				"y": -1.6732994064,
				"z": 0.2124131372,
				"element": "C" 
			},
			{
				"x": 1.4404333613,
				"y": -0.8347359933,
				"z": 1.3210867665,
				"element": "C" 
			},
			{
				"x": 0.6719106978,
				"y": 0.3249834254,
				"z": 1.230181689,
				"element": "C" 
			},
			{
				"x": -3.9569683553,
				"y": 0.9320170367,
				"z": 1.1478454354,
				"element": "H" 
			},
			{
				"x": -3.6816231146,
				"y": 1.6207271649,
				"z": -0.4753079027,
				"element": "H" 
			},
			{
				"x": -2.914152348,
				"y": 0.0934782854,
				"z": -0.044729942,
				"element": "H" 
			},
			{
				"x": -0.2261878288,
				"y": 2.7992069262,
				"z": 0.2688629371,
				"element": "H" 
			},
			{
				"x": -1.1348370872,
				"y": 2.0908869165,
				"z": -1.0853402804,
				"element": "H" 
			},
			{
				"x": -0.3052984897,
				"y": 0.0723478201,
				"z": -2.0157235826,
				"element": "H" 
			},
			{
				"x": 1.0560652627,
				"y": -1.9886242136,
				"z": -1.854653076,
				"element": "H" 
			},
			{
				"x": 2.182920444,
				"y": -2.5756307644,
				"z": 0.2834627,
				"element": "H" 
			},
			{
				"x": 1.9291443566,
				"y": -1.0845901547,
				"z": 2.2586089307,
				"element": "H" 
			},
			{
				"x": 0.5544497097,
				"y": 0.9724434585,
				"z": 2.0949104165,
				"element": "H" 
			}
		],
		 "valence_orbital": [ 
			{
				"type": "occ",
				"energy": -0.3424,
				"method": "rhf"
			},
			{
				"type": "occ",
				"energy": -0.33846,
				"method": "rhf"
			},
			{
				"type": "occ",
				"energy": -0.25967,
				"method": "rhf"
			},
			{
				"type": "occ",
				"energy": -0.25264,
				"method": "rhf"
			},
			{
				"type": "occ",
				"energy": -0.23417,
				"method": "rhf"
			},
			{
				"type": "unocc",
				"energy": -0.02244,
				"method": "rhf"
			},
			{
				"type": "unocc",
				"energy": -0.00625,
				"method": "rhf"
			},
			{
				"type": "unocc",
				"energy": 0.00797,
				"method": "rhf"
			},
			{
				"type": "unocc",
				"energy": 0.08985,
				"method": "rhf"
			},
			{
				"type": "unocc",
				"energy": 0.10347,
				"method": "rhf"
			}
		],
		"cosmo_sigma_profile": { 
			"-0.025": 0.0,
			"-0.024": 0.0,
			"-0.023": 0.0,
			"-0.022": 0.0,
			"-0.021": 0.0,
			"-0.02": 0.0,
			"-0.019": 0.0,
			"-0.018": 0.0,
			"-0.017": 0.0,
			"-0.016": 0.0,
			"-0.015": 0.0,
			"-0.014": 0.0,
			"-0.013": 0.0,
			"-0.012": 0.0,
			"-0.011": 0.0,
			"-0.01": 0.0,
			"-0.009": 0.0,
			"-0.008": 0.0,
			"-0.007": 0.768812805575,
			"-0.006": 10.6155473215,
			"-0.005": 18.4712830547,
			"-0.004": 19.3564883741,
			"-0.003": 21.855578743,
			"-0.002": 18.5050813663,
			"-0.001": 16.6856497527,
			"0.0": 11.2449964749,
			"0.001": 9.85015583773,
			"0.002": 9.88210619569,
			"0.003": 9.37152266771,
			"0.004": 8.85959066472,
			"0.005": 9.89443539396,
			"0.006": 8.72597048479,
			"0.007": 0.963374953891,
			"0.008": 0.968097459133,
			"0.009": 1.80380217217,
			"0.01": 2.15102914981,
			"0.011": 2.74694520501,
			"0.012": 4.09230706351,
			"0.013": 2.27290027547,
			"0.014": 0.105066192558,
			"0.015": 0.0,
			"0.016": 0.0,
			"0.017": 0.0,
			"0.018": 0.0,
			"0.019": 0.0,
			"0.02": 0.0,
			"0.021": 0.0,
			"0.022": 0.0,
			"0.023": 0.0,
			"0.024": 0.0,
			"0.025": 0.0
		}
	}
}
