{
	 "smiles": "CC1=C(CN)N=C(O1)C1=CC=CC=C1", 
	 "Tm": 317.15, 
	 "num_atms": 26, 
	 "gaussian": { 
		 "optdone": 1, 
		 "sigma_profile": "yes", 
		 "theory": "DFT", 
		 "functional": "B3LYP", 
		 "basiset": "6-31G**", 
		 "properties": { 
			 "R2extent": 3625.9459, 
			 "electric_dipole_moment_norm": 2.2964195871, 
			 "electric_quadrupole_moment_norm": 11.3580488338, 
			 "total_energy": -611.131600787, 
			 "HOMO_LUMO_gap": 0.17293, 
			 "cosmo_polarized_energy": -9.86, 
			 "cosmo_cavitation_energy": 30.16, 
			 "cosmo_dispersion_energy": -21.97, 
			 "cosmo_repulsion_energy": 1.76, 
			 "cosmo_total_nonelectrostatic_energy": 9.95, 
			 "SMD_solvation_energy": 2.81 
		},
		"coords": [
			{
				"x": -2.7328990017,
				"y": 0.6467335027,
				"z": 1.260816618,
				"element": "C" 
			},
			{
				"x": -1.4502202874,
				"y": 0.0978318628,
				"z": 0.74933337,
				"element": "C" 
			},
			{
				"x": -0.7966371002,
				"y": -1.0959204894,
				"z": 0.8423824977,
				"element": "C" 
			},
			{
				"x": -1.1631250103,
				"y": -2.3593337568,
				"z": 1.5720669949,
				"element": "C" 
			},
			{
				"x": -0.157178983,
				"y": -2.8389632377,
				"z": 2.5287815604,
				"element": "N" 
			},
			{
				"x": 0.3988335362,
				"y": -1.0146780632,
				"z": 0.1347358906,
				"element": "N" 
			},
			{
				"x": 0.4267899205,
				"y": 0.1921809055,
				"z": -0.3542296088,
				"element": "C" 
			},
			{
				"x": -0.6706690014,
				"y": 0.933352765,
				"z": -0.022419744,
				"element": "O" 
			},
			{
				"x": 1.4595157561,
				"y": 0.8101362608,
				"z": -1.1810842043,
				"element": "C" 
			},
			{
				"x": 1.3417589557,
				"y": 2.1368687814,
				"z": -1.6251178428,
				"element": "C" 
			},
			{
				"x": 2.343542232,
				"y": 2.7009441786,
				"z": -2.412637123,
				"element": "C" 
			},
			{
				"x": 3.4685390227,
				"y": 1.9520274405,
				"z": -2.7646532129,
				"element": "C" 
			},
			{
				"x": 3.5885405844,
				"y": 0.6304936562,
				"z": -2.3243454079,
				"element": "C" 
			},
			{
				"x": 2.5925792667,
				"y": 0.0597101786,
				"z": -1.5376260262,
				"element": "C" 
			},
			{
				"x": -3.2323736127,
				"y": -0.093269116,
				"z": 1.8902347231,
				"element": "H" 
			},
			{
				"x": -2.5704598556,
				"y": 1.5510868391,
				"z": 1.8583906483,
				"element": "H" 
			},
			{
				"x": -3.4132362475,
				"y": 0.9103167379,
				"z": 0.4425032802,
				"element": "H" 
			},
			{
				"x": -2.112977911,
				"y": -2.2210452019,
				"z": 2.1002521662,
				"element": "H" 
			},
			{
				"x": -1.3287907029,
				"y": -3.1603547255,
				"z": 0.8410502207,
				"element": "H" 
			},
			{
				"x": 0.7225707253,
				"y": -2.9514324392,
				"z": 2.0279452653,
				"element": "H" 
			},
			{
				"x": 0.0174603429,
				"y": -2.1099661495,
				"z": 3.2184275319,
				"element": "H" 
			},
			{
				"x": 0.4672188814,
				"y": 2.7170897635,
				"z": -1.3509861101,
				"element": "H" 
			},
			{
				"x": 2.2452306462,
				"y": 3.7279445599,
				"z": -2.7522798134,
				"element": "H" 
			},
			{
				"x": 4.2474022413,
				"y": 2.3947554738,
				"z": -3.3787118042,
				"element": "H" 
			},
			{
				"x": 4.4613472661,
				"y": 0.0438514964,
				"z": -2.5960481341,
				"element": "H" 
			},
			{
				"x": 2.6717383363,
				"y": -0.9646612236,
				"z": -1.1896817354,
				"element": "H" 
			}
		],
		 "valence_orbital": [ 
			{
				"type": "occ",
				"energy": -0.28379,
				"method": "rhf"
			},
			{
				"type": "occ",
				"energy": -0.27513,
				"method": "rhf"
			},
			{
				"type": "occ",
				"energy": -0.25447,
				"method": "rhf"
			},
			{
				"type": "occ",
				"energy": -0.23584,
				"method": "rhf"
			},
			{
				"type": "occ",
				"energy": -0.21197,
				"method": "rhf"
			},
			{
				"type": "unocc",
				"energy": -0.03904,
				"method": "rhf"
			},
			{
				"type": "unocc",
				"energy": -0.00378,
				"method": "rhf"
			},
			{
				"type": "unocc",
				"energy": 0.03562,
				"method": "rhf"
			},
			{
				"type": "unocc",
				"energy": 0.07161,
				"method": "rhf"
			},
			{
				"type": "unocc",
				"energy": 0.08965,
				"method": "rhf"
			}
		],
		"cosmo_sigma_profile": { 
			"-0.025": 0.0,
			"-0.024": 0.0,
			"-0.023": 0.0,
			"-0.022": 0.0,
			"-0.021": 0.0,
			"-0.02": 0.0,
			"-0.019": 0.0,
			"-0.018": 0.0,
			"-0.017": 0.0,
			"-0.016": 0.0,
			"-0.015": 0.0,
			"-0.014": 0.0,
			"-0.013": 0.0,
			"-0.012": 0.0,
			"-0.011": 0.0,
			"-0.01": 0.443912137182,
			"-0.009": 1.60908722184,
			"-0.008": 1.90508454533,
			"-0.007": 3.18871085818,
			"-0.006": 11.9639423317,
			"-0.005": 19.929390301,
			"-0.004": 22.7044046169,
			"-0.003": 19.8694037464,
			"-0.002": 18.7217921688,
			"-0.001": 21.8407328514,
			"0.0": 16.8621592762,
			"0.001": 18.9820566497,
			"0.002": 17.7097242138,
			"0.003": 15.4696804792,
			"0.004": 15.6520550151,
			"0.005": 12.9477940261,
			"0.006": 2.96854228556,
			"0.007": 2.12103798737,
			"0.008": 2.73194876409,
			"0.009": 2.33806694502,
			"0.01": 1.71043844098,
			"0.011": 0.887559360232,
			"0.012": 1.79344239793,
			"0.013": 1.40663834367,
			"0.014": 0.510757507686,
			"0.015": 0.277527957479,
			"0.016": 0.862349509847,
			"0.017": 0.983198363757,
			"0.018": 0.482494034256,
			"0.019": 0.599692278614,
			"0.02": 0.262502551907,
			"0.021": 0.0,
			"0.022": 0.0,
			"0.023": 0.0,
			"0.024": 0.0,
			"0.025": 0.0
		}
	}
}
