{
	 "smiles": "CC1=CNC=C1", 
	 "Tm": 224.75, 
	 "num_atms": 13, 
	 "gaussian": { 
		 "optdone": 1, 
		 "sigma_profile": "yes", 
		 "theory": "DFT", 
		 "functional": "B3LYP", 
		 "basiset": "6-31G**", 
		 "properties": { 
			 "R2extent": 593.1986, 
			 "electric_dipole_moment_norm": 1.7152655567, 
			 "electric_quadrupole_moment_norm": 6.157164366, 
			 "total_energy": -249.491755839, 
			 "HOMO_LUMO_gap": 0.25048, 
			 "cosmo_polarized_energy": -6.37, 
			 "cosmo_cavitation_energy": 16.16, 
			 "cosmo_dispersion_energy": -12.3, 
			 "cosmo_repulsion_energy": 1.07, 
			 "cosmo_total_nonelectrostatic_energy": 4.93, 
			 "SMD_solvation_energy": 3.54 
		},
		"coords": [
			{
				"x": 0.3771684829,
				"y": 2.078523962,
				"z": -1.2019986168,
				"element": "C" 
			},
			{
				"x": 0.2591492562,
				"y": 0.9999198811,
				"z": -0.1637701218,
				"element": "C" 
			},
			{
				"x": -0.5530353168,
				"y": 1.0201251936,
				"z": 0.9518947861,
				"element": "C" 
			},
			{
				"x": -0.3666360858,
				"y": -0.1555583173,
				"z": 1.6447004901,
				"element": "N" 
			},
			{
				"x": 0.5560799985,
				"y": -0.934319952,
				"z": 0.9885330836,
				"element": "C" 
			},
			{
				"x": 0.9613157796,
				"y": -0.2459804906,
				"z": -0.1336189488,
				"element": "C" 
			},
			{
				"x": -0.2785702135,
				"y": 2.9239428766,
				"z": -0.9714311383,
				"element": "H" 
			},
			{
				"x": 0.1050433368,
				"y": 1.7139366126,
				"z": -2.1999717541,
				"element": "H" 
			},
			{
				"x": 1.4008821371,
				"y": 2.4659665026,
				"z": -1.2714794111,
				"element": "H" 
			},
			{
				"x": -1.2423979223,
				"y": 1.7742790592,
				"z": 1.3033774561,
				"element": "H" 
			},
			{
				"x": -0.8359672462,
				"y": -0.4055996351,
				"z": 2.4992356106,
				"element": "H" 
			},
			{
				"x": 0.8447029273,
				"y": -1.9025055041,
				"z": 1.3704091137,
				"element": "H" 
			},
			{
				"x": 1.6837648661,
				"y": -0.5925301886,
				"z": -0.8604805495,
				"element": "H" 
			}
		],
		 "valence_orbital": [ 
			{
				"type": "occ",
				"energy": -0.377,
				"method": "rhf"
			},
			{
				"type": "occ",
				"energy": -0.36416,
				"method": "rhf"
			},
			{
				"type": "occ",
				"energy": -0.3387,
				"method": "rhf"
			},
			{
				"type": "occ",
				"energy": -0.22286,
				"method": "rhf"
			},
			{
				"type": "occ",
				"energy": -0.19752,
				"method": "rhf"
			},
			{
				"type": "unocc",
				"energy": 0.05296,
				"method": "rhf"
			},
			{
				"type": "unocc",
				"energy": 0.08424,
				"method": "rhf"
			},
			{
				"type": "unocc",
				"energy": 0.09024,
				"method": "rhf"
			},
			{
				"type": "unocc",
				"energy": 0.12532,
				"method": "rhf"
			},
			{
				"type": "unocc",
				"energy": 0.15043,
				"method": "rhf"
			}
		],
		"cosmo_sigma_profile": { 
			"-0.025": 0.0,
			"-0.024": 0.0,
			"-0.023": 0.0,
			"-0.022": 0.0,
			"-0.021": 0.0,
			"-0.02": 0.0,
			"-0.019": 0.0,
			"-0.018": 0.0,
			"-0.017": 0.0,
			"-0.016": 0.0,
			"-0.015": 1.11940670221,
			"-0.014": 1.39455632342,
			"-0.013": 1.34788582852,
			"-0.012": 1.18503954539,
			"-0.011": 1.25124377624,
			"-0.01": 0.960311465482,
			"-0.009": 1.04181845639,
			"-0.008": 0.897831746074,
			"-0.007": 2.22550698179,
			"-0.006": 5.83517530619,
			"-0.005": 4.23073779296,
			"-0.004": 6.51152622042,
			"-0.003": 9.76117460412,
			"-0.002": 8.96473005965,
			"-0.001": 11.5499649416,
			"0.0": 10.9248651248,
			"0.001": 14.1802379028,
			"0.002": 6.22630041854,
			"0.003": 5.00466371148,
			"0.004": 5.76737609692,
			"0.005": 5.01985810088,
			"0.006": 4.63813163746,
			"0.007": 5.44968507464,
			"0.008": 5.71977603001,
			"0.009": 4.77987667687,
			"0.01": 1.98856283817,
			"0.011": 0.0,
			"0.012": 0.0,
			"0.013": 0.0,
			"0.014": 0.0,
			"0.015": 0.0,
			"0.016": 0.0,
			"0.017": 0.0,
			"0.018": 0.0,
			"0.019": 0.0,
			"0.02": 0.0,
			"0.021": 0.0,
			"0.022": 0.0,
			"0.023": 0.0,
			"0.024": 0.0,
			"0.025": 0.0
		}
	}
}
