{
	 "smiles": "CN(C(=O)C1=CC=CC=C1CC(=O)C1=CC=CC=C1C)C1=CC=CC=C1", 
	 "Tm": 392.15, 
	 "num_atms": 47, 
	 "gaussian": { 
		 "optdone": 1, 
		 "sigma_profile": "yes", 
		 "theory": "DFT", 
		 "functional": "B3LYP", 
		 "basiset": "6-31G**", 
		 "properties": { 
			 "R2extent": 9265.9056, 
			 "electric_dipole_moment_norm": 3.78746258595, 
			 "electric_quadrupole_moment_norm": 11.1074383388, 
			 "total_energy": -1094.31688498, 
			 "HOMO_LUMO_gap": 0.16554, 
			 "cosmo_polarized_energy": -14.35, 
			 "cosmo_cavitation_energy": 49.03, 
			 "cosmo_dispersion_energy": -31.9, 
			 "cosmo_repulsion_energy": 2.37, 
			 "cosmo_total_nonelectrostatic_energy": 19.5, 
			 "SMD_solvation_energy": 8.53 
		},
		"coords": [
			{
				"x": -1.687950194,
				"y": -0.8509299613,
				"z": -1.5519441032,
				"element": "C" 
			},
			{
				"x": -1.3007167914,
				"y": 0.5282594324,
				"z": -1.87153481,
				"element": "N" 
			},
			{
				"x": -1.3606589239,
				"y": 1.5414619239,
				"z": -0.9178032948,
				"element": "C" 
			},
			{
				"x": -0.6862391041,
				"y": 2.5640995246,
				"z": -1.0041270523,
				"element": "O" 
			},
			{
				"x": -2.3447816951,
				"y": 1.3794594009,
				"z": 0.2149370309,
				"element": "C" 
			},
			{
				"x": -3.6992041303,
				"y": 1.172773263,
				"z": -0.0954173156,
				"element": "C" 
			},
			{
				"x": -4.6663431831,
				"y": 1.1191260579,
				"z": 0.9044674615,
				"element": "C" 
			},
			{
				"x": -4.2808217925,
				"y": 1.2581446694,
				"z": 2.2388670326,
				"element": "C" 
			},
			{
				"x": -2.9415008261,
				"y": 1.4749409012,
				"z": 2.5544258631,
				"element": "C" 
			},
			{
				"x": -1.9580763679,
				"y": 1.5644944321,
				"z": 1.5583401551,
				"element": "C" 
			},
			{
				"x": -0.5214872973,
				"y": 1.831738444,
				"z": 1.9872565368,
				"element": "C" 
			},
			{
				"x": 0.1001332915,
				"y": 0.5685395727,
				"z": 2.6084518445,
				"element": "C" 
			},
			{
				"x": -0.1028949213,
				"y": 0.3547042595,
				"z": 3.7966927986,
				"element": "O" 
			},
			{
				"x": 0.8833832805,
				"y": -0.3870200375,
				"z": 1.7606013689,
				"element": "C" 
			},
			{
				"x": 1.3935836556,
				"y": 0.0297168635,
				"z": 0.5165276896,
				"element": "C" 
			},
			{
				"x": 2.1478772616,
				"y": -0.8227346431,
				"z": -0.2865455122,
				"element": "C" 
			},
			{
				"x": 2.3935801983,
				"y": -2.1251755282,
				"z": 0.1446558631,
				"element": "C" 
			},
			{
				"x": 1.889313212,
				"y": -2.554267529,
				"z": 1.3721319259,
				"element": "C" 
			},
			{
				"x": 1.1416844504,
				"y": -1.7138014434,
				"z": 2.2067287006,
				"element": "C" 
			},
			{
				"x": 0.6472693041,
				"y": -2.2714105368,
				"z": 3.5204109447,
				"element": "C" 
			},
			{
				"x": -0.5547151879,
				"y": 0.7283361407,
				"z": -3.0769195066,
				"element": "C" 
			},
			{
				"x": -0.6256446037,
				"y": 1.9500152934,
				"z": -3.7671900673,
				"element": "C" 
			},
			{
				"x": 0.0610871535,
				"y": 2.1177314449,
				"z": -4.9657417673,
				"element": "C" 
			},
			{
				"x": 0.8230610078,
				"y": 1.0784699131,
				"z": -5.5065138844,
				"element": "C" 
			},
			{
				"x": 0.8892714462,
				"y": -0.13653863,
				"z": -4.8289198844,
				"element": "C" 
			},
			{
				"x": 0.2078646542,
				"y": -0.3142844107,
				"z": -3.6225294709,
				"element": "C" 
			},
			{
				"x": -2.1427473824,
				"y": -1.3165672793,
				"z": -2.4301811916,
				"element": "H" 
			},
			{
				"x": -2.4066772783,
				"y": -0.8554294474,
				"z": -0.7377039556,
				"element": "H" 
			},
			{
				"x": -0.8216560885,
				"y": -1.4458385465,
				"z": -1.2412446059,
				"element": "H" 
			},
			{
				"x": -3.9898857304,
				"y": 1.0638871143,
				"z": -1.1366997342,
				"element": "H" 
			},
			{
				"x": -5.7100757189,
				"y": 0.9709276342,
				"z": 0.6438187229,
				"element": "H" 
			},
			{
				"x": -5.0216233889,
				"y": 1.2070416188,
				"z": 3.0315443006,
				"element": "H" 
			},
			{
				"x": -2.6366338273,
				"y": 1.5785655291,
				"z": 3.5914545183,
				"element": "H" 
			},
			{
				"x": -0.5308559173,
				"y": 2.5734520896,
				"z": 2.7899226724,
				"element": "H" 
			},
			{
				"x": 0.0465790192,
				"y": 2.2443311377,
				"z": 1.1579947796,
				"element": "H" 
			},
			{
				"x": 1.2112711562,
				"y": 1.0369991682,
				"z": 0.1625469646,
				"element": "H" 
			},
			{
				"x": 2.5324584113,
				"y": -0.4689491095,
				"z": -1.2379819055,
				"element": "H" 
			},
			{
				"x": 2.9769827788,
				"y": -2.8067860069,
				"z": -0.4683553657,
				"element": "H" 
			},
			{
				"x": 2.0822977091,
				"y": -3.5722647562,
				"z": 1.7003630511,
				"element": "H" 
			},
			{
				"x": 1.1294331256,
				"y": -1.7790192637,
				"z": 4.3688176228,
				"element": "H" 
			},
			{
				"x": -0.4253041003,
				"y": -2.109662854,
				"z": 3.6558304984,
				"element": "H" 
			},
			{
				"x": 0.8527039245,
				"y": -3.3447996813,
				"z": 3.5710382916,
				"element": "H" 
			},
			{
				"x": -1.2084064454,
				"y": 2.7647948812,
				"z": -3.3587967399,
				"element": "H" 
			},
			{
				"x": -0.0063900309,
				"y": 3.0697628024,
				"z": -5.4843971793,
				"element": "H" 
			},
			{
				"x": 1.3537057541,
				"y": 1.2157341687,
				"z": -6.4438194586,
				"element": "H" 
			},
			{
				"x": 1.4734700388,
				"y": -0.9581279489,
				"z": -5.2337424984,
				"element": "H" 
			},
			{
				"x": 0.2824800936,
				"y": -1.2663000678,
				"z": -3.1109173345,
				"element": "H" 
			}
		],
		 "valence_orbital": [ 
			{
				"type": "occ",
				"energy": -0.25309,
				"method": "rhf"
			},
			{
				"type": "occ",
				"energy": -0.24865,
				"method": "rhf"
			},
			{
				"type": "occ",
				"energy": -0.24408,
				"method": "rhf"
			},
			{
				"type": "occ",
				"energy": -0.23407,
				"method": "rhf"
			},
			{
				"type": "occ",
				"energy": -0.22127,
				"method": "rhf"
			},
			{
				"type": "unocc",
				"energy": -0.05573,
				"method": "rhf"
			},
			{
				"type": "unocc",
				"energy": -0.03552,
				"method": "rhf"
			},
			{
				"type": "unocc",
				"energy": -0.01124,
				"method": "rhf"
			},
			{
				"type": "unocc",
				"energy": -0.00684,
				"method": "rhf"
			},
			{
				"type": "unocc",
				"energy": -0.00038,
				"method": "rhf"
			}
		],
		"cosmo_sigma_profile": { 
			"-0.025": 0.0,
			"-0.024": 0.0,
			"-0.023": 0.0,
			"-0.022": 0.0,
			"-0.021": 0.0,
			"-0.02": 0.0,
			"-0.019": 0.0,
			"-0.018": 0.0,
			"-0.017": 0.0,
			"-0.016": 0.0,
			"-0.015": 0.0,
			"-0.014": 0.0,
			"-0.013": 0.0,
			"-0.012": 0.0,
			"-0.011": 0.0,
			"-0.01": 0.0,
			"-0.009": 0.0,
			"-0.008": 0.0,
			"-0.007": 1.28686828091,
			"-0.006": 15.5865847889,
			"-0.005": 32.5929944146,
			"-0.004": 40.4411970812,
			"-0.003": 41.0974495054,
			"-0.002": 38.5268489699,
			"-0.001": 31.9763387914,
			"0.0": 32.5281809945,
			"0.001": 27.4767689233,
			"0.002": 26.2595454874,
			"0.003": 25.6505222379,
			"0.004": 26.8988990182,
			"0.005": 15.7959519109,
			"0.006": 9.3456103823,
			"0.007": 3.73400070385,
			"0.008": 3.12721871925,
			"0.009": 3.26050000482,
			"0.01": 2.92937421105,
			"0.011": 4.6993521292,
			"0.012": 4.42897755416,
			"0.013": 3.41086319649,
			"0.014": 0.281637745182,
			"0.015": 0.0,
			"0.016": 0.0,
			"0.017": 0.0,
			"0.018": 0.0,
			"0.019": 0.0,
			"0.02": 0.0,
			"0.021": 0.0,
			"0.022": 0.0,
			"0.023": 0.0,
			"0.024": 0.0,
			"0.025": 0.0
		}
	}
}
