{
	 "smiles": "[O-][N+](=O)C1=C2CCCNC2=C(Cl)C=C1", 
	 "Tm": 367.15, 
	 "num_atms": 23, 
	 "gaussian": { 
		 "optdone": 1, 
		 "sigma_profile": "yes", 
		 "theory": "DFT", 
		 "functional": "B3LYP", 
		 "basiset": "6-31G**", 
		 "properties": { 
			 "R2extent": 5354.0175, 
			 "electric_dipole_moment_norm": 4.34976214752, 
			 "electric_quadrupole_moment_norm": 4.81262852815, 
			 "total_energy": -1068.43399798, 
			 "HOMO_LUMO_gap": 0.13251, 
			 "cosmo_polarized_energy": -8.97, 
			 "cosmo_cavitation_energy": 27.58, 
			 "cosmo_dispersion_energy": -21.03, 
			 "cosmo_repulsion_energy": 1.64, 
			 "cosmo_total_nonelectrostatic_energy": 8.19, 
			 "SMD_solvation_energy": 5.11 
		},
		"coords": [
			{
				"x": -2.723523702,
				"y": 0.9196164528,
				"z": -1.5932313006,
				"element": "O" 
			},
			{
				"x": -1.8622956476,
				"y": 0.5114558399,
				"z": -0.8141057789,
				"element": "N" 
			},
			{
				"x": -1.1648701672,
				"y": -0.48488314,
				"z": -1.0157164094,
				"element": "O" 
			},
			{
				"x": -1.6817354763,
				"y": 1.2504341282,
				"z": 0.4479539898,
				"element": "C" 
			},
			{
				"x": -0.4623994004,
				"y": 1.2086649178,
				"z": 1.1426747417,
				"element": "C" 
			},
			{
				"x": 0.7789370692,
				"y": 0.4810742146,
				"z": 0.6491887787,
				"element": "C" 
			},
			{
				"x": 2.0653737585,
				"y": 1.0087301193,
				"z": 1.2956951453,
				"element": "C" 
			},
			{
				"x": 1.9010431453,
				"y": 1.0991644572,
				"z": 2.8094592754,
				"element": "C" 
			},
			{
				"x": 0.7728686338,
				"y": 1.9668164961,
				"z": 3.1038194788,
				"element": "N" 
			},
			{
				"x": -0.3916562046,
				"y": 1.9213973555,
				"z": 2.3729185651,
				"element": "C" 
			},
			{
				"x": -1.5400078689,
				"y": 2.6153898696,
				"z": 2.8184237049,
				"element": "C" 
			},
			{
				"x": -1.4674752516,
				"y": 3.4864852875,
				"z": 4.3472368347,
				"element": "Cl" 
			},
			{
				"x": -2.7250026822,
				"y": 2.6395625156,
				"z": 2.0952661841,
				"element": "C" 
			},
			{
				"x": -2.8014124539,
				"y": 1.9575295671,
				"z": 0.8896390865,
				"element": "C" 
			},
			{
				"x": 0.8492513117,
				"y": 0.5553232614,
				"z": -0.4377432027,
				"element": "H" 
			},
			{
				"x": 0.6688042993,
				"y": -0.5903866958,
				"z": 0.854050027,
				"element": "H" 
			},
			{
				"x": 2.9009559543,
				"y": 0.3473148596,
				"z": 1.0468477998,
				"element": "H" 
			},
			{
				"x": 2.3053084512,
				"y": 2.0043736599,
				"z": 0.9052978143,
				"element": "H" 
			},
			{
				"x": 2.79207154,
				"y": 1.5287134952,
				"z": 3.2779888682,
				"element": "H" 
			},
			{
				"x": 1.7601684425,
				"y": 0.0902022945,
				"z": 3.2313042968,
				"element": "H" 
			},
			{
				"x": 0.6915997086,
				"y": 2.331573161,
				"z": 4.0406854243,
				"element": "H" 
			},
			{
				"x": -3.5780773408,
				"y": 3.1857535273,
				"z": 2.4808243266,
				"element": "H" 
			},
			{
				"x": -3.703426119,
				"y": 1.9543943558,
				"z": 0.2934223496,
				"element": "H" 
			}
		],
		 "valence_orbital": [ 
			{
				"type": "occ",
				"energy": -0.30442,
				"method": "rhf"
			},
			{
				"type": "occ",
				"energy": -0.30096,
				"method": "rhf"
			},
			{
				"type": "occ",
				"energy": -0.28664,
				"method": "rhf"
			},
			{
				"type": "occ",
				"energy": -0.26194,
				"method": "rhf"
			},
			{
				"type": "occ",
				"energy": -0.21434,
				"method": "rhf"
			},
			{
				"type": "unocc",
				"energy": -0.08183,
				"method": "rhf"
			},
			{
				"type": "unocc",
				"energy": -0.01616,
				"method": "rhf"
			},
			{
				"type": "unocc",
				"energy": 0.00295,
				"method": "rhf"
			},
			{
				"type": "unocc",
				"energy": 0.01747,
				"method": "rhf"
			},
			{
				"type": "unocc",
				"energy": 0.07608,
				"method": "rhf"
			}
		],
		"cosmo_sigma_profile": { 
			"-0.025": 0.0,
			"-0.024": 0.0,
			"-0.023": 0.0,
			"-0.022": 0.0,
			"-0.021": 0.0,
			"-0.02": 0.0,
			"-0.019": 0.0,
			"-0.018": 0.0,
			"-0.017": 0.0,
			"-0.016": 0.0,
			"-0.015": 0.0,
			"-0.014": 0.0,
			"-0.013": 0.113002329384,
			"-0.012": 0.561361383072,
			"-0.011": 0.834436667498,
			"-0.01": 1.06239782203,
			"-0.009": 1.03008500744,
			"-0.008": 1.57084147061,
			"-0.007": 4.88510134678,
			"-0.006": 7.06051878932,
			"-0.005": 10.3149884046,
			"-0.004": 18.1274464171,
			"-0.003": 24.0230016186,
			"-0.002": 22.6403019221,
			"-0.001": 17.0912869108,
			"0.0": 16.7891699485,
			"0.001": 19.9096990866,
			"0.002": 18.2969948447,
			"0.003": 14.53399214,
			"0.004": 10.2661174389,
			"0.005": 4.38535014938,
			"0.006": 4.06607736616,
			"0.007": 6.94509391625,
			"0.008": 8.47696076542,
			"0.009": 4.49993691015,
			"0.01": 3.412952655,
			"0.011": 0.414404702412,
			"0.012": 0.0,
			"0.013": 0.0,
			"0.014": 0.0,
			"0.015": 0.0,
			"0.016": 0.0,
			"0.017": 0.0,
			"0.018": 0.0,
			"0.019": 0.0,
			"0.02": 0.0,
			"0.021": 0.0,
			"0.022": 0.0,
			"0.023": 0.0,
			"0.024": 0.0,
			"0.025": 0.0
		}
	}
}
