{
	 "smiles": "NC1=NC(=CS1)C1=CC=NC=C1", 
	 "Tm": 446.15, 
	 "num_atms": 19, 
	 "gaussian": { 
		 "optdone": 1, 
		 "sigma_profile": "yes", 
		 "theory": "DFT", 
		 "functional": "B3LYP", 
		 "basiset": "6-31G**", 
		 "properties": { 
			 "R2extent": 2994.2635, 
			 "electric_dipole_moment_norm": 4.46350423098, 
			 "electric_quadrupole_moment_norm": 14.0083244244, 
			 "total_energy": -871.505513782, 
			 "HOMO_LUMO_gap": 0.16925, 
			 "cosmo_polarized_energy": -13.58, 
			 "cosmo_cavitation_energy": 25.19, 
			 "cosmo_dispersion_energy": -19.51, 
			 "cosmo_repulsion_energy": 1.49, 
			 "cosmo_total_nonelectrostatic_energy": 7.17, 
			 "SMD_solvation_energy": 1.58 
		},
		"coords": [
			{
				"x": -2.6105451041,
				"y": -2.1043308128,
				"z": -1.7076985971,
				"element": "N" 
			},
			{
				"x": -1.3113160923,
				"y": -1.7245323777,
				"z": -1.4670796675,
				"element": "C" 
			},
			{
				"x": -0.884809427,
				"y": -1.2632430886,
				"z": -0.3306088335,
				"element": "N" 
			},
			{
				"x": 0.4500990659,
				"y": -0.8895610014,
				"z": -0.405489459,
				"element": "C" 
			},
			{
				"x": 1.0419801852,
				"y": -1.0831860301,
				"z": -1.6243596256,
				"element": "C" 
			},
			{
				"x": -0.1008443269,
				"y": -1.744363923,
				"z": -2.761188981,
				"element": "S" 
			},
			{
				"x": 1.1007442963,
				"y": -0.3424767343,
				"z": 0.7984787793,
				"element": "C" 
			},
			{
				"x": 0.3751213087,
				"y": -0.1909099984,
				"z": 1.9890413007,
				"element": "C" 
			},
			{
				"x": 1.0143640923,
				"y": 0.3290586935,
				"z": 3.1127378777,
				"element": "C" 
			},
			{
				"x": 2.2999713545,
				"y": 0.7034438992,
				"z": 3.1414308214,
				"element": "N" 
			},
			{
				"x": 2.9883933126,
				"y": 0.5565479885,
				"z": 2.0006367601,
				"element": "C" 
			},
			{
				"x": 2.4486774393,
				"y": 0.0485716255,
				"z": 0.8225094926,
				"element": "C" 
			},
			{
				"x": -2.7598667212,
				"y": -2.8244153035,
				"z": -2.3996567973,
				"element": "H" 
			},
			{
				"x": -3.1517658441,
				"y": -2.2251822051,
				"z": -0.8616009577,
				"element": "H" 
			},
			{
				"x": 2.0592056416,
				"y": -0.8892625088,
				"z": -1.9286881283,
				"element": "H" 
			},
			{
				"x": -0.6691793703,
				"y": -0.4776456537,
				"z": 2.0221828619,
				"element": "H" 
			},
			{
				"x": 0.4603030071,
				"y": 0.4513139349,
				"z": 4.0422393719,
				"element": "H" 
			},
			{
				"x": 4.0330289357,
				"y": 0.862592475,
				"z": 2.0291982189,
				"element": "H" 
			},
			{
				"x": 3.0773382466,
				"y": -0.0370189791,
				"z": -0.0580844375,
				"element": "H" 
			}
		],
		 "valence_orbital": [ 
			{
				"type": "occ",
				"energy": -0.28259,
				"method": "rhf"
			},
			{
				"type": "occ",
				"energy": -0.26784,
				"method": "rhf"
			},
			{
				"type": "occ",
				"energy": -0.25458,
				"method": "rhf"
			},
			{
				"type": "occ",
				"energy": -0.24683,
				"method": "rhf"
			},
			{
				"type": "occ",
				"energy": -0.21392,
				"method": "rhf"
			},
			{
				"type": "unocc",
				"energy": -0.04467,
				"method": "rhf"
			},
			{
				"type": "unocc",
				"energy": -0.00543,
				"method": "rhf"
			},
			{
				"type": "unocc",
				"energy": 0.00111,
				"method": "rhf"
			},
			{
				"type": "unocc",
				"energy": 0.00889,
				"method": "rhf"
			},
			{
				"type": "unocc",
				"energy": 0.06233,
				"method": "rhf"
			}
		],
		"cosmo_sigma_profile": { 
			"-0.025": 0.0,
			"-0.024": 0.0,
			"-0.023": 0.0,
			"-0.022": 0.0,
			"-0.021": 0.0,
			"-0.02": 0.0,
			"-0.019": 0.0,
			"-0.018": 0.0,
			"-0.017": 0.0,
			"-0.016": 0.0,
			"-0.015": 0.639131014914,
			"-0.014": 2.07934945614,
			"-0.013": 2.85215253491,
			"-0.012": 3.08230119841,
			"-0.011": 2.15379035735,
			"-0.01": 3.10176746639,
			"-0.009": 4.55465206142,
			"-0.008": 4.6519093788,
			"-0.007": 4.51169332779,
			"-0.006": 8.48309687541,
			"-0.005": 10.229167493,
			"-0.004": 10.0023185144,
			"-0.003": 8.90931822014,
			"-0.002": 8.94598256503,
			"-0.001": 7.68220421327,
			"0.0": 10.9595079621,
			"0.001": 16.3042658529,
			"0.002": 25.5440888886,
			"0.003": 27.647037479,
			"0.004": 10.5297621582,
			"0.005": 6.31386280403,
			"0.006": 3.94469655967,
			"0.007": 3.73742046414,
			"0.008": 3.48244922816,
			"0.009": 2.83563017657,
			"0.01": 4.10598768095,
			"0.011": 2.37143626311,
			"0.012": 0.899426446208,
			"0.013": 0.968661852032,
			"0.014": 0.801249769089,
			"0.015": 1.06288955453,
			"0.016": 0.752943919439,
			"0.017": 0.646116919926,
			"0.018": 0.0,
			"0.019": 0.0,
			"0.02": 0.0,
			"0.021": 0.0,
			"0.022": 0.0,
			"0.023": 0.0,
			"0.024": 0.0,
			"0.025": 0.0
		}
	}
}
