{
	 "smiles": "O=C1NC2=C(C=CN=C2)N1CC1=CC=CC=C1", 
	 "Tm": 487.15, 
	 "num_atms": 28, 
	 "gaussian": { 
		 "optdone": 1, 
		 "sigma_profile": "yes", 
		 "theory": "DFT", 
		 "functional": "B3LYP", 
		 "basiset": "6-31G**", 
		 "properties": { 
			 "R2extent": 4991.7001, 
			 "electric_dipole_moment_norm": 1.34270682951, 
			 "electric_quadrupole_moment_norm": 17.6594702653, 
			 "total_energy": -741.521896179, 
			 "HOMO_LUMO_gap": 0.20568, 
			 "cosmo_polarized_energy": -15.94, 
			 "cosmo_cavitation_energy": 32.46, 
			 "cosmo_dispersion_energy": -23.1, 
			 "cosmo_repulsion_energy": 1.76, 
			 "cosmo_total_nonelectrostatic_energy": 11.12, 
			 "SMD_solvation_energy": 4.29 
		},
		"coords": [
			{
				"x": -1.0292420657,
				"y": -1.7450202145,
				"z": 3.7528389983,
				"element": "O" 
			},
			{
				"x": -0.538852609,
				"y": -1.647511453,
				"z": 2.6403570116,
				"element": "C" 
			},
			{
				"x": 0.6216085576,
				"y": -2.2447129154,
				"z": 2.1590167284,
				"element": "N" 
			},
			{
				"x": 0.8610042502,
				"y": -1.8701050587,
				"z": 0.8419466804,
				"element": "C" 
			},
			{
				"x": -0.1913543324,
				"y": -1.0060821011,
				"z": 0.4732940367,
				"element": "C" 
			},
			{
				"x": -0.2135388368,
				"y": -0.4655945865,
				"z": -0.8061426817,
				"element": "C" 
			},
			{
				"x": 0.8394539381,
				"y": -0.8381129901,
				"z": -1.6524615741,
				"element": "C" 
			},
			{
				"x": 1.8413366713,
				"y": -1.6593878904,
				"z": -1.314679492,
				"element": "N" 
			},
			{
				"x": 1.8564757234,
				"y": -2.1744656406,
				"z": -0.074388605,
				"element": "C" 
			},
			{
				"x": -1.0358677338,
				"y": -0.8941361743,
				"z": 1.5647590932,
				"element": "N" 
			},
			{
				"x": -2.2658094505,
				"y": -0.1138133934,
				"z": 1.6688243809,
				"element": "C" 
			},
			{
				"x": -2.0345527682,
				"y": 1.3669936473,
				"z": 1.9067052253,
				"element": "C" 
			},
			{
				"x": -2.4205414197,
				"y": 2.315939543,
				"z": 0.9553696556,
				"element": "C" 
			},
			{
				"x": -2.2100495509,
				"y": 3.6782043465,
				"z": 1.1838221412,
				"element": "C" 
			},
			{
				"x": -1.6083820483,
				"y": 4.1006710777,
				"z": 2.3688674118,
				"element": "C" 
			},
			{
				"x": -1.2231197902,
				"y": 3.1577939326,
				"z": 3.3265677415,
				"element": "C" 
			},
			{
				"x": -1.4369232998,
				"y": 1.7994594051,
				"z": 3.0993209823,
				"element": "C" 
			},
			{
				"x": 1.1885078049,
				"y": -2.8425748208,
				"z": 2.738363363,
				"element": "H" 
			},
			{
				"x": -0.9880369406,
				"y": 0.2158531422,
				"z": -1.1384336883,
				"element": "H" 
			},
			{
				"x": 0.8716836231,
				"y": -0.4428739574,
				"z": -2.6657523745,
				"element": "H" 
			},
			{
				"x": 2.6810688076,
				"y": -2.8381907006,
				"z": 0.1782240843,
				"element": "H" 
			},
			{
				"x": -2.8170000888,
				"y": -0.5538676225,
				"z": 2.5047114757,
				"element": "H" 
			},
			{
				"x": -2.8508179063,
				"y": -0.2699564883,
				"z": 0.7566996554,
				"element": "H" 
			},
			{
				"x": -2.8950799473,
				"y": 1.9905890703,
				"z": 0.0321108504,
				"element": "H" 
			},
			{
				"x": -2.5146858963,
				"y": 4.4052177847,
				"z": 0.4364457791,
				"element": "H" 
			},
			{
				"x": -1.4425368976,
				"y": 5.1589358246,
				"z": 2.5487555611,
				"element": "H" 
			},
			{
				"x": -0.7607749346,
				"y": 3.4830296434,
				"z": 4.2541846968,
				"element": "H" 
			},
			{
				"x": -1.1480728592,
				"y": 1.0648185902,
				"z": 3.8463728624,
				"element": "H" 
			}
		],
		 "valence_orbital": [ 
			{
				"type": "occ",
				"energy": -0.25709,
				"method": "rhf"
			},
			{
				"type": "occ",
				"energy": -0.25459,
				"method": "rhf"
			},
			{
				"type": "occ",
				"energy": -0.25334,
				"method": "rhf"
			},
			{
				"type": "occ",
				"energy": -0.24892,
				"method": "rhf"
			},
			{
				"type": "occ",
				"energy": -0.22381,
				"method": "rhf"
			},
			{
				"type": "unocc",
				"energy": -0.01813,
				"method": "rhf"
			},
			{
				"type": "unocc",
				"energy": -0.01281,
				"method": "rhf"
			},
			{
				"type": "unocc",
				"energy": -0.00834,
				"method": "rhf"
			},
			{
				"type": "unocc",
				"energy": -0.00222,
				"method": "rhf"
			},
			{
				"type": "unocc",
				"energy": 0.05556,
				"method": "rhf"
			}
		],
		"cosmo_sigma_profile": { 
			"-0.025": 0.0,
			"-0.024": 0.0,
			"-0.023": 0.0,
			"-0.022": 0.0,
			"-0.021": 0.0,
			"-0.02": 0.0,
			"-0.019": 0.0,
			"-0.018": 0.0,
			"-0.017": 0.2269387273,
			"-0.016": 1.63231812334,
			"-0.015": 1.34441106539,
			"-0.014": 1.41552903919,
			"-0.013": 1.13672271116,
			"-0.012": 0.657544111527,
			"-0.011": 1.10158693223,
			"-0.01": 1.41512300572,
			"-0.009": 0.773958153178,
			"-0.008": 2.07031726565,
			"-0.007": 9.01099507063,
			"-0.006": 15.55895547,
			"-0.005": 17.8880356671,
			"-0.004": 19.1763086602,
			"-0.003": 19.4101238778,
			"-0.002": 17.5820798851,
			"-0.001": 18.7829750626,
			"0.0": 16.8510144969,
			"0.001": 19.8466270194,
			"0.002": 17.1182220111,
			"0.003": 17.3569401887,
			"0.004": 12.5116598493,
			"0.005": 12.4522073836,
			"0.006": 8.22421521264,
			"0.007": 2.48306781147,
			"0.008": 2.10673385841,
			"0.009": 2.82137634933,
			"0.01": 2.95461901589,
			"0.011": 1.93346921294,
			"0.012": 3.09748607817,
			"0.013": 7.16657983409,
			"0.014": 1.78250360605,
			"0.015": 0.700209889469,
			"0.016": 1.04782433246,
			"0.017": 0.695417488354,
			"0.018": 0.0578695274577,
			"0.019": 0.0,
			"0.02": 0.0,
			"0.021": 0.0,
			"0.022": 0.0,
			"0.023": 0.0,
			"0.024": 0.0,
			"0.025": 0.0
		}
	}
}
