{
	 "smiles": "O=CC=O", 
	 "Tm": 288.15, 
	 "num_atms": 6, 
	 "gaussian": { 
		 "optdone": 1, 
		 "sigma_profile": "yes", 
		 "theory": "DFT", 
		 "functional": "B3LYP", 
		 "basiset": "6-31G**", 
		 "properties": { 
			 "R2extent": 1168.3835, 
			 "electric_dipole_moment_norm": 0.00022360679775, 
			 "electric_quadrupole_moment_norm": 6.15300915163, 
			 "total_energy": -227.817009311, 
			 "HOMO_LUMO_gap": 0.15462, 
			 "cosmo_polarized_energy": -6.29, 
			 "cosmo_cavitation_energy": 11.06, 
			 "cosmo_dispersion_energy": -7.74, 
			 "cosmo_repulsion_energy": 0.74, 
			 "cosmo_total_nonelectrostatic_energy": 4.06, 
			 "SMD_solvation_energy": 4.77 
		},
		"coords": [
			{
				"x": 0.9647390483,
				"y": -3.4102430549,
				"z": 1.0941647546,
				"element": "O" 
			},
			{
				"x": 0.6039932676,
				"y": -2.439919089,
				"z": 1.7198814682,
				"element": "C" 
			},
			{
				"x": -0.8736320834,
				"y": -2.0978484724,
				"z": 1.8797185818,
				"element": "C" 
			},
			{
				"x": -1.2343674102,
				"y": -1.1274293654,
				"z": 2.5052939778,
				"element": "O" 
			},
			{
				"x": 1.2970369283,
				"y": -1.7318821975,
				"z": 2.2194455508,
				"element": "H" 
			},
			{
				"x": -1.5666697506,
				"y": -2.8057778207,
				"z": 1.3799956667,
				"element": "H" 
			}
		],
		 "valence_orbital": [ 
			{
				"type": "occ",
				"energy": -0.45713,
				"method": "rhf"
			},
			{
				"type": "occ",
				"energy": -0.44921,
				"method": "rhf"
			},
			{
				"type": "occ",
				"energy": -0.39671,
				"method": "rhf"
			},
			{
				"type": "occ",
				"energy": -0.32939,
				"method": "rhf"
			},
			{
				"type": "occ",
				"energy": -0.26888,
				"method": "rhf"
			},
			{
				"type": "unocc",
				"energy": -0.11426,
				"method": "rhf"
			},
			{
				"type": "unocc",
				"energy": 0.0195,
				"method": "rhf"
			},
			{
				"type": "unocc",
				"energy": 0.10416,
				"method": "rhf"
			},
			{
				"type": "unocc",
				"energy": 0.14495,
				"method": "rhf"
			},
			{
				"type": "unocc",
				"energy": 0.19184,
				"method": "rhf"
			}
		],
		"cosmo_sigma_profile": { 
			"-0.025": 0.0,
			"-0.024": 0.0,
			"-0.023": 0.0,
			"-0.022": 0.0,
			"-0.021": 0.0,
			"-0.02": 0.0,
			"-0.019": 0.0,
			"-0.018": 0.0,
			"-0.017": 0.0,
			"-0.016": 0.0,
			"-0.015": 0.0,
			"-0.014": 0.0,
			"-0.013": 0.0,
			"-0.012": 0.0,
			"-0.011": 0.0,
			"-0.01": 0.0,
			"-0.009": 1.53613047561,
			"-0.008": 12.3987948041,
			"-0.007": 8.92000454494,
			"-0.006": 5.32004291261,
			"-0.005": 5.32507982822,
			"-0.004": 2.89381184244,
			"-0.003": 3.78933182704,
			"-0.002": 3.06162014011,
			"-0.001": 2.16956181121,
			"0.0": 2.89577652572,
			"0.001": 2.72109797383,
			"0.002": 3.27477682412,
			"0.003": 2.13917073855,
			"0.004": 2.15795112452,
			"0.005": 3.70518193788,
			"0.006": 3.76412711759,
			"0.007": 3.60993558464,
			"0.008": 6.60913427296,
			"0.009": 7.96600981949,
			"0.01": 4.48821019233,
			"0.011": 0.385704932121,
			"0.012": 0.0,
			"0.013": 0.0,
			"0.014": 0.0,
			"0.015": 0.0,
			"0.016": 0.0,
			"0.017": 0.0,
			"0.018": 0.0,
			"0.019": 0.0,
			"0.02": 0.0,
			"0.021": 0.0,
			"0.022": 0.0,
			"0.023": 0.0,
			"0.024": 0.0,
			"0.025": 0.0
		}
	}
}
