{
	 "smiles": "OC(=O)CN(C(=O)C1=CC=C(Br)O1)C1=CC=CC=C1", 
	 "Tm": 403.15, 
	 "num_atms": 29, 
	 "gaussian": { 
		 "optdone": 1, 
		 "sigma_profile": "yes", 
		 "theory": "DFT", 
		 "functional": "B3LYP", 
		 "basiset": "6-31G**", 
		 "properties": { 
			 "R2extent": 10750.2326, 
			 "electric_dipole_moment_norm": 6.83517076744, 
			 "electric_quadrupole_moment_norm": 12.3034447786, 
			 "total_energy": -3428.44372571, 
			 "HOMO_LUMO_gap": 0.18035, 
			 "cosmo_polarized_energy": -16.36, 
			 "cosmo_cavitation_energy": 36.63, 
			 "cosmo_dispersion_energy": -25.91, 
			 "cosmo_repulsion_energy": 2.02, 
			 "cosmo_total_nonelectrostatic_energy": 12.73, 
			 "SMD_solvation_energy": 7.22 
		},
		"coords": [
			{
				"x": 0.5745376765,
				"y": 2.8476704478,
				"z": -2.3909981785,
				"element": "O" 
			},
			{
				"x": 0.9560119239,
				"y": 1.5658510186,
				"z": -2.3283519914,
				"element": "C" 
			},
			{
				"x": 2.0894142822,
				"y": 1.2119059348,
				"z": -2.5590834676,
				"element": "O" 
			},
			{
				"x": -0.1511077528,
				"y": 0.5675360276,
				"z": -1.9385194862,
				"element": "C" 
			},
			{
				"x": -0.5820114106,
				"y": 0.7030013046,
				"z": -0.5313958269,
				"element": "N" 
			},
			{
				"x": -1.4169457386,
				"y": 1.7516090924,
				"z": -0.2382863704,
				"element": "C" 
			},
			{
				"x": -1.7778920898,
				"y": 2.5352782099,
				"z": -1.1313338124,
				"element": "O" 
			},
			{
				"x": -1.8679243552,
				"y": 1.9752438734,
				"z": 1.1485813332,
				"element": "C" 
			},
			{
				"x": -1.485667435,
				"y": 1.5934191967,
				"z": 2.4131404876,
				"element": "C" 
			},
			{
				"x": -2.3008555115,
				"y": 2.3139062694,
				"z": 3.3309058761,
				"element": "C" 
			},
			{
				"x": -3.1232360569,
				"y": 3.0813798025,
				"z": 2.5547195505,
				"element": "C" 
			},
			{
				"x": -4.4810367436,
				"y": 4.2767852133,
				"z": 3.0081429015,
				"element": "Br" 
			},
			{
				"x": -2.8801458737,
				"y": 2.9046960779,
				"z": 1.2447019311,
				"element": "O" 
			},
			{
				"x": -0.1473025758,
				"y": -0.3089769857,
				"z": 0.3909246474,
				"element": "C" 
			},
			{
				"x": 1.1974852937,
				"y": -0.3629348285,
				"z": 0.7730779718,
				"element": "C" 
			},
			{
				"x": 1.6282342298,
				"y": -1.3692684609,
				"z": 1.6393239056,
				"element": "C" 
			},
			{
				"x": 0.7223964786,
				"y": -2.3155207248,
				"z": 2.1237337599,
				"element": "C" 
			},
			{
				"x": -0.6166844143,
				"y": -2.2658165314,
				"z": 1.7283295409,
				"element": "C" 
			},
			{
				"x": -1.0525849194,
				"y": -1.2701690022,
				"z": 0.8542063532,
				"element": "C" 
			},
			{
				"x": -0.3679550282,
				"y": 2.9198566346,
				"z": -2.1066128409,
				"element": "H" 
			},
			{
				"x": 0.2452746243,
				"y": -0.4367749272,
				"z": -2.0720910719,
				"element": "H" 
			},
			{
				"x": -1.0241753225,
				"y": 0.7114203071,
				"z": -2.5836520515,
				"element": "H" 
			},
			{
				"x": -0.7074208421,
				"y": 0.8917278585,
				"z": 2.6661785903,
				"element": "H" 
			},
			{
				"x": -2.2846566255,
				"y": 2.2726332379,
				"z": 4.4089307099,
				"element": "H" 
			},
			{
				"x": 1.8954595428,
				"y": 0.369975747,
				"z": 0.3808197622,
				"element": "H" 
			},
			{
				"x": 2.6722526187,
				"y": -1.4118066992,
				"z": 1.9342428211,
				"element": "H" 
			},
			{
				"x": 1.0604573106,
				"y": -3.0949716113,
				"z": 2.7999189068,
				"element": "H" 
			},
			{
				"x": -1.321090042,
				"y": -3.0078191217,
				"z": 2.0920520755,
				"element": "H" 
			},
			{
				"x": -2.0884312435,
				"y": -1.227237361,
				"z": 0.5329939734,
				"element": "H" 
			}
		],
		 "valence_orbital": [ 
			{
				"type": "occ",
				"energy": -0.29154,
				"method": "rhf"
			},
			{
				"type": "occ",
				"energy": -0.27707,
				"method": "rhf"
			},
			{
				"type": "occ",
				"energy": -0.26807,
				"method": "rhf"
			},
			{
				"type": "occ",
				"energy": -0.25727,
				"method": "rhf"
			},
			{
				"type": "occ",
				"energy": -0.24085,
				"method": "rhf"
			},
			{
				"type": "unocc",
				"energy": -0.0605,
				"method": "rhf"
			},
			{
				"type": "unocc",
				"energy": -0.03133,
				"method": "rhf"
			},
			{
				"type": "unocc",
				"energy": -0.02836,
				"method": "rhf"
			},
			{
				"type": "unocc",
				"energy": -0.00443,
				"method": "rhf"
			},
			{
				"type": "unocc",
				"energy": 0.01114,
				"method": "rhf"
			}
		],
		"cosmo_sigma_profile": { 
			"-0.025": 0.0,
			"-0.024": 0.0,
			"-0.023": 0.0,
			"-0.022": 0.0,
			"-0.021": 0.0,
			"-0.02": 0.0,
			"-0.019": 0.0,
			"-0.018": 0.0,
			"-0.017": 0.0,
			"-0.016": 0.0,
			"-0.015": 0.0,
			"-0.014": 0.0,
			"-0.013": 0.0,
			"-0.012": 0.0,
			"-0.011": 0.0,
			"-0.01": 0.0724470251478,
			"-0.009": 2.17544628534,
			"-0.008": 4.09223588164,
			"-0.007": 10.0043627864,
			"-0.006": 23.0150552736,
			"-0.005": 23.7771478644,
			"-0.004": 24.5849910311,
			"-0.003": 18.7243146092,
			"-0.002": 19.8873832507,
			"-0.001": 22.9577284828,
			"0.0": 23.8691119054,
			"0.001": 23.8655353175,
			"0.002": 27.0711124035,
			"0.003": 20.2018789571,
			"0.004": 8.85136404448,
			"0.005": 4.35088695128,
			"0.006": 3.28086523649,
			"0.007": 3.84253416666,
			"0.008": 4.14905609511,
			"0.009": 4.79178061144,
			"0.01": 6.00478907578,
			"0.011": 7.81452537999,
			"0.012": 6.72382227182,
			"0.013": 3.52396795993,
			"0.014": 0.241498055269,
			"0.015": 0.0,
			"0.016": 0.0,
			"0.017": 0.0,
			"0.018": 0.0,
			"0.019": 0.0,
			"0.02": 0.0,
			"0.021": 0.0,
			"0.022": 0.0,
			"0.023": 0.0,
			"0.024": 0.0,
			"0.025": 0.0
		}
	}
}
