{
	 "smiles": "ClC1=C(Cl)C(=CC=C1)C1=CC=C(O1)C=O", 
	 "Tm": 369.15, 
	 "num_atms": 21, 
	 "gaussian": { 
		 "optdone": 1, 
		 "sigma_profile": "yes", 
		 "theory": "DFT", 
		 "functional": "B3LYP", 
		 "basiset": "6-31G**", 
		 "properties": { 
			 "R2extent": 4400.6158, 
			 "electric_dipole_moment_norm": 5.91306841327, 
			 "electric_quadrupole_moment_norm": 14.705706356, 
			 "total_energy": -1493.57899015, 
			 "HOMO_LUMO_gap": 0.16353, 
			 "cosmo_polarized_energy": -13.47, 
			 "cosmo_cavitation_energy": 30.29, 
			 "cosmo_dispersion_energy": -21.81, 
			 "cosmo_repulsion_energy": 1.7, 
			 "cosmo_total_nonelectrostatic_energy": 10.18, 
			 "SMD_solvation_energy": 6.18 
		},
		"coords": [
			{
				"x": 2.0209105622,
				"y": -2.4032484198,
				"z": -2.8070646303,
				"element": "Cl" 
			},
			{
				"x": 1.7325472835,
				"y": -1.8189449039,
				"z": -1.1864000737,
				"element": "C" 
			},
			{
				"x": 0.7518741464,
				"y": -0.8480002034,
				"z": -0.9281729098,
				"element": "C" 
			},
			{
				"x": -0.2376683172,
				"y": -0.2537916475,
				"z": -2.2317314097,
				"element": "Cl" 
			},
			{
				"x": 0.5501538734,
				"y": -0.3984185823,
				"z": 0.3963126323,
				"element": "C" 
			},
			{
				"x": 1.3295547522,
				"y": -0.9566067746,
				"z": 1.4239144774,
				"element": "C" 
			},
			{
				"x": 2.2881827462,
				"y": -1.9276018424,
				"z": 1.1577444617,
				"element": "C" 
			},
			{
				"x": 2.4975933671,
				"y": -2.3559907704,
				"z": -0.1497672397,
				"element": "C" 
			},
			{
				"x": -0.4505196218,
				"y": 0.603712011,
				"z": 0.7790009151,
				"element": "C" 
			},
			{
				"x": -1.2813828928,
				"y": 0.6612498184,
				"z": 1.8780409408,
				"element": "C" 
			},
			{
				"x": -2.0005387621,
				"y": 1.8778851828,
				"z": 1.7714415975,
				"element": "C" 
			},
			{
				"x": -1.5634414827,
				"y": 2.4897205346,
				"z": 0.6189953375,
				"element": "C" 
			},
			{
				"x": -0.6160340192,
				"y": 1.7124646825,
				"z": 0.014827088,
				"element": "O" 
			},
			{
				"x": -1.9439866749,
				"y": 3.7565961914,
				"z": 0.0103531452,
				"element": "C" 
			},
			{
				"x": -1.4842171582,
				"y": 4.2094308453,
				"z": -1.0214740491,
				"element": "O" 
			},
			{
				"x": 1.1863506131,
				"y": -0.5946011931,
				"z": 2.436305008,
				"element": "H" 
			},
			{
				"x": 2.8844730016,
				"y": -2.3412002947,
				"z": 1.964480635,
				"element": "H" 
			},
			{
				"x": 3.2477237387,
				"y": -3.1034619536,
				"z": -0.3814806954,
				"element": "H" 
			},
			{
				"x": -1.3758575146,
				"y": -0.0944934691,
				"z": 2.6439479257,
				"element": "H" 
			},
			{
				"x": -2.7523795011,
				"y": 2.2597440147,
				"z": 2.4479637425,
				"element": "H" 
			},
			{
				"x": -2.7210381396,
				"y": 4.295356774,
				"z": 0.5954631009,
				"element": "H" 
			}
		],
		 "valence_orbital": [ 
			{
				"type": "occ",
				"energy": -0.3015,
				"method": "rhf"
			},
			{
				"type": "occ",
				"energy": -0.28752,
				"method": "rhf"
			},
			{
				"type": "occ",
				"energy": -0.25813,
				"method": "rhf"
			},
			{
				"type": "occ",
				"energy": -0.25695,
				"method": "rhf"
			},
			{
				"type": "occ",
				"energy": -0.23791,
				"method": "rhf"
			},
			{
				"type": "unocc",
				"energy": -0.07438,
				"method": "rhf"
			},
			{
				"type": "unocc",
				"energy": -0.03359,
				"method": "rhf"
			},
			{
				"type": "unocc",
				"energy": -0.03317,
				"method": "rhf"
			},
			{
				"type": "unocc",
				"energy": -0.00099,
				"method": "rhf"
			},
			{
				"type": "unocc",
				"energy": 0.03423,
				"method": "rhf"
			}
		],
		"cosmo_sigma_profile": { 
			"-0.025": 0.0,
			"-0.024": 0.0,
			"-0.023": 0.0,
			"-0.022": 0.0,
			"-0.021": 0.0,
			"-0.02": 0.0,
			"-0.019": 0.0,
			"-0.018": 0.0,
			"-0.017": 0.0,
			"-0.016": 0.0,
			"-0.015": 0.0,
			"-0.014": 0.0,
			"-0.013": 0.0,
			"-0.012": 0.0,
			"-0.011": 0.0,
			"-0.01": 0.0160928242325,
			"-0.009": 2.46650448813,
			"-0.008": 9.30772637517,
			"-0.007": 14.4012263783,
			"-0.006": 12.9999112561,
			"-0.005": 10.2257091248,
			"-0.004": 10.3866828771,
			"-0.003": 12.2529368346,
			"-0.002": 13.502947901,
			"-0.001": 21.4254300971,
			"0.0": 30.2418278933,
			"0.001": 25.552777418,
			"0.002": 23.1333882074,
			"0.003": 16.6113043048,
			"0.004": 15.1962574512,
			"0.005": 6.71268549054,
			"0.006": 3.06134790801,
			"0.007": 2.72627379014,
			"0.008": 2.15354487059,
			"0.009": 3.02628549996,
			"0.01": 3.19747964989,
			"0.011": 4.20766999696,
			"0.012": 4.73359480997,
			"0.013": 1.65325085711,
			"0.014": 0.000826869538479,
			"0.015": 0.0,
			"0.016": 0.0,
			"0.017": 0.0,
			"0.018": 0.0,
			"0.019": 0.0,
			"0.02": 0.0,
			"0.021": 0.0,
			"0.022": 0.0,
			"0.023": 0.0,
			"0.024": 0.0,
			"0.025": 0.0
		}
	}
}
