{
	 "smiles": "CC1=NC(=NN1)C1=CC=C(I)C=C1", 
	 "Tm": 471.15, 
	 "num_atms": 21, 
	 "gaussian": { 
		 "optdone": 1, 
		 "sigma_profile": "yes", 
		 "theory": "DFT", 
		 "functional": "B3LYP", 
		 "basiset": "6-31G**", 
		 "properties": { 
			 "R2extent": 3809.5757, 
			 "electric_dipole_moment_norm": 5.31630298798, 
			 "electric_quadrupole_moment_norm": 6.7568404532, 
			 "total_energy": -523.425012362, 
			 "HOMO_LUMO_gap": 0.18746, 
			 "cosmo_polarized_energy": -12.92, 
			 "cosmo_cavitation_energy": 28.92, 
			 "cosmo_dispersion_energy": -23.02, 
			 "cosmo_repulsion_energy": 1.79, 
			 "cosmo_total_nonelectrostatic_energy": 7.7, 
			 "SMD_solvation_energy": 1.74 
		},
		"coords": [
			{
				"x": -1.0735874238,
				"y": 2.6476946419,
				"z": -1.328661242,
				"element": "C" 
			},
			{
				"x": -0.7661351754,
				"y": 1.6592615522,
				"z": -0.2523962342,
				"element": "C" 
			},
			{
				"x": -0.4282845077,
				"y": 0.3924461447,
				"z": -0.4172474439,
				"element": "N" 
			},
			{
				"x": -0.2562071025,
				"y": -0.0698290393,
				"z": 0.8631554095,
				"element": "C" 
			},
			{
				"x": -0.469466867,
				"y": 0.8422819209,
				"z": 1.8079759962,
				"element": "N" 
			},
			{
				"x": -0.7930940813,
				"y": 1.9372019791,
				"z": 1.0761391663,
				"element": "N" 
			},
			{
				"x": 0.1304881049,
				"y": -1.4539874293,
				"z": 1.1670886098,
				"element": "C" 
			},
			{
				"x": 0.2949601335,
				"y": -1.8812966374,
				"z": 2.4931110397,
				"element": "C" 
			},
			{
				"x": 0.6616057141,
				"y": -3.1946467664,
				"z": 2.7766146345,
				"element": "C" 
			},
			{
				"x": 0.8658962625,
				"y": -4.0898983163,
				"z": 1.723517035,
				"element": "C" 
			},
			{
				"x": 1.4249469449,
				"y": -6.0932271401,
				"z": 2.1478463029,
				"element": "I" 
			},
			{
				"x": 0.707513865,
				"y": -3.6851014943,
				"z": 0.3970724587,
				"element": "C" 
			},
			{
				"x": 0.3402962132,
				"y": -2.3679790869,
				"z": 0.125491331,
				"element": "C" 
			},
			{
				"x": -2.0938705819,
				"y": 3.0361401908,
				"z": -1.2393163945,
				"element": "H" 
			},
			{
				"x": -0.9745049737,
				"y": 2.1526380534,
				"z": -2.2951416956,
				"element": "H" 
			},
			{
				"x": -0.3856241131,
				"y": 3.4996485803,
				"z": -1.301602536,
				"element": "H" 
			},
			{
				"x": -1.0114143613,
				"y": 2.8045261697,
				"z": 1.5435883339,
				"element": "H" 
			},
			{
				"x": 0.1334267018,
				"y": -1.1766315849,
				"z": 3.3021744739,
				"element": "H" 
			},
			{
				"x": 0.7860468699,
				"y": -3.5146048357,
				"z": 3.8049749711,
				"element": "H" 
			},
			{
				"x": 0.8672126992,
				"y": -4.3837516021,
				"z": -0.4164300543,
				"element": "H" 
			},
			{
				"x": 0.2126956789,
				"y": -2.0358853002,
				"z": -0.8992541621,
				"element": "H" 
			}
		],
		 "valence_orbital": [ 
			{
				"type": "occ",
				"energy": -0.27906,
				"method": "rhf"
			},
			{
				"type": "occ",
				"energy": -0.26394,
				"method": "rhf"
			},
			{
				"type": "occ",
				"energy": -0.2627,
				"method": "rhf"
			},
			{
				"type": "occ",
				"energy": -0.25722,
				"method": "rhf"
			},
			{
				"type": "occ",
				"energy": -0.22182,
				"method": "rhf"
			},
			{
				"type": "unocc",
				"energy": -0.03436,
				"method": "rhf"
			},
			{
				"type": "unocc",
				"energy": -0.03249,
				"method": "rhf"
			},
			{
				"type": "unocc",
				"energy": -0.0084,
				"method": "rhf"
			},
			{
				"type": "unocc",
				"energy": 0.01172,
				"method": "rhf"
			},
			{
				"type": "unocc",
				"energy": 0.04802,
				"method": "rhf"
			}
		],
		"cosmo_sigma_profile": { 
			"-0.025": 0.0,
			"-0.024": 0.0,
			"-0.023": 0.0,
			"-0.022": 0.0,
			"-0.021": 0.0,
			"-0.02": 0.0,
			"-0.019": 0.0,
			"-0.018": 0.0385179299157,
			"-0.017": 1.5357978692,
			"-0.016": 1.32151434902,
			"-0.015": 1.53411341137,
			"-0.014": 1.15929082001,
			"-0.013": 0.779667103291,
			"-0.012": 0.865988074131,
			"-0.011": 1.51336371033,
			"-0.01": 0.902170514316,
			"-0.009": 0.669610558974,
			"-0.008": 1.28339038718,
			"-0.007": 5.19215800352,
			"-0.006": 13.5132635697,
			"-0.005": 14.7005598967,
			"-0.004": 14.3481354943,
			"-0.003": 14.0246924109,
			"-0.002": 14.4138071235,
			"-0.001": 14.1315380382,
			"0.0": 13.7412258241,
			"0.001": 15.1853180916,
			"0.002": 26.2423214374,
			"0.003": 25.6111817071,
			"0.004": 24.6822444856,
			"0.005": 9.17700355679,
			"0.006": 3.43570253706,
			"0.007": 3.03579952947,
			"0.008": 2.6378785143,
			"0.009": 2.20899561217,
			"0.01": 2.25052856855,
			"0.011": 2.43660818124,
			"0.012": 1.67363654971,
			"0.013": 1.86726248179,
			"0.014": 0.994001384954,
			"0.015": 0.0247106906208,
			"0.016": 0.0,
			"0.017": 0.0,
			"0.018": 0.0,
			"0.019": 0.0,
			"0.02": 0.0,
			"0.021": 0.0,
			"0.022": 0.0,
			"0.023": 0.0,
			"0.024": 0.0,
			"0.025": 0.0
		}
	}
}
