{
	 "smiles": "CC1CCSCC1", 
	 "Tm": 245.15, 
	 "num_atms": 19, 
	 "gaussian": { 
		 "optdone": 1, 
		 "sigma_profile": "yes", 
		 "theory": "DFT", 
		 "functional": "B3LYP", 
		 "basiset": "6-31G**", 
		 "properties": { 
			 "R2extent": 1079.4317, 
			 "electric_dipole_moment_norm": 1.9135374833, 
			 "electric_quadrupole_moment_norm": 4.99533762222, 
			 "total_energy": -634.077603287, 
			 "HOMO_LUMO_gap": 0.2594, 
			 "cosmo_polarized_energy": -3.99, 
			 "cosmo_cavitation_energy": 21.02, 
			 "cosmo_dispersion_energy": -16.43, 
			 "cosmo_repulsion_energy": 1.32, 
			 "cosmo_total_nonelectrostatic_energy": 5.91, 
			 "SMD_solvation_energy": 2.61 
		},
		"coords": [
			{
				"x": 0.3221328789,
				"y": -1.4681384596,
				"z": -2.5158094162,
				"element": "C" 
			},
			{
				"x": 0.6343265897,
				"y": -0.9535416355,
				"z": -1.1051670747,
				"element": "C" 
			},
			{
				"x": -0.6429818361,
				"y": -0.8944660052,
				"z": -0.2459158022,
				"element": "C" 
			},
			{
				"x": -0.391293865,
				"y": -0.4649185175,
				"z": 1.2026155818,
				"element": "C" 
			},
			{
				"x": 0.3412456211,
				"y": 1.2125900907,
				"z": 1.3348678231,
				"element": "S" 
			},
			{
				"x": 1.765842856,
				"y": 0.9464250418,
				"z": 0.2092134075,
				"element": "C" 
			},
			{
				"x": 1.3502456212,
				"y": 0.4093946959,
				"z": -1.1637378668,
				"element": "C" 
			},
			{
				"x": -0.1498174808,
				"y": -2.4562221842,
				"z": -2.4836655256,
				"element": "H" 
			},
			{
				"x": 1.2324540949,
				"y": -1.550323119,
				"z": -3.1196872932,
				"element": "H" 
			},
			{
				"x": -0.3628942352,
				"y": -0.7893710883,
				"z": -3.0380054852,
				"element": "H" 
			},
			{
				"x": 1.322560726,
				"y": -1.6690657562,
				"z": -0.6268961585,
				"element": "H" 
			},
			{
				"x": -1.3603777237,
				"y": -0.20373103,
				"z": -0.7079669766,
				"element": "H" 
			},
			{
				"x": -1.1154330708,
				"y": -1.8865824135,
				"z": -0.2375442505,
				"element": "H" 
			},
			{
				"x": -1.3269267742,
				"y": -0.4225179068,
				"z": 1.7676748849,
				"element": "H" 
			},
			{
				"x": 0.2666202747,
				"y": -1.1814136626,
				"z": 1.7092718838,
				"element": "H" 
			},
			{
				"x": 2.4778805651,
				"y": 0.2655009856,
				"z": 0.6911518061,
				"element": "H" 
			},
			{
				"x": 2.2543138994,
				"y": 1.9209063589,
				"z": 0.1181421492,
				"element": "H" 
			},
			{
				"x": 0.6971870596,
				"y": 1.1422435999,
				"z": -1.6554079404,
				"element": "H" 
			},
			{
				"x": 2.2501147994,
				"y": 0.3150310054,
				"z": -1.7873337466,
				"element": "H" 
			}
		],
		 "valence_orbital": [ 
			{
				"type": "occ",
				"energy": -0.34191,
				"method": "rhf"
			},
			{
				"type": "occ",
				"energy": -0.32378,
				"method": "rhf"
			},
			{
				"type": "occ",
				"energy": -0.30481,
				"method": "rhf"
			},
			{
				"type": "occ",
				"energy": -0.29232,
				"method": "rhf"
			},
			{
				"type": "occ",
				"energy": -0.21392,
				"method": "rhf"
			},
			{
				"type": "unocc",
				"energy": 0.04548,
				"method": "rhf"
			},
			{
				"type": "unocc",
				"energy": 0.08236,
				"method": "rhf"
			},
			{
				"type": "unocc",
				"energy": 0.09174,
				"method": "rhf"
			},
			{
				"type": "unocc",
				"energy": 0.10634,
				"method": "rhf"
			},
			{
				"type": "unocc",
				"energy": 0.11603,
				"method": "rhf"
			}
		],
		"cosmo_sigma_profile": { 
			"-0.025": 0.0,
			"-0.024": 0.0,
			"-0.023": 0.0,
			"-0.022": 0.0,
			"-0.021": 0.0,
			"-0.02": 0.0,
			"-0.019": 0.0,
			"-0.018": 0.0,
			"-0.017": 0.0,
			"-0.016": 0.0,
			"-0.015": 0.0,
			"-0.014": 0.0,
			"-0.013": 0.0,
			"-0.012": 0.0,
			"-0.011": 0.0,
			"-0.01": 0.0,
			"-0.009": 0.0,
			"-0.008": 0.0,
			"-0.007": 0.0,
			"-0.006": 0.339242964378,
			"-0.005": 3.99547048221,
			"-0.004": 8.46070807453,
			"-0.003": 19.1746285126,
			"-0.002": 34.7412175172,
			"-0.001": 30.0309787168,
			"0.0": 17.8316430992,
			"0.001": 15.3550612145,
			"0.002": 7.84839866748,
			"0.003": 2.48610183396,
			"0.004": 3.68650551378,
			"0.005": 2.79833641002,
			"0.006": 3.3516534207,
			"0.007": 3.19227649361,
			"0.008": 3.52556253637,
			"0.009": 1.89058589291,
			"0.01": 2.06531436692,
			"0.011": 2.16129512961,
			"0.012": 1.04694369939,
			"0.013": 0.00815753383257,
			"0.014": 0.0,
			"0.015": 0.0,
			"0.016": 0.0,
			"0.017": 0.0,
			"0.018": 0.0,
			"0.019": 0.0,
			"0.02": 0.0,
			"0.021": 0.0,
			"0.022": 0.0,
			"0.023": 0.0,
			"0.024": 0.0,
			"0.025": 0.0
		}
	}
}
