{
	 "smiles": "NC1=NC(Cl)=CC=C1", 
	 "Tm": 344.15, 
	 "num_atms": 13, 
	 "gaussian": { 
		 "optdone": 1, 
		 "sigma_profile": "yes", 
		 "theory": "DFT", 
		 "functional": "B3LYP", 
		 "basiset": "6-31G**", 
		 "properties": { 
			 "R2extent": 1638.0112, 
			 "electric_dipole_moment_norm": 4.75919277294, 
			 "electric_quadrupole_moment_norm": 8.91520014133, 
			 "total_energy": -763.2290517, 
			 "HOMO_LUMO_gap": 0.22309, 
			 "cosmo_polarized_energy": -13.19, 
			 "cosmo_cavitation_energy": 19.12, 
			 "cosmo_dispersion_energy": -14.58, 
			 "cosmo_repulsion_energy": 1.23, 
			 "cosmo_total_nonelectrostatic_energy": 5.77, 
			 "SMD_solvation_energy": 1.58 
		},
		"coords": [
			{
				"x": -0.8943456792,
				"y": 2.1826143746,
				"z": -0.2825257355,
				"element": "N" 
			},
			{
				"x": -0.8271321453,
				"y": 0.7629978526,
				"z": -0.0930878276,
				"element": "C" 
			},
			{
				"x": -1.3728658165,
				"y": 0.0201838098,
				"z": -1.0660953088,
				"element": "N" 
			},
			{
				"x": -1.3377179871,
				"y": -1.2922602431,
				"z": -0.9409234245,
				"element": "C" 
			},
			{
				"x": -2.0692112388,
				"y": -2.2293792685,
				"z": -2.2476841608,
				"element": "Cl" 
			},
			{
				"x": -0.7732245812,
				"y": -1.9837321208,
				"z": 0.1325968843,
				"element": "C" 
			},
			{
				"x": -0.2067192344,
				"y": -1.2103811141,
				"z": 1.1425946886,
				"element": "C" 
			},
			{
				"x": -0.2311767678,
				"y": 0.1793239357,
				"z": 1.0336326452,
				"element": "C" 
			},
			{
				"x": 0.0409116135,
				"y": 2.582110359,
				"z": -0.2887433902,
				"element": "H" 
			},
			{
				"x": -1.3938691882,
				"y": 2.6179940725,
				"z": 0.4890052834,
				"element": "H" 
			},
			{
				"x": -0.7811168985,
				"y": -3.0661395267,
				"z": 0.167738373,
				"element": "H" 
			},
			{
				"x": 0.2486258722,
				"y": -1.6888103165,
				"z": 2.0048963019,
				"element": "H" 
			},
			{
				"x": 0.2025420512,
				"y": 0.8077781855,
				"z": 1.8051956709,
				"element": "H" 
			}
		],
		 "valence_orbital": [ 
			{
				"type": "occ",
				"energy": -0.31037,
				"method": "rhf"
			},
			{
				"type": "occ",
				"energy": -0.29726,
				"method": "rhf"
			},
			{
				"type": "occ",
				"energy": -0.27603,
				"method": "rhf"
			},
			{
				"type": "occ",
				"energy": -0.25966,
				"method": "rhf"
			},
			{
				"type": "occ",
				"energy": -0.25669,
				"method": "rhf"
			},
			{
				"type": "unocc",
				"energy": -0.0336,
				"method": "rhf"
			},
			{
				"type": "unocc",
				"energy": -0.02616,
				"method": "rhf"
			},
			{
				"type": "unocc",
				"energy": 0.03606,
				"method": "rhf"
			},
			{
				"type": "unocc",
				"energy": 0.07997,
				"method": "rhf"
			},
			{
				"type": "unocc",
				"energy": 0.10196,
				"method": "rhf"
			}
		],
		"cosmo_sigma_profile": { 
			"-0.025": 0.0,
			"-0.024": 0.0,
			"-0.023": 0.0,
			"-0.022": 0.0,
			"-0.021": 0.0,
			"-0.02": 0.0,
			"-0.019": 0.0,
			"-0.018": 0.0,
			"-0.017": 0.0,
			"-0.016": 0.0,
			"-0.015": 0.0,
			"-0.014": 0.0,
			"-0.013": 0.0,
			"-0.012": 1.32766964456,
			"-0.011": 3.13522804592,
			"-0.01": 3.07152279398,
			"-0.009": 2.71812725694,
			"-0.008": 6.16825449383,
			"-0.007": 10.2175223908,
			"-0.006": 9.56419964162,
			"-0.005": 6.94113586391,
			"-0.004": 6.23201053326,
			"-0.003": 4.90448327565,
			"-0.002": 5.89221463293,
			"-0.001": 8.5208144921,
			"0.0": 14.6377033282,
			"0.001": 14.7211389154,
			"0.002": 11.6496864881,
			"0.003": 6.35882830187,
			"0.004": 9.71576886942,
			"0.005": 8.09858355331,
			"0.006": 3.42804075461,
			"0.007": 1.86259313062,
			"0.008": 1.80630672023,
			"0.009": 1.97583787905,
			"0.01": 0.985485440681,
			"0.011": 1.40196160329,
			"0.012": 0.97437552016,
			"0.013": 1.86225464023,
			"0.014": 1.53012018033,
			"0.015": 0.874485939157,
			"0.016": 1.488931702,
			"0.017": 1.21865810697,
			"0.018": 1.0478022259,
			"0.019": 0.750739876999,
			"0.02": 0.112745353019,
			"0.021": 0.0,
			"0.022": 0.0,
			"0.023": 0.0,
			"0.024": 0.0,
			"0.025": 0.0
		}
	}
}
