{
	 "smiles": "COC1=CC=C(C=C1)C(C1=C(O)C=C(C)OC1=O)C1=C(O)C=C(C)OC1=O", 
	 "Tm": 437.15, 
	 "num_atms": 45, 
	 "gaussian": { 
		 "optdone": 1, 
		 "sigma_profile": "yes", 
		 "theory": "DFT", 
		 "functional": "B3LYP", 
		 "basiset": "6-31G**", 
		 "properties": { 
			 "R2extent": 11236.0471, 
			 "electric_dipole_moment_norm": 10.0409816398, 
			 "electric_quadrupole_moment_norm": 32.5615175211, 
			 "total_energy": -1299.51270338, 
			 "HOMO_LUMO_gap": 0.16081, 
			 "cosmo_polarized_energy": -39.96, 
			 "cosmo_cavitation_energy": 49.6, 
			 "cosmo_dispersion_energy": -33.52, 
			 "cosmo_repulsion_energy": 2.59, 
			 "cosmo_total_nonelectrostatic_energy": 18.67, 
			 "SMD_solvation_energy": 12.47 
		},
		"coords": [
			{
				"x": 1.9143929014,
				"y": 4.3640222885,
				"z": 2.3442927749,
				"element": "C" 
			},
			{
				"x": 2.6432616494,
				"y": 3.4148216615,
				"z": 1.5873717463,
				"element": "O" 
			},
			{
				"x": 1.9595054179,
				"y": 2.3540558047,
				"z": 1.056424017,
				"element": "C" 
			},
			{
				"x": 0.5932650231,
				"y": 2.1176463614,
				"z": 1.228837626,
				"element": "C" 
			},
			{
				"x": 0.0037762145,
				"y": 0.9949645948,
				"z": 0.6366965951,
				"element": "C" 
			},
			{
				"x": 0.7438446359,
				"y": 0.0972965879,
				"z": -0.129679315,
				"element": "C" 
			},
			{
				"x": 2.1133279049,
				"y": 0.3597219498,
				"z": -0.2999692277,
				"element": "C" 
			},
			{
				"x": 2.7191978338,
				"y": 1.4631014658,
				"z": 0.2840047233,
				"element": "C" 
			},
			{
				"x": 0.138491808,
				"y": -1.1258821257,
				"z": -0.8240997576,
				"element": "C" 
			},
			{
				"x": 0.6134862084,
				"y": -2.4744333714,
				"z": -0.2874796991,
				"element": "C" 
			},
			{
				"x": 0.9941843114,
				"y": -2.7675743642,
				"z": 1.000153344,
				"element": "C" 
			},
			{
				"x": 0.9180055355,
				"y": -1.8253292983,
				"z": 1.9655436332,
				"element": "O" 
			},
			{
				"x": 1.474077225,
				"y": -4.0761577459,
				"z": 1.3520538755,
				"element": "C" 
			},
			{
				"x": 1.5336798805,
				"y": -5.0418971092,
				"z": 0.4055014084,
				"element": "C" 
			},
			{
				"x": 2.0081725611,
				"y": -6.4454004228,
				"z": 0.6053119869,
				"element": "C" 
			},
			{
				"x": 1.1453032016,
				"y": -4.7973772795,
				"z": -0.8588653108,
				"element": "O" 
			},
			{
				"x": 0.6573613224,
				"y": -3.5297121622,
				"z": -1.2809989203,
				"element": "C" 
			},
			{
				"x": 0.3257480565,
				"y": -3.453466107,
				"z": -2.4428331806,
				"element": "O" 
			},
			{
				"x": -1.3693215492,
				"y": -1.0521753052,
				"z": -1.0354572563,
				"element": "C" 
			},
			{
				"x": -2.3375073064,
				"y": -1.4972452653,
				"z": -0.1716200421,
				"element": "C" 
			},
			{
				"x": -1.9826608859,
				"y": -2.0202972228,
				"z": 1.0295762151,
				"element": "O" 
			},
			{
				"x": -3.7328084452,
				"y": -1.4157209038,
				"z": -0.5044756092,
				"element": "C" 
			},
			{
				"x": -4.098513185,
				"y": -0.8786210297,
				"z": -1.6925487583,
				"element": "C" 
			},
			{
				"x": -5.4970161398,
				"y": -0.7289843542,
				"z": -2.1986581871,
				"element": "C" 
			},
			{
				"x": -3.1795785866,
				"y": -0.4095272415,
				"z": -2.5544836121,
				"element": "O" 
			},
			{
				"x": -1.7826442347,
				"y": -0.4426831489,
				"z": -2.2878698013,
				"element": "C" 
			},
			{
				"x": -1.0719965843,
				"y": 0.0475685712,
				"z": -3.1333298435,
				"element": "O" 
			},
			{
				"x": 1.1258831487,
				"y": 4.8417556598,
				"z": 1.7477076534,
				"element": "H" 
			},
			{
				"x": 1.4592070566,
				"y": 3.9124522959,
				"z": 3.2362543942,
				"element": "H" 
			},
			{
				"x": 2.6351822972,
				"y": 5.1218792004,
				"z": 2.656691843,
				"element": "H" 
			},
			{
				"x": -0.0215257549,
				"y": 2.7921758243,
				"z": 1.8135540519,
				"element": "H" 
			},
			{
				"x": -1.0586216261,
				"y": 0.8282686965,
				"z": 0.7814657462,
				"element": "H" 
			},
			{
				"x": 2.7132506121,
				"y": -0.3147538775,
				"z": -0.9062328397,
				"element": "H" 
			},
			{
				"x": 3.7764151481,
				"y": 1.666498923,
				"z": 0.1460505569,
				"element": "H" 
			},
			{
				"x": 0.5261071791,
				"y": -1.0975631255,
				"z": -1.8482759423,
				"element": "H" 
			},
			{
				"x": 1.2882205151,
				"y": -2.1725570885,
				"z": 2.7873275748,
				"element": "H" 
			},
			{
				"x": 1.7839236675,
				"y": -4.294354053,
				"z": 2.3688977235,
				"element": "H" 
			},
			{
				"x": 2.3132626097,
				"y": -6.6123734455,
				"z": 1.6402835305,
				"element": "H" 
			},
			{
				"x": 1.2150004281,
				"y": -7.1556293744,
				"z": 0.3481558619,
				"element": "H" 
			},
			{
				"x": 2.856720768,
				"y": -6.6565484749,
				"z": -0.0542701034,
				"element": "H" 
			},
			{
				"x": -2.7761361285,
				"y": -2.2990866775,
				"z": 1.5044078891,
				"element": "H" 
			},
			{
				"x": -4.4892808547,
				"y": -1.7817194903,
				"z": 0.1819320355,
				"element": "H" 
			},
			{
				"x": -5.7185211923,
				"y": 0.3250315309,
				"z": -2.3973883806,
				"element": "H" 
			},
			{
				"x": -5.6162847992,
				"y": -1.2683801067,
				"z": -3.1443575921,
				"element": "H" 
			},
			{
				"x": -6.2190378488,
				"y": -1.114611245,
				"z": -1.4761034276,
				"element": "H" 
			}
		],
		 "valence_orbital": [ 
			{
				"type": "occ",
				"energy": -0.25843,
				"method": "rhf"
			},
			{
				"type": "occ",
				"energy": -0.23532,
				"method": "rhf"
			},
			{
				"type": "occ",
				"energy": -0.21688,
				"method": "rhf"
			},
			{
				"type": "occ",
				"energy": -0.21199,
				"method": "rhf"
			},
			{
				"type": "occ",
				"energy": -0.19771,
				"method": "rhf"
			},
			{
				"type": "unocc",
				"energy": -0.0369,
				"method": "rhf"
			},
			{
				"type": "unocc",
				"energy": -0.03106,
				"method": "rhf"
			},
			{
				"type": "unocc",
				"energy": 0.01231,
				"method": "rhf"
			},
			{
				"type": "unocc",
				"energy": 0.02298,
				"method": "rhf"
			},
			{
				"type": "unocc",
				"energy": 0.02383,
				"method": "rhf"
			}
		],
		"cosmo_sigma_profile": { 
			"-0.025": 0.0,
			"-0.024": 0.0,
			"-0.023": 0.0,
			"-0.022": 0.0,
			"-0.021": 0.0,
			"-0.02": 0.00250464165158,
			"-0.019": 1.5970793997,
			"-0.018": 2.61338333564,
			"-0.017": 2.19451347236,
			"-0.016": 2.52466782387,
			"-0.015": 1.60390288213,
			"-0.014": 2.19651987386,
			"-0.013": 1.5940228864,
			"-0.012": 1.89114125968,
			"-0.011": 2.37471181583,
			"-0.01": 2.68707404951,
			"-0.009": 2.71078852494,
			"-0.008": 4.29618940271,
			"-0.007": 6.51797509309,
			"-0.006": 18.082989858,
			"-0.005": 29.2027940683,
			"-0.004": 31.0633889098,
			"-0.003": 34.151325842,
			"-0.002": 37.880011643,
			"-0.001": 27.7824734689,
			"0.0": 19.8883376466,
			"0.001": 19.1799453822,
			"0.002": 17.866713376,
			"0.003": 12.6061032785,
			"0.004": 13.6457738913,
			"0.005": 15.9643429969,
			"0.006": 13.6135901328,
			"0.007": 11.409701269,
			"0.008": 9.16676938674,
			"0.009": 9.20916116234,
			"0.01": 9.87921249283,
			"0.011": 7.95498070417,
			"0.012": 8.69645322873,
			"0.013": 9.52607779841,
			"0.014": 2.634450969,
			"0.015": 0.0326649191126,
			"0.016": 0.0,
			"0.017": 0.0,
			"0.018": 0.0,
			"0.019": 0.0,
			"0.02": 0.0,
			"0.021": 0.0,
			"0.022": 0.0,
			"0.023": 0.0,
			"0.024": 0.0,
			"0.025": 0.0
		}
	}
}
