{
	 "smiles": "CCOC(=O)C1=C(C)NC(=S)NC1C1=CC=CO1", 
	 "Tm": 447.15, 
	 "num_atms": 32, 
	 "gaussian": { 
		 "optdone": 1, 
		 "sigma_profile": "yes", 
		 "theory": "DFT", 
		 "functional": "B3LYP", 
		 "basiset": "6-31G**", 
		 "properties": { 
			 "R2extent": 5944.3847, 
			 "electric_dipole_moment_norm": 4.75290479286, 
			 "electric_quadrupole_moment_norm": 28.7867808727, 
			 "total_energy": -1199.07829654, 
			 "HOMO_LUMO_gap": 0.15479, 
			 "cosmo_polarized_energy": -19.04, 
			 "cosmo_cavitation_energy": 37.75, 
			 "cosmo_dispersion_energy": -26.17, 
			 "cosmo_repulsion_energy": 2.03, 
			 "cosmo_total_nonelectrostatic_energy": 13.61, 
			 "SMD_solvation_energy": 6.57 
		},
		"coords": [
			{
				"x": -0.1134755743,
				"y": -1.4516087455,
				"z": 3.5430998409,
				"element": "C" 
			},
			{
				"x": 0.4143350432,
				"y": -2.1584302132,
				"z": 2.3036131445,
				"element": "C" 
			},
			{
				"x": -0.2359178569,
				"y": -1.6805707615,
				"z": 1.1012978339,
				"element": "O" 
			},
			{
				"x": 0.2780768134,
				"y": -0.550580525,
				"z": 0.5506910015,
				"element": "C" 
			},
			{
				"x": 1.2416423169,
				"y": 0.0355597789,
				"z": 1.0218446851,
				"element": "O" 
			},
			{
				"x": -0.4029195473,
				"y": -0.1028478303,
				"z": -0.6702137964,
				"element": "C" 
			},
			{
				"x": -1.4463149811,
				"y": -0.7151040023,
				"z": -1.2958309259,
				"element": "C" 
			},
			{
				"x": -2.1958826919,
				"y": -1.9402487736,
				"z": -0.8385880251,
				"element": "C" 
			},
			{
				"x": -1.8877448091,
				"y": -0.2055815482,
				"z": -2.5069999595,
				"element": "N" 
			},
			{
				"x": -1.2175759659,
				"y": 0.7271472674,
				"z": -3.2732236179,
				"element": "C" 
			},
			{
				"x": -1.7308752197,
				"y": 1.1003492784,
				"z": -4.8226957577,
				"element": "S" 
			},
			{
				"x": -0.1183046825,
				"y": 1.2451697308,
				"z": -2.6863210484,
				"element": "N" 
			},
			{
				"x": 0.1507926425,
				"y": 1.1963779816,
				"z": -1.2387992756,
				"element": "C" 
			},
			{
				"x": -0.3721361059,
				"y": 2.4167582253,
				"z": -0.5360755603,
				"element": "C" 
			},
			{
				"x": 0.2273994642,
				"y": 3.3882888919,
				"z": 0.2107618937,
				"element": "C" 
			},
			{
				"x": -0.8102601334,
				"y": 4.2944264202,
				"z": 0.6080113804,
				"element": "C" 
			},
			{
				"x": -1.9620205895,
				"y": 3.806699551,
				"z": 0.0709360519,
				"element": "C" 
			},
			{
				"x": -1.7158721111,
				"y": 2.6616183628,
				"z": -0.6272093932,
				"element": "O" 
			},
			{
				"x": 0.3422248469,
				"y": -1.8852933664,
				"z": 4.4396063828,
				"element": "H" 
			},
			{
				"x": -1.1991885291,
				"y": -1.5613978995,
				"z": 3.6235427989,
				"element": "H" 
			},
			{
				"x": 0.1345455802,
				"y": -0.3882263477,
				"z": 3.5117595852,
				"element": "H" 
			},
			{
				"x": 1.4925041599,
				"y": -2.0178203431,
				"z": 2.2001263303,
				"element": "H" 
			},
			{
				"x": 0.1876053392,
				"y": -3.2273196214,
				"z": 2.3251801695,
				"element": "H" 
			},
			{
				"x": -3.0948736803,
				"y": -2.0875122737,
				"z": -1.4440155045,
				"element": "H" 
			},
			{
				"x": -1.5700151107,
				"y": -2.8326015108,
				"z": -0.9291798995,
				"element": "H" 
			},
			{
				"x": -2.4820956404,
				"y": -1.8568479119,
				"z": 0.2091976304,
				"element": "H" 
			},
			{
				"x": -2.6792609879,
				"y": -0.6295411553,
				"z": -2.9686762761,
				"element": "H" 
			},
			{
				"x": 0.3406358971,
				"y": 1.968100603,
				"z": -3.2237730383,
				"element": "H" 
			},
			{
				"x": 1.2339923664,
				"y": 1.1961212746,
				"z": -1.0943707488,
				"element": "H" 
			},
			{
				"x": 1.2773488417,
				"y": 3.4392823608,
				"z": 0.4603431496,
				"element": "H" 
			},
			{
				"x": -0.7079026494,
				"y": 5.1860267582,
				"z": 1.2096351193,
				"element": "H" 
			},
			{
				"x": -2.9888664451,
				"y": 4.1378063444,
				"z": 0.0829258293,
				"element": "H" 
			}
		],
		 "valence_orbital": [ 
			{
				"type": "occ",
				"energy": -0.27589,
				"method": "rhf"
			},
			{
				"type": "occ",
				"energy": -0.24258,
				"method": "rhf"
			},
			{
				"type": "occ",
				"energy": -0.23256,
				"method": "rhf"
			},
			{
				"type": "occ",
				"energy": -0.21372,
				"method": "rhf"
			},
			{
				"type": "occ",
				"energy": -0.21122,
				"method": "rhf"
			},
			{
				"type": "unocc",
				"energy": -0.05643,
				"method": "rhf"
			},
			{
				"type": "unocc",
				"energy": 0.00499,
				"method": "rhf"
			},
			{
				"type": "unocc",
				"energy": 0.01819,
				"method": "rhf"
			},
			{
				"type": "unocc",
				"energy": 0.05762,
				"method": "rhf"
			},
			{
				"type": "unocc",
				"energy": 0.06745,
				"method": "rhf"
			}
		],
		"cosmo_sigma_profile": { 
			"-0.025": 0.0,
			"-0.024": 0.0,
			"-0.023": 0.0,
			"-0.022": 0.0,
			"-0.021": 0.0,
			"-0.02": 0.0,
			"-0.019": 0.0,
			"-0.018": 0.0,
			"-0.017": 0.0,
			"-0.016": 0.426525691706,
			"-0.015": 1.83725378083,
			"-0.014": 2.10215727758,
			"-0.013": 2.3237466288,
			"-0.012": 2.12320228905,
			"-0.011": 2.01354191001,
			"-0.01": 1.38338658633,
			"-0.009": 3.39284517758,
			"-0.008": 5.10015558107,
			"-0.007": 7.50251853409,
			"-0.006": 11.2372092086,
			"-0.005": 14.7529236649,
			"-0.004": 22.9032282058,
			"-0.003": 25.4125498211,
			"-0.002": 25.4324312586,
			"-0.001": 25.1659526151,
			"0.0": 22.2188621112,
			"0.001": 16.6552986042,
			"0.002": 15.4596874254,
			"0.003": 17.1142443174,
			"0.004": 15.2841399224,
			"0.005": 13.332111256,
			"0.006": 7.68873515297,
			"0.007": 6.41251411947,
			"0.008": 6.76005724828,
			"0.009": 7.50071986568,
			"0.01": 9.1697464943,
			"0.011": 7.00468715912,
			"0.012": 3.78389497658,
			"0.013": 0.992460817993,
			"0.014": 0.0,
			"0.015": 0.0,
			"0.016": 0.0,
			"0.017": 0.0,
			"0.018": 0.0,
			"0.019": 0.0,
			"0.02": 0.0,
			"0.021": 0.0,
			"0.022": 0.0,
			"0.023": 0.0,
			"0.024": 0.0,
			"0.025": 0.0
		}
	}
}
