{
	 "smiles": "CCSC(Cl)=O", 
	 "Tm": 213.15, 
	 "num_atms": 11, 
	 "gaussian": { 
		 "optdone": 1, 
		 "sigma_profile": "yes", 
		 "theory": "DFT", 
		 "functional": "B3LYP", 
		 "basiset": "6-31G**", 
		 "properties": { 
			 "R2extent": 1236.4697, 
			 "electric_dipole_moment_norm": 2.99732859226, 
			 "electric_quadrupole_moment_norm": 6.5316082384, 
			 "total_energy": -1050.9471231, 
			 "HOMO_LUMO_gap": 0.23976, 
			 "cosmo_polarized_energy": -4.5, 
			 "cosmo_cavitation_energy": 18.35, 
			 "cosmo_dispersion_energy": -14.13, 
			 "cosmo_repulsion_energy": 1.18, 
			 "cosmo_total_nonelectrostatic_energy": 5.4, 
			 "SMD_solvation_energy": 3.77 
		},
		"coords": [
			{
				"x": -0.0873531322,
				"y": 3.2308058765,
				"z": 0.4364613169,
				"element": "C" 
			},
			{
				"x": 0.6332802266,
				"y": 2.0909563205,
				"z": -0.2773645808,
				"element": "C" 
			},
			{
				"x": 0.2575115818,
				"y": 0.4210593351,
				"z": 0.4095054784,
				"element": "S" 
			},
			{
				"x": -1.3300549451,
				"y": 0.1658814165,
				"z": -0.3198089406,
				"element": "C" 
			},
			{
				"x": -2.0024063629,
				"y": -1.435828216,
				"z": 0.187772237,
				"element": "Cl" 
			},
			{
				"x": -1.9275831216,
				"y": 0.8932342867,
				"z": -1.0523780709,
				"element": "O" 
			},
			{
				"x": -1.1698037368,
				"y": 3.134431334,
				"z": 0.3264961747,
				"element": "H" 
			},
			{
				"x": 0.2140105923,
				"y": 4.18784525,
				"z": -0.0034818897,
				"element": "H" 
			},
			{
				"x": 0.1564737822,
				"y": 3.2525473422,
				"z": 1.5021411492,
				"element": "H" 
			},
			{
				"x": 1.7199314641,
				"y": 2.1724198825,
				"z": -0.1797528627,
				"element": "H" 
			},
			{
				"x": 0.3881936517,
				"y": 2.0598471719,
				"z": -1.3411900116,
				"element": "H" 
			}
		],
		 "valence_orbital": [ 
			{
				"type": "occ",
				"energy": -0.35452,
				"method": "rhf"
			},
			{
				"type": "occ",
				"energy": -0.32984,
				"method": "rhf"
			},
			{
				"type": "occ",
				"energy": -0.32572,
				"method": "rhf"
			},
			{
				"type": "occ",
				"energy": -0.30057,
				"method": "rhf"
			},
			{
				"type": "occ",
				"energy": -0.27759,
				"method": "rhf"
			},
			{
				"type": "unocc",
				"energy": -0.03783,
				"method": "rhf"
			},
			{
				"type": "unocc",
				"energy": -0.0152,
				"method": "rhf"
			},
			{
				"type": "unocc",
				"energy": 0.01694,
				"method": "rhf"
			},
			{
				"type": "unocc",
				"energy": 0.09409,
				"method": "rhf"
			},
			{
				"type": "unocc",
				"energy": 0.09657,
				"method": "rhf"
			}
		],
		"cosmo_sigma_profile": { 
			"-0.025": 0.0,
			"-0.024": 0.0,
			"-0.023": 0.0,
			"-0.022": 0.0,
			"-0.021": 0.0,
			"-0.02": 0.0,
			"-0.019": 0.0,
			"-0.018": 0.0,
			"-0.017": 0.0,
			"-0.016": 0.0,
			"-0.015": 0.0,
			"-0.014": 0.0,
			"-0.013": 0.0,
			"-0.012": 0.0,
			"-0.011": 0.0,
			"-0.01": 0.0,
			"-0.009": 0.00334348395899,
			"-0.008": 1.61481620573,
			"-0.007": 2.90161832519,
			"-0.006": 4.36867020982,
			"-0.005": 6.04017598775,
			"-0.004": 12.3210434005,
			"-0.003": 16.0690129432,
			"-0.002": 12.5862191369,
			"-0.001": 13.3783953526,
			"0.0": 14.742891035,
			"0.001": 13.3929109524,
			"0.002": 12.561481659,
			"0.003": 14.3483677951,
			"0.004": 12.0837652426,
			"0.005": 3.32026464124,
			"0.006": 1.79261900333,
			"0.007": 2.48359472459,
			"0.008": 4.05060563087,
			"0.009": 1.84582274914,
			"0.01": 0.0,
			"0.011": 0.0,
			"0.012": 0.0,
			"0.013": 0.0,
			"0.014": 0.0,
			"0.015": 0.0,
			"0.016": 0.0,
			"0.017": 0.0,
			"0.018": 0.0,
			"0.019": 0.0,
			"0.02": 0.0,
			"0.021": 0.0,
			"0.022": 0.0,
			"0.023": 0.0,
			"0.024": 0.0,
			"0.025": 0.0
		}
	}
}
