{
	 "smiles": "CC(=O)NC(=O)CN", 
	 "Tm": 413.15, 
	 "num_atms": 16, 
	 "gaussian": { 
		 "optdone": 1, 
		 "sigma_profile": "yes", 
		 "theory": "DFT", 
		 "functional": "B3LYP", 
		 "basiset": "6-31G**", 
		 "properties": { 
			 "R2extent": 1291.7528, 
			 "electric_dipole_moment_norm": 4.2713054035, 
			 "electric_quadrupole_moment_norm": 7.45229662721, 
			 "total_energy": -417.209872105, 
			 "HOMO_LUMO_gap": 0.2225, 
			 "cosmo_polarized_energy": -14.42, 
			 "cosmo_cavitation_energy": 19.74, 
			 "cosmo_dispersion_energy": -14.55, 
			 "cosmo_repulsion_energy": 1.24, 
			 "cosmo_total_nonelectrostatic_energy": 6.43, 
			 "SMD_solvation_energy": 4.78 
		},
		"coords": [
			{
				"x": 1.8855042363,
				"y": 0.0941118025,
				"z": 0.2812145414,
				"element": "C" 
			},
			{
				"x": 1.2896836652,
				"y": -0.0056967233,
				"z": -1.1009043168,
				"element": "C" 
			},
			{
				"x": 1.7371482233,
				"y": -0.7465553329,
				"z": -1.9577371852,
				"element": "O" 
			},
			{
				"x": 0.1760079631,
				"y": 0.7835365095,
				"z": -1.4470517515,
				"element": "N" 
			},
			{
				"x": -0.6752091423,
				"y": 1.6982068389,
				"z": -0.8284489859,
				"element": "C" 
			},
			{
				"x": -1.5928670935,
				"y": 2.1714990687,
				"z": -1.479578085,
				"element": "O" 
			},
			{
				"x": -0.4939238645,
				"y": 2.0892128166,
				"z": 0.6368787523,
				"element": "C" 
			},
			{
				"x": -0.9296762625,
				"y": 0.9925900875,
				"z": 1.5110909397,
				"element": "N" 
			},
			{
				"x": 2.3701450951,
				"y": 1.066657359,
				"z": 0.4216342036,
				"element": "H" 
			},
			{
				"x": 1.1134512247,
				"y": -0.0253755517,
				"z": 1.0465598958,
				"element": "H" 
			},
			{
				"x": 2.6415508814,
				"y": -0.6860496182,
				"z": 0.3656870131,
				"element": "H" 
			},
			{
				"x": -0.1040104348,
				"y": 0.6133758428,
				"z": -2.408959277,
				"element": "H" 
			},
			{
				"x": -1.0657519291,
				"y": 3.0197823348,
				"z": 0.7471019912,
				"element": "H" 
			},
			{
				"x": 0.5549075659,
				"y": 2.3108518041,
				"z": 0.8531828009,
				"element": "H" 
			},
			{
				"x": -0.822752696,
				"y": 1.2701287232,
				"z": 2.4833769056,
				"element": "H" 
			},
			{
				"x": -1.9217074323,
				"y": 0.8173240386,
				"z": 1.3672525576,
				"element": "H" 
			}
		],
		 "valence_orbital": [ 
			{
				"type": "occ",
				"energy": -0.36434,
				"method": "rhf"
			},
			{
				"type": "occ",
				"energy": -0.28598,
				"method": "rhf"
			},
			{
				"type": "occ",
				"energy": -0.28234,
				"method": "rhf"
			},
			{
				"type": "occ",
				"energy": -0.26687,
				"method": "rhf"
			},
			{
				"type": "occ",
				"energy": -0.2542,
				"method": "rhf"
			},
			{
				"type": "unocc",
				"energy": -0.0317,
				"method": "rhf"
			},
			{
				"type": "unocc",
				"energy": 0.03019,
				"method": "rhf"
			},
			{
				"type": "unocc",
				"energy": 0.07877,
				"method": "rhf"
			},
			{
				"type": "unocc",
				"energy": 0.09593,
				"method": "rhf"
			},
			{
				"type": "unocc",
				"energy": 0.10707,
				"method": "rhf"
			}
		],
		"cosmo_sigma_profile": { 
			"-0.025": 0.0,
			"-0.024": 0.0,
			"-0.023": 0.0,
			"-0.022": 0.0,
			"-0.021": 0.0,
			"-0.02": 0.0,
			"-0.019": 0.0,
			"-0.018": 0.0,
			"-0.017": 0.0,
			"-0.016": 0.0,
			"-0.015": 0.0,
			"-0.014": 0.206029985171,
			"-0.013": 0.768616956441,
			"-0.012": 1.25070431729,
			"-0.011": 3.14444272066,
			"-0.01": 3.13111229204,
			"-0.009": 4.56866952831,
			"-0.008": 6.18638500548,
			"-0.007": 7.27648809778,
			"-0.006": 8.06174673579,
			"-0.005": 8.50796766437,
			"-0.004": 12.6334422106,
			"-0.003": 11.0699890518,
			"-0.002": 10.6394648938,
			"-0.001": 13.3667506006,
			"0.0": 7.0476339351,
			"0.001": 4.58674977895,
			"0.002": 3.93514443854,
			"0.003": 3.35513381744,
			"0.004": 3.36777970945,
			"0.005": 3.51069029747,
			"0.006": 3.17193779948,
			"0.007": 2.37243878189,
			"0.008": 3.69866730984,
			"0.009": 4.00540605677,
			"0.01": 3.50716307652,
			"0.011": 7.02878158161,
			"0.012": 10.357441519,
			"0.013": 3.91575664006,
			"0.014": 0.160943385795,
			"0.015": 0.0,
			"0.016": 0.0,
			"0.017": 0.0,
			"0.018": 0.0,
			"0.019": 0.0,
			"0.02": 0.0,
			"0.021": 0.0,
			"0.022": 0.0,
			"0.023": 0.0,
			"0.024": 0.0,
			"0.025": 0.0
		}
	}
}
