{
	 "smiles": "CCCCCCCCCCCC(=O)OCC", 
	 "Tm": 271.15, 
	 "num_atms": 44, 
	 "gaussian": { 
		 "optdone": 1, 
		 "sigma_profile": "yes", 
		 "theory": "DFT", 
		 "functional": "B3LYP", 
		 "basiset": "6-31G**", 
		 "properties": { 
			 "R2extent": 5879.0421, 
			 "electric_dipole_moment_norm": 2.24243315396, 
			 "electric_quadrupole_moment_norm": 7.20362658735, 
			 "total_energy": -700.8639813, 
			 "HOMO_LUMO_gap": 0.28115, 
			 "cosmo_polarized_energy": -5.95, 
			 "cosmo_cavitation_energy": 43.47, 
			 "cosmo_dispersion_energy": -28.49, 
			 "cosmo_repulsion_energy": 2.32, 
			 "cosmo_total_nonelectrostatic_energy": 17.3, 
			 "SMD_solvation_energy": 7.01 
		},
		"coords": [
			{
				"x": 0.3164648315,
				"y": 2.9316547269,
				"z": -2.2483641936,
				"element": "C" 
			},
			{
				"x": 1.3469169287,
				"y": 2.2545279816,
				"z": -1.3382605085,
				"element": "C" 
			},
			{
				"x": 1.5287603416,
				"y": 2.9818763764,
				"z": 0.0019319508,
				"element": "C" 
			},
			{
				"x": 2.5381223152,
				"y": 2.3140827326,
				"z": 0.9542679366,
				"element": "C" 
			},
			{
				"x": 2.0620189697,
				"y": 1.0143296067,
				"z": 1.6307604101,
				"element": "C" 
			},
			{
				"x": 0.9914510706,
				"y": 1.2383795521,
				"z": 2.7129176129,
				"element": "C" 
			},
			{
				"x": 0.5596333488,
				"y": -0.0313389745,
				"z": 3.4849704904,
				"element": "C" 
			},
			{
				"x": -0.7415155693,
				"y": -0.6999830205,
				"z": 3.0010645188,
				"element": "C" 
			},
			{
				"x": -0.7366466741,
				"y": -1.3068980448,
				"z": 1.5883265864,
				"element": "C" 
			},
			{
				"x": 0.2105548224,
				"y": -2.5037730888,
				"z": 1.4199910692,
				"element": "C" 
			},
			{
				"x": 0.0701934428,
				"y": -3.2102631065,
				"z": 0.0674405279,
				"element": "C" 
			},
			{
				"x": 0.5580706722,
				"y": -2.3846234285,
				"z": -1.1080572906,
				"element": "C" 
			},
			{
				"x": 1.2633896489,
				"y": -1.3976989021,
				"z": -1.0364574014,
				"element": "O" 
			},
			{
				"x": 0.1313494743,
				"y": -2.9053881257,
				"z": -2.2774812929,
				"element": "O" 
			},
			{
				"x": 0.5752949913,
				"y": -2.2268313145,
				"z": -3.4761220775,
				"element": "C" 
			},
			{
				"x": 0.0073569409,
				"y": -2.9810357426,
				"z": -4.6633477386,
				"element": "C" 
			},
			{
				"x": 0.2188115236,
				"y": 2.4072194363,
				"z": -3.2052772433,
				"element": "H" 
			},
			{
				"x": 0.5965042676,
				"y": 3.9691397086,
				"z": -2.4666132843,
				"element": "H" 
			},
			{
				"x": -0.6745838303,
				"y": 2.9521971514,
				"z": -1.7796420064,
				"element": "H" 
			},
			{
				"x": 1.0580975082,
				"y": 1.2108010933,
				"z": -1.1702620238,
				"element": "H" 
			},
			{
				"x": 2.3172108369,
				"y": 2.2148137016,
				"z": -1.8528097557,
				"element": "H" 
			},
			{
				"x": 1.861632371,
				"y": 4.0093305505,
				"z": -0.2014613675,
				"element": "H" 
			},
			{
				"x": 0.5535456163,
				"y": 3.081009282,
				"z": 0.498707397,
				"element": "H" 
			},
			{
				"x": 2.817941158,
				"y": 3.0314463527,
				"z": 1.7386828919,
				"element": "H" 
			},
			{
				"x": 3.4598239499,
				"y": 2.1071246369,
				"z": 0.3934844901,
				"element": "H" 
			},
			{
				"x": 1.711986549,
				"y": 0.302961297,
				"z": 0.8745076464,
				"element": "H" 
			},
			{
				"x": 2.9300613522,
				"y": 0.5382234173,
				"z": 2.1080075666,
				"element": "H" 
			},
			{
				"x": 0.1023100551,
				"y": 1.7129014481,
				"z": 2.2760213777,
				"element": "H" 
			},
			{
				"x": 1.3914684015,
				"y": 1.9687373574,
				"z": 3.4293462117,
				"element": "H" 
			},
			{
				"x": 0.4068415371,
				"y": 0.2324019745,
				"z": 4.5390266219,
				"element": "H" 
			},
			{
				"x": 1.3821053433,
				"y": -0.7591209717,
				"z": 3.4835256861,
				"element": "H" 
			},
			{
				"x": -1.5482911142,
				"y": 0.043706224,
				"z": 3.0554153277,
				"element": "H" 
			},
			{
				"x": -1.0134284051,
				"y": -1.4890596647,
				"z": 3.7167619978,
				"element": "H" 
			},
			{
				"x": -1.7596991106,
				"y": -1.6357657019,
				"z": 1.3559197297,
				"element": "H" 
			},
			{
				"x": -0.4875386395,
				"y": -0.5386038009,
				"z": 0.8478916486,
				"element": "H" 
			},
			{
				"x": 0.0081457765,
				"y": -3.2379287093,
				"z": 2.2106779508,
				"element": "H" 
			},
			{
				"x": 1.2503260436,
				"y": -2.1844843461,
				"z": 1.5443119465,
				"element": "H" 
			},
			{
				"x": -0.9669621648,
				"y": -3.5062816265,
				"z": -0.1277468379,
				"element": "H" 
			},
			{
				"x": 0.6518189639,
				"y": -4.141980464,
				"z": 0.0566001446,
				"element": "H" 
			},
			{
				"x": 0.2277193999,
				"y": -1.1893888638,
				"z": -3.4432776517,
				"element": "H" 
			},
			{
				"x": 1.6696091718,
				"y": -2.2056519416,
				"z": -3.4860223988,
				"element": "H" 
			},
			{
				"x": 0.3632035724,
				"y": -4.0152620489,
				"z": -4.6767480211,
				"element": "H" 
			},
			{
				"x": 0.3196503512,
				"y": -2.4974427189,
				"z": -5.5941798861,
				"element": "H" 
			},
			{
				"x": -1.0859260401,
				"y": -2.9937600013,
				"z": -4.6323287586,
				"element": "H" 
			}
		],
		 "valence_orbital": [ 
			{
				"type": "occ",
				"energy": -0.29997,
				"method": "rhf"
			},
			{
				"type": "occ",
				"energy": -0.29619,
				"method": "rhf"
			},
			{
				"type": "occ",
				"energy": -0.29311,
				"method": "rhf"
			},
			{
				"type": "occ",
				"energy": -0.28863,
				"method": "rhf"
			},
			{
				"type": "occ",
				"energy": -0.26995,
				"method": "rhf"
			},
			{
				"type": "unocc",
				"energy": 0.0112,
				"method": "rhf"
			},
			{
				"type": "unocc",
				"energy": 0.08176,
				"method": "rhf"
			},
			{
				"type": "unocc",
				"energy": 0.09532,
				"method": "rhf"
			},
			{
				"type": "unocc",
				"energy": 0.10055,
				"method": "rhf"
			},
			{
				"type": "unocc",
				"energy": 0.11206,
				"method": "rhf"
			}
		],
		"cosmo_sigma_profile": { 
			"-0.025": 0.0,
			"-0.024": 0.0,
			"-0.023": 0.0,
			"-0.022": 0.0,
			"-0.021": 0.0,
			"-0.02": 0.0,
			"-0.019": 0.0,
			"-0.018": 0.0,
			"-0.017": 0.0,
			"-0.016": 0.0,
			"-0.015": 0.0,
			"-0.014": 0.0,
			"-0.013": 0.0,
			"-0.012": 0.0,
			"-0.011": 0.0,
			"-0.01": 0.0,
			"-0.009": 0.0,
			"-0.008": 0.0,
			"-0.007": 0.0213340956395,
			"-0.006": 2.12117488142,
			"-0.005": 7.33090414889,
			"-0.004": 16.2230339321,
			"-0.003": 21.0185054582,
			"-0.002": 44.0543414244,
			"-0.001": 60.5597575068,
			"0.0": 64.4027536083,
			"0.001": 52.6362479628,
			"0.002": 29.2784366227,
			"0.003": 7.0576877346,
			"0.004": 6.06489833579,
			"0.005": 5.87362190313,
			"0.006": 3.78548804449,
			"0.007": 4.02067338234,
			"0.008": 3.24905445094,
			"0.009": 2.84193566085,
			"0.01": 1.42969400154,
			"0.011": 1.90224323338,
			"0.012": 0.390836335727,
			"0.013": 0.0,
			"0.014": 0.0,
			"0.015": 0.0,
			"0.016": 0.0,
			"0.017": 0.0,
			"0.018": 0.0,
			"0.019": 0.0,
			"0.02": 0.0,
			"0.021": 0.0,
			"0.022": 0.0,
			"0.023": 0.0,
			"0.024": 0.0,
			"0.025": 0.0
		}
	}
}
