{
	 "smiles": "CC1=C(F)C=CC(=C1)C(=O)CCl", 
	 "Tm": 307.15, 
	 "num_atms": 20, 
	 "gaussian": { 
		 "optdone": 1, 
		 "sigma_profile": "yes", 
		 "theory": "DFT", 
		 "functional": "B3LYP", 
		 "basiset": "6-31G**", 
		 "properties": { 
			 "R2extent": 3729.5549, 
			 "electric_dipole_moment_norm": 4.19138351144, 
			 "electric_quadrupole_moment_norm": 9.48970397536, 
			 "total_energy": -983.035205933, 
			 "HOMO_LUMO_gap": 0.1925, 
			 "cosmo_polarized_energy": -11.59, 
			 "cosmo_cavitation_energy": 26.54, 
			 "cosmo_dispersion_energy": -19.31, 
			 "cosmo_repulsion_energy": 1.52, 
			 "cosmo_total_nonelectrostatic_energy": 8.75, 
			 "SMD_solvation_energy": 5.26 
		},
		"coords": [
			{
				"x": -3.5041191209,
				"y": -2.1911731761,
				"z": -0.571011385,
				"element": "C" 
			},
			{
				"x": -2.3010758345,
				"y": -2.0014962169,
				"z": 0.3163821056,
				"element": "C" 
			},
			{
				"x": -2.3014337985,
				"y": -2.501169563,
				"z": 1.6222907544,
				"element": "C" 
			},
			{
				"x": -3.4035330729,
				"y": -3.1497900557,
				"z": 2.0508609696,
				"element": "F" 
			},
			{
				"x": -1.2271714829,
				"y": -2.3622391086,
				"z": 2.4941285978,
				"element": "C" 
			},
			{
				"x": -0.0919973285,
				"y": -1.6938642021,
				"z": 2.0518877283,
				"element": "C" 
			},
			{
				"x": -0.0381208099,
				"y": -1.1721119639,
				"z": 0.7498243847,
				"element": "C" 
			},
			{
				"x": -1.1463300442,
				"y": -1.3347218356,
				"z": -0.0991319865,
				"element": "C" 
			},
			{
				"x": 1.2161616555,
				"y": -0.4645330567,
				"z": 0.3421160547,
				"element": "C" 
			},
			{
				"x": 2.1551773945,
				"y": -0.343004149,
				"z": 1.1044178999,
				"element": "O" 
			},
			{
				"x": 1.256655736,
				"y": 0.0987397963,
				"z": -1.0849184522,
				"element": "C" 
			},
			{
				"x": 2.7956863333,
				"y": 0.9240684169,
				"z": -1.4739860464,
				"element": "Cl" 
			},
			{
				"x": -4.3971320821,
				"y": -1.7342152297,
				"z": -0.1316740385,
				"element": "H" 
			},
			{
				"x": -3.3391575294,
				"y": -1.7427299908,
				"z": -1.5535992833,
				"element": "H" 
			},
			{
				"x": -3.7288753679,
				"y": -3.2535574191,
				"z": -0.7128492758,
				"element": "H" 
			},
			{
				"x": -1.2971575973,
				"y": -2.7756536813,
				"z": 3.4943987412,
				"element": "H" 
			},
			{
				"x": 0.7690778924,
				"y": -1.5621300469,
				"z": 2.6975146165,
				"element": "H" 
			},
			{
				"x": -1.1288909726,
				"y": -0.940127025,
				"z": -1.1106100597,
				"element": "H" 
			},
			{
				"x": 0.4481343013,
				"y": 0.8208433296,
				"z": -1.2248905211,
				"element": "H" 
			},
			{
				"x": 1.1204017284,
				"y": -0.7083348224,
				"z": -1.8093508044,
				"element": "H" 
			}
		],
		 "valence_orbital": [ 
			{
				"type": "occ",
				"energy": -0.30039,
				"method": "rhf"
			},
			{
				"type": "occ",
				"energy": -0.29953,
				"method": "rhf"
			},
			{
				"type": "occ",
				"energy": -0.274,
				"method": "rhf"
			},
			{
				"type": "occ",
				"energy": -0.26559,
				"method": "rhf"
			},
			{
				"type": "occ",
				"energy": -0.25833,
				"method": "rhf"
			},
			{
				"type": "unocc",
				"energy": -0.06583,
				"method": "rhf"
			},
			{
				"type": "unocc",
				"energy": -0.0247,
				"method": "rhf"
			},
			{
				"type": "unocc",
				"energy": 0.02298,
				"method": "rhf"
			},
			{
				"type": "unocc",
				"energy": 0.02834,
				"method": "rhf"
			},
			{
				"type": "unocc",
				"energy": 0.082,
				"method": "rhf"
			}
		],
		"cosmo_sigma_profile": { 
			"-0.025": 0.0,
			"-0.024": 0.0,
			"-0.023": 0.0,
			"-0.022": 0.0,
			"-0.021": 0.0,
			"-0.02": 0.0,
			"-0.019": 0.0,
			"-0.018": 0.0,
			"-0.017": 0.0,
			"-0.016": 0.0,
			"-0.015": 0.0,
			"-0.014": 0.0,
			"-0.013": 0.0,
			"-0.012": 0.0,
			"-0.011": 0.0,
			"-0.01": 0.826058036814,
			"-0.009": 8.49357236748,
			"-0.008": 6.85694600469,
			"-0.007": 7.40760050694,
			"-0.006": 7.60164873398,
			"-0.005": 11.4474877575,
			"-0.004": 11.1356132735,
			"-0.003": 11.7030661735,
			"-0.002": 13.4646982266,
			"-0.001": 19.1090722723,
			"0.0": 18.8990589664,
			"0.001": 15.9426778315,
			"0.002": 18.803048853,
			"0.003": 14.1417157985,
			"0.004": 14.2221160789,
			"0.005": 7.30229446808,
			"0.006": 8.27892714474,
			"0.007": 2.74396776624,
			"0.008": 2.816904277,
			"0.009": 2.65411085735,
			"0.01": 2.49809160166,
			"0.011": 4.12160444966,
			"0.012": 2.39788887495,
			"0.013": 1.19014239893,
			"0.014": 0.0423066488589,
			"0.015": 0.0,
			"0.016": 0.0,
			"0.017": 0.0,
			"0.018": 0.0,
			"0.019": 0.0,
			"0.02": 0.0,
			"0.021": 0.0,
			"0.022": 0.0,
			"0.023": 0.0,
			"0.024": 0.0,
			"0.025": 0.0
		}
	}
}
