{
	 "smiles": "CN(C)C1=CC(N)=C(C=C1)[N+]([O-])=O", 
	 "Tm": 409.15, 
	 "num_atms": 24, 
	 "gaussian": { 
		 "optdone": 1, 
		 "sigma_profile": "yes", 
		 "theory": "DFT", 
		 "functional": "B3LYP", 
		 "basiset": "6-31G**", 
		 "properties": { 
			 "R2extent": 4137.6352, 
			 "electric_dipole_moment_norm": 7.66834834433, 
			 "electric_quadrupole_moment_norm": 30.2653592468, 
			 "total_energy": -626.089852508, 
			 "HOMO_LUMO_gap": 0.14667, 
			 "cosmo_polarized_energy": -15.34, 
			 "cosmo_cavitation_energy": 27.11, 
			 "cosmo_dispersion_energy": -20.4, 
			 "cosmo_repulsion_energy": 1.59, 
			 "cosmo_total_nonelectrostatic_energy": 8.3, 
			 "SMD_solvation_energy": 6.48 
		},
		"coords": [
			{
				"x": -1.9918516532,
				"y": -0.2015028279,
				"z": -1.8050191707,
				"element": "C" 
			},
			{
				"x": -1.0606906927,
				"y": 0.5371664396,
				"z": -0.968596759,
				"element": "N" 
			},
			{
				"x": -0.3135594631,
				"y": 1.6493221856,
				"z": -1.5379504672,
				"element": "C" 
			},
			{
				"x": -0.869362942,
				"y": 0.1680786861,
				"z": 0.3428213297,
				"element": "C" 
			},
			{
				"x": -1.5698231693,
				"y": -0.9116213287,
				"z": 0.9041858592,
				"element": "C" 
			},
			{
				"x": -1.3993152331,
				"y": -1.3157775744,
				"z": 2.2429817818,
				"element": "C" 
			},
			{
				"x": -2.0901017273,
				"y": -2.3875929637,
				"z": 2.7142454802,
				"element": "N" 
			},
			{
				"x": -0.4750790715,
				"y": -0.579018821,
				"z": 3.0435828065,
				"element": "C" 
			},
			{
				"x": 0.2280795997,
				"y": 0.4999763716,
				"z": 2.4790359161,
				"element": "C" 
			},
			{
				"x": 0.052099482,
				"y": 0.8781942385,
				"z": 1.1701580769,
				"element": "C" 
			},
			{
				"x": -0.232462648,
				"y": -0.8794351833,
				"z": 4.424152686,
				"element": "N" 
			},
			{
				"x": 0.5895056382,
				"y": -0.1972635161,
				"z": 5.0461418969,
				"element": "O" 
			},
			{
				"x": -0.8581442808,
				"y": -1.8187407208,
				"z": 4.9647978865,
				"element": "O" 
			},
			{
				"x": -2.0095155506,
				"y": 0.2394381396,
				"z": -2.8018939729,
				"element": "H" 
			},
			{
				"x": -1.7017703219,
				"y": -1.2562109361,
				"z": -1.9058223158,
				"element": "H" 
			},
			{
				"x": -3.0130032751,
				"y": -0.1676771741,
				"z": -1.4024312011,
				"element": "H" 
			},
			{
				"x": -0.6100771435,
				"y": 1.7820884847,
				"z": -2.5786647678,
				"element": "H" 
			},
			{
				"x": 0.7692919733,
				"y": 1.4705228386,
				"z": -1.5160272513,
				"element": "H" 
			},
			{
				"x": -0.514799267,
				"y": 2.5893318677,
				"z": -1.008713938,
				"element": "H" 
			},
			{
				"x": -2.2705332455,
				"y": -1.4801721334,
				"z": 0.305039188,
				"element": "H" 
			},
			{
				"x": -2.0139974663,
				"y": -2.590904778,
				"z": 3.7016304492,
				"element": "H" 
			},
			{
				"x": -2.8224257369,
				"y": -2.7889436624,
				"z": 2.1533847816,
				"element": "H" 
			},
			{
				"x": 0.9201631546,
				"y": 1.0312107681,
				"z": 3.1200744818,
				"element": "H" 
			},
			{
				"x": 0.61627304,
				"y": 1.7151315998,
				"z": 0.7819872235,
				"element": "H" 
			}
		],
		 "valence_orbital": [ 
			{
				"type": "occ",
				"energy": -0.28473,
				"method": "rhf"
			},
			{
				"type": "occ",
				"energy": -0.27983,
				"method": "rhf"
			},
			{
				"type": "occ",
				"energy": -0.26381,
				"method": "rhf"
			},
			{
				"type": "occ",
				"energy": -0.21482,
				"method": "rhf"
			},
			{
				"type": "occ",
				"energy": -0.20668,
				"method": "rhf"
			},
			{
				"type": "unocc",
				"energy": -0.06001,
				"method": "rhf"
			},
			{
				"type": "unocc",
				"energy": 0.00766,
				"method": "rhf"
			},
			{
				"type": "unocc",
				"energy": 0.03478,
				"method": "rhf"
			},
			{
				"type": "unocc",
				"energy": 0.07325,
				"method": "rhf"
			},
			{
				"type": "unocc",
				"energy": 0.08367,
				"method": "rhf"
			}
		],
		"cosmo_sigma_profile": { 
			"-0.025": 0.0,
			"-0.024": 0.0,
			"-0.023": 0.0,
			"-0.022": 0.0,
			"-0.021": 0.0,
			"-0.02": 0.0,
			"-0.019": 0.0,
			"-0.018": 0.0,
			"-0.017": 0.0,
			"-0.016": 0.0,
			"-0.015": 0.0,
			"-0.014": 0.611920985455,
			"-0.013": 1.4993484486,
			"-0.012": 1.666080939,
			"-0.011": 1.06409608364,
			"-0.01": 1.12474169627,
			"-0.009": 2.33478856426,
			"-0.008": 3.61906671043,
			"-0.007": 4.6328082495,
			"-0.006": 7.81256322297,
			"-0.005": 16.223978918,
			"-0.004": 19.6334340592,
			"-0.003": 18.4343161178,
			"-0.002": 21.6255430389,
			"-0.001": 12.1535064603,
			"0.0": 10.9728633268,
			"0.001": 10.9249927348,
			"0.002": 12.7744803475,
			"0.003": 13.6442894151,
			"0.004": 13.5374184544,
			"0.005": 9.42258431165,
			"0.006": 2.95904744094,
			"0.007": 3.55761177937,
			"0.008": 4.07505753961,
			"0.009": 5.71723723151,
			"0.01": 5.87664174052,
			"0.011": 4.31583607753,
			"0.012": 3.8103403916,
			"0.013": 0.713767512388,
			"0.014": 0.0,
			"0.015": 0.0,
			"0.016": 0.0,
			"0.017": 0.0,
			"0.018": 0.0,
			"0.019": 0.0,
			"0.02": 0.0,
			"0.021": 0.0,
			"0.022": 0.0,
			"0.023": 0.0,
			"0.024": 0.0,
			"0.025": 0.0
		}
	}
}
