{
	 "smiles": "[O-][N+](=O)C1=CC(NC(=O)CCl)=C(F)C=C1", 
	 "Tm": 399.15, 
	 "num_atms": 21, 
	 "gaussian": { 
		 "optdone": 1, 
		 "sigma_profile": "yes", 
		 "theory": "DFT", 
		 "functional": "B3LYP", 
		 "basiset": "6-31G**", 
		 "properties": { 
			 "R2extent": 4559.4721, 
			 "electric_dipole_moment_norm": 3.63292981628, 
			 "electric_quadrupole_moment_norm": 22.7666360947, 
			 "total_energy": -1203.57134281, 
			 "HOMO_LUMO_gap": 0.16682, 
			 "cosmo_polarized_energy": -15.39, 
			 "cosmo_cavitation_energy": 28.97, 
			 "cosmo_dispersion_energy": -20.49, 
			 "cosmo_repulsion_energy": 1.61, 
			 "cosmo_total_nonelectrostatic_energy": 10.08, 
			 "SMD_solvation_energy": 8.19 
		},
		"coords": [
			{
				"x": 1.0276358133,
				"y": -4.2028040401,
				"z": -1.4534797111,
				"element": "O" 
			},
			{
				"x": 0.3498668445,
				"y": -4.3569811212,
				"z": -0.4389157187,
				"element": "N" 
			},
			{
				"x": 0.0206136538,
				"y": -5.4444527493,
				"z": 0.0313225456,
				"element": "O" 
			},
			{
				"x": -0.0998057148,
				"y": -3.1479148242,
				"z": 0.2697104104,
				"element": "C" 
			},
			{
				"x": 0.2303660063,
				"y": -1.9042285527,
				"z": -0.2596258929,
				"element": "C" 
			},
			{
				"x": -0.1797524881,
				"y": -0.7426139546,
				"z": 0.3991111153,
				"element": "C" 
			},
			{
				"x": 0.2081363976,
				"y": 0.525715561,
				"z": -0.0859966711,
				"element": "N" 
			},
			{
				"x": -0.5398245474,
				"y": 1.648994431,
				"z": -0.3883790737,
				"element": "C" 
			},
			{
				"x": 0.0108342113,
				"y": 2.6805152192,
				"z": -0.7314079887,
				"element": "O" 
			},
			{
				"x": -2.0614439187,
				"y": 1.582311237,
				"z": -0.2946915058,
				"element": "C" 
			},
			{
				"x": -2.7852332556,
				"y": 0.3309664899,
				"z": -1.3896163671,
				"element": "Cl" 
			},
			{
				"x": -0.9034164226,
				"y": -0.8934086314,
				"z": 1.5922148796,
				"element": "C" 
			},
			{
				"x": -1.2719053387,
				"y": 0.2081729924,
				"z": 2.2732121282,
				"element": "F" 
			},
			{
				"x": -1.2572310509,
				"y": -2.1372558213,
				"z": 2.1019388756,
				"element": "C" 
			},
			{
				"x": -0.8476848068,
				"y": -3.2882113488,
				"z": 1.4373302591,
				"element": "C" 
			},
			{
				"x": 0.7942339682,
				"y": -1.8465177707,
				"z": -1.1824489285,
				"element": "H" 
			},
			{
				"x": 1.1878121161,
				"y": 0.6525364786,
				"z": -0.3107040885,
				"element": "H" 
			},
			{
				"x": -2.4358707471,
				"y": 2.5511931056,
				"z": -0.6163965802,
				"element": "H" 
			},
			{
				"x": -2.3977756059,
				"y": 1.3615591385,
				"z": 0.7171907423,
				"element": "H" 
			},
			{
				"x": -1.8261946318,
				"y": -2.1845931361,
				"z": 3.0234766983,
				"element": "H" 
			},
			{
				"x": -1.0898604828,
				"y": -4.2769827031,
				"z": 1.804554872,
				"element": "H" 
			}
		],
		 "valence_orbital": [ 
			{
				"type": "occ",
				"energy": -0.31139,
				"method": "rhf"
			},
			{
				"type": "occ",
				"energy": -0.30399,
				"method": "rhf"
			},
			{
				"type": "occ",
				"energy": -0.29578,
				"method": "rhf"
			},
			{
				"type": "occ",
				"energy": -0.27772,
				"method": "rhf"
			},
			{
				"type": "occ",
				"energy": -0.26854,
				"method": "rhf"
			},
			{
				"type": "unocc",
				"energy": -0.10172,
				"method": "rhf"
			},
			{
				"type": "unocc",
				"energy": -0.05809,
				"method": "rhf"
			},
			{
				"type": "unocc",
				"energy": -0.02967,
				"method": "rhf"
			},
			{
				"type": "unocc",
				"energy": -0.01081,
				"method": "rhf"
			},
			{
				"type": "unocc",
				"energy": 0.03932,
				"method": "rhf"
			}
		],
		"cosmo_sigma_profile": { 
			"-0.025": 0.0,
			"-0.024": 0.0,
			"-0.023": 0.0,
			"-0.022": 0.0,
			"-0.021": 0.0,
			"-0.02": 0.0,
			"-0.019": 0.0,
			"-0.018": 0.0,
			"-0.017": 0.0147126253739,
			"-0.016": 0.678625505164,
			"-0.015": 1.1512383312,
			"-0.014": 1.19759064705,
			"-0.013": 1.01245519815,
			"-0.012": 1.03444252884,
			"-0.011": 1.19886397089,
			"-0.01": 1.93246787212,
			"-0.009": 5.40086117033,
			"-0.008": 7.06845535018,
			"-0.007": 10.4385360642,
			"-0.006": 11.3162856117,
			"-0.005": 10.832807857,
			"-0.004": 10.5877176168,
			"-0.003": 12.2112984573,
			"-0.002": 18.7283585882,
			"-0.001": 19.4196194122,
			"0.0": 17.7565067204,
			"0.001": 13.5175872122,
			"0.002": 13.3876003813,
			"0.003": 12.1157021607,
			"0.004": 9.71695954314,
			"0.005": 10.973141933,
			"0.006": 7.14064363774,
			"0.007": 9.83620375221,
			"0.008": 7.74331717726,
			"0.009": 4.97304600946,
			"0.01": 3.91502606223,
			"0.011": 3.27785235278,
			"0.012": 5.04538596285,
			"0.013": 1.15195371605,
			"0.014": 0.0,
			"0.015": 0.0,
			"0.016": 0.0,
			"0.017": 0.0,
			"0.018": 0.0,
			"0.019": 0.0,
			"0.02": 0.0,
			"0.021": 0.0,
			"0.022": 0.0,
			"0.023": 0.0,
			"0.024": 0.0,
			"0.025": 0.0
		}
	}
}
