{
	 "smiles": "[O-][N+](=O)C1=CC(Br)=C(NC(=O)CCl)C=C1", 
	 "Tm": 439.15, 
	 "num_atms": 21, 
	 "gaussian": { 
		 "optdone": 1, 
		 "sigma_profile": "yes", 
		 "theory": "DFT", 
		 "functional": "B3LYP", 
		 "basiset": "6-31G**", 
		 "properties": { 
			 "R2extent": 6439.7643, 
			 "electric_dipole_moment_norm": 1.5094824676, 
			 "electric_quadrupole_moment_norm": 26.8332723034, 
			 "total_energy": -3675.13825966, 
			 "HOMO_LUMO_gap": 0.16451, 
			 "cosmo_polarized_energy": -15.37, 
			 "cosmo_cavitation_energy": 30.74, 
			 "cosmo_dispersion_energy": -21.93, 
			 "cosmo_repulsion_energy": 1.74, 
			 "cosmo_total_nonelectrostatic_energy": 10.56, 
			 "SMD_solvation_energy": 7.17 
		},
		"coords": [
			{
				"x": 3.6826701223,
				"y": 0.7463135903,
				"z": 0.1760700873,
				"element": "O" 
			},
			{
				"x": 2.9404294069,
				"y": -0.2065371395,
				"z": 0.4033317049,
				"element": "N" 
			},
			{
				"x": 3.3060376018,
				"y": -1.3710065448,
				"z": 0.5469162014,
				"element": "O" 
			},
			{
				"x": 1.4948779794,
				"y": 0.0665373244,
				"z": 0.5117667622,
				"element": "C" 
			},
			{
				"x": 1.051036653,
				"y": 1.3722634668,
				"z": 0.3320566251,
				"element": "C" 
			},
			{
				"x": -0.3140148563,
				"y": 1.6294387452,
				"z": 0.4239396297,
				"element": "C" 
			},
			{
				"x": -0.9190568419,
				"y": 3.4071361828,
				"z": 0.1098997877,
				"element": "Br" 
			},
			{
				"x": -1.2270208012,
				"y": 0.5973181727,
				"z": 0.7164614764,
				"element": "C" 
			},
			{
				"x": -2.6263759202,
				"y": 0.8175175738,
				"z": 0.7850403178,
				"element": "N" 
			},
			{
				"x": -3.364438352,
				"y": 1.4566181421,
				"z": 1.7630865506,
				"element": "C" 
			},
			{
				"x": -4.5657107075,
				"y": 1.6117424612,
				"z": 1.6425399042,
				"element": "O" 
			},
			{
				"x": -2.6251469851,
				"y": 1.9325886589,
				"z": 3.0109455863,
				"element": "C" 
			},
			{
				"x": -2.1716154696,
				"y": 0.5366362831,
				"z": 4.0775223348,
				"element": "Cl" 
			},
			{
				"x": -0.7326619033,
				"y": -0.7043618703,
				"z": 0.8881861995,
				"element": "C" 
			},
			{
				"x": 0.6241003038,
				"y": -0.9854057698,
				"z": 0.7819045519,
				"element": "C" 
			},
			{
				"x": 1.7614585321,
				"y": 2.1570330543,
				"z": 0.109662249,
				"element": "H" 
			},
			{
				"x": -3.2011568466,
				"y": 0.4420435375,
				"z": 0.0396837811,
				"element": "H" 
			},
			{
				"x": -3.3113170297,
				"y": 2.56054475,
				"z": 3.574586865,
				"element": "H" 
			},
			{
				"x": -1.7094231938,
				"y": 2.4769495282,
				"z": 2.78305874,
				"element": "H" 
			},
			{
				"x": -1.4386513313,
				"y": -1.4936351486,
				"z": 1.122725652,
				"element": "H" 
			},
			{
				"x": 1.0144796392,
				"y": -1.985934998,
				"z": 0.9160149931,
				"element": "H" 
			}
		],
		 "valence_orbital": [ 
			{
				"type": "occ",
				"energy": -0.30909,
				"method": "rhf"
			},
			{
				"type": "occ",
				"energy": -0.30701,
				"method": "rhf"
			},
			{
				"type": "occ",
				"energy": -0.28814,
				"method": "rhf"
			},
			{
				"type": "occ",
				"energy": -0.2793,
				"method": "rhf"
			},
			{
				"type": "occ",
				"energy": -0.27426,
				"method": "rhf"
			},
			{
				"type": "unocc",
				"energy": -0.10975,
				"method": "rhf"
			},
			{
				"type": "unocc",
				"energy": -0.05507,
				"method": "rhf"
			},
			{
				"type": "unocc",
				"energy": -0.03845,
				"method": "rhf"
			},
			{
				"type": "unocc",
				"energy": -0.02591,
				"method": "rhf"
			},
			{
				"type": "unocc",
				"energy": -0.02513,
				"method": "rhf"
			}
		],
		"cosmo_sigma_profile": { 
			"-0.025": 0.0,
			"-0.024": 0.0,
			"-0.023": 0.0,
			"-0.022": 0.0,
			"-0.021": 0.0,
			"-0.02": 0.0,
			"-0.019": 0.0,
			"-0.018": 0.0,
			"-0.017": 0.0,
			"-0.016": 0.562572897849,
			"-0.015": 1.38470945988,
			"-0.014": 0.979280302388,
			"-0.013": 0.907736552207,
			"-0.012": 1.06724284579,
			"-0.011": 1.08241029504,
			"-0.01": 0.725187293512,
			"-0.009": 3.53324974097,
			"-0.008": 9.27979715311,
			"-0.007": 11.1424058701,
			"-0.006": 11.3927370776,
			"-0.005": 11.5464645909,
			"-0.004": 13.7406390783,
			"-0.003": 15.5107872525,
			"-0.002": 20.2010613539,
			"-0.001": 20.9080600553,
			"0.0": 16.1187689768,
			"0.001": 14.916978336,
			"0.002": 15.8059359516,
			"0.003": 15.842243921,
			"0.004": 10.7913033741,
			"0.005": 12.0383532838,
			"0.006": 8.36052445018,
			"0.007": 9.88209955931,
			"0.008": 6.41012578229,
			"0.009": 4.82133708261,
			"0.01": 2.60828797406,
			"0.011": 3.28711058284,
			"0.012": 5.41762929554,
			"0.013": 1.54736853107,
			"0.014": 0.00959588757737,
			"0.015": 0.0,
			"0.016": 0.0,
			"0.017": 0.0,
			"0.018": 0.0,
			"0.019": 0.0,
			"0.02": 0.0,
			"0.021": 0.0,
			"0.022": 0.0,
			"0.023": 0.0,
			"0.024": 0.0,
			"0.025": 0.0
		}
	}
}
