{
	 "smiles": "FC(F)(F)C1=CC(NC(=O)CCl)=C(Cl)C=C1", 
	 "Tm": 345.15, 
	 "num_atms": 22, 
	 "gaussian": { 
		 "optdone": 1, 
		 "sigma_profile": "yes", 
		 "theory": "DFT", 
		 "functional": "B3LYP", 
		 "basiset": "6-31G**", 
		 "properties": { 
			 "R2extent": 5048.5339, 
			 "electric_dipole_moment_norm": 3.57421608468, 
			 "electric_quadrupole_moment_norm": 13.0720614694, 
			 "total_energy": -1696.46894274, 
			 "HOMO_LUMO_gap": 0.19831, 
			 "cosmo_polarized_energy": -11.38, 
			 "cosmo_cavitation_energy": 31.7, 
			 "cosmo_dispersion_energy": -22.08, 
			 "cosmo_repulsion_energy": 1.67, 
			 "cosmo_total_nonelectrostatic_energy": 11.29, 
			 "SMD_solvation_energy": 6.71 
		},
		"coords": [
			{
				"x": 1.6115825789,
				"y": -0.3526323198,
				"z": 2.0017076109,
				"element": "F" 
			},
			{
				"x": 0.4800722377,
				"y": 0.1774894404,
				"z": 2.5110570932,
				"element": "C" 
			},
			{
				"x": -0.0807877963,
				"y": -0.7660232914,
				"z": 3.2994168186,
				"element": "F" 
			},
			{
				"x": 0.8320666168,
				"y": 1.2058078546,
				"z": 3.3128063567,
				"element": "F" 
			},
			{
				"x": -0.466462906,
				"y": 0.6217496099,
				"z": 1.4249692596,
				"element": "C" 
			},
			{
				"x": -0.5145289368,
				"y": -0.0939202135,
				"z": 0.2289264063,
				"element": "C" 
			},
			{
				"x": -1.4103562164,
				"y": 0.2695030329,
				"z": -0.7861296928,
				"element": "C" 
			},
			{
				"x": -1.4942520577,
				"y": -0.422084854,
				"z": -2.0060178676,
				"element": "N" 
			},
			{
				"x": -0.5287164058,
				"y": -0.9392805387,
				"z": -2.8548782313,
				"element": "C" 
			},
			{
				"x": -0.8586982178,
				"y": -1.4762623472,
				"z": -3.8971354622,
				"element": "O" 
			},
			{
				"x": 0.9433069984,
				"y": -0.7779186756,
				"z": -2.490798555,
				"element": "C" 
			},
			{
				"x": 1.5802470859,
				"y": -2.2738893758,
				"z": -1.688839747,
				"element": "Cl" 
			},
			{
				"x": -2.2930220991,
				"y": 1.3402426739,
				"z": -0.5310667613,
				"element": "C" 
			},
			{
				"x": -3.4628630868,
				"y": 1.813914935,
				"z": -1.7499578976,
				"element": "Cl" 
			},
			{
				"x": -2.2612792051,
				"y": 2.0370808557,
				"z": 0.6734977167,
				"element": "C" 
			},
			{
				"x": -1.3373166357,
				"y": 1.6873005662,
				"z": 1.6545595537,
				"element": "C" 
			},
			{
				"x": 0.1354498662,
				"y": -0.9493473592,
				"z": 0.0899004006,
				"element": "H" 
			},
			{
				"x": -2.4096114132,
				"y": -0.4468849671,
				"z": -2.4421503866,
				"element": "H" 
			},
			{
				"x": 1.4925594737,
				"y": -0.6676502416,
				"z": -3.424018415,
				"element": "H" 
			},
			{
				"x": 1.144876395,
				"y": 0.0599459769,
				"z": -1.8242798931,
				"element": "H" 
			},
			{
				"x": -2.9522359913,
				"y": 2.8574793611,
				"z": 0.8303879412,
				"element": "H" 
			},
			{
				"x": -1.2953302845,
				"y": 2.2378798775,
				"z": 2.5870437518,
				"element": "H" 
			}
		],
		 "valence_orbital": [ 
			{
				"type": "occ",
				"energy": -0.32384,
				"method": "rhf"
			},
			{
				"type": "occ",
				"energy": -0.31486,
				"method": "rhf"
			},
			{
				"type": "occ",
				"energy": -0.28269,
				"method": "rhf"
			},
			{
				"type": "occ",
				"energy": -0.27835,
				"method": "rhf"
			},
			{
				"type": "occ",
				"energy": -0.25519,
				"method": "rhf"
			},
			{
				"type": "unocc",
				"energy": -0.05688,
				"method": "rhf"
			},
			{
				"type": "unocc",
				"energy": -0.04957,
				"method": "rhf"
			},
			{
				"type": "unocc",
				"energy": -0.02486,
				"method": "rhf"
			},
			{
				"type": "unocc",
				"energy": 0.00376,
				"method": "rhf"
			},
			{
				"type": "unocc",
				"energy": 0.04463,
				"method": "rhf"
			}
		],
		"cosmo_sigma_profile": { 
			"-0.025": 0.0,
			"-0.024": 0.0,
			"-0.023": 0.0,
			"-0.022": 0.0,
			"-0.021": 0.0,
			"-0.02": 0.0,
			"-0.019": 0.0,
			"-0.018": 0.0,
			"-0.017": 0.0,
			"-0.016": 0.0,
			"-0.015": 0.0,
			"-0.014": 0.0631493216955,
			"-0.013": 0.491566707651,
			"-0.012": 0.527821472346,
			"-0.011": 1.40993684017,
			"-0.01": 0.984528454167,
			"-0.009": 4.45366669998,
			"-0.008": 9.47609688568,
			"-0.007": 10.1043632367,
			"-0.006": 9.42643941947,
			"-0.005": 9.21483883261,
			"-0.004": 9.70898173154,
			"-0.003": 12.3859917989,
			"-0.002": 15.4685500296,
			"-0.001": 19.2292348628,
			"0.0": 27.7659642351,
			"0.001": 25.6756529597,
			"0.002": 32.0577727951,
			"0.003": 35.0237384856,
			"0.004": 10.6664437272,
			"0.005": 8.12760299866,
			"0.006": 1.58137467777,
			"0.007": 1.10283038915,
			"0.008": 1.15481813948,
			"0.009": 1.52901242178,
			"0.01": 2.22829990319,
			"0.011": 2.80893430052,
			"0.012": 5.28358569956,
			"0.013": 1.28512114987,
			"0.014": 0.0,
			"0.015": 0.0,
			"0.016": 0.0,
			"0.017": 0.0,
			"0.018": 0.0,
			"0.019": 0.0,
			"0.02": 0.0,
			"0.021": 0.0,
			"0.022": 0.0,
			"0.023": 0.0,
			"0.024": 0.0,
			"0.0": 0.0
		}
	}
}
