{
	 "smiles": "COC1=CC(=CC=C1O)C1NN2C(S1)=NN=C2C1=CC=C(C=C1)[N+]([O-])=O", 
	 "Tm": 499.15, 
	 "num_atms": 39, 
	 "gaussian": { 
		 "optdone": 1, 
		 "sigma_profile": "yes", 
		 "theory": "DFT", 
		 "functional": "B3LYP", 
		 "basiset": "6-31G**", 
		 "properties": { 
			 "R2extent": 11826.7522, 
			 "electric_dipole_moment_norm": 5.12867890787, 
			 "electric_quadrupole_moment_norm": 44.9501247993, 
			 "total_energy": -1590.19302343, 
			 "HOMO_LUMO_gap": 0.12794, 
			 "cosmo_polarized_energy": -25.84, 
			 "cosmo_cavitation_energy": 46.25, 
			 "cosmo_dispersion_energy": -32.22, 
			 "cosmo_repulsion_energy": 2.37, 
			 "cosmo_total_nonelectrostatic_energy": 16.4, 
			 "SMD_solvation_energy": 8.01 
		},
		"coords": [
			{
				"x": -1.4277881258,
				"y": -3.0242394124,
				"z": -1.8413608637,
				"element": "C" 
			},
			{
				"x": -2.5154985581,
				"y": -2.7070477934,
				"z": -0.9785882199,
				"element": "O" 
			},
			{
				"x": -2.7520646906,
				"y": -1.3903606716,
				"z": -0.6861449313,
				"element": "C" 
			},
			{
				"x": -2.0189673526,
				"y": -0.3071913605,
				"z": -1.1492839766,
				"element": "C" 
			},
			{
				"x": -2.3780762469,
				"y": 0.9992644597,
				"z": -0.76469027,
				"element": "C" 
			},
			{
				"x": -3.4833592417,
				"y": 1.1857441623,
				"z": 0.0676205801,
				"element": "C" 
			},
			{
				"x": -4.2263781061,
				"y": 0.09647924,
				"z": 0.5311274406,
				"element": "C" 
			},
			{
				"x": -3.8664568978,
				"y": -1.1937094013,
				"z": 0.1627032652,
				"element": "C" 
			},
			{
				"x": -4.5808718077,
				"y": -2.2589076952,
				"z": 0.602131366,
				"element": "O" 
			},
			{
				"x": -1.5877000208,
				"y": 2.2083205702,
				"z": -1.1898225877,
				"element": "C" 
			},
			{
				"x": -0.2698943648,
				"y": 2.324535907,
				"z": -0.5231413652,
				"element": "N" 
			},
			{
				"x": 0.6401369797,
				"y": 1.6463695122,
				"z": -1.3554331202,
				"element": "N" 
			},
			{
				"x": 0.3429484886,
				"y": 1.5456948947,
				"z": -2.6878090683,
				"element": "C" 
			},
			{
				"x": -1.2153387455,
				"y": 2.2600633483,
				"z": -3.0711675,
				"element": "S" 
			},
			{
				"x": 1.2705122078,
				"y": 0.8712032547,
				"z": -3.3239407308,
				"element": "N" 
			},
			{
				"x": 2.2183333932,
				"y": 0.5335568495,
				"z": -2.3747112231,
				"element": "N" 
			},
			{
				"x": 1.8341569003,
				"y": 0.9789061808,
				"z": -1.1877160897,
				"element": "C" 
			},
			{
				"x": 2.5737825978,
				"y": 0.7827215541,
				"z": 0.0582849068,
				"element": "C" 
			},
			{
				"x": 2.039273772,
				"y": 1.1279812254,
				"z": 1.3124152973,
				"element": "C" 
			},
			{
				"x": 2.7769237484,
				"y": 0.9132115106,
				"z": 2.472083268,
				"element": "C" 
			},
			{
				"x": 4.0479530966,
				"y": 0.3526891305,
				"z": 2.3697399747,
				"element": "C" 
			},
			{
				"x": 4.6000753397,
				"y": -0.0030575181,
				"z": 1.1380544375,
				"element": "C" 
			},
			{
				"x": 3.8602341835,
				"y": 0.2138981947,
				"z": -0.0154631885,
				"element": "C" 
			},
			{
				"x": 4.828827888,
				"y": 0.1287994955,
				"z": 3.5944258888,
				"element": "N" 
			},
			{
				"x": 5.9459937133,
				"y": -0.3739865816,
				"z": 3.474951122,
				"element": "O" 
			},
			{
				"x": 4.3183651017,
				"y": 0.4576313297,
				"z": 4.6656083968,
				"element": "O" 
			},
			{
				"x": -1.5617372004,
				"y": -2.5720307012,
				"z": -2.830947919,
				"element": "H" 
			},
			{
				"x": -1.4234699278,
				"y": -4.1105509394,
				"z": -1.9353753247,
				"element": "H" 
			},
			{
				"x": -0.4738800574,
				"y": -2.6909656321,
				"z": -1.4160124923,
				"element": "H" 
			},
			{
				"x": -1.1839296334,
				"y": -0.469503366,
				"z": -1.8190942699,
				"element": "H" 
			},
			{
				"x": -3.7740065897,
				"y": 2.1894109402,
				"z": 0.365690067,
				"element": "H" 
			},
			{
				"x": -5.0883769148,
				"y": 0.2338609804,
				"z": 1.1749168423,
				"element": "H" 
			},
			{
				"x": -4.1698948324,
				"y": -3.0543292305,
				"z": 0.228139008,
				"element": "H" 
			},
			{
				"x": -2.1459170332,
				"y": 3.115811486,
				"z": -0.9559754496,
				"element": "H" 
			},
			{
				"x": 0.0109061259,
				"y": 3.3081696975,
				"z": -0.5282310314,
				"element": "H" 
			},
			{
				"x": 1.0434660464,
				"y": 1.5512323671,
				"z": 1.3780423929,
				"element": "H" 
			},
			{
				"x": 2.3853163665,
				"y": 1.1680918024,
				"z": 3.4487573039,
				"element": "H" 
			},
			{
				"x": 5.5915315072,
				"y": -0.4367621309,
				"z": 1.1043788057,
				"element": "H" 
			},
			{
				"x": 4.2587688909,
				"y": -0.0506056594,
				"z": -0.9881607418,
				"element": "H" 
			}
		],
		 "valence_orbital": [ 
			{
				"type": "occ",
				"energy": -0.28148,
				"method": "rhf"
			},
			{
				"type": "occ",
				"energy": -0.26877,
				"method": "rhf"
			},
			{
				"type": "occ",
				"energy": -0.25789,
				"method": "rhf"
			},
			{
				"type": "occ",
				"energy": -0.23654,
				"method": "rhf"
			},
			{
				"type": "occ",
				"energy": -0.22433,
				"method": "rhf"
			},
			{
				"type": "unocc",
				"energy": -0.09639,
				"method": "rhf"
			},
			{
				"type": "unocc",
				"energy": -0.04117,
				"method": "rhf"
			},
			{
				"type": "unocc",
				"energy": -0.03047,
				"method": "rhf"
			},
			{
				"type": "unocc",
				"energy": -0.02785,
				"method": "rhf"
			},
			{
				"type": "unocc",
				"energy": -0.01123,
				"method": "rhf"
			}
		],
		"cosmo_sigma_profile": { 
			"-0.025": 0.0,
			"-0.024": 0.0,
			"-0.023": 0.0,
			"-0.022": 0.0,
			"-0.021": 0.0,
			"-0.02": 0.0,
			"-0.019": 0.0,
			"-0.018": 0.0,
			"-0.017": 0.0,
			"-0.016": 0.611933989473,
			"-0.015": 2.4944540357,
			"-0.014": 1.85838434209,
			"-0.013": 3.02341378138,
			"-0.012": 2.01424746151,
			"-0.011": 2.35727342527,
			"-0.01": 4.98429037237,
			"-0.009": 4.72276930284,
			"-0.008": 5.38482657676,
			"-0.007": 10.1502883201,
			"-0.006": 21.6728703094,
			"-0.005": 23.493755285,
			"-0.004": 24.0188003475,
			"-0.003": 22.3967964012,
			"-0.002": 23.1782428943,
			"-0.001": 24.7681502889,
			"0.0": 29.714280969,
			"0.001": 29.6950919935,
			"0.002": 20.9453831011,
			"0.003": 18.8596015306,
			"0.004": 19.6398462813,
			"0.005": 15.7857093387,
			"0.006": 10.1640550555,
			"0.007": 10.4997195269,
			"0.008": 11.1087283739,
			"0.009": 7.67856027182,
			"0.01": 6.96363030878,
			"0.011": 4.11418967071,
			"0.012": 3.41529454016,
			"0.013": 3.32152159594,
			"0.014": 2.52996883139,
			"0.015": 1.70600033427,
			"0.016": 0.499195288551,
			"0.017": 0.0,
			"0.018": 0.0,
			"0.019": 0.0,
			"0.02": 0.0,
			"0.021": 0.0,
			"0.022": 0.0,
			"0.023": 0.0,
			"0.024": 0.0,
			"0.025": 0.0
		}
	}
}
