{
	 "smiles": "ClCCCC(=O)C1=CC=C(Br)C=C1", 
	 "Tm": 310.15, 
	 "num_atms": 23, 
	 "gaussian": { 
		 "optdone": 1, 
		 "sigma_profile": "yes", 
		 "theory": "DFT", 
		 "functional": "B3LYP", 
		 "basiset": "6-31G**", 
		 "properties": { 
			 "R2extent": 8350.9747, 
			 "electric_dipole_moment_norm": 3.16692956821, 
			 "electric_quadrupole_moment_norm": 16.4071330021, 
			 "total_energy": -3493.92107511, 
			 "HOMO_LUMO_gap": 0.18464, 
			 "cosmo_polarized_energy": -10.49, 
			 "cosmo_cavitation_energy": 30.91, 
			 "cosmo_dispersion_energy": -22.78, 
			 "cosmo_repulsion_energy": 1.81, 
			 "cosmo_total_nonelectrostatic_energy": 9.95, 
			 "SMD_solvation_energy": 4.0 
		},
		"coords": [
			{
				"x": 4.4188332796,
				"y": -0.5977935479,
				"z": -0.6360152554,
				"element": "Cl" 
			},
			{
				"x": 2.9614870112,
				"y": -1.2044461161,
				"z": 0.2744497286,
				"element": "C" 
			},
			{
				"x": 1.9988147943,
				"y": -1.9570730072,
				"z": -0.6377266328,
				"element": "C" 
			},
			{
				"x": 1.254363435,
				"y": -1.0584313512,
				"z": -1.6539226845,
				"element": "C" 
			},
			{
				"x": 0.2269672197,
				"y": -0.1744545908,
				"z": -0.9596149941,
				"element": "C" 
			},
			{
				"x": 0.5951838069,
				"y": 0.8379977319,
				"z": -0.3762590254,
				"element": "O" 
			},
			{
				"x": -1.222466671,
				"y": -0.5626498181,
				"z": -0.9405366238,
				"element": "C" 
			},
			{
				"x": -2.1224962402,
				"y": 0.3157901108,
				"z": -0.3132904129,
				"element": "C" 
			},
			{
				"x": -3.4796469055,
				"y": 0.0253830611,
				"z": -0.2455994005,
				"element": "C" 
			},
			{
				"x": -3.9461625675,
				"y": -1.1660657257,
				"z": -0.8064317919,
				"element": "C" 
			},
			{
				"x": -5.8059470228,
				"y": -1.5777258723,
				"z": -0.7179033212,
				"element": "Br" 
			},
			{
				"x": -3.077047032,
				"y": -2.0601032331,
				"z": -1.4295788465,
				"element": "C" 
			},
			{
				"x": -1.7188425518,
				"y": -1.7517525619,
				"z": -1.496214987,
				"element": "C" 
			},
			{
				"x": 3.3504535178,
				"y": -1.8542070259,
				"z": 1.0594530217,
				"element": "H" 
			},
			{
				"x": 2.4961052924,
				"y": -0.3237605499,
				"z": 0.7170049345,
				"element": "H" 
			},
			{
				"x": 2.5474595337,
				"y": -2.7350931261,
				"z": -1.1782106379,
				"element": "H" 
			},
			{
				"x": 1.2723603407,
				"y": -2.4732522825,
				"z": 0.0052727078,
				"element": "H" 
			},
			{
				"x": 1.9770694174,
				"y": -0.3971251997,
				"z": -2.1405649962,
				"element": "H" 
			},
			{
				"x": 0.8009939651,
				"y": -1.6805760439,
				"z": -2.428715769,
				"element": "H" 
			},
			{
				"x": -1.7284273002,
				"y": 1.2301430853,
				"z": 0.1172254334,
				"element": "H" 
			},
			{
				"x": -4.1708818522,
				"y": 0.7082398559,
				"z": 0.2350060539,
				"element": "H" 
			},
			{
				"x": -3.4564078449,
				"y": -2.9809775335,
				"z": -1.85713939,
				"element": "H" 
			},
			{
				"x": -1.0540656255,
				"y": -2.4570662591,
				"z": -1.9827871108,
				"element": "H" 
			}
		],
		 "valence_orbital": [ 
			{
				"type": "occ",
				"energy": -0.29476,
				"method": "rhf"
			},
			{
				"type": "occ",
				"energy": -0.29128,
				"method": "rhf"
			},
			{
				"type": "occ",
				"energy": -0.27899,
				"method": "rhf"
			},
			{
				"type": "occ",
				"energy": -0.25806,
				"method": "rhf"
			},
			{
				"type": "occ",
				"energy": -0.25702,
				"method": "rhf"
			},
			{
				"type": "unocc",
				"energy": -0.07238,
				"method": "rhf"
			},
			{
				"type": "unocc",
				"energy": -0.02841,
				"method": "rhf"
			},
			{
				"type": "unocc",
				"energy": -0.00409,
				"method": "rhf"
			},
			{
				"type": "unocc",
				"energy": 0.01939,
				"method": "rhf"
			},
			{
				"type": "unocc",
				"energy": 0.0293,
				"method": "rhf"
			}
		],
		"cosmo_sigma_profile": { 
			"-0.025": 0.0,
			"-0.024": 0.0,
			"-0.023": 0.0,
			"-0.022": 0.0,
			"-0.021": 0.0,
			"-0.02": 0.0,
			"-0.019": 0.0,
			"-0.018": 0.0,
			"-0.017": 0.0,
			"-0.016": 0.0,
			"-0.015": 0.0,
			"-0.014": 0.0,
			"-0.013": 0.0,
			"-0.012": 0.0,
			"-0.011": 0.0,
			"-0.01": 0.0,
			"-0.009": 0.49556322918,
			"-0.008": 3.23422203703,
			"-0.007": 8.63467171209,
			"-0.006": 13.3441442374,
			"-0.005": 20.2315866183,
			"-0.004": 21.5813012971,
			"-0.003": 18.9780865739,
			"-0.002": 16.5142159617,
			"-0.001": 12.8058980868,
			"0.0": 16.053780431,
			"0.001": 21.72402563,
			"0.002": 28.0702433601,
			"0.003": 16.4243678889,
			"0.004": 17.9760138106,
			"0.005": 8.50644729997,
			"0.006": 8.65161227674,
			"0.007": 8.09455600505,
			"0.008": 1.59339703537,
			"0.009": 1.40759090413,
			"0.01": 2.24609736176,
			"0.011": 2.42120792243,
			"0.012": 2.68673620216,
			"0.013": 0.100570304436,
			"0.014": 0.0,
			"0.015": 0.0,
			"0.016": 0.0,
			"0.017": 0.0,
			"0.018": 0.0,
			"0.019": 0.0,
			"0.02": 0.0,
			"0.021": 0.0,
			"0.022": 0.0,
			"0.023": 0.0,
			"0.024": 0.0,
			"0.025": 0.0
		}
	}
}
