{
	 "smiles": "OC(=O)C1=C(Cl)C=C(Cl)C(=C1)S(Cl)(=O)=O", 
	 "Tm": 433.15, 
	 "num_atms": 18, 
	 "gaussian": { 
		 "optdone": 1, 
		 "sigma_profile": "yes", 
		 "theory": "DFT", 
		 "functional": "B3LYP", 
		 "basiset": "6-31G**", 
		 "properties": { 
			 "R2extent": 5448.0371, 
			 "electric_dipole_moment_norm": 5.4680013195, 
			 "electric_quadrupole_moment_norm": 14.1508123961, 
			 "total_energy": -2348.12514417, 
			 "HOMO_LUMO_gap": 0.19904, 
			 "cosmo_polarized_energy": -15.62, 
			 "cosmo_cavitation_energy": 30.03, 
			 "cosmo_dispersion_energy": -22.75, 
			 "cosmo_repulsion_energy": 1.71, 
			 "cosmo_total_nonelectrostatic_energy": 8.99, 
			 "SMD_solvation_energy": 4.6 
		},
		"coords": [
			{
				"x": -3.3301890532,
				"y": -2.4417217892,
				"z": -0.5838031217,
				"element": "O" 
			},
			{
				"x": -2.4356682729,
				"y": -1.8567943042,
				"z": 0.224374346,
				"element": "C" 
			},
			{
				"x": -2.1672223615,
				"y": -2.3497195629,
				"z": 1.2952740705,
				"element": "O" 
			},
			{
				"x": -1.7563269001,
				"y": -0.5651478175,
				"z": -0.211331223,
				"element": "C" 
			},
			{
				"x": -1.9095051499,
				"y": 0.1746516744,
				"z": -1.3939077524,
				"element": "C" 
			},
			{
				"x": -3.0045153636,
				"y": -0.2971702671,
				"z": -2.6926931253,
				"element": "Cl" 
			},
			{
				"x": -1.1941335093,
				"y": 1.3494818358,
				"z": -1.6221922631,
				"element": "C" 
			},
			{
				"x": -0.2979663068,
				"y": 1.8233395425,
				"z": -0.6687369418,
				"element": "C" 
			},
			{
				"x": 0.5582969367,
				"y": 3.2921978685,
				"z": -1.0181544716,
				"element": "Cl" 
			},
			{
				"x": -0.1236979695,
				"y": 1.101560356,
				"z": 0.5269057879,
				"element": "C" 
			},
			{
				"x": -0.8452588644,
				"y": -0.0638438123,
				"z": 0.7332109641,
				"element": "C" 
			},
			{
				"x": 1.0532076855,
				"y": 1.7442683229,
				"z": 1.7547366072,
				"element": "S" 
			},
			{
				"x": 0.9342481447,
				"y": 0.3143203658,
				"z": 3.315695539,
				"element": "Cl" 
			},
			{
				"x": 0.5255539277,
				"y": 2.9868022209,
				"z": 2.2970815627,
				"element": "O" 
			},
			{
				"x": 2.397197215,
				"y": 1.6412323836,
				"z": 1.2074947942,
				"element": "O" 
			},
			{
				"x": -3.4579360053,
				"y": -1.9505432045,
				"z": -1.4113893735,
				"element": "H" 
			},
			{
				"x": -1.3330249502,
				"y": 1.8997818314,
				"z": -2.5445032674,
				"element": "H" 
			},
			{
				"x": -0.733159203,
				"y": -0.6408956442,
				"z": 1.6424378683,
				"element": "H" 
			}
		],
		 "valence_orbital": [ 
			{
				"type": "occ",
				"energy": -0.33773,
				"method": "rhf"
			},
			{
				"type": "occ",
				"energy": -0.32846,
				"method": "rhf"
			},
			{
				"type": "occ",
				"energy": -0.31074,
				"method": "rhf"
			},
			{
				"type": "occ",
				"energy": -0.30367,
				"method": "rhf"
			},
			{
				"type": "occ",
				"energy": -0.29983,
				"method": "rhf"
			},
			{
				"type": "unocc",
				"energy": -0.10079,
				"method": "rhf"
			},
			{
				"type": "unocc",
				"energy": -0.09912,
				"method": "rhf"
			},
			{
				"type": "unocc",
				"energy": -0.0785,
				"method": "rhf"
			},
			{
				"type": "unocc",
				"energy": -0.04001,
				"method": "rhf"
			},
			{
				"type": "unocc",
				"energy": -0.00458,
				"method": "rhf"
			}
		],
		"cosmo_sigma_profile": { 
			"-0.025": 0.0,
			"-0.024": 0.0,
			"-0.023": 0.0,
			"-0.022": 0.0,
			"-0.021": 0.0,
			"-0.02": 0.0,
			"-0.019": 0.0,
			"-0.018": 0.0,
			"-0.017": 0.0,
			"-0.016": 0.0,
			"-0.015": 0.0,
			"-0.014": 0.0722075553507,
			"-0.013": 0.551596851527,
			"-0.012": 1.19450211569,
			"-0.011": 2.18892023203,
			"-0.01": 4.39393619195,
			"-0.009": 3.50210933789,
			"-0.008": 4.34841855243,
			"-0.007": 6.75812491528,
			"-0.006": 5.85559370025,
			"-0.005": 12.8289249598,
			"-0.004": 22.8927145994,
			"-0.003": 28.00474121,
			"-0.002": 16.6877256568,
			"-0.001": 14.6705502439,
			"0.0": 16.766607615,
			"0.001": 20.7186462035,
			"0.002": 20.726439902,
			"0.003": 8.98923830379,
			"0.004": 6.12742061653,
			"0.005": 6.10198538828,
			"0.006": 6.48178620838,
			"0.007": 13.705659021,
			"0.008": 11.2284447234,
			"0.009": 4.89547062881,
			"0.01": 4.8983908292,
			"0.011": 3.53695007828,
			"0.012": 1.71386944536,
			"0.013": 0.0873432891455,
			"0.014": 0.0,
			"0.015": 0.0,
			"0.016": 0.0,
			"0.017": 0.0,
			"0.018": 0.0,
			"0.019": 0.0,
			"0.02": 0.0,
			"0.021": 0.0,
			"0.022": 0.0,
			"0.023": 0.0,
			"0.024": 0.0,
			"0.025": 0.0
		}
	}
}
