{
	 "smiles": "CC(C)(C)C1=CC=C(O)C(N)=C1", 
	 "Tm": 435.15, 
	 "num_atms": 27, 
	 "gaussian": { 
		 "optdone": 1, 
		 "sigma_profile": "yes", 
		 "theory": "DFT", 
		 "functional": "B3LYP", 
		 "basiset": "6-31G**", 
		 "properties": { 
			 "R2extent": 2600.8855, 
			 "electric_dipole_moment_norm": 1.354743186, 
			 "electric_quadrupole_moment_norm": 9.08991467782, 
			 "total_energy": -520.091855947, 
			 "HOMO_LUMO_gap": 0.20055, 
			 "cosmo_polarized_energy": -10.75, 
			 "cosmo_cavitation_energy": 28.39, 
			 "cosmo_dispersion_energy": -20.55, 
			 "cosmo_repulsion_energy": 1.64, 
			 "cosmo_total_nonelectrostatic_energy": 9.47, 
			 "SMD_solvation_energy": 5.17 
		},
		"coords": [
			{
				"x": 2.0263801333,
				"y": -1.6484154996,
				"z": 1.0984936067,
				"element": "C" 
			},
			{
				"x": 0.4873344728,
				"y": -1.6951784394,
				"z": 1.1481386077,
				"element": "C" 
			},
			{
				"x": 0.0354673614,
				"y": -3.1008066739,
				"z": 0.6855362387,
				"element": "C" 
			},
			{
				"x": 0.0492073544,
				"y": -1.4755029936,
				"z": 2.6157245943,
				"element": "C" 
			},
			{
				"x": -0.1567335004,
				"y": -0.6229168107,
				"z": 0.2491273011,
				"element": "C" 
			},
			{
				"x": 0.5921613201,
				"y": 0.2755232501,
				"z": -0.5167543907,
				"element": "C" 
			},
			{
				"x": -0.0412706059,
				"y": 1.2342830731,
				"z": -1.31742712,
				"element": "C" 
			},
			{
				"x": -1.4250646306,
				"y": 1.3118264244,
				"z": -1.3697528364,
				"element": "C" 
			},
			{
				"x": -2.1159253513,
				"y": 2.2353836954,
				"z": -2.1227033142,
				"element": "O" 
			},
			{
				"x": -2.2117663192,
				"y": 0.4181247292,
				"z": -0.6131329367,
				"element": "C" 
			},
			{
				"x": -3.6029094265,
				"y": 0.4745312822,
				"z": -0.7231222652,
				"element": "N" 
			},
			{
				"x": -1.5581280757,
				"y": -0.5272116158,
				"z": 0.1808556371,
				"element": "C" 
			},
			{
				"x": 2.4059628493,
				"y": -1.8278164612,
				"z": 0.0872749099,
				"element": "H" 
			},
			{
				"x": 2.4412934036,
				"y": -2.4249051858,
				"z": 1.7496825296,
				"element": "H" 
			},
			{
				"x": 2.4152906615,
				"y": -0.6848560166,
				"z": 1.4438816387,
				"element": "H" 
			},
			{
				"x": 0.3407627938,
				"y": -3.2875736644,
				"z": -0.3492458927,
				"element": "H" 
			},
			{
				"x": -1.0512914246,
				"y": -3.2160729698,
				"z": 0.7366776025,
				"element": "H" 
			},
			{
				"x": 0.4833171486,
				"y": -3.8759390197,
				"z": 1.3183747731,
				"element": "H" 
			},
			{
				"x": -1.0370703631,
				"y": -1.5394073516,
				"z": 2.7300731585,
				"element": "H" 
			},
			{
				"x": 0.4975602619,
				"y": -2.2339376412,
				"z": 3.2680532802,
				"element": "H" 
			},
			{
				"x": 0.3641877332,
				"y": -0.4897026514,
				"z": 2.9736682705,
				"element": "H" 
			},
			{
				"x": 1.67474016,
				"y": 0.2494496671,
				"z": -0.504761408,
				"element": "H" 
			},
			{
				"x": 0.5559781706,
				"y": 1.9310774433,
				"z": -1.9033589435,
				"element": "H" 
			},
			{
				"x": -1.4833876296,
				"y": 2.806084067,
				"z": -2.5762401719,
				"element": "H" 
			},
			{
				"x": -3.9485148328,
				"y": 1.3623896662,
				"z": -1.0615380495,
				"element": "H" 
			},
			{
				"x": -4.1054165737,
				"y": 0.1471614077,
				"z": 0.0901973379,
				"element": "H" 
			},
			{
				"x": -2.1760650912,
				"y": -1.2116917112,
				"z": 0.7568778423,
				"element": "H" 
			}
		],
		 "valence_orbital": [ 
			{
				"type": "occ",
				"energy": -0.31498,
				"method": "rhf"
			},
			{
				"type": "occ",
				"energy": -0.30832,
				"method": "rhf"
			},
			{
				"type": "occ",
				"energy": -0.29249,
				"method": "rhf"
			},
			{
				"type": "occ",
				"energy": -0.21869,
				"method": "rhf"
			},
			{
				"type": "occ",
				"energy": -0.1855,
				"method": "rhf"
			},
			{
				"type": "unocc",
				"energy": 0.01505,
				"method": "rhf"
			},
			{
				"type": "unocc",
				"energy": 0.03133,
				"method": "rhf"
			},
			{
				"type": "unocc",
				"energy": 0.06949,
				"method": "rhf"
			},
			{
				"type": "unocc",
				"energy": 0.08763,
				"method": "rhf"
			},
			{
				"type": "unocc",
				"energy": 0.10152,
				"method": "rhf"
			}
		],
		"cosmo_sigma_profile": { 
			"-0.025": 0.0,
			"-0.024": 0.0,
			"-0.023": 0.0,
			"-0.022": 0.0,
			"-0.021": 0.0,
			"-0.02": 0.0,
			"-0.019": 0.0,
			"-0.018": 0.0232258097277,
			"-0.017": 0.953838135964,
			"-0.016": 1.00828754356,
			"-0.015": 1.04897592763,
			"-0.014": 1.31047426095,
			"-0.013": 0.891798603269,
			"-0.012": 1.24339204277,
			"-0.011": 2.27044879948,
			"-0.01": 2.67230383051,
			"-0.009": 4.1083782255,
			"-0.008": 3.60324292851,
			"-0.007": 3.81564250888,
			"-0.006": 2.80053525848,
			"-0.005": 5.24767348357,
			"-0.004": 8.12905947303,
			"-0.003": 13.6347610013,
			"-0.002": 25.3787636213,
			"-0.001": 21.2373838009,
			"0.0": 21.4998885534,
			"0.001": 24.3389987722,
			"0.002": 18.1433878461,
			"0.003": 7.48515587942,
			"0.004": 7.99592394616,
			"0.005": 9.28661808223,
			"0.006": 8.43665532381,
			"0.007": 9.24509505083,
			"0.008": 7.19011729177,
			"0.009": 2.36340144784,
			"0.01": 1.98166335372,
			"0.011": 0.963782575362,
			"0.012": 0.769149265743,
			"0.013": 0.495434818367,
			"0.014": 0.707275550024,
			"0.015": 0.606428266325,
			"0.016": 0.121708727416,
			"0.017": 0.0,
			"0.018": 0.0,
			"0.019": 0.0,
			"0.02": 0.0,
			"0.021": 0.0,
			"0.022": 0.0,
			"0.023": 0.0,
			"0.024": 0.0,
			"0.025": 0.0
		}
	}
}
