{
	 "smiles": "OC1CC(N(C1)C(=O)C1=CC=C(F)C=C1)C(O)=O", 
	 "Tm": 480.15, 
	 "num_atms": 30, 
	 "gaussian": { 
		 "optdone": 1, 
		 "sigma_profile": "yes", 
		 "theory": "DFT", 
		 "functional": "B3LYP", 
		 "basiset": "6-31G**", 
		 "properties": { 
			 "R2extent": 6060.2747, 
			 "electric_dipole_moment_norm": 5.34528364916, 
			 "electric_quadrupole_moment_norm": 31.586626825, 
			 "total_energy": -920.011243706, 
			 "HOMO_LUMO_gap": 0.2031, 
			 "cosmo_polarized_energy": -19.36, 
			 "cosmo_cavitation_energy": 33.68, 
			 "cosmo_dispersion_energy": -24.11, 
			 "cosmo_repulsion_energy": 1.83, 
			 "cosmo_total_nonelectrostatic_energy": 11.41, 
			 "SMD_solvation_energy": 6.89 
		},
		"coords": [
			{
				"x": 0.0934994006,
				"y": -0.9633747316,
				"z": -2.6321000867,
				"element": "O" 
			},
			{
				"x": -1.0149267915,
				"y": -1.789586674,
				"z": -2.291982763,
				"element": "C" 
			},
			{
				"x": -0.5836770998,
				"y": -3.1261862002,
				"z": -1.6800496611,
				"element": "C" 
			},
			{
				"x": -0.1871348641,
				"y": -2.7784398208,
				"z": -0.240674874,
				"element": "C" 
			},
			{
				"x": -0.9461941265,
				"y": -1.5307185693,
				"z": 0.0549560282,
				"element": "N" 
			},
			{
				"x": -1.722785376,
				"y": -1.102821565,
				"z": -1.1246203851,
				"element": "C" 
			},
			{
				"x": -0.5224033665,
				"y": -0.7381738315,
				"z": 1.0772922811,
				"element": "C" 
			},
			{
				"x": 0.3943231481,
				"y": -1.1158466051,
				"z": 1.8331946267,
				"element": "O" 
			},
			{
				"x": -1.1653409621,
				"y": 0.5908760893,
				"z": 1.3143127437,
				"element": "C" 
			},
			{
				"x": -0.3489800815,
				"y": 1.6210721217,
				"z": 1.8074012948,
				"element": "C" 
			},
			{
				"x": -0.8824373534,
				"y": 2.8706926427,
				"z": 2.1039039017,
				"element": "C" 
			},
			{
				"x": -2.2496574674,
				"y": 3.0699522119,
				"z": 1.9329114625,
				"element": "C" 
			},
			{
				"x": -2.7744644072,
				"y": 4.2738181779,
				"z": 2.2256940915,
				"element": "F" 
			},
			{
				"x": -3.0924533953,
				"y": 2.0613127009,
				"z": 1.4791624912,
				"element": "C" 
			},
			{
				"x": -2.5411801908,
				"y": 0.819991743,
				"z": 1.166251973,
				"element": "C" 
			},
			{
				"x": -0.5062515431,
				"y": -3.9206286646,
				"z": 0.754723248,
				"element": "C" 
			},
			{
				"x": -0.1057345533,
				"y": -3.7047997382,
				"z": 2.0082758113,
				"element": "O" 
			},
			{
				"x": -1.05390974,
				"y": -4.9450649571,
				"z": 0.4128960511,
				"element": "O" 
			},
			{
				"x": 0.6272644311,
				"y": -1.4300689626,
				"z": -3.288007051,
				"element": "H" 
			},
			{
				"x": -1.6924873645,
				"y": -1.91828791,
				"z": -3.1478015764,
				"element": "H" 
			},
			{
				"x": 0.2372536718,
				"y": -3.5961832026,
				"z": -2.229237812,
				"element": "H" 
			},
			{
				"x": -1.4134354867,
				"y": -3.8385780217,
				"z": -1.6596933764,
				"element": "H" 
			},
			{
				"x": 0.8798094145,
				"y": -2.5420731821,
				"z": -0.1514341358,
				"element": "H" 
			},
			{
				"x": -1.7075620251,
				"y": -0.0185567474,
				"z": -1.2323346744,
				"element": "H" 
			},
			{
				"x": -2.7621303297,
				"y": -1.4454259498,
				"z": -1.0560448708,
				"element": "H" 
			},
			{
				"x": 0.706484675,
				"y": 1.4238117084,
				"z": 1.9581824165,
				"element": "H" 
			},
			{
				"x": -0.2642723676,
				"y": 3.6823427777,
				"z": 2.4713294281,
				"element": "H" 
			},
			{
				"x": -4.155694126,
				"y": 2.2521473795,
				"z": 1.3851182572,
				"element": "H" 
			},
			{
				"x": -3.1972949832,
				"y": 0.0215008548,
				"z": 0.8369448842,
				"element": "H" 
			},
			{
				"x": 0.2571732602,
				"y": -2.7838030742,
				"z": 2.0818302761,
				"element": "H" 
			}
		],
		 "valence_orbital": [ 
			{
				"type": "occ",
				"energy": -0.28689,
				"method": "rhf"
			},
			{
				"type": "occ",
				"energy": -0.28032,
				"method": "rhf"
			},
			{
				"type": "occ",
				"energy": -0.2778,
				"method": "rhf"
			},
			{
				"type": "occ",
				"energy": -0.25985,
				"method": "rhf"
			},
			{
				"type": "occ",
				"energy": -0.25116,
				"method": "rhf"
			},
			{
				"type": "unocc",
				"energy": -0.04806,
				"method": "rhf"
			},
			{
				"type": "unocc",
				"energy": -0.02837,
				"method": "rhf"
			},
			{
				"type": "unocc",
				"energy": 0.01193,
				"method": "rhf"
			},
			{
				"type": "unocc",
				"energy": 0.02859,
				"method": "rhf"
			},
			{
				"type": "unocc",
				"energy": 0.0537,
				"method": "rhf"
			}
		],
		"cosmo_sigma_profile": { 
			"-0.025": 0.0,
			"-0.024": 0.0,
			"-0.023": 0.0,
			"-0.022": 0.0,
			"-0.021": 0.0,
			"-0.02": 0.0,
			"-0.019": 0.0,
			"-0.018": 0.0,
			"-0.017": 0.0,
			"-0.016": 0.697407411105,
			"-0.015": 1.04250701778,
			"-0.014": 1.07554580892,
			"-0.013": 1.49688701364,
			"-0.012": 0.380284117717,
			"-0.011": 0.952490466536,
			"-0.01": 1.00801457088,
			"-0.009": 1.10858026067,
			"-0.008": 6.53017255914,
			"-0.007": 12.520101035,
			"-0.006": 20.2655221099,
			"-0.005": 22.032160492,
			"-0.004": 17.5875593533,
			"-0.003": 17.4390426706,
			"-0.002": 15.8241616336,
			"-0.001": 15.5261758248,
			"0.0": 16.4725598953,
			"0.001": 16.9691560373,
			"0.002": 17.4913700383,
			"0.003": 14.4077862995,
			"0.004": 14.0680244074,
			"0.005": 5.09877176754,
			"0.006": 4.75950508115,
			"0.007": 4.58282323203,
			"0.008": 5.90430007837,
			"0.009": 5.61934212643,
			"0.01": 6.09677813708,
			"0.011": 9.27457966928,
			"0.012": 7.48883638829,
			"0.013": 3.3762290847,
			"0.014": 0.319789577622,
			"0.015": 0.0,
			"0.016": 0.0,
			"0.017": 0.0,
			"0.018": 0.0,
			"0.019": 0.0,
			"0.02": 0.0,
			"0.021": 0.0,
			"0.022": 0.0,
			"0.023": 0.0,
			"0.024": 0.0,
			"0.025": 0.0
		}
	}
}
