{
	 "smiles": "CC1=NC2=CC=CC=C2SC2=C1C(=O)N(C1=CC=CC=C1)C1=CC=CC=C21", 
	 "Tm": 504.15, 
	 "num_atms": 43, 
	 "gaussian": { 
		 "optdone": 1, 
		 "sigma_profile": "yes", 
		 "theory": "DFT", 
		 "functional": "B3LYP", 
		 "basiset": "6-31G**", 
		 "properties": { 
			 "R2extent": 10187.1189, 
			 "electric_dipole_moment_norm": 4.52967505347, 
			 "electric_quadrupole_moment_norm": 10.1531474125, 
			 "total_energy": -1469.01104711, 
			 "HOMO_LUMO_gap": 0.14548, 
			 "cosmo_polarized_energy": -14.65, 
			 "cosmo_cavitation_energy": 47.59, 
			 "cosmo_dispersion_energy": -33.24, 
			 "cosmo_repulsion_energy": 2.45, 
			 "cosmo_total_nonelectrostatic_energy": 16.8, 
			 "SMD_solvation_energy": 6.69 
		},
		"coords": [
			{
				"x": 1.1149008328,
				"y": -2.1374835667,
				"z": -2.7653313056,
				"element": "C" 
			},
			{
				"x": 0.3295949804,
				"y": -0.885120545,
				"z": -2.4619423168,
				"element": "C" 
			},
			{
				"x": -0.1213754514,
				"y": -0.2169373522,
				"z": -3.4621782101,
				"element": "N" 
			},
			{
				"x": -0.923080593,
				"y": 0.9216289566,
				"z": -3.374215448,
				"element": "C" 
			},
			{
				"x": -0.622477378,
				"y": 1.9978770221,
				"z": -4.2294499017,
				"element": "C" 
			},
			{
				"x": -1.4278116354,
				"y": 3.1304648465,
				"z": -4.2665502561,
				"element": "C" 
			},
			{
				"x": -2.5749121604,
				"y": 3.2069112218,
				"z": -3.4703920833,
				"element": "C" 
			},
			{
				"x": -2.89495473,
				"y": 2.1486527404,
				"z": -2.6222350757,
				"element": "C" 
			},
			{
				"x": -2.0772605551,
				"y": 1.0147042951,
				"z": -2.5667977276,
				"element": "C" 
			},
			{
				"x": -2.542109227,
				"y": -0.3506600063,
				"z": -1.5005307209,
				"element": "S" 
			},
			{
				"x": -1.0842333688,
				"y": -0.3390274367,
				"z": -0.4478068957,
				"element": "C" 
			},
			{
				"x": 0.1451690281,
				"y": -0.539849812,
				"z": -1.0148991449,
				"element": "C" 
			},
			{
				"x": 1.3710037083,
				"y": -0.4481004355,
				"z": -0.2009880726,
				"element": "C" 
			},
			{
				"x": 2.5059012208,
				"y": -0.5160453429,
				"z": -0.6635146531,
				"element": "O" 
			},
			{
				"x": 1.1833850969,
				"y": -0.2689878296,
				"z": 1.1824111147,
				"element": "N" 
			},
			{
				"x": 2.3873195822,
				"y": -0.2134511968,
				"z": 1.9812812525,
				"element": "C" 
			},
			{
				"x": 2.9121738658,
				"y": -1.3879796022,
				"z": 2.5216524931,
				"element": "C" 
			},
			{
				"x": 4.0704783641,
				"y": -1.3315524209,
				"z": 3.2976595311,
				"element": "C" 
			},
			{
				"x": 4.6994784903,
				"y": -0.1067254067,
				"z": 3.5295007443,
				"element": "C" 
			},
			{
				"x": 4.170225166,
				"y": 1.0642113883,
				"z": 2.9827088057,
				"element": "C" 
			},
			{
				"x": 3.0122901543,
				"y": 1.0137326977,
				"z": 2.2062303281,
				"element": "C" 
			},
			{
				"x": -0.065740549,
				"y": -0.1247323895,
				"z": 1.7867299414,
				"element": "C" 
			},
			{
				"x": -0.1838817229,
				"y": 0.0425162934,
				"z": 3.1798662334,
				"element": "C" 
			},
			{
				"x": -1.4336385517,
				"y": 0.1975383006,
				"z": 3.761053945,
				"element": "C" 
			},
			{
				"x": -2.5944071348,
				"y": 0.1958560958,
				"z": 2.9753093754,
				"element": "C" 
			},
			{
				"x": -2.4883635843,
				"y": 0.0339879031,
				"z": 1.6044090397,
				"element": "C" 
			},
			{
				"x": -1.2350397055,
				"y": -0.1354360093,
				"z": 0.9795608847,
				"element": "C" 
			},
			{
				"x": 1.1329592966,
				"y": -2.2939625258,
				"z": -3.8447721772,
				"element": "H" 
			},
			{
				"x": 2.1321271887,
				"y": -2.0493174142,
				"z": -2.377705166,
				"element": "H" 
			},
			{
				"x": 0.6462394363,
				"y": -3.0024067684,
				"z": -2.2803378044,
				"element": "H" 
			},
			{
				"x": 0.2553998681,
				"y": 1.9119702375,
				"z": -4.8615757657,
				"element": "H" 
			},
			{
				"x": -1.1691369945,
				"y": 3.9514665361,
				"z": -4.9289714947,
				"element": "H" 
			},
			{
				"x": -3.2157694325,
				"y": 4.0823783285,
				"z": -3.5102122891,
				"element": "H" 
			},
			{
				"x": -3.777215171,
				"y": 2.1950400882,
				"z": -1.9915413876,
				"element": "H" 
			},
			{
				"x": 2.4159889028,
				"y": -2.3338099444,
				"z": 2.3286679929,
				"element": "H" 
			},
			{
				"x": 4.4817638763,
				"y": -2.2445903965,
				"z": 3.717533471,
				"element": "H" 
			},
			{
				"x": 5.6017329515,
				"y": -0.0650798929,
				"z": 4.1324375386,
				"element": "H" 
			},
			{
				"x": 4.6599042132,
				"y": 2.0176174025,
				"z": 3.1567629576,
				"element": "H" 
			},
			{
				"x": 2.5938055324,
				"y": 1.9147679411,
				"z": 1.7694435372,
				"element": "H" 
			},
			{
				"x": 0.7069596298,
				"y": 0.0513012343,
				"z": 3.7944997491,
				"element": "H" 
			},
			{
				"x": -1.5045665165,
				"y": 0.32503469,
				"z": 4.8372866177,
				"element": "H" 
			},
			{
				"x": -3.5690487016,
				"y": 0.323701167,
				"z": 3.4350287863,
				"element": "H" 
			},
			{
				"x": -3.3756782223,
				"y": 0.0398969077,
				"z": 0.9823135574,
				"element": "H" 
			}
		],
		 "valence_orbital": [ 
			{
				"type": "occ",
				"energy": -0.25305,
				"method": "rhf"
			},
			{
				"type": "occ",
				"energy": -0.24728,
				"method": "rhf"
			},
			{
				"type": "occ",
				"energy": -0.23547,
				"method": "rhf"
			},
			{
				"type": "occ",
				"energy": -0.22592,
				"method": "rhf"
			},
			{
				"type": "occ",
				"energy": -0.2151,
				"method": "rhf"
			},
			{
				"type": "unocc",
				"energy": -0.06962,
				"method": "rhf"
			},
			{
				"type": "unocc",
				"energy": -0.02919,
				"method": "rhf"
			},
			{
				"type": "unocc",
				"energy": -0.01692,
				"method": "rhf"
			},
			{
				"type": "unocc",
				"energy": -0.01542,
				"method": "rhf"
			},
			{
				"type": "unocc",
				"energy": -0.01064,
				"method": "rhf"
			}
		],
		"cosmo_sigma_profile": { 
			"-0.025": 0.0,
			"-0.024": 0.0,
			"-0.023": 0.0,
			"-0.022": 0.0,
			"-0.021": 0.0,
			"-0.02": 0.0,
			"-0.019": 0.0,
			"-0.018": 0.0,
			"-0.017": 0.0,
			"-0.016": 0.0,
			"-0.015": 0.0,
			"-0.014": 0.0,
			"-0.013": 0.0,
			"-0.012": 0.0,
			"-0.011": 0.0,
			"-0.01": 0.0,
			"-0.009": 0.0,
			"-0.008": 0.00897217830033,
			"-0.007": 6.44725614998,
			"-0.006": 23.6245909651,
			"-0.005": 30.4147967737,
			"-0.004": 32.9318247338,
			"-0.003": 31.1159076117,
			"-0.002": 30.0475055604,
			"-0.001": 32.3288487376,
			"0.0": 31.7069859578,
			"0.001": 31.3009150808,
			"0.002": 30.2957166349,
			"0.003": 32.2022535709,
			"0.004": 29.6769862556,
			"0.005": 11.1267168049,
			"0.006": 6.8128608282,
			"0.007": 3.98367496938,
			"0.008": 3.6083059882,
			"0.009": 3.29997457706,
			"0.01": 2.10134745735,
			"0.011": 2.76042158425,
			"0.012": 3.41624643725,
			"0.013": 4.46294355738,
			"0.014": 1.22541842862,
			"0.015": 0.0,
			"0.016": 0.0,
			"0.017": 0.0,
			"0.018": 0.0,
			"0.019": 0.0,
			"0.02": 0.0,
			"0.021": 0.0,
			"0.022": 0.0,
			"0.023": 0.0,
			"0.024": 0.0,
			"0.025": 0.0
		}
	}
}
