{
	 "smiles": "CC1CC=C(C)C1=NNC1=C(C=C(C=C1)[N+]([O-])=O)[N+]([O-])=O", 
	 "Tm": 471.15, 
	 "num_atms": 35, 
	 "gaussian": { 
		 "optdone": 1, 
		 "sigma_profile": "yes", 
		 "theory": "DFT", 
		 "functional": "B3LYP", 
		 "basiset": "6-31G**", 
		 "properties": { 
			 "R2extent": 9319.6351, 
			 "electric_dipole_moment_norm": 8.59361732334, 
			 "electric_quadrupole_moment_norm": 23.0559318218, 
			 "total_energy": -1023.50027277, 
			 "HOMO_LUMO_gap": 0.12044, 
			 "cosmo_polarized_energy": -14.1, 
			 "cosmo_cavitation_energy": 40.05, 
			 "cosmo_dispersion_energy": -28.01, 
			 "cosmo_repulsion_energy": 2.13, 
			 "cosmo_total_nonelectrostatic_energy": 14.17, 
			 "SMD_solvation_energy": 10.31 
		},
		"coords": [
			{
				"x": -0.1816746143,
				"y": -1.1765937229,
				"z": 3.3222810754,
				"element": "C" 
			},
			{
				"x": 0.8546524169,
				"y": -1.4861034077,
				"z": 2.2216378658,
				"element": "C" 
			},
			{
				"x": 2.2752904916,
				"y": -1.7165079192,
				"z": 2.8127845294,
				"element": "C" 
			},
			{
				"x": 3.0723844068,
				"y": -0.5281360828,
				"z": 2.3444330524,
				"element": "C" 
			},
			{
				"x": 2.3975932348,
				"y": 0.2573594903,
				"z": 1.48188483,
				"element": "C" 
			},
			{
				"x": 2.8745008984,
				"y": 1.493627611,
				"z": 0.7851197884,
				"element": "C" 
			},
			{
				"x": 1.0615051761,
				"y": -0.3063069146,
				"z": 1.2720798147,
				"element": "C" 
			},
			{
				"x": 0.26476683,
				"y": 0.1925290901,
				"z": 0.3852431001,
				"element": "N" 
			},
			{
				"x": -0.9431801781,
				"y": -0.4260408655,
				"z": 0.2194645198,
				"element": "N" 
			},
			{
				"x": -1.8371580627,
				"y": 0.030801337,
				"z": -0.6933436076,
				"element": "C" 
			},
			{
				"x": -3.1027103604,
				"y": -0.6028331016,
				"z": -0.9105798795,
				"element": "C" 
			},
			{
				"x": -4.0035218596,
				"y": -0.1088041162,
				"z": -1.8565170825,
				"element": "C" 
			},
			{
				"x": -3.6701965331,
				"y": 1.0107731435,
				"z": -2.5928573654,
				"element": "C" 
			},
			{
				"x": -2.4372205343,
				"y": 1.6618768344,
				"z": -2.4054665933,
				"element": "C" 
			},
			{
				"x": -1.5441864753,
				"y": 1.1818685971,
				"z": -1.47682856,
				"element": "C" 
			},
			{
				"x": -4.6144952973,
				"y": 1.524058553,
				"z": -3.5797619784,
				"element": "N" 
			},
			{
				"x": -4.2800902601,
				"y": 2.5260650633,
				"z": -4.2162663334,
				"element": "O" 
			},
			{
				"x": -5.6842215404,
				"y": 0.9290991077,
				"z": -3.717986906,
				"element": "O" 
			},
			{
				"x": -3.521417034,
				"y": -1.7787312024,
				"z": -0.1719930794,
				"element": "N" 
			},
			{
				"x": -4.6200583625,
				"y": -2.2700043483,
				"z": -0.4157597842,
				"element": "O" 
			},
			{
				"x": -2.749085753,
				"y": -2.2504810395,
				"z": 0.690131023,
				"element": "O" 
			},
			{
				"x": -1.1751629962,
				"y": -0.9688401181,
				"z": 2.9161632453,
				"element": "H" 
			},
			{
				"x": -0.2735264533,
				"y": -2.0292168966,
				"z": 4.0017278366,
				"element": "H" 
			},
			{
				"x": 0.1329672828,
				"y": -0.3062232542,
				"z": 3.9070601455,
				"element": "H" 
			},
			{
				"x": 0.5224818342,
				"y": -2.3699496886,
				"z": 1.661050952,
				"element": "H" 
			},
			{
				"x": 2.7199056702,
				"y": -2.6536369155,
				"z": 2.4512526561,
				"element": "H" 
			},
			{
				"x": 2.2513680156,
				"y": -1.7932398465,
				"z": 3.907011397,
				"element": "H" 
			},
			{
				"x": 4.0962676497,
				"y": -0.3519711122,
				"z": 2.6605763997,
				"element": "H" 
			},
			{
				"x": 2.2337792736,
				"y": 2.3489355411,
				"z": 1.0262199913,
				"element": "H" 
			},
			{
				"x": 3.9021617169,
				"y": 1.7369570107,
				"z": 1.0658925659,
				"element": "H" 
			},
			{
				"x": 2.8290965698,
				"y": 1.3658026709,
				"z": -0.3018400677,
				"element": "H" 
			},
			{
				"x": -1.2119621299,
				"y": -1.2696158025,
				"z": 0.7227036173,
				"element": "H" 
			},
			{
				"x": -4.9527072984,
				"y": -0.6053160579,
				"z": -2.0033519022,
				"element": "H" 
			},
			{
				"x": -2.2103709688,
				"y": 2.5375392881,
				"z": -3.0010610274,
				"element": "H" 
			},
			{
				"x": -0.5901747561,
				"y": 1.6644590744,
				"z": -1.3147042386,
				"element": "H" 
			}
		],
		 "valence_orbital": [ 
			{
				"type": "occ",
				"energy": -0.29475,
				"method": "rhf"
			},
			{
				"type": "occ",
				"energy": -0.28768,
				"method": "rhf"
			},
			{
				"type": "occ",
				"energy": -0.28683,
				"method": "rhf"
			},
			{
				"type": "occ",
				"energy": -0.27582,
				"method": "rhf"
			},
			{
				"type": "occ",
				"energy": -0.22187,
				"method": "rhf"
			},
			{
				"type": "unocc",
				"energy": -0.10143,
				"method": "rhf"
			},
			{
				"type": "unocc",
				"energy": -0.0873,
				"method": "rhf"
			},
			{
				"type": "unocc",
				"energy": -0.04547,
				"method": "rhf"
			},
			{
				"type": "unocc",
				"energy": -0.01293,
				"method": "rhf"
			},
			{
				"type": "unocc",
				"energy": 0.01405,
				"method": "rhf"
			}
		],
		"cosmo_sigma_profile": { 
			"-0.025": 0.0,
			"-0.024": 0.0,
			"-0.023": 0.0,
			"-0.022": 0.0,
			"-0.021": 0.0,
			"-0.02": 0.0,
			"-0.019": 0.0,
			"-0.018": 0.0,
			"-0.017": 0.0,
			"-0.016": 0.0,
			"-0.015": 0.0,
			"-0.014": 0.0,
			"-0.013": 0.0,
			"-0.012": 0.0,
			"-0.011": 0.0,
			"-0.01": 0.0303478306998,
			"-0.009": 0.794209200035,
			"-0.008": 2.08198757554,
			"-0.007": 5.11645817981,
			"-0.006": 11.3640792895,
			"-0.005": 15.976255637,
			"-0.004": 29.6974948572,
			"-0.003": 34.944096828,
			"-0.002": 41.4056318078,
			"-0.001": 35.7638927976,
			"0.0": 31.9130041661,
			"0.001": 21.2117373981,
			"0.002": 10.9961216853,
			"0.003": 9.60171892335,
			"0.004": 9.03063342346,
			"0.005": 7.58794713098,
			"0.006": 8.12791080302,
			"0.007": 13.576157289,
			"0.008": 14.0128790365,
			"0.009": 8.5714725183,
			"0.01": 6.61417756104,
			"0.011": 0.756976299776,
			"0.012": 0.0,
			"0.013": 0.0,
			"0.014": 0.0,
			"0.015": 0.0,
			"0.016": 0.0,
			"0.017": 0.0,
			"0.018": 0.0,
			"0.019": 0.0,
			"0.02": 0.0,
			"0.021": 0.0,
			"0.022": 0.0,
			"0.023": 0.0,
			"0.024": 0.0,
			"0.025": 0.0
		}
	}
}
