{
	 "smiles": "CC(C)CCCC(C)C1CCC2C3CC(=O)C4CC(O)CCC4(C)C3CCC12C", 
	 "Tm": 414.15, 
	 "num_atms": 75, 
	 "gaussian": { 
		 "optdone": 1, 
		 "sigma_profile": "yes", 
		 "theory": "DFT", 
		 "functional": "B3LYP", 
		 "basiset": "6-31G**", 
		 "properties": { 
			 "R2extent": 16639.0322, 
			 "electric_dipole_moment_norm": 4.16205000691, 
			 "electric_quadrupole_moment_norm": 23.7896188547, 
			 "total_energy": -1207.07413991, 
			 "HOMO_LUMO_gap": 0.21795, 
			 "cosmo_polarized_energy": -13.46, 
			 "cosmo_cavitation_energy": 63.46, 
			 "cosmo_dispersion_energy": -41.79, 
			 "cosmo_repulsion_energy": 3.11, 
			 "cosmo_total_nonelectrostatic_energy": 24.78, 
			 "SMD_solvation_energy": 9.21 
		},
		"coords": [
			{
				"x": -3.8727567959,
				"y": -4.7558274183,
				"z": 0.3301811262,
				"element": "C" 
			},
			{
				"x": -2.8891282853,
				"y": -5.1706879267,
				"z": 1.4348205339,
				"element": "C" 
			},
			{
				"x": -3.6452941256,
				"y": -5.4938179566,
				"z": 2.7328228051,
				"element": "C" 
			},
			{
				"x": -1.8090667974,
				"y": -4.086797954,
				"z": 1.6311607584,
				"element": "C" 
			},
			{
				"x": -0.6658014379,
				"y": -4.4701184411,
				"z": 2.5832865943,
				"element": "C" 
			},
			{
				"x": 0.4372812078,
				"y": -3.400514938,
				"z": 2.7176294403,
				"element": "C" 
			},
			{
				"x": 1.3593920242,
				"y": -3.2366289033,
				"z": 1.4843913644,
				"element": "C" 
			},
			{
				"x": 2.3181251992,
				"y": -4.4394506723,
				"z": 1.3791321451,
				"element": "C" 
			},
			{
				"x": 2.1768785214,
				"y": -1.9123756499,
				"z": 1.4330501789,
				"element": "C" 
			},
			{
				"x": 2.7344567499,
				"y": -1.3605957973,
				"z": 2.7801873123,
				"element": "C" 
			},
			{
				"x": 2.9515389973,
				"y": 0.1690916123,
				"z": 2.5620104747,
				"element": "C" 
			},
			{
				"x": 2.6412739018,
				"y": 0.3830244633,
				"z": 1.0698540474,
				"element": "C" 
			},
			{
				"x": 2.4314320064,
				"y": 1.8123062795,
				"z": 0.5060135757,
				"element": "C" 
			},
			{
				"x": 1.8739314888,
				"y": 2.8847447149,
				"z": 1.4624924296,
				"element": "C" 
			},
			{
				"x": 1.8382340667,
				"y": 4.2359133525,
				"z": 0.7537069994,
				"element": "C" 
			},
			{
				"x": 2.2986471101,
				"y": 5.2413268228,
				"z": 1.2630228771,
				"element": "O" 
			},
			{
				"x": 1.1769230949,
				"y": 4.2713601737,
				"z": -0.6276762907,
				"element": "C" 
			},
			{
				"x": -0.3628598722,
				"y": 4.2940276022,
				"z": -0.4235022766,
				"element": "C" 
			},
			{
				"x": -1.1423977206,
				"y": 4.2927243986,
				"z": -1.7430939291,
				"element": "C" 
			},
			{
				"x": -2.5482916649,
				"y": 4.3345681662,
				"z": -1.5210988786,
				"element": "O" 
			},
			{
				"x": -0.717586209,
				"y": 3.1061314723,
				"z": -2.6104767495,
				"element": "C" 
			},
			{
				"x": 0.7963137119,
				"y": 3.1353498692,
				"z": -2.8574188175,
				"element": "C" 
			},
			{
				"x": 1.6769931257,
				"y": 3.1248183492,
				"z": -1.5775670402,
				"element": "C" 
			},
			{
				"x": 3.1221838912,
				"y": 3.437355986,
				"z": -2.0243654291,
				"element": "C" 
			},
			{
				"x": 1.5842154945,
				"y": 1.7710532899,
				"z": -0.7991645659,
				"element": "C" 
			},
			{
				"x": 1.9072540174,
				"y": 0.4787977413,
				"z": -1.5746606258,
				"element": "C" 
			},
			{
				"x": 1.4145597554,
				"y": -0.7816829376,
				"z": -0.806778098,
				"element": "C" 
			},
			{
				"x": 1.5403565792,
				"y": -0.6609929321,
				"z": 0.7418178285,
				"element": "C" 
			},
			{
				"x": 0.1703420633,
				"y": -0.3148702152,
				"z": 1.3659524332,
				"element": "C" 
			},
			{
				"x": -4.4079161725,
				"y": -3.8389283139,
				"z": 0.6069650601,
				"element": "H" 
			},
			{
				"x": -4.622545698,
				"y": -5.5341653048,
				"z": 0.151295797,
				"element": "H" 
			},
			{
				"x": -3.355187653,
				"y": -4.5651155779,
				"z": -0.6165389387,
				"element": "H" 
			},
			{
				"x": -2.3803367659,
				"y": -6.0888417393,
				"z": 1.1032665623,
				"element": "H" 
			},
			{
				"x": -4.1492080718,
				"y": -4.6002278478,
				"z": 3.1223539627,
				"element": "H" 
			},
			{
				"x": -4.4126236678,
				"y": -6.2560717666,
				"z": 2.5588975029,
				"element": "H" 
			},
			{
				"x": -2.9807166786,
				"y": -5.8699465871,
				"z": 3.5163823157,
				"element": "H" 
			},
			{
				"x": -2.2916783454,
				"y": -3.1676818937,
				"z": 1.9973694371,
				"element": "H" 
			},
			{
				"x": -1.39463889,
				"y": -3.838359077,
				"z": 0.6450615222,
				"element": "H" 
			},
			{
				"x": -0.2303175009,
				"y": -5.4246532405,
				"z": 2.2586546801,
				"element": "H" 
			},
			{
				"x": -1.0764641118,
				"y": -4.6560440598,
				"z": 3.5828940906,
				"element": "H" 
			},
			{
				"x": 1.0625763869,
				"y": -3.6543560159,
				"z": 3.583791689,
				"element": "H" 
			},
			{
				"x": -0.0435691175,
				"y": -2.4489957673,
				"z": 2.9670902401,
				"element": "H" 
			},
			{
				"x": 0.7294756358,
				"y": -3.2480040632,
				"z": 0.5834650595,
				"element": "H" 
			},
			{
				"x": 1.7835424652,
				"y": -5.3940740123,
				"z": 1.4006089671,
				"element": "H" 
			},
			{
				"x": 2.8946072811,
				"y": -4.406870574,
				"z": 0.4483987692,
				"element": "H" 
			},
			{
				"x": 3.0316871914,
				"y": -4.4430502113,
				"z": 2.2119984579,
				"element": "H" 
			},
			{
				"x": 3.0524270028,
				"y": -2.1398138297,
				"z": 0.809175471,
				"element": "H" 
			},
			{
				"x": 3.6639187604,
				"y": -1.8677135037,
				"z": 3.05746399,
				"element": "H" 
			},
			{
				"x": 2.035030841,
				"y": -1.5289331908,
				"z": 3.6032063735,
				"element": "H" 
			},
			{
				"x": 3.9658844011,
				"y": 0.4900743796,
				"z": 2.8204979498,
				"element": "H" 
			},
			{
				"x": 2.2711733153,
				"y": 0.7468122047,
				"z": 3.1963226597,
				"element": "H" 
			},
			{
				"x": 3.5234367344,
				"y": 0.0052238627,
				"z": 0.533678366,
				"element": "H" 
			},
			{
				"x": 3.4363559532,
				"y": 2.1573724553,
				"z": 0.2327901318,
				"element": "H" 
			},
			{
				"x": 2.4841991031,
				"y": 3.0010876597,
				"z": 2.3616680585,
				"element": "H" 
			},
			{
				"x": 0.8566864738,
				"y": 2.6235961919,
				"z": 1.7838622412,
				"element": "H" 
			},
			{
				"x": 1.4620507241,
				"y": 5.2341911325,
				"z": -1.0689500569,
				"element": "H" 
			},
			{
				"x": -0.6878741441,
				"y": 3.4222003914,
				"z": 0.1614987016,
				"element": "H" 
			},
			{
				"x": -0.6349790423,
				"y": 5.1796385837,
				"z": 0.1604867999,
				"element": "H" 
			},
			{
				"x": -0.9221606356,
				"y": 5.2210969611,
				"z": -2.2862214351,
				"element": "H" 
			},
			{
				"x": -2.796453721,
				"y": 3.5190364853,
				"z": -1.0642802963,
				"element": "H" 
			},
			{
				"x": -1.0157911842,
				"y": 2.1721813059,
				"z": -2.1113283567,
				"element": "H" 
			},
			{
				"x": -1.2589521619,
				"y": 3.1382217243,
				"z": -3.5624379131,
				"element": "H" 
			},
			{
				"x": 1.0281340813,
				"y": 4.0565691776,
				"z": -3.4095360947,
				"element": "H" 
			},
			{
				"x": 1.0910276062,
				"y": 2.3149948206,
				"z": -3.5204887492,
				"element": "H" 
			},
			{
				"x": 3.5224496851,
				"y": 2.6386324658,
				"z": -2.6578876529,
				"element": "H" 
			},
			{
				"x": 3.1444173408,
				"y": 4.363292738,
				"z": -2.6085684942,
				"element": "H" 
			},
			{
				"x": 3.8099196383,
				"y": 3.575581698,
				"z": -1.1857335998,
				"element": "H" 
			},
			{
				"x": 0.534779496,
				"y": 1.6802752235,
				"z": -0.4973777276,
				"element": "H" 
			},
			{
				"x": 1.4456261872,
				"y": 0.4837436632,
				"z": -2.5668017596,
				"element": "H" 
			},
			{
				"x": 2.9893005869,
				"y": 0.4138753516,
				"z": -1.7456716968,
				"element": "H" 
			},
			{
				"x": 1.9812550261,
				"y": -1.6504277901,
				"z": -1.1637830226,
				"element": "H" 
			},
			{
				"x": 0.3687356166,
				"y": -0.9739013199,
				"z": -1.0760115101,
				"element": "H" 
			},
			{
				"x": -0.5547774201,
				"y": -1.1077738445,
				"z": 1.1577590533,
				"element": "H" 
			},
			{
				"x": 0.2239799955,
				"y": -0.1927123962,
				"z": 2.451857897,
				"element": "H" 
			},
			{
				"x": -0.2473366454,
				"y": 0.6082308997,
				"z": 0.9566252738,
				"element": "H" 
			}
		],
		 "valence_orbital": [ 
			{
				"type": "occ",
				"energy": -0.29079,
				"method": "rhf"
			},
			{
				"type": "occ",
				"energy": -0.28846,
				"method": "rhf"
			},
			{
				"type": "occ",
				"energy": -0.27432,
				"method": "rhf"
			},
			{
				"type": "occ",
				"energy": -0.2658,
				"method": "rhf"
			},
			{
				"type": "occ",
				"energy": -0.22942,
				"method": "rhf"
			},
			{
				"type": "unocc",
				"energy": -0.01147,
				"method": "rhf"
			},
			{
				"type": "unocc",
				"energy": 0.0541,
				"method": "rhf"
			},
			{
				"type": "unocc",
				"energy": 0.06335,
				"method": "rhf"
			},
			{
				"type": "unocc",
				"energy": 0.07636,
				"method": "rhf"
			},
			{
				"type": "unocc",
				"energy": 0.08158,
				"method": "rhf"
			}
		],
		"cosmo_sigma_profile": { 
			"-0.025": 0.0,
			"-0.024": 0.0,
			"-0.023": 0.0,
			"-0.022": 0.0,
			"-0.021": 0.0,
			"-0.02": 0.0,
			"-0.019": 0.0,
			"-0.018": 0.0,
			"-0.017": 0.0,
			"-0.016": 0.0,
			"-0.015": 0.177316834859,
			"-0.014": 1.26591282546,
			"-0.013": 0.514684892291,
			"-0.012": 0.893196753625,
			"-0.011": 1.05290389007,
			"-0.01": 1.39116864231,
			"-0.009": 1.30216509212,
			"-0.008": 1.08243382105,
			"-0.007": 1.58138502201,
			"-0.006": 3.36447129906,
			"-0.005": 6.71079302956,
			"-0.004": 10.7021832946,
			"-0.003": 31.9244353475,
			"-0.002": 76.4027213185,
			"-0.001": 101.713512491,
			"0.0": 93.108112649,
			"0.001": 66.4872441099,
			"0.002": 39.7208376897,
			"0.003": 5.44559823915,
			"0.004": 2.51579598987,
			"0.005": 3.87957917738,
			"0.006": 3.03915671945,
			"0.007": 1.81835630261,
			"0.008": 2.10398430231,
			"0.009": 3.54246378674,
			"0.01": 2.67473017816,
			"0.011": 4.26248047933,
			"0.012": 5.35611917475,
			"0.013": 4.90331688342,
			"0.014": 3.68029178105,
			"0.015": 1.15359579493,
			"0.016": 0.0,
			"0.017": 0.0,
			"0.018": 0.0,
			"0.019": 0.0,
			"0.02": 0.0,
			"0.021": 0.0,
			"0.022": 0.0,
			"0.023": 0.0,
			"0.024": 0.0,
			"0.025": 0.0
		}
	}
}
