{
	 "smiles": "FC1=CC(=CC=C1)C1=NC(CCl)=CO1", 
	 "Tm": 329.15, 
	 "num_atms": 21, 
	 "gaussian": { 
		 "optdone": 1, 
		 "sigma_profile": "yes", 
		 "theory": "DFT", 
		 "functional": "B3LYP", 
		 "basiset": "6-31G**", 
		 "properties": { 
			 "R2extent": 5102.1343, 
			 "electric_dipole_moment_norm": 3.70614990118, 
			 "electric_quadrupole_moment_norm": 15.1800047978, 
			 "total_energy": -1075.27883867, 
			 "HOMO_LUMO_gap": 0.18033, 
			 "cosmo_polarized_energy": -9.61, 
			 "cosmo_cavitation_energy": 28.67, 
			 "cosmo_dispersion_energy": -20.98, 
			 "cosmo_repulsion_energy": 1.64, 
			 "cosmo_total_nonelectrostatic_energy": 9.33, 
			 "SMD_solvation_energy": 4.33 
		},
		"coords": [
			{
				"x": -2.5378552779,
				"y": -1.5835556085,
				"z": -2.8694506336,
				"element": "F" 
			},
			{
				"x": -2.6132047583,
				"y": -1.2641262659,
				"z": -1.5617625516,
				"element": "C" 
			},
			{
				"x": -1.4436934293,
				"y": -1.2041586691,
				"z": -0.8205735256,
				"element": "C" 
			},
			{
				"x": -1.5278509035,
				"y": -0.8705414385,
				"z": 0.5402780521,
				"element": "C" 
			},
			{
				"x": -2.7769952145,
				"y": -0.6069623271,
				"z": 1.1242048876,
				"element": "C" 
			},
			{
				"x": -3.9331070277,
				"y": -0.6771035183,
				"z": 0.3485357264,
				"element": "C" 
			},
			{
				"x": -3.8635768218,
				"y": -1.00684067,
				"z": -1.0057183917,
				"element": "C" 
			},
			{
				"x": -0.2960208469,
				"y": -0.8067064068,
				"z": 1.3215091048,
				"element": "C" 
			},
			{
				"x": 0.9255549279,
				"y": -1.012455349,
				"z": 0.919967973,
				"element": "N" 
			},
			{
				"x": 1.7127782412,
				"y": -0.8229647073,
				"z": 2.0462980051,
				"element": "C" 
			},
			{
				"x": 3.1893113823,
				"y": -0.9622909022,
				"z": 2.0122820749,
				"element": "C" 
			},
			{
				"x": 3.7348926931,
				"y": -2.707823645,
				"z": 2.1394069627,
				"element": "Cl" 
			},
			{
				"x": 0.9066111798,
				"y": -0.5033157672,
				"z": 3.0960502838,
				"element": "C" 
			},
			{
				"x": -0.382705843,
				"y": -0.4877378727,
				"z": 2.6492427068,
				"element": "O" 
			},
			{
				"x": -0.4850385394,
				"y": -1.4117213642,
				"z": -1.2808790514,
				"element": "H" 
			},
			{
				"x": -2.8359063948,
				"y": -0.3506079315,
				"z": 2.1757248675,
				"element": "H" 
			},
			{
				"x": -4.898620162,
				"y": -0.4734649953,
				"z": 0.8011136994,
				"element": "H" 
			},
			{
				"x": -4.7494371649,
				"y": -1.06745397,
				"z": -1.6282701617,
				"element": "H" 
			},
			{
				"x": 3.6632873851,
				"y": -0.4399076469,
				"z": 2.8428396662,
				"element": "H" 
			},
			{
				"x": 3.5896591648,
				"y": -0.5985009543,
				"z": 1.0665998707,
				"element": "H" 
			},
			{
				"x": 1.0664174098,
				"y": -0.2782599901,
				"z": 4.1382004346,
				"element": "H" 
			}
		],
		 "valence_orbital": [ 
			{
				"type": "occ",
				"energy": -0.29956,
				"method": "rhf"
			},
			{
				"type": "occ",
				"energy": -0.29429,
				"method": "rhf"
			},
			{
				"type": "occ",
				"energy": -0.28911,
				"method": "rhf"
			},
			{
				"type": "occ",
				"energy": -0.25763,
				"method": "rhf"
			},
			{
				"type": "occ",
				"energy": -0.23518,
				"method": "rhf"
			},
			{
				"type": "unocc",
				"energy": -0.05485,
				"method": "rhf"
			},
			{
				"type": "unocc",
				"energy": -0.01788,
				"method": "rhf"
			},
			{
				"type": "unocc",
				"energy": -0.00809,
				"method": "rhf"
			},
			{
				"type": "unocc",
				"energy": 0.04532,
				"method": "rhf"
			},
			{
				"type": "unocc",
				"energy": 0.07063,
				"method": "rhf"
			}
		],
		"cosmo_sigma_profile": { 
			"-0.025": 0.0,
			"-0.024": 0.0,
			"-0.023": 0.0,
			"-0.022": 0.0,
			"-0.021": 0.0,
			"-0.02": 0.0,
			"-0.019": 0.0,
			"-0.018": 0.0,
			"-0.017": 0.0,
			"-0.016": 0.0,
			"-0.015": 0.0,
			"-0.014": 0.0,
			"-0.013": 0.0,
			"-0.012": 0.0,
			"-0.011": 0.915175255572,
			"-0.01": 2.24757521402,
			"-0.009": 3.35956023706,
			"-0.008": 6.67788371044,
			"-0.007": 9.92809321389,
			"-0.006": 10.6716893039,
			"-0.005": 13.4804852791,
			"-0.004": 9.59237709041,
			"-0.003": 8.93838661207,
			"-0.002": 13.1535147172,
			"-0.001": 15.5613983495,
			"0.0": 23.6660962818,
			"0.001": 21.0678185786,
			"0.002": 21.0729433373,
			"0.003": 20.4813235451,
			"0.004": 18.5644778494,
			"0.005": 10.0914569974,
			"0.006": 12.638326422,
			"0.007": 5.83194286314,
			"0.008": 1.16069257368,
			"0.009": 0.839334884248,
			"0.01": 1.27364176992,
			"0.011": 1.15655851827,
			"0.012": 0.430995571,
			"0.013": 0.66186835548,
			"0.014": 0.00120669257061,
			"0.015": 0.0,
			"0.016": 0.0,
			"0.017": 0.0,
			"0.018": 0.0,
			"0.019": 0.0,
			"0.02": 0.0,
			"0.021": 0.0,
			"0.022": 0.0,
			"0.023": 0.0,
			"0.024": 0.0,
			"0.025": 0.0
		}
	}
}
