{
	 "smiles": "OC(=O)C1CCC(CC1)NC(=O)C1CCCC1", 
	 "Tm": 435.15, 
	 "num_atms": 38, 
	 "gaussian": { 
		 "optdone": 1, 
		 "sigma_profile": "yes", 
		 "theory": "DFT", 
		 "functional": "B3LYP", 
		 "basiset": "6-31G**", 
		 "properties": { 
			 "R2extent": 5602.8404, 
			 "electric_dipole_moment_norm": 3.54323071927, 
			 "electric_quadrupole_moment_norm": 15.1229515843, 
			 "total_energy": -788.51125759, 
			 "HOMO_LUMO_gap": 0.23726, 
			 "cosmo_polarized_energy": -18.21, 
			 "cosmo_cavitation_energy": 37.93, 
			 "cosmo_dispersion_energy": -25.98, 
			 "cosmo_repulsion_energy": 2.05, 
			 "cosmo_total_nonelectrostatic_energy": 14.0, 
			 "SMD_solvation_energy": 6.69 
		},
		"coords": [
			{
				"x": 2.97904173,
				"y": -3.5831729791,
				"z": 1.3541407848,
				"element": "O" 
			},
			{
				"x": 2.5924009423,
				"y": -2.9585372943,
				"z": 2.4976267582,
				"element": "C" 
			},
			{
				"x": 2.9522096227,
				"y": -3.3367714867,
				"z": 3.5907036265,
				"element": "O" 
			},
			{
				"x": 1.6867761172,
				"y": -1.7734424641,
				"z": 2.2254894025,
				"element": "C" 
			},
			{
				"x": 0.3751187602,
				"y": -2.2067687842,
				"z": 1.5337537355,
				"element": "C" 
			},
			{
				"x": -0.5406356377,
				"y": -1.0026010624,
				"z": 1.2702240834,
				"element": "C" 
			},
			{
				"x": 0.1638160286,
				"y": 0.0908728909,
				"z": 0.4446096204,
				"element": "C" 
			},
			{
				"x": 1.4813934449,
				"y": 0.5098886991,
				"z": 1.125641556,
				"element": "C" 
			},
			{
				"x": 2.4024270521,
				"y": -0.6904611615,
				"z": 1.388029029,
				"element": "C" 
			},
			{
				"x": -0.7134423789,
				"y": 1.2376562662,
				"z": 0.2437662249,
				"element": "N" 
			},
			{
				"x": -1.1812193572,
				"y": 1.8663472223,
				"z": -0.8888215455,
				"element": "C" 
			},
			{
				"x": -1.8835829428,
				"y": 2.8661296249,
				"z": -0.7706725746,
				"element": "O" 
			},
			{
				"x": -0.8313590266,
				"y": 1.3313154574,
				"z": -2.2790202297,
				"element": "C" 
			},
			{
				"x": -1.2340016628,
				"y": -0.1472434898,
				"z": -2.6041270927,
				"element": "C" 
			},
			{
				"x": -0.0317184906,
				"y": -0.760228777,
				"z": -3.3691694534,
				"element": "C" 
			},
			{
				"x": 0.7875071805,
				"y": 0.4496641113,
				"z": -3.8541958132,
				"element": "C" 
			},
			{
				"x": 0.658535354,
				"y": 1.4546057163,
				"z": -2.6983383936,
				"element": "C" 
			},
			{
				"x": 3.5493929285,
				"y": -4.3196898165,
				"z": 1.6318064573,
				"element": "H" 
			},
			{
				"x": 1.4496826195,
				"y": -1.3615773945,
				"z": 3.2128963659,
				"element": "H" 
			},
			{
				"x": 0.6203398716,
				"y": -2.7030933815,
				"z": 0.5868652739,
				"element": "H" 
			},
			{
				"x": -0.1483561855,
				"y": -2.9455393745,
				"z": 2.1511663428,
				"element": "H" 
			},
			{
				"x": -0.8627446579,
				"y": -0.567782804,
				"z": 2.227361787,
				"element": "H" 
			},
			{
				"x": -1.4513497243,
				"y": -1.323629904,
				"z": 0.7526083196,
				"element": "H" 
			},
			{
				"x": 0.4036393692,
				"y": -0.324818001,
				"z": -0.5366552813,
				"element": "H" 
			},
			{
				"x": 1.9937891949,
				"y": 1.2545240699,
				"z": 0.5064131147,
				"element": "H" 
			},
			{
				"x": 1.24234963,
				"y": 1.0068399768,
				"z": 2.0767378089,
				"element": "H" 
			},
			{
				"x": 2.7213667456,
				"y": -1.1313701344,
				"z": 0.4356493413,
				"element": "H" 
			},
			{
				"x": 3.3114091587,
				"y": -0.3582041055,
				"z": 1.9022305603,
				"element": "H" 
			},
			{
				"x": -1.0228885903,
				"y": 1.718019572,
				"z": 1.0812020575,
				"element": "H" 
			},
			{
				"x": -1.4075523845,
				"y": 1.9907571142,
				"z": -2.9321704167,
				"element": "H" 
			},
			{
				"x": -2.1341000154,
				"y": -0.1466070352,
				"z": -3.2260002771,
				"element": "H" 
			},
			{
				"x": -1.4847192366,
				"y": -0.7233672067,
				"z": -1.7091446692,
				"element": "H" 
			},
			{
				"x": 0.5819389881,
				"y": -1.367951941,
				"z": -2.6918884122,
				"element": "H" 
			},
			{
				"x": -0.3458648824,
				"y": -1.4190778,
				"z": -4.1844186152,
				"element": "H" 
			},
			{
				"x": 0.3364493045,
				"y": 0.8704093836,
				"z": -4.761861886,
				"element": "H" 
			},
			{
				"x": 1.8260981701,
				"y": 0.1983359314,
				"z": -4.0922989243,
				"element": "H" 
			},
			{
				"x": 0.9162246485,
				"y": 2.4800518011,
				"z": -2.979153483,
				"element": "H" 
			},
			{
				"x": 1.3304283119,
				"y": 1.1678185606,
				"z": -1.8812851826,
				"element": "H" 
			}
		],
		 "valence_orbital": [ 
			{
				"type": "occ",
				"energy": -0.32019,
				"method": "rhf"
			},
			{
				"type": "occ",
				"energy": -0.31718,
				"method": "rhf"
			},
			{
				"type": "occ",
				"energy": -0.27392,
				"method": "rhf"
			},
			{
				"type": "occ",
				"energy": -0.2401,
				"method": "rhf"
			},
			{
				"type": "occ",
				"energy": -0.23428,
				"method": "rhf"
			},
			{
				"type": "unocc",
				"energy": 0.00298,
				"method": "rhf"
			},
			{
				"type": "unocc",
				"energy": 0.03228,
				"method": "rhf"
			},
			{
				"type": "unocc",
				"energy": 0.05209,
				"method": "rhf"
			},
			{
				"type": "unocc",
				"energy": 0.06863,
				"method": "rhf"
			},
			{
				"type": "unocc",
				"energy": 0.07587,
				"method": "rhf"
			}
		],
		"cosmo_sigma_profile": { 
			"-0.025": 0.0,
			"-0.024": 0.0,
			"-0.023": 0.0,
			"-0.022": 0.0,
			"-0.021": 0.0,
			"-0.02": 0.0,
			"-0.019": 0.0,
			"-0.018": 0.454325366164,
			"-0.017": 1.04434165561,
			"-0.016": 0.583705762156,
			"-0.015": 1.0172672683,
			"-0.014": 0.546281434443,
			"-0.013": 1.03055335747,
			"-0.012": 1.24604917248,
			"-0.011": 1.42013629442,
			"-0.01": 1.74650448566,
			"-0.009": 1.6335409443,
			"-0.008": 1.83776046461,
			"-0.007": 2.7108271124,
			"-0.006": 2.23642299308,
			"-0.005": 5.92759410439,
			"-0.004": 27.0862900146,
			"-0.003": 41.0847103805,
			"-0.002": 43.3475570616,
			"-0.001": 39.9322757416,
			"0.0": 31.5829546252,
			"0.001": 20.7597553768,
			"0.002": 7.13377323006,
			"0.003": 5.94569573133,
			"0.004": 4.48554762557,
			"0.005": 4.26301956671,
			"0.006": 4.48956301893,
			"0.007": 3.09857200251,
			"0.008": 4.62107637417,
			"0.009": 4.06943682797,
			"0.01": 2.41155868277,
			"0.011": 4.38086484751,
			"0.012": 6.39814603884,
			"0.013": 3.8458134241,
			"0.014": 4.97752010028,
			"0.015": 4.67222468383,
			"0.016": 0.875465140622,
			"0.017": 0.0,
			"0.018": 0.0,
			"0.019": 0.0,
			"0.02": 0.0,
			"0.021": 0.0,
			"0.022": 0.0,
			"0.023": 0.0,
			"0.024": 0.0,
			"0.025": 0.0
		}
	}
}
