{
	 "smiles": "O=C1OC(=O)C2=C1CCCC2", 
	 "Tm": 347.15, 
	 "num_atms": 19, 
	 "gaussian": { 
		 "optdone": 1, 
		 "sigma_profile": "yes", 
		 "theory": "DFT", 
		 "functional": "B3LYP", 
		 "basiset": "6-31G**", 
		 "properties": { 
			 "R2extent": 2701.7428, 
			 "electric_dipole_moment_norm": 5.36591192809, 
			 "electric_quadrupole_moment_norm": 17.0618990502, 
			 "total_energy": -535.360721854, 
			 "HOMO_LUMO_gap": 0.18799, 
			 "cosmo_polarized_energy": -10.34, 
			 "cosmo_cavitation_energy": 22.55, 
			 "cosmo_dispersion_energy": -16.91, 
			 "cosmo_repulsion_energy": 1.37, 
			 "cosmo_total_nonelectrostatic_energy": 7.01, 
			 "SMD_solvation_energy": 5.2 
		},
		"coords": [
			{
				"x": 2.852716541,
				"y": 2.2415190863,
				"z": 1.8040168396,
				"element": "O" 
			},
			{
				"x": 2.6905740128,
				"y": 1.0876977371,
				"z": 1.5154382871,
				"element": "C" 
			},
			{
				"x": 3.6253106941,
				"y": 0.0991667737,
				"z": 1.8311676053,
				"element": "O" 
			},
			{
				"x": 3.1466700603,
				"y": -1.1249623857,
				"z": 1.3589039561,
				"element": "C" 
			},
			{
				"x": 3.7542982043,
				"y": -2.1505045612,
				"z": 1.5000441778,
				"element": "O" 
			},
			{
				"x": 1.8314047313,
				"y": -0.8785670858,
				"z": 0.7106427489,
				"element": "C" 
			},
			{
				"x": 1.5613059164,
				"y": 0.4336830132,
				"z": 0.8027785685,
				"element": "C" 
			},
			{
				"x": 0.3359069868,
				"y": 1.1001579141,
				"z": 0.267925105,
				"element": "C" 
			},
			{
				"x": -0.3949176804,
				"y": 0.1437367915,
				"z": -0.6981744589,
				"element": "C" 
			},
			{
				"x": -0.4584839633,
				"y": -1.2965289541,
				"z": -0.152906959,
				"element": "C" 
			},
			{
				"x": 0.9457514469,
				"y": -1.8970209724,
				"z": 0.0701099758,
				"element": "C" 
			},
			{
				"x": 0.6031119192,
				"y": 2.04186394,
				"z": -0.2249381553,
				"element": "H" 
			},
			{
				"x": -0.3160302611,
				"y": 1.3796108878,
				"z": 1.1075498975,
				"element": "H" 
			},
			{
				"x": 0.1303474341,
				"y": 0.1406384633,
				"z": -1.6619575443,
				"element": "H" 
			},
			{
				"x": -1.4054263892,
				"y": 0.5167299133,
				"z": -0.8928642269,
				"element": "H" 
			},
			{
				"x": -1.0017819064,
				"y": -1.2965176664,
				"z": 0.8008347661,
				"element": "H" 
			},
			{
				"x": -1.0275581154,
				"y": -1.9328808703,
				"z": -0.838013262,
				"element": "H" 
			},
			{
				"x": 1.3917483829,
				"y": -2.2110206413,
				"z": -0.8841346023,
				"element": "H" 
			},
			{
				"x": 0.9023519857,
				"y": -2.8013013831,
				"z": 0.687777281,
				"element": "H" 
			}
		],
		 "valence_orbital": [ 
			{
				"type": "occ",
				"energy": -0.35349,
				"method": "rhf"
			},
			{
				"type": "occ",
				"energy": -0.32982,
				"method": "rhf"
			},
			{
				"type": "occ",
				"energy": -0.30948,
				"method": "rhf"
			},
			{
				"type": "occ",
				"energy": -0.29186,
				"method": "rhf"
			},
			{
				"type": "occ",
				"energy": -0.28508,
				"method": "rhf"
			},
			{
				"type": "unocc",
				"energy": -0.09709,
				"method": "rhf"
			},
			{
				"type": "unocc",
				"energy": 0.03053,
				"method": "rhf"
			},
			{
				"type": "unocc",
				"energy": 0.05838,
				"method": "rhf"
			},
			{
				"type": "unocc",
				"energy": 0.07512,
				"method": "rhf"
			},
			{
				"type": "unocc",
				"energy": 0.10886,
				"method": "rhf"
			}
		],
		"cosmo_sigma_profile": { 
			"-0.025": 0.0,
			"-0.024": 0.0,
			"-0.023": 0.0,
			"-0.022": 0.0,
			"-0.021": 0.0,
			"-0.02": 0.0,
			"-0.019": 0.0,
			"-0.018": 0.0,
			"-0.017": 0.0,
			"-0.016": 0.0,
			"-0.015": 0.0,
			"-0.014": 0.0,
			"-0.013": 0.0,
			"-0.012": 0.0,
			"-0.011": 0.0,
			"-0.01": 0.0,
			"-0.009": 0.0,
			"-0.008": 0.872880299293,
			"-0.007": 2.38765122175,
			"-0.006": 6.98071677523,
			"-0.005": 16.4181707231,
			"-0.004": 23.0544923869,
			"-0.003": 28.8322838416,
			"-0.002": 21.6157480781,
			"-0.001": 13.0694277367,
			"0.0": 8.06830847357,
			"0.001": 3.22686438818,
			"0.002": 3.97145916285,
			"0.003": 3.5977484012,
			"0.004": 3.18333469855,
			"0.005": 4.157673759,
			"0.006": 5.50221223397,
			"0.007": 6.877927186,
			"0.008": 7.18581630101,
			"0.009": 8.27244165213,
			"0.01": 9.41400132324,
			"0.011": 1.83466206973,
			"0.012": 0.0,
			"0.013": 0.0,
			"0.014": 0.0,
			"0.015": 0.0,
			"0.016": 0.0,
			"0.017": 0.0,
			"0.018": 0.0,
			"0.019": 0.0,
			"0.02": 0.0,
			"0.021": 0.0,
			"0.022": 0.0,
			"0.023": 0.0,
			"0.024": 0.0,
			"0.025": 0.0
		}
	}
}
