{
	 "smiles": "BrC1=CC=C(N=C1)C1=CN=CC=C1", 
	 "Tm": 350.15, 
	 "num_atms": 20, 
	 "gaussian": { 
		 "optdone": 1, 
		 "sigma_profile": "yes", 
		 "theory": "DFT", 
		 "functional": "B3LYP", 
		 "basiset": "6-31G**", 
		 "properties": { 
			 "R2extent": 6640.0109, 
			 "electric_dipole_moment_norm": 3.46752495737, 
			 "electric_quadrupole_moment_norm": 10.3719936777, 
			 "total_energy": -3066.18267047, 
			 "HOMO_LUMO_gap": 0.1797, 
			 "cosmo_polarized_energy": -9.66, 
			 "cosmo_cavitation_energy": 27.05, 
			 "cosmo_dispersion_energy": -20.59, 
			 "cosmo_repulsion_energy": 1.6, 
			 "cosmo_total_nonelectrostatic_energy": 8.05, 
			 "SMD_solvation_energy": 1.02 
		},
		"coords": [
			{
				"x": -0.7473487576,
				"y": -5.5759398748,
				"z": -0.3496161128,
				"element": "Br" 
			},
			{
				"x": -0.7909866819,
				"y": -3.6914529414,
				"z": -0.6162800823,
				"element": "C" 
			},
			{
				"x": -0.4729362564,
				"y": -3.1375513446,
				"z": -1.8530904004,
				"element": "C" 
			},
			{
				"x": -0.5213873152,
				"y": -1.7535091579,
				"z": -1.9861803175,
				"element": "C" 
			},
			{
				"x": -0.8747344785,
				"y": -0.9624343876,
				"z": -0.8798594231,
				"element": "C" 
			},
			{
				"x": -1.1915723537,
				"y": -1.5201028841,
				"z": 0.3049754333,
				"element": "N" 
			},
			{
				"x": -1.1532126096,
				"y": -2.8447949132,
				"z": 0.4335211225,
				"element": "C" 
			},
			{
				"x": -0.9366919664,
				"y": 0.5180759545,
				"z": -0.954099471,
				"element": "C" 
			},
			{
				"x": -1.687567737,
				"y": 1.2419808197,
				"z": -0.0092090992,
				"element": "C" 
			},
			{
				"x": -1.8066821675,
				"y": 2.5720510122,
				"z": -0.0039777022,
				"element": "N" 
			},
			{
				"x": -1.1625836881,
				"y": 3.2548319283,
				"z": -0.9598412312,
				"element": "C" 
			},
			{
				"x": -0.3838030307,
				"y": 2.6460718822,
				"z": -1.9442711153,
				"element": "C" 
			},
			{
				"x": -0.2688128874,
				"y": 1.2588767838,
				"z": -1.9388764194,
				"element": "C" 
			},
			{
				"x": -0.2037118222,
				"y": -3.7711067358,
				"z": -2.6909886789,
				"element": "H" 
			},
			{
				"x": -0.3056050778,
				"y": -1.3011685823,
				"z": -2.9477855565,
				"element": "H" 
			},
			{
				"x": -1.4161926075,
				"y": -3.2554220691,
				"z": 1.4052761415,
				"element": "H" 
			},
			{
				"x": -2.2119439736,
				"y": 0.6993077532,
				"z": 0.7719760295,
				"element": "H" 
			},
			{
				"x": -1.2714728232,
				"y": 4.3376629158,
				"z": -0.9337301802,
				"element": "H" 
			},
			{
				"x": 0.127535616,
				"y": 3.2460127306,
				"z": -2.6904849426,
				"element": "H" 
			},
			{
				"x": 0.3531106181,
				"y": 0.7655111104,
				"z": -2.6798579942,
				"element": "H" 
			}
		],
		 "valence_orbital": [ 
			{
				"type": "occ",
				"energy": -0.293,
				"method": "rhf"
			},
			{
				"type": "occ",
				"energy": -0.27868,
				"method": "rhf"
			},
			{
				"type": "occ",
				"energy": -0.27353,
				"method": "rhf"
			},
			{
				"type": "occ",
				"energy": -0.25166,
				"method": "rhf"
			},
			{
				"type": "occ",
				"energy": -0.23943,
				"method": "rhf"
			},
			{
				"type": "unocc",
				"energy": -0.05973,
				"method": "rhf"
			},
			{
				"type": "unocc",
				"energy": -0.04151,
				"method": "rhf"
			},
			{
				"type": "unocc",
				"energy": -0.02138,
				"method": "rhf"
			},
			{
				"type": "unocc",
				"energy": -0.00211,
				"method": "rhf"
			},
			{
				"type": "unocc",
				"energy": 0.01173,
				"method": "rhf"
			}
		],
		"cosmo_sigma_profile": { 
			"-0.025": 0.0,
			"-0.024": 0.0,
			"-0.023": 0.0,
			"-0.022": 0.0,
			"-0.021": 0.0,
			"-0.02": 0.0,
			"-0.019": 0.0,
			"-0.018": 0.0,
			"-0.017": 0.0,
			"-0.016": 0.0,
			"-0.015": 0.0,
			"-0.014": 0.0,
			"-0.013": 0.0,
			"-0.012": 0.0,
			"-0.011": 0.0,
			"-0.01": 0.115603395589,
			"-0.009": 2.28716505372,
			"-0.008": 5.47489653261,
			"-0.007": 10.0447622242,
			"-0.006": 11.559114009,
			"-0.005": 12.6131968185,
			"-0.004": 12.1456732825,
			"-0.003": 10.1267391823,
			"-0.002": 12.0012714661,
			"-0.001": 15.8626209659,
			"0.0": 26.9699037826,
			"0.001": 26.4797571188,
			"0.002": 23.5438744916,
			"0.003": 15.1992826563,
			"0.004": 14.4507545524,
			"0.005": 3.9737083918,
			"0.006": 3.0028219983,
			"0.007": 2.43726729952,
			"0.008": 2.71748003702,
			"0.009": 2.57576286465,
			"0.01": 1.71898505339,
			"0.011": 1.55399345668,
			"0.012": 1.25567855447,
			"0.013": 0.905787937365,
			"0.014": 1.14351523294,
			"0.015": 0.737945429464,
			"0.016": 0.887294518652,
			"0.017": 0.325133781782,
			"0.018": 0.0,
			"0.019": 0.0,
			"0.02": 0.0,
			"0.021": 0.0,
			"0.022": 0.0,
			"0.023": 0.0,
			"0.024": 0.0,
			"0.025": 0.0
		}
	}
}
