{
	 "smiles": "CC(=O)N1CCC2=C(C=CC=C2)C1CC(O)=O", 
	 "Tm": 438.15, 
	 "num_atms": 32, 
	 "gaussian": { 
		 "optdone": 1, 
		 "sigma_profile": "yes", 
		 "theory": "DFT", 
		 "functional": "B3LYP", 
		 "basiset": "6-31G**", 
		 "properties": { 
			 "R2extent": 4313.3219, 
			 "electric_dipole_moment_norm": 2.96034695771, 
			 "electric_quadrupole_moment_norm": 28.4117582948, 
			 "total_energy": -784.863149422, 
			 "HOMO_LUMO_gap": 0.22209, 
			 "cosmo_polarized_energy": -22.41, 
			 "cosmo_cavitation_energy": 33.65, 
			 "cosmo_dispersion_energy": -23.73, 
			 "cosmo_repulsion_energy": 1.83, 
			 "cosmo_total_nonelectrostatic_energy": 11.74, 
			 "SMD_solvation_energy": 5.86 
		},
		"coords": [
			{
				"x": -2.7461222175,
				"y": 1.6651512137,
				"z": 0.281773729,
				"element": "C" 
			},
			{
				"x": -1.3583619393,
				"y": 2.2767059317,
				"z": 0.4061281141,
				"element": "C" 
			},
			{
				"x": -1.0957667742,
				"y": 3.3095702831,
				"z": -0.2012333953,
				"element": "O" 
			},
			{
				"x": -0.4081305423,
				"y": 1.6746362103,
				"z": 1.222666691,
				"element": "N" 
			},
			{
				"x": 0.9754702756,
				"y": 2.1142846355,
				"z": 0.9799332811,
				"element": "C" 
			},
			{
				"x": 1.5402583698,
				"y": 1.3702728498,
				"z": -0.24258441,
				"element": "C" 
			},
			{
				"x": 1.1047921993,
				"y": -0.087168162,
				"z": -0.3228846118,
				"element": "C" 
			},
			{
				"x": 0.1468178823,
				"y": -0.6294869491,
				"z": 0.5601590138,
				"element": "C" 
			},
			{
				"x": -0.2327225404,
				"y": -1.9701112391,
				"z": 0.4232987377,
				"element": "C" 
			},
			{
				"x": 0.3111481732,
				"y": -2.7743173387,
				"z": -0.5783143079,
				"element": "C" 
			},
			{
				"x": 1.252950623,
				"y": -2.2394147425,
				"z": -1.4561429972,
				"element": "C" 
			},
			{
				"x": 1.6400240389,
				"y": -0.906843736,
				"z": -1.3232674491,
				"element": "C" 
			},
			{
				"x": -0.3912088875,
				"y": 0.2680254772,
				"z": 1.6765084554,
				"element": "C" 
			},
			{
				"x": -1.6606247621,
				"y": -0.2221225048,
				"z": 2.386537272,
				"element": "C" 
			},
			{
				"x": -1.3322191117,
				"y": -1.2721440041,
				"z": 3.4513410495,
				"element": "C" 
			},
			{
				"x": -2.3330132698,
				"y": -2.1430499607,
				"z": 3.7406207173,
				"element": "O" 
			},
			{
				"x": -0.2849641871,
				"y": -1.3354987577,
				"z": 4.0437201047,
				"element": "O" 
			},
			{
				"x": -3.2777693738,
				"y": 1.6371050982,
				"z": 1.2362447129,
				"element": "H" 
			},
			{
				"x": -2.7004756125,
				"y": 0.6479580086,
				"z": -0.1196026896,
				"element": "H" 
			},
			{
				"x": -3.3039471497,
				"y": 2.2939739944,
				"z": -0.4114487217,
				"element": "H" 
			},
			{
				"x": 0.9758916838,
				"y": 3.1896561478,
				"z": 0.8111987575,
				"element": "H" 
			},
			{
				"x": 1.5574926083,
				"y": 1.8982269794,
				"z": 1.8811442577,
				"element": "H" 
			},
			{
				"x": 1.1966011476,
				"y": 1.8876061036,
				"z": -1.1468917686,
				"element": "H" 
			},
			{
				"x": 2.635180599,
				"y": 1.4333306325,
				"z": -0.2471978967,
				"element": "H" 
			},
			{
				"x": -0.9566781058,
				"y": -2.406417939,
				"z": 1.1050145308,
				"element": "H" 
			},
			{
				"x": 0.0008841779,
				"y": -3.8111342056,
				"z": -0.6681931761,
				"element": "H" 
			},
			{
				"x": 1.6857799752,
				"y": -2.8556712166,
				"z": -2.2388164539,
				"element": "H" 
			},
			{
				"x": 2.3739578957,
				"y": -0.4888404809,
				"z": -2.0085736255,
				"element": "H" 
			},
			{
				"x": 0.3543847355,
				"y": 0.2549455435,
				"z": 2.4808192682,
				"element": "H" 
			},
			{
				"x": -2.4152760648,
				"y": -0.604254655,
				"z": 1.6937730869,
				"element": "H" 
			},
			{
				"x": -2.1048396653,
				"y": 0.6250202661,
				"z": 2.9224837216,
				"element": "H" 
			},
			{
				"x": -3.1071141813,
				"y": -1.9647934835,
				"z": 3.1880860024,
				"element": "H" 
			}
		],
		 "valence_orbital": [ 
			{
				"type": "occ",
				"energy": -0.28727,
				"method": "rhf"
			},
			{
				"type": "occ",
				"energy": -0.259,
				"method": "rhf"
			},
			{
				"type": "occ",
				"energy": -0.25178,
				"method": "rhf"
			},
			{
				"type": "occ",
				"energy": -0.2456,
				"method": "rhf"
			},
			{
				"type": "occ",
				"energy": -0.2361,
				"method": "rhf"
			},
			{
				"type": "unocc",
				"energy": -0.01401,
				"method": "rhf"
			},
			{
				"type": "unocc",
				"energy": -0.00973,
				"method": "rhf"
			},
			{
				"type": "unocc",
				"energy": -0.00091,
				"method": "rhf"
			},
			{
				"type": "unocc",
				"energy": 0.01666,
				"method": "rhf"
			},
			{
				"type": "unocc",
				"energy": 0.03676,
				"method": "rhf"
			}
		],
		"cosmo_sigma_profile": { 
			"-0.025": 0.0,
			"-0.024": 0.0,
			"-0.023": 0.0,
			"-0.022": 0.0,
			"-0.021": 0.0,
			"-0.02": 0.0660228054287,
			"-0.019": 0.924902774412,
			"-0.018": 1.29332016437,
			"-0.017": 1.16783089259,
			"-0.016": 1.09748139287,
			"-0.015": 1.19296010189,
			"-0.014": 1.28134425115,
			"-0.013": 0.961828158565,
			"-0.012": 1.28549351665,
			"-0.011": 1.30680963389,
			"-0.01": 1.20814170943,
			"-0.009": 1.93302718805,
			"-0.008": 6.4012848428,
			"-0.007": 6.38821014659,
			"-0.006": 10.6879511867,
			"-0.005": 17.5804055643,
			"-0.004": 22.541523934,
			"-0.003": 25.6618583621,
			"-0.002": 22.0470914398,
			"-0.001": 19.59584021,
			"0.0": 13.4986617404,
			"0.001": 9.6167840864,
			"0.002": 10.1491438146,
			"0.003": 12.9497311443,
			"0.004": 12.6192917876,
			"0.005": 10.3080329469,
			"0.006": 10.958993005,
			"0.007": 4.3297521948,
			"0.008": 3.97842166987,
			"0.009": 5.13456820056,
			"0.01": 6.66425979005,
			"0.011": 6.55303358563,
			"0.012": 5.32098809441,
			"0.013": 4.30883902782,
			"0.014": 3.3993111379,
			"0.015": 0.799533160128,
			"0.016": 0.0,
			"0.017": 0.0,
			"0.018": 0.0,
			"0.019": 0.0,
			"0.02": 0.0,
			"0.021": 0.0,
			"0.022": 0.0,
			"0.023": 0.0,
			"0.024": 0.0,
			"0.025": 0.0
		}
	}
}
