{
	 "smiles": "OC(=O)CC1=CC=C(C=C1)[N+]([O-])=O", 
	 "Tm": 427.15, 
	 "num_atms": 20, 
	 "gaussian": { 
		 "optdone": 1, 
		 "sigma_profile": "yes", 
		 "theory": "DFT", 
		 "functional": "B3LYP", 
		 "basiset": "6-31G**", 
		 "properties": { 
			 "R2extent": 3350.4226, 
			 "electric_dipole_moment_norm": 5.75844775352, 
			 "electric_quadrupole_moment_norm": 8.89188684982, 
			 "total_energy": -664.633014234, 
			 "HOMO_LUMO_gap": 0.1886, 
			 "cosmo_polarized_energy": -15.62, 
			 "cosmo_cavitation_energy": 26.18, 
			 "cosmo_dispersion_energy": -18.69, 
			 "cosmo_repulsion_energy": 1.5, 
			 "cosmo_total_nonelectrostatic_energy": 8.98, 
			 "SMD_solvation_energy": 7.99 
		},
		"coords": [
			{
				"x": 4.0480845322,
				"y": -2.5933504873,
				"z": 0.2429991083,
				"element": "O" 
			},
			{
				"x": 2.8720660473,
				"y": -2.0745299982,
				"z": 0.6701836739,
				"element": "C" 
			},
			{
				"x": 2.3598363829,
				"y": -2.3753995495,
				"z": 1.7223793291,
				"element": "O" 
			},
			{
				"x": 2.3239083456,
				"y": -1.0895307244,
				"z": -0.3548318418,
				"element": "C" 
			},
			{
				"x": 1.0112073716,
				"y": -0.4682679341,
				"z": 0.0542252082,
				"element": "C" 
			},
			{
				"x": 0.9868279358,
				"y": 0.7224833605,
				"z": 0.792997584,
				"element": "C" 
			},
			{
				"x": -0.21825985,
				"y": 1.2988632826,
				"z": 1.1828164064,
				"element": "C" 
			},
			{
				"x": -1.406358378,
				"y": 0.6674079407,
				"z": 0.8215927167,
				"element": "C" 
			},
			{
				"x": -1.4187091613,
				"y": -0.5169234308,
				"z": 0.0880750891,
				"element": "C" 
			},
			{
				"x": -0.2028476613,
				"y": -1.0769744694,
				"z": -0.2919207676,
				"element": "C" 
			},
			{
				"x": -2.686457549,
				"y": 1.2719790441,
				"z": 1.2225825844,
				"element": "N" 
			},
			{
				"x": -3.7202754315,
				"y": 0.6943599097,
				"z": 0.8877132721,
				"element": "O" 
			},
			{
				"x": -2.6458910817,
				"y": 2.3192605422,
				"z": 1.8676542226,
				"element": "O" 
			},
			{
				"x": 4.3413341916,
				"y": -3.2087741784,
				"z": 0.9361860767,
				"element": "H" 
			},
			{
				"x": 3.0929061038,
				"y": -0.3256261567,
				"z": -0.5162803645,
				"element": "H" 
			},
			{
				"x": 2.2311518671,
				"y": -1.6267595117,
				"z": -1.3055147059,
				"element": "H" 
			},
			{
				"x": 1.9209657978,
				"y": 1.2041584375,
				"z": 1.0674992488,
				"element": "H" 
			},
			{
				"x": -0.2551131932,
				"y": 2.2188342752,
				"z": 1.7525599944,
				"element": "H" 
			},
			{
				"x": -2.3654940403,
				"y": -0.973287125,
				"z": -0.1720123417,
				"element": "H" 
			},
			{
				"x": -0.1974822294,
				"y": -2.0001232272,
				"z": -0.8644044931,
				"element": "H" 
			}
		],
		 "valence_orbital": [ 
			{
				"type": "occ",
				"energy": -0.30585,
				"method": "rhf"
			},
			{
				"type": "occ",
				"energy": -0.29212,
				"method": "rhf"
			},
			{
				"type": "occ",
				"energy": -0.28951,
				"method": "rhf"
			},
			{
				"type": "occ",
				"energy": -0.2787,
				"method": "rhf"
			},
			{
				"type": "occ",
				"energy": -0.27705,
				"method": "rhf"
			},
			{
				"type": "unocc",
				"energy": -0.08845,
				"method": "rhf"
			},
			{
				"type": "unocc",
				"energy": -0.03025,
				"method": "rhf"
			},
			{
				"type": "unocc",
				"energy": -0.00272,
				"method": "rhf"
			},
			{
				"type": "unocc",
				"energy": -0.00209,
				"method": "rhf"
			},
			{
				"type": "unocc",
				"energy": 0.06658,
				"method": "rhf"
			}
		],
		"cosmo_sigma_profile": { 
			"-0.025": 0.0,
			"-0.024": 0.0,
			"-0.023": 0.0,
			"-0.022": 0.0,
			"-0.021": 0.0,
			"-0.02": 0.0,
			"-0.019": 0.0177756259518,
			"-0.018": 0.939478944819,
			"-0.017": 0.834867810905,
			"-0.016": 1.00317688175,
			"-0.015": 0.621411682417,
			"-0.014": 0.98882516262,
			"-0.013": 0.64033475832,
			"-0.012": 0.255822443843,
			"-0.011": 0.922814895956,
			"-0.01": 0.714475739794,
			"-0.009": 0.79956405751,
			"-0.008": 8.73884827497,
			"-0.007": 14.1270368608,
			"-0.006": 13.8737797055,
			"-0.005": 10.5247917445,
			"-0.004": 11.5795838801,
			"-0.003": 12.0046552776,
			"-0.002": 11.4534611709,
			"-0.001": 12.2256813374,
			"0.0": 12.6615697292,
			"0.001": 14.5468305158,
			"0.002": 11.8640472603,
			"0.003": 6.16193446518,
			"0.004": 5.51929398087,
			"0.005": 6.48390026598,
			"0.006": 6.74023717619,
			"0.007": 11.0316597388,
			"0.008": 10.661747764,
			"0.009": 8.29151049332,
			"0.01": 5.41093317571,
			"0.011": 4.70958121678,
			"0.012": 2.74574049612,
			"0.013": 0.0253546901213,
			"0.014": 0.0,
			"0.015": 0.0,
			"0.016": 0.0,
			"0.017": 0.0,
			"0.018": 0.0,
			"0.019": 0.0,
			"0.02": 0.0,
			"0.021": 0.0,
			"0.022": 0.0,
			"0.023": 0.0,
			"0.024": 0.0,
			"0.025": 0.0
		}
	}
}
