{
	 "smiles": "CC1=C(CC2=CC=CC=C2)N=C(N1)SCC(O)=O", 
	 "Tm": 457.15, 
	 "num_atms": 32, 
	 "gaussian": { 
		 "optdone": 1, 
		 "sigma_profile": "yes", 
		 "theory": "DFT", 
		 "functional": "B3LYP", 
		 "basiset": "6-31G**", 
		 "properties": { 
			 "R2extent": 7455.1488, 
			 "electric_dipole_moment_norm": 4.82636480801, 
			 "electric_quadrupole_moment_norm": 12.6410921494, 
			 "total_energy": -1161.98469295, 
			 "HOMO_LUMO_gap": 0.17004, 
			 "cosmo_polarized_energy": -17.4, 
			 "cosmo_cavitation_energy": 38.06, 
			 "cosmo_dispersion_energy": -27.13, 
			 "cosmo_repulsion_energy": 2.1, 
			 "cosmo_total_nonelectrostatic_energy": 13.03, 
			 "SMD_solvation_energy": 5.29 
		},
		"coords": [
			{
				"x": -1.5334295286,
				"y": 0.6281014549,
				"z": 2.1187530606,
				"element": "C" 
			},
			{
				"x": -0.8201263848,
				"y": 0.3517160836,
				"z": 0.8357932285,
				"element": "C" 
			},
			{
				"x": 0.5128403034,
				"y": 0.4238072744,
				"z": 0.4736614624,
				"element": "C" 
			},
			{
				"x": 1.6917409723,
				"y": 0.8628565635,
				"z": 1.2991076985,
				"element": "C" 
			},
			{
				"x": 2.0603343977,
				"y": 2.3328539652,
				"z": 1.1388515238,
				"element": "C" 
			},
			{
				"x": 2.1643933214,
				"y": 3.1715473701,
				"z": 2.2540575169,
				"element": "C" 
			},
			{
				"x": 2.5181628549,
				"y": 4.5157709318,
				"z": 2.111173879,
				"element": "C" 
			},
			{
				"x": 2.7724850723,
				"y": 5.0398567277,
				"z": 0.8440334581,
				"element": "C" 
			},
			{
				"x": 2.6704904648,
				"y": 4.2107561741,
				"z": -0.2766083736,
				"element": "C" 
			},
			{
				"x": 2.3173556373,
				"y": 2.8697722082,
				"z": -0.1312747784,
				"element": "C" 
			},
			{
				"x": 0.6764636859,
				"y": 0.0359655353,
				"z": -0.8412253108,
				"element": "N" 
			},
			{
				"x": -0.5346203927,
				"y": -0.252586272,
				"z": -1.2746583701,
				"element": "C" 
			},
			{
				"x": -1.4785275431,
				"y": -0.0658523322,
				"z": -0.3029294874,
				"element": "N" 
			},
			{
				"x": -0.9126932619,
				"y": -0.7089640085,
				"z": -2.9398944852,
				"element": "S" 
			},
			{
				"x": -1.8686780757,
				"y": -2.2668618309,
				"z": -2.6977498258,
				"element": "C" 
			},
			{
				"x": -3.3363782888,
				"y": -2.0298075973,
				"z": -2.401239586,
				"element": "C" 
			},
			{
				"x": -4.1347588515,
				"y": -2.662267104,
				"z": -3.2790930372,
				"element": "O" 
			},
			{
				"x": -3.7806631038,
				"y": -1.3635568011,
				"z": -1.4842105124,
				"element": "O" 
			},
			{
				"x": -2.1095660022,
				"y": -0.2397416755,
				"z": 2.4624578341,
				"element": "H" 
			},
			{
				"x": -0.8152970145,
				"y": 0.8817907449,
				"z": 2.9016227147,
				"element": "H" 
			},
			{
				"x": -2.2297307987,
				"y": 1.4705088963,
				"z": 2.0263022432,
				"element": "H" 
			},
			{
				"x": 1.503476724,
				"y": 0.6553070534,
				"z": 2.3581728207,
				"element": "H" 
			},
			{
				"x": 2.5484676566,
				"y": 0.243328944,
				"z": 1.0071367125,
				"element": "H" 
			},
			{
				"x": 1.9696098998,
				"y": 2.7694228481,
				"z": 3.2460246081,
				"element": "H" 
			},
			{
				"x": 2.5929976706,
				"y": 5.1507992006,
				"z": 2.9899306278,
				"element": "H" 
			},
			{
				"x": 3.0476661436,
				"y": 6.0845442675,
				"z": 0.7288673486,
				"element": "H" 
			},
			{
				"x": 2.8668611353,
				"y": 4.6109270158,
				"z": -1.2677653112,
				"element": "H" 
			},
			{
				"x": 2.2292480174,
				"y": 2.2268599868,
				"z": -1.0024482274,
				"element": "H" 
			},
			{
				"x": -2.4621874963,
				"y": -0.2943807889,
				"z": -0.4197129931,
				"element": "H" 
			},
			{
				"x": -1.4245106638,
				"y": -2.8282502761,
				"z": -1.8714999324,
				"element": "H" 
			},
			{
				"x": -1.762547358,
				"y": -2.847694763,
				"z": -3.6149878999,
				"element": "H" 
			},
			{
				"x": -5.0515791926,
				"y": -2.4642297968,
				"z": -3.0198486068,
				"element": "H" 
			}
		],
		 "valence_orbital": [ 
			{
				"type": "occ",
				"energy": -0.26524,
				"method": "rhf"
			},
			{
				"type": "occ",
				"energy": -0.25665,
				"method": "rhf"
			},
			{
				"type": "occ",
				"energy": -0.23588,
				"method": "rhf"
			},
			{
				"type": "occ",
				"energy": -0.22927,
				"method": "rhf"
			},
			{
				"type": "occ",
				"energy": -0.20276,
				"method": "rhf"
			},
			{
				"type": "unocc",
				"energy": -0.03272,
				"method": "rhf"
			},
			{
				"type": "unocc",
				"energy": 0.00691,
				"method": "rhf"
			},
			{
				"type": "unocc",
				"energy": 0.01272,
				"method": "rhf"
			},
			{
				"type": "unocc",
				"energy": 0.01369,
				"method": "rhf"
			},
			{
				"type": "unocc",
				"energy": 0.05045,
				"method": "rhf"
			}
		],
		"cosmo_sigma_profile": { 
			"-0.025": 0.0,
			"-0.024": 0.0,
			"-0.023": 0.0,
			"-0.022": 0.0,
			"-0.021": 0.0,
			"-0.02": 0.0105368645086,
			"-0.019": 0.641088968008,
			"-0.018": 1.12462166906,
			"-0.017": 0.678272785964,
			"-0.016": 0.708669028844,
			"-0.015": 0.881697847045,
			"-0.014": 0.623156187439,
			"-0.013": 0.640421800323,
			"-0.012": 1.15518633678,
			"-0.011": 0.738283214773,
			"-0.01": 0.695062455761,
			"-0.009": 4.31300953347,
			"-0.008": 6.08259914472,
			"-0.007": 6.05655081364,
			"-0.006": 7.82297028883,
			"-0.005": 22.5085231493,
			"-0.004": 24.5453754951,
			"-0.003": 25.4617082189,
			"-0.002": 21.7399324805,
			"-0.001": 22.6342662621,
			"0.0": 20.5614998855,
			"0.001": 17.7751320731,
			"0.002": 16.7258082227,
			"0.003": 19.1618454176,
			"0.004": 17.7972672278,
			"0.005": 17.9872754774,
			"0.006": 16.409617622,
			"0.007": 10.3509297184,
			"0.008": 5.72255224012,
			"0.009": 3.68461412897,
			"0.01": 2.5721549832,
			"0.011": 2.29190845079,
			"0.012": 0.730838258662,
			"0.013": 0.870946179081,
			"0.014": 0.964700547207,
			"0.015": 0.91559658301,
			"0.016": 0.56969118468,
			"0.017": 0.587657708796,
			"0.018": 0.1275995268,
			"0.019": 0.0,
			"0.02": 0.0,
			"0.021": 0.0,
			"0.022": 0.0,
			"0.023": 0.0,
			"0.024": 0.0,
			"0.025": 0.0
		}
	}
}
