{
	 "smiles": "COC1=CC2=C(CC2=N/NC2=C(C=C(C=C2)[N+]([O-])=O)[N+]([O-])=O)C=C1", 
	 "Tm": 494.15, 
	 "num_atms": 36, 
	 "gaussian": { 
		 "optdone": 1, 
		 "sigma_profile": "yes", 
		 "theory": "DFT", 
		 "functional": "B3LYP", 
		 "basiset": "6-31G**", 
		 "properties": { 
			 "R2extent": 12152.3897, 
			 "electric_dipole_moment_norm": 7.83790075339, 
			 "electric_quadrupole_moment_norm": 31.9221532017, 
			 "total_energy": -1173.65695196, 
			 "HOMO_LUMO_gap": 0.12629, 
			 "cosmo_polarized_energy": -23.31, 
			 "cosmo_cavitation_energy": 43.48, 
			 "cosmo_dispersion_energy": -30.49, 
			 "cosmo_repulsion_energy": 2.31, 
			 "cosmo_total_nonelectrostatic_energy": 15.31, 
			 "SMD_solvation_energy": 11.76 
		},
		"coords": [
			{
				"x": -5.1638594853,
				"y": -3.1099280962,
				"z": 1.9850590296,
				"element": "C" 
			},
			{
				"x": -5.7938010278,
				"y": -2.1847690034,
				"z": 1.1095291489,
				"element": "O" 
			},
			{
				"x": -5.0228053288,
				"y": -1.2344414523,
				"z": 0.5114000571,
				"element": "C" 
			},
			{
				"x": -3.6395686826,
				"y": -1.1010782656,
				"z": 0.7125164199,
				"element": "C" 
			},
			{
				"x": -3.0407048584,
				"y": -0.0629451339,
				"z": 0.0027243812,
				"element": "C" 
			},
			{
				"x": -3.7339022052,
				"y": 0.7983371037,
				"z": -0.8536910219,
				"element": "C" 
			},
			{
				"x": -2.4896860787,
				"y": 1.6031161568,
				"z": -1.2410761326,
				"element": "C" 
			},
			{
				"x": -1.7712290684,
				"y": 0.614643782,
				"z": -0.271853591,
				"element": "C" 
			},
			{
				"x": -0.5808154759,
				"y": 0.4217005652,
				"z": 0.1536821951,
				"element": "N" 
			},
			{
				"x": 0.3857888494,
				"y": 1.268184336,
				"z": -0.307127908,
				"element": "N" 
			},
			{
				"x": 1.6816117555,
				"y": 1.1846921016,
				"z": 0.1301030175,
				"element": "C" 
			},
			{
				"x": 2.2655204481,
				"y": 0.0210594727,
				"z": 0.691016377,
				"element": "C" 
			},
			{
				"x": 3.5409237017,
				"y": 0.046301218,
				"z": 1.2399672959,
				"element": "C" 
			},
			{
				"x": 4.2918584006,
				"y": 1.2127206395,
				"z": 1.164728677,
				"element": "C" 
			},
			{
				"x": 3.7799795828,
				"y": 2.3610913774,
				"z": 0.5511954864,
				"element": "C" 
			},
			{
				"x": 2.4912565482,
				"y": 2.3429430153,
				"z": 0.0544327565,
				"element": "C" 
			},
			{
				"x": 5.6403231489,
				"y": 1.2330403991,
				"z": 1.7219055112,
				"element": "N" 
			},
			{
				"x": 6.2812554356,
				"y": 2.2816114608,
				"z": 1.6211759243,
				"element": "O" 
			},
			{
				"x": 6.0552654792,
				"y": 0.2047654157,
				"z": 2.2582279328,
				"element": "O" 
			},
			{
				"x": 1.6304928992,
				"y": -1.3042335927,
				"z": 0.6139025662,
				"element": "N" 
			},
			{
				"x": 1.7150755119,
				"y": -2.0266743332,
				"z": 1.6052385126,
				"element": "O" 
			},
			{
				"x": 1.1319997473,
				"y": -1.6230541791,
				"z": -0.4609901059,
				"element": "O" 
			},
			{
				"x": -5.1014868804,
				"y": 0.6672114798,
				"z": -1.0529968456,
				"element": "C" 
			},
			{
				"x": -5.7307607212,
				"y": -0.3650865898,
				"z": -0.3524695472,
				"element": "C" 
			},
			{
				"x": -4.401055567,
				"y": -3.7023224629,
				"z": 1.4645250631,
				"element": "H" 
			},
			{
				"x": -5.9541570982,
				"y": -3.7723285249,
				"z": 2.3404549358,
				"element": "H" 
			},
			{
				"x": -4.7028616906,
				"y": -2.6038754431,
				"z": 2.8426659759,
				"element": "H" 
			},
			{
				"x": -3.0771819928,
				"y": -1.7564858497,
				"z": 1.3648738214,
				"element": "H" 
			},
			{
				"x": -2.4810248674,
				"y": 2.6570406829,
				"z": -0.9346433851,
				"element": "H" 
			},
			{
				"x": -2.1743689335,
				"y": 1.5348777331,
				"z": -2.2891552109,
				"element": "H" 
			},
			{
				"x": 0.1079965121,
				"y": 2.1228017734,
				"z": -0.7804444262,
				"element": "H" 
			},
			{
				"x": 3.9549457453,
				"y": -0.8455532177,
				"z": 1.6919572528,
				"element": "H" 
			},
			{
				"x": 4.3921938476,
				"y": 3.252656114,
				"z": 0.5007794703,
				"element": "H" 
			},
			{
				"x": 2.0687919482,
				"y": 3.2464467968,
				"z": -0.3762459973,
				"element": "H" 
			},
			{
				"x": -5.674641639,
				"y": 1.3143941154,
				"z": -1.7100104143,
				"element": "H" 
			},
			{
				"x": -6.7978679606,
				"y": -0.5346595947,
				"z": -0.4537572227,
				"element": "H" 
			}
		],
		 "valence_orbital": [ 
			{
				"type": "occ",
				"energy": -0.28888,
				"method": "rhf"
			},
			{
				"type": "occ",
				"energy": -0.27948,
				"method": "rhf"
			},
			{
				"type": "occ",
				"energy": -0.27419,
				"method": "rhf"
			},
			{
				"type": "occ",
				"energy": -0.24089,
				"method": "rhf"
			},
			{
				"type": "occ",
				"energy": -0.21876,
				"method": "rhf"
			},
			{
				"type": "unocc",
				"energy": -0.09247,
				"method": "rhf"
			},
			{
				"type": "unocc",
				"energy": -0.07918,
				"method": "rhf"
			},
			{
				"type": "unocc",
				"energy": -0.05191,
				"method": "rhf"
			},
			{
				"type": "unocc",
				"energy": -0.02987,
				"method": "rhf"
			},
			{
				"type": "unocc",
				"energy": -0.00659,
				"method": "rhf"
			}
		],
		"cosmo_sigma_profile": { 
			"-0.025": 0.0,
			"-0.024": 0.0,
			"-0.023": 0.0,
			"-0.022": 0.0,
			"-0.021": 0.0,
			"-0.02": 0.0,
			"-0.019": 0.0,
			"-0.018": 0.0,
			"-0.017": 0.0987155841149,
			"-0.016": 0.956567080101,
			"-0.015": 1.81276574883,
			"-0.014": 1.13265597307,
			"-0.013": 1.46608912359,
			"-0.012": 1.90814023881,
			"-0.011": 1.98908773063,
			"-0.01": 1.76206527592,
			"-0.009": 2.39724758325,
			"-0.008": 5.5325126648,
			"-0.007": 10.6398771308,
			"-0.006": 21.715401292,
			"-0.005": 24.787571671,
			"-0.004": 22.5704273761,
			"-0.003": 23.94728296,
			"-0.002": 27.6150940892,
			"-0.001": 26.7321315766,
			"0.0": 19.844309384,
			"0.001": 17.2827499666,
			"0.002": 17.5010112461,
			"0.003": 20.4611859193,
			"0.004": 18.0632234536,
			"0.005": 10.1532563401,
			"0.006": 9.80003781403,
			"0.007": 17.7419250394,
			"0.008": 21.8889873177,
			"0.009": 11.9811953074,
			"0.01": 6.75919837803,
			"0.011": 0.55608391993,
			"0.012": 0.0,
			"0.013": 0.0,
			"0.014": 0.0,
			"0.015": 0.0,
			"0.016": 0.0,
			"0.017": 0.0,
			"0.018": 0.0,
			"0.019": 0.0,
			"0.02": 0.0,
			"0.021": 0.0,
			"0.022": 0.0,
			"0.023": 0.0,
			"0.024": 0.0,
			"0.025": 0.0
		}
	}
}
