{
	 "smiles": "CCCOC1=CC2=C(NC=C2C=O)C=C1", 
	 "Tm": 413.15, 
	 "num_atms": 28, 
	 "gaussian": { 
		 "optdone": 1, 
		 "sigma_profile": "yes", 
		 "theory": "DFT", 
		 "functional": "B3LYP", 
		 "basiset": "6-31G**", 
		 "properties": { 
			 "R2extent": 4499.0774, 
			 "electric_dipole_moment_norm": 3.60024735956, 
			 "electric_quadrupole_moment_norm": 26.9226678931, 
			 "total_energy": -670.307447546, 
			 "HOMO_LUMO_gap": 0.17165, 
			 "cosmo_polarized_energy": -15.56, 
			 "cosmo_cavitation_energy": 32.12, 
			 "cosmo_dispersion_energy": -23.16, 
			 "cosmo_repulsion_energy": 1.83, 
			 "cosmo_total_nonelectrostatic_energy": 10.79, 
			 "SMD_solvation_energy": 6.54 
		},
		"coords": [
			{
				"x": -3.3410462738,
				"y": 2.3215110126,
				"z": 3.8363809172,
				"element": "C" 
			},
			{
				"x": -3.0981459285,
				"y": 0.8179929351,
				"z": 3.6750509804,
				"element": "C" 
			},
			{
				"x": -2.4360232244,
				"y": 0.4486928666,
				"z": 2.3534339851,
				"element": "C" 
			},
			{
				"x": -1.1444432719,
				"y": 1.0519579354,
				"z": 2.323355402,
				"element": "O" 
			},
			{
				"x": -0.3628414595,
				"y": 0.8796401504,
				"z": 1.2152403319,
				"element": "C" 
			},
			{
				"x": -0.7332219044,
				"y": 0.1356818375,
				"z": 0.0968526289,
				"element": "C" 
			},
			{
				"x": 0.174451304,
				"y": 0.0412939104,
				"z": -0.9756911972,
				"element": "C" 
			},
			{
				"x": 1.4256474857,
				"y": 0.6973267851,
				"z": -0.8889273017,
				"element": "C" 
			},
			{
				"x": 2.1128159654,
				"y": 0.4396210968,
				"z": -2.0711766299,
				"element": "N" 
			},
			{
				"x": 1.3502287999,
				"y": -0.3424709143,
				"z": -2.8849299794,
				"element": "C" 
			},
			{
				"x": 0.1430061476,
				"y": -0.6209459643,
				"z": -2.2631252596,
				"element": "C" 
			},
			{
				"x": -0.9126034791,
				"y": -1.4320398587,
				"z": -2.8494595965,
				"element": "C" 
			},
			{
				"x": -0.8562200829,
				"y": -1.9583661227,
				"z": -3.9521667421,
				"element": "O" 
			},
			{
				"x": 1.7991477575,
				"y": 1.4437631311,
				"z": 0.2332530754,
				"element": "C" 
			},
			{
				"x": 0.895433348,
				"y": 1.5272429196,
				"z": 1.2789794117,
				"element": "C" 
			},
			{
				"x": -3.8074397571,
				"y": 2.5429777609,
				"z": 4.8013237178,
				"element": "H" 
			},
			{
				"x": -2.3999469357,
				"y": 2.8745788864,
				"z": 3.7772837508,
				"element": "H" 
			},
			{
				"x": -4.0034893386,
				"y": 2.7011532126,
				"z": 3.0499230494,
				"element": "H" 
			},
			{
				"x": -4.0478618767,
				"y": 0.2715523345,
				"z": 3.7343728427,
				"element": "H" 
			},
			{
				"x": -2.4698030176,
				"y": 0.4469459443,
				"z": 4.4935221762,
				"element": "H" 
			},
			{
				"x": -2.3404519223,
				"y": -0.64268332,
				"z": 2.258724443,
				"element": "H" 
			},
			{
				"x": -3.0370252933,
				"y": 0.8099798382,
				"z": 1.5050883585,
				"element": "H" 
			},
			{
				"x": -1.693595522,
				"y": -0.3616360404,
				"z": 0.0457539701,
				"element": "H" 
			},
			{
				"x": 3.0353026369,
				"y": 0.7799784481,
				"z": -2.2924560723,
				"element": "H" 
			},
			{
				"x": 1.6931080298,
				"y": -0.663309722,
				"z": -3.8576002164,
				"element": "H" 
			},
			{
				"x": -1.8176118205,
				"y": -1.555660134,
				"z": -2.2139506548,
				"element": "H" 
			},
			{
				"x": 2.7617459675,
				"y": 1.9436290902,
				"z": 0.290746788,
				"element": "H" 
			},
			{
				"x": 1.128483666,
				"y": 2.0916919807,
				"z": 2.1752978209,
				"element": "H" 
			}
		],
		 "valence_orbital": [ 
			{
				"type": "occ",
				"energy": -0.30203,
				"method": "rhf"
			},
			{
				"type": "occ",
				"energy": -0.28234,
				"method": "rhf"
			},
			{
				"type": "occ",
				"energy": -0.23679,
				"method": "rhf"
			},
			{
				"type": "occ",
				"energy": -0.21668,
				"method": "rhf"
			},
			{
				"type": "occ",
				"energy": -0.20933,
				"method": "rhf"
			},
			{
				"type": "unocc",
				"energy": -0.03768,
				"method": "rhf"
			},
			{
				"type": "unocc",
				"energy": -0.00814,
				"method": "rhf"
			},
			{
				"type": "unocc",
				"energy": 0.02883,
				"method": "rhf"
			},
			{
				"type": "unocc",
				"energy": 0.06753,
				"method": "rhf"
			},
			{
				"type": "unocc",
				"energy": 0.0922,
				"method": "rhf"
			}
		],
		"cosmo_sigma_profile": { 
			"-0.025": 0.0,
			"-0.024": 0.0,
			"-0.023": 0.0,
			"-0.022": 0.0,
			"-0.021": 0.0,
			"-0.02": 0.0,
			"-0.019": 0.0,
			"-0.018": 0.0,
			"-0.017": 0.469715889193,
			"-0.016": 1.87105449733,
			"-0.015": 1.66406252885,
			"-0.014": 1.39334349849,
			"-0.013": 1.16777082038,
			"-0.012": 1.2107005244,
			"-0.011": 1.61715612052,
			"-0.01": 1.47606617711,
			"-0.009": 2.90477376566,
			"-0.008": 3.03518870255,
			"-0.007": 3.64257712648,
			"-0.006": 8.0202104282,
			"-0.005": 12.9837462275,
			"-0.004": 16.9068097242,
			"-0.003": 22.7303208436,
			"-0.002": 20.584568928,
			"-0.001": 20.1983702662,
			"0.0": 19.4612702751,
			"0.001": 18.6508833588,
			"0.002": 16.864591282,
			"0.003": 14.7052327887,
			"0.004": 17.0465311821,
			"0.005": 16.3263255335,
			"0.006": 6.29630955719,
			"0.007": 3.04315725774,
			"0.008": 3.01421363877,
			"0.009": 2.97007039508,
			"0.01": 2.09638692365,
			"0.011": 2.14686266327,
			"0.012": 3.95274119203,
			"0.013": 4.50296771276,
			"0.014": 1.52989030116,
			"0.015": 0.199275422463,
			"0.016": 0.0,
			"0.017": 0.0,
			"0.018": 0.0,
			"0.019": 0.0,
			"0.02": 0.0,
			"0.021": 0.0,
			"0.022": 0.0,
			"0.023": 0.0,
			"0.024": 0.0,
			"0.025": 0.0
		}
	}
}
