{
	 "smiles": "FC1=C(Cl)C=C(C=C1)C(=O)CC#N", 
	 "Tm": 333.15, 
	 "num_atms": 18, 
	 "gaussian": { 
		 "optdone": 1, 
		 "sigma_profile": "yes", 
		 "theory": "DFT", 
		 "functional": "B3LYP", 
		 "basiset": "6-31G**", 
		 "properties": { 
			 "R2extent": 4444.6846, 
			 "electric_dipole_moment_norm": 5.43856161591, 
			 "electric_quadrupole_moment_norm": 20.5095051952, 
			 "total_energy": -1035.94409661, 
			 "HOMO_LUMO_gap": 0.18877, 
			 "cosmo_polarized_energy": -17.12, 
			 "cosmo_cavitation_energy": 26.71, 
			 "cosmo_dispersion_energy": -18.82, 
			 "cosmo_repulsion_energy": 1.47, 
			 "cosmo_total_nonelectrostatic_energy": 9.35, 
			 "SMD_solvation_energy": 6.8 
		},
		"coords": [
			{
				"x": -0.9779001909,
				"y": 2.5822815616,
				"z": -4.0286094804,
				"element": "F" 
			},
			{
				"x": -0.5864432814,
				"y": 2.0765012617,
				"z": -2.8558995538,
				"element": "C" 
			},
			{
				"x": 0.7293897572,
				"y": 2.2759767008,
				"z": -2.4194773791,
				"element": "C" 
			},
			{
				"x": 1.8366859239,
				"y": 3.1815081703,
				"z": -3.4134356446,
				"element": "Cl" 
			},
			{
				"x": 1.1279889547,
				"y": 1.7470610283,
				"z": -1.1997315788,
				"element": "C" 
			},
			{
				"x": 0.2221299344,
				"y": 1.0193462112,
				"z": -0.4107111566,
				"element": "C" 
			},
			{
				"x": -1.09204491,
				"y": 0.8302389369,
				"z": -0.8652407281,
				"element": "C" 
			},
			{
				"x": -1.4967302664,
				"y": 1.3587582224,
				"z": -2.0879360755,
				"element": "C" 
			},
			{
				"x": 0.7314492916,
				"y": 0.4841202039,
				"z": 0.8883093027,
				"element": "C" 
			},
			{
				"x": 1.8762360239,
				"y": 0.6660676292,
				"z": 1.2527262458,
				"element": "O" 
			},
			{
				"x": -0.2577255198,
				"y": -0.3164001382,
				"z": 1.7603650047,
				"element": "C" 
			},
			{
				"x": 0.3373285518,
				"y": -0.7941227769,
				"z": 3.0058304238,
				"element": "C" 
			},
			{
				"x": 0.7747981346,
				"y": -1.1899755968,
				"z": 4.0037848409,
				"element": "N" 
			},
			{
				"x": 2.1408540806,
				"y": 1.8878024444,
				"z": -0.8401672243,
				"element": "H" 
			},
			{
				"x": -1.81273159,
				"y": 0.2727764144,
				"z": -0.2772184601,
				"element": "H" 
			},
			{
				"x": -2.5058414172,
				"y": 1.2273440358,
				"z": -2.4623659889,
				"element": "H" 
			},
			{
				"x": -0.6361194208,
				"y": -1.1744682133,
				"z": 1.1909771384,
				"element": "H" 
			},
			{
				"x": -1.1279240561,
				"y": 0.3091839042,
				"z": 1.9950003139,
				"element": "H" 
			}
		],
		 "valence_orbital": [ 
			{
				"type": "occ",
				"energy": -0.33421,
				"method": "rhf"
			},
			{
				"type": "occ",
				"energy": -0.33288,
				"method": "rhf"
			},
			{
				"type": "occ",
				"energy": -0.2881,
				"method": "rhf"
			},
			{
				"type": "occ",
				"energy": -0.28473,
				"method": "rhf"
			},
			{
				"type": "occ",
				"energy": -0.27474,
				"method": "rhf"
			},
			{
				"type": "unocc",
				"energy": -0.08597,
				"method": "rhf"
			},
			{
				"type": "unocc",
				"energy": -0.04744,
				"method": "rhf"
			},
			{
				"type": "unocc",
				"energy": 0.00506,
				"method": "rhf"
			},
			{
				"type": "unocc",
				"energy": 0.00893,
				"method": "rhf"
			},
			{
				"type": "unocc",
				"energy": 0.02352,
				"method": "rhf"
			}
		],
		"cosmo_sigma_profile": { 
			"-0.025": 0.0,
			"-0.024": 0.0,
			"-0.023": 0.0,
			"-0.022": 0.0,
			"-0.021": 0.0,
			"-0.02": 0.0,
			"-0.019": 0.0,
			"-0.018": 0.0,
			"-0.017": 0.0,
			"-0.016": 0.0,
			"-0.015": 0.0,
			"-0.014": 0.0,
			"-0.013": 0.0,
			"-0.012": 0.0212027399153,
			"-0.011": 6.33443112316,
			"-0.01": 8.86957248219,
			"-0.009": 6.85495155046,
			"-0.008": 6.86095858997,
			"-0.007": 7.96049490561,
			"-0.006": 6.03437815244,
			"-0.005": 6.13145461953,
			"-0.004": 6.63941942107,
			"-0.003": 9.3658065135,
			"-0.002": 15.716868471,
			"-0.001": 17.569136908,
			"0.0": 20.8187755697,
			"0.001": 14.3986745691,
			"0.002": 11.7527042069,
			"0.003": 19.9584495272,
			"0.004": 12.2123622156,
			"0.005": 4.06721598666,
			"0.006": 4.78920553889,
			"0.007": 3.54006180692,
			"0.008": 7.74598205479,
			"0.009": 5.60564064857,
			"0.01": 7.38325873658,
			"0.011": 4.33397155662,
			"0.012": 2.42326570037,
			"0.013": 1.2413999742,
			"0.014": 0.0,
			"0.015": 0.0,
			"0.016": 0.0,
			"0.017": 0.0,
			"0.018": 0.0,
			"0.019": 0.0,
			"0.02": 0.0,
			"0.021": 0.0,
			"0.022": 0.0,
			"0.023": 0.0,
			"0.024": 0.0,
			"0.025": 0.0
		}
	}
}
