{
	 "smiles": "CC1=CC(=CC=C1Br)[N+]([O-])=O", 
	 "Tm": 351.15, 
	 "num_atms": 17, 
	 "gaussian": { 
		 "optdone": 1, 
		 "sigma_profile": "yes", 
		 "theory": "DFT", 
		 "functional": "B3LYP", 
		 "basiset": "6-31G**", 
		 "properties": { 
			 "R2extent": 3629.789, 
			 "electric_dipole_moment_norm": 3.46447322114, 
			 "electric_quadrupole_moment_norm": 11.2391389096, 
			 "total_energy": -3046.87091037, 
			 "HOMO_LUMO_gap": 0.17248, 
			 "cosmo_polarized_energy": -7.22, 
			 "cosmo_cavitation_energy": 24.06, 
			 "cosmo_dispersion_energy": -18.08, 
			 "cosmo_repulsion_energy": 1.44, 
			 "cosmo_total_nonelectrostatic_energy": 7.42, 
			 "SMD_solvation_energy": 5.42 
		},
		"coords": [
			{
				"x": 0.1599975904,
				"y": 1.5804160108,
				"z": -3.3394374403,
				"element": "C" 
			},
			{
				"x": -0.156297866,
				"y": 0.9369949381,
				"z": -2.0149468002,
				"element": "C" 
			},
			{
				"x": -0.430758551,
				"y": 1.7228576185,
				"z": -0.8910892514,
				"element": "C" 
			},
			{
				"x": -0.7231681297,
				"y": 1.1286712292,
				"z": 0.3335033378,
				"element": "C" 
			},
			{
				"x": -0.7560614417,
				"y": -0.2533208758,
				"z": 0.4961457443,
				"element": "C" 
			},
			{
				"x": -0.4857791594,
				"y": -1.0514536185,
				"z": -0.6102076202,
				"element": "C" 
			},
			{
				"x": -0.1922139593,
				"y": -0.4578006489,
				"z": -1.8394770006,
				"element": "C" 
			},
			{
				"x": 0.1695004589,
				"y": -1.6096600994,
				"z": -3.3181554482,
				"element": "Br" 
			},
			{
				"x": -1.0061542573,
				"y": 1.9902024446,
				"z": 1.4914936064,
				"element": "N" 
			},
			{
				"x": -0.9705274171,
				"y": 3.2083251994,
				"z": 1.3199489174,
				"element": "O" 
			},
			{
				"x": -1.2613695576,
				"y": 1.4387864971,
				"z": 2.5615797179,
				"element": "O" 
			},
			{
				"x": 0.1349282346,
				"y": 2.6690103857,
				"z": -3.2556993197,
				"element": "H" 
			},
			{
				"x": 1.1516329081,
				"y": 1.2830570568,
				"z": -3.6961430053,
				"element": "H" 
			},
			{
				"x": -0.557736384,
				"y": 1.2753728427,
				"z": -4.108078137,
				"element": "H" 
			},
			{
				"x": -0.4194237606,
				"y": 2.8039980515,
				"z": -0.9586513233,
				"element": "H" 
			},
			{
				"x": -0.9874185432,
				"y": -0.6788611756,
				"z": 1.4641988241,
				"element": "H" 
			},
			{
				"x": -0.501550165,
				"y": -2.1314958562,
				"z": -0.5242848016,
				"element": "H" 
			}
		],
		 "valence_orbital": [ 
			{
				"type": "occ",
				"energy": -0.31145,
				"method": "rhf"
			},
			{
				"type": "occ",
				"energy": -0.3056,
				"method": "rhf"
			},
			{
				"type": "occ",
				"energy": -0.29424,
				"method": "rhf"
			},
			{
				"type": "occ",
				"energy": -0.28137,
				"method": "rhf"
			},
			{
				"type": "occ",
				"energy": -0.26704,
				"method": "rhf"
			},
			{
				"type": "unocc",
				"energy": -0.09456,
				"method": "rhf"
			},
			{
				"type": "unocc",
				"energy": -0.03459,
				"method": "rhf"
			},
			{
				"type": "unocc",
				"energy": -0.00978,
				"method": "rhf"
			},
			{
				"type": "unocc",
				"energy": -0.00911,
				"method": "rhf"
			},
			{
				"type": "unocc",
				"energy": 0.08882,
				"method": "rhf"
			}
		],
		"cosmo_sigma_profile": { 
			"-0.025": 0.0,
			"-0.024": 0.0,
			"-0.023": 0.0,
			"-0.022": 0.0,
			"-0.021": 0.0,
			"-0.02": 0.0,
			"-0.019": 0.0,
			"-0.018": 0.0,
			"-0.017": 0.0,
			"-0.016": 0.0,
			"-0.015": 0.0,
			"-0.014": 0.0,
			"-0.013": 0.0,
			"-0.012": 0.0,
			"-0.011": 0.0,
			"-0.01": 0.0,
			"-0.009": 0.257556335523,
			"-0.008": 3.70360678344,
			"-0.007": 6.00908297941,
			"-0.006": 6.65086830967,
			"-0.005": 11.2549911672,
			"-0.004": 12.1647742423,
			"-0.003": 14.8990760554,
			"-0.002": 17.3174629862,
			"-0.001": 24.2646553244,
			"0.0": 23.7402770869,
			"0.001": 16.8324995421,
			"0.002": 10.6264438807,
			"0.003": 11.4401249509,
			"0.004": 7.57833794605,
			"0.005": 3.1727651388,
			"0.006": 3.5508995622,
			"0.007": 8.12925051105,
			"0.008": 7.53334095127,
			"0.009": 4.2704341397,
			"0.01": 2.39375122541,
			"0.011": 0.11531606341,
			"0.012": 0.0,
			"0.013": 0.0,
			"0.014": 0.0,
			"0.015": 0.0,
			"0.016": 0.0,
			"0.017": 0.0,
			"0.018": 0.0,
			"0.019": 0.0,
			"0.02": 0.0,
			"0.021": 0.0,
			"0.022": 0.0,
			"0.023": 0.0,
			"0.024": 0.0,
			"0.025": 0.0
		}
	}
}
