{
	 "smiles": "CC(C)C(=NO)C(C)C", 
	 "Tm": 307.15, 
	 "num_atms": 24, 
	 "gaussian": { 
		 "optdone": 1, 
		 "sigma_profile": "yes", 
		 "theory": "DFT", 
		 "functional": "B3LYP", 
		 "basiset": "6-31G**", 
		 "properties": { 
			 "R2extent": 1587.5215, 
			 "electric_dipole_moment_norm": 0.388726986457, 
			 "electric_quadrupole_moment_norm": 4.07419674537, 
			 "total_energy": -405.719124305, 
			 "HOMO_LUMO_gap": 0.25565, 
			 "cosmo_polarized_energy": -5.96, 
			 "cosmo_cavitation_energy": 25.29, 
			 "cosmo_dispersion_energy": -17.83, 
			 "cosmo_repulsion_energy": 1.49, 
			 "cosmo_total_nonelectrostatic_energy": 8.95, 
			 "SMD_solvation_energy": 4.79 
		},
		"coords": [
			{
				"x": 1.7672813025,
				"y": 2.285055043,
				"z": 1.4240422101,
				"element": "C" 
			},
			{
				"x": 0.9518704991,
				"y": 1.6698140869,
				"z": 0.2680168904,
				"element": "C" 
			},
			{
				"x": 1.8109636037,
				"y": 1.4616956346,
				"z": -0.9948167954,
				"element": "C" 
			},
			{
				"x": 0.2256213722,
				"y": 0.4023233371,
				"z": 0.7104270934,
				"element": "C" 
			},
			{
				"x": 0.7617741368,
				"y": -0.6983947717,
				"z": 1.0895793369,
				"element": "N" 
			},
			{
				"x": 2.1760154712,
				"y": -0.6751671656,
				"z": 1.0510710317,
				"element": "O" 
			},
			{
				"x": -1.2986745028,
				"y": 0.4347055802,
				"z": 0.7233260275,
				"element": "C" 
			},
			{
				"x": -1.939437794,
				"y": -0.7179821067,
				"z": 1.5049015969,
				"element": "C" 
			},
			{
				"x": -1.8488926708,
				"y": 0.4899240211,
				"z": -0.7181311987,
				"element": "C" 
			},
			{
				"x": 2.2104872884,
				"y": 3.2347302899,
				"z": 1.1047937844,
				"element": "H" 
			},
			{
				"x": 2.5688186915,
				"y": 1.6135125747,
				"z": 1.736317064,
				"element": "H" 
			},
			{
				"x": 1.1317340067,
				"y": 2.4873065837,
				"z": 2.292743346,
				"element": "H" 
			},
			{
				"x": 0.1682866042,
				"y": 2.3936182835,
				"z": 0.0095550676,
				"element": "H" 
			},
			{
				"x": 2.2427773859,
				"y": 2.4172500639,
				"z": -1.3125476854,
				"element": "H" 
			},
			{
				"x": 1.2100765443,
				"y": 1.0733786438,
				"z": -1.8236780016,
				"element": "H" 
			},
			{
				"x": 2.6228381867,
				"y": 0.7580100893,
				"z": -0.8054641404,
				"element": "H" 
			},
			{
				"x": 2.3936060707,
				"y": -1.5594313256,
				"z": 1.3726625238,
				"element": "H" 
			},
			{
				"x": -1.5767979843,
				"y": 1.3796593286,
				"z": 1.2157626261,
				"element": "H" 
			},
			{
				"x": -1.7027679322,
				"y": -1.6821232962,
				"z": 1.0468456986,
				"element": "H" 
			},
			{
				"x": -3.0282042382,
				"y": -0.6004038933,
				"z": 1.5199557537,
				"element": "H" 
			},
			{
				"x": -1.579282643,
				"y": -0.7487507061,
				"z": 2.5366293334,
				"element": "H" 
			},
			{
				"x": -1.6153791718,
				"y": -0.4382736258,
				"z": -1.2507498106,
				"element": "H" 
			},
			{
				"x": -2.9373586166,
				"y": 0.6092002167,
				"z": -0.7063245728,
				"element": "H" 
			},
			{
				"x": -1.4298556101,
				"y": 1.3227431139,
				"z": -1.2914171798,
				"element": "H" 
			}
		],
		 "valence_orbital": [ 
			{
				"type": "occ",
				"energy": -0.3341,
				"method": "rhf"
			},
			{
				"type": "occ",
				"energy": -0.33125,
				"method": "rhf"
			},
			{
				"type": "occ",
				"energy": -0.3153,
				"method": "rhf"
			},
			{
				"type": "occ",
				"energy": -0.25483,
				"method": "rhf"
			},
			{
				"type": "occ",
				"energy": -0.24068,
				"method": "rhf"
			},
			{
				"type": "unocc",
				"energy": 0.01497,
				"method": "rhf"
			},
			{
				"type": "unocc",
				"energy": 0.07616,
				"method": "rhf"
			},
			{
				"type": "unocc",
				"energy": 0.08385,
				"method": "rhf"
			},
			{
				"type": "unocc",
				"energy": 0.12528,
				"method": "rhf"
			},
			{
				"type": "unocc",
				"energy": 0.129,
				"method": "rhf"
			}
		],
		"cosmo_sigma_profile": { 
			"-0.025": 0.0,
			"-0.024": 0.0,
			"-0.023": 0.0,
			"-0.022": 0.0,
			"-0.021": 0.0,
			"-0.02": 0.0,
			"-0.019": 0.0,
			"-0.018": 0.0,
			"-0.017": 0.15522251091,
			"-0.016": 1.19262758198,
			"-0.015": 0.691567201485,
			"-0.014": 0.83167134951,
			"-0.013": 1.02924190296,
			"-0.012": 0.566011100484,
			"-0.011": 0.592454253712,
			"-0.01": 0.470992424138,
			"-0.009": 0.58567647199,
			"-0.008": 0.539755616077,
			"-0.007": 0.759595840218,
			"-0.006": 0.713751347032,
			"-0.005": 0.76572315356,
			"-0.004": 4.45009626657,
			"-0.003": 21.2425713311,
			"-0.002": 28.0385432316,
			"-0.001": 28.8008843685,
			"0.0": 25.9150189502,
			"0.001": 28.5828303716,
			"0.002": 16.3470328822,
			"0.003": 4.21331770749,
			"0.004": 3.94026780263,
			"0.005": 4.85563336301,
			"0.006": 4.98461765146,
			"0.007": 6.86869866824,
			"0.008": 2.94943545968,
			"0.009": 1.25896835388,
			"0.01": 1.30776562852,
			"0.011": 1.3227942925,
			"0.012": 0.854038224938,
			"0.013": 0.189257363731,
			"0.014": 0.0,
			"0.015": 0.0,
			"0.016": 0.0,
			"0.017": 0.0,
			"0.018": 0.0,
			"0.019": 0.0,
			"0.02": 0.0,
			"0.021": 0.0,
			"0.022": 0.0,
			"0.023": 0.0,
			"0.024": 0.0,
			"0.025": 0.0
		}
	}
}
