{
	 "smiles": "NC1=CC(CC2CCCCC2)=NO1", 
	 "Tm": 380.15, 
	 "num_atms": 29, 
	 "gaussian": { 
		 "optdone": 1, 
		 "sigma_profile": "yes", 
		 "theory": "DFT", 
		 "functional": "B3LYP", 
		 "basiset": "6-31G**", 
		 "properties": { 
			 "R2extent": 3725.938, 
			 "electric_dipole_moment_norm": 3.60088711431, 
			 "electric_quadrupole_moment_norm": 19.3463373722, 
			 "total_energy": -575.398384162, 
			 "HOMO_LUMO_gap": 0.228, 
			 "cosmo_polarized_energy": -12.55, 
			 "cosmo_cavitation_energy": 30.25, 
			 "cosmo_dispersion_energy": -22.12, 
			 "cosmo_repulsion_energy": 1.79, 
			 "cosmo_total_nonelectrostatic_energy": 9.91, 
			 "SMD_solvation_energy": 4.11 
		},
		"coords": [
			{
				"x": 2.5270448551,
				"y": -2.9935109582,
				"z": -1.4913223141,
				"element": "N" 
			},
			{
				"x": 1.8927937401,
				"y": -1.7775913224,
				"z": -1.5956560286,
				"element": "C" 
			},
			{
				"x": 1.5828296082,
				"y": -0.7942862177,
				"z": -0.6919021983,
				"element": "C" 
			},
			{
				"x": 1.0008876559,
				"y": 0.2265199603,
				"z": -1.4983443578,
				"element": "C" 
			},
			{
				"x": 0.4413205874,
				"y": 1.5549277507,
				"z": -1.068363085,
				"element": "C" 
			},
			{
				"x": -1.0634421845,
				"y": 1.5336534484,
				"z": -0.7137248972,
				"element": "C" 
			},
			{
				"x": -1.3935314835,
				"y": 0.7077041224,
				"z": 0.5396175121,
				"element": "C" 
			},
			{
				"x": -2.9227052209,
				"y": 0.5603433567,
				"z": 0.7320903432,
				"element": "C" 
			},
			{
				"x": -3.7062538108,
				"y": 1.7839304151,
				"z": 0.1997550884,
				"element": "C" 
			},
			{
				"x": -2.8704387998,
				"y": 3.0643172888,
				"z": 0.3222870736,
				"element": "C" 
			},
			{
				"x": -1.5917533645,
				"y": 2.9821852944,
				"z": -0.5452700654,
				"element": "C" 
			},
			{
				"x": 0.9620252273,
				"y": -0.1016592371,
				"z": -2.7727066928,
				"element": "N" 
			},
			{
				"x": 1.5343994654,
				"y": -1.4029827251,
				"z": -2.8336525335,
				"element": "O" 
			},
			{
				"x": 2.3546529195,
				"y": -3.6203731266,
				"z": -2.266058206,
				"element": "H" 
			},
			{
				"x": 2.4492675136,
				"y": -3.4413759845,
				"z": -0.5897340692,
				"element": "H" 
			},
			{
				"x": 1.7585623882,
				"y": -0.7859696997,
				"z": 0.3723212109,
				"element": "H" 
			},
			{
				"x": 1.0122874943,
				"y": 1.9252817441,
				"z": -0.2074602469,
				"element": "H" 
			},
			{
				"x": 0.597026028,
				"y": 2.2666206316,
				"z": -1.8865205019,
				"element": "H" 
			},
			{
				"x": -1.5809207362,
				"y": 1.0702047397,
				"z": -1.5647010348,
				"element": "H" 
			},
			{
				"x": -0.9508512292,
				"y": 1.20766114,
				"z": 1.4131523643,
				"element": "H" 
			},
			{
				"x": -0.9285076,
				"y": -0.2820788957,
				"z": 0.4842559449,
				"element": "H" 
			},
			{
				"x": -3.1379283678,
				"y": 0.4153450295,
				"z": 1.797657372,
				"element": "H" 
			},
			{
				"x": -3.2741494823,
				"y": -0.3450550786,
				"z": 0.2231402797,
				"element": "H" 
			},
			{
				"x": -4.6563704217,
				"y": 1.8874226103,
				"z": 0.7359345907,
				"element": "H" 
			},
			{
				"x": -3.9670437234,
				"y": 1.6301392229,
				"z": -0.8554376425,
				"element": "H" 
			},
			{
				"x": -2.5973288967,
				"y": 3.2084118902,
				"z": 1.3759614812,
				"element": "H" 
			},
			{
				"x": -3.4607036571,
				"y": 3.9431551547,
				"z": 0.0393475334,
				"element": "H" 
			},
			{
				"x": -1.7825514684,
				"y": 3.4060818355,
				"z": -1.5389012531,
				"element": "H" 
			},
			{
				"x": -0.8078170361,
				"y": 3.6047776103,
				"z": -0.0937656674,
				"element": "H" 
			}
		],
		 "valence_orbital": [ 
			{
				"type": "occ",
				"energy": -0.29306,
				"method": "rhf"
			},
			{
				"type": "occ",
				"energy": -0.29202,
				"method": "rhf"
			},
			{
				"type": "occ",
				"energy": -0.28669,
				"method": "rhf"
			},
			{
				"type": "occ",
				"energy": -0.27019,
				"method": "rhf"
			},
			{
				"type": "occ",
				"energy": -0.21287,
				"method": "rhf"
			},
			{
				"type": "unocc",
				"energy": 0.01513,
				"method": "rhf"
			},
			{
				"type": "unocc",
				"energy": 0.05891,
				"method": "rhf"
			},
			{
				"type": "unocc",
				"energy": 0.08172,
				"method": "rhf"
			},
			{
				"type": "unocc",
				"energy": 0.08666,
				"method": "rhf"
			},
			{
				"type": "unocc",
				"energy": 0.10623,
				"method": "rhf"
			}
		],
		"cosmo_sigma_profile": { 
			"-0.025": 0.0,
			"-0.024": 0.0,
			"-0.023": 0.0,
			"-0.022": 0.0,
			"-0.021": 0.0,
			"-0.02": 0.0,
			"-0.019": 0.0,
			"-0.018": 0.0,
			"-0.017": 0.0,
			"-0.016": 0.0,
			"-0.015": 0.235329780632,
			"-0.014": 2.34393901789,
			"-0.013": 2.90800309373,
			"-0.012": 2.56157928288,
			"-0.011": 2.50341440181,
			"-0.01": 2.78269750729,
			"-0.009": 2.36269596519,
			"-0.008": 1.10115879294,
			"-0.007": 3.42524647619,
			"-0.006": 3.8688129376,
			"-0.005": 2.7983231697,
			"-0.004": 5.2623845002,
			"-0.003": 9.05418950789,
			"-0.002": 29.7409306983,
			"-0.001": 39.9079550643,
			"0.0": 35.9143999742,
			"0.001": 27.1079302836,
			"0.002": 14.2731463122,
			"0.003": 7.92709164439,
			"0.004": 6.36608526302,
			"0.005": 4.39632641731,
			"0.006": 3.79071671786,
			"0.007": 2.28234577809,
			"0.008": 3.86290267204,
			"0.009": 5.6778978478,
			"0.01": 2.72665007692,
			"0.011": 2.40311378382,
			"0.012": 1.95329950464,
			"0.013": 1.57717730478,
			"0.014": 1.53100198996,
			"0.015": 1.11565691274,
			"0.016": 0.924547632062,
			"0.017": 0.0,
			"0.018": 0.0,
			"0.019": 0.0,
			"0.02": 0.0,
			"0.021": 0.0,
			"0.022": 0.0,
			"0.023": 0.0,
			"0.024": 0.0,
			"0.025": 0.0
		}
	}
}
