{
	 "smiles": "CC1(C)C2CCC1(C)C(=O)C2=C/NC1=CC=C(Cl)C=C1", 
	 "Tm": 441.15, 
	 "num_atms": 40, 
	 "gaussian": { 
		 "optdone": 1, 
		 "sigma_profile": "yes", 
		 "theory": "DFT", 
		 "functional": "B3LYP", 
		 "basiset": "6-31G**", 
		 "properties": { 
			 "R2extent": 11308.3491, 
			 "electric_dipole_moment_norm": 3.35080066402, 
			 "electric_quadrupole_moment_norm": 13.8831537379, 
			 "total_energy": -1250.04073836, 
			 "HOMO_LUMO_gap": 0.14836, 
			 "cosmo_polarized_energy": -9.88, 
			 "cosmo_cavitation_energy": 41.98, 
			 "cosmo_dispersion_energy": -29.81, 
			 "cosmo_repulsion_energy": 2.25, 
			 "cosmo_total_nonelectrostatic_energy": 14.42, 
			 "SMD_solvation_energy": 6.94 
		},
		"coords": [
			{
				"x": 0.2979053066,
				"y": -1.1148804822,
				"z": 3.4018893004,
				"element": "C" 
			},
			{
				"x": 0.3994230984,
				"y": -0.3384842041,
				"z": 2.0784194277,
				"element": "C" 
			},
			{
				"x": 1.8473680741,
				"y": 0.1652752558,
				"z": 1.9465553256,
				"element": "C" 
			},
			{
				"x": -0.1007498075,
				"y": -1.1395349316,
				"z": 0.8233412894,
				"element": "C" 
			},
			{
				"x": -1.6013044707,
				"y": -1.3819670779,
				"z": 1.1611961775,
				"element": "C" 
			},
			{
				"x": -2.0117106536,
				"y": -0.0451469329,
				"z": 1.8526221629,
				"element": "C" 
			},
			{
				"x": -0.6855120634,
				"y": 0.7932800256,
				"z": 1.9048597557,
				"element": "C" 
			},
			{
				"x": -0.7033209634,
				"y": 1.9693711,
				"z": 2.8645834932,
				"element": "C" 
			},
			{
				"x": -0.4548634538,
				"y": 1.1745685257,
				"z": 0.4343206416,
				"element": "C" 
			},
			{
				"x": -0.5975478995,
				"y": 2.2932789135,
				"z": -0.0715002987,
				"element": "O" 
			},
			{
				"x": -0.075415996,
				"y": -0.0634827995,
				"z": -0.2434627214,
				"element": "C" 
			},
			{
				"x": 0.1868042469,
				"y": -0.1480017742,
				"z": -1.575472362,
				"element": "C" 
			},
			{
				"x": 0.1262626155,
				"y": 0.9385161257,
				"z": -2.3986628342,
				"element": "N" 
			},
			{
				"x": 0.4012434237,
				"y": 1.0007311918,
				"z": -3.7648859079,
				"element": "C" 
			},
			{
				"x": 0.1941726738,
				"y": 2.2251115537,
				"z": -4.4257254134,
				"element": "C" 
			},
			{
				"x": 0.4475145692,
				"y": 2.3555893893,
				"z": -5.7865223766,
				"element": "C" 
			},
			{
				"x": 0.9120594975,
				"y": 1.2563208053,
				"z": -6.5087051315,
				"element": "C" 
			},
			{
				"x": 1.2324308756,
				"y": 1.4129319579,
				"z": -8.2306721719,
				"element": "Cl" 
			},
			{
				"x": 1.1260279625,
				"y": 0.0349095151,
				"z": -5.8727050036,
				"element": "C" 
			},
			{
				"x": 0.875235033,
				"y": -0.0934417323,
				"z": -4.5084619608,
				"element": "C" 
			},
			{
				"x": 0.6082147987,
				"y": -0.482006729,
				"z": 4.2403144796,
				"element": "H" 
			},
			{
				"x": 0.970997798,
				"y": -1.979928606,
				"z": 3.3824925662,
				"element": "H" 
			},
			{
				"x": -0.7050556738,
				"y": -1.4835511424,
				"z": 3.6241506707,
				"element": "H" 
			},
			{
				"x": 2.0209043857,
				"y": 0.7322667944,
				"z": 1.028794876,
				"element": "H" 
			},
			{
				"x": 2.1116203574,
				"y": 0.8086239243,
				"z": 2.7926804816,
				"element": "H" 
			},
			{
				"x": 2.5451740961,
				"y": -0.6799587728,
				"z": 1.950466855,
				"element": "H" 
			},
			{
				"x": 0.4644883178,
				"y": -2.0460174488,
				"z": 0.5859043412,
				"element": "H" 
			},
			{
				"x": -1.7297841851,
				"y": -2.2386376903,
				"z": 1.8298600387,
				"element": "H" 
			},
			{
				"x": -2.1835485822,
				"y": -1.583483649,
				"z": 0.2583124015,
				"element": "H" 
			},
			{
				"x": -2.38541354,
				"y": -0.2095375824,
				"z": 2.8681554055,
				"element": "H" 
			},
			{
				"x": -2.7958374628,
				"y": 0.491000649,
				"z": 1.3094644536,
				"element": "H" 
			},
			{
				"x": 0.2612246488,
				"y": 2.4864808089,
				"z": 2.8818995487,
				"element": "H" 
			},
			{
				"x": -0.9401892202,
				"y": 1.6487389,
				"z": 3.8843975273,
				"element": "H" 
			},
			{
				"x": -1.4543214742,
				"y": 2.701193614,
				"z": 2.5516442698,
				"element": "H" 
			},
			{
				"x": 0.4554905662,
				"y": -1.0951570611,
				"z": -2.0344426607,
				"element": "H" 
			},
			{
				"x": -0.1558093628,
				"y": 1.795577207,
				"z": -1.917738995,
				"element": "H" 
			},
			{
				"x": -0.1717229738,
				"y": 3.0798584358,
				"z": -3.8635551919,
				"element": "H" 
			},
			{
				"x": 0.2834650172,
				"y": 3.3049030583,
				"z": -6.2842728631,
				"element": "H" 
			},
			{
				"x": 1.4919940808,
				"y": -0.8144208995,
				"z": -6.4391203979,
				"element": "H" 
			},
			{
				"x": 1.0605863391,
				"y": -1.0510882352,
				"z": -4.0353191989,
				"element": "H" 
			}
		],
		 "valence_orbital": [ 
			{
				"type": "occ",
				"energy": -0.29515,
				"method": "rhf"
			},
			{
				"type": "occ",
				"energy": -0.26702,
				"method": "rhf"
			},
			{
				"type": "occ",
				"energy": -0.25718,
				"method": "rhf"
			},
			{
				"type": "occ",
				"energy": -0.23588,
				"method": "rhf"
			},
			{
				"type": "occ",
				"energy": -0.19772,
				"method": "rhf"
			},
			{
				"type": "unocc",
				"energy": -0.04936,
				"method": "rhf"
			},
			{
				"type": "unocc",
				"energy": -0.01608,
				"method": "rhf"
			},
			{
				"type": "unocc",
				"energy": 0.00883,
				"method": "rhf"
			},
			{
				"type": "unocc",
				"energy": 0.03109,
				"method": "rhf"
			},
			{
				"type": "unocc",
				"energy": 0.07382,
				"method": "rhf"
			}
		],
		"cosmo_sigma_profile": { 
			"-0.025": 0.0,
			"-0.024": 0.0,
			"-0.023": 0.0,
			"-0.022": 0.0,
			"-0.021": 0.0,
			"-0.02": 0.0,
			"-0.019": 0.0,
			"-0.018": 0.0,
			"-0.017": 0.0,
			"-0.016": 0.0,
			"-0.015": 0.0,
			"-0.014": 0.0,
			"-0.013": 0.0,
			"-0.012": 0.0,
			"-0.011": 0.0663701291047,
			"-0.01": 1.71519756546,
			"-0.009": 3.14244671301,
			"-0.008": 3.48866625609,
			"-0.007": 8.44447271187,
			"-0.006": 8.15387303082,
			"-0.005": 9.15872697353,
			"-0.004": 11.5706120121,
			"-0.003": 25.8650649511,
			"-0.002": 38.921526149,
			"-0.001": 41.2057543532,
			"0.0": 38.9897630268,
			"0.001": 42.5939551043,
			"0.002": 29.9079885405,
			"0.003": 22.1223359919,
			"0.004": 19.3236254532,
			"0.005": 11.4549378657,
			"0.006": 2.58129462718,
			"0.007": 1.52051013426,
			"0.008": 1.6290282353,
			"0.009": 1.4551516176,
			"0.01": 1.56114556513,
			"0.011": 1.90709581656,
			"0.012": 2.26336109798,
			"0.013": 2.18037568055,
			"0.014": 1.27847460869,
			"0.015": 0.0118148850576,
			"0.016": 0.0,
			"0.017": 0.0,
			"0.018": 0.0,
			"0.019": 0.0,
			"0.02": 0.0,
			"0.021": 0.0,
			"0.022": 0.0,
			"0.023": 0.0,
			"0.024": 0.0,
			"0.025": 0.0
		}
	}
}
