{
	 "smiles": "OC(=O)C1=CC=C(C=C1Cl)[N+]([O-])=O", 
	 "Tm": 413.15, 
	 "num_atms": 17, 
	 "gaussian": { 
		 "optdone": 1, 
		 "sigma_profile": "yes", 
		 "theory": "DFT", 
		 "functional": "B3LYP", 
		 "basiset": "6-31G**", 
		 "properties": { 
			 "R2extent": 3909.8658, 
			 "electric_dipole_moment_norm": 1.63811182463, 
			 "electric_quadrupole_moment_norm": 20.4202720949, 
			 "total_energy": -1084.89334023, 
			 "HOMO_LUMO_gap": 0.17554, 
			 "cosmo_polarized_energy": -13.14, 
			 "cosmo_cavitation_energy": 24.55, 
			 "cosmo_dispersion_energy": -18.45, 
			 "cosmo_repulsion_energy": 1.44, 
			 "cosmo_total_nonelectrostatic_energy": 7.54, 
			 "SMD_solvation_energy": 7.5 
		},
		"coords": [
			{
				"x": -0.2434532235,
				"y": 1.3224564449,
				"z": -2.3438349535,
				"element": "O" 
			},
			{
				"x": -0.4231995583,
				"y": 2.1325417292,
				"z": -1.2906609373,
				"element": "C" 
			},
			{
				"x": -0.4116931685,
				"y": 3.3329139541,
				"z": -1.4374996113,
				"element": "O" 
			},
			{
				"x": -0.6688592621,
				"y": 1.5337188459,
				"z": 0.0888900525,
				"element": "C" 
			},
			{
				"x": -1.0664711745,
				"y": 2.4739095407,
				"z": 1.0570440892,
				"element": "C" 
			},
			{
				"x": -1.3356948173,
				"y": 2.119126277,
				"z": 2.3715198159,
				"element": "C" 
			},
			{
				"x": -1.1958370062,
				"y": 0.7824293993,
				"z": 2.7305595824,
				"element": "C" 
			},
			{
				"x": -0.7994133414,
				"y": -0.1895147319,
				"z": 1.8213132054,
				"element": "C" 
			},
			{
				"x": -0.5413142111,
				"y": 0.1955217186,
				"z": 0.5079211017,
				"element": "C" 
			},
			{
				"x": -0.031439915,
				"y": -1.1074070031,
				"z": -0.572636962,
				"element": "Cl" 
			},
			{
				"x": -1.4732302491,
				"y": 0.3716172237,
				"z": 4.1219620954,
				"element": "N" 
			},
			{
				"x": -1.3362931353,
				"y": -0.8176162011,
				"z": 4.3992059407,
				"element": "O" 
			},
			{
				"x": -1.8225965399,
				"y": 1.2490298555,
				"z": 4.9068029306,
				"element": "O" 
			},
			{
				"x": -0.2610956891,
				"y": 0.3845880944,
				"z": -2.0921107757,
				"element": "H" 
			},
			{
				"x": -1.15105383,
				"y": 3.5037454078,
				"z": 0.7307571968,
				"element": "H" 
			},
			{
				"x": -1.644535274,
				"y": 2.8477228349,
				"z": 3.109952531,
				"element": "H" 
			},
			{
				"x": -0.6965196048,
				"y": -1.21838339,
				"z": 2.1399146982,
				"element": "H" 
			}
		],
		 "valence_orbital": [ 
			{
				"type": "occ",
				"energy": -0.32926,
				"method": "rhf"
			},
			{
				"type": "occ",
				"energy": -0.31466,
				"method": "rhf"
			},
			{
				"type": "occ",
				"energy": -0.30864,
				"method": "rhf"
			},
			{
				"type": "occ",
				"energy": -0.29748,
				"method": "rhf"
			},
			{
				"type": "occ",
				"energy": -0.29633,
				"method": "rhf"
			},
			{
				"type": "unocc",
				"energy": -0.12079,
				"method": "rhf"
			},
			{
				"type": "unocc",
				"energy": -0.06028,
				"method": "rhf"
			},
			{
				"type": "unocc",
				"energy": -0.05211,
				"method": "rhf"
			},
			{
				"type": "unocc",
				"energy": -0.02179,
				"method": "rhf"
			},
			{
				"type": "unocc",
				"energy": 0.03162,
				"method": "rhf"
			}
		],
		"cosmo_sigma_profile": { 
			"-0.025": 0.0,
			"-0.024": 0.0,
			"-0.023": 0.0,
			"-0.022": 0.0,
			"-0.021": 0.0,
			"-0.02": 0.0,
			"-0.019": 0.0,
			"-0.018": 0.0,
			"-0.017": 0.0,
			"-0.016": 0.0,
			"-0.015": 0.0,
			"-0.014": 0.0407261279511,
			"-0.013": 0.579596363429,
			"-0.012": 1.12582805298,
			"-0.011": 1.69467690474,
			"-0.01": 0.949315883802,
			"-0.009": 3.09015736343,
			"-0.008": 7.08765327191,
			"-0.007": 9.27733581075,
			"-0.006": 9.31030338354,
			"-0.005": 10.0790574395,
			"-0.004": 12.7904803801,
			"-0.003": 18.6592130074,
			"-0.002": 22.4083223307,
			"-0.001": 14.1709542386,
			"0.0": 9.96999414885,
			"0.001": 9.1092554221,
			"0.002": 8.77394455866,
			"0.003": 4.99376009744,
			"0.004": 5.61394911218,
			"0.005": 4.99064612402,
			"0.006": 8.39848244512,
			"0.007": 11.4623248083,
			"0.008": 7.48722864592,
			"0.009": 6.94966727816,
			"0.01": 5.33590970211,
			"0.011": 4.10510876292,
			"0.012": 2.05793303875,
			"0.013": 0.217725995604,
			"0.014": 0.0,
			"0.015": 0.0,
			"0.016": 0.0,
			"0.017": 0.0,
			"0.018": 0.0,
			"0.019": 0.0,
			"0.02": 0.0,
			"0.021": 0.0,
			"0.022": 0.0,
			"0.023": 0.0,
			"0.024": 0.0,
			"0.025": 0.0
		}
	}
}
