{
	 "smiles": "O=C1CC(=O)NC(=O)N1", 
	 "Tm": 521.15, 
	 "num_atms": 13, 
	 "gaussian": { 
		 "optdone": 1, 
		 "sigma_profile": "yes", 
		 "theory": "DFT", 
		 "functional": "B3LYP", 
		 "basiset": "6-31G**", 
		 "properties": { 
			 "R2extent": 1726.2897, 
			 "electric_dipole_moment_norm": 0.0486154296494, 
			 "electric_quadrupole_moment_norm": 7.18525094412, 
			 "total_energy": -490.060359732, 
			 "HOMO_LUMO_gap": 0.21945, 
			 "cosmo_polarized_energy": -16.91, 
			 "cosmo_cavitation_energy": 18.19, 
			 "cosmo_dispersion_energy": -13.81, 
			 "cosmo_repulsion_energy": 1.16, 
			 "cosmo_total_nonelectrostatic_energy": 5.53, 
			 "SMD_solvation_energy": 5.71 
		},
		"coords": [
			{
				"x": 0.2099013986,
				"y": 3.0327756638,
				"z": 0.5720252058,
				"element": "O" 
			},
			{
				"x": 0.7083878719,
				"y": 2.0203018183,
				"z": 0.1261572353,
				"element": "C" 
			},
			{
				"x": -0.0992479715,
				"y": 0.9392085422,
				"z": -0.5706138452,
				"element": "C" 
			},
			{
				"x": 0.6397948849,
				"y": -0.2832474842,
				"z": -1.0863070533,
				"element": "C" 
			},
			{
				"x": 0.0839144516,
				"y": -1.1992951377,
				"z": -1.6557289578,
				"element": "O" 
			},
			{
				"x": 2.0119048049,
				"y": -0.2934052319,
				"z": -0.8654519102,
				"element": "N" 
			},
			{
				"x": 2.7866737886,
				"y": 0.6752944369,
				"z": -0.2324716701,
				"element": "C" 
			},
			{
				"x": 3.9865452442,
				"y": 0.5655618786,
				"z": -0.0918591112,
				"element": "O" 
			},
			{
				"x": 2.0736269268,
				"y": 1.780112307,
				"z": 0.2260636785,
				"element": "N" 
			},
			{
				"x": -0.6288350402,
				"y": 1.3979340968,
				"z": -1.4121630426,
				"element": "H" 
			},
			{
				"x": -0.880802111,
				"y": 0.6003124473,
				"z": 0.1174452964,
				"element": "H" 
			},
			{
				"x": 2.5227076078,
				"y": -1.1011660508,
				"z": -1.2024743498,
				"element": "H" 
			},
			{
				"x": 2.6296281435,
				"y": 2.4903127137,
				"z": 0.6880785242,
				"element": "H" 
			}
		],
		 "valence_orbital": [ 
			{
				"type": "occ",
				"energy": -0.31994,
				"method": "rhf"
			},
			{
				"type": "occ",
				"energy": -0.31056,
				"method": "rhf"
			},
			{
				"type": "occ",
				"energy": -0.31041,
				"method": "rhf"
			},
			{
				"type": "occ",
				"energy": -0.30703,
				"method": "rhf"
			},
			{
				"type": "occ",
				"energy": -0.27224,
				"method": "rhf"
			},
			{
				"type": "unocc",
				"energy": -0.05279,
				"method": "rhf"
			},
			{
				"type": "unocc",
				"energy": -0.01184,
				"method": "rhf"
			},
			{
				"type": "unocc",
				"energy": 0.04804,
				"method": "rhf"
			},
			{
				"type": "unocc",
				"energy": 0.06678,
				"method": "rhf"
			},
			{
				"type": "unocc",
				"energy": 0.09234,
				"method": "rhf"
			}
		],
		"cosmo_sigma_profile": { 
			"-0.025": 0.0,
			"-0.024": 0.0,
			"-0.023": 0.0,
			"-0.022": 0.0,
			"-0.021": 0.0,
			"-0.02": 0.0,
			"-0.019": 0.0,
			"-0.018": 0.0,
			"-0.017": 0.508970253584,
			"-0.016": 1.95532376399,
			"-0.015": 1.73532831469,
			"-0.014": 1.72346793858,
			"-0.013": 1.35370134551,
			"-0.012": 1.62214742566,
			"-0.011": 2.37451728808,
			"-0.01": 6.49060308848,
			"-0.009": 8.36826430967,
			"-0.008": 6.43696673914,
			"-0.007": 5.84930486651,
			"-0.006": 6.99038702674,
			"-0.005": 5.73651495273,
			"-0.004": 7.94707371811,
			"-0.003": 8.90654759305,
			"-0.002": 5.17623791708,
			"-0.001": 4.05799441505,
			"0.0": 3.16816935924,
			"0.001": 4.02651023969,
			"0.002": 2.91863329519,
			"0.003": 2.87235284946,
			"0.004": 4.18450603433,
			"0.005": 3.55997016783,
			"0.006": 2.4370877201,
			"0.007": 3.6477358849,
			"0.008": 3.79729086632,
			"0.009": 4.22402502538,
			"0.01": 7.70718809008,
			"0.011": 15.1628784555,
			"0.012": 9.57416694054,
			"0.013": 0.516313175838,
			"0.014": 0.0,
			"0.015": 0.0,
			"0.016": 0.0,
			"0.017": 0.0,
			"0.018": 0.0,
			"0.019": 0.0,
			"0.02": 0.0,
			"0.021": 0.0,
			"0.022": 0.0,
			"0.023": 0.0,
			"0.024": 0.0,
			"0.025": 0.0
		}
	}
}
