{
	 "smiles": "FC(F)(F)C1=CC(I)=CC=C1", 
	 "Tm": 265.15, 
	 "num_atms": 15, 
	 "gaussian": { 
		 "optdone": 1, 
		 "sigma_profile": "no", 
		 "theory": "DFT", 
		 "functional": "B3LYP", 
		 "basiset": "6-31G**", 
		 "properties": { 
			 "R2extent": 1920.4412, 
			 "electric_dipole_moment_norm": 2.14654426928, 
			 "electric_quadrupole_moment_norm": 4.81768124724, 
			 "total_energy": -580.067611373, 
			 "HOMO_LUMO_gap": 0.2046, 
			 "cosmo_polarized_energy": -96020.53, 
			 "cosmo_cavitation_energy": 24.02, 
			 "cosmo_dispersion_energy": -18.61, 
			 "cosmo_repulsion_energy": 1.41, 
			 "cosmo_total_nonelectrostatic_energy": 6.81, 
			 "SMD_solvation_energy": 4.41 
		},
		"coords": [
			{
				"x": -1.8998130566,
				"y": -1.6915044708,
				"z": 1.4295035548,
				"element": "F" 
			},
			{
				"x": -1.0240218266,
				"y": -0.6631201678,
				"z": 1.4974730682,
				"element": "C" 
			},
			{
				"x": -0.107193492,
				"y": -0.9865770826,
				"z": 2.4344371634,
				"element": "F" 
			},
			{
				"x": -1.7105971056,
				"y": 0.4090134304,
				"z": 1.9488870671,
				"element": "F" 
			},
			{
				"x": -0.3877305482,
				"y": -0.3922922105,
				"z": 0.1584065867,
				"element": "C" 
			},
			{
				"x": 0.8039787348,
				"y": -1.0397384301,
				"z": -0.1789411374,
				"element": "C" 
			},
			{
				"x": 1.3555966593,
				"y": -0.8247877343,
				"z": -1.4415045128,
				"element": "C" 
			},
			{
				"x": 3.1658277081,
				"y": -1.7946673778,
				"z": -1.9630652689,
				"element": "I" 
			},
			{
				"x": 0.7358008253,
				"y": 0.0219198098,
				"z": -2.3630771587,
				"element": "C" 
			},
			{
				"x": -0.4537081045,
				"y": 0.6616463438,
				"z": -2.0082616866,
				"element": "C" 
			},
			{
				"x": -1.0196869254,
				"y": 0.4586142112,
				"z": -0.7511092832,
				"element": "C" 
			},
			{
				"x": 1.2887059145,
				"y": -1.6901019325,
				"z": 0.5386948634,
				"element": "H" 
			},
			{
				"x": 1.1730132026,
				"y": 0.184308647,
				"z": -3.3417536905,
				"element": "H" 
			},
			{
				"x": -0.9362761292,
				"y": 1.3243539571,
				"z": -2.72003675,
				"element": "H" 
			},
			{
				"x": -1.9389958564,
				"y": 0.9611330071,
				"z": -0.4717528154,
				"element": "H" 
			}
		],
		 "valence_orbital": [ 
			{
				"type": "occ",
				"energy": -0.35441,
				"method": "rhf"
			},
			{
				"type": "occ",
				"energy": -0.31067,
				"method": "rhf"
			},
			{
				"type": "occ",
				"energy": -0.28218,
				"method": "rhf"
			},
			{
				"type": "occ",
				"energy": -0.27744,
				"method": "rhf"
			},
			{
				"type": "occ",
				"energy": -0.25274,
				"method": "rhf"
			},
			{
				"type": "unocc",
				"energy": -0.04814,
				"method": "rhf"
			},
			{
				"type": "unocc",
				"energy": -0.04157,
				"method": "rhf"
			},
			{
				"type": "unocc",
				"energy": -0.03292,
				"method": "rhf"
			},
			{
				"type": "unocc",
				"energy": 0.03912,
				"method": "rhf"
			},
			{
				"type": "unocc",
				"energy": 0.04564,
				"method": "rhf"
			}
		],
		"cosmo_sigma_profile": { 
			"0.0": 0.0,
			"0.0": 0.0,
			"0.0": 0.0,
			"0.0": 0.0,
			"0.0": 0.0,
			"0.0": 0.0,
			"0.0": 0.0,
			"0.0": 0.0,
			"0.0": 0.0,
			"0.0": 0.0,
			"0.0": 0.0,
			"0.0": 0.0,
			"0.0": 0.0,
			"0.0": 0.0,
			"0.0": 0.0,
			"0.0": 0.0,
			"0.0": 0.0,
			"0.0": 0.0,
			"0.0": 0.0,
			"0.0": 0.0,
			"0.0": 0.0,
			"0.0": 0.0,
			"0.0": 0.0,
			"0.0": 0.0,
			"0.0": 0.0,
			"0.0": 0.0,
			"0.0": 0.0,
			"0.0": 0.0,
			"0.0": 0.0,
			"0.0": 0.0,
			"0.0": 0.0,
			"0.0": 0.0,
			"0.0": 0.0,
			"0.0": 0.0,
			"0.0": 0.0,
			"0.0": 0.0,
			"0.0": 0.0,
			"0.0": 0.0,
			"0.0": 0.0,
			"0.0": 0.0,
			"0.0": 0.0,
			"0.0": 0.0,
			"0.0": 0.0,
			"0.0": 0.0,
			"0.0": 0.0,
			"0.0": 0.0,
			"0.0": 0.0,
			"0.0": 0.0,
			"0.0": 0.0,
			"0.0": 0.0,
			"0.0": 0.0
		}
	}
}
