{
	 "smiles": "CC1=CC(=CC=C1)[N+]([O-])=O", 
	 "Tm": 288.95, 
	 "num_atms": 17, 
	 "gaussian": { 
		 "optdone": 1, 
		 "sigma_profile": "yes", 
		 "theory": "DFT", 
		 "functional": "B3LYP", 
		 "basiset": "6-31G**", 
		 "properties": { 
			 "R2extent": 1885.7738, 
			 "electric_dipole_moment_norm": 4.86652324766, 
			 "electric_quadrupole_moment_norm": 13.4063324552, 
			 "total_energy": -476.07018087, 
			 "HOMO_LUMO_gap": 0.18057, 
			 "cosmo_polarized_energy": -7.64, 
			 "cosmo_cavitation_energy": 21.6, 
			 "cosmo_dispersion_energy": -15.95, 
			 "cosmo_repulsion_energy": 1.29, 
			 "cosmo_total_nonelectrostatic_energy": 6.94, 
			 "SMD_solvation_energy": 6.14 
		},
		"coords": [
			{
				"x": 1.6758908822,
				"y": -1.4094941995,
				"z": 1.4036202768,
				"element": "C" 
			},
			{
				"x": 0.5548026147,
				"y": -1.1069917273,
				"z": 0.4377137631,
				"element": "C" 
			},
			{
				"x": 0.8034529279,
				"y": -0.446540755,
				"z": -0.7681325365,
				"element": "C" 
			},
			{
				"x": -0.2506168641,
				"y": -0.1949922087,
				"z": -1.6451233795,
				"element": "C" 
			},
			{
				"x": -1.560209291,
				"y": -0.5768665033,
				"z": -1.3687269778,
				"element": "C" 
			},
			{
				"x": -1.8077976258,
				"y": -1.2341409655,
				"z": -0.164692617,
				"element": "C" 
			},
			{
				"x": -0.7644168025,
				"y": -1.4939370621,
				"z": 0.7245611034,
				"element": "C" 
			},
			{
				"x": 0.0334203226,
				"y": 0.5036770149,
				"z": -2.9105537718,
				"element": "N" 
			},
			{
				"x": 1.1978264127,
				"y": 0.8345784849,
				"z": -3.1330704277,
				"element": "O" 
			},
			{
				"x": -0.9110479679,
				"y": 0.7148597784,
				"z": -3.6707708238,
				"element": "O" 
			},
			{
				"x": 1.8918890758,
				"y": -2.4839810246,
				"z": 1.4327763602,
				"element": "H" 
			},
			{
				"x": 1.415973591,
				"y": -1.1042898325,
				"z": 2.4225966119,
				"element": "H" 
			},
			{
				"x": 2.5966558499,
				"y": -0.8935547816,
				"z": 1.1203503805,
				"element": "H" 
			},
			{
				"x": 1.801037868,
				"y": -0.1225442158,
				"z": -1.0393713718,
				"element": "H" 
			},
			{
				"x": -2.3453128398,
				"y": -0.3575747155,
				"z": -2.0808652439,
				"element": "H" 
			},
			{
				"x": -2.8191310278,
				"y": -1.5427208996,
				"z": 0.0811765328,
				"element": "H" 
			},
			{
				"x": -0.975217126,
				"y": -2.0054863872,
				"z": 1.6604121212,
				"element": "H" 
			}
		],
		 "valence_orbital": [ 
			{
				"type": "occ",
				"energy": -0.30703,
				"method": "rhf"
			},
			{
				"type": "occ",
				"energy": -0.30414,
				"method": "rhf"
			},
			{
				"type": "occ",
				"energy": -0.28797,
				"method": "rhf"
			},
			{
				"type": "occ",
				"energy": -0.2786,
				"method": "rhf"
			},
			{
				"type": "occ",
				"energy": -0.26696,
				"method": "rhf"
			},
			{
				"type": "unocc",
				"energy": -0.08639,
				"method": "rhf"
			},
			{
				"type": "unocc",
				"energy": -0.02246,
				"method": "rhf"
			},
			{
				"type": "unocc",
				"energy": 0.00141,
				"method": "rhf"
			},
			{
				"type": "unocc",
				"energy": 0.0797,
				"method": "rhf"
			},
			{
				"type": "unocc",
				"energy": 0.10751,
				"method": "rhf"
			}
		],
		"cosmo_sigma_profile": { 
			"-0.025": 0.0,
			"-0.024": 0.0,
			"-0.023": 0.0,
			"-0.022": 0.0,
			"-0.021": 0.0,
			"-0.02": 0.0,
			"-0.019": 0.0,
			"-0.018": 0.0,
			"-0.017": 0.0,
			"-0.016": 0.0,
			"-0.015": 0.0,
			"-0.014": 0.0,
			"-0.013": 0.0,
			"-0.012": 0.0,
			"-0.011": 0.0,
			"-0.01": 0.0,
			"-0.009": 0.0,
			"-0.008": 0.255434864321,
			"-0.007": 5.12717699864,
			"-0.006": 9.40397851072,
			"-0.005": 13.863083563,
			"-0.004": 13.8983197599,
			"-0.003": 14.412412078,
			"-0.002": 14.0418717522,
			"-0.001": 17.6917831307,
			"0.0": 16.4960171436,
			"0.001": 11.3018731611,
			"0.002": 14.6800360239,
			"0.003": 8.81756941626,
			"0.004": 1.96188042441,
			"0.005": 3.73045485568,
			"0.006": 2.87477402675,
			"0.007": 7.01491602368,
			"0.008": 9.05087289891,
			"0.009": 4.37346196557,
			"0.01": 3.25337563113,
			"0.011": 0.312072883614,
			"0.012": 0.0,
			"0.013": 0.0,
			"0.014": 0.0,
			"0.015": 0.0,
			"0.016": 0.0,
			"0.017": 0.0,
			"0.018": 0.0,
			"0.019": 0.0,
			"0.02": 0.0,
			"0.021": 0.0,
			"0.022": 0.0,
			"0.023": 0.0,
			"0.024": 0.0,
			"0.025": 0.0
		}
	}
}
