{
	 "smiles": "O=N(=O)OCC(ON(=O)=O)C(CON(=O)=O)ON(=O)=O", 
	 "Tm": 334.15, 
	 "num_atms": 26, 
	 "gaussian": { 
		 "optdone": 1, 
		 "sigma_profile": "yes", 
		 "theory": "DFT", 
		 "functional": "B3LYP", 
		 "basiset": "6-31G**", 
		 "properties": { 
			 "R2extent": 6031.6754, 
			 "electric_dipole_moment_norm": 1.58753120914, 
			 "electric_quadrupole_moment_norm": 9.72107292895, 
			 "total_energy": -1277.14163815, 
			 "HOMO_LUMO_gap": 0.23964, 
			 "cosmo_polarized_energy": -17.64, 
			 "cosmo_cavitation_energy": 35.97, 
			 "cosmo_dispersion_energy": -23.19, 
			 "cosmo_repulsion_energy": 1.87, 
			 "cosmo_total_nonelectrostatic_energy": 14.65, 
			 "SMD_solvation_energy": 17.69 
		},
		"coords": [
			{
				"x": 2.1409132306,
				"y": -1.383465545,
				"z": -2.0743881907,
				"element": "O" 
			},
			{
				"x": 2.9293721477,
				"y": -1.285898132,
				"z": -1.1541718393,
				"element": "N" 
			},
			{
				"x": 3.9632444324,
				"y": -1.8646772264,
				"z": -0.9550587401,
				"element": "O" 
			},
			{
				"x": 2.618591467,
				"y": -0.3538257616,
				"z": -0.1160056629,
				"element": "O" 
			},
			{
				"x": 1.4218646557,
				"y": 0.4058470604,
				"z": -0.3502775711,
				"element": "C" 
			},
			{
				"x": 0.167950382,
				"y": -0.3917846275,
				"z": 0.0199279093,
				"element": "C" 
			},
			{
				"x": 0.2620557802,
				"y": -0.5767012658,
				"z": 1.4495220552,
				"element": "O" 
			},
			{
				"x": -0.407261423,
				"y": -1.7416309107,
				"z": 1.9491475047,
				"element": "N" 
			},
			{
				"x": -0.2517901954,
				"y": -1.8835575642,
				"z": 3.1305883031,
				"element": "O" 
			},
			{
				"x": -1.0329439544,
				"y": -2.4122320467,
				"z": 1.1517505345,
				"element": "O" 
			},
			{
				"x": -1.1635635179,
				"y": 0.299349661,
				"z": -0.327755251,
				"element": "C" 
			},
			{
				"x": -1.607486115,
				"y": 0.1762500304,
				"z": -1.7828992081,
				"element": "C" 
			},
			{
				"x": -0.5975105158,
				"y": 0.7870307509,
				"z": -2.6025774666,
				"element": "O" 
			},
			{
				"x": -0.8699600802,
				"y": 0.7015962387,
				"z": -4.0067240598,
				"element": "N" 
			},
			{
				"x": -0.0089690982,
				"y": 1.2148116531,
				"z": -4.6694303398,
				"element": "O" 
			},
			{
				"x": -1.8958508002,
				"y": 0.1451653289,
				"z": -4.33076376,
				"element": "O" 
			},
			{
				"x": -1.0205144275,
				"y": 1.6775450374,
				"z": 0.0701144468,
				"element": "O" 
			},
			{
				"x": -2.2289613448,
				"y": 2.3038631517,
				"z": 0.5396621744,
				"element": "N" 
			},
			{
				"x": -2.04249688,
				"y": 3.440043729,
				"z": 0.8765159583,
				"element": "O" 
			},
			{
				"x": -3.2415053137,
				"y": 1.6373552485,
				"z": 0.5322516788,
				"element": "O" 
			},
			{
				"x": 1.5357126825,
				"y": 1.268902869,
				"z": 0.3070864757,
				"element": "H" 
			},
			{
				"x": 1.3669577705,
				"y": 0.7334216612,
				"z": -1.3877973142,
				"element": "H" 
			},
			{
				"x": 0.1841792545,
				"y": -1.3657983205,
				"z": -0.4718555437,
				"element": "H" 
			},
			{
				"x": -1.949369711,
				"y": -0.1683217959,
				"z": 0.2695939791,
				"element": "H" 
			},
			{
				"x": -2.5657245609,
				"y": 0.6828337157,
				"z": -1.9216209743,
				"element": "H" 
			},
			{
				"x": -1.7287338648,
				"y": -0.8793229394,
				"z": -2.0449350982,
				"element": "H" 
			}
		],
		 "valence_orbital": [ 
			{
				"type": "occ",
				"energy": -0.3508,
				"method": "rhf"
			},
			{
				"type": "occ",
				"energy": -0.34571,
				"method": "rhf"
			},
			{
				"type": "occ",
				"energy": -0.34362,
				"method": "rhf"
			},
			{
				"type": "occ",
				"energy": -0.34026,
				"method": "rhf"
			},
			{
				"type": "occ",
				"energy": -0.33684,
				"method": "rhf"
			},
			{
				"type": "unocc",
				"energy": -0.0972,
				"method": "rhf"
			},
			{
				"type": "unocc",
				"energy": -0.09438,
				"method": "rhf"
			},
			{
				"type": "unocc",
				"energy": -0.08928,
				"method": "rhf"
			},
			{
				"type": "unocc",
				"energy": -0.08674,
				"method": "rhf"
			},
			{
				"type": "unocc",
				"energy": -0.00861,
				"method": "rhf"
			}
		],
		"cosmo_sigma_profile": { 
			"-0.025": 0.0,
			"-0.024": 0.0,
			"-0.023": 0.0,
			"-0.022": 0.0,
			"-0.021": 0.0,
			"-0.02": 0.0,
			"-0.019": 0.0,
			"-0.018": 0.0,
			"-0.017": 0.0,
			"-0.016": 0.0,
			"-0.015": 0.0,
			"-0.014": 0.0,
			"-0.013": 0.423118325143,
			"-0.012": 1.73487784131,
			"-0.011": 3.20803013997,
			"-0.01": 7.89970136733,
			"-0.009": 13.3387758805,
			"-0.008": 12.2141472292,
			"-0.007": 12.1983608371,
			"-0.006": 12.0545623623,
			"-0.005": 10.794313709,
			"-0.004": 11.053658304,
			"-0.003": 9.83291531662,
			"-0.002": 9.4358145085,
			"-0.001": 11.0571702232,
			"0.0": 14.6534032219,
			"0.001": 13.9800728581,
			"0.002": 14.6724777068,
			"0.003": 18.3387661337,
			"0.004": 26.5345036522,
			"0.005": 42.0156795185,
			"0.006": 31.9610353301,
			"0.007": 9.47527231306,
			"0.008": 0.055737088695,
			"0.009": 0.0,
			"0.01": 0.0,
			"0.011": 0.0,
			"0.012": 0.0,
			"0.013": 0.0,
			"0.014": 0.0,
			"0.015": 0.0,
			"0.016": 0.0,
			"0.017": 0.0,
			"0.018": 0.0,
			"0.019": 0.0,
			"0.02": 0.0,
			"0.021": 0.0,
			"0.022": 0.0,
			"0.023": 0.0,
			"0.024": 0.0,
			"0.025": 0.0
		}
	}
}
