{
	 "smiles": "OC(=O)C1=C2C(ON=C2C2=CC=CO2)=NC(=C1)C1=CC=CO1", 
	 "Tm": 543.15, 
	 "num_atms": 30, 
	 "gaussian": { 
		 "optdone": 1, 
		 "sigma_profile": "yes", 
		 "theory": "DFT", 
		 "functional": "B3LYP", 
		 "basiset": "6-31G**", 
		 "properties": { 
			 "R2extent": 7923.0711, 
			 "electric_dipole_moment_norm": 2.79213484631, 
			 "electric_quadrupole_moment_norm": 35.0831611614, 
			 "total_energy": -1061.95520032, 
			 "HOMO_LUMO_gap": 0.13728, 
			 "cosmo_polarized_energy": -16.2, 
			 "cosmo_cavitation_energy": 37.24, 
			 "cosmo_dispersion_energy": -26.65, 
			 "cosmo_repulsion_energy": 1.98, 
			 "cosmo_total_nonelectrostatic_energy": 12.57, 
			 "SMD_solvation_energy": 7.59 
		},
		"coords": [
			{
				"x": 1.8729365629,
				"y": 0.529054217,
				"z": -1.0479346066,
				"element": "O" 
			},
			{
				"x": 0.6961147993,
				"y": 1.1211396117,
				"z": -0.7592045404,
				"element": "C" 
			},
			{
				"x": 0.5314594468,
				"y": 2.3212976161,
				"z": -0.7682686549,
				"element": "O" 
			},
			{
				"x": -0.3894211505,
				"y": 0.119867001,
				"z": -0.5157677757,
				"element": "C" 
			},
			{
				"x": -0.2330148763,
				"y": -1.1149593868,
				"z": 0.1460156054,
				"element": "C" 
			},
			{
				"x": -1.3481864543,
				"y": -1.971642821,
				"z": 0.1299529429,
				"element": "C" 
			},
			{
				"x": -1.0437230486,
				"y": -3.1359060221,
				"z": 0.7478636539,
				"element": "O" 
			},
			{
				"x": 0.2653765474,
				"y": -3.0451906548,
				"z": 1.2391447606,
				"element": "N" 
			},
			{
				"x": 0.7468721922,
				"y": -1.8685115891,
				"z": 0.8882008491,
				"element": "C" 
			},
			{
				"x": 2.0893630589,
				"y": -1.5192630577,
				"z": 1.3237823855,
				"element": "C" 
			},
			{
				"x": 3.2097168914,
				"y": -2.2701758433,
				"z": 1.5502372695,
				"element": "C" 
			},
			{
				"x": 4.2025724001,
				"y": -1.3699606409,
				"z": 2.0470720201,
				"element": "C" 
			},
			{
				"x": 3.613021777,
				"y": -0.1417745065,
				"z": 2.092944325,
				"element": "C" 
			},
			{
				"x": 2.3248425188,
				"y": -0.2131191564,
				"z": 1.6590506069,
				"element": "O" 
			},
			{
				"x": -2.5420671195,
				"y": -1.7572424616,
				"z": -0.3878623649,
				"element": "N" 
			},
			{
				"x": -2.6931720103,
				"y": -0.5470826836,
				"z": -0.9577464001,
				"element": "C" 
			},
			{
				"x": -1.6455874188,
				"y": 0.4049873617,
				"z": -1.0368867121,
				"element": "C" 
			},
			{
				"x": -4.0034971694,
				"y": -0.2641315612,
				"z": -1.5147068851,
				"element": "C" 
			},
			{
				"x": -5.1609894936,
				"y": -0.9982008309,
				"z": -1.5725171881,
				"element": "C" 
			},
			{
				"x": -6.1213084826,
				"y": -0.1859497358,
				"z": -2.2441880961,
				"element": "C" 
			},
			{
				"x": -5.484748216,
				"y": 0.9829443873,
				"z": -2.5482553349,
				"element": "C" 
			},
			{
				"x": -4.1979003056,
				"y": 0.9542054153,
				"z": -2.1134846477,
				"element": "O" 
			},
			{
				"x": 2.5154738361,
				"y": 1.2453514334,
				"z": -1.1855904489,
				"element": "H" 
			},
			{
				"x": 3.3036867305,
				"y": -3.3316080832,
				"z": 1.3761534072,
				"element": "H" 
			},
			{
				"x": 5.2176204158,
				"y": -1.6071559544,
				"z": 2.3308485053,
				"element": "H" 
			},
			{
				"x": 3.9511628192,
				"y": 0.8360848358,
				"z": 2.3989510433,
				"element": "H" 
			},
			{
				"x": -1.8147719066,
				"y": 1.3525638617,
				"z": -1.532270346,
				"element": "H" 
			},
			{
				"x": -5.2888612173,
				"y": -1.9942370057,
				"z": -1.1768147732,
				"element": "H" 
			},
			{
				"x": -7.1475893709,
				"y": -0.4355401354,
				"z": -2.4711290513,
				"element": "H" 
			},
			{
				"x": -5.7922817563,
				"y": 1.8893563894,
				"z": -3.046389549,
				"element": "H" 
			}
		],
		 "valence_orbital": [ 
			{
				"type": "occ",
				"energy": -0.28726,
				"method": "rhf"
			},
			{
				"type": "occ",
				"energy": -0.28643,
				"method": "rhf"
			},
			{
				"type": "occ",
				"energy": -0.27728,
				"method": "rhf"
			},
			{
				"type": "occ",
				"energy": -0.23021,
				"method": "rhf"
			},
			{
				"type": "occ",
				"energy": -0.22391,
				"method": "rhf"
			},
			{
				"type": "unocc",
				"energy": -0.08663,
				"method": "rhf"
			},
			{
				"type": "unocc",
				"energy": -0.03861,
				"method": "rhf"
			},
			{
				"type": "unocc",
				"energy": -0.02845,
				"method": "rhf"
			},
			{
				"type": "unocc",
				"energy": 0.0194,
				"method": "rhf"
			},
			{
				"type": "unocc",
				"energy": 0.02481,
				"method": "rhf"
			}
		],
		"cosmo_sigma_profile": { 
			"-0.025": 0.0,
			"-0.024": 0.0,
			"-0.023": 0.0,
			"-0.022": 0.0,
			"-0.021": 0.0,
			"-0.02": 0.0,
			"-0.019": 0.488191795565,
			"-0.018": 0.99546071261,
			"-0.017": 0.805477548589,
			"-0.016": 1.00954680845,
			"-0.015": 0.480412149191,
			"-0.014": 0.290019086596,
			"-0.013": 0.786937104745,
			"-0.012": 0.886280098597,
			"-0.011": 0.851194900989,
			"-0.01": 2.52854168067,
			"-0.009": 3.92343090671,
			"-0.008": 8.11453128934,
			"-0.007": 10.0646655094,
			"-0.006": 10.7320534509,
			"-0.005": 13.6676257579,
			"-0.004": 15.3470151655,
			"-0.003": 20.3119668695,
			"-0.002": 23.9034976932,
			"-0.001": 24.3588681828,
			"0.0": 21.0840213831,
			"0.001": 23.6261906435,
			"0.002": 22.4743782588,
			"0.003": 23.1992501055,
			"0.004": 19.4474994027,
			"0.005": 10.7299701135,
			"0.006": 8.72154910382,
			"0.007": 9.68688094234,
			"0.008": 5.43600932406,
			"0.009": 4.35125686864,
			"0.01": 6.10747793892,
			"0.011": 5.99143868072,
			"0.012": 1.3503924015,
			"0.013": 0.473640713606,
			"0.014": 0.0,
			"0.015": 0.0,
			"0.016": 0.0,
			"0.017": 0.0,
			"0.018": 0.0,
			"0.019": 0.0,
			"0.02": 0.0,
			"0.021": 0.0,
			"0.022": 0.0,
			"0.023": 0.0,
			"0.024": 0.0,
			"0.025": 0.0
		}
	}
}
