{
	 "smiles": "OC1=CC=C(CC2=CC=C(OCC#C)C=C2)C=C1", 
	 "Tm": 333.15, 
	 "num_atms": 32, 
	 "gaussian": { 
		 "optdone": 1, 
		 "sigma_profile": "yes", 
		 "theory": "DFT", 
		 "functional": "B3LYP", 
		 "basiset": "6-31G**", 
		 "properties": { 
			 "R2extent": 7623.4527, 
			 "electric_dipole_moment_norm": 1.21817112919, 
			 "electric_quadrupole_moment_norm": 9.02634173849, 
			 "total_energy": -768.497391582, 
			 "HOMO_LUMO_gap": 0.20359, 
			 "cosmo_polarized_energy": -14.38, 
			 "cosmo_cavitation_energy": 37.74, 
			 "cosmo_dispersion_energy": -26.26, 
			 "cosmo_repulsion_energy": 2.03, 
			 "cosmo_total_nonelectrostatic_energy": 13.51, 
			 "SMD_solvation_energy": 8.07 
		},
		"coords": [
			{
				"x": 5.8609556498,
				"y": -1.4597817929,
				"z": 1.863598734,
				"element": "O" 
			},
			{
				"x": 4.8653152962,
				"y": -0.7309674988,
				"z": 1.2729956461,
				"element": "C" 
			},
			{
				"x": 4.1853341195,
				"y": -1.1660369786,
				"z": 0.1291817665,
				"element": "C" 
			},
			{
				"x": 3.1782392223,
				"y": -0.3782205384,
				"z": -0.4238716984,
				"element": "C" 
			},
			{
				"x": 2.8259389583,
				"y": 0.8554051401,
				"z": 0.1398318823,
				"element": "C" 
			},
			{
				"x": 1.7432546784,
				"y": 1.7201272759,
				"z": -0.4841790685,
				"element": "C" 
			},
			{
				"x": 0.3899487734,
				"y": 1.0432808864,
				"z": -0.6348781831,
				"element": "C" 
			},
			{
				"x": -0.2824746633,
				"y": 1.0331747735,
				"z": -1.8656846588,
				"element": "C" 
			},
			{
				"x": -1.5328325,
				"y": 0.4405313116,
				"z": -2.0062364831,
				"element": "C" 
			},
			{
				"x": -2.148553757,
				"y": -0.1646924385,
				"z": -0.9036611191,
				"element": "C" 
			},
			{
				"x": -3.3775387863,
				"y": -0.7208083618,
				"z": -1.1440708429,
				"element": "O" 
			},
			{
				"x": -4.0429509768,
				"y": -1.3471364941,
				"z": -0.050701811,
				"element": "C" 
			},
			{
				"x": -5.3262204856,
				"y": -1.8695680793,
				"z": -0.509637334,
				"element": "C" 
			},
			{
				"x": -6.3935712308,
				"y": -2.3145840315,
				"z": -0.8521590749,
				"element": "C" 
			},
			{
				"x": -1.4948317856,
				"y": -0.1691625432,
				"z": 0.3346366374,
				"element": "C" 
			},
			{
				"x": -0.2387584611,
				"y": 0.430337238,
				"z": 0.4533335486,
				"element": "C" 
			},
			{
				"x": 3.5175570398,
				"y": 1.2705867416,
				"z": 1.2849332304,
				"element": "C" 
			},
			{
				"x": 4.526796601,
				"y": 0.4943434892,
				"z": 1.8525904283,
				"element": "C" 
			},
			{
				"x": 5.9911068477,
				"y": -2.2764912624,
				"z": 1.3647200109,
				"element": "H" 
			},
			{
				"x": 4.4429531587,
				"y": -2.1205088102,
				"z": -0.3263445208,
				"element": "H" 
			},
			{
				"x": 2.6520302301,
				"y": -0.7329621605,
				"z": -1.3062519006,
				"element": "H" 
			},
			{
				"x": 2.0717908575,
				"y": 2.0626887751,
				"z": -1.4739371631,
				"element": "H" 
			},
			{
				"x": 1.6316599185,
				"y": 2.6287667808,
				"z": 0.1216775824,
				"element": "H" 
			},
			{
				"x": 0.180715409,
				"y": 1.5003975895,
				"z": -2.7315718141,
				"element": "H" 
			},
			{
				"x": -2.0508552233,
				"y": 0.4320909073,
				"z": -2.9596859924,
				"element": "H" 
			},
			{
				"x": -3.4288861156,
				"y": -2.1662755398,
				"z": 0.3530463355,
				"element": "H" 
			},
			{
				"x": -4.2033271465,
				"y": -0.6253053821,
				"z": 0.7643240325,
				"element": "H" 
			},
			{
				"x": -7.3346145946,
				"y": -2.7033844935,
				"z": -1.1662055764,
				"element": "H" 
			},
			{
				"x": -1.9426569008,
				"y": -0.6315651766,
				"z": 1.2065058847,
				"element": "H" 
			},
			{
				"x": 0.2628567785,
				"y": 0.4106138103,
				"z": 1.4172778316,
				"element": "H" 
			},
			{
				"x": 3.2650521205,
				"y": 2.2237502576,
				"z": 1.7435983162,
				"element": "H" 
			},
			{
				"x": 5.058266968,
				"y": 0.8210566051,
				"z": 2.7404253737,
				"element": "H" 
			}
		],
		 "valence_orbital": [ 
			{
				"type": "occ",
				"energy": -0.27266,
				"method": "rhf"
			},
			{
				"type": "occ",
				"energy": -0.25007,
				"method": "rhf"
			},
			{
				"type": "occ",
				"energy": -0.24852,
				"method": "rhf"
			},
			{
				"type": "occ",
				"energy": -0.22064,
				"method": "rhf"
			},
			{
				"type": "occ",
				"energy": -0.20844,
				"method": "rhf"
			},
			{
				"type": "unocc",
				"energy": -0.00485,
				"method": "rhf"
			},
			{
				"type": "unocc",
				"energy": 0.00024,
				"method": "rhf"
			},
			{
				"type": "unocc",
				"energy": 0.01002,
				"method": "rhf"
			},
			{
				"type": "unocc",
				"energy": 0.0198,
				"method": "rhf"
			},
			{
				"type": "unocc",
				"energy": 0.02687,
				"method": "rhf"
			}
		],
		"cosmo_sigma_profile": { 
			"-0.025": 0.0,
			"-0.024": 0.0,
			"-0.023": 0.0,
			"-0.022": 0.0,
			"-0.021": 0.0,
			"-0.02": 0.0,
			"-0.019": 0.0,
			"-0.018": 0.147596594334,
			"-0.017": 1.11494729617,
			"-0.016": 0.984745354356,
			"-0.015": 0.990516479839,
			"-0.014": 0.954143863372,
			"-0.013": 1.58529597165,
			"-0.012": 1.5495658194,
			"-0.011": 1.64090173067,
			"-0.01": 2.12906614798,
			"-0.009": 2.91187659666,
			"-0.008": 4.42889770726,
			"-0.007": 9.87083656736,
			"-0.006": 11.6805549756,
			"-0.005": 19.4073600055,
			"-0.004": 23.1480769141,
			"-0.003": 20.51098714,
			"-0.002": 19.1271697947,
			"-0.001": 17.8419035328,
			"0.0": 15.3579822785,
			"0.001": 16.7266134274,
			"0.002": 16.3792332683,
			"0.003": 18.9944880592,
			"0.004": 24.6654311216,
			"0.005": 26.7611372472,
			"0.006": 24.6003303174,
			"0.007": 5.54700184146,
			"0.008": 4.12878072721,
			"0.009": 2.43686539138,
			"0.01": 2.96004062603,
			"0.011": 2.23160492842,
			"0.012": 1.12272825112,
			"0.013": 0.0,
			"0.014": 0.0,
			"0.015": 0.0,
			"0.016": 0.0,
			"0.017": 0.0,
			"0.018": 0.0,
			"0.019": 0.0,
			"0.02": 0.0,
			"0.021": 0.0,
			"0.022": 0.0,
			"0.023": 0.0,
			"0.024": 0.0,
			"0.025": 0.0
		}
	}
}
