{
	 "smiles": "CC(CN1CCC(C)CC1)C(=O)NN", 
	 "Tm": 387.15, 
	 "num_atms": 35, 
	 "gaussian": { 
		 "optdone": 1, 
		 "sigma_profile": "yes", 
		 "theory": "DFT", 
		 "functional": "B3LYP", 
		 "basiset": "6-31G**", 
		 "properties": { 
			 "R2extent": 4411.243, 
			 "electric_dipole_moment_norm": 4.0557715838, 
			 "electric_quadrupole_moment_norm": 12.2539052746, 
			 "total_energy": -633.18806434, 
			 "HOMO_LUMO_gap": 0.25338, 
			 "cosmo_polarized_energy": -11.15, 
			 "cosmo_cavitation_energy": 34.5, 
			 "cosmo_dispersion_energy": -24.08, 
			 "cosmo_repulsion_energy": 1.91, 
			 "cosmo_total_nonelectrostatic_energy": 12.33, 
			 "SMD_solvation_energy": 6.11 
		},
		"coords": [
			{
				"x": -1.6082352586,
				"y": 2.6458803905,
				"z": 1.4421753508,
				"element": "C" 
			},
			{
				"x": -1.5158541487,
				"y": 1.4160656804,
				"z": 0.5334204277,
				"element": "C" 
			},
			{
				"x": -1.1120516824,
				"y": 0.1632333054,
				"z": 1.3490991086,
				"element": "C" 
			},
			{
				"x": -0.7394749917,
				"y": -1.0022397266,
				"z": 0.536342441,
				"element": "N" 
			},
			{
				"x": 0.615684248,
				"y": -0.9059013012,
				"z": -0.0623798659,
				"element": "C" 
			},
			{
				"x": 1.6646563767,
				"y": -1.7340801968,
				"z": 0.6906726439,
				"element": "C" 
			},
			{
				"x": 1.3099877796,
				"y": -3.2453651686,
				"z": 0.667859262,
				"element": "C" 
			},
			{
				"x": 2.0174753118,
				"y": -3.9926389374,
				"z": -0.4691997648,
				"element": "C" 
			},
			{
				"x": -0.227042226,
				"y": -3.4190291878,
				"z": 0.580923792,
				"element": "C" 
			},
			{
				"x": -0.9573334425,
				"y": -2.2665229199,
				"z": 1.2683467445,
				"element": "C" 
			},
			{
				"x": -2.8389979742,
				"y": 1.2161864169,
				"z": -0.229441183,
				"element": "C" 
			},
			{
				"x": -3.7834837714,
				"y": 1.9989747084,
				"z": -0.1495636542,
				"element": "O" 
			},
			{
				"x": -2.8780493653,
				"y": 0.1021677535,
				"z": -1.0179130693,
				"element": "N" 
			},
			{
				"x": -4.0937000378,
				"y": -0.2957599815,
				"z": -1.6265685644,
				"element": "N" 
			},
			{
				"x": -0.636585252,
				"y": 2.8609626669,
				"z": 1.8986657962,
				"element": "H" 
			},
			{
				"x": -1.9353479663,
				"y": 3.5195334062,
				"z": 0.8761265885,
				"element": "H" 
			},
			{
				"x": -2.3389397617,
				"y": 2.4887887367,
				"z": 2.2416826871,
				"element": "H" 
			},
			{
				"x": -0.7388680199,
				"y": 1.5968299778,
				"z": -0.2223450003,
				"element": "H" 
			},
			{
				"x": -1.9636283546,
				"y": -0.1268970327,
				"z": 1.9760371984,
				"element": "H" 
			},
			{
				"x": -0.2999535512,
				"y": 0.4437670901,
				"z": 2.0438068233,
				"element": "H" 
			},
			{
				"x": 0.5706865214,
				"y": -1.2366300822,
				"z": -1.1085117957,
				"element": "H" 
			},
			{
				"x": 0.9118594295,
				"y": 0.1469833965,
				"z": -0.0887401992,
				"element": "H" 
			},
			{
				"x": 1.7230586535,
				"y": -1.3753774212,
				"z": 1.7255571107,
				"element": "H" 
			},
			{
				"x": 2.6545612006,
				"y": -1.5645520228,
				"z": 0.2506858873,
				"element": "H" 
			},
			{
				"x": 1.6451442021,
				"y": -3.6816933732,
				"z": 1.6181360069,
				"element": "H" 
			},
			{
				"x": 3.1062116276,
				"y": -3.953074366,
				"z": -0.3554942437,
				"element": "H" 
			},
			{
				"x": 1.7670393085,
				"y": -3.5562359126,
				"z": -1.4438994032,
				"element": "H" 
			},
			{
				"x": 1.7210379305,
				"y": -5.0471756991,
				"z": -0.4960861086,
				"element": "H" 
			},
			{
				"x": -0.5295123773,
				"y": -4.3714805437,
				"z": 1.0291297824,
				"element": "H" 
			},
			{
				"x": -0.5433347249,
				"y": -3.455691879,
				"z": -0.4699478418,
				"element": "H" 
			},
			{
				"x": -2.0366873629,
				"y": -2.4550966551,
				"z": 1.3098591154,
				"element": "H" 
			},
			{
				"x": -0.6080417877,
				"y": -2.1931547824,
				"z": 2.3150501276,
				"element": "H" 
			},
			{
				"x": -2.2092222683,
				"y": -0.6392633026,
				"z": -0.8006697057,
				"element": "H" 
			},
			{
				"x": -4.8384333498,
				"y": 0.1175260394,
				"z": -1.0617354512,
				"element": "H" 
			},
			{
				"x": -4.1529249149,
				"y": 0.1872609238,
				"z": -2.523481043,
				"element": "H" 
			}
		],
		 "valence_orbital": [ 
			{
				"type": "occ",
				"energy": -0.31162,
				"method": "rhf"
			},
			{
				"type": "occ",
				"energy": -0.27599,
				"method": "rhf"
			},
			{
				"type": "occ",
				"energy": -0.23862,
				"method": "rhf"
			},
			{
				"type": "occ",
				"energy": -0.23347,
				"method": "rhf"
			},
			{
				"type": "occ",
				"energy": -0.21842,
				"method": "rhf"
			},
			{
				"type": "unocc",
				"energy": 0.03496,
				"method": "rhf"
			},
			{
				"type": "unocc",
				"energy": 0.06675,
				"method": "rhf"
			},
			{
				"type": "unocc",
				"energy": 0.09162,
				"method": "rhf"
			},
			{
				"type": "unocc",
				"energy": 0.09901,
				"method": "rhf"
			},
			{
				"type": "unocc",
				"energy": 0.10674,
				"method": "rhf"
			}
		],
		"cosmo_sigma_profile": { 
			"-0.025": 0.0,
			"-0.024": 0.0,
			"-0.023": 0.0,
			"-0.022": 0.0,
			"-0.021": 0.0,
			"-0.02": 0.0,
			"-0.019": 0.0,
			"-0.018": 0.0,
			"-0.017": 0.0,
			"-0.016": 0.0,
			"-0.015": 0.0,
			"-0.014": 0.0,
			"-0.013": 0.0,
			"-0.012": 0.021916665429,
			"-0.011": 0.990001686661,
			"-0.01": 1.42634250729,
			"-0.009": 2.65639423674,
			"-0.008": 1.76461307988,
			"-0.007": 1.68332655231,
			"-0.006": 2.00499372157,
			"-0.005": 5.00849934124,
			"-0.004": 10.1521162245,
			"-0.003": 30.5437356754,
			"-0.002": 50.5526099243,
			"-0.001": 50.1646155841,
			"0.0": 35.6413766704,
			"0.001": 24.9014722049,
			"0.002": 9.69797527968,
			"0.003": 3.83111515929,
			"0.004": 3.18600718518,
			"0.005": 3.24817829028,
			"0.006": 2.95657439269,
			"0.007": 2.41436046675,
			"0.008": 2.06287831173,
			"0.009": 1.29013399238,
			"0.01": 2.07347848186,
			"0.011": 2.80353187316,
			"0.012": 1.98278580591,
			"0.013": 3.32390428889,
			"0.014": 5.48473662125,
			"0.015": 1.6371193953,
			"0.016": 0.950565099212,
			"0.017": 0.55565147612,
			"0.018": 0.196595069559,
			"0.019": 0.0,
			"0.02": 0.0,
			"0.021": 0.0,
			"0.022": 0.0,
			"0.023": 0.0,
			"0.024": 0.0,
			"0.025": 0.0
		}
	}
}
