{
	 "smiles": "CCOC(=O)C1=CSC(CC#N)=N1", 
	 "Tm": 351.15, 
	 "num_atms": 21, 
	 "gaussian": { 
		 "optdone": 1, 
		 "sigma_profile": "yes", 
		 "theory": "DFT", 
		 "functional": "B3LYP", 
		 "basiset": "6-31G**", 
		 "properties": { 
			 "R2extent": 3998.525, 
			 "electric_dipole_moment_norm": 2.88670021305, 
			 "electric_quadrupole_moment_norm": 20.4650051898, 
			 "total_energy": -967.792598955, 
			 "HOMO_LUMO_gap": 0.20744, 
			 "cosmo_polarized_energy": -14.76, 
			 "cosmo_cavitation_energy": 29.0, 
			 "cosmo_dispersion_energy": -20.9, 
			 "cosmo_repulsion_energy": 1.65, 
			 "cosmo_total_nonelectrostatic_energy": 9.75, 
			 "SMD_solvation_energy": 6.07 
		},
		"coords": [
			{
				"x": -1.565240268,
				"y": -3.8443387511,
				"z": 0.8640223395,
				"element": "C" 
			},
			{
				"x": -0.6513419738,
				"y": -2.8544509986,
				"z": 1.5702876462,
				"element": "C" 
			},
			{
				"x": -0.2728823818,
				"y": -1.7678367097,
				"z": 0.6891355222,
				"element": "O" 
			},
			{
				"x": -1.1293024158,
				"y": -0.7363074522,
				"z": 0.6161557289,
				"element": "C" 
			},
			{
				"x": -2.1746252525,
				"y": -0.6517677732,
				"z": 1.2336142793,
				"element": "O" 
			},
			{
				"x": -0.6583035992,
				"y": 0.3248354924,
				"z": -0.31392881,
				"element": "C" 
			},
			{
				"x": -1.3904434053,
				"y": 1.4637768612,
				"z": -0.5304446541,
				"element": "C" 
			},
			{
				"x": -0.5866166109,
				"y": 2.482132089,
				"z": -1.6617821072,
				"element": "S" 
			},
			{
				"x": 0.7022361946,
				"y": 1.2819483193,
				"z": -1.7608798055,
				"element": "C" 
			},
			{
				"x": 1.9502427218,
				"y": 1.4790362622,
				"z": -2.5911209548,
				"element": "C" 
			},
			{
				"x": 1.7294642464,
				"y": 2.2023892981,
				"z": -3.8461528448,
				"element": "C" 
			},
			{
				"x": 1.5574351523,
				"y": 2.7869576646,
				"z": -4.8333310739,
				"element": "N" 
			},
			{
				"x": 0.5234410304,
				"y": 0.2341632764,
				"z": -1.0180016075,
				"element": "N" 
			},
			{
				"x": -1.0973002766,
				"y": -4.2228595688,
				"z": -0.0493073598,
				"element": "H" 
			},
			{
				"x": -1.770200846,
				"y": -4.6940295124,
				"z": 1.5237334389,
				"element": "H" 
			},
			{
				"x": -2.5169990447,
				"y": -3.3732480348,
				"z": 0.6068282954,
				"element": "H" 
			},
			{
				"x": 0.2990071116,
				"y": -3.3142848004,
				"z": 1.8504457577,
				"element": "H" 
			},
			{
				"x": -1.1313655615,
				"y": -2.4371243319,
				"z": 2.4585858181,
				"element": "H" 
			},
			{
				"x": -2.3434362286,
				"y": 1.7185879261,
				"z": -0.0904747118,
				"element": "H" 
			},
			{
				"x": 2.3629825384,
				"y": 0.4878813576,
				"z": -2.8041956072,
				"element": "H" 
			},
			{
				"x": 2.7064488691,
				"y": 2.0224393861,
				"z": -2.0089892894,
				"element": "H" 
			}
		],
		 "valence_orbital": [ 
			{
				"type": "occ",
				"energy": -0.30938,
				"method": "rhf"
			},
			{
				"type": "occ",
				"energy": -0.30268,
				"method": "rhf"
			},
			{
				"type": "occ",
				"energy": -0.29976,
				"method": "rhf"
			},
			{
				"type": "occ",
				"energy": -0.28115,
				"method": "rhf"
			},
			{
				"type": "occ",
				"energy": -0.26683,
				"method": "rhf"
			},
			{
				"type": "unocc",
				"energy": -0.05939,
				"method": "rhf"
			},
			{
				"type": "unocc",
				"energy": -0.02507,
				"method": "rhf"
			},
			{
				"type": "unocc",
				"energy": -0.00917,
				"method": "rhf"
			},
			{
				"type": "unocc",
				"energy": 0.02551,
				"method": "rhf"
			},
			{
				"type": "unocc",
				"energy": 0.02798,
				"method": "rhf"
			}
		],
		"cosmo_sigma_profile": { 
			"-0.025": 0.0,
			"-0.024": 0.0,
			"-0.023": 0.0,
			"-0.022": 0.0,
			"-0.021": 0.0,
			"-0.02": 0.0,
			"-0.019": 0.0,
			"-0.018": 0.0,
			"-0.017": 0.0,
			"-0.016": 0.0,
			"-0.015": 0.0,
			"-0.014": 0.0,
			"-0.013": 0.0,
			"-0.012": 0.0,
			"-0.011": 1.90736948937,
			"-0.01": 7.64975569856,
			"-0.009": 6.10812631633,
			"-0.008": 6.10811557373,
			"-0.007": 6.4235822003,
			"-0.006": 6.45428498099,
			"-0.005": 10.1915047421,
			"-0.004": 17.7740501948,
			"-0.003": 17.7706384197,
			"-0.002": 21.7710487295,
			"-0.001": 23.6993532268,
			"0.0": 24.3608962487,
			"0.001": 14.2768575664,
			"0.002": 7.66149212542,
			"0.003": 5.71642713391,
			"0.004": 5.9309105935,
			"0.005": 5.43764361693,
			"0.006": 5.40560706283,
			"0.007": 5.09477417528,
			"0.008": 7.1138322241,
			"0.009": 5.33157851232,
			"0.01": 6.17319228439,
			"0.011": 6.55393813631,
			"0.012": 6.54915847745,
			"0.013": 1.78058405935,
			"0.014": 1.08541310232,
			"0.015": 0.349340332609,
			"0.016": 0.0,
			"0.017": 0.0,
			"0.018": 0.0,
			"0.019": 0.0,
			"0.02": 0.0,
			"0.021": 0.0,
			"0.022": 0.0,
			"0.023": 0.0,
			"0.024": 0.0,
			"0.025": 0.0
		}
	}
}
