{
	 "smiles": "COC1=C(C=CC=C1)C1=CC=C(C=C1)C(C)=O", 
	 "Tm": 381.15, 
	 "num_atms": 31, 
	 "gaussian": { 
		 "optdone": 1, 
		 "sigma_profile": "yes", 
		 "theory": "DFT", 
		 "functional": "B3LYP", 
		 "basiset": "6-31G**", 
		 "properties": { 
			 "R2extent": 5205.8234, 
			 "electric_dipole_moment_norm": 2.94076180776, 
			 "electric_quadrupole_moment_norm": 15.6182132214, 
			 "total_energy": -730.476613392, 
			 "HOMO_LUMO_gap": 0.17058, 
			 "cosmo_polarized_energy": -10.4, 
			 "cosmo_cavitation_energy": 34.78, 
			 "cosmo_dispersion_energy": -24.51, 
			 "cosmo_repulsion_energy": 1.9, 
			 "cosmo_total_nonelectrostatic_energy": 12.16, 
			 "SMD_solvation_energy": 7.15 
		},
		"coords": [
			{
				"x": 1.5277793484,
				"y": 2.8803183364,
				"z": 0.8017296529,
				"element": "C" 
			},
			{
				"x": 1.5607825663,
				"y": 2.3657450229,
				"z": -0.5306105056,
				"element": "O" 
			},
			{
				"x": 2.1025320927,
				"y": 1.0997079191,
				"z": -0.6429961804,
				"element": "C" 
			},
			{
				"x": 1.3127090307,
				"y": -0.0524722814,
				"z": -0.4395089704,
				"element": "C" 
			},
			{
				"x": 1.937750981,
				"y": -1.3024167791,
				"z": -0.5969567506,
				"element": "C" 
			},
			{
				"x": 3.2830823599,
				"y": -1.4119814836,
				"z": -0.9427820713,
				"element": "C" 
			},
			{
				"x": 4.0441323947,
				"y": -0.2595761822,
				"z": -1.1434502129,
				"element": "C" 
			},
			{
				"x": 3.4509829323,
				"y": 0.9925160619,
				"z": -0.9884642048,
				"element": "C" 
			},
			{
				"x": -0.1285561853,
				"y": 0.0130417612,
				"z": -0.0815350576,
				"element": "C" 
			},
			{
				"x": -0.6574229489,
				"y": -0.8661202007,
				"z": 0.8834690128,
				"element": "C" 
			},
			{
				"x": -2.0087013676,
				"y": -0.8502155406,
				"z": 1.2033899395,
				"element": "C" 
			},
			{
				"x": -2.8835097731,
				"y": 0.0457111205,
				"z": 0.5699930556,
				"element": "C" 
			},
			{
				"x": -2.3620556301,
				"y": 0.9260284346,
				"z": -0.3903816168,
				"element": "C" 
			},
			{
				"x": -1.0073215097,
				"y": 0.9129971052,
				"z": -0.7106321898,
				"element": "C" 
			},
			{
				"x": -4.3306167176,
				"y": 0.0184953804,
				"z": 0.9548210928,
				"element": "C" 
			},
			{
				"x": -5.2897386131,
				"y": 0.9802226658,
				"z": 0.2722393503,
				"element": "C" 
			},
			{
				"x": -4.7360669217,
				"y": -0.763386646,
				"z": 1.8028016039,
				"element": "O" 
			},
			{
				"x": 1.0969465308,
				"y": 3.881598502,
				"z": 0.7379349727,
				"element": "H" 
			},
			{
				"x": 0.9049894991,
				"y": 2.2593476185,
				"z": 1.4568936989,
				"element": "H" 
			},
			{
				"x": 2.5390329036,
				"y": 2.945746672,
				"z": 1.2236965809,
				"element": "H" 
			},
			{
				"x": 1.3417579448,
				"y": -2.2014912922,
				"z": -0.4712953656,
				"element": "H" 
			},
			{
				"x": 3.7301771513,
				"y": -2.3935527279,
				"z": -1.0678732245,
				"element": "H" 
			},
			{
				"x": 5.0914883891,
				"y": -0.3330144563,
				"z": -1.4212228951,
				"element": "H" 
			},
			{
				"x": 4.01568791,
				"y": 1.9073440607,
				"z": -1.1391900388,
				"element": "H" 
			},
			{
				"x": 0.0077642565,
				"y": -1.5540171825,
				"z": 1.397091854,
				"element": "H" 
			},
			{
				"x": -2.4166996311,
				"y": -1.522302118,
				"z": 1.9510221161,
				"element": "H" 
			},
			{
				"x": -3.0138771934,
				"y": 1.6275519433,
				"z": -0.9014746862,
				"element": "H" 
			},
			{
				"x": -0.621056587,
				"y": 1.6009320629,
				"z": -1.4530288293,
				"element": "H" 
			},
			{
				"x": -4.9932734637,
				"y": 2.0207598876,
				"z": 0.4448348403,
				"element": "H" 
			},
			{
				"x": -5.3019599487,
				"y": 0.8206536544,
				"z": -0.8116385503,
				"element": "H" 
			},
			{
				"x": -6.2904398,
				"y": 0.8177286811,
				"z": 0.6734235793,
				"element": "H" 
			}
		],
		 "valence_orbital": [ 
			{
				"type": "occ",
				"energy": -0.27237,
				"method": "rhf"
			},
			{
				"type": "occ",
				"energy": -0.25744,
				"method": "rhf"
			},
			{
				"type": "occ",
				"energy": -0.24922,
				"method": "rhf"
			},
			{
				"type": "occ",
				"energy": -0.24472,
				"method": "rhf"
			},
			{
				"type": "occ",
				"energy": -0.22999,
				"method": "rhf"
			},
			{
				"type": "unocc",
				"energy": -0.05941,
				"method": "rhf"
			},
			{
				"type": "unocc",
				"energy": -0.00747,
				"method": "rhf"
			},
			{
				"type": "unocc",
				"energy": -0.00715,
				"method": "rhf"
			},
			{
				"type": "unocc",
				"energy": -0.00359,
				"method": "rhf"
			},
			{
				"type": "unocc",
				"energy": 0.04938,
				"method": "rhf"
			}
		],
		"cosmo_sigma_profile": { 
			"-0.025": 0.0,
			"-0.024": 0.0,
			"-0.023": 0.0,
			"-0.022": 0.0,
			"-0.021": 0.0,
			"-0.02": 0.0,
			"-0.019": 0.0,
			"-0.018": 0.0,
			"-0.017": 0.0,
			"-0.016": 0.0,
			"-0.015": 0.0,
			"-0.014": 0.0,
			"-0.013": 0.0,
			"-0.012": 0.0,
			"-0.011": 0.0,
			"-0.01": 0.0,
			"-0.009": 0.0,
			"-0.008": 0.0,
			"-0.007": 0.914396227756,
			"-0.006": 16.0248626186,
			"-0.005": 25.2566294146,
			"-0.004": 27.5403387297,
			"-0.003": 27.8266431801,
			"-0.002": 25.016683309,
			"-0.001": 21.9837412437,
			"0.0": 18.5120840041,
			"0.001": 16.9256066971,
			"0.002": 18.9605354614,
			"0.003": 22.6211400704,
			"0.004": 20.2265521484,
			"0.005": 10.7815343843,
			"0.006": 3.54839843829,
			"0.007": 3.14358159033,
			"0.008": 2.40392170612,
			"0.009": 2.52889257645,
			"0.01": 2.45020038248,
			"0.011": 3.84918321936,
			"0.012": 4.64419711491,
			"0.013": 1.97913613431,
			"0.014": 0.197026171443,
			"0.015": 0.0,
			"0.016": 0.0,
			"0.017": 0.0,
			"0.018": 0.0,
			"0.019": 0.0,
			"0.02": 0.0,
			"0.021": 0.0,
			"0.022": 0.0,
			"0.023": 0.0,
			"0.024": 0.0,
			"0.025": 0.0
		}
	}
}
