{
	 "smiles": "OC(=O)C1=C(OC2=CC=CC=C2)C=CC(=C1)[N+]([O-])=O", 
	 "Tm": 441.15, 
	 "num_atms": 28, 
	 "gaussian": { 
		 "optdone": 1, 
		 "sigma_profile": "yes", 
		 "theory": "DFT", 
		 "functional": "B3LYP", 
		 "basiset": "6-31G**", 
		 "properties": { 
			 "R2extent": 6426.5947, 
			 "electric_dipole_moment_norm": 9.38548952852, 
			 "electric_quadrupole_moment_norm": 18.9738551499, 
			 "total_energy": -931.580145411, 
			 "HOMO_LUMO_gap": 0.1805, 
			 "cosmo_polarized_energy": -18.07, 
			 "cosmo_cavitation_energy": 34.33, 
			 "cosmo_dispersion_energy": -24.44, 
			 "cosmo_repulsion_energy": 1.87, 
			 "cosmo_total_nonelectrostatic_energy": 11.77, 
			 "SMD_solvation_energy": 9.49 
		},
		"coords": [
			{
				"x": 2.3502319482,
				"y": -0.848242214,
				"z": 2.7571302909,
				"element": "O" 
			},
			{
				"x": 2.5610524752,
				"y": 0.4006009459,
				"z": 2.3071089326,
				"element": "C" 
			},
			{
				"x": 3.5536184958,
				"y": 1.0149194111,
				"z": 2.6259421616,
				"element": "O" 
			},
			{
				"x": 1.5225188466,
				"y": 1.0148349925,
				"z": 1.3916399331,
				"element": "C" 
			},
			{
				"x": 0.328847632,
				"y": 0.4000650981,
				"z": 0.9510640462,
				"element": "C" 
			},
			{
				"x": 0.084153291,
				"y": -0.8795975977,
				"z": 1.3942021449,
				"element": "O" 
			},
			{
				"x": -1.0790531059,
				"y": -1.5673288215,
				"z": 1.0164235641,
				"element": "C" 
			},
			{
				"x": -2.2108130699,
				"y": -1.4715830065,
				"z": 1.821956297,
				"element": "C" 
			},
			{
				"x": -3.3407718618,
				"y": -2.2175879054,
				"z": 1.481461174,
				"element": "C" 
			},
			{
				"x": -3.3264644134,
				"y": -3.0425213629,
				"z": 0.3543473894,
				"element": "C" 
			},
			{
				"x": -2.1788322585,
				"y": -3.1266341996,
				"z": -0.4373788128,
				"element": "C" 
			},
			{
				"x": -1.0415533261,
				"y": -2.3862010846,
				"z": -0.1090894116,
				"element": "C" 
			},
			{
				"x": -0.5599165485,
				"y": 1.0694282294,
				"z": 0.1005960338,
				"element": "C" 
			},
			{
				"x": -0.2725026225,
				"y": 2.3601102954,
				"z": -0.3223103229,
				"element": "C" 
			},
			{
				"x": 0.9045649181,
				"y": 2.9683815651,
				"z": 0.1116164758,
				"element": "C" 
			},
			{
				"x": 1.7928581998,
				"y": 2.3140251023,
				"z": 0.9543085458,
				"element": "C" 
			},
			{
				"x": 1.2081148684,
				"y": 4.3340711469,
				"z": -0.3358999499,
				"element": "N" 
			},
			{
				"x": 2.2523451181,
				"y": 4.8464527106,
				"z": 0.0608404921,
				"element": "O" 
			},
			{
				"x": 0.3937347701,
				"y": 4.879110743,
				"z": -1.0822289431,
				"element": "O" 
			},
			{
				"x": 1.5105204151,
				"y": -1.1964200251,
				"z": 2.4078653946,
				"element": "H" 
			},
			{
				"x": -2.1965972851,
				"y": -0.8312094004,
				"z": 2.6977487067,
				"element": "H" 
			},
			{
				"x": -4.2297847998,
				"y": -2.1555235817,
				"z": 2.1013636466,
				"element": "H" 
			},
			{
				"x": -4.2069955038,
				"y": -3.622278791,
				"z": 0.0958242882,
				"element": "H" 
			},
			{
				"x": -2.1638586073,
				"y": -3.7717017548,
				"z": -1.3103829042,
				"element": "H" 
			},
			{
				"x": -0.1363663818,
				"y": -2.4426837619,
				"z": -0.7046778148,
				"element": "H" 
			},
			{
				"x": -1.4684675578,
				"y": 0.5784659689,
				"z": -0.2247581564,
				"element": "H" 
			},
			{
				"x": -0.9421074454,
				"y": 2.9004685928,
				"z": -0.9797033986,
				"element": "H" 
			},
			{
				"x": 2.704523809,
				"y": 2.7951787052,
				"z": 1.2855901968,
				"element": "H" 
			}
		],
		 "valence_orbital": [ 
			{
				"type": "occ",
				"energy": -0.29183,
				"method": "rhf"
			},
			{
				"type": "occ",
				"energy": -0.287,
				"method": "rhf"
			},
			{
				"type": "occ",
				"energy": -0.28128,
				"method": "rhf"
			},
			{
				"type": "occ",
				"energy": -0.27845,
				"method": "rhf"
			},
			{
				"type": "occ",
				"energy": -0.27293,
				"method": "rhf"
			},
			{
				"type": "unocc",
				"energy": -0.09243,
				"method": "rhf"
			},
			{
				"type": "unocc",
				"energy": -0.06577,
				"method": "rhf"
			},
			{
				"type": "unocc",
				"energy": -0.03746,
				"method": "rhf"
			},
			{
				"type": "unocc",
				"energy": -0.03667,
				"method": "rhf"
			},
			{
				"type": "unocc",
				"energy": -0.01157,
				"method": "rhf"
			}
		],
		"cosmo_sigma_profile": { 
			"-0.025": 0.0,
			"-0.024": 0.0,
			"-0.023": 0.0,
			"-0.022": 0.0,
			"-0.021": 0.0,
			"-0.02": 0.0,
			"-0.019": 0.0,
			"-0.018": 0.0,
			"-0.017": 0.0,
			"-0.016": 0.0,
			"-0.015": 0.0,
			"-0.014": 0.0,
			"-0.013": 0.0,
			"-0.012": 0.0534880094953,
			"-0.011": 0.381448439458,
			"-0.01": 0.863561541868,
			"-0.009": 1.82067652402,
			"-0.008": 5.67809552395,
			"-0.007": 11.9434890155,
			"-0.006": 19.0503833008,
			"-0.005": 20.0242627667,
			"-0.004": 21.9387441628,
			"-0.003": 20.9279034681,
			"-0.002": 25.5766266819,
			"-0.001": 25.8744908309,
			"0.0": 16.2594814562,
			"0.001": 12.3865406647,
			"0.002": 11.612404775,
			"0.003": 13.6806120226,
			"0.004": 12.3365461111,
			"0.005": 5.83079867954,
			"0.006": 5.41143598467,
			"0.007": 10.5803183796,
			"0.008": 9.36707747312,
			"0.009": 8.21067491417,
			"0.01": 6.58570125078,
			"0.011": 5.95948665269,
			"0.012": 3.37404119339,
			"0.013": 1.33143450633,
			"0.014": 0.0125780966245,
			"0.015": 0.0,
			"0.016": 0.0,
			"0.017": 0.0,
			"0.018": 0.0,
			"0.019": 0.0,
			"0.02": 0.0,
			"0.021": 0.0,
			"0.022": 0.0,
			"0.023": 0.0,
			"0.024": 0.0,
			"0.025": 0.0
		}
	}
}
