{
	 "smiles": "CC1CC=C(C)C(C=CC(C)=O)C1(C)C", 
	 "Tm": 298.15, 
	 "num_atms": 37, 
	 "gaussian": { 
		 "optdone": 1, 
		 "sigma_profile": "yes", 
		 "theory": "DFT", 
		 "functional": "B3LYP", 
		 "basiset": "6-31G**", 
		 "properties": { 
			 "R2extent": 3776.3695, 
			 "electric_dipole_moment_norm": 2.30626224441, 
			 "electric_quadrupole_moment_norm": 11.1279565811, 
			 "total_energy": -621.961255195, 
			 "HOMO_LUMO_gap": 0.17555, 
			 "cosmo_polarized_energy": -7.02, 
			 "cosmo_cavitation_energy": 35.95, 
			 "cosmo_dispersion_energy": -24.42, 
			 "cosmo_repulsion_energy": 1.91, 
			 "cosmo_total_nonelectrostatic_energy": 13.43, 
			 "SMD_solvation_energy": 6.79 
		},
		"coords": [
			{
				"x": -1.6303831497,
				"y": 0.8729657952,
				"z": 2.9206633349,
				"element": "C" 
			},
			{
				"x": -0.7741607643,
				"y": 0.1012831427,
				"z": 1.9045966213,
				"element": "C" 
			},
			{
				"x": -1.2697517041,
				"y": -1.3519530212,
				"z": 1.7860206345,
				"element": "C" 
			},
			{
				"x": -0.6590658997,
				"y": -2.1132523655,
				"z": 0.642904934,
				"element": "C" 
			},
			{
				"x": 0.0578525661,
				"y": -1.5616020692,
				"z": -0.3454729747,
				"element": "C" 
			},
			{
				"x": 0.6216243231,
				"y": -2.3758819694,
				"z": -1.4820657693,
				"element": "C" 
			},
			{
				"x": 0.3490098262,
				"y": -0.0594072187,
				"z": -0.3769788761,
				"element": "C" 
			},
			{
				"x": 1.792797704,
				"y": 0.131157564,
				"z": 0.0255076823,
				"element": "C" 
			},
			{
				"x": 2.848302025,
				"y": 0.4529937463,
				"z": -0.7481590815,
				"element": "C" 
			},
			{
				"x": 2.8382331278,
				"y": 0.7541518595,
				"z": -2.2041699207,
				"element": "C" 
			},
			{
				"x": 4.1718090936,
				"y": 1.2023876944,
				"z": -2.7834827404,
				"element": "C" 
			},
			{
				"x": 1.8479184251,
				"y": 0.6604909355,
				"z": -2.9197323544,
				"element": "O" 
			},
			{
				"x": -0.6516178018,
				"y": 0.7721741408,
				"z": 0.5020042941,
				"element": "C" 
			},
			{
				"x": -2.0074001084,
				"y": 0.8069352215,
				"z": -0.2362549156,
				"element": "C" 
			},
			{
				"x": -0.1360760185,
				"y": 2.2202389092,
				"z": 0.6247323876,
				"element": "C" 
			},
			{
				"x": -2.6650788073,
				"y": 0.9865154942,
				"z": 2.5798327864,
				"element": "H" 
			},
			{
				"x": -1.2318027487,
				"y": 1.8705130629,
				"z": 3.1250983878,
				"element": "H" 
			},
			{
				"x": -1.6610891238,
				"y": 0.3318538574,
				"z": 3.8730821453,
				"element": "H" 
			},
			{
				"x": 0.2431065166,
				"y": 0.0611196714,
				"z": 2.3202726189,
				"element": "H" 
			},
			{
				"x": -2.3664663813,
				"y": -1.3625634709,
				"z": 1.6788427864,
				"element": "H" 
			},
			{
				"x": -1.0741153141,
				"y": -1.8783943189,
				"z": 2.7308705703,
				"element": "H" 
			},
			{
				"x": -0.8564852362,
				"y": -3.1849049086,
				"z": 0.611697266,
				"element": "H" 
			},
			{
				"x": 0.3636838877,
				"y": -3.434018089,
				"z": -1.380130489,
				"element": "H" 
			},
			{
				"x": 1.7140547078,
				"y": -2.2935795359,
				"z": -1.5289741087,
				"element": "H" 
			},
			{
				"x": 0.245135956,
				"y": -2.0166039353,
				"z": -2.4472734629,
				"element": "H" 
			},
			{
				"x": 0.2507907552,
				"y": 0.2808458861,
				"z": -1.4109917175,
				"element": "H" 
			},
			{
				"x": 2.0058188113,
				"y": -0.0541697083,
				"z": 1.0788633962,
				"element": "H" 
			},
			{
				"x": 3.8239731685,
				"y": 0.5251777255,
				"z": -0.2701621262,
				"element": "H" 
			},
			{
				"x": 4.9347936501,
				"y": 0.4299237009,
				"z": -2.6296084077,
				"element": "H" 
			},
			{
				"x": 4.0611534861,
				"y": 1.401066469,
				"z": -3.8499763271,
				"element": "H" 
			},
			{
				"x": 4.5272887486,
				"y": 2.1061873862,
				"z": -2.2744003639,
				"element": "H" 
			},
			{
				"x": -2.7644014238,
				"y": 1.3442355418,
				"z": 0.34385271,
				"element": "H" 
			},
			{
				"x": -1.9000030498,
				"y": 1.3277059205,
				"z": -1.1938472476,
				"element": "H" 
			},
			{
				"x": -2.3868775228,
				"y": -0.1961587101,
				"z": -0.4474204103,
				"element": "H" 
			},
			{
				"x": 0.109599723,
				"y": 2.6240335975,
				"z": -0.3635316236,
				"element": "H" 
			},
			{
				"x": -0.8922525287,
				"y": 2.8748210362,
				"z": 1.0686116897,
				"element": "H" 
			},
			{
				"x": 0.7664810812,
				"y": 2.2853109622,
				"z": 1.2421786714,
				"element": "H" 
			}
		],
		 "valence_orbital": [ 
			{
				"type": "occ",
				"energy": -0.30007,
				"method": "rhf"
			},
			{
				"type": "occ",
				"energy": -0.29452,
				"method": "rhf"
			},
			{
				"type": "occ",
				"energy": -0.26082,
				"method": "rhf"
			},
			{
				"type": "occ",
				"energy": -0.24007,
				"method": "rhf"
			},
			{
				"type": "occ",
				"energy": -0.22743,
				"method": "rhf"
			},
			{
				"type": "unocc",
				"energy": -0.05188,
				"method": "rhf"
			},
			{
				"type": "unocc",
				"energy": 0.03438,
				"method": "rhf"
			},
			{
				"type": "unocc",
				"energy": 0.07115,
				"method": "rhf"
			},
			{
				"type": "unocc",
				"energy": 0.08221,
				"method": "rhf"
			},
			{
				"type": "unocc",
				"energy": 0.09712,
				"method": "rhf"
			}
		],
		"cosmo_sigma_profile": { 
			"-0.025": 0.0,
			"-0.024": 0.0,
			"-0.023": 0.0,
			"-0.022": 0.0,
			"-0.021": 0.0,
			"-0.02": 0.0,
			"-0.019": 0.0,
			"-0.018": 0.0,
			"-0.017": 0.0,
			"-0.016": 0.0,
			"-0.015": 0.0,
			"-0.014": 0.0,
			"-0.013": 0.0,
			"-0.012": 0.0,
			"-0.011": 0.0,
			"-0.01": 0.0,
			"-0.009": 0.0,
			"-0.008": 0.0,
			"-0.007": 0.0,
			"-0.006": 3.73066267732,
			"-0.005": 11.7945054439,
			"-0.004": 13.2907134267,
			"-0.003": 23.8187045133,
			"-0.002": 39.6357204032,
			"-0.001": 46.5250186742,
			"0.0": 41.2917567673,
			"0.001": 35.3887394297,
			"0.002": 23.8906468044,
			"0.003": 10.6612619769,
			"0.004": 6.68322593022,
			"0.005": 3.58652285211,
			"0.006": 3.78291782298,
			"0.007": 2.33789269909,
			"0.008": 1.56726924146,
			"0.009": 1.60042231677,
			"0.01": 1.72295242038,
			"0.011": 1.71209512452,
			"0.012": 2.46373687662,
			"0.013": 2.2683790813,
			"0.014": 0.733867474617,
			"0.015": 0.0,
			"0.016": 0.0,
			"0.017": 0.0,
			"0.018": 0.0,
			"0.019": 0.0,
			"0.02": 0.0,
			"0.021": 0.0,
			"0.022": 0.0,
			"0.023": 0.0,
			"0.024": 0.0,
			"0.025": 0.0
		}
	}
}
