{
	 "smiles": "NS(=O)(=O)C1=CC=C(C=C1)[N+]([O-])=O", 
	 "Tm": 453.15, 
	 "num_atms": 19, 
	 "gaussian": { 
		 "optdone": 1, 
		 "sigma_profile": "yes", 
		 "theory": "DFT", 
		 "functional": "B3LYP", 
		 "basiset": "6-31G**", 
		 "properties": { 
			 "R2extent": 3617.8358, 
			 "electric_dipole_moment_norm": 3.68777131205, 
			 "electric_quadrupole_moment_norm": 30.3670410353, 
			 "total_energy": -1040.66401782, 
			 "HOMO_LUMO_gap": 0.18584, 
			 "cosmo_polarized_energy": -21.21, 
			 "cosmo_cavitation_energy": 26.02, 
			 "cosmo_dispersion_energy": -19.63, 
			 "cosmo_repulsion_energy": 1.5, 
			 "cosmo_total_nonelectrostatic_energy": 7.89, 
			 "SMD_solvation_energy": 6.5 
		},
		"coords": [
			{
				"x": -1.0520810292,
				"y": -2.6191595161,
				"z": 3.3045961949,
				"element": "N" 
			},
			{
				"x": 0.3232711536,
				"y": -1.7443622969,
				"z": 2.9262804985,
				"element": "S" 
			},
			{
				"x": 0.4122052035,
				"y": -0.6857130342,
				"z": 3.9279484973,
				"element": "O" 
			},
			{
				"x": 1.3750002104,
				"y": -2.7313902724,
				"z": 2.6988411685,
				"element": "O" 
			},
			{
				"x": 0.0038011943,
				"y": -0.9412669998,
				"z": 1.3395826233,
				"element": "C" 
			},
			{
				"x": 0.3388805026,
				"y": -1.6079865059,
				"z": 0.1578053027,
				"element": "C" 
			},
			{
				"x": 0.0727058308,
				"y": -1.0003548223,
				"z": -1.0667708467,
				"element": "C" 
			},
			{
				"x": -0.5179486418,
				"y": 0.2617699144,
				"z": -1.0711032862,
				"element": "C" 
			},
			{
				"x": -0.8403095912,
				"y": 0.9433269535,
				"z": 0.1008120167,
				"element": "C" 
			},
			{
				"x": -0.5723959018,
				"y": 0.3319480132,
				"z": 1.3231580163,
				"element": "C" 
			},
			{
				"x": -0.8048911326,
				"y": 0.9061716796,
				"z": -2.3682241626,
				"element": "N" 
			},
			{
				"x": -0.5092109711,
				"y": 0.2851686102,
				"z": -3.3868610316,
				"element": "O" 
			},
			{
				"x": -1.3236630525,
				"y": 2.0201810536,
				"z": -2.3447346912,
				"element": "O" 
			},
			{
				"x": -1.2283190872,
				"y": -3.403096855,
				"z": 2.6857579359,
				"element": "H" 
			},
			{
				"x": -1.8669053079,
				"y": -2.047618371,
				"z": 3.4995139375,
				"element": "H" 
			},
			{
				"x": 0.8220775161,
				"y": -2.5778077762,
				"z": 0.2029502943,
				"element": "H" 
			},
			{
				"x": 0.3184649188,
				"y": -1.4780804828,
				"z": -2.0067958253,
				"element": "H" 
			},
			{
				"x": -1.282326802,
				"y": 1.9298545094,
				"z": 0.0403776384,
				"element": "H" 
			},
			{
				"x": -0.784055013,
				"y": 0.8413161987,
				"z": 2.2568657192,
				"element": "H" 
			}
		],
		 "valence_orbital": [ 
			{
				"type": "occ",
				"energy": -0.32232,
				"method": "rhf"
			},
			{
				"type": "occ",
				"energy": -0.32177,
				"method": "rhf"
			},
			{
				"type": "occ",
				"energy": -0.30781,
				"method": "rhf"
			},
			{
				"type": "occ",
				"energy": -0.30159,
				"method": "rhf"
			},
			{
				"type": "occ",
				"energy": -0.29711,
				"method": "rhf"
			},
			{
				"type": "unocc",
				"energy": -0.11127,
				"method": "rhf"
			},
			{
				"type": "unocc",
				"energy": -0.0517,
				"method": "rhf"
			},
			{
				"type": "unocc",
				"energy": -0.0341,
				"method": "rhf"
			},
			{
				"type": "unocc",
				"energy": 0.03338,
				"method": "rhf"
			},
			{
				"type": "unocc",
				"energy": 0.05954,
				"method": "rhf"
			}
		],
		"cosmo_sigma_profile": { 
			"-0.025": 0.0,
			"-0.024": 0.0,
			"-0.023": 0.0,
			"-0.022": 0.0,
			"-0.021": 0.0,
			"-0.02": 0.0,
			"-0.019": 0.0,
			"-0.018": 0.0,
			"-0.017": 0.0,
			"-0.016": 0.912903438478,
			"-0.015": 3.22183109295,
			"-0.014": 2.28854691347,
			"-0.013": 3.20787332923,
			"-0.012": 3.15375805211,
			"-0.011": 2.24024956722,
			"-0.01": 2.56998938905,
			"-0.009": 4.08998773306,
			"-0.008": 8.10074657255,
			"-0.007": 9.79031349752,
			"-0.006": 9.00990009587,
			"-0.005": 8.51657450504,
			"-0.004": 9.67139276774,
			"-0.003": 9.27974470373,
			"-0.002": 13.7284695216,
			"-0.001": 15.8891591071,
			"0.0": 14.6181298172,
			"0.001": 6.55213885693,
			"0.002": 3.8256192191,
			"0.003": 5.69134759769,
			"0.004": 5.35772778706,
			"0.005": 6.42823159592,
			"0.006": 8.22453145137,
			"0.007": 13.67638183,
			"0.008": 9.71798427444,
			"0.009": 8.87553458604,
			"0.01": 9.8778292855,
			"0.011": 9.0787690938,
			"0.012": 1.1213880502,
			"0.013": 0.0,
			"0.014": 0.0,
			"0.015": 0.0,
			"0.016": 0.0,
			"0.017": 0.0,
			"0.018": 0.0,
			"0.019": 0.0,
			"0.02": 0.0,
			"0.021": 0.0,
			"0.022": 0.0,
			"0.023": 0.0,
			"0.024": 0.0,
			"0.025": 0.0
		}
	}
}
