{
	 "smiles": "OC(=O)C1=C2NCCCN2N=C1", 
	 "Tm": 415.15, 
	 "num_atms": 21, 
	 "gaussian": { 
		 "optdone": 1, 
		 "sigma_profile": "yes", 
		 "theory": "DFT", 
		 "functional": "B3LYP", 
		 "basiset": "6-31G**", 
		 "properties": { 
			 "R2extent": 2473.8627, 
			 "electric_dipole_moment_norm": 8.26814784701, 
			 "electric_quadrupole_moment_norm": 11.0324667432, 
			 "total_energy": -586.862632151, 
			 "HOMO_LUMO_gap": 0.22468, 
			 "cosmo_polarized_energy": -21.0, 
			 "cosmo_cavitation_energy": 24.12, 
			 "cosmo_dispersion_energy": -18.33, 
			 "cosmo_repulsion_energy": 1.46, 
			 "cosmo_total_nonelectrostatic_energy": 7.25, 
			 "SMD_solvation_energy": 3.39 
		},
		"coords": [
			{
				"x": 1.3697976667,
				"y": -2.3236044399,
				"z": 0.5919193685,
				"element": "O" 
			},
			{
				"x": 0.8727662502,
				"y": -2.5940405776,
				"z": -0.64838255,
				"element": "C" 
			},
			{
				"x": 1.339857692,
				"y": -3.4860973055,
				"z": -1.3201373388,
				"element": "O" 
			},
			{
				"x": -0.2464816858,
				"y": -1.7403374754,
				"z": -1.0793968512,
				"element": "C" 
			},
			{
				"x": -0.7543589216,
				"y": -0.6026151654,
				"z": -0.4566839473,
				"element": "C" 
			},
			{
				"x": -0.3290560067,
				"y": 0.0598688477,
				"z": 0.7118160503,
				"element": "N" 
			},
			{
				"x": -1.3375872269,
				"y": 0.9864865443,
				"z": 1.2626406651,
				"element": "C" 
			},
			{
				"x": -2.0141195928,
				"y": 1.8237112786,
				"z": 0.1655504865,
				"element": "C" 
			},
			{
				"x": -2.7091629496,
				"y": 0.9119788173,
				"z": -0.8542456893,
				"element": "C" 
			},
			{
				"x": -1.8204647205,
				"y": -0.1929515342,
				"z": -1.1876660716,
				"element": "N" 
			},
			{
				"x": -2.0593548964,
				"y": -1.0072019995,
				"z": -2.2552365295,
				"element": "N" 
			},
			{
				"x": -1.0990182197,
				"y": -1.9213187657,
				"z": -2.197990993,
				"element": "C" 
			},
			{
				"x": 0.8066298437,
				"y": -1.6656703385,
				"z": 1.041249122,
				"element": "H" 
			},
			{
				"x": 0.5582867969,
				"y": 0.5331698402,
				"z": 0.553454312,
				"element": "H" 
			},
			{
				"x": -2.0872319456,
				"y": 0.3906324981,
				"z": 1.796599948,
				"element": "H" 
			},
			{
				"x": -0.8423689372,
				"y": 1.6233873115,
				"z": 1.9993869765,
				"element": "H" 
			},
			{
				"x": -1.2597322191,
				"y": 2.4407921222,
				"z": -0.3373223347,
				"element": "H" 
			},
			{
				"x": -2.751496405,
				"y": 2.5032153508,
				"z": 0.6042354063,
				"element": "H" 
			},
			{
				"x": -2.9539471811,
				"y": 1.4433522488,
				"z": -1.7770908657,
				"element": "H" 
			},
			{
				"x": -3.6426283254,
				"y": 0.5072700787,
				"z": -0.4439852849,
				"element": "H" 
			},
			{
				"x": -1.0380290161,
				"y": -2.7025273363,
				"z": -2.9428138792,
				"element": "H" 
			}
		],
		 "valence_orbital": [ 
			{
				"type": "occ",
				"energy": -0.29709,
				"method": "rhf"
			},
			{
				"type": "occ",
				"energy": -0.29298,
				"method": "rhf"
			},
			{
				"type": "occ",
				"energy": -0.26131,
				"method": "rhf"
			},
			{
				"type": "occ",
				"energy": -0.25492,
				"method": "rhf"
			},
			{
				"type": "occ",
				"energy": -0.23871,
				"method": "rhf"
			},
			{
				"type": "unocc",
				"energy": -0.01403,
				"method": "rhf"
			},
			{
				"type": "unocc",
				"energy": 0.01366,
				"method": "rhf"
			},
			{
				"type": "unocc",
				"energy": 0.04826,
				"method": "rhf"
			},
			{
				"type": "unocc",
				"energy": 0.08115,
				"method": "rhf"
			},
			{
				"type": "unocc",
				"energy": 0.09645,
				"method": "rhf"
			}
		],
		"cosmo_sigma_profile": { 
			"-0.025": 0.0,
			"-0.024": 0.0,
			"-0.023": 0.0,
			"-0.022": 0.0,
			"-0.021": 0.0,
			"-0.02": 0.0,
			"-0.019": 0.0,
			"-0.018": 0.0,
			"-0.017": 0.0,
			"-0.016": 0.0,
			"-0.015": 0.153654509418,
			"-0.014": 1.6454421833,
			"-0.013": 1.4802896839,
			"-0.012": 1.71680619819,
			"-0.011": 2.08423838005,
			"-0.01": 1.72792338533,
			"-0.009": 2.3505707436,
			"-0.008": 3.44885303321,
			"-0.007": 5.80378680314,
			"-0.006": 16.3524333318,
			"-0.005": 20.7520056613,
			"-0.004": 18.630294688,
			"-0.003": 14.4837992757,
			"-0.002": 9.18216682618,
			"-0.001": 8.0710920035,
			"0.0": 6.62133472802,
			"0.001": 7.1635370724,
			"0.002": 9.15315112218,
			"0.003": 7.8475815002,
			"0.004": 4.35406945945,
			"0.005": 4.17368055355,
			"0.006": 4.97370282458,
			"0.007": 3.75467000369,
			"0.008": 2.8803817837,
			"0.009": 4.11393132492,
			"0.01": 5.04512145817,
			"0.011": 5.35707320859,
			"0.012": 7.91757738936,
			"0.013": 6.15692064287,
			"0.014": 2.35051639101,
			"0.015": 1.06943231575,
			"0.016": 0.124799924888,
			"0.017": 0.0,
			"0.018": 0.0,
			"0.019": 0.0,
			"0.02": 0.0,
			"0.021": 0.0,
			"0.022": 0.0,
			"0.023": 0.0,
			"0.024": 0.0,
			"0.025": 0.0
		}
	}
}
