{
	 "smiles": "NC1=NNC(=C1)C1=CC(Cl)=CC(Cl)=C1", 
	 "Tm": 433.15, 
	 "num_atms": 21, 
	 "gaussian": { 
		 "optdone": 1, 
		 "sigma_profile": "yes", 
		 "theory": "DFT", 
		 "functional": "B3LYP", 
		 "basiset": "6-31G**", 
		 "properties": { 
			 "R2extent": 5394.1126, 
			 "electric_dipole_moment_norm": 1.39070379305, 
			 "electric_quadrupole_moment_norm": 10.5422312553, 
			 "total_energy": -1431.80174554, 
			 "HOMO_LUMO_gap": 0.1616, 
			 "cosmo_polarized_energy": -13.63, 
			 "cosmo_cavitation_energy": 29.8, 
			 "cosmo_dispersion_energy": -22.19, 
			 "cosmo_repulsion_energy": 1.76, 
			 "cosmo_total_nonelectrostatic_energy": 9.36, 
			 "SMD_solvation_energy": 3.27 
		},
		"coords": [
			{
				"x": 2.6758790511,
				"y": -2.0372804714,
				"z": 2.2728714015,
				"element": "N" 
			},
			{
				"x": 1.8641000967,
				"y": -1.141285407,
				"z": 1.5805700714,
				"element": "C" 
			},
			{
				"x": 2.3892806579,
				"y": -0.0778565592,
				"z": 0.9686525606,
				"element": "N" 
			},
			{
				"x": 1.3255325054,
				"y": 0.5266689456,
				"z": 0.3787005929,
				"element": "N" 
			},
			{
				"x": 0.1503560488,
				"y": -0.1344574214,
				"z": 0.5789640552,
				"element": "C" 
			},
			{
				"x": 0.4643756632,
				"y": -1.2309417225,
				"z": 1.3708977004,
				"element": "C" 
			},
			{
				"x": -1.1260965501,
				"y": 0.3277859172,
				"z": 0.0293638475,
				"element": "C" 
			},
			{
				"x": -1.3449904825,
				"y": 1.690123174,
				"z": -0.2366440937,
				"element": "C" 
			},
			{
				"x": -2.5636204456,
				"y": 2.099157793,
				"z": -0.7705159046,
				"element": "C" 
			},
			{
				"x": -2.824022022,
				"y": 3.8035336872,
				"z": -1.1002803992,
				"element": "Cl" 
			},
			{
				"x": -3.5920751221,
				"y": 1.1968282067,
				"z": -1.0375103944,
				"element": "C" 
			},
			{
				"x": -3.3603808665,
				"y": -0.1498584001,
				"z": -0.7553367232,
				"element": "C" 
			},
			{
				"x": -4.6333977467,
				"y": -1.3127850889,
				"z": -1.0831160203,
				"element": "Cl" 
			},
			{
				"x": -2.1498228189,
				"y": -0.5967801002,
				"z": -0.236423241,
				"element": "C" 
			},
			{
				"x": 3.5929476196,
				"y": -1.6496987353,
				"z": 2.4585753168,
				"element": "H" 
			},
			{
				"x": 2.2550933793,
				"y": -2.4017039279,
				"z": 3.1176270848,
				"element": "H" 
			},
			{
				"x": 1.4972486299,
				"y": 1.2793449397,
				"z": -0.2686900194,
				"element": "H" 
			},
			{
				"x": -0.2194655103,
				"y": -1.9658582819,
				"z": 1.7682904851,
				"element": "H" 
			},
			{
				"x": -0.5887497966,
				"y": 2.4300691753,
				"z": -0.0011145148,
				"element": "H" 
			},
			{
				"x": -4.5373193967,
				"y": 1.529226916,
				"z": -1.4471936627,
				"element": "H" 
			},
			{
				"x": -1.9918728939,
				"y": -1.6534326388,
				"z": -0.0576881428,
				"element": "H" 
			}
		],
		 "valence_orbital": [ 
			{
				"type": "occ",
				"energy": -0.29303,
				"method": "rhf"
			},
			{
				"type": "occ",
				"energy": -0.28275,
				"method": "rhf"
			},
			{
				"type": "occ",
				"energy": -0.25949,
				"method": "rhf"
			},
			{
				"type": "occ",
				"energy": -0.23663,
				"method": "rhf"
			},
			{
				"type": "occ",
				"energy": -0.21052,
				"method": "rhf"
			},
			{
				"type": "unocc",
				"energy": -0.04892,
				"method": "rhf"
			},
			{
				"type": "unocc",
				"energy": -0.03183,
				"method": "rhf"
			},
			{
				"type": "unocc",
				"energy": 0.00103,
				"method": "rhf"
			},
			{
				"type": "unocc",
				"energy": 0.03487,
				"method": "rhf"
			},
			{
				"type": "unocc",
				"energy": 0.04624,
				"method": "rhf"
			}
		],
		"cosmo_sigma_profile": { 
			"-0.025": 0.0,
			"-0.024": 0.0,
			"-0.023": 0.0,
			"-0.022": 0.0,
			"-0.021": 0.0,
			"-0.02": 0.0,
			"-0.019": 0.0,
			"-0.018": 0.0,
			"-0.017": 0.0142179896053,
			"-0.016": 0.854353990436,
			"-0.015": 1.43130670323,
			"-0.014": 1.0904304762,
			"-0.013": 1.41615193292,
			"-0.012": 3.26321047319,
			"-0.011": 3.5772487853,
			"-0.01": 3.66714107634,
			"-0.009": 5.02976374024,
			"-0.008": 6.21448904932,
			"-0.007": 8.26706300658,
			"-0.006": 8.83700272143,
			"-0.005": 7.45276303931,
			"-0.004": 8.4952961052,
			"-0.003": 8.84642472061,
			"-0.002": 12.0131826635,
			"-0.001": 13.2243046604,
			"0.0": 20.398698994,
			"0.001": 31.925843176,
			"0.002": 20.701498155,
			"0.003": 17.9630872523,
			"0.004": 24.6719750405,
			"0.005": 9.49937548855,
			"0.006": 4.17804205795,
			"0.007": 2.65186035606,
			"0.008": 3.53092441528,
			"0.009": 2.49145798535,
			"0.01": 1.48777651216,
			"0.011": 1.87835800031,
			"0.012": 1.68019490376,
			"0.013": 2.13462709724,
			"0.014": 2.14757428371,
			"0.015": 1.231574222,
			"0.016": 1.01073433754,
			"0.017": 0.105472302449,
			"0.018": 0.0,
			"0.019": 0.0,
			"0.02": 0.0,
			"0.021": 0.0,
			"0.022": 0.0,
			"0.023": 0.0,
			"0.024": 0.0,
			"0.025": 0.0
		}
	}
}
