{
	 "smiles": "SC1=NC2=C(O1)C=CC=C2", 
	 "Tm": 467.15, 
	 "num_atms": 15, 
	 "gaussian": { 
		 "optdone": 1, 
		 "sigma_profile": "yes", 
		 "theory": "DFT", 
		 "functional": "B3LYP", 
		 "basiset": "6-31G**", 
		 "properties": { 
			 "R2extent": 2093.9788, 
			 "electric_dipole_moment_norm": 0.632844601778, 
			 "electric_quadrupole_moment_norm": 9.01035414787, 
			 "total_energy": -797.909550075, 
			 "HOMO_LUMO_gap": 0.20148, 
			 "cosmo_polarized_energy": -6.5, 
			 "cosmo_cavitation_energy": 21.32, 
			 "cosmo_dispersion_energy": -16.86, 
			 "cosmo_repulsion_energy": 1.31, 
			 "cosmo_total_nonelectrostatic_energy": 5.77, 
			 "SMD_solvation_energy": 1.63 
		},
		"coords": [
			{
				"x": 0.4136245074,
				"y": -4.0376454101,
				"z": 0.9676292734,
				"element": "S" 
			},
			{
				"x": 0.5496017366,
				"y": -2.3761843568,
				"z": 0.4095265521,
				"element": "C" 
			},
			{
				"x": 0.9207518501,
				"y": -1.9380851065,
				"z": -0.7489509086,
				"element": "N" 
			},
			{
				"x": 0.83538627,
				"y": -0.546568296,
				"z": -0.6157514203,
				"element": "C" 
			},
			{
				"x": 0.3969065671,
				"y": -0.2390945234,
				"z": 0.6788110118,
				"element": "C" 
			},
			{
				"x": 0.2112945332,
				"y": -1.4349877929,
				"z": 1.3453685786,
				"element": "O" 
			},
			{
				"x": 0.2026478844,
				"y": 1.0486106783,
				"z": 1.1494341813,
				"element": "C" 
			},
			{
				"x": 0.4755482301,
				"y": 2.0713231202,
				"z": 0.2351699198,
				"element": "C" 
			},
			{
				"x": 0.9168164631,
				"y": 1.7928460148,
				"z": -1.0704704635,
				"element": "C" 
			},
			{
				"x": 1.1042697241,
				"y": 0.4841761085,
				"z": -1.518639412,
				"element": "C" 
			},
			{
				"x": 0.8198285857,
				"y": -4.5462584387,
				"z": -0.2104945693,
				"element": "H" 
			},
			{
				"x": -0.1380949312,
				"y": 1.248332076,
				"z": 2.1590462075,
				"element": "H" 
			},
			{
				"x": 0.3430430633,
				"y": 3.1040620042,
				"z": 0.5424025128,
				"element": "H" 
			},
			{
				"x": 1.116220669,
				"y": 2.6195357713,
				"z": -1.7456379175,
				"element": "H" 
			},
			{
				"x": 1.4445548469,
				"y": 0.2665381512,
				"z": -2.5252435461,
				"element": "H" 
			}
		],
		 "valence_orbital": [ 
			{
				"type": "occ",
				"energy": -0.34478,
				"method": "rhf"
			},
			{
				"type": "occ",
				"energy": -0.29799,
				"method": "rhf"
			},
			{
				"type": "occ",
				"energy": -0.29286,
				"method": "rhf"
			},
			{
				"type": "occ",
				"energy": -0.24968,
				"method": "rhf"
			},
			{
				"type": "occ",
				"energy": -0.22814,
				"method": "rhf"
			},
			{
				"type": "unocc",
				"energy": -0.02666,
				"method": "rhf"
			},
			{
				"type": "unocc",
				"energy": 0.00166,
				"method": "rhf"
			},
			{
				"type": "unocc",
				"energy": 0.00322,
				"method": "rhf"
			},
			{
				"type": "unocc",
				"energy": 0.03497,
				"method": "rhf"
			},
			{
				"type": "unocc",
				"energy": 0.05794,
				"method": "rhf"
			}
		],
		"cosmo_sigma_profile": { 
			"-0.025": 0.0,
			"-0.024": 0.0,
			"-0.023": 0.0,
			"-0.022": 0.0,
			"-0.021": 0.0,
			"-0.02": 0.0,
			"-0.019": 0.0,
			"-0.018": 0.0,
			"-0.017": 0.0,
			"-0.016": 0.0,
			"-0.015": 0.0,
			"-0.014": 0.0,
			"-0.013": 0.832016257024,
			"-0.012": 1.82084114744,
			"-0.011": 1.12638188487,
			"-0.01": 1.4433852849,
			"-0.009": 1.06802850233,
			"-0.008": 1.91492309102,
			"-0.007": 4.17300187984,
			"-0.006": 9.36710460673,
			"-0.005": 8.84549723608,
			"-0.004": 10.2564664793,
			"-0.003": 10.665282742,
			"-0.002": 9.22946682682,
			"-0.001": 13.7613696383,
			"0.0": 16.0404964195,
			"0.001": 15.4930331624,
			"0.002": 15.7412744583,
			"0.003": 15.1249896961,
			"0.004": 14.9940633072,
			"0.005": 10.3081821844,
			"0.006": 4.48941687771,
			"0.007": 1.60628858394,
			"0.008": 0.994282433745,
			"0.009": 0.617319066946,
			"0.01": 0.856157727569,
			"0.011": 0.935014794391,
			"0.012": 1.10628549951,
			"0.013": 0.977958479815,
			"0.014": 0.669374812579,
			"0.015": 0.432933538232,
			"0.016": 0.0,
			"0.017": 0.0,
			"0.018": 0.0,
			"0.019": 0.0,
			"0.02": 0.0,
			"0.021": 0.0,
			"0.022": 0.0,
			"0.023": 0.0,
			"0.024": 0.0,
			"0.025": 0.0
		}
	}
}
