{
	 "smiles": "CC(C)NC(N)=O", 
	 "Tm": 428.15, 
	 "num_atms": 17, 
	 "gaussian": { 
		 "optdone": 1, 
		 "sigma_profile": "yes", 
		 "theory": "DFT", 
		 "functional": "B3LYP", 
		 "basiset": "6-31G**", 
		 "properties": { 
			 "R2extent": 1003.8886, 
			 "electric_dipole_moment_norm": 4.01635124584, 
			 "electric_quadrupole_moment_norm": 11.1145720975, 
			 "total_energy": -343.213342527, 
			 "HOMO_LUMO_gap": 0.29071, 
			 "cosmo_polarized_energy": -13.7, 
			 "cosmo_cavitation_energy": 19.88, 
			 "cosmo_dispersion_energy": -14.51, 
			 "cosmo_repulsion_energy": 1.25, 
			 "cosmo_total_nonelectrostatic_energy": 6.62, 
			 "SMD_solvation_energy": 4.26 
		},
		"coords": [
			{
				"x": 1.0737314671,
				"y": 0.544851008,
				"z": -1.199605767,
				"element": "C" 
			},
			{
				"x": -0.1268561266,
				"y": 0.7248667406,
				"z": -0.2552043376,
				"element": "C" 
			},
			{
				"x": -0.9106833988,
				"y": 2.0008440912,
				"z": -0.5821654014,
				"element": "C" 
			},
			{
				"x": -1.0300934555,
				"y": -0.4255358524,
				"z": -0.2993622135,
				"element": "N" 
			},
			{
				"x": -1.0722049133,
				"y": -1.4978189393,
				"z": 0.5629849678,
				"element": "C" 
			},
			{
				"x": 0.0065043606,
				"y": -1.6085147005,
				"z": 1.4386908767,
				"element": "N" 
			},
			{
				"x": -2.0117906469,
				"y": -2.2839736393,
				"z": 0.5828450563,
				"element": "O" 
			},
			{
				"x": 1.7706325275,
				"y": 1.385751332,
				"z": -1.114768679,
				"element": "H" 
			},
			{
				"x": 0.7369838,
				"y": 0.481059682,
				"z": -2.2398918796,
				"element": "H" 
			},
			{
				"x": 1.6233765279,
				"y": -0.3757474457,
				"z": -0.9761547698,
				"element": "H" 
			},
			{
				"x": 0.2409607322,
				"y": 0.8082369219,
				"z": 0.7748820722,
				"element": "H" 
			},
			{
				"x": -1.7340318655,
				"y": 2.1458010473,
				"z": 0.1230429227,
				"element": "H" 
			},
			{
				"x": -1.3286003389,
				"y": 1.9501431005,
				"z": -1.5950689621,
				"element": "H" 
			},
			{
				"x": -0.2584764429,
				"y": 2.8780672169,
				"z": -0.5380447661,
				"element": "H" 
			},
			{
				"x": -1.8617069736,
				"y": -0.3587978311,
				"z": -0.8687138507,
				"element": "H" 
			},
			{
				"x": 0.0055005261,
				"y": -2.5007772009,
				"z": 1.9125200737,
				"element": "H" 
			},
			{
				"x": 0.9178542204,
				"y": -1.3158555311,
				"z": 1.1155146574,
				"element": "H" 
			}
		],
		 "valence_orbital": [ 
			{
				"type": "occ",
				"energy": -0.35922,
				"method": "rhf"
			},
			{
				"type": "occ",
				"energy": -0.3513,
				"method": "rhf"
			},
			{
				"type": "occ",
				"energy": -0.26702,
				"method": "rhf"
			},
			{
				"type": "occ",
				"energy": -0.2451,
				"method": "rhf"
			},
			{
				"type": "occ",
				"energy": -0.23688,
				"method": "rhf"
			},
			{
				"type": "unocc",
				"energy": 0.05383,
				"method": "rhf"
			},
			{
				"type": "unocc",
				"energy": 0.07781,
				"method": "rhf"
			},
			{
				"type": "unocc",
				"energy": 0.09897,
				"method": "rhf"
			},
			{
				"type": "unocc",
				"energy": 0.11301,
				"method": "rhf"
			},
			{
				"type": "unocc",
				"energy": 0.12428,
				"method": "rhf"
			}
		],
		"cosmo_sigma_profile": { 
			"-0.025": 0.0,
			"-0.024": 0.0,
			"-0.023": 0.0,
			"-0.022": 0.0,
			"-0.021": 0.0,
			"-0.02": 0.0,
			"-0.019": 0.0,
			"-0.018": 0.0,
			"-0.017": 0.0,
			"-0.016": 0.0,
			"-0.015": 0.0,
			"-0.014": 0.0,
			"-0.013": 0.573037723685,
			"-0.012": 2.7937764543,
			"-0.011": 3.34244513705,
			"-0.01": 3.33750933077,
			"-0.009": 3.53707502554,
			"-0.008": 3.22333749083,
			"-0.007": 3.98371363288,
			"-0.006": 3.80729984342,
			"-0.005": 4.33151538512,
			"-0.004": 9.3741068524,
			"-0.003": 17.4785390166,
			"-0.002": 16.0145482464,
			"-0.001": 13.8273120882,
			"0.0": 14.9386338542,
			"0.001": 12.4373932999,
			"0.002": 3.76479404695,
			"0.003": 4.17336559516,
			"0.004": 3.08335686834,
			"0.005": 3.38803321492,
			"0.006": 2.18843001171,
			"0.007": 2.16785987197,
			"0.008": 2.24772737771,
			"0.009": 1.33065884202,
			"0.01": 2.4146184135,
			"0.011": 1.06867066623,
			"0.012": 1.94217349353,
			"0.013": 1.52699009569,
			"0.014": 3.71039079905,
			"0.015": 6.89329099778,
			"0.016": 1.30128086018,
			"0.017": 0.0,
			"0.018": 0.0,
			"0.019": 0.0,
			"0.02": 0.0,
			"0.021": 0.0,
			"0.022": 0.0,
			"0.023": 0.0,
			"0.024": 0.0,
			"0.025": 0.0
		}
	}
}
