{
	 "smiles": "O=CC1=CC=CC2=NC=CN12", 
	 "Tm": 397.15, 
	 "num_atms": 17, 
	 "gaussian": { 
		 "optdone": 1, 
		 "sigma_profile": "yes", 
		 "theory": "DFT", 
		 "functional": "B3LYP", 
		 "basiset": "6-31G**", 
		 "properties": { 
			 "R2extent": 1969.4992, 
			 "electric_dipole_moment_norm": 0.182276575566, 
			 "electric_quadrupole_moment_norm": 14.4312969015, 
			 "total_energy": -493.168974636, 
			 "HOMO_LUMO_gap": 0.1364, 
			 "cosmo_polarized_energy": -11.47, 
			 "cosmo_cavitation_energy": 21.63, 
			 "cosmo_dispersion_energy": -16.13, 
			 "cosmo_repulsion_energy": 1.25, 
			 "cosmo_total_nonelectrostatic_energy": 6.75, 
			 "SMD_solvation_energy": 3.47 
		},
		"coords": [
			{
				"x": -0.0989175666,
				"y": -2.1844877312,
				"z": -1.958299529,
				"element": "O" 
			},
			{
				"x": -0.2823643388,
				"y": -1.0745286202,
				"z": -1.4918527397,
				"element": "C" 
			},
			{
				"x": -0.8926450447,
				"y": -0.8442007142,
				"z": -0.1692935384,
				"element": "C" 
			},
			{
				"x": -1.2949277394,
				"y": -1.8988040455,
				"z": 0.6222973126,
				"element": "C" 
			},
			{
				"x": -1.8806021397,
				"y": -1.6884719126,
				"z": 1.890272261,
				"element": "C" 
			},
			{
				"x": -2.0587953959,
				"y": -0.403836392,
				"z": 2.3568169638,
				"element": "C" 
			},
			{
				"x": -1.657068186,
				"y": 0.6944391552,
				"z": 1.5693956832,
				"element": "C" 
			},
			{
				"x": -1.734999714,
				"y": 1.9995433997,
				"z": 1.8226507759,
				"element": "N" 
			},
			{
				"x": -1.2053887295,
				"y": 2.6031831805,
				"z": 0.7286640967,
				"element": "C" 
			},
			{
				"x": -0.7886108237,
				"y": 1.689781819,
				"z": -0.2242930641,
				"element": "C" 
			},
			{
				"x": -1.0734719727,
				"y": 0.4500647938,
				"z": 0.30364987,
				"element": "N" 
			},
			{
				"x": 0.0101799881,
				"y": -0.1680076186,
				"z": -2.0586661082,
				"element": "H" 
			},
			{
				"x": -1.1391962873,
				"y": -2.894348599,
				"z": 0.2228464081,
				"element": "H" 
			},
			{
				"x": -2.187125533,
				"y": -2.5382639207,
				"z": 2.4903626623,
				"element": "H" 
			},
			{
				"x": -2.5032409946,
				"y": -0.1916507087,
				"z": 3.3224773955,
				"element": "H" 
			},
			{
				"x": -1.1383244708,
				"y": 3.6810027133,
				"z": 0.6564668965,
				"element": "H" 
			},
			{
				"x": -0.3331010514,
				"y": 1.828885201,
				"z": -1.1903953462,
				"element": "H" 
			}
		],
		 "valence_orbital": [ 
			{
				"type": "occ",
				"energy": -0.33396,
				"method": "rhf"
			},
			{
				"type": "occ",
				"energy": -0.2837,
				"method": "rhf"
			},
			{
				"type": "occ",
				"energy": -0.27141,
				"method": "rhf"
			},
			{
				"type": "occ",
				"energy": -0.25762,
				"method": "rhf"
			},
			{
				"type": "occ",
				"energy": -0.22535,
				"method": "rhf"
			},
			{
				"type": "unocc",
				"energy": -0.08895,
				"method": "rhf"
			},
			{
				"type": "unocc",
				"energy": -0.01443,
				"method": "rhf"
			},
			{
				"type": "unocc",
				"energy": 0.01259,
				"method": "rhf"
			},
			{
				"type": "unocc",
				"energy": 0.07033,
				"method": "rhf"
			},
			{
				"type": "unocc",
				"energy": 0.08123,
				"method": "rhf"
			}
		],
		"cosmo_sigma_profile": { 
			"-0.025": 0.0,
			"-0.024": 0.0,
			"-0.023": 0.0,
			"-0.022": 0.0,
			"-0.021": 0.0,
			"-0.02": 0.0,
			"-0.019": 0.0,
			"-0.018": 0.0,
			"-0.017": 0.0,
			"-0.016": 0.0,
			"-0.015": 0.0,
			"-0.014": 0.0,
			"-0.013": 0.0,
			"-0.012": 0.00812759727415,
			"-0.011": 1.39847526988,
			"-0.01": 2.21797388755,
			"-0.009": 3.2991369365,
			"-0.008": 5.91608384641,
			"-0.007": 11.2299316898,
			"-0.006": 9.93839542929,
			"-0.005": 12.0445694817,
			"-0.004": 8.84922622045,
			"-0.003": 9.31068345698,
			"-0.002": 11.1340504966,
			"-0.001": 12.2686976521,
			"0.0": 12.9380283384,
			"0.001": 15.072524054,
			"0.002": 12.3060933779,
			"0.003": 8.20544680116,
			"0.004": 4.81384599319,
			"0.005": 3.52332034355,
			"0.006": 3.45873029299,
			"0.007": 3.09227992032,
			"0.008": 3.61324998482,
			"0.009": 3.82388765109,
			"0.01": 4.36170535398,
			"0.011": 4.98062865847,
			"0.012": 1.95575731497,
			"0.013": 1.10374004186,
			"0.014": 1.33453132997,
			"0.015": 1.11385612647,
			"0.016": 1.06044127058,
			"0.017": 0.712507163497,
			"0.018": 0.109646779215,
			"0.019": 0.0,
			"0.02": 0.0,
			"0.021": 0.0,
			"0.022": 0.0,
			"0.023": 0.0,
			"0.024": 0.0,
			"0.025": 0.0
		}
	}
}
