{
	 "smiles": "CN1N=NC2=C1C=CC(=O)N2C1OC(CO)C(O)C1O", 
	 "Tm": 484.15, 
	 "num_atms": 34, 
	 "gaussian": { 
		 "optdone": 1, 
		 "sigma_profile": "yes", 
		 "theory": "DFT", 
		 "functional": "B3LYP", 
		 "basiset": "6-31G**", 
		 "properties": { 
			 "R2extent": 5363.3442, 
			 "electric_dipole_moment_norm": 7.9048970999, 
			 "electric_quadrupole_moment_norm": 28.9812738295, 
			 "total_energy": -1022.66869564, 
			 "HOMO_LUMO_gap": 0.15583, 
			 "cosmo_polarized_energy": -26.03, 
			 "cosmo_cavitation_energy": 36.26, 
			 "cosmo_dispersion_energy": -26.21, 
			 "cosmo_repulsion_energy": 1.99, 
			 "cosmo_total_nonelectrostatic_energy": 12.03, 
			 "SMD_solvation_energy": 5.25 
		},
		"coords": [
			{
				"x": 1.2744509399,
				"y": -2.897491514,
				"z": -3.2781026521,
				"element": "C" 
			},
			{
				"x": 0.9551142616,
				"y": -1.8700243387,
				"z": -2.3017001373,
				"element": "N" 
			},
			{
				"x": -0.0355655287,
				"y": -0.9985236798,
				"z": -2.544798001,
				"element": "N" 
			},
			{
				"x": -0.1314461153,
				"y": -0.1843061928,
				"z": -1.5155481367,
				"element": "N" 
			},
			{
				"x": 0.80893334,
				"y": -0.5360001316,
				"z": -0.6015624857,
				"element": "C" 
			},
			{
				"x": 1.5269684733,
				"y": -1.6234063355,
				"z": -1.0870448452,
				"element": "C" 
			},
			{
				"x": 2.5879680785,
				"y": -2.2065781258,
				"z": -0.3405738218,
				"element": "C" 
			},
			{
				"x": 2.8584607278,
				"y": -1.6389804123,
				"z": 0.8638626052,
				"element": "C" 
			},
			{
				"x": 2.123747168,
				"y": -0.4908958853,
				"z": 1.4237355379,
				"element": "C" 
			},
			{
				"x": 2.3842027649,
				"y": -0.0163943223,
				"z": 2.5212597814,
				"element": "O" 
			},
			{
				"x": 1.0859893412,
				"y": 0.0479295137,
				"z": 0.6102304864,
				"element": "N" 
			},
			{
				"x": 0.2452691875,
				"y": 1.1144155334,
				"z": 1.1621295536,
				"element": "C" 
			},
			{
				"x": -1.0722556919,
				"y": 0.6137368504,
				"z": 1.2981698414,
				"element": "O" 
			},
			{
				"x": -2.0057473778,
				"y": 1.6810586274,
				"z": 1.0606291574,
				"element": "C" 
			},
			{
				"x": -3.3397988553,
				"y": 1.0682170634,
				"z": 0.6196079365,
				"element": "C" 
			},
			{
				"x": -4.1719551535,
				"y": 2.0346711166,
				"z": 0.0060575548,
				"element": "O" 
			},
			{
				"x": -1.3396640732,
				"y": 2.5661918182,
				"z": -0.0140376951,
				"element": "C" 
			},
			{
				"x": -1.667686012,
				"y": 2.1912608867,
				"z": -1.3408858085,
				"element": "O" 
			},
			{
				"x": 0.1658931462,
				"y": 2.4175759643,
				"z": 0.3184700019,
				"element": "C" 
			},
			{
				"x": 0.6475890467,
				"y": 3.4503986938,
				"z": 1.1669392767,
				"element": "O" 
			},
			{
				"x": 2.3097012555,
				"y": -2.7944218622,
				"z": -3.6142167018,
				"element": "H" 
			},
			{
				"x": 1.125585683,
				"y": -3.8916453552,
				"z": -2.8480750193,
				"element": "H" 
			},
			{
				"x": 0.5993890089,
				"y": -2.7584356988,
				"z": -4.1217695097,
				"element": "H" 
			},
			{
				"x": 3.1508153528,
				"y": -3.058498722,
				"z": -0.7093463574,
				"element": "H" 
			},
			{
				"x": 3.6439634581,
				"y": -2.0156965632,
				"z": 1.5078878944,
				"element": "H" 
			},
			{
				"x": 0.6948002864,
				"y": 1.3559974684,
				"z": 2.1287912972,
				"element": "H" 
			},
			{
				"x": -2.1296293312,
				"y": 2.2738388219,
				"z": 1.97907452,
				"element": "H" 
			},
			{
				"x": -3.1160342886,
				"y": 0.2246747453,
				"z": -0.0487504684,
				"element": "H" 
			},
			{
				"x": -3.8799427234,
				"y": 0.6717597761,
				"z": 1.484384181,
				"element": "H" 
			},
			{
				"x": -3.7194459379,
				"y": 2.2560118026,
				"z": -0.8241592474,
				"element": "H" 
			},
			{
				"x": -1.6485969362,
				"y": 3.6096482986,
				"z": 0.096500856,
				"element": "H" 
			},
			{
				"x": -1.2639228766,
				"y": 1.313287649,
				"z": -1.5137741813,
				"element": "H" 
			},
			{
				"x": 0.7514595084,
				"y": 2.3508981874,
				"z": -0.6077654891,
				"element": "H" 
			},
			{
				"x": 0.6188898729,
				"y": 4.2801263223,
				"z": 0.6730800762,
				"element": "H" 
			}
		],
		 "valence_orbital": [ 
			{
				"type": "occ",
				"energy": -0.28077,
				"method": "rhf"
			},
			{
				"type": "occ",
				"energy": -0.26291,
				"method": "rhf"
			},
			{
				"type": "occ",
				"energy": -0.24935,
				"method": "rhf"
			},
			{
				"type": "occ",
				"energy": -0.24432,
				"method": "rhf"
			},
			{
				"type": "occ",
				"energy": -0.23424,
				"method": "rhf"
			},
			{
				"type": "unocc",
				"energy": -0.07841,
				"method": "rhf"
			},
			{
				"type": "unocc",
				"energy": -0.00929,
				"method": "rhf"
			},
			{
				"type": "unocc",
				"energy": 0.01655,
				"method": "rhf"
			},
			{
				"type": "unocc",
				"energy": 0.06578,
				"method": "rhf"
			},
			{
				"type": "unocc",
				"energy": 0.06673,
				"method": "rhf"
			}
		],
		"cosmo_sigma_profile": { 
			"-0.025": 0.0,
			"-0.024": 0.0,
			"-0.023": 0.0,
			"-0.022": 0.0,
			"-0.021": 0.0,
			"-0.02": 0.0,
			"-0.019": 0.0,
			"-0.018": 0.0,
			"-0.017": 0.349428405555,
			"-0.016": 1.14986248453,
			"-0.015": 0.925090687225,
			"-0.014": 1.19279031442,
			"-0.013": 1.03970131489,
			"-0.012": 0.915333290797,
			"-0.011": 0.564414848928,
			"-0.01": 1.66176058618,
			"-0.009": 5.53622362917,
			"-0.008": 13.2299127975,
			"-0.007": 13.7901809345,
			"-0.006": 14.1336513233,
			"-0.005": 18.1996671751,
			"-0.004": 23.4576681441,
			"-0.003": 24.6203506258,
			"-0.002": 19.7823304113,
			"-0.001": 18.7295224505,
			"0.0": 15.6780915764,
			"0.001": 12.3148242013,
			"0.002": 9.68165089076,
			"0.003": 9.60925124775,
			"0.004": 10.7019315908,
			"0.005": 7.23943791848,
			"0.006": 7.78575415278,
			"0.007": 6.33395709638,
			"0.008": 6.85902502746,
			"0.009": 7.1372889768,
			"0.01": 6.2650952489,
			"0.011": 8.0652741316,
			"0.012": 7.8918979587,
			"0.013": 6.99299729862,
			"0.014": 4.07480309139,
			"0.015": 0.613264586038,
			"0.016": 0.0,
			"0.017": 0.0,
			"0.018": 0.0,
			"0.019": 0.0,
			"0.02": 0.0,
			"0.021": 0.0,
			"0.022": 0.0,
			"0.023": 0.0,
			"0.024": 0.0,
			"0.025": 0.0
		}
	}
}
