{
	 "smiles": "CC1=C(C)N=C(NS(=O)(=O)C2=CC=C(N)C=C2)O1", 
	 "Tm": 466.15, 
	 "num_atms": 31, 
	 "gaussian": { 
		 "optdone": 1, 
		 "sigma_profile": "yes", 
		 "theory": "DFT", 
		 "functional": "B3LYP", 
		 "basiset": "6-31G**", 
		 "properties": { 
			 "R2extent": 5694.9033, 
			 "electric_dipole_moment_norm": 7.93042581076, 
			 "electric_quadrupole_moment_norm": 16.7469077259, 
			 "total_energy": -1215.05120005, 
			 "HOMO_LUMO_gap": 0.1815, 
			 "cosmo_polarized_energy": -22.81, 
			 "cosmo_cavitation_energy": 37.2, 
			 "cosmo_dispersion_energy": -26.17, 
			 "cosmo_repulsion_energy": 2.02, 
			 "cosmo_total_nonelectrostatic_energy": 13.05, 
			 "SMD_solvation_energy": 4.24 
		},
		"coords": [
			{
				"x": -3.4741543983,
				"y": 1.2908705543,
				"z": -2.5346291642,
				"element": "C" 
			},
			{
				"x": -1.9939018391,
				"y": 1.3673446549,
				"z": -2.6259014515,
				"element": "C" 
			},
			{
				"x": -1.043218335,
				"y": 0.9436782334,
				"z": -3.5002916321,
				"element": "C" 
			},
			{
				"x": -1.1913677138,
				"y": 0.2026724621,
				"z": -4.7887704503,
				"element": "C" 
			},
			{
				"x": 0.223526257,
				"y": 1.2996236871,
				"z": -3.0189162968,
				"element": "N" 
			},
			{
				"x": -0.0302035636,
				"y": 1.9295850545,
				"z": -1.9144065637,
				"element": "C" 
			},
			{
				"x": 0.8993198889,
				"y": 2.5600325224,
				"z": -1.1021284176,
				"element": "N" 
			},
			{
				"x": 0.8594895713,
				"y": 2.529374451,
				"z": 0.6227952451,
				"element": "S" 
			},
			{
				"x": -0.3558030982,
				"y": 3.223586127,
				"z": 1.0305198573,
				"element": "O" 
			},
			{
				"x": 2.1984626305,
				"y": 3.0060871467,
				"z": 0.970016041,
				"element": "O" 
			},
			{
				"x": 0.7119409637,
				"y": 0.8221127799,
				"z": 1.0947581097,
				"element": "C" 
			},
			{
				"x": 1.8656324015,
				"y": 0.0470600912,
				"z": 1.259278683,
				"element": "C" 
			},
			{
				"x": 1.7522439732,
				"y": -1.2896728377,
				"z": 1.6112157749,
				"element": "C" 
			},
			{
				"x": 0.484186132,
				"y": -1.8768831258,
				"z": 1.8032677966,
				"element": "C" 
			},
			{
				"x": 0.3740252723,
				"y": -3.1957443296,
				"z": 2.1991835467,
				"element": "N" 
			},
			{
				"x": -0.6660835997,
				"y": -1.078054334,
				"z": 1.6392526102,
				"element": "C" 
			},
			{
				"x": -0.554844539,
				"y": 0.260275413,
				"z": 1.2898245611,
				"element": "C" 
			},
			{
				"x": -1.3357103523,
				"y": 2.0234988237,
				"z": -1.5872342716,
				"element": "O" 
			},
			{
				"x": -3.92717751,
				"y": 2.2880595932,
				"z": -2.4932429834,
				"element": "H" 
			},
			{
				"x": -3.797575549,
				"y": 0.7452723466,
				"z": -1.6400776744,
				"element": "H" 
			},
			{
				"x": -3.8734761873,
				"y": 0.7722634314,
				"z": -3.4093510728,
				"element": "H" 
			},
			{
				"x": -0.6454263546,
				"y": -0.746528945,
				"z": -4.7566132651,
				"element": "H" 
			},
			{
				"x": -0.7793179493,
				"y": 0.7841415055,
				"z": -5.6207299237,
				"element": "H" 
			},
			{
				"x": -2.2402173471,
				"y": -0.012432975,
				"z": -5.0091079772,
				"element": "H" 
			},
			{
				"x": 1.8473433841,
				"y": 2.4514210861,
				"z": -1.4479479706,
				"element": "H" 
			},
			{
				"x": 2.8426785098,
				"y": 0.5000738741,
				"z": 1.1292054147,
				"element": "H" 
			},
			{
				"x": 2.6470822605,
				"y": -1.8898689395,
				"z": 1.7519729879,
				"element": "H" 
			},
			{
				"x": -0.5163350058,
				"y": -3.6483803233,
				"z": 2.0567186631,
				"element": "H" 
			},
			{
				"x": 1.1689205992,
				"y": -3.7953207905,
				"z": 2.0360527952,
				"element": "H" 
			},
			{
				"x": -1.6479688745,
				"y": -1.5146822195,
				"z": 1.8010994279,
				"element": "H" 
			},
			{
				"x": -1.4386696274,
				"y": 0.8779349819,
				"z": 1.1773876005,
				"element": "H" 
			}
		],
		 "valence_orbital": [ 
			{
				"type": "occ",
				"energy": -0.2949,
				"method": "rhf"
			},
			{
				"type": "occ",
				"energy": -0.28542,
				"method": "rhf"
			},
			{
				"type": "occ",
				"energy": -0.27122,
				"method": "rhf"
			},
			{
				"type": "occ",
				"energy": -0.22874,
				"method": "rhf"
			},
			{
				"type": "occ",
				"energy": -0.21074,
				"method": "rhf"
			},
			{
				"type": "unocc",
				"energy": -0.02924,
				"method": "rhf"
			},
			{
				"type": "unocc",
				"energy": -0.01996,
				"method": "rhf"
			},
			{
				"type": "unocc",
				"energy": 0.01181,
				"method": "rhf"
			},
			{
				"type": "unocc",
				"energy": 0.05266,
				"method": "rhf"
			},
			{
				"type": "unocc",
				"energy": 0.06244,
				"method": "rhf"
			}
		],
		"cosmo_sigma_profile": { 
			"-0.025": 0.0,
			"-0.024": 0.0,
			"-0.023": 0.0,
			"-0.022": 0.0,
			"-0.021": 0.0,
			"-0.02": 0.0,
			"-0.019": 0.0,
			"-0.018": 0.0,
			"-0.017": 0.133648458146,
			"-0.016": 0.712476550028,
			"-0.015": 0.544119116358,
			"-0.014": 1.44485510783,
			"-0.013": 3.86940143552,
			"-0.012": 4.1870186877,
			"-0.011": 3.85855503089,
			"-0.01": 3.49860167747,
			"-0.009": 4.56969854568,
			"-0.008": 4.30003765084,
			"-0.007": 6.96908872876,
			"-0.006": 11.6416984251,
			"-0.005": 16.8319152625,
			"-0.004": 17.9331906947,
			"-0.003": 17.6709293126,
			"-0.002": 20.4859689608,
			"-0.001": 25.3506636919,
			"0.0": 21.9006394621,
			"0.001": 17.6565198363,
			"0.002": 19.4274128957,
			"0.003": 20.3332654124,
			"0.004": 13.9839125055,
			"0.005": 6.6413733992,
			"0.006": 7.37505545765,
			"0.007": 6.00274778064,
			"0.008": 6.27560383086,
			"0.009": 6.16382564546,
			"0.01": 12.2289369979,
			"0.011": 9.31879087009,
			"0.012": 1.96943272302,
			"0.013": 0.323187343343,
			"0.014": 0.817525890878,
			"0.015": 1.16747161,
			"0.016": 0.331641913133,
			"0.017": 0.0,
			"0.018": 0.0,
			"0.019": 0.0,
			"0.02": 0.0,
			"0.021": 0.0,
			"0.022": 0.0,
			"0.023": 0.0,
			"0.024": 0.0,
			"0.025": 0.0
		}
	}
}
