{
	 "smiles": "CC1=CSC2=NC3=C(C=CC=C3)N12", 
	 "Tm": 435.15, 
	 "num_atms": 21, 
	 "gaussian": { 
		 "optdone": 1, 
		 "sigma_profile": "yes", 
		 "theory": "DFT", 
		 "functional": "B3LYP", 
		 "basiset": "6-31G**", 
		 "properties": { 
			 "R2extent": 3735.2402, 
			 "electric_dipole_moment_norm": 4.27870939069, 
			 "electric_quadrupole_moment_norm": 13.9129097985, 
			 "total_energy": -893.572644138, 
			 "HOMO_LUMO_gap": 0.19108, 
			 "cosmo_polarized_energy": -10.31, 
			 "cosmo_cavitation_energy": 26.18, 
			 "cosmo_dispersion_energy": -20.17, 
			 "cosmo_repulsion_energy": 1.5, 
			 "cosmo_total_nonelectrostatic_energy": 7.51, 
			 "SMD_solvation_energy": 2.11 
		},
		"coords": [
			{
				"x": -1.3891239798,
				"y": 0.2903759128,
				"z": -1.8792470027,
				"element": "C" 
			},
			{
				"x": -2.0661037039,
				"y": 0.7301546227,
				"z": -0.6214255555,
				"element": "C" 
			},
			{
				"x": -3.3941875383,
				"y": 0.7789900931,
				"z": -0.36856396,
				"element": "C" 
			},
			{
				"x": -3.7907827229,
				"y": 1.3619720839,
				"z": 1.2537431972,
				"element": "S" 
			},
			{
				"x": -2.080697446,
				"y": 1.5426722122,
				"z": 1.5907544876,
				"element": "C" 
			},
			{
				"x": -1.3918222105,
				"y": 1.9450333062,
				"z": 2.6232360449,
				"element": "N" 
			},
			{
				"x": -0.0731959929,
				"y": 1.8310931975,
				"z": 2.1939506735,
				"element": "C" 
			},
			{
				"x": 0.0060300959,
				"y": 1.342744292,
				"z": 0.8582101277,
				"element": "C" 
			},
			{
				"x": 1.2235758128,
				"y": 1.1431927101,
				"z": 0.2053647601,
				"element": "C" 
			},
			{
				"x": 2.3807486335,
				"y": 1.4447064492,
				"z": 0.9209171707,
				"element": "C" 
			},
			{
				"x": 2.3217054281,
				"y": 1.9284309214,
				"z": 2.2421361794,
				"element": "C" 
			},
			{
				"x": 1.1063731199,
				"y": 2.1259314539,
				"z": 2.8893810993,
				"element": "C" 
			},
			{
				"x": -1.3259163069,
				"y": 1.1610069735,
				"z": 0.4840564384,
				"element": "N" 
			},
			{
				"x": -0.7268935782,
				"y": -0.5635830333,
				"z": -1.6965553465,
				"element": "H" 
			},
			{
				"x": -2.1334283037,
				"y": -0.0068409102,
				"z": -2.6205722125,
				"element": "H" 
			},
			{
				"x": -0.7821018858,
				"y": 1.0965678387,
				"z": -2.3067481158,
				"element": "H" 
			},
			{
				"x": -4.1859510968,
				"y": 0.5027224858,
				"z": -1.0488095871,
				"element": "H" 
			},
			{
				"x": 1.2786664104,
				"y": 0.7711232906,
				"z": -0.8115992501,
				"element": "H" 
			},
			{
				"x": 3.3475504343,
				"y": 1.302844735,
				"z": 0.4476282066,
				"element": "H" 
			},
			{
				"x": 3.2476045888,
				"y": 2.1511425091,
				"z": 2.7642959851,
				"element": "H" 
			},
			{
				"x": 1.0551502418,
				"y": 2.4983188557,
				"z": 3.9071466594,
				"element": "H" 
			}
		],
		 "valence_orbital": [ 
			{
				"type": "occ",
				"energy": -0.31355,
				"method": "rhf"
			},
			{
				"type": "occ",
				"energy": -0.27615,
				"method": "rhf"
			},
			{
				"type": "occ",
				"energy": -0.2573,
				"method": "rhf"
			},
			{
				"type": "occ",
				"energy": -0.22558,
				"method": "rhf"
			},
			{
				"type": "occ",
				"energy": -0.2039,
				"method": "rhf"
			},
			{
				"type": "unocc",
				"energy": -0.01282,
				"method": "rhf"
			},
			{
				"type": "unocc",
				"energy": -0.00908,
				"method": "rhf"
			},
			{
				"type": "unocc",
				"energy": 0.01071,
				"method": "rhf"
			},
			{
				"type": "unocc",
				"energy": 0.03364,
				"method": "rhf"
			},
			{
				"type": "unocc",
				"energy": 0.0577,
				"method": "rhf"
			}
		],
		"cosmo_sigma_profile": { 
			"-0.025": 0.0,
			"-0.024": 0.0,
			"-0.023": 0.0,
			"-0.022": 0.0,
			"-0.021": 0.0,
			"-0.02": 0.0,
			"-0.019": 0.0,
			"-0.018": 0.0,
			"-0.017": 0.0,
			"-0.016": 0.0,
			"-0.015": 0.0,
			"-0.014": 0.0,
			"-0.013": 0.0,
			"-0.012": 0.0,
			"-0.011": 0.0,
			"-0.01": 0.32779266867,
			"-0.009": 2.30069317558,
			"-0.008": 2.28437034958,
			"-0.007": 2.94654849512,
			"-0.006": 14.7743719834,
			"-0.005": 17.6351733674,
			"-0.004": 15.9749009515,
			"-0.003": 13.9036345545,
			"-0.002": 15.791497973,
			"-0.001": 18.9432416273,
			"0.0": 15.6003682613,
			"0.001": 15.7809805913,
			"0.002": 14.833356077,
			"0.003": 16.0816997055,
			"0.004": 14.6326520996,
			"0.005": 11.2474517675,
			"0.006": 7.67576106669,
			"0.007": 1.97122240795,
			"0.008": 1.05398334355,
			"0.009": 0.919125506192,
			"0.01": 1.19578668437,
			"0.011": 1.62344822645,
			"0.012": 0.991429571413,
			"0.013": 1.20473014335,
			"0.014": 0.743127762619,
			"0.015": 0.948603953215,
			"0.016": 1.16401367599,
			"0.017": 0.457588312927,
			"0.018": 0.0,
			"0.019": 0.0,
			"0.02": 0.0,
			"0.021": 0.0,
			"0.022": 0.0,
			"0.023": 0.0,
			"0.024": 0.0,
			"0.025": 0.0
		}
	}
}
