{
	 "smiles": "CC(C)C(NS(=O)(=O)C1=CC=C(C)C=C1)C(O)=O", 
	 "Tm": 441.15, 
	 "num_atms": 35, 
	 "gaussian": { 
		 "optdone": 1, 
		 "sigma_profile": "yes", 
		 "theory": "DFT", 
		 "functional": "B3LYP", 
		 "basiset": "6-31G**", 
		 "properties": { 
			 "R2extent": 5808.7048, 
			 "electric_dipole_moment_norm": 4.57276507269, 
			 "electric_quadrupole_moment_norm": 19.5959686926, 
			 "total_energy": -1221.31830054, 
			 "HOMO_LUMO_gap": 0.2149, 
			 "cosmo_polarized_energy": -19.09, 
			 "cosmo_cavitation_energy": 39.52, 
			 "cosmo_dispersion_energy": -26.64, 
			 "cosmo_repulsion_energy": 2.05, 
			 "cosmo_total_nonelectrostatic_energy": 14.92, 
			 "SMD_solvation_energy": 6.88 
		},
		"coords": [
			{
				"x": -3.0423982162,
				"y": -2.9080049619,
				"z": 1.073409475,
				"element": "C" 
			},
			{
				"x": -1.7398868662,
				"y": -2.3004607892,
				"z": 1.6169346099,
				"element": "C" 
			},
			{
				"x": -0.5193797473,
				"y": -2.9650875828,
				"z": 0.9646131161,
				"element": "C" 
			},
			{
				"x": -1.6909000528,
				"y": -0.7559418541,
				"z": 1.4228879316,
				"element": "C" 
			},
			{
				"x": -0.4566582951,
				"y": -0.2311515132,
				"z": 2.0239599663,
				"element": "N" 
			},
			{
				"x": 0.0049211483,
				"y": 1.3572364997,
				"z": 1.6302196822,
				"element": "S" 
			},
			{
				"x": 0.9195581578,
				"y": 1.7459582056,
				"z": 2.7075597019,
				"element": "O" 
			},
			{
				"x": -1.173342737,
				"y": 2.1692675017,
				"z": 1.2976770109,
				"element": "O" 
			},
			{
				"x": 0.92980069,
				"y": 1.1171634659,
				"z": 0.1169492027,
				"element": "C" 
			},
			{
				"x": 2.1980187837,
				"y": 0.5311388657,
				"z": 0.172767622,
				"element": "C" 
			},
			{
				"x": 2.9153533396,
				"y": 0.3613997786,
				"z": -1.0060858732,
				"element": "C" 
			},
			{
				"x": 2.3895231771,
				"y": 0.7720380888,
				"z": -2.2431905545,
				"element": "C" 
			},
			{
				"x": 3.1928056948,
				"y": 0.6009183945,
				"z": -3.5097923587,
				"element": "C" 
			},
			{
				"x": 1.119636171,
				"y": 1.3606693751,
				"z": -2.2669933175,
				"element": "C" 
			},
			{
				"x": 0.3845208568,
				"y": 1.540451119,
				"z": -1.0938286072,
				"element": "C" 
			},
			{
				"x": -2.9588810061,
				"y": -0.0928692218,
				"z": 1.9650585034,
				"element": "C" 
			},
			{
				"x": -2.8614026272,
				"y": 0.1519315279,
				"z": 3.2943994736,
				"element": "O" 
			},
			{
				"x": -3.9564367311,
				"y": 0.1304418101,
				"z": 1.3206926976,
				"element": "O" 
			},
			{
				"x": -3.9320938569,
				"y": -2.5132732164,
				"z": 1.5694114449,
				"element": "H" 
			},
			{
				"x": -3.1488253231,
				"y": -2.710497324,
				"z": 0.0009325129,
				"element": "H" 
			},
			{
				"x": -3.030597007,
				"y": -3.9932458684,
				"z": 1.2144350208,
				"element": "H" 
			},
			{
				"x": -1.7003421978,
				"y": -2.4846531535,
				"z": 2.7005122775,
				"element": "H" 
			},
			{
				"x": 0.416445057,
				"y": -2.5457400458,
				"z": 1.3391030624,
				"element": "H" 
			},
			{
				"x": -0.5405420111,
				"y": -2.8284756774,
				"z": -0.1231984645,
				"element": "H" 
			},
			{
				"x": -0.523791391,
				"y": -4.0413713769,
				"z": 1.1644843887,
				"element": "H" 
			},
			{
				"x": -1.6696159616,
				"y": -0.5409457238,
				"z": 0.3503153404,
				"element": "H" 
			},
			{
				"x": -0.4599604597,
				"y": -0.2871268731,
				"z": 3.0417727313,
				"element": "H" 
			},
			{
				"x": 2.6128871663,
				"y": 0.2234228385,
				"z": 1.1266174834,
				"element": "H" 
			},
			{
				"x": 3.9017704321,
				"y": -0.0936464701,
				"z": -0.9694126528,
				"element": "H" 
			},
			{
				"x": 3.6495141536,
				"y": -0.3927778265,
				"z": -3.5612312213,
				"element": "H" 
			},
			{
				"x": 2.5727054281,
				"y": 0.7370070684,
				"z": -4.3996593367,
				"element": "H" 
			},
			{
				"x": 4.0078115598,
				"y": 1.3331707437,
				"z": -3.5585494661,
				"element": "H" 
			},
			{
				"x": 0.698780605,
				"y": 1.6876254921,
				"z": -3.213921541,
				"element": "H" 
			},
			{
				"x": -0.5930519085,
				"y": 2.0096988658,
				"z": -1.1074330985,
				"element": "H" 
			},
			{
				"x": -3.6923460249,
				"y": 0.5806298376,
				"z": 3.5588832364,
				"element": "H" 
			}
		],
		 "valence_orbital": [ 
			{
				"type": "occ",
				"energy": -0.29835,
				"method": "rhf"
			},
			{
				"type": "occ",
				"energy": -0.29701,
				"method": "rhf"
			},
			{
				"type": "occ",
				"energy": -0.27003,
				"method": "rhf"
			},
			{
				"type": "occ",
				"energy": -0.26848,
				"method": "rhf"
			},
			{
				"type": "occ",
				"energy": -0.25242,
				"method": "rhf"
			},
			{
				"type": "unocc",
				"energy": -0.03752,
				"method": "rhf"
			},
			{
				"type": "unocc",
				"energy": -0.02087,
				"method": "rhf"
			},
			{
				"type": "unocc",
				"energy": 0.00443,
				"method": "rhf"
			},
			{
				"type": "unocc",
				"energy": 0.0551,
				"method": "rhf"
			},
			{
				"type": "unocc",
				"energy": 0.07143,
				"method": "rhf"
			}
		],
		"cosmo_sigma_profile": { 
			"-0.025": 0.0,
			"-0.024": 0.0,
			"-0.023": 0.0,
			"-0.022": 0.0,
			"-0.021": 0.0,
			"-0.02": 0.0,
			"-0.019": 0.282540130764,
			"-0.018": 1.06659168256,
			"-0.017": 0.710976254836,
			"-0.016": 1.26244422954,
			"-0.015": 0.218588053575,
			"-0.014": 1.02009761282,
			"-0.013": 0.840271167207,
			"-0.012": 1.6629961683,
			"-0.011": 1.41153256319,
			"-0.01": 1.32457810224,
			"-0.009": 1.09763011339,
			"-0.008": 1.79277671454,
			"-0.007": 5.7190060937,
			"-0.006": 12.6100821685,
			"-0.005": 17.9191829578,
			"-0.004": 24.2876795583,
			"-0.003": 29.4140068167,
			"-0.002": 27.6582069236,
			"-0.001": 28.7708526669,
			"0.0": 28.1060960963,
			"0.001": 24.3394768856,
			"0.002": 15.6041845625,
			"0.003": 20.214016219,
			"0.004": 9.83944041907,
			"0.005": 5.51646756787,
			"0.006": 4.25843455791,
			"0.007": 5.36172452783,
			"0.008": 5.60416886007,
			"0.009": 6.08496381716,
			"0.01": 9.90299718026,
			"0.011": 11.7271968305,
			"0.012": 4.80684073658,
			"0.013": 0.198579194877,
			"0.014": 0.0,
			"0.015": 0.0,
			"0.016": 0.0,
			"0.017": 0.0,
			"0.018": 0.0,
			"0.019": 0.0,
			"0.02": 0.0,
			"0.021": 0.0,
			"0.022": 0.0,
			"0.023": 0.0,
			"0.024": 0.0,
			"0.025": 0.0
		}
	}
}
