{
	 "smiles": "CCOC(=O)C1=C(N)N(N=C1)C1=NC=CS1", 
	 "Tm": 378.15, 
	 "num_atms": 26, 
	 "gaussian": { 
		 "optdone": 1, 
		 "sigma_profile": "yes", 
		 "theory": "DFT", 
		 "functional": "B3LYP", 
		 "basiset": "6-31G**", 
		 "properties": { 
			 "R2extent": 5921.4312, 
			 "electric_dipole_moment_norm": 2.47319137957, 
			 "electric_quadrupole_moment_norm": 26.3713366491, 
			 "total_energy": -1116.607454, 
			 "HOMO_LUMO_gap": 0.1759, 
			 "cosmo_polarized_energy": -16.21, 
			 "cosmo_cavitation_energy": 32.38, 
			 "cosmo_dispersion_energy": -24.41, 
			 "cosmo_repulsion_energy": 1.86, 
			 "cosmo_total_nonelectrostatic_energy": 9.83, 
			 "SMD_solvation_energy": 4.41 
		},
		"coords": [
			{
				"x": 3.107522786,
				"y": 2.989575488,
				"z": 0.4814566858,
				"element": "C" 
			},
			{
				"x": 3.3849610886,
				"y": 1.6578739342,
				"z": -0.2000879421,
				"element": "C" 
			},
			{
				"x": 2.3932830193,
				"y": 0.6662461741,
				"z": 0.156563291,
				"element": "O" 
			},
			{
				"x": 1.2564498895,
				"y": 0.6549100959,
				"z": -0.5729965352,
				"element": "C" 
			},
			{
				"x": 1.0416552416,
				"y": 1.4265551797,
				"z": -1.5066228389,
				"element": "O" 
			},
			{
				"x": 0.3251497639,
				"y": -0.3699551261,
				"z": -0.1455145391,
				"element": "C" 
			},
			{
				"x": -0.907293189,
				"y": -0.5904920671,
				"z": -0.76556413,
				"element": "C" 
			},
			{
				"x": -1.4893504658,
				"y": 0.1270071148,
				"z": -1.7691176056,
				"element": "N" 
			},
			{
				"x": -1.4778224833,
				"y": -1.6568434156,
				"z": -0.1168881789,
				"element": "N" 
			},
			{
				"x": -0.6567076053,
				"y": -2.1493352982,
				"z": 0.8977146733,
				"element": "N" 
			},
			{
				"x": 0.4000295808,
				"y": -1.3699071002,
				"z": 0.8662571917,
				"element": "C" 
			},
			{
				"x": -2.7059594939,
				"y": -2.2749196673,
				"z": -0.3649265838,
				"element": "C" 
			},
			{
				"x": -2.9156789322,
				"y": -3.543889465,
				"z": -0.1953575168,
				"element": "N" 
			},
			{
				"x": -4.2307258461,
				"y": -3.8544855687,
				"z": -0.4470790319,
				"element": "C" 
			},
			{
				"x": -5.0369960736,
				"y": -2.8224005571,
				"z": -0.8261117092,
				"element": "C" 
			},
			{
				"x": -4.1317631665,
				"y": -1.3403128664,
				"z": -0.8487243548,
				"element": "S" 
			},
			{
				"x": 3.0480783935,
				"y": 2.8668748231,
				"z": 1.5668873313,
				"element": "H" 
			},
			{
				"x": 3.9140749367,
				"y": 3.6962412283,
				"z": 0.258715707,
				"element": "H" 
			},
			{
				"x": 2.1683037723,
				"y": 3.4160723074,
				"z": 0.1210794578,
				"element": "H" 
			},
			{
				"x": 3.4010708063,
				"y": 1.7671745372,
				"z": -1.286933154,
				"element": "H" 
			},
			{
				"x": 4.3309060771,
				"y": 1.2258592287,
				"z": 0.1352792262,
				"element": "H" 
			},
			{
				"x": -0.8383867741,
				"y": 0.7982147796,
				"z": -2.1704063298,
				"element": "H" 
			},
			{
				"x": -2.0935885295,
				"y": -0.3594280209,
				"z": -2.4170924944,
				"element": "H" 
			},
			{
				"x": 1.2057151287,
				"y": -1.5302608288,
				"z": 1.5698264053,
				"element": "H" 
			},
			{
				"x": -4.5514654518,
				"y": -4.8849725721,
				"z": -0.3509639425,
				"element": "H" 
			},
			{
				"x": -6.0800624735,
				"y": -2.8414023377,
				"z": -1.1074930824,
				"element": "H" 
			}
		],
		 "valence_orbital": [ 
			{
				"type": "occ",
				"energy": -0.29096,
				"method": "rhf"
			},
			{
				"type": "occ",
				"energy": -0.28674,
				"method": "rhf"
			},
			{
				"type": "occ",
				"energy": -0.27262,
				"method": "rhf"
			},
			{
				"type": "occ",
				"energy": -0.23841,
				"method": "rhf"
			},
			{
				"type": "occ",
				"energy": -0.22209,
				"method": "rhf"
			},
			{
				"type": "unocc",
				"energy": -0.04619,
				"method": "rhf"
			},
			{
				"type": "unocc",
				"energy": -0.0105,
				"method": "rhf"
			},
			{
				"type": "unocc",
				"energy": 0.0038,
				"method": "rhf"
			},
			{
				"type": "unocc",
				"energy": 0.01907,
				"method": "rhf"
			},
			{
				"type": "unocc",
				"energy": 0.04503,
				"method": "rhf"
			}
		],
		"cosmo_sigma_profile": { 
			"-0.025": 0.0,
			"-0.024": 0.0,
			"-0.023": 0.0,
			"-0.022": 0.0,
			"-0.021": 0.0,
			"-0.02": 0.0,
			"-0.019": 0.0,
			"-0.018": 0.0,
			"-0.017": 0.0,
			"-0.016": 0.0,
			"-0.015": 0.00469229199362,
			"-0.014": 0.841141043946,
			"-0.013": 1.50884726218,
			"-0.012": 1.6578829124,
			"-0.011": 2.04719546474,
			"-0.01": 3.46487161176,
			"-0.009": 4.32746600241,
			"-0.008": 6.20967787181,
			"-0.007": 7.21877509285,
			"-0.006": 7.292274001,
			"-0.005": 11.8450067854,
			"-0.004": 16.2002613957,
			"-0.003": 19.1474512229,
			"-0.002": 20.8058431693,
			"-0.001": 22.9733333938,
			"0.0": 27.9188304574,
			"0.001": 24.3173447339,
			"0.002": 19.1471080104,
			"0.003": 12.1262393102,
			"0.004": 7.101149655,
			"0.005": 6.82293991337,
			"0.006": 6.30504761924,
			"0.007": 5.84784939755,
			"0.008": 3.51734298135,
			"0.009": 3.47363545758,
			"0.01": 4.08125456047,
			"0.011": 3.72234545657,
			"0.012": 3.49174128242,
			"0.013": 1.75246267971,
			"0.014": 2.03255241404,
			"0.015": 2.08766452138,
			"0.016": 1.75553634059,
			"0.017": 0.19768137352,
			"0.018": 0.0,
			"0.019": 0.0,
			"0.02": 0.0,
			"0.021": 0.0,
			"0.022": 0.0,
			"0.023": 0.0,
			"0.024": 0.0,
			"0.025": 0.0
		}
	}
}
