{
	 "smiles": "CC1=CC=C(O1)C(=O)C=CC1=CC=C(O1)C1=CC(=CC=C1)[N+]([O-])=O", 
	 "Tm": 433.15, 
	 "num_atms": 37, 
	 "gaussian": { 
		 "optdone": 1, 
		 "sigma_profile": "yes", 
		 "theory": "DFT", 
		 "functional": "B3LYP", 
		 "basiset": "6-31G**", 
		 "properties": { 
			 "R2extent": 12635.8317, 
			 "electric_dipole_moment_norm": 4.43477386571, 
			 "electric_quadrupole_moment_norm": 41.2378541612, 
			 "total_energy": -1124.46889651, 
			 "HOMO_LUMO_gap": 0.12145, 
			 "cosmo_polarized_energy": -17.87, 
			 "cosmo_cavitation_energy": 44.51, 
			 "cosmo_dispersion_energy": -30.8, 
			 "cosmo_repulsion_energy": 2.35, 
			 "cosmo_total_nonelectrostatic_energy": 16.06, 
			 "SMD_solvation_energy": 11.23 
		},
		"coords": [
			{
				"x": 3.0196346267,
				"y": -0.5111014042,
				"z": 5.6904733027,
				"element": "C" 
			},
			{
				"x": 1.8489390903,
				"y": 0.1438688828,
				"z": 5.0471248651,
				"element": "C" 
			},
			{
				"x": 1.6442913532,
				"y": 1.3975757443,
				"z": 4.5260760079,
				"element": "C" 
			},
			{
				"x": 0.3061958366,
				"y": 1.420603727,
				"z": 4.0481362027,
				"element": "C" 
			},
			{
				"x": -0.2256786173,
				"y": 0.1790969605,
				"z": 4.3063304242,
				"element": "C" 
			},
			{
				"x": 0.7227513949,
				"y": -0.6011000177,
				"z": 4.9218957624,
				"element": "O" 
			},
			{
				"x": -1.5528248271,
				"y": -0.4045881486,
				"z": 4.1095097937,
				"element": "C" 
			},
			{
				"x": -1.8697344104,
				"y": -1.4902581971,
				"z": 4.5829176397,
				"element": "O" 
			},
			{
				"x": -2.5599621125,
				"y": 0.4174648898,
				"z": 3.3598917243,
				"element": "C" 
			},
			{
				"x": -2.5273878739,
				"y": 0.7862032233,
				"z": 2.063559932,
				"element": "C" 
			},
			{
				"x": -1.5344271072,
				"y": 0.47033244,
				"z": 1.061507473,
				"element": "C" 
			},
			{
				"x": -0.4993349903,
				"y": -0.4300036718,
				"z": 0.9413165732,
				"element": "C" 
			},
			{
				"x": 0.0554293538,
				"y": -0.2505289233,
				"z": -0.3515786178,
				"element": "C" 
			},
			{
				"x": -0.670553924,
				"y": 0.7459373466,
				"z": -0.9630228503,
				"element": "C" 
			},
			{
				"x": -1.6419912804,
				"y": 1.1833174286,
				"z": -0.1088086352,
				"element": "O" 
			},
			{
				"x": -0.5996272003,
				"y": 1.3763201406,
				"z": -2.2724015314,
				"element": "C" 
			},
			{
				"x": 0.3955240553,
				"y": 0.9969942417,
				"z": -3.1876725967,
				"element": "C" 
			},
			{
				"x": 0.4422338773,
				"y": 1.6120765731,
				"z": -4.4318801915,
				"element": "C" 
			},
			{
				"x": -0.4621455554,
				"y": 2.6003088639,
				"z": -4.8186637833,
				"element": "C" 
			},
			{
				"x": -1.4472217505,
				"y": 2.974381502,
				"z": -3.9064054334,
				"element": "C" 
			},
			{
				"x": -1.5191758803,
				"y": 2.3744398375,
				"z": -2.6505425761,
				"element": "C" 
			},
			{
				"x": 1.4950098835,
				"y": 1.201645393,
				"z": -5.37927118,
				"element": "N" 
			},
			{
				"x": 2.2839699392,
				"y": 0.3300646023,
				"z": -5.0157493053,
				"element": "O" 
			},
			{
				"x": 1.5208543202,
				"y": 1.7565754789,
				"z": -6.4766158261,
				"element": "O" 
			},
			{
				"x": 2.7798535686,
				"y": -0.8334690114,
				"z": 6.7097153317,
				"element": "H" 
			},
			{
				"x": 3.8606927718,
				"y": 0.1838878092,
				"z": 5.7346327626,
				"element": "H" 
			},
			{
				"x": 3.3317765493,
				"y": -1.3999152931,
				"z": 5.1309832031,
				"element": "H" 
			},
			{
				"x": 2.3676872408,
				"y": 2.1996472377,
				"z": 4.4948018656,
				"element": "H" 
			},
			{
				"x": -0.2112806948,
				"y": 2.2427436681,
				"z": 3.5764068708,
				"element": "H" 
			},
			{
				"x": -3.457352853,
				"y": 0.6402885269,
				"z": 3.9321349094,
				"element": "H" 
			},
			{
				"x": -3.3666727805,
				"y": 1.3604838165,
				"z": 1.6758479807,
				"element": "H" 
			},
			{
				"x": -0.1896753434,
				"y": -1.1470820715,
				"z": 1.6864108288,
				"element": "H" 
			},
			{
				"x": 0.881692235,
				"y": -0.7988376363,
				"z": -0.7801651366,
				"element": "H" 
			},
			{
				"x": 1.130606187,
				"y": 0.2383002039,
				"z": -2.9521125458,
				"element": "H" 
			},
			{
				"x": -0.3811965098,
				"y": 3.0477981099,
				"z": -5.8006911299,
				"element": "H" 
			},
			{
				"x": -2.1664425021,
				"y": 3.7408342683,
				"z": -4.1772906087,
				"element": "H" 
			},
			{
				"x": -2.2902560703,
				"y": 2.6729934586,
				"z": -1.9494015056,
				"element": "H" 
			}
		],
		 "valence_orbital": [ 
			{
				"type": "occ",
				"energy": -0.28617,
				"method": "rhf"
			},
			{
				"type": "occ",
				"energy": -0.28196,
				"method": "rhf"
			},
			{
				"type": "occ",
				"energy": -0.25348,
				"method": "rhf"
			},
			{
				"type": "occ",
				"energy": -0.23737,
				"method": "rhf"
			},
			{
				"type": "occ",
				"energy": -0.21293,
				"method": "rhf"
			},
			{
				"type": "unocc",
				"energy": -0.09148,
				"method": "rhf"
			},
			{
				"type": "unocc",
				"energy": -0.07334,
				"method": "rhf"
			},
			{
				"type": "unocc",
				"energy": -0.05264,
				"method": "rhf"
			},
			{
				"type": "unocc",
				"energy": -0.02446,
				"method": "rhf"
			},
			{
				"type": "unocc",
				"energy": -0.00328,
				"method": "rhf"
			}
		],
		"cosmo_sigma_profile": { 
			"-0.025": 0.0,
			"-0.024": 0.0,
			"-0.023": 0.0,
			"-0.022": 0.0,
			"-0.021": 0.0,
			"-0.02": 0.0,
			"-0.019": 0.0,
			"-0.018": 0.0,
			"-0.017": 0.0,
			"-0.016": 0.0,
			"-0.015": 0.0,
			"-0.014": 0.0,
			"-0.013": 0.0,
			"-0.012": 0.0,
			"-0.011": 0.0,
			"-0.01": 0.0979696753916,
			"-0.009": 1.93436045824,
			"-0.008": 6.04225603058,
			"-0.007": 15.5516656237,
			"-0.006": 24.0763901527,
			"-0.005": 24.6311956895,
			"-0.004": 22.0411106012,
			"-0.003": 22.3699153577,
			"-0.002": 27.5833895608,
			"-0.001": 29.6023759748,
			"0.0": 34.2848645201,
			"0.001": 35.3064804909,
			"0.002": 27.0977746185,
			"0.003": 19.2235970791,
			"0.004": 11.6890722683,
			"0.005": 5.91771830434,
			"0.006": 6.35788467406,
			"0.007": 10.1715824266,
			"0.008": 9.59197980047,
			"0.009": 5.90340331688,
			"0.01": 5.02634088324,
			"0.011": 3.46056319965,
			"0.012": 5.28279539095,
			"0.013": 4.05620315828,
			"0.014": 0.947470439051,
			"0.015": 0.0,
			"0.016": 0.0,
			"0.017": 0.0,
			"0.018": 0.0,
			"0.019": 0.0,
			"0.02": 0.0,
			"0.021": 0.0,
			"0.022": 0.0,
			"0.023": 0.0,
			"0.024": 0.0,
			"0.025": 0.0
		}
	}
}
