{
	 "smiles": "CCOC(=O)NC(=O)CCl", 
	 "Tm": 402.15, 
	 "num_atms": 18, 
	 "gaussian": { 
		 "optdone": 1, 
		 "sigma_profile": "yes", 
		 "theory": "DFT", 
		 "functional": "B3LYP", 
		 "basiset": "6-31G**", 
		 "properties": { 
			 "R2extent": 2803.4789, 
			 "electric_dipole_moment_norm": 0.919124588943, 
			 "electric_quadrupole_moment_norm": 10.4762788303, 
			 "total_energy": -935.999686878, 
			 "HOMO_LUMO_gap": 0.24667, 
			 "cosmo_polarized_energy": -12.64, 
			 "cosmo_cavitation_energy": 24.65, 
			 "cosmo_dispersion_energy": -18.04, 
			 "cosmo_repulsion_energy": 1.53, 
			 "cosmo_total_nonelectrostatic_energy": 8.14, 
			 "SMD_solvation_energy": 6.23 
		},
		"coords": [
			{
				"x": -1.6827630475,
				"y": -2.5265927179,
				"z": 0.6215959019,
				"element": "C" 
			},
			{
				"x": -1.3656143288,
				"y": -1.2689571779,
				"z": 1.4059476039,
				"element": "C" 
			},
			{
				"x": -0.3984693045,
				"y": -0.5154105423,
				"z": 0.6301294505,
				"element": "O" 
			},
			{
				"x": -0.0059201224,
				"y": 0.6336264946,
				"z": 1.1763132922,
				"element": "C" 
			},
			{
				"x": -0.3781115679,
				"y": 1.089951263,
				"z": 2.2372050876,
				"element": "O" 
			},
			{
				"x": 0.9288488219,
				"y": 1.3246632275,
				"z": 0.3881376706,
				"element": "N" 
			},
			{
				"x": 1.4822768093,
				"y": 0.9948710131,
				"z": -0.832086947,
				"element": "C" 
			},
			{
				"x": 1.2547451927,
				"y": -0.0009854209,
				"z": -1.4862714847,
				"element": "O" 
			},
			{
				"x": 2.4888649754,
				"y": 1.9982894583,
				"z": -1.4140948867,
				"element": "C" 
			},
			{
				"x": 2.83902829,
				"y": 3.4911656182,
				"z": -0.4464002501,
				"element": "Cl" 
			},
			{
				"x": -2.1039730305,
				"y": -2.2805379294,
				"z": -0.3568580388,
				"element": "H" 
			},
			{
				"x": -0.7826143507,
				"y": -3.1275434955,
				"z": 0.4669328941,
				"element": "H" 
			},
			{
				"x": -2.4120605905,
				"y": -3.1286767976,
				"z": 1.1723361844,
				"element": "H" 
			},
			{
				"x": -2.2496314331,
				"y": -0.6441688169,
				"z": 1.5646693231,
				"element": "H" 
			},
			{
				"x": -0.9322568222,
				"y": -1.4889060322,
				"z": 2.3862107601,
				"element": "H" 
			},
			{
				"x": 1.219985844,
				"y": 2.1963420109,
				"z": 0.8142566459,
				"element": "H" 
			},
			{
				"x": 2.1141621355,
				"y": 2.3225337324,
				"z": -2.3852314511,
				"element": "H" 
			},
			{
				"x": 3.4353025294,
				"y": 1.4767361128,
				"z": -1.558491756,
				"element": "H" 
			}
		],
		 "valence_orbital": [ 
			{
				"type": "occ",
				"energy": -0.32176,
				"method": "rhf"
			},
			{
				"type": "occ",
				"energy": -0.31076,
				"method": "rhf"
			},
			{
				"type": "occ",
				"energy": -0.29579,
				"method": "rhf"
			},
			{
				"type": "occ",
				"energy": -0.29438,
				"method": "rhf"
			},
			{
				"type": "occ",
				"energy": -0.27313,
				"method": "rhf"
			},
			{
				"type": "unocc",
				"energy": -0.02646,
				"method": "rhf"
			},
			{
				"type": "unocc",
				"energy": 0.00434,
				"method": "rhf"
			},
			{
				"type": "unocc",
				"energy": 0.05822,
				"method": "rhf"
			},
			{
				"type": "unocc",
				"energy": 0.0898,
				"method": "rhf"
			},
			{
				"type": "unocc",
				"energy": 0.09894,
				"method": "rhf"
			}
		],
		"cosmo_sigma_profile": { 
			"-0.025": 0.0,
			"-0.024": 0.0,
			"-0.023": 0.0,
			"-0.022": 0.0,
			"-0.021": 0.0,
			"-0.02": 0.0,
			"-0.019": 0.0,
			"-0.018": 0.0,
			"-0.017": 0.0,
			"-0.016": 0.0,
			"-0.015": 0.0,
			"-0.014": 0.0,
			"-0.013": 0.0,
			"-0.012": 0.0,
			"-0.011": 0.709786653699,
			"-0.01": 3.0377966466,
			"-0.009": 6.0332092581,
			"-0.008": 4.91645122885,
			"-0.007": 5.74670932117,
			"-0.006": 8.86419996494,
			"-0.005": 14.1612123943,
			"-0.004": 20.601535527,
			"-0.003": 18.5983119927,
			"-0.002": 14.4895725868,
			"-0.001": 13.3487224048,
			"0.0": 11.7288917021,
			"0.001": 8.00942544038,
			"0.002": 7.71002560356,
			"0.003": 6.28949329593,
			"0.004": 8.16317904443,
			"0.005": 9.4861781746,
			"0.006": 3.44206651466,
			"0.007": 2.8194431054,
			"0.008": 2.45858473341,
			"0.009": 3.93882440703,
			"0.01": 4.26114044189,
			"0.011": 8.42858521089,
			"0.012": 7.58269861787,
			"0.013": 2.08459332455,
			"0.014": 0.350595073422,
			"0.015": 0.0,
			"0.016": 0.0,
			"0.017": 0.0,
			"0.018": 0.0,
			"0.019": 0.0,
			"0.02": 0.0,
			"0.021": 0.0,
			"0.022": 0.0,
			"0.023": 0.0,
			"0.024": 0.0,
			"0.025": 0.0
		}
	}
}
