{
	 "smiles": "OC(=O)C1=C(C=CS1)S(=O)(=O)N1CCCCC1", 
	 "Tm": 385.15, 
	 "num_atms": 30, 
	 "gaussian": { 
		 "optdone": 1, 
		 "sigma_profile": "yes", 
		 "theory": "DFT", 
		 "functional": "B3LYP", 
		 "basiset": "6-31G**", 
		 "properties": { 
			 "R2extent": 6214.4433, 
			 "electric_dipole_moment_norm": 4.42107369425, 
			 "electric_quadrupole_moment_norm": 32.7326892533, 
			 "total_energy": -1540.83951912, 
			 "HOMO_LUMO_gap": 0.16371, 
			 "cosmo_polarized_energy": -19.35, 
			 "cosmo_cavitation_energy": 34.57, 
			 "cosmo_dispersion_energy": -25.73, 
			 "cosmo_repulsion_energy": 1.9, 
			 "cosmo_total_nonelectrostatic_energy": 10.74, 
			 "SMD_solvation_energy": 5.06 
		},
		"coords": [
			{
				"x": 0.4541466613,
				"y": -4.1168817315,
				"z": -2.8503371445,
				"element": "O" 
			},
			{
				"x": 0.4381401737,
				"y": -3.1734854107,
				"z": -1.8731445243,
				"element": "C" 
			},
			{
				"x": 0.9022950245,
				"y": -2.0784388909,
				"z": -2.0730126787,
				"element": "O" 
			},
			{
				"x": -0.1237600604,
				"y": -3.6087204102,
				"z": -0.5652239735,
				"element": "C" 
			},
			{
				"x": -0.8013683738,
				"y": -2.8768753867,
				"z": 0.3883141588,
				"element": "C" 
			},
			{
				"x": -1.1502767371,
				"y": -3.6382704262,
				"z": 1.5430592622,
				"element": "C" 
			},
			{
				"x": -0.7221419808,
				"y": -4.9343806645,
				"z": 1.468169285,
				"element": "C" 
			},
			{
				"x": 0.1060564304,
				"y": -5.2532505502,
				"z": -0.0134139687,
				"element": "S" 
			},
			{
				"x": -1.3713045693,
				"y": -1.1660833171,
				"z": 0.2441506192,
				"element": "S" 
			},
			{
				"x": -1.8823087989,
				"y": -0.9835557588,
				"z": -1.1137401225,
				"element": "O" 
			},
			{
				"x": -2.2393648617,
				"y": -0.9907381187,
				"z": 1.4165786198,
				"element": "O" 
			},
			{
				"x": -0.0168080127,
				"y": -0.2269513668,
				"z": 0.4382424911,
				"element": "N" 
			},
			{
				"x": 0.4700233353,
				"y": 0.6160994674,
				"z": -0.6721768066,
				"element": "C" 
			},
			{
				"x": 0.0184328921,
				"y": 2.0712823104,
				"z": -0.5008446837,
				"element": "C" 
			},
			{
				"x": 0.4012240221,
				"y": 2.6170536429,
				"z": 0.8840567012,
				"element": "C" 
			},
			{
				"x": -0.1214927157,
				"y": 1.7029803791,
				"z": 2.0033026126,
				"element": "C" 
			},
			{
				"x": 0.3341860892,
				"y": 0.2542361511,
				"z": 1.7868604285,
				"element": "C" 
			},
			{
				"x": -0.1229000264,
				"y": -4.8598497055,
				"z": -2.6199131258,
				"element": "H" 
			},
			{
				"x": -1.7114714276,
				"y": -3.2207064182,
				"z": 2.3683389334,
				"element": "H" 
			},
			{
				"x": -0.8375456859,
				"y": -5.7201637498,
				"z": 2.202078468,
				"element": "H" 
			},
			{
				"x": 1.5655081638,
				"y": 0.5473827668,
				"z": -0.6645160287,
				"element": "H" 
			},
			{
				"x": 0.125866435,
				"y": 0.1887390092,
				"z": -1.6108895559,
				"element": "H" 
			},
			{
				"x": 0.4694840843,
				"y": 2.6812299795,
				"z": -1.2928903534,
				"element": "H" 
			},
			{
				"x": -1.0692807983,
				"y": 2.1210650327,
				"z": -0.6360716714,
				"element": "H" 
			},
			{
				"x": 0.0159476118,
				"y": 3.6346083123,
				"z": 1.0141023494,
				"element": "H" 
			},
			{
				"x": 1.4965700587,
				"y": 2.6858012745,
				"z": 0.9553364666,
				"element": "H" 
			},
			{
				"x": 0.2301873138,
				"y": 2.0500367551,
				"z": 2.9826333339,
				"element": "H" 
			},
			{
				"x": -1.2175504137,
				"y": 1.7203172474,
				"z": 2.0247219806,
				"element": "H" 
			},
			{
				"x": -0.1075661765,
				"y": -0.4104219923,
				"z": 2.530373254,
				"element": "H" 
			},
			{
				"x": 1.4265723433,
				"y": 0.1803415696,
				"z": 1.8776556734,
				"element": "H" 
			}
		],
		 "valence_orbital": [ 
			{
				"type": "occ",
				"energy": -0.29968,
				"method": "rhf"
			},
			{
				"type": "occ",
				"energy": -0.2962,
				"method": "rhf"
			},
			{
				"type": "occ",
				"energy": -0.28718,
				"method": "rhf"
			},
			{
				"type": "occ",
				"energy": -0.26908,
				"method": "rhf"
			},
			{
				"type": "occ",
				"energy": -0.24028,
				"method": "rhf"
			},
			{
				"type": "unocc",
				"energy": -0.07657,
				"method": "rhf"
			},
			{
				"type": "unocc",
				"energy": -0.01614,
				"method": "rhf"
			},
			{
				"type": "unocc",
				"energy": 0.00517,
				"method": "rhf"
			},
			{
				"type": "unocc",
				"energy": 0.02561,
				"method": "rhf"
			},
			{
				"type": "unocc",
				"energy": 0.05694,
				"method": "rhf"
			}
		],
		"cosmo_sigma_profile": { 
			"-0.025": 0.0,
			"-0.024": 0.0,
			"-0.023": 0.0,
			"-0.022": 0.0,
			"-0.021": 0.0,
			"-0.02": 0.0,
			"-0.019": 0.350905098531,
			"-0.018": 0.860289573711,
			"-0.017": 0.849809996344,
			"-0.016": 0.972827821963,
			"-0.015": 0.783811010001,
			"-0.014": 0.926802257075,
			"-0.013": 0.996081674787,
			"-0.012": 1.36703554504,
			"-0.011": 1.40058906145,
			"-0.01": 3.05758514566,
			"-0.009": 3.03070938998,
			"-0.008": 3.3270875184,
			"-0.007": 4.95303176113,
			"-0.006": 6.01405376515,
			"-0.005": 10.6260865636,
			"-0.004": 17.5606449811,
			"-0.003": 28.556515718,
			"-0.002": 31.7317563513,
			"-0.001": 30.5313094906,
			"0.0": 29.7931188564,
			"0.001": 16.6295496441,
			"0.002": 10.1513890515,
			"0.003": 6.30192820751,
			"0.004": 5.94554111186,
			"0.005": 5.93133523272,
			"0.006": 5.79611860263,
			"0.007": 7.37934795681,
			"0.008": 9.08703626148,
			"0.009": 8.82204533917,
			"0.01": 10.0877261069,
			"0.011": 8.38516270041,
			"0.012": 3.13272432384,
			"0.013": 0.0425171858686,
			"0.014": 0.0,
			"0.015": 0.0,
			"0.016": 0.0,
			"0.017": 0.0,
			"0.018": 0.0,
			"0.019": 0.0,
			"0.02": 0.0,
			"0.021": 0.0,
			"0.022": 0.0,
			"0.023": 0.0,
			"0.024": 0.0,
			"0.025": 0.0
		}
	}
}
