{
	 "smiles": "NC1=NN=C(O1)C1=CC(OC(F)F)=CC=C1", 
	 "Tm": 453.15, 
	 "num_atms": 23, 
	 "gaussian": { 
		 "optdone": 1, 
		 "sigma_profile": "yes", 
		 "theory": "DFT", 
		 "functional": "B3LYP", 
		 "basiset": "6-31G**", 
		 "properties": { 
			 "R2extent": 5439.4955, 
			 "electric_dipole_moment_norm": 5.42407675462, 
			 "electric_quadrupole_moment_norm": 16.9450682991, 
			 "total_energy": -861.527468488, 
			 "HOMO_LUMO_gap": 0.17377, 
			 "cosmo_polarized_energy": -17.58, 
			 "cosmo_cavitation_energy": 29.77, 
			 "cosmo_dispersion_energy": -21.74, 
			 "cosmo_repulsion_energy": 1.66, 
			 "cosmo_total_nonelectrostatic_energy": 9.68, 
			 "SMD_solvation_energy": 4.9 
		},
		"coords": [
			{
				"x": 2.837078181,
				"y": 1.5593852611,
				"z": -4.5714196128,
				"element": "N" 
			},
			{
				"x": 2.2786312378,
				"y": 1.5322435532,
				"z": -3.3252028013,
				"element": "C" 
			},
			{
				"x": 2.8096217425,
				"y": 1.8881284336,
				"z": -2.1908127314,
				"element": "N" 
			},
			{
				"x": 1.7912564223,
				"y": 1.7497684012,
				"z": -1.2464189528,
				"element": "N" 
			},
			{
				"x": 0.7418140483,
				"y": 1.313735034,
				"z": -1.8684437305,
				"element": "C" 
			},
			{
				"x": 0.9799870514,
				"y": 1.1523159228,
				"z": -3.2214826809,
				"element": "O" 
			},
			{
				"x": -0.5751886753,
				"y": 0.9947239102,
				"z": -1.3344495353,
				"element": "C" 
			},
			{
				"x": -0.7775816549,
				"y": 1.1056121462,
				"z": 0.0530043897,
				"element": "C" 
			},
			{
				"x": -2.0350641616,
				"y": 0.8201470464,
				"z": 0.5759902845,
				"element": "C" 
			},
			{
				"x": -2.3344445767,
				"y": 0.902178944,
				"z": 1.9249197082,
				"element": "O" 
			},
			{
				"x": -1.5942522685,
				"y": 1.7575042763,
				"z": 2.7072669248,
				"element": "C" 
			},
			{
				"x": -2.2906064106,
				"y": 1.9384911356,
				"z": 3.842586355,
				"element": "F" 
			},
			{
				"x": -0.399061748,
				"y": 1.1941354072,
				"z": 3.0410368505,
				"element": "F" 
			},
			{
				"x": -3.0837525264,
				"y": 0.4002023187,
				"z": -0.2501863332,
				"element": "C" 
			},
			{
				"x": -2.864837295,
				"y": 0.2771939562,
				"z": -1.6187802007,
				"element": "C" 
			},
			{
				"x": -1.6189423455,
				"y": 0.5785315865,
				"z": -2.1708794894,
				"element": "C" 
			},
			{
				"x": 2.4956822618,
				"y": 0.8663685188,
				"z": -5.2226904242,
				"element": "H" 
			},
			{
				"x": 3.8424201529,
				"y": 1.6605412243,
				"z": -4.5569385703,
				"element": "H" 
			},
			{
				"x": 0.054366097,
				"y": 1.3833831731,
				"z": 0.6878198428,
				"element": "H" 
			},
			{
				"x": -1.3998024278,
				"y": 2.7198345967,
				"z": 2.2190394323,
				"element": "H" 
			},
			{
				"x": -4.0479695868,
				"y": 0.1815259289,
				"z": 0.1955038374,
				"element": "H" 
			},
			{
				"x": -3.6753696895,
				"y": -0.0481073894,
				"z": -2.2635905929,
				"element": "H" 
			},
			{
				"x": -1.4545838284,
				"y": 0.4910566147,
				"z": -3.2387719694,
				"element": "H" 
			}
		],
		 "valence_orbital": [ 
			{
				"type": "occ",
				"energy": -0.31988,
				"method": "rhf"
			},
			{
				"type": "occ",
				"energy": -0.28348,
				"method": "rhf"
			},
			{
				"type": "occ",
				"energy": -0.27482,
				"method": "rhf"
			},
			{
				"type": "occ",
				"energy": -0.25328,
				"method": "rhf"
			},
			{
				"type": "occ",
				"energy": -0.22468,
				"method": "rhf"
			},
			{
				"type": "unocc",
				"energy": -0.05091,
				"method": "rhf"
			},
			{
				"type": "unocc",
				"energy": -0.0124,
				"method": "rhf"
			},
			{
				"type": "unocc",
				"energy": 0.03204,
				"method": "rhf"
			},
			{
				"type": "unocc",
				"energy": 0.05857,
				"method": "rhf"
			},
			{
				"type": "unocc",
				"energy": 0.0648,
				"method": "rhf"
			}
		],
		"cosmo_sigma_profile": { 
			"-0.025": 0.0,
			"-0.024": 0.0,
			"-0.023": 0.0,
			"-0.022": 0.0,
			"-0.021": 0.0,
			"-0.02": 0.0,
			"-0.019": 0.0,
			"-0.018": 0.0,
			"-0.017": 0.0,
			"-0.016": 0.273663654295,
			"-0.015": 2.68766883153,
			"-0.014": 2.34243603509,
			"-0.013": 2.53058305912,
			"-0.012": 2.53108828708,
			"-0.011": 2.99635535773,
			"-0.01": 4.92627385097,
			"-0.009": 4.43924479184,
			"-0.008": 4.33468121921,
			"-0.007": 7.6095419991,
			"-0.006": 7.87297827844,
			"-0.005": 10.0749671723,
			"-0.004": 9.56798808471,
			"-0.003": 11.1916576877,
			"-0.002": 12.0380025447,
			"-0.001": 13.6729006439,
			"0.0": 15.1346717988,
			"0.001": 19.728121641,
			"0.002": 22.3528902927,
			"0.003": 31.4901541079,
			"0.004": 17.1102521876,
			"0.005": 4.93291939674,
			"0.006": 3.61638637198,
			"0.007": 4.03459940563,
			"0.008": 2.62577177562,
			"0.009": 2.33911548291,
			"0.01": 3.30064577403,
			"0.011": 2.68560989754,
			"0.012": 3.47685741902,
			"0.013": 2.80386392062,
			"0.014": 2.60280954288,
			"0.015": 1.3090609469,
			"0.016": 0.751170065382,
			"0.017": 0.0,
			"0.018": 0.0,
			"0.019": 0.0,
			"0.02": 0.0,
			"0.021": 0.0,
			"0.022": 0.0,
			"0.023": 0.0,
			"0.024": 0.0,
			"0.025": 0.0
		}
	}
}
