{
	 "smiles": "FC1=C(F)C(F)(F)C1(F)F", 
	 "Tm": 213.15, 
	 "num_atms": 10, 
	 "gaussian": { 
		 "optdone": 1, 
		 "sigma_profile": "yes", 
		 "theory": "DFT", 
		 "functional": "B3LYP", 
		 "basiset": "6-31G**", 
		 "properties": { 
			 "R2extent": 2483.2376, 
			 "electric_dipole_moment_norm": 1.28673530301, 
			 "electric_quadrupole_moment_norm": 3.29038805462, 
			 "total_energy": -751.363795243, 
			 "HOMO_LUMO_gap": 0.27639, 
			 "cosmo_polarized_energy": -2.54, 
			 "cosmo_cavitation_energy": 18.15, 
			 "cosmo_dispersion_energy": -12.24, 
			 "cosmo_repulsion_energy": 0.9, 
			 "cosmo_total_nonelectrostatic_energy": 6.81, 
			 "SMD_solvation_energy": 6.09 
		},
		"coords": [
			{
				"x": -0.5832184184,
				"y": -1.0524806134,
				"z": 1.7113733119,
				"element": "F" 
			},
			{
				"x": -0.5616159753,
				"y": 0.2535885617,
				"z": 1.5445014285,
				"element": "C" 
			},
			{
				"x": 0.2889933793,
				"y": 1.1193057008,
				"z": 0.9734495294,
				"element": "C" 
			},
			{
				"x": 1.4440532478,
				"y": 1.0108133719,
				"z": 0.3503960389,
				"element": "F" 
			},
			{
				"x": -0.5488581224,
				"y": 2.328284378,
				"z": 1.2910635247,
				"element": "C" 
			},
			{
				"x": -1.0592219039,
				"y": 3.0030018587,
				"z": 0.2360325554,
				"element": "F" 
			},
			{
				"x": -0.0093798669,
				"y": 3.229717816,
				"z": 2.1426281592,
				"element": "F" 
			},
			{
				"x": -1.5436259952,
				"y": 1.3157751144,
				"z": 1.9591881686,
				"element": "C" 
			},
			{
				"x": -1.7157163443,
				"y": 1.4927075004,
				"z": 3.2888075272,
				"element": "F" 
			},
			{
				"x": -2.7657100008,
				"y": 1.2662863116,
				"z": 1.3822597562,
				"element": "F" 
			}
		],
		 "valence_orbital": [ 
			{
				"type": "occ",
				"energy": -0.41624,
				"method": "rhf"
			},
			{
				"type": "occ",
				"energy": -0.41149,
				"method": "rhf"
			},
			{
				"type": "occ",
				"energy": -0.39912,
				"method": "rhf"
			},
			{
				"type": "occ",
				"energy": -0.33113,
				"method": "rhf"
			},
			{
				"type": "occ",
				"energy": -0.30705,
				"method": "rhf"
			},
			{
				"type": "unocc",
				"energy": -0.03066,
				"method": "rhf"
			},
			{
				"type": "unocc",
				"energy": 0.03674,
				"method": "rhf"
			},
			{
				"type": "unocc",
				"energy": 0.09196,
				"method": "rhf"
			},
			{
				"type": "unocc",
				"energy": 0.15099,
				"method": "rhf"
			},
			{
				"type": "unocc",
				"energy": 0.16171,
				"method": "rhf"
			}
		],
		"cosmo_sigma_profile": { 
			"-0.025": 0.0,
			"-0.024": 0.0,
			"-0.023": 0.0,
			"-0.022": 0.0,
			"-0.021": 0.0,
			"-0.02": 0.0,
			"-0.019": 0.0,
			"-0.018": 0.0,
			"-0.017": 0.0,
			"-0.016": 0.0,
			"-0.015": 0.0,
			"-0.014": 0.0,
			"-0.013": 0.0,
			"-0.012": 0.0,
			"-0.011": 0.0,
			"-0.01": 0.0,
			"-0.009": 0.0,
			"-0.008": 0.0,
			"-0.007": 0.310501546511,
			"-0.006": 4.78439447019,
			"-0.005": 10.3382601315,
			"-0.004": 10.6613321379,
			"-0.003": 8.96083731077,
			"-0.002": 9.40648459303,
			"-0.001": 8.02041523248,
			"0.0": 9.85789800615,
			"0.001": 25.4302847222,
			"0.002": 28.6230223001,
			"0.003": 30.7035901668,
			"0.004": 0.291023293428,
			"0.005": 0.0,
			"0.006": 0.0,
			"0.007": 0.0,
			"0.008": 0.0,
			"0.009": 0.0,
			"0.01": 0.0,
			"0.011": 0.0,
			"0.012": 0.0,
			"0.013": 0.0,
			"0.014": 0.0,
			"0.015": 0.0,
			"0.016": 0.0,
			"0.017": 0.0,
			"0.018": 0.0,
			"0.019": 0.0,
			"0.02": 0.0,
			"0.021": 0.0,
			"0.022": 0.0,
			"0.023": 0.0,
			"0.024": 0.0,
			"0.025": 0.0
		}
	}
}
