{
	 "smiles": "CN1C=C(C=N1)C(N)=S", 
	 "Tm": 463.15, 
	 "num_atms": 16, 
	 "gaussian": { 
		 "optdone": 1, 
		 "sigma_profile": "yes", 
		 "theory": "DFT", 
		 "functional": "B3LYP", 
		 "basiset": "6-31G**", 
		 "properties": { 
			 "R2extent": 2332.1578, 
			 "electric_dipole_moment_norm": 3.23761462345, 
			 "electric_quadrupole_moment_norm": 23.4101084765, 
			 "total_energy": -757.179904791, 
			 "HOMO_LUMO_gap": 0.15867, 
			 "cosmo_polarized_energy": -18.27, 
			 "cosmo_cavitation_energy": 21.99, 
			 "cosmo_dispersion_energy": -16.78, 
			 "cosmo_repulsion_energy": 1.33, 
			 "cosmo_total_nonelectrostatic_energy": 6.54, 
			 "SMD_solvation_energy": 2.56 
		},
		"coords": [
			{
				"x": 3.0260776767,
				"y": 1.3626546454,
				"z": 2.1910600693,
				"element": "C" 
			},
			{
				"x": 1.756327267,
				"y": 0.9329588928,
				"z": 1.6326221318,
				"element": "N" 
			},
			{
				"x": 0.7322071983,
				"y": 0.3265085356,
				"z": 2.2648292711,
				"element": "C" 
			},
			{
				"x": -0.264792796,
				"y": 0.1110788929,
				"z": 1.3177868076,
				"element": "C" 
			},
			{
				"x": 0.2916530346,
				"y": 0.6454191688,
				"z": 0.1216278738,
				"element": "C" 
			},
			{
				"x": 1.5085138126,
				"y": 1.1394144939,
				"z": 0.3135146015,
				"element": "N" 
			},
			{
				"x": -1.5598116044,
				"y": -0.5227738064,
				"z": 1.5627340728,
				"element": "C" 
			},
			{
				"x": -2.3761162323,
				"y": -0.6274254011,
				"z": 0.4903360675,
				"element": "N" 
			},
			{
				"x": -2.0335754623,
				"y": -1.0936956182,
				"z": 3.0659749472,
				"element": "S" 
			},
			{
				"x": 3.8477427637,
				"y": 0.8529762181,
				"z": 1.6821073172,
				"element": "H" 
			},
			{
				"x": 3.0458232307,
				"y": 1.1165020996,
				"z": 3.2533902527,
				"element": "H" 
			},
			{
				"x": 3.1425000082,
				"y": 2.4415719367,
				"z": 2.0633009167,
				"element": "H" 
			},
			{
				"x": 0.7479788937,
				"y": 0.0812312272,
				"z": 3.3158866066,
				"element": "H" 
			},
			{
				"x": -0.1372745172,
				"y": 0.6934440237,
				"z": -0.871666249,
				"element": "H" 
			},
			{
				"x": -2.1180577169,
				"y": -0.2930838308,
				"z": -0.4251734227,
				"element": "H" 
			},
			{
				"x": -3.2792955563,
				"y": -1.0584814781,
				"z": 0.6164687358,
				"element": "H" 
			}
		],
		 "valence_orbital": [ 
			{
				"type": "occ",
				"energy": -0.30257,
				"method": "rhf"
			},
			{
				"type": "occ",
				"energy": -0.26935,
				"method": "rhf"
			},
			{
				"type": "occ",
				"energy": -0.26145,
				"method": "rhf"
			},
			{
				"type": "occ",
				"energy": -0.21712,
				"method": "rhf"
			},
			{
				"type": "occ",
				"energy": -0.20336,
				"method": "rhf"
			},
			{
				"type": "unocc",
				"energy": -0.04469,
				"method": "rhf"
			},
			{
				"type": "unocc",
				"energy": 0.00706,
				"method": "rhf"
			},
			{
				"type": "unocc",
				"energy": 0.06221,
				"method": "rhf"
			},
			{
				"type": "unocc",
				"energy": 0.0866,
				"method": "rhf"
			},
			{
				"type": "unocc",
				"energy": 0.09568,
				"method": "rhf"
			}
		],
		"cosmo_sigma_profile": { 
			"-0.025": 0.0,
			"-0.024": 0.0,
			"-0.023": 0.0,
			"-0.022": 0.0,
			"-0.021": 0.0,
			"-0.02": 0.0,
			"-0.019": 0.0,
			"-0.018": 0.0,
			"-0.017": 0.0,
			"-0.016": 0.55145392573,
			"-0.015": 2.02847416705,
			"-0.014": 2.95911572404,
			"-0.013": 2.8255768539,
			"-0.012": 2.1928997388,
			"-0.011": 2.3330829471,
			"-0.01": 3.6927048323,
			"-0.009": 4.47054594793,
			"-0.008": 4.64924948243,
			"-0.007": 7.13913039094,
			"-0.006": 9.85366112517,
			"-0.005": 8.48026232659,
			"-0.004": 11.3000638078,
			"-0.003": 11.7428350714,
			"-0.002": 5.65109593631,
			"-0.001": 5.6455961263,
			"0.0": 6.21034745285,
			"0.001": 8.33487580408,
			"0.002": 10.5216884278,
			"0.003": 10.0634677034,
			"0.004": 6.88189882535,
			"0.005": 6.09952198657,
			"0.006": 6.18688740505,
			"0.007": 4.86195314002,
			"0.008": 5.54631548002,
			"0.009": 6.27551075106,
			"0.01": 9.72479653286,
			"0.011": 5.74871852914,
			"0.012": 3.39076479257,
			"0.013": 0.950696627773,
			"0.014": 1.01642319059,
			"0.015": 0.759267654067,
			"0.016": 0.0,
			"0.017": 0.0,
			"0.018": 0.0,
			"0.019": 0.0,
			"0.02": 0.0,
			"0.021": 0.0,
			"0.022": 0.0,
			"0.023": 0.0,
			"0.024": 0.0,
			"0.025": 0.0
		}
	}
}
