{
	 "smiles": "CCCCC1CCC(CC1)C(=O)CC#N", 
	 "Tm": 326.15, 
	 "num_atms": 36, 
	 "gaussian": { 
		 "optdone": 1, 
		 "sigma_profile": "yes", 
		 "theory": "DFT", 
		 "functional": "B3LYP", 
		 "basiset": "6-31G**", 
		 "properties": { 
			 "R2extent": 5042.0777, 
			 "electric_dipole_moment_norm": 2.47368076154, 
			 "electric_quadrupole_moment_norm": 21.3970647125, 
			 "total_energy": -638.021411484, 
			 "HOMO_LUMO_gap": 0.22558, 
			 "cosmo_polarized_energy": -10.94, 
			 "cosmo_cavitation_energy": 36.46, 
			 "cosmo_dispersion_energy": -24.68, 
			 "cosmo_repulsion_energy": 1.95, 
			 "cosmo_total_nonelectrostatic_energy": 13.73, 
			 "SMD_solvation_energy": 6.87 
		},
		"coords": [
			{
				"x": -1.3355411368,
				"y": 3.4105264936,
				"z": -2.3559953208,
				"element": "C" 
			},
			{
				"x": -1.8059960452,
				"y": 1.9567518414,
				"z": -2.4833155393,
				"element": "C" 
			},
			{
				"x": -0.6837368692,
				"y": 0.9498721534,
				"z": -2.792213369,
				"element": "C" 
			},
			{
				"x": 0.4272735175,
				"y": 0.8338433923,
				"z": -1.732094412,
				"element": "C" 
			},
			{
				"x": -0.0136549481,
				"y": 0.3916035322,
				"z": -0.3236448422,
				"element": "C" 
			},
			{
				"x": -0.6563510215,
				"y": -1.0080810099,
				"z": -0.3094794375,
				"element": "C" 
			},
			{
				"x": -1.0403362331,
				"y": -1.473724587,
				"z": 1.1056272942,
				"element": "C" 
			},
			{
				"x": 0.1225245014,
				"y": -1.3930974082,
				"z": 2.1104385912,
				"element": "C" 
			},
			{
				"x": 0.7779952746,
				"y": 0.012701043,
				"z": 2.0749467381,
				"element": "C" 
			},
			{
				"x": 1.1779218376,
				"y": 0.4287417146,
				"z": 0.6526786319,
				"element": "C" 
			},
			{
				"x": 1.1438725031,
				"y": -2.5034480981,
				"z": 1.9034537941,
				"element": "C" 
			},
			{
				"x": 1.0945768012,
				"y": -3.3182722981,
				"z": 1.0066417023,
				"element": "O" 
			},
			{
				"x": 2.3446095029,
				"y": -2.5971145042,
				"z": 2.8890154348,
				"element": "C" 
			},
			{
				"x": 2.066002279,
				"y": -2.2117932155,
				"z": 4.2699539918,
				"element": "C" 
			},
			{
				"x": 1.8232245823,
				"y": -1.9067749636,
				"z": 5.3636520285,
				"element": "N" 
			},
			{
				"x": -0.8105167268,
				"y": 3.736091988,
				"z": -3.2617507667,
				"element": "H" 
			},
			{
				"x": -0.651491021,
				"y": 3.5477490776,
				"z": -1.5119073205,
				"element": "H" 
			},
			{
				"x": -2.1828473817,
				"y": 4.0869701377,
				"z": -2.202770331,
				"element": "H" 
			},
			{
				"x": -2.5527569191,
				"y": 1.8931429671,
				"z": -3.2850619238,
				"element": "H" 
			},
			{
				"x": -2.3310586708,
				"y": 1.6617122968,
				"z": -1.5654089259,
				"element": "H" 
			},
			{
				"x": -0.2147745689,
				"y": 1.2306500797,
				"z": -3.7452275771,
				"element": "H" 
			},
			{
				"x": -1.1315473188,
				"y": -0.036971472,
				"z": -2.9626170124,
				"element": "H" 
			},
			{
				"x": 0.9475079534,
				"y": 1.7972457475,
				"z": -1.6464643224,
				"element": "H" 
			},
			{
				"x": 1.1802071793,
				"y": 0.1216920214,
				"z": -2.0986487275,
				"element": "H" 
			},
			{
				"x": -0.7588341703,
				"y": 1.1111483518,
				"z": 0.0509715347,
				"element": "H" 
			},
			{
				"x": -1.5536924039,
				"y": -1.0209813675,
				"z": -0.9381931955,
				"element": "H" 
			},
			{
				"x": 0.0431351,
				"y": -1.7304612604,
				"z": -0.7472165689,
				"element": "H" 
			},
			{
				"x": -1.852783611,
				"y": -0.8419354274,
				"z": 1.4878904216,
				"element": "H" 
			},
			{
				"x": -1.4244202255,
				"y": -2.4979110186,
				"z": 1.0670508063,
				"element": "H" 
			},
			{
				"x": -0.2631775019,
				"y": -1.5468476838,
				"z": 3.1290246235,
				"element": "H" 
			},
			{
				"x": 0.0439152147,
				"y": 0.726812736,
				"z": 2.4681327874,
				"element": "H" 
			},
			{
				"x": 1.6364901453,
				"y": 0.0637285351,
				"z": 2.7537474155,
				"element": "H" 
			},
			{
				"x": 1.9689779816,
				"y": -0.2371456871,
				"z": 0.2752015787,
				"element": "H" 
			},
			{
				"x": 1.611435349,
				"y": 1.4362759658,
				"z": 0.6762925461,
				"element": "H" 
			},
			{
				"x": 2.7095607309,
				"y": -3.6271303973,
				"z": 2.8505327186,
				"element": "H" 
			},
			{
				"x": 3.1459863196,
				"y": -1.9564696764,
				"z": 2.497956953,
				"element": "H" 
			}
		],
		 "valence_orbital": [ 
			{
				"type": "occ",
				"energy": -0.32539,
				"method": "rhf"
			},
			{
				"type": "occ",
				"energy": -0.31248,
				"method": "rhf"
			},
			{
				"type": "occ",
				"energy": -0.30035,
				"method": "rhf"
			},
			{
				"type": "occ",
				"energy": -0.29742,
				"method": "rhf"
			},
			{
				"type": "occ",
				"energy": -0.26389,
				"method": "rhf"
			},
			{
				"type": "unocc",
				"energy": -0.03831,
				"method": "rhf"
			},
			{
				"type": "unocc",
				"energy": 0.02201,
				"method": "rhf"
			},
			{
				"type": "unocc",
				"energy": 0.02774,
				"method": "rhf"
			},
			{
				"type": "unocc",
				"energy": 0.06425,
				"method": "rhf"
			},
			{
				"type": "unocc",
				"energy": 0.07589,
				"method": "rhf"
			}
		],
		"cosmo_sigma_profile": { 
			"-0.025": 0.0,
			"-0.024": 0.0,
			"-0.023": 0.0,
			"-0.022": 0.0,
			"-0.021": 0.0,
			"-0.02": 0.0,
			"-0.019": 0.0,
			"-0.018": 0.0,
			"-0.017": 0.0,
			"-0.016": 0.0,
			"-0.015": 0.0,
			"-0.014": 0.0,
			"-0.013": 0.0,
			"-0.012": 0.0,
			"-0.011": 0.058631913047,
			"-0.01": 2.4411811271,
			"-0.009": 5.59293367462,
			"-0.008": 5.42052595419,
			"-0.007": 6.10977241779,
			"-0.006": 6.67617862128,
			"-0.005": 5.97072519464,
			"-0.004": 6.26280428877,
			"-0.003": 16.3929615857,
			"-0.002": 38.6366804322,
			"-0.001": 48.8575088786,
			"0.0": 44.0204626619,
			"0.001": 34.1851930762,
			"0.002": 15.7506022506,
			"0.003": 4.55559001717,
			"0.004": 2.99961670512,
			"0.005": 4.12227031845,
			"0.006": 3.52960435758,
			"0.007": 4.41535128495,
			"0.008": 4.67157857491,
			"0.009": 5.46722570899,
			"0.01": 5.41864653366,
			"0.011": 6.5889909303,
			"0.012": 2.90673493103,
			"0.013": 1.45082652825,
			"0.014": 0.0277162969595,
			"0.015": 0.0,
			"0.016": 0.0,
			"0.017": 0.0,
			"0.018": 0.0,
			"0.019": 0.0,
			"0.02": 0.0,
			"0.021": 0.0,
			"0.022": 0.0,
			"0.023": 0.0,
			"0.024": 0.0,
			"0.025": 0.0
		}
	}
}
