{
	 "smiles": "CCC1(NC(=O)NC1=O)C1=CC(Cl)=CC=C1", 
	 "Tm": 433.15, 
	 "num_atms": 27, 
	 "gaussian": { 
		 "optdone": 1, 
		 "sigma_profile": "yes", 
		 "theory": "DFT", 
		 "functional": "B3LYP", 
		 "basiset": "6-31G**", 
		 "properties": { 
			 "R2extent": 4387.9105, 
			 "electric_dipole_moment_norm": 2.68165482119, 
			 "electric_quadrupole_moment_norm": 15.0028241891, 
			 "total_energy": -1145.99112451, 
			 "HOMO_LUMO_gap": 0.21951, 
			 "cosmo_polarized_energy": -16.74, 
			 "cosmo_cavitation_energy": 32.51, 
			 "cosmo_dispersion_energy": -22.85, 
			 "cosmo_repulsion_energy": 1.81, 
			 "cosmo_total_nonelectrostatic_energy": 11.47, 
			 "SMD_solvation_energy": 6.85 
		},
		"coords": [
			{
				"x": -0.3167128243,
				"y": -2.5318512258,
				"z": -0.3891591093,
				"element": "C" 
			},
			{
				"x": 0.5548130002,
				"y": -1.3309515679,
				"z": -0.7654919374,
				"element": "C" 
			},
			{
				"x": 0.5164238592,
				"y": -0.1668354044,
				"z": 0.2635432474,
				"element": "C" 
			},
			{
				"x": 1.1174650401,
				"y": -0.5484371992,
				"z": 1.5391970733,
				"element": "N" 
			},
			{
				"x": 2.3128372826,
				"y": 0.0771621276,
				"z": 1.8019949665,
				"element": "C" 
			},
			{
				"x": 3.0784127507,
				"y": -0.1131829076,
				"z": 2.722291371,
				"element": "O" 
			},
			{
				"x": 2.4814627246,
				"y": 1.0124831845,
				"z": 0.7599435464,
				"element": "N" 
			},
			{
				"x": 1.5087803063,
				"y": 0.9324558782,
				"z": -0.2097000557,
				"element": "C" 
			},
			{
				"x": 1.4458472057,
				"y": 1.5666862986,
				"z": -1.241222367,
				"element": "O" 
			},
			{
				"x": -0.8917671829,
				"y": 0.4229040828,
				"z": 0.4189481074,
				"element": "C" 
			},
			{
				"x": -1.5357904806,
				"y": 0.9665066282,
				"z": -0.702858978,
				"element": "C" 
			},
			{
				"x": -2.8208935193,
				"y": 1.4855923391,
				"z": -0.5714620231,
				"element": "C" 
			},
			{
				"x": -3.6158186748,
				"y": 2.1674382368,
				"z": -1.9840947047,
				"element": "Cl" 
			},
			{
				"x": -3.4922175744,
				"y": 1.4800572289,
				"z": 0.6513251932,
				"element": "C" 
			},
			{
				"x": -2.841823318,
				"y": 0.947583015,
				"z": 1.7625289136,
				"element": "C" 
			},
			{
				"x": -1.5515184462,
				"y": 0.4256677706,
				"z": 1.652214361,
				"element": "C" 
			},
			{
				"x": 0.0036129024,
				"y": -2.992649174,
				"z": 0.5524513312,
				"element": "H" 
			},
			{
				"x": -0.2475961868,
				"y": -3.3033153212,
				"z": -1.1615247118,
				"element": "H" 
			},
			{
				"x": -1.3682599519,
				"y": -2.2492355936,
				"z": -0.2877079072,
				"element": "H" 
			},
			{
				"x": 0.2470757475,
				"y": -0.9291847566,
				"z": -1.7352824944,
				"element": "H" 
			},
			{
				"x": 1.5996328729,
				"y": -1.6459783864,
				"z": -0.8746528729,
				"element": "H" 
			},
			{
				"x": 0.8985871526,
				"y": -1.4037863793,
				"z": 2.0262192874,
				"element": "H" 
			},
			{
				"x": 3.2822518343,
				"y": 1.6262394664,
				"z": 0.7109783246,
				"element": "H" 
			},
			{
				"x": -1.0286540616,
				"y": 1.0189461774,
				"z": -1.6582696452,
				"element": "H" 
			},
			{
				"x": -4.4939287922,
				"y": 1.8877999611,
				"z": 0.726761209,
				"element": "H" 
			},
			{
				"x": -3.3443790341,
				"y": 0.9420752158,
				"z": 2.7251704463,
				"element": "H" 
			},
			{
				"x": -1.0525426321,
				"y": 0.033110305,
				"z": 2.5306594284,
				"element": "H" 
			}
		],
		 "valence_orbital": [ 
			{
				"type": "occ",
				"energy": -0.29535,
				"method": "rhf"
			},
			{
				"type": "occ",
				"energy": -0.27849,
				"method": "rhf"
			},
			{
				"type": "occ",
				"energy": -0.2724,
				"method": "rhf"
			},
			{
				"type": "occ",
				"energy": -0.26292,
				"method": "rhf"
			},
			{
				"type": "occ",
				"energy": -0.251,
				"method": "rhf"
			},
			{
				"type": "unocc",
				"energy": -0.03149,
				"method": "rhf"
			},
			{
				"type": "unocc",
				"energy": -0.01976,
				"method": "rhf"
			},
			{
				"type": "unocc",
				"energy": -0.00766,
				"method": "rhf"
			},
			{
				"type": "unocc",
				"energy": 0.0279,
				"method": "rhf"
			},
			{
				"type": "unocc",
				"energy": 0.04773,
				"method": "rhf"
			}
		],
		"cosmo_sigma_profile": { 
			"-0.025": 0.0,
			"-0.024": 0.0,
			"-0.023": 0.0,
			"-0.022": 0.0,
			"-0.021": 0.0,
			"-0.02": 0.0,
			"-0.019": 0.0,
			"-0.018": 0.0,
			"-0.017": 0.689965575613,
			"-0.016": 1.20774522693,
			"-0.015": 1.52544223049,
			"-0.014": 2.15240037715,
			"-0.013": 1.49776228639,
			"-0.012": 1.58373051985,
			"-0.011": 3.13543266142,
			"-0.01": 1.89518738021,
			"-0.009": 1.92839087279,
			"-0.008": 2.95805434629,
			"-0.007": 6.21126644437,
			"-0.006": 11.4102978238,
			"-0.005": 12.5151266593,
			"-0.004": 15.3118295831,
			"-0.003": 18.5289997256,
			"-0.002": 22.0060230097,
			"-0.001": 20.3148477183,
			"0.0": 22.4932520032,
			"0.001": 16.8759350357,
			"0.002": 18.2424684489,
			"0.003": 19.3941366189,
			"0.004": 15.8436756431,
			"0.005": 9.33051464826,
			"0.006": 2.0110018105,
			"0.007": 2.76959135164,
			"0.008": 3.41565379896,
			"0.009": 2.40454000111,
			"0.01": 3.10248364931,
			"0.011": 6.34073978668,
			"0.012": 7.66149991772,
			"0.013": 5.42548663516,
			"0.014": 0.341465662534,
			"0.015": 0.0,
			"0.016": 0.0,
			"0.017": 0.0,
			"0.018": 0.0,
			"0.019": 0.0,
			"0.02": 0.0,
			"0.021": 0.0,
			"0.022": 0.0,
			"0.023": 0.0,
			"0.024": 0.0,
			"0.025": 0.0
		}
	}
}
