{
	 "smiles": "O=S(=O)(N1CCCCC1)C1=CC2=C(NCCC2)C=C1", 
	 "Tm": 395.15, 
	 "num_atms": 39, 
	 "gaussian": { 
		 "optdone": 1, 
		 "sigma_profile": "yes", 
		 "theory": "DFT", 
		 "functional": "B3LYP", 
		 "basiset": "6-31G**", 
		 "properties": { 
			 "R2extent": 6974.007, 
			 "electric_dipole_moment_norm": 7.36703302897, 
			 "electric_quadrupole_moment_norm": 27.5130045575, 
			 "total_energy": -1203.63879352, 
			 "HOMO_LUMO_gap": 0.19154, 
			 "cosmo_polarized_energy": -17.63, 
			 "cosmo_cavitation_energy": 39.65, 
			 "cosmo_dispersion_energy": -29.22, 
			 "cosmo_repulsion_energy": 2.23, 
			 "cosmo_total_nonelectrostatic_energy": 12.65, 
			 "SMD_solvation_energy": 2.53 
		},
		"coords": [
			{
				"x": 1.6022690297,
				"y": 0.7602728183,
				"z": -3.2478143504,
				"element": "O" 
			},
			{
				"x": 1.0512803503,
				"y": -0.4716367262,
				"z": -2.6739933523,
				"element": "S" 
			},
			{
				"x": 1.3270151915,
				"y": -1.7890579172,
				"z": -3.2556782537,
				"element": "O" 
			},
			{
				"x": -0.6347517023,
				"y": -0.2893332689,
				"z": -2.7245755589,
				"element": "N" 
			},
			{
				"x": -1.1622978946,
				"y": 1.0091114678,
				"z": -2.2716494828,
				"element": "C" 
			},
			{
				"x": -2.5929299094,
				"y": 1.1899157229,
				"z": -2.791693207,
				"element": "C" 
			},
			{
				"x": -3.4898522122,
				"y": 0.0181088542,
				"z": -2.370858771,
				"element": "C" 
			},
			{
				"x": -2.8640247119,
				"y": -1.3149897185,
				"z": -2.8020282769,
				"element": "C" 
			},
			{
				"x": -1.4281890757,
				"y": -1.4487411162,
				"z": -2.2818969301,
				"element": "C" 
			},
			{
				"x": 1.5339263052,
				"y": -0.5301581589,
				"z": -0.9557169232,
				"element": "C" 
			},
			{
				"x": 1.8539813366,
				"y": 0.6517851184,
				"z": -0.2800999881,
				"element": "C" 
			},
			{
				"x": 2.2101614347,
				"y": 0.6400563805,
				"z": 1.0658433372,
				"element": "C" 
			},
			{
				"x": 2.2275563258,
				"y": -0.5969475917,
				"z": 1.7583202997,
				"element": "C" 
			},
			{
				"x": 2.5234166384,
				"y": -0.6440025444,
				"z": 3.108075175,
				"element": "N" 
			},
			{
				"x": 3.1109427741,
				"y": 0.4976955358,
				"z": 3.7959118945,
				"element": "C" 
			},
			{
				"x": 2.4423078081,
				"y": 1.7841743222,
				"z": 3.3072968726,
				"element": "C" 
			},
			{
				"x": 2.6026235242,
				"y": 1.916609089,
				"z": 1.7864566821,
				"element": "C" 
			},
			{
				"x": 1.9076516281,
				"y": -1.7828424385,
				"z": 1.0651473817,
				"element": "C" 
			},
			{
				"x": 1.5669142372,
				"y": -1.7549141319,
				"z": -0.2787744078,
				"element": "C" 
			},
			{
				"x": -0.5096771703,
				"y": 1.7913446313,
				"z": -2.6618293745,
				"element": "H" 
			},
			{
				"x": -1.1567492931,
				"y": 1.0698247962,
				"z": -1.1688190567,
				"element": "H" 
			},
			{
				"x": -2.9898535911,
				"y": 2.1397304362,
				"z": -2.4146307298,
				"element": "H" 
			},
			{
				"x": -2.5618238616,
				"y": 1.2592450765,
				"z": -3.8855987956,
				"element": "H" 
			},
			{
				"x": -3.611838742,
				"y": 0.026818459,
				"z": -1.2782545329,
				"element": "H" 
			},
			{
				"x": -4.4920437313,
				"y": 0.1283404104,
				"z": -2.8001898504,
				"element": "H" 
			},
			{
				"x": -3.4551694974,
				"y": -2.1609109474,
				"z": -2.4322005819,
				"element": "H" 
			},
			{
				"x": -2.8477063543,
				"y": -1.3804615882,
				"z": -3.8964944606,
				"element": "H" 
			},
			{
				"x": -0.9577005537,
				"y": -2.3491150603,
				"z": -2.6793710243,
				"element": "H" 
			},
			{
				"x": -1.4367088119,
				"y": -1.518592579,
				"z": -1.1796996122,
				"element": "H" 
			},
			{
				"x": 1.8562821427,
				"y": 1.5896453773,
				"z": -0.8274944682,
				"element": "H" 
			},
			{
				"x": 2.746161051,
				"y": -1.5563687798,
				"z": 3.4780863402,
				"element": "H" 
			},
			{
				"x": 2.9567371779,
				"y": 0.3665800488,
				"z": 4.8720637585,
				"element": "H" 
			},
			{
				"x": 4.1990697691,
				"y": 0.5611084655,
				"z": 3.62593733,
				"element": "H" 
			},
			{
				"x": 2.8838327289,
				"y": 2.646379864,
				"z": 3.8172040983,
				"element": "H" 
			},
			{
				"x": 1.3790186099,
				"y": 1.7527928431,
				"z": 3.5717913357,
				"element": "H" 
			},
			{
				"x": 3.6490515362,
				"y": 2.160810341,
				"z": 1.554540377,
				"element": "H" 
			},
			{
				"x": 2.0055406189,
				"y": 2.7552505918,
				"z": 1.4113998689,
				"element": "H" 
			},
			{
				"x": 1.9371462779,
				"y": -2.7312789877,
				"z": 1.5962205992,
				"element": "H" 
			},
			{
				"x": 1.3531306163,
				"y": -2.6736490955,
				"z": -0.8136333611,
				"element": "H" 
			}
		],
		 "valence_orbital": [ 
			{
				"type": "occ",
				"energy": -0.28361,
				"method": "rhf"
			},
			{
				"type": "occ",
				"energy": -0.2819,
				"method": "rhf"
			},
			{
				"type": "occ",
				"energy": -0.25351,
				"method": "rhf"
			},
			{
				"type": "occ",
				"energy": -0.2459,
				"method": "rhf"
			},
			{
				"type": "occ",
				"energy": -0.20501,
				"method": "rhf"
			},
			{
				"type": "unocc",
				"energy": -0.01347,
				"method": "rhf"
			},
			{
				"type": "unocc",
				"energy": -0.01073,
				"method": "rhf"
			},
			{
				"type": "unocc",
				"energy": 0.067,
				"method": "rhf"
			},
			{
				"type": "unocc",
				"energy": 0.07592,
				"method": "rhf"
			},
			{
				"type": "unocc",
				"energy": 0.08779,
				"method": "rhf"
			}
		],
		"cosmo_sigma_profile": { 
			"-0.025": 0.0,
			"-0.024": 0.0,
			"-0.023": 0.0,
			"-0.022": 0.0,
			"-0.021": 0.0,
			"-0.02": 0.0,
			"-0.019": 0.0,
			"-0.018": 0.0,
			"-0.017": 0.0,
			"-0.016": 0.0,
			"-0.015": 0.0,
			"-0.014": 0.0468396202999,
			"-0.013": 1.33207063319,
			"-0.012": 1.36499354128,
			"-0.011": 1.54719914178,
			"-0.01": 1.12659865913,
			"-0.009": 1.87279458537,
			"-0.008": 1.51250591163,
			"-0.007": 1.90674448206,
			"-0.006": 4.19279002497,
			"-0.005": 8.68613958108,
			"-0.004": 22.8979252961,
			"-0.003": 48.8260467843,
			"-0.002": 53.0523517762,
			"-0.001": 39.1939833052,
			"0.0": 26.1488888995,
			"0.001": 11.8081669887,
			"0.002": 9.37048340636,
			"0.003": 10.0551557446,
			"0.004": 13.6268586232,
			"0.005": 9.61414441193,
			"0.006": 4.91412236261,
			"0.007": 4.10189184267,
			"0.008": 5.10015881145,
			"0.009": 5.81679782908,
			"0.01": 4.89610177997,
			"0.011": 7.27190273204,
			"0.012": 8.10188393831,
			"0.013": 1.36278457591,
			"0.014": 0.0,
			"0.015": 0.0,
			"0.016": 0.0,
			"0.017": 0.0,
			"0.018": 0.0,
			"0.019": 0.0,
			"0.02": 0.0,
			"0.021": 0.0,
			"0.022": 0.0,
			"0.023": 0.0,
			"0.024": 0.0,
			"0.025": 0.0
		}
	}
}
