{
	 "smiles": "CC(C)[C@H](NC(C)=O)C(O)=O", 
	 "Tm": 420.65, 
	 "num_atms": 24, 
	 "gaussian": { 
		 "optdone": 1, 
		 "sigma_profile": "yes", 
		 "theory": "DFT", 
		 "functional": "B3LYP", 
		 "basiset": "6-31G**", 
		 "properties": { 
			 "R2extent": 1994.8164, 
			 "electric_dipole_moment_norm": 5.65496305028, 
			 "electric_quadrupole_moment_norm": 9.93101922362, 
			 "total_energy": -555.048623794, 
			 "HOMO_LUMO_gap": 0.24651, 
			 "cosmo_polarized_energy": -16.07, 
			 "cosmo_cavitation_energy": 26.02, 
			 "cosmo_dispersion_energy": -18.96, 
			 "cosmo_repulsion_energy": 1.54, 
			 "cosmo_total_nonelectrostatic_energy": 8.6, 
			 "SMD_solvation_energy": 5.95 
		},
		"coords": [
			{
				"x": -0.3682015198,
				"y": 2.4778886844,
				"z": 1.4836705719,
				"element": "C" 
			},
			{
				"x": -0.3212197092,
				"y": 1.8324641178,
				"z": 0.0898119895,
				"element": "C" 
			},
			{
				"x": -1.6990503566,
				"y": 1.8885741691,
				"z": -0.5935989963,
				"element": "C" 
			},
			{
				"x": 0.2918938913,
				"y": 0.4162478148,
				"z": 0.1585713887,
				"element": "C" 
			},
			{
				"x": 0.553531849,
				"y": -0.091341059,
				"z": -1.1973891425,
				"element": "N" 
			},
			{
				"x": 1.5032160835,
				"y": -1.0181512,
				"z": -1.4700275687,
				"element": "C" 
			},
			{
				"x": 1.7748918542,
				"y": -1.3153801219,
				"z": -2.9291473869,
				"element": "C" 
			},
			{
				"x": 2.1266007163,
				"y": -1.5971813546,
				"z": -0.5683285936,
				"element": "O" 
			},
			{
				"x": -0.5162186169,
				"y": -0.6174492564,
				"z": 0.9894843596,
				"element": "C" 
			},
			{
				"x": 0.1080283811,
				"y": -1.7862194466,
				"z": 1.1677575731,
				"element": "O" 
			},
			{
				"x": -1.6085593329,
				"y": -0.4002796133,
				"z": 1.4658059275,
				"element": "O" 
			},
			{
				"x": -1.0665770296,
				"y": 1.9466750437,
				"z": 2.1336952465,
				"element": "H" 
			},
			{
				"x": 0.6194071189,
				"y": 2.4741498402,
				"z": 1.9585563193,
				"element": "H" 
			},
			{
				"x": -0.6943157349,
				"y": 3.5197297371,
				"z": 1.4051057315,
				"element": "H" 
			},
			{
				"x": 0.3850445426,
				"y": 2.4141308317,
				"z": -0.5207310667,
				"element": "H" 
			},
			{
				"x": -2.0339866431,
				"y": 2.9282115858,
				"z": -0.6652586042,
				"element": "H" 
			},
			{
				"x": -2.4348532934,
				"y": 1.3208125452,
				"z": -0.0222478304,
				"element": "H" 
			},
			{
				"x": -1.6851534259,
				"y": 1.4934784233,
				"z": -1.6176479582,
				"element": "H" 
			},
			{
				"x": 1.2731077505,
				"y": 0.4907200189,
				"z": 0.6462262566,
				"element": "H" 
			},
			{
				"x": 0.0245204111,
				"y": 0.3110045457,
				"z": -1.95658543,
				"element": "H" 
			},
			{
				"x": 2.8269336473,
				"y": -1.1011710967,
				"z": -3.1368412311,
				"element": "H" 
			},
			{
				"x": 1.1512236196,
				"y": -0.7392874234,
				"z": -3.617154242,
				"element": "H" 
			},
			{
				"x": 1.6187028418,
				"y": -2.3825394308,
				"z": -3.1071093936,
				"element": "H" 
			},
			{
				"x": 0.9753329552,
				"y": -1.7957873549,
				"z": 0.6858820802,
				"element": "H" 
			}
		],
		 "valence_orbital": [ 
			{
				"type": "occ",
				"energy": -0.34033,
				"method": "rhf"
			},
			{
				"type": "occ",
				"energy": -0.30052,
				"method": "rhf"
			},
			{
				"type": "occ",
				"energy": -0.29551,
				"method": "rhf"
			},
			{
				"type": "occ",
				"energy": -0.28058,
				"method": "rhf"
			},
			{
				"type": "occ",
				"energy": -0.25241,
				"method": "rhf"
			},
			{
				"type": "unocc",
				"energy": -0.0059,
				"method": "rhf"
			},
			{
				"type": "unocc",
				"energy": 0.01378,
				"method": "rhf"
			},
			{
				"type": "unocc",
				"energy": 0.05118,
				"method": "rhf"
			},
			{
				"type": "unocc",
				"energy": 0.0831,
				"method": "rhf"
			},
			{
				"type": "unocc",
				"energy": 0.10698,
				"method": "rhf"
			}
		],
		"cosmo_sigma_profile": { 
			"-0.025": 0.0,
			"-0.024": 0.0,
			"-0.023": 0.0,
			"-0.022": 0.0,
			"-0.021": 0.0,
			"-0.02": 0.0,
			"-0.019": 0.0,
			"-0.018": 0.0,
			"-0.017": 0.0,
			"-0.016": 0.0,
			"-0.015": 0.33550520959,
			"-0.014": 0.951286332017,
			"-0.013": 1.32252564031,
			"-0.012": 1.67596461479,
			"-0.011": 1.43076930899,
			"-0.01": 1.3998289677,
			"-0.009": 1.84200837391,
			"-0.008": 2.49802673839,
			"-0.007": 4.54054549546,
			"-0.006": 9.6305037476,
			"-0.005": 9.65275489838,
			"-0.004": 15.3949024597,
			"-0.003": 21.7992569017,
			"-0.002": 25.3440040556,
			"-0.001": 16.5879410303,
			"0.0": 17.3140556502,
			"0.001": 15.409407966,
			"0.002": 7.30425912139,
			"0.003": 3.49667220089,
			"0.004": 3.80167020294,
			"0.005": 3.72155004421,
			"0.006": 3.78215772258,
			"0.007": 4.79190047027,
			"0.008": 2.15885079297,
			"0.009": 4.65498695648,
			"0.01": 4.86922190771,
			"0.011": 6.86134619682,
			"0.012": 5.99869158745,
			"0.013": 3.78609306808,
			"0.014": 1.03503236361,
			"0.015": 0.0,
			"0.016": 0.0,
			"0.017": 0.0,
			"0.018": 0.0,
			"0.019": 0.0,
			"0.02": 0.0,
			"0.021": 0.0,
			"0.022": 0.0,
			"0.023": 0.0,
			"0.024": 0.0,
			"0.025": 0.0
		}
	}
}
