{
	 "smiles": "O=CN1CC(=O)NC(=O)C1", 
	 "Tm": 487.15, 
	 "num_atms": 16, 
	 "gaussian": { 
		 "optdone": 1, 
		 "sigma_profile": "yes", 
		 "theory": "DFT", 
		 "functional": "B3LYP", 
		 "basiset": "6-31G**", 
		 "properties": { 
			 "R2extent": 1574.3133, 
			 "electric_dipole_moment_norm": 2.75405785342, 
			 "electric_quadrupole_moment_norm": 12.8320375779, 
			 "total_energy": -529.344541835, 
			 "HOMO_LUMO_gap": 0.21697, 
			 "cosmo_polarized_energy": -18.7, 
			 "cosmo_cavitation_energy": 20.71, 
			 "cosmo_dispersion_energy": -15.3, 
			 "cosmo_repulsion_energy": 1.25, 
			 "cosmo_total_nonelectrostatic_energy": 6.66, 
			 "SMD_solvation_energy": 6.16 
		},
		"coords": [
			{
				"x": 2.5048359534,
				"y": -1.3450748423,
				"z": 0.29340402,
				"element": "O" 
			},
			{
				"x": 1.7244572913,
				"y": -0.4378433545,
				"z": 0.5102546633,
				"element": "C" 
			},
			{
				"x": 0.3585665089,
				"y": -0.5762158874,
				"z": 0.5665805976,
				"element": "N" 
			},
			{
				"x": -0.5314120939,
				"y": 0.5491587404,
				"z": 0.7632641765,
				"element": "C" 
			},
			{
				"x": -1.5452953578,
				"y": 0.6907682215,
				"z": -0.369503375,
				"element": "C" 
			},
			{
				"x": -2.1164536249,
				"y": 1.7311596372,
				"z": -0.6210198257,
				"element": "O" 
			},
			{
				"x": -1.8035425465,
				"y": -0.4814127221,
				"z": -1.074967394,
				"element": "N" 
			},
			{
				"x": -1.3043657036,
				"y": -1.7637628049,
				"z": -0.8278194349,
				"element": "C" 
			},
			{
				"x": -1.7131619052,
				"y": -2.7272883205,
				"z": -1.4394129385,
				"element": "O" 
			},
			{
				"x": -0.2540951866,
				"y": -1.85877808,
				"z": 0.2717495148,
				"element": "C" 
			},
			{
				"x": 2.0418035961,
				"y": 0.6064060823,
				"z": 0.6940527993,
				"element": "H" 
			},
			{
				"x": 0.0385838693,
				"y": 1.4791736542,
				"z": 0.8164771259,
				"element": "H" 
			},
			{
				"x": -1.0958383133,
				"y": 0.4554345007,
				"z": 1.703955825,
				"element": "H" 
			},
			{
				"x": -2.5017385542,
				"y": -0.4135279365,
				"z": -1.8096781437,
				"element": "H" 
			},
			{
				"x": -0.7368492415,
				"y": -2.2876439751,
				"z": 1.1623527503,
				"element": "H" 
			},
			{
				"x": 0.5299053086,
				"y": -2.5469529131,
				"z": -0.0481903609,
				"element": "H" 
			}
		],
		 "valence_orbital": [ 
			{
				"type": "occ",
				"energy": -0.32318,
				"method": "rhf"
			},
			{
				"type": "occ",
				"energy": -0.30757,
				"method": "rhf"
			},
			{
				"type": "occ",
				"energy": -0.2831,
				"method": "rhf"
			},
			{
				"type": "occ",
				"energy": -0.27785,
				"method": "rhf"
			},
			{
				"type": "occ",
				"energy": -0.26442,
				"method": "rhf"
			},
			{
				"type": "unocc",
				"energy": -0.04745,
				"method": "rhf"
			},
			{
				"type": "unocc",
				"energy": 0.00131,
				"method": "rhf"
			},
			{
				"type": "unocc",
				"energy": 0.01387,
				"method": "rhf"
			},
			{
				"type": "unocc",
				"energy": 0.06776,
				"method": "rhf"
			},
			{
				"type": "unocc",
				"energy": 0.08916,
				"method": "rhf"
			}
		],
		"cosmo_sigma_profile": { 
			"-0.025": 0.0,
			"-0.024": 0.0,
			"-0.023": 0.0,
			"-0.022": 0.0,
			"-0.021": 0.0,
			"-0.02": 0.0,
			"-0.019": 0.0,
			"-0.018": 0.0,
			"-0.017": 0.0,
			"-0.016": 0.576673049464,
			"-0.015": 1.03215486574,
			"-0.014": 0.637485228256,
			"-0.013": 1.05418472564,
			"-0.012": 0.878614449581,
			"-0.011": 2.46055530709,
			"-0.01": 5.42939320413,
			"-0.009": 8.76451670447,
			"-0.008": 9.74865190608,
			"-0.007": 9.67069875094,
			"-0.006": 10.5623259815,
			"-0.005": 11.1709130069,
			"-0.004": 8.75480329788,
			"-0.003": 8.53592544823,
			"-0.002": 7.37828604289,
			"-0.001": 5.18465203234,
			"0.0": 4.0987861496,
			"0.001": 4.34838530342,
			"0.002": 3.94250781599,
			"0.003": 3.76085320828,
			"0.004": 4.07856453653,
			"0.005": 2.6476984487,
			"0.006": 3.30240157833,
			"0.007": 3.35432810122,
			"0.008": 4.84161710763,
			"0.009": 5.51674430836,
			"0.01": 6.36634825814,
			"0.011": 12.0928851246,
			"0.012": 9.83536158481,
			"0.013": 3.69418080324,
			"0.014": 1.00142598331,
			"0.015": 0.000848047768525,
			"0.016": 0.0,
			"0.017": 0.0,
			"0.018": 0.0,
			"0.019": 0.0,
			"0.02": 0.0,
			"0.021": 0.0,
			"0.022": 0.0,
			"0.023": 0.0,
			"0.024": 0.0,
			"0.025": 0.0
		}
	}
}
