{
	 "smiles": "CC(=O)C1=C(NC(=O)CCCCl)C=CC=C1", 
	 "Tm": 329.15, 
	 "num_atms": 30, 
	 "gaussian": { 
		 "optdone": 1, 
		 "sigma_profile": "yes", 
		 "theory": "DFT", 
		 "functional": "B3LYP", 
		 "basiset": "6-31G**", 
		 "properties": { 
			 "R2extent": 4761.81, 
			 "electric_dipole_moment_norm": 2.5278323639, 
			 "electric_quadrupole_moment_norm": 17.116525445, 
			 "total_energy": -1131.12538102, 
			 "HOMO_LUMO_gap": 0.1877, 
			 "cosmo_polarized_energy": -17.07, 
			 "cosmo_cavitation_energy": 35.03, 
			 "cosmo_dispersion_energy": -23.59, 
			 "cosmo_repulsion_energy": 1.86, 
			 "cosmo_total_nonelectrostatic_energy": 13.3, 
			 "SMD_solvation_energy": 6.89 
		},
		"coords": [
			{
				"x": 1.8298425407,
				"y": -1.2741167235,
				"z": 0.304333697,
				"element": "C" 
			},
			{
				"x": 1.4300862231,
				"y": -0.0615917572,
				"z": 1.1299587702,
				"element": "C" 
			},
			{
				"x": 1.6298312268,
				"y": -0.0484565212,
				"z": 2.334920041,
				"element": "O" 
			},
			{
				"x": 0.8768641305,
				"y": 1.1740252054,
				"z": 0.4611390556,
				"element": "C" 
			},
			{
				"x": 0.083440332,
				"y": 1.1859724758,
				"z": -0.7044338463,
				"element": "C" 
			},
			{
				"x": -0.3689540726,
				"y": -0.0213340237,
				"z": -1.3107845129,
				"element": "N" 
			},
			{
				"x": -1.3345009681,
				"y": -0.9024556519,
				"z": -0.8585491785,
				"element": "C" 
			},
			{
				"x": -1.6380075542,
				"y": -1.8749932746,
				"z": -1.5338125781,
				"element": "O" 
			},
			{
				"x": -1.9534873201,
				"y": -0.6396260925,
				"z": 0.5144605901,
				"element": "C" 
			},
			{
				"x": -3.4158663113,
				"y": -1.1103684953,
				"z": 0.5844277523,
				"element": "C" 
			},
			{
				"x": -4.4457654666,
				"y": -0.0336745979,
				"z": 0.2674099743,
				"element": "C" 
			},
			{
				"x": -4.2761107069,
				"y": 0.6582008689,
				"z": -1.4113468871,
				"element": "Cl" 
			},
			{
				"x": -0.287757415,
				"y": 2.4068962971,
				"z": -1.2821432414,
				"element": "C" 
			},
			{
				"x": 0.1085484375,
				"y": 3.6130085471,
				"z": -0.7089963044,
				"element": "C" 
			},
			{
				"x": 0.852855052,
				"y": 3.6104994309,
				"z": 0.4737748982,
				"element": "C" 
			},
			{
				"x": 1.2175647258,
				"y": 2.4009697424,
				"z": 1.0552893373,
				"element": "C" 
			},
			{
				"x": 2.602294024,
				"y": -1.810835592,
				"z": 0.858734345,
				"element": "H" 
			},
			{
				"x": 2.1964555853,
				"y": -0.9958221993,
				"z": -0.6868086752,
				"element": "H" 
			},
			{
				"x": 0.9829581352,
				"y": -1.9514015709,
				"z": 0.1572496997,
				"element": "H" 
			},
			{
				"x": -0.1133993447,
				"y": -0.1937246679,
				"z": -2.2759800567,
				"element": "H" 
			},
			{
				"x": -1.3586799794,
				"y": -1.2078762009,
				"z": 1.2404376616,
				"element": "H" 
			},
			{
				"x": -1.8608495324,
				"y": 0.4121692713,
				"z": 0.7986187309,
				"element": "H" 
			},
			{
				"x": -3.6424397962,
				"y": -1.4498270671,
				"z": 1.6032645402,
				"element": "H" 
			},
			{
				"x": -3.5406455859,
				"y": -1.9685381945,
				"z": -0.0815790825,
				"element": "H" 
			},
			{
				"x": -5.4606265052,
				"y": -0.4300938836,
				"z": 0.3231622785,
				"element": "H" 
			},
			{
				"x": -4.359644607,
				"y": 0.8189211439,
				"z": 0.9444305679,
				"element": "H" 
			},
			{
				"x": -0.9147786117,
				"y": 2.3942349325,
				"z": -2.1684458145,
				"element": "H" 
			},
			{
				"x": -0.1834415341,
				"y": 4.5510976998,
				"z": -1.1717019721,
				"element": "H" 
			},
			{
				"x": 1.1475019554,
				"y": 4.5471639482,
				"z": 0.9371648097,
				"element": "H" 
			},
			{
				"x": 1.7965129433,
				"y": 2.3736769503,
				"z": 1.9723054002,
				"element": "H" 
			}
		],
		 "valence_orbital": [ 
			{
				"type": "occ",
				"energy": -0.28784,
				"method": "rhf"
			},
			{
				"type": "occ",
				"energy": -0.27097,
				"method": "rhf"
			},
			{
				"type": "occ",
				"energy": -0.261,
				"method": "rhf"
			},
			{
				"type": "occ",
				"energy": -0.25272,
				"method": "rhf"
			},
			{
				"type": "occ",
				"energy": -0.24777,
				"method": "rhf"
			},
			{
				"type": "unocc",
				"energy": -0.06007,
				"method": "rhf"
			},
			{
				"type": "unocc",
				"energy": -0.02535,
				"method": "rhf"
			},
			{
				"type": "unocc",
				"energy": 0.01788,
				"method": "rhf"
			},
			{
				"type": "unocc",
				"energy": 0.02123,
				"method": "rhf"
			},
			{
				"type": "unocc",
				"energy": 0.02794,
				"method": "rhf"
			}
		],
		"cosmo_sigma_profile": { 
			"-0.025": 0.0,
			"-0.024": 0.0,
			"-0.023": 0.0,
			"-0.022": 0.0,
			"-0.021": 0.0,
			"-0.02": 0.0,
			"-0.019": 0.0,
			"-0.018": 0.0,
			"-0.017": 0.0,
			"-0.016": 0.0,
			"-0.015": 0.175844061668,
			"-0.014": 0.777410605083,
			"-0.013": 0.951733436234,
			"-0.012": 1.29985410361,
			"-0.011": 0.771909859701,
			"-0.01": 1.09794841378,
			"-0.009": 1.16693692931,
			"-0.008": 1.92732641142,
			"-0.007": 8.81329167703,
			"-0.006": 19.2111279139,
			"-0.005": 27.0942940226,
			"-0.004": 25.4125372322,
			"-0.003": 22.1408746947,
			"-0.002": 21.6237630863,
			"-0.001": 18.3710849414,
			"0.0": 14.6611417057,
			"0.001": 14.3470877486,
			"0.002": 14.8458688642,
			"0.003": 17.7717335841,
			"0.004": 11.9822023013,
			"0.005": 5.75799977209,
			"0.006": 10.0131929121,
			"0.007": 7.84070401783,
			"0.008": 4.31864743073,
			"0.009": 3.28421509135,
			"0.01": 3.55687939598,
			"0.011": 5.00450615096,
			"0.012": 5.87803349678,
			"0.013": 6.2219505609,
			"0.014": 2.51087183052,
			"0.015": 0.0,
			"0.016": 0.0,
			"0.017": 0.0,
			"0.018": 0.0,
			"0.019": 0.0,
			"0.02": 0.0,
			"0.021": 0.0,
			"0.022": 0.0,
			"0.023": 0.0,
			"0.024": 0.0,
			"0.025": 0.0
		}
	}
}
