{
	 "smiles": "FC(F)(F)S(=O)(=O)C1=CC=C(C=C1)C#N", 
	 "Tm": 363.15, 
	 "num_atms": 19, 
	 "gaussian": { 
		 "optdone": 1, 
		 "sigma_profile": "yes", 
		 "theory": "DFT", 
		 "functional": "B3LYP", 
		 "basiset": "6-31G**", 
		 "properties": { 
			 "R2extent": 3864.8909, 
			 "electric_dipole_moment_norm": 1.49037852239, 
			 "electric_quadrupole_moment_norm": 21.3070735297, 
			 "total_energy": -1210.06161879, 
			 "HOMO_LUMO_gap": 0.20369, 
			 "cosmo_polarized_energy": -13.3, 
			 "cosmo_cavitation_energy": 28.4, 
			 "cosmo_dispersion_energy": -19.65, 
			 "cosmo_repulsion_energy": 1.43, 
			 "cosmo_total_nonelectrostatic_energy": 10.18, 
			 "SMD_solvation_energy": 6.76 
		},
		"coords": [
			{
				"x": -0.8297267526,
				"y": 1.5799902282,
				"z": 2.2257803644,
				"element": "F" 
			},
			{
				"x": -0.4122564881,
				"y": 0.4519163767,
				"z": 2.8072464937,
				"element": "C" 
			},
			{
				"x": -0.9661993535,
				"y": 0.3330449715,
				"z": 4.0090480713,
				"element": "F" 
			},
			{
				"x": 0.9183820744,
				"y": 0.481460203,
				"z": 2.922883904,
				"element": "F" 
			},
			{
				"x": -0.9201571499,
				"y": -1.0218850913,
				"z": 1.7581402816,
				"element": "S" 
			},
			{
				"x": -0.3004596001,
				"y": -2.194485672,
				"z": 2.3785484571,
				"element": "O" 
			},
			{
				"x": -2.364889585,
				"y": -0.8968679546,
				"z": 1.5555036752,
				"element": "O" 
			},
			{
				"x": -0.0832231022,
				"y": -0.6731274873,
				"z": 0.2088470711,
				"element": "C" 
			},
			{
				"x": -0.7510836299,
				"y": 0.069739342,
				"z": -0.7673060414,
				"element": "C" 
			},
			{
				"x": -0.1048093066,
				"y": 0.3316494934,
				"z": -1.9712265091,
				"element": "C" 
			},
			{
				"x": 1.1982275297,
				"y": -0.1516033531,
				"z": -2.1833299091,
				"element": "C" 
			},
			{
				"x": 1.8525465997,
				"y": -0.9036090562,
				"z": -1.1919869536,
				"element": "C" 
			},
			{
				"x": 1.2084916009,
				"y": -1.1668784924,
				"z": 0.0128343763,
				"element": "C" 
			},
			{
				"x": 1.864337205,
				"y": 0.1205241237,
				"z": -3.425161511,
				"element": "C" 
			},
			{
				"x": 2.4045163308,
				"y": 0.3423231277,
				"z": -4.4305297414,
				"element": "N" 
			},
			{
				"x": -1.7619966802,
				"y": 0.4181533375,
				"z": -0.5877801927,
				"element": "H" 
			},
			{
				"x": -0.6001283936,
				"y": 0.9024558709,
				"z": -2.7488108413,
				"element": "H" 
			},
			{
				"x": 2.8540575344,
				"y": -1.2774536415,
				"z": -1.373686553,
				"element": "H" 
			},
			{
				"x": 1.6869711669,
				"y": -1.7584463262,
				"z": 0.7852855578,
				"element": "H" 
			}
		],
		 "valence_orbital": [ 
			{
				"type": "occ",
				"energy": -0.35208,
				"method": "rhf"
			},
			{
				"type": "occ",
				"energy": -0.33629,
				"method": "rhf"
			},
			{
				"type": "occ",
				"energy": -0.32179,
				"method": "rhf"
			},
			{
				"type": "occ",
				"energy": -0.30858,
				"method": "rhf"
			},
			{
				"type": "occ",
				"energy": -0.30214,
				"method": "rhf"
			},
			{
				"type": "unocc",
				"energy": -0.09845,
				"method": "rhf"
			},
			{
				"type": "unocc",
				"energy": -0.05728,
				"method": "rhf"
			},
			{
				"type": "unocc",
				"energy": 0.01271,
				"method": "rhf"
			},
			{
				"type": "unocc",
				"energy": 0.01519,
				"method": "rhf"
			},
			{
				"type": "unocc",
				"energy": 0.02504,
				"method": "rhf"
			}
		],
		"cosmo_sigma_profile": { 
			"-0.025": 0.0,
			"-0.024": 0.0,
			"-0.023": 0.0,
			"-0.022": 0.0,
			"-0.021": 0.0,
			"-0.02": 0.0,
			"-0.019": 0.0,
			"-0.018": 0.0,
			"-0.017": 0.0,
			"-0.016": 0.0,
			"-0.015": 0.0,
			"-0.014": 0.0,
			"-0.013": 0.0,
			"-0.012": 0.0,
			"-0.011": 0.0,
			"-0.01": 1.42800233272,
			"-0.009": 8.69455402859,
			"-0.008": 9.50311954476,
			"-0.007": 6.06504029919,
			"-0.006": 6.99373693248,
			"-0.005": 8.23380407284,
			"-0.004": 11.6764267207,
			"-0.003": 17.1303846806,
			"-0.002": 21.8640381829,
			"-0.001": 27.6609886034,
			"0.0": 28.6785975811,
			"0.001": 19.2999452166,
			"0.002": 5.39484836959,
			"0.003": 3.85288818152,
			"0.004": 4.98116402254,
			"0.005": 4.84531316826,
			"0.006": 6.12343751713,
			"0.007": 6.70454702754,
			"0.008": 8.86181567085,
			"0.009": 12.2802378973,
			"0.01": 6.16068385253,
			"0.011": 2.30449601994,
			"0.012": 1.83590563729,
			"0.013": 0.142623340683,
			"0.014": 0.0,
			"0.015": 0.0,
			"0.016": 0.0,
			"0.017": 0.0,
			"0.018": 0.0,
			"0.019": 0.0,
			"0.02": 0.0,
			"0.021": 0.0,
			"0.022": 0.0,
			"0.023": 0.0,
			"0.024": 0.0,
			"0.025": 0.0
		}
	}
}
