{
	 "smiles": "C[C@]12CC[C@](O)([C@H]3O[C@@]13CCC2=O)[C@H]1C[C@@]23O[C@@H]2C(=O)CC[C@]3(C)C1=O", 
	 "Tm": 455.2, 
	 "num_atms": 50, 
	 "gaussian": { 
		 "optdone": 1, 
		 "sigma_profile": "yes", 
		 "theory": "DFT", 
		 "functional": "B3LYP", 
		 "basiset": "6-31G**", 
		 "properties": { 
			 "R2extent": 10275.0846, 
			 "electric_dipole_moment_norm": 2.62142245737, 
			 "electric_quadrupole_moment_norm": 19.0939006397, 
			 "total_energy": -1227.85843045, 
			 "HOMO_LUMO_gap": 0.19134, 
			 "cosmo_polarized_energy": -19.62, 
			 "cosmo_cavitation_energy": 46.75, 
			 "cosmo_dispersion_energy": -32.24, 
			 "cosmo_repulsion_energy": 2.36, 
			 "cosmo_total_nonelectrostatic_energy": 16.86, 
			 "SMD_solvation_energy": 8.01 
		},
		"coords": [
			{
				"x": 1.2323358549,
				"y": -0.968337537,
				"z": -4.3745787521,
				"element": "C" 
			},
			{
				"x": -0.1289647485,
				"y": -0.6509311258,
				"z": -3.6968309261,
				"element": "C" 
			},
			{
				"x": -0.318543748,
				"y": 0.851505484,
				"z": -3.4736892679,
				"element": "C" 
			},
			{
				"x": 0.7249960723,
				"y": 1.3920292384,
				"z": -2.4730535218,
				"element": "C" 
			},
			{
				"x": 0.9398046911,
				"y": 0.5878999773,
				"z": -1.1531537826,
				"element": "C" 
			},
			{
				"x": 2.348872715,
				"y": 0.367661877,
				"z": -1.0510941904,
				"element": "O" 
			},
			{
				"x": 0.266171845,
				"y": -0.7937243987,
				"z": -1.146866301,
				"element": "C" 
			},
			{
				"x": -1.1539585209,
				"y": -0.8057427415,
				"z": -1.4072149197,
				"element": "O" 
			},
			{
				"x": -0.2420431875,
				"y": -1.3973615991,
				"z": -2.3760476269,
				"element": "C" 
			},
			{
				"x": -0.5347540772,
				"y": -2.8566965988,
				"z": -2.6882012258,
				"element": "C" 
			},
			{
				"x": -1.4792145472,
				"y": -2.7436279754,
				"z": -3.9110246082,
				"element": "C" 
			},
			{
				"x": -1.209234176,
				"y": -1.3564516514,
				"z": -4.5313719438,
				"element": "C" 
			},
			{
				"x": -1.755942648,
				"y": -0.9071701507,
				"z": -5.5136795784,
				"element": "O" 
			},
			{
				"x": 0.4850360439,
				"y": 1.4191727362,
				"z": 0.0818289429,
				"element": "C" 
			},
			{
				"x": -0.9850750828,
				"y": 1.9133220846,
				"z": 0.1607885823,
				"element": "C" 
			},
			{
				"x": -1.1838199741,
				"y": 2.0586410577,
				"z": 1.6586901059,
				"element": "C" 
			},
			{
				"x": -0.9017051103,
				"y": 3.3577599719,
				"z": 2.203486102,
				"element": "O" 
			},
			{
				"x": -2.2230519822,
				"y": 2.8082343981,
				"z": 2.3880503535,
				"element": "C" 
			},
			{
				"x": -2.5201108368,
				"y": 2.3513443628,
				"z": 3.7938048669,
				"element": "C" 
			},
			{
				"x": -3.6401540761,
				"y": 2.4630885672,
				"z": 4.2541548773,
				"element": "O" 
			},
			{
				"x": -1.378296395,
				"y": 1.7099334582,
				"z": 4.593160456,
				"element": "C" 
			},
			{
				"x": -0.1170839519,
				"y": 1.2822836391,
				"z": 3.8010020742,
				"element": "C" 
			},
			{
				"x": -0.4658458856,
				"y": 0.9016545739,
				"z": 2.3535874797,
				"element": "C" 
			},
			{
				"x": -1.3063868734,
				"y": -0.4011237178,
				"z": 2.2830673376,
				"element": "C" 
			},
			{
				"x": 0.7318298929,
				"y": 0.7009768164,
				"z": 1.420815432,
				"element": "C" 
			},
			{
				"x": 1.7255918417,
				"y": 0.0423195967,
				"z": 1.6810001741,
				"element": "O" 
			},
			{
				"x": 1.3171299287,
				"y": -0.4026429057,
				"z": -5.3069407025,
				"element": "H" 
			},
			{
				"x": 2.0645586942,
				"y": -0.7032155347,
				"z": -3.7172516567,
				"element": "H" 
			},
			{
				"x": 1.331985602,
				"y": -2.0294203319,
				"z": -4.6233964346,
				"element": "H" 
			},
			{
				"x": -0.2211243872,
				"y": 1.3852277683,
				"z": -4.4243121002,
				"element": "H" 
			},
			{
				"x": -1.3331479614,
				"y": 1.0315941113,
				"z": -3.1094106959,
				"element": "H" 
			},
			{
				"x": 0.4816832409,
				"y": 2.4317981472,
				"z": -2.2313530998,
				"element": "H" 
			},
			{
				"x": 1.7080214691,
				"y": 1.4191946143,
				"z": -2.9503932035,
				"element": "H" 
			},
			{
				"x": 2.5248604761,
				"y": 0.0699380144,
				"z": -0.1397249859,
				"element": "H" 
			},
			{
				"x": 0.5797740598,
				"y": -1.4406121009,
				"z": -0.3255253696,
				"element": "H" 
			},
			{
				"x": -0.9913571383,
				"y": -3.3582496273,
				"z": -1.8323493736,
				"element": "H" 
			},
			{
				"x": 0.384432712,
				"y": -3.3928074821,
				"z": -2.9454755821,
				"element": "H" 
			},
			{
				"x": -1.3509667871,
				"y": -3.5308198866,
				"z": -4.6593781611,
				"element": "H" 
			},
			{
				"x": -2.5316083444,
				"y": -2.7632779248,
				"z": -3.6058927674,
				"element": "H" 
			},
			{
				"x": 1.1512839214,
				"y": 2.2944537727,
				"z": 0.1051873521,
				"element": "H" 
			},
			{
				"x": -1.6670783298,
				"y": 1.172740694,
				"z": -0.2627675078,
				"element": "H" 
			},
			{
				"x": -1.1429093813,
				"y": 2.8654029559,
				"z": -0.3492774457,
				"element": "H" 
			},
			{
				"x": -3.0353336634,
				"y": 3.3174721634,
				"z": 1.8719394747,
				"element": "H" 
			},
			{
				"x": -1.1004058831,
				"y": 2.4255001135,
				"z": 5.3762924417,
				"element": "H" 
			},
			{
				"x": -1.8326696411,
				"y": 0.8635788029,
				"z": 5.1182795572,
				"element": "H" 
			},
			{
				"x": 0.3712875493,
				"y": 0.4385599684,
				"z": 4.297256509,
				"element": "H" 
			},
			{
				"x": 0.6004183861,
				"y": 2.1051475793,
				"z": 3.7823513933,
				"element": "H" 
			},
			{
				"x": -0.7341613258,
				"y": -1.22584296,
				"z": 2.7177588434,
				"element": "H" 
			},
			{
				"x": -2.2382072129,
				"y": -0.2913085943,
				"z": 2.845690826,
				"element": "H" 
			},
			{
				"x": -1.5696191193,
				"y": -0.6747717005,
				"z": 1.2570625491,
				"element": "H" 
			}
		],
		 "valence_orbital": [ 
			{
				"type": "occ",
				"energy": -0.2908,
				"method": "rhf"
			},
			{
				"type": "occ",
				"energy": -0.26681,
				"method": "rhf"
			},
			{
				"type": "occ",
				"energy": -0.26131,
				"method": "rhf"
			},
			{
				"type": "occ",
				"energy": -0.2536,
				"method": "rhf"
			},
			{
				"type": "occ",
				"energy": -0.24071,
				"method": "rhf"
			},
			{
				"type": "unocc",
				"energy": -0.04937,
				"method": "rhf"
			},
			{
				"type": "unocc",
				"energy": -0.0394,
				"method": "rhf"
			},
			{
				"type": "unocc",
				"energy": -0.02286,
				"method": "rhf"
			},
			{
				"type": "unocc",
				"energy": 0.06323,
				"method": "rhf"
			},
			{
				"type": "unocc",
				"energy": 0.07035,
				"method": "rhf"
			}
		],
		"cosmo_sigma_profile": { 
			"-0.025": 0.0,
			"-0.024": 0.0,
			"-0.023": 0.0,
			"-0.022": 0.0,
			"-0.021": 0.0,
			"-0.02": 0.0,
			"-0.019": 0.0,
			"-0.018": 0.0,
			"-0.017": 0.0,
			"-0.016": 0.0,
			"-0.015": 0.0,
			"-0.014": 0.0,
			"-0.013": 0.00040389935325,
			"-0.012": 0.00320383714579,
			"-0.011": 0.000245253500965,
			"-0.01": 0.00530396111764,
			"-0.009": 0.00516913643393,
			"-0.008": 1.20646566716,
			"-0.007": 6.25773756526,
			"-0.006": 22.0432569867,
			"-0.005": 32.888014159,
			"-0.004": 41.1014473908,
			"-0.003": 43.5787066072,
			"-0.002": 44.5258851979,
			"-0.001": 35.5073333719,
			"0.0": 20.9338463547,
			"0.001": 11.0648239662,
			"0.002": 11.1108287303,
			"0.003": 9.30945408726,
			"0.004": 7.67760800508,
			"0.005": 8.5249352274,
			"0.006": 7.50737078051,
			"0.007": 8.4165600515,
			"0.008": 8.37563693796,
			"0.009": 8.53096365622,
			"0.01": 11.2665172968,
			"0.011": 12.4092057825,
			"0.012": 8.80749868215,
			"0.013": 2.8109489475,
			"0.014": 0.0542265204403,
			"0.015": 0.0,
			"0.016": 0.0,
			"0.017": 0.0,
			"0.018": 0.0,
			"0.019": 0.0,
			"0.02": 0.0,
			"0.021": 0.0,
			"0.022": 0.0,
			"0.023": 0.0,
			"0.024": 0.0,
			"0.025": 0.0
		}
	}
}
