{
	 "smiles": "[O-][N+](=O)C1=CC=C(C=C1)C1=NN=C2SC(NN12)C1=CC=C(Cl)C=C1", 
	 "Tm": 493.15, 
	 "num_atms": 34, 
	 "gaussian": { 
		 "optdone": 1, 
		 "sigma_profile": "yes", 
		 "theory": "DFT", 
		 "functional": "B3LYP", 
		 "basiset": "6-31G**", 
		 "properties": { 
			 "R2extent": 15467.4858, 
			 "electric_dipole_moment_norm": 6.62083640864, 
			 "electric_quadrupole_moment_norm": 28.1239212117, 
			 "total_energy": -1860.04008108, 
			 "HOMO_LUMO_gap": 0.1404, 
			 "cosmo_polarized_energy": -23.5, 
			 "cosmo_cavitation_energy": 43.65, 
			 "cosmo_dispersion_energy": -32.0, 
			 "cosmo_repulsion_energy": 2.34, 
			 "cosmo_total_nonelectrostatic_energy": 13.99, 
			 "SMD_solvation_energy": 6.14 
		},
		"coords": [
			{
				"x": 2.1731919371,
				"y": 6.0452234794,
				"z": 1.3949100038,
				"element": "O" 
			},
			{
				"x": 1.9050776876,
				"y": 4.9294332519,
				"z": 1.8396253129,
				"element": "N" 
			},
			{
				"x": 1.5848364263,
				"y": 4.6969259851,
				"z": 3.0056823753,
				"element": "O" 
			},
			{
				"x": 1.9717118305,
				"y": 3.7919209343,
				"z": 0.9113326846,
				"element": "C" 
			},
			{
				"x": 1.677134868,
				"y": 2.5158637679,
				"z": 1.3853617684,
				"element": "C" 
			},
			{
				"x": 1.7366668278,
				"y": 1.4398525358,
				"z": 0.5058021018,
				"element": "C" 
			},
			{
				"x": 2.0896114644,
				"y": 1.6424058004,
				"z": -0.8402684,
				"element": "C" 
			},
			{
				"x": 2.3863334071,
				"y": 2.9432968559,
				"z": -1.2914164666,
				"element": "C" 
			},
			{
				"x": 2.32869229,
				"y": 4.0202864638,
				"z": -0.4186090241,
				"element": "C" 
			},
			{
				"x": 2.1736726943,
				"y": 0.5442906934,
				"z": -1.802037911,
				"element": "C" 
			},
			{
				"x": 2.6198389943,
				"y": 0.6573924609,
				"z": -3.0432643206,
				"element": "N" 
			},
			{
				"x": 2.5872752587,
				"y": -0.5787898761,
				"z": -3.6622026057,
				"element": "N" 
			},
			{
				"x": 2.0970929015,
				"y": -1.4137068998,
				"z": -2.7808846179,
				"element": "C" 
			},
			{
				"x": 1.7249384429,
				"y": -3.1304607863,
				"z": -2.7059530234,
				"element": "S" 
			},
			{
				"x": 1.6561644527,
				"y": -2.9107355607,
				"z": -0.8035458121,
				"element": "C" 
			},
			{
				"x": 1.242853045,
				"y": -1.5218193806,
				"z": -0.5560006148,
				"element": "N" 
			},
			{
				"x": 1.8222850108,
				"y": -0.7738978868,
				"z": -1.6002076195,
				"element": "N" 
			},
			{
				"x": 0.7633649449,
				"y": -3.9022023088,
				"z": -0.1098672766,
				"element": "C" 
			},
			{
				"x": -0.5490143105,
				"y": -4.1387870153,
				"z": -0.5434168914,
				"element": "C" 
			},
			{
				"x": -1.3766425453,
				"y": -5.0248703949,
				"z": 0.1424496858,
				"element": "C" 
			},
			{
				"x": -0.8833734636,
				"y": -5.6838941152,
				"z": 1.2697808934,
				"element": "C" 
			},
			{
				"x": -1.9171834204,
				"y": -6.803458522,
				"z": 2.1335435925,
				"element": "Cl" 
			},
			{
				"x": 0.4209253828,
				"y": -5.470095792,
				"z": 1.7154271114,
				"element": "C" 
			},
			{
				"x": 1.2366918826,
				"y": -4.5784440039,
				"z": 1.0211665833,
				"element": "C" 
			},
			{
				"x": 1.4101053722,
				"y": 2.3840724684,
				"z": 2.4262893972,
				"element": "H" 
			},
			{
				"x": 1.5201642485,
				"y": 0.4402696115,
				"z": 0.8651735096,
				"element": "H" 
			},
			{
				"x": 2.6615442856,
				"y": 3.0848526536,
				"z": -2.3302075048,
				"element": "H" 
			},
			{
				"x": 2.5514804284,
				"y": 5.0284202808,
				"z": -0.7445846229,
				"element": "H" 
			},
			{
				"x": 2.690448656,
				"y": -3.0126609534,
				"z": -0.4692653676,
				"element": "H" 
			},
			{
				"x": 0.2261443881,
				"y": -1.4519619335,
				"z": -0.6537093697,
				"element": "H" 
			},
			{
				"x": -0.9227561167,
				"y": -3.646620795,
				"z": -1.4367022517,
				"element": "H" 
			},
			{
				"x": -2.3894892906,
				"y": -5.2111193241,
				"z": -0.1962936401,
				"element": "H" 
			},
			{
				"x": 0.7902612207,
				"y": -5.9933957647,
				"z": 2.5900341783,
				"element": "H" 
			},
			{
				"x": 2.2517507982,
				"y": -4.4064859302,
				"z": 1.3677581422,
				"element": "H" 
			}
		],
		 "valence_orbital": [ 
			{
				"type": "occ",
				"energy": -0.28401,
				"method": "rhf"
			},
			{
				"type": "occ",
				"energy": -0.28257,
				"method": "rhf"
			},
			{
				"type": "occ",
				"energy": -0.27621,
				"method": "rhf"
			},
			{
				"type": "occ",
				"energy": -0.26969,
				"method": "rhf"
			},
			{
				"type": "occ",
				"energy": -0.23778,
				"method": "rhf"
			},
			{
				"type": "unocc",
				"energy": -0.09738,
				"method": "rhf"
			},
			{
				"type": "unocc",
				"energy": -0.06233,
				"method": "rhf"
			},
			{
				"type": "unocc",
				"energy": -0.04807,
				"method": "rhf"
			},
			{
				"type": "unocc",
				"energy": -0.03211,
				"method": "rhf"
			},
			{
				"type": "unocc",
				"energy": -0.03142,
				"method": "rhf"
			}
		],
		"cosmo_sigma_profile": { 
			"-0.025": 0.0,
			"-0.024": 0.0,
			"-0.023": 0.0,
			"-0.022": 0.0,
			"-0.021": 0.0,
			"-0.02": 0.0,
			"-0.019": 0.0,
			"-0.018": 0.0,
			"-0.017": 0.0,
			"-0.016": 0.0201125478038,
			"-0.015": 1.30336824091,
			"-0.014": 0.938291881582,
			"-0.013": 2.26680362201,
			"-0.012": 1.8482174036,
			"-0.011": 1.29018246962,
			"-0.01": 1.87715324482,
			"-0.009": 5.55085480187,
			"-0.008": 8.87730227392,
			"-0.007": 16.7304775592,
			"-0.006": 17.57687881,
			"-0.005": 14.8195399391,
			"-0.004": 17.6384130942,
			"-0.003": 18.5885235615,
			"-0.002": 24.2077174229,
			"-0.001": 27.110624102,
			"0.0": 34.423101909,
			"0.001": 36.4385600073,
			"0.002": 29.319482985,
			"0.003": 17.388321859,
			"0.004": 17.9941252377,
			"0.005": 10.0428204809,
			"0.006": 6.50291459985,
			"0.007": 9.57971758163,
			"0.008": 9.68675076284,
			"0.009": 6.62897072906,
			"0.01": 4.79452036795,
			"0.011": 2.14442594281,
			"0.012": 3.44711626611,
			"0.013": 3.73154034982,
			"0.014": 2.07057551548,
			"0.015": 1.57375260125,
			"0.016": 0.464413703143,
			"0.017": 0.0,
			"0.018": 0.0,
			"0.019": 0.0,
			"0.02": 0.0,
			"0.021": 0.0,
			"0.022": 0.0,
			"0.023": 0.0,
			"0.024": 0.0,
			"0.025": 0.0
		}
	}
}
