{
	 "smiles": "O=C1NC2=CC=CC=C2C=N[C@@H]2CCCC[C@H]2N=CC2=C(NC(=O)O1)C=CC=C2", 
	 "Tm": 527.15, 
	 "num_atms": 51, 
	 "gaussian": { 
		 "optdone": 1, 
		 "sigma_profile": "yes", 
		 "theory": "DFT", 
		 "functional": "B3LYP", 
		 "basiset": "6-31G**", 
		 "properties": { 
			 "R2extent": 11318.5268, 
			 "electric_dipole_moment_norm": 2.85778625163, 
			 "electric_quadrupole_moment_norm": 27.242605057, 
			 "total_energy": -1296.28657193, 
			 "HOMO_LUMO_gap": 0.17724, 
			 "cosmo_polarized_energy": -20.41, 
			 "cosmo_cavitation_energy": 51.06, 
			 "cosmo_dispersion_energy": -34.47, 
			 "cosmo_repulsion_energy": 2.56, 
			 "cosmo_total_nonelectrostatic_energy": 19.14, 
			 "SMD_solvation_energy": 6.75 
		},
		"coords": [
			{
				"x": -1.6097464674,
				"y": -2.0781587354,
				"z": -1.413654486,
				"element": "O" 
			},
			{
				"x": -0.9717801294,
				"y": -2.6252909947,
				"z": -0.5261822451,
				"element": "C" 
			},
			{
				"x": -1.5434815477,
				"y": -3.3291214215,
				"z": 0.4854219977,
				"element": "N" 
			},
			{
				"x": -0.8958588973,
				"y": -3.837465929,
				"z": 1.6488757656,
				"element": "C" 
			},
			{
				"x": -1.007765032,
				"y": -5.2082067209,
				"z": 1.8913435292,
				"element": "C" 
			},
			{
				"x": -0.4285272145,
				"y": -5.7900799457,
				"z": 3.0183648459,
				"element": "C" 
			},
			{
				"x": 0.2885200508,
				"y": -4.9944067316,
				"z": 3.9107774544,
				"element": "C" 
			},
			{
				"x": 0.3926595127,
				"y": -3.6263567234,
				"z": 3.6769580362,
				"element": "C" 
			},
			{
				"x": -0.2017262962,
				"y": -3.0087054465,
				"z": 2.5625829786,
				"element": "C" 
			},
			{
				"x": -0.0964505051,
				"y": -1.5360167019,
				"z": 2.5085407565,
				"element": "C" 
			},
			{
				"x": -0.5718974225,
				"y": -0.7718200429,
				"z": 1.6044486498,
				"element": "N" 
			},
			{
				"x": -0.4378497278,
				"y": 0.6656521091,
				"z": 1.814356643,
				"element": "C" 
			},
			{
				"x": -1.8273183651,
				"y": 1.3046528725,
				"z": 1.9820877799,
				"element": "C" 
			},
			{
				"x": -1.7016878677,
				"y": 2.7840054864,
				"z": 2.4224011977,
				"element": "C" 
			},
			{
				"x": -0.3852391781,
				"y": 3.4294767997,
				"z": 1.9327518215,
				"element": "C" 
			},
			{
				"x": 0.0330698003,
				"y": 2.8584403997,
				"z": 0.5736311947,
				"element": "C" 
			},
			{
				"x": 0.3059613163,
				"y": 1.3231553754,
				"z": 0.6225305951,
				"element": "C" 
			},
			{
				"x": 1.7353536234,
				"y": 1.0603634331,
				"z": 0.7946728581,
				"element": "N" 
			},
			{
				"x": 2.5211043563,
				"y": 0.920275475,
				"z": -0.1974941068,
				"element": "C" 
			},
			{
				"x": 2.2585500887,
				"y": 1.0491644153,
				"z": -1.6704569278,
				"element": "C" 
			},
			{
				"x": 1.4131186688,
				"y": 0.2128677175,
				"z": -2.4252963567,
				"element": "C" 
			},
			{
				"x": 0.7133176729,
				"y": -0.8718572582,
				"z": -1.8441760998,
				"element": "N" 
			},
			{
				"x": 1.289837445,
				"y": -1.7992651899,
				"z": -1.0343038326,
				"element": "C" 
			},
			{
				"x": 2.4574222708,
				"y": -1.9181880065,
				"z": -0.760376566,
				"element": "O" 
			},
			{
				"x": 0.3921508558,
				"y": -2.7136461025,
				"z": -0.4587051171,
				"element": "O" 
			},
			{
				"x": 1.2085448804,
				"y": 0.4678781332,
				"z": -3.7871506684,
				"element": "C" 
			},
			{
				"x": 1.8461087449,
				"y": 1.5338966028,
				"z": -4.4160605855,
				"element": "C" 
			},
			{
				"x": 2.724692961,
				"y": 2.3403469768,
				"z": -3.6913526081,
				"element": "C" 
			},
			{
				"x": 2.9322472744,
				"y": 2.0838062261,
				"z": -2.3378388835,
				"element": "C" 
			},
			{
				"x": -2.5517971852,
				"y": -3.3667862302,
				"z": 0.4311605445,
				"element": "H" 
			},
			{
				"x": -1.5435870251,
				"y": -5.8180737385,
				"z": 1.1701454507,
				"element": "H" 
			},
			{
				"x": -0.5250823504,
				"y": -6.8584942857,
				"z": 3.1855843947,
				"element": "H" 
			},
			{
				"x": 0.7594254842,
				"y": -5.4337273036,
				"z": 4.7847049274,
				"element": "H" 
			},
			{
				"x": 0.937310201,
				"y": -3.0027974258,
				"z": 4.3809981706,
				"element": "H" 
			},
			{
				"x": 0.4261048059,
				"y": -1.1117161164,
				"z": 3.3810185844,
				"element": "H" 
			},
			{
				"x": 0.1584067289,
				"y": 0.865905543,
				"z": 2.7199794504,
				"element": "H" 
			},
			{
				"x": -2.4090044557,
				"y": 0.7329318446,
				"z": 2.7125346914,
				"element": "H" 
			},
			{
				"x": -2.3649356177,
				"y": 1.2226240699,
				"z": 1.0296095975,
				"element": "H" 
			},
			{
				"x": -1.7564088853,
				"y": 2.8544707819,
				"z": 3.5149304325,
				"element": "H" 
			},
			{
				"x": -2.558992174,
				"y": 3.3469611003,
				"z": 2.0350544067,
				"element": "H" 
			},
			{
				"x": -0.4995824452,
				"y": 4.5173726542,
				"z": 1.8683156803,
				"element": "H" 
			},
			{
				"x": 0.4169556547,
				"y": 3.2474096518,
				"z": 2.6575517028,
				"element": "H" 
			},
			{
				"x": -0.7644668155,
				"y": 3.047026343,
				"z": -0.1556176264,
				"element": "H" 
			},
			{
				"x": 0.9256796445,
				"y": 3.3651586641,
				"z": 0.1953000382,
				"element": "H" 
			},
			{
				"x": -0.0899940134,
				"y": 0.8736727276,
				"z": -0.2940089516,
				"element": "H" 
			},
			{
				"x": 3.5762256505,
				"y": 0.7593767377,
				"z": 0.0477599041,
				"element": "H" 
			},
			{
				"x": -0.2674039541,
				"y": -1.0323549477,
				"z": -2.0760682154,
				"element": "H" 
			},
			{
				"x": 0.5555793341,
				"y": -0.1928432332,
				"z": -4.3502037825,
				"element": "H" 
			},
			{
				"x": 1.67388718,
				"y": 1.7176298805,
				"z": -5.4723359346,
				"element": "H" 
			},
			{
				"x": 3.245241286,
				"y": 3.1610570016,
				"z": -4.1753961892,
				"element": "H" 
			},
			{
				"x": 3.6145080798,
				"y": 2.710400209,
				"z": -1.7688148969,
				"element": "H" 
			}
		],
		 "valence_orbital": [ 
			{
				"type": "occ",
				"energy": -0.25069,
				"method": "rhf"
			},
			{
				"type": "occ",
				"energy": -0.24836,
				"method": "rhf"
			},
			{
				"type": "occ",
				"energy": -0.24324,
				"method": "rhf"
			},
			{
				"type": "occ",
				"energy": -0.23335,
				"method": "rhf"
			},
			{
				"type": "occ",
				"energy": -0.22991,
				"method": "rhf"
			},
			{
				"type": "unocc",
				"energy": -0.05267,
				"method": "rhf"
			},
			{
				"type": "unocc",
				"energy": -0.02552,
				"method": "rhf"
			},
			{
				"type": "unocc",
				"energy": -0.01866,
				"method": "rhf"
			},
			{
				"type": "unocc",
				"energy": -0.01014,
				"method": "rhf"
			},
			{
				"type": "unocc",
				"energy": 0.01993,
				"method": "rhf"
			}
		],
		"cosmo_sigma_profile": { 
			"-0.025": 0.0,
			"-0.024": 0.0,
			"-0.023": 0.0,
			"-0.022": 0.0,
			"-0.021": 0.0,
			"-0.02": 0.0,
			"-0.019": 0.0,
			"-0.018": 0.0,
			"-0.017": 0.0,
			"-0.016": 0.529138843002,
			"-0.015": 1.03997305704,
			"-0.014": 1.215939932,
			"-0.013": 0.883578285094,
			"-0.012": 0.842720472978,
			"-0.011": 0.927508872974,
			"-0.01": 1.22380845304,
			"-0.009": 2.16758759807,
			"-0.008": 2.54279715617,
			"-0.007": 10.0780616612,
			"-0.006": 23.4558502858,
			"-0.005": 24.6432694171,
			"-0.004": 23.5229504938,
			"-0.003": 31.7623153117,
			"-0.002": 39.8050948643,
			"-0.001": 40.866617891,
			"0.0": 35.5321089442,
			"0.001": 31.5942194261,
			"0.002": 21.5359353481,
			"0.003": 23.8149696951,
			"0.004": 25.1644381023,
			"0.005": 11.588355588,
			"0.006": 6.89988645009,
			"0.007": 5.7413432628,
			"0.008": 6.5227270806,
			"0.009": 6.82842833858,
			"0.01": 6.89631420352,
			"0.011": 6.92695626088,
			"0.012": 6.48839978352,
			"0.013": 1.37966204351,
			"0.014": 1.01800694053,
			"0.015": 0.273635248872,
			"0.016": 0.515033305665,
			"0.017": 0.0718301934622,
			"0.018": 0.0,
			"0.019": 0.0,
			"0.02": 0.0,
			"0.021": 0.0,
			"0.022": 0.0,
			"0.023": 0.0,
			"0.024": 0.0,
			"0.025": 0.0
		}
	}
}
