{
	 "smiles": "COC1=C(OC)C(Cl)=CC(C=O)=C1", 
	 "Tm": 330.15, 
	 "num_atms": 22, 
	 "gaussian": { 
		 "optdone": 1, 
		 "sigma_profile": "yes", 
		 "theory": "DFT", 
		 "functional": "B3LYP", 
		 "basiset": "6-31G**", 
		 "properties": { 
			 "R2extent": 3570.8963, 
			 "electric_dipole_moment_norm": 2.69316433401, 
			 "electric_quadrupole_moment_norm": 18.7935457753, 
			 "total_energy": -1034.2008445, 
			 "HOMO_LUMO_gap": 0.18296, 
			 "cosmo_polarized_energy": -9.54, 
			 "cosmo_cavitation_energy": 28.36, 
			 "cosmo_dispersion_energy": -20.09, 
			 "cosmo_repulsion_energy": 1.6, 
			 "cosmo_total_nonelectrostatic_energy": 9.88, 
			 "SMD_solvation_energy": 7.25 
		},
		"coords": [
			{
				"x": -2.0556671425,
				"y": 0.1008468398,
				"z": -0.7389326605,
				"element": "C" 
			},
			{
				"x": -1.087809327,
				"y": -0.8516446494,
				"z": -1.2049266974,
				"element": "O" 
			},
			{
				"x": 0.2223954935,
				"y": -0.4807006315,
				"z": -1.0261445888,
				"element": "C" 
			},
			{
				"x": 0.7948254895,
				"y": -0.4987618546,
				"z": 0.2689308238,
				"element": "C" 
			},
			{
				"x": 0.0521910908,
				"y": -0.8170666522,
				"z": 1.3652296355,
				"element": "O" 
			},
			{
				"x": -0.3499925399,
				"y": -2.1950126408,
				"z": 1.4670654983,
				"element": "C" 
			},
			{
				"x": 2.1411714129,
				"y": -0.1280262769,
				"z": 0.4161301556,
				"element": "C" 
			},
			{
				"x": 2.8620308942,
				"y": -0.1373155178,
				"z": 2.0111396019,
				"element": "Cl" 
			},
			{
				"x": 2.9094988321,
				"y": 0.2362501932,
				"z": -0.6864850279,
				"element": "C" 
			},
			{
				"x": 2.3366022679,
				"y": 0.2233016972,
				"z": -1.962101845,
				"element": "C" 
			},
			{
				"x": 3.1570768974,
				"y": 0.6013781861,
				"z": -3.135043197,
				"element": "C" 
			},
			{
				"x": 2.7501859317,
				"y": 0.6257132562,
				"z": -4.2805131837,
				"element": "O" 
			},
			{
				"x": 0.9905068526,
				"y": -0.1316311424,
				"z": -2.1283097488,
				"element": "C" 
			},
			{
				"x": -3.0340495107,
				"y": -0.3343444656,
				"z": -0.9494519325,
				"element": "H" 
			},
			{
				"x": -1.9550757761,
				"y": 1.04862004,
				"z": -1.2811565159,
				"element": "H" 
			},
			{
				"x": -1.9525058216,
				"y": 0.2793775439,
				"z": 0.335706744,
				"element": "H" 
			},
			{
				"x": -0.9469706267,
				"y": -2.2638030195,
				"z": 2.3774415132,
				"element": "H" 
			},
			{
				"x": 0.5289398948,
				"y": -2.8425367112,
				"z": 1.5585224632,
				"element": "H" 
			},
			{
				"x": -0.9476096297,
				"y": -2.4950119536,
				"z": 0.6023116459,
				"element": "H" 
			},
			{
				"x": 3.949675601,
				"y": 0.5160338024,
				"z": -0.5509870644,
				"element": "H" 
			},
			{
				"x": 4.2089066267,
				"y": 0.8728571918,
				"z": -2.8945277888,
				"element": "H" 
			},
			{
				"x": 0.5504730891,
				"y": -0.1295232352,
				"z": -3.1195978308,
				"element": "H" 
			}
		],
		 "valence_orbital": [ 
			{
				"type": "occ",
				"energy": -0.31031,
				"method": "rhf"
			},
			{
				"type": "occ",
				"energy": -0.28221,
				"method": "rhf"
			},
			{
				"type": "occ",
				"energy": -0.26084,
				"method": "rhf"
			},
			{
				"type": "occ",
				"energy": -0.25592,
				"method": "rhf"
			},
			{
				"type": "occ",
				"energy": -0.25191,
				"method": "rhf"
			},
			{
				"type": "unocc",
				"energy": -0.06895,
				"method": "rhf"
			},
			{
				"type": "unocc",
				"energy": -0.0227,
				"method": "rhf"
			},
			{
				"type": "unocc",
				"energy": 0.02069,
				"method": "rhf"
			},
			{
				"type": "unocc",
				"energy": 0.03083,
				"method": "rhf"
			},
			{
				"type": "unocc",
				"energy": 0.08205,
				"method": "rhf"
			}
		],
		"cosmo_sigma_profile": { 
			"-0.025": 0.0,
			"-0.024": 0.0,
			"-0.023": 0.0,
			"-0.022": 0.0,
			"-0.021": 0.0,
			"-0.02": 0.0,
			"-0.019": 0.0,
			"-0.018": 0.0,
			"-0.017": 0.0,
			"-0.016": 0.0,
			"-0.015": 0.0,
			"-0.014": 0.0,
			"-0.013": 0.0,
			"-0.012": 0.0,
			"-0.011": 0.0,
			"-0.01": 0.0,
			"-0.009": 1.57738252803,
			"-0.008": 3.2780423842,
			"-0.007": 4.72452956766,
			"-0.006": 9.72481465877,
			"-0.005": 14.555962107,
			"-0.004": 19.9633707164,
			"-0.003": 26.6136221986,
			"-0.002": 19.4615288204,
			"-0.001": 18.2578303726,
			"0.0": 18.8269478196,
			"0.001": 20.9067209281,
			"0.002": 11.708375103,
			"0.003": 10.4691334637,
			"0.004": 12.9187583976,
			"0.005": 6.33428348571,
			"0.006": 3.87392580256,
			"0.007": 4.19565676343,
			"0.008": 4.05790194908,
			"0.009": 4.68622458348,
			"0.01": 4.3851067733,
			"0.011": 5.26300914079,
			"0.012": 2.36829188748,
			"0.013": 0.422145653605,
			"0.014": 0.0,
			"0.015": 0.0,
			"0.016": 0.0,
			"0.017": 0.0,
			"0.018": 0.0,
			"0.019": 0.0,
			"0.02": 0.0,
			"0.021": 0.0,
			"0.022": 0.0,
			"0.023": 0.0,
			"0.024": 0.0,
			"0.025": 0.0
		}
	}
}
