{
	 "smiles": "ON=CC1=CC=CC=C1Br", 
	 "Tm": 375.15, 
	 "num_atms": 16, 
	 "gaussian": { 
		 "optdone": 1, 
		 "sigma_profile": "yes", 
		 "theory": "DFT", 
		 "functional": "B3LYP", 
		 "basiset": "6-31G**", 
		 "properties": { 
			 "R2extent": 3324.9391, 
			 "electric_dipole_moment_norm": 2.01502895513, 
			 "electric_quadrupole_moment_norm": 8.24364231514, 
			 "total_energy": -2971.67373365, 
			 "HOMO_LUMO_gap": 0.18393, 
			 "cosmo_polarized_energy": -7.32, 
			 "cosmo_cavitation_energy": 22.46, 
			 "cosmo_dispersion_energy": -17.33, 
			 "cosmo_repulsion_energy": 1.4, 
			 "cosmo_total_nonelectrostatic_energy": 6.53, 
			 "SMD_solvation_energy": 3.01 
		},
		"coords": [
			{
				"x": -1.9488166587,
				"y": 1.3914313216,
				"z": 1.896751692,
				"element": "O" 
			},
			{
				"x": -2.7799858327,
				"y": 1.4499405258,
				"z": 0.7731383811,
				"element": "N" 
			},
			{
				"x": -2.2482346073,
				"y": 1.0264349741,
				"z": -0.3192847848,
				"element": "C" 
			},
			{
				"x": -0.9243232925,
				"y": 0.4819672942,
				"z": -0.6509461922,
				"element": "C" 
			},
			{
				"x": 0.114342431,
				"y": 0.32633098,
				"z": 0.2943958999,
				"element": "C" 
			},
			{
				"x": 1.3551582806,
				"y": -0.1925560554,
				"z": -0.0624493185,
				"element": "C" 
			},
			{
				"x": 1.6048412838,
				"y": -0.5761644325,
				"z": -1.3793432685,
				"element": "C" 
			},
			{
				"x": 0.6038055479,
				"y": -0.4371200032,
				"z": -2.3396279333,
				"element": "C" 
			},
			{
				"x": -0.6353700172,
				"y": 0.0828482043,
				"z": -1.976674621,
				"element": "C" 
			},
			{
				"x": -1.9323352569,
				"y": 0.2251555763,
				"z": -3.3880091822,
				"element": "Br" 
			},
			{
				"x": -2.5229479828,
				"y": 1.7439029248,
				"z": 2.5893769104,
				"element": "H" 
			},
			{
				"x": -2.9481459113,
				"y": 1.1000431681,
				"z": -1.1462247685,
				"element": "H" 
			},
			{
				"x": -0.0724921388,
				"y": 0.621582831,
				"z": 1.3156296615,
				"element": "H" 
			},
			{
				"x": 2.1276236129,
				"y": -0.2963271655,
				"z": 0.6933984164,
				"element": "H" 
			},
			{
				"x": 2.5704342409,
				"y": -0.9821262723,
				"z": -1.6656709963,
				"element": "H" 
			},
			{
				"x": 0.7796463013,
				"y": -0.7299438713,
				"z": -3.3681598959,
				"element": "H" 
			}
		],
		 "valence_orbital": [ 
			{
				"type": "occ",
				"energy": -0.29748,
				"method": "rhf"
			},
			{
				"type": "occ",
				"energy": -0.29449,
				"method": "rhf"
			},
			{
				"type": "occ",
				"energy": -0.27151,
				"method": "rhf"
			},
			{
				"type": "occ",
				"energy": -0.25265,
				"method": "rhf"
			},
			{
				"type": "occ",
				"energy": -0.23681,
				"method": "rhf"
			},
			{
				"type": "unocc",
				"energy": -0.05288,
				"method": "rhf"
			},
			{
				"type": "unocc",
				"energy": -0.01569,
				"method": "rhf"
			},
			{
				"type": "unocc",
				"energy": 0.00112,
				"method": "rhf"
			},
			{
				"type": "unocc",
				"energy": 0.0479,
				"method": "rhf"
			},
			{
				"type": "unocc",
				"energy": 0.07018,
				"method": "rhf"
			}
		],
		"cosmo_sigma_profile": { 
			"-0.025": 0.0,
			"-0.024": 0.0,
			"-0.023": 0.0,
			"-0.022": 0.0,
			"-0.021": 0.0,
			"-0.02": 0.0,
			"-0.019": 0.0,
			"-0.018": 0.388808094011,
			"-0.017": 1.08391591525,
			"-0.016": 1.24289163807,
			"-0.015": 0.598425815103,
			"-0.014": 0.723852133962,
			"-0.013": 0.542068092142,
			"-0.012": 0.581557672504,
			"-0.011": 0.985901158302,
			"-0.01": 0.744378299705,
			"-0.009": 0.71663686201,
			"-0.008": 0.747534680365,
			"-0.007": 4.82351610547,
			"-0.006": 7.20135046956,
			"-0.005": 10.657734949,
			"-0.004": 8.8744362115,
			"-0.003": 9.38065614121,
			"-0.002": 9.07815906592,
			"-0.001": 13.4172772449,
			"0.0": 12.5299024833,
			"0.001": 19.4973881211,
			"0.002": 23.1824959545,
			"0.003": 21.8699064777,
			"0.004": 16.0799063962,
			"0.005": 5.41878811207,
			"0.006": 3.9894495877,
			"0.007": 2.70209094302,
			"0.008": 1.91445992336,
			"0.009": 1.08966738901,
			"0.01": 0.886931487917,
			"0.011": 0.870394411608,
			"0.012": 1.2331463423,
			"0.013": 0.605907451715,
			"0.014": 0.0288287764973,
			"0.015": 0.0,
			"0.016": 0.0,
			"0.017": 0.0,
			"0.018": 0.0,
			"0.019": 0.0,
			"0.02": 0.0,
			"0.021": 0.0,
			"0.022": 0.0,
			"0.023": 0.0,
			"0.024": 0.0,
			"0.025": 0.0
		}
	}
}
