{
	 "smiles": "OC(=O)C1=NNC(=O)C2=C1C=CC=C2", 
	 "Tm": 504.15, 
	 "num_atms": 20, 
	 "gaussian": { 
		 "optdone": 1, 
		 "sigma_profile": "yes", 
		 "theory": "DFT", 
		 "functional": "B3LYP", 
		 "basiset": "6-31G**", 
		 "properties": { 
			 "R2extent": 2745.1849, 
			 "electric_dipole_moment_norm": 1.54081267518, 
			 "electric_quadrupole_moment_norm": 10.6341904939, 
			 "total_energy": -681.756351023, 
			 "HOMO_LUMO_gap": 0.16856, 
			 "cosmo_polarized_energy": -14.73, 
			 "cosmo_cavitation_energy": 25.14, 
			 "cosmo_dispersion_energy": -19.1, 
			 "cosmo_repulsion_energy": 1.48, 
			 "cosmo_total_nonelectrostatic_energy": 7.53, 
			 "SMD_solvation_energy": 5.52 
		},
		"coords": [
			{
				"x": -3.7612562497,
				"y": -1.944640467,
				"z": -0.3130625738,
				"element": "O" 
			},
			{
				"x": -2.963097977,
				"y": -0.9518062279,
				"z": -0.7528988638,
				"element": "C" 
			},
			{
				"x": -3.3424603207,
				"y": -0.1401251185,
				"z": -1.5774194685,
				"element": "O" 
			},
			{
				"x": -1.6027846984,
				"y": -0.9677872444,
				"z": -0.1270377329,
				"element": "C" 
			},
			{
				"x": -1.4157109408,
				"y": -1.9326286519,
				"z": 0.7348390287,
				"element": "N" 
			},
			{
				"x": -0.2307748507,
				"y": -2.0209810733,
				"z": 1.3399798404,
				"element": "N" 
			},
			{
				"x": 0.8896077223,
				"y": -1.1988954595,
				"z": 1.1815438737,
				"element": "C" 
			},
			{
				"x": 1.9102676053,
				"y": -1.4197042236,
				"z": 1.818803832,
				"element": "O" 
			},
			{
				"x": 0.6755938685,
				"y": -0.1166017628,
				"z": 0.2131006517,
				"element": "C" 
			},
			{
				"x": -0.5701113475,
				"y": 0.0135188673,
				"z": -0.4526093032,
				"element": "C" 
			},
			{
				"x": -0.7245380365,
				"y": 1.071766269,
				"z": -1.3746531642,
				"element": "C" 
			},
			{
				"x": 0.3248904297,
				"y": 1.94968359,
				"z": -1.609353143,
				"element": "C" 
			},
			{
				"x": 1.5528308598,
				"y": 1.8097262313,
				"z": -0.9437549109,
				"element": "C" 
			},
			{
				"x": 1.7260586459,
				"y": 0.7780067977,
				"z": -0.0346716716,
				"element": "C" 
			},
			{
				"x": -4.6003552682,
				"y": -1.8242486743,
				"z": -0.7880242483,
				"element": "H" 
			},
			{
				"x": -0.1381807011,
				"y": -2.7862711361,
				"z": 1.9982616084,
				"element": "H" 
			},
			{
				"x": -1.6672010376,
				"y": 1.1857594619,
				"z": -1.8908437357,
				"element": "H" 
			},
			{
				"x": 0.1885873045,
				"y": 2.7580778975,
				"z": -2.321876007,
				"element": "H" 
			},
			{
				"x": 2.3618665558,
				"y": 2.5065504411,
				"z": -1.1408331111,
				"element": "H" 
			},
			{
				"x": 2.6576684365,
				"y": 0.6331004834,
				"z": 0.5015090994,
				"element": "H" 
			}
		],
		 "valence_orbital": [ 
			{
				"type": "occ",
				"energy": -0.29851,
				"method": "rhf"
			},
			{
				"type": "occ",
				"energy": -0.28646,
				"method": "rhf"
			},
			{
				"type": "occ",
				"energy": -0.27079,
				"method": "rhf"
			},
			{
				"type": "occ",
				"energy": -0.26411,
				"method": "rhf"
			},
			{
				"type": "occ",
				"energy": -0.24508,
				"method": "rhf"
			},
			{
				"type": "unocc",
				"energy": -0.07652,
				"method": "rhf"
			},
			{
				"type": "unocc",
				"energy": -0.05343,
				"method": "rhf"
			},
			{
				"type": "unocc",
				"energy": -0.01665,
				"method": "rhf"
			},
			{
				"type": "unocc",
				"energy": 0.05345,
				"method": "rhf"
			},
			{
				"type": "unocc",
				"energy": 0.07512,
				"method": "rhf"
			}
		],
		"cosmo_sigma_profile": { 
			"-0.025": 0.0,
			"-0.024": 0.0,
			"-0.023": 0.0,
			"-0.022": 0.0,
			"-0.021": 0.0,
			"-0.02": 0.0,
			"-0.019": 0.271063293662,
			"-0.018": 0.810950239555,
			"-0.017": 1.21420485574,
			"-0.016": 2.17468567096,
			"-0.015": 1.74683321718,
			"-0.014": 1.6029431041,
			"-0.013": 1.48334806051,
			"-0.012": 1.50559623175,
			"-0.011": 1.92976595395,
			"-0.01": 1.52443554041,
			"-0.009": 0.784607203692,
			"-0.008": 2.06556324716,
			"-0.007": 6.09074872791,
			"-0.006": 8.75207361383,
			"-0.005": 11.1698668955,
			"-0.004": 12.686301289,
			"-0.003": 14.7254356544,
			"-0.002": 13.8372261638,
			"-0.001": 12.6530006119,
			"0.0": 14.0595335661,
			"0.001": 17.076909483,
			"0.002": 16.8453990625,
			"0.003": 9.28570815528,
			"0.004": 4.49703780797,
			"0.005": 3.25329247865,
			"0.006": 4.58762905479,
			"0.007": 4.78601690074,
			"0.008": 4.27609088928,
			"0.009": 4.12441436091,
			"0.01": 5.38413182944,
			"0.011": 6.16764982881,
			"0.012": 6.44130424842,
			"0.013": 3.70601802003,
			"0.014": 0.952554730147,
			"0.015": 0.126819857979,
			"0.016": 0.0,
			"0.017": 0.0,
			"0.018": 0.0,
			"0.019": 0.0,
			"0.02": 0.0,
			"0.021": 0.0,
			"0.022": 0.0,
			"0.023": 0.0,
			"0.024": 0.0,
			"0.0": 0.0
		}
	}
}
