{
	 "smiles": "NC1=C(C=C2OCCOC2=C1)[N+]([O-])=O", 
	 "Tm": 424.15, 
	 "num_atms": 22, 
	 "gaussian": { 
		 "optdone": 1, 
		 "sigma_profile": "yes", 
		 "theory": "DFT", 
		 "functional": "B3LYP", 
		 "basiset": "6-31G**", 
		 "properties": { 
			 "R2extent": 3355.8682, 
			 "electric_dipole_moment_norm": 6.24865829279, 
			 "electric_quadrupole_moment_norm": 15.8690683693, 
			 "total_energy": -719.958168365, 
			 "HOMO_LUMO_gap": 0.13344, 
			 "cosmo_polarized_energy": -14.88, 
			 "cosmo_cavitation_energy": 25.88, 
			 "cosmo_dispersion_energy": -20.13, 
			 "cosmo_repulsion_energy": 1.57, 
			 "cosmo_total_nonelectrostatic_energy": 7.32, 
			 "SMD_solvation_energy": 6.71 
		},
		"coords": [
			{
				"x": -0.5401159689,
				"y": 0.6192231636,
				"z": -4.0296681929,
				"element": "N" 
			},
			{
				"x": -0.2600508477,
				"y": 0.3979130452,
				"z": -2.7154395341,
				"element": "C" 
			},
			{
				"x": -0.8002929383,
				"y": 1.1752859016,
				"z": -1.6490883468,
				"element": "C" 
			},
			{
				"x": -0.5159437028,
				"y": 0.8636505468,
				"z": -0.3075113246,
				"element": "C" 
			},
			{
				"x": 0.3138514273,
				"y": -0.1856225775,
				"z": 0.0159464432,
				"element": "C" 
			},
			{
				"x": 0.5780789447,
				"y": -0.4606732942,
				"z": 1.3390486002,
				"element": "O" 
			},
			{
				"x": 1.0609883278,
				"y": -1.7856025372,
				"z": 1.5485547882,
				"element": "C" 
			},
			{
				"x": 2.1918354481,
				"y": -2.0826126764,
				"z": 0.5792512629,
				"element": "C" 
			},
			{
				"x": 1.7252270905,
				"y": -1.9957516519,
				"z": -0.7740382493,
				"element": "O" 
			},
			{
				"x": 0.886772142,
				"y": -0.9529295168,
				"z": -1.0292808307,
				"element": "C" 
			},
			{
				"x": 0.5937259917,
				"y": -0.6657136649,
				"z": -2.3525619705,
				"element": "C" 
			},
			{
				"x": -1.6568657028,
				"y": 2.3105787767,
				"z": -1.8836316719,
				"element": "N" 
			},
			{
				"x": -1.9286973408,
				"y": 2.6309358992,
				"z": -3.0594359315,
				"element": "O" 
			},
			{
				"x": -2.0926205881,
				"y": 2.9334743447,
				"z": -0.9120155013,
				"element": "O" 
			},
			{
				"x": -1.0511993875,
				"y": 1.4601173112,
				"z": -4.2584775623,
				"element": "H" 
			},
			{
				"x": 0.0053068116,
				"y": 0.1442894557,
				"z": -4.7294277793,
				"element": "H" 
			},
			{
				"x": -0.9597554799,
				"y": 1.4662276904,
				"z": 0.4737850789,
				"element": "H" 
			},
			{
				"x": 0.2474188785,
				"y": -2.5119978204,
				"z": 1.411965995,
				"element": "H" 
			},
			{
				"x": 1.4087730385,
				"y": -1.8312463715,
				"z": 2.5833522179,
				"element": "H" 
			},
			{
				"x": 2.5730197033,
				"y": -3.0989292283,
				"z": 0.7043058837,
				"element": "H" 
			},
			{
				"x": 3.0127142039,
				"y": -1.3696427838,
				"z": 0.7284920888,
				"element": "H" 
			},
			{
				"x": 1.0436299488,
				"y": -1.2838740121,
				"z": -3.1228254634,
				"element": "H" 
			}
		],
		 "valence_orbital": [ 
			{
				"type": "occ",
				"energy": -0.29478,
				"method": "rhf"
			},
			{
				"type": "occ",
				"energy": -0.28608,
				"method": "rhf"
			},
			{
				"type": "occ",
				"energy": -0.27451,
				"method": "rhf"
			},
			{
				"type": "occ",
				"energy": -0.24599,
				"method": "rhf"
			},
			{
				"type": "occ",
				"energy": -0.20547,
				"method": "rhf"
			},
			{
				"type": "unocc",
				"energy": -0.07203,
				"method": "rhf"
			},
			{
				"type": "unocc",
				"energy": -0.00055,
				"method": "rhf"
			},
			{
				"type": "unocc",
				"energy": 0.02582,
				"method": "rhf"
			},
			{
				"type": "unocc",
				"energy": 0.07026,
				"method": "rhf"
			},
			{
				"type": "unocc",
				"energy": 0.08779,
				"method": "rhf"
			}
		],
		"cosmo_sigma_profile": { 
			"-0.025": 0.0,
			"-0.024": 0.0,
			"-0.023": 0.0,
			"-0.022": 0.0,
			"-0.021": 0.0,
			"-0.02": 0.0,
			"-0.019": 0.0,
			"-0.018": 0.0,
			"-0.017": 0.0,
			"-0.016": 0.0,
			"-0.015": 0.146425693322,
			"-0.014": 1.34782351901,
			"-0.013": 1.44806037295,
			"-0.012": 1.66571497141,
			"-0.011": 1.3760929692,
			"-0.01": 1.86854378696,
			"-0.009": 2.61691823438,
			"-0.008": 4.27027232516,
			"-0.007": 11.4192904228,
			"-0.006": 16.3661735849,
			"-0.005": 12.4935903017,
			"-0.004": 11.1346389569,
			"-0.003": 9.83475039289,
			"-0.002": 8.90154827514,
			"-0.001": 10.5525708271,
			"0.0": 11.2323577518,
			"0.001": 17.4453649008,
			"0.002": 16.5198485117,
			"0.003": 12.1728665073,
			"0.004": 6.79962797584,
			"0.005": 5.46910449618,
			"0.006": 6.86065974752,
			"0.007": 6.20269191189,
			"0.008": 6.53995627868,
			"0.009": 10.3298079425,
			"0.01": 5.77995819111,
			"0.011": 4.39941928638,
			"0.012": 1.06063890943,
			"0.013": 0.0,
			"0.014": 0.0,
			"0.015": 0.0,
			"0.016": 0.0,
			"0.017": 0.0,
			"0.018": 0.0,
			"0.019": 0.0,
			"0.02": 0.0,
			"0.021": 0.0,
			"0.022": 0.0,
			"0.023": 0.0,
			"0.024": 0.0,
			"0.025": 0.0
		}
	}
}
