{
	 "smiles": "CN1C=NN=C1SCC(=O)NC1=CC(=CC=C1)C(O)=O", 
	 "Tm": 505.15, 
	 "num_atms": 32, 
	 "gaussian": { 
		 "optdone": 1, 
		 "sigma_profile": "yes", 
		 "theory": "DFT", 
		 "functional": "B3LYP", 
		 "basiset": "6-31G**", 
		 "properties": { 
			 "R2extent": 8499.3178, 
			 "electric_dipole_moment_norm": 8.67500644207, 
			 "electric_quadrupole_moment_norm": 15.190580455, 
			 "total_energy": -1307.38850045, 
			 "HOMO_LUMO_gap": 0.17992, 
			 "cosmo_polarized_energy": -24.22, 
			 "cosmo_cavitation_energy": 39.07, 
			 "cosmo_dispersion_energy": -27.99, 
			 "cosmo_repulsion_energy": 2.08, 
			 "cosmo_total_nonelectrostatic_energy": 13.15, 
			 "SMD_solvation_energy": 7.16 
		},
		"coords": [
			{
				"x": -0.3123180933,
				"y": 4.4976198516,
				"z": 1.8280148801,
				"element": "C" 
			},
			{
				"x": 0.0452237534,
				"y": 3.6485368477,
				"z": 0.69999547,
				"element": "N" 
			},
			{
				"x": -0.0548120525,
				"y": 3.9323274566,
				"z": -0.6412127096,
				"element": "C" 
			},
			{
				"x": 0.3695741468,
				"y": 2.9343180358,
				"z": -1.3700111961,
				"element": "N" 
			},
			{
				"x": 0.7608689912,
				"y": 1.9397513946,
				"z": -0.4951705618,
				"element": "N" 
			},
			{
				"x": 0.5638052939,
				"y": 2.3811104548,
				"z": 0.7320876131,
				"element": "C" 
			},
			{
				"x": 0.8932869455,
				"y": 1.528833451,
				"z": 2.2370043654,
				"element": "S" 
			},
			{
				"x": 2.0029362108,
				"y": 0.190886397,
				"z": 1.6146270126,
				"element": "C" 
			},
			{
				"x": 1.2827072618,
				"y": -1.0749755956,
				"z": 1.1238295437,
				"element": "C" 
			},
			{
				"x": 1.2705850033,
				"y": -2.0810574994,
				"z": 1.8213563125,
				"element": "O" 
			},
			{
				"x": 0.7253829473,
				"y": -0.9465108948,
				"z": -0.1165335448,
				"element": "N" 
			},
			{
				"x": -0.0132406786,
				"y": -1.9016620597,
				"z": -0.841468686,
				"element": "C" 
			},
			{
				"x": -0.2297578415,
				"y": -3.213809783,
				"z": -0.3974407904,
				"element": "C" 
			},
			{
				"x": -0.9748804078,
				"y": -4.0916354057,
				"z": -1.1952260009,
				"element": "C" 
			},
			{
				"x": -1.5040989822,
				"y": -3.6808172173,
				"z": -2.4246556029,
				"element": "C" 
			},
			{
				"x": -1.2838685843,
				"y": -2.3758077514,
				"z": -2.8576866791,
				"element": "C" 
			},
			{
				"x": -0.5457202899,
				"y": -1.4906074719,
				"z": -2.0760937009,
				"element": "C" 
			},
			{
				"x": -1.2334035978,
				"y": -5.4941089792,
				"z": -0.7690841776,
				"element": "C" 
			},
			{
				"x": -0.6793029769,
				"y": -5.8019787681,
				"z": 0.4293068483,
				"element": "O" 
			},
			{
				"x": -1.8733112451,
				"y": -6.3074719459,
				"z": -1.4083744494,
				"element": "O" 
			},
			{
				"x": -0.5297278957,
				"y": 5.4998720701,
				"z": 1.45668758,
				"element": "H" 
			},
			{
				"x": -1.1951189739,
				"y": 4.10923169,
				"z": 2.3438246011,
				"element": "H" 
			},
			{
				"x": 0.5205430144,
				"y": 4.5521529043,
				"z": 2.5336922617,
				"element": "H" 
			},
			{
				"x": -0.4397051055,
				"y": 4.870782213,
				"z": -1.0143263088,
				"element": "H" 
			},
			{
				"x": 2.5968421775,
				"y": -0.0975386581,
				"z": 2.4821111241,
				"element": "H" 
			},
			{
				"x": 2.6482807124,
				"y": 0.6285613873,
				"z": 0.849289698,
				"element": "H" 
			},
			{
				"x": 0.7917942549,
				"y": -0.0135552932,
				"z": -0.5362446478,
				"element": "H" 
			},
			{
				"x": 0.1750534744,
				"y": -3.5342703865,
				"z": 0.5508807821,
				"element": "H" 
			},
			{
				"x": -2.0748499306,
				"y": -4.3893406412,
				"z": -3.0140645648,
				"element": "H" 
			},
			{
				"x": -1.6871965075,
				"y": -2.0406005854,
				"z": -3.808509523,
				"element": "H" 
			},
			{
				"x": -0.3779452383,
				"y": -0.4717498279,
				"z": -2.415899034,
				"element": "H" 
			},
			{
				"x": -0.9142257861,
				"y": -6.7293853897,
				"z": 0.5953940851,
				"element": "H" 
			}
		],
		 "valence_orbital": [ 
			{
				"type": "occ",
				"energy": -0.26559,
				"method": "rhf"
			},
			{
				"type": "occ",
				"energy": -0.26009,
				"method": "rhf"
			},
			{
				"type": "occ",
				"energy": -0.25232,
				"method": "rhf"
			},
			{
				"type": "occ",
				"energy": -0.24215,
				"method": "rhf"
			},
			{
				"type": "occ",
				"energy": -0.2181,
				"method": "rhf"
			},
			{
				"type": "unocc",
				"energy": -0.03818,
				"method": "rhf"
			},
			{
				"type": "unocc",
				"energy": -0.02666,
				"method": "rhf"
			},
			{
				"type": "unocc",
				"energy": -0.00682,
				"method": "rhf"
			},
			{
				"type": "unocc",
				"energy": 0.00683,
				"method": "rhf"
			},
			{
				"type": "unocc",
				"energy": 0.01862,
				"method": "rhf"
			}
		],
		"cosmo_sigma_profile": { 
			"-0.025": 0.0,
			"-0.024": 0.0,
			"-0.023": 0.0,
			"-0.022": 0.0,
			"-0.021": 0.0,
			"-0.02": 0.0,
			"-0.019": 0.0716629627311,
			"-0.018": 0.617957828066,
			"-0.017": 1.08581181757,
			"-0.016": 0.904362687725,
			"-0.015": 0.551938585926,
			"-0.014": 0.645413250861,
			"-0.013": 0.430590281867,
			"-0.012": 0.743673194934,
			"-0.011": 3.51897151505,
			"-0.01": 3.48612015476,
			"-0.009": 4.27980726559,
			"-0.008": 7.7481053725,
			"-0.007": 14.8106261434,
			"-0.006": 17.9407190549,
			"-0.005": 22.8991979252,
			"-0.004": 22.0960926743,
			"-0.003": 15.3583942352,
			"-0.002": 17.0087220774,
			"-0.001": 15.4850871782,
			"0.0": 19.5956716488,
			"0.001": 23.0883508864,
			"0.002": 24.9937359951,
			"0.003": 22.121665863,
			"0.004": 14.443323759,
			"0.005": 7.92571157399,
			"0.006": 7.83578314459,
			"0.007": 7.45830246169,
			"0.008": 4.27958817378,
			"0.009": 4.52604904979,
			"0.01": 5.96565823923,
			"0.011": 7.88180725901,
			"0.012": 8.28743471798,
			"0.013": 3.63622488996,
			"0.014": 1.31160323489,
			"0.015": 1.32667390382,
			"0.016": 0.777684026414,
			"0.017": 0.029522265318,
			"0.018": 0.0,
			"0.019": 0.0,
			"0.02": 0.0,
			"0.021": 0.0,
			"0.022": 0.0,
			"0.023": 0.0,
			"0.024": 0.0,
			"0.025": 0.0
		}
	}
}
