{
	 "smiles": "CC1=C(C)C(C)=C2C(=O)CC2=C1", 
	 "Tm": 376.15, 
	 "num_atms": 24, 
	 "gaussian": { 
		 "optdone": 1, 
		 "sigma_profile": "yes", 
		 "theory": "DFT", 
		 "functional": "B3LYP", 
		 "basiset": "6-31G**", 
		 "properties": { 
			 "R2extent": 2363.4572, 
			 "electric_dipole_moment_norm": 4.00365073527, 
			 "electric_quadrupole_moment_norm": 12.4167708636, 
			 "total_energy": -501.607195862, 
			 "HOMO_LUMO_gap": 0.19107, 
			 "cosmo_polarized_energy": -7.65, 
			 "cosmo_cavitation_energy": 26.8, 
			 "cosmo_dispersion_energy": -19.44, 
			 "cosmo_repulsion_energy": 1.55, 
			 "cosmo_total_nonelectrostatic_energy": 8.91, 
			 "SMD_solvation_energy": 4.97 
		},
		"coords": [
			{
				"x": -1.8428989538,
				"y": -2.3143983227,
				"z": 0.1238624369,
				"element": "C" 
			},
			{
				"x": -1.1090867834,
				"y": -0.9964400493,
				"z": 0.0329425632,
				"element": "C" 
			},
			{
				"x": -1.8132002621,
				"y": 0.2187059945,
				"z": 0.272874872,
				"element": "C" 
			},
			{
				"x": -3.2859689113,
				"y": 0.1502321911,
				"z": 0.6139424327,
				"element": "C" 
			},
			{
				"x": -1.1532568843,
				"y": 1.4644265984,
				"z": 0.1949530566,
				"element": "C" 
			},
			{
				"x": -1.8206110008,
				"y": 2.7977376145,
				"z": 0.4337422686,
				"element": "C" 
			},
			{
				"x": 0.2036775775,
				"y": 1.4020281792,
				"z": -0.1271859054,
				"element": "C" 
			},
			{
				"x": 1.4280866322,
				"y": 2.220315689,
				"z": -0.3629238434,
				"element": "C" 
			},
			{
				"x": 1.7148066364,
				"y": 3.3933980471,
				"z": -0.3571483933,
				"element": "O" 
			},
			{
				"x": 2.2417387168,
				"y": 0.8950459873,
				"z": -0.6354169253,
				"element": "C" 
			},
			{
				"x": 0.9016128144,
				"y": 0.2148031695,
				"z": -0.3639149063,
				"element": "C" 
			},
			{
				"x": 0.2619282849,
				"y": -1.0091292211,
				"z": -0.2892350457,
				"element": "C" 
			},
			{
				"x": -1.1731968734,
				"y": -3.1520520332,
				"z": -0.0852072159,
				"element": "H" 
			},
			{
				"x": -2.6752681385,
				"y": -2.3649953652,
				"z": -0.5883702357,
				"element": "H" 
			},
			{
				"x": -2.2740033133,
				"y": -2.4705593497,
				"z": 1.1200810851,
				"element": "H" 
			},
			{
				"x": -3.4619111661,
				"y": -0.4369492013,
				"z": 1.5234411684,
				"element": "H" 
			},
			{
				"x": -3.714612871,
				"y": 1.1396276096,
				"z": 0.7758042322,
				"element": "H" 
			},
			{
				"x": -3.8625678529,
				"y": -0.3309818446,
				"z": -0.1853558597,
				"element": "H" 
			},
			{
				"x": -1.0950436933,
				"y": 3.6051182999,
				"z": 0.3136072948,
				"element": "H" 
			},
			{
				"x": -2.6421703365,
				"y": 2.9727429849,
				"z": -0.2703115347,
				"element": "H" 
			},
			{
				"x": -2.2405195284,
				"y": 2.8668011815,
				"z": 1.4437684618,
				"element": "H" 
			},
			{
				"x": 2.6424750493,
				"y": 0.8078315007,
				"z": -1.6516216564,
				"element": "H" 
			},
			{
				"x": 3.0477633904,
				"y": 0.7005787562,
				"z": 0.0810893929,
				"element": "H" 
			},
			{
				"x": 0.7679274671,
				"y": -1.9542884164,
				"z": -0.4660177431,
				"element": "H" 
			}
		],
		 "valence_orbital": [ 
			{
				"type": "occ",
				"energy": -0.33835,
				"method": "rhf"
			},
			{
				"type": "occ",
				"energy": -0.3233,
				"method": "rhf"
			},
			{
				"type": "occ",
				"energy": -0.24805,
				"method": "rhf"
			},
			{
				"type": "occ",
				"energy": -0.2399,
				"method": "rhf"
			},
			{
				"type": "occ",
				"energy": -0.23867,
				"method": "rhf"
			},
			{
				"type": "unocc",
				"energy": -0.0476,
				"method": "rhf"
			},
			{
				"type": "unocc",
				"energy": -0.00794,
				"method": "rhf"
			},
			{
				"type": "unocc",
				"energy": 0.05388,
				"method": "rhf"
			},
			{
				"type": "unocc",
				"energy": 0.08323,
				"method": "rhf"
			},
			{
				"type": "unocc",
				"energy": 0.11081,
				"method": "rhf"
			}
		],
		"cosmo_sigma_profile": { 
			"-0.025": 0.0,
			"-0.024": 0.0,
			"-0.023": 0.0,
			"-0.022": 0.0,
			"-0.021": 0.0,
			"-0.02": 0.0,
			"-0.019": 0.0,
			"-0.018": 0.0,
			"-0.017": 0.0,
			"-0.016": 0.0,
			"-0.015": 0.0,
			"-0.014": 0.0,
			"-0.013": 0.0,
			"-0.012": 0.0,
			"-0.011": 0.0,
			"-0.01": 0.0,
			"-0.009": 0.0,
			"-0.008": 0.0,
			"-0.007": 0.0,
			"-0.006": 3.02122659193,
			"-0.005": 12.1830300035,
			"-0.004": 24.4971524097,
			"-0.003": 22.4304627156,
			"-0.002": 23.6009003521,
			"-0.001": 27.9967177638,
			"0.0": 30.0040553228,
			"0.001": 15.7316454275,
			"0.002": 8.92352843468,
			"0.003": 9.27923908975,
			"0.004": 11.0261089448,
			"0.005": 3.89381167435,
			"0.006": 1.96202418972,
			"0.007": 1.16402861432,
			"0.008": 2.11968223857,
			"0.009": 1.87347761898,
			"0.01": 2.80637755963,
			"0.011": 3.85820157614,
			"0.012": 4.64239555352,
			"0.013": 0.992058233539,
			"0.014": 0.0,
			"0.015": 0.0,
			"0.016": 0.0,
			"0.017": 0.0,
			"0.018": 0.0,
			"0.019": 0.0,
			"0.02": 0.0,
			"0.021": 0.0,
			"0.022": 0.0,
			"0.023": 0.0,
			"0.024": 0.0,
			"0.025": 0.0
		}
	}
}
