{
	 "smiles": "OC(=O)C1=CC=C(NC(=O)C23CC4CC(CC(C4)C2)C3)C=C1", 
	 "Tm": 558.15, 
	 "num_atms": 43, 
	 "gaussian": { 
		 "optdone": 1, 
		 "sigma_profile": "yes", 
		 "theory": "DFT", 
		 "functional": "B3LYP", 
		 "basiset": "6-31G**", 
		 "properties": { 
			 "R2extent": 10556.9582, 
			 "electric_dipole_moment_norm": 5.50941397973, 
			 "electric_quadrupole_moment_norm": 12.9960324703, 
			 "total_energy": -979.067553894, 
			 "HOMO_LUMO_gap": 0.1831, 
			 "cosmo_polarized_energy": -17.05, 
			 "cosmo_cavitation_energy": 42.01, 
			 "cosmo_dispersion_energy": -30.89, 
			 "cosmo_repulsion_energy": 2.3, 
			 "cosmo_total_nonelectrostatic_energy": 13.43, 
			 "SMD_solvation_energy": 7.16 
		},
		"coords": [
			{
				"x": 4.0699908919,
				"y": 2.1259782514,
				"z": -5.0933469557,
				"element": "O" 
			},
			{
				"x": 4.3723074752,
				"y": 1.8127802428,
				"z": -3.8045787105,
				"element": "C" 
			},
			{
				"x": 5.485055862,
				"y": 1.9930071936,
				"z": -3.3474290056,
				"element": "O" 
			},
			{
				"x": 3.2245066144,
				"y": 1.2481849424,
				"z": -3.0590418251,
				"element": "C" 
			},
			{
				"x": 1.9628320427,
				"y": 1.0641386487,
				"z": -3.6436672869,
				"element": "C" 
			},
			{
				"x": 0.9220502807,
				"y": 0.5300296098,
				"z": -2.8983670859,
				"element": "C" 
			},
			{
				"x": 1.113632824,
				"y": 0.1663546511,
				"z": -1.5519298054,
				"element": "C" 
			},
			{
				"x": 0.0087676941,
				"y": -0.3676976398,
				"z": -0.8697323967,
				"element": "N" 
			},
			{
				"x": -0.0864446136,
				"y": -0.8069068517,
				"z": 0.4401130674,
				"element": "C" 
			},
			{
				"x": 0.8544474973,
				"y": -0.7758253816,
				"z": 1.2207128866,
				"element": "O" 
			},
			{
				"x": -1.476278986,
				"y": -1.3412718866,
				"z": 0.8394791964,
				"element": "C" 
			},
			{
				"x": -1.4284687327,
				"y": -1.7922955292,
				"z": 2.3185751837,
				"element": "C" 
			},
			{
				"x": -2.8010806418,
				"y": -2.3362119929,
				"z": 2.7602298106,
				"element": "C" 
			},
			{
				"x": -3.1839184069,
				"y": -3.5446995178,
				"z": 1.882064011,
				"element": "C" 
			},
			{
				"x": -3.2551550683,
				"y": -3.1031205678,
				"z": 0.4064919332,
				"element": "C" 
			},
			{
				"x": -4.3168264288,
				"y": -1.9943914356,
				"z": 0.2513979463,
				"element": "C" 
			},
			{
				"x": -3.9381744506,
				"y": -0.7874110596,
				"z": 1.134792308,
				"element": "C" 
			},
			{
				"x": -3.8664886042,
				"y": -1.2315282777,
				"z": 2.6095828087,
				"element": "C" 
			},
			{
				"x": -2.5645663864,
				"y": -0.2392935953,
				"z": 0.6928661891,
				"element": "C" 
			},
			{
				"x": -1.8798323602,
				"y": -2.5612732514,
				"z": -0.0375375624,
				"element": "C" 
			},
			{
				"x": 2.3771880282,
				"y": 0.3493859096,
				"z": -0.9608048982,
				"element": "C" 
			},
			{
				"x": 3.411558841,
				"y": 0.8853147719,
				"z": -1.7184231456,
				"element": "C" 
			},
			{
				"x": 4.8905051871,
				"y": 2.4813608942,
				"z": -5.4719130308,
				"element": "H" 
			},
			{
				"x": 1.8035512362,
				"y": 1.3403572387,
				"z": -4.6796826708,
				"element": "H" 
			},
			{
				"x": -0.0534049969,
				"y": 0.3901441244,
				"z": -3.3589722033,
				"element": "H" 
			},
			{
				"x": -0.8329039973,
				"y": -0.4407853399,
				"z": -1.4225811669,
				"element": "H" 
			},
			{
				"x": -0.6526196453,
				"y": -2.5554746638,
				"z": 2.440680125,
				"element": "H" 
			},
			{
				"x": -1.127110531,
				"y": -0.9471627841,
				"z": 2.9464678148,
				"element": "H" 
			},
			{
				"x": -2.7402064378,
				"y": -2.6484630902,
				"z": 3.810077963,
				"element": "H" 
			},
			{
				"x": -4.1523862344,
				"y": -3.9532686933,
				"z": 2.1983170089,
				"element": "H" 
			},
			{
				"x": -2.4445114148,
				"y": -4.3472269679,
				"z": 2.0006575703,
				"element": "H" 
			},
			{
				"x": -3.5205901324,
				"y": -3.9600479515,
				"z": -0.2253105722,
				"element": "H" 
			},
			{
				"x": -4.3920915627,
				"y": -1.685907056,
				"z": -0.8002032334,
				"element": "H" 
			},
			{
				"x": -5.3040090771,
				"y": -2.3765153464,
				"z": 0.5407247104,
				"element": "H" 
			},
			{
				"x": -4.6898507896,
				"y": 0.0038409639,
				"z": 1.0213127915,
				"element": "H" 
			},
			{
				"x": -3.616626974,
				"y": -0.3757099885,
				"z": 3.2498909502,
				"element": "H" 
			},
			{
				"x": -4.846630822,
				"y": -1.6007841068,
				"z": 2.9379958386,
				"element": "H" 
			},
			{
				"x": -2.2885033162,
				"y": 0.6322340497,
				"z": 1.2994651664,
				"element": "H" 
			},
			{
				"x": -2.6318052788,
				"y": 0.1098192469,
				"z": -0.3465685977,
				"element": "H" 
			},
			{
				"x": -1.1156797878,
				"y": -3.3438436566,
				"z": 0.0484959128,
				"element": "H" 
			},
			{
				"x": -1.9264391705,
				"y": -2.2829388027,
				"z": -1.0992256242,
				"element": "H" 
			},
			{
				"x": 2.5243573405,
				"y": 0.070556838,
				"z": 0.0721863157,
				"element": "H" 
			},
			{
				"x": 4.3914530327,
				"y": 1.0320678577,
				"z": -1.2764617313,
				"element": "H" 
			}
		],
		 "valence_orbital": [ 
			{
				"type": "occ",
				"energy": -0.28919,
				"method": "rhf"
			},
			{
				"type": "occ",
				"energy": -0.27015,
				"method": "rhf"
			},
			{
				"type": "occ",
				"energy": -0.25942,
				"method": "rhf"
			},
			{
				"type": "occ",
				"energy": -0.25222,
				"method": "rhf"
			},
			{
				"type": "occ",
				"energy": -0.22827,
				"method": "rhf"
			},
			{
				"type": "unocc",
				"energy": -0.04517,
				"method": "rhf"
			},
			{
				"type": "unocc",
				"energy": -0.00747,
				"method": "rhf"
			},
			{
				"type": "unocc",
				"energy": 0.01685,
				"method": "rhf"
			},
			{
				"type": "unocc",
				"energy": 0.04526,
				"method": "rhf"
			},
			{
				"type": "unocc",
				"energy": 0.07333,
				"method": "rhf"
			}
		],
		"cosmo_sigma_profile": { 
			"-0.025": 0.0,
			"-0.024": 0.0,
			"-0.023": 0.0,
			"-0.022": 0.0,
			"-0.021": 0.0,
			"-0.02": 0.0,
			"-0.019": 0.0,
			"-0.018": 0.346230090188,
			"-0.017": 1.01729446664,
			"-0.016": 1.25783191421,
			"-0.015": 0.547337182556,
			"-0.014": 1.80878980483,
			"-0.013": 2.11721160479,
			"-0.012": 2.54098118376,
			"-0.011": 2.52988550646,
			"-0.01": 1.86699951834,
			"-0.009": 1.92669552082,
			"-0.008": 2.27049461831,
			"-0.007": 3.4486229331,
			"-0.006": 5.78160091271,
			"-0.005": 7.76004014211,
			"-0.004": 8.82847035732,
			"-0.003": 17.6823979186,
			"-0.002": 47.677986878,
			"-0.001": 48.6910545127,
			"0.0": 46.1424560183,
			"0.001": 33.621427452,
			"0.002": 18.0831571864,
			"0.003": 19.5444983302,
			"0.004": 11.439243378,
			"0.005": 4.97033317787,
			"0.006": 4.33576938129,
			"0.007": 5.3910048373,
			"0.008": 4.44451845577,
			"0.009": 2.97379796614,
			"0.01": 3.54582216923,
			"0.011": 4.78918393093,
			"0.012": 7.87891056705,
			"0.013": 2.64391234148,
			"0.014": 0.341937184534,
			"0.015": 0.0,
			"0.016": 0.0,
			"0.017": 0.0,
			"0.018": 0.0,
			"0.019": 0.0,
			"0.02": 0.0,
			"0.021": 0.0,
			"0.022": 0.0,
			"0.023": 0.0,
			"0.024": 0.0,
			"0.025": 0.0
		}
	}
}
