{
	 "smiles": "CSCCC(N)C(O)=O", 
	 "Tm": 554.15, 
	 "num_atms": 20, 
	 "gaussian": { 
		 "optdone": 1, 
		 "sigma_profile": "yes", 
		 "theory": "DFT", 
		 "functional": "B3LYP", 
		 "basiset": "6-31G**", 
		 "properties": { 
			 "R2extent": 2299.5879, 
			 "electric_dipole_moment_norm": 3.5628137125, 
			 "electric_quadrupole_moment_norm": 12.8980224457, 
			 "total_energy": -800.560216185, 
			 "HOMO_LUMO_gap": 0.25099, 
			 "cosmo_polarized_energy": -13.85, 
			 "cosmo_cavitation_energy": 23.92, 
			 "cosmo_dispersion_energy": -17.82, 
			 "cosmo_repulsion_energy": 1.43, 
			 "cosmo_total_nonelectrostatic_energy": 7.52, 
			 "SMD_solvation_energy": 4.04 
		},
		"coords": [
			{
				"x": -0.455658109,
				"y": -0.9556738411,
				"z": -2.2042659452,
				"element": "C" 
			},
			{
				"x": -1.1323865988,
				"y": 0.27270274,
				"z": -1.0340433354,
				"element": "S" 
			},
			{
				"x": 0.2268727223,
				"y": 0.2963724767,
				"z": 0.2132919927,
				"element": "C" 
			},
			{
				"x": -0.1369325698,
				"y": 1.1540106521,
				"z": 1.4308136049,
				"element": "C" 
			},
			{
				"x": -1.4547315754,
				"y": 0.80710693,
				"z": 2.1696944202,
				"element": "C" 
			},
			{
				"x": -1.5659431667,
				"y": 1.6751755771,
				"z": 3.3363432239,
				"element": "N" 
			},
			{
				"x": -1.5076301875,
				"y": -0.6903639564,
				"z": 2.5414210172,
				"element": "C" 
			},
			{
				"x": -1.8569204689,
				"y": -1.5478744984,
				"z": 1.556952921,
				"element": "O" 
			},
			{
				"x": -1.2376356527,
				"y": -1.095193535,
				"z": 3.6487341449,
				"element": "O" 
			},
			{
				"x": 0.476794472,
				"y": -0.5952865411,
				"z": -2.6452308749,
				"element": "H" 
			},
			{
				"x": -0.2885907742,
				"y": -1.916634575,
				"z": -1.711524704,
				"element": "H" 
			},
			{
				"x": -1.1960006996,
				"y": -1.0839810122,
				"z": -2.9963473784,
				"element": "H" 
			},
			{
				"x": 1.126977572,
				"y": 0.6965858525,
				"z": -0.2622054782,
				"element": "H" 
			},
			{
				"x": 0.4273487774,
				"y": -0.7388568831,
				"z": 0.5067342636,
				"element": "H" 
			},
			{
				"x": -0.2008692806,
				"y": 2.2094063522,
				"z": 1.1504818176,
				"element": "H" 
			},
			{
				"x": 0.6861813619,
				"y": 1.0693536377,
				"z": 2.1515413453,
				"element": "H" 
			},
			{
				"x": -2.2961417107,
				"y": 1.0260703844,
				"z": 1.5007456621,
				"element": "H" 
			},
			{
				"x": -0.9791607554,
				"y": 1.2781535237,
				"z": 4.0699762915,
				"element": "H" 
			},
			{
				"x": -2.5135166102,
				"y": 1.622455921,
				"z": 3.7036915456,
				"element": "H" 
			},
			{
				"x": -2.0036567463,
				"y": -1.0632292052,
				"z": 0.7175954655,
				"element": "H" 
			}
		],
		 "valence_orbital": [ 
			{
				"type": "occ",
				"energy": -0.32465,
				"method": "rhf"
			},
			{
				"type": "occ",
				"energy": -0.30909,
				"method": "rhf"
			},
			{
				"type": "occ",
				"energy": -0.2722,
				"method": "rhf"
			},
			{
				"type": "occ",
				"energy": -0.24827,
				"method": "rhf"
			},
			{
				"type": "occ",
				"energy": -0.246,
				"method": "rhf"
			},
			{
				"type": "unocc",
				"energy": 0.00499,
				"method": "rhf"
			},
			{
				"type": "unocc",
				"energy": 0.02485,
				"method": "rhf"
			},
			{
				"type": "unocc",
				"energy": 0.0569,
				"method": "rhf"
			},
			{
				"type": "unocc",
				"energy": 0.06947,
				"method": "rhf"
			},
			{
				"type": "unocc",
				"energy": 0.09125,
				"method": "rhf"
			}
		],
		"cosmo_sigma_profile": { 
			"-0.025": 0.0,
			"-0.024": 0.0,
			"-0.023": 0.0,
			"-0.022": 0.0,
			"-0.021": 0.0,
			"-0.02": 0.0,
			"-0.019": 0.0,
			"-0.018": 0.0,
			"-0.017": 0.0,
			"-0.016": 0.0,
			"-0.015": 0.0,
			"-0.014": 0.0,
			"-0.013": 0.0,
			"-0.012": 0.0,
			"-0.011": 0.686792311144,
			"-0.01": 2.1057654329,
			"-0.009": 3.15151411964,
			"-0.008": 3.82042935849,
			"-0.007": 6.04757645798,
			"-0.006": 11.5448592044,
			"-0.005": 22.1824605247,
			"-0.004": 19.3514802333,
			"-0.003": 18.5549703076,
			"-0.002": 17.5668921995,
			"-0.001": 10.5879342814,
			"0.0": 5.91361614238,
			"0.001": 6.1543610104,
			"0.002": 4.4524915093,
			"0.003": 4.76635525687,
			"0.004": 4.82505973093,
			"0.005": 5.97516114823,
			"0.006": 4.01720668902,
			"0.007": 3.91554882304,
			"0.008": 4.66577365204,
			"0.009": 4.5411245713,
			"0.01": 5.26055018531,
			"0.011": 6.48913824058,
			"0.012": 5.86931774641,
			"0.013": 2.67846877837,
			"0.014": 0.627740301328,
			"0.015": 0.590216020779,
			"0.016": 0.59373496029,
			"0.017": 0.717322540722,
			"0.018": 0.423683732078,
			"0.019": 0.0386861695208,
			"0.02": 0.0,
			"0.021": 0.0,
			"0.022": 0.0,
			"0.023": 0.0,
			"0.024": 0.0,
			"0.025": 0.0
		}
	}
}
