{
	 "smiles": "N#CCC1=NC2=C(N1)C=CC=C2", 
	 "Tm": 485.15, 
	 "num_atms": 19, 
	 "gaussian": { 
		 "optdone": 1, 
		 "sigma_profile": "yes", 
		 "theory": "DFT", 
		 "functional": "B3LYP", 
		 "basiset": "6-31G**", 
		 "properties": { 
			 "R2extent": 2903.0712, 
			 "electric_dipole_moment_norm": 1.10096901864, 
			 "electric_quadrupole_moment_norm": 13.442160201, 
			 "total_energy": -511.424734659, 
			 "HOMO_LUMO_gap": 0.20669, 
			 "cosmo_polarized_energy": -14.65, 
			 "cosmo_cavitation_energy": 24.36, 
			 "cosmo_dispersion_energy": -17.75, 
			 "cosmo_repulsion_energy": 1.41, 
			 "cosmo_total_nonelectrostatic_energy": 8.02, 
			 "SMD_solvation_energy": 3.15 
		},
		"coords": [
			{
				"x": 2.9661212686,
				"y": 3.5920526969,
				"z": -2.8423952904,
				"element": "N" 
			},
			{
				"x": 2.8400069293,
				"y": 2.9471945687,
				"z": -1.8858309106,
				"element": "C" 
			},
			{
				"x": 2.6306024367,
				"y": 2.1035761429,
				"z": -0.7070039772,
				"element": "C" 
			},
			{
				"x": 1.2229493863,
				"y": 1.5682784982,
				"z": -0.6103313155,
				"element": "C" 
			},
			{
				"x": 0.73378352,
				"y": 1.0142141728,
				"z": 0.4688685638,
				"element": "N" 
			},
			{
				"x": -0.5568859485,
				"y": 0.6358878495,
				"z": 0.1177049397,
				"element": "C" 
			},
			{
				"x": -0.8258079376,
				"y": 0.9912913539,
				"z": -1.226728158,
				"element": "C" 
			},
			{
				"x": 0.3450820711,
				"y": 1.5856066893,
				"z": -1.6698736117,
				"element": "N" 
			},
			{
				"x": -2.0529841947,
				"y": 0.7368036439,
				"z": -1.8418119389,
				"element": "C" 
			},
			{
				"x": -3.0198552935,
				"y": 0.103568387,
				"z": -1.0652192605,
				"element": "C" 
			},
			{
				"x": -2.7696373896,
				"y": -0.2598650707,
				"z": 0.2740008783,
				"element": "C" 
			},
			{
				"x": -1.544778876,
				"y": -0.0007595254,
				"z": 0.8798030442,
				"element": "C" 
			},
			{
				"x": 3.3462993148,
				"y": 1.2721074041,
				"z": -0.7402007038,
				"element": "H" 
			},
			{
				"x": 2.8547589323,
				"y": 2.674144084,
				"z": 0.2001345901,
				"element": "H" 
			},
			{
				"x": 0.5170864064,
				"y": 2.0029014862,
				"z": -2.5730550922,
				"element": "H" 
			},
			{
				"x": -2.2486909734,
				"y": 1.015340421,
				"z": -2.8727599745,
				"element": "H" 
			},
			{
				"x": -3.989567498,
				"y": -0.1155319656,
				"z": -1.5019782218,
				"element": "H" 
			},
			{
				"x": -3.55357751,
				"y": -0.7525052874,
				"z": 0.8413426396,
				"element": "H" 
			},
			{
				"x": -1.3469046442,
				"y": -0.2772055493,
				"z": 1.9102337996,
				"element": "H" 
			}
		],
		 "valence_orbital": [ 
			{
				"type": "occ",
				"energy": -0.34104,
				"method": "rhf"
			},
			{
				"type": "occ",
				"energy": -0.31222,
				"method": "rhf"
			},
			{
				"type": "occ",
				"energy": -0.28293,
				"method": "rhf"
			},
			{
				"type": "occ",
				"energy": -0.23502,
				"method": "rhf"
			},
			{
				"type": "occ",
				"energy": -0.23036,
				"method": "rhf"
			},
			{
				"type": "unocc",
				"energy": -0.02367,
				"method": "rhf"
			},
			{
				"type": "unocc",
				"energy": 0.01355,
				"method": "rhf"
			},
			{
				"type": "unocc",
				"energy": 0.01478,
				"method": "rhf"
			},
			{
				"type": "unocc",
				"energy": 0.02024,
				"method": "rhf"
			},
			{
				"type": "unocc",
				"energy": 0.04471,
				"method": "rhf"
			}
		],
		"cosmo_sigma_profile": { 
			"-0.025": 0.0,
			"-0.024": 0.0,
			"-0.023": 0.0,
			"-0.022": 0.0,
			"-0.021": 0.0,
			"-0.02": 0.0,
			"-0.019": 0.0,
			"-0.018": 0.0,
			"-0.017": 0.00670930833027,
			"-0.016": 0.527425932953,
			"-0.015": 1.32215398412,
			"-0.014": 0.770584253906,
			"-0.013": 0.711133934604,
			"-0.012": 1.22911821811,
			"-0.011": 1.60534786705,
			"-0.01": 6.81454371118,
			"-0.009": 6.00276713203,
			"-0.008": 6.2445892254,
			"-0.007": 7.788042397,
			"-0.006": 8.87264247741,
			"-0.005": 11.8995337656,
			"-0.004": 12.1511471876,
			"-0.003": 9.97089326283,
			"-0.002": 8.90807056559,
			"-0.001": 8.64311597066,
			"0.0": 9.6510076891,
			"0.001": 10.1242309694,
			"0.002": 9.08778854349,
			"0.003": 10.8213623454,
			"0.004": 12.5392729098,
			"0.005": 13.3275881382,
			"0.006": 10.2743133439,
			"0.007": 4.34410702992,
			"0.008": 4.47547341241,
			"0.009": 3.30526811812,
			"0.01": 3.97646243837,
			"0.011": 3.07278317548,
			"0.012": 3.47113468907,
			"0.013": 1.68427410283,
			"0.014": 0.818129967169,
			"0.015": 0.959043166405,
			"0.016": 0.831032158042,
			"0.017": 0.543333786124,
			"0.018": 0.0355180554255,
			"0.019": 0.0,
			"0.02": 0.0,
			"0.021": 0.0,
			"0.022": 0.0,
			"0.023": 0.0,
			"0.024": 0.0,
			"0.025": 0.0
		}
	}
}
