{
	 "smiles": "CCOC1=C(N)C=C(C=C1)S(=O)(=O)N(C)C", 
	 "Tm": 398.15, 
	 "num_atms": 32, 
	 "gaussian": { 
		 "optdone": 1, 
		 "sigma_profile": "yes", 
		 "theory": "DFT", 
		 "functional": "B3LYP", 
		 "basiset": "6-31G**", 
		 "properties": { 
			 "R2extent": 5468.0466, 
			 "electric_dipole_moment_norm": 6.43635215398, 
			 "electric_quadrupole_moment_norm": 21.0858539974, 
			 "total_energy": -1123.99335353, 
			 "HOMO_LUMO_gap": 0.18582, 
			 "cosmo_polarized_energy": -18.06, 
			 "cosmo_cavitation_energy": 35.7, 
			 "cosmo_dispersion_energy": -25.83, 
			 "cosmo_repulsion_energy": 2.0, 
			 "cosmo_total_nonelectrostatic_energy": 11.87, 
			 "SMD_solvation_energy": 5.24 
		},
		"coords": [
			{
				"x": 0.2503089999,
				"y": 3.9675458112,
				"z": 2.260389541,
				"element": "C" 
			},
			{
				"x": 1.2572941296,
				"y": 2.8403649413,
				"z": 2.4592082048,
				"element": "C" 
			},
			{
				"x": 1.8223553998,
				"y": 2.385654091,
				"z": 1.2243137337,
				"element": "O" 
			},
			{
				"x": 1.1173181297,
				"y": 1.535287237,
				"z": 0.416684019,
				"element": "C" 
			},
			{
				"x": 1.7709437547,
				"y": 1.2342212228,
				"z": -0.8066302172,
				"element": "C" 
			},
			{
				"x": 2.968043094,
				"y": 1.8706932033,
				"z": -1.1075565574,
				"element": "N" 
			},
			{
				"x": 1.1560868725,
				"y": 0.3424038625,
				"z": -1.689047994,
				"element": "C" 
			},
			{
				"x": -0.0780173388,
				"y": -0.2258626832,
				"z": -1.3629052235,
				"element": "C" 
			},
			{
				"x": -0.7297449649,
				"y": 0.0786337372,
				"z": -0.1711828663,
				"element": "C" 
			},
			{
				"x": -0.1187396118,
				"y": 0.9631567246,
				"z": 0.7206522663,
				"element": "C" 
			},
			{
				"x": -0.8633697974,
				"y": -1.3134997146,
				"z": -2.5453767298,
				"element": "S" 
			},
			{
				"x": -2.2699817767,
				"y": -0.9281540255,
				"z": -2.7059689062,
				"element": "O" 
			},
			{
				"x": 0.0146705275,
				"y": -1.4043886059,
				"z": -3.7239383128,
				"element": "O" 
			},
			{
				"x": -0.8843787995,
				"y": -2.7902232746,
				"z": -1.683068927,
				"element": "N" 
			},
			{
				"x": -1.9362381953,
				"y": -3.7168185835,
				"z": -2.1254678033,
				"element": "C" 
			},
			{
				"x": 0.4364449902,
				"y": -3.4175426292,
				"z": -1.5692420993,
				"element": "C" 
			},
			{
				"x": -0.6151338879,
				"y": 3.6406402932,
				"z": 1.6782889609,
				"element": "H" 
			},
			{
				"x": -0.1056392879,
				"y": 4.3246273273,
				"z": 3.2324989168,
				"element": "H" 
			},
			{
				"x": 0.7179530082,
				"y": 4.8049070796,
				"z": 1.7351041117,
				"element": "H" 
			},
			{
				"x": 0.8207291623,
				"y": 1.9959388227,
				"z": 3.0069352239,
				"element": "H" 
			},
			{
				"x": 2.1168640125,
				"y": 3.1940713253,
				"z": 3.0351854755,
				"element": "H" 
			},
			{
				"x": 3.4583286273,
				"y": 2.2433180821,
				"z": -0.3072217293,
				"element": "H" 
			},
			{
				"x": 3.5639447761,
				"y": 1.3949769958,
				"z": -1.7690495821,
				"element": "H" 
			},
			{
				"x": 1.622030711,
				"y": 0.0966530561,
				"z": -2.637689147,
				"element": "H" 
			},
			{
				"x": -1.6933292982,
				"y": -0.3598743073,
				"z": 0.0591866357,
				"element": "H" 
			},
			{
				"x": -0.6193281373,
				"y": 1.2019177636,
				"z": 1.6512507777,
				"element": "H" 
			},
			{
				"x": -2.0312044978,
				"y": -4.4985588666,
				"z": -1.3658621001,
				"element": "H" 
			},
			{
				"x": -1.7085962521,
				"y": -4.1904799262,
				"z": -3.091743518,
				"element": "H" 
			},
			{
				"x": -2.880958811,
				"y": -3.1799812674,
				"z": -2.2034546221,
				"element": "H" 
			},
			{
				"x": 1.159387662,
				"y": -2.6939955091,
				"z": -1.1856642569,
				"element": "H" 
			},
			{
				"x": 0.3601731882,
				"y": -4.235624282,
				"z": -0.847053221,
				"element": "H" 
			},
			{
				"x": 0.8031836112,
				"y": -3.8138079016,
				"z": -2.5259740535,
				"element": "H" 
			}
		],
		 "valence_orbital": [ 
			{
				"type": "occ",
				"energy": -0.29459,
				"method": "rhf"
			},
			{
				"type": "occ",
				"energy": -0.28537,
				"method": "rhf"
			},
			{
				"type": "occ",
				"energy": -0.24911,
				"method": "rhf"
			},
			{
				"type": "occ",
				"energy": -0.24026,
				"method": "rhf"
			},
			{
				"type": "occ",
				"energy": -0.20216,
				"method": "rhf"
			},
			{
				"type": "unocc",
				"energy": -0.01634,
				"method": "rhf"
			},
			{
				"type": "unocc",
				"energy": 5e-05,
				"method": "rhf"
			},
			{
				"type": "unocc",
				"energy": 0.07048,
				"method": "rhf"
			},
			{
				"type": "unocc",
				"energy": 0.08002,
				"method": "rhf"
			},
			{
				"type": "unocc",
				"energy": 0.0868,
				"method": "rhf"
			}
		],
		"cosmo_sigma_profile": { 
			"-0.025": 0.0,
			"-0.024": 0.0,
			"-0.023": 0.0,
			"-0.022": 0.0,
			"-0.021": 0.0,
			"-0.02": 0.0,
			"-0.019": 0.0,
			"-0.018": 0.0,
			"-0.017": 0.0,
			"-0.016": 0.0,
			"-0.015": 0.0,
			"-0.014": 0.0,
			"-0.013": 0.871010557672,
			"-0.012": 1.60900086183,
			"-0.011": 2.1351963363,
			"-0.01": 2.56008183579,
			"-0.009": 2.57658198826,
			"-0.008": 2.96861473226,
			"-0.007": 5.06566341965,
			"-0.006": 12.7477058387,
			"-0.005": 17.4146921729,
			"-0.004": 27.4126841549,
			"-0.003": 29.8725173429,
			"-0.002": 29.9538799517,
			"-0.001": 17.8882814864,
			"0.0": 18.188984074,
			"0.001": 13.6769095988,
			"0.002": 14.5094689338,
			"0.003": 15.4691532578,
			"0.004": 13.7818071012,
			"0.005": 8.09376816945,
			"0.006": 6.80220162832,
			"0.007": 5.12570742193,
			"0.008": 3.92097829568,
			"0.009": 4.81773833907,
			"0.01": 5.75914510864,
			"0.011": 9.37210412622,
			"0.012": 7.03618204018,
			"0.013": 1.24694796515,
			"0.014": 0.295026243331,
			"0.015": 0.0,
			"0.016": 0.0,
			"0.017": 0.0,
			"0.018": 0.0,
			"0.019": 0.0,
			"0.02": 0.0,
			"0.021": 0.0,
			"0.022": 0.0,
			"0.023": 0.0,
			"0.024": 0.0,
			"0.025": 0.0
		}
	}
}
