{
	 "smiles": "CC1=NN(C2CCOC2)C(N)=C1", 
	 "Tm": 365.15, 
	 "num_atms": 25, 
	 "gaussian": { 
		 "optdone": 1, 
		 "sigma_profile": "yes", 
		 "theory": "DFT", 
		 "functional": "B3LYP", 
		 "basiset": "6-31G**", 
		 "properties": { 
			 "R2extent": 2458.0925, 
			 "electric_dipole_moment_norm": 2.2198592568, 
			 "electric_quadrupole_moment_norm": 8.6738541053, 
			 "total_energy": -552.137520774, 
			 "HOMO_LUMO_gap": 0.23933, 
			 "cosmo_polarized_energy": -11.51, 
			 "cosmo_cavitation_energy": 26.47, 
			 "cosmo_dispersion_energy": -19.92, 
			 "cosmo_repulsion_energy": 1.6, 
			 "cosmo_total_nonelectrostatic_energy": 8.15, 
			 "SMD_solvation_energy": 3.38 
		},
		"coords": [
			{
				"x": -0.4126559569,
				"y": -0.5985943694,
				"z": -4.846988185,
				"element": "C" 
			},
			{
				"x": -0.0570036513,
				"y": -0.4874361352,
				"z": -3.3950920563,
				"element": "C" 
			},
			{
				"x": -0.9442905783,
				"y": -0.0174727951,
				"z": -2.5245111409,
				"element": "N" 
			},
			{
				"x": -0.2991929523,
				"y": -0.0432215763,
				"z": -1.3105924948,
				"element": "N" 
			},
			{
				"x": -1.0299916548,
				"y": 0.4073124945,
				"z": -0.1351231366,
				"element": "C" 
			},
			{
				"x": -0.2908277399,
				"y": 1.511767302,
				"z": 0.6806653741,
				"element": "C" 
			},
			{
				"x": -0.016747105,
				"y": 0.8507277253,
				"z": 2.049696482,
				"element": "C" 
			},
			{
				"x": -0.1559865446,
				"y": -0.5616480063,
				"z": 1.83845719,
				"element": "O" 
			},
			{
				"x": -1.2448948657,
				"y": -0.6960592676,
				"z": 0.923197465,
				"element": "C" 
			},
			{
				"x": 0.9704454684,
				"y": -0.5415438216,
				"z": -1.4214464222,
				"element": "C" 
			},
			{
				"x": 1.8421194884,
				"y": -0.6135511192,
				"z": -0.3370364473,
				"element": "N" 
			},
			{
				"x": 1.1631053425,
				"y": -0.8353299299,
				"z": -2.7629462239,
				"element": "C" 
			},
			{
				"x": -1.437350828,
				"y": -0.2540192403,
				"z": -5.0043112453,
				"element": "H" 
			},
			{
				"x": 0.2548508454,
				"y": 0.006842479,
				"z": -5.4710177262,
				"element": "H" 
			},
			{
				"x": -0.3380140975,
				"y": -1.6333070054,
				"z": -5.2011211268,
				"element": "H" 
			},
			{
				"x": -1.9803205536,
				"y": 0.7578996188,
				"z": -0.5382067408,
				"element": "H" 
			},
			{
				"x": 0.6372659884,
				"y": 1.7868747139,
				"z": 0.1775361275,
				"element": "H" 
			},
			{
				"x": -0.9052170963,
				"y": 2.4100304743,
				"z": 0.7777433629,
				"element": "H" 
			},
			{
				"x": -0.7449215877,
				"y": 1.1798147251,
				"z": 2.8061413669,
				"element": "H" 
			},
			{
				"x": 0.9904857338,
				"y": 1.030001103,
				"z": 2.4320065177,
				"element": "H" 
			},
			{
				"x": -1.2328730139,
				"y": -1.7059657781,
				"z": 0.5092062393,
				"element": "H" 
			},
			{
				"x": -2.1995150399,
				"y": -0.5324624315,
				"z": 1.4479880216,
				"element": "H" 
			},
			{
				"x": 2.6497198808,
				"y": -1.1901411313,
				"z": -0.530190457,
				"element": "H" 
			},
			{
				"x": 1.3957092769,
				"y": -0.8653927903,
				"z": 0.5421456985,
				"element": "H" 
			},
			{
				"x": 2.0563012413,
				"y": -1.2440252382,
				"z": -3.2135004423,
				"element": "H" 
			}
		],
		 "valence_orbital": [ 
			{
				"type": "occ",
				"energy": -0.30585,
				"method": "rhf"
			},
			{
				"type": "occ",
				"energy": -0.27572,
				"method": "rhf"
			},
			{
				"type": "occ",
				"energy": -0.26626,
				"method": "rhf"
			},
			{
				"type": "occ",
				"energy": -0.21949,
				"method": "rhf"
			},
			{
				"type": "occ",
				"energy": -0.19065,
				"method": "rhf"
			},
			{
				"type": "unocc",
				"energy": 0.04868,
				"method": "rhf"
			},
			{
				"type": "unocc",
				"energy": 0.07129,
				"method": "rhf"
			},
			{
				"type": "unocc",
				"energy": 0.08722,
				"method": "rhf"
			},
			{
				"type": "unocc",
				"energy": 0.09025,
				"method": "rhf"
			},
			{
				"type": "unocc",
				"energy": 0.10838,
				"method": "rhf"
			}
		],
		"cosmo_sigma_profile": { 
			"-0.025": 0.0,
			"-0.024": 0.0,
			"-0.023": 0.0,
			"-0.022": 0.0,
			"-0.021": 0.0,
			"-0.02": 0.0,
			"-0.019": 0.0,
			"-0.018": 0.0,
			"-0.017": 0.0,
			"-0.016": 0.0,
			"-0.015": 0.0,
			"-0.014": 0.0,
			"-0.013": 0.454797035271,
			"-0.012": 1.54156438995,
			"-0.011": 1.03374715802,
			"-0.01": 1.25758324115,
			"-0.009": 1.45437121186,
			"-0.008": 1.57341399169,
			"-0.007": 1.46660832568,
			"-0.006": 7.75154782386,
			"-0.005": 18.4214456044,
			"-0.004": 24.5492080686,
			"-0.003": 22.9063267969,
			"-0.002": 19.1756975989,
			"-0.001": 16.3295480762,
			"0.0": 17.0281197342,
			"0.001": 9.35438382962,
			"0.002": 6.20891676046,
			"0.003": 6.63201434999,
			"0.004": 6.44614734475,
			"0.005": 6.21560372868,
			"0.006": 7.6854959961,
			"0.007": 8.02316855905,
			"0.008": 5.29771726881,
			"0.009": 2.27776371397,
			"0.01": 3.21868946659,
			"0.011": 2.09431447577,
			"0.012": 3.25113958662,
			"0.013": 2.35690731008,
			"0.014": 1.17951639895,
			"0.015": 0.93265707911,
			"0.016": 0.702175126073,
			"0.017": 0.704448779708,
			"0.018": 0.0,
			"0.019": 0.0,
			"0.02": 0.0,
			"0.021": 0.0,
			"0.022": 0.0,
			"0.023": 0.0,
			"0.024": 0.0,
			"0.025": 0.0
		}
	}
}
