{
	 "smiles": "CC(C)(C)OC(=O)NC1CC(O)C1", 
	 "Tm": 382.15, 
	 "num_atms": 30, 
	 "gaussian": { 
		 "optdone": 1, 
		 "sigma_profile": "yes", 
		 "theory": "DFT", 
		 "functional": "B3LYP", 
		 "basiset": "6-31G**", 
		 "properties": { 
			 "R2extent": 4355.8861, 
			 "electric_dipole_moment_norm": 3.12061840346, 
			 "electric_quadrupole_moment_norm": 13.8062083401, 
			 "total_energy": -633.631670498, 
			 "HOMO_LUMO_gap": 0.30163, 
			 "cosmo_polarized_energy": -13.57, 
			 "cosmo_cavitation_energy": 31.96, 
			 "cosmo_dispersion_energy": -22.81, 
			 "cosmo_repulsion_energy": 1.86, 
			 "cosmo_total_nonelectrostatic_energy": 11.01, 
			 "SMD_solvation_energy": 5.84 
		},
		"coords": [
			{
				"x": 3.5062235681,
				"y": -2.2408573375,
				"z": 1.2903951861,
				"element": "C" 
			},
			{
				"x": 3.3909917169,
				"y": -0.7728328136,
				"z": 0.8649633377,
				"element": "C" 
			},
			{
				"x": 3.7034027775,
				"y": 0.1902004296,
				"z": 2.0157995735,
				"element": "C" 
			},
			{
				"x": 4.2894606371,
				"y": -0.4858382578,
				"z": -0.341315722,
				"element": "C" 
			},
			{
				"x": 2.0475067584,
				"y": -0.5051646247,
				"z": 0.3332937283,
				"element": "O" 
			},
			{
				"x": 0.9471971801,
				"y": -0.6511070989,
				"z": 1.1168018318,
				"element": "C" 
			},
			{
				"x": 0.9331558833,
				"y": -0.9970288657,
				"z": 2.2873808043,
				"element": "O" 
			},
			{
				"x": -0.1650294929,
				"y": -0.3461927546,
				"z": 0.3803742,
				"element": "N" 
			},
			{
				"x": -1.5006035565,
				"y": -0.3933503274,
				"z": 0.9138919923,
				"element": "C" 
			},
			{
				"x": -2.3952091181,
				"y": 0.8772775537,
				"z": 0.8411018979,
				"element": "C" 
			},
			{
				"x": -3.6034853161,
				"y": -0.0546767628,
				"z": 0.542847029,
				"element": "C" 
			},
			{
				"x": -4.2828080797,
				"y": -0.4859021922,
				"z": 1.7122522809,
				"element": "O" 
			},
			{
				"x": -2.6025529361,
				"y": -1.1557852081,
				"z": 0.1262454942,
				"element": "C" 
			},
			{
				"x": 3.2387849343,
				"y": -2.8992467055,
				"z": 0.4576565198,
				"element": "H" 
			},
			{
				"x": 4.5393379461,
				"y": -2.4608527106,
				"z": 1.5789371073,
				"element": "H" 
			},
			{
				"x": 2.8504442309,
				"y": -2.4543040092,
				"z": 2.1347098074,
				"element": "H" 
			},
			{
				"x": 3.5730196485,
				"y": 1.2268680137,
				"z": 1.6889195795,
				"element": "H" 
			},
			{
				"x": 4.7440556756,
				"y": 0.0620496207,
				"z": 2.3313782957,
				"element": "H" 
			},
			{
				"x": 3.0499987669,
				"y": 0.0031160928,
				"z": 2.8681662412,
				"element": "H" 
			},
			{
				"x": 4.1733679137,
				"y": 0.5506675322,
				"z": -0.6715482088,
				"element": "H" 
			},
			{
				"x": 5.3383833094,
				"y": -0.6498589284,
				"z": -0.0769536601,
				"element": "H" 
			},
			{
				"x": 4.035715946,
				"y": -1.1444793442,
				"z": -1.1771580226,
				"element": "H" 
			},
			{
				"x": -0.0157903344,
				"y": -0.0663739388,
				"z": -0.5780065974,
				"element": "H" 
			},
			{
				"x": -1.4201400023,
				"y": -0.7607648067,
				"z": 1.9365696947,
				"element": "H" 
			},
			{
				"x": -2.1417426653,
				"y": 1.4942899423,
				"z": -0.0286248455,
				"element": "H" 
			},
			{
				"x": -2.4541991818,
				"y": 1.5168215632,
				"z": 1.7276874086,
				"element": "H" 
			},
			{
				"x": -4.3115818374,
				"y": 0.2887413576,
				"z": -0.2240260523,
				"element": "H" 
			},
			{
				"x": -4.7203184832,
				"y": 0.2824012027,
				"z": 2.1018065522,
				"element": "H" 
			},
			{
				"x": -2.413199356,
				"y": -1.1349926096,
				"z": -0.9524715419,
				"element": "H" 
			},
			{
				"x": -2.847986533,
				"y": -2.1749240123,
				"z": 0.4342260882,
				"element": "H" 
			}
		],
		 "valence_orbital": [ 
			{
				"type": "occ",
				"energy": -0.30402,
				"method": "rhf"
			},
			{
				"type": "occ",
				"energy": -0.28234,
				"method": "rhf"
			},
			{
				"type": "occ",
				"energy": -0.26341,
				"method": "rhf"
			},
			{
				"type": "occ",
				"energy": -0.25825,
				"method": "rhf"
			},
			{
				"type": "occ",
				"energy": -0.24126,
				"method": "rhf"
			},
			{
				"type": "unocc",
				"energy": 0.06037,
				"method": "rhf"
			},
			{
				"type": "unocc",
				"energy": 0.07289,
				"method": "rhf"
			},
			{
				"type": "unocc",
				"energy": 0.08731,
				"method": "rhf"
			},
			{
				"type": "unocc",
				"energy": 0.0965,
				"method": "rhf"
			},
			{
				"type": "unocc",
				"energy": 0.1019,
				"method": "rhf"
			}
		],
		"cosmo_sigma_profile": { 
			"-0.025": 0.0,
			"-0.024": 0.0,
			"-0.023": 0.0,
			"-0.022": 0.0,
			"-0.021": 0.0,
			"-0.02": 0.0,
			"-0.019": 0.0,
			"-0.018": 0.0,
			"-0.017": 0.0,
			"-0.016": 0.122118454392,
			"-0.015": 1.081735853,
			"-0.014": 1.1058796041,
			"-0.013": 1.85868429322,
			"-0.012": 1.72209470121,
			"-0.011": 1.96518924593,
			"-0.01": 2.21956364094,
			"-0.009": 1.36223573855,
			"-0.008": 2.46938658469,
			"-0.007": 2.60275014917,
			"-0.006": 2.65927530809,
			"-0.005": 4.29515870197,
			"-0.004": 18.5767822494,
			"-0.003": 27.4112513318,
			"-0.002": 25.5355399077,
			"-0.001": 26.2357811283,
			"0.0": 34.2909286029,
			"0.001": 27.4274465275,
			"0.002": 13.5635863088,
			"0.003": 8.52248504229,
			"0.004": 4.44669138588,
			"0.005": 5.75435916894,
			"0.006": 4.82906949655,
			"0.007": 4.51916447233,
			"0.008": 3.8219249704,
			"0.009": 2.26630075948,
			"0.01": 3.36879965172,
			"0.011": 1.94482705083,
			"0.012": 3.64363384323,
			"0.013": 4.2147774588,
			"0.014": 3.53915803947,
			"0.015": 0.244730140452,
			"0.016": 0.0,
			"0.017": 0.0,
			"0.018": 0.0,
			"0.019": 0.0,
			"0.02": 0.0,
			"0.021": 0.0,
			"0.022": 0.0,
			"0.023": 0.0,
			"0.024": 0.0,
			"0.025": 0.0
		}
	}
}
