{
	 "smiles": "[O-][N+](=O)C1=CC=C(C=C1)C1=CNC=N1", 
	 "Tm": 498.15, 
	 "num_atms": 21, 
	 "gaussian": { 
		 "optdone": 1, 
		 "sigma_profile": "yes", 
		 "theory": "DFT", 
		 "functional": "B3LYP", 
		 "basiset": "6-31G**", 
		 "properties": { 
			 "R2extent": 3953.4427, 
			 "electric_dipole_moment_norm": 8.93908986586, 
			 "electric_quadrupole_moment_norm": 14.9594040306, 
			 "total_energy": -661.781247365, 
			 "HOMO_LUMO_gap": 0.14742, 
			 "cosmo_polarized_energy": -18.25, 
			 "cosmo_cavitation_energy": 26.57, 
			 "cosmo_dispersion_energy": -19.83, 
			 "cosmo_repulsion_energy": 1.53, 
			 "cosmo_total_nonelectrostatic_energy": 8.26, 
			 "SMD_solvation_energy": 6.02 
		},
		"coords": [
			{
				"x": 0.203771308,
				"y": -4.5066799186,
				"z": -2.1649678656,
				"element": "O" 
			},
			{
				"x": 1.0796421106,
				"y": -3.8035029363,
				"z": -1.6569312372,
				"element": "N" 
			},
			{
				"x": 2.2894467359,
				"y": -4.0138716771,
				"z": -1.758597966,
				"element": "O" 
			},
			{
				"x": 0.6524000519,
				"y": -2.6379088911,
				"z": -0.8787290437,
				"element": "C" 
			},
			{
				"x": -0.7113467764,
				"y": -2.3735721898,
				"z": -0.7456121631,
				"element": "C" 
			},
			{
				"x": -1.1105916256,
				"y": -1.2678347492,
				"z": -0.0071827491,
				"element": "C" 
			},
			{
				"x": -0.1639661476,
				"y": -0.4212870496,
				"z": 0.6010261535,
				"element": "C" 
			},
			{
				"x": 1.2035960067,
				"y": -0.7164469893,
				"z": 0.4471044077,
				"element": "C" 
			},
			{
				"x": 1.6162463649,
				"y": -1.8195254206,
				"z": -0.289075,
				"element": "C" 
			},
			{
				"x": -0.5679944018,
				"y": 0.7495865983,
				"z": 1.3835463979,
				"element": "C" 
			},
			{
				"x": -1.8396633943,
				"y": 1.2175325546,
				"z": 1.6581700768,
				"element": "C" 
			},
			{
				"x": -1.6595951272,
				"y": 2.3413952705,
				"z": 2.4286736065,
				"element": "N" 
			},
			{
				"x": -0.311296636,
				"y": 2.5121727802,
				"z": 2.5910911697,
				"element": "C" 
			},
			{
				"x": 0.3707126242,
				"y": 1.5761559555,
				"z": 1.9779027775,
				"element": "N" 
			},
			{
				"x": -1.4283594755,
				"y": -3.0328085991,
				"z": -1.2185824737,
				"element": "H" 
			},
			{
				"x": -2.1714019136,
				"y": -1.0616676116,
				"z": 0.0967366162,
				"element": "H" 
			},
			{
				"x": 1.9298590162,
				"y": -0.0629543267,
				"z": 0.916502382,
				"element": "H" 
			},
			{
				"x": 2.6647984049,
				"y": -2.0586692135,
				"z": -0.4158378705,
				"element": "H" 
			},
			{
				"x": -2.8228206249,
				"y": 0.8673365649,
				"z": 1.3862721315,
				"element": "H" 
			},
			{
				"x": -2.390144682,
				"y": 2.9282294093,
				"z": 2.8027512409,
				"element": "H" 
			},
			{
				"x": 0.1039081815,
				"y": 3.3310204393,
				"z": 3.1622394089,
				"element": "H" 
			}
		],
		 "valence_orbital": [ 
			{
				"type": "occ",
				"energy": -0.28751,
				"method": "rhf"
			},
			{
				"type": "occ",
				"energy": -0.28229,
				"method": "rhf"
			},
			{
				"type": "occ",
				"energy": -0.27865,
				"method": "rhf"
			},
			{
				"type": "occ",
				"energy": -0.26766,
				"method": "rhf"
			},
			{
				"type": "occ",
				"energy": -0.22862,
				"method": "rhf"
			},
			{
				"type": "unocc",
				"energy": -0.0812,
				"method": "rhf"
			},
			{
				"type": "unocc",
				"energy": -0.01864,
				"method": "rhf"
			},
			{
				"type": "unocc",
				"energy": -0.00902,
				"method": "rhf"
			},
			{
				"type": "unocc",
				"energy": 0.0157,
				"method": "rhf"
			},
			{
				"type": "unocc",
				"energy": 0.05607,
				"method": "rhf"
			}
		],
		"cosmo_sigma_profile": { 
			"-0.025": 0.0,
			"-0.024": 0.0,
			"-0.023": 0.0,
			"-0.022": 0.0,
			"-0.021": 0.0,
			"-0.02": 0.0,
			"-0.019": 0.0,
			"-0.018": 0.0358503260174,
			"-0.017": 1.57063820365,
			"-0.016": 1.8646298093,
			"-0.015": 1.30205166669,
			"-0.014": 1.37251603691,
			"-0.013": 1.11561336663,
			"-0.012": 1.38995488052,
			"-0.011": 1.27674761704,
			"-0.01": 2.46906067993,
			"-0.009": 7.77883883884,
			"-0.008": 5.55119341438,
			"-0.007": 7.03769978747,
			"-0.006": 8.53220679514,
			"-0.005": 9.76441687142,
			"-0.004": 9.04528947073,
			"-0.003": 8.87916181562,
			"-0.002": 9.48185072088,
			"-0.001": 11.9026795074,
			"0.0": 14.1921058781,
			"0.001": 15.933755323,
			"0.002": 25.265266126,
			"0.003": 15.7440436895,
			"0.004": 5.56132171174,
			"0.005": 5.51933827082,
			"0.006": 5.44778993473,
			"0.007": 6.11433336507,
			"0.008": 12.2791108477,
			"0.009": 7.41964977535,
			"0.01": 4.40244804873,
			"0.011": 2.1392114621,
			"0.012": 1.1104439424,
			"0.013": 1.16138268487,
			"0.014": 1.21266786884,
			"0.015": 0.352578618509,
			"0.016": 0.0,
			"0.017": 0.0,
			"0.018": 0.0,
			"0.019": 0.0,
			"0.02": 0.0,
			"0.021": 0.0,
			"0.022": 0.0,
			"0.023": 0.0,
			"0.024": 0.0,
			"0.025": 0.0
		}
	}
}
