{
	 "smiles": "CC1=C(O)C(C(O)=O)=C2C=CC=CC2=N1", 
	 "Tm": 473.15, 
	 "num_atms": 24, 
	 "gaussian": { 
		 "optdone": 1, 
		 "sigma_profile": "yes", 
		 "theory": "DFT", 
		 "functional": "B3LYP", 
		 "basiset": "6-31G**", 
		 "properties": { 
			 "R2extent": 3403.5499, 
			 "electric_dipole_moment_norm": 2.92344130264, 
			 "electric_quadrupole_moment_norm": 10.8623018228, 
			 "total_energy": -705.046926971, 
			 "HOMO_LUMO_gap": 0.15595, 
			 "cosmo_polarized_energy": -11.55, 
			 "cosmo_cavitation_energy": 27.56, 
			 "cosmo_dispersion_energy": -21.03, 
			 "cosmo_repulsion_energy": 1.61, 
			 "cosmo_total_nonelectrostatic_energy": 8.14, 
			 "SMD_solvation_energy": 4.51 
		},
		"coords": [
			{
				"x": -0.5134515906,
				"y": -4.0620771267,
				"z": -1.9374116439,
				"element": "C" 
			},
			{
				"x": -0.4114647833,
				"y": -2.6381817983,
				"z": -1.4669547086,
				"element": "C" 
			},
			{
				"x": 0.8715171165,
				"y": -2.1348289512,
				"z": -1.0380164642,
				"element": "C" 
			},
			{
				"x": 1.8939326218,
				"y": -2.9891034302,
				"z": -1.1075650919,
				"element": "O" 
			},
			{
				"x": 0.9768864085,
				"y": -0.8326055181,
				"z": -0.5400810998,
				"element": "C" 
			},
			{
				"x": 2.2665295198,
				"y": -0.478195834,
				"z": 0.0967147492,
				"element": "C" 
			},
			{
				"x": 2.3032373622,
				"y": 0.5265814506,
				"z": 0.9921331892,
				"element": "O" 
			},
			{
				"x": 3.3010118553,
				"y": -1.1073002552,
				"z": -0.1097953955,
				"element": "O" 
			},
			{
				"x": -0.1830786235,
				"y": 0.0201705485,
				"z": -0.6136301859,
				"element": "C" 
			},
			{
				"x": -0.1996133013,
				"y": 1.4151481433,
				"z": -0.3394914587,
				"element": "C" 
			},
			{
				"x": -1.3734744458,
				"y": 2.1436001559,
				"z": -0.4174165899,
				"element": "C" 
			},
			{
				"x": -2.585125065,
				"y": 1.525378023,
				"z": -0.7831670189,
				"element": "C" 
			},
			{
				"x": -2.5913601445,
				"y": 0.1844131543,
				"z": -1.1071720335,
				"element": "C" 
			},
			{
				"x": -1.4044926398,
				"y": -0.5836668712,
				"z": -1.0485354767,
				"element": "C" 
			},
			{
				"x": -1.4885953061,
				"y": -1.8950568739,
				"z": -1.4409229524,
				"element": "N" 
			},
			{
				"x": 0.1259912187,
				"y": -4.2302770558,
				"z": -2.810817365,
				"element": "H" 
			},
			{
				"x": -1.5497628699,
				"y": -4.2824711651,
				"z": -2.1952004066,
				"element": "H" 
			},
			{
				"x": -0.1700687393,
				"y": -4.7565670737,
				"z": -1.1631350911,
				"element": "H" 
			},
			{
				"x": 2.700312184,
				"y": -2.4881437851,
				"z": -0.8109411708,
				"element": "H" 
			},
			{
				"x": 1.404942029,
				"y": 0.8406453278,
				"z": 1.1772463574,
				"element": "H" 
			},
			{
				"x": 0.7248254391,
				"y": 1.9488508655,
				"z": -0.14219571,
				"element": "H" 
			},
			{
				"x": -1.351214255,
				"y": 3.2100006174,
				"z": -0.2128830768,
				"element": "H" 
			},
			{
				"x": -3.4993488731,
				"y": 2.1082593091,
				"z": -0.8349070252,
				"element": "H" 
			},
			{
				"x": -3.4936351177,
				"y": -0.3238718567,
				"z": -1.4310543304,
				"element": "H" 
			}
		],
		 "valence_orbital": [ 
			{
				"type": "occ",
				"energy": -0.30912,
				"method": "rhf"
			},
			{
				"type": "occ",
				"energy": -0.29964,
				"method": "rhf"
			},
			{
				"type": "occ",
				"energy": -0.26536,
				"method": "rhf"
			},
			{
				"type": "occ",
				"energy": -0.2504,
				"method": "rhf"
			},
			{
				"type": "occ",
				"energy": -0.23576,
				"method": "rhf"
			},
			{
				"type": "unocc",
				"energy": -0.07981,
				"method": "rhf"
			},
			{
				"type": "unocc",
				"energy": -0.02509,
				"method": "rhf"
			},
			{
				"type": "unocc",
				"energy": -0.02203,
				"method": "rhf"
			},
			{
				"type": "unocc",
				"energy": 0.03222,
				"method": "rhf"
			},
			{
				"type": "unocc",
				"energy": 0.08115,
				"method": "rhf"
			}
		],
		"cosmo_sigma_profile": { 
			"-0.025": 0.0,
			"-0.024": 0.0,
			"-0.023": 0.0,
			"-0.022": 0.0,
			"-0.021": 0.0,
			"-0.02": 0.0,
			"-0.019": 0.0,
			"-0.018": 0.0,
			"-0.017": 0.0196946336156,
			"-0.016": 0.941590642272,
			"-0.015": 1.03574120161,
			"-0.014": 0.50226917816,
			"-0.013": 1.37701054792,
			"-0.012": 0.976684604702,
			"-0.011": 0.801539767504,
			"-0.01": 1.13969313854,
			"-0.009": 1.34268461295,
			"-0.008": 1.96769314655,
			"-0.007": 4.73344135559,
			"-0.006": 9.76005437074,
			"-0.005": 15.069350052,
			"-0.004": 17.0365559301,
			"-0.003": 16.0243792417,
			"-0.002": 19.1733207772,
			"-0.001": 18.2491868212,
			"0.0": 17.2683540252,
			"0.001": 13.2948493828,
			"0.002": 14.7073321933,
			"0.003": 14.633824575,
			"0.004": 12.5891535978,
			"0.005": 5.60486100347,
			"0.006": 4.04919841066,
			"0.007": 6.4472619217,
			"0.008": 5.34591363132,
			"0.009": 6.92773014915,
			"0.01": 4.17006917535,
			"0.011": 2.77987788164,
			"0.012": 1.87771014668,
			"0.013": 0.978403380854,
			"0.014": 0.391216245543,
			"0.015": 0.0181193752964,
			"0.016": 0.0,
			"0.017": 0.0,
			"0.018": 0.0,
			"0.019": 0.0,
			"0.02": 0.0,
			"0.021": 0.0,
			"0.022": 0.0,
			"0.023": 0.0,
			"0.024": 0.0,
			"0.025": 0.0
		}
	}
}
