{
	 "smiles": "CC(C)OC1=CC=C(C=C1)C(=O)NS(=O)(=O)C1=CC=C(N)C=C1", 
	 "Tm": 445.15, 
	 "num_atms": 41, 
	 "gaussian": { 
		 "optdone": 1, 
		 "sigma_profile": "yes", 
		 "theory": "DFT", 
		 "functional": "B3LYP", 
		 "basiset": "6-31G**", 
		 "properties": { 
			 "R2extent": 12533.1509, 
			 "electric_dipole_moment_norm": 5.52979029801, 
			 "electric_quadrupole_moment_norm": 49.3350979995, 
			 "total_energy": -1429.08335683, 
			 "HOMO_LUMO_gap": 0.17431, 
			 "cosmo_polarized_energy": -25.82, 
			 "cosmo_cavitation_energy": 46.29, 
			 "cosmo_dispersion_energy": -33.15, 
			 "cosmo_repulsion_energy": 2.49, 
			 "cosmo_total_nonelectrostatic_energy": 15.63, 
			 "SMD_solvation_energy": 7.57 
		},
		"coords": [
			{
				"x": -2.0883723116,
				"y": 5.9140434681,
				"z": -0.0132925791,
				"element": "C" 
			},
			{
				"x": -0.7276515065,
				"y": 6.0972050144,
				"z": -0.6835696716,
				"element": "C" 
			},
			{
				"x": 0.3717585036,
				"y": 6.4763522003,
				"z": 0.3072562933,
				"element": "C" 
			},
			{
				"x": -0.360170365,
				"y": 4.9487691519,
				"z": -1.4973720554,
				"element": "O" 
			},
			{
				"x": -0.1628591747,
				"y": 3.7298474914,
				"z": -0.8980648321,
				"element": "C" 
			},
			{
				"x": -1.2194123479,
				"y": 2.8138849853,
				"z": -0.8071986589,
				"element": "C" 
			},
			{
				"x": -1.0035292607,
				"y": 1.5476446873,
				"z": -0.2696548291,
				"element": "C" 
			},
			{
				"x": 0.2705500967,
				"y": 1.1711558907,
				"z": 0.1809991003,
				"element": "C" 
			},
			{
				"x": 1.3300620685,
				"y": 2.0815159557,
				"z": 0.055403683,
				"element": "C" 
			},
			{
				"x": 1.1185398664,
				"y": 3.3489744522,
				"z": -0.4749411909,
				"element": "C" 
			},
			{
				"x": 0.5911772999,
				"y": -0.1688526514,
				"z": 0.7675872644,
				"element": "C" 
			},
			{
				"x": 1.7351991338,
				"y": -0.5902072022,
				"z": 0.8550633841,
				"element": "O" 
			},
			{
				"x": -0.4995786992,
				"y": -0.9177585072,
				"z": 1.1944992539,
				"element": "N" 
			},
			{
				"x": -0.3916016425,
				"y": -2.3853722866,
				"z": 2.0959989703,
				"element": "S" 
			},
			{
				"x": 0.5457604504,
				"y": -2.2044662099,
				"z": 3.1987454787,
				"element": "O" 
			},
			{
				"x": -1.8087460387,
				"y": -2.6775348073,
				"z": 2.3361426897,
				"element": "O" 
			},
			{
				"x": 0.2668025713,
				"y": -3.5666819412,
				"z": 0.9518335559,
				"element": "C" 
			},
			{
				"x": 1.6519175841,
				"y": -3.7064225879,
				"z": 0.8086434903,
				"element": "C" 
			},
			{
				"x": 2.1524257475,
				"y": -4.6507102444,
				"z": -0.0751762933,
				"element": "C" 
			},
			{
				"x": 1.283255039,
				"y": -5.4706580681,
				"z": -0.8239665386,
				"element": "C" 
			},
			{
				"x": 1.7878410047,
				"y": -6.4434935428,
				"z": -1.6667585175,
				"element": "N" 
			},
			{
				"x": -0.1085919602,
				"y": -5.3173027407,
				"z": -0.6585917135,
				"element": "C" 
			},
			{
				"x": -0.6140041587,
				"y": -4.372433739,
				"z": 0.2227548891,
				"element": "C" 
			},
			{
				"x": -2.3884144653,
				"y": 6.8451127098,
				"z": 0.4783319855,
				"element": "H" 
			},
			{
				"x": -2.0587955263,
				"y": 5.1277596157,
				"z": 0.7474210483,
				"element": "H" 
			},
			{
				"x": -2.8531949564,
				"y": 5.656547322,
				"z": -0.751599738,
				"element": "H" 
			},
			{
				"x": -0.8099403195,
				"y": 6.8869641778,
				"z": -1.4373155029,
				"element": "H" 
			},
			{
				"x": 0.496524395,
				"y": 5.7127718994,
				"z": 1.0812387154,
				"element": "H" 
			},
			{
				"x": 0.1152347582,
				"y": 7.4180076548,
				"z": 0.803407893,
				"element": "H" 
			},
			{
				"x": 1.3276689259,
				"y": 6.6112097237,
				"z": -0.2067807236,
				"element": "H" 
			},
			{
				"x": -2.1965057379,
				"y": 3.0979307892,
				"z": -1.1822628148,
				"element": "H" 
			},
			{
				"x": -1.8329130987,
				"y": 0.846426317,
				"z": -0.2444665282,
				"element": "H" 
			},
			{
				"x": 2.3167767215,
				"y": 1.7689667166,
				"z": 0.3796118481,
				"element": "H" 
			},
			{
				"x": 1.9392427981,
				"y": 4.0496420538,
				"z": -0.5836645546,
				"element": "H" 
			},
			{
				"x": -1.4153362011,
				"y": -0.4967857298,
				"z": 1.2925464332,
				"element": "H" 
			},
			{
				"x": 2.3177237257,
				"y": -3.0666484096,
				"z": 1.3744761544,
				"element": "H" 
			},
			{
				"x": 3.2269172268,
				"y": -4.7649909818,
				"z": -0.1901278883,
				"element": "H" 
			},
			{
				"x": 2.7435221616,
				"y": -6.3346585979,
				"z": -1.9719713128,
				"element": "H" 
			},
			{
				"x": 1.1701608107,
				"y": -6.7973657126,
				"z": -2.3819359541,
				"element": "H" 
			},
			{
				"x": -0.7884813744,
				"y": -5.9528754481,
				"z": -1.219582697,
				"element": "H" 
			},
			{
				"x": -1.6838617439,
				"y": -4.2630128688,
				"z": 0.3622324634,
				"element": "H" 
			}
		],
		 "valence_orbital": [ 
			{
				"type": "occ",
				"energy": -0.26845,
				"method": "rhf"
			},
			{
				"type": "occ",
				"energy": -0.26436,
				"method": "rhf"
			},
			{
				"type": "occ",
				"energy": -0.25965,
				"method": "rhf"
			},
			{
				"type": "occ",
				"energy": -0.24761,
				"method": "rhf"
			},
			{
				"type": "occ",
				"energy": -0.22026,
				"method": "rhf"
			},
			{
				"type": "unocc",
				"energy": -0.04595,
				"method": "rhf"
			},
			{
				"type": "unocc",
				"energy": -0.02084,
				"method": "rhf"
			},
			{
				"type": "unocc",
				"energy": -0.01501,
				"method": "rhf"
			},
			{
				"type": "unocc",
				"energy": -0.01056,
				"method": "rhf"
			},
			{
				"type": "unocc",
				"energy": 0.04184,
				"method": "rhf"
			}
		],
		"cosmo_sigma_profile": { 
			"-0.025": 0.0,
			"-0.024": 0.0,
			"-0.023": 0.0,
			"-0.022": 0.0,
			"-0.021": 0.0,
			"-0.02": 0.0,
			"-0.019": 0.0,
			"-0.018": 0.0,
			"-0.017": 0.0197475440155,
			"-0.016": 0.586102317814,
			"-0.015": 1.36134815606,
			"-0.014": 1.29593028945,
			"-0.013": 3.55729223599,
			"-0.012": 4.84223328286,
			"-0.011": 4.33335613084,
			"-0.01": 4.28420799513,
			"-0.009": 4.28324113555,
			"-0.008": 4.85463566822,
			"-0.007": 8.21926492138,
			"-0.006": 13.4865744574,
			"-0.005": 17.1219208092,
			"-0.004": 24.0887064838,
			"-0.003": 29.0668392185,
			"-0.002": 28.4298577831,
			"-0.001": 28.7992910166,
			"0.0": 28.1819564791,
			"0.001": 23.5351297331,
			"0.002": 22.6577994246,
			"0.003": 30.6628417065,
			"0.004": 16.9788258655,
			"0.005": 7.68886115543,
			"0.006": 6.53568779665,
			"0.007": 6.87923994963,
			"0.008": 7.26727631364,
			"0.009": 7.37887294875,
			"0.01": 13.6595412848,
			"0.011": 13.6503463433,
			"0.012": 3.53991601609,
			"0.013": 0.109720910099,
			"0.014": 0.0,
			"0.015": 0.0,
			"0.016": 0.0,
			"0.017": 0.0,
			"0.018": 0.0,
			"0.019": 0.0,
			"0.02": 0.0,
			"0.021": 0.0,
			"0.022": 0.0,
			"0.023": 0.0,
			"0.024": 0.0,
			"0.025": 0.0
		}
	}
}
