{
	 "smiles": "CC(C)C1=NOC(=N1)C1=CC(Cl)=NC=C1", 
	 "Tm": 309.15, 
	 "num_atms": 25, 
	 "gaussian": { 
		 "optdone": 1, 
		 "sigma_profile": "yes", 
		 "theory": "DFT", 
		 "functional": "B3LYP", 
		 "basiset": "6-31G**", 
		 "properties": { 
			 "R2extent": 5095.0346, 
			 "electric_dipole_moment_norm": 2.21574134321, 
			 "electric_quadrupole_moment_norm": 13.7966362379, 
			 "total_energy": -1086.73546279, 
			 "HOMO_LUMO_gap": 0.18683, 
			 "cosmo_polarized_energy": -8.83, 
			 "cosmo_cavitation_energy": 31.81, 
			 "cosmo_dispersion_energy": -23.06, 
			 "cosmo_repulsion_energy": 1.83, 
			 "cosmo_total_nonelectrostatic_energy": 10.58, 
			 "SMD_solvation_energy": 2.32 
		},
		"coords": [
			{
				"x": -1.1343332504,
				"y": -0.528485527,
				"z": 3.3985264582,
				"element": "C" 
			},
			{
				"x": -2.1701313602,
				"y": -0.5013351579,
				"z": 2.2595387309,
				"element": "C" 
			},
			{
				"x": -2.8833194443,
				"y": 0.8607110748,
				"z": 2.1752127123,
				"element": "C" 
			},
			{
				"x": -1.5161787191,
				"y": -0.8326399889,
				"z": 0.9484867563,
				"element": "C" 
			},
			{
				"x": -1.8550197978,
				"y": -1.8844431376,
				"z": 0.2402070948,
				"element": "N" 
			},
			{
				"x": -1.0105923779,
				"y": -1.8089445678,
				"z": -0.883223483,
				"element": "O" 
			},
			{
				"x": -0.2539452343,
				"y": -0.7102276664,
				"z": -0.7167174157,
				"element": "C" 
			},
			{
				"x": -0.5153471354,
				"y": -0.0673466277,
				"z": 0.3870781234,
				"element": "N" 
			},
			{
				"x": 0.7329023703,
				"y": -0.371425374,
				"z": -1.7432013345,
				"element": "C" 
			},
			{
				"x": 1.5248091588,
				"y": 0.7694330291,
				"z": -1.5801510615,
				"element": "C" 
			},
			{
				"x": 2.4506881418,
				"y": 1.0503215019,
				"z": -2.5852595321,
				"element": "C" 
			},
			{
				"x": 3.4636092363,
				"y": 2.4786086362,
				"z": -2.4120573071,
				"element": "Cl" 
			},
			{
				"x": 2.6327749702,
				"y": 0.3216205382,
				"z": -3.6730455426,
				"element": "N" 
			},
			{
				"x": 1.8656463399,
				"y": -0.7695825343,
				"z": -3.8151169287,
				"element": "C" 
			},
			{
				"x": 0.9055174621,
				"y": -1.1624117987,
				"z": -2.8882721736,
				"element": "C" 
			},
			{
				"x": -1.6188178786,
				"y": -0.3006177212,
				"z": 4.353051212,
				"element": "H" 
			},
			{
				"x": -0.3501889013,
				"y": 0.2148969972,
				"z": 3.2256506228,
				"element": "H" 
			},
			{
				"x": -0.660668691,
				"y": -1.5112491167,
				"z": 3.483173292,
				"element": "H" 
			},
			{
				"x": -2.9163958484,
				"y": -1.2836448194,
				"z": 2.4381482766,
				"element": "H" 
			},
			{
				"x": -3.3698986146,
				"y": 1.0901453399,
				"z": 3.128294716,
				"element": "H" 
			},
			{
				"x": -3.6486345727,
				"y": 0.8621459669,
				"z": 1.3931446366,
				"element": "H" 
			},
			{
				"x": -2.1677874765,
				"y": 1.6586069908,
				"z": 1.9544204165,
				"element": "H" 
			},
			{
				"x": 1.4168446102,
				"y": 1.4014960596,
				"z": -0.70801765,
				"element": "H" 
			},
			{
				"x": 2.0332132577,
				"y": -1.3529432595,
				"z": -4.7171492684,
				"element": "H" 
			},
			{
				"x": 0.3088537553,
				"y": -2.0529888375,
				"z": -3.046421351,
				"element": "H" 
			}
		],
		 "valence_orbital": [ 
			{
				"type": "occ",
				"energy": -0.32098,
				"method": "rhf"
			},
			{
				"type": "occ",
				"energy": -0.30904,
				"method": "rhf"
			},
			{
				"type": "occ",
				"energy": -0.28743,
				"method": "rhf"
			},
			{
				"type": "occ",
				"energy": -0.27995,
				"method": "rhf"
			},
			{
				"type": "occ",
				"energy": -0.27219,
				"method": "rhf"
			},
			{
				"type": "unocc",
				"energy": -0.08536,
				"method": "rhf"
			},
			{
				"type": "unocc",
				"energy": -0.03756,
				"method": "rhf"
			},
			{
				"type": "unocc",
				"energy": -0.00027,
				"method": "rhf"
			},
			{
				"type": "unocc",
				"energy": 0.02686,
				"method": "rhf"
			},
			{
				"type": "unocc",
				"energy": 0.04223,
				"method": "rhf"
			}
		],
		"cosmo_sigma_profile": { 
			"-0.025": 0.0,
			"-0.024": 0.0,
			"-0.023": 0.0,
			"-0.022": 0.0,
			"-0.021": 0.0,
			"-0.02": 0.0,
			"-0.019": 0.0,
			"-0.018": 0.0,
			"-0.017": 0.0,
			"-0.016": 0.0,
			"-0.015": 0.0,
			"-0.014": 0.0,
			"-0.013": 0.0,
			"-0.012": 0.0,
			"-0.011": 0.0,
			"-0.01": 0.0,
			"-0.009": 0.601877572958,
			"-0.008": 4.7351693673,
			"-0.007": 5.98277079381,
			"-0.006": 3.89465521152,
			"-0.005": 8.74329121762,
			"-0.004": 18.6299989445,
			"-0.003": 27.6512432472,
			"-0.002": 34.2263002148,
			"-0.001": 31.8300045233,
			"0.0": 30.6849797595,
			"0.001": 17.4209805907,
			"0.002": 9.75153812764,
			"0.003": 12.3822044266,
			"0.004": 14.5792316592,
			"0.005": 7.58628999404,
			"0.006": 6.57144906824,
			"0.007": 4.82039881155,
			"0.008": 3.65998491826,
			"0.009": 3.0982497672,
			"0.01": 3.21932050638,
			"0.011": 2.29970879805,
			"0.012": 2.39868995318,
			"0.013": 1.25217973963,
			"0.014": 0.427874742748,
			"0.015": 0.0,
			"0.016": 0.0,
			"0.017": 0.0,
			"0.018": 0.0,
			"0.019": 0.0,
			"0.02": 0.0,
			"0.021": 0.0,
			"0.022": 0.0,
			"0.023": 0.0,
			"0.024": 0.0,
			"0.025": 0.0
		}
	}
}
