{
	 "smiles": "NC(=N)NCCC(O)=O", 
	 "Tm": 495.15, 
	 "num_atms": 18, 
	 "gaussian": { 
		 "optdone": 1, 
		 "sigma_profile": "yes", 
		 "theory": "DFT", 
		 "functional": "B3LYP", 
		 "basiset": "6-31G**", 
		 "properties": { 
			 "R2extent": 1489.8989, 
			 "electric_dipole_moment_norm": 2.47502674935, 
			 "electric_quadrupole_moment_norm": 12.0087853603, 
			 "total_energy": -472.56599097, 
			 "HOMO_LUMO_gap": 0.24213, 
			 "cosmo_polarized_energy": -20.06, 
			 "cosmo_cavitation_energy": 22.06, 
			 "cosmo_dispersion_energy": -15.77, 
			 "cosmo_repulsion_energy": 1.34, 
			 "cosmo_total_nonelectrostatic_energy": 7.63, 
			 "SMD_solvation_energy": 3.49 
		},
		"coords": [
			{
				"x": 0.4664919342,
				"y": 2.6180398021,
				"z": 2.354722502,
				"element": "N" 
			},
			{
				"x": 0.1769400409,
				"y": 2.327674062,
				"z": 1.016185059,
				"element": "C" 
			},
			{
				"x": -0.9073447102,
				"y": 2.5850801524,
				"z": 0.3798646879,
				"element": "N" 
			},
			{
				"x": 1.2398273763,
				"y": 1.6796622016,
				"z": 0.3928975194,
				"element": "N" 
			},
			{
				"x": 1.0883693079,
				"y": 1.1664066665,
				"z": -0.9592518284,
				"element": "C" 
			},
			{
				"x": 0.6197232538,
				"y": -0.3057554605,
				"z": -1.0464407699,
				"element": "C" 
			},
			{
				"x": -0.7461468583,
				"y": -0.5252862459,
				"z": -0.434825835,
				"element": "C" 
			},
			{
				"x": -1.7387763533,
				"y": -0.257704163,
				"z": -1.3137541417,
				"element": "O" 
			},
			{
				"x": -0.9501125442,
				"y": -0.8918615244,
				"z": 0.7021110321,
				"element": "O" 
			},
			{
				"x": -0.2063162229,
				"y": 3.2258852185,
				"z": 2.8006339097,
				"element": "H" 
			},
			{
				"x": 1.4197591525,
				"y": 2.9155172976,
				"z": 2.5235592176,
				"element": "H" 
			},
			{
				"x": -1.5334430315,
				"y": 3.1615747242,
				"z": 0.9405565582,
				"element": "H" 
			},
			{
				"x": 1.769919181,
				"y": 1.0861454477,
				"z": 1.0188388504,
				"element": "H" 
			},
			{
				"x": 0.3732225196,
				"y": 1.8138758656,
				"z": -1.4685645773,
				"element": "H" 
			},
			{
				"x": 2.0533604556,
				"y": 1.2433629291,
				"z": -1.4738897255,
				"element": "H" 
			},
			{
				"x": 1.3242685493,
				"y": -0.9546533455,
				"z": -0.5173436567,
				"element": "H" 
			},
			{
				"x": 0.599615325,
				"y": -0.6002189971,
				"z": -2.100636276,
				"element": "H" 
			},
			{
				"x": -2.5675573757,
				"y": -0.322744631,
				"z": -0.8111625256,
				"element": "H" 
			}
		],
		 "valence_orbital": [ 
			{
				"type": "occ",
				"energy": -0.30205,
				"method": "rhf"
			},
			{
				"type": "occ",
				"energy": -0.26545,
				"method": "rhf"
			},
			{
				"type": "occ",
				"energy": -0.25773,
				"method": "rhf"
			},
			{
				"type": "occ",
				"energy": -0.25061,
				"method": "rhf"
			},
			{
				"type": "occ",
				"energy": -0.22188,
				"method": "rhf"
			},
			{
				"type": "unocc",
				"energy": 0.02025,
				"method": "rhf"
			},
			{
				"type": "unocc",
				"energy": 0.05719,
				"method": "rhf"
			},
			{
				"type": "unocc",
				"energy": 0.06901,
				"method": "rhf"
			},
			{
				"type": "unocc",
				"energy": 0.09394,
				"method": "rhf"
			},
			{
				"type": "unocc",
				"energy": 0.11275,
				"method": "rhf"
			}
		],
		"cosmo_sigma_profile": { 
			"-0.025": 0.0,
			"-0.024": 0.0,
			"-0.023": 0.0,
			"-0.022": 0.0,
			"-0.021": 0.0,
			"-0.02": 0.0,
			"-0.019": 0.0,
			"-0.018": 0.522885323665,
			"-0.017": 0.67920250703,
			"-0.016": 0.917106025681,
			"-0.015": 0.822364362039,
			"-0.014": 0.649638599918,
			"-0.013": 2.43922032102,
			"-0.012": 4.76393023503,
			"-0.011": 5.89335155116,
			"-0.01": 5.48671977553,
			"-0.009": 5.29400659015,
			"-0.008": 4.74739691969,
			"-0.007": 4.35418425476,
			"-0.006": 5.34369615761,
			"-0.005": 10.5760113184,
			"-0.004": 12.2383709681,
			"-0.003": 11.2464454846,
			"-0.002": 9.24297196954,
			"-0.001": 7.32538152339,
			"0.0": 5.46871063049,
			"0.001": 3.52881377448,
			"0.002": 4.77609412892,
			"0.003": 5.31911311298,
			"0.004": 4.52963827784,
			"0.005": 4.60759131794,
			"0.006": 5.48300092183,
			"0.007": 4.59642910783,
			"0.008": 6.46339435728,
			"0.009": 7.51117262894,
			"0.01": 6.98810422898,
			"0.011": 5.33538338128,
			"0.012": 6.66923155124,
			"0.013": 3.72101074857,
			"0.014": 1.91940694468,
			"0.015": 0.839270618994,
			"0.016": 0.996748964437,
			"0.017": 0.352945516235,
			"0.018": 0.0109886567918,
			"0.019": 0.0,
			"0.02": 0.0,
			"0.021": 0.0,
			"0.022": 0.0,
			"0.023": 0.0,
			"0.024": 0.0,
			"0.025": 0.0
		}
	}
}
