{
	 "smiles": "COC1=CC=C(C=C1)C(N)CCO", 
	 "Tm": 357.15, 
	 "num_atms": 28, 
	 "gaussian": { 
		 "optdone": 1, 
		 "sigma_profile": "yes", 
		 "theory": "DFT", 
		 "functional": "B3LYP", 
		 "basiset": "6-31G**", 
		 "properties": { 
			 "R2extent": 4087.3926, 
			 "electric_dipole_moment_norm": 1.9630711118, 
			 "electric_quadrupole_moment_norm": 19.033924051, 
			 "total_energy": -595.276128291, 
			 "HOMO_LUMO_gap": 0.21357, 
			 "cosmo_polarized_energy": -13.55, 
			 "cosmo_cavitation_energy": 30.44, 
			 "cosmo_dispersion_energy": -22.31, 
			 "cosmo_repulsion_energy": 1.79, 
			 "cosmo_total_nonelectrostatic_energy": 9.91, 
			 "SMD_solvation_energy": 5.02 
		},
		"coords": [
			{
				"x": -5.0614379737,
				"y": -0.8653451839,
				"z": 1.2339738912,
				"element": "C" 
			},
			{
				"x": -4.0431942812,
				"y": -1.3191954184,
				"z": 0.3587172597,
				"element": "O" 
			},
			{
				"x": -2.7681945217,
				"y": -0.8714594997,
				"z": 0.5657298304,
				"element": "C" 
			},
			{
				"x": -1.799069201,
				"y": -1.3489965363,
				"z": -0.3242075486,
				"element": "C" 
			},
			{
				"x": -0.471391629,
				"y": -0.9508957341,
				"z": -0.1968868441,
				"element": "C" 
			},
			{
				"x": -0.0669853612,
				"y": -0.0689131703,
				"z": 0.8164243077,
				"element": "C" 
			},
			{
				"x": -1.0499412858,
				"y": 0.3939598518,
				"z": 1.7002304788,
				"element": "C" 
			},
			{
				"x": -2.3859793212,
				"y": 0.0078124712,
				"z": 1.5866516124,
				"element": "C" 
			},
			{
				"x": 1.3724256062,
				"y": 0.4199725864,
				"z": 0.9921689442,
				"element": "C" 
			},
			{
				"x": 1.7149079887,
				"y": 0.3521200612,
				"z": 2.4257164376,
				"element": "N" 
			},
			{
				"x": 2.3779136751,
				"y": -0.2754563764,
				"z": 0.0525014258,
				"element": "C" 
			},
			{
				"x": 3.7945807562,
				"y": 0.2775304592,
				"z": 0.1531336595,
				"element": "C" 
			},
			{
				"x": 4.5897208138,
				"y": -0.3984747449,
				"z": -0.812934609,
				"element": "O" 
			},
			{
				"x": -5.9849998014,
				"y": -1.3373278758,
				"z": 0.894319099,
				"element": "H" 
			},
			{
				"x": -5.1785416512,
				"y": 0.2255535759,
				"z": 1.1914798811,
				"element": "H" 
			},
			{
				"x": -4.8672473512,
				"y": -1.1619384919,
				"z": 2.2731734101,
				"element": "H" 
			},
			{
				"x": -2.1064447278,
				"y": -2.0338801597,
				"z": -1.1079674285,
				"element": "H" 
			},
			{
				"x": 0.2503374801,
				"y": -1.3443213471,
				"z": -0.9044611297,
				"element": "H" 
			},
			{
				"x": -0.7527503185,
				"y": 1.0596410203,
				"z": 2.5040822486,
				"element": "H" 
			},
			{
				"x": -3.1116755694,
				"y": 0.3928048409,
				"z": 2.2937475323,
				"element": "H" 
			},
			{
				"x": 1.3866623336,
				"y": 1.4923613937,
				"z": 0.7402576133,
				"element": "H" 
			},
			{
				"x": 1.7592961796,
				"y": -0.6217720915,
				"z": 2.7205250136,
				"element": "H" 
			},
			{
				"x": 2.6316376138,
				"y": 0.757450428,
				"z": 2.5951562674,
				"element": "H" 
			},
			{
				"x": 2.0607250711,
				"y": -0.1577142456,
				"z": -0.9899236159,
				"element": "H" 
			},
			{
				"x": 2.4055464204,
				"y": -1.3534316455,
				"z": 0.258314033,
				"element": "H" 
			},
			{
				"x": 4.1946195081,
				"y": 0.1225744621,
				"z": 1.1684255864,
				"element": "H" 
			},
			{
				"x": 3.7812643363,
				"y": 1.3660078482,
				"z": -0.0294723167,
				"element": "H" 
			},
			{
				"x": 5.4927152112,
				"y": -0.0644664781,
				"z": -0.7462750397,
				"element": "H" 
			}
		],
		 "valence_orbital": [ 
			{
				"type": "occ",
				"energy": -0.30608,
				"method": "rhf"
			},
			{
				"type": "occ",
				"energy": -0.2679,
				"method": "rhf"
			},
			{
				"type": "occ",
				"energy": -0.24234,
				"method": "rhf"
			},
			{
				"type": "occ",
				"energy": -0.23492,
				"method": "rhf"
			},
			{
				"type": "occ",
				"energy": -0.20647,
				"method": "rhf"
			},
			{
				"type": "unocc",
				"energy": 0.0071,
				"method": "rhf"
			},
			{
				"type": "unocc",
				"energy": 0.01734,
				"method": "rhf"
			},
			{
				"type": "unocc",
				"energy": 0.07615,
				"method": "rhf"
			},
			{
				"type": "unocc",
				"energy": 0.08239,
				"method": "rhf"
			},
			{
				"type": "unocc",
				"energy": 0.10192,
				"method": "rhf"
			}
		],
		"cosmo_sigma_profile": { 
			"-0.025": 0.0,
			"-0.024": 0.0,
			"-0.023": 0.0,
			"-0.022": 0.0,
			"-0.021": 0.0,
			"-0.02": 0.0,
			"-0.019": 0.0,
			"-0.018": 0.0,
			"-0.017": 0.0,
			"-0.016": 0.3264619953,
			"-0.015": 0.948447884801,
			"-0.014": 1.2658383831,
			"-0.013": 0.883523963135,
			"-0.012": 0.713808577753,
			"-0.011": 0.564308929799,
			"-0.01": 1.0512984209,
			"-0.009": 3.10348538898,
			"-0.008": 3.88018432933,
			"-0.007": 3.64802621057,
			"-0.006": 8.58713295076,
			"-0.005": 17.7938192114,
			"-0.004": 23.0716763562,
			"-0.003": 29.9721320103,
			"-0.002": 22.6326989507,
			"-0.001": 13.9680077311,
			"0.0": 10.4776373224,
			"0.001": 10.2623552693,
			"0.002": 8.58076873925,
			"0.003": 9.64752244897,
			"0.004": 12.7924265627,
			"0.005": 12.0989177163,
			"0.006": 13.6452963864,
			"0.007": 4.8789499484,
			"0.008": 3.95797954629,
			"0.009": 3.12024974582,
			"0.01": 3.93027995591,
			"0.011": 2.64484157544,
			"0.012": 1.98362262825,
			"0.013": 2.22300263373,
			"0.014": 3.16351361215,
			"0.015": 1.46509670887,
			"0.016": 0.451067377234,
			"0.017": 0.0296046924511,
			"0.018": 0.0,
			"0.019": 0.0,
			"0.02": 0.0,
			"0.021": 0.0,
			"0.022": 0.0,
			"0.023": 0.0,
			"0.024": 0.0,
			"0.025": 0.0
		}
	}
}
