{
	 "smiles": "CCNC(=O)N1CCC2=C(C1)C=CC=C2N1N=NC(C(O)=O)=C1C", 
	 "Tm": 474.15, 
	 "num_atms": 43, 
	 "gaussian": { 
		 "optdone": 1, 
		 "sigma_profile": "yes", 
		 "theory": "DFT", 
		 "functional": "B3LYP", 
		 "basiset": "6-31G**", 
		 "properties": { 
			 "R2extent": 11565.1115, 
			 "electric_dipole_moment_norm": 5.71961075074, 
			 "electric_quadrupole_moment_norm": 40.6608350027, 
			 "total_energy": -1120.59504939, 
			 "HOMO_LUMO_gap": 0.19007, 
			 "cosmo_polarized_energy": -28.46, 
			 "cosmo_cavitation_energy": 46.18, 
			 "cosmo_dispersion_energy": -32.23, 
			 "cosmo_repulsion_energy": 2.47, 
			 "cosmo_total_nonelectrostatic_energy": 16.42, 
			 "SMD_solvation_energy": 6.62 
		},
		"coords": [
			{
				"x": 2.6401289696,
				"y": -3.6078907902,
				"z": 3.5920266189,
				"element": "C" 
			},
			{
				"x": 1.8145208271,
				"y": -4.2390597694,
				"z": 2.4671152437,
				"element": "C" 
			},
			{
				"x": 1.2276236925,
				"y": -3.2694241737,
				"z": 1.5449506013,
				"element": "N" 
			},
			{
				"x": 2.0263092447,
				"y": -2.7100243255,
				"z": 0.5618661781,
				"element": "C" 
			},
			{
				"x": 3.170078566,
				"y": -3.10817891,
				"z": 0.3390233647,
				"element": "O" 
			},
			{
				"x": 1.4418332131,
				"y": -1.6973211759,
				"z": -0.1782434694,
				"element": "N" 
			},
			{
				"x": 0.0399356959,
				"y": -1.3101773449,
				"z": -0.0336191492,
				"element": "C" 
			},
			{
				"x": -0.4214640146,
				"y": -0.4140609882,
				"z": -1.1938912436,
				"element": "C" 
			},
			{
				"x": 0.5456030882,
				"y": 0.7236107038,
				"z": -1.4080784253,
				"element": "C" 
			},
			{
				"x": 1.9113579782,
				"y": 0.3933332482,
				"z": -1.3874405749,
				"element": "C" 
			},
			{
				"x": 2.2713160332,
				"y": -1.0619313827,
				"z": -1.2069624085,
				"element": "C" 
			},
			{
				"x": 2.8820374746,
				"y": 1.3822546991,
				"z": -1.5545423454,
				"element": "C" 
			},
			{
				"x": 2.5065458337,
				"y": 2.7104342311,
				"z": -1.7606696271,
				"element": "C" 
			},
			{
				"x": 1.1572648742,
				"y": 3.0522838062,
				"z": -1.7958887842,
				"element": "C" 
			},
			{
				"x": 0.1854152093,
				"y": 2.0635688426,
				"z": -1.6096895098,
				"element": "C" 
			},
			{
				"x": -1.1942532979,
				"y": 2.4381850247,
				"z": -1.6537440736,
				"element": "N" 
			},
			{
				"x": -2.0341353497,
				"y": 1.8587845733,
				"z": -2.5802845969,
				"element": "N" 
			},
			{
				"x": -3.204703915,
				"y": 2.3736365805,
				"z": -2.4177186318,
				"element": "N" 
			},
			{
				"x": -3.1615188029,
				"y": 3.2910895994,
				"z": -1.4019355864,
				"element": "C" 
			},
			{
				"x": -4.3742913265,
				"y": 4.0267442708,
				"z": -1.0094422902,
				"element": "C" 
			},
			{
				"x": -4.1261136862,
				"y": 4.9211693882,
				"z": -0.0087780442,
				"element": "O" 
			},
			{
				"x": -5.4750262758,
				"y": 3.8854134838,
				"z": -1.4918630441,
				"element": "O" 
			},
			{
				"x": -1.8671873113,
				"y": 3.3444816982,
				"z": -0.8922838086,
				"element": "C" 
			},
			{
				"x": -1.2478276185,
				"y": 4.1266245284,
				"z": 0.2194853822,
				"element": "C" 
			},
			{
				"x": 2.0318829911,
				"y": -2.9304604694,
				"z": 4.2026153139,
				"element": "H" 
			},
			{
				"x": 3.0457440137,
				"y": -4.381767061,
				"z": 4.252749491,
				"element": "H" 
			},
			{
				"x": 3.4756963864,
				"y": -3.0429520565,
				"z": 3.1706976635,
				"element": "H" 
			},
			{
				"x": 2.4454996945,
				"y": -4.9001296167,
				"z": 1.8699745565,
				"element": "H" 
			},
			{
				"x": 0.9957081018,
				"y": -4.8397761285,
				"z": 2.8786738386,
				"element": "H" 
			},
			{
				"x": 0.4704408848,
				"y": -2.7118164408,
				"z": 1.9122406933,
				"element": "H" 
			},
			{
				"x": -0.5905016233,
				"y": -2.207234057,
				"z": -0.0006523412,
				"element": "H" 
			},
			{
				"x": -0.1155233127,
				"y": -0.7623101053,
				"z": 0.9107083612,
				"element": "H" 
			},
			{
				"x": -1.4334212453,
				"y": -0.0581422709,
				"z": -0.9958840936,
				"element": "H" 
			},
			{
				"x": -0.4837569385,
				"y": -1.0126225392,
				"z": -2.1119399458,
				"element": "H" 
			},
			{
				"x": 2.1572287662,
				"y": -1.587563679,
				"z": -2.1694586556,
				"element": "H" 
			},
			{
				"x": 3.3128432193,
				"y": -1.1870297658,
				"z": -0.9093430163,
				"element": "H" 
			},
			{
				"x": 3.9337563249,
				"y": 1.1111616309,
				"z": -1.5260188936,
				"element": "H" 
			},
			{
				"x": 3.261838599,
				"y": 3.477327983,
				"z": -1.9006620323,
				"element": "H" 
			},
			{
				"x": 0.8489291444,
				"y": 4.075743579,
				"z": -1.9817428789,
				"element": "H" 
			},
			{
				"x": -4.9815432173,
				"y": 5.3437181531,
				"z": 0.1752988319,
				"element": "H" 
			},
			{
				"x": -0.8955933665,
				"y": 5.1027196101,
				"z": -0.1325992466,
				"element": "H" 
			},
			{
				"x": -1.9880079769,
				"y": 4.313238875,
				"z": 0.9973157109,
				"element": "H" 
			},
			{
				"x": -0.3927695475,
				"y": 3.5950485412,
				"z": 0.6436348678,
				"element": "H" 
			}
		],
		 "valence_orbital": [ 
			{
				"type": "occ",
				"energy": -0.26439,
				"method": "rhf"
			},
			{
				"type": "occ",
				"energy": -0.26109,
				"method": "rhf"
			},
			{
				"type": "occ",
				"energy": -0.2579,
				"method": "rhf"
			},
			{
				"type": "occ",
				"energy": -0.24291,
				"method": "rhf"
			},
			{
				"type": "occ",
				"energy": -0.23365,
				"method": "rhf"
			},
			{
				"type": "unocc",
				"energy": -0.04358,
				"method": "rhf"
			},
			{
				"type": "unocc",
				"energy": -0.02857,
				"method": "rhf"
			},
			{
				"type": "unocc",
				"energy": -0.02371,
				"method": "rhf"
			},
			{
				"type": "unocc",
				"energy": -0.00369,
				"method": "rhf"
			},
			{
				"type": "unocc",
				"energy": 0.05929,
				"method": "rhf"
			}
		],
		"cosmo_sigma_profile": { 
			"-0.025": 0.0,
			"-0.024": 0.0,
			"-0.023": 0.0,
			"-0.022": 0.0,
			"-0.021": 0.0,
			"-0.02": 0.0,
			"-0.019": 0.0768005895425,
			"-0.018": 0.88472741309,
			"-0.017": 0.971078860287,
			"-0.016": 0.923007767211,
			"-0.015": 0.549484310285,
			"-0.014": 0.474204784531,
			"-0.013": 1.13856059328,
			"-0.012": 1.97787155715,
			"-0.011": 2.30950246703,
			"-0.01": 1.72586436494,
			"-0.009": 1.3767409724,
			"-0.008": 3.87914802129,
			"-0.007": 9.50642624364,
			"-0.006": 15.9639711071,
			"-0.005": 29.9765337825,
			"-0.004": 33.4883525967,
			"-0.003": 34.9062556941,
			"-0.002": 35.9794591982,
			"-0.001": 26.0822910632,
			"0.0": 21.3554660017,
			"0.001": 24.6904738695,
			"0.002": 18.8443503579,
			"0.003": 17.0534693989,
			"0.004": 12.7763370808,
			"0.005": 6.75099267839,
			"0.006": 5.87589760362,
			"0.007": 6.13133850884,
			"0.008": 5.20841002397,
			"0.009": 7.12450793038,
			"0.01": 6.87633854764,
			"0.011": 8.14765448254,
			"0.012": 7.40887860152,
			"0.013": 4.02839644066,
			"0.014": 4.98872606849,
			"0.015": 5.46039283719,
			"0.016": 0.215784148381,
			"0.017": 0.0,
			"0.018": 0.0,
			"0.019": 0.0,
			"0.02": 0.0,
			"0.021": 0.0,
			"0.022": 0.0,
			"0.023": 0.0,
			"0.024": 0.0,
			"0.025": 0.0
		}
	}
}
