{
	 "smiles": "OCC(O)C(O)CO", 
	 "Tm": 395.15, 
	 "num_atms": 18, 
	 "gaussian": { 
		 "optdone": 1, 
		 "sigma_profile": "yes", 
		 "theory": "DFT", 
		 "functional": "B3LYP", 
		 "basiset": "6-31G**", 
		 "properties": { 
			 "R2extent": 1379.7735, 
			 "electric_dipole_moment_norm": 0.273024724155, 
			 "electric_quadrupole_moment_norm": 16.5315943245, 
			 "total_energy": -459.313028143, 
			 "HOMO_LUMO_gap": 0.31517, 
			 "cosmo_polarized_energy": -13.95, 
			 "cosmo_cavitation_energy": 20.48, 
			 "cosmo_dispersion_energy": -15.53, 
			 "cosmo_repulsion_energy": 1.34, 
			 "cosmo_total_nonelectrostatic_energy": 6.29, 
			 "SMD_solvation_energy": 3.73 
		},
		"coords": [
			{
				"x": 0.0280752578,
				"y": 1.3560381982,
				"z": 1.6838185908,
				"element": "O" 
			},
			{
				"x": -0.33393164,
				"y": 0.0750358442,
				"z": 1.1573220897,
				"element": "C" 
			},
			{
				"x": 0.5172530277,
				"y": -0.1198712621,
				"z": -0.0963515573,
				"element": "C" 
			},
			{
				"x": 1.8881614184,
				"y": 0.0949836097,
				"z": 0.2106908566,
				"element": "O" 
			},
			{
				"x": 0.0590439486,
				"y": 0.7890833764,
				"z": -1.2463935181,
				"element": "C" 
			},
			{
				"x": -1.273682773,
				"y": 0.416865542,
				"z": -1.5751392109,
				"element": "O" 
			},
			{
				"x": 0.9502341315,
				"y": 0.6490209022,
				"z": -2.4754123922,
				"element": "C" 
			},
			{
				"x": 0.331200419,
				"y": 1.437980849,
				"z": -3.4966424754,
				"element": "O" 
			},
			{
				"x": -0.3887990823,
				"y": 1.4667744736,
				"z": 2.5457044946,
				"element": "H" 
			},
			{
				"x": -1.3981308122,
				"y": 0.0281102086,
				"z": 0.8968408238,
				"element": "H" 
			},
			{
				"x": -0.100228035,
				"y": -0.7214985384,
				"z": 1.8779859982,
				"element": "H" 
			},
			{
				"x": 0.4141655772,
				"y": -1.1599390562,
				"z": -0.4300730205,
				"element": "H" 
			},
			{
				"x": 1.8940520765,
				"y": 0.8536661236,
				"z": 0.8154126761,
				"element": "H" 
			},
			{
				"x": 0.0952027252,
				"y": 1.8375419995,
				"z": -0.9085854342,
				"element": "H" 
			},
			{
				"x": -1.446269187,
				"y": 0.8298832884,
				"z": -2.4347248865,
				"element": "H" 
			},
			{
				"x": 0.9966037784,
				"y": -0.4103708997,
				"z": -2.7711179703,
				"element": "H" 
			},
			{
				"x": 1.9660381638,
				"y": 0.993575149,
				"z": -2.2489950851,
				"element": "H" 
			},
			{
				"x": 0.7468110056,
				"y": 1.2282201918,
				"z": -4.3409399794,
				"element": "H" 
			}
		],
		 "valence_orbital": [ 
			{
				"type": "occ",
				"energy": -0.31935,
				"method": "rhf"
			},
			{
				"type": "occ",
				"energy": -0.28156,
				"method": "rhf"
			},
			{
				"type": "occ",
				"energy": -0.27765,
				"method": "rhf"
			},
			{
				"type": "occ",
				"energy": -0.2604,
				"method": "rhf"
			},
			{
				"type": "occ",
				"energy": -0.25265,
				"method": "rhf"
			},
			{
				"type": "unocc",
				"energy": 0.06252,
				"method": "rhf"
			},
			{
				"type": "unocc",
				"energy": 0.06796,
				"method": "rhf"
			},
			{
				"type": "unocc",
				"energy": 0.11833,
				"method": "rhf"
			},
			{
				"type": "unocc",
				"energy": 0.12489,
				"method": "rhf"
			},
			{
				"type": "unocc",
				"energy": 0.13393,
				"method": "rhf"
			}
		],
		"cosmo_sigma_profile": { 
			"-0.025": 0.0,
			"-0.024": 0.0,
			"-0.023": 0.0,
			"-0.022": 0.0,
			"-0.021": 0.0,
			"-0.02": 0.0,
			"-0.019": 0.0,
			"-0.018": 0.0,
			"-0.017": 0.316325918102,
			"-0.016": 1.96237011789,
			"-0.015": 2.19326949973,
			"-0.014": 1.36081600114,
			"-0.013": 1.57523997244,
			"-0.012": 2.83892168482,
			"-0.011": 2.09210979802,
			"-0.01": 2.70749798866,
			"-0.009": 2.03476348961,
			"-0.008": 2.44812038436,
			"-0.007": 4.05760467161,
			"-0.006": 3.21459689221,
			"-0.005": 5.71957686021,
			"-0.004": 14.7648237984,
			"-0.003": 14.5342091047,
			"-0.002": 11.7771059316,
			"-0.001": 9.52808199928,
			"0.0": 8.26192564639,
			"0.001": 5.80125693368,
			"0.002": 6.87544804718,
			"0.003": 5.44295806452,
			"0.004": 4.99122526469,
			"0.005": 5.24806808497,
			"0.006": 5.58738381549,
			"0.007": 5.15257631331,
			"0.008": 3.81461547292,
			"0.009": 4.19888135998,
			"0.01": 4.42162762438,
			"0.011": 3.85292433162,
			"0.012": 4.69854891473,
			"0.013": 3.44391609236,
			"0.014": 2.1785301651,
			"0.015": 0.365071909894,
			"0.016": 0.0,
			"0.017": 0.0,
			"0.018": 0.0,
			"0.019": 0.0,
			"0.02": 0.0,
			"0.021": 0.0,
			"0.022": 0.0,
			"0.023": 0.0,
			"0.024": 0.0,
			"0.025": 0.0
		}
	}
}
