{
	 "smiles": "CC1COC(CN2C=NC=N2)(O1)C1=C(Cl)C=C(OC2=CC=C(Cl)C=C2)C=C1", 
	 "Tm": 349.15, 
	 "num_atms": 44, 
	 "gaussian": { 
		 "optdone": 1, 
		 "sigma_profile": "yes", 
		 "theory": "DFT", 
		 "functional": "B3LYP", 
		 "basiset": "6-31G**", 
		 "properties": { 
			 "R2extent": 17889.5446, 
			 "electric_dipole_moment_norm": 3.34085939393, 
			 "electric_quadrupole_moment_norm": 27.0736015892, 
			 "total_energy": -2044.53794468, 
			 "HOMO_LUMO_gap": 0.20114, 
			 "cosmo_polarized_energy": -18.12, 
			 "cosmo_cavitation_energy": 51.43, 
			 "cosmo_dispersion_energy": -35.22, 
			 "cosmo_repulsion_energy": 2.66, 
			 "cosmo_total_nonelectrostatic_energy": 18.87, 
			 "SMD_solvation_energy": 5.93 
		},
		"coords": [
			{
				"x": -4.4720132684,
				"y": -0.7464091859,
				"z": -2.5010097134,
				"element": "C" 
			},
			{
				"x": -3.2565201409,
				"y": 0.0994269901,
				"z": -2.8334970035,
				"element": "C" 
			},
			{
				"x": -3.2221875406,
				"y": 1.4924316825,
				"z": -2.2074222017,
				"element": "C" 
			},
			{
				"x": -1.8214055152,
				"y": 1.7566301626,
				"z": -2.0915722364,
				"element": "O" 
			},
			{
				"x": -1.1594527537,
				"y": 0.506565378,
				"z": -1.9111979382,
				"element": "C" 
			},
			{
				"x": 0.0646176244,
				"y": 0.5118305649,
				"z": -2.8603719165,
				"element": "C" 
			},
			{
				"x": -0.303733887,
				"y": 0.7037557767,
				"z": -4.2491528675,
				"element": "N" 
			},
			{
				"x": -0.5877810796,
				"y": 1.8533509937,
				"z": -4.9073137522,
				"element": "C" 
			},
			{
				"x": -0.9551454034,
				"y": 1.5985911485,
				"z": -6.1512991884,
				"element": "N" 
			},
			{
				"x": -0.8822266907,
				"y": 0.2369152205,
				"z": -6.2028685344,
				"element": "C" 
			},
			{
				"x": -0.496670543,
				"y": -0.3553022949,
				"z": -5.081883958,
				"element": "N" 
			},
			{
				"x": -2.0857934578,
				"y": -0.5042145463,
				"z": -2.2570608663,
				"element": "O" 
			},
			{
				"x": -0.7094287604,
				"y": 0.3315127239,
				"z": -0.4528527771,
				"element": "C" 
			},
			{
				"x": -0.2241263682,
				"y": -0.8725188113,
				"z": 0.0872135704,
				"element": "C" 
			},
			{
				"x": -0.072214942,
				"y": -2.3357694576,
				"z": -0.8771626744,
				"element": "Cl" 
			},
			{
				"x": 0.176044992,
				"y": -0.9673989438,
				"z": 1.418070572,
				"element": "C" 
			},
			{
				"x": 0.0998258061,
				"y": 0.1533781896,
				"z": 2.2463744647,
				"element": "C" 
			},
			{
				"x": 0.4492516462,
				"y": -0.0470127614,
				"z": 3.5623558713,
				"element": "O" 
			},
			{
				"x": 0.9433628147,
				"y": 0.991569429,
				"z": 4.3301252326,
				"element": "C" 
			},
			{
				"x": 1.9801965025,
				"y": 1.8170415769,
				"z": 3.8862341191,
				"element": "C" 
			},
			{
				"x": 2.4936326533,
				"y": 2.7957207904,
				"z": 4.7358759767,
				"element": "C" 
			},
			{
				"x": 1.9734315195,
				"y": 2.9318763004,
				"z": 6.0234736378,
				"element": "C" 
			},
			{
				"x": 2.6240917105,
				"y": 4.1647814585,
				"z": 7.0932283706,
				"element": "Cl" 
			},
			{
				"x": 0.9468402593,
				"y": 2.1022209429,
				"z": 6.4737299931,
				"element": "C" 
			},
			{
				"x": 0.4281170623,
				"y": 1.1302627274,
				"z": 5.6192169387,
				"element": "C" 
			},
			{
				"x": -0.3705513712,
				"y": 1.3673243888,
				"z": 1.7426190728,
				"element": "C" 
			},
			{
				"x": -0.7588832154,
				"y": 1.4363844201,
				"z": 0.4070669345,
				"element": "C" 
			},
			{
				"x": -4.601158737,
				"y": -0.8275368555,
				"z": -1.4176120841,
				"element": "H" 
			},
			{
				"x": -5.3746642107,
				"y": -0.3027628178,
				"z": -2.9340946491,
				"element": "H" 
			},
			{
				"x": -4.3570945514,
				"y": -1.7528103014,
				"z": -2.9112825082,
				"element": "H" 
			},
			{
				"x": -3.1253046052,
				"y": 0.1702541076,
				"z": -3.9218223522,
				"element": "H" 
			},
			{
				"x": -3.6632476805,
				"y": 2.2724791699,
				"z": -2.8320240222,
				"element": "H" 
			},
			{
				"x": -3.7013256994,
				"y": 1.4966407706,
				"z": -1.2179146826,
				"element": "H" 
			},
			{
				"x": 0.592957306,
				"y": -0.4377758036,
				"z": -2.7878680572,
				"element": "H" 
			},
			{
				"x": 0.7342651208,
				"y": 1.3210131095,
				"z": -2.5565039537,
				"element": "H" 
			},
			{
				"x": -0.5159145545,
				"y": 2.8255494613,
				"z": -4.4415417419,
				"element": "H" 
			},
			{
				"x": -1.1107311601,
				"y": -0.3335728173,
				"z": -7.0928103137,
				"element": "H" 
			},
			{
				"x": 0.5437063312,
				"y": -1.9036427659,
				"z": 1.8201894552,
				"element": "H" 
			},
			{
				"x": 2.3854508695,
				"y": 1.6926220175,
				"z": 2.8878948346,
				"element": "H" 
			},
			{
				"x": 3.298861396,
				"y": 3.4417413954,
				"z": 4.4042498487,
				"element": "H" 
			},
			{
				"x": 0.5544023161,
				"y": 2.2174868584,
				"z": 7.4778264681,
				"element": "H" 
			},
			{
				"x": -0.370291023,
				"y": 0.4710792506,
				"z": 5.9425540863,
				"element": "H" 
			},
			{
				"x": -0.4390021572,
				"y": 2.2408844899,
				"z": 2.3803681538,
				"element": "H" 
			},
			{
				"x": -1.1290866137,
				"y": 2.372505867,
				"z": 0.0056723917,
				"element": "H" 
			}
		],
		 "valence_orbital": [ 
			{
				"type": "occ",
				"energy": -0.2691,
				"method": "rhf"
			},
			{
				"type": "occ",
				"energy": -0.26321,
				"method": "rhf"
			},
			{
				"type": "occ",
				"energy": -0.2575,
				"method": "rhf"
			},
			{
				"type": "occ",
				"energy": -0.25537,
				"method": "rhf"
			},
			{
				"type": "occ",
				"energy": -0.23379,
				"method": "rhf"
			},
			{
				"type": "unocc",
				"energy": -0.03265,
				"method": "rhf"
			},
			{
				"type": "unocc",
				"energy": -0.02848,
				"method": "rhf"
			},
			{
				"type": "unocc",
				"energy": -0.02058,
				"method": "rhf"
			},
			{
				"type": "unocc",
				"energy": -0.01197,
				"method": "rhf"
			},
			{
				"type": "unocc",
				"energy": 0.0098,
				"method": "rhf"
			}
		],
		"cosmo_sigma_profile": { 
			"-0.025": 0.0,
			"-0.024": 0.0,
			"-0.023": 0.0,
			"-0.022": 0.0,
			"-0.021": 0.0,
			"-0.02": 0.0,
			"-0.019": 0.0,
			"-0.018": 0.0,
			"-0.017": 0.0,
			"-0.016": 0.0,
			"-0.015": 0.0,
			"-0.014": 0.0,
			"-0.013": 0.0,
			"-0.012": 0.0,
			"-0.011": 0.0,
			"-0.01": 0.914207039093,
			"-0.009": 2.8647772932,
			"-0.008": 7.92265664994,
			"-0.007": 15.2917237492,
			"-0.006": 19.7893017935,
			"-0.005": 28.0322998111,
			"-0.004": 29.8923236489,
			"-0.003": 29.6922981656,
			"-0.002": 28.916634858,
			"-0.001": 32.8768002262,
			"0.0": 32.0247150024,
			"0.001": 36.574261466,
			"0.002": 40.9642363618,
			"0.003": 32.1357567364,
			"0.004": 22.8443029574,
			"0.005": 14.624459266,
			"0.006": 5.25378168447,
			"0.007": 6.47119466526,
			"0.008": 6.50880295201,
			"0.009": 3.90609917574,
			"0.01": 3.60253737585,
			"0.011": 3.57554654318,
			"0.012": 3.45400841711,
			"0.013": 2.2814807409,
			"0.014": 2.16849189287,
			"0.015": 1.06977779033,
			"0.016": 1.2839116038,
			"0.017": 0.358522964718,
			"0.018": 0.0,
			"0.019": 0.0,
			"0.02": 0.0,
			"0.021": 0.0,
			"0.022": 0.0,
			"0.023": 0.0,
			"0.024": 0.0,
			"0.025": 0.0
		}
	}
}
