{
	 "smiles": "CCN1C=CN=C1S", 
	 "Tm": 352.15, 
	 "num_atms": 16, 
	 "gaussian": { 
		 "optdone": 1, 
		 "sigma_profile": "yes", 
		 "theory": "DFT", 
		 "functional": "B3LYP", 
		 "basiset": "6-31G**", 
		 "properties": { 
			 "R2extent": 1719.7797, 
			 "electric_dipole_moment_norm": 3.07047244248, 
			 "electric_quadrupole_moment_norm": 5.91751423234, 
			 "total_energy": -703.034133711, 
			 "HOMO_LUMO_gap": 0.21904, 
			 "cosmo_polarized_energy": -9.3, 
			 "cosmo_cavitation_energy": 21.02, 
			 "cosmo_dispersion_energy": -15.87, 
			 "cosmo_repulsion_energy": 1.27, 
			 "cosmo_total_nonelectrostatic_energy": 6.42, 
			 "SMD_solvation_energy": 2.1 
		},
		"coords": [
			{
				"x": 2.8790076156,
				"y": -1.7998479139,
				"z": -1.0992553128,
				"element": "C" 
			},
			{
				"x": 1.7362170527,
				"y": -0.7812740632,
				"z": -1.086011568,
				"element": "C" 
			},
			{
				"x": 0.8397638357,
				"y": -0.9398706525,
				"z": 0.0561684388,
				"element": "N" 
			},
			{
				"x": -0.2844564186,
				"y": -1.7528539198,
				"z": 0.1126652618,
				"element": "C" 
			},
			{
				"x": -0.7740301226,
				"y": -1.6251542348,
				"z": 1.384677074,
				"element": "C" 
			},
			{
				"x": 0.0119303614,
				"y": -0.7691163265,
				"z": 2.1276872279,
				"element": "N" 
			},
			{
				"x": 0.9625870487,
				"y": -0.38548192,
				"z": 1.302977385,
				"element": "C" 
			},
			{
				"x": 2.2846094654,
				"y": 0.732295407,
				"z": 1.7035313001,
				"element": "S" 
			},
			{
				"x": 3.5135165775,
				"y": -1.6414809072,
				"z": -1.9770868141,
				"element": "H" 
			},
			{
				"x": 3.5006557772,
				"y": -1.7024824517,
				"z": -0.2047415563,
				"element": "H" 
			},
			{
				"x": 2.4893752517,
				"y": -2.821404947,
				"z": -1.1354461675,
				"element": "H" 
			},
			{
				"x": 1.1290122032,
				"y": -0.8691264004,
				"z": -1.9920166649,
				"element": "H" 
			},
			{
				"x": 2.1285853593,
				"y": 0.2406052976,
				"z": -1.0649185515,
				"element": "H" 
			},
			{
				"x": -0.613351605,
				"y": -2.3176364021,
				"z": -0.7463501152,
				"element": "H" 
			},
			{
				"x": -1.6494582613,
				"y": -2.0931253081,
				"z": 1.813035219,
				"element": "H" 
			},
			{
				"x": 1.7476358592,
				"y": 1.0473547426,
				"z": 2.8957848437,
				"element": "H" 
			}
		],
		 "valence_orbital": [ 
			{
				"type": "occ",
				"energy": -0.35817,
				"method": "rhf"
			},
			{
				"type": "occ",
				"energy": -0.29088,
				"method": "rhf"
			},
			{
				"type": "occ",
				"energy": -0.26649,
				"method": "rhf"
			},
			{
				"type": "occ",
				"energy": -0.26569,
				"method": "rhf"
			},
			{
				"type": "occ",
				"energy": -0.20553,
				"method": "rhf"
			},
			{
				"type": "unocc",
				"energy": 0.01351,
				"method": "rhf"
			},
			{
				"type": "unocc",
				"energy": 0.03046,
				"method": "rhf"
			},
			{
				"type": "unocc",
				"energy": 0.068,
				"method": "rhf"
			},
			{
				"type": "unocc",
				"energy": 0.07181,
				"method": "rhf"
			},
			{
				"type": "unocc",
				"energy": 0.09871,
				"method": "rhf"
			}
		],
		"cosmo_sigma_profile": { 
			"-0.025": 0.0,
			"-0.024": 0.0,
			"-0.023": 0.0,
			"-0.022": 0.0,
			"-0.021": 0.0,
			"-0.02": 0.0,
			"-0.019": 0.0,
			"-0.018": 0.0,
			"-0.017": 0.0,
			"-0.016": 0.0,
			"-0.015": 0.0,
			"-0.014": 0.0,
			"-0.013": 0.0,
			"-0.012": 0.177165481083,
			"-0.011": 1.21265945642,
			"-0.01": 1.50837496578,
			"-0.009": 1.59478725554,
			"-0.008": 3.44783086399,
			"-0.007": 5.16009467492,
			"-0.006": 7.32573676584,
			"-0.005": 9.6844839224,
			"-0.004": 15.682183925,
			"-0.003": 16.1522535675,
			"-0.002": 14.3710830213,
			"-0.001": 13.1824123697,
			"0.0": 12.6887562539,
			"0.001": 9.20761860181,
			"0.002": 8.30197439079,
			"0.003": 8.37988866731,
			"0.004": 7.6814417901,
			"0.005": 8.73244757187,
			"0.006": 7.64146951586,
			"0.007": 4.08093453084,
			"0.008": 2.78108718066,
			"0.009": 1.58313628421,
			"0.01": 1.34151720295,
			"0.011": 0.906701925403,
			"0.012": 1.57257355424,
			"0.013": 1.15133104134,
			"0.014": 0.714517937522,
			"0.015": 0.782584344764,
			"0.016": 1.33410766198,
			"0.017": 0.642125915134,
			"0.018": 0.192500480705,
			"0.019": 0.0,
			"0.02": 0.0,
			"0.021": 0.0,
			"0.022": 0.0,
			"0.023": 0.0,
			"0.024": 0.0,
			"0.025": 0.0
		}
	}
}
