{
	 "smiles": "CC(=O)C1=C(N)C=C(S1)C1=CC=CC=C1", 
	 "Tm": 409.15, 
	 "num_atms": 26, 
	 "gaussian": { 
		 "optdone": 1, 
		 "sigma_profile": "yes", 
		 "theory": "DFT", 
		 "functional": "B3LYP", 
		 "basiset": "6-31G**", 
		 "properties": { 
			 "R2extent": 4777.1555, 
			 "electric_dipole_moment_norm": 3.34778100389, 
			 "electric_quadrupole_moment_norm": 14.2176904559, 
			 "total_energy": -992.080507784, 
			 "HOMO_LUMO_gap": 0.14051, 
			 "cosmo_polarized_energy": -11.45, 
			 "cosmo_cavitation_energy": 31.3, 
			 "cosmo_dispersion_energy": -23.56, 
			 "cosmo_repulsion_energy": 1.78, 
			 "cosmo_total_nonelectrostatic_energy": 9.53, 
			 "SMD_solvation_energy": 5.39 
		},
		"coords": [
			{
				"x": -3.6375254647,
				"y": 2.9129124439,
				"z": 0.6695882438,
				"element": "C" 
			},
			{
				"x": -2.1715870703,
				"y": 3.2806575876,
				"z": 0.5137894383,
				"element": "C" 
			},
			{
				"x": -1.8455176666,
				"y": 4.4556775284,
				"z": 0.2809433303,
				"element": "O" 
			},
			{
				"x": -1.1713290209,
				"y": 2.2431497772,
				"z": 0.633092278,
				"element": "C" 
			},
			{
				"x": 0.209836817,
				"y": 2.4385977057,
				"z": 0.4798504399,
				"element": "C" 
			},
			{
				"x": 0.7735237058,
				"y": 3.661005508,
				"z": 0.2777730085,
				"element": "N" 
			},
			{
				"x": 0.9469528922,
				"y": 1.2185933434,
				"z": 0.5842831711,
				"element": "C" 
			},
			{
				"x": 0.1633161178,
				"y": 0.1137031895,
				"z": 0.8194929888,
				"element": "C" 
			},
			{
				"x": -1.5262044575,
				"y": 0.5436025681,
				"z": 0.9338584339,
				"element": "S" 
			},
			{
				"x": 0.6056485731,
				"y": -1.2773194101,
				"z": 0.9874372256,
				"element": "C" 
			},
			{
				"x": -0.231842391,
				"y": -2.3571141515,
				"z": 0.6548344859,
				"element": "C" 
			},
			{
				"x": 0.2036270052,
				"y": -3.6710040738,
				"z": 0.8123723234,
				"element": "C" 
			},
			{
				"x": 1.4855721281,
				"y": -3.9345805446,
				"z": 1.2989560919,
				"element": "C" 
			},
			{
				"x": 2.3273222519,
				"y": -2.8712849343,
				"z": 1.6335028945,
				"element": "C" 
			},
			{
				"x": 1.8919834927,
				"y": -1.5567184931,
				"z": 1.4849965868,
				"element": "C" 
			},
			{
				"x": -3.8281331712,
				"y": 2.4714579894,
				"z": 1.6544838617,
				"element": "H" 
			},
			{
				"x": -4.241682989,
				"y": 3.8135599227,
				"z": 0.5541985997,
				"element": "H" 
			},
			{
				"x": -3.9383338425,
				"y": 2.1748527246,
				"z": -0.0827342524,
				"element": "H" 
			},
			{
				"x": 0.1148960351,
				"y": 4.412942195,
				"z": 0.097689212,
				"element": "H" 
			},
			{
				"x": 1.7107283006,
				"y": 3.7175968777,
				"z": -0.0861021198,
				"element": "H" 
			},
			{
				"x": 2.0230276933,
				"y": 1.1660199374,
				"z": 0.4610062961,
				"element": "H" 
			},
			{
				"x": -1.2211832512,
				"y": -2.1625043254,
				"z": 0.2512666823,
				"element": "H" 
			},
			{
				"x": -0.4575060467,
				"y": -4.4905666401,
				"z": 0.5461869451,
				"element": "H" 
			},
			{
				"x": 1.8248284194,
				"y": -4.9591277426,
				"z": 1.4194238524,
				"element": "H" 
			},
			{
				"x": 3.3225109097,
				"y": -3.0660365327,
				"z": 2.0227588384,
				"element": "H" 
			},
			{
				"x": 2.5407710299,
				"y": -0.7374724503,
				"z": 1.7785511437,
				"element": "H" 
			}
		],
		 "valence_orbital": [ 
			{
				"type": "occ",
				"energy": -0.27285,
				"method": "rhf"
			},
			{
				"type": "occ",
				"energy": -0.26022,
				"method": "rhf"
			},
			{
				"type": "occ",
				"energy": -0.24097,
				"method": "rhf"
			},
			{
				"type": "occ",
				"energy": -0.2312,
				"method": "rhf"
			},
			{
				"type": "occ",
				"energy": -0.19963,
				"method": "rhf"
			},
			{
				"type": "unocc",
				"energy": -0.05912,
				"method": "rhf"
			},
			{
				"type": "unocc",
				"energy": -0.01197,
				"method": "rhf"
			},
			{
				"type": "unocc",
				"energy": -0.0036,
				"method": "rhf"
			},
			{
				"type": "unocc",
				"energy": 0.02641,
				"method": "rhf"
			},
			{
				"type": "unocc",
				"energy": 0.04596,
				"method": "rhf"
			}
		],
		"cosmo_sigma_profile": { 
			"-0.025": 0.0,
			"-0.024": 0.0,
			"-0.023": 0.0,
			"-0.022": 0.0,
			"-0.021": 0.0,
			"-0.02": 0.0,
			"-0.019": 0.0,
			"-0.018": 0.0,
			"-0.017": 0.0,
			"-0.016": 0.0,
			"-0.015": 0.0,
			"-0.014": 0.672703032201,
			"-0.013": 1.54477230624,
			"-0.012": 1.2804415502,
			"-0.011": 1.34078699988,
			"-0.01": 1.35184608425,
			"-0.009": 1.90885593396,
			"-0.008": 3.36750944181,
			"-0.007": 5.02348738796,
			"-0.006": 12.1800003571,
			"-0.005": 16.3530322258,
			"-0.004": 19.5718583975,
			"-0.003": 18.4785455178,
			"-0.002": 17.349320454,
			"-0.001": 17.2606400835,
			"0.0": 15.5030258084,
			"0.001": 15.9025151423,
			"0.002": 20.613036191,
			"0.003": 26.0965804177,
			"0.004": 21.9529497199,
			"0.005": 14.6299146865,
			"0.006": 2.99787590927,
			"0.007": 2.03380134535,
			"0.008": 2.68246673331,
			"0.009": 2.01190615453,
			"0.01": 2.20176306868,
			"0.011": 1.56037714315,
			"0.012": 2.08202640749,
			"0.013": 2.1271988238,
			"0.014": 1.6094011905,
			"0.015": 0.372413735908,
			"0.016": 0.0,
			"0.017": 0.0,
			"0.018": 0.0,
			"0.019": 0.0,
			"0.02": 0.0,
			"0.021": 0.0,
			"0.022": 0.0,
			"0.023": 0.0,
			"0.024": 0.0,
			"0.025": 0.0
		}
	}
}
