{
	 "smiles": "O=C1OC2=CCCNC2=C1", 
	 "Tm": 383.15, 
	 "num_atms": 17, 
	 "gaussian": { 
		 "optdone": 1, 
		 "sigma_profile": "yes", 
		 "theory": "DFT", 
		 "functional": "B3LYP", 
		 "basiset": "6-31G**", 
		 "properties": { 
			 "R2extent": 1697.6631, 
			 "electric_dipole_moment_norm": 6.87171278576, 
			 "electric_quadrupole_moment_norm": 17.3004463893, 
			 "total_energy": -476.147782677, 
			 "HOMO_LUMO_gap": 0.17651, 
			 "cosmo_polarized_energy": -15.57, 
			 "cosmo_cavitation_energy": 20.62, 
			 "cosmo_dispersion_energy": -15.95, 
			 "cosmo_repulsion_energy": 1.3, 
			 "cosmo_total_nonelectrostatic_energy": 5.97, 
			 "SMD_solvation_energy": 3.62 
		},
		"coords": [
			{
				"x": -3.8119275551,
				"y": -0.9361419635,
				"z": 0.848315673,
				"element": "O" 
			},
			{
				"x": -2.6605775899,
				"y": -0.5934201361,
				"z": 0.7782521156,
				"element": "C" 
			},
			{
				"x": -2.0969994994,
				"y": 0.2396854313,
				"z": 1.791544515,
				"element": "O" 
			},
			{
				"x": -0.7911228812,
				"y": 0.462671692,
				"z": 1.4643062829,
				"element": "C" 
			},
			{
				"x": 0.121630818,
				"y": 1.1280418147,
				"z": 2.1813818853,
				"element": "C" 
			},
			{
				"x": 1.5369653649,
				"y": 1.1923014237,
				"z": 1.6551823256,
				"element": "C" 
			},
			{
				"x": 1.590332151,
				"y": 1.0303258495,
				"z": 0.1290231921,
				"element": "C" 
			},
			{
				"x": 0.7720136334,
				"y": -0.1098382434,
				"z": -0.3082876656,
				"element": "N" 
			},
			{
				"x": -0.4919787941,
				"y": -0.2055156068,
				"z": 0.1924617966,
				"element": "C" 
			},
			{
				"x": -1.6190976792,
				"y": -0.8553011873,
				"z": -0.2072419754,
				"element": "C" 
			},
			{
				"x": -0.1244155701,
				"y": 1.5579630202,
				"z": 3.1465201199,
				"element": "H" 
			},
			{
				"x": 2.0009356639,
				"y": 2.1501969209,
				"z": 1.9150822813,
				"element": "H" 
			},
			{
				"x": 2.1465714128,
				"y": 0.4124614125,
				"z": 2.1356313131,
				"element": "H" 
			},
			{
				"x": 1.2383659196,
				"y": 1.9600538014,
				"z": -0.3445648162,
				"element": "H" 
			},
			{
				"x": 2.6188420861,
				"y": 0.8559667588,
				"z": -0.1979226038,
				"element": "H" 
			},
			{
				"x": 0.9054502388,
				"y": -0.4189774071,
				"z": -1.2612823567,
				"element": "H" 
			},
			{
				"x": -1.7868877195,
				"y": -1.4597735807,
				"z": -1.0861020828,
				"element": "H" 
			}
		],
		 "valence_orbital": [ 
			{
				"type": "occ",
				"energy": -0.35312,
				"method": "rhf"
			},
			{
				"type": "occ",
				"energy": -0.33505,
				"method": "rhf"
			},
			{
				"type": "occ",
				"energy": -0.26392,
				"method": "rhf"
			},
			{
				"type": "occ",
				"energy": -0.24159,
				"method": "rhf"
			},
			{
				"type": "occ",
				"energy": -0.22805,
				"method": "rhf"
			},
			{
				"type": "unocc",
				"energy": -0.05154,
				"method": "rhf"
			},
			{
				"type": "unocc",
				"energy": 0.05975,
				"method": "rhf"
			},
			{
				"type": "unocc",
				"energy": 0.06634,
				"method": "rhf"
			},
			{
				"type": "unocc",
				"energy": 0.08887,
				"method": "rhf"
			},
			{
				"type": "unocc",
				"energy": 0.10691,
				"method": "rhf"
			}
		],
		"cosmo_sigma_profile": { 
			"-0.025": 0.0,
			"-0.024": 0.0,
			"-0.023": 0.0,
			"-0.022": 0.0,
			"-0.021": 0.0,
			"-0.02": 0.0,
			"-0.019": 0.0,
			"-0.018": 0.0,
			"-0.017": 0.0,
			"-0.016": 0.0,
			"-0.015": 0.573795153687,
			"-0.014": 1.44371821427,
			"-0.013": 1.68349693314,
			"-0.012": 1.15338913602,
			"-0.011": 0.988672966254,
			"-0.01": 1.5924038501,
			"-0.009": 1.26484244092,
			"-0.008": 2.28413370079,
			"-0.007": 4.98859040476,
			"-0.006": 7.69015831225,
			"-0.005": 11.9640629553,
			"-0.004": 18.6593145646,
			"-0.003": 14.0043281016,
			"-0.002": 11.4976088438,
			"-0.001": 9.39652975041,
			"0.0": 8.25846509226,
			"0.001": 8.02231522405,
			"0.002": 10.1524275591,
			"0.003": 8.14145008844,
			"0.004": 5.23710440691,
			"0.005": 3.27277522236,
			"0.006": 2.9453382369,
			"0.007": 3.1336815036,
			"0.008": 3.14217709113,
			"0.009": 2.91786034238,
			"0.01": 4.79659907953,
			"0.011": 3.4206814488,
			"0.012": 6.36111544052,
			"0.013": 4.49235504183,
			"0.014": 0.546492428392,
			"0.015": 0.0,
			"0.016": 0.0,
			"0.017": 0.0,
			"0.018": 0.0,
			"0.019": 0.0,
			"0.02": 0.0,
			"0.021": 0.0,
			"0.022": 0.0,
			"0.023": 0.0,
			"0.024": 0.0,
			"0.025": 0.0
		}
	}
}
