{
	 "smiles": "CC1(C)C2CCC1(C)C(=O)C2=C/NC1=CC=CC=C1", 
	 "Tm": 439.15, 
	 "num_atms": 40, 
	 "gaussian": { 
		 "optdone": 1, 
		 "sigma_profile": "yes", 
		 "theory": "DFT", 
		 "functional": "B3LYP", 
		 "basiset": "6-31G**", 
		 "properties": { 
			 "R2extent": 6971.5117, 
			 "electric_dipole_moment_norm": 2.27087177533, 
			 "electric_quadrupole_moment_norm": 7.59606640571, 
			 "total_energy": -790.450137103, 
			 "HOMO_LUMO_gap": 0.14997, 
			 "cosmo_polarized_energy": -9.14, 
			 "cosmo_cavitation_energy": 39.72, 
			 "cosmo_dispersion_energy": -28.09, 
			 "cosmo_repulsion_energy": 2.12, 
			 "cosmo_total_nonelectrostatic_energy": 13.74, 
			 "SMD_solvation_energy": 6.87 
		},
		"coords": [
			{
				"x": -0.9380892174,
				"y": 2.0740096399,
				"z": -1.3729979431,
				"element": "C" 
			},
			{
				"x": 0.2637474398,
				"y": 1.3444881744,
				"z": -1.9983066849,
				"element": "C" 
			},
			{
				"x": 0.3347761728,
				"y": 1.7547305587,
				"z": -3.4786960748,
				"element": "C" 
			},
			{
				"x": 0.2451514142,
				"y": -0.208101316,
				"z": -1.7616416342,
				"element": "C" 
			},
			{
				"x": 1.6173466081,
				"y": -0.6491992457,
				"z": -2.3510778247,
				"element": "C" 
			},
			{
				"x": 2.5582109428,
				"y": 0.5203390763,
				"z": -1.9260299494,
				"element": "C" 
			},
			{
				"x": 1.6114097054,
				"y": 1.5426461807,
				"z": -1.2034786196,
				"element": "C" 
			},
			{
				"x": 2.1821718081,
				"y": 2.9385596639,
				"z": -1.0297869711,
				"element": "C" 
			},
			{
				"x": 1.264535313,
				"y": 0.8283202117,
				"z": 0.113314974,
				"element": "C" 
			},
			{
				"x": 1.6781601666,
				"y": 1.1179144098,
				"z": 1.2418111232,
				"element": "O" 
			},
			{
				"x": 0.3878586844,
				"y": -0.2796019812,
				"z": -0.2543435949,
				"element": "C" 
			},
			{
				"x": -0.1168422252,
				"y": -1.1768141617,
				"z": 0.6364690925,
				"element": "C" 
			},
			{
				"x": 0.1488784791,
				"y": -1.1079815437,
				"z": 1.9709385795,
				"element": "N" 
			},
			{
				"x": -0.3305506689,
				"y": -1.9359172764,
				"z": 2.9903059004,
				"element": "C" 
			},
			{
				"x": -1.2784695063,
				"y": -2.950786408,
				"z": 2.7763782096,
				"element": "C" 
			},
			{
				"x": -1.7062525565,
				"y": -3.7407458011,
				"z": 3.842279761,
				"element": "C" 
			},
			{
				"x": -1.2122154095,
				"y": -3.5380754972,
				"z": 5.1318360653,
				"element": "C" 
			},
			{
				"x": -0.2750137327,
				"y": -2.5245869149,
				"z": 5.3461657866,
				"element": "C" 
			},
			{
				"x": 0.1642015636,
				"y": -1.7314434813,
				"z": 4.2907621458,
				"element": "C" 
			},
			{
				"x": -1.8624225603,
				"y": 1.7978348477,
				"z": -1.893437959,
				"element": "H" 
			},
			{
				"x": -0.8239520423,
				"y": 3.1592917063,
				"z": -1.4676131222,
				"element": "H" 
			},
			{
				"x": -1.0738867371,
				"y": 1.8430407664,
				"z": -0.313817382,
				"element": "H" 
			},
			{
				"x": 1.1827868958,
				"y": 1.3278175394,
				"z": -4.0171427173,
				"element": "H" 
			},
			{
				"x": 0.4026831225,
				"y": 2.8442062606,
				"z": -3.5701550685,
				"element": "H" 
			},
			{
				"x": -0.5780040325,
				"y": 1.4421566467,
				"z": -3.9992612972,
				"element": "H" 
			},
			{
				"x": -0.6187428721,
				"y": -0.7380750257,
				"z": -2.1747145068,
				"element": "H" 
			},
			{
				"x": 1.5730707938,
				"y": -0.7566506514,
				"z": -3.4393383426,
				"element": "H" 
			},
			{
				"x": 1.9333169547,
				"y": -1.6120517737,
				"z": -1.9413094388,
				"element": "H" 
			},
			{
				"x": 3.3664741692,
				"y": 0.1961125587,
				"z": -1.2634918671,
				"element": "H" 
			},
			{
				"x": 3.0294975521,
				"y": 0.9988354218,
				"z": -2.790410264,
				"element": "H" 
			},
			{
				"x": 1.4578134951,
				"y": 3.6114331296,
				"z": -0.5600197218,
				"element": "H" 
			},
			{
				"x": 3.0611847255,
				"y": 2.9085166751,
				"z": -0.378638662,
				"element": "H" 
			},
			{
				"x": 2.4806082548,
				"y": 3.3709201662,
				"z": -1.9905938787,
				"element": "H" 
			},
			{
				"x": -0.7563341416,
				"y": -1.9911501049,
				"z": 0.307909961,
				"element": "H" 
			},
			{
				"x": 0.7779513851,
				"y": -0.3424216483,
				"z": 2.2211715157,
				"element": "H" 
			},
			{
				"x": -1.6928887062,
				"y": -3.1249776172,
				"z": 1.7894335289,
				"element": "H" 
			},
			{
				"x": -2.4398182297,
				"y": -4.5207183372,
				"z": 3.6581340042,
				"element": "H" 
			},
			{
				"x": -1.5532747184,
				"y": -4.1570309591,
				"z": 5.9555811495,
				"element": "H" 
			},
			{
				"x": 0.1208336251,
				"y": -2.3488475154,
				"z": 6.3423752951,
				"element": "H" 
			},
			{
				"x": 0.8973880851,
				"y": -0.9477963735,
				"z": 4.4630364323,
				"element": "H" 
			}
		],
		 "valence_orbital": [ 
			{
				"type": "occ",
				"energy": -0.29128,
				"method": "rhf"
			},
			{
				"type": "occ",
				"energy": -0.25784,
				"method": "rhf"
			},
			{
				"type": "occ",
				"energy": -0.25254,
				"method": "rhf"
			},
			{
				"type": "occ",
				"energy": -0.23024,
				"method": "rhf"
			},
			{
				"type": "occ",
				"energy": -0.19232,
				"method": "rhf"
			},
			{
				"type": "unocc",
				"energy": -0.04235,
				"method": "rhf"
			},
			{
				"type": "unocc",
				"energy": -0.00227,
				"method": "rhf"
			},
			{
				"type": "unocc",
				"energy": 0.0203,
				"method": "rhf"
			},
			{
				"type": "unocc",
				"energy": 0.07734,
				"method": "rhf"
			},
			{
				"type": "unocc",
				"energy": 0.08697,
				"method": "rhf"
			}
		],
		"cosmo_sigma_profile": { 
			"-0.025": 0.0,
			"-0.024": 0.0,
			"-0.023": 0.0,
			"-0.022": 0.0,
			"-0.021": 0.0,
			"-0.02": 0.0,
			"-0.019": 0.0,
			"-0.018": 0.0,
			"-0.017": 0.0,
			"-0.016": 0.0,
			"-0.015": 0.0,
			"-0.014": 0.0,
			"-0.013": 0.0,
			"-0.012": 0.0,
			"-0.011": 0.0,
			"-0.01": 0.492765820128,
			"-0.009": 2.29024736602,
			"-0.008": 3.65925422501,
			"-0.007": 3.16141159845,
			"-0.006": 7.18733851031,
			"-0.005": 10.9660697893,
			"-0.004": 14.9761851489,
			"-0.003": 29.2422271194,
			"-0.002": 40.0901599589,
			"-0.001": 40.0324389445,
			"0.0": 36.9523513147,
			"0.001": 37.9993565035,
			"0.002": 24.628553416,
			"0.003": 14.9200785032,
			"0.004": 10.4988794352,
			"0.005": 9.90063706599,
			"0.006": 9.54334125306,
			"0.007": 2.63407570667,
			"0.008": 0.970621452193,
			"0.009": 1.84699535819,
			"0.01": 1.67127527332,
			"0.011": 1.77402570512,
			"0.012": 2.23533643754,
			"0.013": 2.07421436519,
			"0.014": 1.76511400003,
			"0.015": 0.077094112063,
			"0.016": 0.0,
			"0.017": 0.0,
			"0.018": 0.0,
			"0.019": 0.0,
			"0.02": 0.0,
			"0.021": 0.0,
			"0.022": 0.0,
			"0.023": 0.0,
			"0.024": 0.0,
			"0.025": 0.0
		}
	}
}
