{
	 "smiles": "COC1=CC=C(CNS(C)(=O)=O)C=C1", 
	 "Tm": 363.15, 
	 "num_atms": 27, 
	 "gaussian": { 
		 "optdone": 1, 
		 "sigma_profile": "yes", 
		 "theory": "DFT", 
		 "functional": "B3LYP", 
		 "basiset": "6-31G**", 
		 "properties": { 
			 "R2extent": 4524.49, 
			 "electric_dipole_moment_norm": 5.31239501826, 
			 "electric_quadrupole_moment_norm": 13.5368154242, 
			 "total_energy": -1029.32752237, 
			 "HOMO_LUMO_gap": 0.21364, 
			 "cosmo_polarized_energy": -16.31, 
			 "cosmo_cavitation_energy": 31.54, 
			 "cosmo_dispersion_energy": -22.9, 
			 "cosmo_repulsion_energy": 1.76, 
			 "cosmo_total_nonelectrostatic_energy": 10.4, 
			 "SMD_solvation_energy": 5.15 
		},
		"coords": [
			{
				"x": 2.8718732526,
				"y": -4.5423392206,
				"z": 0.9254190996,
				"element": "C" 
			},
			{
				"x": 1.6022175628,
				"y": -3.9095712692,
				"z": 0.9566999374,
				"element": "O" 
			},
			{
				"x": 1.5581146561,
				"y": -2.5484595126,
				"z": 1.0295921601,
				"element": "C" 
			},
			{
				"x": 0.2764964125,
				"y": -1.9802401537,
				"z": 1.0618375469,
				"element": "C" 
			},
			{
				"x": 0.1267287021,
				"y": -0.6000170361,
				"z": 1.1386901946,
				"element": "C" 
			},
			{
				"x": 1.243663917,
				"y": 0.2481674127,
				"z": 1.1858553094,
				"element": "C" 
			},
			{
				"x": 1.0759106141,
				"y": 1.7492853446,
				"z": 1.2711920636,
				"element": "C" 
			},
			{
				"x": 1.459350224,
				"y": 2.441090539,
				"z": 0.0155770637,
				"element": "N" 
			},
			{
				"x": 0.3396567812,
				"y": 2.4230488707,
				"z": -1.2642340769,
				"element": "S" 
			},
			{
				"x": 0.936731814,
				"y": 1.067317314,
				"z": -2.2816098687,
				"element": "C" 
			},
			{
				"x": -0.9945389208,
				"y": 2.0571073581,
				"z": -0.7705918699,
				"element": "O" 
			},
			{
				"x": 0.5578496852,
				"y": 3.6813270274,
				"z": -1.9860680322,
				"element": "O" 
			},
			{
				"x": 2.5152899738,
				"y": -0.3323649087,
				"z": 1.1477087734,
				"element": "C" 
			},
			{
				"x": 2.6851214767,
				"y": -1.7157720688,
				"z": 1.070766085,
				"element": "C" 
			},
			{
				"x": 3.4554221524,
				"y": -4.2382446439,
				"z": 0.0467751736,
				"element": "H" 
			},
			{
				"x": 2.6731322931,
				"y": -5.6136319078,
				"z": 0.8697088316,
				"element": "H" 
			},
			{
				"x": 3.4531068036,
				"y": -4.3303911388,
				"z": 1.8320643631,
				"element": "H" 
			},
			{
				"x": -0.5841533231,
				"y": -2.6399978882,
				"z": 1.0254641656,
				"element": "H" 
			},
			{
				"x": -0.8697999156,
				"y": -0.1680886906,
				"z": 1.1484415616,
				"element": "H" 
			},
			{
				"x": 1.7455972712,
				"y": 2.1578411576,
				"z": 2.0354121369,
				"element": "H" 
			},
			{
				"x": 0.0479358334,
				"y": 1.9940800368,
				"z": 1.5607346957,
				"element": "H" 
			},
			{
				"x": 1.6916632122,
				"y": 3.4220668006,
				"z": 0.1575520219,
				"element": "H" 
			},
			{
				"x": 0.9203072618,
				"y": 0.1516202569,
				"z": -1.6901619365,
				"element": "H" 
			},
			{
				"x": 1.9470304276,
				"y": 1.3037568773,
				"z": -2.6146902076,
				"element": "H" 
			},
			{
				"x": 0.2554387695,
				"y": 0.9894783132,
				"z": -3.1308744323,
				"element": "H" 
			},
			{
				"x": 3.3951115612,
				"y": 0.3057334501,
				"z": 1.1754776674,
				"element": "H" 
			},
			{
				"x": 3.6863415012,
				"y": -2.12950232,
				"z": 1.048461573,
				"element": "H" 
			}
		],
		 "valence_orbital": [ 
			{
				"type": "occ",
				"energy": -0.30459,
				"method": "rhf"
			},
			{
				"type": "occ",
				"energy": -0.29414,
				"method": "rhf"
			},
			{
				"type": "occ",
				"energy": -0.27298,
				"method": "rhf"
			},
			{
				"type": "occ",
				"energy": -0.25779,
				"method": "rhf"
			},
			{
				"type": "occ",
				"energy": -0.22447,
				"method": "rhf"
			},
			{
				"type": "unocc",
				"energy": -0.01083,
				"method": "rhf"
			},
			{
				"type": "unocc",
				"energy": -0.00067,
				"method": "rhf"
			},
			{
				"type": "unocc",
				"energy": 0.06883,
				"method": "rhf"
			},
			{
				"type": "unocc",
				"energy": 0.07856,
				"method": "rhf"
			},
			{
				"type": "unocc",
				"energy": 0.08491,
				"method": "rhf"
			}
		],
		"cosmo_sigma_profile": { 
			"-0.025": 0.0,
			"-0.024": 0.0,
			"-0.023": 0.0,
			"-0.022": 0.0,
			"-0.021": 0.0,
			"-0.02": 0.0,
			"-0.019": 0.0,
			"-0.018": 0.0,
			"-0.017": 0.0,
			"-0.016": 0.0,
			"-0.015": 0.139534403729,
			"-0.014": 1.20248769239,
			"-0.013": 0.69726863992,
			"-0.012": 1.00587832259,
			"-0.011": 1.26918502794,
			"-0.01": 1.1940492585,
			"-0.009": 2.65037203069,
			"-0.008": 4.96566755316,
			"-0.007": 5.76911257837,
			"-0.006": 13.6052863086,
			"-0.005": 25.5160948103,
			"-0.004": 26.0141125813,
			"-0.003": 24.1385371794,
			"-0.002": 14.7227272151,
			"-0.001": 11.9884813572,
			"0.0": 11.5057731876,
			"0.001": 9.83984287641,
			"0.002": 11.4345936463,
			"0.003": 15.0594846665,
			"0.004": 12.2802547075,
			"0.005": 10.2059575055,
			"0.006": 5.49520562665,
			"0.007": 5.0310399867,
			"0.008": 4.72783121856,
			"0.009": 4.80859637595,
			"0.01": 6.83044032831,
			"0.011": 9.44256868344,
			"0.012": 7.62198271772,
			"0.013": 0.296414322742,
			"0.014": 0.0,
			"0.015": 0.0,
			"0.016": 0.0,
			"0.017": 0.0,
			"0.018": 0.0,
			"0.019": 0.0,
			"0.02": 0.0,
			"0.021": 0.0,
			"0.022": 0.0,
			"0.023": 0.0,
			"0.024": 0.0,
			"0.025": 0.0
		}
	}
}
