{
	 "smiles": "NC1=CC(F)=C(OC2=C(C=CC=C2)C#N)C=C1", 
	 "Tm": 393.15, 
	 "num_atms": 26, 
	 "gaussian": { 
		 "optdone": 1, 
		 "sigma_profile": "yes", 
		 "theory": "DFT", 
		 "functional": "B3LYP", 
		 "basiset": "6-31G**", 
		 "properties": { 
			 "R2extent": 5123.144, 
			 "electric_dipole_moment_norm": 3.30602802922, 
			 "electric_quadrupole_moment_norm": 25.1129682387, 
			 "total_energy": -785.334926998, 
			 "HOMO_LUMO_gap": 0.15334, 
			 "cosmo_polarized_energy": -16.04, 
			 "cosmo_cavitation_energy": 32.46, 
			 "cosmo_dispersion_energy": -22.14, 
			 "cosmo_repulsion_energy": 1.71, 
			 "cosmo_total_nonelectrostatic_energy": 12.02, 
			 "SMD_solvation_energy": 7.24 
		},
		"coords": [
			{
				"x": 1.6642691766,
				"y": 4.322913062,
				"z": 0.6003344291,
				"element": "N" 
			},
			{
				"x": 1.3755723391,
				"y": 2.9679004158,
				"z": 0.4371087584,
				"element": "C" 
			},
			{
				"x": 0.4439802839,
				"y": 2.3331618135,
				"z": 1.2763291515,
				"element": "C" 
			},
			{
				"x": 0.1354700097,
				"y": 0.9975317808,
				"z": 1.0779481689,
				"element": "C" 
			},
			{
				"x": -0.7445456417,
				"y": 0.3958376407,
				"z": 1.8960599359,
				"element": "F" 
			},
			{
				"x": 0.7211575884,
				"y": 0.2551509761,
				"z": 0.0519222137,
				"element": "C" 
			},
			{
				"x": 0.3006950231,
				"y": -1.0575054297,
				"z": -0.130235759,
				"element": "O" 
			},
			{
				"x": 1.2140280121,
				"y": -2.0646177258,
				"z": -0.2815395831,
				"element": "C" 
			},
			{
				"x": 2.3769339679,
				"y": -2.2107552563,
				"z": 0.5081370646,
				"element": "C" 
			},
			{
				"x": 3.2141356153,
				"y": -3.3232884911,
				"z": 0.2919247355,
				"element": "C" 
			},
			{
				"x": 2.9042529044,
				"y": -4.2759227267,
				"z": -0.6706873809,
				"element": "C" 
			},
			{
				"x": 1.740312475,
				"y": -4.1309575432,
				"z": -1.4318262684,
				"element": "C" 
			},
			{
				"x": 0.9065315752,
				"y": -3.0331264134,
				"z": -1.2415471508,
				"element": "C" 
			},
			{
				"x": 2.7224845379,
				"y": -1.3007689399,
				"z": 1.5587451873,
				"element": "C" 
			},
			{
				"x": 3.0569547505,
				"y": -0.6163128826,
				"z": 2.4385039767,
				"element": "N" 
			},
			{
				"x": 1.6278749279,
				"y": 0.8876226593,
				"z": -0.7960413598,
				"element": "C" 
			},
			{
				"x": 1.9612012512,
				"y": 2.2256398459,
				"z": -0.603520959,
				"element": "C" 
			},
			{
				"x": 2.5565440104,
				"y": 4.6157323614,
				"z": 0.2266091527,
				"element": "H" 
			},
			{
				"x": 1.5143027245,
				"y": 4.6833265675,
				"z": 1.5327050729,
				"element": "H" 
			},
			{
				"x": -0.0364145667,
				"y": 2.8632568338,
				"z": 2.0922630764,
				"element": "H" 
			},
			{
				"x": 4.1039215544,
				"y": -3.425194648,
				"z": 0.9043604756,
				"element": "H" 
			},
			{
				"x": 3.559733248,
				"y": -5.12713411,
				"z": -0.8219805487,
				"element": "H" 
			},
			{
				"x": 1.4845180155,
				"y": -4.8714769107,
				"z": -2.1837368915,
				"element": "H" 
			},
			{
				"x": 0.0026488727,
				"y": -2.8986395014,
				"z": -1.8256821581,
				"element": "H" 
			},
			{
				"x": 2.0794620002,
				"y": 0.3229223149,
				"z": -1.6056650008,
				"element": "H" 
			},
			{
				"x": 2.6746753443,
				"y": 2.7029043068,
				"z": -1.2690883391,
				"element": "H" 
			}
		],
		 "valence_orbital": [ 
			{
				"type": "occ",
				"energy": -0.29632,
				"method": "rhf"
			},
			{
				"type": "occ",
				"energy": -0.26657,
				"method": "rhf"
			},
			{
				"type": "occ",
				"energy": -0.25005,
				"method": "rhf"
			},
			{
				"type": "occ",
				"energy": -0.24721,
				"method": "rhf"
			},
			{
				"type": "occ",
				"energy": -0.20194,
				"method": "rhf"
			},
			{
				"type": "unocc",
				"energy": -0.0486,
				"method": "rhf"
			},
			{
				"type": "unocc",
				"energy": -0.01712,
				"method": "rhf"
			},
			{
				"type": "unocc",
				"energy": -0.00345,
				"method": "rhf"
			},
			{
				"type": "unocc",
				"energy": 0.01244,
				"method": "rhf"
			},
			{
				"type": "unocc",
				"energy": 0.04262,
				"method": "rhf"
			}
		],
		"cosmo_sigma_profile": { 
			"-0.025": 0.0,
			"-0.024": 0.0,
			"-0.023": 0.0,
			"-0.022": 0.0,
			"-0.021": 0.0,
			"-0.02": 0.0,
			"-0.019": 0.0,
			"-0.018": 0.0,
			"-0.017": 0.0,
			"-0.016": 0.0,
			"-0.015": 0.0,
			"-0.014": 0.0,
			"-0.013": 0.863542848964,
			"-0.012": 3.21276499377,
			"-0.011": 2.95230181853,
			"-0.01": 3.44051521149,
			"-0.009": 3.77570267012,
			"-0.008": 5.51682476817,
			"-0.007": 13.9456437694,
			"-0.006": 15.5985363045,
			"-0.005": 15.7643776627,
			"-0.004": 12.2298190822,
			"-0.003": 9.68675167215,
			"-0.002": 12.6842775121,
			"-0.001": 15.1044745917,
			"0.0": 17.2713217773,
			"0.001": 19.0501668332,
			"0.002": 19.9503204383,
			"0.003": 22.1219198125,
			"0.004": 19.8809325714,
			"0.005": 12.0060526733,
			"0.006": 8.52834309854,
			"0.007": 5.56892907572,
			"0.008": 5.7683776015,
			"0.009": 3.7436633169,
			"0.01": 3.67693253667,
			"0.011": 3.28358510078,
			"0.012": 2.97356625846,
			"0.013": 2.20576735266,
			"0.014": 0.547337601303,
			"0.015": 0.0224198616638,
			"0.016": 0.0,
			"0.017": 0.0,
			"0.018": 0.0,
			"0.019": 0.0,
			"0.02": 0.0,
			"0.021": 0.0,
			"0.022": 0.0,
			"0.023": 0.0,
			"0.024": 0.0,
			"0.025": 0.0
		}
	}
}
