{
	 "smiles": "OC(=O)CCC1=CC=CS1", 
	 "Tm": 429.15, 
	 "num_atms": 18, 
	 "gaussian": { 
		 "optdone": 1, 
		 "sigma_profile": "yes", 
		 "theory": "DFT", 
		 "functional": "B3LYP", 
		 "basiset": "6-31G**", 
		 "properties": { 
			 "R2extent": 2073.2832, 
			 "electric_dipole_moment_norm": 1.86398137866, 
			 "electric_quadrupole_moment_norm": 8.46159565803, 
			 "total_energy": -820.205454673, 
			 "HOMO_LUMO_gap": 0.21695, 
			 "cosmo_polarized_energy": -10.61, 
			 "cosmo_cavitation_energy": 23.5, 
			 "cosmo_dispersion_energy": -17.68, 
			 "cosmo_repulsion_energy": 1.41, 
			 "cosmo_total_nonelectrostatic_energy": 7.23, 
			 "SMD_solvation_energy": 5.04 
		},
		"coords": [
			{
				"x": -0.527391361,
				"y": -2.3679974489,
				"z": 1.9460575321,
				"element": "O" 
			},
			{
				"x": 0.3722993027,
				"y": -2.1071103788,
				"z": 0.9695900029,
				"element": "C" 
			},
			{
				"x": 0.5147409576,
				"y": -2.8271479669,
				"z": 0.004460803,
				"element": "O" 
			},
			{
				"x": 1.1736293835,
				"y": -0.8576109404,
				"z": 1.2673917986,
				"element": "C" 
			},
			{
				"x": 1.9751431134,
				"y": -0.3474112654,
				"z": 0.0560584597,
				"element": "C" 
			},
			{
				"x": 1.1682141932,
				"y": 0.4151665986,
				"z": -0.9604199182,
				"element": "C" 
			},
			{
				"x": 1.1599517062,
				"y": 1.7722598638,
				"z": -1.1606543462,
				"element": "C" 
			},
			{
				"x": 0.2795372611,
				"y": 2.1963300156,
				"z": -2.2023890262,
				"element": "C" 
			},
			{
				"x": -0.3766512745,
				"y": 1.1513728665,
				"z": -2.7894533302,
				"element": "C" 
			},
			{
				"x": 0.0702892523,
				"y": -0.3667282106,
				"z": -2.0777808132,
				"element": "S" 
			},
			{
				"x": -0.9742787332,
				"y": -3.1923353045,
				"z": 1.6891608379,
				"element": "H" 
			},
			{
				"x": 1.8562051303,
				"y": -1.1169723322,
				"z": 2.08789636,
				"element": "H" 
			},
			{
				"x": 0.5017850047,
				"y": -0.0879890625,
				"z": 1.6597050773,
				"element": "H" 
			},
			{
				"x": 2.7586238259,
				"y": 0.3251763598,
				"z": 0.4204042824,
				"element": "H" 
			},
			{
				"x": 2.4762950794,
				"y": -1.2017917911,
				"z": -0.4105509375,
				"element": "H" 
			},
			{
				"x": 1.7756350785,
				"y": 2.4506838033,
				"z": -0.5786143574,
				"element": "H" 
			},
			{
				"x": 0.1467010223,
				"y": 3.2308036007,
				"z": -2.4987512455,
				"element": "H" 
			},
			{
				"x": -1.0952289427,
				"y": 1.178501593,
				"z": -3.5971111793,
				"element": "H" 
			}
		],
		 "valence_orbital": [ 
			{
				"type": "occ",
				"energy": -0.33093,
				"method": "rhf"
			},
			{
				"type": "occ",
				"energy": -0.31929,
				"method": "rhf"
			},
			{
				"type": "occ",
				"energy": -0.2798,
				"method": "rhf"
			},
			{
				"type": "occ",
				"energy": -0.24277,
				"method": "rhf"
			},
			{
				"type": "occ",
				"energy": -0.22245,
				"method": "rhf"
			},
			{
				"type": "unocc",
				"energy": -0.0055,
				"method": "rhf"
			},
			{
				"type": "unocc",
				"energy": 0.00624,
				"method": "rhf"
			},
			{
				"type": "unocc",
				"energy": 0.04444,
				"method": "rhf"
			},
			{
				"type": "unocc",
				"energy": 0.07087,
				"method": "rhf"
			},
			{
				"type": "unocc",
				"energy": 0.07864,
				"method": "rhf"
			}
		],
		"cosmo_sigma_profile": { 
			"-0.025": 0.0,
			"-0.024": 0.0,
			"-0.023": 0.0,
			"-0.022": 0.0,
			"-0.021": 0.0,
			"-0.02": 0.0,
			"-0.019": 0.00534059971292,
			"-0.018": 0.78975958095,
			"-0.017": 0.823535395403,
			"-0.016": 0.785306365031,
			"-0.015": 1.00951500456,
			"-0.014": 0.615874031591,
			"-0.013": 0.911411355154,
			"-0.012": 0.55042986437,
			"-0.011": 0.595598862749,
			"-0.01": 0.870972478839,
			"-0.009": 0.305863694405,
			"-0.008": 1.87713074637,
			"-0.007": 5.55817638365,
			"-0.006": 9.57505089773,
			"-0.005": 13.7939308675,
			"-0.004": 15.2960904509,
			"-0.003": 16.1280841081,
			"-0.002": 13.5825770672,
			"-0.001": 10.9023954176,
			"0.0": 8.60088148859,
			"0.001": 9.67934433806,
			"0.002": 8.95540311954,
			"0.003": 9.23554981864,
			"0.004": 12.604293978,
			"0.005": 15.1388427074,
			"0.006": 10.4494884269,
			"0.007": 3.89065045283,
			"0.008": 2.99409507895,
			"0.009": 3.71171603644,
			"0.01": 2.90656479485,
			"0.011": 3.12358951038,
			"0.012": 2.9330876101,
			"0.013": 0.023705417496,
			"0.014": 0.0,
			"0.015": 0.0,
			"0.016": 0.0,
			"0.017": 0.0,
			"0.018": 0.0,
			"0.019": 0.0,
			"0.02": 0.0,
			"0.021": 0.0,
			"0.022": 0.0,
			"0.023": 0.0,
			"0.024": 0.0,
			"0.025": 0.0
		}
	}
}
