{
	 "smiles": "NNC(=O)C1=CC=C(COC2=CC=CC=C2)C=C1", 
	 "Tm": 422.15, 
	 "num_atms": 32, 
	 "gaussian": { 
		 "optdone": 1, 
		 "sigma_profile": "yes", 
		 "theory": "DFT", 
		 "functional": "B3LYP", 
		 "basiset": "6-31G**", 
		 "properties": { 
			 "R2extent": 7131.2221, 
			 "electric_dipole_moment_norm": 2.89939885149, 
			 "electric_quadrupole_moment_norm": 14.3188799782, 
			 "total_energy": -801.844110319, 
			 "HOMO_LUMO_gap": 0.18013, 
			 "cosmo_polarized_energy": -17.09, 
			 "cosmo_cavitation_energy": 36.37, 
			 "cosmo_dispersion_energy": -25.81, 
			 "cosmo_repulsion_energy": 2.02, 
			 "cosmo_total_nonelectrostatic_energy": 12.58, 
			 "SMD_solvation_energy": 7.3 
		},
		"coords": [
			{
				"x": -2.9377371969,
				"y": 3.8372693649,
				"z": 1.2775572052,
				"element": "N" 
			},
			{
				"x": -2.7110352924,
				"y": 2.7316060517,
				"z": 2.1279793453,
				"element": "N" 
			},
			{
				"x": -1.5642843129,
				"y": 1.9598978823,
				"z": 2.171645307,
				"element": "C" 
			},
			{
				"x": -1.2470881287,
				"y": 1.3877115831,
				"z": 3.2082726584,
				"element": "O" 
			},
			{
				"x": -0.7393933161,
				"y": 1.8310264988,
				"z": 0.9229964229,
				"element": "C" 
			},
			{
				"x": -1.2858068392,
				"y": 1.7342325331,
				"z": -0.364662465,
				"element": "C" 
			},
			{
				"x": -0.4625778104,
				"y": 1.5378380182,
				"z": -1.4720424647,
				"element": "C" 
			},
			{
				"x": 0.9238906461,
				"y": 1.4372988005,
				"z": -1.3159294759,
				"element": "C" 
			},
			{
				"x": 1.8381629042,
				"y": 1.2916443866,
				"z": -2.5183937061,
				"element": "C" 
			},
			{
				"x": 1.2125624883,
				"y": 0.7322359604,
				"z": -3.6657085526,
				"element": "O" 
			},
			{
				"x": 1.0601231265,
				"y": -0.6311437387,
				"z": -3.747270005,
				"element": "C" 
			},
			{
				"x": 0.6116596166,
				"y": -1.108280671,
				"z": -4.9866035285,
				"element": "C" 
			},
			{
				"x": 0.4276755961,
				"y": -2.4735400603,
				"z": -5.1797642945,
				"element": "C" 
			},
			{
				"x": 0.6888131939,
				"y": -3.3783827069,
				"z": -4.1454703171,
				"element": "C" 
			},
			{
				"x": 1.1307131051,
				"y": -2.8962687667,
				"z": -2.9152580384,
				"element": "C" 
			},
			{
				"x": 1.3171411298,
				"y": -1.526381331,
				"z": -2.7033055898,
				"element": "C" 
			},
			{
				"x": 1.4690513026,
				"y": 1.5166960022,
				"z": -0.0278632998,
				"element": "C" 
			},
			{
				"x": 0.6472804441,
				"y": 1.7008797108,
				"z": 1.0801004848,
				"element": "C" 
			},
			{
				"x": -2.0581457097,
				"y": 4.2969779019,
				"z": 1.05439926,
				"element": "H" 
			},
			{
				"x": -3.3544329894,
				"y": 3.5206505206,
				"z": 0.4072638063,
				"element": "H" 
			},
			{
				"x": -3.1337755739,
				"y": 2.8387809,
				"z": 3.0429165822,
				"element": "H" 
			},
			{
				"x": -2.3615191841,
				"y": 1.7724730973,
				"z": -0.5047378273,
				"element": "H" 
			},
			{
				"x": -0.8921626037,
				"y": 1.446620743,
				"z": -2.4641939354,
				"element": "H" 
			},
			{
				"x": 2.1698675369,
				"y": 2.2833876693,
				"z": -2.8472188407,
				"element": "H" 
			},
			{
				"x": 2.7371521144,
				"y": 0.7208242591,
				"z": -2.2501438862,
				"element": "H" 
			},
			{
				"x": 0.4217103305,
				"y": -0.3922974094,
				"z": -5.7797386735,
				"element": "H" 
			},
			{
				"x": 0.0823012568,
				"y": -2.833473433,
				"z": -6.1448608246,
				"element": "H" 
			},
			{
				"x": 0.5456690462,
				"y": -4.4435070471,
				"z": -4.2983602911,
				"element": "H" 
			},
			{
				"x": 1.3294210305,
				"y": -3.5860108959,
				"z": -2.0997876498,
				"element": "H" 
			},
			{
				"x": 1.6358222547,
				"y": -1.1741827531,
				"z": -1.7296818227,
				"element": "H" 
			},
			{
				"x": 2.5437097065,
				"y": 1.4216408639,
				"z": 0.1106977214,
				"element": "H" 
			},
			{
				"x": 1.0614321279,
				"y": 1.7304760654,
				"z": 2.0824666953,
				"element": "H" 
			}
		],
		 "valence_orbital": [ 
			{
				"type": "occ",
				"energy": -0.26539,
				"method": "rhf"
			},
			{
				"type": "occ",
				"energy": -0.25339,
				"method": "rhf"
			},
			{
				"type": "occ",
				"energy": -0.25055,
				"method": "rhf"
			},
			{
				"type": "occ",
				"energy": -0.24315,
				"method": "rhf"
			},
			{
				"type": "occ",
				"energy": -0.2223,
				"method": "rhf"
			},
			{
				"type": "unocc",
				"energy": -0.04217,
				"method": "rhf"
			},
			{
				"type": "unocc",
				"energy": -0.01725,
				"method": "rhf"
			},
			{
				"type": "unocc",
				"energy": -0.00074,
				"method": "rhf"
			},
			{
				"type": "unocc",
				"energy": 0.01184,
				"method": "rhf"
			},
			{
				"type": "unocc",
				"energy": 0.04027,
				"method": "rhf"
			}
		],
		"cosmo_sigma_profile": { 
			"-0.025": 0.0,
			"-0.024": 0.0,
			"-0.023": 0.0,
			"-0.022": 0.0,
			"-0.021": 0.0,
			"-0.02": 0.0,
			"-0.019": 0.0,
			"-0.018": 0.0,
			"-0.017": 0.0,
			"-0.016": 0.0,
			"-0.015": 0.0,
			"-0.014": 0.00519467652378,
			"-0.013": 0.5976013753,
			"-0.012": 2.34221110352,
			"-0.011": 3.87527932852,
			"-0.01": 4.10927357961,
			"-0.009": 3.825527593,
			"-0.008": 3.70394134898,
			"-0.007": 7.94380897025,
			"-0.006": 17.0785550404,
			"-0.005": 22.6621479224,
			"-0.004": 23.5314663322,
			"-0.003": 20.0634952588,
			"-0.002": 16.3417812517,
			"-0.001": 15.9951178233,
			"0.0": 16.9741388653,
			"0.001": 15.5654701692,
			"0.002": 16.3682177696,
			"0.003": 21.8696084614,
			"0.004": 21.9380956345,
			"0.005": 14.3622293621,
			"0.006": 11.4145838463,
			"0.007": 4.1802507128,
			"0.008": 2.83406146005,
			"0.009": 3.16845229439,
			"0.01": 2.65297174393,
			"0.011": 2.65297569102,
			"0.012": 3.10749923993,
			"0.013": 5.26646933698,
			"0.014": 3.57619668775,
			"0.015": 1.00372584163,
			"0.016": 0.380479973516,
			"0.017": 0.0,
			"0.018": 0.0,
			"0.019": 0.0,
			"0.02": 0.0,
			"0.021": 0.0,
			"0.022": 0.0,
			"0.023": 0.0,
			"0.024": 0.0,
			"0.025": 0.0
		}
	}
}
