{
	 "smiles": "FC1=CC=CC(Cl)=C1C1=CC2=CC=CC=C2C(=O)O1", 
	 "Tm": 514.0, 
	 "num_atms": 27, 
	 "gaussian": { 
		 "optdone": 1, 
		 "sigma_profile": "yes", 
		 "theory": "DFT", 
		 "functional": "B3LYP", 
		 "basiset": "6-31G**", 
		 "properties": { 
			 "R2extent": 5971.9385, 
			 "electric_dipole_moment_norm": 4.23644245211, 
			 "electric_quadrupole_moment_norm": 20.8966341814, 
			 "total_energy": -1286.89748448, 
			 "HOMO_LUMO_gap": 0.16595, 
			 "cosmo_polarized_energy": -11.96, 
			 "cosmo_cavitation_energy": 34.45, 
			 "cosmo_dispersion_energy": -24.67, 
			 "cosmo_repulsion_energy": 1.85, 
			 "cosmo_total_nonelectrostatic_energy": 11.63, 
			 "SMD_solvation_energy": 6.8 
		},
		"coords": [
			{
				"x": 3.2193289629,
				"y": -1.2512631828,
				"z": -0.2298547719,
				"element": "F" 
			},
			{
				"x": 2.6816854799,
				"y": -1.1844514854,
				"z": -1.4594068726,
				"element": "C" 
			},
			{
				"x": 3.5126179694,
				"y": -1.3655412139,
				"z": -2.5550784057,
				"element": "C" 
			},
			{
				"x": 2.950108417,
				"y": -1.3256347945,
				"z": -3.82977089,
				"element": "C" 
			},
			{
				"x": 1.5830165536,
				"y": -1.1095871159,
				"z": -3.993492284,
				"element": "C" 
			},
			{
				"x": 0.774256488,
				"y": -0.928102638,
				"z": -2.8707012292,
				"element": "C" 
			},
			{
				"x": -0.9335421478,
				"y": -0.6237990763,
				"z": -3.1425727158,
				"element": "Cl" 
			},
			{
				"x": 1.2993172432,
				"y": -0.9612728884,
				"z": -1.5659654751,
				"element": "C" 
			},
			{
				"x": 0.502825548,
				"y": -0.7674831385,
				"z": -0.3329803078,
				"element": "C" 
			},
			{
				"x": -0.5440151981,
				"y": -1.5234810819,
				"z": 0.0570445859,
				"element": "C" 
			},
			{
				"x": -1.215666046,
				"y": -1.2384935693,
				"z": 1.3010502914,
				"element": "C" 
			},
			{
				"x": -2.3187700575,
				"y": -1.9812955704,
				"z": 1.7635824442,
				"element": "C" 
			},
			{
				"x": -2.9199674707,
				"y": -1.6622943208,
				"z": 2.97372469,
				"element": "C" 
			},
			{
				"x": -2.4390307965,
				"y": -0.5981402268,
				"z": 3.7539358714,
				"element": "C" 
			},
			{
				"x": -1.3513994035,
				"y": 0.1443081564,
				"z": 3.3143582442,
				"element": "C" 
			},
			{
				"x": -0.7371818227,
				"y": -0.1697596118,
				"z": 2.0931693957,
				"element": "C" 
			},
			{
				"x": 0.4127925632,
				"y": 0.6309498138,
				"z": 1.6482899039,
				"element": "C" 
			},
			{
				"x": 0.9075839804,
				"y": 1.5612435265,
				"z": 2.2393515096,
				"element": "O" 
			},
			{
				"x": 0.9700437433,
				"y": 0.2754033897,
				"z": 0.4213668209,
				"element": "O" 
			},
			{
				"x": 4.5704874859,
				"y": -1.5385450156,
				"z": -2.3941787956,
				"element": "H" 
			},
			{
				"x": 3.5799100568,
				"y": -1.4635031312,
				"z": -4.7028748309,
				"element": "H" 
			},
			{
				"x": 1.1397325175,
				"y": -1.0702529674,
				"z": -4.9813706333,
				"element": "H" 
			},
			{
				"x": -0.8760494827,
				"y": -2.3423044239,
				"z": -0.5691772352,
				"element": "H" 
			},
			{
				"x": -2.6942394102,
				"y": -2.8052037802,
				"z": 1.163392307,
				"element": "H" 
			},
			{
				"x": -3.7710746167,
				"y": -2.241994505,
				"z": 3.3195372991,
				"element": "H" 
			},
			{
				"x": -2.9172657937,
				"y": -0.3579408853,
				"z": 4.6983744168,
				"element": "H" 
			},
			{
				"x": -0.9553047629,
				"y": 0.9719397369,
				"z": 3.8928466671,
				"element": "H" 
			}
		],
		 "valence_orbital": [ 
			{
				"type": "occ",
				"energy": -0.28104,
				"method": "rhf"
			},
			{
				"type": "occ",
				"energy": -0.27049,
				"method": "rhf"
			},
			{
				"type": "occ",
				"energy": -0.26754,
				"method": "rhf"
			},
			{
				"type": "occ",
				"energy": -0.25826,
				"method": "rhf"
			},
			{
				"type": "occ",
				"energy": -0.2251,
				"method": "rhf"
			},
			{
				"type": "unocc",
				"energy": -0.05915,
				"method": "rhf"
			},
			{
				"type": "unocc",
				"energy": -0.04691,
				"method": "rhf"
			},
			{
				"type": "unocc",
				"energy": -0.02401,
				"method": "rhf"
			},
			{
				"type": "unocc",
				"energy": -0.01842,
				"method": "rhf"
			},
			{
				"type": "unocc",
				"energy": 0.01618,
				"method": "rhf"
			}
		],
		"cosmo_sigma_profile": { 
			"-0.025": 0.0,
			"-0.024": 0.0,
			"-0.023": 0.0,
			"-0.022": 0.0,
			"-0.021": 0.0,
			"-0.02": 0.0,
			"-0.019": 0.0,
			"-0.018": 0.0,
			"-0.017": 0.0,
			"-0.016": 0.0,
			"-0.015": 0.0,
			"-0.014": 0.0,
			"-0.013": 0.0,
			"-0.012": 0.0,
			"-0.011": 0.0,
			"-0.01": 0.0,
			"-0.009": 0.169069317572,
			"-0.008": 5.53674921612,
			"-0.007": 14.3782856409,
			"-0.006": 15.7588027729,
			"-0.005": 17.1370021107,
			"-0.004": 13.6496022393,
			"-0.003": 13.7734545429,
			"-0.002": 16.3840268393,
			"-0.001": 22.0057780251,
			"0.0": 28.0947454944,
			"0.001": 31.3927614367,
			"0.002": 31.8714605407,
			"0.003": 29.4331490853,
			"0.004": 14.6644577494,
			"0.005": 3.99822165841,
			"0.006": 3.18293109081,
			"0.007": 1.98842873228,
			"0.008": 2.54413085309,
			"0.009": 2.04724681506,
			"0.01": 2.84295165057,
			"0.011": 4.47326456142,
			"0.012": 4.44241691207,
			"0.013": 0.984278348877,
			"0.014": 0.0,
			"0.015": 0.0,
			"0.016": 0.0,
			"0.017": 0.0,
			"0.018": 0.0,
			"0.019": 0.0,
			"0.02": 0.0,
			"0.021": 0.0,
			"0.022": 0.0,
			"0.023": 0.0,
			"0.024": 0.0,
			"0.025": 0.0
		}
	}
}
