{
	 "smiles": "NC(=O)CCC1=CC(F)=C(F)C=C1", 
	 "Tm": 373.15, 
	 "num_atms": 22, 
	 "gaussian": { 
		 "optdone": 1, 
		 "sigma_profile": "yes", 
		 "theory": "DFT", 
		 "functional": "B3LYP", 
		 "basiset": "6-31G**", 
		 "properties": { 
			 "R2extent": 3363.1849, 
			 "electric_dipole_moment_norm": 3.85613373471, 
			 "electric_quadrupole_moment_norm": 14.065382987, 
			 "total_energy": -678.044248732, 
			 "HOMO_LUMO_gap": 0.22619, 
			 "cosmo_polarized_energy": -13.18, 
			 "cosmo_cavitation_energy": 27.2, 
			 "cosmo_dispersion_energy": -19.2, 
			 "cosmo_repulsion_energy": 1.51, 
			 "cosmo_total_nonelectrostatic_energy": 9.51, 
			 "SMD_solvation_energy": 6.11 
		},
		"coords": [
			{
				"x": 1.4514576502,
				"y": -3.3657448117,
				"z": -0.1632418555,
				"element": "N" 
			},
			{
				"x": 0.4750220874,
				"y": -2.7848265459,
				"z": -0.9191609841,
				"element": "C" 
			},
			{
				"x": 0.4347576056,
				"y": -2.9073268555,
				"z": -2.1370584439,
				"element": "O" 
			},
			{
				"x": -0.592854517,
				"y": -2.0231943409,
				"z": -0.1311995262,
				"element": "C" 
			},
			{
				"x": -1.2244262561,
				"y": -0.8819978656,
				"z": -0.9502289927,
				"element": "C" 
			},
			{
				"x": -0.3119715614,
				"y": 0.314469945,
				"z": -1.1314942224,
				"element": "C" 
			},
			{
				"x": -0.367299212,
				"y": 1.3871895746,
				"z": -0.2293514386,
				"element": "C" 
			},
			{
				"x": 0.4829961742,
				"y": 2.4735172449,
				"z": -0.3794759997,
				"element": "C" 
			},
			{
				"x": 0.4280628203,
				"y": 3.5052696638,
				"z": 0.4836685118,
				"element": "F" 
			},
			{
				"x": 1.4008248396,
				"y": 2.5141529293,
				"z": -1.427229122,
				"element": "C" 
			},
			{
				"x": 2.2100524554,
				"y": 3.5825022477,
				"z": -1.5500514518,
				"element": "F" 
			},
			{
				"x": 1.469535469,
				"y": 1.4625166835,
				"z": -2.3303037716,
				"element": "C" 
			},
			{
				"x": 0.6158429188,
				"y": 0.3673160431,
				"z": -2.1816723742,
				"element": "C" 
			},
			{
				"x": 2.1741814991,
				"y": -3.8852993444,
				"z": -0.638231931,
				"element": "H" 
			},
			{
				"x": 1.5344783481,
				"y": -3.2086817252,
				"z": 0.8276242106,
				"element": "H" 
			},
			{
				"x": -0.18378824,
				"y": -1.6439116367,
				"z": 0.8127553001,
				"element": "H" 
			},
			{
				"x": -1.3702411694,
				"y": -2.7532077772,
				"z": 0.1315795488,
				"element": "H" 
			},
			{
				"x": -1.5015626963,
				"y": -1.2900893177,
				"z": -1.926326659,
				"element": "H" 
			},
			{
				"x": -2.1463848939,
				"y": -0.5647770124,
				"z": -0.4515828128,
				"element": "H" 
			},
			{
				"x": -1.075041072,
				"y": 1.3970103446,
				"z": 0.5943846291,
				"element": "H" 
			},
			{
				"x": 2.1885989744,
				"y": 1.515490129,
				"z": -3.1410610867,
				"element": "H" 
			},
			{
				"x": 0.673358776,
				"y": -0.4619775724,
				"z": -2.8784415283,
				"element": "H" 
			}
		],
		 "valence_orbital": [ 
			{
				"type": "occ",
				"energy": -0.34135,
				"method": "rhf"
			},
			{
				"type": "occ",
				"energy": -0.27401,
				"method": "rhf"
			},
			{
				"type": "occ",
				"energy": -0.25664,
				"method": "rhf"
			},
			{
				"type": "occ",
				"energy": -0.25332,
				"method": "rhf"
			},
			{
				"type": "occ",
				"energy": -0.23527,
				"method": "rhf"
			},
			{
				"type": "unocc",
				"energy": -0.00908,
				"method": "rhf"
			},
			{
				"type": "unocc",
				"energy": 0.00132,
				"method": "rhf"
			},
			{
				"type": "unocc",
				"energy": 0.02276,
				"method": "rhf"
			},
			{
				"type": "unocc",
				"energy": 0.06803,
				"method": "rhf"
			},
			{
				"type": "unocc",
				"energy": 0.07621,
				"method": "rhf"
			}
		],
		"cosmo_sigma_profile": { 
			"-0.025": 0.0,
			"-0.024": 0.0,
			"-0.023": 0.0,
			"-0.022": 0.0,
			"-0.021": 0.0,
			"-0.02": 0.0,
			"-0.019": 0.0,
			"-0.018": 0.0,
			"-0.017": 0.0,
			"-0.016": 0.0,
			"-0.015": 0.211742949531,
			"-0.014": 1.4315508828,
			"-0.013": 2.84194154909,
			"-0.012": 1.82682619663,
			"-0.011": 2.59280025718,
			"-0.01": 2.32345637222,
			"-0.009": 2.3961428408,
			"-0.008": 3.39665697303,
			"-0.007": 5.30699610728,
			"-0.006": 7.70695251489,
			"-0.005": 10.3956032632,
			"-0.004": 12.8488157649,
			"-0.003": 14.2045406922,
			"-0.002": 12.0473770181,
			"-0.001": 13.9914376584,
			"0.0": 17.4200186953,
			"0.001": 16.4669420359,
			"0.002": 16.2136261724,
			"0.003": 20.3605115833,
			"0.004": 28.3541980224,
			"0.005": 5.5793254234,
			"0.006": 2.16210835333,
			"0.007": 1.22141924283,
			"0.008": 1.45764450444,
			"0.009": 1.37115643022,
			"0.01": 1.22157622325,
			"0.011": 1.16205915257,
			"0.012": 1.91636276085,
			"0.013": 2.42784952114,
			"0.014": 3.93321299174,
			"0.015": 1.09976414857,
			"0.016": 0.0,
			"0.017": 0.0,
			"0.018": 0.0,
			"0.019": 0.0,
			"0.02": 0.0,
			"0.021": 0.0,
			"0.022": 0.0,
			"0.023": 0.0,
			"0.024": 0.0,
			"0.025": 0.0
		}
	}
}
