{
	 "smiles": "CC1=C(NC(=O)C2=CC(=CC=C2)S(C)(=O)=O)C=CC(N)=C1", 
	 "Tm": 423.15, 
	 "num_atms": 37, 
	 "gaussian": { 
		 "optdone": 1, 
		 "sigma_profile": "yes", 
		 "theory": "DFT", 
		 "functional": "B3LYP", 
		 "basiset": "6-31G**", 
		 "properties": { 
			 "R2extent": 10763.0615, 
			 "electric_dipole_moment_norm": 8.466671304, 
			 "electric_quadrupole_moment_norm": 27.1838707518, 
			 "total_energy": -1314.56385599, 
			 "HOMO_LUMO_gap": 0.14225, 
			 "cosmo_polarized_energy": -29.5, 
			 "cosmo_cavitation_energy": 42.66, 
			 "cosmo_dispersion_energy": -30.62, 
			 "cosmo_repulsion_energy": 2.3, 
			 "cosmo_total_nonelectrostatic_energy": 14.34, 
			 "SMD_solvation_energy": 7.38 
		},
		"coords": [
			{
				"x": -2.2893344474,
				"y": 2.7526097251,
				"z": -0.5152489544,
				"element": "C" 
			},
			{
				"x": -1.6974049157,
				"y": 2.8050637791,
				"z": 0.8692671888,
				"element": "C" 
			},
			{
				"x": -1.0424020953,
				"y": 1.6963317006,
				"z": 1.4411566256,
				"element": "C" 
			},
			{
				"x": -0.9232371364,
				"y": 0.4535323068,
				"z": 0.7462530305,
				"element": "N" 
			},
			{
				"x": -0.2349883696,
				"y": 0.2791175746,
				"z": -0.4331201899,
				"element": "C" 
			},
			{
				"x": 0.2910007448,
				"y": 1.1968314697,
				"z": -1.05067182,
				"element": "O" 
			},
			{
				"x": -0.1658172121,
				"y": -1.1402517165,
				"z": -0.9391874554,
				"element": "C" 
			},
			{
				"x": 0.8359757584,
				"y": -1.4279050019,
				"z": -1.87466431,
				"element": "C" 
			},
			{
				"x": 0.9588591611,
				"y": -2.723637995,
				"z": -2.368639968,
				"element": "C" 
			},
			{
				"x": 0.0833682299,
				"y": -3.7417333362,
				"z": -1.9839346803,
				"element": "C" 
			},
			{
				"x": -0.9335291269,
				"y": -3.444929016,
				"z": -1.0769199367,
				"element": "C" 
			},
			{
				"x": -1.0549919676,
				"y": -2.1554460138,
				"z": -0.5562734916,
				"element": "C" 
			},
			{
				"x": 2.2631685135,
				"y": -3.1003214234,
				"z": -3.5580192471,
				"element": "S" 
			},
			{
				"x": 3.7236476273,
				"y": -3.339940713,
				"z": -2.5174980395,
				"element": "C" 
			},
			{
				"x": 1.9388897778,
				"y": -4.3971704688,
				"z": -4.1737136109,
				"element": "O" 
			},
			{
				"x": 2.4967913384,
				"y": -1.9035085418,
				"z": -4.3781041682,
				"element": "O" 
			},
			{
				"x": -0.547952315,
				"y": 1.7790787798,
				"z": 2.7465777661,
				"element": "C" 
			},
			{
				"x": -0.6785156063,
				"y": 2.9406467387,
				"z": 3.497750723,
				"element": "C" 
			},
			{
				"x": -1.3031720905,
				"y": 4.0673477643,
				"z": 2.9391510833,
				"element": "C" 
			},
			{
				"x": -1.3832706723,
				"y": 5.2669802805,
				"z": 3.6472315048,
				"element": "N" 
			},
			{
				"x": -1.8024749529,
				"y": 3.9717966571,
				"z": 1.6304873405,
				"element": "C" 
			},
			{
				"x": -2.959976079,
				"y": 3.5988450941,
				"z": -0.6854822829,
				"element": "H" 
			},
			{
				"x": -1.4998565381,
				"y": 2.7671157478,
				"z": -1.2727444385,
				"element": "H" 
			},
			{
				"x": -2.857689961,
				"y": 1.8282365137,
				"z": -0.6661086672,
				"element": "H" 
			},
			{
				"x": -1.0878068479,
				"y": -0.375578995,
				"z": 1.298944932,
				"element": "H" 
			},
			{
				"x": 1.4852219437,
				"y": -0.6269880901,
				"z": -2.212091663,
				"element": "H" 
			},
			{
				"x": 0.1912051235,
				"y": -4.7317920768,
				"z": -2.4136676364,
				"element": "H" 
			},
			{
				"x": -1.640948109,
				"y": -4.2151473417,
				"z": -0.785391422,
				"element": "H" 
			},
			{
				"x": -1.875616925,
				"y": -1.9371468094,
				"z": 0.1208900996,
				"element": "H" 
			},
			{
				"x": 3.5464874254,
				"y": -4.1725947277,
				"z": -1.8353633387,
				"element": "H" 
			},
			{
				"x": 3.9324849994,
				"y": -2.4183370741,
				"z": -1.9726564822,
				"element": "H" 
			},
			{
				"x": 4.5455940877,
				"y": -3.5732805418,
				"z": -3.1974930998,
				"element": "H" 
			},
			{
				"x": -0.0445604403,
				"y": 0.91712442,
				"z": 3.1778316447,
				"element": "H" 
			},
			{
				"x": -0.2821718668,
				"y": 2.9830236361,
				"z": 4.508763546,
				"element": "H" 
			},
			{
				"x": -2.1115025637,
				"y": 5.8991211325,
				"z": 3.3450779055,
				"element": "H" 
			},
			{
				"x": -1.3517824664,
				"y": 5.1785990951,
				"z": 4.653345042,
				"element": "H" 
			},
			{
				"x": -2.3000920257,
				"y": 4.8347074673,
				"z": 1.1931664703,
				"element": "H" 
			}
		],
		 "valence_orbital": [ 
			{
				"type": "occ",
				"energy": -0.27656,
				"method": "rhf"
			},
			{
				"type": "occ",
				"energy": -0.27269,
				"method": "rhf"
			},
			{
				"type": "occ",
				"energy": -0.25809,
				"method": "rhf"
			},
			{
				"type": "occ",
				"energy": -0.24367,
				"method": "rhf"
			},
			{
				"type": "occ",
				"energy": -0.19941,
				"method": "rhf"
			},
			{
				"type": "unocc",
				"energy": -0.05716,
				"method": "rhf"
			},
			{
				"type": "unocc",
				"energy": -0.04065,
				"method": "rhf"
			},
			{
				"type": "unocc",
				"energy": -0.00074,
				"method": "rhf"
			},
			{
				"type": "unocc",
				"energy": 0.011,
				"method": "rhf"
			},
			{
				"type": "unocc",
				"energy": 0.04166,
				"method": "rhf"
			}
		],
		"cosmo_sigma_profile": { 
			"-0.025": 0.0,
			"-0.024": 0.0,
			"-0.023": 0.0,
			"-0.022": 0.0,
			"-0.021": 0.0,
			"-0.02": 0.0,
			"-0.019": 0.0,
			"-0.018": 0.0,
			"-0.017": 0.0,
			"-0.016": 0.0,
			"-0.015": 0.438998762289,
			"-0.014": 1.22619685933,
			"-0.013": 1.44269250335,
			"-0.012": 3.64353427544,
			"-0.011": 3.98681367652,
			"-0.01": 5.03275803297,
			"-0.009": 7.76108257604,
			"-0.008": 12.8800078885,
			"-0.007": 15.8063125589,
			"-0.006": 18.6576211922,
			"-0.005": 19.293999581,
			"-0.004": 20.6227290947,
			"-0.003": 18.4382886345,
			"-0.002": 18.3201381318,
			"-0.001": 20.0705313841,
			"0.0": 21.6694860342,
			"0.001": 27.0807493034,
			"0.002": 20.0022351852,
			"0.003": 9.99564276452,
			"0.004": 11.523316674,
			"0.005": 11.3694705816,
			"0.006": 13.2434221002,
			"0.007": 8.16859334118,
			"0.008": 5.7593619634,
			"0.009": 5.44113623399,
			"0.01": 7.63415303574,
			"0.011": 12.245638747,
			"0.012": 11.565960931,
			"0.013": 4.64836005917,
			"0.014": 1.19061389497,
			"0.015": 0.251264093923,
			"0.016": 0.0,
			"0.017": 0.0,
			"0.018": 0.0,
			"0.019": 0.0,
			"0.02": 0.0,
			"0.021": 0.0,
			"0.022": 0.0,
			"0.023": 0.0,
			"0.024": 0.0,
			"0.025": 0.0
		}
	}
}
