{
	 "smiles": "CCOC(=O)C1=C(Cl)C2=C(N=C1)C(OC)=CC=C2OC", 
	 "Tm": 361.15, 
	 "num_atms": 34, 
	 "gaussian": { 
		 "optdone": 1, 
		 "sigma_profile": "yes", 
		 "theory": "DFT", 
		 "functional": "B3LYP", 
		 "basiset": "6-31G**", 
		 "properties": { 
			 "R2extent": 7285.5103, 
			 "electric_dipole_moment_norm": 2.56286611043, 
			 "electric_quadrupole_moment_norm": 16.6202544601, 
			 "total_energy": -1357.73631692, 
			 "HOMO_LUMO_gap": 0.14743, 
			 "cosmo_polarized_energy": -12.06, 
			 "cosmo_cavitation_energy": 39.66, 
			 "cosmo_dispersion_energy": -28.18, 
			 "cosmo_repulsion_energy": 2.17, 
			 "cosmo_total_nonelectrostatic_energy": 13.64, 
			 "SMD_solvation_energy": 8.29 
		},
		"coords": [
			{
				"x": 2.1893816927,
				"y": 3.8748202647,
				"z": 1.6947260267,
				"element": "C" 
			},
			{
				"x": 2.7085342717,
				"y": 2.4660540323,
				"z": 1.4824977738,
				"element": "C" 
			},
			{
				"x": 1.6210409209,
				"y": 1.6824765948,
				"z": 0.9319696197,
				"element": "O" 
			},
			{
				"x": 1.9025369172,
				"y": 0.3982850754,
				"z": 0.668415694,
				"element": "C" 
			},
			{
				"x": 3.0015148564,
				"y": -0.1002153387,
				"z": 0.8185401764,
				"element": "O" 
			},
			{
				"x": 0.7566679558,
				"y": -0.3624095734,
				"z": 0.0713910212,
				"element": "C" 
			},
			{
				"x": -0.5822794465,
				"y": -0.2947453509,
				"z": 0.4262337165,
				"element": "C" 
			},
			{
				"x": -1.0379053012,
				"y": 0.6946888913,
				"z": 1.7954149629,
				"element": "Cl" 
			},
			{
				"x": -1.5541684281,
				"y": -1.086511347,
				"z": -0.2702951879,
				"element": "C" 
			},
			{
				"x": -1.0303524582,
				"y": -1.9825476331,
				"z": -1.2783547731,
				"element": "C" 
			},
			{
				"x": 0.2937043475,
				"y": -2.0617206944,
				"z": -1.5854796778,
				"element": "N" 
			},
			{
				"x": 1.1288598963,
				"y": -1.286879177,
				"z": -0.9426714543,
				"element": "C" 
			},
			{
				"x": -1.9173311346,
				"y": -2.8347837097,
				"z": -2.011716722,
				"element": "C" 
			},
			{
				"x": -1.4755257199,
				"y": -3.6598115168,
				"z": -3.005341753,
				"element": "O" 
			},
			{
				"x": -0.5853044956,
				"y": -4.7230928907,
				"z": -2.6430552246,
				"element": "C" 
			},
			{
				"x": -3.2759013715,
				"y": -2.7612180266,
				"z": -1.787025343,
				"element": "C" 
			},
			{
				"x": -3.795503107,
				"y": -1.8628824201,
				"z": -0.8410519141,
				"element": "C" 
			},
			{
				"x": -2.976437368,
				"y": -1.0480124112,
				"z": -0.0841830762,
				"element": "C" 
			},
			{
				"x": -3.5590568429,
				"y": -0.1479421036,
				"z": 0.7732417486,
				"element": "O" 
			},
			{
				"x": -4.1278466905,
				"y": -0.6982069206,
				"z": 1.9611089828,
				"element": "C" 
			},
			{
				"x": 2.9847310348,
				"y": 4.5025079873,
				"z": 2.1085704749,
				"element": "H" 
			},
			{
				"x": 1.3467017292,
				"y": 3.8806112835,
				"z": 2.3914789955,
				"element": "H" 
			},
			{
				"x": 1.8585063356,
				"y": 4.3160289501,
				"z": 0.7503418997,
				"element": "H" 
			},
			{
				"x": 3.0376976398,
				"y": 2.00048559,
				"z": 2.4166556761,
				"element": "H" 
			},
			{
				"x": 3.550484987,
				"y": 2.4350002481,
				"z": 0.7841048157,
				"element": "H" 
			},
			{
				"x": 2.183720156,
				"y": -1.3622595418,
				"z": -1.1957460669,
				"element": "H" 
			},
			{
				"x": 0.3748359004,
				"y": -4.3343338633,
				"z": -2.2995504755,
				"element": "H" 
			},
			{
				"x": -1.0350493176,
				"y": -5.3562412914,
				"z": -1.8671759063,
				"element": "H" 
			},
			{
				"x": -0.4468251946,
				"y": -5.314045378,
				"z": -3.5505726477,
				"element": "H" 
			},
			{
				"x": -3.933496533,
				"y": -3.3945101311,
				"z": -2.3728774656,
				"element": "H" 
			},
			{
				"x": -4.8687473732,
				"y": -1.7823580377,
				"z": -0.7011680054,
				"element": "H" 
			},
			{
				"x": -4.6268521555,
				"y": 0.1263263418,
				"z": 2.4735384804,
				"element": "H" 
			},
			{
				"x": -4.8626434472,
				"y": -1.479730796,
				"z": 1.7320420296,
				"element": "H" 
			},
			{
				"x": -3.3516922562,
				"y": -1.1138271063,
				"z": 2.615393599,
				"element": "H" 
			}
		],
		 "valence_orbital": [ 
			{
				"type": "occ",
				"energy": -0.27651,
				"method": "rhf"
			},
			{
				"type": "occ",
				"energy": -0.27123,
				"method": "rhf"
			},
			{
				"type": "occ",
				"energy": -0.26398,
				"method": "rhf"
			},
			{
				"type": "occ",
				"energy": -0.25799,
				"method": "rhf"
			},
			{
				"type": "occ",
				"energy": -0.21858,
				"method": "rhf"
			},
			{
				"type": "unocc",
				"energy": -0.07115,
				"method": "rhf"
			},
			{
				"type": "unocc",
				"energy": -0.04054,
				"method": "rhf"
			},
			{
				"type": "unocc",
				"energy": 0.01097,
				"method": "rhf"
			},
			{
				"type": "unocc",
				"energy": 0.01785,
				"method": "rhf"
			},
			{
				"type": "unocc",
				"energy": 0.02957,
				"method": "rhf"
			}
		],
		"cosmo_sigma_profile": { 
			"-0.025": 0.0,
			"-0.024": 0.0,
			"-0.023": 0.0,
			"-0.022": 0.0,
			"-0.021": 0.0,
			"-0.02": 0.0,
			"-0.019": 0.0,
			"-0.018": 0.0,
			"-0.017": 0.0,
			"-0.016": 0.0,
			"-0.015": 0.0,
			"-0.014": 0.0,
			"-0.013": 0.0,
			"-0.012": 0.0,
			"-0.011": 0.0,
			"-0.01": 0.0,
			"-0.009": 0.0,
			"-0.008": 0.221672252767,
			"-0.007": 4.43498438334,
			"-0.006": 9.7114756021,
			"-0.005": 22.9007974154,
			"-0.004": 30.0952585164,
			"-0.003": 37.2532332709,
			"-0.002": 34.6459836225,
			"-0.001": 34.1589048888,
			"0.0": 30.8589750601,
			"0.001": 20.4572415672,
			"0.002": 18.9736282622,
			"0.003": 15.3163901243,
			"0.004": 9.68446861881,
			"0.005": 7.84651939428,
			"0.006": 6.77569943959,
			"0.007": 6.64547852223,
			"0.008": 5.18949512936,
			"0.009": 4.57950487864,
			"0.01": 5.9430386872,
			"0.011": 8.5512899953,
			"0.012": 3.26109520443,
			"0.013": 0.0901514810117,
			"0.014": 0.0,
			"0.015": 0.0,
			"0.016": 0.0,
			"0.017": 0.0,
			"0.018": 0.0,
			"0.019": 0.0,
			"0.02": 0.0,
			"0.021": 0.0,
			"0.022": 0.0,
			"0.023": 0.0,
			"0.024": 0.0,
			"0.025": 0.0
		}
	}
}
