{
	 "smiles": "OC(=O)C1=C(NC2CCCC2)N=CC=C1", 
	 "Tm": 496.15, 
	 "num_atms": 29, 
	 "gaussian": { 
		 "optdone": 1, 
		 "sigma_profile": "yes", 
		 "theory": "DFT", 
		 "functional": "B3LYP", 
		 "basiset": "6-31G**", 
		 "properties": { 
			 "R2extent": 4231.1926, 
			 "electric_dipole_moment_norm": 0.736453739212, 
			 "electric_quadrupole_moment_norm": 7.05409732354, 
			 "total_energy": -687.596315668, 
			 "HOMO_LUMO_gap": 0.15686, 
			 "cosmo_polarized_energy": -9.02, 
			 "cosmo_cavitation_energy": 31.25, 
			 "cosmo_dispersion_energy": -22.83, 
			 "cosmo_repulsion_energy": 1.8, 
			 "cosmo_total_nonelectrostatic_energy": 10.21, 
			 "SMD_solvation_energy": 4.51 
		},
		"coords": [
			{
				"x": 2.8952194099,
				"y": 3.6095946817,
				"z": 1.4668712302,
				"element": "O" 
			},
			{
				"x": 2.3119164938,
				"y": 2.6254201814,
				"z": 0.7368032996,
				"element": "C" 
			},
			{
				"x": 1.8932564031,
				"y": 2.8592761104,
				"z": -0.3942697309,
				"element": "O" 
			},
			{
				"x": 2.2483377378,
				"y": 1.3341740675,
				"z": 1.4263037997,
				"element": "C" 
			},
			{
				"x": 1.6601132438,
				"y": 0.1821499219,
				"z": 0.7966413268,
				"element": "C" 
			},
			{
				"x": 1.1618852935,
				"y": 0.2391663975,
				"z": -0.45899103,
				"element": "N" 
			},
			{
				"x": 0.5423856172,
				"y": -0.8919947447,
				"z": -1.1489664637,
				"element": "C" 
			},
			{
				"x": 0.5006694965,
				"y": -0.6132219334,
				"z": -2.6809100816,
				"element": "C" 
			},
			{
				"x": -0.9872492473,
				"y": -0.3479641775,
				"z": -3.0451848623,
				"element": "C" 
			},
			{
				"x": -1.6961127557,
				"y": -0.1294912176,
				"z": -1.6944052794,
				"element": "C" 
			},
			{
				"x": -0.9425617081,
				"y": -1.0777148832,
				"z": -0.7515955817,
				"element": "C" 
			},
			{
				"x": 1.5925694283,
				"y": -1.0101611656,
				"z": 1.4350214599,
				"element": "N" 
			},
			{
				"x": 2.0932393241,
				"y": -1.1030912099,
				"z": 2.663117564,
				"element": "C" 
			},
			{
				"x": 2.686464788,
				"y": -0.0475771194,
				"z": 3.3636984507,
				"element": "C" 
			},
			{
				"x": 2.7557637827,
				"y": 1.1819666839,
				"z": 2.7225661775,
				"element": "C" 
			},
			{
				"x": 2.8718045908,
				"y": 4.3987211296,
				"z": 0.9017349126,
				"element": "H" 
			},
			{
				"x": 1.2062237111,
				"y": 1.1504772585,
				"z": -0.9027200216,
				"element": "H" 
			},
			{
				"x": 1.1251027663,
				"y": -1.7816812599,
				"z": -0.902420923,
				"element": "H" 
			},
			{
				"x": 0.9018657909,
				"y": -1.465282838,
				"z": -3.2369731177,
				"element": "H" 
			},
			{
				"x": 1.1383608281,
				"y": 0.2417298084,
				"z": -2.9288347887,
				"element": "H" 
			},
			{
				"x": -1.4125146328,
				"y": -1.2272226174,
				"z": -3.5431139901,
				"element": "H" 
			},
			{
				"x": -1.1065095398,
				"y": 0.495398991,
				"z": -3.7320828848,
				"element": "H" 
			},
			{
				"x": -1.5654462088,
				"y": 0.9073556075,
				"z": -1.3591380267,
				"element": "H" 
			},
			{
				"x": -2.7722571554,
				"y": -0.3239495298,
				"z": -1.7391122879,
				"element": "H" 
			},
			{
				"x": -1.2378733615,
				"y": -2.1156562617,
				"z": -0.9543536182,
				"element": "H" 
			},
			{
				"x": -1.1061208912,
				"y": -0.8893252065,
				"z": 0.3119903811,
				"element": "H" 
			},
			{
				"x": 2.0149893578,
				"y": -2.0865379939,
				"z": 3.1267042157,
				"element": "H" 
			},
			{
				"x": 3.0712855788,
				"y": -0.1908387783,
				"z": 4.3668566751,
				"element": "H" 
			},
			{
				"x": 3.2017918579,
				"y": 2.0409800975,
				"z": 3.2113631955,
				"element": "H" 
			}
		],
		 "valence_orbital": [ 
			{
				"type": "occ",
				"energy": -0.29797,
				"method": "rhf"
			},
			{
				"type": "occ",
				"energy": -0.28299,
				"method": "rhf"
			},
			{
				"type": "occ",
				"energy": -0.28212,
				"method": "rhf"
			},
			{
				"type": "occ",
				"energy": -0.25468,
				"method": "rhf"
			},
			{
				"type": "occ",
				"energy": -0.20684,
				"method": "rhf"
			},
			{
				"type": "unocc",
				"energy": -0.04998,
				"method": "rhf"
			},
			{
				"type": "unocc",
				"energy": 0.00415,
				"method": "rhf"
			},
			{
				"type": "unocc",
				"energy": 0.05278,
				"method": "rhf"
			},
			{
				"type": "unocc",
				"energy": 0.07853,
				"method": "rhf"
			},
			{
				"type": "unocc",
				"energy": 0.08646,
				"method": "rhf"
			}
		],
		"cosmo_sigma_profile": { 
			"-0.025": 0.0,
			"-0.024": 0.0,
			"-0.023": 0.0,
			"-0.022": 0.0,
			"-0.021": 0.0,
			"-0.02": 0.0,
			"-0.019": 0.0273866251327,
			"-0.018": 0.651990376528,
			"-0.017": 0.925823847553,
			"-0.016": 0.78526849068,
			"-0.015": 0.5648798053,
			"-0.014": 0.734429463159,
			"-0.013": 0.574976143264,
			"-0.012": 0.945668123574,
			"-0.011": 0.652609300086,
			"-0.01": 0.860866777374,
			"-0.009": 0.297206594854,
			"-0.008": 0.5986387533,
			"-0.007": 2.33303417531,
			"-0.006": 8.01000984669,
			"-0.005": 8.67113247297,
			"-0.004": 8.90253832453,
			"-0.003": 18.2880466365,
			"-0.002": 29.8801629791,
			"-0.001": 29.0009155238,
			"0.0": 28.7145343538,
			"0.001": 33.4423782665,
			"0.002": 20.5317462481,
			"0.003": 12.6653168516,
			"0.004": 8.4134487678,
			"0.005": 5.05281035909,
			"0.006": 4.81933954251,
			"0.007": 4.49334014692,
			"0.008": 3.20053997247,
			"0.009": 2.37794469908,
			"0.01": 3.51796229173,
			"0.011": 3.11451361991,
			"0.012": 2.34055834832,
			"0.013": 0.594822127292,
			"0.014": 0.264541889255,
			"0.015": 0.0,
			"0.016": 0.0,
			"0.017": 0.0,
			"0.018": 0.0,
			"0.019": 0.0,
			"0.02": 0.0,
			"0.021": 0.0,
			"0.022": 0.0,
			"0.023": 0.0,
			"0.024": 0.0,
			"0.025": 0.0
		}
	}
}
