{
	 "smiles": "OC(=O)C#C", 
	 "Tm": 291.15, 
	 "num_atms": 7, 
	 "gaussian": { 
		 "optdone": 1, 
		 "sigma_profile": "yes", 
		 "theory": "DFT", 
		 "functional": "B3LYP", 
		 "basiset": "6-31G**", 
		 "properties": { 
			 "R2extent": 547.8786, 
			 "electric_dipole_moment_norm": 4.40546571204, 
			 "electric_quadrupole_moment_norm": 7.57479209418, 
			 "total_energy": -265.889589377, 
			 "HOMO_LUMO_gap": 0.23461, 
			 "cosmo_polarized_energy": -12.1, 
			 "cosmo_cavitation_energy": 12.9, 
			 "cosmo_dispersion_energy": -8.83, 
			 "cosmo_repulsion_energy": 0.8, 
			 "cosmo_total_nonelectrostatic_energy": 4.86, 
			 "SMD_solvation_energy": 5.38 
		},
		"coords": [
			{
				"x": -0.6828183905,
				"y": 0.2087318836,
				"z": 1.0307801189,
				"element": "O" 
			},
			{
				"x": -0.0760315863,
				"y": -0.999194706,
				"z": 0.9303437212,
				"element": "C" 
			},
			{
				"x": -0.4939728582,
				"y": -1.9663637378,
				"z": 1.5146438902,
				"element": "O" 
			},
			{
				"x": 1.0994050553,
				"y": -1.0136983474,
				"z": 0.0700097131,
				"element": "C" 
			},
			{
				"x": 2.0765438106,
				"y": -1.0421506089,
				"z": -0.6405834732,
				"element": "C" 
			},
			{
				"x": -0.206817597,
				"y": 0.8602237164,
				"z": 0.4942139056,
				"element": "H" 
			},
			{
				"x": 2.940591566,
				"y": -1.0843481999,
				"z": -1.2647078758,
				"element": "H" 
			}
		],
		 "valence_orbital": [ 
			{
				"type": "occ",
				"energy": -0.41512,
				"method": "rhf"
			},
			{
				"type": "occ",
				"energy": -0.33527,
				"method": "rhf"
			},
			{
				"type": "occ",
				"energy": -0.3223,
				"method": "rhf"
			},
			{
				"type": "occ",
				"energy": -0.31165,
				"method": "rhf"
			},
			{
				"type": "occ",
				"energy": -0.28868,
				"method": "rhf"
			},
			{
				"type": "unocc",
				"energy": -0.05407,
				"method": "rhf"
			},
			{
				"type": "unocc",
				"energy": 0.01087,
				"method": "rhf"
			},
			{
				"type": "unocc",
				"energy": 0.06866,
				"method": "rhf"
			},
			{
				"type": "unocc",
				"energy": 0.09643,
				"method": "rhf"
			},
			{
				"type": "unocc",
				"energy": 0.10969,
				"method": "rhf"
			}
		],
		"cosmo_sigma_profile": { 
			"-0.025": 0.0,
			"-0.024": 0.0,
			"-0.023": 0.0,
			"-0.022": 0.0,
			"-0.021": 0.0,
			"-0.02": 0.362802096893,
			"-0.019": 1.05558272083,
			"-0.018": 1.13983148147,
			"-0.017": 0.451519273796,
			"-0.016": 0.585548986707,
			"-0.015": 0.313682768246,
			"-0.014": 1.95413282073,
			"-0.013": 2.9876636519,
			"-0.012": 2.5184954006,
			"-0.011": 1.66930620056,
			"-0.01": 1.37992608464,
			"-0.009": 1.58432371703,
			"-0.008": 3.37766798614,
			"-0.007": 2.0990810568,
			"-0.006": 1.68005375596,
			"-0.005": 3.13926148768,
			"-0.004": 4.55678083692,
			"-0.003": 4.1625942055,
			"-0.002": 3.66250387402,
			"-0.001": 3.69487339312,
			"0.0": 6.03052549244,
			"0.001": 7.56694761745,
			"0.002": 7.13074794442,
			"0.003": 7.52686884763,
			"0.004": 4.48519385329,
			"0.005": 2.80229345627,
			"0.006": 3.04972143101,
			"0.007": 2.87089566487,
			"0.008": 3.46615753596,
			"0.009": 5.81230225766,
			"0.01": 5.55965957955,
			"0.011": 5.21279133935,
			"0.012": 1.01115779255,
			"0.013": 0.0,
			"0.014": 0.0,
			"0.015": 0.0,
			"0.016": 0.0,
			"0.017": 0.0,
			"0.018": 0.0,
			"0.019": 0.0,
			"0.02": 0.0,
			"0.021": 0.0,
			"0.022": 0.0,
			"0.023": 0.0,
			"0.024": 0.0,
			"0.025": 0.0
		}
	}
}
