{
	 "smiles": "CC1=CC=CC=C1OC1=CC=CC=C1", 
	 "Tm": 294.85, 
	 "num_atms": 26, 
	 "gaussian": { 
		 "optdone": 1, 
		 "sigma_profile": "yes", 
		 "theory": "DFT", 
		 "functional": "B3LYP", 
		 "basiset": "6-31G**", 
		 "properties": { 
			 "R2extent": 3332.3627, 
			 "electric_dipole_moment_norm": 0.645258475341, 
			 "electric_quadrupole_moment_norm": 4.79897444357, 
			 "total_energy": -577.83812668, 
			 "HOMO_LUMO_gap": 0.20674, 
			 "cosmo_polarized_energy": -5.33, 
			 "cosmo_cavitation_energy": 29.64, 
			 "cosmo_dispersion_energy": -21.28, 
			 "cosmo_repulsion_energy": 1.68, 
			 "cosmo_total_nonelectrostatic_energy": 10.04, 
			 "SMD_solvation_energy": 5.27 
		},
		"coords": [
			{
				"x": -0.4538010049,
				"y": -2.4191159437,
				"z": 1.8317156675,
				"element": "C" 
			},
			{
				"x": -1.5895515926,
				"y": -1.6102414224,
				"z": 1.2580860096,
				"element": "C" 
			},
			{
				"x": -2.92690327,
				"y": -1.984765547,
				"z": 1.4270224998,
				"element": "C" 
			},
			{
				"x": -3.9731714859,
				"y": -1.2273162913,
				"z": 0.8969139708,
				"element": "C" 
			},
			{
				"x": -3.6887627496,
				"y": -0.0614703319,
				"z": 0.1862154477,
				"element": "C" 
			},
			{
				"x": -2.3653505199,
				"y": 0.3423666921,
				"z": 0.0064712893,
				"element": "C" 
			},
			{
				"x": -1.3316087687,
				"y": -0.4342453219,
				"z": 0.5337554805,
				"element": "C" 
			},
			{
				"x": -0.0035885507,
				"y": -0.051349972,
				"z": 0.4484478385,
				"element": "O" 
			},
			{
				"x": 0.4959714794,
				"y": 0.5482002367,
				"z": -0.6908429299,
				"element": "C" 
			},
			{
				"x": 1.4614556155,
				"y": 1.5400014552,
				"z": -0.5030357003,
				"element": "C" 
			},
			{
				"x": 2.0669256765,
				"y": 2.1300318797,
				"z": -1.6122378467,
				"element": "C" 
			},
			{
				"x": 1.7084322118,
				"y": 1.7405592169,
				"z": -2.9045857045,
				"element": "C" 
			},
			{
				"x": 0.7423420486,
				"y": 0.7472962554,
				"z": -3.07999825,
				"element": "C" 
			},
			{
				"x": 0.134147834,
				"y": 0.1423429351,
				"z": -1.9795603004,
				"element": "C" 
			},
			{
				"x": 0.1064260246,
				"y": -1.8463900053,
				"z": 2.579142087,
				"element": "H" 
			},
			{
				"x": -0.8270875293,
				"y": -3.3293836794,
				"z": 2.3082180652,
				"element": "H" 
			},
			{
				"x": 0.2644971885,
				"y": -2.7042376004,
				"z": 1.0558554487,
				"element": "H" 
			},
			{
				"x": -3.1464838631,
				"y": -2.8926966262,
				"z": 1.9832671463,
				"element": "H" 
			},
			{
				"x": -5.0013781047,
				"y": -1.5454153166,
				"z": 1.0404290169,
				"element": "H" 
			},
			{
				"x": -4.4929761239,
				"y": 0.5420612587,
				"z": -0.2245018147,
				"element": "H" 
			},
			{
				"x": -2.13129293,
				"y": 1.2522725862,
				"z": -0.5355827524,
				"element": "H" 
			},
			{
				"x": 1.7245689975,
				"y": 1.8290376629,
				"z": 0.5091482074,
				"element": "H" 
			},
			{
				"x": 2.8180388615,
				"y": 2.9005025043,
				"z": -1.4633262054,
				"element": "H" 
			},
			{
				"x": 2.1780825549,
				"y": 2.2045979031,
				"z": -3.7664136053,
				"element": "H" 
			},
			{
				"x": 0.4619863325,
				"y": 0.4318628456,
				"z": -4.0810639704,
				"element": "H" 
			},
			{
				"x": -0.6103183318,
				"y": -0.6348053737,
				"z": -2.1140390952,
				"element": "H" 
			}
		],
		 "valence_orbital": [ 
			{
				"type": "occ",
				"energy": -0.32281,
				"method": "rhf"
			},
			{
				"type": "occ",
				"energy": -0.25424,
				"method": "rhf"
			},
			{
				"type": "occ",
				"energy": -0.24775,
				"method": "rhf"
			},
			{
				"type": "occ",
				"energy": -0.2404,
				"method": "rhf"
			},
			{
				"type": "occ",
				"energy": -0.21368,
				"method": "rhf"
			},
			{
				"type": "unocc",
				"energy": -0.00694,
				"method": "rhf"
			},
			{
				"type": "unocc",
				"energy": -0.00213,
				"method": "rhf"
			},
			{
				"type": "unocc",
				"energy": 0.00601,
				"method": "rhf"
			},
			{
				"type": "unocc",
				"energy": 0.01541,
				"method": "rhf"
			},
			{
				"type": "unocc",
				"energy": 0.09132,
				"method": "rhf"
			}
		],
		"cosmo_sigma_profile": { 
			"-0.025": 0.0,
			"-0.024": 0.0,
			"-0.023": 0.0,
			"-0.022": 0.0,
			"-0.021": 0.0,
			"-0.02": 0.0,
			"-0.019": 0.0,
			"-0.018": 0.0,
			"-0.017": 0.0,
			"-0.016": 0.0,
			"-0.015": 0.0,
			"-0.014": 0.0,
			"-0.013": 0.0,
			"-0.012": 0.0,
			"-0.011": 0.0,
			"-0.01": 0.0,
			"-0.009": 0.0,
			"-0.008": 0.0,
			"-0.007": 0.211732389326,
			"-0.006": 9.23865342215,
			"-0.005": 18.0111344385,
			"-0.004": 23.38920474,
			"-0.003": 22.6741425404,
			"-0.002": 19.0636306843,
			"-0.001": 18.2129634046,
			"0.0": 20.8256781683,
			"0.001": 18.9007142324,
			"0.002": 16.3310865128,
			"0.003": 17.3631434773,
			"0.004": 19.4849728252,
			"0.005": 19.08578698,
			"0.006": 10.9878884234,
			"0.007": 1.50947332254,
			"0.008": 1.1940262084,
			"0.009": 0.21884273637,
			"0.01": 0.0,
			"0.011": 0.0,
			"0.012": 0.0,
			"0.013": 0.0,
			"0.014": 0.0,
			"0.015": 0.0,
			"0.016": 0.0,
			"0.017": 0.0,
			"0.018": 0.0,
			"0.019": 0.0,
			"0.02": 0.0,
			"0.021": 0.0,
			"0.022": 0.0,
			"0.023": 0.0,
			"0.024": 0.0,
			"0.025": 0.0
		}
	}
}
