{
	 "smiles": "OC(=O)C1=C(F)C=C(C=C1)S(Cl)(=O)=O", 
	 "Tm": 416.15, 
	 "num_atms": 18, 
	 "gaussian": { 
		 "optdone": 1, 
		 "sigma_profile": "yes", 
		 "theory": "DFT", 
		 "functional": "B3LYP", 
		 "basiset": "6-31G**", 
		 "properties": { 
			 "R2extent": 5771.1461, 
			 "electric_dipole_moment_norm": 3.35104059211, 
			 "electric_quadrupole_moment_norm": 25.6564609547, 
			 "total_energy": -1528.18996244, 
			 "HOMO_LUMO_gap": 0.1813, 
			 "cosmo_polarized_energy": -19.24, 
			 "cosmo_cavitation_energy": 27.75, 
			 "cosmo_dispersion_energy": -20.5, 
			 "cosmo_repulsion_energy": 1.55, 
			 "cosmo_total_nonelectrostatic_energy": 8.81, 
			 "SMD_solvation_energy": 5.13 
		},
		"coords": [
			{
				"x": 1.9588128116,
				"y": 0.830613127,
				"z": 1.2662401532,
				"element": "O" 
			},
			{
				"x": 1.8337909567,
				"y": 0.5212141954,
				"z": -0.0505364619,
				"element": "C" 
			},
			{
				"x": 2.8022342149,
				"y": 0.4023889581,
				"z": -0.754252572,
				"element": "O" 
			},
			{
				"x": 0.4233391728,
				"y": 0.3002192951,
				"z": -0.5292065251,
				"element": "C" 
			},
			{
				"x": 0.032629333,
				"y": 0.7216714771,
				"z": -1.8084968035,
				"element": "C" 
			},
			{
				"x": 0.8903446886,
				"y": 1.3931218024,
				"z": -2.5785302009,
				"element": "F" 
			},
			{
				"x": -1.2461213369,
				"y": 0.4863734164,
				"z": -2.2998752531,
				"element": "C" 
			},
			{
				"x": -2.1363789407,
				"y": -0.206247506,
				"z": -1.4828097298,
				"element": "C" 
			},
			{
				"x": -1.7940957535,
				"y": -0.6621052278,
				"z": -0.2107845325,
				"element": "C" 
			},
			{
				"x": -0.5089164799,
				"y": -0.3953106232,
				"z": 0.2556864108,
				"element": "C" 
			},
			{
				"x": -3.7839733,
				"y": -0.5414244064,
				"z": -2.1085541371,
				"element": "S" 
			},
			{
				"x": -4.8231686389,
				"y": 1.1879112724,
				"z": -1.4343920754,
				"element": "Cl" 
			},
			{
				"x": -4.3451166401,
				"y": -1.670590359,
				"z": -1.3801009853,
				"element": "O" 
			},
			{
				"x": -3.7648190517,
				"y": -0.4722678024,
				"z": -3.5626714355,
				"element": "O" 
			},
			{
				"x": 1.0960348714,
				"y": 1.0437608818,
				"z": 1.6496330476,
				"element": "H" 
			},
			{
				"x": -1.5229720801,
				"y": 0.8275642368,
				"z": -3.2903615885,
				"element": "H" 
			},
			{
				"x": -2.5075707773,
				"y": -1.2183551375,
				"z": 0.3854226734,
				"element": "H" 
			},
			{
				"x": -0.2115530499,
				"y": -0.7652376002,
				"z": 1.2325900155,
				"element": "H" 
			}
		],
		 "valence_orbital": [ 
			{
				"type": "occ",
				"energy": -0.34159,
				"method": "rhf"
			},
			{
				"type": "occ",
				"energy": -0.32932,
				"method": "rhf"
			},
			{
				"type": "occ",
				"energy": -0.31739,
				"method": "rhf"
			},
			{
				"type": "occ",
				"energy": -0.30265,
				"method": "rhf"
			},
			{
				"type": "occ",
				"energy": -0.29345,
				"method": "rhf"
			},
			{
				"type": "unocc",
				"energy": -0.11215,
				"method": "rhf"
			},
			{
				"type": "unocc",
				"energy": -0.07768,
				"method": "rhf"
			},
			{
				"type": "unocc",
				"energy": -0.0583,
				"method": "rhf"
			},
			{
				"type": "unocc",
				"energy": -0.00431,
				"method": "rhf"
			},
			{
				"type": "unocc",
				"energy": 0.03084,
				"method": "rhf"
			}
		],
		"cosmo_sigma_profile": { 
			"-0.025": 0.0,
			"-0.024": 0.0,
			"-0.023": 0.0,
			"-0.022": 0.0,
			"-0.021": 0.0,
			"-0.02": 0.0799536289198,
			"-0.019": 0.848372597767,
			"-0.018": 1.17117643338,
			"-0.017": 1.44243318134,
			"-0.016": 0.875576109275,
			"-0.015": 0.710224984363,
			"-0.014": 0.941167910146,
			"-0.013": 1.66931070606,
			"-0.012": 1.60755199695,
			"-0.011": 1.25722211392,
			"-0.01": 3.10595662071,
			"-0.009": 6.57829174823,
			"-0.008": 6.66998992595,
			"-0.007": 7.39570757081,
			"-0.006": 6.38398443794,
			"-0.005": 7.84983877226,
			"-0.004": 9.43120631496,
			"-0.003": 16.1011781548,
			"-0.002": 18.0111333164,
			"-0.001": 14.8449862866,
			"0.0": 11.59446797,
			"0.001": 9.47112371732,
			"0.002": 16.8998877237,
			"0.003": 20.7127873406,
			"0.004": 6.21974567877,
			"0.005": 5.33515132977,
			"0.006": 7.93238130061,
			"0.007": 11.0649944679,
			"0.008": 11.8063129519,
			"0.009": 7.05635332954,
			"0.01": 5.19920251304,
			"0.011": 5.02037335409,
			"0.012": 1.2322155104,
			"0.013": 0.00299090255541,
			"0.014": 0.0,
			"0.015": 0.0,
			"0.016": 0.0,
			"0.017": 0.0,
			"0.018": 0.0,
			"0.019": 0.0,
			"0.02": 0.0,
			"0.021": 0.0,
			"0.022": 0.0,
			"0.023": 0.0,
			"0.024": 0.0,
			"0.025": 0.0
		}
	}
}
