{
	 "smiles": "OC(C1C(=O)N(N=C1C(F)(F)F)C1=CC=CC=C1)C1=CC=C(Cl)C=C1Cl", 
	 "Tm": 522.15, 
	 "num_atms": 37, 
	 "gaussian": { 
		 "optdone": 1, 
		 "sigma_profile": "yes", 
		 "theory": "DFT", 
		 "functional": "B3LYP", 
		 "basiset": "6-31G**", 
		 "properties": { 
			 "R2extent": 13786.8322, 
			 "electric_dipole_moment_norm": 2.46592000276, 
			 "electric_quadrupole_moment_norm": 11.0375140548, 
			 "total_energy": -2134.26701441, 
			 "HOMO_LUMO_gap": 0.16351, 
			 "cosmo_polarized_energy": -11.66, 
			 "cosmo_cavitation_energy": 45.65, 
			 "cosmo_dispersion_energy": -31.76, 
			 "cosmo_repulsion_energy": 2.34, 
			 "cosmo_total_nonelectrostatic_energy": 16.22, 
			 "SMD_solvation_energy": 7.65 
		},
		"coords": [
			{
				"x": 0.0059523426,
				"y": 1.1383483264,
				"z": 2.3180205876,
				"element": "O" 
			},
			{
				"x": -0.7383084808,
				"y": 0.1531047974,
				"z": 1.6337199928,
				"element": "C" 
			},
			{
				"x": 0.2904873922,
				"y": -0.7774769577,
				"z": 0.8838097227,
				"element": "C" 
			},
			{
				"x": 1.0036833422,
				"y": 0.0529124384,
				"z": -0.1851604608,
				"element": "C" 
			},
			{
				"x": 1.5099191592,
				"y": 1.1579556777,
				"z": -0.0318794455,
				"element": "O" 
			},
			{
				"x": 0.8941633507,
				"y": -0.6673021545,
				"z": -1.3661632092,
				"element": "N" 
			},
			{
				"x": 0.2287295333,
				"y": -1.8678436048,
				"z": -1.177831628,
				"element": "N" 
			},
			{
				"x": -0.1428724063,
				"y": -1.9464032331,
				"z": 0.0504054957,
				"element": "C" 
			},
			{
				"x": -0.807841509,
				"y": -3.2086007584,
				"z": 0.5345853451,
				"element": "C" 
			},
			{
				"x": -2.1439305188,
				"y": -3.0650076153,
				"z": 0.6377878108,
				"element": "F" 
			},
			{
				"x": -0.5713708986,
				"y": -4.2404210491,
				"z": -0.2856203362,
				"element": "F" 
			},
			{
				"x": -0.3362735119,
				"y": -3.5233835921,
				"z": 1.7618470391,
				"element": "F" 
			},
			{
				"x": 1.3735721705,
				"y": -0.34498231,
				"z": -2.6717433981,
				"element": "C" 
			},
			{
				"x": 2.0690334973,
				"y": 0.8500183141,
				"z": -2.9021554344,
				"element": "C" 
			},
			{
				"x": 2.5233094115,
				"y": 1.1326196458,
				"z": -4.1904940455,
				"element": "C" 
			},
			{
				"x": 2.2951353414,
				"y": 0.2466633202,
				"z": -5.243232193,
				"element": "C" 
			},
			{
				"x": 1.6008791409,
				"y": -0.9395753767,
				"z": -4.9996692995,
				"element": "C" 
			},
			{
				"x": 1.1375651691,
				"y": -1.2428543031,
				"z": -3.7214632795,
				"element": "C" 
			},
			{
				"x": -1.5840389534,
				"y": -0.5772487842,
				"z": 2.6569691199,
				"element": "C" 
			},
			{
				"x": -0.9895086882,
				"y": -0.9941947737,
				"z": 3.8560526548,
				"element": "C" 
			},
			{
				"x": -1.7086630146,
				"y": -1.6512576731,
				"z": 4.8480959188,
				"element": "C" 
			},
			{
				"x": -3.0666533122,
				"y": -1.893753101,
				"z": 4.6414728559,
				"element": "C" 
			},
			{
				"x": -3.9989990089,
				"y": -2.7209562961,
				"z": 5.8747868209,
				"element": "Cl" 
			},
			{
				"x": -3.7020848773,
				"y": -1.483622889,
				"z": 3.4732821338,
				"element": "C" 
			},
			{
				"x": -2.9530169534,
				"y": -0.8266476129,
				"z": 2.4957704011,
				"element": "C" 
			},
			{
				"x": -3.8118364868,
				"y": -0.3138062348,
				"z": 1.0468791159,
				"element": "Cl" 
			},
			{
				"x": 0.609552545,
				"y": 1.5446785452,
				"z": 1.6688797939,
				"element": "H" 
			},
			{
				"x": -1.3933585451,
				"y": 0.599716012,
				"z": 0.8764926361,
				"element": "H" 
			},
			{
				"x": 1.0120897421,
				"y": -1.1054258257,
				"z": 1.6422574168,
				"element": "H" 
			},
			{
				"x": 2.2466471751,
				"y": 1.5403149706,
				"z": -2.089839596,
				"element": "H" 
			},
			{
				"x": 3.0614340634,
				"y": 2.059609809,
				"z": -4.3650573723,
				"element": "H" 
			},
			{
				"x": 2.6531873318,
				"y": 0.4772975566,
				"z": -6.2418436448,
				"element": "H" 
			},
			{
				"x": 1.414632629,
				"y": -1.6397467336,
				"z": -5.8086162576,
				"element": "H" 
			},
			{
				"x": 0.5994105294,
				"y": -2.1620532295,
				"z": -3.530280734,
				"element": "H" 
			},
			{
				"x": 0.0593922813,
				"y": -0.7672984375,
				"z": 4.0156658885,
				"element": "H" 
			},
			{
				"x": -1.2304787066,
				"y": -1.9652652378,
				"z": 5.768613549,
				"element": "H" 
			},
			{
				"x": -4.758740276,
				"y": -1.6655116299,
				"z": 3.3227560352,
				"element": "H" 
			}
		],
		 "valence_orbital": [ 
			{
				"type": "occ",
				"energy": -0.28626,
				"method": "rhf"
			},
			{
				"type": "occ",
				"energy": -0.2675,
				"method": "rhf"
			},
			{
				"type": "occ",
				"energy": -0.26238,
				"method": "rhf"
			},
			{
				"type": "occ",
				"energy": -0.2557,
				"method": "rhf"
			},
			{
				"type": "occ",
				"energy": -0.23792,
				"method": "rhf"
			},
			{
				"type": "unocc",
				"energy": -0.07441,
				"method": "rhf"
			},
			{
				"type": "unocc",
				"energy": -0.03936,
				"method": "rhf"
			},
			{
				"type": "unocc",
				"energy": -0.02995,
				"method": "rhf"
			},
			{
				"type": "unocc",
				"energy": -0.02856,
				"method": "rhf"
			},
			{
				"type": "unocc",
				"energy": -0.01178,
				"method": "rhf"
			}
		],
		"cosmo_sigma_profile": { 
			"-0.025": 0.0,
			"-0.024": 0.0,
			"-0.023": 0.0,
			"-0.022": 0.0,
			"-0.021": 0.0,
			"-0.02": 0.0,
			"-0.019": 0.0,
			"-0.018": 0.0,
			"-0.017": 0.0,
			"-0.016": 0.0,
			"-0.015": 0.0,
			"-0.014": 0.0,
			"-0.013": 0.0,
			"-0.012": 0.0,
			"-0.011": 0.448551306504,
			"-0.01": 3.31759990684,
			"-0.009": 3.62196176138,
			"-0.008": 7.31808788233,
			"-0.007": 9.84165675554,
			"-0.006": 16.7677888985,
			"-0.005": 17.3973162137,
			"-0.004": 21.7471794934,
			"-0.003": 18.1272799222,
			"-0.002": 22.8899542062,
			"-0.001": 25.7158859734,
			"0.0": 31.2310360171,
			"0.001": 41.6461513443,
			"0.002": 52.3849251108,
			"0.003": 35.9164904434,
			"0.004": 30.1025417076,
			"0.005": 13.7202759543,
			"0.006": 4.90731021484,
			"0.007": 3.13567563006,
			"0.008": 3.16087159734,
			"0.009": 3.18891391967,
			"0.01": 1.73726231781,
			"0.011": 1.34855922021,
			"0.012": 1.17937000981,
			"0.013": 0.593975093691,
			"0.014": 0.0,
			"0.015": 0.0,
			"0.016": 0.0,
			"0.017": 0.0,
			"0.018": 0.0,
			"0.019": 0.0,
			"0.02": 0.0,
			"0.021": 0.0,
			"0.022": 0.0,
			"0.023": 0.0,
			"0.024": 0.0,
			"0.025": 0.0
		}
	}
}
