{
	 "smiles": "O=C1CCCC2C3CCCN4CCCC(CN12)C34", 
	 "Tm": 349.15, 
	 "num_atms": 42, 
	 "gaussian": { 
		 "optdone": 1, 
		 "sigma_profile": "yes", 
		 "theory": "DFT", 
		 "functional": "B3LYP", 
		 "basiset": "6-31G**", 
		 "properties": { 
			 "R2extent": 4550.4522, 
			 "electric_dipole_moment_norm": 3.26132106515, 
			 "electric_quadrupole_moment_norm": 15.6876105035, 
			 "total_energy": -770.805736984, 
			 "HOMO_LUMO_gap": 0.22449, 
			 "cosmo_polarized_energy": -10.84, 
			 "cosmo_cavitation_energy": 36.64, 
			 "cosmo_dispersion_energy": -27.16, 
			 "cosmo_repulsion_energy": 2.04, 
			 "cosmo_total_nonelectrostatic_energy": 11.52, 
			 "SMD_solvation_energy": 2.39 
		},
		"coords": [
			{
				"x": -2.4803520351,
				"y": 0.1844431773,
				"z": -2.7610903946,
				"element": "O" 
			},
			{
				"x": -1.4995805756,
				"y": 0.8676300729,
				"z": -2.4780285123,
				"element": "C" 
			},
			{
				"x": -0.6158484812,
				"y": 1.4438469136,
				"z": -3.5780135045,
				"element": "C" 
			},
			{
				"x": 0.8014201415,
				"y": 1.799823573,
				"z": -3.1306090675,
				"element": "C" 
			},
			{
				"x": 0.7280491037,
				"y": 2.6652202082,
				"z": -1.8702234311,
				"element": "C" 
			},
			{
				"x": -0.0466517362,
				"y": 2.0041999578,
				"z": -0.713628406,
				"element": "C" 
			},
			{
				"x": 0.8315419693,
				"y": 1.2084276872,
				"z": 0.2889557686,
				"element": "C" 
			},
			{
				"x": 1.6323119388,
				"y": 0.0485616355,
				"z": -0.3451070996,
				"element": "C" 
			},
			{
				"x": 2.1957579893,
				"y": -0.9295996622,
				"z": 0.7188227683,
				"element": "C" 
			},
			{
				"x": 2.1156632648,
				"y": -0.3050854855,
				"z": 2.1178303041,
				"element": "C" 
			},
			{
				"x": 0.7479427777,
				"y": 0.0413873437,
				"z": 2.5103566124,
				"element": "N" 
			},
			{
				"x": 0.0511335581,
				"y": -1.0536235527,
				"z": 3.1904002412,
				"element": "C" 
			},
			{
				"x": -1.4027576635,
				"y": -0.6698941599,
				"z": 3.4589574145,
				"element": "C" 
			},
			{
				"x": -2.1827073527,
				"y": -0.4918826925,
				"z": 2.1374003488,
				"element": "C" 
			},
			{
				"x": -1.2552935281,
				"y": -0.0889231882,
				"z": 0.9680628381,
				"element": "C" 
			},
			{
				"x": -2.0326349975,
				"y": 0.6946283311,
				"z": -0.0987722267,
				"element": "C" 
			},
			{
				"x": -1.1663709139,
				"y": 1.1685983679,
				"z": -1.1764534,
				"element": "N" 
			},
			{
				"x": -0.0512184525,
				"y": 0.7400668527,
				"z": 1.4723837673,
				"element": "C" 
			},
			{
				"x": -1.1275629843,
				"y": 2.3408459488,
				"z": -3.9535551193,
				"element": "H" 
			},
			{
				"x": -0.6273995556,
				"y": 0.7186397133,
				"z": -4.3957280583,
				"element": "H" 
			},
			{
				"x": 1.3263469681,
				"y": 2.340421388,
				"z": -3.9263308827,
				"element": "H" 
			},
			{
				"x": 1.3738837427,
				"y": 0.8863354086,
				"z": -2.9427323808,
				"element": "H" 
			},
			{
				"x": 1.7279499455,
				"y": 2.9359337884,
				"z": -1.5134147125,
				"element": "H" 
			},
			{
				"x": 0.227653713,
				"y": 3.606000564,
				"z": -2.1320915527,
				"element": "H" 
			},
			{
				"x": -0.4940509451,
				"y": 2.8186713473,
				"z": -0.1209603795,
				"element": "H" 
			},
			{
				"x": 1.5476924862,
				"y": 1.9356908986,
				"z": 0.6940372901,
				"element": "H" 
			},
			{
				"x": 2.4546867241,
				"y": 0.4730644007,
				"z": -0.9310077418,
				"element": "H" 
			},
			{
				"x": 0.9989321397,
				"y": -0.4969325126,
				"z": -1.0518190217,
				"element": "H" 
			},
			{
				"x": 1.6194823943,
				"y": -1.8623427731,
				"z": 0.7181473555,
				"element": "H" 
			},
			{
				"x": 3.2296904971,
				"y": -1.205962295,
				"z": 0.4811259501,
				"element": "H" 
			},
			{
				"x": 2.5144874847,
				"y": -0.9925352517,
				"z": 2.8711338798,
				"element": "H" 
			},
			{
				"x": 2.7520213237,
				"y": 0.5900802626,
				"z": 2.158835578,
				"element": "H" 
			},
			{
				"x": 0.5708175619,
				"y": -1.2495844147,
				"z": 4.1368392221,
				"element": "H" 
			},
			{
				"x": 0.0735093297,
				"y": -2.0046807827,
				"z": 2.6208583624,
				"element": "H" 
			},
			{
				"x": -1.8787379415,
				"y": -1.4289544648,
				"z": 4.0886337655,
				"element": "H" 
			},
			{
				"x": -1.4056540353,
				"y": 0.264942956,
				"z": 4.0316618046,
				"element": "H" 
			},
			{
				"x": -2.7049284865,
				"y": -1.4189728867,
				"z": 1.874298786,
				"element": "H" 
			},
			{
				"x": -2.9611471821,
				"y": 0.2699823255,
				"z": 2.2717705466,
				"element": "H" 
			},
			{
				"x": -0.8684942962,
				"y": -1.0003777758,
				"z": 0.494782217,
				"element": "H" 
			},
			{
				"x": -2.5118233822,
				"y": 1.5656999153,
				"z": 0.3768917346,
				"element": "H" 
			},
			{
				"x": -2.8150265831,
				"y": 0.0857927809,
				"z": -0.5525574921,
				"element": "H" 
			},
			{
				"x": -0.4739339258,
				"y": 1.6549160792,
				"z": 1.9259368282,
				"element": "H" 
			}
		],
		 "valence_orbital": [ 
			{
				"type": "occ",
				"energy": -0.30932,
				"method": "rhf"
			},
			{
				"type": "occ",
				"energy": -0.28971,
				"method": "rhf"
			},
			{
				"type": "occ",
				"energy": -0.23383,
				"method": "rhf"
			},
			{
				"type": "occ",
				"energy": -0.22918,
				"method": "rhf"
			},
			{
				"type": "occ",
				"energy": -0.1915,
				"method": "rhf"
			},
			{
				"type": "unocc",
				"energy": 0.03299,
				"method": "rhf"
			},
			{
				"type": "unocc",
				"energy": 0.0701,
				"method": "rhf"
			},
			{
				"type": "unocc",
				"energy": 0.07321,
				"method": "rhf"
			},
			{
				"type": "unocc",
				"energy": 0.0934,
				"method": "rhf"
			},
			{
				"type": "unocc",
				"energy": 0.09789,
				"method": "rhf"
			}
		],
		"cosmo_sigma_profile": { 
			"-0.025": 0.0,
			"-0.024": 0.0,
			"-0.023": 0.0,
			"-0.022": 0.0,
			"-0.021": 0.0,
			"-0.02": 0.0,
			"-0.019": 0.0,
			"-0.018": 0.0,
			"-0.017": 0.0,
			"-0.016": 0.0,
			"-0.015": 0.0,
			"-0.014": 0.0,
			"-0.013": 0.0,
			"-0.012": 0.0,
			"-0.011": 0.0,
			"-0.01": 0.0,
			"-0.009": 0.0,
			"-0.008": 0.0,
			"-0.007": 0.0,
			"-0.006": 0.0110096075211,
			"-0.005": 2.18109877577,
			"-0.004": 13.6072791474,
			"-0.003": 46.8567824097,
			"-0.002": 62.0551563487,
			"-0.001": 54.9460586243,
			"0.0": 38.4884234649,
			"0.001": 19.2276013322,
			"0.002": 6.99974403106,
			"0.003": 3.04043697494,
			"0.004": 2.78507767499,
			"0.005": 2.14625583413,
			"0.006": 2.43582246776,
			"0.007": 2.79217943076,
			"0.008": 2.18417208733,
			"0.009": 2.35686362073,
			"0.01": 1.87085067218,
			"0.011": 1.78169855237,
			"0.012": 1.91196626195,
			"0.013": 2.33470653932,
			"0.014": 4.97415703122,
			"0.015": 4.21696067655,
			"0.016": 1.22493883986,
			"0.017": 0.227670474337,
			"0.018": 0.0,
			"0.019": 0.0,
			"0.02": 0.0,
			"0.021": 0.0,
			"0.022": 0.0,
			"0.023": 0.0,
			"0.024": 0.0,
			"0.025": 0.0
		}
	}
}
