{
	 "smiles": "CC(=O)C1=C(O)C=C(Br)C(C)=C1", 
	 "Tm": 361.15, 
	 "num_atms": 21, 
	 "gaussian": { 
		 "optdone": 1, 
		 "sigma_profile": "yes", 
		 "theory": "DFT", 
		 "functional": "B3LYP", 
		 "basiset": "6-31G**", 
		 "properties": { 
			 "R2extent": 3652.279, 
			 "electric_dipole_moment_norm": 3.2604459695, 
			 "electric_quadrupole_moment_norm": 16.2798047633, 
			 "total_energy": -3070.23950631, 
			 "HOMO_LUMO_gap": 0.17987, 
			 "cosmo_polarized_energy": -11.55, 
			 "cosmo_cavitation_energy": 27.03, 
			 "cosmo_dispersion_energy": -20.22, 
			 "cosmo_repulsion_energy": 1.6, 
			 "cosmo_total_nonelectrostatic_energy": 8.41, 
			 "SMD_solvation_energy": 4.65 
		},
		"coords": [
			{
				"x": -2.8521203202,
				"y": -1.7615614258,
				"z": -3.1717424706,
				"element": "C" 
			},
			{
				"x": -1.5154078571,
				"y": -2.1808635978,
				"z": -2.5962380198,
				"element": "C" 
			},
			{
				"x": -0.927965267,
				"y": -3.1491078516,
				"z": -3.0596697736,
				"element": "O" 
			},
			{
				"x": -0.8933526914,
				"y": -1.4210205772,
				"z": -1.4547843919,
				"element": "C" 
			},
			{
				"x": -1.4386179698,
				"y": -0.2904310408,
				"z": -0.813496791,
				"element": "C" 
			},
			{
				"x": -2.641052325,
				"y": 0.2096423019,
				"z": -1.2203039661,
				"element": "O" 
			},
			{
				"x": -0.7436682499,
				"y": 0.3152913464,
				"z": 0.23944958,
				"element": "C" 
			},
			{
				"x": 0.4808726458,
				"y": -0.1949971598,
				"z": 0.6532019148,
				"element": "C" 
			},
			{
				"x": 1.3647572333,
				"y": 0.6921839232,
				"z": 2.099140262,
				"element": "Br" 
			},
			{
				"x": 1.0685782551,
				"y": -1.3178325818,
				"z": 0.0495945825,
				"element": "C" 
			},
			{
				"x": 2.3952141374,
				"y": -1.8828518167,
				"z": 0.487020883,
				"element": "C" 
			},
			{
				"x": 0.3466517108,
				"y": -1.8932980589,
				"z": -0.9951939647,
				"element": "C" 
			},
			{
				"x": -3.6316244451,
				"y": -1.7783606147,
				"z": -2.4042480823,
				"element": "H" 
			},
			{
				"x": -3.103408218,
				"y": -2.4487714973,
				"z": -3.9805511268,
				"element": "H" 
			},
			{
				"x": -2.8130829921,
				"y": -0.734142241,
				"z": -3.5455356549,
				"element": "H" 
			},
			{
				"x": -2.8637363905,
				"y": 0.9783022422,
				"z": -0.6787086465,
				"element": "H" 
			},
			{
				"x": -1.1600539455,
				"y": 1.186521402,
				"z": 0.7363174171,
				"element": "H" 
			},
			{
				"x": 2.3720171983,
				"y": -2.1916979484,
				"z": 1.537676106,
				"element": "H" 
			},
			{
				"x": 3.1967920285,
				"y": -1.1424719139,
				"z": 0.3917487915,
				"element": "H" 
			},
			{
				"x": 2.6582976741,
				"y": -2.7523361689,
				"z": -0.1197016359,
				"element": "H" 
			},
			{
				"x": 0.7438097884,
				"y": -2.7646967209,
				"z": -1.5062750127,
				"element": "H" 
			}
		],
		 "valence_orbital": [ 
			{
				"type": "occ",
				"energy": -0.3064,
				"method": "rhf"
			},
			{
				"type": "occ",
				"energy": -0.29497,
				"method": "rhf"
			},
			{
				"type": "occ",
				"energy": -0.25559,
				"method": "rhf"
			},
			{
				"type": "occ",
				"energy": -0.24634,
				"method": "rhf"
			},
			{
				"type": "occ",
				"energy": -0.23593,
				"method": "rhf"
			},
			{
				"type": "unocc",
				"energy": -0.05606,
				"method": "rhf"
			},
			{
				"type": "unocc",
				"energy": -0.00608,
				"method": "rhf"
			},
			{
				"type": "unocc",
				"energy": 8e-05,
				"method": "rhf"
			},
			{
				"type": "unocc",
				"energy": 0.03124,
				"method": "rhf"
			},
			{
				"type": "unocc",
				"energy": 0.05129,
				"method": "rhf"
			}
		],
		"cosmo_sigma_profile": { 
			"-0.025": 0.0,
			"-0.024": 0.0,
			"-0.023": 0.0,
			"-0.022": 0.0,
			"-0.021": 0.0,
			"-0.02": 0.0,
			"-0.019": 0.381383358086,
			"-0.018": 1.16523353051,
			"-0.017": 1.35736438451,
			"-0.016": 0.910841719468,
			"-0.015": 1.33454738833,
			"-0.014": 1.18395413761,
			"-0.013": 0.724205620645,
			"-0.012": 0.407050204346,
			"-0.011": 1.17260600196,
			"-0.01": 1.56636030155,
			"-0.009": 0.988522217228,
			"-0.008": 1.64263355737,
			"-0.007": 1.20255426542,
			"-0.006": 2.46123239896,
			"-0.005": 8.83829156278,
			"-0.004": 14.3414826064,
			"-0.003": 15.1350405467,
			"-0.002": 17.2052804671,
			"-0.001": 21.3527017354,
			"0.0": 22.9850545769,
			"0.001": 19.6965425662,
			"0.002": 25.001717432,
			"0.003": 18.875909876,
			"0.004": 13.1691143998,
			"0.005": 5.36332562431,
			"0.006": 3.87142065488,
			"0.007": 1.51037351905,
			"0.008": 1.41867096213,
			"0.009": 1.91691829233,
			"0.01": 2.04155988516,
			"0.011": 2.60113022251,
			"0.012": 3.95149578547,
			"0.013": 1.83820979861,
			"0.014": 0.274174066111,
			"0.015": 0.0,
			"0.016": 0.0,
			"0.017": 0.0,
			"0.018": 0.0,
			"0.019": 0.0,
			"0.02": 0.0,
			"0.021": 0.0,
			"0.022": 0.0,
			"0.023": 0.0,
			"0.024": 0.0,
			"0.025": 0.0
		}
	}
}
