{
	 "smiles": "FC(F)(F)COC(=O)NC1=CC(Cl)=CC=C1", 
	 "Tm": 309.15, 
	 "num_atms": 23, 
	 "gaussian": { 
		 "optdone": 1, 
		 "sigma_profile": "yes", 
		 "theory": "DFT", 
		 "functional": "B3LYP", 
		 "basiset": "6-31G**", 
		 "properties": { 
			 "R2extent": 6823.7679, 
			 "electric_dipole_moment_norm": 1.36261707387, 
			 "electric_quadrupole_moment_norm": 10.7663440647, 
			 "total_energy": -1312.11396302, 
			 "HOMO_LUMO_gap": 0.21351, 
			 "cosmo_polarized_energy": -10.89, 
			 "cosmo_cavitation_energy": 31.56, 
			 "cosmo_dispersion_energy": -22.18, 
			 "cosmo_repulsion_energy": 1.68, 
			 "cosmo_total_nonelectrostatic_energy": 11.06, 
			 "SMD_solvation_energy": 7.35 
		},
		"coords": [
			{
				"x": -3.4142590769,
				"y": 2.0017346315,
				"z": -3.3337405024,
				"element": "F" 
			},
			{
				"x": -2.3270052773,
				"y": 2.635665282,
				"z": -3.8081224777,
				"element": "C" 
			},
			{
				"x": -1.5262518629,
				"y": 1.705002186,
				"z": -4.3705767427,
				"element": "F" 
			},
			{
				"x": -2.7178654901,
				"y": 3.4884032349,
				"z": -4.7753207258,
				"element": "F" 
			},
			{
				"x": -1.6044746287,
				"y": 3.3993031898,
				"z": -2.7117972874,
				"element": "C" 
			},
			{
				"x": -1.1373440059,
				"y": 2.4715817226,
				"z": -1.7395070192,
				"element": "O" 
			},
			{
				"x": -1.8353606531,
				"y": 2.4237231651,
				"z": -0.5679000583,
				"element": "C" 
			},
			{
				"x": -2.6983503732,
				"y": 3.2145643445,
				"z": -0.2457823785,
				"element": "O" 
			},
			{
				"x": -1.4266005966,
				"y": 1.3888801877,
				"z": 0.2328047684,
				"element": "N" 
			},
			{
				"x": -0.4854370123,
				"y": 0.3503983405,
				"z": 0.0436940815,
				"element": "C" 
			},
			{
				"x": 0.0174126222,
				"y": -0.2529027164,
				"z": 1.2067656527,
				"element": "C" 
			},
			{
				"x": 0.9116595492,
				"y": -1.3131192396,
				"z": 1.1007424214,
				"element": "C" 
			},
			{
				"x": 1.5250559886,
				"y": -2.0544299708,
				"z": 2.5718509569,
				"element": "Cl" 
			},
			{
				"x": 1.3342264394,
				"y": -1.7906046527,
				"z": -0.1380086932,
				"element": "C" 
			},
			{
				"x": 0.8255979743,
				"y": -1.1797076652,
				"z": -1.284248287,
				"element": "C" 
			},
			{
				"x": -0.0820395377,
				"y": -0.1241002311,
				"z": -1.2131983998,
				"element": "C" 
			},
			{
				"x": -0.7354065996,
				"y": 3.9005786578,
				"z": -3.1419019654,
				"element": "H" 
			},
			{
				"x": -2.2848498409,
				"y": 4.1234958,
				"z": -2.2610680038,
				"element": "H" 
			},
			{
				"x": -1.8733545728,
				"y": 1.4300331394,
				"z": 1.1381677749,
				"element": "H" 
			},
			{
				"x": -0.2814911719,
				"y": 0.1061370062,
				"z": 2.1862496287,
				"element": "H" 
			},
			{
				"x": 2.0347052203,
				"y": -2.6150165641,
				"z": -0.2000027956,
				"element": "H" 
			},
			{
				"x": 1.134890892,
				"y": -1.5415793893,
				"z": -2.2601982436,
				"element": "H" 
			},
			{
				"x": -0.4689579861,
				"y": 0.3213595413,
				"z": -2.1182017041,
				"element": "H" 
			}
		],
		 "valence_orbital": [ 
			{
				"type": "occ",
				"energy": -0.31928,
				"method": "rhf"
			},
			{
				"type": "occ",
				"energy": -0.31279,
				"method": "rhf"
			},
			{
				"type": "occ",
				"energy": -0.30061,
				"method": "rhf"
			},
			{
				"type": "occ",
				"energy": -0.25907,
				"method": "rhf"
			},
			{
				"type": "occ",
				"energy": -0.23797,
				"method": "rhf"
			},
			{
				"type": "unocc",
				"energy": -0.02446,
				"method": "rhf"
			},
			{
				"type": "unocc",
				"energy": -0.02105,
				"method": "rhf"
			},
			{
				"type": "unocc",
				"energy": 0.02202,
				"method": "rhf"
			},
			{
				"type": "unocc",
				"energy": 0.04145,
				"method": "rhf"
			},
			{
				"type": "unocc",
				"energy": 0.06561,
				"method": "rhf"
			}
		],
		"cosmo_sigma_profile": { 
			"-0.025": 0.0,
			"-0.024": 0.0,
			"-0.023": 0.0,
			"-0.022": 0.0,
			"-0.021": 0.0,
			"-0.02": 0.0,
			"-0.019": 0.0,
			"-0.018": 0.0,
			"-0.017": 0.0,
			"-0.016": 0.550803102893,
			"-0.015": 1.26555927841,
			"-0.014": 1.57405920631,
			"-0.013": 0.656095738976,
			"-0.012": 1.32361598704,
			"-0.011": 1.50284308582,
			"-0.01": 1.82129072537,
			"-0.009": 4.50666806887,
			"-0.008": 5.17448144352,
			"-0.007": 8.61768915769,
			"-0.006": 8.83278511548,
			"-0.005": 10.0196882965,
			"-0.004": 9.62925562067,
			"-0.003": 11.5677951516,
			"-0.002": 14.6707569463,
			"-0.001": 14.802409633,
			"0.0": 19.2284377725,
			"0.001": 21.8209998326,
			"0.002": 43.0002186002,
			"0.003": 33.5680321517,
			"0.004": 18.5506121555,
			"0.005": 8.39832502026,
			"0.006": 1.56963795037,
			"0.007": 1.00782821256,
			"0.008": 1.41807066708,
			"0.009": 1.2604430652,
			"0.01": 1.78558557002,
			"0.011": 3.1129486168,
			"0.012": 4.02391949259,
			"0.013": 0.234336313163,
			"0.014": 0.0,
			"0.015": 0.0,
			"0.016": 0.0,
			"0.017": 0.0,
			"0.018": 0.0,
			"0.019": 0.0,
			"0.02": 0.0,
			"0.021": 0.0,
			"0.022": 0.0,
			"0.023": 0.0,
			"0.024": 0.0,
			"0.025": 0.0
		}
	}
}
