{
	 "smiles": "OC(=O)CC1=CSC(=N1)C1=CC=C(F)C=C1", 
	 "Tm": 403.15, 
	 "num_atms": 24, 
	 "gaussian": { 
		 "optdone": 1, 
		 "sigma_profile": "yes", 
		 "theory": "DFT", 
		 "functional": "B3LYP", 
		 "basiset": "6-31G**", 
		 "properties": { 
			 "R2extent": 5368.0692, 
			 "electric_dipole_moment_norm": 5.72299766294, 
			 "electric_quadrupole_moment_norm": 17.7823786173, 
			 "total_energy": -1127.22876382, 
			 "HOMO_LUMO_gap": 0.16337, 
			 "cosmo_polarized_energy": -13.96, 
			 "cosmo_cavitation_energy": 31.18, 
			 "cosmo_dispersion_energy": -23.05, 
			 "cosmo_repulsion_energy": 1.71, 
			 "cosmo_total_nonelectrostatic_energy": 9.84, 
			 "SMD_solvation_energy": 6.33 
		},
		"coords": [
			{
				"x": -1.993084538,
				"y": -1.9634292483,
				"z": -0.4907942278,
				"element": "O" 
			},
			{
				"x": -1.587905811,
				"y": -2.5520889456,
				"z": -1.6272647714,
				"element": "C" 
			},
			{
				"x": -2.3615829292,
				"y": -3.0868313487,
				"z": -2.384380449,
				"element": "O" 
			},
			{
				"x": -0.0669494241,
				"y": -2.5783518093,
				"z": -1.8743938574,
				"element": "C" 
			},
			{
				"x": 0.6942337832,
				"y": -1.3554436529,
				"z": -1.4413791694,
				"element": "C" 
			},
			{
				"x": 1.6152501518,
				"y": -0.6629831723,
				"z": -2.1750677979,
				"element": "C" 
			},
			{
				"x": 2.2528760197,
				"y": 0.6560789504,
				"z": -1.2495348195,
				"element": "S" 
			},
			{
				"x": 1.2037772568,
				"y": 0.2036343808,
				"z": 0.0876857692,
				"element": "C" 
			},
			{
				"x": 0.4756654865,
				"y": -0.8561847608,
				"z": -0.1736115333,
				"element": "N" 
			},
			{
				"x": 1.174719191,
				"y": 0.9349972488,
				"z": 1.3583531183,
				"element": "C" 
			},
			{
				"x": 1.7674206547,
				"y": 2.2018112078,
				"z": 1.4966315903,
				"element": "C" 
			},
			{
				"x": 1.7311905923,
				"y": 2.8788826306,
				"z": 2.7114523805,
				"element": "C" 
			},
			{
				"x": 1.0906429745,
				"y": 2.2801331044,
				"z": 3.7917809916,
				"element": "C" 
			},
			{
				"x": 1.0508757006,
				"y": 2.9305719295,
				"z": 4.9682540129,
				"element": "F" 
			},
			{
				"x": 0.4899318664,
				"y": 1.0285108944,
				"z": 3.6904251415,
				"element": "C" 
			},
			{
				"x": 0.5359782975,
				"y": 0.3596807175,
				"z": 2.4725128835,
				"element": "C" 
			},
			{
				"x": -1.2246967185,
				"y": -1.535453674,
				"z": -0.0465699072,
				"element": "H" 
			},
			{
				"x": 0.083807489,
				"y": -2.7807141425,
				"z": -2.9351239239,
				"element": "H" 
			},
			{
				"x": 0.3133541943,
				"y": -3.4500752363,
				"z": -1.3224340325,
				"element": "H" 
			},
			{
				"x": 1.9494129845,
				"y": -0.850862724,
				"z": -3.1851384451,
				"element": "H" 
			},
			{
				"x": 2.2510154253,
				"y": 2.6745519182,
				"z": 0.6468157683,
				"element": "H" 
			},
			{
				"x": 2.1813144857,
				"y": 3.8581456508,
				"z": 2.8296003755,
				"element": "H" 
			},
			{
				"x": 0.0028762277,
				"y": 0.5956670882,
				"z": 4.5571936949,
				"element": "H" 
			},
			{
				"x": 0.0836766394,
				"y": -0.6204470067,
				"z": 2.3737872078,
				"element": "H" 
			}
		],
		 "valence_orbital": [ 
			{
				"type": "occ",
				"energy": -0.30017,
				"method": "rhf"
			},
			{
				"type": "occ",
				"energy": -0.29314,
				"method": "rhf"
			},
			{
				"type": "occ",
				"energy": -0.28225,
				"method": "rhf"
			},
			{
				"type": "occ",
				"energy": -0.25894,
				"method": "rhf"
			},
			{
				"type": "occ",
				"energy": -0.23701,
				"method": "rhf"
			},
			{
				"type": "unocc",
				"energy": -0.07364,
				"method": "rhf"
			},
			{
				"type": "unocc",
				"energy": -0.0323,
				"method": "rhf"
			},
			{
				"type": "unocc",
				"energy": -0.00348,
				"method": "rhf"
			},
			{
				"type": "unocc",
				"energy": 0.00227,
				"method": "rhf"
			},
			{
				"type": "unocc",
				"energy": 0.02264,
				"method": "rhf"
			}
		],
		"cosmo_sigma_profile": { 
			"-0.025": 0.0,
			"-0.024": 0.0,
			"-0.023": 0.0,
			"-0.022": 0.0,
			"-0.021": 0.0,
			"-0.02": 0.0,
			"-0.019": 0.0,
			"-0.018": 0.0,
			"-0.017": 0.0,
			"-0.016": 0.0,
			"-0.015": 0.0,
			"-0.014": 0.0,
			"-0.013": 0.0,
			"-0.012": 0.0,
			"-0.011": 0.0,
			"-0.01": 0.936373672476,
			"-0.009": 2.24374714532,
			"-0.008": 8.22005268203,
			"-0.007": 13.6321000598,
			"-0.006": 14.5299688798,
			"-0.005": 14.0458441682,
			"-0.004": 14.5218898382,
			"-0.003": 14.1600379412,
			"-0.002": 14.8320389616,
			"-0.001": 18.223142644,
			"0.0": 25.8796322124,
			"0.001": 25.8036053858,
			"0.002": 25.432901883,
			"0.003": 15.7394228997,
			"0.004": 12.2573357095,
			"0.005": 2.87882345796,
			"0.006": 2.47893580865,
			"0.007": 2.13342212187,
			"0.008": 2.25833949374,
			"0.009": 3.20934560864,
			"0.01": 4.42545339965,
			"0.011": 5.29463297374,
			"0.012": 6.21697166658,
			"0.013": 3.47341808763,
			"0.014": 0.466012696504,
			"0.015": 0.0,
			"0.016": 0.0,
			"0.017": 0.0,
			"0.018": 0.0,
			"0.019": 0.0,
			"0.02": 0.0,
			"0.021": 0.0,
			"0.022": 0.0,
			"0.023": 0.0,
			"0.024": 0.0,
			"0.025": 0.0
		}
	}
}
