{
	 "smiles": "COC(=O)C1=CC2=CC=CN=C2C=C1", 
	 "Tm": 361.65, 
	 "num_atms": 23, 
	 "gaussian": { 
		 "optdone": 1, 
		 "sigma_profile": "yes", 
		 "theory": "DFT", 
		 "functional": "B3LYP", 
		 "basiset": "6-31G**", 
		 "properties": { 
			 "R2extent": 3428.6508, 
			 "electric_dipole_moment_norm": 0.295437252221, 
			 "electric_quadrupole_moment_norm": 17.6405592888, 
			 "total_energy": -629.811037045, 
			 "HOMO_LUMO_gap": 0.17259, 
			 "cosmo_polarized_energy": -9.84, 
			 "cosmo_cavitation_energy": 27.71, 
			 "cosmo_dispersion_energy": -20.57, 
			 "cosmo_repulsion_energy": 1.59, 
			 "cosmo_total_nonelectrostatic_energy": 8.72, 
			 "SMD_solvation_energy": 4.72 
		},
		"coords": [
			{
				"x": -3.385790927,
				"y": -2.2584885035,
				"z": 2.7394149374,
				"element": "C" 
			},
			{
				"x": -2.3950756355,
				"y": -2.0216692937,
				"z": 1.7274915594,
				"element": "O" 
			},
			{
				"x": -1.6037781515,
				"y": -0.9449186089,
				"z": 1.9371505925,
				"element": "C" 
			},
			{
				"x": -1.7122451621,
				"y": -0.2208580625,
				"z": 2.9081237234,
				"element": "O" 
			},
			{
				"x": -0.6001895442,
				"y": -0.7586735372,
				"z": 0.8503587162,
				"element": "C" 
			},
			{
				"x": 0.2672170814,
				"y": 0.312405256,
				"z": 0.954876778,
				"element": "C" 
			},
			{
				"x": 1.2445699161,
				"y": 0.5486643747,
				"z": -0.0407469068,
				"element": "C" 
			},
			{
				"x": 2.1612928239,
				"y": 1.6310853161,
				"z": 0.0128346647,
				"element": "C" 
			},
			{
				"x": 3.0775200871,
				"y": 1.7834558516,
				"z": -0.9998347793,
				"element": "C" 
			},
			{
				"x": 3.0740077687,
				"y": 0.8488017942,
				"z": -2.0674419247,
				"element": "C" 
			},
			{
				"x": 2.2442084269,
				"y": -0.1713197862,
				"z": -2.1621943559,
				"element": "N" 
			},
			{
				"x": 1.3278456747,
				"y": -0.3364827706,
				"z": -1.1640385388,
				"element": "C" 
			},
			{
				"x": 0.4234366823,
				"y": -1.4296259788,
				"z": -1.2458790095,
				"element": "C" 
			},
			{
				"x": -0.5171854729,
				"y": -1.6377862112,
				"z": -0.2656144227,
				"element": "C" 
			},
			{
				"x": -2.9120270285,
				"y": -2.4245971317,
				"z": 3.7101694487,
				"element": "H" 
			},
			{
				"x": -4.0638021952,
				"y": -1.4052348947,
				"z": 2.8210793422,
				"element": "H" 
			},
			{
				"x": -3.926573935,
				"y": -3.148903936,
				"z": 2.4190779933,
				"element": "H" 
			},
			{
				"x": 0.1878307328,
				"y": 0.9717066093,
				"z": 1.8139829816,
				"element": "H" 
			},
			{
				"x": 2.1250452953,
				"y": 2.3213976424,
				"z": 0.8516850078,
				"element": "H" 
			},
			{
				"x": 3.7956429888,
				"y": 2.5971749669,
				"z": -0.997087192,
				"element": "H" 
			},
			{
				"x": 3.7958907117,
				"y": 0.9593506432,
				"z": -2.8762281278,
				"element": "H" 
			},
			{
				"x": 0.5058744715,
				"y": -2.0861111721,
				"z": -2.1057475491,
				"element": "H" 
			},
			{
				"x": -1.206114609,
				"y": -2.4717725674,
				"z": -0.3294329383,
				"element": "H" 
			}
		],
		 "valence_orbital": [ 
			{
				"type": "occ",
				"energy": -0.30346,
				"method": "rhf"
			},
			{
				"type": "occ",
				"energy": -0.27638,
				"method": "rhf"
			},
			{
				"type": "occ",
				"energy": -0.25901,
				"method": "rhf"
			},
			{
				"type": "occ",
				"energy": -0.25854,
				"method": "rhf"
			},
			{
				"type": "occ",
				"energy": -0.23962,
				"method": "rhf"
			},
			{
				"type": "unocc",
				"energy": -0.06703,
				"method": "rhf"
			},
			{
				"type": "unocc",
				"energy": -0.03882,
				"method": "rhf"
			},
			{
				"type": "unocc",
				"energy": 0.00727,
				"method": "rhf"
			},
			{
				"type": "unocc",
				"energy": 0.03766,
				"method": "rhf"
			},
			{
				"type": "unocc",
				"energy": 0.09548,
				"method": "rhf"
			}
		],
		"cosmo_sigma_profile": { 
			"-0.025": 0.0,
			"-0.024": 0.0,
			"-0.023": 0.0,
			"-0.022": 0.0,
			"-0.021": 0.0,
			"-0.02": 0.0,
			"-0.019": 0.0,
			"-0.018": 0.0,
			"-0.017": 0.0,
			"-0.016": 0.0,
			"-0.015": 0.0,
			"-0.014": 0.0,
			"-0.013": 0.0,
			"-0.012": 0.0,
			"-0.011": 0.0,
			"-0.01": 0.0,
			"-0.009": 0.0,
			"-0.008": 1.76618404839,
			"-0.007": 9.20329066368,
			"-0.006": 15.6138990006,
			"-0.005": 17.0824450064,
			"-0.004": 17.3058558649,
			"-0.003": 16.8035360695,
			"-0.002": 14.4473528932,
			"-0.001": 11.6206864615,
			"0.0": 17.8752307623,
			"0.001": 28.7568622297,
			"0.002": 22.6540448211,
			"0.003": 11.6468505497,
			"0.004": 6.71946461678,
			"0.005": 4.84040885915,
			"0.006": 3.57854889589,
			"0.007": 2.37091621097,
			"0.008": 3.55633243389,
			"0.009": 2.62714162076,
			"0.01": 2.12559264991,
			"0.011": 4.23612042359,
			"0.012": 4.75150952338,
			"0.013": 1.09977165468,
			"0.014": 0.809309778667,
			"0.015": 0.532372007172,
			"0.016": 0.599681328139,
			"0.017": 0.0,
			"0.018": 0.0,
			"0.019": 0.0,
			"0.02": 0.0,
			"0.021": 0.0,
			"0.022": 0.0,
			"0.023": 0.0,
			"0.024": 0.0,
			"0.025": 0.0
		}
	}
}
