{
	 "smiles": "OC(=O)CCCC1=C(Br)C=CC=C1", 
	 "Tm": 361.15, 
	 "num_atms": 24, 
	 "gaussian": { 
		 "optdone": 1, 
		 "sigma_profile": "yes", 
		 "theory": "DFT", 
		 "functional": "B3LYP", 
		 "basiset": "6-31G**", 
		 "properties": { 
			 "R2extent": 4512.6275, 
			 "electric_dipole_moment_norm": 1.30377081191, 
			 "electric_quadrupole_moment_norm": 9.83283644123, 
			 "total_energy": -3109.57329515, 
			 "HOMO_LUMO_gap": 0.22802, 
			 "cosmo_polarized_energy": -8.92, 
			 "cosmo_cavitation_energy": 29.24, 
			 "cosmo_dispersion_energy": -21.35, 
			 "cosmo_repulsion_energy": 1.7, 
			 "cosmo_total_nonelectrostatic_energy": 9.58, 
			 "SMD_solvation_energy": 4.68 
		},
		"coords": [
			{
				"x": 2.6033332533,
				"y": -2.3215553,
				"z": 2.3222706616,
				"element": "O" 
			},
			{
				"x": 2.3132555027,
				"y": -1.4664882439,
				"z": 1.3124740105,
				"element": "C" 
			},
			{
				"x": 3.1388907971,
				"y": -1.1567519688,
				"z": 0.476015738,
				"element": "O" 
			},
			{
				"x": 0.872027398,
				"y": -1.0146212194,
				"z": 1.3418275369,
				"element": "C" 
			},
			{
				"x": -0.0235135175,
				"y": -1.8921149837,
				"z": 0.4356960777,
				"element": "C" 
			},
			{
				"x": 0.3052742983,
				"y": -1.8146073188,
				"z": -1.071763691,
				"element": "C" 
			},
			{
				"x": 0.0650610954,
				"y": -0.452681459,
				"z": -1.6871291484,
				"element": "C" 
			},
			{
				"x": -1.1907487968,
				"y": -0.0202499112,
				"z": -2.1384973604,
				"element": "C" 
			},
			{
				"x": -2.7284538035,
				"y": -1.1700625856,
				"z": -2.0061100935,
				"element": "Br" 
			},
			{
				"x": -1.3884462194,
				"y": 1.2396722464,
				"z": -2.7023046156,
				"element": "C" 
			},
			{
				"x": -0.309075167,
				"y": 2.1140580529,
				"z": -2.8227383508,
				"element": "C" 
			},
			{
				"x": 0.9529908073,
				"y": 1.7197790579,
				"z": -2.3782473519,
				"element": "C" 
			},
			{
				"x": 1.1308739565,
				"y": 0.454171646,
				"z": -1.8212683153,
				"element": "C" 
			},
			{
				"x": 3.5312927695,
				"y": -2.5840078309,
				"z": 2.1964194533,
				"element": "H" 
			},
			{
				"x": 0.8421197597,
				"y": 0.0237669332,
				"z": 1.001442571,
				"element": "H" 
			},
			{
				"x": 0.5025163796,
				"y": -1.058809278,
				"z": 2.3695409642,
				"element": "H" 
			},
			{
				"x": 0.0536836908,
				"y": -2.936273603,
				"z": 0.761479331,
				"element": "H" 
			},
			{
				"x": -1.0641190995,
				"y": -1.590738678,
				"z": 0.5938718949,
				"element": "H" 
			},
			{
				"x": 1.3523373591,
				"y": -2.0896400326,
				"z": -1.2298536215,
				"element": "H" 
			},
			{
				"x": -0.3059133839,
				"y": -2.5606130262,
				"z": -1.5886800251,
				"element": "H" 
			},
			{
				"x": -2.3764946594,
				"y": 1.5272598731,
				"z": -3.043285248,
				"element": "H" 
			},
			{
				"x": -0.4600677413,
				"y": 3.0953669928,
				"z": -3.2627247129,
				"element": "H" 
			},
			{
				"x": 1.7998461205,
				"y": 2.3938229782,
				"z": -2.4666531105,
				"element": "H" 
			},
			{
				"x": 2.1097292008,
				"y": 0.1471176584,
				"z": -1.4635825942,
				"element": "H" 
			}
		],
		 "valence_orbital": [ 
			{
				"type": "occ",
				"energy": -0.3084,
				"method": "rhf"
			},
			{
				"type": "occ",
				"energy": -0.28414,
				"method": "rhf"
			},
			{
				"type": "occ",
				"energy": -0.27681,
				"method": "rhf"
			},
			{
				"type": "occ",
				"energy": -0.25112,
				"method": "rhf"
			},
			{
				"type": "occ",
				"energy": -0.23822,
				"method": "rhf"
			},
			{
				"type": "unocc",
				"energy": -0.0102,
				"method": "rhf"
			},
			{
				"type": "unocc",
				"energy": -0.00849,
				"method": "rhf"
			},
			{
				"type": "unocc",
				"energy": 0.00224,
				"method": "rhf"
			},
			{
				"type": "unocc",
				"energy": 0.00997,
				"method": "rhf"
			},
			{
				"type": "unocc",
				"energy": 0.07379,
				"method": "rhf"
			}
		],
		"cosmo_sigma_profile": { 
			"-0.025": 0.0,
			"-0.024": 0.0,
			"-0.023": 0.0,
			"-0.022": 0.0,
			"-0.021": 0.0,
			"-0.02": 0.0,
			"-0.019": 0.0,
			"-0.018": 0.596341679423,
			"-0.017": 1.07547537412,
			"-0.016": 0.683320388761,
			"-0.015": 0.870923290097,
			"-0.014": 0.536434785867,
			"-0.013": 0.519493822487,
			"-0.012": 1.03796856714,
			"-0.011": 0.900195535506,
			"-0.01": 0.624268274696,
			"-0.009": 0.393104261454,
			"-0.008": 0.415562107434,
			"-0.007": 2.37843392038,
			"-0.006": 6.77962264107,
			"-0.005": 10.0171741561,
			"-0.004": 16.6850345686,
			"-0.003": 24.4501849747,
			"-0.002": 23.7895241383,
			"-0.001": 22.0844906736,
			"0.0": 15.6066530498,
			"0.001": 17.2738893494,
			"0.002": 18.01833147,
			"0.003": 19.8613957177,
			"0.004": 19.5346445675,
			"0.005": 11.7333726881,
			"0.006": 2.50204462642,
			"0.007": 3.25587531812,
			"0.008": 2.47093788692,
			"0.009": 3.10796314477,
			"0.01": 2.36647296534,
			"0.011": 2.75075473782,
			"0.012": 2.25219925616,
			"0.013": 0.151795425278,
			"0.014": 0.0,
			"0.015": 0.0,
			"0.016": 0.0,
			"0.017": 0.0,
			"0.018": 0.0,
			"0.019": 0.0,
			"0.02": 0.0,
			"0.021": 0.0,
			"0.022": 0.0,
			"0.023": 0.0,
			"0.024": 0.0,
			"0.025": 0.0
		}
	}
}
