{
	 "smiles": "OC(=O)C1=CC(=O)N(CC2=CC=CC=C2)C2=C1C=CC=C2", 
	 "Tm": 489.15, 
	 "num_atms": 34, 
	 "gaussian": { 
		 "optdone": 1, 
		 "sigma_profile": "yes", 
		 "theory": "DFT", 
		 "functional": "B3LYP", 
		 "basiset": "6-31G**", 
		 "properties": { 
			 "R2extent": 7653.1834, 
			 "electric_dipole_moment_norm": 6.49877022828, 
			 "electric_quadrupole_moment_norm": 28.3438155244, 
			 "total_energy": -936.090725188, 
			 "HOMO_LUMO_gap": 0.15332, 
			 "cosmo_polarized_energy": -19.28, 
			 "cosmo_cavitation_energy": 37.7, 
			 "cosmo_dispersion_energy": -26.83, 
			 "cosmo_repulsion_energy": 2.01, 
			 "cosmo_total_nonelectrostatic_energy": 12.89, 
			 "SMD_solvation_energy": 7.62 
		},
		"coords": [
			{
				"x": -5.5439837476,
				"y": -1.5714061593,
				"z": -0.1836648365,
				"element": "O" 
			},
			{
				"x": -5.3589042538,
				"y": -0.5654920284,
				"z": 0.7120934732,
				"element": "C" 
			},
			{
				"x": -6.303600412,
				"y": -0.0476830403,
				"z": 1.2512271146,
				"element": "O" 
			},
			{
				"x": -3.9312072222,
				"y": -0.1198939887,
				"z": 0.9280917088,
				"element": "C" 
			},
			{
				"x": -3.7178362835,
				"y": 1.2182900634,
				"z": 0.9617287543,
				"element": "C" 
			},
			{
				"x": -2.3884912187,
				"y": 1.8027105438,
				"z": 1.0704302955,
				"element": "C" 
			},
			{
				"x": -2.1876292659,
				"y": 3.015766697,
				"z": 1.0482661102,
				"element": "O" 
			},
			{
				"x": -1.3256083576,
				"y": 0.8863729936,
				"z": 1.1874296468,
				"element": "N" 
			},
			{
				"x": 0.0131753188,
				"y": 1.477633009,
				"z": 1.3843321713,
				"element": "C" 
			},
			{
				"x": 0.889316586,
				"y": 1.4880442196,
				"z": 0.1453161146,
				"element": "C" 
			},
			{
				"x": 2.1952822241,
				"y": 0.9880332101,
				"z": 0.1945130783,
				"element": "C" 
			},
			{
				"x": 3.0201441475,
				"y": 1.0336572807,
				"z": -0.9318384087,
				"element": "C" 
			},
			{
				"x": 2.5427837582,
				"y": 1.5795708609,
				"z": -2.1231039248,
				"element": "C" 
			},
			{
				"x": 1.2421854127,
				"y": 2.088092187,
				"z": -2.1786197016,
				"element": "C" 
			},
			{
				"x": 0.4218932168,
				"y": 2.0477377613,
				"z": -1.0520757173,
				"element": "C" 
			},
			{
				"x": -1.5077101694,
				"y": -0.4953613542,
				"z": 1.1808363646,
				"element": "C" 
			},
			{
				"x": -2.8201020508,
				"y": -1.042794663,
				"z": 1.0726916258,
				"element": "C" 
			},
			{
				"x": -2.9821223358,
				"y": -2.4438624104,
				"z": 1.1573549953,
				"element": "C" 
			},
			{
				"x": -1.8943463355,
				"y": -3.2909529879,
				"z": 1.2924457037,
				"element": "C" 
			},
			{
				"x": -0.6053118735,
				"y": -2.7471204038,
				"z": 1.3414661644,
				"element": "C" 
			},
			{
				"x": -0.4110831404,
				"y": -1.3744704981,
				"z": 1.2902747279,
				"element": "C" 
			},
			{
				"x": -4.6997679901,
				"y": -1.8160702587,
				"z": -0.591498938,
				"element": "H" 
			},
			{
				"x": -4.5386330092,
				"y": 1.9200424464,
				"z": 0.8766487858,
				"element": "H" 
			},
			{
				"x": -0.1807544819,
				"y": 2.5025207014,
				"z": 1.7063787927,
				"element": "H" 
			},
			{
				"x": 0.5084411792,
				"y": 0.9500524887,
				"z": 2.2037226588,
				"element": "H" 
			},
			{
				"x": 2.5755385798,
				"y": 0.5658489259,
				"z": 1.1226137584,
				"element": "H" 
			},
			{
				"x": 4.0313454708,
				"y": 0.6406624844,
				"z": -0.877025157,
				"element": "H" 
			},
			{
				"x": 3.1800627389,
				"y": 1.6136669086,
				"z": -3.0019532051,
				"element": "H" 
			},
			{
				"x": 0.8685987765,
				"y": 2.5251161269,
				"z": -3.1003092845,
				"element": "H" 
			},
			{
				"x": -0.5788182099,
				"y": 2.4672809868,
				"z": -1.0902504442,
				"element": "H" 
			},
			{
				"x": -3.9822530156,
				"y": -2.8633361027,
				"z": 1.1397873742,
				"element": "H" 
			},
			{
				"x": -2.043891866,
				"y": -4.3635009698,
				"z": 1.3588012574,
				"element": "H" 
			},
			{
				"x": 0.2583416336,
				"y": -3.3997878646,
				"z": 1.4261505347,
				"element": "H" 
			},
			{
				"x": 0.5965461965,
				"y": -0.9847671658,
				"z": 1.3144384064,
				"element": "H" 
			}
		],
		 "valence_orbital": [ 
			{
				"type": "occ",
				"energy": -0.26889,
				"method": "rhf"
			},
			{
				"type": "occ",
				"energy": -0.26086,
				"method": "rhf"
			},
			{
				"type": "occ",
				"energy": -0.25784,
				"method": "rhf"
			},
			{
				"type": "occ",
				"energy": -0.2511,
				"method": "rhf"
			},
			{
				"type": "occ",
				"energy": -0.23352,
				"method": "rhf"
			},
			{
				"type": "unocc",
				"energy": -0.0802,
				"method": "rhf"
			},
			{
				"type": "unocc",
				"energy": -0.02562,
				"method": "rhf"
			},
			{
				"type": "unocc",
				"energy": -0.02537,
				"method": "rhf"
			},
			{
				"type": "unocc",
				"energy": -0.01222,
				"method": "rhf"
			},
			{
				"type": "unocc",
				"energy": -0.01027,
				"method": "rhf"
			}
		],
		"cosmo_sigma_profile": { 
			"-0.025": 0.0,
			"-0.024": 0.0,
			"-0.023": 0.0,
			"-0.022": 0.0,
			"-0.021": 0.0,
			"-0.02": 0.0,
			"-0.019": 0.0,
			"-0.018": 0.584622990669,
			"-0.017": 1.05202378557,
			"-0.016": 0.686633753138,
			"-0.015": 0.933677541999,
			"-0.014": 0.644680857697,
			"-0.013": 1.03410990962,
			"-0.012": 1.13498047973,
			"-0.011": 0.884658285158,
			"-0.01": 0.764338032299,
			"-0.009": 2.02949305284,
			"-0.008": 2.93374207943,
			"-0.007": 9.77133014293,
			"-0.006": 18.2476345201,
			"-0.005": 23.7825972406,
			"-0.004": 23.822248053,
			"-0.003": 24.6546474158,
			"-0.002": 21.067686014,
			"-0.001": 20.3271203409,
			"0.0": 16.2452158661,
			"0.001": 19.0906341331,
			"0.002": 19.5839919709,
			"0.003": 20.2297978781,
			"0.004": 15.2853487945,
			"0.005": 12.3157871972,
			"0.006": 8.63916795413,
			"0.007": 4.14578975538,
			"0.008": 4.38324898406,
			"0.009": 5.73664609036,
			"0.01": 6.15958737855,
			"0.011": 7.28672369387,
			"0.012": 3.72577089718,
			"0.013": 4.03669734678,
			"0.014": 1.694893033,
			"0.015": 0.090052097139,
			"0.016": 0.0,
			"0.017": 0.0,
			"0.018": 0.0,
			"0.019": 0.0,
			"0.02": 0.0,
			"0.021": 0.0,
			"0.022": 0.0,
			"0.023": 0.0,
			"0.024": 0.0,
			"0.025": 0.0
		}
	}
}
