{
	 "smiles": "CC1=C(SC(=N1)C(=C/C1=CC=C(Cl)C=C1Cl)C#N)N=NC1=CC=C(F)C=C1", 
	 "Tm": 412.15, 
	 "num_atms": 38, 
	 "gaussian": { 
		 "optdone": 1, 
		 "sigma_profile": "yes", 
		 "theory": "DFT", 
		 "functional": "B3LYP", 
		 "basiset": "6-31G**", 
		 "properties": { 
			 "R2extent": 21997.3718, 
			 "electric_dipole_moment_norm": 4.5411408985, 
			 "electric_quadrupole_moment_norm": 16.610587871, 
			 "total_energy": -2367.98162108, 
			 "HOMO_LUMO_gap": 0.10716, 
			 "cosmo_polarized_energy": -10.74, 
			 "cosmo_cavitation_energy": 51.39, 
			 "cosmo_dispersion_energy": -36.06, 
			 "cosmo_repulsion_energy": 2.62, 
			 "cosmo_total_nonelectrostatic_energy": 17.95, 
			 "SMD_solvation_energy": 7.86 
		},
		"coords": [
			{
				"x": -0.8755663955,
				"y": -1.6320071868,
				"z": 0.4605223237,
				"element": "C" 
			},
			{
				"x": -1.0171652245,
				"y": -0.1709129758,
				"z": 0.1630373564,
				"element": "C" 
			},
			{
				"x": -2.1825212913,
				"y": 0.5911654928,
				"z": 0.2789814102,
				"element": "C" 
			},
			{
				"x": -1.8670691055,
				"y": 2.2459769267,
				"z": -0.1754957759,
				"element": "S" 
			},
			{
				"x": -0.1974157024,
				"y": 1.8083208974,
				"z": -0.4906531964,
				"element": "C" 
			},
			{
				"x": 0.0640762621,
				"y": 0.5342541336,
				"z": -0.2657515727,
				"element": "N" 
			},
			{
				"x": 0.7389576386,
				"y": 2.8325089134,
				"z": -0.9562703321,
				"element": "C" 
			},
			{
				"x": 2.0760159042,
				"y": 2.8123943572,
				"z": -1.2856369166,
				"element": "C" 
			},
			{
				"x": 3.137795747,
				"y": 1.8228013186,
				"z": -1.3269205202,
				"element": "C" 
			},
			{
				"x": 2.9913026875,
				"y": 0.4602764797,
				"z": -0.9803217382,
				"element": "C" 
			},
			{
				"x": 4.0460350585,
				"y": -0.4401833075,
				"z": -1.0400504493,
				"element": "C" 
			},
			{
				"x": 5.3005330675,
				"y": 0.0037511207,
				"z": -1.4555867864,
				"element": "C" 
			},
			{
				"x": 6.6415752969,
				"y": -1.1157012426,
				"z": -1.5372950985,
				"element": "Cl" 
			},
			{
				"x": 5.5060805375,
				"y": 1.3362069909,
				"z": -1.8100994072,
				"element": "C" 
			},
			{
				"x": 4.438585366,
				"y": 2.2246416276,
				"z": -1.7444101029,
				"element": "C" 
			},
			{
				"x": 4.7936409675,
				"y": 3.8832089753,
				"z": -2.2105683742,
				"element": "Cl" 
			},
			{
				"x": 0.134235395,
				"y": 4.1348262091,
				"z": -1.1002926261,
				"element": "C" 
			},
			{
				"x": -0.3567651842,
				"y": 5.1838022953,
				"z": -1.2153456447,
				"element": "N" 
			},
			{
				"x": -3.4767922303,
				"y": 0.308347826,
				"z": 0.6649675788,
				"element": "N" 
			},
			{
				"x": -3.695858178,
				"y": -0.9010101239,
				"z": 0.9923110426,
				"element": "N" 
			},
			{
				"x": -5.0234290055,
				"y": -1.1680918868,
				"z": 1.3834523424,
				"element": "C" 
			},
			{
				"x": -6.0580208811,
				"y": -0.2125734792,
				"z": 1.4268919065,
				"element": "C" 
			},
			{
				"x": -7.3322074173,
				"y": -0.5863656842,
				"z": 1.8286700574,
				"element": "C" 
			},
			{
				"x": -7.5659441999,
				"y": -1.9159864836,
				"z": 2.1856080584,
				"element": "C" 
			},
			{
				"x": -8.8031755298,
				"y": -2.2729807829,
				"z": 2.5743929503,
				"element": "F" 
			},
			{
				"x": -6.5647113198,
				"y": -2.8813900338,
				"z": 2.1527296112,
				"element": "C" 
			},
			{
				"x": -5.289828888,
				"y": -2.4976637836,
				"z": 1.7485960784,
				"element": "C" 
			},
			{
				"x": 0.1549520572,
				"y": -1.9433299889,
				"z": 0.2784895727,
				"element": "H" 
			},
			{
				"x": -1.552946764,
				"y": -2.2262786116,
				"z": -0.1600410288,
				"element": "H" 
			},
			{
				"x": -1.146377598,
				"y": -1.8492300035,
				"z": 1.4980715155,
				"element": "H" 
			},
			{
				"x": 2.4237037997,
				"y": 3.7919078074,
				"z": -1.5943475818,
				"element": "H" 
			},
			{
				"x": 2.0130870611,
				"y": 0.124065768,
				"z": -0.6585295952,
				"element": "H" 
			},
			{
				"x": 3.8981903866,
				"y": -1.478738491,
				"z": -0.7667752794,
				"element": "H" 
			},
			{
				"x": 6.4814400758,
				"y": 1.6780359823,
				"z": -2.1324087785,
				"element": "H" 
			},
			{
				"x": -5.8396893257,
				"y": 0.8100868676,
				"z": 1.1427276088,
				"element": "H" 
			},
			{
				"x": -8.1485872769,
				"y": 0.1265420995,
				"z": 1.8722059391,
				"element": "H" 
			},
			{
				"x": -6.7928633224,
				"y": -3.9019934203,
				"z": 2.4388774354,
				"element": "H" 
			},
			{
				"x": -4.4774724685,
				"y": -3.2156846032,
				"z": 1.7072680172,
				"element": "H" 
			}
		],
		 "valence_orbital": [ 
			{
				"type": "occ",
				"energy": -0.27767,
				"method": "rhf"
			},
			{
				"type": "occ",
				"energy": -0.27351,
				"method": "rhf"
			},
			{
				"type": "occ",
				"energy": -0.2561,
				"method": "rhf"
			},
			{
				"type": "occ",
				"energy": -0.24499,
				"method": "rhf"
			},
			{
				"type": "occ",
				"energy": -0.22338,
				"method": "rhf"
			},
			{
				"type": "unocc",
				"energy": -0.11622,
				"method": "rhf"
			},
			{
				"type": "unocc",
				"energy": -0.08378,
				"method": "rhf"
			},
			{
				"type": "unocc",
				"energy": -0.03462,
				"method": "rhf"
			},
			{
				"type": "unocc",
				"energy": -0.02737,
				"method": "rhf"
			},
			{
				"type": "unocc",
				"energy": -0.02188,
				"method": "rhf"
			}
		],
		"cosmo_sigma_profile": { 
			"-0.025": 0.0,
			"-0.024": 0.0,
			"-0.023": 0.0,
			"-0.022": 0.0,
			"-0.021": 0.0,
			"-0.02": 0.0,
			"-0.019": 0.0,
			"-0.018": 0.0,
			"-0.017": 0.0,
			"-0.016": 0.0,
			"-0.015": 0.0,
			"-0.014": 0.0,
			"-0.013": 0.0,
			"-0.012": 0.0,
			"-0.011": 0.0,
			"-0.01": 0.0,
			"-0.009": 0.792363484834,
			"-0.008": 5.02767289503,
			"-0.007": 9.25829830701,
			"-0.006": 12.8606282188,
			"-0.005": 15.6731658798,
			"-0.004": 18.463978932,
			"-0.003": 27.3920980668,
			"-0.002": 35.1333189692,
			"-0.001": 53.5808930912,
			"0.0": 63.2593562672,
			"0.001": 53.1470955518,
			"0.002": 44.8848231881,
			"0.003": 33.427062411,
			"0.004": 24.7335852305,
			"0.005": 5.88467213019,
			"0.006": 3.39500939352,
			"0.007": 2.78434743312,
			"0.008": 2.71323444491,
			"0.009": 3.09585515705,
			"0.01": 2.66631594663,
			"0.011": 2.61547211883,
			"0.012": 2.20583035828,
			"0.013": 0.369375560221,
			"0.014": 0.0,
			"0.015": 0.0,
			"0.016": 0.0,
			"0.017": 0.0,
			"0.018": 0.0,
			"0.019": 0.0,
			"0.02": 0.0,
			"0.021": 0.0,
			"0.022": 0.0,
			"0.023": 0.0,
			"0.024": 0.0,
			"0.025": 0.0
		}
	}
}
