{
	 "smiles": "CCCCCCCCCCCCCCCCCC(=O)NN", 
	 "Tm": 388.15, 
	 "num_atms": 59, 
	 "gaussian": { 
		 "optdone": 1, 
		 "sigma_profile": "yes", 
		 "theory": "DFT", 
		 "functional": "B3LYP", 
		 "basiset": "6-31G**", 
		 "properties": { 
			 "R2extent": 14049.7018, 
			 "electric_dipole_moment_norm": 2.27700344752, 
			 "electric_quadrupole_moment_norm": 14.7291254048, 
			 "total_energy": -893.573741912, 
			 "HOMO_LUMO_gap": 0.26808, 
			 "cosmo_polarized_energy": -11.73, 
			 "cosmo_cavitation_energy": 56.36, 
			 "cosmo_dispersion_energy": -36.78, 
			 "cosmo_repulsion_energy": 2.93, 
			 "cosmo_total_nonelectrostatic_energy": 22.51, 
			 "SMD_solvation_energy": 7.91 
		},
		"coords": [
			{
				"x": -4.8879564072,
				"y": 0.4998612641,
				"z": -3.0600001657,
				"element": "C" 
			},
			{
				"x": -5.6822476,
				"y": -0.8073953304,
				"z": -3.1852419815,
				"element": "C" 
			},
			{
				"x": -5.0759631964,
				"y": -2.0317691672,
				"z": -2.465477462,
				"element": "C" 
			},
			{
				"x": -5.4698450863,
				"y": -2.224390658,
				"z": -0.9876324412,
				"element": "C" 
			},
			{
				"x": -4.9780434413,
				"y": -1.173976754,
				"z": 0.0258022048,
				"element": "C" 
			},
			{
				"x": -3.452164068,
				"y": -1.0101776151,
				"z": 0.1468198815,
				"element": "C" 
			},
			{
				"x": -2.7160949175,
				"y": -2.2636683191,
				"z": 0.6441345636,
				"element": "C" 
			},
			{
				"x": -1.1938466509,
				"y": -2.0930260074,
				"z": 0.7917358904,
				"element": "C" 
			},
			{
				"x": -0.763335733,
				"y": -1.117437305,
				"z": 1.8978423472,
				"element": "C" 
			},
			{
				"x": 0.7544629127,
				"y": -1.0779033718,
				"z": 2.1517682175,
				"element": "C" 
			},
			{
				"x": 1.624108347,
				"y": -0.5862925102,
				"z": 0.9808749118,
				"element": "C" 
			},
			{
				"x": 1.3304279868,
				"y": 0.8538789247,
				"z": 0.5292074826,
				"element": "C" 
			},
			{
				"x": 2.3392093831,
				"y": 1.4061241498,
				"z": -0.4951213293,
				"element": "C" 
			},
			{
				"x": 3.6826427786,
				"y": 1.8273661176,
				"z": 0.1219605632,
				"element": "C" 
			},
			{
				"x": 4.7073131209,
				"y": 2.3688336435,
				"z": -0.8907252165,
				"element": "C" 
			},
			{
				"x": 5.2467138667,
				"y": 1.3802650272,
				"z": -1.941626864,
				"element": "C" 
			},
			{
				"x": 6.1360385784,
				"y": 0.2356852456,
				"z": -1.3963213908,
				"element": "C" 
			},
			{
				"x": 5.3884305555,
				"y": -0.9137063934,
				"z": -0.7288942294,
				"element": "C" 
			},
			{
				"x": 5.3472423811,
				"y": -1.0942474539,
				"z": 0.4850517143,
				"element": "O" 
			},
			{
				"x": 4.7331219696,
				"y": -1.7527363896,
				"z": -1.5932426932,
				"element": "N" 
			},
			{
				"x": 4.0988113166,
				"y": -2.927605102,
				"z": -1.1374815827,
				"element": "N" 
			},
			{
				"x": -4.8126302957,
				"y": 0.8466588652,
				"z": -2.0256809261,
				"element": "H" 
			},
			{
				"x": -3.8674320484,
				"y": 0.3738953035,
				"z": -3.440166974,
				"element": "H" 
			},
			{
				"x": -5.3587321259,
				"y": 1.3002695577,
				"z": -3.6413558992,
				"element": "H" 
			},
			{
				"x": -5.7719961366,
				"y": -1.0442828172,
				"z": -4.2531585275,
				"element": "H" 
			},
			{
				"x": -6.7100890354,
				"y": -0.6513239039,
				"z": -2.82919093,
				"element": "H" 
			},
			{
				"x": -5.3996705413,
				"y": -2.9350821941,
				"z": -2.9983312066,
				"element": "H" 
			},
			{
				"x": -3.9823221263,
				"y": -2.0087612447,
				"z": -2.5679227641,
				"element": "H" 
			},
			{
				"x": -5.1212176386,
				"y": -3.2155117628,
				"z": -0.6697647649,
				"element": "H" 
			},
			{
				"x": -6.5662970552,
				"y": -2.2671207562,
				"z": -0.9284631391,
				"element": "H" 
			},
			{
				"x": -5.3784057643,
				"y": -1.4437842865,
				"z": 1.013174544,
				"element": "H" 
			},
			{
				"x": -5.4218393527,
				"y": -0.1999795069,
				"z": -0.2135853787,
				"element": "H" 
			},
			{
				"x": -3.2555645736,
				"y": -0.176880634,
				"z": 0.8327697366,
				"element": "H" 
			},
			{
				"x": -3.0294676518,
				"y": -0.7066224227,
				"z": -0.8205823538,
				"element": "H" 
			},
			{
				"x": -2.9048564104,
				"y": -3.0942002964,
				"z": -0.0475693962,
				"element": "H" 
			},
			{
				"x": -3.1408271574,
				"y": -2.5723233913,
				"z": 1.6107584605,
				"element": "H" 
			},
			{
				"x": -0.7489439803,
				"y": -3.0760037224,
				"z": 1.0010403609,
				"element": "H" 
			},
			{
				"x": -0.7777025357,
				"y": -1.7731194056,
				"z": -0.1735033393,
				"element": "H" 
			},
			{
				"x": -1.1237404686,
				"y": -0.1071645688,
				"z": 1.6690903465,
				"element": "H" 
			},
			{
				"x": -1.2618085901,
				"y": -1.4077383747,
				"z": 2.8332529171,
				"element": "H" 
			},
			{
				"x": 0.9481315132,
				"y": -0.4356926703,
				"z": 3.0217396391,
				"element": "H" 
			},
			{
				"x": 1.0895165617,
				"y": -2.0839347278,
				"z": 2.4400944181,
				"element": "H" 
			},
			{
				"x": 2.6774427626,
				"y": -0.6775696271,
				"z": 1.2710795146,
				"element": "H" 
			},
			{
				"x": 1.4918078219,
				"y": -1.2545516785,
				"z": 0.1166065286,
				"element": "H" 
			},
			{
				"x": 1.3110919356,
				"y": 1.5147954395,
				"z": 1.4081621992,
				"element": "H" 
			},
			{
				"x": 0.3231800103,
				"y": 0.8986395859,
				"z": 0.096552544,
				"element": "H" 
			},
			{
				"x": 1.9001086006,
				"y": 2.2760468228,
				"z": -1.0030523374,
				"element": "H" 
			},
			{
				"x": 2.4983312366,
				"y": 0.6496979136,
				"z": -1.2760795173,
				"element": "H" 
			},
			{
				"x": 4.125011495,
				"y": 0.9977957046,
				"z": 0.6813905866,
				"element": "H" 
			},
			{
				"x": 3.48667918,
				"y": 2.6195383021,
				"z": 0.8576461643,
				"element": "H" 
			},
			{
				"x": 4.2601520326,
				"y": 3.2165479053,
				"z": -1.4286937846,
				"element": "H" 
			},
			{
				"x": 5.563203475,
				"y": 2.7806075347,
				"z": -0.338957141,
				"element": "H" 
			},
			{
				"x": 5.8541945185,
				"y": 1.9514966178,
				"z": -2.6541394795,
				"element": "H" 
			},
			{
				"x": 4.4220598895,
				"y": 0.954622358,
				"z": -2.5263017675,
				"element": "H" 
			},
			{
				"x": 6.8411737177,
				"y": 0.6225406958,
				"z": -0.6553665891,
				"element": "H" 
			},
			{
				"x": 6.7273057372,
				"y": -0.1727743082,
				"z": -2.2264114539,
				"element": "H" 
			},
			{
				"x": 4.9564092355,
				"y": -1.751055252,
				"z": -2.5777998313,
				"element": "H" 
			},
			{
				"x": 3.2059642614,
				"y": -2.6501883695,
				"z": -0.7295698762,
				"element": "H" 
			},
			{
				"x": 4.654053407,
				"y": -3.27056868,
				"z": -0.3522430034,
				"element": "H" 
			}
		],
		 "valence_orbital": [ 
			{
				"type": "occ",
				"energy": -0.29526,
				"method": "rhf"
			},
			{
				"type": "occ",
				"energy": -0.29176,
				"method": "rhf"
			},
			{
				"type": "occ",
				"energy": -0.28455,
				"method": "rhf"
			},
			{
				"type": "occ",
				"energy": -0.25307,
				"method": "rhf"
			},
			{
				"type": "occ",
				"energy": -0.25109,
				"method": "rhf"
			},
			{
				"type": "unocc",
				"energy": 0.01699,
				"method": "rhf"
			},
			{
				"type": "unocc",
				"energy": 0.06706,
				"method": "rhf"
			},
			{
				"type": "unocc",
				"energy": 0.07704,
				"method": "rhf"
			},
			{
				"type": "unocc",
				"energy": 0.07894,
				"method": "rhf"
			},
			{
				"type": "unocc",
				"energy": 0.09367,
				"method": "rhf"
			}
		],
		"cosmo_sigma_profile": { 
			"-0.025": 0.0,
			"-0.024": 0.0,
			"-0.023": 0.0,
			"-0.022": 0.0,
			"-0.021": 0.0,
			"-0.02": 0.0,
			"-0.019": 0.0,
			"-0.018": 0.0,
			"-0.017": 0.0,
			"-0.016": 0.0,
			"-0.015": 0.0530611632226,
			"-0.014": 0.808097183349,
			"-0.013": 1.15063799441,
			"-0.012": 1.25892047592,
			"-0.011": 1.2093700124,
			"-0.01": 1.38881004061,
			"-0.009": 2.49656858823,
			"-0.008": 3.89549000427,
			"-0.007": 4.93511188206,
			"-0.006": 3.66940373207,
			"-0.005": 5.53067924689,
			"-0.004": 7.17451889075,
			"-0.003": 13.2520650749,
			"-0.002": 47.84179249,
			"-0.001": 87.1268128466,
			"0.0": 96.7382253673,
			"0.001": 81.1702609207,
			"0.002": 36.1032837502,
			"0.003": 5.14624344155,
			"0.004": 3.37540766301,
			"0.005": 2.54288004167,
			"0.006": 2.16425403324,
			"0.007": 2.96059167923,
			"0.008": 1.9761887252,
			"0.009": 1.6100165994,
			"0.01": 2.37863860104,
			"0.011": 1.60727195895,
			"0.012": 2.75118903325,
			"0.013": 2.58874993571,
			"0.014": 3.42157158401,
			"0.015": 1.79302769243,
			"0.016": 0.619333241399,
			"0.017": 0.35399301037,
			"0.018": 0.0305179086956,
			"0.019": 0.0,
			"0.02": 0.0,
			"0.021": 0.0,
			"0.022": 0.0,
			"0.023": 0.0,
			"0.024": 0.0,
			"0.025": 0.0
		}
	}
}
