{
	 "smiles": "CCCC1=CC(C)=CC(C)=C1", 
	 "Tm": 214.15, 
	 "num_atms": 27, 
	 "gaussian": { 
		 "optdone": 1, 
		 "sigma_profile": "yes", 
		 "theory": "DFT", 
		 "functional": "B3LYP", 
		 "basiset": "6-31G**", 
		 "properties": { 
			 "R2extent": 3446.168, 
			 "electric_dipole_moment_norm": 0.119145667147, 
			 "electric_quadrupole_moment_norm": 4.1327200994, 
			 "total_energy": -428.843458236, 
			 "HOMO_LUMO_gap": 0.23545, 
			 "cosmo_polarized_energy": -3.04, 
			 "cosmo_cavitation_energy": 28.87, 
			 "cosmo_dispersion_energy": -20.36, 
			 "cosmo_repulsion_energy": 1.67, 
			 "cosmo_total_nonelectrostatic_energy": 10.18, 
			 "SMD_solvation_energy": 4.82 
		},
		"coords": [
			{
				"x": 3.2868097894,
				"y": -2.0996185886,
				"z": 1.1165525412,
				"element": "C" 
			},
			{
				"x": 3.0695047411,
				"y": -0.7738872358,
				"z": 1.8515105191,
				"element": "C" 
			},
			{
				"x": 1.7323076523,
				"y": -0.0793363671,
				"z": 1.5098838416,
				"element": "C" 
			},
			{
				"x": 1.6262550897,
				"y": 0.3823216189,
				"z": 0.0702895041,
				"element": "C" 
			},
			{
				"x": 0.8604444662,
				"y": -0.3195248046,
				"z": -0.8631735356,
				"element": "C" 
			},
			{
				"x": 0.7729702101,
				"y": 0.0954633203,
				"z": -2.2010766756,
				"element": "C" 
			},
			{
				"x": -0.0569428345,
				"y": -0.6883652941,
				"z": -3.1918981293,
				"element": "C" 
			},
			{
				"x": 1.471280239,
				"y": 1.2396628379,
				"z": -2.5907831687,
				"element": "C" 
			},
			{
				"x": 2.2496406955,
				"y": 1.969899847,
				"z": -1.6794483882,
				"element": "C" 
			},
			{
				"x": 3.0014012706,
				"y": 3.2011111831,
				"z": -2.1307835261,
				"element": "C" 
			},
			{
				"x": 2.3142936348,
				"y": 1.5292932152,
				"z": -0.3565050048,
				"element": "C" 
			},
			{
				"x": 4.2461704733,
				"y": -2.5503414711,
				"z": 1.3912720911,
				"element": "H" 
			},
			{
				"x": 3.280082223,
				"y": -1.9585931243,
				"z": 0.0312671687,
				"element": "H" 
			},
			{
				"x": 2.4984639657,
				"y": -2.8210415295,
				"z": 1.362205123,
				"element": "H" 
			},
			{
				"x": 3.8955774268,
				"y": -0.0880214118,
				"z": 1.6237237237,
				"element": "H" 
			},
			{
				"x": 3.102761138,
				"y": -0.9465135765,
				"z": 2.934972329,
				"element": "H" 
			},
			{
				"x": 0.9061284471,
				"y": -0.7651879301,
				"z": 1.7358295216,
				"element": "H" 
			},
			{
				"x": 1.6096176771,
				"y": 0.784795469,
				"z": 2.1751672517,
				"element": "H" 
			},
			{
				"x": 0.3132243493,
				"y": -1.2045417932,
				"z": -0.543911863,
				"element": "H" 
			},
			{
				"x": 0.3802938416,
				"y": -1.6754911558,
				"z": -3.3853563752,
				"element": "H" 
			},
			{
				"x": -0.1338774168,
				"y": -0.1673200326,
				"z": -4.1503442746,
				"element": "H" 
			},
			{
				"x": -1.0731364977,
				"y": -0.8566113317,
				"z": -2.81807541,
				"element": "H" 
			},
			{
				"x": 1.4059428949,
				"y": 1.5766022378,
				"z": -3.6237048614,
				"element": "H" 
			},
			{
				"x": 3.4238347502,
				"y": 3.7456476612,
				"z": -1.2816075007,
				"element": "H" 
			},
			{
				"x": 3.8294348518,
				"y": 2.9388589026,
				"z": -2.800740933,
				"element": "H" 
			},
			{
				"x": 2.3501221799,
				"y": 3.8889594256,
				"z": -2.6813893569,
				"element": "H" 
			},
			{
				"x": 2.9051947416,
				"y": 2.0930799282,
				"z": 0.3631253885,
				"element": "H" 
			}
		],
		 "valence_orbital": [ 
			{
				"type": "occ",
				"energy": -0.3208,
				"method": "rhf"
			},
			{
				"type": "occ",
				"energy": -0.31997,
				"method": "rhf"
			},
			{
				"type": "occ",
				"energy": -0.31244,
				"method": "rhf"
			},
			{
				"type": "occ",
				"energy": -0.22792,
				"method": "rhf"
			},
			{
				"type": "occ",
				"energy": -0.2276,
				"method": "rhf"
			},
			{
				"type": "unocc",
				"energy": 0.00785,
				"method": "rhf"
			},
			{
				"type": "unocc",
				"energy": 0.00918,
				"method": "rhf"
			},
			{
				"type": "unocc",
				"energy": 0.09422,
				"method": "rhf"
			},
			{
				"type": "unocc",
				"energy": 0.11312,
				"method": "rhf"
			},
			{
				"type": "unocc",
				"energy": 0.12285,
				"method": "rhf"
			}
		],
		"cosmo_sigma_profile": { 
			"-0.025": 0.0,
			"-0.024": 0.0,
			"-0.023": 0.0,
			"-0.022": 0.0,
			"-0.021": 0.0,
			"-0.02": 0.0,
			"-0.019": 0.0,
			"-0.018": 0.0,
			"-0.017": 0.0,
			"-0.016": 0.0,
			"-0.015": 0.0,
			"-0.014": 0.0,
			"-0.013": 0.0,
			"-0.012": 0.0,
			"-0.011": 0.0,
			"-0.01": 0.0,
			"-0.009": 0.0,
			"-0.008": 0.0,
			"-0.007": 0.0,
			"-0.006": 0.0,
			"-0.005": 0.585439780247,
			"-0.004": 13.2702785013,
			"-0.003": 26.4343383243,
			"-0.002": 32.6622895948,
			"-0.001": 32.8262873133,
			"0.0": 37.2113454499,
			"0.001": 31.4263521663,
			"0.002": 16.0998013331,
			"0.003": 9.00021517118,
			"0.004": 6.06021762037,
			"0.005": 6.93298944595,
			"0.006": 5.97626059754,
			"0.007": 5.67941206687,
			"0.008": 0.986563532809,
			"0.009": 0.0,
			"0.01": 0.0,
			"0.011": 0.0,
			"0.012": 0.0,
			"0.013": 0.0,
			"0.014": 0.0,
			"0.015": 0.0,
			"0.016": 0.0,
			"0.017": 0.0,
			"0.018": 0.0,
			"0.019": 0.0,
			"0.02": 0.0,
			"0.021": 0.0,
			"0.022": 0.0,
			"0.023": 0.0,
			"0.024": 0.0,
			"0.025": 0.0
		}
	}
}
