{
	 "smiles": "COC1=NC(NN)=NC=C1", 
	 "Tm": 393.15, 
	 "num_atms": 18, 
	 "gaussian": { 
		 "optdone": 1, 
		 "sigma_profile": "yes", 
		 "theory": "DFT", 
		 "functional": "B3LYP", 
		 "basiset": "6-31G**", 
		 "properties": { 
			 "R2extent": 1714.814, 
			 "electric_dipole_moment_norm": 1.97931784966, 
			 "electric_quadrupole_moment_norm": 3.4109053373, 
			 "total_energy": -489.55498863, 
			 "HOMO_LUMO_gap": 0.20236, 
			 "cosmo_polarized_energy": -9.83, 
			 "cosmo_cavitation_energy": 22.31, 
			 "cosmo_dispersion_energy": -16.58, 
			 "cosmo_repulsion_energy": 1.37, 
			 "cosmo_total_nonelectrostatic_energy": 7.1, 
			 "SMD_solvation_energy": 3.32 
		},
		"coords": [
			{
				"x": -1.01576835,
				"y": 2.0153189381,
				"z": 0.1303216178,
				"element": "C" 
			},
			{
				"x": -1.6218372932,
				"y": 1.1120643013,
				"z": -0.799313633,
				"element": "O" 
			},
			{
				"x": -1.1523418259,
				"y": -0.1477588559,
				"z": -0.8401592964,
				"element": "C" 
			},
			{
				"x": -0.155371235,
				"y": -0.4999365484,
				"z": -0.0335059762,
				"element": "N" 
			},
			{
				"x": 0.2561234944,
				"y": -1.7805397145,
				"z": -0.1375435908,
				"element": "C" 
			},
			{
				"x": 1.2625817578,
				"y": -2.1800237668,
				"z": 0.6982581948,
				"element": "N" 
			},
			{
				"x": 2.022235579,
				"y": -1.2976658326,
				"z": 1.4801171823,
				"element": "N" 
			},
			{
				"x": -0.2218866293,
				"y": -2.7199848855,
				"z": -0.9721517966,
				"element": "N" 
			},
			{
				"x": -1.2250186528,
				"y": -2.3173496828,
				"z": -1.7614450333,
				"element": "C" 
			},
			{
				"x": -1.751570328,
				"y": -1.033560043,
				"z": -1.7500885005,
				"element": "C" 
			},
			{
				"x": 0.0475736347,
				"y": 2.1501507968,
				"z": -0.0874074757,
				"element": "H" 
			},
			{
				"x": -1.5491698878,
				"y": 2.9583172148,
				"z": 0.0054637955,
				"element": "H" 
			},
			{
				"x": -1.1196863469,
				"y": 1.6529525544,
				"z": 1.1568343149,
				"element": "H" 
			},
			{
				"x": 1.6867569897,
				"y": -3.0730832408,
				"z": 0.4968176958,
				"element": "H" 
			},
			{
				"x": 2.2387221376,
				"y": -0.4725553448,
				"z": 0.9202456155,
				"element": "H" 
			},
			{
				"x": 1.4321657876,
				"y": -0.9664958676,
				"z": 2.2417047924,
				"element": "H" 
			},
			{
				"x": -1.6250677751,
				"y": -3.0672597675,
				"z": -2.4422442758,
				"element": "H" 
			},
			{
				"x": -2.561941057,
				"y": -0.7187902553,
				"z": -2.3940036307,
				"element": "H" 
			}
		],
		 "valence_orbital": [ 
			{
				"type": "occ",
				"energy": -0.3089,
				"method": "rhf"
			},
			{
				"type": "occ",
				"energy": -0.27674,
				"method": "rhf"
			},
			{
				"type": "occ",
				"energy": -0.26952,
				"method": "rhf"
			},
			{
				"type": "occ",
				"energy": -0.25034,
				"method": "rhf"
			},
			{
				"type": "occ",
				"energy": -0.21632,
				"method": "rhf"
			},
			{
				"type": "unocc",
				"energy": -0.01396,
				"method": "rhf"
			},
			{
				"type": "unocc",
				"energy": 0.00786,
				"method": "rhf"
			},
			{
				"type": "unocc",
				"energy": 0.08432,
				"method": "rhf"
			},
			{
				"type": "unocc",
				"energy": 0.11419,
				"method": "rhf"
			},
			{
				"type": "unocc",
				"energy": 0.11678,
				"method": "rhf"
			}
		],
		"cosmo_sigma_profile": { 
			"-0.025": 0.0,
			"-0.024": 0.0,
			"-0.023": 0.0,
			"-0.022": 0.0,
			"-0.021": 0.0,
			"-0.02": 0.0,
			"-0.019": 0.0,
			"-0.018": 0.0,
			"-0.017": 0.0,
			"-0.016": 0.0,
			"-0.015": 0.0,
			"-0.014": 0.187160245085,
			"-0.013": 0.64520747649,
			"-0.012": 0.919629662085,
			"-0.011": 1.64438042489,
			"-0.01": 3.39749274576,
			"-0.009": 3.22957247303,
			"-0.008": 1.58477941329,
			"-0.007": 5.31392189692,
			"-0.006": 9.84494895215,
			"-0.005": 11.3036839687,
			"-0.004": 12.4115355427,
			"-0.003": 14.5261001201,
			"-0.002": 9.566246047,
			"-0.001": 9.65325360416,
			"0.0": 13.7329602777,
			"0.001": 12.2739057341,
			"0.002": 14.5270592807,
			"0.003": 10.222212409,
			"0.004": 7.80869745066,
			"0.005": 7.44967267755,
			"0.006": 5.19021324488,
			"0.007": 3.94636280593,
			"0.008": 3.15514848394,
			"0.009": 3.31255294663,
			"0.01": 2.68518548494,
			"0.011": 1.06373919227,
			"0.012": 1.69745738626,
			"0.013": 1.87530764927,
			"0.014": 1.09338571658,
			"0.015": 1.36948876403,
			"0.016": 1.06457364526,
			"0.017": 0.110965832805,
			"0.018": 0.0,
			"0.019": 0.0,
			"0.02": 0.0,
			"0.021": 0.0,
			"0.022": 0.0,
			"0.023": 0.0,
			"0.024": 0.0,
			"0.025": 0.0
		}
	}
}
