{
	 "smiles": "OCCN1CCNCC1", 
	 "Tm": 234.65, 
	 "num_atms": 23, 
	 "gaussian": { 
		 "optdone": 1, 
		 "sigma_profile": "yes", 
		 "theory": "DFT", 
		 "functional": "B3LYP", 
		 "basiset": "6-31G**", 
		 "properties": { 
			 "R2extent": 1744.9895, 
			 "electric_dipole_moment_norm": 1.56925972994, 
			 "electric_quadrupole_moment_norm": 6.6396356888, 
			 "total_energy": -421.766990841, 
			 "HOMO_LUMO_gap": 0.24294, 
			 "cosmo_polarized_energy": -9.33, 
			 "cosmo_cavitation_energy": 22.95, 
			 "cosmo_dispersion_energy": -17.4, 
			 "cosmo_repulsion_energy": 1.43, 
			 "cosmo_total_nonelectrostatic_energy": 6.97, 
			 "SMD_solvation_energy": -0.79 
		},
		"coords": [
			{
				"x": -1.3381737948,
				"y": 1.8968934452,
				"z": -0.3914339847,
				"element": "O" 
			},
			{
				"x": -0.0469713709,
				"y": 1.300185082,
				"z": -0.3210999165,
				"element": "C" 
			},
			{
				"x": 0.2146306482,
				"y": 0.8512888056,
				"z": 1.1236266625,
				"element": "C" 
			},
			{
				"x": -0.5274979554,
				"y": -0.2651281891,
				"z": 1.674628364,
				"element": "N" 
			},
			{
				"x": -0.2167518101,
				"y": -1.6118404239,
				"z": 1.2107253579,
				"element": "C" 
			},
			{
				"x": -1.1989077815,
				"y": -2.1421549824,
				"z": 0.1465357142,
				"element": "C" 
			},
			{
				"x": -2.6044694718,
				"y": -2.0031706089,
				"z": 0.5447588795,
				"element": "N" 
			},
			{
				"x": -2.9034389351,
				"y": -0.6232558022,
				"z": 0.9574004742,
				"element": "C" 
			},
			{
				"x": -1.9343329351,
				"y": -0.0898469704,
				"z": 2.0283157571,
				"element": "C" 
			},
			{
				"x": -1.5297602558,
				"y": 2.1013207418,
				"z": -1.314763613,
				"element": "H" 
			},
			{
				"x": 0.7354372955,
				"y": 2.0258766803,
				"z": -0.6014963067,
				"element": "H" 
			},
			{
				"x": 0.0391329623,
				"y": 0.4427866725,
				"z": -1.0061103629,
				"element": "H" 
			},
			{
				"x": 0.0439263628,
				"y": 1.724411365,
				"z": 1.7673459278,
				"element": "H" 
			},
			{
				"x": 1.2852450396,
				"y": 0.6121529199,
				"z": 1.1958611844,
				"element": "H" 
			},
			{
				"x": -0.2580905781,
				"y": -2.2974130613,
				"z": 2.0756437431,
				"element": "H" 
			},
			{
				"x": 0.8145788142,
				"y": -1.6346851284,
				"z": 0.8376837389,
				"element": "H" 
			},
			{
				"x": -1.0639296227,
				"y": -1.593149539,
				"z": -0.7950731169,
				"element": "H" 
			},
			{
				"x": -0.9945225872,
				"y": -3.1996239469,
				"z": -0.0637003573,
				"element": "H" 
			},
			{
				"x": -2.7798910452,
				"y": -2.6261115895,
				"z": 1.333373682,
				"element": "H" 
			},
			{
				"x": -2.8387393693,
				"y": 0.0199854441,
				"z": 0.0735452182,
				"element": "H" 
			},
			{
				"x": -3.9361466654,
				"y": -0.5854580778,
				"z": 1.325685889,
				"element": "H" 
			},
			{
				"x": -2.1240531512,
				"y": -0.6362831757,
				"z": 2.9694369916,
				"element": "H" 
			},
			{
				"x": -2.1221737928,
				"y": 0.9708203391,
				"z": 2.2220100736,
				"element": "H" 
			}
		],
		 "valence_orbital": [ 
			{
				"type": "occ",
				"energy": -0.32694,
				"method": "rhf"
			},
			{
				"type": "occ",
				"energy": -0.3231,
				"method": "rhf"
			},
			{
				"type": "occ",
				"energy": -0.27071,
				"method": "rhf"
			},
			{
				"type": "occ",
				"energy": -0.22923,
				"method": "rhf"
			},
			{
				"type": "occ",
				"energy": -0.17478,
				"method": "rhf"
			},
			{
				"type": "unocc",
				"energy": 0.06816,
				"method": "rhf"
			},
			{
				"type": "unocc",
				"energy": 0.09268,
				"method": "rhf"
			},
			{
				"type": "unocc",
				"energy": 0.10898,
				"method": "rhf"
			},
			{
				"type": "unocc",
				"energy": 0.11829,
				"method": "rhf"
			},
			{
				"type": "unocc",
				"energy": 0.13899,
				"method": "rhf"
			}
		],
		"cosmo_sigma_profile": { 
			"-0.025": 0.0,
			"-0.024": 0.0,
			"-0.023": 0.0,
			"-0.022": 0.0,
			"-0.021": 0.0,
			"-0.02": 0.0,
			"-0.019": 0.0,
			"-0.018": 0.0,
			"-0.017": 0.0,
			"-0.016": 0.184882641441,
			"-0.015": 0.835085275005,
			"-0.014": 1.25882625112,
			"-0.013": 0.949924637045,
			"-0.012": 0.387830519572,
			"-0.011": 1.15625171555,
			"-0.01": 1.17286193007,
			"-0.009": 1.12859167044,
			"-0.008": 1.85945970963,
			"-0.007": 2.03388454225,
			"-0.006": 2.85337445193,
			"-0.005": 3.1233099306,
			"-0.004": 8.00878017349,
			"-0.003": 28.4136914483,
			"-0.002": 27.2077855129,
			"-0.001": 22.8067716512,
			"0.0": 16.3620991778,
			"0.001": 10.0057702776,
			"0.002": 8.42506022654,
			"0.003": 5.18293144124,
			"0.004": 3.77757545314,
			"0.005": 2.44872934743,
			"0.006": 4.177427513,
			"0.007": 3.22716706021,
			"0.008": 2.58315506304,
			"0.009": 2.78079131606,
			"0.01": 2.20502851348,
			"0.011": 2.01026550432,
			"0.012": 2.59245729151,
			"0.013": 2.26978444606,
			"0.014": 1.82809234951,
			"0.015": 0.856245903557,
			"0.016": 0.391287906951,
			"0.017": 0.196236089626,
			"0.018": 0.816352210892,
			"0.019": 0.461083917559,
			"0.02": 0.0868606519234,
			"0.021": 0.0,
			"0.022": 0.0,
			"0.023": 0.0,
			"0.024": 0.0,
			"0.025": 0.0
		}
	}
}
