{
	 "smiles": "NC1=CC(CS(=O)(=O)C2=CC=CC=C2)=CC=C1", 
	 "Tm": 406.15, 
	 "num_atms": 30, 
	 "gaussian": { 
		 "optdone": 1, 
		 "sigma_profile": "yes", 
		 "theory": "DFT", 
		 "functional": "B3LYP", 
		 "basiset": "6-31G**", 
		 "properties": { 
			 "R2extent": 4532.9525, 
			 "electric_dipole_moment_norm": 5.18400452739, 
			 "electric_quadrupole_moment_norm": 26.7346376431, 
			 "total_energy": -1106.54825873, 
			 "HOMO_LUMO_gap": 0.17268, 
			 "cosmo_polarized_energy": -18.95, 
			 "cosmo_cavitation_energy": 35.19, 
			 "cosmo_dispersion_energy": -24.58, 
			 "cosmo_repulsion_energy": 1.88, 
			 "cosmo_total_nonelectrostatic_energy": 12.5, 
			 "SMD_solvation_energy": 5.01 
		},
		"coords": [
			{
				"x": -3.5645895534,
				"y": -0.4155344679,
				"z": -2.3746535301,
				"element": "N" 
			},
			{
				"x": -2.512511254,
				"y": -0.8953247429,
				"z": -1.5971793183,
				"element": "C" 
			},
			{
				"x": -2.2216781581,
				"y": -0.3154140228,
				"z": -0.3519382786,
				"element": "C" 
			},
			{
				"x": -1.1271717596,
				"y": -0.7492939365,
				"z": 0.403856265,
				"element": "C" 
			},
			{
				"x": -0.8342831392,
				"y": -0.1215922854,
				"z": 1.7380643753,
				"element": "C" 
			},
			{
				"x": -0.2108646827,
				"y": 1.6102889571,
				"z": 1.6841546805,
				"element": "S" 
			},
			{
				"x": 0.1267783888,
				"y": 1.961138433,
				"z": 3.075038694,
				"element": "O" 
			},
			{
				"x": -1.1760368357,
				"y": 2.4158301802,
				"z": 0.9158908317,
				"element": "O" 
			},
			{
				"x": 1.321962051,
				"y": 1.5295064434,
				"z": 0.7451572255,
				"element": "C" 
			},
			{
				"x": 2.525126817,
				"y": 1.3542426575,
				"z": 1.4319775185,
				"element": "C" 
			},
			{
				"x": 3.7141976123,
				"y": 1.2931602127,
				"z": 0.7047472788,
				"element": "C" 
			},
			{
				"x": 3.689316099,
				"y": 1.4079077447,
				"z": -0.6874982734,
				"element": "C" 
			},
			{
				"x": 2.4786191873,
				"y": 1.590854835,
				"z": -1.3602971106,
				"element": "C" 
			},
			{
				"x": 1.2824621068,
				"y": 1.6550452728,
				"z": -0.6451226974,
				"element": "C" 
			},
			{
				"x": -0.3098198152,
				"y": -1.7786406016,
				"z": -0.0811037605,
				"element": "C" 
			},
			{
				"x": -0.6025152434,
				"y": -2.3653625887,
				"z": -1.3132252049,
				"element": "C" 
			},
			{
				"x": -1.6886349941,
				"y": -1.9344039773,
				"z": -2.0684043372,
				"element": "C" 
			},
			{
				"x": -3.9521254904,
				"y": -1.0701558135,
				"z": -3.0393232923,
				"element": "H" 
			},
			{
				"x": -4.2793610537,
				"y": 0.0941976976,
				"z": -1.874719011,
				"element": "H" 
			},
			{
				"x": -2.8377200561,
				"y": 0.498809367,
				"z": 0.0189826861,
				"element": "H" 
			},
			{
				"x": -0.08704405,
				"y": -0.6796817306,
				"z": 2.3067494203,
				"element": "H" 
			},
			{
				"x": -1.7293475109,
				"y": -0.0132598819,
				"z": 2.3596808913,
				"element": "H" 
			},
			{
				"x": 2.5209961615,
				"y": 1.2911381031,
				"z": 2.5149457448,
				"element": "H" 
			},
			{
				"x": 4.658734725,
				"y": 1.1644133518,
				"z": 1.224765872,
				"element": "H" 
			},
			{
				"x": 4.6176450886,
				"y": 1.3615806293,
				"z": -1.2495771794,
				"element": "H" 
			},
			{
				"x": 2.4650323751,
				"y": 1.6886682281,
				"z": -2.4415694556,
				"element": "H" 
			},
			{
				"x": 0.3341008192,
				"y": 1.8121465362,
				"z": -1.146362235,
				"element": "H" 
			},
			{
				"x": 0.5395411067,
				"y": -2.1211453506,
				"z": 0.502328992,
				"element": "H" 
			},
			{
				"x": 0.0225379551,
				"y": -3.1701366911,
				"z": -1.6899137442,
				"element": "H" 
			},
			{
				"x": -1.9045468971,
				"y": -2.3954825589,
				"z": -3.0290530472,
				"element": "H" 
			}
		],
		 "valence_orbital": [ 
			{
				"type": "occ",
				"energy": -0.28275,
				"method": "rhf"
			},
			{
				"type": "occ",
				"energy": -0.26939,
				"method": "rhf"
			},
			{
				"type": "occ",
				"energy": -0.26591,
				"method": "rhf"
			},
			{
				"type": "occ",
				"energy": -0.24521,
				"method": "rhf"
			},
			{
				"type": "occ",
				"energy": -0.20765,
				"method": "rhf"
			},
			{
				"type": "unocc",
				"energy": -0.03497,
				"method": "rhf"
			},
			{
				"type": "unocc",
				"energy": -0.01782,
				"method": "rhf"
			},
			{
				"type": "unocc",
				"energy": -0.01282,
				"method": "rhf"
			},
			{
				"type": "unocc",
				"energy": 0.01039,
				"method": "rhf"
			},
			{
				"type": "unocc",
				"energy": 0.07023,
				"method": "rhf"
			}
		],
		"cosmo_sigma_profile": { 
			"-0.025": 0.0,
			"-0.024": 0.0,
			"-0.023": 0.0,
			"-0.022": 0.0,
			"-0.021": 0.0,
			"-0.02": 0.0,
			"-0.019": 0.0,
			"-0.018": 0.0,
			"-0.017": 0.0,
			"-0.016": 0.0,
			"-0.015": 0.0,
			"-0.014": 0.0,
			"-0.013": 0.328319510297,
			"-0.012": 2.68470048537,
			"-0.011": 2.78367507257,
			"-0.01": 2.78326640627,
			"-0.009": 4.23216147003,
			"-0.008": 6.91402416263,
			"-0.007": 13.5034389613,
			"-0.006": 20.2057173045,
			"-0.005": 20.6548020146,
			"-0.004": 19.2661424662,
			"-0.003": 17.009653898,
			"-0.002": 12.9540265801,
			"-0.001": 13.33058713,
			"0.0": 13.6618450254,
			"0.001": 16.94378585,
			"0.002": 17.2587808479,
			"0.003": 22.4591140709,
			"0.004": 14.7861896019,
			"0.005": 12.9154865783,
			"0.006": 8.80639323256,
			"0.007": 4.26200762726,
			"0.008": 3.47389949892,
			"0.009": 4.30844394877,
			"0.01": 5.58832486572,
			"0.011": 8.20981619361,
			"0.012": 8.33013402518,
			"0.013": 1.95323708959,
			"0.014": 0.710529630168,
			"0.015": 0.0202980769278,
			"0.016": 0.0,
			"0.017": 0.0,
			"0.018": 0.0,
			"0.019": 0.0,
			"0.02": 0.0,
			"0.021": 0.0,
			"0.022": 0.0,
			"0.023": 0.0,
			"0.024": 0.0,
			"0.025": 0.0
		}
	}
}
