{
	 "smiles": "FC(F)(F)COC(=O)NC1=C2N=CC=CC2=CC=C1", 
	 "Tm": 349.15, 
	 "num_atms": 28, 
	 "gaussian": { 
		 "optdone": 1, 
		 "sigma_profile": "yes", 
		 "theory": "DFT", 
		 "functional": "B3LYP", 
		 "basiset": "6-31G**", 
		 "properties": { 
			 "R2extent": 6345.5218, 
			 "electric_dipole_moment_norm": 3.95463815032, 
			 "electric_quadrupole_moment_norm": 15.9901360723, 
			 "total_energy": -1022.2102261, 
			 "HOMO_LUMO_gap": 0.15588, 
			 "cosmo_polarized_energy": -10.29, 
			 "cosmo_cavitation_energy": 34.49, 
			 "cosmo_dispersion_energy": -24.37, 
			 "cosmo_repulsion_energy": 1.79, 
			 "cosmo_total_nonelectrostatic_energy": 11.92, 
			 "SMD_solvation_energy": 7.1 
		},
		"coords": [
			{
				"x": -1.7852900286,
				"y": 0.4084341394,
				"z": -3.3540704098,
				"element": "F" 
			},
			{
				"x": -0.5846578501,
				"y": 0.9507041248,
				"z": -3.6233667967,
				"element": "C" 
			},
			{
				"x": -0.6430858828,
				"y": 1.5299721082,
				"z": -4.8400391233,
				"element": "F" 
			},
			{
				"x": 0.3142363566,
				"y": -0.0547521751,
				"z": -3.6847509207,
				"element": "F" 
			},
			{
				"x": -0.1922698564,
				"y": 1.9843005525,
				"z": -2.5838418379,
				"element": "C" 
			},
			{
				"x": -0.0657163569,
				"y": 1.3322596869,
				"z": -1.3271544711,
				"element": "O" 
			},
			{
				"x": -0.9731563106,
				"y": 1.6847821832,
				"z": -0.3648090991,
				"element": "C" 
			},
			{
				"x": -1.7681380347,
				"y": 2.596284285,
				"z": -0.4782136199,
				"element": "O" 
			},
			{
				"x": -0.862329412,
				"y": 0.9102429164,
				"z": 0.7542945409,
				"element": "N" 
			},
			{
				"x": -0.0746981785,
				"y": -0.2007535325,
				"z": 1.0801839923,
				"element": "C" 
			},
			{
				"x": -0.1976248017,
				"y": -0.6204836922,
				"z": 2.4519062065,
				"element": "C" 
			},
			{
				"x": -1.038546147,
				"y": 0.0873650023,
				"z": 3.2544740439,
				"element": "N" 
			},
			{
				"x": -1.1658361633,
				"y": -0.2829001396,
				"z": 4.5141204154,
				"element": "C" 
			},
			{
				"x": -0.4717770801,
				"y": -1.3789750886,
				"z": 5.0791155297,
				"element": "C" 
			},
			{
				"x": 0.3791595578,
				"y": -2.1058336841,
				"z": 4.2786254435,
				"element": "C" 
			},
			{
				"x": 0.5455226915,
				"y": -1.7468550596,
				"z": 2.916453673,
				"element": "C" 
			},
			{
				"x": 1.3945737081,
				"y": -2.4433747735,
				"z": 2.0185235054,
				"element": "C" 
			},
			{
				"x": 1.4816361926,
				"y": -2.0262528676,
				"z": 0.7104665682,
				"element": "C" 
			},
			{
				"x": 0.7534167441,
				"y": -0.9127884775,
				"z": 0.2286455651,
				"element": "C" 
			},
			{
				"x": 0.7774483996,
				"y": 2.4077124763,
				"z": -2.8556360654,
				"element": "H" 
			},
			{
				"x": -0.9507155891,
				"y": 2.7673873987,
				"z": -2.5363557912,
				"element": "H" 
			},
			{
				"x": -1.4478328725,
				"y": 1.2131704688,
				"z": 1.5288283958,
				"element": "H" 
			},
			{
				"x": -1.8478322402,
				"y": 0.3041886469,
				"z": 5.1269034719,
				"element": "H" 
			},
			{
				"x": -0.6190630798,
				"y": -1.631350585,
				"z": 6.1241757029,
				"element": "H" 
			},
			{
				"x": 0.9282610201,
				"y": -2.9569222355,
				"z": 4.6731969328,
				"element": "H" 
			},
			{
				"x": 1.9607281217,
				"y": -3.299362051,
				"z": 2.3740038697,
				"element": "H" 
			},
			{
				"x": 2.1227076967,
				"y": -2.5593732778,
				"z": 0.0145442577,
				"element": "H" 
			},
			{
				"x": 0.8416793956,
				"y": -0.6275263499,
				"z": -0.8094239798,
				"element": "H" 
			}
		],
		 "valence_orbital": [ 
			{
				"type": "occ",
				"energy": -0.29101,
				"method": "rhf"
			},
			{
				"type": "occ",
				"energy": -0.28796,
				"method": "rhf"
			},
			{
				"type": "occ",
				"energy": -0.27365,
				"method": "rhf"
			},
			{
				"type": "occ",
				"energy": -0.26046,
				"method": "rhf"
			},
			{
				"type": "occ",
				"energy": -0.21707,
				"method": "rhf"
			},
			{
				"type": "unocc",
				"energy": -0.06119,
				"method": "rhf"
			},
			{
				"type": "unocc",
				"energy": -0.02433,
				"method": "rhf"
			},
			{
				"type": "unocc",
				"energy": 0.00471,
				"method": "rhf"
			},
			{
				"type": "unocc",
				"energy": 0.05517,
				"method": "rhf"
			},
			{
				"type": "unocc",
				"energy": 0.08356,
				"method": "rhf"
			}
		],
		"cosmo_sigma_profile": { 
			"-0.025": 0.0,
			"-0.024": 0.0,
			"-0.023": 0.0,
			"-0.022": 0.0,
			"-0.021": 0.0,
			"-0.02": 0.0,
			"-0.019": 0.0,
			"-0.018": 0.0,
			"-0.017": 0.0,
			"-0.016": 0.0,
			"-0.015": 0.0,
			"-0.014": 0.0,
			"-0.013": 0.0,
			"-0.012": 0.0,
			"-0.011": 0.0,
			"-0.01": 0.429334935925,
			"-0.009": 3.21408784893,
			"-0.008": 4.56902359742,
			"-0.007": 11.8567274264,
			"-0.006": 17.1906911873,
			"-0.005": 14.0270254705,
			"-0.004": 13.2921457474,
			"-0.003": 13.355517933,
			"-0.002": 14.8071077869,
			"-0.001": 18.9960628494,
			"0.0": 21.7714833647,
			"0.001": 32.4555855958,
			"0.002": 45.381181127,
			"0.003": 31.2559765029,
			"0.004": 11.398016357,
			"0.005": 4.6863227367,
			"0.006": 2.39003182493,
			"0.007": 2.89441846972,
			"0.008": 2.61607513664,
			"0.009": 1.03054695169,
			"0.01": 2.42778180737,
			"0.011": 2.43794607631,
			"0.012": 4.48308128629,
			"0.013": 0.614933913616,
			"0.014": 0.0,
			"0.015": 0.0,
			"0.016": 0.0,
			"0.017": 0.0,
			"0.018": 0.0,
			"0.019": 0.0,
			"0.02": 0.0,
			"0.021": 0.0,
			"0.022": 0.0,
			"0.023": 0.0,
			"0.024": 0.0,
			"0.025": 0.0
		}
	}
}
