{
	 "smiles": "CC1=CC(=C(O)N=C1)[N+]([O-])=O", 
	 "Tm": 521.15, 
	 "num_atms": 17, 
	 "gaussian": { 
		 "optdone": 1, 
		 "sigma_profile": "yes", 
		 "theory": "DFT", 
		 "functional": "B3LYP", 
		 "basiset": "6-31G**", 
		 "properties": { 
			 "R2extent": 1996.8323, 
			 "electric_dipole_moment_norm": 3.93873114848, 
			 "electric_quadrupole_moment_norm": 7.92671069107, 
			 "total_energy": -567.33583702, 
			 "HOMO_LUMO_gap": 0.14976, 
			 "cosmo_polarized_energy": -10.51, 
			 "cosmo_cavitation_energy": 21.79, 
			 "cosmo_dispersion_energy": -16.53, 
			 "cosmo_repulsion_energy": 1.32, 
			 "cosmo_total_nonelectrostatic_energy": 6.57, 
			 "SMD_solvation_energy": 4.93 
		},
		"coords": [
			{
				"x": 1.1808533088,
				"y": -0.1878114488,
				"z": 2.5081859398,
				"element": "C" 
			},
			{
				"x": 0.7905326753,
				"y": 0.4854990299,
				"z": 1.2163940029,
				"element": "C" 
			},
			{
				"x": -0.2913126654,
				"y": 0.0690609246,
				"z": 0.4526777873,
				"element": "C" 
			},
			{
				"x": -0.6122747275,
				"y": 0.7550052852,
				"z": -0.7221557397,
				"element": "C" 
			},
			{
				"x": 0.1701281942,
				"y": 1.8703049493,
				"z": -1.1260835265,
				"element": "C" 
			},
			{
				"x": -0.0700358976,
				"y": 2.5747134026,
				"z": -2.2251295512,
				"element": "O" 
			},
			{
				"x": 1.2151084795,
				"y": 2.2632384069,
				"z": -0.3921905054,
				"element": "N" 
			},
			{
				"x": 1.5021791664,
				"y": 1.5959380832,
				"z": 0.7206771496,
				"element": "C" 
			},
			{
				"x": -1.7422403436,
				"y": 0.2998370173,
				"z": -1.5022692102,
				"element": "N" 
			},
			{
				"x": -2.0232651399,
				"y": 0.923529832,
				"z": -2.5509059387,
				"element": "O" 
			},
			{
				"x": -2.3818420472,
				"y": -0.6711838255,
				"z": -1.1142966134,
				"element": "O" 
			},
			{
				"x": 0.6644551061,
				"y": 0.2623140562,
				"z": 3.3645364524,
				"element": "H" 
			},
			{
				"x": 0.9277790241,
				"y": -1.2515808602,
				"z": 2.4951073471,
				"element": "H" 
			},
			{
				"x": 2.2555382059,
				"y": -0.0988216942,
				"z": 2.6919505676,
				"element": "H" 
			},
			{
				"x": -0.9024920317,
				"y": -0.7801602442,
				"z": 0.7369005065,
				"element": "H" 
			},
			{
				"x": -0.8590358335,
				"y": 2.1638394622,
				"z": -2.6526065379,
				"element": "H" 
			},
			{
				"x": 2.3689245261,
				"y": 1.9604776235,
				"z": 1.2723078699,
				"element": "H" 
			}
		],
		 "valence_orbital": [ 
			{
				"type": "occ",
				"energy": -0.32961,
				"method": "rhf"
			},
			{
				"type": "occ",
				"energy": -0.31656,
				"method": "rhf"
			},
			{
				"type": "occ",
				"energy": -0.31293,
				"method": "rhf"
			},
			{
				"type": "occ",
				"energy": -0.28389,
				"method": "rhf"
			},
			{
				"type": "occ",
				"energy": -0.25778,
				"method": "rhf"
			},
			{
				"type": "unocc",
				"energy": -0.10802,
				"method": "rhf"
			},
			{
				"type": "unocc",
				"energy": -0.03514,
				"method": "rhf"
			},
			{
				"type": "unocc",
				"energy": -0.01207,
				"method": "rhf"
			},
			{
				"type": "unocc",
				"energy": 0.08326,
				"method": "rhf"
			},
			{
				"type": "unocc",
				"energy": 0.10587,
				"method": "rhf"
			}
		],
		"cosmo_sigma_profile": { 
			"-0.025": 0.0,
			"-0.024": 0.0,
			"-0.023": 0.0,
			"-0.022": 0.0,
			"-0.021": 0.0,
			"-0.02": 0.0,
			"-0.019": 0.0,
			"-0.018": 0.0,
			"-0.017": 0.0,
			"-0.016": 0.0,
			"-0.015": 0.0,
			"-0.014": 0.0,
			"-0.013": 0.0,
			"-0.012": 0.0,
			"-0.011": 0.0619725146513,
			"-0.01": 0.621082739119,
			"-0.009": 1.2842494213,
			"-0.008": 5.10255697583,
			"-0.007": 7.91369052666,
			"-0.006": 10.0477377883,
			"-0.005": 12.3592664249,
			"-0.004": 13.318643474,
			"-0.003": 17.0793339812,
			"-0.002": 17.1090144428,
			"-0.001": 17.872485941,
			"0.0": 11.1268408445,
			"0.001": 5.29041781278,
			"0.002": 4.16497596206,
			"0.003": 4.24872591533,
			"0.004": 5.20668010957,
			"0.005": 3.75709078845,
			"0.006": 7.16201222415,
			"0.007": 8.3937534105,
			"0.008": 6.55414781734,
			"0.009": 5.23326662462,
			"0.01": 3.77278953538,
			"0.011": 2.94145668742,
			"0.012": 1.35222430333,
			"0.013": 0.99792489381,
			"0.014": 1.21215930913,
			"0.015": 0.452048379867,
			"0.016": 0.0,
			"0.017": 0.0,
			"0.018": 0.0,
			"0.019": 0.0,
			"0.02": 0.0,
			"0.021": 0.0,
			"0.022": 0.0,
			"0.023": 0.0,
			"0.024": 0.0,
			"0.025": 0.0
		}
	}
}
