{
	 "smiles": "ClCC(=O)C1=CC2=C(CC3=C2C=C(C=C3)C(=O)CCl)C=C1", 
	 "Tm": 474.15, 
	 "num_atms": 33, 
	 "gaussian": { 
		 "optdone": 1, 
		 "sigma_profile": "yes", 
		 "theory": "DFT", 
		 "functional": "B3LYP", 
		 "basiset": "6-31G**", 
		 "properties": { 
			 "R2extent": 10127.0986, 
			 "electric_dipole_moment_norm": 4.31863336948, 
			 "electric_quadrupole_moment_norm": 34.6275123528, 
			 "total_energy": -1725.88701647, 
			 "HOMO_LUMO_gap": 0.16044, 
			 "cosmo_polarized_energy": -19.4, 
			 "cosmo_cavitation_energy": 41.37, 
			 "cosmo_dispersion_energy": -29.41, 
			 "cosmo_repulsion_energy": 2.26, 
			 "cosmo_total_nonelectrostatic_energy": 14.21, 
			 "SMD_solvation_energy": 6.61 
		},
		"coords": [
			{
				"x": -2.3207158048,
				"y": 3.7555661147,
				"z": 3.4785026852,
				"element": "Cl" 
			},
			{
				"x": -1.584731074,
				"y": 2.5664423437,
				"z": 2.3628979337,
				"element": "C" 
			},
			{
				"x": -1.2931165018,
				"y": 1.2144044082,
				"z": 3.026994315,
				"element": "C" 
			},
			{
				"x": -1.5449454631,
				"y": 1.0094921255,
				"z": 4.1979713886,
				"element": "O" 
			},
			{
				"x": -0.6795533092,
				"y": 0.1565607322,
				"z": 2.158604643,
				"element": "C" 
			},
			{
				"x": -0.382817673,
				"y": 0.3559325691,
				"z": 0.8003081906,
				"element": "C" 
			},
			{
				"x": 0.1881223654,
				"y": -0.6853002424,
				"z": 0.0696795029,
				"element": "C" 
			},
			{
				"x": 0.4674443323,
				"y": -1.9234324932,
				"z": 0.68506778,
				"element": "C" 
			},
			{
				"x": 1.0853834276,
				"y": -2.8731861705,
				"z": -0.3188206853,
				"element": "C" 
			},
			{
				"x": 1.1306966721,
				"y": -2.0440412512,
				"z": -1.5843799172,
				"element": "C" 
			},
			{
				"x": 0.5976534,
				"y": -0.7607547776,
				"z": -1.3403392593,
				"element": "C" 
			},
			{
				"x": 0.532286876,
				"y": 0.1855636661,
				"z": -2.3614069173,
				"element": "C" 
			},
			{
				"x": 1.0069149685,
				"y": -0.1545306809,
				"z": -3.6385070646,
				"element": "C" 
			},
			{
				"x": 1.5387104577,
				"y": -1.4374109902,
				"z": -3.8699821453,
				"element": "C" 
			},
			{
				"x": 1.6032164783,
				"y": -2.3835843952,
				"z": -2.8494281455,
				"element": "C" 
			},
			{
				"x": 0.9517253372,
				"y": 0.7831734507,
				"z": -4.7978990768,
				"element": "C" 
			},
			{
				"x": 1.3199091696,
				"y": 0.4512378009,
				"z": -5.9130175109,
				"element": "O" 
			},
			{
				"x": 0.3770727184,
				"y": 2.1928187015,
				"z": -4.6191878557,
				"element": "C" 
			},
			{
				"x": 1.4590142166,
				"y": 3.2495569892,
				"z": -3.6138583318,
				"element": "Cl" 
			},
			{
				"x": 0.1740590716,
				"y": -2.1243221183,
				"z": 2.0310371488,
				"element": "C" 
			},
			{
				"x": -0.3983115322,
				"y": -1.0839993018,
				"z": 2.7605400003,
				"element": "C" 
			},
			{
				"x": -2.2709702412,
				"y": 2.4300761434,
				"z": 1.5231505531,
				"element": "H" 
			},
			{
				"x": -0.6584600149,
				"y": 3.0004752622,
				"z": 1.9774888116,
				"element": "H" 
			},
			{
				"x": -0.5887270524,
				"y": 1.3050403641,
				"z": 0.3154838302,
				"element": "H" 
			},
			{
				"x": 0.4854228026,
				"y": -3.7841223144,
				"z": -0.4463079854,
				"element": "H" 
			},
			{
				"x": 2.0858406684,
				"y": -3.2034259227,
				"z": -0.0090607784,
				"element": "H" 
			},
			{
				"x": 0.13641812,
				"y": 1.1756967158,
				"z": -2.1629393706,
				"element": "H" 
			},
			{
				"x": 1.8938182068,
				"y": -1.6668107955,
				"z": -4.8686756108,
				"element": "H" 
			},
			{
				"x": 2.0163475205,
				"y": -3.369476943,
				"z": -3.0440936801,
				"element": "H" 
			},
			{
				"x": 0.3053900111,
				"y": 2.6508370012,
				"z": -5.6036630959,
				"element": "H" 
			},
			{
				"x": -0.6005380933,
				"y": 2.1816425186,
				"z": -4.1332356735,
				"element": "H" 
			},
			{
				"x": 0.3863318352,
				"y": -3.07530468,
				"z": 2.5119093952,
				"element": "H" 
			},
			{
				"x": -0.6404918961,
				"y": -1.20331383,
				"z": 3.8108669262,
				"element": "H" 
			}
		],
		 "valence_orbital": [ 
			{
				"type": "occ",
				"energy": -0.27677,
				"method": "rhf"
			},
			{
				"type": "occ",
				"energy": -0.26951,
				"method": "rhf"
			},
			{
				"type": "occ",
				"energy": -0.26737,
				"method": "rhf"
			},
			{
				"type": "occ",
				"energy": -0.26721,
				"method": "rhf"
			},
			{
				"type": "occ",
				"energy": -0.24072,
				"method": "rhf"
			},
			{
				"type": "unocc",
				"energy": -0.08028,
				"method": "rhf"
			},
			{
				"type": "unocc",
				"energy": -0.06984,
				"method": "rhf"
			},
			{
				"type": "unocc",
				"energy": -0.05398,
				"method": "rhf"
			},
			{
				"type": "unocc",
				"energy": -0.00999,
				"method": "rhf"
			},
			{
				"type": "unocc",
				"energy": 0.00683,
				"method": "rhf"
			}
		],
		"cosmo_sigma_profile": { 
			"-0.025": 0.0,
			"-0.024": 0.0,
			"-0.023": 0.0,
			"-0.022": 0.0,
			"-0.021": 0.0,
			"-0.02": 0.0,
			"-0.019": 0.0,
			"-0.018": 0.0,
			"-0.017": 0.0,
			"-0.016": 0.0,
			"-0.015": 0.0,
			"-0.014": 0.0,
			"-0.013": 0.0,
			"-0.012": 0.0,
			"-0.011": 0.0,
			"-0.01": 1.25730280137,
			"-0.009": 11.8853209894,
			"-0.008": 12.5252551586,
			"-0.007": 13.2217312657,
			"-0.006": 18.8794687197,
			"-0.005": 21.7108268683,
			"-0.004": 21.9828455297,
			"-0.003": 16.0077829989,
			"-0.002": 14.6195860123,
			"-0.001": 18.0150741706,
			"0.0": 18.9825804383,
			"0.001": 26.6000409966,
			"0.002": 29.4035026954,
			"0.003": 34.348970449,
			"0.004": 16.491864779,
			"0.005": 16.2053260073,
			"0.006": 12.7240753764,
			"0.007": 4.46725451449,
			"0.008": 4.34140013459,
			"0.009": 4.38080063069,
			"0.01": 5.67788973555,
			"0.011": 8.24395537649,
			"0.012": 3.00811631761,
			"0.013": 1.12365079399,
			"0.014": 0.000902482949536,
			"0.015": 0.0,
			"0.016": 0.0,
			"0.017": 0.0,
			"0.018": 0.0,
			"0.019": 0.0,
			"0.02": 0.0,
			"0.021": 0.0,
			"0.022": 0.0,
			"0.023": 0.0,
			"0.024": 0.0,
			"0.025": 0.0
		}
	}
}
