{
	 "smiles": "OC1=CC=C(C=C1)C1=CC2=CC=CC=C2C(O1)C1=CC=CC=C1", 
	 "Tm": 394.15, 
	 "num_atms": 39, 
	 "gaussian": { 
		 "optdone": 1, 
		 "sigma_profile": "yes", 
		 "theory": "DFT", 
		 "functional": "B3LYP", 
		 "basiset": "6-31G**", 
		 "properties": { 
			 "R2extent": 8874.2822, 
			 "electric_dipole_moment_norm": 1.65820617837, 
			 "electric_quadrupole_moment_norm": 10.7113588634, 
			 "total_energy": -960.318233285, 
			 "HOMO_LUMO_gap": 0.14835, 
			 "cosmo_polarized_energy": -13.29, 
			 "cosmo_cavitation_energy": 42.83, 
			 "cosmo_dispersion_energy": -30.24, 
			 "cosmo_repulsion_energy": 2.27, 
			 "cosmo_total_nonelectrostatic_energy": 14.86, 
			 "SMD_solvation_energy": 7.12 
		},
		"coords": [
			{
				"x": -3.1894430969,
				"y": -3.4709420974,
				"z": -4.4105177409,
				"element": "O" 
			},
			{
				"x": -2.7441325972,
				"y": -2.7659916648,
				"z": -3.3307603024,
				"element": "C" 
			},
			{
				"x": -3.3698191617,
				"y": -3.0061641874,
				"z": -2.0999550468,
				"element": "C" 
			},
			{
				"x": -2.953021801,
				"y": -2.321371955,
				"z": -0.9677043019,
				"element": "C" 
			},
			{
				"x": -1.9176087316,
				"y": -1.3682017782,
				"z": -1.0269097327,
				"element": "C" 
			},
			{
				"x": -1.2958517421,
				"y": -1.1485339297,
				"z": -2.2673008592,
				"element": "C" 
			},
			{
				"x": -1.70125751,
				"y": -1.8372303942,
				"z": -3.4070948828,
				"element": "C" 
			},
			{
				"x": -1.481855026,
				"y": -0.623013423,
				"z": 0.1634916879,
				"element": "C" 
			},
			{
				"x": -2.1599586351,
				"y": -0.4958065407,
				"z": 1.3311952563,
				"element": "C" 
			},
			{
				"x": -1.5112483374,
				"y": 0.0949827903,
				"z": 2.4892575457,
				"element": "C" 
			},
			{
				"x": -1.9797144329,
				"y": -0.0832553389,
				"z": 3.8004895465,
				"element": "C" 
			},
			{
				"x": -1.2805115417,
				"y": 0.4524553956,
				"z": 4.8810235226,
				"element": "C" 
			},
			{
				"x": -0.0993240325,
				"y": 1.1659815337,
				"z": 4.6686252285,
				"element": "C" 
			},
			{
				"x": 0.3746758621,
				"y": 1.3559426495,
				"z": 3.3662266942,
				"element": "C" 
			},
			{
				"x": -0.3262993839,
				"y": 0.8356146143,
				"z": 2.281422103,
				"element": "C" 
			},
			{
				"x": 0.0316841425,
				"y": 1.1049366776,
				"z": 0.8285316485,
				"element": "C" 
			},
			{
				"x": -0.2385140069,
				"y": -0.0630601262,
				"z": 0.0161623295,
				"element": "O" 
			},
			{
				"x": 1.4689608869,
				"y": 1.50082179,
				"z": 0.5751930478,
				"element": "C" 
			},
			{
				"x": 2.4880902694,
				"y": 0.5394562559,
				"z": 0.5946701054,
				"element": "C" 
			},
			{
				"x": 3.8135493102,
				"y": 0.9144463675,
				"z": 0.3809666854,
				"element": "C" 
			},
			{
				"x": 4.1382849988,
				"y": 2.2551302752,
				"z": 0.1555348821,
				"element": "C" 
			},
			{
				"x": 3.1288365195,
				"y": 3.2177677905,
				"z": 0.1378637685,
				"element": "C" 
			},
			{
				"x": 1.7996763892,
				"y": 2.8393248847,
				"z": 0.3416951034,
				"element": "C" 
			},
			{
				"x": -2.6714164482,
				"y": -3.2219206139,
				"z": -5.187095732,
				"element": "H" 
			},
			{
				"x": -4.1655324761,
				"y": -3.7420451913,
				"z": -2.0515105383,
				"element": "H" 
			},
			{
				"x": -3.4264313827,
				"y": -2.5444403957,
				"z": -0.0171281794,
				"element": "H" 
			},
			{
				"x": -0.489288366,
				"y": -0.4275948316,
				"z": -2.3301304472,
				"element": "H" 
			},
			{
				"x": -1.2083505258,
				"y": -1.6497007113,
				"z": -4.3590414486,
				"element": "H" 
			},
			{
				"x": -3.1507169839,
				"y": -0.9216718481,
				"z": 1.4344034851,
				"element": "H" 
			},
			{
				"x": -2.8888075337,
				"y": -0.6555355648,
				"z": 3.9673074393,
				"element": "H" 
			},
			{
				"x": -1.6549726148,
				"y": 0.3079192652,
				"z": 5.8906432738,
				"element": "H" 
			},
			{
				"x": 0.4477993675,
				"y": 1.5817180883,
				"z": 5.5095440996,
				"element": "H" 
			},
			{
				"x": 1.2849142224,
				"y": 1.9227037095,
				"z": 3.1968654472,
				"element": "H" 
			},
			{
				"x": -0.630439245,
				"y": 1.9068565686,
				"z": 0.459565175,
				"element": "H" 
			},
			{
				"x": 2.2312184457,
				"y": -0.5010277184,
				"z": 0.7649333881,
				"element": "H" 
			},
			{
				"x": 4.5954323015,
				"y": 0.1602517318,
				"z": 0.3914951526,
				"element": "H" 
			},
			{
				"x": 5.1720501459,
				"y": 2.545619377,
				"z": -0.008829007,
				"element": "H" 
			},
			{
				"x": 3.3717912633,
				"y": 4.2610948031,
				"z": -0.0423326422,
				"element": "H" 
			},
			{
				"x": 1.0132514879,
				"y": 3.5897837421,
				"z": 0.3163042453,
				"element": "H" 
			}
		],
		 "valence_orbital": [ 
			{
				"type": "occ",
				"energy": -0.25204,
				"method": "rhf"
			},
			{
				"type": "occ",
				"energy": -0.24728,
				"method": "rhf"
			},
			{
				"type": "occ",
				"energy": -0.24155,
				"method": "rhf"
			},
			{
				"type": "occ",
				"energy": -0.23509,
				"method": "rhf"
			},
			{
				"type": "occ",
				"energy": -0.18701,
				"method": "rhf"
			},
			{
				"type": "unocc",
				"energy": -0.03866,
				"method": "rhf"
			},
			{
				"type": "unocc",
				"energy": -0.00604,
				"method": "rhf"
			},
			{
				"type": "unocc",
				"energy": -0.00391,
				"method": "rhf"
			},
			{
				"type": "unocc",
				"energy": -0.00198,
				"method": "rhf"
			},
			{
				"type": "unocc",
				"energy": 0.00363,
				"method": "rhf"
			}
		],
		"cosmo_sigma_profile": { 
			"-0.025": 0.0,
			"-0.024": 0.0,
			"-0.023": 0.0,
			"-0.022": 0.0,
			"-0.021": 0.0,
			"-0.02": 0.0,
			"-0.019": 0.0,
			"-0.018": 0.44160609383,
			"-0.017": 1.29620389829,
			"-0.016": 1.03555805874,
			"-0.015": 0.929095853564,
			"-0.014": 1.30501944617,
			"-0.013": 1.19427642912,
			"-0.012": 0.644353602341,
			"-0.011": 0.708065590937,
			"-0.01": 1.22656495484,
			"-0.009": 1.34769798711,
			"-0.008": 0.67964128007,
			"-0.007": 4.41382337335,
			"-0.006": 16.5564638842,
			"-0.005": 26.681006796,
			"-0.004": 28.8076237539,
			"-0.003": 26.3172512346,
			"-0.002": 19.4646481726,
			"-0.001": 20.2363721028,
			"0.0": 18.4754760975,
			"0.001": 21.9411124863,
			"0.002": 24.052788052,
			"0.003": 30.8326805241,
			"0.004": 35.8171062078,
			"0.005": 33.3762128772,
			"0.006": 14.7131944041,
			"0.007": 3.1501304882,
			"0.008": 2.30237002378,
			"0.009": 1.48237108731,
			"0.01": 1.77246720661,
			"0.011": 1.73888344195,
			"0.012": 0.263120686815,
			"0.013": 0.0,
			"0.014": 0.0,
			"0.015": 0.0,
			"0.016": 0.0,
			"0.017": 0.0,
			"0.018": 0.0,
			"0.019": 0.0,
			"0.02": 0.0,
			"0.021": 0.0,
			"0.022": 0.0,
			"0.023": 0.0,
			"0.024": 0.0,
			"0.025": 0.0
		}
	}
}
