{
	 "smiles": "NN1C(=O)NC2(CCCCC2)C1=O", 
	 "Tm": 438.15, 
	 "num_atms": 26, 
	 "gaussian": { 
		 "optdone": 1, 
		 "sigma_profile": "yes", 
		 "theory": "DFT", 
		 "functional": "B3LYP", 
		 "basiset": "6-31G**", 
		 "properties": { 
			 "R2extent": 2474.7246, 
			 "electric_dipole_moment_norm": 2.73839925869, 
			 "electric_quadrupole_moment_norm": 11.0700119761, 
			 "total_energy": -627.400179284, 
			 "HOMO_LUMO_gap": 0.25069, 
			 "cosmo_polarized_energy": -17.77, 
			 "cosmo_cavitation_energy": 27.49, 
			 "cosmo_dispersion_energy": -20.21, 
			 "cosmo_repulsion_energy": 1.61, 
			 "cosmo_total_nonelectrostatic_energy": 8.89, 
			 "SMD_solvation_energy": 5.53 
		},
		"coords": [
			{
				"x": 2.9512091197,
				"y": -0.0660372602,
				"z": 0.3930455895,
				"element": "N" 
			},
			{
				"x": 1.7564205321,
				"y": -0.4894956118,
				"z": -0.1951385508,
				"element": "N" 
			},
			{
				"x": 1.6355010354,
				"y": -1.7055812558,
				"z": -0.910595394,
				"element": "C" 
			},
			{
				"x": 2.5251658089,
				"y": -2.5257069476,
				"z": -1.0293729827,
				"element": "O" 
			},
			{
				"x": 0.3604642671,
				"y": -1.721472317,
				"z": -1.4040285147,
				"element": "N" 
			},
			{
				"x": -0.4762343545,
				"y": -0.6277741316,
				"z": -0.8931774292,
				"element": "C" 
			},
			{
				"x": -1.1777461689,
				"y": 0.1600116194,
				"z": -2.0433251174,
				"element": "C" 
			},
			{
				"x": -2.6362881216,
				"y": 0.5453933596,
				"z": -1.7281727038,
				"element": "C" 
			},
			{
				"x": -2.7718722111,
				"y": 1.0540349747,
				"z": -0.2883004582,
				"element": "C" 
			},
			{
				"x": -2.4026408884,
				"y": -0.048439331,
				"z": 0.7352530433,
				"element": "C" 
			},
			{
				"x": -1.5153528287,
				"y": -1.1552909602,
				"z": 0.1272519499,
				"element": "C" 
			},
			{
				"x": 0.5789667038,
				"y": 0.2395768198,
				"z": -0.1685746323,
				"element": "C" 
			},
			{
				"x": 0.4056872306,
				"y": 1.33618087,
				"z": 0.3180932923,
				"element": "O" 
			},
			{
				"x": 3.6243924546,
				"y": 0.1143978845,
				"z": -0.350302654,
				"element": "H" 
			},
			{
				"x": 3.3146631826,
				"y": -0.8500739031,
				"z": 0.9317481924,
				"element": "H" 
			},
			{
				"x": -0.0266377207,
				"y": -2.5926383607,
				"z": -1.7371071022,
				"element": "H" 
			},
			{
				"x": -1.1340444813,
				"y": -0.4537752651,
				"z": -2.9490816683,
				"element": "H" 
			},
			{
				"x": -0.6016399385,
				"y": 1.0678001985,
				"z": -2.2509786845,
				"element": "H" 
			},
			{
				"x": -2.9643851869,
				"y": 1.3095551198,
				"z": -2.4413737145,
				"element": "H" 
			},
			{
				"x": -3.2966310044,
				"y": -0.3185924821,
				"z": -1.8822308745,
				"element": "H" 
			},
			{
				"x": -2.0951903166,
				"y": 1.9039696479,
				"z": -0.1548196666,
				"element": "H" 
			},
			{
				"x": -3.788784234,
				"y": 1.416717183,
				"z": -0.1042144004,
				"element": "H" 
			},
			{
				"x": -1.8904622096,
				"y": 0.4046767049,
				"z": 1.5882323931,
				"element": "H" 
			},
			{
				"x": -3.3082299526,
				"y": -0.5252820323,
				"z": 1.1274896202,
				"element": "H" 
			},
			{
				"x": -0.9993302543,
				"y": -1.7153186697,
				"z": 0.9149977327,
				"element": "H" 
			},
			{
				"x": -2.1408004631,
				"y": -1.8809358536,
				"z": -0.4092172652,
				"element": "H" 
			}
		],
		 "valence_orbital": [ 
			{
				"type": "occ",
				"energy": -0.29519,
				"method": "rhf"
			},
			{
				"type": "occ",
				"energy": -0.2869,
				"method": "rhf"
			},
			{
				"type": "occ",
				"energy": -0.2753,
				"method": "rhf"
			},
			{
				"type": "occ",
				"energy": -0.26317,
				"method": "rhf"
			},
			{
				"type": "occ",
				"energy": -0.25668,
				"method": "rhf"
			},
			{
				"type": "unocc",
				"energy": -0.00599,
				"method": "rhf"
			},
			{
				"type": "unocc",
				"energy": 0.05343,
				"method": "rhf"
			},
			{
				"type": "unocc",
				"energy": 0.06903,
				"method": "rhf"
			},
			{
				"type": "unocc",
				"energy": 0.07521,
				"method": "rhf"
			},
			{
				"type": "unocc",
				"energy": 0.0935,
				"method": "rhf"
			}
		],
		"cosmo_sigma_profile": { 
			"-0.025": 0.0,
			"-0.024": 0.0,
			"-0.023": 0.0,
			"-0.022": 0.0,
			"-0.021": 0.0,
			"-0.02": 0.0,
			"-0.019": 0.0,
			"-0.018": 0.0,
			"-0.017": 0.0,
			"-0.016": 0.0,
			"-0.015": 0.726172413411,
			"-0.014": 1.30606536651,
			"-0.013": 2.23740398806,
			"-0.012": 4.54976428684,
			"-0.011": 3.84498756689,
			"-0.01": 2.81048174771,
			"-0.009": 3.72974975758,
			"-0.008": 3.85308361617,
			"-0.007": 3.24499756806,
			"-0.006": 4.32559585035,
			"-0.005": 8.78818937561,
			"-0.004": 13.3071641008,
			"-0.003": 18.9492784827,
			"-0.002": 22.8909384263,
			"-0.001": 24.1470260105,
			"0.0": 21.8627685141,
			"0.001": 14.2192715134,
			"0.002": 5.38605415815,
			"0.003": 4.64380215418,
			"0.004": 4.4742554849,
			"0.005": 3.2108596798,
			"0.006": 2.6147204651,
			"0.007": 3.64476355257,
			"0.008": 2.88244784415,
			"0.009": 3.61231415508,
			"0.01": 3.2851665112,
			"0.011": 4.51494226385,
			"0.012": 7.92467138269,
			"0.013": 7.14503837247,
			"0.014": 2.56260529721,
			"0.015": 1.28963319293,
			"0.016": 1.13749772999,
			"0.017": 0.478299339729,
			"0.018": 0.0,
			"0.019": 0.0,
			"0.02": 0.0,
			"0.021": 0.0,
			"0.022": 0.0,
			"0.023": 0.0,
			"0.024": 0.0,
			"0.025": 0.0
		}
	}
}
