{
	 "smiles": "CS(=O)(=O)NC1=C(Cl)C=C(N)C=C1", 
	 "Tm": 455.15, 
	 "num_atms": 22, 
	 "gaussian": { 
		 "optdone": 1, 
		 "sigma_profile": "yes", 
		 "theory": "DFT", 
		 "functional": "B3LYP", 
		 "basiset": "6-31G**", 
		 "properties": { 
			 "R2extent": 3987.9713, 
			 "electric_dipole_moment_norm": 4.55719033945, 
			 "electric_quadrupole_moment_norm": 25.7833582745, 
			 "total_energy": -1390.43504317, 
			 "HOMO_LUMO_gap": 0.19028, 
			 "cosmo_polarized_energy": -19.36, 
			 "cosmo_cavitation_energy": 29.19, 
			 "cosmo_dispersion_energy": -21.67, 
			 "cosmo_repulsion_energy": 1.68, 
			 "cosmo_total_nonelectrostatic_energy": 9.2, 
			 "SMD_solvation_energy": 4.19 
		},
		"coords": [
			{
				"x": -0.0930531331,
				"y": 0.7183159159,
				"z": -2.8444959294,
				"element": "C" 
			},
			{
				"x": 1.2597382834,
				"y": -0.0868196952,
				"z": -1.9717602593,
				"element": "S" 
			},
			{
				"x": 1.9526859299,
				"y": -0.9521211248,
				"z": -2.9296009509,
				"element": "O" 
			},
			{
				"x": 1.9628392047,
				"y": 0.9330031315,
				"z": -1.1944163647,
				"element": "O" 
			},
			{
				"x": 0.4140320396,
				"y": -1.1503332757,
				"z": -0.9221706882,
				"element": "N" 
			},
			{
				"x": 0.3969754879,
				"y": -0.9412024245,
				"z": 0.4822842467,
				"element": "C" 
			},
			{
				"x": 0.8790287232,
				"y": -1.9056884489,
				"z": 1.3805067894,
				"element": "C" 
			},
			{
				"x": 1.5726673268,
				"y": -3.4037063323,
				"z": 0.7638579532,
				"element": "Cl" 
			},
			{
				"x": 0.8133207443,
				"y": -1.7319307753,
				"z": 2.7591381979,
				"element": "C" 
			},
			{
				"x": 0.2804980825,
				"y": -0.5509965546,
				"z": 3.2970524155,
				"element": "C" 
			},
			{
				"x": 0.1731099878,
				"y": -0.3821424937,
				"z": 4.6769548417,
				"element": "N" 
			},
			{
				"x": -0.2011912677,
				"y": 0.4258093401,
				"z": 2.4081570374,
				"element": "C" 
			},
			{
				"x": -0.1547058027,
				"y": 0.2213986703,
				"z": 1.0366065006,
				"element": "C" 
			},
			{
				"x": -0.6866348541,
				"y": -0.0445166363,
				"z": -3.3482364968,
				"element": "H" 
			},
			{
				"x": -0.6999132006,
				"y": 1.276143891,
				"z": -2.1308200345,
				"element": "H" 
			},
			{
				"x": 0.3591787505,
				"y": 1.3964131812,
				"z": -3.5706112658,
				"element": "H" 
			},
			{
				"x": 0.683397315,
				"y": -2.095831498,
				"z": -1.1843954813,
				"element": "H" 
			},
			{
				"x": 1.1844841798,
				"y": -2.5153775878,
				"z": 3.4114509262,
				"element": "H" 
			},
			{
				"x": 0.1275758581,
				"y": 0.5779814526,
				"z": 4.9890949407,
				"element": "H" 
			},
			{
				"x": 0.8190167957,
				"y": -0.9273113147,
				"z": 5.2310663836,
				"element": "H" 
			},
			{
				"x": -0.6298016833,
				"y": 1.3442866973,
				"z": 2.7990879571,
				"element": "H" 
			},
			{
				"x": -0.5471487676,
				"y": 0.9841258818,
				"z": 0.373249281,
				"element": "H" 
			}
		],
		 "valence_orbital": [ 
			{
				"type": "occ",
				"energy": -0.30999,
				"method": "rhf"
			},
			{
				"type": "occ",
				"energy": -0.30249,
				"method": "rhf"
			},
			{
				"type": "occ",
				"energy": -0.28468,
				"method": "rhf"
			},
			{
				"type": "occ",
				"energy": -0.25418,
				"method": "rhf"
			},
			{
				"type": "occ",
				"energy": -0.20618,
				"method": "rhf"
			},
			{
				"type": "unocc",
				"energy": -0.0159,
				"method": "rhf"
			},
			{
				"type": "unocc",
				"energy": -0.00359,
				"method": "rhf"
			},
			{
				"type": "unocc",
				"energy": 0.02086,
				"method": "rhf"
			},
			{
				"type": "unocc",
				"energy": 0.06295,
				"method": "rhf"
			},
			{
				"type": "unocc",
				"energy": 0.06871,
				"method": "rhf"
			}
		],
		"cosmo_sigma_profile": { 
			"-0.025": 0.0,
			"-0.024": 0.0,
			"-0.023": 0.0,
			"-0.022": 0.0,
			"-0.021": 0.0,
			"-0.02": 0.0,
			"-0.019": 0.0,
			"-0.018": 0.0,
			"-0.017": 0.0,
			"-0.016": 0.0,
			"-0.015": 0.0,
			"-0.014": 0.0,
			"-0.013": 1.18707970013,
			"-0.012": 3.41975449871,
			"-0.011": 3.81873114625,
			"-0.01": 4.52931537627,
			"-0.009": 7.49903730779,
			"-0.008": 11.5058966427,
			"-0.007": 11.7068075318,
			"-0.006": 11.9356045202,
			"-0.005": 12.8686444626,
			"-0.004": 13.6575538723,
			"-0.003": 9.33991486059,
			"-0.002": 9.65774074532,
			"-0.001": 8.54015852378,
			"0.0": 10.8600581638,
			"0.001": 11.7227035421,
			"0.002": 14.0898232731,
			"0.003": 14.8123071891,
			"0.004": 19.9549748067,
			"0.005": 9.15245980196,
			"0.006": 5.25892348714,
			"0.007": 4.23113024983,
			"0.008": 4.5494808807,
			"0.009": 4.89379866595,
			"0.01": 9.50638383388,
			"0.011": 11.64415759,
			"0.012": 2.8572914803,
			"0.013": 0.824346301841,
			"0.014": 0.3930706702,
			"0.015": 0.0,
			"0.016": 0.0,
			"0.017": 0.0,
			"0.018": 0.0,
			"0.019": 0.0,
			"0.02": 0.0,
			"0.021": 0.0,
			"0.022": 0.0,
			"0.023": 0.0,
			"0.024": 0.0,
			"0.025": 0.0
		}
	}
}
