{
	 "smiles": "CC1=C(C(C)=NN1)C1=C(N)C=CC=C1", 
	 "Tm": 436.15, 
	 "num_atms": 27, 
	 "gaussian": { 
		 "optdone": 1, 
		 "sigma_profile": "yes", 
		 "theory": "DFT", 
		 "functional": "B3LYP", 
		 "basiset": "6-31G**", 
		 "properties": { 
			 "R2extent": 3207.3227, 
			 "electric_dipole_moment_norm": 3.04895528665, 
			 "electric_quadrupole_moment_norm": 9.67114503045, 
			 "total_energy": -591.264033662, 
			 "HOMO_LUMO_gap": 0.19837, 
			 "cosmo_polarized_energy": -13.42, 
			 "cosmo_cavitation_energy": 29.85, 
			 "cosmo_dispersion_energy": -21.27, 
			 "cosmo_repulsion_energy": 1.71, 
			 "cosmo_total_nonelectrostatic_energy": 10.29, 
			 "SMD_solvation_energy": 4.3 
		},
		"coords": [
			{
				"x": 1.4624030781,
				"y": -1.6783740321,
				"z": -1.5864426089,
				"element": "C" 
			},
			{
				"x": 1.5011083642,
				"y": -0.5664056718,
				"z": -0.5869911705,
				"element": "C" 
			},
			{
				"x": 0.6904370919,
				"y": -0.2827081331,
				"z": 0.5091468464,
				"element": "C" 
			},
			{
				"x": 1.2448109861,
				"y": 0.9124134459,
				"z": 1.0715595982,
				"element": "C" 
			},
			{
				"x": 0.7499905879,
				"y": 1.6960755311,
				"z": 2.2488766404,
				"element": "C" 
			},
			{
				"x": 2.3072006442,
				"y": 1.32502079,
				"z": 0.3829088662,
				"element": "N" 
			},
			{
				"x": 2.4414356842,
				"y": 0.4157180853,
				"z": -0.6127431516,
				"element": "N" 
			},
			{
				"x": -0.5027071764,
				"y": -1.0406278211,
				"z": 0.9505642147,
				"element": "C" 
			},
			{
				"x": -0.5353073368,
				"y": -1.6781388617,
				"z": 2.2171805858,
				"element": "C" 
			},
			{
				"x": 0.5457079179,
				"y": -1.5691123328,
				"z": 3.0947127564,
				"element": "N" 
			},
			{
				"x": -1.6839081233,
				"y": -2.3915861656,
				"z": 2.5983670661,
				"element": "C" 
			},
			{
				"x": -2.7810832531,
				"y": -2.4894537514,
				"z": 1.7474096214,
				"element": "C" 
			},
			{
				"x": -2.7568738017,
				"y": -1.876018444,
				"z": 0.4937406034,
				"element": "C" 
			},
			{
				"x": -1.6224877656,
				"y": -1.159042588,
				"z": 0.1141235268,
				"element": "C" 
			},
			{
				"x": 1.2129484539,
				"y": -1.3175957612,
				"z": -2.5916585693,
				"element": "H" 
			},
			{
				"x": 2.4255332319,
				"y": -2.198219115,
				"z": -1.6522294813,
				"element": "H" 
			},
			{
				"x": 0.7023122713,
				"y": -2.4068363023,
				"z": -1.2971489678,
				"element": "H" 
			},
			{
				"x": 0.7416691936,
				"y": 1.0856809918,
				"z": 3.1577610154,
				"element": "H" 
			},
			{
				"x": -0.2764180173,
				"y": 2.0434614887,
				"z": 2.0857559472,
				"element": "H" 
			},
			{
				"x": 1.3902947173,
				"y": 2.5668254749,
				"z": 2.4066586998,
				"element": "H" 
			},
			{
				"x": 3.1985916828,
				"y": 0.5214597568,
				"z": -1.2697501906,
				"element": "H" 
			},
			{
				"x": 0.6162862274,
				"y": -2.3106450065,
				"z": 3.777889024,
				"element": "H" 
			},
			{
				"x": 1.430016416,
				"y": -1.3706481916,
				"z": 2.64441009,
				"element": "H" 
			},
			{
				"x": -1.7058941122,
				"y": -2.8745439415,
				"z": 3.5727381032,
				"element": "H" 
			},
			{
				"x": -3.6557735349,
				"y": -3.0495809191,
				"z": 2.0666514815,
				"element": "H" 
			},
			{
				"x": -3.6097710349,
				"y": -1.9464336789,
				"z": -0.1741141467,
				"element": "H" 
			},
			{
				"x": -1.5949223927,
				"y": -0.6605848467,
				"z": -0.8511764004,
				"element": "H" 
			}
		],
		 "valence_orbital": [ 
			{
				"type": "occ",
				"energy": -0.27825,
				"method": "rhf"
			},
			{
				"type": "occ",
				"energy": -0.25,
				"method": "rhf"
			},
			{
				"type": "occ",
				"energy": -0.23274,
				"method": "rhf"
			},
			{
				"type": "occ",
				"energy": -0.22325,
				"method": "rhf"
			},
			{
				"type": "occ",
				"energy": -0.19483,
				"method": "rhf"
			},
			{
				"type": "unocc",
				"energy": 0.00354,
				"method": "rhf"
			},
			{
				"type": "unocc",
				"energy": 0.01708,
				"method": "rhf"
			},
			{
				"type": "unocc",
				"energy": 0.03183,
				"method": "rhf"
			},
			{
				"type": "unocc",
				"energy": 0.07798,
				"method": "rhf"
			},
			{
				"type": "unocc",
				"energy": 0.08564,
				"method": "rhf"
			}
		],
		"cosmo_sigma_profile": { 
			"-0.025": 0.0,
			"-0.024": 0.0,
			"-0.023": 0.0,
			"-0.022": 0.0,
			"-0.021": 0.0,
			"-0.02": 0.0,
			"-0.019": 0.0,
			"-0.018": 0.0,
			"-0.017": 0.0,
			"-0.016": 0.497033673411,
			"-0.015": 1.27871259244,
			"-0.014": 1.37038940522,
			"-0.013": 1.39764591963,
			"-0.012": 1.94794514356,
			"-0.011": 2.29593510811,
			"-0.01": 2.92014719664,
			"-0.009": 4.08353013767,
			"-0.008": 3.59674205457,
			"-0.007": 3.05733234239,
			"-0.006": 4.56358091968,
			"-0.005": 12.0032081378,
			"-0.004": 16.4198233974,
			"-0.003": 18.5325053879,
			"-0.002": 18.773526615,
			"-0.001": 22.3814205009,
			"0.0": 20.3505487167,
			"0.001": 16.8858905754,
			"0.002": 11.5538072683,
			"0.003": 11.3645420048,
			"0.004": 12.0821838275,
			"0.005": 12.0613801072,
			"0.006": 11.2468803843,
			"0.007": 9.24474035471,
			"0.008": 3.78129818163,
			"0.009": 2.12607786649,
			"0.01": 2.25974838574,
			"0.011": 1.61250357699,
			"0.012": 1.39883468585,
			"0.013": 1.11382934883,
			"0.014": 1.47906037918,
			"0.015": 0.820718763404,
			"0.016": 0.939096014104,
			"0.017": 0.676687628034,
			"0.018": 0.0121599674412,
			"0.019": 0.0,
			"0.02": 0.0,
			"0.021": 0.0,
			"0.022": 0.0,
			"0.023": 0.0,
			"0.024": 0.0,
			"0.025": 0.0
		}
	}
}
