{
	 "smiles": "OC(=O)C=CC1=CC=C(OC(F)(F)F)C=C1", 
	 "Tm": 451.15, 
	 "num_atms": 23, 
	 "gaussian": { 
		 "optdone": 1, 
		 "sigma_profile": "yes", 
		 "theory": "DFT", 
		 "functional": "B3LYP", 
		 "basiset": "6-31G**", 
		 "properties": { 
			 "R2extent": 6413.7791, 
			 "electric_dipole_moment_norm": 4.29307695016, 
			 "electric_quadrupole_moment_norm": 31.1704953859, 
			 "total_energy": -910.467500456, 
			 "HOMO_LUMO_gap": 0.16751, 
			 "cosmo_polarized_energy": -16.21, 
			 "cosmo_cavitation_energy": 30.32, 
			 "cosmo_dispersion_energy": -21.7, 
			 "cosmo_repulsion_energy": 1.62, 
			 "cosmo_total_nonelectrostatic_energy": 10.25, 
			 "SMD_solvation_energy": 8.05 
		},
		"coords": [
			{
				"x": 2.650501387,
				"y": 3.9346600514,
				"z": 3.3690097474,
				"element": "O" 
			},
			{
				"x": 3.1120900058,
				"y": 3.1449769997,
				"z": 2.3573491324,
				"element": "C" 
			},
			{
				"x": 4.2252160658,
				"y": 3.3137863232,
				"z": 1.9161064036,
				"element": "O" 
			},
			{
				"x": 2.1953351646,
				"y": 2.1036187405,
				"z": 1.8268841159,
				"element": "C" 
			},
			{
				"x": 0.8523916583,
				"y": 2.1436845798,
				"z": 1.915776677,
				"element": "C" 
			},
			{
				"x": -0.1088996296,
				"y": 1.1866823267,
				"z": 1.3639345198,
				"element": "C" 
			},
			{
				"x": -1.4849045586,
				"y": 1.4501221123,
				"z": 1.4930220165,
				"element": "C" 
			},
			{
				"x": -2.4395276633,
				"y": 0.5762660399,
				"z": 0.9883922408,
				"element": "C" 
			},
			{
				"x": -2.0276954915,
				"y": -0.5886637185,
				"z": 0.3419807704,
				"element": "C" 
			},
			{
				"x": -3.0703302314,
				"y": -1.3865370987,
				"z": -0.1184185335,
				"element": "O" 
			},
			{
				"x": -2.8342379416,
				"y": -2.5472765844,
				"z": -0.784299338,
				"element": "C" 
			},
			{
				"x": -4.0164081932,
				"y": -3.0697866278,
				"z": -1.0974405334,
				"element": "F" 
			},
			{
				"x": -2.1538173689,
				"y": -3.437722678,
				"z": -0.0373336996,
				"element": "F" 
			},
			{
				"x": -2.1331542374,
				"y": -2.3551427824,
				"z": -1.9173985568,
				"element": "F" 
			},
			{
				"x": -0.6690430051,
				"y": -0.8857513066,
				"z": 0.1976624652,
				"element": "C" 
			},
			{
				"x": 0.2716340509,
				"y": 0.0019158017,
				"z": 0.7087380241,
				"element": "C" 
			},
			{
				"x": 1.8392087646,
				"y": 3.558038646,
				"z": 3.736671105,
				"element": "H" 
			},
			{
				"x": 2.7090600216,
				"y": 1.3312552065,
				"z": 1.2637134356,
				"element": "H" 
			},
			{
				"x": 0.3905647218,
				"y": 2.9898446467,
				"z": 2.4265543496,
				"element": "H" 
			},
			{
				"x": -1.8107228731,
				"y": 2.3574488546,
				"z": 1.9943644324,
				"element": "H" 
			},
			{
				"x": -3.5004385982,
				"y": 0.7787148478,
				"z": 1.085065167,
				"element": "H" 
			},
			{
				"x": -0.3410468223,
				"y": -1.7886802974,
				"z": -0.2992547353,
				"element": "H" 
			},
			{
				"x": 1.3227247739,
				"y": -0.2414540832,
				"z": 0.5942207939,
				"element": "H" 
			}
		],
		 "valence_orbital": [ 
			{
				"type": "occ",
				"energy": -0.32382,
				"method": "rhf"
			},
			{
				"type": "occ",
				"energy": -0.31069,
				"method": "rhf"
			},
			{
				"type": "occ",
				"energy": -0.28412,
				"method": "rhf"
			},
			{
				"type": "occ",
				"energy": -0.27298,
				"method": "rhf"
			},
			{
				"type": "occ",
				"energy": -0.24594,
				"method": "rhf"
			},
			{
				"type": "unocc",
				"energy": -0.07843,
				"method": "rhf"
			},
			{
				"type": "unocc",
				"energy": -0.03249,
				"method": "rhf"
			},
			{
				"type": "unocc",
				"energy": 0.00523,
				"method": "rhf"
			},
			{
				"type": "unocc",
				"energy": 0.05643,
				"method": "rhf"
			},
			{
				"type": "unocc",
				"energy": 0.06812,
				"method": "rhf"
			}
		],
		"cosmo_sigma_profile": { 
			"-0.025": 0.0,
			"-0.024": 0.0,
			"-0.023": 0.0,
			"-0.022": 0.0,
			"-0.021": 0.0,
			"-0.02": 0.0,
			"-0.019": 0.20329433517,
			"-0.018": 0.754566381483,
			"-0.017": 1.38442493447,
			"-0.016": 1.00629479514,
			"-0.015": 0.868064732591,
			"-0.014": 0.745224800635,
			"-0.013": 1.17930636921,
			"-0.012": 1.24473284623,
			"-0.011": 0.688185004171,
			"-0.01": 1.75945094614,
			"-0.009": 3.40482604963,
			"-0.008": 7.32451172928,
			"-0.007": 8.98929098608,
			"-0.006": 9.90113963697,
			"-0.005": 8.49968106058,
			"-0.004": 7.73509411715,
			"-0.003": 9.00108418884,
			"-0.002": 13.9185713561,
			"-0.001": 17.0443787426,
			"0.0": 22.6012744927,
			"0.001": 36.7130606703,
			"0.002": 39.9541170044,
			"0.003": 11.9695190469,
			"0.004": 3.73366615399,
			"0.005": 3.59012606941,
			"0.006": 2.74038396135,
			"0.007": 2.20406423358,
			"0.008": 2.17716423779,
			"0.009": 3.22908434017,
			"0.01": 4.3478980887,
			"0.011": 5.22458831108,
			"0.012": 5.93704263768,
			"0.013": 3.43585561042,
			"0.014": 0.424342913043,
			"0.015": 0.0,
			"0.016": 0.0,
			"0.017": 0.0,
			"0.018": 0.0,
			"0.019": 0.0,
			"0.02": 0.0,
			"0.021": 0.0,
			"0.022": 0.0,
			"0.023": 0.0,
			"0.024": 0.0,
			"0.025": 0.0
		}
	}
}
