{
	 "smiles": "O=C1NC2=C(C=CC=C2)C(=O)O1", 
	 "Tm": 506.15, 
	 "num_atms": 17, 
	 "gaussian": { 
		 "optdone": 1, 
		 "sigma_profile": "yes", 
		 "theory": "DFT", 
		 "functional": "B3LYP", 
		 "basiset": "6-31G**", 
		 "properties": { 
			 "R2extent": 2060.4464, 
			 "electric_dipole_moment_norm": 6.56360731991, 
			 "electric_quadrupole_moment_norm": 4.90998714153, 
			 "total_energy": -588.321895331, 
			 "HOMO_LUMO_gap": 0.18149, 
			 "cosmo_polarized_energy": -16.68, 
			 "cosmo_cavitation_energy": 22.13, 
			 "cosmo_dispersion_energy": -16.83, 
			 "cosmo_repulsion_energy": 1.32, 
			 "cosmo_total_nonelectrostatic_energy": 6.62, 
			 "SMD_solvation_energy": 5.93 
		},
		"coords": [
			{
				"x": -1.6779033482,
				"y": 0.7154604241,
				"z": 1.9410391727,
				"element": "O" 
			},
			{
				"x": -1.0236045702,
				"y": 0.3714205373,
				"z": 0.9902906815,
				"element": "C" 
			},
			{
				"x": -1.3340379249,
				"y": 0.7012269852,
				"z": -0.3127053842,
				"element": "N" 
			},
			{
				"x": -0.6026250024,
				"y": 0.321718936,
				"z": -1.4299924711,
				"element": "C" 
			},
			{
				"x": 0.5471239919,
				"y": -0.4601725882,
				"z": -1.23745388,
				"element": "C" 
			},
			{
				"x": 1.3128860203,
				"y": -0.8638979334,
				"z": -2.339828728,
				"element": "C" 
			},
			{
				"x": 0.936771189,
				"y": -0.4920072179,
				"z": -3.6235804157,
				"element": "C" 
			},
			{
				"x": -0.2134632602,
				"y": 0.2893633288,
				"z": -3.8071882481,
				"element": "C" 
			},
			{
				"x": -0.9845812946,
				"y": 0.6984822971,
				"z": -2.7243504359,
				"element": "C" 
			},
			{
				"x": 0.9387004719,
				"y": -0.8496133033,
				"z": 0.1227269549,
				"element": "C" 
			},
			{
				"x": 1.8949287893,
				"y": -1.5136036757,
				"z": 0.4265547778,
				"element": "O" 
			},
			{
				"x": 0.106309296,
				"y": -0.3945762075,
				"z": 1.1524792028,
				"element": "O" 
			},
			{
				"x": -2.1669259543,
				"y": 1.2640447202,
				"z": -0.4143745536,
				"element": "H" 
			},
			{
				"x": 2.1950321458,
				"y": -1.4673638782,
				"z": -2.1547531155,
				"element": "H" 
			},
			{
				"x": 1.526981558,
				"y": -0.8026283547,
				"z": -4.4790824402,
				"element": "H" 
			},
			{
				"x": -0.5121533646,
				"y": 0.5830406262,
				"z": -4.8091244736,
				"element": "H" 
			},
			{
				"x": -1.8741387425,
				"y": 1.303505304,
				"z": -2.8740566436,
				"element": "H" 
			}
		],
		 "valence_orbital": [ 
			{
				"type": "occ",
				"energy": -0.32414,
				"method": "rhf"
			},
			{
				"type": "occ",
				"energy": -0.31331,
				"method": "rhf"
			},
			{
				"type": "occ",
				"energy": -0.2862,
				"method": "rhf"
			},
			{
				"type": "occ",
				"energy": -0.28587,
				"method": "rhf"
			},
			{
				"type": "occ",
				"energy": -0.25085,
				"method": "rhf"
			},
			{
				"type": "unocc",
				"energy": -0.06936,
				"method": "rhf"
			},
			{
				"type": "unocc",
				"energy": -0.032,
				"method": "rhf"
			},
			{
				"type": "unocc",
				"energy": 0.01337,
				"method": "rhf"
			},
			{
				"type": "unocc",
				"energy": 0.05391,
				"method": "rhf"
			},
			{
				"type": "unocc",
				"energy": 0.06031,
				"method": "rhf"
			}
		],
		"cosmo_sigma_profile": { 
			"-0.025": 0.0,
			"-0.024": 0.0,
			"-0.023": 0.0,
			"-0.022": 0.0,
			"-0.021": 0.0,
			"-0.02": 0.0,
			"-0.019": 0.0,
			"-0.018": 0.0615619322626,
			"-0.017": 1.10438409824,
			"-0.016": 1.30112762389,
			"-0.015": 1.36695171947,
			"-0.014": 0.864033983711,
			"-0.013": 1.1881348716,
			"-0.012": 1.3578514011,
			"-0.011": 0.871325703178,
			"-0.01": 1.79694300314,
			"-0.009": 2.40006715942,
			"-0.008": 4.45759293337,
			"-0.007": 8.53193145962,
			"-0.006": 11.4412624475,
			"-0.005": 10.6326440268,
			"-0.004": 10.1328725191,
			"-0.003": 10.5183824241,
			"-0.002": 9.89369750513,
			"-0.001": 9.57387216526,
			"0.0": 11.2807215778,
			"0.001": 12.1615126347,
			"0.002": 12.1477325198,
			"0.003": 9.4847284669,
			"0.004": 2.74874290894,
			"0.005": 2.91582919708,
			"0.006": 3.78530776864,
			"0.007": 4.17408466013,
			"0.008": 5.51749855787,
			"0.009": 4.99318386476,
			"0.01": 7.97940596162,
			"0.011": 9.6843230378,
			"0.012": 4.0612888196,
			"0.013": 0.306511134421,
			"0.014": 0.0,
			"0.015": 0.0,
			"0.016": 0.0,
			"0.017": 0.0,
			"0.018": 0.0,
			"0.019": 0.0,
			"0.02": 0.0,
			"0.021": 0.0,
			"0.022": 0.0,
			"0.023": 0.0,
			"0.024": 0.0,
			"0.025": 0.0
		}
	}
}
