{
	 "smiles": "CCCN1C(CCC(O)=O)=NC2=C1C=CC(=C2)S(N)(=O)=O", 
	 "Tm": 533.15, 
	 "num_atms": 38, 
	 "gaussian": { 
		 "optdone": 1, 
		 "sigma_profile": "yes", 
		 "theory": "DFT", 
		 "functional": "B3LYP", 
		 "basiset": "6-31G**", 
		 "properties": { 
			 "R2extent": 10289.7674, 
			 "electric_dipole_moment_norm": 5.90882340064, 
			 "electric_quadrupole_moment_norm": 30.6053295512, 
			 "total_energy": -1368.94619881, 
			 "HOMO_LUMO_gap": 0.20571, 
			 "cosmo_polarized_energy": -27.43, 
			 "cosmo_cavitation_energy": 43.23, 
			 "cosmo_dispersion_energy": -30.82, 
			 "cosmo_repulsion_energy": 2.35, 
			 "cosmo_total_nonelectrostatic_energy": 14.77, 
			 "SMD_solvation_energy": 5.98 
		},
		"coords": [
			{
				"x": -2.9410536161,
				"y": -2.1016934093,
				"z": 1.3333276936,
				"element": "C" 
			},
			{
				"x": -3.2403278791,
				"y": -0.7368391034,
				"z": 0.7075359936,
				"element": "C" 
			},
			{
				"x": -2.1820849263,
				"y": 0.3414697047,
				"z": 0.9919509951,
				"element": "C" 
			},
			{
				"x": -0.8632960709,
				"y": 0.0627561342,
				"z": 0.4240740478,
				"element": "N" 
			},
			{
				"x": -0.4332212248,
				"y": 0.335241071,
				"z": -0.8698401119,
				"element": "C" 
			},
			{
				"x": -1.3188462311,
				"y": 0.9941211042,
				"z": -1.8839695634,
				"element": "C" 
			},
			{
				"x": -0.5942202396,
				"y": 1.241339656,
				"z": -3.2064221087,
				"element": "C" 
			},
			{
				"x": -1.5081980605,
				"y": 1.8633640637,
				"z": -4.2359857627,
				"element": "C" 
			},
			{
				"x": -0.8528546574,
				"y": 2.1194766953,
				"z": -5.3917633781,
				"element": "O" 
			},
			{
				"x": -2.6854040604,
				"y": 2.1131357361,
				"z": -4.0828981523,
				"element": "O" 
			},
			{
				"x": 0.8099454401,
				"y": -0.0252679909,
				"z": -1.0882210925,
				"element": "N" 
			},
			{
				"x": 1.247739103,
				"y": -0.5640451793,
				"z": 0.1093566877,
				"element": "C" 
			},
			{
				"x": 0.2123952441,
				"y": -0.5180743714,
				"z": 1.0750054782,
				"element": "C" 
			},
			{
				"x": 0.3905805548,
				"y": -0.9779197575,
				"z": 2.3847695822,
				"element": "C" 
			},
			{
				"x": 1.6367432944,
				"y": -1.4978402019,
				"z": 2.7111870194,
				"element": "C" 
			},
			{
				"x": 2.6626168863,
				"y": -1.5530321956,
				"z": 1.7459917957,
				"element": "C" 
			},
			{
				"x": 2.4990792005,
				"y": -1.0892869775,
				"z": 0.4443941963,
				"element": "C" 
			},
			{
				"x": 4.2438878723,
				"y": -2.2353361779,
				"z": 2.2230791911,
				"element": "S" 
			},
			{
				"x": 3.9675270625,
				"y": -3.913348318,
				"z": 2.175655235,
				"element": "N" 
			},
			{
				"x": 5.2167168699,
				"y": -1.8828002656,
				"z": 1.1825998612,
				"element": "O" 
			},
			{
				"x": 4.4822031804,
				"y": -1.9295247241,
				"z": 3.6376098499,
				"element": "O" 
			},
			{
				"x": -1.9973994217,
				"y": -2.5155998539,
				"z": 0.9659354224,
				"element": "H" 
			},
			{
				"x": -3.7335594117,
				"y": -2.8173907142,
				"z": 1.0948311869,
				"element": "H" 
			},
			{
				"x": -2.8746422758,
				"y": -2.0335135846,
				"z": 2.4250376572,
				"element": "H" 
			},
			{
				"x": -4.1975831666,
				"y": -0.3557277044,
				"z": 1.0851188598,
				"element": "H" 
			},
			{
				"x": -3.3608671819,
				"y": -0.8426364658,
				"z": -0.3771459362,
				"element": "H" 
			},
			{
				"x": -2.5202714984,
				"y": 1.3057914244,
				"z": 0.6005965451,
				"element": "H" 
			},
			{
				"x": -2.0507751205,
				"y": 0.4690712623,
				"z": 2.0712907777,
				"element": "H" 
			},
			{
				"x": -2.2121146065,
				"y": 0.3850273414,
				"z": -2.0666910906,
				"element": "H" 
			},
			{
				"x": -1.6974139398,
				"y": 1.9462756596,
				"z": -1.4907271137,
				"element": "H" 
			},
			{
				"x": 0.2771633393,
				"y": 1.889058896,
				"z": -3.0672075457,
				"element": "H" 
			},
			{
				"x": -0.1890119265,
				"y": 0.3085189329,
				"z": -3.612177115,
				"element": "H" 
			},
			{
				"x": -1.5075302698,
				"y": 2.5105562646,
				"z": -5.9944474604,
				"element": "H" 
			},
			{
				"x": -0.4001287889,
				"y": -0.9336281903,
				"z": 3.1262143169,
				"element": "H" 
			},
			{
				"x": 1.835387561,
				"y": -1.8526391337,
				"z": 3.7160115186,
				"element": "H" 
			},
			{
				"x": 3.3127509205,
				"y": -1.1195092053,
				"z": -0.2706259472,
				"element": "H" 
			},
			{
				"x": 4.4233584638,
				"y": -4.3244021006,
				"z": 2.9872559996,
				"element": "H" 
			},
			{
				"x": 4.3484095815,
				"y": -4.3006483211,
				"z": 1.3153924674,
				"element": "H" 
			}
		],
		 "valence_orbital": [ 
			{
				"type": "occ",
				"energy": -0.28739,
				"method": "rhf"
			},
			{
				"type": "occ",
				"energy": -0.28358,
				"method": "rhf"
			},
			{
				"type": "occ",
				"energy": -0.27722,
				"method": "rhf"
			},
			{
				"type": "occ",
				"energy": -0.23906,
				"method": "rhf"
			},
			{
				"type": "occ",
				"energy": -0.23577,
				"method": "rhf"
			},
			{
				"type": "unocc",
				"energy": -0.03006,
				"method": "rhf"
			},
			{
				"type": "unocc",
				"energy": -0.01352,
				"method": "rhf"
			},
			{
				"type": "unocc",
				"energy": 0.00454,
				"method": "rhf"
			},
			{
				"type": "unocc",
				"energy": 0.03777,
				"method": "rhf"
			},
			{
				"type": "unocc",
				"energy": 0.06039,
				"method": "rhf"
			}
		],
		"cosmo_sigma_profile": { 
			"-0.025": 0.0,
			"-0.024": 0.0,
			"-0.023": 0.0,
			"-0.022": 0.0,
			"-0.021": 0.0,
			"-0.02": 0.0,
			"-0.019": 0.0,
			"-0.018": 0.80915636212,
			"-0.017": 0.853663142978,
			"-0.016": 0.743823393163,
			"-0.015": 1.45308620331,
			"-0.014": 3.3424328256,
			"-0.013": 2.79419160094,
			"-0.012": 3.48671332138,
			"-0.011": 3.62599315604,
			"-0.01": 2.61440532286,
			"-0.009": 1.88408400886,
			"-0.008": 4.73482786398,
			"-0.007": 11.8774274928,
			"-0.006": 20.3165148099,
			"-0.005": 22.7762668652,
			"-0.004": 22.299636483,
			"-0.003": 24.3996164957,
			"-0.002": 22.4316639993,
			"-0.001": 26.9161538279,
			"0.0": 21.0893694024,
			"0.001": 19.4173945432,
			"0.002": 17.0959969195,
			"0.003": 17.8618715023,
			"0.004": 10.6246606435,
			"0.005": 7.57164912484,
			"0.006": 7.72461785716,
			"0.007": 6.75004324898,
			"0.008": 7.53763840267,
			"0.009": 9.59426819823,
			"0.01": 9.94962129844,
			"0.011": 14.9885392939,
			"0.012": 11.0951337398,
			"0.013": 0.90257222024,
			"0.014": 0.850017843655,
			"0.015": 0.655110972042,
			"0.016": 0.103828053137,
			"0.017": 0.0,
			"0.018": 0.0,
			"0.019": 0.0,
			"0.02": 0.0,
			"0.021": 0.0,
			"0.022": 0.0,
			"0.023": 0.0,
			"0.024": 0.0,
			"0.025": 0.0
		}
	}
}
