{
	 "smiles": "CCCCNC(=O)NCC(O)=O", 
	 "Tm": 413.15, 
	 "num_atms": 26, 
	 "gaussian": { 
		 "optdone": 1, 
		 "sigma_profile": "yes", 
		 "theory": "DFT", 
		 "functional": "B3LYP", 
		 "basiset": "6-31G**", 
		 "properties": { 
			 "R2extent": 3307.1169, 
			 "electric_dipole_moment_norm": 7.7591724185, 
			 "electric_quadrupole_moment_norm": 14.7054315227, 
			 "total_energy": -610.405936378, 
			 "HOMO_LUMO_gap": 0.25847, 
			 "cosmo_polarized_energy": -19.19, 
			 "cosmo_cavitation_energy": 29.07, 
			 "cosmo_dispersion_energy": -20.8, 
			 "cosmo_repulsion_energy": 1.71, 
			 "cosmo_total_nonelectrostatic_energy": 9.99, 
			 "SMD_solvation_energy": 5.54 
		},
		"coords": [
			{
				"x": 0.5310742768,
				"y": 3.7336301884,
				"z": 2.4953293626,
				"element": "C" 
			},
			{
				"x": -0.9495979058,
				"y": 3.487281069,
				"z": 2.1780038526,
				"element": "C" 
			},
			{
				"x": -1.2262596828,
				"y": 2.2082035493,
				"z": 1.3708421214,
				"element": "C" 
			},
			{
				"x": -0.6840978527,
				"y": 2.251831663,
				"z": -0.0668625175,
				"element": "C" 
			},
			{
				"x": -0.9829274846,
				"y": 1.0609580187,
				"z": -0.8575191608,
				"element": "N" 
			},
			{
				"x": -0.4188696794,
				"y": -0.178811562,
				"z": -0.7228907246,
				"element": "C" 
			},
			{
				"x": -0.9663423423,
				"y": -1.1874467468,
				"z": -1.2041692857,
				"element": "O" 
			},
			{
				"x": 0.7719904483,
				"y": -0.2638978256,
				"z": -0.050537832,
				"element": "N" 
			},
			{
				"x": 1.4256384694,
				"y": -1.5544015777,
				"z": 0.1534845439,
				"element": "C" 
			},
			{
				"x": 2.0726428528,
				"y": -2.1671822555,
				"z": -1.1051879562,
				"element": "C" 
			},
			{
				"x": 1.24021412,
				"y": -2.3799454395,
				"z": -2.1300731323,
				"element": "O" 
			},
			{
				"x": 3.247779877,
				"y": -2.4524214392,
				"z": -1.145574617,
				"element": "O" 
			},
			{
				"x": 1.1285737369,
				"y": 3.896327609,
				"z": 1.5917974668,
				"element": "H" 
			},
			{
				"x": 0.653335899,
				"y": 4.6204361061,
				"z": 3.1248845143,
				"element": "H" 
			},
			{
				"x": 0.9656590971,
				"y": 2.8837179116,
				"z": 3.034240984,
				"element": "H" 
			},
			{
				"x": -1.5092027044,
				"y": 3.4265251506,
				"z": 3.118892129,
				"element": "H" 
			},
			{
				"x": -1.3596928347,
				"y": 4.3530163902,
				"z": 1.6399161817,
				"element": "H" 
			},
			{
				"x": -0.7955484716,
				"y": 1.3408200002,
				"z": 1.8870339022,
				"element": "H" 
			},
			{
				"x": -2.3083234259,
				"y": 2.0341426538,
				"z": 1.3214617657,
				"element": "H" 
			},
			{
				"x": -1.1139067781,
				"y": 3.1052027364,
				"z": -0.602569735,
				"element": "H" 
			},
			{
				"x": 0.3984210557,
				"y": 2.4235194702,
				"z": -0.0724610858,
				"element": "H" 
			},
			{
				"x": -1.8864785664,
				"y": 1.0094470887,
				"z": -1.306888824,
				"element": "H" 
			},
			{
				"x": 1.3289826794,
				"y": 0.5662734388,
				"z": 0.0802697233,
				"element": "H" 
			},
			{
				"x": 0.680724286,
				"y": -2.257118996,
				"z": 0.5424240598,
				"element": "H" 
			},
			{
				"x": 2.2115973871,
				"y": -1.4297679359,
				"z": 0.8980927221,
				"element": "H" 
			},
			{
				"x": 0.3242135432,
				"y": -2.0857392655,
				"z": -1.8858384583,
				"element": "H" 
			}
		],
		 "valence_orbital": [ 
			{
				"type": "occ",
				"energy": -0.29824,
				"method": "rhf"
			},
			{
				"type": "occ",
				"energy": -0.29178,
				"method": "rhf"
			},
			{
				"type": "occ",
				"energy": -0.28015,
				"method": "rhf"
			},
			{
				"type": "occ",
				"energy": -0.27092,
				"method": "rhf"
			},
			{
				"type": "occ",
				"energy": -0.24274,
				"method": "rhf"
			},
			{
				"type": "unocc",
				"energy": 0.01573,
				"method": "rhf"
			},
			{
				"type": "unocc",
				"energy": 0.0323,
				"method": "rhf"
			},
			{
				"type": "unocc",
				"energy": 0.04669,
				"method": "rhf"
			},
			{
				"type": "unocc",
				"energy": 0.07161,
				"method": "rhf"
			},
			{
				"type": "unocc",
				"energy": 0.07984,
				"method": "rhf"
			}
		],
		"cosmo_sigma_profile": { 
			"-0.025": 0.0,
			"-0.024": 0.0,
			"-0.023": 0.0,
			"-0.022": 0.0,
			"-0.021": 0.0,
			"-0.02": 0.0,
			"-0.019": 0.0,
			"-0.018": 0.0,
			"-0.017": 0.0,
			"-0.016": 0.0,
			"-0.015": 0.720706699599,
			"-0.014": 1.79782654018,
			"-0.013": 2.68318378101,
			"-0.012": 2.07225703122,
			"-0.011": 2.66498949406,
			"-0.01": 2.38927832856,
			"-0.009": 2.33273212785,
			"-0.008": 4.2797264022,
			"-0.007": 6.50461925916,
			"-0.006": 6.51314901474,
			"-0.005": 10.0952376133,
			"-0.004": 12.6771355046,
			"-0.003": 18.4642269285,
			"-0.002": 24.4565130161,
			"-0.001": 24.6733892862,
			"0.0": 23.7764587631,
			"0.001": 18.7168193841,
			"0.002": 7.85887613993,
			"0.003": 4.23301217368,
			"0.004": 4.16547614657,
			"0.005": 3.81227830866,
			"0.006": 3.58848777312,
			"0.007": 2.94860169243,
			"0.008": 3.3009867464,
			"0.009": 4.34350100217,
			"0.01": 4.89839105433,
			"0.011": 6.47554684585,
			"0.012": 8.35441798843,
			"0.013": 5.97648491483,
			"0.014": 1.986283088,
			"0.015": 0.00641543506213,
			"0.016": 0.0,
			"0.017": 0.0,
			"0.018": 0.0,
			"0.019": 0.0,
			"0.02": 0.0,
			"0.021": 0.0,
			"0.022": 0.0,
			"0.023": 0.0,
			"0.024": 0.0,
			"0.025": 0.0
		}
	}
}
