{
	 "smiles": "CC1=C(C)C(C)=C(S)C(C)=C1C", 
	 "Tm": 336.15, 
	 "num_atms": 28, 
	 "gaussian": { 
		 "optdone": 1, 
		 "sigma_profile": "yes", 
		 "theory": "DFT", 
		 "functional": "B3LYP", 
		 "basiset": "6-31G**", 
		 "properties": { 
			 "R2extent": 3462.9082, 
			 "electric_dipole_moment_norm": 1.77437388957, 
			 "electric_quadrupole_moment_norm": 8.81800576378, 
			 "total_energy": -827.018954184, 
			 "HOMO_LUMO_gap": 0.2106, 
			 "cosmo_polarized_energy": -5.03, 
			 "cosmo_cavitation_energy": 29.34, 
			 "cosmo_dispersion_energy": -22.22, 
			 "cosmo_repulsion_energy": 1.69, 
			 "cosmo_total_nonelectrostatic_energy": 8.81, 
			 "SMD_solvation_energy": 4.52 
		},
		"coords": [
			{
				"x": -1.1153287469,
				"y": -0.8571799132,
				"z": -0.8895687448,
				"element": "C" 
			},
			{
				"x": -0.2331673102,
				"y": 0.0728677509,
				"z": -0.0781560001,
				"element": "C" 
			},
			{
				"x": -0.5809731654,
				"y": 1.4288793435,
				"z": 0.0760368788,
				"element": "C" 
			},
			{
				"x": -1.8394697254,
				"y": 1.955330473,
				"z": -0.5897047059,
				"element": "C" 
			},
			{
				"x": 0.2389310879,
				"y": 2.292781844,
				"z": 0.8332846357,
				"element": "C" 
			},
			{
				"x": -0.1250981756,
				"y": 3.7585740514,
				"z": 0.965493225,
				"element": "C" 
			},
			{
				"x": 1.3802458269,
				"y": 1.7592834676,
				"z": 1.4654421369,
				"element": "C" 
			},
			{
				"x": 2.3937371307,
				"y": 2.8583334406,
				"z": 2.4847077375,
				"element": "S" 
			},
			{
				"x": 1.7211084521,
				"y": 0.3960229926,
				"z": 1.3482993906,
				"element": "C" 
			},
			{
				"x": 2.9027723836,
				"y": -0.1712744428,
				"z": 2.1042317284,
				"element": "C" 
			},
			{
				"x": 0.9354850447,
				"y": -0.4325246504,
				"z": 0.524630563,
				"element": "C" 
			},
			{
				"x": 1.3435889567,
				"y": -1.8756863721,
				"z": 0.2920093975,
				"element": "C" 
			},
			{
				"x": -0.6955249117,
				"y": -1.0516025929,
				"z": -1.8859362862,
				"element": "H" 
			},
			{
				"x": -2.1152198935,
				"y": -0.4503972936,
				"z": -1.0389332088,
				"element": "H" 
			},
			{
				"x": -1.2338746241,
				"y": -1.8276541626,
				"z": -0.3992556952,
				"element": "H" 
			},
			{
				"x": -2.7398772473,
				"y": 1.4950214309,
				"z": -0.1643659624,
				"element": "H" 
			},
			{
				"x": -1.9514741846,
				"y": 3.0321879239,
				"z": -0.4768037216,
				"element": "H" 
			},
			{
				"x": -1.8484906423,
				"y": 1.7390088186,
				"z": -1.6635882976,
				"element": "H" 
			},
			{
				"x": -0.2621913829,
				"y": 4.2264377303,
				"z": -0.0150937142,
				"element": "H" 
			},
			{
				"x": 0.6500978517,
				"y": 4.3213212834,
				"z": 1.4841427624,
				"element": "H" 
			},
			{
				"x": -1.0604206367,
				"y": 3.8929465548,
				"z": 1.521686484,
				"element": "H" 
			},
			{
				"x": 3.5984559828,
				"y": 2.3864039355,
				"z": 2.1116849997,
				"element": "H" 
			},
			{
				"x": 2.9792531298,
				"y": 0.2820485109,
				"z": 3.0960364213,
				"element": "H" 
			},
			{
				"x": 3.8570765044,
				"y": 0.0159707835,
				"z": 1.5906543142,
				"element": "H" 
			},
			{
				"x": 2.8184952582,
				"y": -1.2500425324,
				"z": 2.2397750121,
				"element": "H" 
			},
			{
				"x": 0.9556373922,
				"y": -2.2561175794,
				"z": -0.6541948139,
				"element": "H" 
			},
			{
				"x": 0.9755482118,
				"y": -2.5435659055,
				"z": 1.0830739887,
				"element": "H" 
			},
			{
				"x": 2.4296774328,
				"y": -1.9864748907,
				"z": 0.2567114748,
				"element": "H" 
			}
		],
		 "valence_orbital": [ 
			{
				"type": "occ",
				"energy": -0.32192,
				"method": "rhf"
			},
			{
				"type": "occ",
				"energy": -0.30997,
				"method": "rhf"
			},
			{
				"type": "occ",
				"energy": -0.26003,
				"method": "rhf"
			},
			{
				"type": "occ",
				"energy": -0.22049,
				"method": "rhf"
			},
			{
				"type": "occ",
				"energy": -0.20876,
				"method": "rhf"
			},
			{
				"type": "unocc",
				"energy": 0.00184,
				"method": "rhf"
			},
			{
				"type": "unocc",
				"energy": 0.00689,
				"method": "rhf"
			},
			{
				"type": "unocc",
				"energy": 0.04059,
				"method": "rhf"
			},
			{
				"type": "unocc",
				"energy": 0.06851,
				"method": "rhf"
			},
			{
				"type": "unocc",
				"energy": 0.09426,
				"method": "rhf"
			}
		],
		"cosmo_sigma_profile": { 
			"-0.025": 0.0,
			"-0.024": 0.0,
			"-0.023": 0.0,
			"-0.022": 0.0,
			"-0.021": 0.0,
			"-0.02": 0.0,
			"-0.019": 0.0,
			"-0.018": 0.0,
			"-0.017": 0.0,
			"-0.016": 0.0,
			"-0.015": 0.0,
			"-0.014": 0.0,
			"-0.013": 0.0,
			"-0.012": 0.0,
			"-0.011": 0.0,
			"-0.01": 0.0696478972854,
			"-0.009": 1.32062738305,
			"-0.008": 1.5986861207,
			"-0.007": 1.75307214765,
			"-0.006": 2.37422028301,
			"-0.005": 2.10437333153,
			"-0.004": 14.2062805094,
			"-0.003": 28.7543730069,
			"-0.002": 31.6106034096,
			"-0.001": 30.2828078443,
			"0.0": 34.0334575645,
			"0.001": 23.9573008551,
			"0.002": 11.392428178,
			"0.003": 9.30221287666,
			"0.004": 9.04397725115,
			"0.005": 11.4500064185,
			"0.006": 9.31726470512,
			"0.007": 6.11670890652,
			"0.008": 2.15715470368,
			"0.009": 1.18622147445,
			"0.01": 0.194083543921,
			"0.011": 0.0,
			"0.012": 0.0,
			"0.013": 0.0,
			"0.014": 0.0,
			"0.015": 0.0,
			"0.016": 0.0,
			"0.017": 0.0,
			"0.018": 0.0,
			"0.019": 0.0,
			"0.02": 0.0,
			"0.021": 0.0,
			"0.022": 0.0,
			"0.023": 0.0,
			"0.024": 0.0,
			"0.025": 0.0
		}
	}
}
