{
	 "smiles": "CCCCCCCCCC(=O)OCC", 
	 "Tm": 253.15, 
	 "num_atms": 38, 
	 "gaussian": { 
		 "optdone": 1, 
		 "sigma_profile": "yes", 
		 "theory": "DFT", 
		 "functional": "B3LYP", 
		 "basiset": "6-31G**", 
		 "properties": { 
			 "R2extent": 6376.7834, 
			 "electric_dipole_moment_norm": 1.83131138532, 
			 "electric_quadrupole_moment_norm": 10.5245048221, 
			 "total_energy": -622.234644629, 
			 "HOMO_LUMO_gap": 0.2773, 
			 "cosmo_polarized_energy": -6.4, 
			 "cosmo_cavitation_energy": 39.07, 
			 "cosmo_dispersion_energy": -26.49, 
			 "cosmo_repulsion_energy": 2.18, 
			 "cosmo_total_nonelectrostatic_energy": 14.75, 
			 "SMD_solvation_energy": 6.73 
		},
		"coords": [
			{
				"x": 4.2912843339,
				"y": -3.1116163748,
				"z": -0.8260657185,
				"element": "C" 
			},
			{
				"x": 2.8343245492,
				"y": -3.3512050776,
				"z": -1.2345631076,
				"element": "C" 
			},
			{
				"x": 2.167681476,
				"y": -2.1167024779,
				"z": -1.8558229491,
				"element": "C" 
			},
			{
				"x": 0.7077319603,
				"y": -2.3568283954,
				"z": -2.2642934275,
				"element": "C" 
			},
			{
				"x": 0.0356240241,
				"y": -1.1715585554,
				"z": -2.9794418016,
				"element": "C" 
			},
			{
				"x": -0.0943250745,
				"y": 0.1245841155,
				"z": -2.156645251,
				"element": "C" 
			},
			{
				"x": -0.9147709558,
				"y": 0.0186680096,
				"z": -0.8591273542,
				"element": "C" 
			},
			{
				"x": -2.3896701851,
				"y": -0.3488144933,
				"z": -1.0730735043,
				"element": "C" 
			},
			{
				"x": -3.206227537,
				"y": -0.3914745392,
				"z": 0.2330814006,
				"element": "C" 
			},
			{
				"x": -3.3018330009,
				"y": 0.9465372219,
				"z": 0.941225181,
				"element": "C" 
			},
			{
				"x": -2.937911385,
				"y": 1.1663647098,
				"z": 2.0772237743,
				"element": "O" 
			},
			{
				"x": -3.8676503729,
				"y": 1.8810713206,
				"z": 0.1385846413,
				"element": "O" 
			},
			{
				"x": -4.0267305114,
				"y": 3.2058317704,
				"z": 0.6988347451,
				"element": "C" 
			},
			{
				"x": -2.7628626962,
				"y": 4.0363267402,
				"z": 0.5324325226,
				"element": "C" 
			},
			{
				"x": 4.9025686243,
				"y": -2.823517661,
				"z": -1.6890889682,
				"element": "H" 
			},
			{
				"x": 4.7381128606,
				"y": -4.0101679363,
				"z": -0.3879183801,
				"element": "H" 
			},
			{
				"x": 4.3682232292,
				"y": -2.3074034452,
				"z": -0.0853139918,
				"element": "H" 
			},
			{
				"x": 2.7860558052,
				"y": -4.1853395608,
				"z": -1.947958957,
				"element": "H" 
			},
			{
				"x": 2.25604343,
				"y": -3.6707165746,
				"z": -0.3567357898,
				"element": "H" 
			},
			{
				"x": 2.226714978,
				"y": -1.2841844048,
				"z": -1.1418645452,
				"element": "H" 
			},
			{
				"x": 2.7430573321,
				"y": -1.8000101218,
				"z": -2.7381787094,
				"element": "H" 
			},
			{
				"x": 0.1258814452,
				"y": -2.6380448313,
				"z": -1.3757235116,
				"element": "H" 
			},
			{
				"x": 0.6676183805,
				"y": -3.2285786608,
				"z": -2.9316591749,
				"element": "H" 
			},
			{
				"x": -0.9579192142,
				"y": -1.4860978439,
				"z": -3.3236385263,
				"element": "H" 
			},
			{
				"x": 0.6047845392,
				"y": -0.9422980643,
				"z": -3.8907164235,
				"element": "H" 
			},
			{
				"x": -0.5465261422,
				"y": 0.8946776035,
				"z": -2.7965407313,
				"element": "H" 
			},
			{
				"x": 0.906616422,
				"y": 0.4972823233,
				"z": -1.9061709923,
				"element": "H" 
			},
			{
				"x": -0.8575063038,
				"y": 0.9833234931,
				"z": -0.3380695993,
				"element": "H" 
			},
			{
				"x": -0.4548731153,
				"y": -0.7117159856,
				"z": -0.1801249719,
				"element": "H" 
			},
			{
				"x": -2.8542550666,
				"y": 0.3685315142,
				"z": -1.7596767074,
				"element": "H" 
			},
			{
				"x": -2.4662001526,
				"y": -1.3332630857,
				"z": -1.5489502804,
				"element": "H" 
			},
			{
				"x": -4.2277539613,
				"y": -0.7233945158,
				"z": 0.0110416917,
				"element": "H" 
			},
			{
				"x": -2.7702414869,
				"y": -1.0967569903,
				"z": 0.945608748,
				"element": "H" 
			},
			{
				"x": -4.8640096091,
				"y": 3.6370807539,
				"z": 0.1444833034,
				"element": "H" 
			},
			{
				"x": -4.2984671472,
				"y": 3.1121256891,
				"z": 1.7530390611,
				"element": "H" 
			},
			{
				"x": -2.4668586938,
				"y": 4.0897382709,
				"z": -0.5195528605,
				"element": "H" 
			},
			{
				"x": -1.9424507723,
				"y": 3.6050867009,
				"z": 1.1112439274,
				"element": "H" 
			},
			{
				"x": -2.9369800056,
				"y": 5.0560593592,
				"z": 0.892117238,
				"element": "H" 
			}
		],
		 "valence_orbital": [ 
			{
				"type": "occ",
				"energy": -0.31164,
				"method": "rhf"
			},
			{
				"type": "occ",
				"energy": -0.30651,
				"method": "rhf"
			},
			{
				"type": "occ",
				"energy": -0.30243,
				"method": "rhf"
			},
			{
				"type": "occ",
				"energy": -0.29346,
				"method": "rhf"
			},
			{
				"type": "occ",
				"energy": -0.26216,
				"method": "rhf"
			},
			{
				"type": "unocc",
				"energy": 0.01514,
				"method": "rhf"
			},
			{
				"type": "unocc",
				"energy": 0.07734,
				"method": "rhf"
			},
			{
				"type": "unocc",
				"energy": 0.09833,
				"method": "rhf"
			},
			{
				"type": "unocc",
				"energy": 0.10188,
				"method": "rhf"
			},
			{
				"type": "unocc",
				"energy": 0.10705,
				"method": "rhf"
			}
		],
		"cosmo_sigma_profile": { 
			"-0.025": 0.0,
			"-0.024": 0.0,
			"-0.023": 0.0,
			"-0.022": 0.0,
			"-0.021": 0.0,
			"-0.02": 0.0,
			"-0.019": 0.0,
			"-0.018": 0.0,
			"-0.017": 0.0,
			"-0.016": 0.0,
			"-0.015": 0.0,
			"-0.014": 0.0,
			"-0.013": 0.0,
			"-0.012": 0.0,
			"-0.011": 0.0,
			"-0.01": 0.0,
			"-0.009": 0.0,
			"-0.008": 0.0,
			"-0.007": 0.0,
			"-0.006": 1.84609236036,
			"-0.005": 6.47819784472,
			"-0.004": 13.520699683,
			"-0.003": 21.3415497152,
			"-0.002": 49.0616709719,
			"-0.001": 58.5714506776,
			"0.0": 57.0087099549,
			"0.001": 41.9809131689,
			"0.002": 20.3023678902,
			"0.003": 4.11687564127,
			"0.004": 3.27579388343,
			"0.005": 3.29883756284,
			"0.006": 2.52396977792,
			"0.007": 2.15710484373,
			"0.008": 2.45711338727,
			"0.009": 2.11691208852,
			"0.01": 2.00194253395,
			"0.011": 1.65742948687,
			"0.012": 4.53877076344,
			"0.013": 2.20782526464,
			"0.014": 0.250371610277,
			"0.015": 0.0,
			"0.016": 0.0,
			"0.017": 0.0,
			"0.018": 0.0,
			"0.019": 0.0,
			"0.02": 0.0,
			"0.021": 0.0,
			"0.022": 0.0,
			"0.023": 0.0,
			"0.024": 0.0,
			"0.025": 0.0
		}
	}
}
