{
	 "smiles": "ClCC(=O)N1CCC(CC1)C1=NC2=C(S1)C=CC=C2", 
	 "Tm": 333.15, 
	 "num_atms": 34, 
	 "gaussian": { 
		 "optdone": 1, 
		 "sigma_profile": "yes", 
		 "theory": "DFT", 
		 "functional": "B3LYP", 
		 "basiset": "6-31G**", 
		 "properties": { 
			 "R2extent": 9318.1922, 
			 "electric_dipole_moment_norm": 6.00985174609, 
			 "electric_quadrupole_moment_norm": 22.8936116006, 
			 "total_energy": -1585.65809781, 
			 "HOMO_LUMO_gap": 0.1993, 
			 "cosmo_polarized_energy": -17.65, 
			 "cosmo_cavitation_energy": 39.49, 
			 "cosmo_dispersion_energy": -29.15, 
			 "cosmo_repulsion_energy": 2.2, 
			 "cosmo_total_nonelectrostatic_energy": 12.54, 
			 "SMD_solvation_energy": 3.85 
		},
		"coords": [
			{
				"x": 0.4747657803,
				"y": -5.0871633606,
				"z": -2.7618432748,
				"element": "Cl" 
			},
			{
				"x": 0.8008496831,
				"y": -3.464103175,
				"z": -2.0811046528,
				"element": "C" 
			},
			{
				"x": -0.3930268734,
				"y": -2.5065773617,
				"z": -2.2510199127,
				"element": "C" 
			},
			{
				"x": -1.3981228501,
				"y": -2.8147388661,
				"z": -2.8729688461,
				"element": "O" 
			},
			{
				"x": -0.2338209473,
				"y": -1.280902861,
				"z": -1.6544543829,
				"element": "N" 
			},
			{
				"x": 0.9390140912,
				"y": -0.8859675897,
				"z": -0.8584220561,
				"element": "C" 
			},
			{
				"x": 1.0402191642,
				"y": 0.6397519743,
				"z": -0.7838855017,
				"element": "C" 
			},
			{
				"x": -0.2023145456,
				"y": 1.2903492012,
				"z": -0.123364446,
				"element": "C" 
			},
			{
				"x": -1.4705853993,
				"y": 0.4174203131,
				"z": -0.3741161819,
				"element": "C" 
			},
			{
				"x": -1.3719940044,
				"y": -0.3501851465,
				"z": -1.692305748,
				"element": "C" 
			},
			{
				"x": -0.0073942539,
				"y": 1.514892995,
				"z": 1.3550055754,
				"element": "C" 
			},
			{
				"x": 0.7948611901,
				"y": 0.8289577285,
				"z": 2.1023452212,
				"element": "N" 
			},
			{
				"x": 0.7196049586,
				"y": 1.2213187771,
				"z": 3.431961875,
				"element": "C" 
			},
			{
				"x": -0.1977581195,
				"y": 2.2655175201,
				"z": 3.7030394289,
				"element": "C" 
			},
			{
				"x": -0.9726997065,
				"y": 2.749829169,
				"z": 2.206978438,
				"element": "S" 
			},
			{
				"x": -0.3745924954,
				"y": 2.7623374382,
				"z": 4.9965822964,
				"element": "C" 
			},
			{
				"x": 0.3786528777,
				"y": 2.1984646635,
				"z": 6.0235448611,
				"element": "C" 
			},
			{
				"x": 1.2915116818,
				"y": 1.160721727,
				"z": 5.7675527209,
				"element": "C" 
			},
			{
				"x": 1.4686299781,
				"y": 0.6679834193,
				"z": 4.4801051298,
				"element": "C" 
			},
			{
				"x": 1.0509279044,
				"y": -3.596253591,
				"z": -1.0263591238,
				"element": "H" 
			},
			{
				"x": 1.6822277051,
				"y": -3.0708104304,
				"z": -2.593831944,
				"element": "H" 
			},
			{
				"x": 1.8481324606,
				"y": -1.2748497429,
				"z": -1.3256668929,
				"element": "H" 
			},
			{
				"x": 0.8896395804,
				"y": -1.2963764662,
				"z": 0.1595021706,
				"element": "H" 
			},
			{
				"x": 1.9435178541,
				"y": 0.9053512906,
				"z": -0.2303263562,
				"element": "H" 
			},
			{
				"x": 1.1490443192,
				"y": 1.0323439117,
				"z": -1.8006067745,
				"element": "H" 
			},
			{
				"x": -0.3639941487,
				"y": 2.2683623342,
				"z": -0.591855665,
				"element": "H" 
			},
			{
				"x": -1.5860531528,
				"y": -0.3031892984,
				"z": 0.4431262475,
				"element": "H" 
			},
			{
				"x": -2.3682161695,
				"y": 1.0434414035,
				"z": -0.3748407993,
				"element": "H" 
			},
			{
				"x": -1.2701640292,
				"y": 0.3450082208,
				"z": -2.5381106771,
				"element": "H" 
			},
			{
				"x": -2.2687333837,
				"y": -0.9438993487,
				"z": -1.8750813879,
				"element": "H" 
			},
			{
				"x": -1.0779250808,
				"y": 3.5634724419,
				"z": 5.1994672979,
				"element": "H" 
			},
			{
				"x": 0.2568952691,
				"y": 2.5680944103,
				"z": 7.0372546858,
				"element": "H" 
			},
			{
				"x": 1.8650048685,
				"y": 0.7395891049,
				"z": 6.587659806,
				"element": "H" 
			},
			{
				"x": 2.1693957935,
				"y": -0.1325908058,
				"z": 4.2672388689,
				"element": "H" 
			}
		],
		 "valence_orbital": [ 
			{
				"type": "occ",
				"energy": -0.28525,
				"method": "rhf"
			},
			{
				"type": "occ",
				"energy": -0.25417,
				"method": "rhf"
			},
			{
				"type": "occ",
				"energy": -0.24463,
				"method": "rhf"
			},
			{
				"type": "occ",
				"energy": -0.243,
				"method": "rhf"
			},
			{
				"type": "occ",
				"energy": -0.24093,
				"method": "rhf"
			},
			{
				"type": "unocc",
				"energy": -0.04163,
				"method": "rhf"
			},
			{
				"type": "unocc",
				"energy": -0.01337,
				"method": "rhf"
			},
			{
				"type": "unocc",
				"energy": -0.00065,
				"method": "rhf"
			},
			{
				"type": "unocc",
				"energy": 0.02064,
				"method": "rhf"
			},
			{
				"type": "unocc",
				"energy": 0.02546,
				"method": "rhf"
			}
		],
		"cosmo_sigma_profile": { 
			"-0.025": 0.0,
			"-0.024": 0.0,
			"-0.023": 0.0,
			"-0.022": 0.0,
			"-0.021": 0.0,
			"-0.02": 0.0,
			"-0.019": 0.0,
			"-0.018": 0.0,
			"-0.017": 0.0,
			"-0.016": 0.0,
			"-0.015": 0.0,
			"-0.014": 0.0,
			"-0.013": 0.0,
			"-0.012": 0.0,
			"-0.011": 0.0,
			"-0.01": 0.559293953013,
			"-0.009": 4.06352944559,
			"-0.008": 5.56721904313,
			"-0.007": 8.60587927666,
			"-0.006": 16.5457226995,
			"-0.005": 25.0676490102,
			"-0.004": 31.3702222458,
			"-0.003": 29.2902069758,
			"-0.002": 22.5636101081,
			"-0.001": 20.7850172709,
			"0.0": 17.9338625003,
			"0.001": 16.8721108677,
			"0.002": 19.9896772154,
			"0.003": 22.496200687,
			"0.004": 20.5162983612,
			"0.005": 15.7456615105,
			"0.006": 11.0179875821,
			"0.007": 4.28244847692,
			"0.008": 4.4100227703,
			"0.009": 2.8756461657,
			"0.01": 2.29299740415,
			"0.011": 2.15415583074,
			"0.012": 2.52569468388,
			"0.013": 4.77345395526,
			"0.014": 3.59187420954,
			"0.015": 1.35297689375,
			"0.016": 0.0,
			"0.017": 0.0,
			"0.018": 0.0,
			"0.019": 0.0,
			"0.02": 0.0,
			"0.021": 0.0,
			"0.022": 0.0,
			"0.023": 0.0,
			"0.024": 0.0,
			"0.025": 0.0
		}
	}
}
