{
	 "smiles": "BrC1CCN(C1=O)C1=CC=CC=C1", 
	 "Tm": 373.15, 
	 "num_atms": 23, 
	 "gaussian": { 
		 "optdone": 1, 
		 "sigma_profile": "yes", 
		 "theory": "DFT", 
		 "functional": "B3LYP", 
		 "basiset": "6-31G**", 
		 "properties": { 
			 "R2extent": 4147.2539, 
			 "electric_dipole_moment_norm": 4.01235118727, 
			 "electric_quadrupole_moment_norm": 9.22725123696, 
			 "total_energy": -3088.48847581, 
			 "HOMO_LUMO_gap": 0.17864, 
			 "cosmo_polarized_energy": -11.65, 
			 "cosmo_cavitation_energy": 28.06, 
			 "cosmo_dispersion_energy": -21.13, 
			 "cosmo_repulsion_energy": 1.66, 
			 "cosmo_total_nonelectrostatic_energy": 8.58, 
			 "SMD_solvation_energy": 3.47 
		},
		"coords": [
			{
				"x": -2.3829736045,
				"y": -0.4159605178,
				"z": -1.912780955,
				"element": "Br" 
			},
			{
				"x": -2.5008543426,
				"y": -1.0281867191,
				"z": -0.0161917221,
				"element": "C" 
			},
			{
				"x": -2.1702098261,
				"y": -2.5056658766,
				"z": 0.1068174734,
				"element": "C" 
			},
			{
				"x": -0.639404757,
				"y": -2.5116095305,
				"z": 0.2282770982,
				"element": "C" 
			},
			{
				"x": -0.3410857143,
				"y": -1.2288279952,
				"z": 0.878782274,
				"element": "N" 
			},
			{
				"x": -1.3911187455,
				"y": -0.3292342331,
				"z": 0.7728211895,
				"element": "C" 
			},
			{
				"x": -1.453393843,
				"y": 0.8015507741,
				"z": 1.2198717137,
				"element": "O" 
			},
			{
				"x": 0.9401697259,
				"y": -0.953899134,
				"z": 1.4207894365,
				"element": "C" 
			},
			{
				"x": 1.1755010612,
				"y": 0.1798335251,
				"z": 2.21991834,
				"element": "C" 
			},
			{
				"x": 2.4471447923,
				"y": 0.4040131639,
				"z": 2.7429498392,
				"element": "C" 
			},
			{
				"x": 3.4989966523,
				"y": -0.4788911976,
				"z": 2.4921213483,
				"element": "C" 
			},
			{
				"x": 3.2654001055,
				"y": -1.6007971801,
				"z": 1.6985748247,
				"element": "C" 
			},
			{
				"x": 1.9999807054,
				"y": -1.8407616191,
				"z": 1.1642595031,
				"element": "C" 
			},
			{
				"x": -3.4893503023,
				"y": -0.7197366196,
				"z": 0.313606556,
				"element": "H" 
			},
			{
				"x": -2.536398977,
				"y": -3.1131472956,
				"z": -0.7214792304,
				"element": "H" 
			},
			{
				"x": -2.616359717,
				"y": -2.8818381614,
				"z": 1.0356148214,
				"element": "H" 
			},
			{
				"x": -0.27613709,
				"y": -3.3420678734,
				"z": 0.8391391001,
				"element": "H" 
			},
			{
				"x": -0.1590386618,
				"y": -2.5681389961,
				"z": -0.7567042439,
				"element": "H" 
			},
			{
				"x": 0.3690218742,
				"y": 0.8721187556,
				"z": 2.4119172065,
				"element": "H" 
			},
			{
				"x": 2.6119268861,
				"y": 1.2841342386,
				"z": 3.3580188768,
				"element": "H" 
			},
			{
				"x": 4.4850758365,
				"y": -0.2939373085,
				"z": 2.9070702709,
				"element": "H" 
			},
			{
				"x": 4.0703210946,
				"y": -2.2983198907,
				"z": 1.4853581204,
				"element": "H" 
			},
			{
				"x": 1.8516868467,
				"y": -2.7127303085,
				"z": 0.5382481588,
				"element": "H" 
			}
		],
		 "valence_orbital": [ 
			{
				"type": "occ",
				"energy": -0.28721,
				"method": "rhf"
			},
			{
				"type": "occ",
				"energy": -0.28212,
				"method": "rhf"
			},
			{
				"type": "occ",
				"energy": -0.25784,
				"method": "rhf"
			},
			{
				"type": "occ",
				"energy": -0.25205,
				"method": "rhf"
			},
			{
				"type": "occ",
				"energy": -0.22354,
				"method": "rhf"
			},
			{
				"type": "unocc",
				"energy": -0.0449,
				"method": "rhf"
			},
			{
				"type": "unocc",
				"energy": -0.00322,
				"method": "rhf"
			},
			{
				"type": "unocc",
				"energy": 0.00448,
				"method": "rhf"
			},
			{
				"type": "unocc",
				"energy": 0.05097,
				"method": "rhf"
			},
			{
				"type": "unocc",
				"energy": 0.07888,
				"method": "rhf"
			}
		],
		"cosmo_sigma_profile": { 
			"-0.025": 0.0,
			"-0.024": 0.0,
			"-0.023": 0.0,
			"-0.022": 0.0,
			"-0.021": 0.0,
			"-0.02": 0.0,
			"-0.019": 0.0,
			"-0.018": 0.0,
			"-0.017": 0.0,
			"-0.016": 0.0,
			"-0.015": 0.0,
			"-0.014": 0.0,
			"-0.013": 0.0,
			"-0.012": 0.0,
			"-0.011": 0.0,
			"-0.01": 0.0,
			"-0.009": 1.23514712824,
			"-0.008": 3.06921540289,
			"-0.007": 7.94335409573,
			"-0.006": 18.4261636874,
			"-0.005": 19.7178643414,
			"-0.004": 19.4445353689,
			"-0.003": 17.9175696184,
			"-0.002": 12.3558908627,
			"-0.001": 12.4075953746,
			"0.0": 11.2045159731,
			"0.001": 12.5127761564,
			"0.002": 12.6146000092,
			"0.003": 14.838181647,
			"0.004": 16.7554789004,
			"0.005": 22.0002972703,
			"0.006": 9.76774185432,
			"0.007": 1.84130859844,
			"0.008": 1.55295872305,
			"0.009": 1.26805208235,
			"0.01": 1.74635598182,
			"0.011": 2.88395047118,
			"0.012": 3.36006092381,
			"0.013": 1.70882437216,
			"0.014": 0.128304439184,
			"0.015": 0.0,
			"0.016": 0.0,
			"0.017": 0.0,
			"0.018": 0.0,
			"0.019": 0.0,
			"0.02": 0.0,
			"0.021": 0.0,
			"0.022": 0.0,
			"0.023": 0.0,
			"0.024": 0.0,
			"0.025": 0.0
		}
	}
}
