{
	 "smiles": "CC1CCCO1", 
	 "Tm": 137.15, 
	 "num_atms": 16, 
	 "gaussian": { 
		 "optdone": 1, 
		 "sigma_profile": "yes", 
		 "theory": "DFT", 
		 "functional": "B3LYP", 
		 "basiset": "6-31G**", 
		 "properties": { 
			 "R2extent": 914.1356, 
			 "electric_dipole_moment_norm": 1.6126086351, 
			 "electric_quadrupole_moment_norm": 2.8728664292, 
			 "total_energy": -271.778540571, 
			 "HOMO_LUMO_gap": 0.32503, 
			 "cosmo_polarized_energy": -3.91, 
			 "cosmo_cavitation_energy": 17.45, 
			 "cosmo_dispersion_energy": -13.5, 
			 "cosmo_repulsion_energy": 1.18, 
			 "cosmo_total_nonelectrostatic_energy": 5.13, 
			 "SMD_solvation_energy": 2.84 
		},
		"coords": [
			{
				"x": 0.1218371013,
				"y": 0.9816931366,
				"z": 0.9658590676,
				"element": "C" 
			},
			{
				"x": -0.8530237946,
				"y": -0.1857703507,
				"z": 0.9446656458,
				"element": "C" 
			},
			{
				"x": -0.4378604553,
				"y": -1.4167414615,
				"z": 1.7602885223,
				"element": "C" 
			},
			{
				"x": -1.206782131,
				"y": -2.5385758639,
				"z": 1.0491220395,
				"element": "C" 
			},
			{
				"x": -1.1557746416,
				"y": -2.08117158,
				"z": -0.4193228555,
				"element": "C" 
			},
			{
				"x": -0.978265121,
				"y": -0.6605923975,
				"z": -0.4047372201,
				"element": "O" 
			},
			{
				"x": 1.1134747482,
				"y": 0.6568820771,
				"z": 0.6347789072,
				"element": "H" 
			},
			{
				"x": 0.206540332,
				"y": 1.3961265514,
				"z": 1.9761850316,
				"element": "H" 
			},
			{
				"x": -0.2180520348,
				"y": 1.777473097,
				"z": 0.296772942,
				"element": "H" 
			},
			{
				"x": -1.8411337528,
				"y": 0.1617087835,
				"z": 1.294680617,
				"element": "H" 
			},
			{
				"x": 0.6444970851,
				"y": -1.5728440288,
				"z": 1.6716116697,
				"element": "H" 
			},
			{
				"x": -0.6824625994,
				"y": -1.3244860397,
				"z": 2.8225473848,
				"element": "H" 
			},
			{
				"x": -2.2423849487,
				"y": -2.5719083361,
				"z": 1.4058143015,
				"element": "H" 
			},
			{
				"x": -0.7714222394,
				"y": -3.5308550672,
				"z": 1.1973792096,
				"element": "H" 
			},
			{
				"x": -2.0721971012,
				"y": -2.3313761908,
				"z": -0.9688445254,
				"element": "H" 
			},
			{
				"x": -0.3099904469,
				"y": -2.5377623294,
				"z": -0.9529007376,
				"element": "H" 
			}
		],
		 "valence_orbital": [ 
			{
				"type": "occ",
				"energy": -0.34807,
				"method": "rhf"
			},
			{
				"type": "occ",
				"energy": -0.33261,
				"method": "rhf"
			},
			{
				"type": "occ",
				"energy": -0.32931,
				"method": "rhf"
			},
			{
				"type": "occ",
				"energy": -0.30416,
				"method": "rhf"
			},
			{
				"type": "occ",
				"energy": -0.23683,
				"method": "rhf"
			},
			{
				"type": "unocc",
				"energy": 0.0882,
				"method": "rhf"
			},
			{
				"type": "unocc",
				"energy": 0.11407,
				"method": "rhf"
			},
			{
				"type": "unocc",
				"energy": 0.11979,
				"method": "rhf"
			},
			{
				"type": "unocc",
				"energy": 0.13572,
				"method": "rhf"
			},
			{
				"type": "unocc",
				"energy": 0.15347,
				"method": "rhf"
			}
		],
		"cosmo_sigma_profile": { 
			"-0.025": 0.0,
			"-0.024": 0.0,
			"-0.023": 0.0,
			"-0.022": 0.0,
			"-0.021": 0.0,
			"-0.02": 0.0,
			"-0.019": 0.0,
			"-0.018": 0.0,
			"-0.017": 0.0,
			"-0.016": 0.0,
			"-0.015": 0.0,
			"-0.014": 0.0,
			"-0.013": 0.0,
			"-0.012": 0.0,
			"-0.011": 0.0,
			"-0.01": 0.0,
			"-0.009": 0.0,
			"-0.008": 0.0,
			"-0.007": 0.0,
			"-0.006": 0.0,
			"-0.005": 0.00498029510406,
			"-0.004": 5.16542888198,
			"-0.003": 21.8147144257,
			"-0.002": 32.1195206346,
			"-0.001": 23.113860426,
			"0.0": 18.3914624304,
			"0.001": 12.9684426429,
			"0.002": 3.12651739641,
			"0.003": 1.56710468948,
			"0.004": 1.71164602531,
			"0.005": 1.92532467888,
			"0.006": 1.52773376796,
			"0.007": 1.18834104947,
			"0.008": 1.34198485579,
			"0.009": 1.39109082865,
			"0.01": 1.39626360484,
			"0.011": 1.15157213543,
			"0.012": 1.15143473863,
			"0.013": 1.44462364617,
			"0.014": 1.80417039935,
			"0.015": 0.589824478936,
			"0.016": 0.0,
			"0.017": 0.0,
			"0.018": 0.0,
			"0.019": 0.0,
			"0.02": 0.0,
			"0.021": 0.0,
			"0.022": 0.0,
			"0.023": 0.0,
			"0.024": 0.0,
			"0.025": 0.0
		}
	}
}
