{
	 "smiles": "CC1=NN(CC2=CC(N)=CC=C2)C(C)=N1", 
	 "Tm": 383.15, 
	 "num_atms": 29, 
	 "gaussian": { 
		 "optdone": 1, 
		 "sigma_profile": "yes", 
		 "theory": "DFT", 
		 "functional": "B3LYP", 
		 "basiset": "6-31G**", 
		 "properties": { 
			 "R2extent": 3961.0014, 
			 "electric_dipole_moment_norm": 4.15844311852, 
			 "electric_quadrupole_moment_norm": 16.1503420069, 
			 "total_energy": -646.626255787, 
			 "HOMO_LUMO_gap": 0.20171, 
			 "cosmo_polarized_energy": -15.78, 
			 "cosmo_cavitation_energy": 32.82, 
			 "cosmo_dispersion_energy": -23.08, 
			 "cosmo_repulsion_energy": 1.84, 
			 "cosmo_total_nonelectrostatic_energy": 11.58, 
			 "SMD_solvation_energy": 2.87 
		},
		"coords": [
			{
				"x": -2.0521449176,
				"y": -3.7348558579,
				"z": -1.3703111043,
				"element": "C" 
			},
			{
				"x": -1.4493225173,
				"y": -2.6834993145,
				"z": -0.4960146468,
				"element": "C" 
			},
			{
				"x": -1.5891435141,
				"y": -1.3870139737,
				"z": -0.7435112522,
				"element": "N" 
			},
			{
				"x": -0.9050774989,
				"y": -0.81063186,
				"z": 0.2879961706,
				"element": "N" 
			},
			{
				"x": -0.7523835697,
				"y": 0.6374484082,
				"z": 0.3548827332,
				"element": "C" 
			},
			{
				"x": 0.5670349299,
				"y": 1.1418486685,
				"z": -0.2051423044,
				"element": "C" 
			},
			{
				"x": 1.3310776174,
				"y": 2.0461747405,
				"z": 0.5342129053,
				"element": "C" 
			},
			{
				"x": 2.5384891156,
				"y": 2.5600816946,
				"z": 0.0277398357,
				"element": "C" 
			},
			{
				"x": 3.2638525472,
				"y": 3.5102102603,
				"z": 0.7489513601,
				"element": "N" 
			},
			{
				"x": 2.9683288815,
				"y": 2.1349504379,
				"z": -1.2396758417,
				"element": "C" 
			},
			{
				"x": 2.2046115597,
				"y": 1.227544419,
				"z": -1.9716307868,
				"element": "C" 
			},
			{
				"x": 1.0047766558,
				"y": 0.7257782617,
				"z": -1.4689754435,
				"element": "C" 
			},
			{
				"x": -0.383578279,
				"y": -1.7748504535,
				"z": 1.0887099003,
				"element": "C" 
			},
			{
				"x": 0.4338060575,
				"y": -1.5038971971,
				"z": 2.3088247367,
				"element": "C" 
			},
			{
				"x": -0.7170163731,
				"y": -2.9702052789,
				"z": 0.6225864284,
				"element": "N" 
			},
			{
				"x": -2.7551875334,
				"y": -4.3545856306,
				"z": -0.8041686339,
				"element": "H" 
			},
			{
				"x": -1.2780357499,
				"y": -4.4006329748,
				"z": -1.7655510649,
				"element": "H" 
			},
			{
				"x": -2.5818367599,
				"y": -3.2717498337,
				"z": -2.2050425148,
				"element": "H" 
			},
			{
				"x": -1.5950630268,
				"y": 1.0465864426,
				"z": -0.2090362471,
				"element": "H" 
			},
			{
				"x": -0.8672711097,
				"y": 0.9517258888,
				"z": 1.3969833673,
				"element": "H" 
			},
			{
				"x": 0.9866395424,
				"y": 2.3694084954,
				"z": 1.515070883,
				"element": "H" 
			},
			{
				"x": 4.2459966879,
				"y": 3.5677730598,
				"z": 0.5176099031,
				"element": "H" 
			},
			{
				"x": 3.1121011349,
				"y": 3.5030054025,
				"z": 1.7480961711,
				"element": "H" 
			},
			{
				"x": 3.8996225694,
				"y": 2.5205212415,
				"z": -1.6472677458,
				"element": "H" 
			},
			{
				"x": 2.5540666537,
				"y": 0.9083627251,
				"z": -2.9496638199,
				"element": "H" 
			},
			{
				"x": 0.4122987042,
				"y": 0.0178967272,
				"z": -2.0394442356,
				"element": "H" 
			},
			{
				"x": 0.7541262361,
				"y": -2.4572449126,
				"z": 2.7304957166,
				"element": "H" 
			},
			{
				"x": -0.1416187341,
				"y": -0.9646565517,
				"z": 3.0707027287,
				"element": "H" 
			},
			{
				"x": 1.31905069,
				"y": -0.9035930345,
				"z": 2.0737728015,
				"element": "H" 
			}
		],
		 "valence_orbital": [ 
			{
				"type": "occ",
				"energy": -0.26889,
				"method": "rhf"
			},
			{
				"type": "occ",
				"energy": -0.2577,
				"method": "rhf"
			},
			{
				"type": "occ",
				"energy": -0.24862,
				"method": "rhf"
			},
			{
				"type": "occ",
				"energy": -0.23558,
				"method": "rhf"
			},
			{
				"type": "occ",
				"energy": -0.20607,
				"method": "rhf"
			},
			{
				"type": "unocc",
				"energy": -0.00436,
				"method": "rhf"
			},
			{
				"type": "unocc",
				"energy": 0.00979,
				"method": "rhf"
			},
			{
				"type": "unocc",
				"energy": 0.02336,
				"method": "rhf"
			},
			{
				"type": "unocc",
				"energy": 0.06628,
				"method": "rhf"
			},
			{
				"type": "unocc",
				"energy": 0.07567,
				"method": "rhf"
			}
		],
		"cosmo_sigma_profile": { 
			"-0.025": 0.0,
			"-0.024": 0.0,
			"-0.023": 0.0,
			"-0.022": 0.0,
			"-0.021": 0.0,
			"-0.02": 0.0,
			"-0.019": 0.0,
			"-0.018": 0.0,
			"-0.017": 0.0,
			"-0.016": 0.0,
			"-0.015": 0.0,
			"-0.014": 0.0,
			"-0.013": 0.354154290065,
			"-0.012": 2.53902768376,
			"-0.011": 1.93760788755,
			"-0.01": 3.1132282116,
			"-0.009": 4.15346849752,
			"-0.008": 2.22966244202,
			"-0.007": 7.0974345907,
			"-0.006": 13.3024148835,
			"-0.005": 16.9872337404,
			"-0.004": 20.6967139899,
			"-0.003": 20.6759405835,
			"-0.002": 21.524792224,
			"-0.001": 23.4018879596,
			"0.0": 16.4451190479,
			"0.001": 14.7001165699,
			"0.002": 14.1068111237,
			"0.003": 12.6838923339,
			"0.004": 10.264021363,
			"0.005": 11.3890241514,
			"0.006": 12.5148282185,
			"0.007": 7.02301767104,
			"0.008": 3.14307319746,
			"0.009": 2.77336366217,
			"0.01": 2.88094353363,
			"0.011": 2.90105676711,
			"0.012": 2.37870015338,
			"0.013": 2.08215577878,
			"0.014": 2.73036975425,
			"0.015": 1.54153475457,
			"0.016": 1.09491849153,
			"0.017": 0.837698107892,
			"0.018": 0.151459539885,
			"0.019": 0.0,
			"0.02": 0.0,
			"0.021": 0.0,
			"0.022": 0.0,
			"0.023": 0.0,
			"0.024": 0.0,
			"0.025": 0.0
		}
	}
}
