{
	 "smiles": "CC1(C)OC(=O)C(C(=O)O1)C1=CC=CC=C1", 
	 "Tm": 411.15, 
	 "num_atms": 28, 
	 "gaussian": { 
		 "optdone": 1, 
		 "sigma_profile": "yes", 
		 "theory": "DFT", 
		 "functional": "B3LYP", 
		 "basiset": "6-31G**", 
		 "properties": { 
			 "R2extent": 3567.0194, 
			 "electric_dipole_moment_norm": 3.50159867632, 
			 "electric_quadrupole_moment_norm": 14.5107329856, 
			 "total_energy": -765.422414333, 
			 "HOMO_LUMO_gap": 0.23171, 
			 "cosmo_polarized_energy": -12.32, 
			 "cosmo_cavitation_energy": 30.94, 
			 "cosmo_dispersion_energy": -21.99, 
			 "cosmo_repulsion_energy": 1.71, 
			 "cosmo_total_nonelectrostatic_energy": 10.66, 
			 "SMD_solvation_energy": 7.22 
		},
		"coords": [
			{
				"x": 1.3194394481,
				"y": -3.4223201811,
				"z": 0.8862296508,
				"element": "C" 
			},
			{
				"x": 0.6438753288,
				"y": -2.135947697,
				"z": 0.4405945391,
				"element": "C" 
			},
			{
				"x": 1.5045800014,
				"y": -0.8955105444,
				"z": 0.6589789222,
				"element": "C" 
			},
			{
				"x": 0.3635809317,
				"y": -2.308192854,
				"z": -0.9596780451,
				"element": "O" 
			},
			{
				"x": -0.6669853362,
				"y": -1.6658159423,
				"z": -1.5666537545,
				"element": "C" 
			},
			{
				"x": -0.8186325884,
				"y": -1.7772744328,
				"z": -2.7575075221,
				"element": "O" 
			},
			{
				"x": -1.6044550577,
				"y": -0.855936262,
				"z": -0.6783861892,
				"element": "C" 
			},
			{
				"x": -1.6596765827,
				"y": -1.3839291326,
				"z": 0.7506390739,
				"element": "C" 
			},
			{
				"x": -2.6259255302,
				"y": -1.2637790847,
				"z": 1.4616224278,
				"element": "O" 
			},
			{
				"x": -0.5669175182,
				"y": -2.0445843579,
				"z": 1.2116365297,
				"element": "O" 
			},
			{
				"x": -1.3181977552,
				"y": 0.6632867682,
				"z": -0.7405788384,
				"element": "C" 
			},
			{
				"x": -1.6932113784,
				"y": 1.5003803474,
				"z": 0.3197084825,
				"element": "C" 
			},
			{
				"x": -1.4747418666,
				"y": 2.876768325,
				"z": 0.241794717,
				"element": "C" 
			},
			{
				"x": -0.8873614694,
				"y": 3.4364303647,
				"z": -0.8930597462,
				"element": "C" 
			},
			{
				"x": -0.5269835502,
				"y": 2.6086551576,
				"z": -1.956548631,
				"element": "C" 
			},
			{
				"x": -0.7424562299,
				"y": 1.2313899391,
				"z": -1.8856917065,
				"element": "C" 
			},
			{
				"x": 2.2452235896,
				"y": -3.5681486991,
				"z": 0.3253862693,
				"element": "H" 
			},
			{
				"x": 0.6538890998,
				"y": -4.2684076818,
				"z": 0.7036452351,
				"element": "H" 
			},
			{
				"x": 1.547636476,
				"y": -3.3706519654,
				"z": 1.9530712888,
				"element": "H" 
			},
			{
				"x": 0.9907109689,
				"y": 0.0093812082,
				"z": 0.3290559765,
				"element": "H" 
			},
			{
				"x": 2.4362436333,
				"y": -0.9935374127,
				"z": 0.0964233328,
				"element": "H" 
			},
			{
				"x": 1.7397832667,
				"y": -0.7964852945,
				"z": 1.7214993358,
				"element": "H" 
			},
			{
				"x": -2.6075689876,
				"y": -1.0152218132,
				"z": -1.0887187848,
				"element": "H" 
			},
			{
				"x": -2.168211806,
				"y": 1.0817550191,
				"z": 1.1999405881,
				"element": "H" 
			},
			{
				"x": -1.7700187784,
				"y": 3.5102941358,
				"z": 1.0731732745,
				"element": "H" 
			},
			{
				"x": -0.7182263088,
				"y": 4.5076342296,
				"z": -0.950787863,
				"element": "H" 
			},
			{
				"x": -0.0783257402,
				"y": 3.0317165783,
				"z": -2.8506726838,
				"element": "H" 
			},
			{
				"x": -0.4751662597,
				"y": 0.6028512826,
				"z": -2.7278158792,
				"element": "H" 
			}
		],
		 "valence_orbital": [ 
			{
				"type": "occ",
				"energy": -0.31084,
				"method": "rhf"
			},
			{
				"type": "occ",
				"energy": -0.29998,
				"method": "rhf"
			},
			{
				"type": "occ",
				"energy": -0.27665,
				"method": "rhf"
			},
			{
				"type": "occ",
				"energy": -0.26148,
				"method": "rhf"
			},
			{
				"type": "occ",
				"energy": -0.25808,
				"method": "rhf"
			},
			{
				"type": "unocc",
				"energy": -0.02637,
				"method": "rhf"
			},
			{
				"type": "unocc",
				"energy": -0.01927,
				"method": "rhf"
			},
			{
				"type": "unocc",
				"energy": -0.01281,
				"method": "rhf"
			},
			{
				"type": "unocc",
				"energy": 0.00419,
				"method": "rhf"
			},
			{
				"type": "unocc",
				"energy": 0.08222,
				"method": "rhf"
			}
		],
		"cosmo_sigma_profile": { 
			"-0.025": 0.0,
			"-0.024": 0.0,
			"-0.023": 0.0,
			"-0.022": 0.0,
			"-0.021": 0.0,
			"-0.02": 0.0,
			"-0.019": 0.0,
			"-0.018": 0.0,
			"-0.017": 0.0,
			"-0.016": 0.0,
			"-0.015": 0.0,
			"-0.014": 0.0,
			"-0.013": 0.0,
			"-0.012": 0.0,
			"-0.011": 0.188104694251,
			"-0.01": 1.48668913406,
			"-0.009": 2.54793325941,
			"-0.008": 2.32458639985,
			"-0.007": 2.82509366554,
			"-0.006": 17.1098211782,
			"-0.005": 21.8888155865,
			"-0.004": 22.9756824709,
			"-0.003": 21.8198900294,
			"-0.002": 26.1893379048,
			"-0.001": 18.8527891369,
			"0.0": 11.7642434642,
			"0.001": 11.3041398439,
			"0.002": 12.3386104094,
			"0.003": 12.6018906949,
			"0.004": 12.9568807739,
			"0.005": 8.63061747348,
			"0.006": 3.44554565386,
			"0.007": 4.29502197631,
			"0.008": 6.18740037664,
			"0.009": 5.94570679275,
			"0.01": 7.65123415007,
			"0.011": 8.69535431289,
			"0.012": 2.04422877591,
			"0.013": 0.0,
			"0.014": 0.0,
			"0.015": 0.0,
			"0.016": 0.0,
			"0.017": 0.0,
			"0.018": 0.0,
			"0.019": 0.0,
			"0.02": 0.0,
			"0.021": 0.0,
			"0.022": 0.0,
			"0.023": 0.0,
			"0.024": 0.0,
			"0.025": 0.0
		}
	}
}
