{
	 "smiles": "CCCC(CCC)C(O)=O", 
	 "Tm": 398.15, 
	 "num_atms": 26, 
	 "gaussian": { 
		 "optdone": 1, 
		 "sigma_profile": "yes", 
		 "theory": "DFT", 
		 "functional": "B3LYP", 
		 "basiset": "6-31G**", 
		 "properties": { 
			 "R2extent": 2436.6142, 
			 "electric_dipole_moment_norm": 4.34884772095, 
			 "electric_quadrupole_moment_norm": 11.529605018, 
			 "total_energy": -464.970502408, 
			 "HOMO_LUMO_gap": 0.27413, 
			 "cosmo_polarized_energy": -12.27, 
			 "cosmo_cavitation_energy": 27.49, 
			 "cosmo_dispersion_energy": -19.27, 
			 "cosmo_repulsion_energy": 1.61, 
			 "cosmo_total_nonelectrostatic_energy": 9.83, 
			 "SMD_solvation_energy": 5.34 
		},
		"coords": [
			{
				"x": 3.1047205585,
				"y": 1.9020209137,
				"z": 0.0597200456,
				"element": "C" 
			},
			{
				"x": 1.8024590261,
				"y": 1.2436942071,
				"z": 0.5273192147,
				"element": "C" 
			},
			{
				"x": 1.6623242308,
				"y": -0.2030445492,
				"z": 0.031839779,
				"element": "C" 
			},
			{
				"x": 0.3250826676,
				"y": -0.8821226185,
				"z": 0.4148898085,
				"element": "C" 
			},
			{
				"x": 0.1952768661,
				"y": -1.1442451144,
				"z": 1.9349601018,
				"element": "C" 
			},
			{
				"x": -1.0729590716,
				"y": -1.9014386337,
				"z": 2.3672618908,
				"element": "C" 
			},
			{
				"x": -2.3858367377,
				"y": -1.206185613,
				"z": 1.9879487667,
				"element": "C" 
			},
			{
				"x": 0.1169877802,
				"y": -2.1705912774,
				"z": -0.3802896882,
				"element": "C" 
			},
			{
				"x": 1.0681313255,
				"y": -3.1344358509,
				"z": -0.2188376521,
				"element": "O" 
			},
			{
				"x": -0.8199749738,
				"y": -2.3751293658,
				"z": -1.1124331869,
				"element": "O" 
			},
			{
				"x": 3.9808799462,
				"y": 1.3567590033,
				"z": 0.428848746,
				"element": "H" 
			},
			{
				"x": 3.1794941219,
				"y": 2.9326835531,
				"z": 0.4204188174,
				"element": "H" 
			},
			{
				"x": 3.1668589622,
				"y": 1.926139018,
				"z": -1.0339412703,
				"element": "H" 
			},
			{
				"x": 0.9453389684,
				"y": 1.8278437977,
				"z": 0.1671757964,
				"element": "H" 
			},
			{
				"x": 1.7557856172,
				"y": 1.2730355768,
				"z": 1.6224291953,
				"element": "H" 
			},
			{
				"x": 2.5093620931,
				"y": -0.791576066,
				"z": 0.4177783209,
				"element": "H" 
			},
			{
				"x": 1.761920985,
				"y": -0.2095430119,
				"z": -1.0613788843,
				"element": "H" 
			},
			{
				"x": -0.4927198447,
				"y": -0.229656325,
				"z": 0.0953088344,
				"element": "H" 
			},
			{
				"x": 1.0792459073,
				"y": -1.6995104781,
				"z": 2.2833033341,
				"element": "H" 
			},
			{
				"x": 0.2292204891,
				"y": -0.1780066222,
				"z": 2.4517932854,
				"element": "H" 
			},
			{
				"x": -1.0610128738,
				"y": -2.9118482421,
				"z": 1.9391285822,
				"element": "H" 
			},
			{
				"x": -1.0300791236,
				"y": -2.034301987,
				"z": 3.4554740811,
				"element": "H" 
			},
			{
				"x": -2.4148143747,
				"y": -0.1763919394,
				"z": 2.3638039327,
				"element": "H" 
			},
			{
				"x": -3.2419968254,
				"y": -1.7382978831,
				"z": 2.4143863999,
				"element": "H" 
			},
			{
				"x": -2.5247438023,
				"y": -1.1791197629,
				"z": 0.9032904505,
				"element": "H" 
			},
			{
				"x": 1.7538480824,
				"y": -2.8263307289,
				"z": 0.3908012985,
				"element": "H" 
			}
		],
		 "valence_orbital": [ 
			{
				"type": "occ",
				"energy": -0.33468,
				"method": "rhf"
			},
			{
				"type": "occ",
				"energy": -0.33389,
				"method": "rhf"
			},
			{
				"type": "occ",
				"energy": -0.32356,
				"method": "rhf"
			},
			{
				"type": "occ",
				"energy": -0.30903,
				"method": "rhf"
			},
			{
				"type": "occ",
				"energy": -0.26023,
				"method": "rhf"
			},
			{
				"type": "unocc",
				"energy": 0.0139,
				"method": "rhf"
			},
			{
				"type": "unocc",
				"energy": 0.04304,
				"method": "rhf"
			},
			{
				"type": "unocc",
				"energy": 0.08586,
				"method": "rhf"
			},
			{
				"type": "unocc",
				"energy": 0.0948,
				"method": "rhf"
			},
			{
				"type": "unocc",
				"energy": 0.11279,
				"method": "rhf"
			}
		],
		"cosmo_sigma_profile": { 
			"-0.025": 0.0,
			"-0.024": 0.0,
			"-0.023": 0.0,
			"-0.022": 0.0,
			"-0.021": 0.0,
			"-0.02": 0.0,
			"-0.019": 0.0,
			"-0.018": 0.00519052713649,
			"-0.017": 0.531354712092,
			"-0.016": 0.823861927644,
			"-0.015": 0.845056395605,
			"-0.014": 1.43221130109,
			"-0.013": 1.0604700879,
			"-0.012": 0.944988156911,
			"-0.011": 1.06014024101,
			"-0.01": 0.93684456676,
			"-0.009": 1.07186042582,
			"-0.008": 0.951748000548,
			"-0.007": 1.66982827514,
			"-0.006": 1.52465119463,
			"-0.005": 2.16481771502,
			"-0.004": 7.99730451474,
			"-0.003": 23.205658189,
			"-0.002": 35.1295185758,
			"-0.001": 34.2047561722,
			"0.0": 28.5197578955,
			"0.001": 23.5206901423,
			"0.002": 8.89637398247,
			"0.003": 2.36931945728,
			"0.004": 2.6264964876,
			"0.005": 3.13514021406,
			"0.006": 1.89961925062,
			"0.007": 1.93648129185,
			"0.008": 2.32092224071,
			"0.009": 3.47853828424,
			"0.01": 3.68205566087,
			"0.011": 5.44297811867,
			"0.012": 5.3092073015,
			"0.013": 3.06818496826,
			"0.014": 0.280868105984,
			"0.015": 0.0,
			"0.016": 0.0,
			"0.017": 0.0,
			"0.018": 0.0,
			"0.019": 0.0,
			"0.02": 0.0,
			"0.021": 0.0,
			"0.022": 0.0,
			"0.023": 0.0,
			"0.024": 0.0,
			"0.025": 0.0
		}
	}
}
