{
	 "smiles": "CN(C)CC1=CC=C(C=C1)C1=C(C=CC=C1)C#N", 
	 "Tm": 318.15, 
	 "num_atms": 34, 
	 "gaussian": { 
		 "optdone": 1, 
		 "sigma_profile": "yes", 
		 "theory": "DFT", 
		 "functional": "B3LYP", 
		 "basiset": "6-31G**", 
		 "properties": { 
			 "R2extent": 7282.1603, 
			 "electric_dipole_moment_norm": 4.04450790703, 
			 "electric_quadrupole_moment_norm": 21.8191293529, 
			 "total_energy": -728.828874032, 
			 "HOMO_LUMO_gap": 0.15098, 
			 "cosmo_polarized_energy": -11.65, 
			 "cosmo_cavitation_energy": 37.72, 
			 "cosmo_dispersion_energy": -25.68, 
			 "cosmo_repulsion_energy": 1.97, 
			 "cosmo_total_nonelectrostatic_energy": 14.02, 
			 "SMD_solvation_energy": 4.77 
		},
		"coords": [
			{
				"x": -1.3306942616,
				"y": -3.0517011846,
				"z": -0.4448681731,
				"element": "C" 
			},
			{
				"x": -1.7867639129,
				"y": -2.7195066975,
				"z": -1.7865272087,
				"element": "N" 
			},
			{
				"x": -0.7345120578,
				"y": -2.8717453891,
				"z": -2.7816928228,
				"element": "C" 
			},
			{
				"x": -2.5149105469,
				"y": -1.4478048929,
				"z": -1.8738542805,
				"element": "C" 
			},
			{
				"x": -1.720870201,
				"y": -0.1825797976,
				"z": -1.5728081391,
				"element": "C" 
			},
			{
				"x": -1.6325689749,
				"y": 0.3236052974,
				"z": -0.2685974496,
				"element": "C" 
			},
			{
				"x": -0.8732721391,
				"y": 1.4561772148,
				"z": 0.0154787143,
				"element": "C" 
			},
			{
				"x": -0.1687399717,
				"y": 2.1244357829,
				"z": -0.9997615234,
				"element": "C" 
			},
			{
				"x": -0.2628470267,
				"y": 1.6259524518,
				"z": -2.3089384372,
				"element": "C" 
			},
			{
				"x": -1.0276100594,
				"y": 0.4948858075,
				"z": -2.5852056075,
				"element": "C" 
			},
			{
				"x": 0.6126613283,
				"y": 3.347427525,
				"z": -0.6818617586,
				"element": "C" 
			},
			{
				"x": 1.9294617001,
				"y": 3.5663860824,
				"z": -1.1587285638,
				"element": "C" 
			},
			{
				"x": 2.6247799599,
				"y": 4.7445916355,
				"z": -0.8316025821,
				"element": "C" 
			},
			{
				"x": 2.0334381689,
				"y": 5.7128098144,
				"z": -0.0280141849,
				"element": "C" 
			},
			{
				"x": 0.7399361457,
				"y": 5.5064169295,
				"z": 0.4559822764,
				"element": "C" 
			},
			{
				"x": 0.0465869016,
				"y": 4.3425785798,
				"z": 0.1307128991,
				"element": "C" 
			},
			{
				"x": 2.6212200661,
				"y": 2.5915745417,
				"z": -1.9540301231,
				"element": "C" 
			},
			{
				"x": 3.2292357407,
				"y": 1.8353195549,
				"z": -2.5962381526,
				"element": "N" 
			},
			{
				"x": -0.5298979308,
				"y": -2.3946154912,
				"z": -0.0607737952,
				"element": "H" 
			},
			{
				"x": -0.9500484754,
				"y": -4.0788493234,
				"z": -0.4395195845,
				"element": "H" 
			},
			{
				"x": -2.1733087004,
				"y": -3.0028243698,
				"z": 0.2539844066,
				"element": "H" 
			},
			{
				"x": -1.1441230481,
				"y": -2.6910576318,
				"z": -3.7816789065,
				"element": "H" 
			},
			{
				"x": 0.127791744,
				"y": -2.1967610548,
				"z": -2.6388849408,
				"element": "H" 
			},
			{
				"x": -0.3611415909,
				"y": -3.9011724214,
				"z": -2.7536630096,
				"element": "H" 
			},
			{
				"x": -3.3644189974,
				"y": -1.5117343342,
				"z": -1.1827383448,
				"element": "H" 
			},
			{
				"x": -2.9282585571,
				"y": -1.3792806954,
				"z": -2.8875494264,
				"element": "H" 
			},
			{
				"x": -2.168695661,
				"y": -0.1734902362,
				"z": 0.5360904352,
				"element": "H" 
			},
			{
				"x": -0.8089134424,
				"y": 1.8178467087,
				"z": 1.0377924291,
				"element": "H" 
			},
			{
				"x": 0.2470823278,
				"y": 2.1355264929,
				"z": -3.1196649257,
				"element": "H" 
			},
			{
				"x": -1.09787599,
				"y": 0.1411328915,
				"z": -3.6106389804,
				"element": "H" 
			},
			{
				"x": 3.6333000437,
				"y": 4.8797509524,
				"z": -1.2081714583,
				"element": "H" 
			},
			{
				"x": 2.5772705317,
				"y": 6.6190417514,
				"z": 0.2189445235,
				"element": "H" 
			},
			{
				"x": 0.2654280832,
				"y": 6.2574263176,
				"z": 1.0807568207,
				"element": "H" 
			},
			{
				"x": -0.9676211963,
				"y": 4.2024371877,
				"z": 0.4909698743,
				"element": "H" 
			}
		],
		 "valence_orbital": [ 
			{
				"type": "occ",
				"energy": -0.28271,
				"method": "rhf"
			},
			{
				"type": "occ",
				"energy": -0.26538,
				"method": "rhf"
			},
			{
				"type": "occ",
				"energy": -0.25521,
				"method": "rhf"
			},
			{
				"type": "occ",
				"energy": -0.23748,
				"method": "rhf"
			},
			{
				"type": "occ",
				"energy": -0.20558,
				"method": "rhf"
			},
			{
				"type": "unocc",
				"energy": -0.0546,
				"method": "rhf"
			},
			{
				"type": "unocc",
				"energy": -0.03322,
				"method": "rhf"
			},
			{
				"type": "unocc",
				"energy": -0.00896,
				"method": "rhf"
			},
			{
				"type": "unocc",
				"energy": 0.00821,
				"method": "rhf"
			},
			{
				"type": "unocc",
				"energy": 0.04245,
				"method": "rhf"
			}
		],
		"cosmo_sigma_profile": { 
			"-0.025": 0.0,
			"-0.024": 0.0,
			"-0.023": 0.0,
			"-0.022": 0.0,
			"-0.021": 0.0,
			"-0.02": 0.0,
			"-0.019": 0.0,
			"-0.018": 0.0,
			"-0.017": 0.0,
			"-0.016": 0.0,
			"-0.015": 0.0,
			"-0.014": 0.0,
			"-0.013": 0.0,
			"-0.012": 0.0,
			"-0.011": 0.0,
			"-0.01": 0.0,
			"-0.009": 0.0,
			"-0.008": 1.14363550488,
			"-0.007": 6.52111830405,
			"-0.006": 11.9920632048,
			"-0.005": 22.5339456199,
			"-0.004": 27.8161821756,
			"-0.003": 26.7693743089,
			"-0.002": 23.020004895,
			"-0.001": 30.0201376225,
			"0.0": 35.2259097781,
			"0.001": 22.8663349005,
			"0.002": 21.7932608269,
			"0.003": 18.5652604048,
			"0.004": 10.8617851677,
			"0.005": 11.505558402,
			"0.006": 3.92399024621,
			"0.007": 3.01345277937,
			"0.008": 4.32961161774,
			"0.009": 3.84709424836,
			"0.01": 3.7221287976,
			"0.011": 3.57181196274,
			"0.012": 2.90122388592,
			"0.013": 2.43010151921,
			"0.014": 0.996395739461,
			"0.015": 0.219159095098,
			"0.016": 0.479445708942,
			"0.017": 0.00458910153416,
			"0.018": 0.0,
			"0.019": 0.0,
			"0.02": 0.0,
			"0.021": 0.0,
			"0.022": 0.0,
			"0.023": 0.0,
			"0.024": 0.0,
			"0.025": 0.0
		}
	}
}
