{
	 "smiles": "BrC1=COC2=C1C=C(Br)C=C2", 
	 "Tm": 350.65, 
	 "num_atms": 15, 
	 "gaussian": { 
		 "optdone": 1, 
		 "sigma_profile": "yes", 
		 "theory": "DFT", 
		 "functional": "B3LYP", 
		 "basiset": "6-31G**", 
		 "properties": { 
			 "R2extent": 5361.0301, 
			 "electric_dipole_moment_norm": 1.78359554552, 
			 "electric_quadrupole_moment_norm": 5.04964453006, 
			 "total_energy": -5525.27403007, 
			 "HOMO_LUMO_gap": 0.1948, 
			 "cosmo_polarized_energy": -4.66, 
			 "cosmo_cavitation_energy": 24.44, 
			 "cosmo_dispersion_energy": -19.07, 
			 "cosmo_repulsion_energy": 1.52, 
			 "cosmo_total_nonelectrostatic_energy": 6.89, 
			 "SMD_solvation_energy": 2.57 
		},
		"coords": [
			{
				"x": -1.8664940269,
				"y": 0.7143421324,
				"z": 2.0582966182,
				"element": "Br" 
			},
			{
				"x": -0.6710952108,
				"y": -0.0222764338,
				"z": 0.8084346726,
				"element": "C" 
			},
			{
				"x": 0.2668851374,
				"y": -0.972102736,
				"z": 1.0517536038,
				"element": "C" 
			},
			{
				"x": 0.9703486845,
				"y": -1.2849352513,
				"z": -0.082794053,
				"element": "O" 
			},
			{
				"x": 0.4562682215,
				"y": -0.5016847177,
				"z": -1.08208596,
				"element": "C" 
			},
			{
				"x": -0.5776826216,
				"y": 0.3144933433,
				"z": -0.5890742603,
				"element": "C" 
			},
			{
				"x": -1.2407415588,
				"y": 1.1955795898,
				"z": -1.452249358,
				"element": "C" 
			},
			{
				"x": -0.8288189962,
				"y": 1.2130631302,
				"z": -2.7786475496,
				"element": "C" 
			},
			{
				"x": -1.6986683031,
				"y": 2.397010835,
				"z": -4.0044598809,
				"element": "Br" 
			},
			{
				"x": 0.2066406868,
				"y": 0.3926648572,
				"z": -3.2627017318,
				"element": "C" 
			},
			{
				"x": 0.8696370577,
				"y": -0.4855724356,
				"z": -2.4085425481,
				"element": "C" 
			},
			{
				"x": 0.5451523644,
				"y": -1.503861792,
				"z": 1.9477116249,
				"element": "H" 
			},
			{
				"x": -2.040602817,
				"y": 1.8356845033,
				"z": -1.099646523,
				"element": "H" 
			},
			{
				"x": 0.4858859982,
				"y": 0.448709669,
				"z": -4.3080316025,
				"element": "H" 
			},
			{
				"x": 1.6701853841,
				"y": -1.126714694,
				"z": -2.7602630523,
				"element": "H" 
			}
		],
		 "valence_orbital": [ 
			{
				"type": "occ",
				"energy": -0.30142,
				"method": "rhf"
			},
			{
				"type": "occ",
				"energy": -0.28946,
				"method": "rhf"
			},
			{
				"type": "occ",
				"energy": -0.28715,
				"method": "rhf"
			},
			{
				"type": "occ",
				"energy": -0.24201,
				"method": "rhf"
			},
			{
				"type": "occ",
				"energy": -0.23607,
				"method": "rhf"
			},
			{
				"type": "unocc",
				"energy": -0.04127,
				"method": "rhf"
			},
			{
				"type": "unocc",
				"energy": -0.009,
				"method": "rhf"
			},
			{
				"type": "unocc",
				"energy": 0.00267,
				"method": "rhf"
			},
			{
				"type": "unocc",
				"energy": 0.00381,
				"method": "rhf"
			},
			{
				"type": "unocc",
				"energy": 0.03298,
				"method": "rhf"
			}
		],
		"cosmo_sigma_profile": { 
			"-0.025": 0.0,
			"-0.024": 0.0,
			"-0.023": 0.0,
			"-0.022": 0.0,
			"-0.021": 0.0,
			"-0.02": 0.0,
			"-0.019": 0.0,
			"-0.018": 0.0,
			"-0.017": 0.0,
			"-0.016": 0.0,
			"-0.015": 0.0,
			"-0.014": 0.0,
			"-0.013": 0.0,
			"-0.012": 0.0,
			"-0.011": 0.727976994156,
			"-0.01": 2.16035500499,
			"-0.009": 1.20274021647,
			"-0.008": 4.4308731059,
			"-0.007": 5.40521962032,
			"-0.006": 7.69171817709,
			"-0.005": 7.17865820521,
			"-0.004": 8.11449130688,
			"-0.003": 9.98896629606,
			"-0.002": 12.0139410041,
			"-0.001": 14.6197228464,
			"0.0": 20.3748615469,
			"0.001": 28.117550733,
			"0.002": 28.9923901581,
			"0.003": 23.0172950876,
			"0.004": 19.2780869098,
			"0.005": 7.78991299546,
			"0.006": 1.87025137811,
			"0.007": 1.17446261949,
			"0.008": 0.390484477018,
			"0.009": 0.0,
			"0.01": 0.0,
			"0.011": 0.0,
			"0.012": 0.0,
			"0.013": 0.0,
			"0.014": 0.0,
			"0.015": 0.0,
			"0.016": 0.0,
			"0.017": 0.0,
			"0.018": 0.0,
			"0.019": 0.0,
			"0.02": 0.0,
			"0.021": 0.0,
			"0.022": 0.0,
			"0.023": 0.0,
			"0.024": 0.0,
			"0.025": 0.0
		}
	}
}
