{
	 "smiles": "NC(=S)NC1=C(F)C(F)=C(F)C=C1", 
	 "Tm": 437.15, 
	 "num_atms": 18, 
	 "gaussian": { 
		 "optdone": 1, 
		 "sigma_profile": "yes", 
		 "theory": "DFT", 
		 "functional": "B3LYP", 
		 "basiset": "6-31G**", 
		 "properties": { 
			 "R2extent": 3364.051, 
			 "electric_dipole_moment_norm": 3.53605858832, 
			 "electric_quadrupole_moment_norm": 16.6713827738, 
			 "total_energy": -1076.9460396, 
			 "HOMO_LUMO_gap": 0.18009, 
			 "cosmo_polarized_energy": -15.95, 
			 "cosmo_cavitation_energy": 25.86, 
			 "cosmo_dispersion_energy": -19.3, 
			 "cosmo_repulsion_energy": 1.42, 
			 "cosmo_total_nonelectrostatic_energy": 7.98, 
			 "SMD_solvation_energy": 5.1 
		},
		"coords": [
			{
				"x": -2.6704529965,
				"y": -1.635321818,
				"z": -0.7104248796,
				"element": "N" 
			},
			{
				"x": -1.59771286,
				"y": -1.3025382843,
				"z": 0.076845378,
				"element": "C" 
			},
			{
				"x": -1.4049062409,
				"y": -2.0009317079,
				"z": 1.5876034269,
				"element": "S" 
			},
			{
				"x": -0.7587264347,
				"y": -0.414838638,
				"z": -0.5442659068,
				"element": "N" 
			},
			{
				"x": 0.424405279,
				"y": 0.2192581616,
				"z": -0.1279701338,
				"element": "C" 
			},
			{
				"x": 1.0438823005,
				"y": 1.0150184232,
				"z": -1.1060864189,
				"element": "C" 
			},
			{
				"x": 0.4789534808,
				"y": 1.0972735393,
				"z": -2.3348438044,
				"element": "F" 
			},
			{
				"x": 2.2101466803,
				"y": 1.7215601891,
				"z": -0.8563814846,
				"element": "C" 
			},
			{
				"x": 2.7623708725,
				"y": 2.4667375453,
				"z": -1.8212254295,
				"element": "F" 
			},
			{
				"x": 2.7891774356,
				"y": 1.6391913692,
				"z": 0.4094372613,
				"element": "C" 
			},
			{
				"x": 3.9197956362,
				"y": 2.3241449194,
				"z": 0.6455827237,
				"element": "F" 
			},
			{
				"x": 2.1997021397,
				"y": 0.8616679239,
				"z": 1.3946588167,
				"element": "C" 
			},
			{
				"x": 1.0243146419,
				"y": 0.1528184237,
				"z": 1.1362986194,
				"element": "C" 
			},
			{
				"x": -3.0023041667,
				"y": -0.9978544515,
				"z": -1.422262982,
				"element": "H" 
			},
			{
				"x": -3.3716470568,
				"y": -2.2009250863,
				"z": -0.2566551433,
				"element": "H" 
			},
			{
				"x": -0.9752716365,
				"y": -0.2102528714,
				"z": -1.5118933049,
				"element": "H" 
			},
			{
				"x": 2.669252712,
				"y": 0.8120999667,
				"z": 2.3706320597,
				"element": "H" 
			},
			{
				"x": 0.5701202139,
				"y": -0.4595076041,
				"z": 1.9016512024,
				"element": "H" 
			}
		],
		 "valence_orbital": [ 
			{
				"type": "occ",
				"energy": -0.3185,
				"method": "rhf"
			},
			{
				"type": "occ",
				"energy": -0.26395,
				"method": "rhf"
			},
			{
				"type": "occ",
				"energy": -0.24622,
				"method": "rhf"
			},
			{
				"type": "occ",
				"energy": -0.22569,
				"method": "rhf"
			},
			{
				"type": "occ",
				"energy": -0.21838,
				"method": "rhf"
			},
			{
				"type": "unocc",
				"energy": -0.03829,
				"method": "rhf"
			},
			{
				"type": "unocc",
				"energy": -0.01848,
				"method": "rhf"
			},
			{
				"type": "unocc",
				"energy": 0.01559,
				"method": "rhf"
			},
			{
				"type": "unocc",
				"energy": 0.03391,
				"method": "rhf"
			},
			{
				"type": "unocc",
				"energy": 0.0494,
				"method": "rhf"
			}
		],
		"cosmo_sigma_profile": { 
			"-0.025": 0.0,
			"-0.024": 0.0,
			"-0.023": 0.0,
			"-0.022": 0.0,
			"-0.021": 0.0,
			"-0.02": 0.0,
			"-0.019": 0.477981031179,
			"-0.018": 0.935774463485,
			"-0.017": 1.0529679719,
			"-0.016": 1.66181392772,
			"-0.015": 1.6085702919,
			"-0.014": 2.61353081774,
			"-0.013": 2.40352840699,
			"-0.012": 3.10907872195,
			"-0.011": 2.82464001293,
			"-0.01": 2.15521333894,
			"-0.009": 2.19222247644,
			"-0.008": 4.01102702535,
			"-0.007": 4.58969250874,
			"-0.006": 3.73147901443,
			"-0.005": 4.50896600512,
			"-0.004": 4.84469173308,
			"-0.003": 7.75344119695,
			"-0.002": 16.0152044935,
			"-0.001": 15.6371851732,
			"0.0": 16.2078691091,
			"0.001": 15.0001687466,
			"0.002": 19.6339241718,
			"0.003": 33.1452211548,
			"0.004": 11.462066815,
			"0.005": 4.43955775852,
			"0.006": 5.05217910087,
			"0.007": 4.86049266149,
			"0.008": 4.59859750652,
			"0.009": 5.08411027533,
			"0.01": 5.90988317246,
			"0.011": 3.01645527044,
			"0.012": 0.471924437447,
			"0.013": 0.0,
			"0.014": 0.0,
			"0.015": 0.0,
			"0.016": 0.0,
			"0.017": 0.0,
			"0.018": 0.0,
			"0.019": 0.0,
			"0.02": 0.0,
			"0.021": 0.0,
			"0.022": 0.0,
			"0.023": 0.0,
			"0.024": 0.0,
			"0.025": 0.0
		}
	}
}
