{
	 "smiles": "CC1=NN(C=C1C(O)=O)C1=CC=C(Cl)C=C1", 
	 "Tm": 498.15, 
	 "num_atms": 25, 
	 "gaussian": { 
		 "optdone": 1, 
		 "sigma_profile": "yes", 
		 "theory": "DFT", 
		 "functional": "B3LYP", 
		 "basiset": "6-31G**", 
		 "properties": { 
			 "R2extent": 7043.886, 
			 "electric_dipole_moment_norm": 3.51285782661, 
			 "electric_quadrupole_moment_norm": 27.5580237035, 
			 "total_energy": -1144.73364348, 
			 "HOMO_LUMO_gap": 0.18009, 
			 "cosmo_polarized_energy": -19.32, 
			 "cosmo_cavitation_energy": 31.94, 
			 "cosmo_dispersion_energy": -23.59, 
			 "cosmo_repulsion_energy": 1.82, 
			 "cosmo_total_nonelectrostatic_energy": 10.17, 
			 "SMD_solvation_energy": 5.8 
		},
		"coords": [
			{
				"x": 0.3568608012,
				"y": 1.5226063449,
				"z": -2.241182588,
				"element": "C" 
			},
			{
				"x": -0.0527458753,
				"y": 0.935250194,
				"z": -0.9294202167,
				"element": "C" 
			},
			{
				"x": -0.6041757252,
				"y": -0.2679204389,
				"z": -0.8680677101,
				"element": "N" 
			},
			{
				"x": -0.8543363947,
				"y": -0.5004207814,
				"z": 0.4547312765,
				"element": "N" 
			},
			{
				"x": -0.4650427206,
				"y": 0.5463301199,
				"z": 1.2266835023,
				"element": "C" 
			},
			{
				"x": 0.0628122124,
				"y": 1.5072486872,
				"z": 0.3782947223,
				"element": "C" 
			},
			{
				"x": 0.6299385302,
				"y": 2.8338786276,
				"z": 0.6809174332,
				"element": "C" 
			},
			{
				"x": 0.6619142318,
				"y": 3.2184451712,
				"z": 1.989098332,
				"element": "O" 
			},
			{
				"x": 1.0620605796,
				"y": 3.5811388367,
				"z": -0.1678083079,
				"element": "O" 
			},
			{
				"x": -1.4528851629,
				"y": -1.7262287438,
				"z": 0.8512896791,
				"element": "C" 
			},
			{
				"x": -1.7752541753,
				"y": -2.6742574816,
				"z": -0.1271149395,
				"element": "C" 
			},
			{
				"x": -2.3623090699,
				"y": -3.8814971324,
				"z": 0.2400123284,
				"element": "C" 
			},
			{
				"x": -2.6274376298,
				"y": -4.1420061371,
				"z": 1.5843184822,
				"element": "C" 
			},
			{
				"x": -3.3675708705,
				"y": -5.6637985999,
				"z": 2.0473771947,
				"element": "Cl" 
			},
			{
				"x": -2.3098636078,
				"y": -3.2040515798,
				"z": 2.5653777175,
				"element": "C" 
			},
			{
				"x": -1.722255301,
				"y": -1.995651012,
				"z": 2.1980180021,
				"element": "C" 
			},
			{
				"x": 1.4263200645,
				"y": 1.7507782485,
				"z": -2.2481543856,
				"element": "H" 
			},
			{
				"x": 0.1269520322,
				"y": 0.8203196201,
				"z": -3.0448155975,
				"element": "H" 
			},
			{
				"x": -0.1602832289,
				"y": 2.4690441099,
				"z": -2.421916853,
				"element": "H" 
			},
			{
				"x": -0.589621256,
				"y": 0.5307698412,
				"z": 2.2990743611,
				"element": "H" 
			},
			{
				"x": 0.2902827916,
				"y": 2.5358820438,
				"z": 2.5628809245,
				"element": "H" 
			},
			{
				"x": -1.561055237,
				"y": -2.4519387068,
				"z": -1.1643353038,
				"element": "H" 
			},
			{
				"x": -2.6128559241,
				"y": -4.6171754997,
				"z": -0.515952835,
				"element": "H" 
			},
			{
				"x": -2.5190106336,
				"y": -3.4138991271,
				"z": 3.6081508541,
				"element": "H" 
			},
			{
				"x": -1.482238431,
				"y": -1.2783466043,
				"z": 2.9745439272,
				"element": "H" 
			}
		],
		 "valence_orbital": [ 
			{
				"type": "occ",
				"energy": -0.2937,
				"method": "rhf"
			},
			{
				"type": "occ",
				"energy": -0.28452,
				"method": "rhf"
			},
			{
				"type": "occ",
				"energy": -0.27614,
				"method": "rhf"
			},
			{
				"type": "occ",
				"energy": -0.27532,
				"method": "rhf"
			},
			{
				"type": "occ",
				"energy": -0.23821,
				"method": "rhf"
			},
			{
				"type": "unocc",
				"energy": -0.05812,
				"method": "rhf"
			},
			{
				"type": "unocc",
				"energy": -0.03272,
				"method": "rhf"
			},
			{
				"type": "unocc",
				"energy": -0.01398,
				"method": "rhf"
			},
			{
				"type": "unocc",
				"energy": 0.01776,
				"method": "rhf"
			},
			{
				"type": "unocc",
				"energy": 0.0201,
				"method": "rhf"
			}
		],
		"cosmo_sigma_profile": { 
			"-0.025": 0.0,
			"-0.024": 0.0,
			"-0.023": 0.0,
			"-0.022": 0.0,
			"-0.021": 0.0,
			"-0.02": 0.425125469276,
			"-0.019": 1.14943648146,
			"-0.018": 1.3055001648,
			"-0.017": 0.742555715983,
			"-0.016": 1.19128486321,
			"-0.015": 1.09807290574,
			"-0.014": 1.42495494489,
			"-0.013": 2.25856685072,
			"-0.012": 2.26283979219,
			"-0.011": 2.23692980068,
			"-0.01": 1.33793579758,
			"-0.009": 2.11245665153,
			"-0.008": 4.58834150457,
			"-0.007": 6.9478971284,
			"-0.006": 8.61820247888,
			"-0.005": 9.15244042102,
			"-0.004": 10.8791107451,
			"-0.003": 14.128269203,
			"-0.002": 15.5110074165,
			"-0.001": 22.1665108835,
			"0.0": 23.7855188602,
			"0.001": 25.0682955798,
			"0.002": 26.4733671243,
			"0.003": 16.4713897641,
			"0.004": 14.6594218164,
			"0.005": 8.70035737206,
			"0.006": 4.05609478031,
			"0.007": 3.56033779824,
			"0.008": 4.0540786568,
			"0.009": 4.90208650133,
			"0.01": 5.11943983295,
			"0.011": 5.28051965719,
			"0.012": 4.49823310634,
			"0.013": 2.24038640098,
			"0.014": 0.395757445,
			"0.015": 0.0,
			"0.016": 0.0,
			"0.017": 0.0,
			"0.018": 0.0,
			"0.019": 0.0,
			"0.02": 0.0,
			"0.021": 0.0,
			"0.022": 0.0,
			"0.023": 0.0,
			"0.024": 0.0,
			"0.025": 0.0
		}
	}
}
