{
	 "smiles": "FC1=C(C=CC(Br)=C1)C(Cl)=O", 
	 "Tm": 298.15, 
	 "num_atms": 14, 
	 "gaussian": { 
		 "optdone": 1, 
		 "sigma_profile": "yes", 
		 "theory": "DFT", 
		 "functional": "B3LYP", 
		 "basiset": "6-31G**", 
		 "properties": { 
			 "R2extent": 4106.7289, 
			 "electric_dipole_moment_norm": 3.03198037922, 
			 "electric_quadrupole_moment_norm": 7.15726041094, 
			 "total_energy": -3475.20502301, 
			 "HOMO_LUMO_gap": 0.18441, 
			 "cosmo_polarized_energy": -5.84, 
			 "cosmo_cavitation_energy": 23.72, 
			 "cosmo_dispersion_energy": -18.03, 
			 "cosmo_repulsion_energy": 1.43, 
			 "cosmo_total_nonelectrostatic_energy": 7.12, 
			 "SMD_solvation_energy": 3.97 
		},
		"coords": [
			{
				"x": -1.1513427714,
				"y": 0.817388436,
				"z": -1.6351403706,
				"element": "F" 
			},
			{
				"x": -0.7195379122,
				"y": -0.1320816522,
				"z": -0.7990803627,
				"element": "C" 
			},
			{
				"x": 0.6301186632,
				"y": -0.5222079779,
				"z": -0.7540218686,
				"element": "C" 
			},
			{
				"x": 0.9689041534,
				"y": -1.5492468655,
				"z": 0.1519233893,
				"element": "C" 
			},
			{
				"x": 0.0290126132,
				"y": -2.1483330958,
				"z": 0.9761817302,
				"element": "C" 
			},
			{
				"x": -1.3002209095,
				"y": -1.7226777188,
				"z": 0.8991466081,
				"element": "C" 
			},
			{
				"x": -2.6105193696,
				"y": -2.5267042316,
				"z": 2.0163802813,
				"element": "Br" 
			},
			{
				"x": -1.6834479913,
				"y": -0.7200851506,
				"z": 0.0154929472,
				"element": "C" 
			},
			{
				"x": 1.7630747317,
				"y": 0.0074913643,
				"z": -1.5573811089,
				"element": "C" 
			},
			{
				"x": 1.4515893956,
				"y": 1.4578414633,
				"z": -2.5838868191,
				"element": "Cl" 
			},
			{
				"x": 2.865988534,
				"y": -0.4600123599,
				"z": -1.543065851,
				"element": "O" 
			},
			{
				"x": 2.0062788375,
				"y": -1.8617608709,
				"z": 0.188801364,
				"element": "H" 
			},
			{
				"x": 0.3159737813,
				"y": -2.9315630086,
				"z": 1.6671029362,
				"element": "H" 
			},
			{
				"x": -2.7099717559,
				"y": -0.3841483318,
				"z": -0.0601528753,
				"element": "H" 
			}
		],
		 "valence_orbital": [ 
			{
				"type": "occ",
				"energy": -0.32103,
				"method": "rhf"
			},
			{
				"type": "occ",
				"energy": -0.31131,
				"method": "rhf"
			},
			{
				"type": "occ",
				"energy": -0.30002,
				"method": "rhf"
			},
			{
				"type": "occ",
				"energy": -0.28538,
				"method": "rhf"
			},
			{
				"type": "occ",
				"energy": -0.27348,
				"method": "rhf"
			},
			{
				"type": "unocc",
				"energy": -0.08907,
				"method": "rhf"
			},
			{
				"type": "unocc",
				"energy": -0.03681,
				"method": "rhf"
			},
			{
				"type": "unocc",
				"energy": -0.01789,
				"method": "rhf"
			},
			{
				"type": "unocc",
				"energy": 0.00661,
				"method": "rhf"
			},
			{
				"type": "unocc",
				"energy": 0.01762,
				"method": "rhf"
			}
		],
		"cosmo_sigma_profile": { 
			"-0.025": 0.0,
			"-0.024": 0.0,
			"-0.023": 0.0,
			"-0.022": 0.0,
			"-0.021": 0.0,
			"-0.02": 0.0,
			"-0.019": 0.0,
			"-0.018": 0.0,
			"-0.017": 0.0,
			"-0.016": 0.0,
			"-0.015": 0.0,
			"-0.014": 0.0,
			"-0.013": 0.0,
			"-0.012": 0.0,
			"-0.011": 0.0,
			"-0.01": 0.155385991566,
			"-0.009": 1.5289249107,
			"-0.008": 4.76513196373,
			"-0.007": 5.49061978596,
			"-0.006": 5.19981165524,
			"-0.005": 8.61183459321,
			"-0.004": 10.0582002793,
			"-0.003": 12.0137590883,
			"-0.002": 18.8985936349,
			"-0.001": 21.5135471228,
			"0.0": 21.1186867606,
			"0.001": 15.6851028523,
			"0.002": 15.2982738284,
			"0.003": 24.7356420404,
			"0.004": 15.4372793195,
			"0.005": 4.91454265878,
			"0.006": 2.45753450152,
			"0.007": 2.54982740947,
			"0.008": 3.68118332029,
			"0.009": 2.94048143624,
			"0.01": 0.528992961882,
			"0.011": 0.0,
			"0.012": 0.0,
			"0.013": 0.0,
			"0.014": 0.0,
			"0.015": 0.0,
			"0.016": 0.0,
			"0.017": 0.0,
			"0.018": 0.0,
			"0.019": 0.0,
			"0.02": 0.0,
			"0.021": 0.0,
			"0.022": 0.0,
			"0.023": 0.0,
			"0.024": 0.0,
			"0.025": 0.0
		}
	}
}
