{
	 "smiles": "OC(=O)C1=C(ON=C1)C1=CC=C(Cl)S1", 
	 "Tm": 465.15, 
	 "num_atms": 18, 
	 "gaussian": { 
		 "optdone": 1, 
		 "sigma_profile": "yes", 
		 "theory": "DFT", 
		 "functional": "B3LYP", 
		 "basiset": "6-31G**", 
		 "properties": { 
			 "R2extent": 4617.9454, 
			 "electric_dipole_moment_norm": 0.815808494685, 
			 "electric_quadrupole_moment_norm": 16.1734893353, 
			 "total_energy": -1446.00829431, 
			 "HOMO_LUMO_gap": 0.1532, 
			 "cosmo_polarized_energy": -10.78, 
			 "cosmo_cavitation_energy": 27.2, 
			 "cosmo_dispersion_energy": -20.9, 
			 "cosmo_repulsion_energy": 1.58, 
			 "cosmo_total_nonelectrostatic_energy": 7.88, 
			 "SMD_solvation_energy": 5.24 
		},
		"coords": [
			{
				"x": -2.8723670758,
				"y": -1.0093757849,
				"z": -1.2460100537,
				"element": "O" 
			},
			{
				"x": -1.7528948601,
				"y": -0.2480221392,
				"z": -1.1888210756,
				"element": "C" 
			},
			{
				"x": -1.2142849832,
				"y": 0.1922334708,
				"z": -2.190499977,
				"element": "O" 
			},
			{
				"x": -1.3019172685,
				"y": -0.0379764613,
				"z": 0.1796865843,
				"element": "C" 
			},
			{
				"x": -0.2041029045,
				"y": 0.6802520269,
				"z": 0.6332556485,
				"element": "C" 
			},
			{
				"x": -0.1774212909,
				"y": 0.6017303793,
				"z": 1.9816389748,
				"element": "O" 
			},
			{
				"x": -1.2579653224,
				"y": -0.170598779,
				"z": 2.4500057713,
				"element": "N" 
			},
			{
				"x": -1.9016632794,
				"y": -0.533695322,
				"z": 1.3747250962,
				"element": "C" 
			},
			{
				"x": 0.8644492379,
				"y": 1.4526623,
				"z": 0.0495429221,
				"element": "C" 
			},
			{
				"x": 1.8571785168,
				"y": 2.0788405615,
				"z": 0.7844592481,
				"element": "C" 
			},
			{
				"x": 2.7979119188,
				"y": 2.7786806267,
				"z": -0.0055819461,
				"element": "C" 
			},
			{
				"x": 2.5038045586,
				"y": 2.6732743404,
				"z": -1.3417108029,
				"element": "C" 
			},
			{
				"x": 3.3958983341,
				"y": 3.3765573078,
				"z": -2.6445586931,
				"element": "Cl" 
			},
			{
				"x": 1.0853688985,
				"y": 1.7270866587,
				"z": -1.6727022978,
				"element": "S" 
			},
			{
				"x": -3.0932515296,
				"y": -1.0927560513,
				"z": -2.1883733865,
				"element": "H" 
			},
			{
				"x": -2.7889605979,
				"y": -1.1465717455,
				"z": 1.4607484381,
				"element": "H" 
			},
			{
				"x": 1.8938001442,
				"y": 2.0264519451,
				"z": 1.865394461,
				"element": "H" 
			},
			{
				"x": 3.6445175035,
				"y": 3.3296266659,
				"z": 0.3836010884,
				"element": "H" 
			}
		],
		 "valence_orbital": [ 
			{
				"type": "occ",
				"energy": -0.31956,
				"method": "rhf"
			},
			{
				"type": "occ",
				"energy": -0.29732,
				"method": "rhf"
			},
			{
				"type": "occ",
				"energy": -0.29111,
				"method": "rhf"
			},
			{
				"type": "occ",
				"energy": -0.27463,
				"method": "rhf"
			},
			{
				"type": "occ",
				"energy": -0.23313,
				"method": "rhf"
			},
			{
				"type": "unocc",
				"energy": -0.07993,
				"method": "rhf"
			},
			{
				"type": "unocc",
				"energy": -0.02108,
				"method": "rhf"
			},
			{
				"type": "unocc",
				"energy": -0.00179,
				"method": "rhf"
			},
			{
				"type": "unocc",
				"energy": 0.01137,
				"method": "rhf"
			},
			{
				"type": "unocc",
				"energy": 0.01489,
				"method": "rhf"
			}
		],
		"cosmo_sigma_profile": { 
			"-0.025": 0.0,
			"-0.024": 0.0,
			"-0.023": 0.0,
			"-0.022": 0.0,
			"-0.021": 0.0,
			"-0.02": 0.0,
			"-0.019": 0.246963066566,
			"-0.018": 0.904342597366,
			"-0.017": 0.887408019049,
			"-0.016": 1.06661598966,
			"-0.015": 0.544788043381,
			"-0.014": 0.873106085241,
			"-0.013": 0.493910958258,
			"-0.012": 0.780643530409,
			"-0.011": 0.864117360196,
			"-0.01": 2.39340010463,
			"-0.009": 2.93371483331,
			"-0.008": 4.89242595767,
			"-0.007": 5.19601834396,
			"-0.006": 6.68416033696,
			"-0.005": 4.45107781084,
			"-0.004": 6.3019056486,
			"-0.003": 15.4698215007,
			"-0.002": 22.5340973533,
			"-0.001": 21.4993949611,
			"0.0": 22.4512210305,
			"0.001": 23.4671552135,
			"0.002": 20.7696166889,
			"0.003": 15.3324793297,
			"0.004": 7.83826329189,
			"0.005": 5.52257404659,
			"0.006": 6.87797608224,
			"0.007": 5.66129137884,
			"0.008": 3.90048282522,
			"0.009": 3.33035733405,
			"0.01": 3.67695912975,
			"0.011": 3.48014312612,
			"0.012": 2.13792576002,
			"0.013": 0.785195612506,
			"0.014": 0.0,
			"0.015": 0.0,
			"0.016": 0.0,
			"0.017": 0.0,
			"0.018": 0.0,
			"0.019": 0.0,
			"0.02": 0.0,
			"0.021": 0.0,
			"0.022": 0.0,
			"0.023": 0.0,
			"0.024": 0.0,
			"0.025": 0.0
		}
	}
}
