{
	 "smiles": "CCCCCCCCOC1=CC=CC=C1", 
	 "Tm": 281.15, 
	 "num_atms": 37, 
	 "gaussian": { 
		 "optdone": 1, 
		 "sigma_profile": "yes", 
		 "theory": "DFT", 
		 "functional": "B3LYP", 
		 "basiset": "6-31G**", 
		 "properties": { 
			 "R2extent": 5152.9791, 
			 "electric_dipole_moment_norm": 1.25147677965, 
			 "electric_quadrupole_moment_norm": 4.5166032137, 
			 "total_energy": -621.982197153, 
			 "HOMO_LUMO_gap": 0.21778, 
			 "cosmo_polarized_energy": -5.15, 
			 "cosmo_cavitation_energy": 37.75, 
			 "cosmo_dispersion_energy": -26.06, 
			 "cosmo_repulsion_energy": 2.1, 
			 "cosmo_total_nonelectrostatic_energy": 13.78, 
			 "SMD_solvation_energy": 5.79 
		},
		"coords": [
			{
				"x": -0.5404063909,
				"y": -0.2591341725,
				"z": 4.8370755939,
				"element": "C" 
			},
			{
				"x": -0.6801455943,
				"y": 0.4278863661,
				"z": 3.4731071056,
				"element": "C" 
			},
			{
				"x": -1.7138112711,
				"y": -0.2176136222,
				"z": 2.534715643,
				"element": "C" 
			},
			{
				"x": -1.3738133456,
				"y": -1.6523303226,
				"z": 2.0973553561,
				"element": "C" 
			},
			{
				"x": -2.3631516959,
				"y": -2.2686950416,
				"z": 1.0806475499,
				"element": "C" 
			},
			{
				"x": -2.0149202673,
				"y": -2.1502222393,
				"z": -0.4165150074,
				"element": "C" 
			},
			{
				"x": -1.9917060393,
				"y": -0.738284831,
				"z": -1.0389747756,
				"element": "C" 
			},
			{
				"x": -0.6497226709,
				"y": -0.0145150134,
				"z": -0.9674179971,
				"element": "C" 
			},
			{
				"x": 0.287896777,
				"y": -0.7663173651,
				"z": -1.7381968053,
				"element": "O" 
			},
			{
				"x": 1.5812688632,
				"y": -0.3342392646,
				"z": -1.8079176605,
				"element": "C" 
			},
			{
				"x": 2.4519479242,
				"y": -1.1420240591,
				"z": -2.556035746,
				"element": "C" 
			},
			{
				"x": 3.7893083778,
				"y": -0.7871657865,
				"z": -2.6902694858,
				"element": "C" 
			},
			{
				"x": 4.281691878,
				"y": 0.3741211568,
				"z": -2.0837331913,
				"element": "C" 
			},
			{
				"x": 3.413856601,
				"y": 1.1729417389,
				"z": -1.343031878,
				"element": "C" 
			},
			{
				"x": 2.0651132605,
				"y": 0.8304528343,
				"z": -1.1988091819,
				"element": "C" 
			},
			{
				"x": -1.5034868246,
				"y": -0.2964670529,
				"z": 5.3598433152,
				"element": "H" 
			},
			{
				"x": -0.1749355178,
				"y": -1.286632622,
				"z": 4.7429295632,
				"element": "H" 
			},
			{
				"x": 0.1640017187,
				"y": 0.2806713694,
				"z": 5.4784659087,
				"element": "H" 
			},
			{
				"x": 0.2986246921,
				"y": 0.4469548135,
				"z": 2.9735446042,
				"element": "H" 
			},
			{
				"x": -0.9589818774,
				"y": 1.4776742394,
				"z": 3.63161272,
				"element": "H" 
			},
			{
				"x": -1.8322192966,
				"y": 0.4234188767,
				"z": 1.6523382,
				"element": "H" 
			},
			{
				"x": -2.6959866841,
				"y": -0.2241203899,
				"z": 3.0291385621,
				"element": "H" 
			},
			{
				"x": -1.3530632363,
				"y": -2.2873560589,
				"z": 2.9908571445,
				"element": "H" 
			},
			{
				"x": -0.3537471074,
				"y": -1.686204522,
				"z": 1.6892657087,
				"element": "H" 
			},
			{
				"x": -3.3641328851,
				"y": -1.8473247472,
				"z": 1.2530213446,
				"element": "H" 
			},
			{
				"x": -2.4567974145,
				"y": -3.3407454444,
				"z": 1.2945341502,
				"element": "H" 
			},
			{
				"x": -1.0481809143,
				"y": -2.6312817301,
				"z": -0.6088231649,
				"element": "H" 
			},
			{
				"x": -2.7558070163,
				"y": -2.7453120828,
				"z": -0.9645956726,
				"element": "H" 
			},
			{
				"x": -2.2563812378,
				"y": -0.8089017258,
				"z": -2.1005913722,
				"element": "H" 
			},
			{
				"x": -2.7540305473,
				"y": -0.1002638326,
				"z": -0.5738977214,
				"element": "H" 
			},
			{
				"x": -0.7433839744,
				"y": 0.9997774462,
				"z": -1.3817679867,
				"element": "H" 
			},
			{
				"x": -0.2896755366,
				"y": 0.0769629525,
				"z": 0.0648053653,
				"element": "H" 
			},
			{
				"x": 2.053518917,
				"y": -2.0390817975,
				"z": -3.0190680264,
				"element": "H" 
			},
			{
				"x": 4.4529144766,
				"y": -1.4212025855,
				"z": -3.2717792086,
				"element": "H" 
			},
			{
				"x": 5.3265645759,
				"y": 0.6488856656,
				"z": -2.1897179301,
				"element": "H" 
			},
			{
				"x": 3.7806229088,
				"y": 2.0782498103,
				"z": -0.8669182872,
				"element": "H" 
			},
			{
				"x": 1.4100563751,
				"y": 1.4703390399,
				"z": -0.6197967363,
				"element": "H" 
			}
		],
		 "valence_orbital": [ 
			{
				"type": "occ",
				"energy": -0.31034,
				"method": "rhf"
			},
			{
				"type": "occ",
				"energy": -0.30411,
				"method": "rhf"
			},
			{
				"type": "occ",
				"energy": -0.29881,
				"method": "rhf"
			},
			{
				"type": "occ",
				"energy": -0.24525,
				"method": "rhf"
			},
			{
				"type": "occ",
				"energy": -0.21373,
				"method": "rhf"
			},
			{
				"type": "unocc",
				"energy": 0.00405,
				"method": "rhf"
			},
			{
				"type": "unocc",
				"energy": 0.01848,
				"method": "rhf"
			},
			{
				"type": "unocc",
				"energy": 0.07536,
				"method": "rhf"
			},
			{
				"type": "unocc",
				"energy": 0.09232,
				"method": "rhf"
			},
			{
				"type": "unocc",
				"energy": 0.10116,
				"method": "rhf"
			}
		],
		"cosmo_sigma_profile": { 
			"-0.025": 0.0,
			"-0.024": 0.0,
			"-0.023": 0.0,
			"-0.022": 0.0,
			"-0.021": 0.0,
			"-0.02": 0.0,
			"-0.019": 0.0,
			"-0.018": 0.0,
			"-0.017": 0.0,
			"-0.016": 0.0,
			"-0.015": 0.0,
			"-0.014": 0.0,
			"-0.013": 0.0,
			"-0.012": 0.0,
			"-0.011": 0.0,
			"-0.01": 0.0,
			"-0.009": 0.0,
			"-0.008": 0.0,
			"-0.007": 0.0,
			"-0.006": 3.22010467727,
			"-0.005": 11.68527648,
			"-0.004": 15.4954063233,
			"-0.003": 25.2130659962,
			"-0.002": 37.9698063863,
			"-0.001": 45.0629778676,
			"0.0": 44.5985928385,
			"0.001": 39.5803615708,
			"0.002": 19.7990782619,
			"0.003": 9.28881238102,
			"0.004": 11.7351605923,
			"0.005": 11.6726061504,
			"0.006": 11.0690628247,
			"0.007": 4.21161713159,
			"0.008": 1.08996260075,
			"0.009": 1.4245301996,
			"0.01": 0.70273296493,
			"0.011": 0.0,
			"0.012": 0.0,
			"0.013": 0.0,
			"0.014": 0.0,
			"0.015": 0.0,
			"0.016": 0.0,
			"0.017": 0.0,
			"0.018": 0.0,
			"0.019": 0.0,
			"0.02": 0.0,
			"0.021": 0.0,
			"0.022": 0.0,
			"0.023": 0.0,
			"0.024": 0.0,
			"0.025": 0.0
		}
	}
}
