{
	 "smiles": "C[C@]12CC[C@H]3[C@@H](CCC4=C3C=CC(O)=C4)[C@@H]1CC[C@@H]2O", 
	 "Tm": 449.15, 
	 "num_atms": 44, 
	 "gaussian": { 
		 "optdone": 1, 
		 "sigma_profile": "yes", 
		 "theory": "DFT", 
		 "functional": "B3LYP", 
		 "basiset": "6-31G**", 
		 "properties": { 
			 "R2extent": 7204.9275, 
			 "electric_dipole_moment_norm": 1.99901853168, 
			 "electric_quadrupole_moment_norm": 15.9267214376, 
			 "total_energy": -850.844208465, 
			 "HOMO_LUMO_gap": 0.21082, 
			 "cosmo_polarized_energy": -12.89, 
			 "cosmo_cavitation_energy": 40.39, 
			 "cosmo_dispersion_energy": -29.26, 
			 "cosmo_repulsion_energy": 2.18, 
			 "cosmo_total_nonelectrostatic_energy": 13.31, 
			 "SMD_solvation_energy": 5.61 
		},
		"coords": [
			{
				"x": 0.4472344699,
				"y": -2.2864188779,
				"z": 1.6236528973,
				"element": "C" 
			},
			{
				"x": 0.4629774323,
				"y": -2.5363693813,
				"z": 0.1013154095,
				"element": "C" 
			},
			{
				"x": 1.8391283139,
				"y": -2.1805620637,
				"z": -0.4850184248,
				"element": "C" 
			},
			{
				"x": 2.093192438,
				"y": -0.6577220882,
				"z": -0.4831145356,
				"element": "C" 
			},
			{
				"x": 0.9557415073,
				"y": 0.1446028421,
				"z": -1.1587581033,
				"element": "C" 
			},
			{
				"x": -0.43237406,
				"y": -0.2250603122,
				"z": -0.5698788438,
				"element": "C" 
			},
			{
				"x": -1.5166430778,
				"y": 0.5901001617,
				"z": -1.2835807544,
				"element": "C" 
			},
			{
				"x": -1.3373156681,
				"y": 2.0818817649,
				"z": -0.9879283938,
				"element": "C" 
			},
			{
				"x": 0.0974246876,
				"y": 2.5609874742,
				"z": -1.1290075752,
				"element": "C" 
			},
			{
				"x": 1.1833510176,
				"y": 1.6589144501,
				"z": -1.1717319052,
				"element": "C" 
			},
			{
				"x": 2.4728238128,
				"y": 2.1981627462,
				"z": -1.2855511403,
				"element": "C" 
			},
			{
				"x": 2.7035238198,
				"y": 3.5707211063,
				"z": -1.3451650189,
				"element": "C" 
			},
			{
				"x": 1.6205259319,
				"y": 4.4513811874,
				"z": -1.295757866,
				"element": "C" 
			},
			{
				"x": 1.7636735802,
				"y": 5.8114178864,
				"z": -1.3497829821,
				"element": "O" 
			},
			{
				"x": 0.3281708954,
				"y": 3.938673212,
				"z": -1.1905388605,
				"element": "C" 
			},
			{
				"x": -0.6186343003,
				"y": -1.7407876651,
				"z": -0.6722745963,
				"element": "C" 
			},
			{
				"x": -1.9474830729,
				"y": -2.3987127864,
				"z": -0.2431635826,
				"element": "C" 
			},
			{
				"x": -1.5705907516,
				"y": -3.8937390758,
				"z": -0.0193477336,
				"element": "C" 
			},
			{
				"x": -0.0340699697,
				"y": -3.9793838326,
				"z": -0.1840716093,
				"element": "C" 
			},
			{
				"x": 0.4737441197,
				"y": -5.0003090397,
				"z": 0.6648908963,
				"element": "O" 
			},
			{
				"x": -0.5461299908,
				"y": -2.4266580147,
				"z": 2.0581566212,
				"element": "H" 
			},
			{
				"x": 1.1128009758,
				"y": -2.9999576072,
				"z": 2.1174893455,
				"element": "H" 
			},
			{
				"x": 0.7793189388,
				"y": -1.2783977955,
				"z": 1.8824755457,
				"element": "H" 
			},
			{
				"x": 1.8892773575,
				"y": -2.5470798343,
				"z": -1.5209145619,
				"element": "H" 
			},
			{
				"x": 2.6466311354,
				"y": -2.6835088408,
				"z": 0.0651974527,
				"element": "H" 
			},
			{
				"x": 2.229429222,
				"y": -0.2952167021,
				"z": 0.5430256941,
				"element": "H" 
			},
			{
				"x": 3.0414634039,
				"y": -0.4705113609,
				"z": -0.997543281,
				"element": "H" 
			},
			{
				"x": 0.9270744704,
				"y": -0.1864288052,
				"z": -2.2118947142,
				"element": "H" 
			},
			{
				"x": -0.4480753156,
				"y": 0.0636254274,
				"z": 0.4922610063,
				"element": "H" 
			},
			{
				"x": -1.4546996902,
				"y": 0.4073500694,
				"z": -2.3657487985,
				"element": "H" 
			},
			{
				"x": -2.5159538969,
				"y": 0.2704745192,
				"z": -0.9673904835,
				"element": "H" 
			},
			{
				"x": -1.988355211,
				"y": 2.683795075,
				"z": -1.6331421927,
				"element": "H" 
			},
			{
				"x": -1.6708252331,
				"y": 2.2818316497,
				"z": 0.0410315689,
				"element": "H" 
			},
			{
				"x": 3.3316047762,
				"y": 1.5369775089,
				"z": -1.3334737353,
				"element": "H" 
			},
			{
				"x": 3.7193437756,
				"y": 3.951609332,
				"z": -1.4316981735,
				"element": "H" 
			},
			{
				"x": 2.7027424226,
				"y": 6.0238944387,
				"z": -1.4259822606,
				"element": "H" 
			},
			{
				"x": -0.5043291998,
				"y": 4.6361335029,
				"z": -1.1580799123,
				"element": "H" 
			},
			{
				"x": -0.4778261453,
				"y": -1.997206604,
				"z": -1.7364960043,
				"element": "H" 
			},
			{
				"x": -2.3294491597,
				"y": -1.9479966698,
				"z": 0.6798770818,
				"element": "H" 
			},
			{
				"x": -2.7291954088,
				"y": -2.2772911432,
				"z": -0.9986863126,
				"element": "H" 
			},
			{
				"x": -2.0809464064,
				"y": -4.5627225273,
				"z": -0.7178512997,
				"element": "H" 
			},
			{
				"x": -1.8275316158,
				"y": -4.232343831,
				"z": 0.9887894842,
				"element": "H" 
			},
			{
				"x": 0.2089247782,
				"y": -4.216037406,
				"z": -1.2340102218,
				"element": "H" 
			},
			{
				"x": 1.4142048911,
				"y": -5.1067120895,
				"z": 0.471520874,
				"element": "H" 
			}
		],
		 "valence_orbital": [ 
			{
				"type": "occ",
				"energy": -0.29253,
				"method": "rhf"
			},
			{
				"type": "occ",
				"energy": -0.2787,
				"method": "rhf"
			},
			{
				"type": "occ",
				"energy": -0.25185,
				"method": "rhf"
			},
			{
				"type": "occ",
				"energy": -0.23618,
				"method": "rhf"
			},
			{
				"type": "occ",
				"energy": -0.20888,
				"method": "rhf"
			},
			{
				"type": "unocc",
				"energy": 0.00194,
				"method": "rhf"
			},
			{
				"type": "unocc",
				"energy": 0.01962,
				"method": "rhf"
			},
			{
				"type": "unocc",
				"energy": 0.06773,
				"method": "rhf"
			},
			{
				"type": "unocc",
				"energy": 0.07511,
				"method": "rhf"
			},
			{
				"type": "unocc",
				"energy": 0.08595,
				"method": "rhf"
			}
		],
		"cosmo_sigma_profile": { 
			"-0.025": 0.0,
			"-0.024": 0.0,
			"-0.023": 0.0,
			"-0.022": 0.0,
			"-0.021": 0.0,
			"-0.02": 0.0,
			"-0.019": 0.0,
			"-0.018": 0.0907495134932,
			"-0.017": 0.732045426464,
			"-0.016": 1.23485787274,
			"-0.015": 1.11246981866,
			"-0.014": 2.22292813988,
			"-0.013": 1.45897840136,
			"-0.012": 1.76660406959,
			"-0.011": 1.3947698975,
			"-0.01": 2.33083591447,
			"-0.009": 1.72336728665,
			"-0.008": 1.92929911093,
			"-0.007": 2.28491671602,
			"-0.006": 3.10066658125,
			"-0.005": 6.74475722793,
			"-0.004": 8.58532044358,
			"-0.003": 22.4618206744,
			"-0.002": 49.6713019751,
			"-0.001": 50.0981761223,
			"0.0": 40.7500480598,
			"0.001": 27.8179386314,
			"0.002": 17.4231887545,
			"0.003": 9.32865176414,
			"0.004": 7.88301460871,
			"0.005": 12.1072071066,
			"0.006": 10.5734450472,
			"0.007": 8.37405220878,
			"0.008": 2.49118191414,
			"0.009": 2.6190659611,
			"0.01": 3.01385220311,
			"0.011": 3.47410350903,
			"0.012": 2.7590802308,
			"0.013": 1.40032425891,
			"0.014": 2.02207059481,
			"0.015": 0.786623145521,
			"0.016": 0.0,
			"0.017": 0.0,
			"0.018": 0.0,
			"0.019": 0.0,
			"0.02": 0.0,
			"0.021": 0.0,
			"0.022": 0.0,
			"0.023": 0.0,
			"0.024": 0.0,
			"0.025": 0.0
		}
	}
}
