{
	 "smiles": "CCCCCCCCCCCCCC#N", 
	 "Tm": 292.15, 
	 "num_atms": 42, 
	 "gaussian": { 
		 "optdone": 1, 
		 "sigma_profile": "yes", 
		 "theory": "DFT", 
		 "functional": "B3LYP", 
		 "basiset": "6-31G**", 
		 "properties": { 
			 "R2extent": 6595.7289, 
			 "electric_dipole_moment_norm": 4.14792832387, 
			 "electric_quadrupole_moment_norm": 28.172798497, 
			 "total_energy": -604.533871852, 
			 "HOMO_LUMO_gap": 0.33704, 
			 "cosmo_polarized_energy": -8.59, 
			 "cosmo_cavitation_energy": 42.94, 
			 "cosmo_dispersion_energy": -28.35, 
			 "cosmo_repulsion_energy": 2.36, 
			 "cosmo_total_nonelectrostatic_energy": 16.95, 
			 "SMD_solvation_energy": 7.29 
		},
		"coords": [
			{
				"x": 1.3392007424,
				"y": -4.4856709067,
				"z": 2.4425635424,
				"element": "C" 
			},
			{
				"x": 2.119260558,
				"y": -3.6196069993,
				"z": 1.4484321349,
				"element": "C" 
			},
			{
				"x": 1.2730218219,
				"y": -3.1519823719,
				"z": 0.2564642131,
				"element": "C" 
			},
			{
				"x": 2.0571229886,
				"y": -2.2738455761,
				"z": -0.7283209537,
				"element": "C" 
			},
			{
				"x": 1.3293964863,
				"y": -1.8803121003,
				"z": -2.0267939864,
				"element": "C" 
			},
			{
				"x": 0.0866626274,
				"y": -0.9743293977,
				"z": -1.8710716346,
				"element": "C" 
			},
			{
				"x": -1.2474659275,
				"y": -1.7218068595,
				"z": -1.7098249086,
				"element": "C" 
			},
			{
				"x": -2.515606599,
				"y": -0.848609873,
				"z": -1.7364406014,
				"element": "C" 
			},
			{
				"x": -2.6913657431,
				"y": 0.1418775322,
				"z": -0.5630025522,
				"element": "C" 
			},
			{
				"x": -2.1083417342,
				"y": 1.5450209192,
				"z": -0.8016862461,
				"element": "C" 
			},
			{
				"x": -2.3890955714,
				"y": 2.5498094102,
				"z": 0.3281902153,
				"element": "C" 
			},
			{
				"x": -1.6787484289,
				"y": 2.2281973036,
				"z": 1.6498226195,
				"element": "C" 
			},
			{
				"x": -1.9473583951,
				"y": 3.3060533761,
				"z": 2.7213520842,
				"element": "C" 
			},
			{
				"x": -1.2802884769,
				"y": 3.0221869454,
				"z": 3.9948184243,
				"element": "C" 
			},
			{
				"x": -0.7442756688,
				"y": 2.7804195448,
				"z": 4.9957182564,
				"element": "N" 
			},
			{
				"x": 1.97085717,
				"y": -4.8047335662,
				"z": 3.278053805,
				"element": "H" 
			},
			{
				"x": 0.4868017968,
				"y": -3.938645759,
				"z": 2.8615446169,
				"element": "H" 
			},
			{
				"x": 0.9463476235,
				"y": -5.3877449254,
				"z": 1.9593505143,
				"element": "H" 
			},
			{
				"x": 2.9876643188,
				"y": -4.1802052136,
				"z": 1.0761253797,
				"element": "H" 
			},
			{
				"x": 2.5266727255,
				"y": -2.7420060482,
				"z": 1.9687811787,
				"element": "H" 
			},
			{
				"x": 0.8751582854,
				"y": -4.0304997956,
				"z": -0.2720204445,
				"element": "H" 
			},
			{
				"x": 0.4009478467,
				"y": -2.6041016222,
				"z": 0.6365387244,
				"element": "H" 
			},
			{
				"x": 2.9804261272,
				"y": -2.802312446,
				"z": -1.0041785316,
				"element": "H" 
			},
			{
				"x": 2.3810295189,
				"y": -1.3588036476,
				"z": -0.2114372973,
				"element": "H" 
			},
			{
				"x": 2.0581335381,
				"y": -1.3607377153,
				"z": -2.6616287006,
				"element": "H" 
			},
			{
				"x": 1.0495611772,
				"y": -2.7888671517,
				"z": -2.5790012078,
				"element": "H" 
			},
			{
				"x": 0.0063592795,
				"y": -0.3322705657,
				"z": -2.7588317344,
				"element": "H" 
			},
			{
				"x": 0.2471325601,
				"y": -0.2951964797,
				"z": -1.0233829863,
				"element": "H" 
			},
			{
				"x": -1.3263247655,
				"y": -2.4560035559,
				"z": -2.5235810125,
				"element": "H" 
			},
			{
				"x": -1.2430879799,
				"y": -2.3064357476,
				"z": -0.7816530547,
				"element": "H" 
			},
			{
				"x": -2.5618338917,
				"y": -0.2978934134,
				"z": -2.6870380845,
				"element": "H" 
			},
			{
				"x": -3.376939675,
				"y": -1.528045269,
				"z": -1.7457018672,
				"element": "H" 
			},
			{
				"x": -2.2618555807,
				"y": -0.3012008425,
				"z": 0.3455148483,
				"element": "H" 
			},
			{
				"x": -3.7643012917,
				"y": 0.2596078035,
				"z": -0.3582054558,
				"element": "H" 
			},
			{
				"x": -2.5364995735,
				"y": 1.9429107892,
				"z": -1.7312121891,
				"element": "H" 
			},
			{
				"x": -1.0262370037,
				"y": 1.4876447047,
				"z": -0.9702371051,
				"element": "H" 
			},
			{
				"x": -3.47316091,
				"y": 2.6068224027,
				"z": 0.5032448431,
				"element": "H" 
			},
			{
				"x": -2.0808655413,
				"y": 3.5507273165,
				"z": -0.0033750982,
				"element": "H" 
			},
			{
				"x": -0.5974785712,
				"y": 2.1519730534,
				"z": 1.4834174875,
				"element": "H" 
			},
			{
				"x": -2.0048514774,
				"y": 1.2577389209,
				"z": 2.0380354061,
				"element": "H" 
			},
			{
				"x": -1.6095930378,
				"y": 4.287685534,
				"z": 2.3668973843,
				"element": "H" 
			},
			{
				"x": -3.024481348,
				"y": 3.3940922926,
				"z": 2.9095599742,
				"element": "H" 
			}
		],
		 "valence_orbital": [ 
			{
				"type": "occ",
				"energy": -0.31735,
				"method": "rhf"
			},
			{
				"type": "occ",
				"energy": -0.31557,
				"method": "rhf"
			},
			{
				"type": "occ",
				"energy": -0.30836,
				"method": "rhf"
			},
			{
				"type": "occ",
				"energy": -0.30035,
				"method": "rhf"
			},
			{
				"type": "occ",
				"energy": -0.30004,
				"method": "rhf"
			},
			{
				"type": "unocc",
				"energy": 0.037,
				"method": "rhf"
			},
			{
				"type": "unocc",
				"energy": 0.04331,
				"method": "rhf"
			},
			{
				"type": "unocc",
				"energy": 0.07563,
				"method": "rhf"
			},
			{
				"type": "unocc",
				"energy": 0.08527,
				"method": "rhf"
			},
			{
				"type": "unocc",
				"energy": 0.09436,
				"method": "rhf"
			}
		],
		"cosmo_sigma_profile": { 
			"-0.025": 0.0,
			"-0.024": 0.0,
			"-0.023": 0.0,
			"-0.022": 0.0,
			"-0.021": 0.0,
			"-0.02": 0.0,
			"-0.019": 0.0,
			"-0.018": 0.0,
			"-0.017": 0.0,
			"-0.016": 0.0,
			"-0.015": 0.0,
			"-0.014": 0.0,
			"-0.013": 0.0,
			"-0.012": 0.0,
			"-0.011": 0.0,
			"-0.01": 0.0,
			"-0.009": 0.0,
			"-0.008": 1.08708882517,
			"-0.007": 5.4282530854,
			"-0.006": 5.49457105751,
			"-0.005": 6.82245428335,
			"-0.004": 12.665195393,
			"-0.003": 14.4530309425,
			"-0.002": 40.5954213564,
			"-0.001": 69.3055176516,
			"0.0": 68.9901959587,
			"0.001": 51.5990488011,
			"0.002": 24.1102248424,
			"0.003": 1.43711464506,
			"0.004": 2.43502939465,
			"0.005": 1.83394609523,
			"0.006": 2.75559210974,
			"0.007": 2.39859414277,
			"0.008": 3.03528921676,
			"0.009": 3.68358013794,
			"0.01": 3.4746624876,
			"0.011": 3.15348960193,
			"0.012": 2.6446507215,
			"0.013": 2.41549177284,
			"0.014": 0.880807287794,
			"0.015": 0.0,
			"0.016": 0.0,
			"0.017": 0.0,
			"0.018": 0.0,
			"0.019": 0.0,
			"0.02": 0.0,
			"0.021": 0.0,
			"0.022": 0.0,
			"0.023": 0.0,
			"0.024": 0.0,
			"0.025": 0.0
		}
	}
}
