{
	 "smiles": "NC(=O)COC1=C(C=C(Cl)C=C1)S(N)(=O)=O", 
	 "Tm": 488.15, 
	 "num_atms": 25, 
	 "gaussian": { 
		 "optdone": 1, 
		 "sigma_profile": "yes", 
		 "theory": "DFT", 
		 "functional": "B3LYP", 
		 "basiset": "6-31G**", 
		 "properties": { 
			 "R2extent": 5065.2875, 
			 "electric_dipole_moment_norm": 2.00489086237, 
			 "electric_quadrupole_moment_norm": 23.4799469316, 
			 "total_energy": -1578.99153337, 
			 "HOMO_LUMO_gap": 0.19445, 
			 "cosmo_polarized_energy": -21.75, 
			 "cosmo_cavitation_energy": 32.42, 
			 "cosmo_dispersion_energy": -24.11, 
			 "cosmo_repulsion_energy": 1.84, 
			 "cosmo_total_nonelectrostatic_energy": 10.15, 
			 "SMD_solvation_energy": 5.85 
		},
		"coords": [
			{
				"x": 1.1146680743,
				"y": -3.2490401392,
				"z": 0.5599911806,
				"element": "N" 
			},
			{
				"x": 2.0845610331,
				"y": -2.8518746637,
				"z": -0.299383504,
				"element": "C" 
			},
			{
				"x": 2.9479776634,
				"y": -3.5762510536,
				"z": -0.7726254034,
				"element": "O" 
			},
			{
				"x": 2.0437917347,
				"y": -1.3761137956,
				"z": -0.7125614835,
				"element": "C" 
			},
			{
				"x": 1.2791004785,
				"y": -0.619194789,
				"z": 0.228524387,
				"element": "O" 
			},
			{
				"x": 0.5999965865,
				"y": 0.4896137813,
				"z": -0.1651556067,
				"element": "C" 
			},
			{
				"x": -0.4559995519,
				"y": 0.8981647139,
				"z": 0.6682264005,
				"element": "C" 
			},
			{
				"x": -1.2030496311,
				"y": 2.0375560248,
				"z": 0.3891387343,
				"element": "C" 
			},
			{
				"x": -0.892675179,
				"y": 2.7798803189,
				"z": -0.7501702383,
				"element": "C" 
			},
			{
				"x": -1.8234649415,
				"y": 4.217097096,
				"z": -1.1253349927,
				"element": "Cl" 
			},
			{
				"x": 0.1494634245,
				"y": 2.3913984526,
				"z": -1.5901208994,
				"element": "C" 
			},
			{
				"x": 0.8999050213,
				"y": 1.2509458833,
				"z": -1.2975040115,
				"element": "C" 
			},
			{
				"x": -0.9112365439,
				"y": -0.0963285806,
				"z": 2.0876789432,
				"element": "S" 
			},
			{
				"x": 0.4764964752,
				"y": -0.0254381667,
				"z": 3.0386660488,
				"element": "N" 
			},
			{
				"x": -1.9527291303,
				"y": 0.6127720234,
				"z": 2.8304777898,
				"element": "O" 
			},
			{
				"x": -1.1435866702,
				"y": -1.4744420632,
				"z": 1.6224055651,
				"element": "O" 
			},
			{
				"x": 0.3464760029,
				"y": -2.646287112,
				"z": 0.83872831,
				"element": "H" 
			},
			{
				"x": 1.0687234987,
				"y": -4.2351914766,
				"z": 0.7696534267,
				"element": "H" 
			},
			{
				"x": 3.0730611418,
				"y": -1.0087373198,
				"z": -0.7671472758,
				"element": "H" 
			},
			{
				"x": 1.593554748,
				"y": -1.3164614039,
				"z": -1.7106978189,
				"element": "H" 
			},
			{
				"x": -2.010761338,
				"y": 2.3243791727,
				"z": 1.0521309482,
				"element": "H" 
			},
			{
				"x": 0.3834981003,
				"y": 2.9820943415,
				"z": -2.4687904864,
				"element": "H" 
			},
			{
				"x": 1.7227934325,
				"y": 0.971358186,
				"z": -1.9452783599,
				"element": "H" 
			},
			{
				"x": 0.2025290728,
				"y": -0.010209965,
				"z": 4.0178656545,
				"element": "H" 
			},
			{
				"x": 1.1112064975,
				"y": -0.7891894655,
				"z": 2.8204826917,
				"element": "H" 
			}
		],
		 "valence_orbital": [ 
			{
				"type": "occ",
				"energy": -0.30597,
				"method": "rhf"
			},
			{
				"type": "occ",
				"energy": -0.289,
				"method": "rhf"
			},
			{
				"type": "occ",
				"energy": -0.2736,
				"method": "rhf"
			},
			{
				"type": "occ",
				"energy": -0.26115,
				"method": "rhf"
			},
			{
				"type": "occ",
				"energy": -0.24916,
				"method": "rhf"
			},
			{
				"type": "unocc",
				"energy": -0.05471,
				"method": "rhf"
			},
			{
				"type": "unocc",
				"energy": -0.03077,
				"method": "rhf"
			},
			{
				"type": "unocc",
				"energy": 0.00863,
				"method": "rhf"
			},
			{
				"type": "unocc",
				"energy": 0.0172,
				"method": "rhf"
			},
			{
				"type": "unocc",
				"energy": 0.05176,
				"method": "rhf"
			}
		],
		"cosmo_sigma_profile": { 
			"-0.025": 0.0,
			"-0.024": 0.0,
			"-0.023": 0.0,
			"-0.022": 0.0,
			"-0.021": 0.0,
			"-0.02": 0.0,
			"-0.019": 0.0,
			"-0.018": 0.0,
			"-0.017": 0.0,
			"-0.016": 0.361379176317,
			"-0.015": 1.28534377949,
			"-0.014": 2.73998222616,
			"-0.013": 3.20914896488,
			"-0.012": 2.93964269152,
			"-0.011": 3.62788148211,
			"-0.01": 2.25901948523,
			"-0.009": 6.67388112714,
			"-0.008": 11.995119951,
			"-0.007": 13.4305354154,
			"-0.006": 10.057988432,
			"-0.005": 10.1696740154,
			"-0.004": 9.82031216524,
			"-0.003": 11.9752109246,
			"-0.002": 13.397409064,
			"-0.001": 14.3711767319,
			"0.0": 21.3815835911,
			"0.001": 22.2203934863,
			"0.002": 15.7466160358,
			"0.003": 12.775684237,
			"0.004": 15.2651758064,
			"0.005": 6.26538927178,
			"0.006": 4.76591703759,
			"0.007": 4.66248765875,
			"0.008": 4.96035840072,
			"0.009": 5.96490322474,
			"0.01": 8.59465918083,
			"0.011": 7.61984957495,
			"0.012": 2.59108876817,
			"0.013": 4.59622306794,
			"0.014": 4.80262766214,
			"0.015": 0.566380517347,
			"0.016": 0.0,
			"0.017": 0.0,
			"0.018": 0.0,
			"0.019": 0.0,
			"0.02": 0.0,
			"0.021": 0.0,
			"0.022": 0.0,
			"0.023": 0.0,
			"0.024": 0.0,
			"0.025": 0.0
		}
	}
}
