{
	 "smiles": "COC1(CC=C/CC(CC=C/C1)(OC)OC)OC", 
	 "Tm": 475.15, 
	 "num_atms": 42, 
	 "gaussian": { 
		 "optdone": 1, 
		 "sigma_profile": "yes", 
		 "theory": "DFT", 
		 "functional": "B3LYP", 
		 "basiset": "6-31G**", 
		 "properties": { 
			 "R2extent": 5450.0325, 
			 "electric_dipole_moment_norm": 2.80332904597, 
			 "electric_quadrupole_moment_norm": 8.54436524968, 
			 "total_energy": -848.742660329, 
			 "HOMO_LUMO_gap": 0.24484, 
			 "cosmo_polarized_energy": -12.27, 
			 "cosmo_cavitation_energy": 38.87, 
			 "cosmo_dispersion_energy": -27.2, 
			 "cosmo_repulsion_energy": 2.08, 
			 "cosmo_total_nonelectrostatic_energy": 13.75, 
			 "SMD_solvation_energy": 8.09 
		},
		"coords": [
			{
				"x": -0.2871504875,
				"y": 2.7131708756,
				"z": 2.5464697521,
				"element": "C" 
			},
			{
				"x": -0.1253244178,
				"y": 2.6060169511,
				"z": 1.1466177668,
				"element": "O" 
			},
			{
				"x": -0.4377805094,
				"y": 1.3660786563,
				"z": 0.4845266434,
				"element": "C" 
			},
			{
				"x": 0.6234581296,
				"y": 0.2712413207,
				"z": 0.836288884,
				"element": "C" 
			},
			{
				"x": 1.6166295193,
				"y": -0.0325754955,
				"z": -0.252001478,
				"element": "C" 
			},
			{
				"x": 1.6801788144,
				"y": -1.1615541076,
				"z": -0.9672944202,
				"element": "C" 
			},
			{
				"x": 0.7587806822,
				"y": -2.3500134554,
				"z": -0.8599861159,
				"element": "C" 
			},
			{
				"x": -0.3421580187,
				"y": -2.349966518,
				"z": -1.9545103351,
				"element": "C" 
			},
			{
				"x": -1.2863537697,
				"y": -1.1294998435,
				"z": -1.8502540943,
				"element": "C" 
			},
			{
				"x": -2.2659150508,
				"y": -1.179892211,
				"z": -0.7103494618,
				"element": "C" 
			},
			{
				"x": -2.4823705534,
				"y": -0.3660528847,
				"z": 0.3360057365,
				"element": "C" 
			},
			{
				"x": -1.861675177,
				"y": 0.9111495038,
				"z": 0.8730114089,
				"element": "C" 
			},
			{
				"x": 0.2181156352,
				"y": -2.2218746087,
				"z": -3.2466147688,
				"element": "O" 
			},
			{
				"x": 1.05533026,
				"y": -3.2785227033,
				"z": -3.6897813338,
				"element": "C" 
			},
			{
				"x": -1.113039667,
				"y": -3.5594777152,
				"z": -1.9710151131,
				"element": "O" 
			},
			{
				"x": -1.2217954374,
				"y": -4.3634960232,
				"z": -0.8097635279,
				"element": "C" 
			},
			{
				"x": -0.2962474487,
				"y": 1.6711111322,
				"z": -0.8780332935,
				"element": "O" 
			},
			{
				"x": -1.1816349962,
				"y": 2.6457335231,
				"z": -1.4207307749,
				"element": "C" 
			},
			{
				"x": -1.3410334345,
				"y": 2.7649819663,
				"z": 2.8528813142,
				"element": "H" 
			},
			{
				"x": 0.1936649181,
				"y": 1.8910160275,
				"z": 3.0963569607,
				"element": "H" 
			},
			{
				"x": 0.2006101133,
				"y": 3.6467520341,
				"z": 2.8396155471,
				"element": "H" 
			},
			{
				"x": 1.1654875626,
				"y": 0.6232647665,
				"z": 1.7213420293,
				"element": "H" 
			},
			{
				"x": 0.098049518,
				"y": -0.6391095403,
				"z": 1.131979709,
				"element": "H" 
			},
			{
				"x": 2.3326729655,
				"y": 0.7562142965,
				"z": -0.4716170654,
				"element": "H" 
			},
			{
				"x": 2.4461274485,
				"y": -1.231607123,
				"z": -1.737144876,
				"element": "H" 
			},
			{
				"x": 0.274104449,
				"y": -2.3832913632,
				"z": 0.1187238823,
				"element": "H" 
			},
			{
				"x": 1.343734507,
				"y": -3.2726394004,
				"z": -0.9501374854,
				"element": "H" 
			},
			{
				"x": -0.6868578318,
				"y": -0.2218228045,
				"z": -1.8402270905,
				"element": "H" 
			},
			{
				"x": -1.8592468109,
				"y": -1.1451002553,
				"z": -2.7859185747,
				"element": "H" 
			},
			{
				"x": -2.9587025045,
				"y": -2.0184294957,
				"z": -0.7811394785,
				"element": "H" 
			},
			{
				"x": -3.3253897344,
				"y": -0.6605711818,
				"z": 0.963940626,
				"element": "H" 
			},
			{
				"x": -2.5523889084,
				"y": 1.7441026897,
				"z": 0.6794470709,
				"element": "H" 
			},
			{
				"x": -1.8656921137,
				"y": 0.801605819,
				"z": 1.9646527185,
				"element": "H" 
			},
			{
				"x": 1.2378367213,
				"y": -3.0964970399,
				"z": -4.7515368049,
				"element": "H" 
			},
			{
				"x": 0.5685687445,
				"y": -4.2518095283,
				"z": -3.5694804447,
				"element": "H" 
			},
			{
				"x": 2.0247304479,
				"y": -3.2933213918,
				"z": -3.1708077372,
				"element": "H" 
			},
			{
				"x": -0.2666477547,
				"y": -4.8145716758,
				"z": -0.5099073449,
				"element": "H" 
			},
			{
				"x": -1.9127744993,
				"y": -5.170183899,
				"z": -1.0700403276,
				"element": "H" 
			},
			{
				"x": -1.6351465095,
				"y": -3.8178721867,
				"z": 0.0483207759,
				"element": "H" 
			},
			{
				"x": -1.2128801145,
				"y": 3.5449447846,
				"z": -0.7989654017,
				"element": "H" 
			},
			{
				"x": -2.1965865946,
				"y": 2.2475589532,
				"z": -1.5498574185,
				"element": "H" 
			},
			{
				"x": -0.7797880923,
				"y": 2.8989091519,
				"z": -2.4040660583,
				"element": "H" 
			}
		],
		 "valence_orbital": [ 
			{
				"type": "occ",
				"energy": -0.26276,
				"method": "rhf"
			},
			{
				"type": "occ",
				"energy": -0.25961,
				"method": "rhf"
			},
			{
				"type": "occ",
				"energy": -0.24814,
				"method": "rhf"
			},
			{
				"type": "occ",
				"energy": -0.24054,
				"method": "rhf"
			},
			{
				"type": "occ",
				"energy": -0.22232,
				"method": "rhf"
			},
			{
				"type": "unocc",
				"energy": 0.02252,
				"method": "rhf"
			},
			{
				"type": "unocc",
				"energy": 0.02903,
				"method": "rhf"
			},
			{
				"type": "unocc",
				"energy": 0.07758,
				"method": "rhf"
			},
			{
				"type": "unocc",
				"energy": 0.09516,
				"method": "rhf"
			},
			{
				"type": "unocc",
				"energy": 0.1042,
				"method": "rhf"
			}
		],
		"cosmo_sigma_profile": { 
			"-0.025": 0.0,
			"-0.024": 0.0,
			"-0.023": 0.0,
			"-0.022": 0.0,
			"-0.021": 0.0,
			"-0.02": 0.0,
			"-0.019": 0.0,
			"-0.018": 0.0,
			"-0.017": 0.0,
			"-0.016": 0.0,
			"-0.015": 0.0,
			"-0.014": 0.0,
			"-0.013": 0.0,
			"-0.012": 0.0,
			"-0.011": 0.0,
			"-0.01": 0.0,
			"-0.009": 0.0,
			"-0.008": 0.0,
			"-0.007": 0.0,
			"-0.006": 0.124489763682,
			"-0.005": 13.2009690566,
			"-0.004": 40.9949961858,
			"-0.003": 46.8854484944,
			"-0.002": 54.4685079189,
			"-0.001": 30.6429262539,
			"0.0": 19.2233615209,
			"0.001": 16.5447189129,
			"0.002": 13.0573074063,
			"0.003": 10.298318803,
			"0.004": 9.20369375585,
			"0.005": 6.69698688923,
			"0.006": 7.39213897948,
			"0.007": 5.91744809385,
			"0.008": 5.19993735949,
			"0.009": 4.82668230268,
			"0.01": 4.38915910722,
			"0.011": 5.70427102567,
			"0.012": 3.75711968156,
			"0.013": 2.76047664538,
			"0.014": 0.704912351253,
			"0.015": 0.0,
			"0.016": 0.0,
			"0.017": 0.0,
			"0.018": 0.0,
			"0.019": 0.0,
			"0.02": 0.0,
			"0.021": 0.0,
			"0.022": 0.0,
			"0.023": 0.0,
			"0.024": 0.0,
			"0.025": 0.0
		}
	}
}
