{
	 "smiles": "OC(=O)C1=CC2=C(S1)C1=C(S2)C=CC=C1", 
	 "Tm": 523.15, 
	 "num_atms": 21, 
	 "gaussian": { 
		 "optdone": 1, 
		 "sigma_profile": "yes", 
		 "theory": "DFT", 
		 "functional": "B3LYP", 
		 "basiset": "6-31G**", 
		 "properties": { 
			 "R2extent": 4747.754, 
			 "electric_dipole_moment_norm": 5.0567888279, 
			 "electric_quadrupole_moment_norm": 22.1364911531, 
			 "total_energy": -1369.61416223, 
			 "HOMO_LUMO_gap": 0.15246, 
			 "cosmo_polarized_energy": -16.13, 
			 "cosmo_cavitation_energy": 29.11, 
			 "cosmo_dispersion_energy": -22.64, 
			 "cosmo_repulsion_energy": 1.64, 
			 "cosmo_total_nonelectrostatic_energy": 8.11, 
			 "SMD_solvation_energy": 4.95 
		},
		"coords": [
			{
				"x": 2.8261503735,
				"y": 0.9831407734,
				"z": 3.4775944763,
				"element": "O" 
			},
			{
				"x": 1.5620072714,
				"y": 0.5258600319,
				"z": 3.2751650875,
				"element": "C" 
			},
			{
				"x": 0.9820878652,
				"y": -0.0749415483,
				"z": 4.1513338026,
				"element": "O" 
			},
			{
				"x": 0.9560391693,
				"y": 0.8028121311,
				"z": 1.9565135679,
				"element": "C" 
			},
			{
				"x": 1.3909812019,
				"y": 1.6041640657,
				"z": 0.9203606143,
				"element": "C" 
			},
			{
				"x": 0.4797496848,
				"y": 1.5941041303,
				"z": -0.1625034523,
				"element": "C" 
			},
			{
				"x": -0.6376343079,
				"y": 0.7963680743,
				"z": 0.054314117,
				"element": "C" 
			},
			{
				"x": -0.5878268963,
				"y": 0.0424803003,
				"z": 1.6152698819,
				"element": "S" 
			},
			{
				"x": -1.5695127526,
				"y": 0.7786752374,
				"z": -1.0389483751,
				"element": "C" 
			},
			{
				"x": -1.1042165263,
				"y": 1.6055195617,
				"z": -2.0966596906,
				"element": "C" 
			},
			{
				"x": 0.4478695269,
				"y": 2.3790104188,
				"z": -1.735028898,
				"element": "S" 
			},
			{
				"x": -1.8385562005,
				"y": 1.7535066391,
				"z": -3.2752654602,
				"element": "C" 
			},
			{
				"x": -3.0458281067,
				"y": 1.070822964,
				"z": -3.3972502049,
				"element": "C" 
			},
			{
				"x": -3.5187351037,
				"y": 0.2497567667,
				"z": -2.3593600305,
				"element": "C" 
			},
			{
				"x": -2.7913951852,
				"y": 0.1000807426,
				"z": -1.1860657051,
				"element": "C" 
			},
			{
				"x": 3.2024656213,
				"y": 1.3319923857,
				"z": 2.6581765143,
				"element": "H" 
			},
			{
				"x": 2.3033145434,
				"y": 2.1911697128,
				"z": 0.9364805304,
				"element": "H" 
			},
			{
				"x": -1.4770350267,
				"y": 2.3869200478,
				"z": -4.0793208971,
				"element": "H" 
			},
			{
				"x": -3.6281151656,
				"y": 1.176073756,
				"z": -4.3075528633,
				"element": "H" 
			},
			{
				"x": -4.4629745603,
				"y": -0.2727714152,
				"z": -2.4767481763,
				"element": "H" 
			},
			{
				"x": -3.159035426,
				"y": -0.5349447762,
				"z": -0.3853048389,
				"element": "H" 
			}
		],
		 "valence_orbital": [ 
			{
				"type": "occ",
				"energy": -0.29928,
				"method": "rhf"
			},
			{
				"type": "occ",
				"energy": -0.2816,
				"method": "rhf"
			},
			{
				"type": "occ",
				"energy": -0.27585,
				"method": "rhf"
			},
			{
				"type": "occ",
				"energy": -0.23796,
				"method": "rhf"
			},
			{
				"type": "occ",
				"energy": -0.22807,
				"method": "rhf"
			},
			{
				"type": "unocc",
				"energy": -0.07561,
				"method": "rhf"
			},
			{
				"type": "unocc",
				"energy": -0.01895,
				"method": "rhf"
			},
			{
				"type": "unocc",
				"energy": -0.01105,
				"method": "rhf"
			},
			{
				"type": "unocc",
				"energy": -0.00356,
				"method": "rhf"
			},
			{
				"type": "unocc",
				"energy": 0.01548,
				"method": "rhf"
			}
		],
		"cosmo_sigma_profile": { 
			"-0.025": 0.0,
			"-0.024": 0.0,
			"-0.023": 0.0,
			"-0.022": 0.0,
			"-0.021": 0.0,
			"-0.02": 0.140866937322,
			"-0.019": 0.928777079397,
			"-0.018": 1.49914696229,
			"-0.017": 1.10917963485,
			"-0.016": 0.377604119754,
			"-0.015": 1.43361621673,
			"-0.014": 0.873926177856,
			"-0.013": 1.61668921337,
			"-0.012": 1.20408231059,
			"-0.011": 1.24749345741,
			"-0.01": 1.72376919099,
			"-0.009": 2.08491084452,
			"-0.008": 2.73015442752,
			"-0.007": 8.5939655148,
			"-0.006": 11.4376278448,
			"-0.005": 12.2437797186,
			"-0.004": 11.6220746037,
			"-0.003": 11.5332623587,
			"-0.002": 11.2548751911,
			"-0.001": 11.4914345009,
			"0.0": 15.7090998235,
			"0.001": 29.6740190897,
			"0.002": 26.8445156159,
			"0.003": 20.9311219683,
			"0.004": 16.9011104875,
			"0.005": 7.34393824219,
			"0.006": 2.18985760185,
			"0.007": 2.55145142021,
			"0.008": 3.41669684047,
			"0.009": 3.29771926457,
			"0.01": 5.23298981771,
			"0.011": 5.15725780964,
			"0.012": 4.1251474049,
			"0.013": 1.15933086118,
			"0.014": 0.00308898125243,
			"0.015": 0.0,
			"0.016": 0.0,
			"0.017": 0.0,
			"0.018": 0.0,
			"0.019": 0.0,
			"0.02": 0.0,
			"0.021": 0.0,
			"0.022": 0.0,
			"0.023": 0.0,
			"0.024": 0.0,
			"0.025": 0.0
		}
	}
}
