{
	 "smiles": "CC(N1C(=O)C2CC=CCC2C1=O)C(O)=O", 
	 "Tm": 397.15, 
	 "num_atms": 29, 
	 "gaussian": { 
		 "optdone": 1, 
		 "sigma_profile": "yes", 
		 "theory": "DFT", 
		 "functional": "B3LYP", 
		 "basiset": "6-31G**", 
		 "properties": { 
			 "R2extent": 3546.5897, 
			 "electric_dipole_moment_norm": 5.74437263241, 
			 "electric_quadrupole_moment_norm": 15.8653409286, 
			 "total_energy": -782.680939853, 
			 "HOMO_LUMO_gap": 0.21475, 
			 "cosmo_polarized_energy": -17.35, 
			 "cosmo_cavitation_energy": 31.17, 
			 "cosmo_dispersion_energy": -22.24, 
			 "cosmo_repulsion_energy": 1.73, 
			 "cosmo_total_nonelectrostatic_energy": 10.67, 
			 "SMD_solvation_energy": 6.94 
		},
		"coords": [
			{
				"x": -0.3621245868,
				"y": 2.7373297238,
				"z": -0.736504637,
				"element": "C" 
			},
			{
				"x": -1.0977630787,
				"y": 1.4019204382,
				"z": -0.7197750121,
				"element": "C" 
			},
			{
				"x": -0.3657767129,
				"y": 0.3152797116,
				"z": -0.0267630009,
				"element": "N" 
			},
			{
				"x": 1.0350121948,
				"y": 0.1197285072,
				"z": 0.0373074402,
				"element": "C" 
			},
			{
				"x": 1.8745204281,
				"y": 0.8646301732,
				"z": -0.4116442391,
				"element": "O" 
			},
			{
				"x": 1.26500379,
				"y": -1.2381846029,
				"z": 0.6963179869,
				"element": "C" 
			},
			{
				"x": 1.592053437,
				"y": -2.2647841139,
				"z": -0.4195452981,
				"element": "C" 
			},
			{
				"x": 1.2701870561,
				"y": -3.6799217638,
				"z": -0.0198420437,
				"element": "C" 
			},
			{
				"x": 0.3511222647,
				"y": -3.9944882017,
				"z": 0.8945717675,
				"element": "C" 
			},
			{
				"x": -0.4628968656,
				"y": -2.9924311407,
				"z": 1.667306282,
				"element": "C" 
			},
			{
				"x": -0.0685677623,
				"y": -1.5241758258,
				"z": 1.4226545154,
				"element": "C" 
			},
			{
				"x": -1.056646265,
				"y": -0.7120790088,
				"z": 0.5994881634,
				"element": "C" 
			},
			{
				"x": -2.2658555925,
				"y": -0.8821338529,
				"z": 0.494864517,
				"element": "O" 
			},
			{
				"x": -1.4995221859,
				"y": 0.9397874248,
				"z": -2.1436657018,
				"element": "C" 
			},
			{
				"x": -2.3332354956,
				"y": -0.1155448192,
				"z": -2.1803139483,
				"element": "O" 
			},
			{
				"x": -1.1118927292,
				"y": 1.4832843745,
				"z": -3.1475878049,
				"element": "O" 
			},
			{
				"x": -1.0430606395,
				"y": 3.4959191277,
				"z": -1.1300057744,
				"element": "H" 
			},
			{
				"x": -0.0644182891,
				"y": 3.025157316,
				"z": 0.2749401891,
				"element": "H" 
			},
			{
				"x": 0.5200205361,
				"y": 2.6995737383,
				"z": -1.371324694,
				"element": "H" 
			},
			{
				"x": -2.0291533007,
				"y": 1.5038013208,
				"z": -0.1494639515,
				"element": "H" 
			},
			{
				"x": 2.108681164,
				"y": -1.1728139623,
				"z": 1.3866407814,
				"element": "H" 
			},
			{
				"x": 1.0320219325,
				"y": -2.0152868766,
				"z": -1.3334380197,
				"element": "H" 
			},
			{
				"x": 2.6477045207,
				"y": -2.1603993337,
				"z": -0.6891125102,
				"element": "H" 
			},
			{
				"x": 1.8032307244,
				"y": -4.4704924023,
				"z": -0.5430448362,
				"element": "H" 
			},
			{
				"x": 0.1522741827,
				"y": -5.040679339,
				"z": 1.1176907165,
				"element": "H" 
			},
			{
				"x": -1.528668389,
				"y": -3.1096438183,
				"z": 1.4295062692,
				"element": "H" 
			},
			{
				"x": -0.3796574667,
				"y": -3.2188854626,
				"z": 2.7375779259,
				"element": "H" 
			},
			{
				"x": -0.038464724,
				"y": -1.0059501345,
				"z": 2.3909606626,
				"element": "H" 
			},
			{
				"x": -2.5648281475,
				"y": -0.4064171973,
				"z": -1.2719957452,
				"element": "H" 
			}
		],
		 "valence_orbital": [ 
			{
				"type": "occ",
				"energy": -0.31091,
				"method": "rhf"
			},
			{
				"type": "occ",
				"energy": -0.30131,
				"method": "rhf"
			},
			{
				"type": "occ",
				"energy": -0.2769,
				"method": "rhf"
			},
			{
				"type": "occ",
				"energy": -0.26493,
				"method": "rhf"
			},
			{
				"type": "occ",
				"energy": -0.26074,
				"method": "rhf"
			},
			{
				"type": "unocc",
				"energy": -0.04599,
				"method": "rhf"
			},
			{
				"type": "unocc",
				"energy": -0.00501,
				"method": "rhf"
			},
			{
				"type": "unocc",
				"energy": 0.00594,
				"method": "rhf"
			},
			{
				"type": "unocc",
				"energy": 0.01448,
				"method": "rhf"
			},
			{
				"type": "unocc",
				"energy": 0.06614,
				"method": "rhf"
			}
		],
		"cosmo_sigma_profile": { 
			"-0.025": 0.0,
			"-0.024": 0.0,
			"-0.023": 0.0,
			"-0.022": 0.0,
			"-0.021": 0.0,
			"-0.02": 0.0,
			"-0.019": 0.0,
			"-0.018": 0.0,
			"-0.017": 0.0,
			"-0.016": 0.0,
			"-0.015": 0.0,
			"-0.014": 0.0,
			"-0.013": 0.0,
			"-0.012": 0.0,
			"-0.011": 0.278681875471,
			"-0.01": 1.15821042606,
			"-0.009": 4.01158127214,
			"-0.008": 8.26722089276,
			"-0.007": 10.6156970425,
			"-0.006": 13.1400254576,
			"-0.005": 22.7743190577,
			"-0.004": 21.8699147387,
			"-0.003": 22.2849731692,
			"-0.002": 19.6978344584,
			"-0.001": 15.516162499,
			"0.0": 13.8504451895,
			"0.001": 10.5803344267,
			"0.002": 7.30012488883,
			"0.003": 7.96123447315,
			"0.004": 7.49082464733,
			"0.005": 7.49886013451,
			"0.006": 6.22643328475,
			"0.007": 5.89867090766,
			"0.008": 6.19291877111,
			"0.009": 6.97596942667,
			"0.01": 9.8776123476,
			"0.011": 10.1017582393,
			"0.012": 5.4467910818,
			"0.013": 0.666726522686,
			"0.014": 0.0,
			"0.015": 0.0,
			"0.016": 0.0,
			"0.017": 0.0,
			"0.018": 0.0,
			"0.019": 0.0,
			"0.02": 0.0,
			"0.021": 0.0,
			"0.022": 0.0,
			"0.023": 0.0,
			"0.024": 0.0,
			"0.025": 0.0
		}
	}
}
