{
	 "smiles": "CCOC(=O)C1=CSC(CC2=CC=C(NC(=O)OC(C)(C)C)C=C2)=N1", 
	 "Tm": 409.15, 
	 "num_atms": 47, 
	 "gaussian": { 
		 "optdone": 1, 
		 "sigma_profile": "yes", 
		 "theory": "DFT", 
		 "functional": "B3LYP", 
		 "basiset": "6-31G**", 
		 "properties": { 
			 "R2extent": 18495.8469, 
			 "electric_dipole_moment_norm": 4.05346517686, 
			 "electric_quadrupole_moment_norm": 18.3623120717, 
			 "total_energy": -1507.81750687, 
			 "HOMO_LUMO_gap": 0.17344, 
			 "cosmo_polarized_energy": -18.32, 
			 "cosmo_cavitation_energy": 53.29, 
			 "cosmo_dispersion_energy": -37.48, 
			 "cosmo_repulsion_energy": 2.86, 
			 "cosmo_total_nonelectrostatic_energy": 18.67, 
			 "SMD_solvation_energy": 9.33 
		},
		"coords": [
			{
				"x": -3.3733910762,
				"y": 6.4265337088,
				"z": 1.5965314027,
				"element": "C" 
			},
			{
				"x": -3.2562979032,
				"y": 6.2112999481,
				"z": 0.0996840091,
				"element": "C" 
			},
			{
				"x": -3.3606362495,
				"y": 4.7900136178,
				"z": -0.1414072161,
				"element": "O" 
			},
			{
				"x": -3.2746340954,
				"y": 4.4133438675,
				"z": -1.4286292053,
				"element": "C" 
			},
			{
				"x": -3.1201316933,
				"y": 5.1834694069,
				"z": -2.3588157255,
				"element": "O" 
			},
			{
				"x": -3.3881645179,
				"y": 2.9423088293,
				"z": -1.6014100471,
				"element": "C" 
			},
			{
				"x": -3.3187109494,
				"y": 2.3616366112,
				"z": -2.8407256852,
				"element": "C" 
			},
			{
				"x": -3.4821936039,
				"y": 0.6531324519,
				"z": -2.7013240015,
				"element": "S" 
			},
			{
				"x": -3.6439939495,
				"y": 0.8437699566,
				"z": -0.9451825244,
				"element": "C" 
			},
			{
				"x": -3.8139675029,
				"y": -0.3411747013,
				"z": -0.0309202495,
				"element": "C" 
			},
			{
				"x": -2.5512507907,
				"y": -1.1719656441,
				"z": 0.1348523025,
				"element": "C" 
			},
			{
				"x": -1.3914502281,
				"y": -0.6102263738,
				"z": 0.6845295613,
				"element": "C" 
			},
			{
				"x": -0.2253599832,
				"y": -1.351173683,
				"z": 0.8549916622,
				"element": "C" 
			},
			{
				"x": -0.1997043011,
				"y": -2.7010439379,
				"z": 0.4664358942,
				"element": "C" 
			},
			{
				"x": 0.9313980894,
				"y": -3.5265434195,
				"z": 0.5997739069,
				"element": "N" 
			},
			{
				"x": 2.1698455342,
				"y": -3.209911051,
				"z": 1.1113096442,
				"element": "C" 
			},
			{
				"x": 2.5039178929,
				"y": -2.1239168811,
				"z": 1.5512749812,
				"element": "O" 
			},
			{
				"x": 2.9438586808,
				"y": -4.3201239575,
				"z": 1.0366848716,
				"element": "O" 
			},
			{
				"x": 4.3391854924,
				"y": -4.305325983,
				"z": 1.5099261974,
				"element": "C" 
			},
			{
				"x": 5.1592367474,
				"y": -3.3025862389,
				"z": 0.6915008182,
				"element": "C" 
			},
			{
				"x": 4.3795004771,
				"y": -4.003615471,
				"z": 3.0116475625,
				"element": "C" 
			},
			{
				"x": 4.7972032222,
				"y": -5.7390859002,
				"z": 1.2305988758,
				"element": "C" 
			},
			{
				"x": -1.354710729,
				"y": -3.2735947671,
				"z": -0.0858998062,
				"element": "C" 
			},
			{
				"x": -2.5116041172,
				"y": -2.5158205199,
				"z": -0.2483289693,
				"element": "C" 
			},
			{
				"x": -3.5713896732,
				"y": 2.076058241,
				"z": -0.5426302593,
				"element": "N" 
			},
			{
				"x": -2.5747226744,
				"y": 5.9031842988,
				"z": 2.1297090904,
				"element": "H" 
			},
			{
				"x": -3.2994779351,
				"y": 7.4944896955,
				"z": 1.824752351,
				"element": "H" 
			},
			{
				"x": -4.3334249255,
				"y": 6.0589776147,
				"z": 1.9697748655,
				"element": "H" 
			},
			{
				"x": -4.0496976804,
				"y": 6.7232395422,
				"z": -0.4544644498,
				"element": "H" 
			},
			{
				"x": -2.2994456861,
				"y": 6.5677467491,
				"z": -0.2952180451,
				"element": "H" 
			},
			{
				"x": -3.183604073,
				"y": 2.8642816466,
				"z": -3.7870763546,
				"element": "H" 
			},
			{
				"x": -4.1337387581,
				"y": 0.0681818551,
				"z": 0.9331214868,
				"element": "H" 
			},
			{
				"x": -4.6259931452,
				"y": -0.9785851913,
				"z": -0.3980100882,
				"element": "H" 
			},
			{
				"x": -1.3985099763,
				"y": 0.4346543456,
				"z": 0.9840814356,
				"element": "H" 
			},
			{
				"x": 0.6607096495,
				"y": -0.9034911773,
				"z": 1.2825165058,
				"element": "H" 
			},
			{
				"x": 0.8382711304,
				"y": -4.4803156646,
				"z": 0.2817342349,
				"element": "H" 
			},
			{
				"x": 5.070625078,
				"y": -3.5214631773,
				"z": -0.3773137462,
				"element": "H" 
			},
			{
				"x": 6.215649313,
				"y": -3.3821434866,
				"z": 0.967595185,
				"element": "H" 
			},
			{
				"x": 4.8247853745,
				"y": -2.2808875748,
				"z": 0.8725398477,
				"element": "H" 
			},
			{
				"x": 3.7486255465,
				"y": -4.711303067,
				"z": 3.5587627073,
				"element": "H" 
			},
			{
				"x": 5.405423522,
				"y": -4.1097054666,
				"z": 3.3787953225,
				"element": "H" 
			},
			{
				"x": 4.0356281253,
				"y": -2.989846488,
				"z": 3.2179922199,
				"element": "H" 
			},
			{
				"x": 4.7244075914,
				"y": -5.9674328157,
				"z": 0.163274388,
				"element": "H" 
			},
			{
				"x": 4.1807060549,
				"y": -6.4562083445,
				"z": 1.7804230034,
				"element": "H" 
			},
			{
				"x": 5.8380677922,
				"y": -5.8671563565,
				"z": 1.541826688,
				"element": "H" 
			},
			{
				"x": -1.3470488326,
				"y": -4.317916908,
				"z": -0.3898085427,
				"element": "H" 
			},
			{
				"x": -3.3950902637,
				"y": -2.9833581391,
				"z": -0.6760761056,
				"element": "H" 
			}
		],
		 "valence_orbital": [ 
			{
				"type": "occ",
				"energy": -0.27087,
				"method": "rhf"
			},
			{
				"type": "occ",
				"energy": -0.26686,
				"method": "rhf"
			},
			{
				"type": "occ",
				"energy": -0.25385,
				"method": "rhf"
			},
			{
				"type": "occ",
				"energy": -0.24715,
				"method": "rhf"
			},
			{
				"type": "occ",
				"energy": -0.2163,
				"method": "rhf"
			},
			{
				"type": "unocc",
				"energy": -0.04286,
				"method": "rhf"
			},
			{
				"type": "unocc",
				"energy": -0.01279,
				"method": "rhf"
			},
			{
				"type": "unocc",
				"energy": -0.00792,
				"method": "rhf"
			},
			{
				"type": "unocc",
				"energy": 0.00557,
				"method": "rhf"
			},
			{
				"type": "unocc",
				"energy": 0.01761,
				"method": "rhf"
			}
		],
		"cosmo_sigma_profile": { 
			"-0.025": 0.0,
			"-0.024": 0.0,
			"-0.023": 0.0,
			"-0.022": 0.0,
			"-0.021": 0.0,
			"-0.02": 0.0,
			"-0.019": 0.0,
			"-0.018": 0.0,
			"-0.017": 0.0,
			"-0.016": 0.0,
			"-0.015": 0.391699938273,
			"-0.014": 1.0214074856,
			"-0.013": 1.24140781427,
			"-0.012": 1.19569661915,
			"-0.011": 0.590508052763,
			"-0.01": 2.20278950905,
			"-0.009": 2.82977432272,
			"-0.008": 2.27807988711,
			"-0.007": 6.59056713305,
			"-0.006": 11.323111847,
			"-0.005": 17.4664275855,
			"-0.004": 36.2352856858,
			"-0.003": 41.6168422537,
			"-0.002": 38.0205490561,
			"-0.001": 42.6458283416,
			"0.0": 55.060187472,
			"0.001": 42.2108765773,
			"0.002": 24.0079048654,
			"0.003": 19.6893618514,
			"0.004": 14.8509120491,
			"0.005": 16.9571581014,
			"0.006": 9.11075649413,
			"0.007": 5.2445297201,
			"0.008": 4.8455104909,
			"0.009": 3.88278904455,
			"0.01": 4.84539511353,
			"0.011": 6.08469658375,
			"0.012": 7.22538653585,
			"0.013": 1.38895218366,
			"0.014": 1.47633193041,
			"0.015": 0.82108851398,
			"0.016": 0.100456510009,
			"0.017": 0.0,
			"0.018": 0.0,
			"0.019": 0.0,
			"0.02": 0.0,
			"0.021": 0.0,
			"0.022": 0.0,
			"0.023": 0.0,
			"0.024": 0.0,
			"0.025": 0.0
		}
	}
}
