{
	 "smiles": "CN1N=C(C)C2=C1N=C(C)C(CC(O)=O)=C2C", 
	 "Tm": 519.15, 
	 "num_atms": 32, 
	 "gaussian": { 
		 "optdone": 1, 
		 "sigma_profile": "yes", 
		 "theory": "DFT", 
		 "functional": "B3LYP", 
		 "basiset": "6-31G**", 
		 "properties": { 
			 "R2extent": 4686.6992, 
			 "electric_dipole_moment_norm": 4.2075366261, 
			 "electric_quadrupole_moment_norm": 22.0265939591, 
			 "total_energy": -781.038532184, 
			 "HOMO_LUMO_gap": 0.18153, 
			 "cosmo_polarized_energy": -20.98, 
			 "cosmo_cavitation_energy": 34.78, 
			 "cosmo_dispersion_energy": -24.69, 
			 "cosmo_repulsion_energy": 1.92, 
			 "cosmo_total_nonelectrostatic_energy": 12.01, 
			 "SMD_solvation_energy": 4.87 
		},
		"coords": [
			{
				"x": 3.4595442138,
				"y": -2.0764674536,
				"z": 2.1069815601,
				"element": "C" 
			},
			{
				"x": 2.1573079749,
				"y": -2.0405470168,
				"z": 1.4780115852,
				"element": "N" 
			},
			{
				"x": 1.3260393565,
				"y": -3.1180453729,
				"z": 1.5227597759,
				"element": "N" 
			},
			{
				"x": 0.2241409966,
				"y": -2.7981962501,
				"z": 0.8587558064,
				"element": "C" 
			},
			{
				"x": -0.8773186905,
				"y": -3.8077139696,
				"z": 0.7424719206,
				"element": "C" 
			},
			{
				"x": 0.3200159696,
				"y": -1.4555736362,
				"z": 0.3516723877,
				"element": "C" 
			},
			{
				"x": 1.5946378355,
				"y": -1.0129375294,
				"z": 0.7812412697,
				"element": "C" 
			},
			{
				"x": 2.155713495,
				"y": 0.1768680567,
				"z": 0.5494825359,
				"element": "N" 
			},
			{
				"x": 1.4085069115,
				"y": 1.0255121644,
				"z": -0.1588496797,
				"element": "C" 
			},
			{
				"x": 2.0510113197,
				"y": 2.3654068067,
				"z": -0.4391271612,
				"element": "C" 
			},
			{
				"x": 0.100303748,
				"y": 0.7124239978,
				"z": -0.6374150921,
				"element": "C" 
			},
			{
				"x": -0.672177991,
				"y": 1.7493310539,
				"z": -1.4201511415,
				"element": "C" 
			},
			{
				"x": -0.5818945874,
				"y": 1.5976592093,
				"z": -2.9446379322,
				"element": "C" 
			},
			{
				"x": -1.0375750202,
				"y": 2.6688211839,
				"z": -3.651147014,
				"element": "O" 
			},
			{
				"x": -0.1861588731,
				"y": 0.6188283739,
				"z": -3.5228348263,
				"element": "O" 
			},
			{
				"x": -0.4598529025,
				"y": -0.5507466328,
				"z": -0.3955365533,
				"element": "C" 
			},
			{
				"x": -1.8225814995,
				"y": -0.9217438237,
				"z": -0.9270564795,
				"element": "C" 
			},
			{
				"x": 3.3602992012,
				"y": -2.2501539455,
				"z": 3.1824913699,
				"element": "H" 
			},
			{
				"x": 4.0712577861,
				"y": -2.8728712816,
				"z": 1.6732828692,
				"element": "H" 
			},
			{
				"x": 3.9358523371,
				"y": -1.1109565749,
				"z": 1.9324364941,
				"element": "H" 
			},
			{
				"x": -1.8118837985,
				"y": -3.4465628852,
				"z": 1.1867786785,
				"element": "H" 
			},
			{
				"x": -0.5806705518,
				"y": -4.7195329462,
				"z": 1.265508429,
				"element": "H" 
			},
			{
				"x": -1.0857328709,
				"y": -4.064649584,
				"z": -0.3023290776,
				"element": "H" 
			},
			{
				"x": 3.065208154,
				"y": 2.3578470309,
				"z": -0.038454868,
				"element": "H" 
			},
			{
				"x": 1.504235673,
				"y": 3.1917680247,
				"z": 0.0323511378,
				"element": "H" 
			},
			{
				"x": 2.1030522227,
				"y": 2.5764474952,
				"z": -1.5133842696,
				"element": "H" 
			},
			{
				"x": -0.3489200132,
				"y": 2.7602814981,
				"z": -1.1510373218,
				"element": "H" 
			},
			{
				"x": -1.7413264625,
				"y": 1.7055333365,
				"z": -1.1724928509,
				"element": "H" 
			},
			{
				"x": -1.3110189268,
				"y": 3.3767754917,
				"z": -3.0507484803,
				"element": "H" 
			},
			{
				"x": -2.0954773929,
				"y": -1.9422974637,
				"z": -0.6616667362,
				"element": "H" 
			},
			{
				"x": -2.6023180351,
				"y": -0.2597236464,
				"z": -0.5303280285,
				"element": "H" 
			},
			{
				"x": -1.8400195794,
				"y": -0.8378837112,
				"z": -2.0181283073,
				"element": "H" 
			}
		],
		 "valence_orbital": [ 
			{
				"type": "occ",
				"energy": -0.28738,
				"method": "rhf"
			},
			{
				"type": "occ",
				"energy": -0.27648,
				"method": "rhf"
			},
			{
				"type": "occ",
				"energy": -0.26045,
				"method": "rhf"
			},
			{
				"type": "occ",
				"energy": -0.23572,
				"method": "rhf"
			},
			{
				"type": "occ",
				"energy": -0.21583,
				"method": "rhf"
			},
			{
				"type": "unocc",
				"energy": -0.0343,
				"method": "rhf"
			},
			{
				"type": "unocc",
				"energy": 0.00388,
				"method": "rhf"
			},
			{
				"type": "unocc",
				"energy": 0.00801,
				"method": "rhf"
			},
			{
				"type": "unocc",
				"energy": 0.04733,
				"method": "rhf"
			},
			{
				"type": "unocc",
				"energy": 0.05307,
				"method": "rhf"
			}
		],
		"cosmo_sigma_profile": { 
			"-0.025": 0.0,
			"-0.024": 0.0,
			"-0.023": 0.0,
			"-0.022": 0.0,
			"-0.021": 0.0,
			"-0.02": 0.0,
			"-0.019": 0.647881797379,
			"-0.018": 1.15012469259,
			"-0.017": 1.38014470332,
			"-0.016": 1.04835402559,
			"-0.015": 1.34958962656,
			"-0.014": 0.700106168391,
			"-0.013": 0.878745527614,
			"-0.012": 1.33757659715,
			"-0.011": 1.68984723812,
			"-0.01": 0.819561731758,
			"-0.009": 1.50292426916,
			"-0.008": 3.5071201781,
			"-0.007": 6.10823218169,
			"-0.006": 9.8978707945,
			"-0.005": 17.0908851258,
			"-0.004": 23.3058016175,
			"-0.003": 25.6271177815,
			"-0.002": 23.0211287078,
			"-0.001": 25.2654504284,
			"0.0": 20.1302555949,
			"0.001": 14.879585408,
			"0.002": 17.3442894622,
			"0.003": 12.8741849595,
			"0.004": 6.9687628409,
			"0.005": 6.81239460015,
			"0.006": 6.52093118755,
			"0.007": 5.28611929868,
			"0.008": 5.79656404139,
			"0.009": 5.9638280959,
			"0.01": 7.13297416842,
			"0.011": 8.06965641737,
			"0.012": 6.47060098299,
			"0.013": 2.61242424062,
			"0.014": 0.830096630593,
			"0.015": 0.789286215324,
			"0.016": 0.209519162729,
			"0.017": 0.0,
			"0.018": 0.0,
			"0.019": 0.0,
			"0.02": 0.0,
			"0.021": 0.0,
			"0.022": 0.0,
			"0.023": 0.0,
			"0.024": 0.0,
			"0.025": 0.0
		}
	}
}
