{
	 "smiles": "OC(=O)CCNC(=O)C1=NC=CN=C1", 
	 "Tm": 329.15, 
	 "num_atms": 23, 
	 "gaussian": { 
		 "optdone": 1, 
		 "sigma_profile": "yes", 
		 "theory": "DFT", 
		 "functional": "B3LYP", 
		 "basiset": "6-31G**", 
		 "properties": { 
			 "R2extent": 5372.7089, 
			 "electric_dipole_moment_norm": 4.84418669541, 
			 "electric_quadrupole_moment_norm": 8.25364257283, 
			 "total_energy": -700.201767907, 
			 "HOMO_LUMO_gap": 0.18303, 
			 "cosmo_polarized_energy": -26.98, 
			 "cosmo_cavitation_energy": 28.89, 
			 "cosmo_dispersion_energy": -20.84, 
			 "cosmo_repulsion_energy": 1.67, 
			 "cosmo_total_nonelectrostatic_energy": 9.71, 
			 "SMD_solvation_energy": 3.48 
		},
		"coords": [
			{
				"x": -0.8417773768,
				"y": 1.1300681443,
				"z": 3.9292857815,
				"element": "O" 
			},
			{
				"x": -1.0330464116,
				"y": 1.0192308737,
				"z": 2.5887087598,
				"element": "C" 
			},
			{
				"x": -2.0592026202,
				"y": 1.4093262176,
				"z": 2.0883694255,
				"element": "O" 
			},
			{
				"x": 0.099551923,
				"y": 0.3600630092,
				"z": 1.815581521,
				"element": "C" 
			},
			{
				"x": -0.0818697187,
				"y": 0.5249162703,
				"z": 0.3008448217,
				"element": "C" 
			},
			{
				"x": 0.9050605657,
				"y": -0.2158840114,
				"z": -0.4757370001,
				"element": "N" 
			},
			{
				"x": 2.2206852213,
				"y": 0.1604777612,
				"z": -0.4908089146,
				"element": "C" 
			},
			{
				"x": 2.6435997818,
				"y": 1.124004488,
				"z": 0.1335513214,
				"element": "O" 
			},
			{
				"x": 3.1181074772,
				"y": -0.6862111763,
				"z": -1.3677352196,
				"element": "C" 
			},
			{
				"x": 4.3629053904,
				"y": -0.9013940533,
				"z": -0.9168895663,
				"element": "N" 
			},
			{
				"x": 5.1619969151,
				"y": -1.6201438386,
				"z": -1.7056400978,
				"element": "C" 
			},
			{
				"x": 4.7357014548,
				"y": -2.1186081529,
				"z": -2.9419464694,
				"element": "C" 
			},
			{
				"x": 3.5033693115,
				"y": -1.8944951254,
				"z": -3.405643975,
				"element": "N" 
			},
			{
				"x": 2.6996690949,
				"y": -1.1769918868,
				"z": -2.6122175814,
				"element": "C" 
			},
			{
				"x": 0.0388910913,
				"y": 0.8079749353,
				"z": 4.1692752535,
				"element": "H" 
			},
			{
				"x": 1.0657856487,
				"y": 0.7852557986,
				"z": 2.1084170835,
				"element": "H" 
			},
			{
				"x": 0.1220769076,
				"y": -0.7051609472,
				"z": 2.0844907774,
				"element": "H" 
			},
			{
				"x": 0.0004405644,
				"y": 1.5843973008,
				"z": 0.0451378319,
				"element": "H" 
			},
			{
				"x": -1.078588233,
				"y": 0.1930174823,
				"z": 0.0053887406,
				"element": "H" 
			},
			{
				"x": 0.6460369583,
				"y": -1.110594936,
				"z": -0.8634244123,
				"element": "H" 
			},
			{
				"x": 6.1727659454,
				"y": -1.8062112299,
				"z": -1.3481773968,
				"element": "H" 
			},
			{
				"x": 5.403874881,
				"y": -2.7050189571,
				"z": -3.5690879919,
				"element": "H" 
			},
			{
				"x": 1.701565228,
				"y": -0.9655179666,
				"z": -2.9905426928,
				"element": "H" 
			}
		],
		 "valence_orbital": [ 
			{
				"type": "occ",
				"energy": -0.29227,
				"method": "rhf"
			},
			{
				"type": "occ",
				"energy": -0.28119,
				"method": "rhf"
			},
			{
				"type": "occ",
				"energy": -0.27389,
				"method": "rhf"
			},
			{
				"type": "occ",
				"energy": -0.26859,
				"method": "rhf"
			},
			{
				"type": "occ",
				"energy": -0.25431,
				"method": "rhf"
			},
			{
				"type": "unocc",
				"energy": -0.07128,
				"method": "rhf"
			},
			{
				"type": "unocc",
				"energy": -0.05157,
				"method": "rhf"
			},
			{
				"type": "unocc",
				"energy": 0.00613,
				"method": "rhf"
			},
			{
				"type": "unocc",
				"energy": 0.02839,
				"method": "rhf"
			},
			{
				"type": "unocc",
				"energy": 0.05478,
				"method": "rhf"
			}
		],
		"cosmo_sigma_profile": { 
			"-0.025": 0.0,
			"-0.024": 0.0,
			"-0.023": 0.0,
			"-0.022": 0.0,
			"-0.021": 0.0,
			"-0.02": 0.0,
			"-0.019": 0.670711469133,
			"-0.018": 1.13843568334,
			"-0.017": 1.01030586682,
			"-0.016": 1.53003649059,
			"-0.015": 1.37104561497,
			"-0.014": 2.96008981341,
			"-0.013": 1.92458321603,
			"-0.012": 3.29494692595,
			"-0.011": 2.2451824208,
			"-0.01": 3.02406594191,
			"-0.009": 3.98761733825,
			"-0.008": 10.0631802935,
			"-0.007": 13.2238849842,
			"-0.006": 12.3623256584,
			"-0.005": 10.7477867999,
			"-0.004": 11.4186432804,
			"-0.003": 14.0788264882,
			"-0.002": 15.7926678971,
			"-0.001": 15.1962622148,
			"0.0": 9.88390704627,
			"0.001": 9.24115767993,
			"0.002": 6.87967457479,
			"0.003": 5.35907863569,
			"0.004": 5.78450361239,
			"0.005": 5.69717871207,
			"0.006": 4.96902487264,
			"0.007": 5.94682259244,
			"0.008": 5.35150494098,
			"0.009": 6.07356449185,
			"0.01": 7.87051819382,
			"0.011": 8.3608020027,
			"0.012": 8.77879139726,
			"0.013": 6.95444737913,
			"0.014": 3.60572455129,
			"0.015": 2.38326707355,
			"0.016": 0.905576664392,
			"0.017": 0.0,
			"0.018": 0.0,
			"0.019": 0.0,
			"0.02": 0.0,
			"0.021": 0.0,
			"0.022": 0.0,
			"0.023": 0.0,
			"0.024": 0.0,
			"0.025": 0.0
		}
	}
}
