{
	 "smiles": "CCCCCCCCCCCCCCCCCCCCCCCCCCCCCCCC", 
	 "Tm": 342.95, 
	 "num_atms": 98, 
	 "gaussian": { 
		 "optdone": 1, 
		 "sigma_profile": "yes", 
		 "theory": "DFT", 
		 "functional": "B3LYP", 
		 "basiset": "6-31G**", 
		 "properties": { 
			 "R2extent": 43341.9638, 
			 "electric_dipole_moment_norm": 0.048526796721, 
			 "electric_quadrupole_moment_norm": 1.51156686587, 
			 "total_energy": -1259.27892164, 
			 "HOMO_LUMO_gap": 0.35759, 
			 "cosmo_polarized_energy": -1.95, 
			 "cosmo_cavitation_energy": 90.7, 
			 "cosmo_dispersion_energy": -57.76, 
			 "cosmo_repulsion_energy": 4.64, 
			 "cosmo_total_nonelectrostatic_energy": 37.58, 
			 "SMD_solvation_energy": 10.83 
		},
		"coords": [
			{
				"x": -0.6585124604,
				"y": -6.0816981588,
				"z": 6.8181937927,
				"element": "C" 
			},
			{
				"x": 0.5654450791,
				"y": -6.8497881216,
				"z": 6.3092528467,
				"element": "C" 
			},
			{
				"x": 0.7203360504,
				"y": -6.8025442479,
				"z": 4.7834590746,
				"element": "C" 
			},
			{
				"x": 1.9483872931,
				"y": -7.570587068,
				"z": 4.2746155021,
				"element": "C" 
			},
			{
				"x": 2.1814948214,
				"y": -7.487433604,
				"z": 2.7566197937,
				"element": "C" 
			},
			{
				"x": 1.1172437233,
				"y": -8.1976619365,
				"z": 1.905506233,
				"element": "C" 
			},
			{
				"x": 1.4099645014,
				"y": -8.1671763626,
				"z": 0.392674001,
				"element": "C" 
			},
			{
				"x": 1.2165648838,
				"y": -6.7982165787,
				"z": -0.3034808239,
				"element": "C" 
			},
			{
				"x": -0.133440366,
				"y": -6.6139830047,
				"z": -1.0244228987,
				"element": "C" 
			},
			{
				"x": -1.3951233587,
				"y": -6.6537104828,
				"z": -0.1405649109,
				"element": "C" 
			},
			{
				"x": -1.5662882837,
				"y": -5.4758706194,
				"z": 0.8490771,
				"element": "C" 
			},
			{
				"x": -2.4864801573,
				"y": -4.3381893081,
				"z": 0.3680685144,
				"element": "C" 
			},
			{
				"x": -1.9996682007,
				"y": -3.575822768,
				"z": -0.8723965291,
				"element": "C" 
			},
			{
				"x": -2.9390863708,
				"y": -2.4438480904,
				"z": -1.3293161105,
				"element": "C" 
			},
			{
				"x": -3.1194404771,
				"y": -1.2707978808,
				"z": -0.3490780096,
				"element": "C" 
			},
			{
				"x": -1.8424980688,
				"y": -0.4660256081,
				"z": -0.0698983007,
				"element": "C" 
			},
			{
				"x": -2.0769130268,
				"y": 0.7458709734,
				"z": 0.8421009612,
				"element": "C" 
			},
			{
				"x": -0.8017386244,
				"y": 1.5561014172,
				"z": 1.1138725051,
				"element": "C" 
			},
			{
				"x": -0.977488167,
				"y": 2.7219379401,
				"z": 2.1028602911,
				"element": "C" 
			},
			{
				"x": -1.9554081585,
				"y": 3.8306406871,
				"z": 1.6694160891,
				"element": "C" 
			},
			{
				"x": -1.6103018862,
				"y": 4.555990747,
				"z": 0.3569185822,
				"element": "C" 
			},
			{
				"x": -0.2755763981,
				"y": 5.3139723903,
				"z": 0.3728098412,
				"element": "C" 
			},
			{
				"x": -0.0186100001,
				"y": 6.1149392362,
				"z": -0.9112408889,
				"element": "C" 
			},
			{
				"x": 1.3303102622,
				"y": 6.8471112259,
				"z": -0.9028546622,
				"element": "C" 
			},
			{
				"x": 1.6031773728,
				"y": 7.7940210801,
				"z": -2.0857758184,
				"element": "C" 
			},
			{
				"x": 1.7162036652,
				"y": 7.1384230411,
				"z": -3.4804865949,
				"element": "C" 
			},
			{
				"x": 0.397748339,
				"y": 7.0353528859,
				"z": -4.2656586878,
				"element": "C" 
			},
			{
				"x": 0.5594432598,
				"y": 6.5196008414,
				"z": -5.706970052,
				"element": "C" 
			},
			{
				"x": 1.0818038613,
				"y": 5.0779296624,
				"z": -5.8538057065,
				"element": "C" 
			},
			{
				"x": 0.2086238475,
				"y": 3.9819356638,
				"z": -5.2150903591,
				"element": "C" 
			},
			{
				"x": -1.2287898248,
				"y": 3.8709809075,
				"z": -5.7535497582,
				"element": "C" 
			},
			{
				"x": -1.3205559601,
				"y": 3.5140290944,
				"z": -7.2419353671,
				"element": "C" 
			},
			{
				"x": -0.7403941098,
				"y": -6.1339627554,
				"z": 7.9089240201,
				"element": "H" 
			},
			{
				"x": -0.6060839652,
				"y": -5.0229475799,
				"z": 6.5392967219,
				"element": "H" 
			},
			{
				"x": -1.5850189951,
				"y": -6.4874126247,
				"z": 6.3957135473,
				"element": "H" 
			},
			{
				"x": 1.4730654882,
				"y": -6.4445168313,
				"z": 6.7773287578,
				"element": "H" 
			},
			{
				"x": 0.5008156204,
				"y": -7.8975720759,
				"z": 6.6333794055,
				"element": "H" 
			},
			{
				"x": 0.7902280917,
				"y": -5.753799231,
				"z": 4.459249423,
				"element": "H" 
			},
			{
				"x": -0.1921035367,
				"y": -7.2019324423,
				"z": 4.3210580189,
				"element": "H" 
			},
			{
				"x": 2.8395582299,
				"y": -7.1847773703,
				"z": 4.7884888345,
				"element": "H" 
			},
			{
				"x": 1.863659134,
				"y": -8.6263664472,
				"z": 4.5705563438,
				"element": "H" 
			},
			{
				"x": 2.2525419138,
				"y": -6.4306448012,
				"z": 2.4642398362,
				"element": "H" 
			},
			{
				"x": 3.160610057,
				"y": -7.929655266,
				"z": 2.5259247346,
				"element": "H" 
			},
			{
				"x": 0.1306430479,
				"y": -7.761579313,
				"z": 2.1010444581,
				"element": "H" 
			},
			{
				"x": 1.0562489969,
				"y": -9.2452393106,
				"z": 2.2323357849,
				"element": "H" 
			},
			{
				"x": 2.443885987,
				"y": -8.5058855688,
				"z": 0.2434801334,
				"element": "H" 
			},
			{
				"x": 0.7808145281,
				"y": -8.9135323547,
				"z": -0.1107739978,
				"element": "H" 
			},
			{
				"x": 2.0046063053,
				"y": -6.6650146853,
				"z": -1.0548786696,
				"element": "H" 
			},
			{
				"x": 1.3686475734,
				"y": -5.9871836432,
				"z": 0.4200001113,
				"element": "H" 
			},
			{
				"x": -0.2218583247,
				"y": -7.4017396813,
				"z": -1.7857001521,
				"element": "H" 
			},
			{
				"x": -0.10388001,
				"y": -5.6658635285,
				"z": -1.5753911478,
				"element": "H" 
			},
			{
				"x": -2.2772307182,
				"y": -6.69836023,
				"z": -0.7939080612,
				"element": "H" 
			},
			{
				"x": -1.4007855559,
				"y": -7.5995520373,
				"z": 0.414002311,
				"element": "H" 
			},
			{
				"x": -0.5845848459,
				"y": -5.0578908952,
				"z": 1.1091309854,
				"element": "H" 
			},
			{
				"x": -1.9794958007,
				"y": -5.8578707151,
				"z": 1.7909543793,
				"element": "H" 
			},
			{
				"x": -2.6186217739,
				"y": -3.6336457119,
				"z": 1.1992692866,
				"element": "H" 
			},
			{
				"x": -3.4849975966,
				"y": -4.7514448749,
				"z": 0.1623747061,
				"element": "H" 
			},
			{
				"x": -0.9944068399,
				"y": -3.1756395903,
				"z": -0.6825528032,
				"element": "H" 
			},
			{
				"x": -1.8894462181,
				"y": -4.2775256894,
				"z": -1.7082790808,
				"element": "H" 
			},
			{
				"x": -2.5689360499,
				"y": -2.046477092,
				"z": -2.2844518378,
				"element": "H" 
			},
			{
				"x": -3.9263646496,
				"y": -2.875117228,
				"z": -1.5453075642,
				"element": "H" 
			},
			{
				"x": -3.8789924075,
				"y": -0.5928458476,
				"z": -0.7619842636,
				"element": "H" 
			},
			{
				"x": -3.5335240079,
				"y": -1.6344765604,
				"z": 0.6008496988,
				"element": "H" 
			},
			{
				"x": -1.4147614986,
				"y": -0.124928527,
				"z": -1.0240866461,
				"element": "H" 
			},
			{
				"x": -1.0823982283,
				"y": -1.1138497923,
				"z": 0.3869788587,
				"element": "H" 
			},
			{
				"x": -2.4987376904,
				"y": 0.4039127809,
				"z": 1.7986038487,
				"element": "H" 
			},
			{
				"x": -2.841377053,
				"y": 1.3907458129,
				"z": 0.388467845,
				"element": "H" 
			},
			{
				"x": -0.032684201,
				"y": 0.8800535583,
				"z": 1.5120977111,
				"element": "H" 
			},
			{
				"x": -0.402024829,
				"y": 1.9302396234,
				"z": 0.1613778203,
				"element": "H" 
			},
			{
				"x": -1.3215871422,
				"y": 2.3180544556,
				"z": 3.0649787294,
				"element": "H" 
			},
			{
				"x": 0.0069793654,
				"y": 3.1639194827,
				"z": 2.3021043135,
				"element": "H" 
			},
			{
				"x": -2.9654254584,
				"y": 3.4105116021,
				"z": 1.5825053103,
				"element": "H" 
			},
			{
				"x": -2.0115330091,
				"y": 4.5732606439,
				"z": 2.4772298752,
				"element": "H" 
			},
			{
				"x": -2.417141642,
				"y": 5.267886893,
				"z": 0.1349552213,
				"element": "H" 
			},
			{
				"x": -1.6092868353,
				"y": 3.8407357436,
				"z": -0.4769672031,
				"element": "H" 
			},
			{
				"x": -0.2563397417,
				"y": 5.99626142,
				"z": 1.2352494977,
				"element": "H" 
			},
			{
				"x": 0.5534806434,
				"y": 4.6100935893,
				"z": 0.5261130572,
				"element": "H" 
			},
			{
				"x": -0.0682071602,
				"y": 5.4326790275,
				"z": -1.7698802517,
				"element": "H" 
			},
			{
				"x": -0.8300967894,
				"y": 6.8432233615,
				"z": -1.0529948167,
				"element": "H" 
			},
			{
				"x": 2.1395321038,
				"y": 6.1044304603,
				"z": -0.848589807,
				"element": "H" 
			},
			{
				"x": 1.4009364559,
				"y": 7.4330036287,
				"z": 0.0244169918,
				"element": "H" 
			},
			{
				"x": 0.830550619,
				"y": 8.5757837782,
				"z": -2.1133446128,
				"element": "H" 
			},
			{
				"x": 2.5444073298,
				"y": 8.3158490137,
				"z": -1.8712633917,
				"element": "H" 
			},
			{
				"x": 2.4184913894,
				"y": 7.7256252052,
				"z": -4.088089098,
				"element": "H" 
			},
			{
				"x": 2.1750084102,
				"y": 6.1460815682,
				"z": -3.3742349336,
				"element": "H" 
			},
			{
				"x": -0.0559405535,
				"y": 8.0350346598,
				"z": -4.3087796698,
				"element": "H" 
			},
			{
				"x": -0.3203988028,
				"y": 6.4086956811,
				"z": -3.7247637677,
				"element": "H" 
			},
			{
				"x": 1.2447972874,
				"y": 7.1894912124,
				"z": -6.2447108294,
				"element": "H" 
			},
			{
				"x": -0.4061845775,
				"y": 6.6094574736,
				"z": -6.221168778,
				"element": "H" 
			},
			{
				"x": 1.2065951907,
				"y": 4.8648264769,
				"z": -6.9231227151,
				"element": "H" 
			},
			{
				"x": 2.0891699008,
				"y": 5.0097712583,
				"z": -5.4240231602,
				"element": "H" 
			},
			{
				"x": 0.1655170932,
				"y": 4.1372452435,
				"z": -4.1290874812,
				"element": "H" 
			},
			{
				"x": 0.711750687,
				"y": 3.0153196398,
				"z": -5.3566792185,
				"element": "H" 
			},
			{
				"x": -1.7561033009,
				"y": 3.1048956713,
				"z": -5.1705516109,
				"element": "H" 
			},
			{
				"x": -1.7694158037,
				"y": 4.8083892798,
				"z": -5.5697447884,
				"element": "H" 
			},
			{
				"x": -2.3626073288,
				"y": 3.3853358611,
				"z": -7.5530245617,
				"element": "H" 
			},
			{
				"x": -0.7920021033,
				"y": 2.5776635736,
				"z": -7.4565591165,
				"element": "H" 
			},
			{
				"x": -0.8835894659,
				"y": 4.2916886682,
				"z": -7.8770061919,
				"element": "H" 
			}
		],
		 "valence_orbital": [ 
			{
				"type": "occ",
				"energy": -0.29572,
				"method": "rhf"
			},
			{
				"type": "occ",
				"energy": -0.29434,
				"method": "rhf"
			},
			{
				"type": "occ",
				"energy": -0.29281,
				"method": "rhf"
			},
			{
				"type": "occ",
				"energy": -0.2914,
				"method": "rhf"
			},
			{
				"type": "occ",
				"energy": -0.29017,
				"method": "rhf"
			},
			{
				"type": "unocc",
				"energy": 0.06742,
				"method": "rhf"
			},
			{
				"type": "unocc",
				"energy": 0.07597,
				"method": "rhf"
			},
			{
				"type": "unocc",
				"energy": 0.08121,
				"method": "rhf"
			},
			{
				"type": "unocc",
				"energy": 0.08988,
				"method": "rhf"
			},
			{
				"type": "unocc",
				"energy": 0.09369,
				"method": "rhf"
			}
		],
		"cosmo_sigma_profile": { 
			"-0.025": 0.0,
			"-0.024": 0.0,
			"-0.023": 0.0,
			"-0.022": 0.0,
			"-0.021": 0.0,
			"-0.02": 0.0,
			"-0.019": 0.0,
			"-0.018": 0.0,
			"-0.017": 0.0,
			"-0.016": 0.0,
			"-0.015": 0.0,
			"-0.014": 0.0,
			"-0.013": 0.0,
			"-0.012": 0.0,
			"-0.011": 0.0,
			"-0.01": 0.0,
			"-0.009": 0.0,
			"-0.008": 0.0,
			"-0.007": 0.0,
			"-0.006": 0.0,
			"-0.005": 0.0,
			"-0.004": 0.0,
			"-0.003": 2.90958042677,
			"-0.002": 68.6928571426,
			"-0.001": 179.659356194,
			"0.0": 195.274530444,
			"0.001": 163.963433184,
			"0.002": 77.7292085192,
			"0.003": 2.00954745489,
			"0.004": 0.0,
			"0.005": 0.0,
			"0.006": 0.0,
			"0.007": 0.0,
			"0.008": 0.0,
			"0.009": 0.0,
			"0.01": 0.0,
			"0.011": 0.0,
			"0.012": 0.0,
			"0.013": 0.0,
			"0.014": 0.0,
			"0.015": 0.0,
			"0.016": 0.0,
			"0.017": 0.0,
			"0.018": 0.0,
			"0.019": 0.0,
			"0.02": 0.0,
			"0.021": 0.0,
			"0.022": 0.0,
			"0.023": 0.0,
			"0.024": 0.0,
			"0.025": 0.0
		}
	}
}
