{
	 "smiles": "OC(=O)C1=CC(Br)=CS1", 
	 "Tm": 394.15, 
	 "num_atms": 12, 
	 "gaussian": { 
		 "optdone": 1, 
		 "sigma_profile": "yes", 
		 "theory": "DFT", 
		 "functional": "B3LYP", 
		 "basiset": "6-31G**", 
		 "properties": { 
			 "R2extent": 3139.427, 
			 "electric_dipole_moment_norm": 4.14854801828, 
			 "electric_quadrupole_moment_norm": 10.3277491192, 
			 "total_energy": -3312.36321841, 
			 "HOMO_LUMO_gap": 0.18471, 
			 "cosmo_polarized_energy": -12.8, 
			 "cosmo_cavitation_energy": 21.06, 
			 "cosmo_dispersion_energy": -16.7, 
			 "cosmo_repulsion_energy": 1.32, 
			 "cosmo_total_nonelectrostatic_energy": 5.69, 
			 "SMD_solvation_energy": 3.78 
		},
		"coords": [
			{
				"x": -0.6313367238,
				"y": 1.7039601651,
				"z": 2.2735700012,
				"element": "O" 
			},
			{
				"x": -0.1263194216,
				"y": 0.4459169554,
				"z": 2.1969964083,
				"element": "C" 
			},
			{
				"x": 0.3681971719,
				"y": -0.0700387685,
				"z": 3.1708627148,
				"element": "O" 
			},
			{
				"x": -0.2051315487,
				"y": -0.2573637137,
				"z": 0.8914976338,
				"element": "C" 
			},
			{
				"x": 0.2662804677,
				"y": -1.5292625465,
				"z": 0.6800906882,
				"element": "C" 
			},
			{
				"x": 0.0653790309,
				"y": -1.9633765708,
				"z": -0.6573561621,
				"element": "C" 
			},
			{
				"x": 0.6008135052,
				"y": -3.6705845667,
				"z": -1.279340611,
				"element": "Br" 
			},
			{
				"x": -0.5501650528,
				"y": -1.0376484646,
				"z": -1.4567371454,
				"element": "C" 
			},
			{
				"x": -0.9003663446,
				"y": 0.4052463942,
				"z": -0.5720134622,
				"element": "S" 
			},
			{
				"x": -0.9991935928,
				"y": 2.0064066658,
				"z": 1.4311421747,
				"element": "H" 
			},
			{
				"x": 0.7341564481,
				"y": -2.1151109392,
				"z": 1.4600462192,
				"element": "H" 
			},
			{
				"x": -0.8134139394,
				"y": -1.1220446105,
				"z": -2.5008584595,
				"element": "H" 
			}
		],
		 "valence_orbital": [ 
			{
				"type": "occ",
				"energy": -0.32767,
				"method": "rhf"
			},
			{
				"type": "occ",
				"energy": -0.30478,
				"method": "rhf"
			},
			{
				"type": "occ",
				"energy": -0.28745,
				"method": "rhf"
			},
			{
				"type": "occ",
				"energy": -0.27832,
				"method": "rhf"
			},
			{
				"type": "occ",
				"energy": -0.25895,
				"method": "rhf"
			},
			{
				"type": "unocc",
				"energy": -0.07424,
				"method": "rhf"
			},
			{
				"type": "unocc",
				"energy": -0.03036,
				"method": "rhf"
			},
			{
				"type": "unocc",
				"energy": 0.00363,
				"method": "rhf"
			},
			{
				"type": "unocc",
				"energy": 0.00966,
				"method": "rhf"
			},
			{
				"type": "unocc",
				"energy": 0.05067,
				"method": "rhf"
			}
		],
		"cosmo_sigma_profile": { 
			"-0.025": 0.0,
			"-0.024": 0.0,
			"-0.023": 0.0,
			"-0.022": 0.0,
			"-0.021": 0.0,
			"-0.02": 0.0,
			"-0.019": 0.40557018383,
			"-0.018": 0.720483942331,
			"-0.017": 0.741162682606,
			"-0.016": 1.52512371095,
			"-0.015": 0.478419352783,
			"-0.014": 1.08103646693,
			"-0.013": 0.670779227027,
			"-0.012": 1.24799569961,
			"-0.011": 2.01407275825,
			"-0.01": 2.84928853296,
			"-0.009": 3.54203863332,
			"-0.008": 4.40739127193,
			"-0.007": 4.36739526465,
			"-0.006": 3.81270036817,
			"-0.005": 6.12900922187,
			"-0.004": 6.38832481909,
			"-0.003": 8.96720721194,
			"-0.002": 8.80718651798,
			"-0.001": 13.125403648,
			"0.0": 19.4680423454,
			"0.001": 21.824963424,
			"0.002": 11.9305666076,
			"0.003": 10.6334851631,
			"0.004": 11.5970215269,
			"0.005": 3.24872775575,
			"0.006": 2.34672389425,
			"0.007": 1.73392282039,
			"0.008": 3.25380977099,
			"0.009": 3.37537801707,
			"0.01": 5.12410874215,
			"0.011": 5.35973780741,
			"0.012": 3.54233623537,
			"0.013": 0.669221101434,
			"0.014": 0.0,
			"0.015": 0.0,
			"0.016": 0.0,
			"0.017": 0.0,
			"0.018": 0.0,
			"0.019": 0.0,
			"0.02": 0.0,
			"0.021": 0.0,
			"0.022": 0.0,
			"0.023": 0.0,
			"0.024": 0.0,
			"0.025": 0.0
		}
	}
}
