{
	 "smiles": "OC1=CC=CC=C1C=C1SC(=S)N(CN2CCOCC2)C1=O", 
	 "Tm": 439.15, 
	 "num_atms": 38, 
	 "gaussian": { 
		 "optdone": 1, 
		 "sigma_profile": "yes", 
		 "theory": "DFT", 
		 "functional": "B3LYP", 
		 "basiset": "6-31G**", 
		 "properties": { 
			 "R2extent": 11653.1579, 
			 "electric_dipole_moment_norm": 6.12828431945, 
			 "electric_quadrupole_moment_norm": 28.3113970349, 
			 "total_energy": -1712.75410363, 
			 "HOMO_LUMO_gap": 0.11811, 
			 "cosmo_polarized_energy": -17.12, 
			 "cosmo_cavitation_energy": 43.53, 
			 "cosmo_dispersion_energy": -32.18, 
			 "cosmo_repulsion_energy": 2.35, 
			 "cosmo_total_nonelectrostatic_energy": 13.71, 
			 "SMD_solvation_energy": 5.0 
		},
		"coords": [
			{
				"x": -3.1316296014,
				"y": 5.0965805191,
				"z": 0.6503522366,
				"element": "O" 
			},
			{
				"x": -3.5339291929,
				"y": 3.8352897004,
				"z": 0.3198193506,
				"element": "C" 
			},
			{
				"x": -4.8877989634,
				"y": 3.4979789941,
				"z": 0.2827008806,
				"element": "C" 
			},
			{
				"x": -5.2770344416,
				"y": 2.2048141095,
				"z": -0.0573661674,
				"element": "C" 
			},
			{
				"x": -4.31158385,
				"y": 1.2419629319,
				"z": -0.3620553708,
				"element": "C" 
			},
			{
				"x": -2.962116858,
				"y": 1.5723711207,
				"z": -0.3263461873,
				"element": "C" 
			},
			{
				"x": -2.5285652391,
				"y": 2.8729845735,
				"z": 0.0137116372,
				"element": "C" 
			},
			{
				"x": -1.1504376328,
				"y": 3.329498659,
				"z": 0.0804536355,
				"element": "C" 
			},
			{
				"x": 0.0708084084,
				"y": 2.7585169286,
				"z": -0.1235539455,
				"element": "C" 
			},
			{
				"x": 1.5398634612,
				"y": 3.7524475888,
				"z": 0.0779965863,
				"element": "S" 
			},
			{
				"x": 2.6155304313,
				"y": 2.4169948475,
				"z": -0.3283152957,
				"element": "C" 
			},
			{
				"x": 4.2598009307,
				"y": 2.5749278368,
				"z": -0.3783021614,
				"element": "S" 
			},
			{
				"x": 1.8744072289,
				"y": 1.2911297061,
				"z": -0.5958929811,
				"element": "N" 
			},
			{
				"x": 2.5034592077,
				"y": -0.0176359576,
				"z": -0.9369438857,
				"element": "C" 
			},
			{
				"x": 2.9038293815,
				"y": -0.7672309043,
				"z": 0.2123663314,
				"element": "N" 
			},
			{
				"x": 1.9229681229,
				"y": -1.6835963276,
				"z": 0.8137804264,
				"element": "C" 
			},
			{
				"x": 2.4621486264,
				"y": -3.1125874117,
				"z": 0.862420073,
				"element": "C" 
			},
			{
				"x": 3.6838251221,
				"y": -3.2109371525,
				"z": 1.588667812,
				"element": "O" 
			},
			{
				"x": 4.517446618,
				"y": -2.0538931577,
				"z": 1.5030758376,
				"element": "C" 
			},
			{
				"x": 4.2867097216,
				"y": -1.2495079977,
				"z": 0.2297659052,
				"element": "C" 
			},
			{
				"x": 0.4731973812,
				"y": 1.386764597,
				"z": -0.5032025535,
				"element": "C" 
			},
			{
				"x": -0.248704839,
				"y": 0.4210528336,
				"z": -0.7209649823,
				"element": "O" 
			},
			{
				"x": -3.9069746466,
				"y": 5.6428611167,
				"z": 0.8320259526,
				"element": "H" 
			},
			{
				"x": -5.6341792919,
				"y": 4.2527748901,
				"z": 0.5212974812,
				"element": "H" 
			},
			{
				"x": -6.3332941608,
				"y": 1.9533327947,
				"z": -0.0831324301,
				"element": "H" 
			},
			{
				"x": -4.6109253418,
				"y": 0.2331785155,
				"z": -0.6274799627,
				"element": "H" 
			},
			{
				"x": -2.2117767815,
				"y": 0.8297611807,
				"z": -0.5604941209,
				"element": "H" 
			},
			{
				"x": -1.0916998193,
				"y": 4.3786855056,
				"z": 0.3598241889,
				"element": "H" 
			},
			{
				"x": 1.7514450978,
				"y": -0.5264467692,
				"z": -1.549871699,
				"element": "H" 
			},
			{
				"x": 3.3757924007,
				"y": 0.2221769562,
				"z": -1.5464350424,
				"element": "H" 
			},
			{
				"x": 1.6719681734,
				"y": -1.3617012542,
				"z": 1.8349907721,
				"element": "H" 
			},
			{
				"x": 0.992732337,
				"y": -1.657935305,
				"z": 0.2367464795,
				"element": "H" 
			},
			{
				"x": 1.7443305018,
				"y": -3.7713357576,
				"z": 1.3632524494,
				"element": "H" 
			},
			{
				"x": 2.5979604387,
				"y": -3.4901485224,
				"z": -0.1642066465,
				"element": "H" 
			},
			{
				"x": 4.3464965176,
				"y": -1.4027826712,
				"z": 2.3739040969,
				"element": "H" 
			},
			{
				"x": 5.5543622783,
				"y": -2.4040822907,
				"z": 1.5424477004,
				"element": "H" 
			},
			{
				"x": 4.9671488696,
				"y": -0.3912142626,
				"z": 0.2099262271,
				"element": "H" 
			},
			{
				"x": 4.5293194033,
				"y": -1.8852501638,
				"z": -0.6412626283,
				"element": "H" 
			}
		],
		 "valence_orbital": [ 
			{
				"type": "occ",
				"energy": -0.2457,
				"method": "rhf"
			},
			{
				"type": "occ",
				"energy": -0.24367,
				"method": "rhf"
			},
			{
				"type": "occ",
				"energy": -0.22665,
				"method": "rhf"
			},
			{
				"type": "occ",
				"energy": -0.2169,
				"method": "rhf"
			},
			{
				"type": "occ",
				"energy": -0.21183,
				"method": "rhf"
			},
			{
				"type": "unocc",
				"energy": -0.09372,
				"method": "rhf"
			},
			{
				"type": "unocc",
				"energy": -0.03771,
				"method": "rhf"
			},
			{
				"type": "unocc",
				"energy": -0.00482,
				"method": "rhf"
			},
			{
				"type": "unocc",
				"energy": -0.00037,
				"method": "rhf"
			},
			{
				"type": "unocc",
				"energy": 0.00778,
				"method": "rhf"
			}
		],
		"cosmo_sigma_profile": { 
			"-0.025": 0.0,
			"-0.024": 0.0,
			"-0.023": 0.0,
			"-0.022": 0.0,
			"-0.021": 0.0,
			"-0.02": 0.0,
			"-0.019": 0.144724184163,
			"-0.018": 1.34528185758,
			"-0.017": 0.959249807574,
			"-0.016": 1.16580388557,
			"-0.015": 1.17842337079,
			"-0.014": 1.56533140241,
			"-0.013": 0.500655242136,
			"-0.012": 0.51010612927,
			"-0.011": 1.31420263909,
			"-0.01": 0.973178965914,
			"-0.009": 1.50081392913,
			"-0.008": 2.12701503429,
			"-0.007": 4.71789098883,
			"-0.006": 9.77392817597,
			"-0.005": 19.8306128801,
			"-0.004": 30.5283250052,
			"-0.003": 36.8241084346,
			"-0.002": 27.6547119496,
			"-0.001": 22.983054407,
			"0.0": 24.2428454147,
			"0.001": 28.261390355,
			"0.002": 28.0657944983,
			"0.003": 27.173863081,
			"0.004": 20.029787803,
			"0.005": 13.1726471448,
			"0.006": 12.0054712343,
			"0.007": 12.4366490332,
			"0.008": 6.43177886804,
			"0.009": 5.50279596,
			"0.01": 2.77002172039,
			"0.011": 1.35234809847,
			"0.012": 1.07606795779,
			"0.013": 2.02787355906,
			"0.014": 0.996593591627,
			"0.015": 0.0,
			"0.016": 0.0,
			"0.017": 0.0,
			"0.018": 0.0,
			"0.019": 0.0,
			"0.02": 0.0,
			"0.021": 0.0,
			"0.022": 0.0,
			"0.023": 0.0,
			"0.024": 0.0,
			"0.025": 0.0
		}
	}
}
