{
	 "smiles": "OC(=O)C1=CC(=O)N(N1)C1=CC=C(C=C1)[N+]([O-])=O", 
	 "Tm": 499.15, 
	 "num_atms": 25, 
	 "gaussian": { 
		 "optdone": 1, 
		 "sigma_profile": "yes", 
		 "theory": "DFT", 
		 "functional": "B3LYP", 
		 "basiset": "6-31G**", 
		 "properties": { 
			 "R2extent": 6396.0538, 
			 "electric_dipole_moment_norm": 7.18670616207, 
			 "electric_quadrupole_moment_norm": 11.9093741171, 
			 "total_energy": -925.539105111, 
			 "HOMO_LUMO_gap": 0.14158, 
			 "cosmo_polarized_energy": -21.46, 
			 "cosmo_cavitation_energy": 31.99, 
			 "cosmo_dispersion_energy": -23.35, 
			 "cosmo_repulsion_energy": 1.77, 
			 "cosmo_total_nonelectrostatic_energy": 10.41, 
			 "SMD_solvation_energy": 9.88 
		},
		"coords": [
			{
				"x": 1.8678024423,
				"y": -3.1232214518,
				"z": -4.0057782428,
				"element": "O" 
			},
			{
				"x": 1.0516864833,
				"y": -3.0465566786,
				"z": -2.9411415246,
				"element": "C" 
			},
			{
				"x": 0.4509860416,
				"y": -3.9880073001,
				"z": -2.4638361377,
				"element": "O" 
			},
			{
				"x": 0.9752566676,
				"y": -1.6800551341,
				"z": -2.3825311058,
				"element": "C" 
			},
			{
				"x": 1.6893543274,
				"y": -0.5543828159,
				"z": -2.6327479925,
				"element": "C" 
			},
			{
				"x": 1.2910738264,
				"y": 0.4574092489,
				"z": -1.6575819316,
				"element": "C" 
			},
			{
				"x": 1.654212313,
				"y": 1.6125047538,
				"z": -1.5053088571,
				"element": "O" 
			},
			{
				"x": 0.3068633154,
				"y": -0.2044526272,
				"z": -0.8564584155,
				"element": "N" 
			},
			{
				"x": 0.0490939825,
				"y": -1.4746531259,
				"z": -1.3749150967,
				"element": "N" 
			},
			{
				"x": -0.5870373849,
				"y": 0.3661481527,
				"z": 0.0636626063,
				"element": "C" 
			},
			{
				"x": -1.8058301212,
				"y": -0.2749700096,
				"z": 0.3524390963,
				"element": "C" 
			},
			{
				"x": -2.67041426,
				"y": 0.268048685,
				"z": 1.2936910957,
				"element": "C" 
			},
			{
				"x": -2.3176495739,
				"y": 1.452734262,
				"z": 1.9366540032,
				"element": "C" 
			},
			{
				"x": -1.1191767091,
				"y": 2.1068623626,
				"z": 1.6518525959,
				"element": "C" 
			},
			{
				"x": -0.2458348361,
				"y": 1.5654005958,
				"z": 0.7183144351,
				"element": "C" 
			},
			{
				"x": -3.2300858606,
				"y": 2.0241831896,
				"z": 2.9310833716,
				"element": "N" 
			},
			{
				"x": -2.895498059,
				"y": 3.0762446515,
				"z": 3.4763367466,
				"element": "O" 
			},
			{
				"x": -4.2766826862,
				"y": 1.4166434065,
				"z": 3.1621956079,
				"element": "O" 
			},
			{
				"x": 1.8725634786,
				"y": -4.0526165839,
				"z": -4.2909850368,
				"element": "H" 
			},
			{
				"x": 2.4242885936,
				"y": -0.3973115981,
				"z": -3.4059383155,
				"element": "H" 
			},
			{
				"x": -0.0503950231,
				"y": -2.2168273171,
				"z": -0.6858411684,
				"element": "H" 
			},
			{
				"x": -2.0899087244,
				"y": -1.1753921395,
				"z": -0.1789131583,
				"element": "H" 
			},
			{
				"x": -3.6155205819,
				"y": -0.2048239601,
				"z": 1.5290287897,
				"element": "H" 
			},
			{
				"x": -0.8814523376,
				"y": 3.0277552112,
				"z": 2.1693717965,
				"element": "H" 
			},
			{
				"x": 0.6850046865,
				"y": 2.0581362222,
				"z": 0.4756468385,
				"element": "H" 
			}
		],
		 "valence_orbital": [ 
			{
				"type": "occ",
				"energy": -0.28841,
				"method": "rhf"
			},
			{
				"type": "occ",
				"energy": -0.28549,
				"method": "rhf"
			},
			{
				"type": "occ",
				"energy": -0.27991,
				"method": "rhf"
			},
			{
				"type": "occ",
				"energy": -0.27227,
				"method": "rhf"
			},
			{
				"type": "occ",
				"energy": -0.2405,
				"method": "rhf"
			},
			{
				"type": "unocc",
				"energy": -0.09892,
				"method": "rhf"
			},
			{
				"type": "unocc",
				"energy": -0.07878,
				"method": "rhf"
			},
			{
				"type": "unocc",
				"energy": -0.03225,
				"method": "rhf"
			},
			{
				"type": "unocc",
				"energy": -0.0035,
				"method": "rhf"
			},
			{
				"type": "unocc",
				"energy": 0.03016,
				"method": "rhf"
			}
		],
		"cosmo_sigma_profile": { 
			"-0.025": 0.0,
			"-0.024": 0.0,
			"-0.023": 0.0,
			"-0.022": 0.0,
			"-0.021": 0.0,
			"-0.02": 0.329830849217,
			"-0.019": 0.973017698259,
			"-0.018": 1.11436339064,
			"-0.017": 0.855611335523,
			"-0.016": 1.53231254329,
			"-0.015": 2.51390698398,
			"-0.014": 1.7543968014,
			"-0.013": 1.87731531268,
			"-0.012": 2.55555713686,
			"-0.011": 1.84898862886,
			"-0.01": 1.26764978423,
			"-0.009": 3.98668201106,
			"-0.008": 6.41845519935,
			"-0.007": 8.03554242361,
			"-0.006": 9.86800744896,
			"-0.005": 10.7963891386,
			"-0.004": 13.3359979988,
			"-0.003": 13.144626631,
			"-0.002": 17.6169297718,
			"-0.001": 23.6920446419,
			"0.0": 23.3787178348,
			"0.001": 20.0296821825,
			"0.002": 10.4642426472,
			"0.003": 8.17321729627,
			"0.004": 6.95609100651,
			"0.005": 6.38375276255,
			"0.006": 7.30021852265,
			"0.007": 11.5451615779,
			"0.008": 11.6901211993,
			"0.009": 8.19520054014,
			"0.01": 8.79976622424,
			"0.011": 4.40426884148,
			"0.012": 3.54295935027,
			"0.013": 2.87857661612,
			"0.014": 0.506704306139,
			"0.015": 0.0,
			"0.016": 0.0,
			"0.017": 0.0,
			"0.018": 0.0,
			"0.019": 0.0,
			"0.02": 0.0,
			"0.021": 0.0,
			"0.022": 0.0,
			"0.023": 0.0,
			"0.024": 0.0,
			"0.025": 0.0
		}
	}
}
