{
	 "smiles": "COC(=O)C1=CC(Cl)=CC=C1NC(C)=O", 
	 "Tm": 402.65, 
	 "num_atms": 25, 
	 "gaussian": { 
		 "optdone": 1, 
		 "sigma_profile": "yes", 
		 "theory": "DFT", 
		 "functional": "B3LYP", 
		 "basiset": "6-31G**", 
		 "properties": { 
			 "R2extent": 4289.6571, 
			 "electric_dipole_moment_norm": 3.1021769856, 
			 "electric_quadrupole_moment_norm": 25.4700712341, 
			 "total_energy": -1127.72549707, 
			 "HOMO_LUMO_gap": 0.17064, 
			 "cosmo_polarized_energy": -14.93, 
			 "cosmo_cavitation_energy": 31.24, 
			 "cosmo_dispersion_energy": -22.38, 
			 "cosmo_repulsion_energy": 1.78, 
			 "cosmo_total_nonelectrostatic_energy": 10.64, 
			 "SMD_solvation_energy": 7.47 
		},
		"coords": [
			{
				"x": 3.4380009511,
				"y": 0.2990657254,
				"z": 0.4812856831,
				"element": "C" 
			},
			{
				"x": 2.1897418333,
				"y": -0.3152653812,
				"z": 0.8402180868,
				"element": "O" 
			},
			{
				"x": 1.1240312309,
				"y": 0.069727522,
				"z": 0.0990534823,
				"element": "C" 
			},
			{
				"x": 1.2188564273,
				"y": 0.8790002381,
				"z": -0.8016256379,
				"element": "O" 
			},
			{
				"x": -0.1355918548,
				"y": -0.5967975974,
				"z": 0.5562208483,
				"element": "C" 
			},
			{
				"x": -0.0591874731,
				"y": -1.5206418547,
				"z": 1.6139834176,
				"element": "C" 
			},
			{
				"x": -1.2093498735,
				"y": -2.0671962495,
				"z": 2.1648409856,
				"element": "C" 
			},
			{
				"x": -1.0790749043,
				"y": -3.2157308266,
				"z": 3.4855684561,
				"element": "Cl" 
			},
			{
				"x": -2.4688954679,
				"y": -1.7044639848,
				"z": 1.6863758764,
				"element": "C" 
			},
			{
				"x": -2.5504295641,
				"y": -0.8151559455,
				"z": 0.6227902491,
				"element": "C" 
			},
			{
				"x": -1.4063397195,
				"y": -0.2594988574,
				"z": 0.0251372184,
				"element": "C" 
			},
			{
				"x": -1.617441535,
				"y": 0.6494240914,
				"z": -1.032469661,
				"element": "N" 
			},
			{
				"x": -1.1995657524,
				"y": 0.6270844722,
				"z": -2.3602566117,
				"element": "C" 
			},
			{
				"x": -0.3811673775,
				"y": -0.5507543137,
				"z": -2.845517533,
				"element": "C" 
			},
			{
				"x": -1.5566410838,
				"y": 1.5233261644,
				"z": -3.106190483,
				"element": "O" 
			},
			{
				"x": 4.177196275,
				"y": -0.1239703849,
				"z": 1.1610270725,
				"element": "H" 
			},
			{
				"x": 3.6940457689,
				"y": 0.0726040594,
				"z": -0.5565987064,
				"element": "H" 
			},
			{
				"x": 3.3802615561,
				"y": 1.3835207609,
				"z": 0.601012001,
				"element": "H" 
			},
			{
				"x": 0.9103888434,
				"y": -1.7844352725,
				"z": 2.0138785308,
				"element": "H" 
			},
			{
				"x": -3.3658278494,
				"y": -2.1266899506,
				"z": 2.1258029698,
				"element": "H" 
			},
			{
				"x": -3.5222656797,
				"y": -0.5495435596,
				"z": 0.2178254269,
				"element": "H" 
			},
			{
				"x": -2.3061428599,
				"y": 1.3754028132,
				"z": -0.8753424561,
				"element": "H" 
			},
			{
				"x": 0.6448680127,
				"y": -0.2165821091,
				"z": -3.0114791247,
				"element": "H" 
			},
			{
				"x": -0.3690668747,
				"y": -1.3958051011,
				"z": -2.1547686598,
				"element": "H" 
			},
			{
				"x": -0.797803029,
				"y": -0.8672244585,
				"z": -3.8042714309,
				"element": "H" 
			}
		],
		 "valence_orbital": [ 
			{
				"type": "occ",
				"energy": -0.29316,
				"method": "rhf"
			},
			{
				"type": "occ",
				"energy": -0.28366,
				"method": "rhf"
			},
			{
				"type": "occ",
				"energy": -0.27992,
				"method": "rhf"
			},
			{
				"type": "occ",
				"energy": -0.2491,
				"method": "rhf"
			},
			{
				"type": "occ",
				"energy": -0.23698,
				"method": "rhf"
			},
			{
				"type": "unocc",
				"energy": -0.06634,
				"method": "rhf"
			},
			{
				"type": "unocc",
				"energy": -0.03431,
				"method": "rhf"
			},
			{
				"type": "unocc",
				"energy": 0.01808,
				"method": "rhf"
			},
			{
				"type": "unocc",
				"energy": 0.03167,
				"method": "rhf"
			},
			{
				"type": "unocc",
				"energy": 0.03781,
				"method": "rhf"
			}
		],
		"cosmo_sigma_profile": { 
			"-0.025": 0.0,
			"-0.024": 0.0,
			"-0.023": 0.0,
			"-0.022": 0.0,
			"-0.021": 0.0,
			"-0.02": 0.0,
			"-0.019": 0.0,
			"-0.018": 0.0,
			"-0.017": 0.0,
			"-0.016": 0.0,
			"-0.015": 0.155043942182,
			"-0.014": 1.04919257907,
			"-0.013": 0.921825585286,
			"-0.012": 1.27164289154,
			"-0.011": 0.9285176348,
			"-0.01": 1.24348227939,
			"-0.009": 1.38649778481,
			"-0.008": 4.48972363199,
			"-0.007": 6.17585284494,
			"-0.006": 10.5285307697,
			"-0.005": 14.8706362689,
			"-0.004": 20.2779014197,
			"-0.003": 23.5178633001,
			"-0.002": 21.0662864153,
			"-0.001": 21.8705820338,
			"0.0": 20.8555322561,
			"0.001": 22.9327365602,
			"0.002": 13.6900933651,
			"0.003": 10.7404675357,
			"0.004": 14.3764905484,
			"0.005": 6.70718861581,
			"0.006": 2.07087687438,
			"0.007": 2.5921565589,
			"0.008": 3.80236855991,
			"0.009": 3.38807816752,
			"0.01": 3.54226375734,
			"0.011": 4.29704502552,
			"0.012": 3.16616204853,
			"0.013": 5.17169968105,
			"0.014": 3.65855320528,
			"0.015": 0.461358212779,
			"0.016": 0.0,
			"0.017": 0.0,
			"0.018": 0.0,
			"0.019": 0.0,
			"0.02": 0.0,
			"0.021": 0.0,
			"0.022": 0.0,
			"0.023": 0.0,
			"0.024": 0.0,
			"0.025": 0.0
		}
	}
}
