{
	 "smiles": "OC1=CC=C(C=C1)C(=O)CCCCl", 
	 "Tm": 386.15, 
	 "num_atms": 24, 
	 "gaussian": { 
		 "optdone": 1, 
		 "sigma_profile": "yes", 
		 "theory": "DFT", 
		 "functional": "B3LYP", 
		 "basiset": "6-31G**", 
		 "properties": { 
			 "R2extent": 4644.2682, 
			 "electric_dipole_moment_norm": 4.9159875783, 
			 "electric_quadrupole_moment_norm": 15.066703377, 
			 "total_energy": -998.340310659, 
			 "HOMO_LUMO_gap": 0.18765, 
			 "cosmo_polarized_energy": -16.72, 
			 "cosmo_cavitation_energy": 29.55, 
			 "cosmo_dispersion_energy": -21.39, 
			 "cosmo_repulsion_energy": 1.71, 
			 "cosmo_total_nonelectrostatic_energy": 9.87, 
			 "SMD_solvation_energy": 5.31 
		},
		"coords": [
			{
				"x": -3.3837505241,
				"y": -3.6057473268,
				"z": 0.4076202258,
				"element": "O" 
			},
			{
				"x": -2.6616182935,
				"y": -2.4529955001,
				"z": 0.3946632138,
				"element": "C" 
			},
			{
				"x": -1.3237529902,
				"y": -2.3942948707,
				"z": 0.8040353204,
				"element": "C" 
			},
			{
				"x": -0.6416312761,
				"y": -1.1811291601,
				"z": 0.7700259198,
				"element": "C" 
			},
			{
				"x": -1.2741146754,
				"y": -0.0102672379,
				"z": 0.3259315501,
				"element": "C" 
			},
			{
				"x": -2.6178724828,
				"y": -0.0920320444,
				"z": -0.0859284324,
				"element": "C" 
			},
			{
				"x": -3.3095488281,
				"y": -1.2917797257,
				"z": -0.0526617255,
				"element": "C" 
			},
			{
				"x": -0.5964946092,
				"y": 1.3171395209,
				"z": 0.2526896828,
				"element": "C" 
			},
			{
				"x": -1.1812072228,
				"y": 2.2901484934,
				"z": -0.2019863712,
				"element": "O" 
			},
			{
				"x": 0.8631337756,
				"y": 1.4248688052,
				"z": 0.7129507474,
				"element": "C" 
			},
			{
				"x": 1.3554836118,
				"y": 2.8746932183,
				"z": 0.8519174204,
				"element": "C" 
			},
			{
				"x": 1.4914154173,
				"y": 3.3613530143,
				"z": 2.2893185853,
				"element": "C" 
			},
			{
				"x": -0.079397245,
				"y": 3.3027879198,
				"z": 3.2109071176,
				"element": "Cl" 
			},
			{
				"x": -2.8323191771,
				"y": -4.3274456206,
				"z": 0.7376630483,
				"element": "H" 
			},
			{
				"x": -0.8205721214,
				"y": -3.2949530939,
				"z": 1.1493114193,
				"element": "H" 
			},
			{
				"x": 0.3944868685,
				"y": -1.1615881306,
				"z": 1.0909536148,
				"element": "H" 
			},
			{
				"x": -3.0996278777,
				"y": 0.8167151775,
				"z": -0.4304390782,
				"element": "H" 
			},
			{
				"x": -4.3463185911,
				"y": -1.3588919661,
				"z": -0.3651298836,
				"element": "H" 
			},
			{
				"x": 0.9904805469,
				"y": 0.875862066,
				"z": 1.6522931884,
				"element": "H" 
			},
			{
				"x": 1.464340184,
				"y": 0.886426895,
				"z": -0.0322334904,
				"element": "H" 
			},
			{
				"x": 0.6757811987,
				"y": 3.5285618285,
				"z": 0.2985127456,
				"element": "H" 
			},
			{
				"x": 2.3505350833,
				"y": 2.9800223651,
				"z": 0.4010132015,
				"element": "H" 
			},
			{
				"x": 2.190589291,
				"y": 2.7480999612,
				"z": 2.8623960616,
				"element": "H" 
			},
			{
				"x": 1.8212799374,
				"y": 4.400745412,
				"z": 2.3254759183,
				"element": "H" 
			}
		],
		 "valence_orbital": [ 
			{
				"type": "occ",
				"energy": -0.28865,
				"method": "rhf"
			},
			{
				"type": "occ",
				"energy": -0.28695,
				"method": "rhf"
			},
			{
				"type": "occ",
				"energy": -0.2633,
				"method": "rhf"
			},
			{
				"type": "occ",
				"energy": -0.24655,
				"method": "rhf"
			},
			{
				"type": "occ",
				"energy": -0.23379,
				"method": "rhf"
			},
			{
				"type": "unocc",
				"energy": -0.04614,
				"method": "rhf"
			},
			{
				"type": "unocc",
				"energy": -0.01168,
				"method": "rhf"
			},
			{
				"type": "unocc",
				"energy": 0.03304,
				"method": "rhf"
			},
			{
				"type": "unocc",
				"energy": 0.04893,
				"method": "rhf"
			},
			{
				"type": "unocc",
				"energy": 0.0598,
				"method": "rhf"
			}
		],
		"cosmo_sigma_profile": { 
			"-0.025": 0.0,
			"-0.024": 0.0,
			"-0.023": 0.0,
			"-0.022": 0.0,
			"-0.021": 0.0,
			"-0.02": 0.0,
			"-0.019": 0.0301432466299,
			"-0.018": 0.967823481455,
			"-0.017": 1.31158804017,
			"-0.016": 1.05912712657,
			"-0.015": 0.986123460951,
			"-0.014": 1.06797028864,
			"-0.013": 0.83491932588,
			"-0.012": 1.26532441931,
			"-0.011": 1.03265191405,
			"-0.01": 0.802976958111,
			"-0.009": 1.37642280652,
			"-0.008": 1.27393591321,
			"-0.007": 5.96099174356,
			"-0.006": 16.9648474183,
			"-0.005": 21.2409978102,
			"-0.004": 18.889730163,
			"-0.003": 13.9919770552,
			"-0.002": 12.0389675913,
			"-0.001": 10.494199499,
			"0.0": 9.81642744248,
			"0.001": 12.6731642472,
			"0.002": 16.4491964582,
			"0.003": 17.5947440642,
			"0.004": 18.4447275294,
			"0.005": 8.92761615995,
			"0.006": 10.6014659671,
			"0.007": 9.1084569522,
			"0.008": 5.08421493201,
			"0.009": 3.58648136292,
			"0.01": 4.02860117602,
			"0.011": 3.71331072828,
			"0.012": 3.69213393663,
			"0.013": 0.90961142327,
			"0.014": 0.0,
			"0.015": 0.0,
			"0.016": 0.0,
			"0.017": 0.0,
			"0.018": 0.0,
			"0.019": 0.0,
			"0.02": 0.0,
			"0.021": 0.0,
			"0.022": 0.0,
			"0.023": 0.0,
			"0.024": 0.0,
			"0.025": 0.0
		}
	}
}
