{
	 "smiles": "CC1=NC2=CC(=O)NN2C(C)=C1CC(O)=O", 
	 "Tm": 559.15, 
	 "num_atms": 27, 
	 "gaussian": { 
		 "optdone": 1, 
		 "sigma_profile": "yes", 
		 "theory": "DFT", 
		 "functional": "B3LYP", 
		 "basiset": "6-31G**", 
		 "properties": { 
			 "R2extent": 4290.6413, 
			 "electric_dipole_moment_norm": 7.96022428955, 
			 "electric_quadrupole_moment_norm": 17.4935017649, 
			 "total_energy": -777.607494536, 
			 "HOMO_LUMO_gap": 0.14193, 
			 "cosmo_polarized_energy": -27.21, 
			 "cosmo_cavitation_energy": 31.18, 
			 "cosmo_dispersion_energy": -22.39, 
			 "cosmo_repulsion_energy": 1.74, 
			 "cosmo_total_nonelectrostatic_energy": 10.53, 
			 "SMD_solvation_energy": 5.87 
		},
		"coords": [
			{
				"x": 2.1675269774,
				"y": -2.0677465339,
				"z": -0.019568695,
				"element": "C" 
			},
			{
				"x": 0.9299039185,
				"y": -1.2842277224,
				"z": -0.3759467059,
				"element": "C" 
			},
			{
				"x": 0.6108690643,
				"y": -1.2653428636,
				"z": -1.6560798493,
				"element": "N" 
			},
			{
				"x": -0.5136093939,
				"y": -0.6127663681,
				"z": -2.0338890162,
				"element": "C" 
			},
			{
				"x": -1.0644906485,
				"y": -0.3766762349,
				"z": -3.2730788851,
				"element": "C" 
			},
			{
				"x": -2.2862474797,
				"y": 0.3592704275,
				"z": -3.106281641,
				"element": "C" 
			},
			{
				"x": -3.1756259369,
				"y": 0.7179760263,
				"z": -3.8602679941,
				"element": "O" 
			},
			{
				"x": -2.3499121021,
				"y": 0.6743592627,
				"z": -1.6779531426,
				"element": "N" 
			},
			{
				"x": -1.3280569333,
				"y": -0.0271756648,
				"z": -1.0493442984,
				"element": "N" 
			},
			{
				"x": -0.9873870588,
				"y": 0.0439803827,
				"z": 0.2613552612,
				"element": "C" 
			},
			{
				"x": -1.9348134557,
				"y": 0.8042706973,
				"z": 1.1411982248,
				"element": "C" 
			},
			{
				"x": 0.1728063788,
				"y": -0.6118944846,
				"z": 0.6473073222,
				"element": "C" 
			},
			{
				"x": 0.6220756003,
				"y": -0.6432876498,
				"z": 2.0863033385,
				"element": "C" 
			},
			{
				"x": 0.1814572242,
				"y": -1.8854170814,
				"z": 2.8517851056,
				"element": "C" 
			},
			{
				"x": 0.36534571,
				"y": -1.7195984054,
				"z": 4.183026173,
				"element": "O" 
			},
			{
				"x": -0.2541018924,
				"y": -2.9056224002,
				"z": 2.3692338697,
				"element": "O" 
			},
			{
				"x": 2.569492375,
				"y": -2.5239011664,
				"z": -0.9241622473,
				"element": "H" 
			},
			{
				"x": 2.94006814,
				"y": -1.425189649,
				"z": 0.4201081741,
				"element": "H" 
			},
			{
				"x": 1.9320151476,
				"y": -2.8521708309,
				"z": 0.7068930851,
				"element": "H" 
			},
			{
				"x": -0.6766402327,
				"y": -0.7323404545,
				"z": -4.2131647025,
				"element": "H" 
			},
			{
				"x": -3.2662279959,
				"y": 0.5589105556,
				"z": -1.2555997535,
				"element": "H" 
			},
			{
				"x": -1.5273878786,
				"y": 0.9680441508,
				"z": 2.1369167162,
				"element": "H" 
			},
			{
				"x": -2.1651706064,
				"y": 1.7747500959,
				"z": 0.6887917654,
				"element": "H" 
			},
			{
				"x": -2.8805497205,
				"y": 0.2599705056,
				"z": 1.255340896,
				"element": "H" 
			},
			{
				"x": 1.7160945043,
				"y": -0.6168443433,
				"z": 2.1514359214,
				"element": "H" 
			},
			{
				"x": 0.2901934999,
				"y": 0.2323550893,
				"z": 2.6494416519,
				"element": "H" 
			},
			{
				"x": 0.0997727951,
				"y": -2.5553853405,
				"z": 4.6029994258,
				"element": "H" 
			}
		],
		 "valence_orbital": [ 
			{
				"type": "occ",
				"energy": -0.29251,
				"method": "rhf"
			},
			{
				"type": "occ",
				"energy": -0.27519,
				"method": "rhf"
			},
			{
				"type": "occ",
				"energy": -0.26806,
				"method": "rhf"
			},
			{
				"type": "occ",
				"energy": -0.24037,
				"method": "rhf"
			},
			{
				"type": "occ",
				"energy": -0.19714,
				"method": "rhf"
			},
			{
				"type": "unocc",
				"energy": -0.05521,
				"method": "rhf"
			},
			{
				"type": "unocc",
				"energy": -0.019,
				"method": "rhf"
			},
			{
				"type": "unocc",
				"energy": -0.01014,
				"method": "rhf"
			},
			{
				"type": "unocc",
				"energy": 0.05263,
				"method": "rhf"
			},
			{
				"type": "unocc",
				"energy": 0.0641,
				"method": "rhf"
			}
		],
		"cosmo_sigma_profile": { 
			"-0.025": 0.0,
			"-0.024": 0.0,
			"-0.023": 0.0,
			"-0.022": 0.0,
			"-0.021": 0.0,
			"-0.02": 0.0,
			"-0.019": 0.0490610807996,
			"-0.018": 0.816168326076,
			"-0.017": 0.807839245515,
			"-0.016": 1.55404260803,
			"-0.015": 2.23414556851,
			"-0.014": 2.3101640468,
			"-0.013": 2.26297821157,
			"-0.012": 1.56700770142,
			"-0.011": 1.79273553671,
			"-0.01": 2.98174373978,
			"-0.009": 3.83627025664,
			"-0.008": 7.85478839683,
			"-0.007": 10.7179171768,
			"-0.006": 12.9326108434,
			"-0.005": 14.0689279815,
			"-0.004": 18.7467824516,
			"-0.003": 20.5997610145,
			"-0.002": 15.5228310053,
			"-0.001": 15.545326664,
			"0.0": 10.9709538522,
			"0.001": 8.04174046618,
			"0.002": 7.56534321218,
			"0.003": 9.07249079231,
			"0.004": 11.4584879142,
			"0.005": 8.60662385979,
			"0.006": 5.9215699515,
			"0.007": 6.58369055827,
			"0.008": 6.01488146247,
			"0.009": 5.71467098061,
			"0.01": 4.01558532829,
			"0.011": 7.05514066111,
			"0.012": 5.21674870756,
			"0.013": 2.98070439223,
			"0.014": 7.71883898237,
			"0.015": 4.26976892064,
			"0.016": 0.349564882355,
			"0.017": 0.0,
			"0.018": 0.0,
			"0.019": 0.0,
			"0.02": 0.0,
			"0.021": 0.0,
			"0.022": 0.0,
			"0.023": 0.0,
			"0.024": 0.0,
			"0.025": 0.0
		}
	}
}
