{
	 "smiles": "CC(C)C1=NC2=C(C(C)=NN2C(C)(C)C)C(=C1)C(O)=O", 
	 "Tm": 395.15, 
	 "num_atms": 41, 
	 "gaussian": { 
		 "optdone": 1, 
		 "sigma_profile": "yes", 
		 "theory": "DFT", 
		 "functional": "B3LYP", 
		 "basiset": "6-31G**", 
		 "properties": { 
			 "R2extent": 7036.3678, 
			 "electric_dipole_moment_norm": 3.91042578372, 
			 "electric_quadrupole_moment_norm": 22.1085046238, 
			 "total_energy": -898.988661917, 
			 "HOMO_LUMO_gap": 0.16102, 
			 "cosmo_polarized_energy": -13.06, 
			 "cosmo_cavitation_energy": 42.21, 
			 "cosmo_dispersion_energy": -28.32, 
			 "cosmo_repulsion_energy": 2.18, 
			 "cosmo_total_nonelectrostatic_energy": 16.07, 
			 "SMD_solvation_energy": 7.37 
		},
		"coords": [
			{
				"x": -3.0586226667,
				"y": -1.3291996648,
				"z": 3.0880356114,
				"element": "C" 
			},
			{
				"x": -1.6001073189,
				"y": -1.7043443331,
				"z": 3.4056825701,
				"element": "C" 
			},
			{
				"x": -1.2827058164,
				"y": -3.1394580655,
				"z": 2.9463785952,
				"element": "C" 
			},
			{
				"x": -0.6306694817,
				"y": -0.7099657065,
				"z": 2.7852068212,
				"element": "C" 
			},
			{
				"x": -0.6572551975,
				"y": -0.5842472159,
				"z": 1.4556420241,
				"element": "N" 
			},
			{
				"x": 0.1989104974,
				"y": 0.3005191398,
				"z": 0.9318455996,
				"element": "C" 
			},
			{
				"x": 1.14715594,
				"y": 1.0947445687,
				"z": 1.6415153113,
				"element": "C" 
			},
			{
				"x": 1.7637188422,
				"y": 1.8996358193,
				"z": 0.6242300846,
				"element": "C" 
			},
			{
				"x": 2.8025941505,
				"y": 2.9809405621,
				"z": 0.7064516479,
				"element": "C" 
			},
			{
				"x": 1.246946756,
				"y": 1.6021959783,
				"z": -0.559449294,
				"element": "N" 
			},
			{
				"x": 0.3116819254,
				"y": 0.6322993712,
				"z": -0.3923436981,
				"element": "N" 
			},
			{
				"x": -0.4770500299,
				"y": 0.1153619722,
				"z": -1.549435997,
				"element": "C" 
			},
			{
				"x": -1.9611540684,
				"y": 0.4653474312,
				"z": -1.330039629,
				"element": "C" 
			},
			{
				"x": -0.280752085,
				"y": -1.4099276966,
				"z": -1.6352231694,
				"element": "C" 
			},
			{
				"x": 0.0332906992,
				"y": 0.7798672466,
				"z": -2.8346630901,
				"element": "C" 
			},
			{
				"x": 1.1728369378,
				"y": 0.9212014883,
				"z": 3.0452753093,
				"element": "C" 
			},
			{
				"x": 0.2583972952,
				"y": 0.0317940142,
				"z": 3.5974988188,
				"element": "C" 
			},
			{
				"x": 2.1115516378,
				"y": 1.6111460683,
				"z": 3.9952473739,
				"element": "C" 
			},
			{
				"x": 3.3590646372,
				"y": 1.8665401584,
				"z": 3.5255688708,
				"element": "O" 
			},
			{
				"x": 1.8137755738,
				"y": 1.9024275451,
				"z": 5.1281500784,
				"element": "O" 
			},
			{
				"x": -3.3006491449,
				"y": -0.3249563319,
				"z": 3.4503374406,
				"element": "H" 
			},
			{
				"x": -3.2322412956,
				"y": -1.3512448257,
				"z": 2.0081901299,
				"element": "H" 
			},
			{
				"x": -3.7473262107,
				"y": -2.036392578,
				"z": 3.5618748383,
				"element": "H" 
			},
			{
				"x": -1.4631882555,
				"y": -1.6554228103,
				"z": 4.492981172,
				"element": "H" 
			},
			{
				"x": -0.2605030896,
				"y": -3.4277696723,
				"z": 3.2122329644,
				"element": "H" 
			},
			{
				"x": -1.3871523004,
				"y": -3.2242236562,
				"z": 1.8605276996,
				"element": "H" 
			},
			{
				"x": -1.9690623014,
				"y": -3.8525531189,
				"z": 3.4147875497,
				"element": "H" 
			},
			{
				"x": 2.8101413073,
				"y": 3.5280161297,
				"z": -0.2384384233,
				"element": "H" 
			},
			{
				"x": 2.5984611061,
				"y": 3.6837123413,
				"z": 1.5188985019,
				"element": "H" 
			},
			{
				"x": 3.817569967,
				"y": 2.5909247874,
				"z": 0.8587856687,
				"element": "H" 
			},
			{
				"x": -2.5543266094,
				"y": 0.1015997088,
				"z": -2.1749584646,
				"element": "H" 
			},
			{
				"x": -2.3412994459,
				"y": 0.004938132,
				"z": -0.4160042539,
				"element": "H" 
			},
			{
				"x": -2.0938304584,
				"y": 1.5494423547,
				"z": -1.260416608,
				"element": "H" 
			},
			{
				"x": 0.7753847731,
				"y": -1.6537946495,
				"z": -1.7869636254,
				"element": "H" 
			},
			{
				"x": -0.8479659858,
				"y": -1.8053618689,
				"z": -2.48363987,
				"element": "H" 
			},
			{
				"x": -0.6286149486,
				"y": -1.902066809,
				"z": -0.7252050674,
				"element": "H" 
			},
			{
				"x": -0.5437342434,
				"y": 0.3855507005,
				"z": -3.6765073698,
				"element": "H" 
			},
			{
				"x": -0.0886118068,
				"y": 1.8643492438,
				"z": -2.8034989102,
				"element": "H" 
			},
			{
				"x": 1.0906852346,
				"y": 0.5653960425,
				"z": -3.004854937,
				"element": "H" 
			},
			{
				"x": 0.2451377232,
				"y": -0.0963064994,
				"z": 4.6739220908,
				"element": "H" 
			},
			{
				"x": 3.464717757,
				"y": 1.4819846981,
				"z": 2.6439756348,
				"element": "H" 
			}
		],
		 "valence_orbital": [ 
			{
				"type": "occ",
				"energy": -0.29892,
				"method": "rhf"
			},
			{
				"type": "occ",
				"energy": -0.28246,
				"method": "rhf"
			},
			{
				"type": "occ",
				"energy": -0.26859,
				"method": "rhf"
			},
			{
				"type": "occ",
				"energy": -0.25374,
				"method": "rhf"
			},
			{
				"type": "occ",
				"energy": -0.23352,
				"method": "rhf"
			},
			{
				"type": "unocc",
				"energy": -0.0725,
				"method": "rhf"
			},
			{
				"type": "unocc",
				"energy": -0.00607,
				"method": "rhf"
			},
			{
				"type": "unocc",
				"energy": 0.02459,
				"method": "rhf"
			},
			{
				"type": "unocc",
				"energy": 0.04422,
				"method": "rhf"
			},
			{
				"type": "unocc",
				"energy": 0.06676,
				"method": "rhf"
			}
		],
		"cosmo_sigma_profile": { 
			"-0.025": 0.0,
			"-0.024": 0.0,
			"-0.023": 0.0,
			"-0.022": 0.0,
			"-0.021": 0.0,
			"-0.02": 0.0,
			"-0.019": 0.0,
			"-0.018": 0.233944253697,
			"-0.017": 0.602447756876,
			"-0.016": 0.802872041376,
			"-0.015": 1.03707712156,
			"-0.014": 0.719889902629,
			"-0.013": 0.856279788553,
			"-0.012": 1.06505425726,
			"-0.011": 1.13290979902,
			"-0.01": 0.5833476382,
			"-0.009": 0.985231613116,
			"-0.008": 1.31222498326,
			"-0.007": 1.95981596391,
			"-0.006": 5.16333648096,
			"-0.005": 7.67308547233,
			"-0.004": 19.3231592834,
			"-0.003": 34.1857595728,
			"-0.002": 38.4710275644,
			"-0.001": 41.8267493718,
			"0.0": 53.2127154562,
			"0.001": 43.8289752938,
			"0.002": 16.2834908124,
			"0.003": 9.46722750759,
			"0.004": 7.89259151265,
			"0.005": 5.83670312461,
			"0.006": 5.94172860444,
			"0.007": 3.79354053317,
			"0.008": 5.20044729055,
			"0.009": 5.06459252127,
			"0.01": 5.82122435703,
			"0.011": 6.03222300295,
			"0.012": 4.00998698719,
			"0.013": 0.485550620956,
			"0.014": 0.0,
			"0.015": 0.0,
			"0.016": 0.0,
			"0.017": 0.0,
			"0.018": 0.0,
			"0.019": 0.0,
			"0.02": 0.0,
			"0.021": 0.0,
			"0.022": 0.0,
			"0.023": 0.0,
			"0.024": 0.0,
			"0.025": 0.0
		}
	}
}
