{
	 "smiles": "OCC1=CN(C2=C1C=CC=C2)S(=O)(=O)C1=CC=CC=C1", 
	 "Tm": 363.65, 
	 "num_atms": 33, 
	 "gaussian": { 
		 "optdone": 1, 
		 "sigma_profile": "yes", 
		 "theory": "DFT", 
		 "functional": "B3LYP", 
		 "basiset": "6-31G**", 
		 "properties": { 
			 "R2extent": 5865.6354, 
			 "electric_dipole_moment_norm": 5.36949547723, 
			 "electric_quadrupole_moment_norm": 25.3362036566, 
			 "total_energy": -1257.95520356, 
			 "HOMO_LUMO_gap": 0.16526, 
			 "cosmo_polarized_energy": -16.33, 
			 "cosmo_cavitation_energy": 38.26, 
			 "cosmo_dispersion_energy": -27.15, 
			 "cosmo_repulsion_energy": 2.05, 
			 "cosmo_total_nonelectrostatic_energy": 13.16, 
			 "SMD_solvation_energy": 5.62 
		},
		"coords": [
			{
				"x": -3.8936993103,
				"y": 1.2942579877,
				"z": -0.9484030148,
				"element": "O" 
			},
			{
				"x": -3.5805654778,
				"y": 0.8965041128,
				"z": 0.3788399009,
				"element": "C" 
			},
			{
				"x": -2.4188038981,
				"y": -0.0450231379,
				"z": 0.3370266768,
				"element": "C" 
			},
			{
				"x": -1.8796447401,
				"y": -0.6005220145,
				"z": -0.7809595517,
				"element": "C" 
			},
			{
				"x": -0.8441428537,
				"y": -1.4820008077,
				"z": -0.4210594705,
				"element": "N" 
			},
			{
				"x": -0.6957641217,
				"y": -1.4462779975,
				"z": 0.978855172,
				"element": "C" 
			},
			{
				"x": -1.6861829536,
				"y": -0.5599973659,
				"z": 1.4737051746,
				"element": "C" 
			},
			{
				"x": -1.792738437,
				"y": -0.3555124286,
				"z": 2.8579137335,
				"element": "C" 
			},
			{
				"x": -0.9136534169,
				"y": -1.0204326924,
				"z": 3.7059873299,
				"element": "C" 
			},
			{
				"x": 0.0593158448,
				"y": -1.8965563239,
				"z": 3.1934048078,
				"element": "C" 
			},
			{
				"x": 0.1801380045,
				"y": -2.129767349,
				"z": 1.8250823805,
				"element": "C" 
			},
			{
				"x": 0.3272208746,
				"y": -2.0056201667,
				"z": -1.5529954668,
				"element": "S" 
			},
			{
				"x": -0.3737555938,
				"y": -2.0454897244,
				"z": -2.8333897079,
				"element": "O" 
			},
			{
				"x": 0.9639828896,
				"y": -3.1824804766,
				"z": -0.9672715038,
				"element": "O" 
			},
			{
				"x": 1.5286154403,
				"y": -0.6766771668,
				"z": -1.6063507559,
				"element": "C" 
			},
			{
				"x": 1.3135733144,
				"y": 0.3944575439,
				"z": -2.4774726374,
				"element": "C" 
			},
			{
				"x": 2.2410496644,
				"y": 1.43504111,
				"z": -2.5043271435,
				"element": "C" 
			},
			{
				"x": 3.3630512239,
				"y": 1.3967883514,
				"z": -1.6723554007,
				"element": "C" 
			},
			{
				"x": 3.5682297145,
				"y": 0.315001427,
				"z": -0.8131507446,
				"element": "C" 
			},
			{
				"x": 2.6490424508,
				"y": -0.733573279,
				"z": -0.7745925165,
				"element": "C" 
			},
			{
				"x": -4.7217645195,
				"y": 1.7880227673,
				"z": -0.9258809847,
				"element": "H" 
			},
			{
				"x": -4.4407974856,
				"y": 0.402038775,
				"z": 0.8617042531,
				"element": "H" 
			},
			{
				"x": -3.3240779892,
				"y": 1.7655335999,
				"z": 1.0093862344,
				"element": "H" 
			},
			{
				"x": -2.1549860446,
				"y": -0.4829880843,
				"z": -1.8160805869,
				"element": "H" 
			},
			{
				"x": -2.5498293461,
				"y": 0.3108598597,
				"z": 3.2616911257,
				"element": "H" 
			},
			{
				"x": -0.9835715901,
				"y": -0.8693570606,
				"z": 4.7791717881,
				"element": "H" 
			},
			{
				"x": 0.7253396556,
				"y": -2.4139466783,
				"z": 3.8775217506,
				"element": "H" 
			},
			{
				"x": 0.9066468063,
				"y": -2.8297711814,
				"z": 1.4318218719,
				"element": "H" 
			},
			{
				"x": 0.4472660315,
				"y": 0.3984497658,
				"z": -3.1294139629,
				"element": "H" 
			},
			{
				"x": 2.090049816,
				"y": 2.2720240933,
				"z": -3.1790261088,
				"element": "H" 
			},
			{
				"x": 4.0828997238,
				"y": 2.2094844446,
				"z": -1.698941271,
				"element": "H" 
			},
			{
				"x": 4.4463295268,
				"y": 0.2831241236,
				"z": -0.175579037,
				"element": "H" 
			},
			{
				"x": 2.8008267962,
				"y": -1.5894940265,
				"z": -0.1274623345,
				"element": "H" 
			}
		],
		 "valence_orbital": [ 
			{
				"type": "occ",
				"energy": -0.27821,
				"method": "rhf"
			},
			{
				"type": "occ",
				"energy": -0.27469,
				"method": "rhf"
			},
			{
				"type": "occ",
				"energy": -0.26748,
				"method": "rhf"
			},
			{
				"type": "occ",
				"energy": -0.23189,
				"method": "rhf"
			},
			{
				"type": "occ",
				"energy": -0.2127,
				"method": "rhf"
			},
			{
				"type": "unocc",
				"energy": -0.04744,
				"method": "rhf"
			},
			{
				"type": "unocc",
				"energy": -0.02468,
				"method": "rhf"
			},
			{
				"type": "unocc",
				"energy": -0.01573,
				"method": "rhf"
			},
			{
				"type": "unocc",
				"energy": 0.00866,
				"method": "rhf"
			},
			{
				"type": "unocc",
				"energy": 0.04671,
				"method": "rhf"
			}
		],
		"cosmo_sigma_profile": { 
			"-0.025": 0.0,
			"-0.024": 0.0,
			"-0.023": 0.0,
			"-0.022": 0.0,
			"-0.021": 0.0,
			"-0.02": 0.0,
			"-0.019": 0.0,
			"-0.018": 0.0,
			"-0.017": 0.0727472772866,
			"-0.016": 0.856540971845,
			"-0.015": 1.08144546055,
			"-0.014": 1.41798304804,
			"-0.013": 0.484366469693,
			"-0.012": 0.983324206364,
			"-0.011": 0.782518959439,
			"-0.01": 0.619683987817,
			"-0.009": 0.834685599407,
			"-0.008": 2.03098356402,
			"-0.007": 10.488967305,
			"-0.006": 19.1117871568,
			"-0.005": 25.9379457358,
			"-0.004": 24.9851506667,
			"-0.003": 20.8418366739,
			"-0.002": 14.9886560846,
			"-0.001": 14.4015750503,
			"0.0": 21.1656003163,
			"0.001": 22.1164954683,
			"0.002": 26.3416498424,
			"0.003": 26.9531022886,
			"0.004": 16.5146723835,
			"0.005": 13.9793146383,
			"0.006": 7.4277743496,
			"0.007": 5.46703228568,
			"0.008": 4.13794113443,
			"0.009": 7.52615145225,
			"0.01": 9.58569429492,
			"0.011": 3.4262022217,
			"0.012": 0.97455502091,
			"0.013": 0.708103591424,
			"0.014": 0.206286459198,
			"0.015": 0.0,
			"0.016": 0.0,
			"0.017": 0.0,
			"0.018": 0.0,
			"0.019": 0.0,
			"0.02": 0.0,
			"0.021": 0.0,
			"0.022": 0.0,
			"0.023": 0.0,
			"0.024": 0.0,
			"0.025": 0.0
		}
	}
}
