{
	 "smiles": "CC1=C(C(C)=C(C=C1N(=O)=O)N(=O)=O)N(=O)=O", 
	 "Tm": 457.15, 
	 "num_atms": 24, 
	 "gaussian": { 
		 "optdone": 1, 
		 "sigma_profile": "yes", 
		 "theory": "DFT", 
		 "functional": "B3LYP", 
		 "basiset": "6-31G**", 
		 "properties": { 
			 "R2extent": 4396.6157, 
			 "electric_dipole_moment_norm": 1.66303877586, 
			 "electric_quadrupole_moment_norm": 10.7933267545, 
			 "total_energy": -924.350050813, 
			 "HOMO_LUMO_gap": 0.17895, 
			 "cosmo_polarized_energy": -13.55, 
			 "cosmo_cavitation_energy": 30.22, 
			 "cosmo_dispersion_energy": -21.25, 
			 "cosmo_repulsion_energy": 1.61, 
			 "cosmo_total_nonelectrostatic_energy": 10.59, 
			 "SMD_solvation_energy": 11.97 
		},
		"coords": [
			{
				"x": 0.7487026445,
				"y": -3.6049953085,
				"z": -0.3538102203,
				"element": "C" 
			},
			{
				"x": 0.5406093635,
				"y": -2.1111143235,
				"z": -0.3802103191,
				"element": "C" 
			},
			{
				"x": 1.6334042731,
				"y": -1.2338568872,
				"z": -0.3289152731,
				"element": "C" 
			},
			{
				"x": 1.5873008739,
				"y": 0.1667212233,
				"z": -0.3806890681,
				"element": "C" 
			},
			{
				"x": 2.8503766733,
				"y": 0.9845285468,
				"z": -0.2733200867,
				"element": "C" 
			},
			{
				"x": 0.2926882733,
				"y": 0.7022096718,
				"z": -0.5096826553,
				"element": "C" 
			},
			{
				"x": -0.8410556664,
				"y": -0.096866965,
				"z": -0.5531503965,
				"element": "C" 
			},
			{
				"x": -0.710967884,
				"y": -1.4766369443,
				"z": -0.4819766905,
				"element": "C" 
			},
			{
				"x": -1.9729994322,
				"y": -2.2434552934,
				"z": -0.5085142696,
				"element": "N" 
			},
			{
				"x": -1.975635232,
				"y": -3.3608899936,
				"z": 0.0041538324,
				"element": "O" 
			},
			{
				"x": -2.9468522609,
				"y": -1.700363062,
				"z": -1.0230370574,
				"element": "O" 
			},
			{
				"x": 0.0586096282,
				"y": 2.1564567752,
				"z": -0.6185146482,
				"element": "N" 
			},
			{
				"x": 0.9755458186,
				"y": 2.854161238,
				"z": -1.0473853654,
				"element": "O" 
			},
			{
				"x": -1.0509625844,
				"y": 2.5703398636,
				"z": -0.2935103621,
				"element": "O" 
			},
			{
				"x": 2.975603532,
				"y": -1.8506274885,
				"z": -0.2073412572,
				"element": "N" 
			},
			{
				"x": 3.2821759486,
				"y": -2.298654427,
				"z": 0.8921464961,
				"element": "O" 
			},
			{
				"x": 3.6728341688,
				"y": -1.8639815411,
				"z": -1.2159420038,
				"element": "O" 
			},
			{
				"x": 0.0242765224,
				"y": -4.1135927172,
				"z": -0.988358803,
				"element": "H" 
			},
			{
				"x": 1.7535331626,
				"y": -3.8664386667,
				"z": -0.6872822361,
				"element": "H" 
			},
			{
				"x": 0.6083638315,
				"y": -3.9907675751,
				"z": 0.6600758548,
				"element": "H" 
			},
			{
				"x": 3.6409140991,
				"y": 0.4207800999,
				"z": 0.2231632002,
				"element": "H" 
			},
			{
				"x": 2.6754400502,
				"y": 1.9062760714,
				"z": 0.2797340594,
				"element": "H" 
			},
			{
				"x": 3.2024389385,
				"y": 1.2732697122,
				"z": -1.2678952972,
				"element": "H" 
			},
			{
				"x": -1.8203447421,
				"y": 0.3530979909,
				"z": -0.6419374333,
				"element": "H" 
			}
		],
		 "valence_orbital": [ 
			{
				"type": "occ",
				"energy": -0.33043,
				"method": "rhf"
			},
			{
				"type": "occ",
				"energy": -0.32673,
				"method": "rhf"
			},
			{
				"type": "occ",
				"energy": -0.31708,
				"method": "rhf"
			},
			{
				"type": "occ",
				"energy": -0.30471,
				"method": "rhf"
			},
			{
				"type": "occ",
				"energy": -0.29937,
				"method": "rhf"
			},
			{
				"type": "unocc",
				"energy": -0.12042,
				"method": "rhf"
			},
			{
				"type": "unocc",
				"energy": -0.11108,
				"method": "rhf"
			},
			{
				"type": "unocc",
				"energy": -0.10383,
				"method": "rhf"
			},
			{
				"type": "unocc",
				"energy": -0.0512,
				"method": "rhf"
			},
			{
				"type": "unocc",
				"energy": -0.03379,
				"method": "rhf"
			}
		],
		"cosmo_sigma_profile": { 
			"-0.025": 0.0,
			"-0.024": 0.0,
			"-0.023": 0.0,
			"-0.022": 0.0,
			"-0.021": 0.0,
			"-0.02": 0.0,
			"-0.019": 0.0,
			"-0.018": 0.0,
			"-0.017": 0.0,
			"-0.016": 0.0,
			"-0.015": 0.0,
			"-0.014": 0.0,
			"-0.013": 0.0,
			"-0.012": 0.0,
			"-0.011": 0.531436640246,
			"-0.01": 1.55170431534,
			"-0.009": 2.53562468107,
			"-0.008": 4.31054991814,
			"-0.007": 12.3382809386,
			"-0.006": 18.0205761047,
			"-0.005": 21.3984324016,
			"-0.004": 24.4905652261,
			"-0.003": 20.4686267199,
			"-0.002": 14.7503133539,
			"-0.001": 8.37791835837,
			"0.0": 8.2019823826,
			"0.001": 7.2847620384,
			"0.002": 7.88639716901,
			"0.003": 8.29843908732,
			"0.004": 8.13725460093,
			"0.005": 10.7337069101,
			"0.006": 23.6479743529,
			"0.007": 20.7300275118,
			"0.008": 12.3351400608,
			"0.009": 5.69920639018,
			"0.01": 0.278287112935,
			"0.011": 0.0,
			"0.012": 0.0,
			"0.013": 0.0,
			"0.014": 0.0,
			"0.015": 0.0,
			"0.016": 0.0,
			"0.017": 0.0,
			"0.018": 0.0,
			"0.019": 0.0,
			"0.02": 0.0,
			"0.021": 0.0,
			"0.022": 0.0,
			"0.023": 0.0,
			"0.024": 0.0,
			"0.025": 0.0
		}
	}
}
