{
	 "smiles": "CC1CC(CC(C)(C)N1C)OC(=O)C(O)C1=CC=CC=C1", 
	 "Tm": 386.15, 
	 "num_atms": 46, 
	 "gaussian": { 
		 "optdone": 1, 
		 "sigma_profile": "yes", 
		 "theory": "DFT", 
		 "functional": "B3LYP", 
		 "basiset": "6-31G**", 
		 "properties": { 
			 "R2extent": 9286.3932, 
			 "electric_dipole_moment_norm": 3.90019763217, 
			 "electric_quadrupole_moment_norm": 14.0431204413, 
			 "total_energy": -943.307317849, 
			 "HOMO_LUMO_gap": 0.19539, 
			 "cosmo_polarized_energy": -10.55, 
			 "cosmo_cavitation_energy": 45.28, 
			 "cosmo_dispersion_energy": -30.7, 
			 "cosmo_repulsion_energy": 2.35, 
			 "cosmo_total_nonelectrostatic_energy": 16.93, 
			 "SMD_solvation_energy": 6.68 
		},
		"coords": [
			{
				"x": 0.1510929962,
				"y": -2.720162744,
				"z": -1.2567643469,
				"element": "C" 
			},
			{
				"x": -0.2702955029,
				"y": -1.2990352898,
				"z": -0.8690465956,
				"element": "C" 
			},
			{
				"x": 0.6908715647,
				"y": -0.7759154253,
				"z": 0.2254334888,
				"element": "C" 
			},
			{
				"x": 0.0384242143,
				"y": 0.3272628902,
				"z": 1.0626132759,
				"element": "C" 
			},
			{
				"x": -0.9599801693,
				"y": 1.0969264928,
				"z": 0.2185504517,
				"element": "C" 
			},
			{
				"x": -2.1497549458,
				"y": 0.1909951023,
				"z": -0.2064038808,
				"element": "C" 
			},
			{
				"x": -2.7554206902,
				"y": 0.7823411922,
				"z": -1.5002380479,
				"element": "C" 
			},
			{
				"x": -3.2093872663,
				"y": 0.2101202331,
				"z": 0.9146141402,
				"element": "C" 
			},
			{
				"x": -1.6572629071,
				"y": -1.2149835843,
				"z": -0.3657241931,
				"element": "N" 
			},
			{
				"x": -2.6018166734,
				"y": -2.0870428946,
				"z": -1.0576700226,
				"element": "C" 
			},
			{
				"x": 1.0415302293,
				"y": 1.2892353909,
				"z": 1.5200863017,
				"element": "O" 
			},
			{
				"x": 1.752425301,
				"y": 0.9644026578,
				"z": 2.6000592475,
				"element": "C" 
			},
			{
				"x": 1.610091099,
				"y": -0.0488795796,
				"z": 3.2603556019,
				"element": "O" 
			},
			{
				"x": 2.8063486269,
				"y": 2.021210123,
				"z": 2.966877303,
				"element": "C" 
			},
			{
				"x": 3.3004610212,
				"y": 1.7218479927,
				"z": 4.2488235424,
				"element": "O" 
			},
			{
				"x": 3.9085780914,
				"y": 2.0639124662,
				"z": 1.9061879716,
				"element": "C" 
			},
			{
				"x": 5.1327224016,
				"y": 1.4335555089,
				"z": 2.1450833621,
				"element": "C" 
			},
			{
				"x": 6.1380131804,
				"y": 1.4582938395,
				"z": 1.1765190004,
				"element": "C" 
			},
			{
				"x": 5.9288245827,
				"y": 2.1136319915,
				"z": -0.0377125774,
				"element": "C" 
			},
			{
				"x": 4.7083289419,
				"y": 2.749558678,
				"z": -0.2780484084,
				"element": "C" 
			},
			{
				"x": 3.7038037708,
				"y": 2.725925496,
				"z": 0.6892550551,
				"element": "C" 
			},
			{
				"x": -0.007006527,
				"y": -3.4134527421,
				"z": -0.4235680767,
				"element": "H" 
			},
			{
				"x": -0.3816971367,
				"y": -3.0969854894,
				"z": -2.1332890727,
				"element": "H" 
			},
			{
				"x": 1.2194606941,
				"y": -2.721732924,
				"z": -1.4952849284,
				"element": "H" 
			},
			{
				"x": -0.1507079936,
				"y": -0.6736279379,
				"z": -1.7752940725,
				"element": "H" 
			},
			{
				"x": 1.0013935397,
				"y": -1.5968520377,
				"z": 0.8788207803,
				"element": "H" 
			},
			{
				"x": 1.5928156815,
				"y": -0.370971069,
				"z": -0.2482784367,
				"element": "H" 
			},
			{
				"x": -0.4333402384,
				"y": -0.0928682399,
				"z": 1.9524052193,
				"element": "H" 
			},
			{
				"x": -0.4404568141,
				"y": 1.487490777,
				"z": -0.6647380996,
				"element": "H" 
			},
			{
				"x": -1.3424918279,
				"y": 1.9625519996,
				"z": 0.7680445631,
				"element": "H" 
			},
			{
				"x": -2.056818201,
				"y": 0.7001178658,
				"z": -2.3400396344,
				"element": "H" 
			},
			{
				"x": -2.9803418108,
				"y": 1.8449412496,
				"z": -1.3595854549,
				"element": "H" 
			},
			{
				"x": -3.6871395319,
				"y": 0.2838938273,
				"z": -1.7825208266,
				"element": "H" 
			},
			{
				"x": -2.7841752169,
				"y": -0.1396739541,
				"z": 1.859482979,
				"element": "H" 
			},
			{
				"x": -4.0639623208,
				"y": -0.430156685,
				"z": 0.6793003846,
				"element": "H" 
			},
			{
				"x": -3.5936543764,
				"y": 1.2254294544,
				"z": 1.0592857491,
				"element": "H" 
			},
			{
				"x": -2.3440245819,
				"y": -3.1340500287,
				"z": -0.8849476864,
				"element": "H" 
			},
			{
				"x": -3.6059122944,
				"y": -1.9399913743,
				"z": -0.6547143794,
				"element": "H" 
			},
			{
				"x": -2.6549268391,
				"y": -1.9280622595,
				"z": -2.1495675423,
				"element": "H" 
			},
			{
				"x": 2.2980931708,
				"y": 2.9961923973,
				"z": 2.9846098685,
				"element": "H" 
			},
			{
				"x": 2.9395265849,
				"y": 0.8444667986,
				"z": 4.4671845529,
				"element": "H" 
			},
			{
				"x": 5.2927354738,
				"y": 0.9480710946,
				"z": 3.101365645,
				"element": "H" 
			},
			{
				"x": 7.0875042735,
				"y": 0.9684303697,
				"z": 1.3741173797,
				"element": "H" 
			},
			{
				"x": 6.7128637075,
				"y": 2.1358478481,
				"z": -0.7893359175,
				"element": "H" 
			},
			{
				"x": 4.5407135183,
				"y": 3.2701695855,
				"z": -1.2168904145,
				"element": "H" 
			},
			{
				"x": 2.7555512009,
				"y": 3.2206209366,
				"z": 0.4986867515,
				"element": "H" 
			}
		],
		 "valence_orbital": [ 
			{
				"type": "occ",
				"energy": -0.29207,
				"method": "rhf"
			},
			{
				"type": "occ",
				"energy": -0.27261,
				"method": "rhf"
			},
			{
				"type": "occ",
				"energy": -0.24624,
				"method": "rhf"
			},
			{
				"type": "occ",
				"energy": -0.23837,
				"method": "rhf"
			},
			{
				"type": "occ",
				"energy": -0.20768,
				"method": "rhf"
			},
			{
				"type": "unocc",
				"energy": -0.01229,
				"method": "rhf"
			},
			{
				"type": "unocc",
				"energy": 0.00295,
				"method": "rhf"
			},
			{
				"type": "unocc",
				"energy": 0.01845,
				"method": "rhf"
			},
			{
				"type": "unocc",
				"energy": 0.06608,
				"method": "rhf"
			},
			{
				"type": "unocc",
				"energy": 0.09656,
				"method": "rhf"
			}
		],
		"cosmo_sigma_profile": { 
			"-0.025": 0.0,
			"-0.024": 0.0,
			"-0.023": 0.0,
			"-0.022": 0.0,
			"-0.021": 0.0,
			"-0.02": 0.0,
			"-0.019": 0.0,
			"-0.018": 0.0,
			"-0.017": 0.0,
			"-0.016": 0.0,
			"-0.015": 0.0,
			"-0.014": 0.0,
			"-0.013": 0.0,
			"-0.012": 0.0,
			"-0.011": 0.378273734978,
			"-0.01": 0.421040124591,
			"-0.009": 0.467375907004,
			"-0.008": 0.553998498993,
			"-0.007": 2.23408747152,
			"-0.006": 7.09871226066,
			"-0.005": 13.9388360491,
			"-0.004": 21.7335768419,
			"-0.003": 46.584921702,
			"-0.002": 48.7191141468,
			"-0.001": 48.2985576446,
			"0.0": 38.6645137329,
			"0.001": 29.9510570752,
			"0.002": 18.8540121,
			"0.003": 13.5277483107,
			"0.004": 15.0479536417,
			"0.005": 13.5998656855,
			"0.006": 9.85822473633,
			"0.007": 3.68121143835,
			"0.008": 3.24716934117,
			"0.009": 3.60535685193,
			"0.01": 3.82213613923,
			"0.011": 3.31889909058,
			"0.012": 1.91695487628,
			"0.013": 2.1858236512,
			"0.014": 0.90957756691,
			"0.015": 0.0145486447414,
			"0.016": 0.0,
			"0.017": 0.0,
			"0.018": 0.0,
			"0.019": 0.0,
			"0.02": 0.0,
			"0.021": 0.0,
			"0.022": 0.0,
			"0.023": 0.0,
			"0.024": 0.0,
			"0.025": 0.0
		}
	}
}
