{
	 "smiles": "COC1=C(C=CC=C1)C(N)C1=NC=CN1C", 
	 "Tm": 352.15, 
	 "num_atms": 31, 
	 "gaussian": { 
		 "optdone": 1, 
		 "sigma_profile": "yes", 
		 "theory": "DFT", 
		 "functional": "B3LYP", 
		 "basiset": "6-31G**", 
		 "properties": { 
			 "R2extent": 3495.6236, 
			 "electric_dipole_moment_norm": 3.99774889907, 
			 "electric_quadrupole_moment_norm": 12.7112820396, 
			 "total_energy": -705.771253492, 
			 "HOMO_LUMO_gap": 0.20253, 
			 "cosmo_polarized_energy": -15.97, 
			 "cosmo_cavitation_energy": 33.43, 
			 "cosmo_dispersion_energy": -22.89, 
			 "cosmo_repulsion_energy": 1.78, 
			 "cosmo_total_nonelectrostatic_energy": 12.31, 
			 "SMD_solvation_energy": 4.1 
		},
		"coords": [
			{
				"x": -2.2530003648,
				"y": 1.3026896758,
				"z": 0.7216302229,
				"element": "C" 
			},
			{
				"x": -1.4329507069,
				"y": 0.1748422387,
				"z": 0.4606323818,
				"element": "O" 
			},
			{
				"x": -0.3319254104,
				"y": -0.0399437084,
				"z": 1.2402773142,
				"element": "C" 
			},
			{
				"x": 0.4656300311,
				"y": -1.1495946272,
				"z": 0.8812169288,
				"element": "C" 
			},
			{
				"x": 1.5833967699,
				"y": -1.4327708207,
				"z": 1.6664840833,
				"element": "C" 
			},
			{
				"x": 1.9356598442,
				"y": -0.6442440484,
				"z": 2.7659169795,
				"element": "C" 
			},
			{
				"x": 1.1470873775,
				"y": 0.4544727556,
				"z": 3.0925855841,
				"element": "C" 
			},
			{
				"x": 0.0126238168,
				"y": 0.7598989273,
				"z": 2.3350991482,
				"element": "C" 
			},
			{
				"x": 0.1087155155,
				"y": -2.0412535043,
				"z": -0.3067859681,
				"element": "C" 
			},
			{
				"x": -1.1269622606,
				"y": -2.7839635621,
				"z": -0.0337199009,
				"element": "N" 
			},
			{
				"x": 0.0586022979,
				"y": -1.3050860078,
				"z": -1.641135038,
				"element": "C" 
			},
			{
				"x": -0.9676886339,
				"y": -1.3569736421,
				"z": -2.4704051166,
				"element": "N" 
			},
			{
				"x": -0.5967999178,
				"y": -0.6256125355,
				"z": -3.5743357641,
				"element": "C" 
			},
			{
				"x": 0.6710347671,
				"y": -0.1318816219,
				"z": -3.4159964779,
				"element": "C" 
			},
			{
				"x": 1.0947265465,
				"y": -0.5745550195,
				"z": -2.1748259302,
				"element": "N" 
			},
			{
				"x": 2.3970330225,
				"y": -0.3002560261,
				"z": -1.5865762205,
				"element": "C" 
			},
			{
				"x": -3.0351363105,
				"y": 1.2839511072,
				"z": -0.038267395,
				"element": "H" 
			},
			{
				"x": -2.711573992,
				"y": 1.2480611161,
				"z": 1.717287546,
				"element": "H" 
			},
			{
				"x": -1.6881674834,
				"y": 2.2396645553,
				"z": 0.6367209068,
				"element": "H" 
			},
			{
				"x": 2.1920171473,
				"y": -2.296365474,
				"z": 1.4090104608,
				"element": "H" 
			},
			{
				"x": 2.8122474775,
				"y": -0.8910213528,
				"z": 3.3567330731,
				"element": "H" 
			},
			{
				"x": 1.4027033747,
				"y": 1.0812141478,
				"z": 3.9422476039,
				"element": "H" 
			},
			{
				"x": -0.5983816282,
				"y": 1.6121931081,
				"z": 2.6075258316,
				"element": "H" 
			},
			{
				"x": 0.9168620914,
				"y": -2.7846954394,
				"z": -0.3784099561,
				"element": "H" 
			},
			{
				"x": -1.8732867453,
				"y": -2.0956660831,
				"z": 0.0496245394,
				"element": "H" 
			},
			{
				"x": -1.3629788262,
				"y": -3.2993547502,
				"z": -0.8808983844,
				"element": "H" 
			},
			{
				"x": -1.2593632611,
				"y": -0.5011535979,
				"z": -4.4200686038,
				"element": "H" 
			},
			{
				"x": 1.30492007,
				"y": 0.4749875806,
				"z": -4.0454405103,
				"element": "H" 
			},
			{
				"x": 2.322809383,
				"y": 0.4087840953,
				"z": -0.7576790234,
				"element": "H" 
			},
			{
				"x": 3.0473709083,
				"y": 0.1172756967,
				"z": -2.3573837693,
				"element": "H" 
			},
			{
				"x": 2.8536751,
				"y": -1.220743183,
				"z": -1.2132645457,
				"element": "H" 
			}
		],
		 "valence_orbital": [ 
			{
				"type": "occ",
				"energy": -0.25499,
				"method": "rhf"
			},
			{
				"type": "occ",
				"energy": -0.24786,
				"method": "rhf"
			},
			{
				"type": "occ",
				"energy": -0.22765,
				"method": "rhf"
			},
			{
				"type": "occ",
				"energy": -0.22051,
				"method": "rhf"
			},
			{
				"type": "occ",
				"energy": -0.20768,
				"method": "rhf"
			},
			{
				"type": "unocc",
				"energy": -0.00515,
				"method": "rhf"
			},
			{
				"type": "unocc",
				"energy": 0.00898,
				"method": "rhf"
			},
			{
				"type": "unocc",
				"energy": 0.03972,
				"method": "rhf"
			},
			{
				"type": "unocc",
				"energy": 0.07933,
				"method": "rhf"
			},
			{
				"type": "unocc",
				"energy": 0.08798,
				"method": "rhf"
			}
		],
		"cosmo_sigma_profile": { 
			"-0.025": 0.0,
			"-0.024": 0.0,
			"-0.023": 0.0,
			"-0.022": 0.0,
			"-0.021": 0.0,
			"-0.02": 0.0,
			"-0.019": 0.0,
			"-0.018": 0.0,
			"-0.017": 0.0,
			"-0.016": 0.0,
			"-0.015": 0.0,
			"-0.014": 0.0,
			"-0.013": 0.0,
			"-0.012": 0.0,
			"-0.011": 0.0,
			"-0.01": 0.0,
			"-0.009": 0.0335397920573,
			"-0.008": 3.02432909232,
			"-0.007": 6.69004585555,
			"-0.006": 19.4781292659,
			"-0.005": 28.8937531222,
			"-0.004": 27.4566283469,
			"-0.003": 28.8119845261,
			"-0.002": 18.3057746752,
			"-0.001": 14.7037880836,
			"0.0": 13.4193808676,
			"0.001": 13.4384283414,
			"0.002": 12.5723780698,
			"0.003": 12.2249831253,
			"0.004": 12.5826265584,
			"0.005": 12.0211240248,
			"0.006": 10.9112355678,
			"0.007": 6.10494855785,
			"0.008": 3.3444151739,
			"0.009": 3.27495626376,
			"0.01": 3.23085508701,
			"0.011": 2.18712325179,
			"0.012": 2.55605816011,
			"0.013": 2.23430274725,
			"0.014": 1.41433529887,
			"0.015": 1.27465345607,
			"0.016": 1.83465328839,
			"0.017": 1.05678199725,
			"0.018": 0.510931599136,
			"0.019": 0.873098117017,
			"0.02": 0.0916370636089,
			"0.021": 0.0,
			"0.022": 0.0,
			"0.023": 0.0,
			"0.024": 0.0,
			"0.025": 0.0
		}
	}
}
