{
	 "smiles": "CC(=O)C1=CC=C(O)C(O)=C1", 
	 "Tm": 391.15, 
	 "num_atms": 19, 
	 "gaussian": { 
		 "optdone": 1, 
		 "sigma_profile": "yes", 
		 "theory": "DFT", 
		 "functional": "B3LYP", 
		 "basiset": "6-31G**", 
		 "properties": { 
			 "R2extent": 1975.3051, 
			 "electric_dipole_moment_norm": 1.3031210458, 
			 "electric_quadrupole_moment_norm": 14.2019897043, 
			 "total_energy": -535.343202352, 
			 "HOMO_LUMO_gap": 0.17546, 
			 "cosmo_polarized_energy": -13.36, 
			 "cosmo_cavitation_energy": 23.32, 
			 "cosmo_dispersion_energy": -17.4, 
			 "cosmo_repulsion_energy": 1.39, 
			 "cosmo_total_nonelectrostatic_energy": 7.31, 
			 "SMD_solvation_energy": 5.4 
		},
		"coords": [
			{
				"x": -3.4567395991,
				"y": -0.6263465044,
				"z": 0.6194462938,
				"element": "C" 
			},
			{
				"x": -2.3106202919,
				"y": 0.35026923,
				"z": 0.8318893502,
				"element": "C" 
			},
			{
				"x": -2.5174672346,
				"y": 1.4448209246,
				"z": 1.3401687642,
				"element": "O" 
			},
			{
				"x": -0.9366238878,
				"y": -0.0480211052,
				"z": 0.4100377616,
				"element": "C" 
			},
			{
				"x": -0.6378801949,
				"y": -1.2853454855,
				"z": -0.1771199047,
				"element": "C" 
			},
			{
				"x": 0.6685184835,
				"y": -1.5996380103,
				"z": -0.5505405216,
				"element": "C" 
			},
			{
				"x": 1.6938119932,
				"y": -0.6791204438,
				"z": -0.3411301612,
				"element": "C" 
			},
			{
				"x": 2.9657281815,
				"y": -0.9784505679,
				"z": -0.7018124122,
				"element": "O" 
			},
			{
				"x": 1.3981053929,
				"y": 0.5679548181,
				"z": 0.2496596345,
				"element": "C" 
			},
			{
				"x": 2.4847241005,
				"y": 1.3961628983,
				"z": 0.4081877311,
				"element": "O" 
			},
			{
				"x": 0.1034168675,
				"y": 0.8778994153,
				"z": 0.6190900073,
				"element": "C" 
			},
			{
				"x": -3.2803042294,
				"y": -1.5640015511,
				"z": 1.157875711,
				"element": "H" 
			},
			{
				"x": -4.3763017866,
				"y": -0.1676166795,
				"z": 0.9836255916,
				"element": "H" 
			},
			{
				"x": -3.5703203791,
				"y": -0.8758867715,
				"z": -0.4412457597,
				"element": "H" 
			},
			{
				"x": -1.4219121527,
				"y": -2.0149325129,
				"z": -0.3483679756,
				"element": "H" 
			},
			{
				"x": 0.914477158,
				"y": -2.5531138934,
				"z": -1.0058514359,
				"element": "H" 
			},
			{
				"x": 3.5223735699,
				"y": -0.2170180625,
				"z": -0.4754635782,
				"element": "H" 
			},
			{
				"x": 2.2069958152,
				"y": 2.2258398335,
				"z": 0.8161723544,
				"element": "H" 
			},
			{
				"x": -0.1448818061,
				"y": 1.8326444684,
				"z": 1.0753785494,
				"element": "H" 
			}
		],
		 "valence_orbital": [ 
			{
				"type": "occ",
				"energy": -0.35131,
				"method": "rhf"
			},
			{
				"type": "occ",
				"energy": -0.32555,
				"method": "rhf"
			},
			{
				"type": "occ",
				"energy": -0.24858,
				"method": "rhf"
			},
			{
				"type": "occ",
				"energy": -0.24372,
				"method": "rhf"
			},
			{
				"type": "occ",
				"energy": -0.22161,
				"method": "rhf"
			},
			{
				"type": "unocc",
				"energy": -0.04615,
				"method": "rhf"
			},
			{
				"type": "unocc",
				"energy": -0.00133,
				"method": "rhf"
			},
			{
				"type": "unocc",
				"energy": 0.04882,
				"method": "rhf"
			},
			{
				"type": "unocc",
				"energy": 0.05427,
				"method": "rhf"
			},
			{
				"type": "unocc",
				"energy": 0.08995,
				"method": "rhf"
			}
		],
		"cosmo_sigma_profile": { 
			"-0.025": 0.0,
			"-0.024": 0.0,
			"-0.023": 0.0,
			"-0.022": 0.0,
			"-0.021": 0.0,
			"-0.02": 0.0,
			"-0.019": 0.162137510862,
			"-0.018": 1.09257484793,
			"-0.017": 1.18175970831,
			"-0.016": 0.851824020675,
			"-0.015": 1.86631292358,
			"-0.014": 1.37286942803,
			"-0.013": 1.15369925605,
			"-0.012": 1.50258072233,
			"-0.011": 1.73787839366,
			"-0.01": 2.19170003523,
			"-0.009": 0.959213938776,
			"-0.008": 1.63046012742,
			"-0.007": 2.83534244919,
			"-0.006": 9.70474731019,
			"-0.005": 11.9519920733,
			"-0.004": 11.7054262572,
			"-0.003": 11.0736753852,
			"-0.002": 10.6037071335,
			"-0.001": 12.6156343347,
			"0.0": 10.7056244526,
			"0.001": 10.4679291346,
			"0.002": 12.8571682471,
			"0.003": 15.319873119,
			"0.004": 13.4741030512,
			"0.005": 6.56583965468,
			"0.006": 4.46717725113,
			"0.007": 4.32203570398,
			"0.008": 3.36632091246,
			"0.009": 2.89195400006,
			"0.01": 3.85612921861,
			"0.011": 3.28831819076,
			"0.012": 4.30207247977,
			"0.013": 2.56248970175,
			"0.014": 0.664829638143,
			"0.015": 0.0,
			"0.016": 0.0,
			"0.017": 0.0,
			"0.018": 0.0,
			"0.019": 0.0,
			"0.02": 0.0,
			"0.021": 0.0,
			"0.022": 0.0,
			"0.023": 0.0,
			"0.024": 0.0,
			"0.025": 0.0
		}
	}
}
