{
	 "smiles": "ON(CC1=C(F)C=CC=C1Cl)CC1=C(F)C=CC=C1Cl", 
	 "Tm": 443.15, 
	 "num_atms": 31, 
	 "gaussian": { 
		 "optdone": 1, 
		 "sigma_profile": "yes", 
		 "theory": "DFT", 
		 "functional": "B3LYP", 
		 "basiset": "6-31G**", 
		 "properties": { 
			 "R2extent": 7385.5518, 
			 "electric_dipole_moment_norm": 0.665606678152, 
			 "electric_quadrupole_moment_norm": 15.2876874801, 
			 "total_energy": -1790.07960616, 
			 "HOMO_LUMO_gap": 0.19736, 
			 "cosmo_polarized_energy": -9.51, 
			 "cosmo_cavitation_energy": 38.2, 
			 "cosmo_dispersion_energy": -27.04, 
			 "cosmo_repulsion_energy": 2.0, 
			 "cosmo_total_nonelectrostatic_energy": 13.17, 
			 "SMD_solvation_energy": 5.97 
		},
		"coords": [
			{
				"x": -0.6268642234,
				"y": -2.4286446896,
				"z": 0.2575521335,
				"element": "O" 
			},
			{
				"x": -0.2337929471,
				"y": -1.3186346209,
				"z": -0.5672976527,
				"element": "N" 
			},
			{
				"x": -0.8123552697,
				"y": -0.0858460558,
				"z": 0.0109158355,
				"element": "C" 
			},
			{
				"x": -1.3941270207,
				"y": 0.785062287,
				"z": -1.0850390985,
				"element": "C" 
			},
			{
				"x": -0.7416354985,
				"y": 1.941694656,
				"z": -1.5218527577,
				"element": "C" 
			},
			{
				"x": 0.4341655011,
				"y": 2.2727162462,
				"z": -0.9405365796,
				"element": "F" 
			},
			{
				"x": -1.2247289459,
				"y": 2.7739661686,
				"z": -2.5242472211,
				"element": "C" 
			},
			{
				"x": -2.4290974386,
				"y": 2.4410581635,
				"z": -3.1394501444,
				"element": "C" 
			},
			{
				"x": -3.1242690996,
				"y": 1.2953793512,
				"z": -2.7517360672,
				"element": "C" 
			},
			{
				"x": -2.5997421407,
				"y": 0.4901296328,
				"z": -1.7418144002,
				"element": "C" 
			},
			{
				"x": -3.5101507148,
				"y": -0.9463760122,
				"z": -1.2850660035,
				"element": "Cl" 
			},
			{
				"x": 1.2352070386,
				"y": -1.3343443667,
				"z": -0.7052354201,
				"element": "C" 
			},
			{
				"x": 2.0368066202,
				"y": -1.6713001394,
				"z": 0.5434248275,
				"element": "C" 
			},
			{
				"x": 2.2194968867,
				"y": -3.0194121429,
				"z": 0.8843610036,
				"element": "C" 
			},
			{
				"x": 1.7204761531,
				"y": -3.9622256412,
				"z": 0.0582026587,
				"element": "F" 
			},
			{
				"x": 2.9163017438,
				"y": -3.4494469761,
				"z": 2.0046655505,
				"element": "C" 
			},
			{
				"x": 3.4873124924,
				"y": -2.4916828857,
				"z": 2.8404884928,
				"element": "C" 
			},
			{
				"x": 3.3688512352,
				"y": -1.1372949959,
				"z": 2.5376285903,
				"element": "C" 
			},
			{
				"x": 2.655043874,
				"y": -0.7489786227,
				"z": 1.4017616025,
				"element": "C" 
			},
			{
				"x": 2.5904696193,
				"y": 0.9776551184,
				"z": 1.0524174426,
				"element": "Cl" 
			},
			{
				"x": -1.133721281,
				"y": -2.9765927644,
				"z": -0.3577558616,
				"element": "H" 
			},
			{
				"x": -0.0908627059,
				"y": 0.4898332166,
				"z": 0.5964951717,
				"element": "H" 
			},
			{
				"x": -1.6087749173,
				"y": -0.4090260065,
				"z": 0.6816357302,
				"element": "H" 
			},
			{
				"x": -0.6568455264,
				"y": 3.6543798133,
				"z": -2.8029017944,
				"element": "H" 
			},
			{
				"x": -2.8295280095,
				"y": 3.0737832754,
				"z": -3.9252139041,
				"element": "H" 
			},
			{
				"x": -4.0617987092,
				"y": 1.0247361593,
				"z": -3.2231465422,
				"element": "H" 
			},
			{
				"x": 1.4768854298,
				"y": -2.0810530612,
				"z": -1.4667721307,
				"element": "H" 
			},
			{
				"x": 1.5239067424,
				"y": -0.3551483722,
				"z": -1.0941023879,
				"element": "H" 
			},
			{
				"x": 3.0051364972,
				"y": -4.5124586687,
				"z": 2.1979364082,
				"element": "H" 
			},
			{
				"x": 4.0374292003,
				"y": -2.8005254409,
				"z": 3.7237990855,
				"element": "H" 
			},
			{
				"x": 3.8261054143,
				"y": -0.3825026256,
				"z": 3.1664834328,
				"element": "H" 
			}
		],
		 "valence_orbital": [ 
			{
				"type": "occ",
				"energy": -0.25945,
				"method": "rhf"
			},
			{
				"type": "occ",
				"energy": -0.25392,
				"method": "rhf"
			},
			{
				"type": "occ",
				"energy": -0.24926,
				"method": "rhf"
			},
			{
				"type": "occ",
				"energy": -0.2452,
				"method": "rhf"
			},
			{
				"type": "occ",
				"energy": -0.2234,
				"method": "rhf"
			},
			{
				"type": "unocc",
				"energy": -0.02604,
				"method": "rhf"
			},
			{
				"type": "unocc",
				"energy": -0.01906,
				"method": "rhf"
			},
			{
				"type": "unocc",
				"energy": -0.00932,
				"method": "rhf"
			},
			{
				"type": "unocc",
				"energy": -0.00629,
				"method": "rhf"
			},
			{
				"type": "unocc",
				"energy": 0.02278,
				"method": "rhf"
			}
		],
		"cosmo_sigma_profile": { 
			"-0.025": 0.0,
			"-0.024": 0.0,
			"-0.023": 0.0,
			"-0.022": 0.0,
			"-0.021": 0.0,
			"-0.02": 0.0,
			"-0.019": 0.0,
			"-0.018": 0.0,
			"-0.017": 0.0,
			"-0.016": 0.0,
			"-0.015": 0.678341591865,
			"-0.014": 0.580250971354,
			"-0.013": 0.585282925195,
			"-0.012": 0.762092131781,
			"-0.011": 0.841810944209,
			"-0.01": 0.353257367596,
			"-0.009": 0.446322502137,
			"-0.008": 2.61032053682,
			"-0.007": 11.1210114093,
			"-0.006": 12.4542840208,
			"-0.005": 17.2177988172,
			"-0.004": 16.1023448961,
			"-0.003": 18.8388906409,
			"-0.002": 22.3162044084,
			"-0.001": 22.9099763259,
			"0.0": 24.1771758614,
			"0.001": 31.0627822639,
			"0.002": 34.5045870016,
			"0.003": 37.0232797425,
			"0.004": 32.0822100253,
			"0.005": 9.64270933235,
			"0.006": 3.14232638317,
			"0.007": 2.55262931643,
			"0.008": 2.01605112238,
			"0.009": 2.05960039248,
			"0.01": 1.65266505843,
			"0.011": 1.28451893286,
			"0.012": 0.851494933108,
			"0.013": 0.0549714935023,
			"0.014": 0.0,
			"0.015": 0.0,
			"0.016": 0.0,
			"0.017": 0.0,
			"0.018": 0.0,
			"0.019": 0.0,
			"0.02": 0.0,
			"0.021": 0.0,
			"0.022": 0.0,
			"0.023": 0.0,
			"0.024": 0.0,
			"0.025": 0.0
		}
	}
}
