{
	 "smiles": "CC(C)C1=CC2=C(CCC[C@@H]2O)C=C1", 
	 "Tm": 363.15, 
	 "num_atms": 32, 
	 "gaussian": { 
		 "optdone": 1, 
		 "sigma_profile": "yes", 
		 "theory": "DFT", 
		 "functional": "B3LYP", 
		 "basiset": "6-31G**", 
		 "properties": { 
			 "R2extent": 3732.2098, 
			 "electric_dipole_moment_norm": 1.22578476496, 
			 "electric_quadrupole_moment_norm": 5.40278383058, 
			 "total_energy": -581.473447223, 
			 "HOMO_LUMO_gap": 0.23066, 
			 "cosmo_polarized_energy": -7.78, 
			 "cosmo_cavitation_energy": 32.37, 
			 "cosmo_dispersion_energy": -23.19, 
			 "cosmo_repulsion_energy": 1.85, 
			 "cosmo_total_nonelectrostatic_energy": 11.03, 
			 "SMD_solvation_energy": 4.82 
		},
		"coords": [
			{
				"x": 2.407068956,
				"y": 2.7577919645,
				"z": -1.0819466496,
				"element": "C" 
			},
			{
				"x": 1.2814398815,
				"y": 3.3268832402,
				"z": -0.1974779518,
				"element": "C" 
			},
			{
				"x": 0.5418321048,
				"y": 4.4717783104,
				"z": -0.9150305362,
				"element": "C" 
			},
			{
				"x": 0.3255220843,
				"y": 2.2384170097,
				"z": 0.2737656477,
				"element": "C" 
			},
			{
				"x": -0.4484975677,
				"y": 1.5034403299,
				"z": -0.6385076442,
				"element": "C" 
			},
			{
				"x": -1.3236886006,
				"y": 0.5099146087,
				"z": -0.206486629,
				"element": "C" 
			},
			{
				"x": -1.4274191957,
				"y": 0.2027182298,
				"z": 1.1634367398,
				"element": "C" 
			},
			{
				"x": -2.349942496,
				"y": -0.9285503864,
				"z": 1.5451827215,
				"element": "C" 
			},
			{
				"x": -2.1112260236,
				"y": -2.1623628648,
				"z": 0.6395188709,
				"element": "C" 
			},
			{
				"x": -2.0085419035,
				"y": -1.8058910266,
				"z": -0.8704441089,
				"element": "C" 
			},
			{
				"x": -2.1937091062,
				"y": -0.3037118272,
				"z": -1.1464541476,
				"element": "C" 
			},
			{
				"x": -1.9197713513,
				"y": -0.0891840211,
				"z": -2.5255519086,
				"element": "O" 
			},
			{
				"x": -0.6554475562,
				"y": 0.9235335349,
				"z": 2.0738643827,
				"element": "C" 
			},
			{
				"x": 0.2026543506,
				"y": 1.9350292206,
				"z": 1.634071312,
				"element": "C" 
			},
			{
				"x": 2.9613828058,
				"y": 1.9719625013,
				"z": -0.5595564671,
				"element": "H" 
			},
			{
				"x": 2.00609293,
				"y": 2.3243323567,
				"z": -2.0047346044,
				"element": "H" 
			},
			{
				"x": 3.1145441576,
				"y": 3.5454737669,
				"z": -1.3642615812,
				"element": "H" 
			},
			{
				"x": 1.7510634188,
				"y": 3.7513631819,
				"z": 0.6998612768,
				"element": "H" 
			},
			{
				"x": -0.2362906973,
				"y": 4.9023933608,
				"z": -0.2769679608,
				"element": "H" 
			},
			{
				"x": 1.2384897969,
				"y": 5.2711697407,
				"z": -1.1909547485,
				"element": "H" 
			},
			{
				"x": 0.0620305534,
				"y": 4.1190014344,
				"z": -1.8347710585,
				"element": "H" 
			},
			{
				"x": -0.3558452335,
				"y": 1.6891145899,
				"z": -1.7048465514,
				"element": "H" 
			},
			{
				"x": -3.3964038367,
				"y": -0.605605963,
				"z": 1.4390359378,
				"element": "H" 
			},
			{
				"x": -2.2186211535,
				"y": -1.200504109,
				"z": 2.5977842553,
				"element": "H" 
			},
			{
				"x": -2.9141245016,
				"y": -2.8882908178,
				"z": 0.8055446322,
				"element": "H" 
			},
			{
				"x": -1.1839383324,
				"y": -2.6480224723,
				"z": 0.9601587522,
				"element": "H" 
			},
			{
				"x": -2.7463800585,
				"y": -2.3576713362,
				"z": -1.4610190564,
				"element": "H" 
			},
			{
				"x": -1.0235392412,
				"y": -2.0780578448,
				"z": -1.26325814,
				"element": "H" 
			},
			{
				"x": -3.2486200725,
				"y": -0.0501854219,
				"z": -0.9372688511,
				"element": "H" 
			},
			{
				"x": -2.2257367922,
				"y": 0.7977814482,
				"z": -2.7539997391,
				"element": "H" 
			},
			{
				"x": -0.7186616536,
				"y": 0.6917021496,
				"z": 3.1347646977,
				"element": "H" 
			},
			{
				"x": 0.7943843341,
				"y": 2.4885371122,
				"z": 2.3595491078,
				"element": "H" 
			}
		],
		 "valence_orbital": [ 
			{
				"type": "occ",
				"energy": -0.31354,
				"method": "rhf"
			},
			{
				"type": "occ",
				"energy": -0.30841,
				"method": "rhf"
			},
			{
				"type": "occ",
				"energy": -0.26779,
				"method": "rhf"
			},
			{
				"type": "occ",
				"energy": -0.23714,
				"method": "rhf"
			},
			{
				"type": "occ",
				"energy": -0.22508,
				"method": "rhf"
			},
			{
				"type": "unocc",
				"energy": 0.00558,
				"method": "rhf"
			},
			{
				"type": "unocc",
				"energy": 0.00837,
				"method": "rhf"
			},
			{
				"type": "unocc",
				"energy": 0.07458,
				"method": "rhf"
			},
			{
				"type": "unocc",
				"energy": 0.09174,
				"method": "rhf"
			},
			{
				"type": "unocc",
				"energy": 0.09678,
				"method": "rhf"
			}
		],
		"cosmo_sigma_profile": { 
			"-0.025": 0.0,
			"-0.024": 0.0,
			"-0.023": 0.0,
			"-0.022": 0.0,
			"-0.021": 0.0,
			"-0.02": 0.0,
			"-0.019": 0.0,
			"-0.018": 0.0,
			"-0.017": 0.0,
			"-0.016": 0.037018423996,
			"-0.015": 0.811696517382,
			"-0.014": 1.09848082517,
			"-0.013": 0.554659977305,
			"-0.012": 1.04212257332,
			"-0.011": 0.963243852304,
			"-0.01": 0.925842581342,
			"-0.009": 1.46853853234,
			"-0.008": 1.11283328216,
			"-0.007": 0.803395105329,
			"-0.006": 0.748367422889,
			"-0.005": 4.69311620479,
			"-0.004": 14.2240422403,
			"-0.003": 28.208315283,
			"-0.002": 35.1611376999,
			"-0.001": 33.9799527036,
			"0.0": 31.7041244437,
			"0.001": 28.7768546119,
			"0.002": 16.2752171588,
			"0.003": 8.07589530467,
			"0.004": 7.32972794577,
			"0.005": 8.16347787419,
			"0.006": 8.02874787825,
			"0.007": 6.57936102571,
			"0.008": 1.7343131239,
			"0.009": 1.40491201604,
			"0.01": 1.1347305966,
			"0.011": 1.7021840372,
			"0.012": 1.43869352799,
			"0.013": 1.06271143718,
			"0.014": 1.99229682609,
			"0.015": 0.172161327828,
			"0.016": 0.0,
			"0.017": 0.0,
			"0.018": 0.0,
			"0.019": 0.0,
			"0.02": 0.0,
			"0.021": 0.0,
			"0.022": 0.0,
			"0.023": 0.0,
			"0.024": 0.0,
			"0.025": 0.0
		}
	}
}
