{
	 "smiles": "CC1CCCC(O)(CN)C1", 
	 "Tm": 333.15, 
	 "num_atms": 27, 
	 "gaussian": { 
		 "optdone": 1, 
		 "sigma_profile": "yes", 
		 "theory": "DFT", 
		 "functional": "B3LYP", 
		 "basiset": "6-31G**", 
		 "properties": { 
			 "R2extent": 1598.3147, 
			 "electric_dipole_moment_norm": 2.2901661097, 
			 "electric_quadrupole_moment_norm": 5.30316936181, 
			 "total_energy": -445.082794627, 
			 "HOMO_LUMO_gap": 0.28553, 
			 "cosmo_polarized_energy": -8.47, 
			 "cosmo_cavitation_energy": 25.88, 
			 "cosmo_dispersion_energy": -19.19, 
			 "cosmo_repulsion_energy": 1.56, 
			 "cosmo_total_nonelectrostatic_energy": 8.25, 
			 "SMD_solvation_energy": 2.9 
		},
		"coords": [
			{
				"x": 1.0779306498,
				"y": -2.3737488789,
				"z": 0.7672362613,
				"element": "C" 
			},
			{
				"x": 0.2474230736,
				"y": -1.3479325308,
				"z": 1.5570714556,
				"element": "C" 
			},
			{
				"x": 1.1267102369,
				"y": -0.3061801091,
				"z": 2.2827987221,
				"element": "C" 
			},
			{
				"x": 1.6943308141,
				"y": 0.7556398264,
				"z": 1.3296928407,
				"element": "C" 
			},
			{
				"x": 0.5661700124,
				"y": 1.4652304022,
				"z": 0.5693159191,
				"element": "C" 
			},
			{
				"x": -0.3192343813,
				"y": 0.4810950414,
				"z": -0.2178408677,
				"element": "C" 
			},
			{
				"x": 0.4578918683,
				"y": -0.1541102372,
				"z": -1.2587035541,
				"element": "O" 
			},
			{
				"x": -1.4854583571,
				"y": 1.2304845231,
				"z": -0.8929077961,
				"element": "C" 
			},
			{
				"x": -2.3088028139,
				"y": 0.3085631075,
				"z": -1.6719950911,
				"element": "N" 
			},
			{
				"x": -0.8316642547,
				"y": -0.641445214,
				"z": 0.7034889539,
				"element": "C" 
			},
			{
				"x": 1.7744219249,
				"y": -2.8981117182,
				"z": 1.4321581534,
				"element": "H" 
			},
			{
				"x": 1.646925499,
				"y": -1.9072261956,
				"z": -0.0389308725,
				"element": "H" 
			},
			{
				"x": 0.4252878077,
				"y": -3.1251665627,
				"z": 0.3091962146,
				"element": "H" 
			},
			{
				"x": -0.2926274305,
				"y": -1.9110173468,
				"z": 2.3314093311,
				"element": "H" 
			},
			{
				"x": 1.9407544454,
				"y": -0.8111982336,
				"z": 2.817558158,
				"element": "H" 
			},
			{
				"x": 0.5203781797,
				"y": 0.2003823291,
				"z": 3.0476879106,
				"element": "H" 
			},
			{
				"x": 2.3764448461,
				"y": 0.2884036638,
				"z": 0.6101453829,
				"element": "H" 
			},
			{
				"x": 2.2841733154,
				"y": 1.4906208023,
				"z": 1.8901961794,
				"element": "H" 
			},
			{
				"x": 0.975291132,
				"y": 2.2175774869,
				"z": -0.1211557561,
				"element": "H" 
			},
			{
				"x": -0.0663312505,
				"y": 2.0143600747,
				"z": 1.2802889286,
				"element": "H" 
			},
			{
				"x": 0.9012576797,
				"y": 0.5483060894,
				"z": -1.7552573318,
				"element": "H" 
			},
			{
				"x": -2.1092686638,
				"y": 1.7036444471,
				"z": -0.1241925764,
				"element": "H" 
			},
			{
				"x": -1.0440122344,
				"y": 2.0554707529,
				"z": -1.4883252905,
				"element": "H" 
			},
			{
				"x": -1.7015939814,
				"y": -0.1866797355,
				"z": -2.3209728731,
				"element": "H" 
			},
			{
				"x": -2.992042981,
				"y": 0.8200757874,
				"z": -2.2228859374,
				"element": "H" 
			},
			{
				"x": -1.5663199442,
				"y": -0.1831034812,
				"z": 1.3784780739,
				"element": "H" 
			},
			{
				"x": -1.3839351922,
				"y": -1.3645340908,
				"z": 0.0972454615,
				"element": "H" 
			}
		],
		 "valence_orbital": [ 
			{
				"type": "occ",
				"energy": -0.30577,
				"method": "rhf"
			},
			{
				"type": "occ",
				"energy": -0.29862,
				"method": "rhf"
			},
			{
				"type": "occ",
				"energy": -0.28362,
				"method": "rhf"
			},
			{
				"type": "occ",
				"energy": -0.26363,
				"method": "rhf"
			},
			{
				"type": "occ",
				"energy": -0.22591,
				"method": "rhf"
			},
			{
				"type": "unocc",
				"energy": 0.05962,
				"method": "rhf"
			},
			{
				"type": "unocc",
				"energy": 0.0981,
				"method": "rhf"
			},
			{
				"type": "unocc",
				"energy": 0.10872,
				"method": "rhf"
			},
			{
				"type": "unocc",
				"energy": 0.11435,
				"method": "rhf"
			},
			{
				"type": "unocc",
				"energy": 0.12855,
				"method": "rhf"
			}
		],
		"cosmo_sigma_profile": { 
			"-0.025": 0.0,
			"-0.024": 0.0,
			"-0.023": 0.0,
			"-0.022": 0.0,
			"-0.021": 0.0,
			"-0.02": 0.0,
			"-0.019": 0.0,
			"-0.018": 0.0,
			"-0.017": 0.0,
			"-0.016": 0.0,
			"-0.015": 0.0297366988636,
			"-0.014": 0.765038005276,
			"-0.013": 0.857927155882,
			"-0.012": 0.806606073,
			"-0.011": 1.03939144907,
			"-0.01": 1.51286814942,
			"-0.009": 2.27280454601,
			"-0.008": 2.42665560898,
			"-0.007": 3.38526180778,
			"-0.006": 3.48081825915,
			"-0.005": 3.67918431878,
			"-0.004": 3.6743069863,
			"-0.003": 10.4508760802,
			"-0.002": 25.5600211387,
			"-0.001": 34.3256927677,
			"0.0": 32.1161489417,
			"0.001": 25.6572742988,
			"0.002": 14.3462343022,
			"0.003": 6.15597733118,
			"0.004": 3.32028138712,
			"0.005": 2.37539640465,
			"0.006": 2.41861249901,
			"0.007": 2.30267832092,
			"0.008": 1.61939131962,
			"0.009": 2.3521936305,
			"0.01": 1.76897640135,
			"0.011": 1.76163691668,
			"0.012": 1.60395647727,
			"0.013": 1.2625419989,
			"0.014": 1.11571535616,
			"0.015": 0.387099843064,
			"0.016": 0.502683040749,
			"0.017": 0.689225836395,
			"0.018": 0.555543555732,
			"0.019": 0.421678646019,
			"0.02": 0.00739854276583,
			"0.021": 0.0,
			"0.022": 0.0,
			"0.023": 0.0,
			"0.024": 0.0,
			"0.025": 0.0
		}
	}
}
