{
	 "smiles": "CC(C)C(OC1=C(Br)C=CC=C1)C(O)=O", 
	 "Tm": 337.15, 
	 "num_atms": 28, 
	 "gaussian": { 
		 "optdone": 1, 
		 "sigma_profile": "yes", 
		 "theory": "DFT", 
		 "functional": "B3LYP", 
		 "basiset": "6-31G**", 
		 "properties": { 
			 "R2extent": 5268.1458, 
			 "electric_dipole_moment_norm": 1.83243397698, 
			 "electric_quadrupole_moment_norm": 8.37769426036, 
			 "total_energy": -3224.09034042, 
			 "HOMO_LUMO_gap": 0.22634, 
			 "cosmo_polarized_energy": -10.83, 
			 "cosmo_cavitation_energy": 33.35, 
			 "cosmo_dispersion_energy": -23.28, 
			 "cosmo_repulsion_energy": 1.84, 
			 "cosmo_total_nonelectrostatic_energy": 11.91, 
			 "SMD_solvation_energy": 5.79 
		},
		"coords": [
			{
				"x": -3.3345690595,
				"y": -3.0452662765,
				"z": -0.9925437657,
				"element": "C" 
			},
			{
				"x": -1.9585686836,
				"y": -2.7772602579,
				"z": -0.3682134185,
				"element": "C" 
			},
			{
				"x": -0.8525168599,
				"y": -3.6131679916,
				"z": -1.0270115753,
				"element": "C" 
			},
			{
				"x": -1.6084938243,
				"y": -1.2690533887,
				"z": -0.3338020399,
				"element": "C" 
			},
			{
				"x": -0.4362980157,
				"y": -1.1415148714,
				"z": 0.4727033612,
				"element": "O" 
			},
			{
				"x": -0.1472473772,
				"y": 0.1078546018,
				"z": 0.9709155709,
				"element": "C" 
			},
			{
				"x": -0.7592120909,
				"y": 0.59554738,
				"z": 2.135110917,
				"element": "C" 
			},
			{
				"x": -2.0790171118,
				"y": -0.4514321029,
				"z": 3.0378793783,
				"element": "Br" 
			},
			{
				"x": -0.401201854,
				"y": 1.834652687,
				"z": 2.6644310826,
				"element": "C" 
			},
			{
				"x": 0.5819552787,
				"y": 2.5975442177,
				"z": 2.0338680285,
				"element": "C" 
			},
			{
				"x": 1.2050688304,
				"y": 2.1175657608,
				"z": 0.8807175436,
				"element": "C" 
			},
			{
				"x": 0.8412796328,
				"y": 0.8801016222,
				"z": 0.352180183,
				"element": "C" 
			},
			{
				"x": -1.3535121303,
				"y": -0.6885103805,
				"z": -1.7264132613,
				"element": "C" 
			},
			{
				"x": -2.5153897478,
				"y": -0.3315775116,
				"z": -2.3244681362,
				"element": "O" 
			},
			{
				"x": -0.2763174682,
				"y": -0.5665152072,
				"z": -2.2636423358,
				"element": "O" 
			},
			{
				"x": -4.1217945423,
				"y": -2.4622491424,
				"z": -0.5031591474,
				"element": "H" 
			},
			{
				"x": -3.5878229787,
				"y": -4.104987288,
				"z": -0.88818177,
				"element": "H" 
			},
			{
				"x": -3.3534104413,
				"y": -2.8004308886,
				"z": -2.0586467061,
				"element": "H" 
			},
			{
				"x": -2.0058378906,
				"y": -3.0474909163,
				"z": 0.6940338143,
				"element": "H" 
			},
			{
				"x": -1.0659883109,
				"y": -4.680062268,
				"z": -0.9062036518,
				"element": "H" 
			},
			{
				"x": -0.7777125078,
				"y": -3.4072888902,
				"z": -2.1004723642,
				"element": "H" 
			},
			{
				"x": 0.1198665925,
				"y": -3.403207062,
				"z": -0.5757937326,
				"element": "H" 
			},
			{
				"x": -2.4435857756,
				"y": -0.7207765938,
				"z": 0.1174708549,
				"element": "H" 
			},
			{
				"x": -0.8860968027,
				"y": 2.1897971798,
				"z": 3.5667758766,
				"element": "H" 
			},
			{
				"x": 0.8606788555,
				"y": 3.5604691701,
				"z": 2.4507481307,
				"element": "H" 
			},
			{
				"x": 1.9746267561,
				"y": 2.7057936576,
				"z": 0.3901757049,
				"element": "H" 
			},
			{
				"x": 1.2990598133,
				"y": 0.4830903377,
				"z": -0.5464195992,
				"element": "H" 
			},
			{
				"x": -2.2777422862,
				"y": -0.0113255771,
				"z": -3.2116389426,
				"element": "H" 
			}
		],
		 "valence_orbital": [ 
			{
				"type": "occ",
				"energy": -0.29551,
				"method": "rhf"
			},
			{
				"type": "occ",
				"energy": -0.28709,
				"method": "rhf"
			},
			{
				"type": "occ",
				"energy": -0.27516,
				"method": "rhf"
			},
			{
				"type": "occ",
				"energy": -0.25312,
				"method": "rhf"
			},
			{
				"type": "occ",
				"energy": -0.24032,
				"method": "rhf"
			},
			{
				"type": "unocc",
				"energy": -0.01398,
				"method": "rhf"
			},
			{
				"type": "unocc",
				"energy": -0.00938,
				"method": "rhf"
			},
			{
				"type": "unocc",
				"energy": -0.00471,
				"method": "rhf"
			},
			{
				"type": "unocc",
				"energy": 0.00686,
				"method": "rhf"
			},
			{
				"type": "unocc",
				"energy": 0.06877,
				"method": "rhf"
			}
		],
		"cosmo_sigma_profile": { 
			"-0.025": 0.0,
			"-0.024": 0.0,
			"-0.023": 0.0,
			"-0.022": 0.0,
			"-0.021": 0.0,
			"-0.02": 0.0,
			"-0.019": 0.292708642265,
			"-0.018": 0.740493405525,
			"-0.017": 0.943350823266,
			"-0.016": 1.34712623905,
			"-0.015": 0.454228971279,
			"-0.014": 0.322886802856,
			"-0.013": 0.651532483394,
			"-0.012": 0.682432745919,
			"-0.011": 1.18664659501,
			"-0.01": 0.413753255742,
			"-0.009": 0.349837130157,
			"-0.008": 1.09825080461,
			"-0.007": 4.0387739875,
			"-0.006": 9.01784807768,
			"-0.005": 11.8924861194,
			"-0.004": 16.6268471688,
			"-0.003": 22.9477331767,
			"-0.002": 23.151497285,
			"-0.001": 22.7441812879,
			"0.0": 24.6476118531,
			"0.001": 27.3614605923,
			"0.002": 21.3785265479,
			"0.003": 21.7846757406,
			"0.004": 19.587546862,
			"0.005": 7.1919699409,
			"0.006": 5.39937850506,
			"0.007": 4.78229398238,
			"0.008": 4.33100451425,
			"0.009": 3.81612293663,
			"0.01": 2.63651212723,
			"0.011": 3.68876538949,
			"0.012": 0.824526867938,
			"0.013": 0.0,
			"0.014": 0.0,
			"0.015": 0.0,
			"0.016": 0.0,
			"0.017": 0.0,
			"0.018": 0.0,
			"0.019": 0.0,
			"0.02": 0.0,
			"0.021": 0.0,
			"0.022": 0.0,
			"0.023": 0.0,
			"0.024": 0.0,
			"0.025": 0.0
		}
	}
}
