{
	 "smiles": "CC1=C(C=CC(=C1)C(O)=O)N1CCNC1=O", 
	 "Tm": 553.15, 
	 "num_atms": 28, 
	 "gaussian": { 
		 "optdone": 1, 
		 "sigma_profile": "yes", 
		 "theory": "DFT", 
		 "functional": "B3LYP", 
		 "basiset": "6-31G**", 
		 "properties": { 
			 "R2extent": 5073.9543, 
			 "electric_dipole_moment_norm": 7.65109212204, 
			 "electric_quadrupole_moment_norm": 23.6381773291, 
			 "total_energy": -761.612374049, 
			 "HOMO_LUMO_gap": 0.18757, 
			 "cosmo_polarized_energy": -22.89, 
			 "cosmo_cavitation_energy": 31.34, 
			 "cosmo_dispersion_energy": -22.92, 
			 "cosmo_repulsion_energy": 1.78, 
			 "cosmo_total_nonelectrostatic_energy": 10.2, 
			 "SMD_solvation_energy": 5.95 
		},
		"coords": [
			{
				"x": 2.293772297,
				"y": 1.1273220408,
				"z": -0.6520156105,
				"element": "C" 
			},
			{
				"x": 1.2725257886,
				"y": 0.15134114,
				"z": -1.1766390575,
				"element": "C" 
			},
			{
				"x": -0.0859451933,
				"y": 0.4986191179,
				"z": -1.3511774319,
				"element": "C" 
			},
			{
				"x": -0.9841515828,
				"y": -0.4299013199,
				"z": -1.8997917291,
				"element": "C" 
			},
			{
				"x": -0.5666151326,
				"y": -1.7036190388,
				"z": -2.2591428615,
				"element": "C" 
			},
			{
				"x": 0.7718351014,
				"y": -2.0731623681,
				"z": -2.0869996589,
				"element": "C" 
			},
			{
				"x": 1.6631094981,
				"y": -1.1415634054,
				"z": -1.5404345261,
				"element": "C" 
			},
			{
				"x": 1.1675214378,
				"y": -3.4612369738,
				"z": -2.4862633275,
				"element": "C" 
			},
			{
				"x": 2.4960401448,
				"y": -3.6981859639,
				"z": -2.6641825515,
				"element": "O" 
			},
			{
				"x": 0.3711354994,
				"y": -4.3550890679,
				"z": -2.6569882162,
				"element": "O" 
			},
			{
				"x": -0.5457544989,
				"y": 1.8002104469,
				"z": -1.0232062384,
				"element": "N" 
			},
			{
				"x": -1.5561314621,
				"y": 2.5044391354,
				"z": -1.8181535288,
				"element": "C" 
			},
			{
				"x": -1.6266503519,
				"y": 3.8637115615,
				"z": -1.1002934291,
				"element": "C" 
			},
			{
				"x": -1.3113341785,
				"y": 3.4628696576,
				"z": 0.2632767411,
				"element": "N" 
			},
			{
				"x": -0.51676668,
				"y": 2.3257489736,
				"z": 0.2795366021,
				"element": "C" 
			},
			{
				"x": 0.071514693,
				"y": 1.8687936382,
				"z": 1.2424108109,
				"element": "O" 
			},
			{
				"x": 3.3077611955,
				"y": 0.7719405459,
				"z": -0.8543990914,
				"element": "H" 
			},
			{
				"x": 2.1720464427,
				"y": 2.1076038631,
				"z": -1.1253905009,
				"element": "H" 
			},
			{
				"x": 2.1739273934,
				"y": 1.2781844762,
				"z": 0.4237142029,
				"element": "H" 
			},
			{
				"x": -2.0257882072,
				"y": -0.1552427615,
				"z": -2.0286481798,
				"element": "H" 
			},
			{
				"x": -1.26154632,
				"y": -2.4295945683,
				"z": -2.6661797608,
				"element": "H" 
			},
			{
				"x": 2.7026559155,
				"y": -1.4119332865,
				"z": -1.3647165304,
				"element": "H" 
			},
			{
				"x": 2.9887369653,
				"y": -2.8665413777,
				"z": -2.6429468057,
				"element": "H" 
			},
			{
				"x": -2.5327473996,
				"y": 2.0026790295,
				"z": -1.7748250837,
				"element": "H" 
			},
			{
				"x": -1.2501073708,
				"y": 2.5870616915,
				"z": -2.8637527215,
				"element": "H" 
			},
			{
				"x": -0.8856280461,
				"y": 4.5644223673,
				"z": -1.5126987772,
				"element": "H" 
			},
			{
				"x": -2.6181825434,
				"y": 4.3178372884,
				"z": -1.1760969766,
				"element": "H" 
			},
			{
				"x": -1.1387334054,
				"y": 4.1410851579,
				"z": 0.9910042381,
				"element": "H" 
			}
		],
		 "valence_orbital": [ 
			{
				"type": "occ",
				"energy": -0.27481,
				"method": "rhf"
			},
			{
				"type": "occ",
				"energy": -0.26761,
				"method": "rhf"
			},
			{
				"type": "occ",
				"energy": -0.26367,
				"method": "rhf"
			},
			{
				"type": "occ",
				"energy": -0.25928,
				"method": "rhf"
			},
			{
				"type": "occ",
				"energy": -0.23473,
				"method": "rhf"
			},
			{
				"type": "unocc",
				"energy": -0.04716,
				"method": "rhf"
			},
			{
				"type": "unocc",
				"energy": -0.01594,
				"method": "rhf"
			},
			{
				"type": "unocc",
				"energy": 0.03926,
				"method": "rhf"
			},
			{
				"type": "unocc",
				"energy": 0.05319,
				"method": "rhf"
			},
			{
				"type": "unocc",
				"energy": 0.06393,
				"method": "rhf"
			}
		],
		"cosmo_sigma_profile": { 
			"-0.025": 0.0,
			"-0.024": 0.0,
			"-0.023": 0.0,
			"-0.022": 0.0,
			"-0.021": 0.0,
			"-0.02": 0.0,
			"-0.019": 0.208399708949,
			"-0.018": 0.699625361647,
			"-0.017": 0.742237899544,
			"-0.016": 1.4301421542,
			"-0.015": 0.676319294321,
			"-0.014": 1.63332680607,
			"-0.013": 2.15585758995,
			"-0.012": 2.22095457815,
			"-0.011": 2.68096557355,
			"-0.01": 1.52450800359,
			"-0.009": 2.35059554356,
			"-0.008": 3.26282199355,
			"-0.007": 6.32393719942,
			"-0.006": 13.38838017,
			"-0.005": 21.0865143485,
			"-0.004": 20.9058688509,
			"-0.003": 17.8083656839,
			"-0.002": 13.4328763549,
			"-0.001": 16.1039228498,
			"0.0": 16.9676676696,
			"0.001": 12.8713728737,
			"0.002": 13.1485506703,
			"0.003": 14.9947920606,
			"0.004": 7.55967267005,
			"0.005": 4.08151637113,
			"0.006": 5.57830082598,
			"0.007": 5.08097521329,
			"0.008": 5.16110965314,
			"0.009": 5.77343247604,
			"0.01": 5.30502502141,
			"0.011": 6.58317351475,
			"0.012": 7.36748728693,
			"0.013": 5.8470403366,
			"0.014": 3.31361014563,
			"0.015": 0.33490962063,
			"0.016": 0.0,
			"0.017": 0.0,
			"0.018": 0.0,
			"0.019": 0.0,
			"0.02": 0.0,
			"0.021": 0.0,
			"0.022": 0.0,
			"0.023": 0.0,
			"0.024": 0.0,
			"0.025": 0.0
		}
	}
}
