{
	 "smiles": "OC1=CC2=CC=CC=C2C(O)=C1", 
	 "Tm": 397.15, 
	 "num_atms": 20, 
	 "gaussian": { 
		 "optdone": 1, 
		 "sigma_profile": "yes", 
		 "theory": "DFT", 
		 "functional": "B3LYP", 
		 "basiset": "6-31G**", 
		 "properties": { 
			 "R2extent": 2805.792, 
			 "electric_dipole_moment_norm": 2.70105282066, 
			 "electric_quadrupole_moment_norm": 16.1174142104, 
			 "total_energy": -536.334688287, 
			 "HOMO_LUMO_gap": 0.16582, 
			 "cosmo_polarized_energy": -14.27, 
			 "cosmo_cavitation_energy": 23.84, 
			 "cosmo_dispersion_energy": -18.11, 
			 "cosmo_repulsion_energy": 1.41, 
			 "cosmo_total_nonelectrostatic_energy": 7.14, 
			 "SMD_solvation_energy": 4.49 
		},
		"coords": [
			{
				"x": 0.300591249,
				"y": 3.1549652682,
				"z": 0.6152920606,
				"element": "O" 
			},
			{
				"x": -0.4578514355,
				"y": 2.032892986,
				"z": 0.4266957578,
				"element": "C" 
			},
			{
				"x": -0.8098107821,
				"y": 1.6901293719,
				"z": -0.8605004851,
				"element": "C" 
			},
			{
				"x": -1.5954336915,
				"y": 0.533399759,
				"z": -1.0946075911,
				"element": "C" 
			},
			{
				"x": -1.9830064616,
				"y": 0.140061823,
				"z": -2.4057688917,
				"element": "C" 
			},
			{
				"x": -2.7461573733,
				"y": -0.9864584518,
				"z": -2.6146265611,
				"element": "C" 
			},
			{
				"x": -3.1658687757,
				"y": -1.7849097873,
				"z": -1.5232905436,
				"element": "C" 
			},
			{
				"x": -2.8111432667,
				"y": -1.4374360189,
				"z": -0.2384792909,
				"element": "C" 
			},
			{
				"x": -2.0254801139,
				"y": -0.2817648092,
				"z": 0.0037282086,
				"element": "C" 
			},
			{
				"x": -1.6374029402,
				"y": 0.1117312894,
				"z": 1.3192069354,
				"element": "C" 
			},
			{
				"x": -2.0630184763,
				"y": -0.6854409409,
				"z": 2.3429400634,
				"element": "O" 
			},
			{
				"x": -0.8723550425,
				"y": 1.2410172374,
				"z": 1.5276875563,
				"element": "C" 
			},
			{
				"x": 0.4701674298,
				"y": 3.2720098441,
				"z": 1.5582625544,
				"element": "H" 
			},
			{
				"x": -0.4811421057,
				"y": 2.3110990821,
				"z": -1.686860023,
				"element": "H" 
			},
			{
				"x": -1.6627284685,
				"y": 0.750447516,
				"z": -3.2460480041,
				"element": "H" 
			},
			{
				"x": -3.0297212542,
				"y": -1.2666339236,
				"z": -3.6254280323,
				"element": "H" 
			},
			{
				"x": -3.7676180814,
				"y": -2.6711212445,
				"z": -1.7016650199,
				"element": "H" 
			},
			{
				"x": -3.1255790165,
				"y": -2.0396276544,
				"z": 0.6067502266,
				"element": "H" 
			},
			{
				"x": -1.7443759649,
				"y": -0.3262691663,
				"z": 3.1806922254,
				"element": "H" 
			},
			{
				"x": -0.5850654283,
				"y": 1.5267078199,
				"z": 2.5391188543,
				"element": "H" 
			}
		],
		 "valence_orbital": [ 
			{
				"type": "occ",
				"energy": -0.3305,
				"method": "rhf"
			},
			{
				"type": "occ",
				"energy": -0.28903,
				"method": "rhf"
			},
			{
				"type": "occ",
				"energy": -0.26146,
				"method": "rhf"
			},
			{
				"type": "occ",
				"energy": -0.2309,
				"method": "rhf"
			},
			{
				"type": "occ",
				"energy": -0.19271,
				"method": "rhf"
			},
			{
				"type": "unocc",
				"energy": -0.02689,
				"method": "rhf"
			},
			{
				"type": "unocc",
				"energy": 0.00211,
				"method": "rhf"
			},
			{
				"type": "unocc",
				"energy": 0.04777,
				"method": "rhf"
			},
			{
				"type": "unocc",
				"energy": 0.05953,
				"method": "rhf"
			},
			{
				"type": "unocc",
				"energy": 0.06788,
				"method": "rhf"
			}
		],
		"cosmo_sigma_profile": { 
			"-0.025": 0.0,
			"-0.024": 0.0,
			"-0.023": 0.0,
			"-0.022": 0.0,
			"-0.021": 0.0,
			"-0.02": 0.0,
			"-0.019": 0.0,
			"-0.018": 1.16957755659,
			"-0.017": 2.11596948018,
			"-0.016": 2.49934067377,
			"-0.015": 2.36301569593,
			"-0.014": 2.24013118239,
			"-0.013": 1.73367228325,
			"-0.012": 1.33820783998,
			"-0.011": 2.23308225132,
			"-0.01": 2.44242370369,
			"-0.009": 2.57323226697,
			"-0.008": 2.0085656481,
			"-0.007": 1.74423393659,
			"-0.006": 3.84258196121,
			"-0.005": 11.5966762053,
			"-0.004": 10.2487952245,
			"-0.003": 11.3527997796,
			"-0.002": 7.73548866131,
			"-0.001": 8.17604286929,
			"0.0": 8.26022061602,
			"0.001": 7.55766510289,
			"0.002": 10.3544586494,
			"0.003": 16.5910316447,
			"0.004": 21.601462939,
			"0.005": 22.2339987275,
			"0.006": 10.9881877867,
			"0.007": 3.47338609016,
			"0.008": 3.2591972535,
			"0.009": 3.49443800473,
			"0.01": 2.17515173343,
			"0.011": 2.05528612157,
			"0.012": 0.913197896438,
			"0.013": 0.0,
			"0.014": 0.0,
			"0.015": 0.0,
			"0.016": 0.0,
			"0.017": 0.0,
			"0.018": 0.0,
			"0.019": 0.0,
			"0.02": 0.0,
			"0.021": 0.0,
			"0.022": 0.0,
			"0.023": 0.0,
			"0.024": 0.0,
			"0.025": 0.0
		}
	}
}
