{
	 "smiles": "CNN=C(N)C(S)=NNC", 
	 "Tm": 458.15, 
	 "num_atms": 21, 
	 "gaussian": { 
		 "optdone": 1, 
		 "sigma_profile": "yes", 
		 "theory": "DFT", 
		 "functional": "B3LYP", 
		 "basiset": "6-31G**", 
		 "properties": { 
			 "R2extent": 2696.5695, 
			 "electric_dipole_moment_norm": 2.76856597718, 
			 "electric_quadrupole_moment_norm": 8.98836825291, 
			 "total_energy": -830.915613301, 
			 "HOMO_LUMO_gap": 0.17256, 
			 "cosmo_polarized_energy": -12.29, 
			 "cosmo_cavitation_energy": 26.12, 
			 "cosmo_dispersion_energy": -19.41, 
			 "cosmo_repulsion_energy": 1.61, 
			 "cosmo_total_nonelectrostatic_energy": 8.32, 
			 "SMD_solvation_energy": 3.47 
		},
		"coords": [
			{
				"x": -2.4100827437,
				"y": 1.0333960492,
				"z": 0.4669076806,
				"element": "C" 
			},
			{
				"x": -1.5017885922,
				"y": 0.1694056244,
				"z": -0.2937711747,
				"element": "N" 
			},
			{
				"x": -1.8701802285,
				"y": -1.2114089543,
				"z": -0.0706657674,
				"element": "N" 
			},
			{
				"x": -0.9482784037,
				"y": -1.8700336068,
				"z": 0.5491442134,
				"element": "C" 
			},
			{
				"x": -1.1714653478,
				"y": -3.1919037881,
				"z": 0.8613982512,
				"element": "N" 
			},
			{
				"x": 0.3962255509,
				"y": -1.3599603972,
				"z": 0.9672318179,
				"element": "C" 
			},
			{
				"x": 1.2290577554,
				"y": -0.1364035093,
				"z": -0.0464259349,
				"element": "S" 
			},
			{
				"x": 0.8871091431,
				"y": -1.881959589,
				"z": 2.038152882,
				"element": "N" 
			},
			{
				"x": 2.1090952969,
				"y": -1.5068668026,
				"z": 2.494713113,
				"element": "N" 
			},
			{
				"x": 2.3506484806,
				"y": -1.8640925094,
				"z": 3.8869924819,
				"element": "C" 
			},
			{
				"x": -2.1788940771,
				"y": 0.9515247702,
				"z": 1.5332013215,
				"element": "H" 
			},
			{
				"x": -3.4698738012,
				"y": 0.77373259,
				"z": 0.3247122503,
				"element": "H" 
			},
			{
				"x": -2.2451507636,
				"y": 2.0704656479,
				"z": 0.1580194894,
				"element": "H" 
			},
			{
				"x": -1.6822845975,
				"y": 0.3301554301,
				"z": -1.2835846111,
				"element": "H" 
			},
			{
				"x": -2.1451133874,
				"y": -3.4621213067,
				"z": 0.8560507108,
				"element": "H" 
			},
			{
				"x": -0.6106854209,
				"y": -3.5473958266,
				"z": 1.622396675,
				"element": "H" 
			},
			{
				"x": 2.4561291292,
				"y": -0.7009950274,
				"z": 0.1398190259,
				"element": "H" 
			},
			{
				"x": 2.3522438169,
				"y": -0.5417406617,
				"z": 2.2636190402,
				"element": "H" 
			},
			{
				"x": 1.6782411414,
				"y": -1.3537145098,
				"z": 4.59088108,
				"element": "H" 
			},
			{
				"x": 2.2213157684,
				"y": -2.9423808909,
				"z": 4.003129293,
				"element": "H" 
			},
			{
				"x": 3.3843312809,
				"y": -1.6084027319,
				"z": 4.133878162,
				"element": "H" 
			}
		],
		 "valence_orbital": [ 
			{
				"type": "occ",
				"energy": -0.28671,
				"method": "rhf"
			},
			{
				"type": "occ",
				"energy": -0.269,
				"method": "rhf"
			},
			{
				"type": "occ",
				"energy": -0.22602,
				"method": "rhf"
			},
			{
				"type": "occ",
				"energy": -0.21719,
				"method": "rhf"
			},
			{
				"type": "occ",
				"energy": -0.1976,
				"method": "rhf"
			},
			{
				"type": "unocc",
				"energy": -0.02504,
				"method": "rhf"
			},
			{
				"type": "unocc",
				"energy": 0.04433,
				"method": "rhf"
			},
			{
				"type": "unocc",
				"energy": 0.05374,
				"method": "rhf"
			},
			{
				"type": "unocc",
				"energy": 0.08964,
				"method": "rhf"
			},
			{
				"type": "unocc",
				"energy": 0.09777,
				"method": "rhf"
			}
		],
		"cosmo_sigma_profile": { 
			"-0.025": 0.0,
			"-0.024": 0.0,
			"-0.023": 0.0,
			"-0.022": 0.0,
			"-0.021": 0.0,
			"-0.02": 0.0,
			"-0.019": 0.0,
			"-0.018": 0.0,
			"-0.017": 0.0,
			"-0.016": 0.0,
			"-0.015": 0.0,
			"-0.014": 0.0,
			"-0.013": 0.378626043245,
			"-0.012": 1.19798775354,
			"-0.011": 3.0626830899,
			"-0.01": 4.63631434129,
			"-0.009": 4.17688065652,
			"-0.008": 5.71355511757,
			"-0.007": 5.165743382,
			"-0.006": 6.50636624541,
			"-0.005": 8.63755990552,
			"-0.004": 15.1300501612,
			"-0.003": 15.0181391281,
			"-0.002": 18.9180290961,
			"-0.001": 18.1427929937,
			"0.0": 15.2091487506,
			"0.001": 9.52808569994,
			"0.002": 9.97095295845,
			"0.003": 10.0324175168,
			"0.004": 9.51608910714,
			"0.005": 9.15297665081,
			"0.006": 8.07456577955,
			"0.007": 7.78150041549,
			"0.008": 7.38074305371,
			"0.009": 4.08267214282,
			"0.01": 2.53761546032,
			"0.011": 1.96613923835,
			"0.012": 1.14338707536,
			"0.013": 0.95044393662,
			"0.014": 0.532715599661,
			"0.015": 1.14726539748,
			"0.016": 0.607662354127,
			"0.017": 0.672670496111,
			"0.018": 0.0372743385206,
			"0.019": 0.0,
			"0.02": 0.0,
			"0.021": 0.0,
			"0.022": 0.0,
			"0.023": 0.0,
			"0.024": 0.0,
			"0.025": 0.0
		}
	}
}
