{
	 "smiles": "CC1=C(OC2=C1C=CC=C2)C(Cl)=O", 
	 "Tm": 345.15, 
	 "num_atms": 20, 
	 "gaussian": { 
		 "optdone": 1, 
		 "sigma_profile": "yes", 
		 "theory": "DFT", 
		 "functional": "B3LYP", 
		 "basiset": "6-31G**", 
		 "properties": { 
			 "R2extent": 4786.0575, 
			 "electric_dipole_moment_norm": 4.96058195276, 
			 "electric_quadrupole_moment_norm": 21.1693890186, 
			 "total_energy": -995.92274101, 
			 "HOMO_LUMO_gap": 0.16106, 
			 "cosmo_polarized_energy": -8.21, 
			 "cosmo_cavitation_energy": 26.33, 
			 "cosmo_dispersion_energy": -19.58, 
			 "cosmo_repulsion_energy": 1.53, 
			 "cosmo_total_nonelectrostatic_energy": 8.28, 
			 "SMD_solvation_energy": 5.48 
		},
		"coords": [
			{
				"x": -1.7665423087,
				"y": 1.7615876663,
				"z": 0.965148719,
				"element": "C" 
			},
			{
				"x": -0.2940658078,
				"y": 1.6123083531,
				"z": 1.2025020745,
				"element": "C" 
			},
			{
				"x": 0.6172282489,
				"y": 2.4837196764,
				"z": 1.7655027598,
				"element": "C" 
			},
			{
				"x": 1.8937060997,
				"y": 1.9447514281,
				"z": 1.7943880451,
				"element": "O" 
			},
			{
				"x": 1.8002224305,
				"y": 0.7110244651,
				"z": 1.242505349,
				"element": "C" 
			},
			{
				"x": 0.4740799664,
				"y": 0.4440746897,
				"z": 0.855461248,
				"element": "C" 
			},
			{
				"x": 0.171487224,
				"y": -0.7943351416,
				"z": 0.2586030217,
				"element": "C" 
			},
			{
				"x": 1.2028668885,
				"y": -1.7044928089,
				"z": 0.07692558,
				"element": "C" 
			},
			{
				"x": 2.5240619764,
				"y": -1.4048926641,
				"z": 0.4770972632,
				"element": "C" 
			},
			{
				"x": 2.8493880946,
				"y": -0.1890466434,
				"z": 1.0688304418,
				"element": "C" 
			},
			{
				"x": 0.5717851423,
				"y": 3.8221028196,
				"z": 2.3339597434,
				"element": "C" 
			},
			{
				"x": -1.094397589,
				"y": 4.577414442,
				"z": 2.3181936746,
				"element": "Cl" 
			},
			{
				"x": 1.4943284471,
				"y": 4.4314320894,
				"z": 2.7862563544,
				"element": "O" 
			},
			{
				"x": -2.1639617255,
				"y": 0.8589458514,
				"z": 0.4953334365,
				"element": "H" 
			},
			{
				"x": -1.9846931635,
				"y": 2.6116997359,
				"z": 0.3132036803,
				"element": "H" 
			},
			{
				"x": -2.3096048264,
				"y": 1.9294360177,
				"z": 1.8990639808,
				"element": "H" 
			},
			{
				"x": -0.8407808459,
				"y": -1.0336249387,
				"z": -0.0522763553,
				"element": "H" 
			},
			{
				"x": 0.9957139882,
				"y": -2.6666284996,
				"z": -0.381068621,
				"element": "H" 
			},
			{
				"x": 3.3046834169,
				"y": -2.1426846402,
				"z": 0.3184424185,
				"element": "H" 
			},
			{
				"x": 3.8584943432,
				"y": 0.0548081021,
				"z": 1.380927186,
				"element": "H" 
			}
		],
		 "valence_orbital": [ 
			{
				"type": "occ",
				"energy": -0.31957,
				"method": "rhf"
			},
			{
				"type": "occ",
				"energy": -0.30627,
				"method": "rhf"
			},
			{
				"type": "occ",
				"energy": -0.2931,
				"method": "rhf"
			},
			{
				"type": "occ",
				"energy": -0.2568,
				"method": "rhf"
			},
			{
				"type": "occ",
				"energy": -0.2436,
				"method": "rhf"
			},
			{
				"type": "unocc",
				"energy": -0.08254,
				"method": "rhf"
			},
			{
				"type": "unocc",
				"energy": -0.01069,
				"method": "rhf"
			},
			{
				"type": "unocc",
				"energy": 0.00324,
				"method": "rhf"
			},
			{
				"type": "unocc",
				"energy": 0.01806,
				"method": "rhf"
			},
			{
				"type": "unocc",
				"energy": 0.06819,
				"method": "rhf"
			}
		],
		"cosmo_sigma_profile": { 
			"-0.025": 0.0,
			"-0.024": 0.0,
			"-0.023": 0.0,
			"-0.022": 0.0,
			"-0.021": 0.0,
			"-0.02": 0.0,
			"-0.019": 0.0,
			"-0.018": 0.0,
			"-0.017": 0.0,
			"-0.016": 0.0,
			"-0.015": 0.0,
			"-0.014": 0.0,
			"-0.013": 0.0,
			"-0.012": 0.0,
			"-0.011": 0.0,
			"-0.01": 0.0,
			"-0.009": 0.0,
			"-0.008": 1.47745677302,
			"-0.007": 6.44080029734,
			"-0.006": 9.96643717804,
			"-0.005": 13.744972274,
			"-0.004": 15.6416613725,
			"-0.003": 16.6563460808,
			"-0.002": 20.0454211862,
			"-0.001": 21.5403495073,
			"0.0": 16.8167182181,
			"0.001": 17.3759258095,
			"0.002": 15.2311591671,
			"0.003": 16.2307439407,
			"0.004": 15.148931671,
			"0.005": 7.09656118623,
			"0.006": 3.08896331349,
			"0.007": 3.94909803624,
			"0.008": 4.433987463,
			"0.009": 6.91071426515,
			"0.01": 2.23112623336,
			"0.011": 0.0,
			"0.012": 0.0,
			"0.013": 0.0,
			"0.014": 0.0,
			"0.015": 0.0,
			"0.016": 0.0,
			"0.017": 0.0,
			"0.018": 0.0,
			"0.019": 0.0,
			"0.02": 0.0,
			"0.021": 0.0,
			"0.022": 0.0,
			"0.023": 0.0,
			"0.024": 0.0,
			"0.025": 0.0
		}
	}
}
