{
	 "smiles": "OC1(CC2=CC(F)=CC=C2)CCNC1", 
	 "Tm": 333.15, 
	 "num_atms": 28, 
	 "gaussian": { 
		 "optdone": 1, 
		 "sigma_profile": "yes", 
		 "theory": "DFT", 
		 "functional": "B3LYP", 
		 "basiset": "6-31G**", 
		 "properties": { 
			 "R2extent": 3624.2398, 
			 "electric_dipole_moment_norm": 2.26566223873, 
			 "electric_quadrupole_moment_norm": 8.54682793029, 
			 "total_energy": -657.409883855, 
			 "HOMO_LUMO_gap": 0.20585, 
			 "cosmo_polarized_energy": -9.71, 
			 "cosmo_cavitation_energy": 30.1, 
			 "cosmo_dispersion_energy": -21.5, 
			 "cosmo_repulsion_energy": 1.66, 
			 "cosmo_total_nonelectrostatic_energy": 10.26, 
			 "SMD_solvation_energy": 1.85 
		},
		"coords": [
			{
				"x": -0.3418130741,
				"y": -2.4321810598,
				"z": -0.173235903,
				"element": "O" 
			},
			{
				"x": -0.2652938665,
				"y": -1.3715828408,
				"z": 0.7888321695,
				"element": "C" 
			},
			{
				"x": -1.2631865845,
				"y": -0.2449994376,
				"z": 0.4367897362,
				"element": "C" 
			},
			{
				"x": -1.0219136032,
				"y": 0.3938558757,
				"z": -0.9140152712,
				"element": "C" 
			},
			{
				"x": -1.4729561648,
				"y": -0.2384340622,
				"z": -2.083709303,
				"element": "C" 
			},
			{
				"x": -1.2158342233,
				"y": 0.3437888702,
				"z": -3.3199305932,
				"element": "C" 
			},
			{
				"x": -1.6611701531,
				"y": -0.2771416106,
				"z": -4.4331558844,
				"element": "F" 
			},
			{
				"x": -0.5221819209,
				"y": 1.540981054,
				"z": -3.4497776379,
				"element": "C" 
			},
			{
				"x": -0.0785675208,
				"y": 2.1702444445,
				"z": -2.2856180129,
				"element": "C" 
			},
			{
				"x": -0.3236949996,
				"y": 1.6049414511,
				"z": -1.0332781309,
				"element": "C" 
			},
			{
				"x": 1.206008576,
				"y": -0.9192598799,
				"z": 0.9804238797,
				"element": "C" 
			},
			{
				"x": 1.7427324783,
				"y": -1.828291269,
				"z": 2.1327691804,
				"element": "C" 
			},
			{
				"x": 0.6639804269,
				"y": -2.7653672831,
				"z": 2.5055100898,
				"element": "N" 
			},
			{
				"x": -0.5646676271,
				"y": -2.0563437124,
				"z": 2.1394973977,
				"element": "C" 
			},
			{
				"x": -0.0142424293,
				"y": -2.0893196131,
				"z": -1.0161985848,
				"element": "H" 
			},
			{
				"x": -1.2197365058,
				"y": 0.5200917472,
				"z": 1.2199943058,
				"element": "H" 
			},
			{
				"x": -2.2698098937,
				"y": -0.678568421,
				"z": 0.4617772836,
				"element": "H" 
			},
			{
				"x": -2.0351536916,
				"y": -1.1654713022,
				"z": -2.0384115077,
				"element": "H" 
			},
			{
				"x": -0.3494343632,
				"y": 1.9605748701,
				"z": -4.4346626173,
				"element": "H" 
			},
			{
				"x": 0.458741091,
				"y": 3.1112949496,
				"z": -2.3582302197,
				"element": "H" 
			},
			{
				"x": 0.0216521303,
				"y": 2.112526162,
				"z": -0.1370808561,
				"element": "H" 
			},
			{
				"x": 1.7716498363,
				"y": -1.0377870302,
				"z": 0.0511726819,
				"element": "H" 
			},
			{
				"x": 1.2613124596,
				"y": 0.1389678575,
				"z": 1.2561195448,
				"element": "H" 
			},
			{
				"x": 2.6453164694,
				"y": -2.3812924258,
				"z": 1.859303778,
				"element": "H" 
			},
			{
				"x": 1.9938179262,
				"y": -1.2125757903,
				"z": 3.0050607676,
				"element": "H" 
			},
			{
				"x": 0.7253469139,
				"y": -3.5696912563,
				"z": 1.884180592,
				"element": "H" 
			},
			{
				"x": -1.414698761,
				"y": -2.7399126792,
				"z": 2.0679506427,
				"element": "H" 
			},
			{
				"x": -0.7903029254,
				"y": -1.2968476083,
				"z": 2.9005224723,
				"element": "H" 
			}
		],
		 "valence_orbital": [ 
			{
				"type": "occ",
				"energy": -0.31804,
				"method": "rhf"
			},
			{
				"type": "occ",
				"energy": -0.27509,
				"method": "rhf"
			},
			{
				"type": "occ",
				"energy": -0.2584,
				"method": "rhf"
			},
			{
				"type": "occ",
				"energy": -0.2456,
				"method": "rhf"
			},
			{
				"type": "occ",
				"energy": -0.22229,
				"method": "rhf"
			},
			{
				"type": "unocc",
				"energy": -0.01644,
				"method": "rhf"
			},
			{
				"type": "unocc",
				"energy": -0.00425,
				"method": "rhf"
			},
			{
				"type": "unocc",
				"energy": 0.07001,
				"method": "rhf"
			},
			{
				"type": "unocc",
				"energy": 0.085,
				"method": "rhf"
			},
			{
				"type": "unocc",
				"energy": 0.10007,
				"method": "rhf"
			}
		],
		"cosmo_sigma_profile": { 
			"-0.025": 0.0,
			"-0.024": 0.0,
			"-0.023": 0.0,
			"-0.022": 0.0,
			"-0.021": 0.0,
			"-0.02": 0.0,
			"-0.019": 0.0,
			"-0.018": 0.0,
			"-0.017": 0.0,
			"-0.016": 0.0,
			"-0.015": 0.0,
			"-0.014": 0.0,
			"-0.013": 0.0914371579349,
			"-0.012": 0.589470060735,
			"-0.011": 0.915006444723,
			"-0.01": 0.485907682407,
			"-0.009": 1.58571225153,
			"-0.008": 2.01864309272,
			"-0.007": 3.23704287491,
			"-0.006": 8.15622000911,
			"-0.005": 12.4188589484,
			"-0.004": 25.8392698927,
			"-0.003": 23.9942533307,
			"-0.002": 24.2137767649,
			"-0.001": 20.3305805804,
			"0.0": 17.543333289,
			"0.001": 15.9082091979,
			"0.002": 15.4695074119,
			"0.003": 12.6110395787,
			"0.004": 18.9381095632,
			"0.005": 12.7894683468,
			"0.006": 1.77171887372,
			"0.007": 1.95402722454,
			"0.008": 1.83357008062,
			"0.009": 1.63486030598,
			"0.01": 1.97729565297,
			"0.011": 1.47640194081,
			"0.012": 1.83557110292,
			"0.013": 2.00624011541,
			"0.014": 1.13666065711,
			"0.015": 0.51287984381,
			"0.016": 0.884591159079,
			"0.017": 0.383549426715,
			"0.018": 0.8438409741,
			"0.019": 0.450848976615,
			"0.02": 0.0,
			"0.021": 0.0,
			"0.022": 0.0,
			"0.023": 0.0,
			"0.024": 0.0,
			"0.025": 0.0
		}
	}
}
