{
	 "smiles": "CS[C@H]1C(=O)[C@@H]2CC[C@]3(C)[C@H](CC[C@]13[C@H]2Cl)OC(C)(C)C", 
	 "Tm": 381.65, 
	 "num_atms": 48, 
	 "gaussian": { 
		 "optdone": 1, 
		 "sigma_profile": "yes", 
		 "theory": "DFT", 
		 "functional": "B3LYP", 
		 "basiset": "6-31G**", 
		 "properties": { 
			 "R2extent": 7433.9085, 
			 "electric_dipole_moment_norm": 3.01837287458, 
			 "electric_quadrupole_moment_norm": 5.79156496553, 
			 "total_energy": -1672.90934914, 
			 "HOMO_LUMO_gap": 0.18598, 
			 "cosmo_polarized_energy": -10.51, 
			 "cosmo_cavitation_energy": 45.44, 
			 "cosmo_dispersion_energy": -31.03, 
			 "cosmo_repulsion_energy": 2.29, 
			 "cosmo_total_nonelectrostatic_energy": 16.7, 
			 "SMD_solvation_energy": 7.24 
		},
		"coords": [
			{
				"x": -0.7236570062,
				"y": 0.8272937805,
				"z": -4.2108793709,
				"element": "C" 
			},
			{
				"x": -1.7216461968,
				"y": 1.2800512545,
				"z": -2.7486089343,
				"element": "S" 
			},
			{
				"x": -0.4319912514,
				"y": 1.1390803961,
				"z": -1.4159881422,
				"element": "C" 
			},
			{
				"x": 0.5747465915,
				"y": 2.2816783276,
				"z": -1.5986381309,
				"element": "C" 
			},
			{
				"x": 1.3952898058,
				"y": 2.3736999792,
				"z": -2.4882479011,
				"element": "O" 
			},
			{
				"x": 0.4125351178,
				"y": 3.2334464456,
				"z": -0.415560608,
				"element": "C" 
			},
			{
				"x": 1.4485636378,
				"y": 2.7660956998,
				"z": 0.6443623531,
				"element": "C" 
			},
			{
				"x": 1.3917593955,
				"y": 1.2361391687,
				"z": 0.8756248246,
				"element": "C" 
			},
			{
				"x": -0.0566956247,
				"y": 0.7615700065,
				"z": 1.1158253435,
				"element": "C" 
			},
			{
				"x": -0.4331408275,
				"y": 1.1007587321,
				"z": 2.5804266813,
				"element": "C" 
			},
			{
				"x": -0.3313345687,
				"y": -0.7583223318,
				"z": 0.9020718586,
				"element": "C" 
			},
			{
				"x": -1.873910701,
				"y": -0.8321162716,
				"z": 0.6907374456,
				"element": "C" 
			},
			{
				"x": -2.3389736402,
				"y": 0.5960794092,
				"z": 0.2866640705,
				"element": "C" 
			},
			{
				"x": -1.0340683953,
				"y": 1.3702378464,
				"z": 0.0307302487,
				"element": "C" 
			},
			{
				"x": -1.0382450429,
				"y": 2.9191368845,
				"z": -0.0074986639,
				"element": "C" 
			},
			{
				"x": -1.631187601,
				"y": 3.830071147,
				"z": 1.4519218006,
				"element": "Cl" 
			},
			{
				"x": 0.1263619893,
				"y": -1.5299395953,
				"z": 2.0016190888,
				"element": "O" 
			},
			{
				"x": 0.7449253854,
				"y": -2.8146657772,
				"z": 1.7662321645,
				"element": "C" 
			},
			{
				"x": 0.9425247427,
				"y": -3.374643675,
				"z": 3.1793397242,
				"element": "C" 
			},
			{
				"x": -0.1725775923,
				"y": -3.7418659286,
				"z": 0.9533346395,
				"element": "C" 
			},
			{
				"x": 2.1068400553,
				"y": -2.6410286277,
				"z": 1.0733447677,
				"element": "C" 
			},
			{
				"x": -1.387375598,
				"y": 0.9332975289,
				"z": -5.071949365,
				"element": "H" 
			},
			{
				"x": 0.1335005165,
				"y": 1.4925880233,
				"z": -4.3159093153,
				"element": "H" 
			},
			{
				"x": -0.3861726861,
				"y": -0.2104646401,
				"z": -4.1442864118,
				"element": "H" 
			},
			{
				"x": 0.0554677476,
				"y": 0.1716802638,
				"z": -1.5492552737,
				"element": "H" 
			},
			{
				"x": 0.5771883103,
				"y": 4.2754448239,
				"z": -0.6971838488,
				"element": "H" 
			},
			{
				"x": 2.4465156396,
				"y": 3.050475909,
				"z": 0.2959777065,
				"element": "H" 
			},
			{
				"x": 1.2634532211,
				"y": 3.3105066349,
				"z": 1.5755720131,
				"element": "H" 
			},
			{
				"x": 1.8289467699,
				"y": 0.7237661846,
				"z": 0.009022954,
				"element": "H" 
			},
			{
				"x": 2.0202008493,
				"y": 0.9658847843,
				"z": 1.7307610614,
				"element": "H" 
			},
			{
				"x": -0.1516165607,
				"y": 2.1162088325,
				"z": 2.8533212326,
				"element": "H" 
			},
			{
				"x": -1.498818627,
				"y": 0.9904502331,
				"z": 2.7901218879,
				"element": "H" 
			},
			{
				"x": 0.1043128457,
				"y": 0.4044450609,
				"z": 3.2272328714,
				"element": "H" 
			},
			{
				"x": 0.183823081,
				"y": -1.0885182711,
				"z": -0.0066984216,
				"element": "H" 
			},
			{
				"x": -2.1365636961,
				"y": -1.5716627602,
				"z": -0.0712626194,
				"element": "H" 
			},
			{
				"x": -2.3354610383,
				"y": -1.1565916701,
				"z": 1.6271982734,
				"element": "H" 
			},
			{
				"x": -2.8882239785,
				"y": 1.0759910056,
				"z": 1.1009064861,
				"element": "H" 
			},
			{
				"x": -2.999632464,
				"y": 0.5883173909,
				"z": -0.5824911904,
				"element": "H" 
			},
			{
				"x": -1.7191145821,
				"y": 3.2594345706,
				"z": -0.78975299,
				"element": "H" 
			},
			{
				"x": -0.0221460252,
				"y": -3.4767432584,
				"z": 3.6844790942,
				"element": "H" 
			},
			{
				"x": 1.4261895301,
				"y": -4.3556642942,
				"z": 3.1458090417,
				"element": "H" 
			},
			{
				"x": 1.5668759803,
				"y": -2.6984319444,
				"z": 3.7704688821,
				"element": "H" 
			},
			{
				"x": -0.3316622392,
				"y": -3.3688759284,
				"z": -0.0632577466,
				"element": "H" 
			},
			{
				"x": 0.2718585702,
				"y": -4.7390365185,
				"z": 0.8710650792,
				"element": "H" 
			},
			{
				"x": -1.1469322842,
				"y": -3.840096657,
				"z": 1.4410243539,
				"element": "H" 
			},
			{
				"x": 2.0051450459,
				"y": -2.2368994505,
				"z": 0.0612058813,
				"element": "H" 
			},
			{
				"x": 2.6197209245,
				"y": -3.6046052128,
				"z": 0.9887160309,
				"element": "H" 
			},
			{
				"x": 2.7410024743,
				"y": -1.9626575112,
				"z": 1.651651073,
				"element": "H" 
			}
		],
		 "valence_orbital": [ 
			{
				"type": "occ",
				"energy": -0.29109,
				"method": "rhf"
			},
			{
				"type": "occ",
				"energy": -0.28225,
				"method": "rhf"
			},
			{
				"type": "occ",
				"energy": -0.25862,
				"method": "rhf"
			},
			{
				"type": "occ",
				"energy": -0.24723,
				"method": "rhf"
			},
			{
				"type": "occ",
				"energy": -0.22402,
				"method": "rhf"
			},
			{
				"type": "unocc",
				"energy": -0.03804,
				"method": "rhf"
			},
			{
				"type": "unocc",
				"energy": 0.02308,
				"method": "rhf"
			},
			{
				"type": "unocc",
				"energy": 0.03942,
				"method": "rhf"
			},
			{
				"type": "unocc",
				"energy": 0.05879,
				"method": "rhf"
			},
			{
				"type": "unocc",
				"energy": 0.06847,
				"method": "rhf"
			}
		],
		"cosmo_sigma_profile": { 
			"-0.025": 0.0,
			"-0.024": 0.0,
			"-0.023": 0.0,
			"-0.022": 0.0,
			"-0.021": 0.0,
			"-0.02": 0.0,
			"-0.019": 0.0,
			"-0.018": 0.0,
			"-0.017": 0.0,
			"-0.016": 0.0,
			"-0.015": 0.0,
			"-0.014": 0.0,
			"-0.013": 0.0,
			"-0.012": 0.0,
			"-0.011": 0.0,
			"-0.01": 0.0,
			"-0.009": 0.0933922468475,
			"-0.008": 2.39466182193,
			"-0.007": 3.47436391039,
			"-0.006": 9.70543080672,
			"-0.005": 13.758716288,
			"-0.004": 20.2433623006,
			"-0.003": 40.5082438067,
			"-0.002": 43.9730818874,
			"-0.001": 46.2570173509,
			"0.0": 43.1611322607,
			"0.001": 39.7851275567,
			"0.002": 18.2646219617,
			"0.003": 12.9440698215,
			"0.004": 13.5989243022,
			"0.005": 11.9344998488,
			"0.006": 11.1991308639,
			"0.007": 5.63169727768,
			"0.008": 5.62400424076,
			"0.009": 3.0855719318,
			"0.01": 3.58670034779,
			"0.011": 3.80229446131,
			"0.012": 1.90166214558,
			"0.013": 0.184163739124,
			"0.014": 0.0,
			"0.015": 0.0,
			"0.016": 0.0,
			"0.017": 0.0,
			"0.018": 0.0,
			"0.019": 0.0,
			"0.02": 0.0,
			"0.021": 0.0,
			"0.022": 0.0,
			"0.023": 0.0,
			"0.024": 0.0,
			"0.025": 0.0
		}
	}
}
