{
	 "smiles": "NC1=C(C=CC=C1)C(=O)NCCC1=CC=CC=C1", 
	 "Tm": 384.15, 
	 "num_atms": 34, 
	 "gaussian": { 
		 "optdone": 1, 
		 "sigma_profile": "yes", 
		 "theory": "DFT", 
		 "functional": "B3LYP", 
		 "basiset": "6-31G**", 
		 "properties": { 
			 "R2extent": 5536.0058, 
			 "electric_dipole_moment_norm": 3.8336437967, 
			 "electric_quadrupole_moment_norm": 13.9311621576, 
			 "total_energy": -765.998274095, 
			 "HOMO_LUMO_gap": 0.18724, 
			 "cosmo_polarized_energy": -15.22, 
			 "cosmo_cavitation_energy": 37.42, 
			 "cosmo_dispersion_energy": -25.75, 
			 "cosmo_repulsion_energy": 2.01, 
			 "cosmo_total_nonelectrostatic_energy": 13.68, 
			 "SMD_solvation_energy": 6.29 
		},
		"coords": [
			{
				"x": -0.1622977252,
				"y": 0.1447118432,
				"z": -2.1625740382,
				"element": "N" 
			},
			{
				"x": 0.3054661868,
				"y": 1.3780077151,
				"z": -1.6828106687,
				"element": "C" 
			},
			{
				"x": 1.2272041239,
				"y": 1.473749733,
				"z": -0.6103892681,
				"element": "C" 
			},
			{
				"x": 1.6546069294,
				"y": 2.7444415096,
				"z": -0.1943284624,
				"element": "C" 
			},
			{
				"x": 1.1643729196,
				"y": 3.9097277704,
				"z": -0.7706487124,
				"element": "C" 
			},
			{
				"x": 0.2301973208,
				"y": 3.8106203889,
				"z": -1.8056529623,
				"element": "C" 
			},
			{
				"x": -0.1833945477,
				"y": 2.5638010203,
				"z": -2.2597539316,
				"element": "C" 
			},
			{
				"x": 1.8128705679,
				"y": 0.3148289323,
				"z": 0.148285928,
				"element": "C" 
			},
			{
				"x": 2.8657823818,
				"y": 0.4237956502,
				"z": 0.7739398183,
				"element": "O" 
			},
			{
				"x": 1.1102024823,
				"y": -0.8707950797,
				"z": 0.1245952563,
				"element": "N" 
			},
			{
				"x": 1.5171023597,
				"y": -1.9755018063,
				"z": 0.9840620418,
				"element": "C" 
			},
			{
				"x": 1.0143954029,
				"y": -1.8543562403,
				"z": 2.4413065684,
				"element": "C" 
			},
			{
				"x": -0.4933636589,
				"y": -1.8835489766,
				"z": 2.5601529118,
				"element": "C" 
			},
			{
				"x": -1.2422812017,
				"y": -0.6977644243,
				"z": 2.5571521485,
				"element": "C" 
			},
			{
				"x": -2.6369728959,
				"y": -0.7292111721,
				"z": 2.6229510915,
				"element": "C" 
			},
			{
				"x": -3.3083348677,
				"y": -1.9504987994,
				"z": 2.6950816386,
				"element": "C" 
			},
			{
				"x": -2.5754774836,
				"y": -3.139499735,
				"z": 2.7020449622,
				"element": "C" 
			},
			{
				"x": -1.1825775312,
				"y": -3.1033763795,
				"z": 2.6343014661,
				"element": "C" 
			},
			{
				"x": 0.5296106763,
				"y": -0.5951209217,
				"z": -2.1653126215,
				"element": "H" 
			},
			{
				"x": -0.6325039403,
				"y": 0.2140320496,
				"z": -3.0560839683,
				"element": "H" 
			},
			{
				"x": 2.3871968097,
				"y": 2.778487111,
				"z": 0.6049686881,
				"element": "H" 
			},
			{
				"x": 1.5026301678,
				"y": 4.8800209245,
				"z": -0.42151756,
				"element": "H" 
			},
			{
				"x": -0.1683354034,
				"y": 4.7069552236,
				"z": -2.2729101664,
				"element": "H" 
			},
			{
				"x": -0.8915097461,
				"y": 2.4929914513,
				"z": -3.0823831676,
				"element": "H" 
			},
			{
				"x": 0.1354276089,
				"y": -0.8265757369,
				"z": -0.1480854987,
				"element": "H" 
			},
			{
				"x": 2.608592828,
				"y": -1.9977946938,
				"z": 0.981999941,
				"element": "H" 
			},
			{
				"x": 1.1490267435,
				"y": -2.9056777113,
				"z": 0.537693283,
				"element": "H" 
			},
			{
				"x": 1.4500955327,
				"y": -2.6820120676,
				"z": 3.0142625188,
				"element": "H" 
			},
			{
				"x": 1.4172131583,
				"y": -0.9264853751,
				"z": 2.8593238895,
				"element": "H" 
			},
			{
				"x": -0.7265916177,
				"y": 0.2581009253,
				"z": 2.511541996,
				"element": "H" 
			},
			{
				"x": -3.1973394199,
				"y": 0.2016257034,
				"z": 2.6228189582,
				"element": "H" 
			},
			{
				"x": -4.3928324287,
				"y": -1.9763359716,
				"z": 2.7511800034,
				"element": "H" 
			},
			{
				"x": -3.0886506368,
				"y": -4.0951836257,
				"z": 2.7655773779,
				"element": "H" 
			},
			{
				"x": -0.6191310957,
				"y": -4.033959235,
				"z": 2.6469105389,
				"element": "H" 
			}
		],
		 "valence_orbital": [ 
			{
				"type": "occ",
				"energy": -0.25214,
				"method": "rhf"
			},
			{
				"type": "occ",
				"energy": -0.24784,
				"method": "rhf"
			},
			{
				"type": "occ",
				"energy": -0.2429,
				"method": "rhf"
			},
			{
				"type": "occ",
				"energy": -0.23565,
				"method": "rhf"
			},
			{
				"type": "occ",
				"energy": -0.21388,
				"method": "rhf"
			},
			{
				"type": "unocc",
				"energy": -0.02664,
				"method": "rhf"
			},
			{
				"type": "unocc",
				"energy": -0.00097,
				"method": "rhf"
			},
			{
				"type": "unocc",
				"energy": 0.00036,
				"method": "rhf"
			},
			{
				"type": "unocc",
				"energy": 0.00921,
				"method": "rhf"
			},
			{
				"type": "unocc",
				"energy": 0.06283,
				"method": "rhf"
			}
		],
		"cosmo_sigma_profile": { 
			"-0.025": 0.0,
			"-0.024": 0.0,
			"-0.023": 0.0,
			"-0.022": 0.0,
			"-0.021": 0.0,
			"-0.02": 0.0,
			"-0.019": 0.0,
			"-0.018": 0.0,
			"-0.017": 0.0,
			"-0.016": 0.0,
			"-0.015": 0.0,
			"-0.014": 0.0,
			"-0.013": 0.719018724968,
			"-0.012": 1.45947715604,
			"-0.011": 2.52878765452,
			"-0.01": 2.99191421346,
			"-0.009": 3.01426570323,
			"-0.008": 2.88037396046,
			"-0.007": 3.5638995275,
			"-0.006": 8.84301036908,
			"-0.005": 19.7499220108,
			"-0.004": 31.6928017399,
			"-0.003": 31.2895006981,
			"-0.002": 23.9814876761,
			"-0.001": 20.1740493307,
			"0.0": 18.0577908892,
			"0.001": 16.3404202072,
			"0.002": 17.5953971347,
			"0.003": 17.0875528824,
			"0.004": 17.4460492601,
			"0.005": 20.3931543937,
			"0.006": 15.3800119705,
			"0.007": 4.34971949184,
			"0.008": 2.29845002893,
			"0.009": 2.66627149975,
			"0.01": 1.66144111455,
			"0.011": 1.45371589735,
			"0.012": 2.06119689456,
			"0.013": 2.37186168999,
			"0.014": 4.52987143139,
			"0.015": 0.401848390851,
			"0.016": 0.0,
			"0.017": 0.0,
			"0.018": 0.0,
			"0.019": 0.0,
			"0.02": 0.0,
			"0.021": 0.0,
			"0.022": 0.0,
			"0.023": 0.0,
			"0.024": 0.0,
			"0.025": 0.0
		}
	}
}
