{
	 "smiles": "CC1=CC(O)=C(Cl)C=C1Cl", 
	 "Tm": 346.15, 
	 "num_atms": 16, 
	 "gaussian": { 
		 "optdone": 1, 
		 "sigma_profile": "yes", 
		 "theory": "DFT", 
		 "functional": "B3LYP", 
		 "basiset": "6-31G**", 
		 "properties": { 
			 "R2extent": 3002.485, 
			 "electric_dipole_moment_norm": 3.40940366193, 
			 "electric_quadrupole_moment_norm": 13.2016103355, 
			 "total_energy": -1265.97012353, 
			 "HOMO_LUMO_gap": 0.2061, 
			 "cosmo_polarized_energy": -9.74, 
			 "cosmo_cavitation_energy": 23.52, 
			 "cosmo_dispersion_energy": -17.75, 
			 "cosmo_repulsion_energy": 1.44, 
			 "cosmo_total_nonelectrostatic_energy": 7.21, 
			 "SMD_solvation_energy": 3.95 
		},
		"coords": [
			{
				"x": -0.2757953661,
				"y": 0.6125450329,
				"z": 1.9358876629,
				"element": "C" 
			},
			{
				"x": -0.1059713863,
				"y": -0.5292970289,
				"z": 0.9678332757,
				"element": "C" 
			},
			{
				"x": 0.4194351596,
				"y": -1.7546708128,
				"z": 1.391580436,
				"element": "C" 
			},
			{
				"x": 0.593847686,
				"y": -2.839784674,
				"z": 0.5272518051,
				"element": "C" 
			},
			{
				"x": 1.1034118255,
				"y": -4.032090023,
				"z": 0.9324678325,
				"element": "O" 
			},
			{
				"x": 0.2264657247,
				"y": -2.6911182912,
				"z": -0.8182722991,
				"element": "C" 
			},
			{
				"x": 0.4293117893,
				"y": -4.0246374292,
				"z": -1.9296153412,
				"element": "Cl" 
			},
			{
				"x": -0.2991337068,
				"y": -1.4851381603,
				"z": -1.2716324133,
				"element": "C" 
			},
			{
				"x": -0.4603399059,
				"y": -0.4228614555,
				"z": -0.3848044081,
				"element": "C" 
			},
			{
				"x": -1.1292578523,
				"y": 1.0831026529,
				"z": -1.0046808875,
				"element": "Cl" 
			},
			{
				"x": 0.2974571205,
				"y": 1.4898376727,
				"z": 1.6180292433,
				"element": "H" 
			},
			{
				"x": -1.3231261791,
				"y": 0.9263873966,
				"z": 1.9983142582,
				"element": "H" 
			},
			{
				"x": 0.0578500162,
				"y": 0.3284295006,
				"z": 2.9367711393,
				"element": "H" 
			},
			{
				"x": 0.7040051507,
				"y": -1.8683020788,
				"z": 2.4359787046,
				"element": "H" 
			},
			{
				"x": 1.3082058609,
				"y": -3.9849686355,
				"z": 1.8753240309,
				"element": "H" 
			},
			{
				"x": -0.5804659371,
				"y": -1.3781336665,
				"z": -2.3122330395,
				"element": "H" 
			}
		],
		 "valence_orbital": [ 
			{
				"type": "occ",
				"energy": -0.31797,
				"method": "rhf"
			},
			{
				"type": "occ",
				"energy": -0.31038,
				"method": "rhf"
			},
			{
				"type": "occ",
				"energy": -0.31015,
				"method": "rhf"
			},
			{
				"type": "occ",
				"energy": -0.2565,
				"method": "rhf"
			},
			{
				"type": "occ",
				"energy": -0.22712,
				"method": "rhf"
			},
			{
				"type": "unocc",
				"energy": -0.02102,
				"method": "rhf"
			},
			{
				"type": "unocc",
				"energy": -0.00841,
				"method": "rhf"
			},
			{
				"type": "unocc",
				"energy": 0.01135,
				"method": "rhf"
			},
			{
				"type": "unocc",
				"energy": 0.04717,
				"method": "rhf"
			},
			{
				"type": "unocc",
				"energy": 0.06527,
				"method": "rhf"
			}
		],
		"cosmo_sigma_profile": { 
			"-0.025": 0.0,
			"-0.024": 0.0,
			"-0.023": 0.0,
			"-0.022": 0.0,
			"-0.021": 0.0,
			"-0.02": 0.0,
			"-0.019": 0.413205081745,
			"-0.018": 1.09202913423,
			"-0.017": 1.30788142686,
			"-0.016": 1.08800093867,
			"-0.015": 0.961983765912,
			"-0.014": 0.829978788276,
			"-0.013": 0.940101308799,
			"-0.012": 1.28391899529,
			"-0.011": 1.1591611555,
			"-0.01": 0.740005407571,
			"-0.009": 1.30065356095,
			"-0.008": 2.16547767966,
			"-0.007": 3.57649630694,
			"-0.006": 5.104530731,
			"-0.005": 5.94465885605,
			"-0.004": 7.36194968065,
			"-0.003": 9.81581016848,
			"-0.002": 11.7289444727,
			"-0.001": 16.2160786649,
			"0.0": 15.1511838198,
			"0.001": 18.6132405333,
			"0.002": 25.5597972102,
			"0.003": 19.0584884696,
			"0.004": 16.9112447198,
			"0.005": 11.784679264,
			"0.006": 2.79845846672,
			"0.007": 2.12497286326,
			"0.008": 1.07970156338,
			"0.009": 2.44527229422,
			"0.01": 2.26992029758,
			"0.011": 1.14007569021,
			"0.012": 0.0,
			"0.013": 0.0,
			"0.014": 0.0,
			"0.015": 0.0,
			"0.016": 0.0,
			"0.017": 0.0,
			"0.018": 0.0,
			"0.019": 0.0,
			"0.02": 0.0,
			"0.021": 0.0,
			"0.022": 0.0,
			"0.023": 0.0,
			"0.024": 0.0,
			"0.025": 0.0
		}
	}
}
