{
	 "smiles": "CC1=C(NC2=NN=C(S)S2)C=CC=C1Cl", 
	 "Tm": 463.15, 
	 "num_atms": 23, 
	 "gaussian": { 
		 "optdone": 1, 
		 "sigma_profile": "yes", 
		 "theory": "DFT", 
		 "functional": "B3LYP", 
		 "basiset": "6-31G**", 
		 "properties": { 
			 "R2extent": 7048.08, 
			 "electric_dipole_moment_norm": 2.97227417477, 
			 "electric_quadrupole_moment_norm": 21.5431121865, 
			 "total_energy": -1768.56493589, 
			 "HOMO_LUMO_gap": 0.17212, 
			 "cosmo_polarized_energy": -14.23, 
			 "cosmo_cavitation_energy": 32.39, 
			 "cosmo_dispersion_energy": -24.94, 
			 "cosmo_repulsion_energy": 1.86, 
			 "cosmo_total_nonelectrostatic_energy": 9.32, 
			 "SMD_solvation_energy": 2.64 
		},
		"coords": [
			{
				"x": 1.4147033931,
				"y": -1.4823208502,
				"z": 0.4317072646,
				"element": "C" 
			},
			{
				"x": 1.0522439599,
				"y": -0.0328906254,
				"z": 0.225292819,
				"element": "C" 
			},
			{
				"x": -0.0484656434,
				"y": 0.3118074537,
				"z": -0.5990648471,
				"element": "C" 
			},
			{
				"x": -0.7465419176,
				"y": -0.7417661185,
				"z": -1.2190761809,
				"element": "N" 
			},
			{
				"x": -2.0309658676,
				"y": -0.7916008938,
				"z": -1.6864323093,
				"element": "C" 
			},
			{
				"x": -2.4055586309,
				"y": -1.7587206457,
				"z": -2.4934108497,
				"element": "N" 
			},
			{
				"x": -3.7461263234,
				"y": -1.757975696,
				"z": -2.7396239026,
				"element": "N" 
			},
			{
				"x": -4.3873508611,
				"y": -0.7946367587,
				"z": -2.1539374372,
				"element": "C" 
			},
			{
				"x": -6.102414053,
				"y": -0.4742600851,
				"z": -2.4446298295,
				"element": "S" 
			},
			{
				"x": -3.3458419046,
				"y": 0.2697905941,
				"z": -1.1866139509,
				"element": "S" 
			},
			{
				"x": -0.4091734759,
				"y": 1.6489841032,
				"z": -0.803085359,
				"element": "C" 
			},
			{
				"x": 0.3019855429,
				"y": 2.6648794858,
				"z": -0.1699946592,
				"element": "C" 
			},
			{
				"x": 1.3904718665,
				"y": 2.3642038975,
				"z": 0.6420075794,
				"element": "C" 
			},
			{
				"x": 1.7523492449,
				"y": 1.0272739325,
				"z": 0.8157186956,
				"element": "C" 
			},
			{
				"x": 3.1517306777,
				"y": 0.7061714271,
				"z": 1.840769962,
				"element": "Cl" 
			},
			{
				"x": 2.1362895889,
				"y": -1.6004755931,
				"z": 1.2386633299,
				"element": "H" 
			},
			{
				"x": 1.8659315911,
				"y": -1.9201868356,
				"z": -0.4695394191,
				"element": "H" 
			},
			{
				"x": 0.5268785633,
				"y": -2.0744225529,
				"z": 0.6776645998,
				"element": "H" 
			},
			{
				"x": -0.2256754071,
				"y": -1.5757123489,
				"z": -1.4568756143,
				"element": "H" 
			},
			{
				"x": -6.4680076779,
				"y": -0.3803528574,
				"z": -1.1485400314,
				"element": "H" 
			},
			{
				"x": -1.2199072272,
				"y": 1.8984436787,
				"z": -1.4770155146,
				"element": "H" 
			},
			{
				"x": 0.0172860722,
				"y": 3.7000588639,
				"z": -0.3297921202,
				"element": "H" 
			},
			{
				"x": 1.9609584889,
				"y": 3.1451084246,
				"z": 1.1305077747,
				"element": "H" 
			}
		],
		 "valence_orbital": [ 
			{
				"type": "occ",
				"energy": -0.29174,
				"method": "rhf"
			},
			{
				"type": "occ",
				"energy": -0.27032,
				"method": "rhf"
			},
			{
				"type": "occ",
				"energy": -0.26286,
				"method": "rhf"
			},
			{
				"type": "occ",
				"energy": -0.25681,
				"method": "rhf"
			},
			{
				"type": "occ",
				"energy": -0.22151,
				"method": "rhf"
			},
			{
				"type": "unocc",
				"energy": -0.04939,
				"method": "rhf"
			},
			{
				"type": "unocc",
				"energy": -0.0296,
				"method": "rhf"
			},
			{
				"type": "unocc",
				"energy": -0.01448,
				"method": "rhf"
			},
			{
				"type": "unocc",
				"energy": -0.00313,
				"method": "rhf"
			},
			{
				"type": "unocc",
				"energy": 0.01335,
				"method": "rhf"
			}
		],
		"cosmo_sigma_profile": { 
			"-0.025": 0.0,
			"-0.024": 0.0,
			"-0.023": 0.0,
			"-0.022": 0.0,
			"-0.021": 0.0,
			"-0.02": 0.0,
			"-0.019": 0.0,
			"-0.018": 0.0,
			"-0.017": 0.0,
			"-0.016": 0.0,
			"-0.015": 0.10684605727,
			"-0.014": 0.906825119462,
			"-0.013": 1.06198619806,
			"-0.012": 2.62692113999,
			"-0.011": 4.40900214462,
			"-0.01": 3.2141122551,
			"-0.009": 2.72580894884,
			"-0.008": 2.78020835636,
			"-0.007": 6.93995610602,
			"-0.006": 10.7758935668,
			"-0.005": 12.3465713822,
			"-0.004": 11.542864366,
			"-0.003": 14.4835107519,
			"-0.002": 19.7579659309,
			"-0.001": 27.9846179004,
			"0.0": 26.2952533042,
			"0.001": 20.2629464244,
			"0.002": 24.4623941829,
			"0.003": 19.7834863898,
			"0.004": 16.285283766,
			"0.005": 9.83848262892,
			"0.006": 4.8713407803,
			"0.007": 3.86826376018,
			"0.008": 3.22255517024,
			"0.009": 2.37994580191,
			"0.01": 2.92709952891,
			"0.011": 3.57845065998,
			"0.012": 2.73256652583,
			"0.013": 2.45947486048,
			"0.014": 2.05975591757,
			"0.015": 0.286363113467,
			"0.016": 0.0,
			"0.017": 0.0,
			"0.018": 0.0,
			"0.019": 0.0,
			"0.02": 0.0,
			"0.021": 0.0,
			"0.022": 0.0,
			"0.023": 0.0,
			"0.024": 0.0,
			"0.025": 0.0
		}
	}
}
