{
	 "smiles": "COC1=CC=C(OC2OC(CO)C(O)C(O)C2O)C=C1", 
	 "Tm": 432.15, 
	 "num_atms": 38, 
	 "gaussian": { 
		 "optdone": 1, 
		 "sigma_profile": "yes", 
		 "theory": "DFT", 
		 "functional": "B3LYP", 
		 "basiset": "6-31G**", 
		 "properties": { 
			 "R2extent": 7384.4855, 
			 "electric_dipole_moment_norm": 5.00694971115, 
			 "electric_quadrupole_moment_norm": 16.4165165449, 
			 "total_energy": -1032.73471401, 
			 "HOMO_LUMO_gap": 0.19922, 
			 "cosmo_polarized_energy": -20.14, 
			 "cosmo_cavitation_energy": 39.46, 
			 "cosmo_dispersion_energy": -28.36, 
			 "cosmo_repulsion_energy": 2.2, 
			 "cosmo_total_nonelectrostatic_energy": 13.29, 
			 "SMD_solvation_energy": 7.03 
		},
		"coords": [
			{
				"x": -1.2336806897,
				"y": 1.9434059482,
				"z": -5.592887423,
				"element": "C" 
			},
			{
				"x": -0.8127165344,
				"y": 0.7447912604,
				"z": -4.9652293616,
				"element": "O" 
			},
			{
				"x": -0.3650664403,
				"y": 0.8172787097,
				"z": -3.6741539087,
				"element": "C" 
			},
			{
				"x": -0.3030535869,
				"y": 1.9920650609,
				"z": -2.9143290903,
				"element": "C" 
			},
			{
				"x": 0.1779676112,
				"y": 1.9477874113,
				"z": -1.6048558072,
				"element": "C" 
			},
			{
				"x": 0.5916793518,
				"y": 0.7417214722,
				"z": -1.0392728178,
				"element": "C" 
			},
			{
				"x": 1.043125494,
				"y": 0.8066182382,
				"z": 0.2670391997,
				"element": "O" 
			},
			{
				"x": 1.8719678468,
				"y": -0.2347381623,
				"z": 0.7556102344,
				"element": "C" 
			},
			{
				"x": 1.1432389635,
				"y": -1.4027444791,
				"z": 1.0862390684,
				"element": "O" 
			},
			{
				"x": 0.1694782505,
				"y": -1.2699225745,
				"z": 2.1410232765,
				"element": "C" 
			},
			{
				"x": -1.2316522374,
				"y": -1.2826242815,
				"z": 1.5291783836,
				"element": "C" 
			},
			{
				"x": -2.162570556,
				"y": -1.2477524154,
				"z": 2.6183339452,
				"element": "O" 
			},
			{
				"x": 0.4115983016,
				"y": -0.0408161729,
				"z": 3.0332535196,
				"element": "C" 
			},
			{
				"x": -0.1960930059,
				"y": -0.2080481159,
				"z": 4.3070584821,
				"element": "O" 
			},
			{
				"x": 1.9078902357,
				"y": 0.1254966933,
				"z": 3.2797878019,
				"element": "C" 
			},
			{
				"x": 2.1605099754,
				"y": 1.2236912815,
				"z": 4.1321702705,
				"element": "O" 
			},
			{
				"x": 2.6738422365,
				"y": 0.3149231197,
				"z": 1.9576678508,
				"element": "C" 
			},
			{
				"x": 3.963058895,
				"y": -0.2787561861,
				"z": 1.9905570822,
				"element": "O" 
			},
			{
				"x": 0.5174269972,
				"y": -0.438676667,
				"z": -1.7911179133,
				"element": "C" 
			},
			{
				"x": 0.0482517845,
				"y": -0.3917965021,
				"z": -3.1011523171,
				"element": "C" 
			},
			{
				"x": -2.0848177868,
				"y": 2.4001066356,
				"z": -5.0701718133,
				"element": "H" 
			},
			{
				"x": -1.5425407014,
				"y": 1.6647970396,
				"z": -6.601768712,
				"element": "H" 
			},
			{
				"x": -0.4194574769,
				"y": 2.6774921305,
				"z": -5.6563044776,
				"element": "H" 
			},
			{
				"x": -0.6142697551,
				"y": 2.9437696677,
				"z": -3.3283352399,
				"element": "H" 
			},
			{
				"x": 0.2446236289,
				"y": 2.8532276235,
				"z": -1.0104135815,
				"element": "H" 
			},
			{
				"x": 2.5741977865,
				"y": -0.5522889695,
				"z": -0.02197199,
				"element": "H" 
			},
			{
				"x": 0.2834456235,
				"y": -2.1557451534,
				"z": 2.7779992119,
				"element": "H" 
			},
			{
				"x": -1.3604394184,
				"y": -2.190528471,
				"z": 0.9242702772,
				"element": "H" 
			},
			{
				"x": -1.3503250728,
				"y": -0.4102260155,
				"z": 0.8742687757,
				"element": "H" 
			},
			{
				"x": -3.0481827907,
				"y": -1.1056001328,
				"z": 2.2640040391,
				"element": "H" 
			},
			{
				"x": 0.0318943363,
				"y": 0.864667346,
				"z": 2.5387932946,
				"element": "H" 
			},
			{
				"x": -1.1315751537,
				"y": -0.4033827769,
				"z": 4.1354403475,
				"element": "H" 
			},
			{
				"x": 2.2614710017,
				"y": -0.8138276147,
				"z": 3.7440280159,
				"element": "H" 
			},
			{
				"x": 1.5320238544,
				"y": 1.1354881376,
				"z": 4.8645626346,
				"element": "H" 
			},
			{
				"x": 2.8362450955,
				"y": 1.3836767274,
				"z": 1.8013514545,
				"element": "H" 
			},
			{
				"x": 3.8466503597,
				"y": -1.2171434967,
				"z": 2.1946793846,
				"element": "H" 
			},
			{
				"x": 0.8012529763,
				"y": -1.387880594,
				"z": -1.3529754326,
				"element": "H" 
			},
			{
				"x": -0.0139994002,
				"y": -1.2955057219,
				"z": -3.6986766647,
				"element": "H" 
			}
		],
		 "valence_orbital": [ 
			{
				"type": "occ",
				"energy": -0.27556,
				"method": "rhf"
			},
			{
				"type": "occ",
				"energy": -0.26367,
				"method": "rhf"
			},
			{
				"type": "occ",
				"energy": -0.25679,
				"method": "rhf"
			},
			{
				"type": "occ",
				"energy": -0.25331,
				"method": "rhf"
			},
			{
				"type": "occ",
				"energy": -0.20627,
				"method": "rhf"
			},
			{
				"type": "unocc",
				"energy": -0.00705,
				"method": "rhf"
			},
			{
				"type": "unocc",
				"energy": 0.01817,
				"method": "rhf"
			},
			{
				"type": "unocc",
				"energy": 0.04407,
				"method": "rhf"
			},
			{
				"type": "unocc",
				"energy": 0.08058,
				"method": "rhf"
			},
			{
				"type": "unocc",
				"energy": 0.08884,
				"method": "rhf"
			}
		],
		"cosmo_sigma_profile": { 
			"-0.025": 0.0,
			"-0.024": 0.0,
			"-0.023": 0.0,
			"-0.022": 0.0,
			"-0.021": 0.0,
			"-0.02": 0.0,
			"-0.019": 0.0,
			"-0.018": 0.0,
			"-0.017": 0.613949688812,
			"-0.016": 1.28962778097,
			"-0.015": 2.08812016261,
			"-0.014": 1.47375595011,
			"-0.013": 2.20548136315,
			"-0.012": 2.49470440366,
			"-0.011": 2.10195632063,
			"-0.01": 2.28745205265,
			"-0.009": 2.37761006884,
			"-0.008": 3.90480683162,
			"-0.007": 5.01117291446,
			"-0.006": 11.7515498433,
			"-0.005": 25.6331448672,
			"-0.004": 27.690482923,
			"-0.003": 27.1494953119,
			"-0.002": 21.2350928343,
			"-0.001": 17.5824113571,
			"0.0": 16.2917681067,
			"0.001": 16.6425834688,
			"0.002": 15.7182405787,
			"0.003": 18.0474600608,
			"0.004": 17.3828343015,
			"0.005": 16.4535164061,
			"0.006": 8.67812207753,
			"0.007": 7.35088307245,
			"0.008": 5.97071976071,
			"0.009": 6.5053174785,
			"0.01": 6.07787429952,
			"0.011": 5.85129377854,
			"0.012": 4.28249820011,
			"0.013": 4.61657013628,
			"0.014": 1.61520542452,
			"0.015": 0.0,
			"0.016": 0.0,
			"0.017": 0.0,
			"0.018": 0.0,
			"0.019": 0.0,
			"0.02": 0.0,
			"0.021": 0.0,
			"0.022": 0.0,
			"0.023": 0.0,
			"0.024": 0.0,
			"0.025": 0.0
		}
	}
}
