{
	 "smiles": "NC(=O)CC1=CC=NC=C1", 
	 "Tm": 418.65, 
	 "num_atms": 18, 
	 "gaussian": { 
		 "optdone": 1, 
		 "sigma_profile": "yes", 
		 "theory": "DFT", 
		 "functional": "B3LYP", 
		 "basiset": "6-31G**", 
		 "properties": { 
			 "R2extent": 1849.6892, 
			 "electric_dipole_moment_norm": 1.59816535127, 
			 "electric_quadrupole_moment_norm": 22.8343432693, 
			 "total_energy": -456.305548503, 
			 "HOMO_LUMO_gap": 0.21147, 
			 "cosmo_polarized_energy": -15.03, 
			 "cosmo_cavitation_energy": 22.31, 
			 "cosmo_dispersion_energy": -16.18, 
			 "cosmo_repulsion_energy": 1.33, 
			 "cosmo_total_nonelectrostatic_energy": 7.46, 
			 "SMD_solvation_energy": 3.28 
		},
		"coords": [
			{
				"x": -1.1273608234,
				"y": 1.6438070255,
				"z": 0.0570881174,
				"element": "N" 
			},
			{
				"x": -0.3128029033,
				"y": 2.1605731327,
				"z": -0.9054531015,
				"element": "C" 
			},
			{
				"x": -0.1032740248,
				"y": 3.3566182106,
				"z": -1.0296396745,
				"element": "O" 
			},
			{
				"x": 0.3069838032,
				"y": 1.148610591,
				"z": -1.8925980538,
				"element": "C" 
			},
			{
				"x": 0.3230441087,
				"y": -0.3000333967,
				"z": -1.4715348277,
				"element": "C" 
			},
			{
				"x": -0.7154726221,
				"y": -1.1775171936,
				"z": -1.8106955791,
				"element": "C" 
			},
			{
				"x": -0.6637505881,
				"y": -2.5017550719,
				"z": -1.3719218365,
				"element": "C" 
			},
			{
				"x": 0.3325477509,
				"y": -3.0034500553,
				"z": -0.6321170597,
				"element": "N" 
			},
			{
				"x": 1.3255750102,
				"y": -2.1632651363,
				"z": -0.3108803595,
				"element": "C" 
			},
			{
				"x": 1.3670330179,
				"y": -0.8241195205,
				"z": -0.6977279628,
				"element": "C" 
			},
			{
				"x": -1.5330303969,
				"y": 2.2846434546,
				"z": 0.721881286,
				"element": "H" 
			},
			{
				"x": -1.2321044634,
				"y": 0.6521546192,
				"z": 0.198073063,
				"element": "H" 
			},
			{
				"x": -0.248451326,
				"y": 1.266049356,
				"z": -2.8303291788,
				"element": "H" 
			},
			{
				"x": 1.3200652095,
				"y": 1.5121910558,
				"z": -2.0840242817,
				"element": "H" 
			},
			{
				"x": -1.5505422101,
				"y": -0.8379384175,
				"z": -2.4177723038,
				"element": "H" 
			},
			{
				"x": -1.462813133,
				"y": -3.1938152423,
				"z": -1.6330324355,
				"element": "H" 
			},
			{
				"x": 2.1330339699,
				"y": -2.582989527,
				"z": 0.2867732315,
				"element": "H" 
			},
			{
				"x": 2.2047196209,
				"y": -0.1977638844,
				"z": -0.4034890431,
				"element": "H" 
			}
		],
		 "valence_orbital": [ 
			{
				"type": "occ",
				"energy": -0.29725,
				"method": "rhf"
			},
			{
				"type": "occ",
				"energy": -0.27475,
				"method": "rhf"
			},
			{
				"type": "occ",
				"energy": -0.26935,
				"method": "rhf"
			},
			{
				"type": "occ",
				"energy": -0.26285,
				"method": "rhf"
			},
			{
				"type": "occ",
				"energy": -0.24738,
				"method": "rhf"
			},
			{
				"type": "unocc",
				"energy": -0.03591,
				"method": "rhf"
			},
			{
				"type": "unocc",
				"energy": -0.023,
				"method": "rhf"
			},
			{
				"type": "unocc",
				"energy": 0.0274,
				"method": "rhf"
			},
			{
				"type": "unocc",
				"energy": 0.08109,
				"method": "rhf"
			},
			{
				"type": "unocc",
				"energy": 0.09414,
				"method": "rhf"
			}
		],
		"cosmo_sigma_profile": { 
			"-0.025": 0.0,
			"-0.024": 0.0,
			"-0.023": 0.0,
			"-0.022": 0.0,
			"-0.021": 0.0,
			"-0.02": 0.0,
			"-0.019": 0.0,
			"-0.018": 0.0,
			"-0.017": 0.0,
			"-0.016": 0.0,
			"-0.015": 0.0,
			"-0.014": 0.787318582911,
			"-0.013": 1.69773079148,
			"-0.012": 1.96500085623,
			"-0.011": 1.80907650322,
			"-0.01": 2.10789060413,
			"-0.009": 1.5049563392,
			"-0.008": 2.15177476635,
			"-0.007": 9.71602920068,
			"-0.006": 16.1583185752,
			"-0.005": 13.321386361,
			"-0.004": 12.811901423,
			"-0.003": 10.8727949075,
			"-0.002": 10.5203680772,
			"-0.001": 9.86199303612,
			"0.0": 8.91671171739,
			"0.001": 10.5402696169,
			"0.002": 12.6559106943,
			"0.003": 8.55305373359,
			"0.004": 4.19445610895,
			"0.005": 4.35910337552,
			"0.006": 2.40231627272,
			"0.007": 2.72028826281,
			"0.008": 3.07710000705,
			"0.009": 2.20986617851,
			"0.01": 1.92151996796,
			"0.011": 2.35941384892,
			"0.012": 3.43314266868,
			"0.013": 4.20215904892,
			"0.014": 6.91433542755,
			"0.015": 2.29832222372,
			"0.016": 1.03106613316,
			"0.017": 0.33692216616,
			"0.018": 0.0,
			"0.019": 0.0,
			"0.02": 0.0,
			"0.021": 0.0,
			"0.022": 0.0,
			"0.023": 0.0,
			"0.024": 0.0,
			"0.025": 0.0
		}
	}
}
