{
	 "smiles": "NC(=S)CC(=O)NCC1=CC=CC=C1", 
	 "Tm": 387.15, 
	 "num_atms": 26, 
	 "gaussian": { 
		 "optdone": 1, 
		 "sigma_profile": "yes", 
		 "theory": "DFT", 
		 "functional": "B3LYP", 
		 "basiset": "6-31G**", 
		 "properties": { 
			 "R2extent": 4713.3681, 
			 "electric_dipole_moment_norm": 4.13414614159, 
			 "electric_quadrupole_moment_norm": 22.3657738404, 
			 "total_energy": -971.238376403, 
			 "HOMO_LUMO_gap": 0.1746, 
			 "cosmo_polarized_energy": -18.13, 
			 "cosmo_cavitation_energy": 31.78, 
			 "cosmo_dispersion_energy": -22.56, 
			 "cosmo_repulsion_energy": 1.77, 
			 "cosmo_total_nonelectrostatic_energy": 10.99, 
			 "SMD_solvation_energy": 4.62 
		},
		"coords": [
			{
				"x": -3.7757014796,
				"y": 0.3033594347,
				"z": 2.0114188656,
				"element": "N" 
			},
			{
				"x": -2.5829479325,
				"y": 0.0583402691,
				"z": 2.5700226032,
				"element": "C" 
			},
			{
				"x": -2.3577497168,
				"y": -0.3125620168,
				"z": 4.1788123818,
				"element": "S" 
			},
			{
				"x": -1.4041580357,
				"y": 0.1948842929,
				"z": 1.6060895161,
				"element": "C" 
			},
			{
				"x": -1.6369066389,
				"y": -0.5241237664,
				"z": 0.2774276973,
				"element": "C" 
			},
			{
				"x": -2.5957118908,
				"y": -0.2302668137,
				"z": -0.4416786191,
				"element": "O" 
			},
			{
				"x": -0.7595237008,
				"y": -1.4967898346,
				"z": -0.0905782893,
				"element": "N" 
			},
			{
				"x": 0.3763966251,
				"y": -2.0268946563,
				"z": 0.6617953099,
				"element": "C" 
			},
			{
				"x": 1.6213160502,
				"y": -1.1508741269,
				"z": 0.666192984,
				"element": "C" 
			},
			{
				"x": 2.4533006465,
				"y": -1.1399799186,
				"z": 1.7920634374,
				"element": "C" 
			},
			{
				"x": 3.6266610077,
				"y": -0.3839062319,
				"z": 1.801774168,
				"element": "C" 
			},
			{
				"x": 3.9784525899,
				"y": 0.375427795,
				"z": 0.6849692261,
				"element": "C" 
			},
			{
				"x": 3.1502435804,
				"y": 0.3748269244,
				"z": -0.4394858599,
				"element": "C" 
			},
			{
				"x": 1.9794454683,
				"y": -0.3839364648,
				"z": -0.4488708988,
				"element": "C" 
			},
			{
				"x": -3.8354387432,
				"y": 0.3657654873,
				"z": 0.9963714616,
				"element": "H" 
			},
			{
				"x": -4.6062291576,
				"y": 0.1900188043,
				"z": 2.5742403255,
				"element": "H" 
			},
			{
				"x": -0.4954725066,
				"y": -0.1100867193,
				"z": 2.1166325709,
				"element": "H" 
			},
			{
				"x": -1.3009242994,
				"y": 1.257979281,
				"z": 1.3538280786,
				"element": "H" 
			},
			{
				"x": -0.9872090357,
				"y": -1.9179481951,
				"z": -0.9816962381,
				"element": "H" 
			},
			{
				"x": 0.6121249309,
				"y": -2.996608346,
				"z": 0.2087235307,
				"element": "H" 
			},
			{
				"x": 0.071976047,
				"y": -2.2430975307,
				"z": 1.6911296745,
				"element": "H" 
			},
			{
				"x": 2.1789055904,
				"y": -1.7214416486,
				"z": 2.6692042221,
				"element": "H" 
			},
			{
				"x": 4.2586772052,
				"y": -0.3812133988,
				"z": 2.6850692079,
				"element": "H" 
			},
			{
				"x": 4.8879831549,
				"y": 0.968884172,
				"z": 0.6926151287,
				"element": "H" 
			},
			{
				"x": 3.4147077143,
				"y": 0.9676145799,
				"z": -1.3105460391,
				"element": "H" 
			},
			{
				"x": 1.333882527,
				"y": -0.372171372,
				"z": -1.3225244457,
				"element": "H" 
			}
		],
		 "valence_orbital": [ 
			{
				"type": "occ",
				"energy": -0.27274,
				"method": "rhf"
			},
			{
				"type": "occ",
				"energy": -0.2603,
				"method": "rhf"
			},
			{
				"type": "occ",
				"energy": -0.25373,
				"method": "rhf"
			},
			{
				"type": "occ",
				"energy": -0.22561,
				"method": "rhf"
			},
			{
				"type": "occ",
				"energy": -0.20349,
				"method": "rhf"
			},
			{
				"type": "unocc",
				"energy": -0.02889,
				"method": "rhf"
			},
			{
				"type": "unocc",
				"energy": -0.01494,
				"method": "rhf"
			},
			{
				"type": "unocc",
				"energy": -0.01326,
				"method": "rhf"
			},
			{
				"type": "unocc",
				"energy": 0.00595,
				"method": "rhf"
			},
			{
				"type": "unocc",
				"energy": 0.06912,
				"method": "rhf"
			}
		],
		"cosmo_sigma_profile": { 
			"-0.025": 0.0,
			"-0.024": 0.0,
			"-0.023": 0.0,
			"-0.022": 0.0,
			"-0.021": 0.0,
			"-0.02": 0.0,
			"-0.019": 0.0,
			"-0.018": 0.0,
			"-0.017": 0.0,
			"-0.016": 0.0,
			"-0.015": 0.836851985927,
			"-0.014": 2.15709050239,
			"-0.013": 2.49530515142,
			"-0.012": 2.40419790349,
			"-0.011": 3.11988150149,
			"-0.01": 2.63569422703,
			"-0.009": 3.38437958326,
			"-0.008": 4.93487919547,
			"-0.007": 5.83547517957,
			"-0.006": 13.7411791541,
			"-0.005": 19.982167748,
			"-0.004": 20.3611788492,
			"-0.003": 20.1074120652,
			"-0.002": 15.3574214408,
			"-0.001": 14.3492222848,
			"0.0": 12.515712838,
			"0.001": 12.5844715624,
			"0.002": 10.5721396608,
			"0.003": 11.3926843144,
			"0.004": 12.6839672028,
			"0.005": 12.213099852,
			"0.006": 11.016554207,
			"0.007": 5.14088879541,
			"0.008": 6.5821506285,
			"0.009": 8.40237856308,
			"0.01": 5.84424884214,
			"0.011": 5.32278441725,
			"0.012": 5.7494439557,
			"0.013": 2.67174800263,
			"0.014": 0.643649389663,
			"0.015": 0.0,
			"0.016": 0.0,
			"0.017": 0.0,
			"0.018": 0.0,
			"0.019": 0.0,
			"0.02": 0.0,
			"0.021": 0.0,
			"0.022": 0.0,
			"0.023": 0.0,
			"0.024": 0.0,
			"0.025": 0.0
		}
	}
}
