{
	 "smiles": "COC1=CC=C2CC3N(C)CCC4=C3C(OC3=C(OC)C=C5CCN(C)C(CC6=CC=C(OC1=C2)C=C6)C5=C3)=C(OC)C(OC)=C4", 
	 "Tm": 491.15, 
	 "num_atms": 88, 
	 "gaussian": { 
		 "optdone": 1, 
		 "sigma_profile": "yes", 
		 "theory": "DFT", 
		 "functional": "B3LYP", 
		 "basiset": "6-31G**", 
		 "properties": { 
			 "R2extent": 23379.9261, 
			 "electric_dipole_moment_norm": 4.25379193309, 
			 "electric_quadrupole_moment_norm": 18.5066313709, 
			 "total_energy": -2033.96306566, 
			 "HOMO_LUMO_gap": 0.15718, 
			 "cosmo_polarized_energy": -18.12, 
			 "cosmo_cavitation_energy": 76.12, 
			 "cosmo_dispersion_energy": -47.21, 
			 "cosmo_repulsion_energy": 3.32, 
			 "cosmo_total_nonelectrostatic_energy": 32.23, 
			 "SMD_solvation_energy": 9.86 
		},
		"coords": [
			{
				"x": 2.1006568776,
				"y": 0.2562323025,
				"z": -2.450813426,
				"element": "C" 
			},
			{
				"x": 1.1359415694,
				"y": 1.2986678124,
				"z": -2.2672021843,
				"element": "O" 
			},
			{
				"x": -0.1249124584,
				"y": 0.9098935043,
				"z": -2.6223931511,
				"element": "C" 
			},
			{
				"x": -1.1775183232,
				"y": 0.9516323231,
				"z": -1.7269365554,
				"element": "C" 
			},
			{
				"x": -2.1725241824,
				"y": -0.0142607479,
				"z": -1.8580932752,
				"element": "C" 
			},
			{
				"x": -2.0333972443,
				"y": -0.9911144374,
				"z": -2.8461656978,
				"element": "C" 
			},
			{
				"x": -2.2325006576,
				"y": -2.4022396714,
				"z": -2.3469973602,
				"element": "C" 
			},
			{
				"x": -0.9543891277,
				"y": -2.7281374057,
				"z": -1.4452042556,
				"element": "C" 
			},
			{
				"x": -0.5081895333,
				"y": -4.1045951188,
				"z": -1.7373400441,
				"element": "N" 
			},
			{
				"x": 0.8737694213,
				"y": -4.3567278019,
				"z": -1.3404147602,
				"element": "C" 
			},
			{
				"x": -1.4466513641,
				"y": -5.1366019973,
				"z": -1.2643431484,
				"element": "C" 
			},
			{
				"x": -2.3841276054,
				"y": -4.6605150961,
				"z": -0.1177277923,
				"element": "C" 
			},
			{
				"x": -1.7101791374,
				"y": -3.6248415152,
				"z": 0.7479003262,
				"element": "C" 
			},
			{
				"x": -1.0562544615,
				"y": -2.552768121,
				"z": 0.095933063,
				"element": "C" 
			},
			{
				"x": -0.3588277137,
				"y": -1.6209795929,
				"z": 0.9116143022,
				"element": "C" 
			},
			{
				"x": 0.3619975149,
				"y": -0.5784609857,
				"z": 0.3407924829,
				"element": "O" 
			},
			{
				"x": 0.4174653152,
				"y": 0.7383402017,
				"z": 0.8045916829,
				"element": "C" 
			},
			{
				"x": -0.6391028578,
				"y": 1.4144583621,
				"z": 1.4527499931,
				"element": "C" 
			},
			{
				"x": -1.7387481667,
				"y": 0.6750488566,
				"z": 1.796621019,
				"element": "O" 
			},
			{
				"x": -2.8704134217,
				"y": 1.3487727553,
				"z": 2.3252848773,
				"element": "C" 
			},
			{
				"x": -0.529822104,
				"y": 2.7940755114,
				"z": 1.677258796,
				"element": "C" 
			},
			{
				"x": 0.5357135675,
				"y": 3.5361987745,
				"z": 1.1567971108,
				"element": "C" 
			},
			{
				"x": 0.7678593378,
				"y": 4.9938243306,
				"z": 1.4719804377,
				"element": "C" 
			},
			{
				"x": 2.2449546957,
				"y": 5.1528627518,
				"z": 1.8705053929,
				"element": "C" 
			},
			{
				"x": 3.1742685215,
				"y": 4.7282220578,
				"z": 0.8155898167,
				"element": "N" 
			},
			{
				"x": 4.4733065045,
				"y": 4.3767168593,
				"z": 1.3641452158,
				"element": "C" 
			},
			{
				"x": 2.6495012512,
				"y": 3.7584917257,
				"z": -0.1875183503,
				"element": "C" 
			},
			{
				"x": 2.3430747643,
				"y": 4.6512110218,
				"z": -1.4817956379,
				"element": "C" 
			},
			{
				"x": 1.9037933377,
				"y": 4.0083991364,
				"z": -2.7853676866,
				"element": "C" 
			},
			{
				"x": 0.5576429922,
				"y": 4.0553491869,
				"z": -3.1862961251,
				"element": "C" 
			},
			{
				"x": 0.0551810704,
				"y": 3.1660336362,
				"z": -4.1346385111,
				"element": "C" 
			},
			{
				"x": 0.9071191215,
				"y": 2.1812624739,
				"z": -4.6483106233,
				"element": "C" 
			},
			{
				"x": 0.3801606906,
				"y": 0.9082363788,
				"z": -4.9863624868,
				"element": "O" 
			},
			{
				"x": -0.3610519781,
				"y": 0.3876862216,
				"z": -3.9152604318,
				"element": "C" 
			},
			{
				"x": -1.250642502,
				"y": -0.6848135936,
				"z": -3.9917691113,
				"element": "C" 
			},
			{
				"x": 2.2875819783,
				"y": 2.3669406912,
				"z": -4.5538433537,
				"element": "C" 
			},
			{
				"x": 2.7779013037,
				"y": 3.2887415222,
				"z": -3.617927896,
				"element": "C" 
			},
			{
				"x": 1.5398837985,
				"y": 2.8920326019,
				"z": 0.4217493062,
				"element": "C" 
			},
			{
				"x": 1.5105115819,
				"y": 1.4908187547,
				"z": 0.3604882098,
				"element": "C" 
			},
			{
				"x": -0.2621264053,
				"y": -1.8137783006,
				"z": 2.3088851947,
				"element": "C" 
			},
			{
				"x": 0.5531161048,
				"y": -0.9639097967,
				"z": 3.0083415368,
				"element": "O" 
			},
			{
				"x": 0.0579307235,
				"y": -0.3676761725,
				"z": 4.2120346697,
				"element": "C" 
			},
			{
				"x": -0.9195473609,
				"y": -2.8929280185,
				"z": 2.9100021253,
				"element": "C" 
			},
			{
				"x": -0.8213698912,
				"y": -3.1055219159,
				"z": 4.2730408583,
				"element": "O" 
			},
			{
				"x": 0.3916428636,
				"y": -3.7536613897,
				"z": 4.6624860804,
				"element": "C" 
			},
			{
				"x": -1.6577667565,
				"y": -3.7783969234,
				"z": 2.1303585834,
				"element": "C" 
			},
			{
				"x": 3.0681721429,
				"y": 0.6851261841,
				"z": -2.1834952086,
				"element": "H" 
			},
			{
				"x": 1.8758406437,
				"y": -0.5925736635,
				"z": -1.7969749028,
				"element": "H" 
			},
			{
				"x": 2.1465272033,
				"y": -0.0782943537,
				"z": -3.4910737433,
				"element": "H" 
			},
			{
				"x": -1.1156018319,
				"y": 1.5798621031,
				"z": -0.8529725674,
				"element": "H" 
			},
			{
				"x": -2.8645469923,
				"y": -0.1679447306,
				"z": -1.0349718926,
				"element": "H" 
			},
			{
				"x": -3.1589788465,
				"y": -2.495056856,
				"z": -1.7719171039,
				"element": "H" 
			},
			{
				"x": -2.2470807916,
				"y": -3.1377466477,
				"z": -3.1569988969,
				"element": "H" 
			},
			{
				"x": -0.160286811,
				"y": -2.0707317321,
				"z": -1.8042232063,
				"element": "H" 
			},
			{
				"x": 1.5223316006,
				"y": -3.5936716134,
				"z": -1.7835261879,
				"element": "H" 
			},
			{
				"x": 1.0451797701,
				"y": -4.3554915901,
				"z": -0.249667365,
				"element": "H" 
			},
			{
				"x": 1.1922805819,
				"y": -5.3280046311,
				"z": -1.7329178388,
				"element": "H" 
			},
			{
				"x": -2.0620227165,
				"y": -5.49643013,
				"z": -2.0996054471,
				"element": "H" 
			},
			{
				"x": -0.8630791022,
				"y": -5.9941607465,
				"z": -0.9150371831,
				"element": "H" 
			},
			{
				"x": -2.7002207129,
				"y": -5.5173825582,
				"z": 0.4857037095,
				"element": "H" 
			},
			{
				"x": -3.298075496,
				"y": -4.2445279256,
				"z": -0.5567877059,
				"element": "H" 
			},
			{
				"x": -3.2333861191,
				"y": 2.1257205784,
				"z": 1.6408425606,
				"element": "H" 
			},
			{
				"x": -3.6398170015,
				"y": 0.5853627244,
				"z": 2.4504227745,
				"element": "H" 
			},
			{
				"x": -2.6556578033,
				"y": 1.8042747452,
				"z": 3.3007148592,
				"element": "H" 
			},
			{
				"x": -1.3013827817,
				"y": 3.3084929192,
				"z": 2.2396684251,
				"element": "H" 
			},
			{
				"x": 0.1332340728,
				"y": 5.3219980626,
				"z": 2.3018568589,
				"element": "H" 
			},
			{
				"x": 0.5347247409,
				"y": 5.6454967321,
				"z": 0.6206603443,
				"element": "H" 
			},
			{
				"x": 2.4616102215,
				"y": 6.1984191278,
				"z": 2.1292986898,
				"element": "H" 
			},
			{
				"x": 2.3956111348,
				"y": 4.5580612589,
				"z": 2.7912066808,
				"element": "H" 
			},
			{
				"x": 4.8529728326,
				"y": 5.2089905063,
				"z": 1.9680749449,
				"element": "H" 
			},
			{
				"x": 4.4557244049,
				"y": 3.4779163889,
				"z": 2.0106142117,
				"element": "H" 
			},
			{
				"x": 5.1917341201,
				"y": 4.2047743461,
				"z": 0.5561334559,
				"element": "H" 
			},
			{
				"x": 3.4731120596,
				"y": 3.0924195016,
				"z": -0.4662894078,
				"element": "H" 
			},
			{
				"x": 3.2828536336,
				"y": 5.1967076264,
				"z": -1.6240667686,
				"element": "H" 
			},
			{
				"x": 1.6053304427,
				"y": 5.4052014901,
				"z": -1.1931963762,
				"element": "H" 
			},
			{
				"x": -0.1335756768,
				"y": 4.7161241931,
				"z": -2.668796935,
				"element": "H" 
			},
			{
				"x": -1.012977235,
				"y": 3.1018620366,
				"z": -4.31272475,
				"element": "H" 
			},
			{
				"x": -1.2675767918,
				"y": -1.3203390586,
				"z": -4.8735238623,
				"element": "H" 
			},
			{
				"x": 2.9624090283,
				"y": 1.6787601536,
				"z": -5.0534249819,
				"element": "H" 
			},
			{
				"x": 3.8514239317,
				"y": 3.3375583903,
				"z": -3.4476285404,
				"element": "H" 
			},
			{
				"x": 2.3187002705,
				"y": 0.9522922523,
				"z": -0.1132019687,
				"element": "H" 
			},
			{
				"x": 0.5368981162,
				"y": 0.6122774573,
				"z": 4.2832458018,
				"element": "H" 
			},
			{
				"x": -1.0264195322,
				"y": -0.2419574073,
				"z": 4.1722534507,
				"element": "H" 
			},
			{
				"x": 0.3153965869,
				"y": -0.9677150459,
				"z": 5.0890087137,
				"element": "H" 
			},
			{
				"x": 1.2690649846,
				"y": -3.1473616954,
				"z": 4.4064894084,
				"element": "H" 
			},
			{
				"x": 0.4842232127,
				"y": -4.7362652228,
				"z": 4.1824522661,
				"element": "H" 
			},
			{
				"x": 0.3413931158,
				"y": -3.8849582927,
				"z": 5.7459076633,
				"element": "H" 
			},
			{
				"x": -2.1494742649,
				"y": -4.6143060297,
				"z": 2.6194388044,
				"element": "H" 
			}
		],
		 "valence_orbital": [ 
			{
				"type": "occ",
				"energy": -0.2061,
				"method": "rhf"
			},
			{
				"type": "occ",
				"energy": -0.20092,
				"method": "rhf"
			},
			{
				"type": "occ",
				"energy": -0.19788,
				"method": "rhf"
			},
			{
				"type": "occ",
				"energy": -0.19248,
				"method": "rhf"
			},
			{
				"type": "occ",
				"energy": -0.17976,
				"method": "rhf"
			},
			{
				"type": "unocc",
				"energy": -0.02258,
				"method": "rhf"
			},
			{
				"type": "unocc",
				"energy": -0.00171,
				"method": "rhf"
			},
			{
				"type": "unocc",
				"energy": 0.00145,
				"method": "rhf"
			},
			{
				"type": "unocc",
				"energy": 0.00513,
				"method": "rhf"
			},
			{
				"type": "unocc",
				"energy": 0.0102,
				"method": "rhf"
			}
		],
		"cosmo_sigma_profile": { 
			"-0.025": 0.0,
			"-0.024": 0.0,
			"-0.023": 0.0,
			"-0.022": 0.0,
			"-0.021": 0.0,
			"-0.02": 0.0,
			"-0.019": 0.0,
			"-0.018": 0.0,
			"-0.017": 0.0,
			"-0.016": 0.0,
			"-0.015": 0.0,
			"-0.014": 0.0,
			"-0.013": 0.0,
			"-0.012": 0.0,
			"-0.011": 0.0,
			"-0.01": 0.0,
			"-0.009": 0.0,
			"-0.008": 0.0,
			"-0.007": 0.094028729136,
			"-0.006": 9.1009676896,
			"-0.005": 30.1849197177,
			"-0.004": 59.2188842835,
			"-0.003": 79.2713405682,
			"-0.002": 78.9921516231,
			"-0.001": 68.5390112763,
			"0.0": 58.4846721017,
			"0.001": 37.2035091721,
			"0.002": 32.5833512592,
			"0.003": 31.1237428586,
			"0.004": 26.6766945713,
			"0.005": 26.8160311467,
			"0.006": 20.8580230788,
			"0.007": 11.998789247,
			"0.008": 6.95524142811,
			"0.009": 4.8455531104,
			"0.01": 5.40777460025,
			"0.011": 3.15618498714,
			"0.012": 2.79547677115,
			"0.013": 1.1039632986,
			"0.014": 0.64166956955,
			"0.015": 0.283285675553,
			"0.016": 0.0622985232247,
			"0.017": 0.0,
			"0.018": 0.0,
			"0.019": 0.0,
			"0.02": 0.0,
			"0.021": 0.0,
			"0.022": 0.0,
			"0.023": 0.0,
			"0.024": 0.0,
			"0.025": 0.0
		}
	}
}
