{
	 "smiles": "CCOC1=CC2=C(C=C1)N=C(NS(=O)(=O)C1=C(Cl)C=C(Cl)C(=C1)C(O)=O)S2", 
	 "Tm": 437.15, 
	 "num_atms": 39, 
	 "gaussian": { 
		 "optdone": 1, 
		 "sigma_profile": "yes", 
		 "theory": "DFT", 
		 "functional": "B3LYP", 
		 "basiset": "6-31G**", 
		 "properties": { 
			 "R2extent": 18517.8068, 
			 "electric_dipole_moment_norm": 5.67240932409, 
			 "electric_quadrupole_moment_norm": 28.9079810715, 
			 "total_energy": -2819.23802133, 
			 "HOMO_LUMO_gap": 0.12525, 
			 "cosmo_polarized_energy": -25.1, 
			 "cosmo_cavitation_energy": 51.17, 
			 "cosmo_dispersion_energy": -36.61, 
			 "cosmo_repulsion_energy": 2.69, 
			 "cosmo_total_nonelectrostatic_energy": 17.25, 
			 "SMD_solvation_energy": 7.4 
		},
		"coords": [
			{
				"x": 2.4579437378,
				"y": -6.3252757453,
				"z": -2.4023122964,
				"element": "C" 
			},
			{
				"x": 1.7729746347,
				"y": -5.2258494065,
				"z": -1.6096962276,
				"element": "C" 
			},
			{
				"x": 1.7782065391,
				"y": -4.048159844,
				"z": -2.4172793525,
				"element": "O" 
			},
			{
				"x": 1.2238303176,
				"y": -2.9044355608,
				"z": -1.9229250646,
				"element": "C" 
			},
			{
				"x": 1.2897366657,
				"y": -1.7934634991,
				"z": -2.7762572853,
				"element": "C" 
			},
			{
				"x": 0.7485680885,
				"y": -0.5944236754,
				"z": -2.3329348836,
				"element": "C" 
			},
			{
				"x": 0.1308380563,
				"y": -0.4686577226,
				"z": -1.0633364221,
				"element": "C" 
			},
			{
				"x": 0.0772997611,
				"y": -1.5872746956,
				"z": -0.2292962064,
				"element": "C" 
			},
			{
				"x": 0.6205972036,
				"y": -2.7974018748,
				"z": -0.655269575,
				"element": "C" 
			},
			{
				"x": -0.3879217048,
				"y": 0.7861548751,
				"z": -0.7688120045,
				"element": "N" 
			},
			{
				"x": -0.1678829079,
				"y": 1.6058549535,
				"z": -1.7359514288,
				"element": "C" 
			},
			{
				"x": -0.5740612814,
				"y": 2.9352169679,
				"z": -1.7310281198,
				"element": "N" 
			},
			{
				"x": -0.7274100867,
				"y": 3.8640045318,
				"z": -0.3099996179,
				"element": "S" 
			},
			{
				"x": -0.8929062683,
				"y": 5.2240904787,
				"z": -0.8144370155,
				"element": "O" 
			},
			{
				"x": 0.3176045361,
				"y": 3.5243017567,
				"z": 0.6451540647,
				"element": "O" 
			},
			{
				"x": -2.2849742908,
				"y": 3.2716153068,
				"z": 0.3806914175,
				"element": "C" 
			},
			{
				"x": -3.5331011381,
				"y": 3.4486563769,
				"z": -0.2357231905,
				"element": "C" 
			},
			{
				"x": -3.7318447787,
				"y": 4.2029935657,
				"z": -1.7906072686,
				"element": "Cl" 
			},
			{
				"x": -4.6815184705,
				"y": 2.9886112751,
				"z": 0.4045474055,
				"element": "C" 
			},
			{
				"x": -4.5873763719,
				"y": 2.3636554391,
				"z": 1.6465926698,
				"element": "C" 
			},
			{
				"x": -6.1237700301,
				"y": 1.8280389905,
				"z": 2.3327301998,
				"element": "Cl" 
			},
			{
				"x": -3.3531222552,
				"y": 2.1634589785,
				"z": 2.2867611852,
				"element": "C" 
			},
			{
				"x": -2.215366144,
				"y": 2.6299618441,
				"z": 1.6112635427,
				"element": "C" 
			},
			{
				"x": -3.0537200038,
				"y": 1.4841614953,
				"z": 3.6127950628,
				"element": "C" 
			},
			{
				"x": -4.0626725305,
				"y": 1.2011634029,
				"z": 4.4533894108,
				"element": "O" 
			},
			{
				"x": -1.915487442,
				"y": 1.2169491701,
				"z": 3.9191610025,
				"element": "O" 
			},
			{
				"x": 0.6955955854,
				"y": 0.9605193557,
				"z": -3.1614599572,
				"element": "S" 
			},
			{
				"x": 1.9258488472,
				"y": -6.5142976224,
				"z": -3.3387702786,
				"element": "H" 
			},
			{
				"x": 2.4768068727,
				"y": -7.2515750847,
				"z": -1.8200898596,
				"element": "H" 
			},
			{
				"x": 3.4873034381,
				"y": -6.0440868684,
				"z": -2.641187038,
				"element": "H" 
			},
			{
				"x": 0.738997995,
				"y": -5.5065358405,
				"z": -1.3641003653,
				"element": "H" 
			},
			{
				"x": 2.3032054843,
				"y": -5.034549319,
				"z": -0.6662169355,
				"element": "H" 
			},
			{
				"x": 1.7635503272,
				"y": -1.9014942296,
				"z": -3.7452498488,
				"element": "H" 
			},
			{
				"x": -0.3861780035,
				"y": -1.4999799342,
				"z": 0.7477257695,
				"element": "H" 
			},
			{
				"x": 0.5735649739,
				"y": -3.6552962399,
				"z": 0.0036580944,
				"element": "H" 
			},
			{
				"x": -0.3944953876,
				"y": 3.520038121,
				"z": -2.5384754461,
				"element": "H" 
			},
			{
				"x": -5.6476350142,
				"y": 3.1166238695,
				"z": -0.0674016847,
				"element": "H" 
			},
			{
				"x": -1.2496536724,
				"y": 2.4671230449,
				"z": 2.0752461071,
				"element": "H" 
			},
			{
				"x": -4.924475282,
				"y": 1.4605633629,
				"z": 4.0904014406,
				"element": "H" 
			}
		],
		 "valence_orbital": [ 
			{
				"type": "occ",
				"energy": -0.29052,
				"method": "rhf"
			},
			{
				"type": "occ",
				"energy": -0.28512,
				"method": "rhf"
			},
			{
				"type": "occ",
				"energy": -0.28379,
				"method": "rhf"
			},
			{
				"type": "occ",
				"energy": -0.24199,
				"method": "rhf"
			},
			{
				"type": "occ",
				"energy": -0.21173,
				"method": "rhf"
			},
			{
				"type": "unocc",
				"energy": -0.08648,
				"method": "rhf"
			},
			{
				"type": "unocc",
				"energy": -0.06312,
				"method": "rhf"
			},
			{
				"type": "unocc",
				"energy": -0.02946,
				"method": "rhf"
			},
			{
				"type": "unocc",
				"energy": -0.0276,
				"method": "rhf"
			},
			{
				"type": "unocc",
				"energy": -0.01431,
				"method": "rhf"
			}
		],
		"cosmo_sigma_profile": { 
			"-0.025": 0.0,
			"-0.024": 0.0,
			"-0.023": 0.0,
			"-0.022": 0.0,
			"-0.021": 0.0,
			"-0.02": 0.0,
			"-0.019": 0.00410828814577,
			"-0.018": 0.623102221757,
			"-0.017": 1.11215180483,
			"-0.016": 0.817598746388,
			"-0.015": 1.25263742397,
			"-0.014": 1.1868274711,
			"-0.013": 1.48793545503,
			"-0.012": 2.6098489515,
			"-0.011": 2.26609095114,
			"-0.01": 3.52197088064,
			"-0.009": 3.82002418289,
			"-0.008": 5.72808442745,
			"-0.007": 8.51606150607,
			"-0.006": 14.5748248568,
			"-0.005": 21.5822035487,
			"-0.004": 31.1686031566,
			"-0.003": 38.6548290938,
			"-0.002": 34.1594416284,
			"-0.001": 30.2377143035,
			"0.0": 30.4402510785,
			"0.001": 31.6471554465,
			"0.002": 28.6730963629,
			"0.003": 28.2029099083,
			"0.004": 19.3696806847,
			"0.005": 9.77062989271,
			"0.006": 10.728886391,
			"0.007": 9.48548581772,
			"0.008": 11.4687488189,
			"0.009": 16.3066564192,
			"0.01": 11.8012873727,
			"0.011": 4.23829103276,
			"0.012": 2.09232801063,
			"0.013": 0.175581520773,
			"0.014": 0.0,
			"0.015": 0.0,
			"0.016": 0.0,
			"0.017": 0.0,
			"0.018": 0.0,
			"0.019": 0.0,
			"0.02": 0.0,
			"0.021": 0.0,
			"0.022": 0.0,
			"0.023": 0.0,
			"0.024": 0.0,
			"0.0": 0.0
		}
	}
}
