{
	 "smiles": "CCOC1=CC=C(C=C1)C(O)=O", 
	 "Tm": 471.15, 
	 "num_atms": 22, 
	 "gaussian": { 
		 "optdone": 1, 
		 "sigma_profile": "yes", 
		 "theory": "DFT", 
		 "functional": "B3LYP", 
		 "basiset": "6-31G**", 
		 "properties": { 
			 "R2extent": 2998.8126, 
			 "electric_dipole_moment_norm": 2.65257966704, 
			 "electric_quadrupole_moment_norm": 12.0375570591, 
			 "total_energy": -574.672294126, 
			 "HOMO_LUMO_gap": 0.19281, 
			 "cosmo_polarized_energy": -10.68, 
			 "cosmo_cavitation_energy": 26.1, 
			 "cosmo_dispersion_energy": -19.31, 
			 "cosmo_repulsion_energy": 1.55, 
			 "cosmo_total_nonelectrostatic_energy": 8.34, 
			 "SMD_solvation_energy": 6.17 
		},
		"coords": [
			{
				"x": 0.8084662687,
				"y": -3.0481823793,
				"z": 1.2122092972,
				"element": "C" 
			},
			{
				"x": 1.5980531203,
				"y": -1.8257606595,
				"z": 1.666937268,
				"element": "C" 
			},
			{
				"x": 2.0243530694,
				"y": -1.0099642544,
				"z": 0.5686707507,
				"element": "O" 
			},
			{
				"x": 1.165430648,
				"y": -0.1261679575,
				"z": -0.0035422581,
				"element": "C" 
			},
			{
				"x": 1.6872580984,
				"y": 0.5974212088,
				"z": -1.0908864813,
				"element": "C" 
			},
			{
				"x": 0.9087154137,
				"y": 1.5397282889,
				"z": -1.7435069174,
				"element": "C" 
			},
			{
				"x": -0.4117054011,
				"y": 1.7828175024,
				"z": -1.3267289512,
				"element": "C" 
			},
			{
				"x": -0.9258681475,
				"y": 1.0585973609,
				"z": -0.2451060808,
				"element": "C" 
			},
			{
				"x": -0.1538564642,
				"y": 0.108712574,
				"z": 0.4169685053,
				"element": "C" 
			},
			{
				"x": -1.2882580997,
				"y": 2.7750576762,
				"z": -1.9859668546,
				"element": "C" 
			},
			{
				"x": -0.6843283539,
				"y": 3.4179694943,
				"z": -3.0213448304,
				"element": "O" 
			},
			{
				"x": -2.4365761414,
				"y": 3.0203620434,
				"z": -1.6652256564,
				"element": "O" 
			},
			{
				"x": -0.1265753111,
				"y": -2.7678399333,
				"z": 0.7198916028,
				"element": "H" 
			},
			{
				"x": 1.4003189362,
				"y": -3.6406191176,
				"z": 0.5088487561,
				"element": "H" 
			},
			{
				"x": 0.5655528138,
				"y": -3.6778469601,
				"z": 2.0745958229,
				"element": "H" 
			},
			{
				"x": 2.5292564969,
				"y": -2.1327622146,
				"z": 2.1507375584,
				"element": "H" 
			},
			{
				"x": 1.035348374,
				"y": -1.2233550568,
				"z": 2.3903942692,
				"element": "H" 
			},
			{
				"x": 2.7089048529,
				"y": 0.3988777593,
				"z": -1.3970509195,
				"element": "H" 
			},
			{
				"x": 1.3170649932,
				"y": 2.0953199052,
				"z": -2.5800956461,
				"element": "H" 
			},
			{
				"x": -1.946655303,
				"y": 1.2518140482,
				"z": 0.0676169566,
				"element": "H" 
			},
			{
				"x": -0.5837719648,
				"y": -0.4385092263,
				"z": 1.2469140479,
				"element": "H" 
			},
			{
				"x": -1.3508278988,
				"y": 4.0339298979,
				"z": -3.3665302393,
				"element": "H" 
			}
		],
		 "valence_orbital": [ 
			{
				"type": "occ",
				"energy": -0.32669,
				"method": "rhf"
			},
			{
				"type": "occ",
				"energy": -0.30802,
				"method": "rhf"
			},
			{
				"type": "occ",
				"energy": -0.26855,
				"method": "rhf"
			},
			{
				"type": "occ",
				"energy": -0.25976,
				"method": "rhf"
			},
			{
				"type": "occ",
				"energy": -0.22803,
				"method": "rhf"
			},
			{
				"type": "unocc",
				"energy": -0.03522,
				"method": "rhf"
			},
			{
				"type": "unocc",
				"energy": -0.00809,
				"method": "rhf"
			},
			{
				"type": "unocc",
				"energy": 0.0681,
				"method": "rhf"
			},
			{
				"type": "unocc",
				"energy": 0.08046,
				"method": "rhf"
			},
			{
				"type": "unocc",
				"energy": 0.09096,
				"method": "rhf"
			}
		],
		"cosmo_sigma_profile": { 
			"-0.025": 0.0,
			"-0.024": 0.0,
			"-0.023": 0.0,
			"-0.022": 0.0,
			"-0.021": 0.0,
			"-0.02": 0.0,
			"-0.019": 0.0,
			"-0.018": 0.292079561724,
			"-0.017": 1.25148443122,
			"-0.016": 0.521419793854,
			"-0.015": 0.682067196359,
			"-0.014": 0.74324429314,
			"-0.013": 1.07762799673,
			"-0.012": 0.532283909706,
			"-0.011": 0.636153953168,
			"-0.01": 0.832077790453,
			"-0.009": 0.672567847236,
			"-0.008": 0.95749051014,
			"-0.007": 3.36234814521,
			"-0.006": 9.36699644603,
			"-0.005": 14.0524909364,
			"-0.004": 17.0105454025,
			"-0.003": 16.5931019724,
			"-0.002": 14.9767801878,
			"-0.001": 15.5400320142,
			"0.0": 16.778823832,
			"0.001": 15.1428252747,
			"0.002": 14.8051776724,
			"0.003": 16.3289836265,
			"0.004": 13.4292911901,
			"0.005": 5.18106890111,
			"0.006": 3.34633308846,
			"0.007": 4.20608232004,
			"0.008": 4.38654013424,
			"0.009": 3.17848164577,
			"0.01": 2.42540734972,
			"0.011": 2.33335461068,
			"0.012": 5.49649128139,
			"0.013": 1.06852162656,
			"0.014": 0.0,
			"0.015": 0.0,
			"0.016": 0.0,
			"0.017": 0.0,
			"0.018": 0.0,
			"0.019": 0.0,
			"0.02": 0.0,
			"0.021": 0.0,
			"0.022": 0.0,
			"0.023": 0.0,
			"0.024": 0.0,
			"0.025": 0.0
		}
	}
}
