{
	 "smiles": "ClC1=C(C=CC=C1)C(=O)NC1=C(Cl)N=CC=C1", 
	 "Tm": 389.15, 
	 "num_atms": 25, 
	 "gaussian": { 
		 "optdone": 1, 
		 "sigma_profile": "yes", 
		 "theory": "DFT", 
		 "functional": "B3LYP", 
		 "basiset": "6-31G**", 
		 "properties": { 
			 "R2extent": 5481.0871, 
			 "electric_dipole_moment_norm": 3.06540196549, 
			 "electric_quadrupole_moment_norm": 16.9234300586, 
			 "total_energy": -1567.22285729, 
			 "HOMO_LUMO_gap": 0.17788, 
			 "cosmo_polarized_energy": -10.14, 
			 "cosmo_cavitation_energy": 33.31, 
			 "cosmo_dispersion_energy": -24.35, 
			 "cosmo_repulsion_energy": 1.85, 
			 "cosmo_total_nonelectrostatic_energy": 10.81, 
			 "SMD_solvation_energy": 4.2 
		},
		"coords": [
			{
				"x": 1.3350827714,
				"y": 1.6718308568,
				"z": -1.638864133,
				"element": "Cl" 
			},
			{
				"x": 2.41272255,
				"y": 0.3396769362,
				"z": -1.2150401136,
				"element": "C" 
			},
			{
				"x": 2.2169605916,
				"y": -0.4515975666,
				"z": -0.0702271969,
				"element": "C" 
			},
			{
				"x": 3.181161189,
				"y": -1.4376496853,
				"z": 0.2054331132,
				"element": "C" 
			},
			{
				"x": 4.2676170952,
				"y": -1.6556740039,
				"z": -0.6331801034,
				"element": "C" 
			},
			{
				"x": 4.4294666368,
				"y": -0.8657053561,
				"z": -1.7724894972,
				"element": "C" 
			},
			{
				"x": 3.5075457668,
				"y": 0.1382383672,
				"z": -2.0579378197,
				"element": "C" 
			},
			{
				"x": 1.1095484992,
				"y": -0.3573207809,
				"z": 0.9557034515,
				"element": "C" 
			},
			{
				"x": 1.3455175319,
				"y": -0.6158636552,
				"z": 2.130706701,
				"element": "O" 
			},
			{
				"x": -0.1471094187,
				"y": -0.056347401,
				"z": 0.4828364623,
				"element": "N" 
			},
			{
				"x": -1.3347049028,
				"y": 0.0364877651,
				"z": 1.2183517504,
				"element": "C" 
			},
			{
				"x": -2.5574332724,
				"y": 0.2706338873,
				"z": 0.5478708934,
				"element": "C" 
			},
			{
				"x": -2.5490815072,
				"y": 0.4322834953,
				"z": -1.220421293,
				"element": "Cl" 
			},
			{
				"x": -3.7280431491,
				"y": 0.3797085897,
				"z": 1.1286107954,
				"element": "N" 
			},
			{
				"x": -3.7890489514,
				"y": 0.2616835895,
				"z": 2.4627380593,
				"element": "C" 
			},
			{
				"x": -2.6571496795,
				"y": 0.028681184,
				"z": 3.236416039,
				"element": "C" 
			},
			{
				"x": -1.4155551984,
				"y": -0.0863457155,
				"z": 2.6140908971,
				"element": "C" 
			},
			{
				"x": 3.0483104491,
				"y": -2.0230782629,
				"z": 1.1083501926,
				"element": "H" 
			},
			{
				"x": 4.9869430833,
				"y": -2.4331382017,
				"z": -0.3964615464,
				"element": "H" 
			},
			{
				"x": 5.2751413646,
				"y": -1.0194222162,
				"z": -2.4358654545,
				"element": "H" 
			},
			{
				"x": 3.6313711488,
				"y": 0.776109263,
				"z": -2.9258100268,
				"element": "H" 
			},
			{
				"x": -0.2458179825,
				"y": 0.1209228556,
				"z": -0.5085177516,
				"element": "H" 
			},
			{
				"x": -4.7755439234,
				"y": 0.3573138692,
				"z": 2.9086352498,
				"element": "H" 
			},
			{
				"x": -2.7367308167,
				"y": -0.0630124173,
				"z": 4.3146959933,
				"element": "H" 
			},
			{
				"x": -0.5109698755,
				"y": -0.2718153963,
				"z": 3.1748753381,
				"element": "H" 
			}
		],
		 "valence_orbital": [ 
			{
				"type": "occ",
				"energy": -0.28246,
				"method": "rhf"
			},
			{
				"type": "occ",
				"energy": -0.27605,
				"method": "rhf"
			},
			{
				"type": "occ",
				"energy": -0.26474,
				"method": "rhf"
			},
			{
				"type": "occ",
				"energy": -0.26441,
				"method": "rhf"
			},
			{
				"type": "occ",
				"energy": -0.23806,
				"method": "rhf"
			},
			{
				"type": "unocc",
				"energy": -0.06018,
				"method": "rhf"
			},
			{
				"type": "unocc",
				"energy": -0.03178,
				"method": "rhf"
			},
			{
				"type": "unocc",
				"energy": -0.02765,
				"method": "rhf"
			},
			{
				"type": "unocc",
				"energy": -0.01656,
				"method": "rhf"
			},
			{
				"type": "unocc",
				"energy": 0.01215,
				"method": "rhf"
			}
		],
		"cosmo_sigma_profile": { 
			"-0.025": 0.0,
			"-0.024": 0.0,
			"-0.023": 0.0,
			"-0.022": 0.0,
			"-0.021": 0.0,
			"-0.02": 0.0,
			"-0.019": 0.0,
			"-0.018": 0.0,
			"-0.017": 0.0,
			"-0.016": 0.0,
			"-0.015": 0.0,
			"-0.014": 0.0,
			"-0.013": 0.0,
			"-0.012": 0.0,
			"-0.011": 0.526042939759,
			"-0.01": 0.638986631078,
			"-0.009": 0.599705374666,
			"-0.008": 2.91029645192,
			"-0.007": 11.7307820457,
			"-0.006": 15.0503568386,
			"-0.005": 15.1198387117,
			"-0.004": 11.840670553,
			"-0.003": 16.7396917967,
			"-0.002": 19.758333599,
			"-0.001": 25.9391956687,
			"0.0": 28.3829683729,
			"0.001": 30.6961405217,
			"0.002": 29.5648206452,
			"0.003": 22.1179110215,
			"0.004": 12.8043480596,
			"0.005": 5.92514397758,
			"0.006": 3.86964355996,
			"0.007": 3.45039417229,
			"0.008": 2.58613520919,
			"0.009": 2.38864897075,
			"0.01": 3.75777601556,
			"0.011": 3.10652342085,
			"0.012": 2.83365543379,
			"0.013": 1.02128634465,
			"0.014": 0.509970478558,
			"0.015": 0.0,
			"0.016": 0.0,
			"0.017": 0.0,
			"0.018": 0.0,
			"0.019": 0.0,
			"0.02": 0.0,
			"0.021": 0.0,
			"0.022": 0.0,
			"0.023": 0.0,
			"0.024": 0.0,
			"0.025": 0.0
		}
	}
}
