{
	 "smiles": "CN1C(CC2=CC=C(O)C=C2)C(=O)NC1=N", 
	 "Tm": 496.15, 
	 "num_atms": 29, 
	 "gaussian": { 
		 "optdone": 1, 
		 "sigma_profile": "yes", 
		 "theory": "DFT", 
		 "functional": "B3LYP", 
		 "basiset": "6-31G**", 
		 "properties": { 
			 "R2extent": 5242.7628, 
			 "electric_dipole_moment_norm": 1.74238980139, 
			 "electric_quadrupole_moment_norm": 17.7457426213, 
			 "total_energy": -741.721295781, 
			 "HOMO_LUMO_gap": 0.2049, 
			 "cosmo_polarized_energy": -20.65, 
			 "cosmo_cavitation_energy": 32.74, 
			 "cosmo_dispersion_energy": -23.08, 
			 "cosmo_repulsion_energy": 1.81, 
			 "cosmo_total_nonelectrostatic_energy": 11.47, 
			 "SMD_solvation_energy": 5.17 
		},
		"coords": [
			{
				"x": 0.1742352484,
				"y": 1.082914709,
				"z": 0.8367253649,
				"element": "C" 
			},
			{
				"x": -0.739570545,
				"y": 1.2669005546,
				"z": -0.2797418154,
				"element": "N" 
			},
			{
				"x": -1.2166372275,
				"y": 0.1473286968,
				"z": -1.0845057542,
				"element": "C" 
			},
			{
				"x": -2.3688181623,
				"y": -0.6851853374,
				"z": -0.4774051033,
				"element": "C" 
			},
			{
				"x": -1.9750893002,
				"y": -1.6007436596,
				"z": 0.6616154213,
				"element": "C" 
			},
			{
				"x": -2.3911062709,
				"y": -1.3498290465,
				"z": 1.9737236773,
				"element": "C" 
			},
			{
				"x": -2.0291186602,
				"y": -2.1928366268,
				"z": 3.0260461437,
				"element": "C" 
			},
			{
				"x": -1.2357011792,
				"y": -3.3162250388,
				"z": 2.7768247143,
				"element": "C" 
			},
			{
				"x": -0.8449262439,
				"y": -4.1825258645,
				"z": 3.7584064663,
				"element": "O" 
			},
			{
				"x": -0.8147496354,
				"y": -3.5893105234,
				"z": 1.469712658,
				"element": "C" 
			},
			{
				"x": -1.1863223177,
				"y": -2.7399103288,
				"z": 0.4328450302,
				"element": "C" 
			},
			{
				"x": -1.6819368224,
				"y": 0.8312645653,
				"z": -2.3771852226,
				"element": "C" 
			},
			{
				"x": -2.2481191651,
				"y": 0.316416666,
				"z": -3.3202591697,
				"element": "O" 
			},
			{
				"x": -1.3405023834,
				"y": 2.1565870854,
				"z": -2.2377042104,
				"element": "N" 
			},
			{
				"x": -0.7110117018,
				"y": 2.444791015,
				"z": -1.0081495069,
				"element": "C" 
			},
			{
				"x": -0.2018576929,
				"y": 3.541803722,
				"z": -0.5982562646,
				"element": "N" 
			},
			{
				"x": 0.4491246985,
				"y": 2.0702433179,
				"z": 1.207599144,
				"element": "H" 
			},
			{
				"x": 1.0868901736,
				"y": 0.5530689268,
				"z": 0.526208422,
				"element": "H" 
			},
			{
				"x": -0.30525535,
				"y": 0.5109528574,
				"z": 1.632871988,
				"element": "H" 
			},
			{
				"x": -0.3856789648,
				"y": -0.530861039,
				"z": -1.3411136062,
				"element": "H" 
			},
			{
				"x": -3.1527221116,
				"y": 0.0065774383,
				"z": -0.1510984236,
				"element": "H" 
			},
			{
				"x": -2.782745315,
				"y": -1.2699538336,
				"z": -1.3076168993,
				"element": "H" 
			},
			{
				"x": -3.0109570465,
				"y": -0.4812555639,
				"z": 2.1816044306,
				"element": "H" 
			},
			{
				"x": -2.3671946411,
				"y": -1.9772569414,
				"z": 4.0376905661,
				"element": "H" 
			},
			{
				"x": -1.2050830931,
				"y": -3.8864854169,
				"z": 4.604394806,
				"element": "H" 
			},
			{
				"x": -0.2081216277,
				"y": -4.470360542,
				"z": 1.2878305427,
				"element": "H" 
			},
			{
				"x": -0.86234964,
				"y": -2.9736176376,
				"z": -0.5788568143,
				"element": "H" 
			},
			{
				"x": -1.5468945896,
				"y": 2.851742467,
				"z": -2.9398977993,
				"element": "H" 
			},
			{
				"x": -0.2991804333,
				"y": 4.2823653787,
				"z": -1.2899087855,
				"element": "H" 
			}
		],
		 "valence_orbital": [ 
			{
				"type": "occ",
				"energy": -0.27088,
				"method": "rhf"
			},
			{
				"type": "occ",
				"energy": -0.25819,
				"method": "rhf"
			},
			{
				"type": "occ",
				"energy": -0.25653,
				"method": "rhf"
			},
			{
				"type": "occ",
				"energy": -0.23036,
				"method": "rhf"
			},
			{
				"type": "occ",
				"energy": -0.2168,
				"method": "rhf"
			},
			{
				"type": "unocc",
				"energy": -0.0119,
				"method": "rhf"
			},
			{
				"type": "unocc",
				"energy": -0.0045,
				"method": "rhf"
			},
			{
				"type": "unocc",
				"energy": 0.01062,
				"method": "rhf"
			},
			{
				"type": "unocc",
				"energy": 0.06568,
				"method": "rhf"
			},
			{
				"type": "unocc",
				"energy": 0.0668,
				"method": "rhf"
			}
		],
		"cosmo_sigma_profile": { 
			"-0.025": 0.0,
			"-0.024": 0.0,
			"-0.023": 0.0,
			"-0.022": 0.0,
			"-0.021": 0.0,
			"-0.02": 0.0,
			"-0.019": 0.0,
			"-0.018": 0.268193101673,
			"-0.017": 1.4764171666,
			"-0.016": 2.59277217139,
			"-0.015": 3.16361948328,
			"-0.014": 2.41194978124,
			"-0.013": 1.73007789807,
			"-0.012": 2.19615239617,
			"-0.011": 3.04978864879,
			"-0.01": 3.04942040963,
			"-0.009": 2.57012486493,
			"-0.008": 2.72451237837,
			"-0.007": 4.4848799846,
			"-0.006": 12.0374044756,
			"-0.005": 16.4210072977,
			"-0.004": 18.2275196271,
			"-0.003": 17.5089990768,
			"-0.002": 18.7797921013,
			"-0.001": 20.7406657493,
			"0.0": 14.73953652,
			"0.001": 11.26361214,
			"0.002": 11.1016833709,
			"0.003": 12.4649148121,
			"0.004": 13.7733293267,
			"0.005": 13.3588945612,
			"0.006": 8.7808606383,
			"0.007": 4.60260957738,
			"0.008": 3.68478176826,
			"0.009": 3.97391323693,
			"0.01": 5.48401880212,
			"0.011": 5.90729147522,
			"0.012": 6.81446916726,
			"0.013": 4.75558210374,
			"0.014": 1.30182464345,
			"0.015": 1.60105510563,
			"0.016": 1.11525328085,
			"0.017": 0.62721788827,
			"0.018": 0.0,
			"0.019": 0.0,
			"0.02": 0.0,
			"0.021": 0.0,
			"0.022": 0.0,
			"0.023": 0.0,
			"0.024": 0.0,
			"0.025": 0.0
		}
	}
}
