{
	 "smiles": "C[Si](O)(C1=CC=CC=C1)C1=CC=CC=C1", 
	 "Tm": 440.15, 
	 "num_atms": 29, 
	 "gaussian": { 
		 "optdone": 1, 
		 "sigma_profile": "yes", 
		 "theory": "DFT", 
		 "functional": "B3LYP", 
		 "basiset": "6-31G**", 
		 "properties": { 
			 "R2extent": 4052.195, 
			 "electric_dipole_moment_norm": 1.49595778684, 
			 "electric_quadrupole_moment_norm": 7.6431480857, 
			 "total_energy": -868.614674574, 
			 "HOMO_LUMO_gap": 0.22693, 
			 "cosmo_polarized_energy": -9.0, 
			 "cosmo_cavitation_energy": 33.97, 
			 "cosmo_dispersion_energy": -21.91, 
			 "cosmo_repulsion_energy": 1.82, 
			 "cosmo_total_nonelectrostatic_energy": 13.89, 
			 "SMD_solvation_energy": 6.44 
		},
		"coords": [
			{
				"x": -2.2181738155,
				"y": -1.8311564222,
				"z": 1.3464199143,
				"element": "C" 
			},
			{
				"x": -0.5111899035,
				"y": -1.3517138203,
				"z": 0.7310517989,
				"element": "Si" 
			},
			{
				"x": 0.2780160783,
				"y": -2.8128278866,
				"z": 0.4817605731,
				"element": "O" 
			},
			{
				"x": 0.4125495218,
				"y": -0.3000375445,
				"z": 1.9964054719,
				"element": "C" 
			},
			{
				"x": 0.2268392904,
				"y": -0.5059682631,
				"z": 3.3773292231,
				"element": "C" 
			},
			{
				"x": 0.9404507524,
				"y": 0.2290550407,
				"z": 4.3246094684,
				"element": "C" 
			},
			{
				"x": 1.8628005759,
				"y": 1.1922658967,
				"z": 3.9098496337,
				"element": "C" 
			},
			{
				"x": 2.0654173431,
				"y": 1.415640811,
				"z": 2.5470617459,
				"element": "C" 
			},
			{
				"x": 1.346636917,
				"y": 0.6777614479,
				"z": 1.6043899772,
				"element": "C" 
			},
			{
				"x": -0.6136830291,
				"y": -0.4303911133,
				"z": -0.911135086,
				"element": "C" 
			},
			{
				"x": -0.3278841661,
				"y": -1.097059979,
				"z": -2.1166229497,
				"element": "C" 
			},
			{
				"x": -0.4443166734,
				"y": -0.4499106656,
				"z": -3.3485507741,
				"element": "C" 
			},
			{
				"x": -0.8537165186,
				"y": 0.8835285446,
				"z": -3.4003110328,
				"element": "C" 
			},
			{
				"x": -1.1439059433,
				"y": 1.5661480902,
				"z": -2.2167120037,
				"element": "C" 
			},
			{
				"x": -1.0235630579,
				"y": 0.9144444204,
				"z": -0.9884714707,
				"element": "C" 
			},
			{
				"x": -2.8575352373,
				"y": -0.9531401599,
				"z": 1.4842913829,
				"element": "H" 
			},
			{
				"x": -2.1666032699,
				"y": -2.370167901,
				"z": 2.2978497616,
				"element": "H" 
			},
			{
				"x": -2.703285262,
				"y": -2.489302168,
				"z": 0.6184086487,
				"element": "H" 
			},
			{
				"x": 1.2377943691,
				"y": -2.7677789325,
				"z": 0.4135148879,
				"element": "H" 
			},
			{
				"x": -0.486392438,
				"y": -1.2509547551,
				"z": 3.7216934839,
				"element": "H" 
			},
			{
				"x": 0.776859881,
				"y": 0.0528960292,
				"z": 5.3843603517,
				"element": "H" 
			},
			{
				"x": 2.418936851,
				"y": 1.7668302411,
				"z": 4.6455848955,
				"element": "H" 
			},
			{
				"x": 2.7797074589,
				"y": 2.165898332,
				"z": 2.218648634,
				"element": "H" 
			},
			{
				"x": 1.5074861489,
				"y": 0.873292156,
				"z": 0.5472361408,
				"element": "H" 
			},
			{
				"x": -0.0105174139,
				"y": -2.1362638944,
				"z": -2.0857038623,
				"element": "H" 
			},
			{
				"x": -0.2165101191,
				"y": -0.9851816,
				"z": -4.2665466977,
				"element": "H" 
			},
			{
				"x": -0.9454882676,
				"y": 1.3894974931,
				"z": -4.3575756822,
				"element": "H" 
			},
			{
				"x": -1.4609332699,
				"y": 2.6050485627,
				"z": -2.2513654963,
				"element": "H" 
			},
			{
				"x": -1.2432968028,
				"y": 1.4670480399,
				"z": -0.0773709381,
				"element": "H" 
			}
		],
		 "valence_orbital": [ 
			{
				"type": "occ",
				"energy": -0.27864,
				"method": "rhf"
			},
			{
				"type": "occ",
				"energy": -0.25213,
				"method": "rhf"
			},
			{
				"type": "occ",
				"energy": -0.2504,
				"method": "rhf"
			},
			{
				"type": "occ",
				"energy": -0.24681,
				"method": "rhf"
			},
			{
				"type": "occ",
				"energy": -0.24537,
				"method": "rhf"
			},
			{
				"type": "unocc",
				"energy": -0.01844,
				"method": "rhf"
			},
			{
				"type": "unocc",
				"energy": -0.01079,
				"method": "rhf"
			},
			{
				"type": "unocc",
				"energy": -0.00369,
				"method": "rhf"
			},
			{
				"type": "unocc",
				"energy": 0.00378,
				"method": "rhf"
			},
			{
				"type": "unocc",
				"energy": 0.06765,
				"method": "rhf"
			}
		],
		"cosmo_sigma_profile": { 
			"-0.025": 0.0,
			"-0.024": 0.0,
			"-0.023": 0.0,
			"-0.022": 0.0,
			"-0.021": 0.0,
			"-0.02": 0.0,
			"-0.019": 0.0,
			"-0.018": 0.0,
			"-0.017": 0.161729231057,
			"-0.016": 0.77406569631,
			"-0.015": 1.12960774604,
			"-0.014": 0.124899322134,
			"-0.013": 0.747144382126,
			"-0.012": 0.893869167548,
			"-0.011": 1.08739921027,
			"-0.01": 0.317298870539,
			"-0.009": 0.828371228372,
			"-0.008": 0.622226734822,
			"-0.007": 0.532370751205,
			"-0.006": 6.58740559826,
			"-0.005": 19.9140521458,
			"-0.004": 26.1387226239,
			"-0.003": 26.8166047101,
			"-0.002": 21.0420965951,
			"-0.001": 21.2636321401,
			"0.0": 19.8358316433,
			"0.001": 22.1445229639,
			"0.002": 16.9064814184,
			"0.003": 17.5724810656,
			"0.004": 16.9984489285,
			"0.005": 16.5414679422,
			"0.006": 15.6908907716,
			"0.007": 2.59911798687,
			"0.008": 1.10716624459,
			"0.009": 0.707099411237,
			"0.01": 1.27262147904,
			"0.011": 0.766899609145,
			"0.012": 1.26737058033,
			"0.013": 0.940316109106,
			"0.014": 1.40065328881,
			"0.015": 1.0773725742,
			"0.016": 0.0126407394999,
			"0.017": 0.0,
			"0.018": 0.0,
			"0.019": 0.0,
			"0.02": 0.0,
			"0.021": 0.0,
			"0.022": 0.0,
			"0.023": 0.0,
			"0.024": 0.0,
			"0.025": 0.0
		}
	}
}
