{
	 "smiles": "N#CCC1=CC=CC=C1CC#N", 
	 "Tm": 332.15, 
	 "num_atms": 20, 
	 "gaussian": { 
		 "optdone": 1, 
		 "sigma_profile": "yes", 
		 "theory": "DFT", 
		 "functional": "B3LYP", 
		 "basiset": "6-31G**", 
		 "properties": { 
			 "R2extent": 2700.6137, 
			 "electric_dipole_moment_norm": 4.49554594237, 
			 "electric_quadrupole_moment_norm": 20.4171922482, 
			 "total_energy": -495.353897833, 
			 "HOMO_LUMO_gap": 0.23636, 
			 "cosmo_polarized_energy": -14.97, 
			 "cosmo_cavitation_energy": 25.71, 
			 "cosmo_dispersion_energy": -17.3, 
			 "cosmo_repulsion_energy": 1.38, 
			 "cosmo_total_nonelectrostatic_energy": 9.79, 
			 "SMD_solvation_energy": 6.9 
		},
		"coords": [
			{
				"x": -2.2093389853,
				"y": 2.6140521356,
				"z": -3.1254261339,
				"element": "N" 
			},
			{
				"x": -1.4979414566,
				"y": 2.8164238269,
				"z": -2.2305236189,
				"element": "C" 
			},
			{
				"x": -0.5852179251,
				"y": 3.0358778248,
				"z": -1.1000444566,
				"element": "C" 
			},
			{
				"x": -0.4845539182,
				"y": 1.8277485894,
				"z": -0.1744511016,
				"element": "C" 
			},
			{
				"x": -1.0098086854,
				"y": 1.9188700919,
				"z": 1.11782939,
				"element": "C" 
			},
			{
				"x": -0.9343945438,
				"y": 0.845058146,
				"z": 2.005331425,
				"element": "C" 
			},
			{
				"x": -0.3282926118,
				"y": -0.3419873588,
				"z": 1.6004389559,
				"element": "C" 
			},
			{
				"x": 0.1988179985,
				"y": -0.4431905287,
				"z": 0.3126719086,
				"element": "C" 
			},
			{
				"x": 0.128216697,
				"y": 0.6267802187,
				"z": -0.5841772467,
				"element": "C" 
			},
			{
				"x": 0.7115870729,
				"y": 0.4580833881,
				"z": -1.9833473564,
				"element": "C" 
			},
			{
				"x": 1.9063779584,
				"y": 1.2832128562,
				"z": -2.2087436089,
				"element": "C" 
			},
			{
				"x": 2.8376029315,
				"y": 1.9574927403,
				"z": -2.3701668382,
				"element": "N" 
			},
			{
				"x": 0.3974187811,
				"y": 3.3077762097,
				"z": -1.5049678517,
				"element": "H" 
			},
			{
				"x": -0.9431552671,
				"y": 3.9038931911,
				"z": -0.5372973056,
				"element": "H" 
			},
			{
				"x": -1.4848514706,
				"y": 2.8442260076,
				"z": 1.4324668618,
				"element": "H" 
			},
			{
				"x": -1.3485791157,
				"y": 0.938627879,
				"z": 3.0045132868,
				"element": "H" 
			},
			{
				"x": -0.2627256063,
				"y": -1.1861542531,
				"z": 2.2799611853,
				"element": "H" 
			},
			{
				"x": 0.6739672002,
				"y": -1.3682280364,
				"z": -0.0027361322,
				"element": "H" 
			},
			{
				"x": 0.9857888753,
				"y": -0.5891499005,
				"z": -2.1457314376,
				"element": "H" 
			},
			{
				"x": -0.0268179288,
				"y": 0.7122869723,
				"z": -2.753799925,
				"element": "H" 
			}
		],
		 "valence_orbital": [ 
			{
				"type": "occ",
				"energy": -0.33707,
				"method": "rhf"
			},
			{
				"type": "occ",
				"energy": -0.32733,
				"method": "rhf"
			},
			{
				"type": "occ",
				"energy": -0.32618,
				"method": "rhf"
			},
			{
				"type": "occ",
				"energy": -0.27425,
				"method": "rhf"
			},
			{
				"type": "occ",
				"energy": -0.27049,
				"method": "rhf"
			},
			{
				"type": "unocc",
				"energy": -0.03413,
				"method": "rhf"
			},
			{
				"type": "unocc",
				"energy": -0.02805,
				"method": "rhf"
			},
			{
				"type": "unocc",
				"energy": 0.018,
				"method": "rhf"
			},
			{
				"type": "unocc",
				"energy": 0.03169,
				"method": "rhf"
			},
			{
				"type": "unocc",
				"energy": 0.03205,
				"method": "rhf"
			}
		],
		"cosmo_sigma_profile": { 
			"-0.025": 0.0,
			"-0.024": 0.0,
			"-0.023": 0.0,
			"-0.022": 0.0,
			"-0.021": 0.0,
			"-0.02": 0.0,
			"-0.019": 0.0,
			"-0.018": 0.0,
			"-0.017": 0.0,
			"-0.016": 0.0,
			"-0.015": 0.0,
			"-0.014": 0.0,
			"-0.013": 0.0,
			"-0.012": 0.0,
			"-0.011": 0.0,
			"-0.01": 1.13865812714,
			"-0.009": 7.25881089629,
			"-0.008": 7.6772732556,
			"-0.007": 12.6646723282,
			"-0.006": 18.5267471424,
			"-0.005": 16.3100535506,
			"-0.004": 12.8604333379,
			"-0.003": 9.58260315865,
			"-0.002": 11.1307985446,
			"-0.001": 9.33557719453,
			"0.0": 10.4145406321,
			"0.001": 9.4822547079,
			"0.002": 10.1237218088,
			"0.003": 11.7426959128,
			"0.004": 13.4289370892,
			"0.005": 5.44955138748,
			"0.006": 4.8253073181,
			"0.007": 4.35557552833,
			"0.008": 5.62703836744,
			"0.009": 6.55312548178,
			"0.01": 5.57108926643,
			"0.011": 5.71869305622,
			"0.012": 4.86423654049,
			"0.013": 2.9542673853,
			"0.014": 0.171490031598,
			"0.015": 0.0,
			"0.016": 0.0,
			"0.017": 0.0,
			"0.018": 0.0,
			"0.019": 0.0,
			"0.02": 0.0,
			"0.021": 0.0,
			"0.022": 0.0,
			"0.023": 0.0,
			"0.024": 0.0,
			"0.025": 0.0
		}
	}
}
