{
	 "smiles": "CC1CSC2=C(NC1=O)C=CC=C2", 
	 "Tm": 452.15, 
	 "num_atms": 24, 
	 "gaussian": { 
		 "optdone": 1, 
		 "sigma_profile": "yes", 
		 "theory": "DFT", 
		 "functional": "B3LYP", 
		 "basiset": "6-31G**", 
		 "properties": { 
			 "R2extent": 3460.6881, 
			 "electric_dipole_moment_norm": 3.38413873238, 
			 "electric_quadrupole_moment_norm": 13.3514231155, 
			 "total_energy": -915.868557889, 
			 "HOMO_LUMO_gap": 0.19536, 
			 "cosmo_polarized_energy": -11.87, 
			 "cosmo_cavitation_energy": 27.56, 
			 "cosmo_dispersion_energy": -20.58, 
			 "cosmo_repulsion_energy": 1.58, 
			 "cosmo_total_nonelectrostatic_energy": 8.56, 
			 "SMD_solvation_energy": 4.75 
		},
		"coords": [
			{
				"x": -1.0886120911,
				"y": -3.3630776957,
				"z": 1.9493423447,
				"element": "C" 
			},
			{
				"x": 0.4029239909,
				"y": -3.4841610239,
				"z": 1.575823741,
				"element": "C" 
			},
			{
				"x": 0.629996721,
				"y": -3.7400972353,
				"z": 0.068712184,
				"element": "C" 
			},
			{
				"x": 0.9132008532,
				"y": -2.2732538034,
				"z": -1.0102955661,
				"element": "S" 
			},
			{
				"x": -0.167802802,
				"y": -1.0147275376,
				"z": -0.3547433781,
				"element": "C" 
			},
			{
				"x": -0.0037934429,
				"y": -0.4979869172,
				"z": 0.9480391235,
				"element": "C" 
			},
			{
				"x": 0.9251675709,
				"y": -1.0380324416,
				"z": 1.8609640195,
				"element": "N" 
			},
			{
				"x": 1.2530843486,
				"y": -2.3491591502,
				"z": 2.1600008037,
				"element": "C" 
			},
			{
				"x": 2.1583947284,
				"y": -2.5756466114,
				"z": 2.9498205377,
				"element": "O" 
			},
			{
				"x": -0.7513850954,
				"y": 0.6209672087,
				"z": 1.3419101728,
				"element": "C" 
			},
			{
				"x": -1.6454719565,
				"y": 1.2280103383,
				"z": 0.4633605463,
				"element": "C" 
			},
			{
				"x": -1.8262125929,
				"y": 0.7071471135,
				"z": -0.8188534745,
				"element": "C" 
			},
			{
				"x": -1.0956515554,
				"y": -0.4120313703,
				"z": -1.2155714968,
				"element": "C" 
			},
			{
				"x": -1.2042661461,
				"y": -3.2161822072,
				"z": 3.0275873438,
				"element": "H" 
			},
			{
				"x": -1.6057138881,
				"y": -4.29061484,
				"z": 1.6827570189,
				"element": "H" 
			},
			{
				"x": -1.5916977797,
				"y": -2.541346796,
				"z": 1.4368241724,
				"element": "H" 
			},
			{
				"x": 0.7963032731,
				"y": -4.3629569909,
				"z": 2.0959054424,
				"element": "H" 
			},
			{
				"x": -0.2047271649,
				"y": -4.3243982892,
				"z": -0.3304041055,
				"element": "H" 
			},
			{
				"x": 1.5433208243,
				"y": -4.3243782108,
				"z": -0.0745852039,
				"element": "H" 
			},
			{
				"x": 1.4531085816,
				"y": -0.3807730922,
				"z": 2.42275092,
				"element": "H" 
			},
			{
				"x": -0.6232622567,
				"y": 1.0080484429,
				"z": 2.3491804382,
				"element": "H" 
			},
			{
				"x": -2.2090221928,
				"y": 2.0978255203,
				"z": 0.7873477817,
				"element": "H" 
			},
			{
				"x": -2.5313418127,
				"y": 1.1657157911,
				"z": -1.5051198965,
				"element": "H" 
			},
			{
				"x": -1.2205401148,
				"y": -0.823290202,
				"z": -2.2121534694,
				"element": "H" 
			}
		],
		 "valence_orbital": [ 
			{
				"type": "occ",
				"energy": -0.2999,
				"method": "rhf"
			},
			{
				"type": "occ",
				"energy": -0.26882,
				"method": "rhf"
			},
			{
				"type": "occ",
				"energy": -0.25262,
				"method": "rhf"
			},
			{
				"type": "occ",
				"energy": -0.23675,
				"method": "rhf"
			},
			{
				"type": "occ",
				"energy": -0.22289,
				"method": "rhf"
			},
			{
				"type": "unocc",
				"energy": -0.02753,
				"method": "rhf"
			},
			{
				"type": "unocc",
				"energy": -0.01988,
				"method": "rhf"
			},
			{
				"type": "unocc",
				"energy": 0.02251,
				"method": "rhf"
			},
			{
				"type": "unocc",
				"energy": 0.04834,
				"method": "rhf"
			},
			{
				"type": "unocc",
				"energy": 0.06563,
				"method": "rhf"
			}
		],
		"cosmo_sigma_profile": { 
			"-0.025": 0.0,
			"-0.024": 0.0,
			"-0.023": 0.0,
			"-0.022": 0.0,
			"-0.021": 0.0,
			"-0.02": 0.0,
			"-0.019": 0.0,
			"-0.018": 0.0,
			"-0.017": 0.0,
			"-0.016": 0.0,
			"-0.015": 0.00718541441482,
			"-0.014": 1.23829065705,
			"-0.013": 0.767787531292,
			"-0.012": 1.03096261469,
			"-0.011": 1.24979377231,
			"-0.01": 0.902415598183,
			"-0.009": 1.35075565622,
			"-0.008": 1.59971824446,
			"-0.007": 3.85975570487,
			"-0.006": 11.838310661,
			"-0.005": 18.0179424572,
			"-0.004": 20.8760735056,
			"-0.003": 16.7026825804,
			"-0.002": 17.062059098,
			"-0.001": 15.2209702261,
			"0.0": 18.2198342371,
			"0.001": 14.1181921672,
			"0.002": 12.4883498023,
			"0.003": 13.109125691,
			"0.004": 13.1813860643,
			"0.005": 8.2517407327,
			"0.006": 4.67366955604,
			"0.007": 3.94487654082,
			"0.008": 4.22056244498,
			"0.009": 2.03442959326,
			"0.01": 1.12297332019,
			"0.011": 1.61677670608,
			"0.012": 2.89867892726,
			"0.013": 5.67446942029,
			"0.014": 2.55699474835,
			"0.015": 0.184578241404,
			"0.016": 0.0,
			"0.017": 0.0,
			"0.018": 0.0,
			"0.019": 0.0,
			"0.02": 0.0,
			"0.021": 0.0,
			"0.022": 0.0,
			"0.023": 0.0,
			"0.024": 0.0,
			"0.025": 0.0
		}
	}
}
