{
	 "smiles": "C=CC1=CC=CC=C1C1=CNN=C1", 
	 "Tm": 387.15, 
	 "num_atms": 23, 
	 "gaussian": { 
		 "optdone": 1, 
		 "sigma_profile": "yes", 
		 "theory": "DFT", 
		 "functional": "B3LYP", 
		 "basiset": "6-31G**", 
		 "properties": { 
			 "R2extent": 2521.1162, 
			 "electric_dipole_moment_norm": 2.31781829745, 
			 "electric_quadrupole_moment_norm": 12.1094722325, 
			 "total_energy": -534.659232154, 
			 "HOMO_LUMO_gap": 0.18615, 
			 "cosmo_polarized_energy": -11.11, 
			 "cosmo_cavitation_energy": 27.0, 
			 "cosmo_dispersion_energy": -19.56, 
			 "cosmo_repulsion_energy": 1.53, 
			 "cosmo_total_nonelectrostatic_energy": 8.97, 
			 "SMD_solvation_energy": 4.39 
		},
		"coords": [
			{
				"x": -2.6099825713,
				"y": -2.368076101,
				"z": -0.9180305476,
				"element": "C" 
			},
			{
				"x": -1.8849095097,
				"y": -1.5533838078,
				"z": -0.1411366958,
				"element": "C" 
			},
			{
				"x": -0.4173630112,
				"y": -1.4025443795,
				"z": -0.1813946476,
				"element": "C" 
			},
			{
				"x": 0.3925359561,
				"y": -2.4979884732,
				"z": -0.5304837574,
				"element": "C" 
			},
			{
				"x": 1.7807774746,
				"y": -2.4101931474,
				"z": -0.5365610043,
				"element": "C" 
			},
			{
				"x": 2.3969474497,
				"y": -1.2090794189,
				"z": -0.1791823189,
				"element": "C" 
			},
			{
				"x": 1.6140845101,
				"y": -0.1122967767,
				"z": 0.1684858214,
				"element": "C" 
			},
			{
				"x": 0.2097460463,
				"y": -0.1807435849,
				"z": 0.17713483,
				"element": "C" 
			},
			{
				"x": -0.5544409936,
				"y": 1.0271767592,
				"z": 0.5404966551,
				"element": "C" 
			},
			{
				"x": -0.2392806929,
				"y": 1.9411390474,
				"z": 1.5387690788,
				"element": "C" 
			},
			{
				"x": -1.1797326689,
				"y": 2.9167992958,
				"z": 1.4850490835,
				"element": "N" 
			},
			{
				"x": -2.099204647,
				"y": 2.7192244546,
				"z": 0.5157827109,
				"element": "N" 
			},
			{
				"x": -1.7252359182,
				"y": 1.5778162314,
				"z": -0.0552331253,
				"element": "C" 
			},
			{
				"x": -2.1626336585,
				"y": -2.9739752704,
				"z": -1.7012557775,
				"element": "H" 
			},
			{
				"x": -3.6864107262,
				"y": -2.4428858953,
				"z": -0.8004386614,
				"element": "H" 
			},
			{
				"x": -2.4034664513,
				"y": -0.9379153891,
				"z": 0.5909675385,
				"element": "H" 
			},
			{
				"x": -0.0860889055,
				"y": -3.4435954835,
				"z": -0.7660395062,
				"element": "H" 
			},
			{
				"x": 2.3784022529,
				"y": -3.2763204846,
				"z": -0.8057435344,
				"element": "H" 
			},
			{
				"x": 3.479928431,
				"y": -1.1252463314,
				"z": -0.1768073518,
				"element": "H" 
			},
			{
				"x": 2.0906450743,
				"y": 0.8324293571,
				"z": 0.4142588723,
				"element": "H" 
			},
			{
				"x": 0.5537496004,
				"y": 1.9475054542,
				"z": 2.2722665468,
				"element": "H" 
			},
			{
				"x": -1.2621902016,
				"y": 3.7273594792,
				"z": 2.0784989662,
				"element": "H" 
			},
			{
				"x": -2.2889768395,
				"y": 1.1857944648,
				"z": -0.8903031753,
				"element": "H" 
			}
		],
		 "valence_orbital": [ 
			{
				"type": "occ",
				"energy": -0.289,
				"method": "rhf"
			},
			{
				"type": "occ",
				"energy": -0.27372,
				"method": "rhf"
			},
			{
				"type": "occ",
				"energy": -0.25556,
				"method": "rhf"
			},
			{
				"type": "occ",
				"energy": -0.23267,
				"method": "rhf"
			},
			{
				"type": "occ",
				"energy": -0.21425,
				"method": "rhf"
			},
			{
				"type": "unocc",
				"energy": -0.0281,
				"method": "rhf"
			},
			{
				"type": "unocc",
				"energy": -0.00836,
				"method": "rhf"
			},
			{
				"type": "unocc",
				"energy": 0.02072,
				"method": "rhf"
			},
			{
				"type": "unocc",
				"energy": 0.05145,
				"method": "rhf"
			},
			{
				"type": "unocc",
				"energy": 0.07795,
				"method": "rhf"
			}
		],
		"cosmo_sigma_profile": { 
			"-0.025": 0.0,
			"-0.024": 0.0,
			"-0.023": 0.0,
			"-0.022": 0.0,
			"-0.021": 0.0,
			"-0.02": 0.0,
			"-0.019": 0.0,
			"-0.018": 0.0,
			"-0.017": 0.529655106026,
			"-0.016": 1.69911594185,
			"-0.015": 1.82772277651,
			"-0.014": 0.824805959346,
			"-0.013": 0.562435952734,
			"-0.012": 1.10098170938,
			"-0.011": 1.20052081937,
			"-0.01": 1.13330350307,
			"-0.009": 2.86198770131,
			"-0.008": 2.09787540743,
			"-0.007": 2.86664280243,
			"-0.006": 7.03440586168,
			"-0.005": 14.854737187,
			"-0.004": 15.455989136,
			"-0.003": 17.1202850874,
			"-0.002": 13.629225386,
			"-0.001": 14.4839999465,
			"0.0": 14.0582124227,
			"0.001": 13.421415072,
			"0.002": 13.7626858209,
			"0.003": 17.4551893479,
			"0.004": 20.7832462385,
			"0.005": 15.9329197439,
			"0.006": 8.73719034916,
			"0.007": 1.9624632325,
			"0.008": 1.2809617077,
			"0.009": 1.55373723742,
			"0.01": 1.42552931261,
			"0.011": 1.28897262813,
			"0.012": 1.40363121194,
			"0.013": 0.93386208888,
			"0.014": 1.37391548687,
			"0.015": 1.03596025412,
			"0.016": 0.778836561939,
			"0.017": 0.0307186449531,
			"0.018": 0.0,
			"0.019": 0.0,
			"0.02": 0.0,
			"0.021": 0.0,
			"0.022": 0.0,
			"0.023": 0.0,
			"0.024": 0.0,
			"0.025": 0.0
		}
	}
}
