{
	 "smiles": "CN1C(=O)NC2=C1C=CN=C2", 
	 "Tm": 540.15, 
	 "num_atms": 18, 
	 "gaussian": { 
		 "optdone": 1, 
		 "sigma_profile": "yes", 
		 "theory": "DFT", 
		 "functional": "B3LYP", 
		 "basiset": "6-31G**", 
		 "properties": { 
			 "R2extent": 1909.8618, 
			 "electric_dipole_moment_norm": 1.3254700072, 
			 "electric_quadrupole_moment_norm": 21.564224607, 
			 "total_energy": -510.469369345, 
			 "HOMO_LUMO_gap": 0.20502, 
			 "cosmo_polarized_energy": -14.25, 
			 "cosmo_cavitation_energy": 22.12, 
			 "cosmo_dispersion_energy": -16.7, 
			 "cosmo_repulsion_energy": 1.32, 
			 "cosmo_total_nonelectrostatic_energy": 6.75, 
			 "SMD_solvation_energy": 3.21 
		},
		"coords": [
			{
				"x": -1.2014513278,
				"y": -2.8134703559,
				"z": 0.458026739,
				"element": "C" 
			},
			{
				"x": -0.8529197175,
				"y": -1.535989344,
				"z": -0.1296334304,
				"element": "N" 
			},
			{
				"x": -1.7306491973,
				"y": -0.4379000005,
				"z": -0.1239742647,
				"element": "C" 
			},
			{
				"x": -2.8519066187,
				"y": -0.3979915259,
				"z": 0.3487591297,
				"element": "O" 
			},
			{
				"x": -1.035611823,
				"y": 0.5798860441,
				"z": -0.773397644,
				"element": "N" 
			},
			{
				"x": 0.2228645531,
				"y": 0.1464012641,
				"z": -1.1712963085,
				"element": "C" 
			},
			{
				"x": 0.3310096851,
				"y": -1.1984104868,
				"z": -0.758639194,
				"element": "C" 
			},
			{
				"x": 1.4972777322,
				"y": -1.9046507289,
				"z": -1.0233120871,
				"element": "C" 
			},
			{
				"x": 2.5037602012,
				"y": -1.2018293509,
				"z": -1.7002130662,
				"element": "C" 
			},
			{
				"x": 2.413128987,
				"y": 0.0733050739,
				"z": -2.0967031141,
				"element": "N" 
			},
			{
				"x": 1.2810032042,
				"y": 0.7479792725,
				"z": -1.8360552394,
				"element": "C" 
			},
			{
				"x": -0.5097081816,
				"y": -3.0739339783,
				"z": 1.2658973316,
				"element": "H" 
			},
			{
				"x": -1.1876814588,
				"y": -3.6074554294,
				"z": -0.2959013965,
				"element": "H" 
			},
			{
				"x": -2.2097992434,
				"y": -2.7164839493,
				"z": 0.8625971999,
				"element": "H" 
			},
			{
				"x": -1.4407406821,
				"y": 1.4918621123,
				"z": -0.9093758668,
				"element": "H" 
			},
			{
				"x": 1.6329375808,
				"y": -2.9394044076,
				"z": -0.7285282153,
				"element": "H" 
			},
			{
				"x": 3.4393055629,
				"y": -1.7061337275,
				"z": -1.9337681728,
				"element": "H" 
			},
			{
				"x": 1.2315807437,
				"y": 1.7830195179,
				"z": -2.1683824006,
				"element": "H" 
			}
		],
		 "valence_orbital": [ 
			{
				"type": "occ",
				"energy": -0.32866,
				"method": "rhf"
			},
			{
				"type": "occ",
				"energy": -0.28301,
				"method": "rhf"
			},
			{
				"type": "occ",
				"energy": -0.25409,
				"method": "rhf"
			},
			{
				"type": "occ",
				"energy": -0.25213,
				"method": "rhf"
			},
			{
				"type": "occ",
				"energy": -0.22386,
				"method": "rhf"
			},
			{
				"type": "unocc",
				"energy": -0.01884,
				"method": "rhf"
			},
			{
				"type": "unocc",
				"energy": -0.00407,
				"method": "rhf"
			},
			{
				"type": "unocc",
				"energy": 0.05825,
				"method": "rhf"
			},
			{
				"type": "unocc",
				"energy": 0.07785,
				"method": "rhf"
			},
			{
				"type": "unocc",
				"energy": 0.09401,
				"method": "rhf"
			}
		],
		"cosmo_sigma_profile": { 
			"-0.025": 0.0,
			"-0.024": 0.0,
			"-0.023": 0.0,
			"-0.022": 0.0,
			"-0.021": 0.0,
			"-0.02": 0.0,
			"-0.019": 0.0,
			"-0.018": 0.0,
			"-0.017": 0.468632218387,
			"-0.016": 1.37389261738,
			"-0.015": 1.49061223231,
			"-0.014": 1.09691464356,
			"-0.013": 0.981068702242,
			"-0.012": 0.915933296787,
			"-0.011": 1.33777340547,
			"-0.01": 0.796931710362,
			"-0.009": 1.235562092,
			"-0.008": 1.80731237524,
			"-0.007": 4.221838501,
			"-0.006": 13.1829837035,
			"-0.005": 14.6969219445,
			"-0.004": 12.1877255512,
			"-0.003": 13.5123105747,
			"-0.002": 13.7790415294,
			"-0.001": 12.1332671689,
			"0.0": 10.4323134629,
			"0.001": 10.9138884401,
			"0.002": 10.5538386261,
			"0.003": 9.285820157,
			"0.004": 4.74823505116,
			"0.005": 4.05100226488,
			"0.006": 2.79273766923,
			"0.007": 2.3904107507,
			"0.008": 2.70619881391,
			"0.009": 2.99362772638,
			"0.01": 2.88276777161,
			"0.011": 2.18036448805,
			"0.012": 3.71944540042,
			"0.013": 7.59064933102,
			"0.014": 2.21066436369,
			"0.015": 0.772877313143,
			"0.016": 1.09532970985,
			"0.017": 0.616500719143,
			"0.018": 0.0856061337348,
			"0.019": 0.0,
			"0.02": 0.0,
			"0.021": 0.0,
			"0.022": 0.0,
			"0.023": 0.0,
			"0.024": 0.0,
			"0.025": 0.0
		}
	}
}
