{
	 "smiles": "NC1=C2C=CC=CC2=NN=C1C(O)=O", 
	 "Tm": 531.15, 
	 "num_atms": 21, 
	 "gaussian": { 
		 "optdone": 1, 
		 "sigma_profile": "yes", 
		 "theory": "DFT", 
		 "functional": "B3LYP", 
		 "basiset": "6-31G**", 
		 "properties": { 
			 "R2extent": 3090.2747, 
			 "electric_dipole_moment_norm": 6.28446849702, 
			 "electric_quadrupole_moment_norm": 8.25317634853, 
			 "total_energy": -661.881453348, 
			 "HOMO_LUMO_gap": 0.16268, 
			 "cosmo_polarized_energy": -16.53, 
			 "cosmo_cavitation_energy": 25.21, 
			 "cosmo_dispersion_energy": -19.6, 
			 "cosmo_repulsion_energy": 1.5, 
			 "cosmo_total_nonelectrostatic_energy": 7.11, 
			 "SMD_solvation_energy": 3.61 
		},
		"coords": [
			{
				"x": -0.3066281242,
				"y": -1.2863072695,
				"z": 1.8092188637,
				"element": "N" 
			},
			{
				"x": 0.1576705658,
				"y": -0.1937858839,
				"z": 1.1766518505,
				"element": "C" 
			},
			{
				"x": -0.6896656716,
				"y": 0.8522614629,
				"z": 0.6750627161,
				"element": "C" 
			},
			{
				"x": -2.1017344503,
				"y": 0.858035524,
				"z": 0.7863870975,
				"element": "C" 
			},
			{
				"x": -2.8391732397,
				"y": 1.9053285256,
				"z": 0.2749489722,
				"element": "C" 
			},
			{
				"x": -2.1952326576,
				"y": 2.9886301318,
				"z": -0.3680996085,
				"element": "C" 
			},
			{
				"x": -0.8238714738,
				"y": 3.0074054294,
				"z": -0.4894138105,
				"element": "C" 
			},
			{
				"x": -0.0431710418,
				"y": 1.9433842997,
				"z": 0.0276910291,
				"element": "C" 
			},
			{
				"x": 1.3198299422,
				"y": 2.0402122984,
				"z": -0.1353817739,
				"element": "N" 
			},
			{
				"x": 2.0524946307,
				"y": 1.0785038538,
				"z": 0.3299447318,
				"element": "N" 
			},
			{
				"x": 1.5381116639,
				"y": -0.0035834628,
				"z": 0.9616053837,
				"element": "C" 
			},
			{
				"x": 2.5614708929,
				"y": -0.9845098503,
				"z": 1.4144231853,
				"element": "C" 
			},
			{
				"x": 3.8205801962,
				"y": -0.6437469799,
				"z": 1.1270028224,
				"element": "O" 
			},
			{
				"x": 2.289335429,
				"y": -2.0226870535,
				"z": 2.0031144265,
				"element": "O" 
			},
			{
				"x": 0.3871724091,
				"y": -1.9619846537,
				"z": 2.1227964484,
				"element": "H" 
			},
			{
				"x": -1.2885823749,
				"y": -1.4300103858,
				"z": 1.9693748932,
				"element": "H" 
			},
			{
				"x": -2.6190468854,
				"y": 0.0378550354,
				"z": 1.275621922,
				"element": "H" 
			},
			{
				"x": -3.9209918486,
				"y": 1.8993955146,
				"z": 0.3659152591,
				"element": "H" 
			},
			{
				"x": -2.7891962053,
				"y": 3.805911369,
				"z": -0.7658117641,
				"element": "H" 
			},
			{
				"x": -0.2974358691,
				"y": 3.8215525899,
				"z": -0.9760875551,
				"element": "H" 
			},
			{
				"x": 3.7619641125,
				"y": 0.2205395049,
				"z": 0.6596349105,
				"element": "H" 
			}
		],
		 "valence_orbital": [ 
			{
				"type": "occ",
				"energy": -0.28953,
				"method": "rhf"
			},
			{
				"type": "occ",
				"energy": -0.27997,
				"method": "rhf"
			},
			{
				"type": "occ",
				"energy": -0.27513,
				"method": "rhf"
			},
			{
				"type": "occ",
				"energy": -0.24574,
				"method": "rhf"
			},
			{
				"type": "occ",
				"energy": -0.23416,
				"method": "rhf"
			},
			{
				"type": "unocc",
				"energy": -0.07148,
				"method": "rhf"
			},
			{
				"type": "unocc",
				"energy": -0.06175,
				"method": "rhf"
			},
			{
				"type": "unocc",
				"energy": 0.00486,
				"method": "rhf"
			},
			{
				"type": "unocc",
				"energy": 0.02063,
				"method": "rhf"
			},
			{
				"type": "unocc",
				"energy": 0.05226,
				"method": "rhf"
			}
		],
		"cosmo_sigma_profile": { 
			"-0.025": 0.0,
			"-0.024": 0.0,
			"-0.023": 0.0,
			"-0.022": 0.0,
			"-0.021": 0.0,
			"-0.02": 0.0,
			"-0.019": 0.0,
			"-0.018": 0.0,
			"-0.017": 0.0169591348006,
			"-0.016": 0.834790929214,
			"-0.015": 1.71313103515,
			"-0.014": 0.850180334043,
			"-0.013": 1.79179322971,
			"-0.012": 1.95618830719,
			"-0.011": 2.0403988786,
			"-0.01": 3.00657110143,
			"-0.009": 2.82105280913,
			"-0.008": 2.8636052423,
			"-0.007": 7.3717606737,
			"-0.006": 10.5352075722,
			"-0.005": 9.94704216476,
			"-0.004": 10.0352023735,
			"-0.003": 12.0539223144,
			"-0.002": 16.5981238596,
			"-0.001": 14.7419168282,
			"0.0": 14.4884709094,
			"0.001": 15.8087018109,
			"0.002": 16.6525592079,
			"0.003": 12.1277968406,
			"0.004": 4.09392940475,
			"0.005": 3.90046201735,
			"0.006": 4.1209387354,
			"0.007": 3.76104890194,
			"0.008": 3.900968484,
			"0.009": 5.33433060981,
			"0.01": 6.39976042305,
			"0.011": 4.93180752108,
			"0.012": 3.26858575319,
			"0.013": 3.2059946457,
			"0.014": 0.673957890618,
			"0.015": 0.996079144003,
			"0.016": 0.488882666404,
			"0.017": 0.0,
			"0.018": 0.0,
			"0.019": 0.0,
			"0.02": 0.0,
			"0.021": 0.0,
			"0.022": 0.0,
			"0.023": 0.0,
			"0.024": 0.0,
			"0.025": 0.0
		}
	}
}
