{
	 "smiles": "COC1=CC2=C(C=C1)N=C(S2)C#N", 
	 "Tm": 403.15, 
	 "num_atms": 19, 
	 "gaussian": { 
		 "optdone": 1, 
		 "sigma_profile": "yes", 
		 "theory": "DFT", 
		 "functional": "B3LYP", 
		 "basiset": "6-31G**", 
		 "properties": { 
			 "R2extent": 3746.1217, 
			 "electric_dipole_moment_norm": 6.57089019616, 
			 "electric_quadrupole_moment_norm": 22.4655644389, 
			 "total_energy": -929.453330706, 
			 "HOMO_LUMO_gap": 0.15839, 
			 "cosmo_polarized_energy": -10.52, 
			 "cosmo_cavitation_energy": 26.54, 
			 "cosmo_dispersion_energy": -19.72, 
			 "cosmo_repulsion_energy": 1.5, 
			 "cosmo_total_nonelectrostatic_energy": 8.32, 
			 "SMD_solvation_energy": 4.54 
		},
		"coords": [
			{
				"x": 0.8553627582,
				"y": -1.1015531011,
				"z": 3.0514517143,
				"element": "C" 
			},
			{
				"x": 0.314830721,
				"y": -1.6024464657,
				"z": 1.8359201654,
				"element": "O" 
			},
			{
				"x": 0.2580029333,
				"y": -0.7761060858,
				"z": 0.7599783334,
				"element": "C" 
			},
			{
				"x": 0.6988819349,
				"y": 0.5491309082,
				"z": 0.7624371921,
				"element": "C" 
			},
			{
				"x": 0.572719932,
				"y": 1.2735078558,
				"z": -0.4282155115,
				"element": "C" 
			},
			{
				"x": 0.0218260568,
				"y": 0.7040609781,
				"z": -1.6028698938,
				"element": "C" 
			},
			{
				"x": -0.4145462564,
				"y": -0.6357698618,
				"z": -1.5751647913,
				"element": "C" 
			},
			{
				"x": -0.2953775812,
				"y": -1.3594871902,
				"z": -0.4078612634,
				"element": "C" 
			},
			{
				"x": -0.040049858,
				"y": 1.5340405387,
				"z": -2.6982982073,
				"element": "N" 
			},
			{
				"x": 0.4384551282,
				"y": 2.7087660244,
				"z": -2.4115295054,
				"element": "C" 
			},
			{
				"x": 1.0251436183,
				"y": 2.9308184832,
				"z": -0.7454123145,
				"element": "S" 
			},
			{
				"x": 0.5126574352,
				"y": 3.7901843445,
				"z": -3.3359365027,
				"element": "C" 
			},
			{
				"x": 0.5888396928,
				"y": 4.6949840893,
				"z": -4.0635015724,
				"element": "N" 
			},
			{
				"x": 0.2714794607,
				"y": -0.2538416072,
				"z": 3.4311786447,
				"element": "H" 
			},
			{
				"x": 1.9019579819,
				"y": -0.7957777336,
				"z": 2.9294939518,
				"element": "H" 
			},
			{
				"x": 0.8013878029,
				"y": -1.9244464359,
				"z": 3.7648871961,
				"element": "H" 
			},
			{
				"x": 1.1229730336,
				"y": 1.0055282592,
				"z": 1.6473741794,
				"element": "H" 
			},
			{
				"x": -0.8366859299,
				"y": -1.0744200777,
				"z": -2.4728209501,
				"element": "H" 
			},
			{
				"x": -0.6201588645,
				"y": -2.3924729223,
				"z": -0.3485108648,
				"element": "H" 
			}
		],
		 "valence_orbital": [ 
			{
				"type": "occ",
				"energy": -0.32453,
				"method": "rhf"
			},
			{
				"type": "occ",
				"energy": -0.31584,
				"method": "rhf"
			},
			{
				"type": "occ",
				"energy": -0.30185,
				"method": "rhf"
			},
			{
				"type": "occ",
				"energy": -0.25771,
				"method": "rhf"
			},
			{
				"type": "occ",
				"energy": -0.23514,
				"method": "rhf"
			},
			{
				"type": "unocc",
				"energy": -0.07675,
				"method": "rhf"
			},
			{
				"type": "unocc",
				"energy": -0.02667,
				"method": "rhf"
			},
			{
				"type": "unocc",
				"energy": -0.01589,
				"method": "rhf"
			},
			{
				"type": "unocc",
				"energy": 0.00696,
				"method": "rhf"
			},
			{
				"type": "unocc",
				"energy": 0.01188,
				"method": "rhf"
			}
		],
		"cosmo_sigma_profile": { 
			"-0.025": 0.0,
			"-0.024": 0.0,
			"-0.023": 0.0,
			"-0.022": 0.0,
			"-0.021": 0.0,
			"-0.02": 0.0,
			"-0.019": 0.0,
			"-0.018": 0.0,
			"-0.017": 0.0,
			"-0.016": 0.0,
			"-0.015": 0.0,
			"-0.014": 0.0,
			"-0.013": 0.0,
			"-0.012": 0.0,
			"-0.011": 0.0,
			"-0.01": 0.0,
			"-0.009": 1.44097453471,
			"-0.008": 3.12698345935,
			"-0.007": 7.46921887021,
			"-0.006": 13.6183217364,
			"-0.005": 16.1647753939,
			"-0.004": 15.8696239022,
			"-0.003": 16.7666061725,
			"-0.002": 14.0207616533,
			"-0.001": 14.2858300461,
			"0.0": 18.5682179637,
			"0.001": 22.2502830255,
			"0.002": 21.2057964417,
			"0.003": 10.9027939671,
			"0.004": 7.00206214655,
			"0.005": 4.63314954517,
			"0.006": 4.73755996741,
			"0.007": 5.80413064868,
			"0.008": 5.84811368276,
			"0.009": 4.99243680644,
			"0.01": 3.65267568181,
			"0.011": 3.09275235562,
			"0.012": 1.73264101675,
			"0.013": 0.238736027953,
			"0.014": 0.0,
			"0.015": 0.0,
			"0.016": 0.0,
			"0.017": 0.0,
			"0.018": 0.0,
			"0.019": 0.0,
			"0.02": 0.0,
			"0.021": 0.0,
			"0.022": 0.0,
			"0.023": 0.0,
			"0.024": 0.0,
			"0.025": 0.0
		}
	}
}
