{
	 "smiles": "CCCC1=NC(=NN1C1=C(Cl)C=CC=C1)C(O)=O", 
	 "Tm": 416.15, 
	 "num_atms": 30, 
	 "gaussian": { 
		 "optdone": 1, 
		 "sigma_profile": "yes", 
		 "theory": "DFT", 
		 "functional": "B3LYP", 
		 "basiset": "6-31G**", 
		 "properties": { 
			 "R2extent": 5561.1593, 
			 "electric_dipole_moment_norm": 9.06053054407, 
			 "electric_quadrupole_moment_norm": 21.0113689785, 
			 "total_energy": -1239.40968136, 
			 "HOMO_LUMO_gap": 0.21477, 
			 "cosmo_polarized_energy": -18.05, 
			 "cosmo_cavitation_energy": 37.12, 
			 "cosmo_dispersion_energy": -25.4, 
			 "cosmo_repulsion_energy": 2.01, 
			 "cosmo_total_nonelectrostatic_energy": 13.73, 
			 "SMD_solvation_energy": 5.06 
		},
		"coords": [
			{
				"x": -0.2071139737,
				"y": -3.9976193825,
				"z": 0.4879253752,
				"element": "C" 
			},
			{
				"x": 0.1048842145,
				"y": -2.6052513706,
				"z": 1.0413962665,
				"element": "C" 
			},
			{
				"x": 0.3143860448,
				"y": -1.56784454,
				"z": -0.0766398151,
				"element": "C" 
			},
			{
				"x": 0.7070463573,
				"y": -0.2231146254,
				"z": 0.4518384925,
				"element": "C" 
			},
			{
				"x": 1.6425051488,
				"y": 0.0075409298,
				"z": 1.3566599792,
				"element": "N" 
			},
			{
				"x": 1.65256194,
				"y": 1.3613152649,
				"z": 1.4669008965,
				"element": "C" 
			},
			{
				"x": 0.7848974944,
				"y": 1.9946008042,
				"z": 0.6860556005,
				"element": "N" 
			},
			{
				"x": 0.170419026,
				"y": 0.9710060046,
				"z": 0.0373577577,
				"element": "N" 
			},
			{
				"x": -0.8265123426,
				"y": 1.2400475394,
				"z": -0.9474187123,
				"element": "C" 
			},
			{
				"x": -2.1840893125,
				"y": 0.9816686709,
				"z": -0.7084724009,
				"element": "C" 
			},
			{
				"x": -2.7130270312,
				"y": 0.3220313366,
				"z": 0.8226447702,
				"element": "Cl" 
			},
			{
				"x": -3.1347887284,
				"y": 1.2644408357,
				"z": -1.6904113391,
				"element": "C" 
			},
			{
				"x": -2.7327715136,
				"y": 1.8194090868,
				"z": -2.9044493113,
				"element": "C" 
			},
			{
				"x": -1.3848702301,
				"y": 2.0941483852,
				"z": -3.1433822055,
				"element": "C" 
			},
			{
				"x": -0.436612216,
				"y": 1.8016756361,
				"z": -2.1667618556,
				"element": "C" 
			},
			{
				"x": 2.5479204168,
				"y": 2.141974068,
				"z": 2.3760013096,
				"element": "C" 
			},
			{
				"x": 2.3445564667,
				"y": 3.4785604915,
				"z": 2.3150760701,
				"element": "O" 
			},
			{
				"x": 3.3762401948,
				"y": 1.6470011389,
				"z": 3.0966317817,
				"element": "O" 
			},
			{
				"x": -0.3516136935,
				"y": -4.7172628918,
				"z": 1.2994285761,
				"element": "H" 
			},
			{
				"x": 0.6092909988,
				"y": -4.3679972748,
				"z": -0.1425632813,
				"element": "H" 
			},
			{
				"x": -1.1200662917,
				"y": -3.9934169856,
				"z": -0.1186890918,
				"element": "H" 
			},
			{
				"x": -0.7108971026,
				"y": -2.2677841941,
				"z": 1.6911329684,
				"element": "H" 
			},
			{
				"x": 1.005692163,
				"y": -2.6327883956,
				"z": 1.6624335186,
				"element": "H" 
			},
			{
				"x": 1.1129339914,
				"y": -1.915596387,
				"z": -0.7461175685,
				"element": "H" 
			},
			{
				"x": -0.5883038836,
				"y": -1.4766317261,
				"z": -0.6888927854,
				"element": "H" 
			},
			{
				"x": -4.1801834266,
				"y": 1.0573588616,
				"z": -1.4914060529,
				"element": "H" 
			},
			{
				"x": -3.478617716,
				"y": 2.0405982928,
				"z": -3.6615158528,
				"element": "H" 
			},
			{
				"x": -1.0723498665,
				"y": 2.5312815061,
				"z": -4.085992763,
				"element": "H" 
			},
			{
				"x": 0.6164660585,
				"y": 2.0069069361,
				"z": -2.3273549482,
				"element": "H" 
			},
			{
				"x": 1.6289168129,
				"y": 3.6556419841,
				"z": 1.6797846209,
				"element": "H" 
			}
		],
		 "valence_orbital": [ 
			{
				"type": "occ",
				"energy": -0.29827,
				"method": "rhf"
			},
			{
				"type": "occ",
				"energy": -0.2858,
				"method": "rhf"
			},
			{
				"type": "occ",
				"energy": -0.2777,
				"method": "rhf"
			},
			{
				"type": "occ",
				"energy": -0.27206,
				"method": "rhf"
			},
			{
				"type": "occ",
				"energy": -0.26628,
				"method": "rhf"
			},
			{
				"type": "unocc",
				"energy": -0.05151,
				"method": "rhf"
			},
			{
				"type": "unocc",
				"energy": -0.04345,
				"method": "rhf"
			},
			{
				"type": "unocc",
				"energy": -0.03467,
				"method": "rhf"
			},
			{
				"type": "unocc",
				"energy": 0.00302,
				"method": "rhf"
			},
			{
				"type": "unocc",
				"energy": 0.00478,
				"method": "rhf"
			}
		],
		"cosmo_sigma_profile": { 
			"-0.025": 0.0,
			"-0.024": 0.0,
			"-0.023": 0.0,
			"-0.022": 0.0,
			"-0.021": 0.0,
			"-0.02": 0.0,
			"-0.019": 0.0,
			"-0.018": 0.0,
			"-0.017": 0.0,
			"-0.016": 0.0,
			"-0.015": 0.384456642993,
			"-0.014": 0.672674046023,
			"-0.013": 0.83554907335,
			"-0.012": 0.602294697543,
			"-0.011": 0.849427941635,
			"-0.01": 0.4140636341,
			"-0.009": 0.857645336107,
			"-0.008": 5.02612245771,
			"-0.007": 10.0923645816,
			"-0.006": 14.6541312136,
			"-0.005": 15.2071976667,
			"-0.004": 17.5096171093,
			"-0.003": 27.2600099882,
			"-0.002": 26.2277703013,
			"-0.001": 29.9800390796,
			"0.0": 32.1115295096,
			"0.001": 27.3600627986,
			"0.002": 20.5639224736,
			"0.003": 14.4462442869,
			"0.004": 8.1091515265,
			"0.005": 5.24227865836,
			"0.006": 3.56701086342,
			"0.007": 4.17070712003,
			"0.008": 5.11853684946,
			"0.009": 4.77108992641,
			"0.01": 6.21594245381,
			"0.011": 6.51518797462,
			"0.012": 5.23255421906,
			"0.013": 2.47062203409,
			"0.014": 1.24146770888,
			"0.015": 0.587576221819,
			"0.016": 0.0,
			"0.017": 0.0,
			"0.018": 0.0,
			"0.019": 0.0,
			"0.02": 0.0,
			"0.021": 0.0,
			"0.022": 0.0,
			"0.023": 0.0,
			"0.024": 0.0,
			"0.025": 0.0
		}
	}
}
