{
	 "smiles": "NC(C(O)=O)C1=CC=C(Br)C=C1", 
	 "Tm": 523.15, 
	 "num_atms": 20, 
	 "gaussian": { 
		 "optdone": 1, 
		 "sigma_profile": "yes", 
		 "theory": "DFT", 
		 "functional": "B3LYP", 
		 "basiset": "6-31G**", 
		 "properties": { 
			 "R2extent": 4814.5432, 
			 "electric_dipole_moment_norm": 0.859497260031, 
			 "electric_quadrupole_moment_norm": 11.9796999382, 
			 "total_energy": -3086.28521718, 
			 "HOMO_LUMO_gap": 0.20657, 
			 "cosmo_polarized_energy": -12.49, 
			 "cosmo_cavitation_energy": 27.03, 
			 "cosmo_dispersion_energy": -19.74, 
			 "cosmo_repulsion_energy": 1.6, 
			 "cosmo_total_nonelectrostatic_energy": 8.9, 
			 "SMD_solvation_energy": 3.35 
		},
		"coords": [
			{
				"x": 1.5106660261,
				"y": -2.6236158177,
				"z": 0.4985134207,
				"element": "N" 
			},
			{
				"x": 0.9442494506,
				"y": -1.4403470144,
				"z": 1.1390948436,
				"element": "C" 
			},
			{
				"x": 1.9324698025,
				"y": -0.2932797933,
				"z": 0.9476908667,
				"element": "C" 
			},
			{
				"x": 1.8765555884,
				"y": 0.6009222242,
				"z": 1.9537052566,
				"element": "O" 
			},
			{
				"x": 2.6576108217,
				"y": -0.1683320459,
				"z": -0.0160806129,
				"element": "O" 
			},
			{
				"x": -0.4250887714,
				"y": -0.989462416,
				"z": 0.61800945,
				"element": "C" 
			},
			{
				"x": -1.5203499758,
				"y": -0.8923201343,
				"z": 1.4816355065,
				"element": "C" 
			},
			{
				"x": -2.7778888142,
				"y": -0.5108505763,
				"z": 1.0100498912,
				"element": "C" 
			},
			{
				"x": -2.93277479,
				"y": -0.2194955193,
				"z": -0.3429451941,
				"element": "C" 
			},
			{
				"x": -4.649068229,
				"y": 0.3013931893,
				"z": -1.003432448,
				"element": "Br" 
			},
			{
				"x": -1.8550158004,
				"y": -0.3025998243,
				"z": -1.2254460234,
				"element": "C" 
			},
			{
				"x": -0.6077029499,
				"y": -0.6879118026,
				"z": -0.7389664441,
				"element": "C" 
			},
			{
				"x": 1.9545837025,
				"y": -2.3503839331,
				"z": -0.3747861247,
				"element": "H" 
			},
			{
				"x": 0.7781218011,
				"y": -3.2944251564,
				"z": 0.2877484555,
				"element": "H" 
			},
			{
				"x": 0.8498335889,
				"y": -1.6169618368,
				"z": 2.2165921127,
				"element": "H" 
			},
			{
				"x": 2.4919460363,
				"y": 1.3173154399,
				"z": 1.7218563312,
				"element": "H" 
			},
			{
				"x": -1.3955289313,
				"y": -1.1193350083,
				"z": 2.5372515431,
				"element": "H" 
			},
			{
				"x": -3.6241213691,
				"y": -0.4430039133,
				"z": 1.6842173669,
				"element": "H" 
			},
			{
				"x": -1.9905112178,
				"y": -0.0669847023,
				"z": -2.2749372391,
				"element": "H" 
			},
			{
				"x": 0.2357140308,
				"y": -0.7468213593,
				"z": -1.4212709584,
				"element": "H" 
			}
		],
		 "valence_orbital": [ 
			{
				"type": "occ",
				"energy": -0.29041,
				"method": "rhf"
			},
			{
				"type": "occ",
				"energy": -0.28993,
				"method": "rhf"
			},
			{
				"type": "occ",
				"energy": -0.27038,
				"method": "rhf"
			},
			{
				"type": "occ",
				"energy": -0.25576,
				"method": "rhf"
			},
			{
				"type": "occ",
				"energy": -0.23639,
				"method": "rhf"
			},
			{
				"type": "unocc",
				"energy": -0.02982,
				"method": "rhf"
			},
			{
				"type": "unocc",
				"energy": -0.02191,
				"method": "rhf"
			},
			{
				"type": "unocc",
				"energy": 0.00313,
				"method": "rhf"
			},
			{
				"type": "unocc",
				"energy": 0.01102,
				"method": "rhf"
			},
			{
				"type": "unocc",
				"energy": 0.07059,
				"method": "rhf"
			}
		],
		"cosmo_sigma_profile": { 
			"-0.025": 0.0,
			"-0.024": 0.0,
			"-0.023": 0.0,
			"-0.022": 0.0,
			"-0.021": 0.0,
			"-0.02": 0.0,
			"-0.019": 0.252054654072,
			"-0.018": 1.0725360561,
			"-0.017": 0.846890880003,
			"-0.016": 0.977482125994,
			"-0.015": 0.624905725034,
			"-0.014": 0.790017528695,
			"-0.013": 0.518519449367,
			"-0.012": 0.604835702314,
			"-0.011": 1.26693104187,
			"-0.01": 2.13123630487,
			"-0.009": 1.97784415736,
			"-0.008": 3.42470288103,
			"-0.007": 9.98154410857,
			"-0.006": 12.7903129233,
			"-0.005": 12.7699226183,
			"-0.004": 11.9814214657,
			"-0.003": 11.2127055505,
			"-0.002": 11.3595762151,
			"-0.001": 11.5821808669,
			"0.0": 12.7708302399,
			"0.001": 14.5931825959,
			"0.002": 18.2143717475,
			"0.003": 23.3716935445,
			"0.004": 17.2545178255,
			"0.005": 9.39667654742,
			"0.006": 3.33913048695,
			"0.007": 3.39040688636,
			"0.008": 3.7757884978,
			"0.009": 3.42410958897,
			"0.01": 2.71884300867,
			"0.011": 5.03743013483,
			"0.012": 1.05212486938,
			"0.013": 0.186042139727,
			"0.014": 0.68887907469,
			"0.015": 1.12382493421,
			"0.016": 0.316364072984,
			"0.017": 0.644762282166,
			"0.018": 0.398353819335,
			"0.019": 0.120869084172,
			"0.02": 0.0,
			"0.021": 0.0,
			"0.022": 0.0,
			"0.023": 0.0,
			"0.024": 0.0,
			"0.025": 0.0
		}
	}
}
