{
	 "smiles": "CC1CCCN1C(=O)C1=CC=C(C=C1)C#N", 
	 "Tm": 361.15, 
	 "num_atms": 30, 
	 "gaussian": { 
		 "optdone": 1, 
		 "sigma_profile": "yes", 
		 "theory": "DFT", 
		 "functional": "B3LYP", 
		 "basiset": "6-31G**", 
		 "properties": { 
			 "R2extent": 4471.029, 
			 "electric_dipole_moment_norm": 5.90454005745, 
			 "electric_quadrupole_moment_norm": 20.4756005133, 
			 "total_energy": -688.551025591, 
			 "HOMO_LUMO_gap": 0.1786, 
			 "cosmo_polarized_energy": -15.03, 
			 "cosmo_cavitation_energy": 33.46, 
			 "cosmo_dispersion_energy": -23.09, 
			 "cosmo_repulsion_energy": 1.81, 
			 "cosmo_total_nonelectrostatic_energy": 12.17, 
			 "SMD_solvation_energy": 6.81 
		},
		"coords": [
			{
				"x": 2.137404131,
				"y": 0.4853565374,
				"z": 1.5175906155,
				"element": "C" 
			},
			{
				"x": 1.0921740811,
				"y": 1.5286136581,
				"z": 1.1114156703,
				"element": "C" 
			},
			{
				"x": 1.5450811972,
				"y": 2.9707053744,
				"z": 1.4473491003,
				"element": "C" 
			},
			{
				"x": 1.0006662112,
				"y": 3.8385229158,
				"z": 0.3048434679,
				"element": "C" 
			},
			{
				"x": 1.1494115588,
				"y": 2.9208559241,
				"z": -0.9099603471,
				"element": "C" 
			},
			{
				"x": 0.8417027634,
				"y": 1.5932495776,
				"z": -0.354413874,
				"element": "N" 
			},
			{
				"x": 0.5761895129,
				"y": 0.5752229183,
				"z": -1.2270228995,
				"element": "C" 
			},
			{
				"x": 0.711120728,
				"y": 0.715708733,
				"z": -2.4429730683,
				"element": "O" 
			},
			{
				"x": 0.0508702192,
				"y": -0.7354787101,
				"z": -0.6958803211,
				"element": "C" 
			},
			{
				"x": -0.9857300538,
				"y": -0.8108182589,
				"z": 0.2443196266,
				"element": "C" 
			},
			{
				"x": -1.5063815545,
				"y": -2.0437199263,
				"z": 0.6270901046,
				"element": "C" 
			},
			{
				"x": -0.984210042,
				"y": -3.2243148277,
				"z": 0.0740902302,
				"element": "C" 
			},
			{
				"x": 0.044020236,
				"y": -3.1538985886,
				"z": -0.8828815471,
				"element": "C" 
			},
			{
				"x": 0.5411021742,
				"y": -1.9161767447,
				"z": -1.2719395837,
				"element": "C" 
			},
			{
				"x": -1.505894334,
				"y": -4.4975571229,
				"z": 0.4785389296,
				"element": "C" 
			},
			{
				"x": -1.9273830114,
				"y": -5.529915008,
				"z": 0.8100825408,
				"element": "N" 
			},
			{
				"x": 1.8061348509,
				"y": -0.5350472894,
				"z": 1.3142338456,
				"element": "H" 
			},
			{
				"x": 3.0771157415,
				"y": 0.6572409031,
				"z": 0.9824168152,
				"element": "H" 
			},
			{
				"x": 2.3367463967,
				"y": 0.5649118443,
				"z": 2.5917703144,
				"element": "H" 
			},
			{
				"x": 0.1522503366,
				"y": 1.3140626559,
				"z": 1.6340485396,
				"element": "H" 
			},
			{
				"x": 1.1991652498,
				"y": 3.2809278286,
				"z": 2.4372133049,
				"element": "H" 
			},
			{
				"x": 2.6409161679,
				"y": 3.012438952,
				"z": 1.4547534148,
				"element": "H" 
			},
			{
				"x": 1.541268516,
				"y": 4.7816778799,
				"z": 0.1890938126,
				"element": "H" 
			},
			{
				"x": -0.0570017761,
				"y": 4.0741048287,
				"z": 0.4687571372,
				"element": "H" 
			},
			{
				"x": 0.4670652505,
				"y": 3.1419855872,
				"z": -1.7329593566,
				"element": "H" 
			},
			{
				"x": 2.1698241242,
				"y": 2.9479052531,
				"z": -1.3165497831,
				"element": "H" 
			},
			{
				"x": -1.4083412427,
				"y": 0.0976648099,
				"z": 0.6601155841,
				"element": "H" 
			},
			{
				"x": -2.3165738428,
				"y": -2.1007884334,
				"z": 1.3462629368,
				"element": "H" 
			},
			{
				"x": 0.4347437333,
				"y": -4.0675865233,
				"z": -1.3179573411,
				"element": "H" 
			},
			{
				"x": 1.3087426769,
				"y": -1.8448547479,
				"z": -2.0348478694,
				"element": "H" 
			}
		],
		 "valence_orbital": [ 
			{
				"type": "occ",
				"energy": -0.33183,
				"method": "rhf"
			},
			{
				"type": "occ",
				"energy": -0.28007,
				"method": "rhf"
			},
			{
				"type": "occ",
				"energy": -0.27223,
				"method": "rhf"
			},
			{
				"type": "occ",
				"energy": -0.25153,
				"method": "rhf"
			},
			{
				"type": "occ",
				"energy": -0.24357,
				"method": "rhf"
			},
			{
				"type": "unocc",
				"energy": -0.06497,
				"method": "rhf"
			},
			{
				"type": "unocc",
				"energy": -0.02837,
				"method": "rhf"
			},
			{
				"type": "unocc",
				"energy": 0.01966,
				"method": "rhf"
			},
			{
				"type": "unocc",
				"energy": 0.03524,
				"method": "rhf"
			},
			{
				"type": "unocc",
				"energy": 0.06484,
				"method": "rhf"
			}
		],
		"cosmo_sigma_profile": { 
			"-0.025": 0.0,
			"-0.024": 0.0,
			"-0.023": 0.0,
			"-0.022": 0.0,
			"-0.021": 0.0,
			"-0.02": 0.0,
			"-0.019": 0.0,
			"-0.018": 0.0,
			"-0.017": 0.0,
			"-0.016": 0.0,
			"-0.015": 0.0,
			"-0.014": 0.0,
			"-0.013": 0.0,
			"-0.012": 0.0,
			"-0.011": 0.0,
			"-0.01": 0.0,
			"-0.009": 0.284432531888,
			"-0.008": 4.85961229723,
			"-0.007": 8.88908811609,
			"-0.006": 9.82647990941,
			"-0.005": 9.32500267304,
			"-0.004": 21.6712957326,
			"-0.003": 34.0101952377,
			"-0.002": 36.2233498697,
			"-0.001": 32.1324139915,
			"0.0": 27.3885923463,
			"0.001": 18.028000775,
			"0.002": 9.62336914444,
			"0.003": 4.12283838292,
			"0.004": 3.13647814592,
			"0.005": 5.2412411675,
			"0.006": 3.45627262952,
			"0.007": 4.37944691277,
			"0.008": 5.64741858841,
			"0.009": 4.17779988522,
			"0.01": 5.09008720216,
			"0.011": 3.99620856978,
			"0.012": 4.41519115548,
			"0.013": 4.43220516172,
			"0.014": 4.81765161206,
			"0.015": 0.434856345643,
			"0.016": 0.0,
			"0.017": 0.0,
			"0.018": 0.0,
			"0.019": 0.0,
			"0.02": 0.0,
			"0.021": 0.0,
			"0.022": 0.0,
			"0.023": 0.0,
			"0.024": 0.0,
			"0.025": 0.0
		}
	}
}
