{
	 "smiles": "CC(CC(=O)C1=CC=CC=C1)=NC1=CC=CC=C1", 
	 "Tm": 384.15, 
	 "num_atms": 33, 
	 "gaussian": { 
		 "optdone": 1, 
		 "sigma_profile": "yes", 
		 "theory": "DFT", 
		 "functional": "B3LYP", 
		 "basiset": "6-31G**", 
		 "properties": { 
			 "R2extent": 6135.5764, 
			 "electric_dipole_moment_norm": 1.07802179477, 
			 "electric_quadrupole_moment_norm": 10.2242187486, 
			 "total_energy": -748.713698332, 
			 "HOMO_LUMO_gap": 0.15487, 
			 "cosmo_polarized_energy": -9.82, 
			 "cosmo_cavitation_energy": 37.12, 
			 "cosmo_dispersion_energy": -25.58, 
			 "cosmo_repulsion_energy": 1.99, 
			 "cosmo_total_nonelectrostatic_energy": 13.53, 
			 "SMD_solvation_energy": 5.88 
		},
		"coords": [
			{
				"x": 2.1160673855,
				"y": -0.011060776,
				"z": -0.414539673,
				"element": "C" 
			},
			{
				"x": 1.3340638272,
				"y": -0.1395670508,
				"z": 0.8715143935,
				"element": "C" 
			},
			{
				"x": 1.6909050819,
				"y": 0.8672440318,
				"z": 1.9577281133,
				"element": "C" 
			},
			{
				"x": 1.1104965986,
				"y": 2.2548604364,
				"z": 1.6390863471,
				"element": "C" 
			},
			{
				"x": 1.7737044218,
				"y": 3.0469942973,
				"z": 0.984431005,
				"element": "O" 
			},
			{
				"x": -0.2587753595,
				"y": 2.6069494898,
				"z": 2.1240882153,
				"element": "C" 
			},
			{
				"x": -0.6733647312,
				"y": 3.9440726721,
				"z": 1.9988647586,
				"element": "C" 
			},
			{
				"x": -1.9358594544,
				"y": 4.3332209227,
				"z": 2.4332198557,
				"element": "C" 
			},
			{
				"x": -2.8059026634,
				"y": 3.3871942298,
				"z": 2.985516319,
				"element": "C" 
			},
			{
				"x": -2.4083524566,
				"y": 2.0537848673,
				"z": 3.0993536509,
				"element": "C" 
			},
			{
				"x": -1.1379182972,
				"y": 1.6612310182,
				"z": 2.6768968526,
				"element": "C" 
			},
			{
				"x": 0.4273938232,
				"y": -0.9982213443,
				"z": 1.1438397676,
				"element": "N" 
			},
			{
				"x": -0.0316241273,
				"y": -1.9508262718,
				"z": 0.2089298597,
				"element": "C" 
			},
			{
				"x": 0.2446720036,
				"y": -3.3104265908,
				"z": 0.4220412182,
				"element": "C" 
			},
			{
				"x": -0.263538977,
				"y": -4.2741527481,
				"z": -0.4468679278,
				"element": "C" 
			},
			{
				"x": -1.071649776,
				"y": -3.902895558,
				"z": -1.5246836758,
				"element": "C" 
			},
			{
				"x": -1.3657398978,
				"y": -2.5534607134,
				"z": -1.7266768348,
				"element": "C" 
			},
			{
				"x": -0.8507982202,
				"y": -1.5801608353,
				"z": -0.8696743207,
				"element": "C" 
			},
			{
				"x": 2.1328346855,
				"y": 1.0336536595,
				"z": -0.7410808946,
				"element": "H" 
			},
			{
				"x": 1.7170564804,
				"y": -0.6426539444,
				"z": -1.2081199529,
				"element": "H" 
			},
			{
				"x": 3.1596044865,
				"y": -0.2943870202,
				"z": -0.2285299221,
				"element": "H" 
			},
			{
				"x": 1.3359205828,
				"y": 0.4925706941,
				"z": 2.9183578017,
				"element": "H" 
			},
			{
				"x": 2.7763689702,
				"y": 0.9989606802,
				"z": 1.9946292051,
				"element": "H" 
			},
			{
				"x": 0.0167892391,
				"y": 4.6567193957,
				"z": 1.559757928,
				"element": "H" 
			},
			{
				"x": -2.2460342429,
				"y": 5.3701392866,
				"z": 2.3419867608,
				"element": "H" 
			},
			{
				"x": -3.7931835442,
				"y": 3.6897776647,
				"z": 3.3233404925,
				"element": "H" 
			},
			{
				"x": -3.0881623123,
				"y": 1.3167654624,
				"z": 3.5165481094,
				"element": "H" 
			},
			{
				"x": -0.8486356193,
				"y": 0.6174540045,
				"z": 2.7435802587,
				"element": "H" 
			},
			{
				"x": 0.8596007805,
				"y": -3.595055375,
				"z": 1.2703674414,
				"element": "H" 
			},
			{
				"x": -0.0320849493,
				"y": -5.3219952437,
				"z": -0.2763650745,
				"element": "H" 
			},
			{
				"x": -1.4729363136,
				"y": -4.6575820008,
				"z": -2.1942947867,
				"element": "H" 
			},
			{
				"x": -1.9992457431,
				"y": -2.2521660742,
				"z": -2.5564722831,
				"element": "H" 
			},
			{
				"x": -1.0901716815,
				"y": -0.5311812667,
				"z": -1.0174730082,
				"element": "H" 
			}
		],
		 "valence_orbital": [ 
			{
				"type": "occ",
				"energy": -0.25974,
				"method": "rhf"
			},
			{
				"type": "occ",
				"energy": -0.25783,
				"method": "rhf"
			},
			{
				"type": "occ",
				"energy": -0.2488,
				"method": "rhf"
			},
			{
				"type": "occ",
				"energy": -0.24825,
				"method": "rhf"
			},
			{
				"type": "occ",
				"energy": -0.2175,
				"method": "rhf"
			},
			{
				"type": "unocc",
				"energy": -0.06263,
				"method": "rhf"
			},
			{
				"type": "unocc",
				"energy": -0.01491,
				"method": "rhf"
			},
			{
				"type": "unocc",
				"energy": -0.00822,
				"method": "rhf"
			},
			{
				"type": "unocc",
				"energy": 0.00152,
				"method": "rhf"
			},
			{
				"type": "unocc",
				"energy": 0.0157,
				"method": "rhf"
			}
		],
		"cosmo_sigma_profile": { 
			"-0.025": 0.0,
			"-0.024": 0.0,
			"-0.023": 0.0,
			"-0.022": 0.0,
			"-0.021": 0.0,
			"-0.02": 0.0,
			"-0.019": 0.0,
			"-0.018": 0.0,
			"-0.017": 0.0,
			"-0.016": 0.0,
			"-0.015": 0.0,
			"-0.014": 0.0,
			"-0.013": 0.0,
			"-0.012": 0.0,
			"-0.011": 0.0,
			"-0.01": 0.0,
			"-0.009": 0.0,
			"-0.008": 0.0,
			"-0.007": 1.60173948544,
			"-0.006": 15.9188795435,
			"-0.005": 25.8133576403,
			"-0.004": 30.7997286912,
			"-0.003": 28.8456997597,
			"-0.002": 25.0297548095,
			"-0.001": 24.2415594226,
			"0.0": 20.2435222835,
			"0.001": 18.205919616,
			"0.002": 18.9997249254,
			"0.003": 21.4938893401,
			"0.004": 22.8370672338,
			"0.005": 14.4953908733,
			"0.006": 10.0051825777,
			"0.007": 3.03250979285,
			"0.008": 2.59426743822,
			"0.009": 2.63560235853,
			"0.01": 2.36948399632,
			"0.011": 3.84480526249,
			"0.012": 3.36069758968,
			"0.013": 0.316854427777,
			"0.014": 0.0,
			"0.015": 0.0,
			"0.016": 0.0,
			"0.017": 0.0,
			"0.018": 0.0,
			"0.019": 0.0,
			"0.02": 0.0,
			"0.021": 0.0,
			"0.022": 0.0,
			"0.023": 0.0,
			"0.024": 0.0,
			"0.025": 0.0
		}
	}
}
