{
	 "smiles": "OC1=CC=C(NN=C(/C#N)C2=NC3=C(N2)C=CC=C3)C=C1", 
	 "Tm": 528.15, 
	 "num_atms": 32, 
	 "gaussian": { 
		 "optdone": 1, 
		 "sigma_profile": "yes", 
		 "theory": "DFT", 
		 "functional": "B3LYP", 
		 "basiset": "6-31G**", 
		 "properties": { 
			 "R2extent": 9930.7177, 
			 "electric_dipole_moment_norm": 5.78985105594, 
			 "electric_quadrupole_moment_norm": 36.639786368, 
			 "total_energy": -927.166452759, 
			 "HOMO_LUMO_gap": 0.12102, 
			 "cosmo_polarized_energy": -23.7, 
			 "cosmo_cavitation_energy": 39.23, 
			 "cosmo_dispersion_energy": -28.13, 
			 "cosmo_repulsion_energy": 2.13, 
			 "cosmo_total_nonelectrostatic_energy": 13.23, 
			 "SMD_solvation_energy": 5.46 
		},
		"coords": [
			{
				"x": 0.2431179197,
				"y": 4.7734951213,
				"z": -5.4629814245,
				"element": "O" 
			},
			{
				"x": -0.2169979094,
				"y": 3.6935827337,
				"z": -4.7650920734,
				"element": "C" 
			},
			{
				"x": 0.3655988555,
				"y": 3.4352639885,
				"z": -3.5176483175,
				"element": "C" 
			},
			{
				"x": -0.0537279903,
				"y": 2.3536708099,
				"z": -2.7537759017,
				"element": "C" 
			},
			{
				"x": -1.0677900989,
				"y": 1.509883265,
				"z": -3.2292438291,
				"element": "C" 
			},
			{
				"x": -1.5258616986,
				"y": 0.4041061597,
				"z": -2.4940979203,
				"element": "N" 
			},
			{
				"x": -1.0361663139,
				"y": 0.0876735082,
				"z": -1.3116018031,
				"element": "N" 
			},
			{
				"x": -1.499731101,
				"y": -0.9565258966,
				"z": -0.6666426966,
				"element": "C" 
			},
			{
				"x": -2.5395190484,
				"y": -1.7703931051,
				"z": -1.2268363784,
				"element": "C" 
			},
			{
				"x": -3.37740399,
				"y": -2.312638079,
				"z": -1.8276979925,
				"element": "N" 
			},
			{
				"x": -0.9497957675,
				"y": -1.2915726628,
				"z": 0.6352551807,
				"element": "C" 
			},
			{
				"x": -1.3348509579,
				"y": -2.3121804143,
				"z": 1.3725458286,
				"element": "N" 
			},
			{
				"x": -0.5494585957,
				"y": -2.2408972978,
				"z": 2.5097391054,
				"element": "C" 
			},
			{
				"x": 0.3331916955,
				"y": -1.1310111099,
				"z": 2.4351764611,
				"element": "C" 
			},
			{
				"x": 0.0497184833,
				"y": -0.5418430122,
				"z": 1.2168630003,
				"element": "N" 
			},
			{
				"x": 1.2392057866,
				"y": -0.8236648269,
				"z": 3.4513194757,
				"element": "C" 
			},
			{
				"x": 1.242442571,
				"y": -1.6651605154,
				"z": 4.5616020004,
				"element": "C" 
			},
			{
				"x": 0.3733408208,
				"y": -2.7720540616,
				"z": 4.6534353934,
				"element": "C" 
			},
			{
				"x": -0.5271644256,
				"y": -3.073051795,
				"z": 3.6376200914,
				"element": "C" 
			},
			{
				"x": -1.65095352,
				"y": 1.7664331286,
				"z": -4.4753339813,
				"element": "C" 
			},
			{
				"x": -1.2280913525,
				"y": 2.8519357741,
				"z": -5.2389441251,
				"element": "C" 
			},
			{
				"x": -0.2347093284,
				"y": 4.8418824091,
				"z": -6.2995890933,
				"element": "H" 
			},
			{
				"x": 1.1491158891,
				"y": 4.0953216972,
				"z": -3.160949013,
				"element": "H" 
			},
			{
				"x": 0.3974928917,
				"y": 2.1549095989,
				"z": -1.7896312914,
				"element": "H" 
			},
			{
				"x": -2.2654498721,
				"y": -0.170143974,
				"z": -2.8980326686,
				"element": "H" 
			},
			{
				"x": 0.4706177019,
				"y": 0.2755311543,
				"z": 0.8039612637,
				"element": "H" 
			},
			{
				"x": 1.9103486813,
				"y": 0.0272671194,
				"z": 3.3854494659,
				"element": "H" 
			},
			{
				"x": 1.9315446127,
				"y": -1.4632181862,
				"z": 5.3762618395,
				"element": "H" 
			},
			{
				"x": 0.4118265599,
				"y": -3.4000127583,
				"z": 5.5384725968,
				"element": "H" 
			},
			{
				"x": -1.1987938837,
				"y": -3.922819044,
				"z": 3.7011867677,
				"element": "H" 
			},
			{
				"x": -2.4377184889,
				"y": 1.1182757722,
				"z": -4.8527369852,
				"element": "H" 
			},
			{
				"x": -1.6893781262,
				"y": 3.0403544989,
				"z": -6.2055529756,
				"element": "H" 
			}
		],
		 "valence_orbital": [ 
			{
				"type": "occ",
				"energy": -0.27675,
				"method": "rhf"
			},
			{
				"type": "occ",
				"energy": -0.27223,
				"method": "rhf"
			},
			{
				"type": "occ",
				"energy": -0.23588,
				"method": "rhf"
			},
			{
				"type": "occ",
				"energy": -0.2284,
				"method": "rhf"
			},
			{
				"type": "occ",
				"energy": -0.19987,
				"method": "rhf"
			},
			{
				"type": "unocc",
				"energy": -0.07885,
				"method": "rhf"
			},
			{
				"type": "unocc",
				"energy": -0.02186,
				"method": "rhf"
			},
			{
				"type": "unocc",
				"energy": -0.00638,
				"method": "rhf"
			},
			{
				"type": "unocc",
				"energy": 0.01349,
				"method": "rhf"
			},
			{
				"type": "unocc",
				"energy": 0.0154,
				"method": "rhf"
			}
		],
		"cosmo_sigma_profile": { 
			"-0.025": 0.0,
			"-0.024": 0.0,
			"-0.023": 0.0,
			"-0.022": 0.0,
			"-0.021": 0.0,
			"-0.02": 0.0,
			"-0.019": 0.0,
			"-0.018": 0.628861363784,
			"-0.017": 1.10875723533,
			"-0.016": 1.77402563711,
			"-0.015": 1.99521021079,
			"-0.014": 3.2803947526,
			"-0.013": 2.93474326545,
			"-0.012": 3.12748385958,
			"-0.011": 2.93757528395,
			"-0.01": 4.51984497835,
			"-0.009": 3.33660564333,
			"-0.008": 4.47167402072,
			"-0.007": 8.20158968884,
			"-0.006": 14.1569798199,
			"-0.005": 17.2980394363,
			"-0.004": 17.3604754209,
			"-0.003": 17.6766144049,
			"-0.002": 15.0230164037,
			"-0.001": 20.298575938,
			"0.0": 17.6856234048,
			"0.001": 22.7372944027,
			"0.002": 20.9381452556,
			"0.003": 22.8408093594,
			"0.004": 26.5910100256,
			"0.005": 17.2954780748,
			"0.006": 13.2170434004,
			"0.007": 6.14714788708,
			"0.008": 5.75866581236,
			"0.009": 5.45610688333,
			"0.01": 5.89450400929,
			"0.011": 5.29644922172,
			"0.012": 3.35380849798,
			"0.013": 1.03375738221,
			"0.014": 0.848790729009,
			"0.015": 0.985953387637,
			"0.016": 0.483012970001,
			"0.017": 0.040936057555,
			"0.018": 0.0,
			"0.019": 0.0,
			"0.02": 0.0,
			"0.021": 0.0,
			"0.022": 0.0,
			"0.023": 0.0,
			"0.024": 0.0,
			"0.025": 0.0
		}
	}
}
