{
	 "smiles": "O=S(=O)(N1CCOCC1)C1=CN=C(C=C1)N1CCNCC1", 
	 "Tm": 458.15, 
	 "num_atms": 41, 
	 "gaussian": { 
		 "optdone": 1, 
		 "sigma_profile": "yes", 
		 "theory": "DFT", 
		 "functional": "B3LYP", 
		 "basiset": "6-31G**", 
		 "properties": { 
			 "R2extent": 9101.8022, 
			 "electric_dipole_moment_norm": 6.98328773788, 
			 "electric_quadrupole_moment_norm": 28.7379975633, 
			 "total_energy": -1350.19032871, 
			 "HOMO_LUMO_gap": 0.1799, 
			 "cosmo_polarized_energy": -20.71, 
			 "cosmo_cavitation_energy": 42.34, 
			 "cosmo_dispersion_energy": -31.14, 
			 "cosmo_repulsion_energy": 2.35, 
			 "cosmo_total_nonelectrostatic_energy": 13.55, 
			 "SMD_solvation_energy": 0.8 
		},
		"coords": [
			{
				"x": 3.6024839088,
				"y": -0.1772929816,
				"z": -2.6084616722,
				"element": "O" 
			},
			{
				"x": 2.673247593,
				"y": -1.2369371481,
				"z": -2.2093405341,
				"element": "S" 
			},
			{
				"x": 2.2365234749,
				"y": -2.2956922731,
				"z": -3.1244122198,
				"element": "O" 
			},
			{
				"x": 3.4187227277,
				"y": -2.0214427084,
				"z": -0.9210902938,
				"element": "N" 
			},
			{
				"x": 2.8664446846,
				"y": -3.3045255401,
				"z": -0.442607037,
				"element": "C" 
			},
			{
				"x": 2.4877146147,
				"y": -3.2088258143,
				"z": 1.0326700651,
				"element": "C" 
			},
			{
				"x": 3.5919187045,
				"y": -2.8433279918,
				"z": 1.8593113205,
				"element": "O" 
			},
			{
				"x": 4.5978882971,
				"y": -2.074844114,
				"z": 1.2051090558,
				"element": "C" 
			},
			{
				"x": 4.0374181954,
				"y": -1.1709920504,
				"z": 0.1117200312,
				"element": "C" 
			},
			{
				"x": 1.2050043297,
				"y": -0.4411789767,
				"z": -1.588570785,
				"element": "C" 
			},
			{
				"x": 1.2512312782,
				"y": 0.8587158229,
				"z": -1.0755025987,
				"element": "C" 
			},
			{
				"x": 0.1922143823,
				"y": 1.4892108318,
				"z": -0.5756217198,
				"element": "N" 
			},
			{
				"x": -1.0005277048,
				"y": 0.8518084135,
				"z": -0.5585922955,
				"element": "C" 
			},
			{
				"x": -1.146480869,
				"y": -0.4605312623,
				"z": -1.0906138848,
				"element": "C" 
			},
			{
				"x": -0.0341474549,
				"y": -1.0993519359,
				"z": -1.6031219449,
				"element": "C" 
			},
			{
				"x": -2.0631462547,
				"y": 1.5233438214,
				"z": -0.0205768254,
				"element": "N" 
			},
			{
				"x": -1.942182371,
				"y": 2.8889139738,
				"z": 0.4882204914,
				"element": "C" 
			},
			{
				"x": -2.5235704459,
				"y": 3.0001633798,
				"z": 1.9050181151,
				"element": "C" 
			},
			{
				"x": -3.7730251541,
				"y": 2.2253554051,
				"z": 2.0341758721,
				"element": "N" 
			},
			{
				"x": -4.3671255659,
				"y": 1.845817262,
				"z": 0.7590750841,
				"element": "C" 
			},
			{
				"x": -3.3953351437,
				"y": 0.9166746509,
				"z": 0.0276675801,
				"element": "C" 
			},
			{
				"x": 3.6175226032,
				"y": -4.0906820072,
				"z": -0.5868263377,
				"element": "H" 
			},
			{
				"x": 2.0005933885,
				"y": -3.581158267,
				"z": -1.0476085021,
				"element": "H" 
			},
			{
				"x": 2.1289328984,
				"y": -4.1800025854,
				"z": 1.3911050003,
				"element": "H" 
			},
			{
				"x": 1.6692525231,
				"y": -2.4826782936,
				"z": 1.1548920054,
				"element": "H" 
			},
			{
				"x": 5.077753114,
				"y": -1.4631183632,
				"z": 1.9754372309,
				"element": "H" 
			},
			{
				"x": 5.3654888452,
				"y": -2.7344986018,
				"z": 0.772697614,
				"element": "H" 
			},
			{
				"x": 3.3101243059,
				"y": -0.4749279497,
				"z": 0.558381357,
				"element": "H" 
			},
			{
				"x": 4.8374954446,
				"y": -0.5825056916,
				"z": -0.3432205477,
				"element": "H" 
			},
			{
				"x": 2.1839642501,
				"y": 1.4172605103,
				"z": -1.0971452125,
				"element": "H" 
			},
			{
				"x": -2.1098009458,
				"y": -0.9528970049,
				"z": -1.1133647868,
				"element": "H" 
			},
			{
				"x": -0.1165052132,
				"y": -2.0878354813,
				"z": -2.0430192721,
				"element": "H" 
			},
			{
				"x": -2.4599219551,
				"y": 3.580214125,
				"z": -0.1909250579,
				"element": "H" 
			},
			{
				"x": -0.8872647953,
				"y": 3.1563225138,
				"z": 0.4821319321,
				"element": "H" 
			},
			{
				"x": -1.7925045673,
				"y": 2.6189540259,
				"z": 2.629558998,
				"element": "H" 
			},
			{
				"x": -2.6678660942,
				"y": 4.0695573957,
				"z": 2.1231705261,
				"element": "H" 
			},
			{
				"x": -4.4443568882,
				"y": 2.7132821801,
				"z": 2.6158689661,
				"element": "H" 
			},
			{
				"x": -5.2924360153,
				"y": 1.2929139097,
				"z": 0.9498932898,
				"element": "H" 
			},
			{
				"x": -4.6353863524,
				"y": 2.6955162804,
				"z": 0.1046300067,
				"element": "H" 
			},
			{
				"x": -3.3438401837,
				"y": -0.034042447,
				"z": 0.573787914,
				"element": "H" 
			},
			{
				"x": -3.7682155893,
				"y": 0.7074649871,
				"z": -0.9862009279,
				"element": "H" 
			}
		],
		 "valence_orbital": [ 
			{
				"type": "occ",
				"energy": -0.26525,
				"method": "rhf"
			},
			{
				"type": "occ",
				"energy": -0.25758,
				"method": "rhf"
			},
			{
				"type": "occ",
				"energy": -0.24729,
				"method": "rhf"
			},
			{
				"type": "occ",
				"energy": -0.23029,
				"method": "rhf"
			},
			{
				"type": "occ",
				"energy": -0.2118,
				"method": "rhf"
			},
			{
				"type": "unocc",
				"energy": -0.0319,
				"method": "rhf"
			},
			{
				"type": "unocc",
				"energy": -0.02021,
				"method": "rhf"
			},
			{
				"type": "unocc",
				"energy": 0.06249,
				"method": "rhf"
			},
			{
				"type": "unocc",
				"energy": 0.06814,
				"method": "rhf"
			},
			{
				"type": "unocc",
				"energy": 0.08058,
				"method": "rhf"
			}
		],
		"cosmo_sigma_profile": { 
			"-0.025": 0.0,
			"-0.024": 0.0,
			"-0.023": 0.0,
			"-0.022": 0.0,
			"-0.021": 0.0,
			"-0.02": 0.0,
			"-0.019": 0.0,
			"-0.018": 0.0,
			"-0.017": 0.0,
			"-0.016": 0.0,
			"-0.015": 0.0,
			"-0.014": 0.0,
			"-0.013": 0.0,
			"-0.012": 0.0,
			"-0.011": 0.206821245693,
			"-0.01": 1.42758031154,
			"-0.009": 1.32223763835,
			"-0.008": 1.87395263693,
			"-0.007": 5.52815161559,
			"-0.006": 16.453753767,
			"-0.005": 32.6475412195,
			"-0.004": 45.8244305329,
			"-0.003": 41.9223580368,
			"-0.002": 28.5304690003,
			"-0.001": 19.6218333083,
			"0.0": 15.1218324503,
			"0.001": 18.8499117173,
			"0.002": 15.8563553551,
			"0.003": 10.6705629136,
			"0.004": 7.94947022756,
			"0.005": 7.52944379552,
			"0.006": 7.49498218211,
			"0.007": 8.05470284315,
			"0.008": 7.23232666175,
			"0.009": 5.90849465316,
			"0.01": 8.85422860217,
			"0.011": 11.287985425,
			"0.012": 7.65049723843,
			"0.013": 2.19776860426,
			"0.014": 0.505637468132,
			"0.015": 0.687111765134,
			"0.016": 0.324796785036,
			"0.017": 0.424272526281,
			"0.018": 0.177616104981,
			"0.019": 0.0,
			"0.02": 0.0,
			"0.021": 0.0,
			"0.022": 0.0,
			"0.023": 0.0,
			"0.024": 0.0,
			"0.025": 0.0
		}
	}
}
