{
	 "smiles": "BrC1C2CC3CC(C2)CC1C3", 
	 "Tm": 412.15, 
	 "num_atms": 26, 
	 "gaussian": { 
		 "optdone": 1, 
		 "sigma_profile": "yes", 
		 "theory": "DFT", 
		 "functional": "B3LYP", 
		 "basiset": "6-31G**", 
		 "properties": { 
			 "R2extent": 3518.8463, 
			 "electric_dipole_moment_norm": 2.50948290291, 
			 "electric_quadrupole_moment_norm": 11.125644793, 
			 "total_energy": -2961.54658253, 
			 "HOMO_LUMO_gap": 0.26608, 
			 "cosmo_polarized_energy": -3.51, 
			 "cosmo_cavitation_energy": 25.55, 
			 "cosmo_dispersion_energy": -20.25, 
			 "cosmo_repulsion_energy": 1.58, 
			 "cosmo_total_nonelectrostatic_energy": 6.88, 
			 "SMD_solvation_energy": 1.76 
		},
		"coords": [
			{
				"x": 4.0076306711,
				"y": 0.1309945342,
				"z": 1.268303501,
				"element": "Br" 
			},
			{
				"x": 2.0489254639,
				"y": 0.5816685893,
				"z": 1.3055477428,
				"element": "C" 
			},
			{
				"x": 1.6484979998,
				"y": 1.4350339877,
				"z": 0.0930341426,
				"element": "C" 
			},
			{
				"x": 0.1839021316,
				"y": 1.8878582885,
				"z": 0.324397456,
				"element": "C" 
			},
			{
				"x": -0.7355889043,
				"y": 0.653491768,
				"z": 0.4268326669,
				"element": "C" 
			},
			{
				"x": -0.6461941109,
				"y": -0.1639570951,
				"z": -0.8793895282,
				"element": "C" 
			},
			{
				"x": 0.8100560257,
				"y": -0.621358181,
				"z": -1.1071312787,
				"element": "C" 
			},
			{
				"x": 1.7287541051,
				"y": 0.6143964121,
				"z": -1.2103800403,
				"element": "C" 
			},
			{
				"x": 1.2677107278,
				"y": -1.4963587414,
				"z": 0.0789755724,
				"element": "C" 
			},
			{
				"x": 1.1852126046,
				"y": -0.6854713846,
				"z": 1.3882001735,
				"element": "C" 
			},
			{
				"x": -0.2768900253,
				"y": -0.2208957435,
				"z": 1.6121744213,
				"element": "C" 
			},
			{
				"x": 1.9712751974,
				"y": 1.1614415737,
				"z": 2.2271584745,
				"element": "H" 
			},
			{
				"x": 2.3024496856,
				"y": 2.3112796127,
				"z": 0.031038918,
				"element": "H" 
			},
			{
				"x": 0.1124453489,
				"y": 2.4926424208,
				"z": 1.2378674651,
				"element": "H" 
			},
			{
				"x": -0.130013247,
				"y": 2.5306457899,
				"z": -0.5076726947,
				"element": "H" 
			},
			{
				"x": -1.7703573958,
				"y": 0.979547088,
				"z": 0.5906206899,
				"element": "H" 
			},
			{
				"x": -1.3118284525,
				"y": -1.0353304954,
				"z": -0.82333219,
				"element": "H" 
			},
			{
				"x": -0.9883512722,
				"y": 0.444219988,
				"z": -1.727069695,
				"element": "H" 
			},
			{
				"x": 0.8730513287,
				"y": -1.2022305926,
				"z": -2.0356762567,
				"element": "H" 
			},
			{
				"x": 2.7635114536,
				"y": 0.3073236647,
				"z": -1.3953322983,
				"element": "H" 
			},
			{
				"x": 1.4230078398,
				"y": 1.2455703083,
				"z": -2.0544198906,
				"element": "H" 
			},
			{
				"x": 0.6300615004,
				"y": -2.3854695893,
				"z": 0.1634425497,
				"element": "H" 
			},
			{
				"x": 2.2926786107,
				"y": -1.8482864033,
				"z": -0.0786475607,
				"element": "H" 
			},
			{
				"x": 1.5140965223,
				"y": -1.2971012883,
				"z": 2.2349963145,
				"element": "H" 
			},
			{
				"x": -0.9235249421,
				"y": -1.1019776938,
				"z": 1.7103179923,
				"element": "H" 
			},
			{
				"x": -0.3581188671,
				"y": 0.3396231823,
				"z": 2.5526433529,
				"element": "H" 
			}
		],
		 "valence_orbital": [ 
			{
				"type": "occ",
				"energy": -0.29144,
				"method": "rhf"
			},
			{
				"type": "occ",
				"energy": -0.28854,
				"method": "rhf"
			},
			{
				"type": "occ",
				"energy": -0.28597,
				"method": "rhf"
			},
			{
				"type": "occ",
				"energy": -0.26298,
				"method": "rhf"
			},
			{
				"type": "occ",
				"energy": -0.26051,
				"method": "rhf"
			},
			{
				"type": "unocc",
				"energy": 0.00557,
				"method": "rhf"
			},
			{
				"type": "unocc",
				"energy": 0.06899,
				"method": "rhf"
			},
			{
				"type": "unocc",
				"energy": 0.11415,
				"method": "rhf"
			},
			{
				"type": "unocc",
				"energy": 0.12016,
				"method": "rhf"
			},
			{
				"type": "unocc",
				"energy": 0.12486,
				"method": "rhf"
			}
		],
		"cosmo_sigma_profile": { 
			"-0.025": 0.0,
			"-0.024": 0.0,
			"-0.023": 0.0,
			"-0.022": 0.0,
			"-0.021": 0.0,
			"-0.02": 0.0,
			"-0.019": 0.0,
			"-0.018": 0.0,
			"-0.017": 0.0,
			"-0.016": 0.0,
			"-0.015": 0.0,
			"-0.014": 0.0,
			"-0.013": 0.0,
			"-0.012": 0.0,
			"-0.011": 0.0,
			"-0.01": 0.0,
			"-0.009": 0.0,
			"-0.008": 0.0,
			"-0.007": 0.0,
			"-0.006": 0.964032113859,
			"-0.005": 3.4266662486,
			"-0.004": 4.50875464799,
			"-0.003": 16.6924710594,
			"-0.002": 38.0561328154,
			"-0.001": 36.4353537503,
			"0.0": 36.6232827246,
			"0.001": 22.8542491686,
			"0.002": 7.60833758765,
			"0.003": 6.22393176287,
			"0.004": 4.32232290605,
			"0.005": 6.09181185293,
			"0.006": 8.59311888997,
			"0.007": 6.72111191357,
			"0.008": 0.173172096227,
			"0.009": 0.0,
			"0.01": 0.0,
			"0.011": 0.0,
			"0.012": 0.0,
			"0.013": 0.0,
			"0.014": 0.0,
			"0.015": 0.0,
			"0.016": 0.0,
			"0.017": 0.0,
			"0.018": 0.0,
			"0.019": 0.0,
			"0.02": 0.0,
			"0.021": 0.0,
			"0.022": 0.0,
			"0.023": 0.0,
			"0.024": 0.0,
			"0.025": 0.0
		}
	}
}
