{
	 "smiles": "CSC1=NN(C=C1C#N)C1=CC=CC=C1", 
	 "Tm": 380.15, 
	 "num_atms": 24, 
	 "gaussian": { 
		 "optdone": 1, 
		 "sigma_profile": "yes", 
		 "theory": "DFT", 
		 "functional": "B3LYP", 
		 "basiset": "6-31G**", 
		 "properties": { 
			 "R2extent": 6192.8077, 
			 "electric_dipole_moment_norm": 6.0432469046, 
			 "electric_quadrupole_moment_norm": 35.1381329551, 
			 "total_energy": -986.998285821, 
			 "HOMO_LUMO_gap": 0.17074, 
			 "cosmo_polarized_energy": -13.14, 
			 "cosmo_cavitation_energy": 31.4, 
			 "cosmo_dispersion_energy": -22.6, 
			 "cosmo_repulsion_energy": 1.71, 
			 "cosmo_total_nonelectrostatic_energy": 10.5, 
			 "SMD_solvation_energy": 6.61 
		},
		"coords": [
			{
				"x": 4.6546106396,
				"y": -0.6729684575,
				"z": -1.6280780746,
				"element": "C" 
			},
			{
				"x": 4.4073835145,
				"y": -2.4002002669,
				"z": -1.0900536786,
				"element": "S" 
			},
			{
				"x": 2.6702207837,
				"y": -2.3955487207,
				"z": -0.820695222,
				"element": "C" 
			},
			{
				"x": 1.9037273036,
				"y": -1.3318748777,
				"z": -1.0087640466,
				"element": "N" 
			},
			{
				"x": 0.6333201397,
				"y": -1.7342363213,
				"z": -0.6945096825,
				"element": "N" 
			},
			{
				"x": 0.5984993279,
				"y": -3.0342089534,
				"z": -0.3133238538,
				"element": "C" 
			},
			{
				"x": 1.8962432882,
				"y": -3.5166306265,
				"z": -0.3759910027,
				"element": "C" 
			},
			{
				"x": 2.3398862473,
				"y": -4.8257409369,
				"z": -0.0666695625,
				"element": "C" 
			},
			{
				"x": 2.7117949443,
				"y": -5.8997838358,
				"z": 0.1858539455,
				"element": "N" 
			},
			{
				"x": -0.4443316513,
				"y": -0.809378787,
				"z": -0.7941433182,
				"element": "C" 
			},
			{
				"x": -1.7509543327,
				"y": -1.2002368978,
				"z": -0.4780949179,
				"element": "C" 
			},
			{
				"x": -2.7897887864,
				"y": -0.2769622264,
				"z": -0.5834241544,
				"element": "C" 
			},
			{
				"x": -2.538734801,
				"y": 1.0309757958,
				"z": -1.0004134995,
				"element": "C" 
			},
			{
				"x": -1.2324331127,
				"y": 1.4106922649,
				"z": -1.3131637094,
				"element": "C" 
			},
			{
				"x": -0.1827673739,
				"y": 0.4999632973,
				"z": -1.21313471,
				"element": "C" 
			},
			{
				"x": 5.7239934101,
				"y": -0.5747158887,
				"z": -1.8233247975,
				"element": "H" 
			},
			{
				"x": 4.0892951003,
				"y": -0.4694476123,
				"z": -2.5383137487,
				"element": "H" 
			},
			{
				"x": 4.3539028597,
				"y": 0.0210039696,
				"z": -0.8422609853,
				"element": "H" 
			},
			{
				"x": -0.3070015359,
				"y": -3.5427240158,
				"z": -0.0252492702,
				"element": "H" 
			},
			{
				"x": -1.9707463997,
				"y": -2.2104866998,
				"z": -0.1520405491,
				"element": "H" 
			},
			{
				"x": -3.8004321946,
				"y": -0.5876345993,
				"z": -0.3365870303,
				"element": "H" 
			},
			{
				"x": -3.352184066,
				"y": 1.7451791651,
				"z": -1.0803814905,
				"element": "H" 
			},
			{
				"x": -1.0230612243,
				"y": 2.4252137141,
				"z": -1.6388666055,
				"element": "H" 
			},
			{
				"x": 0.8337579195,
				"y": 0.7828515172,
				"z": -1.4528700358,
				"element": "H" 
			}
		],
		 "valence_orbital": [ 
			{
				"type": "occ",
				"energy": -0.31024,
				"method": "rhf"
			},
			{
				"type": "occ",
				"energy": -0.27743,
				"method": "rhf"
			},
			{
				"type": "occ",
				"energy": -0.27109,
				"method": "rhf"
			},
			{
				"type": "occ",
				"energy": -0.25785,
				"method": "rhf"
			},
			{
				"type": "occ",
				"energy": -0.22124,
				"method": "rhf"
			},
			{
				"type": "unocc",
				"energy": -0.0505,
				"method": "rhf"
			},
			{
				"type": "unocc",
				"energy": -0.02207,
				"method": "rhf"
			},
			{
				"type": "unocc",
				"energy": -0.00198,
				"method": "rhf"
			},
			{
				"type": "unocc",
				"energy": 0.01368,
				"method": "rhf"
			},
			{
				"type": "unocc",
				"energy": 0.02287,
				"method": "rhf"
			}
		],
		"cosmo_sigma_profile": { 
			"-0.025": 0.0,
			"-0.024": 0.0,
			"-0.023": 0.0,
			"-0.022": 0.0,
			"-0.021": 0.0,
			"-0.02": 0.0,
			"-0.019": 0.0,
			"-0.018": 0.0,
			"-0.017": 0.0,
			"-0.016": 0.0,
			"-0.015": 0.0,
			"-0.014": 0.0,
			"-0.013": 0.513734486022,
			"-0.012": 2.10630724921,
			"-0.011": 2.11833684744,
			"-0.01": 1.86031132489,
			"-0.009": 2.35140180052,
			"-0.008": 2.83239771222,
			"-0.007": 5.92821037229,
			"-0.006": 13.2235040757,
			"-0.005": 16.7003083553,
			"-0.004": 16.7386464018,
			"-0.003": 16.6336335641,
			"-0.002": 19.9619175078,
			"-0.001": 20.2369446088,
			"0.0": 19.6365389132,
			"0.001": 19.1756569888,
			"0.002": 17.3975310681,
			"0.003": 17.9474149262,
			"0.004": 18.9525374896,
			"0.005": 11.3263094933,
			"0.006": 6.99439945504,
			"0.007": 6.23678085055,
			"0.008": 3.73881925326,
			"0.009": 3.19930669717,
			"0.01": 3.31891047933,
			"0.011": 2.70475939447,
			"0.012": 2.51223249748,
			"0.013": 1.45043102195,
			"0.014": 0.0249273944617,
			"0.015": 0.0,
			"0.016": 0.0,
			"0.017": 0.0,
			"0.018": 0.0,
			"0.019": 0.0,
			"0.02": 0.0,
			"0.021": 0.0,
			"0.022": 0.0,
			"0.023": 0.0,
			"0.024": 0.0,
			"0.025": 0.0
		}
	}
}
