{
	 "smiles": "ClC1=CC(CBr)=C(Cl)C=C1", 
	 "Tm": 314.15, 
	 "num_atms": 15, 
	 "gaussian": { 
		 "optdone": 1, 
		 "sigma_profile": "yes", 
		 "theory": "DFT", 
		 "functional": "B3LYP", 
		 "basiset": "6-31G**", 
		 "properties": { 
			 "R2extent": 4462.7969, 
			 "electric_dipole_moment_norm": 1.93562407766, 
			 "electric_quadrupole_moment_norm": 10.484613154, 
			 "total_energy": -3761.5516232, 
			 "HOMO_LUMO_gap": 0.19724, 
			 "cosmo_polarized_energy": -6.53, 
			 "cosmo_cavitation_energy": 25.06, 
			 "cosmo_dispersion_energy": -18.81, 
			 "cosmo_repulsion_energy": 1.53, 
			 "cosmo_total_nonelectrostatic_energy": 7.79, 
			 "SMD_solvation_energy": 2.5 
		},
		"coords": [
			{
				"x": -0.4860371248,
				"y": -1.5767199181,
				"z": 3.6282532504,
				"element": "Cl" 
			},
			{
				"x": -0.1381538365,
				"y": -0.5147230238,
				"z": 2.2762127939,
				"element": "C" 
			},
			{
				"x": -1.1850736827,
				"y": -0.033166547,
				"z": 1.4972302895,
				"element": "C" 
			},
			{
				"x": -0.936680255,
				"y": 0.8145163012,
				"z": 0.4076229499,
				"element": "C" 
			},
			{
				"x": -2.0841395128,
				"y": 1.3010086998,
				"z": -0.4161979649,
				"element": "C" 
			},
			{
				"x": -2.7776711103,
				"y": 3.0602069983,
				"z": 0.232721983,
				"element": "Br" 
			},
			{
				"x": 0.3976462241,
				"y": 1.1587660223,
				"z": 0.1348755329,
				"element": "C" 
			},
			{
				"x": 0.7893232151,
				"y": 2.216911835,
				"z": -1.2095055984,
				"element": "Cl" 
			},
			{
				"x": 1.4458998335,
				"y": 0.6736701604,
				"z": 0.9162842645,
				"element": "C" 
			},
			{
				"x": 1.1828503509,
				"y": -0.1676430917,
				"z": 1.9947868611,
				"element": "C" 
			},
			{
				"x": -2.2065040863,
				"y": -0.3101652173,
				"z": 1.7356385591,
				"element": "H" 
			},
			{
				"x": -2.9384730645,
				"y": 0.6304746138,
				"z": -0.3544902018,
				"element": "H" 
			},
			{
				"x": -1.8145039208,
				"y": 1.478146397,
				"z": -1.4540533565,
				"element": "H" 
			},
			{
				"x": 2.4656621283,
				"y": 0.9549697799,
				"z": 0.6790472339,
				"element": "H" 
			},
			{
				"x": 1.9926548417,
				"y": -0.54865301,
				"z": 2.6064734035,
				"element": "H" 
			}
		],
		 "valence_orbital": [ 
			{
				"type": "occ",
				"energy": -0.32454,
				"method": "rhf"
			},
			{
				"type": "occ",
				"energy": -0.28615,
				"method": "rhf"
			},
			{
				"type": "occ",
				"energy": -0.27638,
				"method": "rhf"
			},
			{
				"type": "occ",
				"energy": -0.27208,
				"method": "rhf"
			},
			{
				"type": "occ",
				"energy": -0.25325,
				"method": "rhf"
			},
			{
				"type": "unocc",
				"energy": -0.05601,
				"method": "rhf"
			},
			{
				"type": "unocc",
				"energy": -0.03338,
				"method": "rhf"
			},
			{
				"type": "unocc",
				"energy": 0.0077,
				"method": "rhf"
			},
			{
				"type": "unocc",
				"energy": 0.01549,
				"method": "rhf"
			},
			{
				"type": "unocc",
				"energy": 0.02838,
				"method": "rhf"
			}
		],
		"cosmo_sigma_profile": { 
			"-0.025": 0.0,
			"-0.024": 0.0,
			"-0.023": 0.0,
			"-0.022": 0.0,
			"-0.021": 0.0,
			"-0.02": 0.0,
			"-0.019": 0.0,
			"-0.018": 0.0,
			"-0.017": 0.0,
			"-0.016": 0.0,
			"-0.015": 0.0,
			"-0.014": 0.0,
			"-0.013": 0.0,
			"-0.012": 0.0,
			"-0.011": 0.0,
			"-0.01": 0.414987463063,
			"-0.009": 3.04903620466,
			"-0.008": 7.85645912714,
			"-0.007": 8.28881918966,
			"-0.006": 8.75445558608,
			"-0.005": 8.08030016808,
			"-0.004": 8.27262348522,
			"-0.003": 8.5288469579,
			"-0.002": 12.2334062756,
			"-0.001": 13.0828838266,
			"0.0": 19.1961498195,
			"0.001": 25.6425531305,
			"0.002": 22.3729742864,
			"0.003": 18.6129779801,
			"0.004": 21.3142367949,
			"0.005": 12.0160865957,
			"0.006": 10.7202896019,
			"0.007": 0.478949248183,
			"0.008": 0.0,
			"0.009": 0.0,
			"0.01": 0.0,
			"0.011": 0.0,
			"0.012": 0.0,
			"0.013": 0.0,
			"0.014": 0.0,
			"0.015": 0.0,
			"0.016": 0.0,
			"0.017": 0.0,
			"0.018": 0.0,
			"0.019": 0.0,
			"0.02": 0.0,
			"0.021": 0.0,
			"0.022": 0.0,
			"0.023": 0.0,
			"0.024": 0.0,
			"0.025": 0.0
		}
	}
}
