{
	 "smiles": "CC1=C(C)C=C(C=C1)C(=O)NCC(O)=O", 
	 "Tm": 434.15, 
	 "num_atms": 28, 
	 "gaussian": { 
		 "optdone": 1, 
		 "sigma_profile": "yes", 
		 "theory": "DFT", 
		 "functional": "B3LYP", 
		 "basiset": "6-31G**", 
		 "properties": { 
			 "R2extent": 5033.8242, 
			 "electric_dipole_moment_norm": 7.63717881158, 
			 "electric_quadrupole_moment_norm": 27.6444715015, 
			 "total_energy": -707.476234007, 
			 "HOMO_LUMO_gap": 0.19335, 
			 "cosmo_polarized_energy": -18.01, 
			 "cosmo_cavitation_energy": 31.71, 
			 "cosmo_dispersion_energy": -23.17, 
			 "cosmo_repulsion_energy": 1.81, 
			 "cosmo_total_nonelectrostatic_energy": 10.34, 
			 "SMD_solvation_energy": 6.44 
		},
		"coords": [
			{
				"x": 3.0598009005,
				"y": -1.9275433411,
				"z": -1.7926502463,
				"element": "C" 
			},
			{
				"x": 2.0110819354,
				"y": -1.2178595868,
				"z": -0.9727867769,
				"element": "C" 
			},
			{
				"x": 1.3104325048,
				"y": -0.1072128443,
				"z": -1.4958099435,
				"element": "C" 
			},
			{
				"x": 1.5917449576,
				"y": 0.3996059533,
				"z": -2.8899479598,
				"element": "C" 
			},
			{
				"x": 0.3455219522,
				"y": 0.5178637269,
				"z": -0.7054584413,
				"element": "C" 
			},
			{
				"x": 0.0619901963,
				"y": 0.0842053016,
				"z": 0.5965699098,
				"element": "C" 
			},
			{
				"x": 0.7516166733,
				"y": -1.0231396325,
				"z": 1.1048238142,
				"element": "C" 
			},
			{
				"x": 1.7110151106,
				"y": -1.6594151574,
				"z": 0.3213175748,
				"element": "C" 
			},
			{
				"x": -0.9841640848,
				"y": 0.8308954483,
				"z": 1.3555398394,
				"element": "C" 
			},
			{
				"x": -1.7820907857,
				"y": 1.5939224215,
				"z": 0.7831637106,
				"element": "O" 
			},
			{
				"x": -1.036409328,
				"y": 0.6636828594,
				"z": 2.7032108249,
				"element": "N" 
			},
			{
				"x": -1.9141734837,
				"y": 1.4711814968,
				"z": 3.5489668419,
				"element": "C" 
			},
			{
				"x": -3.4027241476,
				"y": 1.0726642305,
				"z": 3.4887436505,
				"element": "C" 
			},
			{
				"x": -3.9635720622,
				"y": 1.1370968121,
				"z": 2.2764694774,
				"element": "O" 
			},
			{
				"x": -4.0189404117,
				"y": 0.7570951347,
				"z": 4.4796701045,
				"element": "O" 
			},
			{
				"x": 2.6401048945,
				"y": -2.3264478369,
				"z": -2.7238844798,
				"element": "H" 
			},
			{
				"x": 3.8721666293,
				"y": -1.2492436639,
				"z": -2.0799789754,
				"element": "H" 
			},
			{
				"x": 3.4990502904,
				"y": -2.7610964813,
				"z": -1.2391224025,
				"element": "H" 
			},
			{
				"x": 1.4108260091,
				"y": -0.37499611,
				"z": -3.6447244052,
				"element": "H" 
			},
			{
				"x": 0.9582022593,
				"y": 1.2561644956,
				"z": -3.131819074,
				"element": "H" 
			},
			{
				"x": 2.6368120941,
				"y": 0.7122756866,
				"z": -3.00296669,
				"element": "H" 
			},
			{
				"x": -0.2123324754,
				"y": 1.3649147466,
				"z": -1.0913796518,
				"element": "H" 
			},
			{
				"x": 0.5289436985,
				"y": -1.4271978197,
				"z": 2.0886409349,
				"element": "H" 
			},
			{
				"x": 2.2348730569,
				"y": -2.5243486099,
				"z": 0.7192940399,
				"element": "H" 
			},
			{
				"x": -0.3388870517,
				"y": 0.0966900383,
				"z": 3.1580750086,
				"element": "H" 
			},
			{
				"x": -1.8240776357,
				"y": 2.5240233212,
				"z": 3.2523185793,
				"element": "H" 
			},
			{
				"x": -1.5922148001,
				"y": 1.3642813194,
				"z": 4.5838055325,
				"element": "H" 
			},
			{
				"x": -3.2901968962,
				"y": 1.4247380909,
				"z": 1.6101192032,
				"element": "H" 
			}
		],
		 "valence_orbital": [ 
			{
				"type": "occ",
				"energy": -0.29337,
				"method": "rhf"
			},
			{
				"type": "occ",
				"energy": -0.28282,
				"method": "rhf"
			},
			{
				"type": "occ",
				"energy": -0.26282,
				"method": "rhf"
			},
			{
				"type": "occ",
				"energy": -0.2597,
				"method": "rhf"
			},
			{
				"type": "occ",
				"energy": -0.24681,
				"method": "rhf"
			},
			{
				"type": "unocc",
				"energy": -0.05346,
				"method": "rhf"
			},
			{
				"type": "unocc",
				"energy": -0.01645,
				"method": "rhf"
			},
			{
				"type": "unocc",
				"energy": 0.01708,
				"method": "rhf"
			},
			{
				"type": "unocc",
				"energy": 0.03916,
				"method": "rhf"
			},
			{
				"type": "unocc",
				"energy": 0.05736,
				"method": "rhf"
			}
		],
		"cosmo_sigma_profile": { 
			"-0.025": 0.0,
			"-0.024": 0.0,
			"-0.023": 0.0,
			"-0.022": 0.0,
			"-0.021": 0.0,
			"-0.02": 0.0,
			"-0.019": 0.0,
			"-0.018": 0.0,
			"-0.017": 0.0,
			"-0.016": 0.702217618335,
			"-0.015": 1.44318113823,
			"-0.014": 1.7555209171,
			"-0.013": 1.17116079401,
			"-0.012": 1.45883159709,
			"-0.011": 1.10362940267,
			"-0.01": 1.67208229142,
			"-0.009": 2.07192204615,
			"-0.008": 5.01540839404,
			"-0.007": 5.25994293783,
			"-0.006": 6.9064766369,
			"-0.005": 14.7818899134,
			"-0.004": 24.2158849619,
			"-0.003": 19.9255062507,
			"-0.002": 23.7864590113,
			"-0.001": 20.3175697757,
			"0.0": 23.8314979621,
			"0.001": 14.5259110083,
			"0.002": 10.1444626742,
			"0.003": 10.8695257139,
			"0.004": 13.6098835867,
			"0.005": 6.47039006029,
			"0.006": 3.88491685933,
			"0.007": 3.82545202232,
			"0.008": 3.81998321748,
			"0.009": 4.16954206844,
			"0.01": 5.88160838807,
			"0.011": 7.53540879122,
			"0.012": 7.9102335261,
			"0.013": 2.85828308106,
			"0.014": 0.251322842795,
			"0.015": 0.0,
			"0.016": 0.0,
			"0.017": 0.0,
			"0.018": 0.0,
			"0.019": 0.0,
			"0.02": 0.0,
			"0.021": 0.0,
			"0.022": 0.0,
			"0.023": 0.0,
			"0.024": 0.0,
			"0.025": 0.0
		}
	}
}
