{
	 "smiles": "COC1=C(C=C(C)C=C1)C1=NN=C(S)N1N", 
	 "Tm": 521.15, 
	 "num_atms": 28, 
	 "gaussian": { 
		 "optdone": 1, 
		 "sigma_profile": "yes", 
		 "theory": "DFT", 
		 "functional": "B3LYP", 
		 "basiset": "6-31G**", 
		 "properties": { 
			 "R2extent": 5413.7876, 
			 "electric_dipole_moment_norm": 6.26855451121, 
			 "electric_quadrupole_moment_norm": 8.03700081809, 
			 "total_energy": -1080.65072384, 
			 "HOMO_LUMO_gap": 0.18305, 
			 "cosmo_polarized_energy": -19.9, 
			 "cosmo_cavitation_energy": 33.61, 
			 "cosmo_dispersion_energy": -24.59, 
			 "cosmo_repulsion_energy": 1.89, 
			 "cosmo_total_nonelectrostatic_energy": 10.91, 
			 "SMD_solvation_energy": 4.41 
		},
		"coords": [
			{
				"x": -1.1986932689,
				"y": 0.6316054386,
				"z": -1.963479244,
				"element": "C" 
			},
			{
				"x": -0.4566783145,
				"y": -0.1095665585,
				"z": -1.0000663683,
				"element": "O" 
			},
			{
				"x": -1.0505324142,
				"y": -0.3910815077,
				"z": 0.2085144989,
				"element": "C" 
			},
			{
				"x": -0.2127231031,
				"y": -0.8940961534,
				"z": 1.2296549187,
				"element": "C" 
			},
			{
				"x": -0.7697167162,
				"y": -1.1431203196,
				"z": 2.4898839845,
				"element": "C" 
			},
			{
				"x": -2.1251898678,
				"y": -0.9312532633,
				"z": 2.7669089996,
				"element": "C" 
			},
			{
				"x": -2.6824116897,
				"y": -1.1986464619,
				"z": 4.1453781744,
				"element": "C" 
			},
			{
				"x": -2.9316252656,
				"y": -0.4584464125,
				"z": 1.7293209428,
				"element": "C" 
			},
			{
				"x": -2.407271414,
				"y": -0.186780275,
				"z": 0.4630833995,
				"element": "C" 
			},
			{
				"x": 1.2349928357,
				"y": -1.0949663782,
				"z": 1.0660121523,
				"element": "C" 
			},
			{
				"x": 2.1436066276,
				"y": -0.7417956159,
				"z": 1.9503592061,
				"element": "N" 
			},
			{
				"x": 3.3857405341,
				"y": -1.1360751586,
				"z": 1.4825985437,
				"element": "N" 
			},
			{
				"x": 3.1894306075,
				"y": -1.7183712107,
				"z": 0.3226532238,
				"element": "C" 
			},
			{
				"x": 4.3973896701,
				"y": -2.4288318608,
				"z": -0.7467173277,
				"element": "S" 
			},
			{
				"x": 1.8598782916,
				"y": -1.7290160855,
				"z": 0.0042058385,
				"element": "N" 
			},
			{
				"x": 1.3379242392,
				"y": -2.3563230889,
				"z": -1.1336135805,
				"element": "N" 
			},
			{
				"x": -1.5630516572,
				"y": 1.5741699864,
				"z": -1.5397658464,
				"element": "H" 
			},
			{
				"x": -0.5043916737,
				"y": 0.8435890924,
				"z": -2.777722944,
				"element": "H" 
			},
			{
				"x": -2.0476989922,
				"y": 0.056253943,
				"z": -2.3529577374,
				"element": "H" 
			},
			{
				"x": -0.103982896,
				"y": -1.5044048913,
				"z": 3.2677907599,
				"element": "H" 
			},
			{
				"x": -3.7738287054,
				"y": -1.130090941,
				"z": 4.1538901336,
				"element": "H" 
			},
			{
				"x": -2.2986285584,
				"y": -0.4769511109,
				"z": 4.8760680632,
				"element": "H" 
			},
			{
				"x": -2.40552351,
				"y": -2.1960048434,
				"z": 4.5035038312,
				"element": "H" 
			},
			{
				"x": -3.9913035788,
				"y": -0.2918204284,
				"z": 1.9047397198,
				"element": "H" 
			},
			{
				"x": -3.0628239309,
				"y": 0.1917978696,
				"z": -0.3118831572,
				"element": "H" 
			},
			{
				"x": 5.4038902873,
				"y": -2.1155952576,
				"z": 0.0925580869,
				"element": "H" 
			},
			{
				"x": 0.7147456461,
				"y": -1.6866290801,
				"z": -1.5811046008,
				"element": "H" 
			},
			{
				"x": 0.7888768175,
				"y": -3.1609494267,
				"z": -0.836213671,
				"element": "H" 
			}
		],
		 "valence_orbital": [ 
			{
				"type": "occ",
				"energy": -0.28302,
				"method": "rhf"
			},
			{
				"type": "occ",
				"energy": -0.26346,
				"method": "rhf"
			},
			{
				"type": "occ",
				"energy": -0.24218,
				"method": "rhf"
			},
			{
				"type": "occ",
				"energy": -0.23382,
				"method": "rhf"
			},
			{
				"type": "occ",
				"energy": -0.21227,
				"method": "rhf"
			},
			{
				"type": "unocc",
				"energy": -0.02922,
				"method": "rhf"
			},
			{
				"type": "unocc",
				"energy": -0.00315,
				"method": "rhf"
			},
			{
				"type": "unocc",
				"energy": 0.02479,
				"method": "rhf"
			},
			{
				"type": "unocc",
				"energy": 0.03709,
				"method": "rhf"
			},
			{
				"type": "unocc",
				"energy": 0.05486,
				"method": "rhf"
			}
		],
		"cosmo_sigma_profile": { 
			"-0.025": 0.0,
			"-0.024": 0.0,
			"-0.023": 0.0,
			"-0.022": 0.0,
			"-0.021": 0.0,
			"-0.02": 0.0,
			"-0.019": 0.0,
			"-0.018": 0.0,
			"-0.017": 0.0,
			"-0.016": 0.0,
			"-0.015": 0.0,
			"-0.014": 0.518641288521,
			"-0.013": 1.89232300214,
			"-0.012": 2.08106109344,
			"-0.011": 3.15309784248,
			"-0.01": 3.13058902849,
			"-0.009": 3.33218231563,
			"-0.008": 3.68222754736,
			"-0.007": 5.58279575123,
			"-0.006": 13.9579551427,
			"-0.005": 19.4619501115,
			"-0.004": 24.0771917571,
			"-0.003": 21.1696510158,
			"-0.002": 18.3115284721,
			"-0.001": 16.9471361623,
			"0.0": 19.83695841,
			"0.001": 15.6899626149,
			"0.002": 15.0365610721,
			"0.003": 14.7444309358,
			"0.004": 15.9378736814,
			"0.005": 13.0047946442,
			"0.006": 7.28853108292,
			"0.007": 4.9765037318,
			"0.008": 2.45244590379,
			"0.009": 3.26257547127,
			"0.01": 3.35955197112,
			"0.011": 2.18244792444,
			"0.012": 3.23290835625,
			"0.013": 3.04788005319,
			"0.014": 3.31060237364,
			"0.015": 2.6510022179,
			"0.016": 2.07729935516,
			"0.017": 0.673663211412,
			"0.018": 0.0,
			"0.019": 0.0,
			"0.02": 0.0,
			"0.021": 0.0,
			"0.022": 0.0,
			"0.023": 0.0,
			"0.024": 0.0,
			"0.025": 0.0
		}
	}
}
