{
	 "smiles": "ON=C(/C(=C(O)C1=CC=CC=C1[N+]([O-])=O)/C1=CC=CC=C1)C1=CC=CC=C1", 
	 "Tm": 437.15, 
	 "num_atms": 43, 
	 "gaussian": { 
		 "optdone": 1, 
		 "sigma_profile": "yes", 
		 "theory": "DFT", 
		 "functional": "B3LYP", 
		 "basiset": "6-31G**", 
		 "properties": { 
			 "R2extent": 9204.0399, 
			 "electric_dipole_moment_norm": 4.52268826253, 
			 "electric_quadrupole_moment_norm": 20.905735426, 
			 "total_energy": -1220.09997409, 
			 "HOMO_LUMO_gap": 0.13097, 
			 "cosmo_polarized_energy": -18.2, 
			 "cosmo_cavitation_energy": 47.85, 
			 "cosmo_dispersion_energy": -31.03, 
			 "cosmo_repulsion_energy": 2.39, 
			 "cosmo_total_nonelectrostatic_energy": 19.2, 
			 "SMD_solvation_energy": 10.01 
		},
		"coords": [
			{
				"x": 1.8989594486,
				"y": -0.4481436295,
				"z": -2.9359440152,
				"element": "O" 
			},
			{
				"x": 1.8177829594,
				"y": -1.4059220935,
				"z": -1.8798971572,
				"element": "N" 
			},
			{
				"x": 1.2391717002,
				"y": -0.9310359108,
				"z": -0.8240551264,
				"element": "C" 
			},
			{
				"x": 0.6396716878,
				"y": 0.4154739987,
				"z": -0.6215586639,
				"element": "C" 
			},
			{
				"x": -0.192593967,
				"y": 0.9894240005,
				"z": -1.5349693006,
				"element": "C" 
			},
			{
				"x": -0.5294595507,
				"y": 0.4565947125,
				"z": -2.7285760928,
				"element": "O" 
			},
			{
				"x": -0.8144400385,
				"y": 2.3409296952,
				"z": -1.3747488193,
				"element": "C" 
			},
			{
				"x": 0.0121043776,
				"y": 3.4719517163,
				"z": -1.3458926376,
				"element": "C" 
			},
			{
				"x": -0.5203164181,
				"y": 4.7607279388,
				"z": -1.3491348834,
				"element": "C" 
			},
			{
				"x": -1.9021153536,
				"y": 4.9518821185,
				"z": -1.4037441111,
				"element": "C" 
			},
			{
				"x": -2.7477997865,
				"y": 3.8471943572,
				"z": -1.4441124291,
				"element": "C" 
			},
			{
				"x": -2.1995490695,
				"y": 2.5657832829,
				"z": -1.4178734237,
				"element": "C" 
			},
			{
				"x": -3.1490022483,
				"y": 1.4409592542,
				"z": -1.3730367661,
				"element": "N" 
			},
			{
				"x": -2.7909435126,
				"y": 0.4101926859,
				"z": -0.8030025973,
				"element": "O" 
			},
			{
				"x": -4.2578171881,
				"y": 1.6138871293,
				"z": -1.875036588,
				"element": "O" 
			},
			{
				"x": 0.9305142301,
				"y": 1.0700380944,
				"z": 0.6902686111,
				"element": "C" 
			},
			{
				"x": 2.2620106204,
				"y": 1.2287085932,
				"z": 1.108626011,
				"element": "C" 
			},
			{
				"x": 2.5623744126,
				"y": 1.8334922843,
				"z": 2.3289992926,
				"element": "C" 
			},
			{
				"x": 1.5349970648,
				"y": 2.2895410796,
				"z": 3.157059606,
				"element": "C" 
			},
			{
				"x": 0.2064457241,
				"y": 2.1283911127,
				"z": 2.7581795997,
				"element": "C" 
			},
			{
				"x": -0.0935731966,
				"y": 1.5197915692,
				"z": 1.5400760357,
				"element": "C" 
			},
			{
				"x": 1.1796428948,
				"y": -1.915023951,
				"z": 0.2992331543,
				"element": "C" 
			},
			{
				"x": 0.01582431,
				"y": -2.0248033959,
				"z": 1.0749250717,
				"element": "C" 
			},
			{
				"x": -0.0650354251,
				"y": -2.9761799035,
				"z": 2.090645592,
				"element": "C" 
			},
			{
				"x": 1.0145654577,
				"y": -3.8237060449,
				"z": 2.3478076139,
				"element": "C" 
			},
			{
				"x": 2.1755208451,
				"y": -3.720705012,
				"z": 1.5782038521,
				"element": "C" 
			},
			{
				"x": 2.2576515621,
				"y": -2.7744224648,
				"z": 0.5583282845,
				"element": "C" 
			},
			{
				"x": 2.3252506377,
				"y": -0.9633969112,
				"z": -3.6345459817,
				"element": "H" 
			},
			{
				"x": 0.2293061993,
				"y": -0.0823259656,
				"z": -3.0438177831,
				"element": "H" 
			},
			{
				"x": 1.0864918634,
				"y": 3.3261258931,
				"z": -1.3274160672,
				"element": "H" 
			},
			{
				"x": 0.1476864015,
				"y": 5.6161864754,
				"z": -1.3201283806,
				"element": "H" 
			},
			{
				"x": -2.3207569927,
				"y": 5.9531016569,
				"z": -1.4121951428,
				"element": "H" 
			},
			{
				"x": -3.8248391312,
				"y": 3.9532760034,
				"z": -1.4857466322,
				"element": "H" 
			},
			{
				"x": 3.0656056219,
				"y": 0.8780793637,
				"z": 0.4665170264,
				"element": "H" 
			},
			{
				"x": 3.5992238186,
				"y": 1.9492581002,
				"z": 2.6322513549,
				"element": "H" 
			},
			{
				"x": 1.7672971537,
				"y": 2.759506817,
				"z": 4.1084374553,
				"element": "H" 
			},
			{
				"x": -0.6002791294,
				"y": 2.4666052688,
				"z": 3.4026338701,
				"element": "H" 
			},
			{
				"x": -1.1277415354,
				"y": 1.3724854921,
				"z": 1.2453436745,
				"element": "H" 
			},
			{
				"x": -0.8290690574,
				"y": -1.3766419523,
				"z": 0.8660291268,
				"element": "H" 
			},
			{
				"x": -0.9740649539,
				"y": -3.0570627363,
				"z": 2.6795537269,
				"element": "H" 
			},
			{
				"x": 0.9519118027,
				"y": -4.5600067095,
				"z": 3.144094451,
				"element": "H" 
			},
			{
				"x": 3.0195957201,
				"y": -4.3756886991,
				"z": 1.7748998118,
				"element": "H" 
			},
			{
				"x": 3.1555900405,
				"y": -2.6899233143,
				"z": -0.0444806233,
				"element": "H" 
			}
		],
		 "valence_orbital": [ 
			{
				"type": "occ",
				"energy": -0.26193,
				"method": "rhf"
			},
			{
				"type": "occ",
				"energy": -0.24964,
				"method": "rhf"
			},
			{
				"type": "occ",
				"energy": -0.2446,
				"method": "rhf"
			},
			{
				"type": "occ",
				"energy": -0.23345,
				"method": "rhf"
			},
			{
				"type": "occ",
				"energy": -0.21594,
				"method": "rhf"
			},
			{
				"type": "unocc",
				"energy": -0.08497,
				"method": "rhf"
			},
			{
				"type": "unocc",
				"energy": -0.04482,
				"method": "rhf"
			},
			{
				"type": "unocc",
				"energy": -0.02535,
				"method": "rhf"
			},
			{
				"type": "unocc",
				"energy": -0.01806,
				"method": "rhf"
			},
			{
				"type": "unocc",
				"energy": -0.00282,
				"method": "rhf"
			}
		],
		"cosmo_sigma_profile": { 
			"-0.025": 0.0,
			"-0.024": 0.0,
			"-0.023": 0.0,
			"-0.022": 0.0,
			"-0.021": 0.0,
			"-0.02": 0.0,
			"-0.019": 0.0563404908787,
			"-0.018": 1.44342890121,
			"-0.017": 0.494433490001,
			"-0.016": 1.10133367856,
			"-0.015": 0.98434621255,
			"-0.014": 0.932062635198,
			"-0.013": 0.445070165496,
			"-0.012": 0.805697934634,
			"-0.011": 0.684449537084,
			"-0.01": 1.10922366115,
			"-0.009": 2.2463793065,
			"-0.008": 3.5803182902,
			"-0.007": 9.41132297191,
			"-0.006": 20.426551592,
			"-0.005": 26.6323296376,
			"-0.004": 28.8384727525,
			"-0.003": 28.4390014071,
			"-0.002": 22.9110106869,
			"-0.001": 24.9671350063,
			"0.0": 26.5394523739,
			"0.001": 27.8996291149,
			"0.002": 31.8338266418,
			"0.003": 22.3421255248,
			"0.004": 23.0052507352,
			"0.005": 27.3139268433,
			"0.006": 16.3309923177,
			"0.007": 9.83321245499,
			"0.008": 10.8956151977,
			"0.009": 7.71005138316,
			"0.01": 2.7061411191,
			"0.011": 0.939825498224,
			"0.012": 0.542211408444,
			"0.013": 0.0842304091205,
			"0.014": 0.0,
			"0.015": 0.0,
			"0.016": 0.0,
			"0.017": 0.0,
			"0.018": 0.0,
			"0.019": 0.0,
			"0.02": 0.0,
			"0.021": 0.0,
			"0.022": 0.0,
			"0.023": 0.0,
			"0.024": 0.0,
			"0.025": 0.0
		}
	}
}
