{
	 "smiles": "CC(C)C1=NSC(N)=N1", 
	 "Tm": 393.15, 
	 "num_atms": 18, 
	 "gaussian": { 
		 "optdone": 1, 
		 "sigma_profile": "yes", 
		 "theory": "DFT", 
		 "functional": "B3LYP", 
		 "basiset": "6-31G**", 
		 "properties": { 
			 "R2extent": 1728.7071, 
			 "electric_dipole_moment_norm": 3.32787007258, 
			 "electric_quadrupole_moment_norm": 11.4382169012, 
			 "total_energy": -758.408096156, 
			 "HOMO_LUMO_gap": 0.21916, 
			 "cosmo_polarized_energy": -11.94, 
			 "cosmo_cavitation_energy": 23.05, 
			 "cosmo_dispersion_energy": -17.44, 
			 "cosmo_repulsion_energy": 1.42, 
			 "cosmo_total_nonelectrostatic_energy": 7.03, 
			 "SMD_solvation_energy": 1.3 
		},
		"coords": [
			{
				"x": -2.8568987933,
				"y": 0.6574555498,
				"z": -0.3733251356,
				"element": "C" 
			},
			{
				"x": -1.7192056796,
				"y": 1.6538449708,
				"z": -0.0858299904,
				"element": "C" 
			},
			{
				"x": -1.7864877512,
				"y": 2.8683045679,
				"z": -1.0292244077,
				"element": "C" 
			},
			{
				"x": -0.3752901421,
				"y": 0.9712624269,
				"z": -0.18830334,
				"element": "C" 
			},
			{
				"x": 0.4120304807,
				"y": 0.8992761418,
				"z": 0.8605992802,
				"element": "N" 
			},
			{
				"x": 1.8166976491,
				"y": 0.0698170424,
				"z": 0.390098484,
				"element": "S" 
			},
			{
				"x": 1.2059170711,
				"y": -0.1069365174,
				"z": -1.2514372555,
				"element": "C" 
			},
			{
				"x": 1.8629493686,
				"y": -0.7733282904,
				"z": -2.2435738369,
				"element": "N" 
			},
			{
				"x": 0.0203017165,
				"y": 0.429784178,
				"z": -1.3922671116,
				"element": "N" 
			},
			{
				"x": -3.8292870638,
				"y": 1.1525093244,
				"z": -0.2796452182,
				"element": "H" 
			},
			{
				"x": -2.7705849675,
				"y": 0.2570193563,
				"z": -1.3880590507,
				"element": "H" 
			},
			{
				"x": -2.8346138062,
				"y": -0.1832470442,
				"z": 0.3271426393,
				"element": "H" 
			},
			{
				"x": -1.804449361,
				"y": 2.0021727237,
				"z": 0.9488774281,
				"element": "H" 
			},
			{
				"x": -1.0042984239,
				"y": 3.5971669068,
				"z": -0.7945655889,
				"element": "H" 
			},
			{
				"x": -1.6587389417,
				"y": 2.5548039905,
				"z": -2.0698430137,
				"element": "H" 
			},
			{
				"x": -2.7561391958,
				"y": 3.3689059304,
				"z": -0.9368775037,
				"element": "H" 
			},
			{
				"x": 1.4882147015,
				"y": -0.6360202389,
				"z": -3.1717929795,
				"element": "H" 
			},
			{
				"x": 2.8645831385,
				"y": -0.8704910188,
				"z": -2.1842733991,
				"element": "H" 
			}
		],
		 "valence_orbital": [ 
			{
				"type": "occ",
				"energy": -0.32978,
				"method": "rhf"
			},
			{
				"type": "occ",
				"energy": -0.30443,
				"method": "rhf"
			},
			{
				"type": "occ",
				"energy": -0.27582,
				"method": "rhf"
			},
			{
				"type": "occ",
				"energy": -0.269,
				"method": "rhf"
			},
			{
				"type": "occ",
				"energy": -0.23108,
				"method": "rhf"
			},
			{
				"type": "unocc",
				"energy": -0.01192,
				"method": "rhf"
			},
			{
				"type": "unocc",
				"energy": -3e-05,
				"method": "rhf"
			},
			{
				"type": "unocc",
				"energy": 0.0565,
				"method": "rhf"
			},
			{
				"type": "unocc",
				"energy": 0.06686,
				"method": "rhf"
			},
			{
				"type": "unocc",
				"energy": 0.09178,
				"method": "rhf"
			}
		],
		"cosmo_sigma_profile": { 
			"-0.025": 0.0,
			"-0.024": 0.0,
			"-0.023": 0.0,
			"-0.022": 0.0,
			"-0.021": 0.0,
			"-0.02": 0.0,
			"-0.019": 0.0,
			"-0.018": 0.0,
			"-0.017": 0.0,
			"-0.016": 0.406446265219,
			"-0.015": 2.14586755164,
			"-0.014": 2.55158758783,
			"-0.013": 3.26165459844,
			"-0.012": 2.33626080494,
			"-0.011": 2.5030079022,
			"-0.01": 1.89962955237,
			"-0.009": 2.03751538446,
			"-0.008": 1.67592991003,
			"-0.007": 1.75366086105,
			"-0.006": 1.71384372235,
			"-0.005": 0.84547832217,
			"-0.004": 4.34536942394,
			"-0.003": 14.5352849076,
			"-0.002": 15.9948332752,
			"-0.001": 20.4036076321,
			"0.0": 21.9911973109,
			"0.001": 24.9764300572,
			"0.002": 10.4072839787,
			"0.003": 8.8313404641,
			"0.004": 9.81007910716,
			"0.005": 5.32555668059,
			"0.006": 4.01519841547,
			"0.007": 4.17665553228,
			"0.008": 2.76392182001,
			"0.009": 3.21389702396,
			"0.01": 1.75239828085,
			"0.011": 2.23719778354,
			"0.012": 1.6156876257,
			"0.013": 1.25088483379,
			"0.014": 1.68850265959,
			"0.015": 0.831364128938,
			"0.016": 0.26477647066,
			"0.017": 0.0,
			"0.018": 0.0,
			"0.019": 0.0,
			"0.02": 0.0,
			"0.021": 0.0,
			"0.022": 0.0,
			"0.023": 0.0,
			"0.024": 0.0,
			"0.025": 0.0
		}
	}
}
