{
	 "smiles": "NS(=O)(=O)C1=CC=C(SCCO)C(=C1)[N+]([O-])=O", 
	 "Tm": 424.15, 
	 "num_atms": 27, 
	 "gaussian": { 
		 "optdone": 1, 
		 "sigma_profile": "yes", 
		 "theory": "DFT", 
		 "functional": "B3LYP", 
		 "basiset": "6-31G**", 
		 "properties": { 
			 "R2extent": 5810.1681, 
			 "electric_dipole_moment_norm": 5.61918814332, 
			 "electric_quadrupole_moment_norm": 18.457226047, 
			 "total_energy": -1592.68099049, 
			 "HOMO_LUMO_gap": 0.14139, 
			 "cosmo_polarized_energy": -25.4, 
			 "cosmo_cavitation_energy": 34.42, 
			 "cosmo_dispersion_energy": -25.21, 
			 "cosmo_repulsion_energy": 1.89, 
			 "cosmo_total_nonelectrostatic_energy": 11.1, 
			 "SMD_solvation_energy": 6.97 
		},
		"coords": [
			{
				"x": 3.7738714607,
				"y": 0.4069758383,
				"z": 2.706470295,
				"element": "N" 
			},
			{
				"x": 3.7027607408,
				"y": 0.730889011,
				"z": 1.0669537556,
				"element": "S" 
			},
			{
				"x": 3.9322187815,
				"y": 2.1666975121,
				"z": 0.9323437832,
				"element": "O" 
			},
			{
				"x": 4.5285287459,
				"y": -0.2857968057,
				"z": 0.4223096956,
				"element": "O" 
			},
			{
				"x": 2.0009636773,
				"y": 0.4288826126,
				"z": 0.5499596317,
				"element": "C" 
			},
			{
				"x": 1.0652475192,
				"y": 1.4660724754,
				"z": 0.5941730281,
				"element": "C" 
			},
			{
				"x": -0.2434821762,
				"y": 1.2232220894,
				"z": 0.1902497002,
				"element": "C" 
			},
			{
				"x": -0.6661319342,
				"y": -0.0529207453,
				"z": -0.2171415384,
				"element": "C" 
			},
			{
				"x": -2.319318975,
				"y": -0.2748049008,
				"z": -0.8674465962,
				"element": "S" 
			},
			{
				"x": -3.3632035201,
				"y": 0.0396481288,
				"z": 0.6243161873,
				"element": "C" 
			},
			{
				"x": -3.4982600336,
				"y": -1.1693441639,
				"z": 1.5545282148,
				"element": "C" 
			},
			{
				"x": -2.2722680601,
				"y": -1.5518194731,
				"z": 2.135810205,
				"element": "O" 
			},
			{
				"x": 0.3067305547,
				"y": -1.0665435374,
				"z": -0.2395579139,
				"element": "C" 
			},
			{
				"x": 1.6387154382,
				"y": -0.8362499952,
				"z": 0.1007201202,
				"element": "C" 
			},
			{
				"x": -0.0161418775,
				"y": -2.4599724593,
				"z": -0.6041187066,
				"element": "N" 
			},
			{
				"x": 0.7146910878,
				"y": -3.007966118,
				"z": -1.4182313858,
				"element": "O" 
			},
			{
				"x": -0.9634279922,
				"y": -3.0049589371,
				"z": -0.0305249334,
				"element": "O" 
			},
			{
				"x": 3.2388582451,
				"y": 1.0500545623,
				"z": 3.2799627455,
				"element": "H" 
			},
			{
				"x": 3.6417106571,
				"y": -0.5708790929,
				"z": 2.9413395461,
				"element": "H" 
			},
			{
				"x": 1.3780240707,
				"y": 2.4605594661,
				"z": 0.8942124185,
				"element": "H" 
			},
			{
				"x": -0.9568263704,
				"y": 2.0401335835,
				"z": 0.1620081585,
				"element": "H" 
			},
			{
				"x": -4.3381039695,
				"y": 0.3292434058,
				"z": 0.2178591834,
				"element": "H" 
			},
			{
				"x": -2.9495165134,
				"y": 0.8970785042,
				"z": 1.1616468807,
				"element": "H" 
			},
			{
				"x": -4.1717164284,
				"y": -0.8840838167,
				"z": 2.3738481371,
				"element": "H" 
			},
			{
				"x": -3.9735721323,
				"y": -1.9982800408,
				"z": 1.0111631197,
				"element": "H" 
			},
			{
				"x": -1.8092536322,
				"y": -2.1130310608,
				"z": 1.4930151653,
				"element": "H" 
			},
			{
				"x": 2.371202636,
				"y": -1.6307060425,
				"z": 0.0139311028,
				"element": "H" 
			}
		],
		 "valence_orbital": [ 
			{
				"type": "occ",
				"energy": -0.31872,
				"method": "rhf"
			},
			{
				"type": "occ",
				"energy": -0.2992,
				"method": "rhf"
			},
			{
				"type": "occ",
				"energy": -0.29416,
				"method": "rhf"
			},
			{
				"type": "occ",
				"energy": -0.28091,
				"method": "rhf"
			},
			{
				"type": "occ",
				"energy": -0.24855,
				"method": "rhf"
			},
			{
				"type": "unocc",
				"energy": -0.10716,
				"method": "rhf"
			},
			{
				"type": "unocc",
				"energy": -0.07237,
				"method": "rhf"
			},
			{
				"type": "unocc",
				"energy": -0.04725,
				"method": "rhf"
			},
			{
				"type": "unocc",
				"energy": 0.01357,
				"method": "rhf"
			},
			{
				"type": "unocc",
				"energy": 0.03131,
				"method": "rhf"
			}
		],
		"cosmo_sigma_profile": { 
			"-0.025": 0.0,
			"-0.024": 0.0,
			"-0.023": 0.0,
			"-0.022": 0.0,
			"-0.021": 0.0,
			"-0.02": 0.0,
			"-0.019": 0.0,
			"-0.018": 0.0,
			"-0.017": 0.0111890315215,
			"-0.016": 1.07787176175,
			"-0.015": 2.88811835052,
			"-0.014": 3.09118558056,
			"-0.013": 3.35056249966,
			"-0.012": 2.75092252909,
			"-0.011": 2.45906139716,
			"-0.01": 2.90501481996,
			"-0.009": 4.47788567663,
			"-0.008": 10.466320159,
			"-0.007": 12.5212170651,
			"-0.006": 11.2957764103,
			"-0.005": 15.1405008985,
			"-0.004": 18.8633605495,
			"-0.003": 16.8498671281,
			"-0.002": 17.5622427169,
			"-0.001": 16.8875105992,
			"0.0": 13.3345137073,
			"0.001": 9.68102881421,
			"0.002": 9.61595866201,
			"0.003": 9.54076296388,
			"0.004": 9.23416838621,
			"0.005": 10.8450330894,
			"0.006": 13.99841773,
			"0.007": 13.5787482597,
			"0.008": 9.56300961254,
			"0.009": 7.25016385214,
			"0.01": 10.1110793037,
			"0.011": 10.0009581754,
			"0.012": 2.21191228778,
			"0.013": 1.49627534061,
			"0.014": 1.8422670095,
			"0.015": 0.771744391116,
			"0.016": 0.0,
			"0.017": 0.0,
			"0.018": 0.0,
			"0.019": 0.0,
			"0.02": 0.0,
			"0.021": 0.0,
			"0.022": 0.0,
			"0.023": 0.0,
			"0.024": 0.0,
			"0.025": 0.0
		}
	}
}
