{
	 "smiles": "CC1=C(C)CCC1", 
	 "Tm": 182.95, 
	 "num_atms": 19, 
	 "gaussian": { 
		 "optdone": 1, 
		 "sigma_profile": "yes", 
		 "theory": "DFT", 
		 "functional": "B3LYP", 
		 "basiset": "6-31G**", 
		 "properties": { 
			 "R2extent": 962.1518, 
			 "electric_dipole_moment_norm": 0.15088793855, 
			 "electric_quadrupole_moment_norm": 0.737901856618, 
			 "total_energy": -273.979010923, 
			 "HOMO_LUMO_gap": 0.25358, 
			 "cosmo_polarized_energy": -1.15, 
			 "cosmo_cavitation_energy": 20.27, 
			 "cosmo_dispersion_energy": -15.25, 
			 "cosmo_repulsion_energy": 1.31, 
			 "cosmo_total_nonelectrostatic_energy": 6.33, 
			 "SMD_solvation_energy": 3.29 
		},
		"coords": [
			{
				"x": 1.0674443858,
				"y": -1.6631727551,
				"z": 0.9681843846,
				"element": "C" 
			},
			{
				"x": 0.0166672577,
				"y": -0.6980832478,
				"z": 0.5069017041,
				"element": "C" 
			},
			{
				"x": -1.1693470764,
				"y": -0.9646163705,
				"z": -0.0684156378,
				"element": "C" 
			},
			{
				"x": -1.7637274005,
				"y": -2.2993978374,
				"z": -0.4051657539,
				"element": "C" 
			},
			{
				"x": -1.9582673837,
				"y": 0.3064143194,
				"z": -0.3243910045,
				"element": "C" 
			},
			{
				"x": -0.9180290487,
				"y": 1.4338516528,
				"z": -0.1257781857,
				"element": "C" 
			},
			{
				"x": 0.2037290523,
				"y": 0.792256527,
				"z": 0.7243055485,
				"element": "C" 
			},
			{
				"x": 2.0277785031,
				"y": -1.4658587249,
				"z": 0.4734052727,
				"element": "H" 
			},
			{
				"x": 1.2488470584,
				"y": -1.5599656973,
				"z": 2.0467001608,
				"element": "H" 
			},
			{
				"x": 0.7994368196,
				"y": -2.7050221043,
				"z": 0.7743996489,
				"element": "H" 
			},
			{
				"x": -1.1046906175,
				"y": -3.1329224121,
				"z": -0.148770043,
				"element": "H" 
			},
			{
				"x": -2.7145376466,
				"y": -2.450357949,
				"z": 0.1239087512,
				"element": "H" 
			},
			{
				"x": -1.9924082894,
				"y": -2.3695296374,
				"z": -1.4769724595,
				"element": "H" 
			},
			{
				"x": -2.7921807987,
				"y": 0.3867682032,
				"z": 0.3906312041,
				"element": "H" 
			},
			{
				"x": -2.4144983102,
				"y": 0.3253697917,
				"z": -1.323017322,
				"element": "H" 
			},
			{
				"x": -0.5121373969,
				"y": 1.729130749,
				"z": -1.0993607032,
				"element": "H" 
			},
			{
				"x": -1.3422475463,
				"y": 2.3320158463,
				"z": 0.3327067168,
				"element": "H" 
			},
			{
				"x": 1.2039901515,
				"y": 1.1384829829,
				"z": 0.4321204131,
				"element": "H" 
			},
			{
				"x": 0.0994782865,
				"y": 1.0366366634,
				"z": 1.7932073048,
				"element": "H" 
			}
		],
		 "valence_orbital": [ 
			{
				"type": "occ",
				"energy": -0.33126,
				"method": "rhf"
			},
			{
				"type": "occ",
				"energy": -0.32768,
				"method": "rhf"
			},
			{
				"type": "occ",
				"energy": -0.32,
				"method": "rhf"
			},
			{
				"type": "occ",
				"energy": -0.31939,
				"method": "rhf"
			},
			{
				"type": "occ",
				"energy": -0.21387,
				"method": "rhf"
			},
			{
				"type": "unocc",
				"energy": 0.03971,
				"method": "rhf"
			},
			{
				"type": "unocc",
				"energy": 0.09433,
				"method": "rhf"
			},
			{
				"type": "unocc",
				"energy": 0.11172,
				"method": "rhf"
			},
			{
				"type": "unocc",
				"energy": 0.12671,
				"method": "rhf"
			},
			{
				"type": "unocc",
				"energy": 0.12912,
				"method": "rhf"
			}
		],
		"cosmo_sigma_profile": { 
			"-0.025": 0.0,
			"-0.024": 0.0,
			"-0.023": 0.0,
			"-0.022": 0.0,
			"-0.021": 0.0,
			"-0.02": 0.0,
			"-0.019": 0.0,
			"-0.018": 0.0,
			"-0.017": 0.0,
			"-0.016": 0.0,
			"-0.015": 0.0,
			"-0.014": 0.0,
			"-0.013": 0.0,
			"-0.012": 0.0,
			"-0.011": 0.0,
			"-0.01": 0.0,
			"-0.009": 0.0,
			"-0.008": 0.0,
			"-0.007": 0.0,
			"-0.006": 0.0,
			"-0.005": 0.514748804534,
			"-0.004": 3.04428255934,
			"-0.003": 10.6298087939,
			"-0.002": 22.2206375543,
			"-0.001": 29.8420180543,
			"0.0": 32.1394906977,
			"0.001": 31.3867054809,
			"0.002": 13.1569363445,
			"0.003": 4.83415705929,
			"0.004": 3.29628718366,
			"0.005": 2.99013752099,
			"0.006": 2.02133088728,
			"0.007": 1.03776399809,
			"0.008": 0.140587509093,
			"0.009": 0.0,
			"0.01": 0.0,
			"0.011": 0.0,
			"0.012": 0.0,
			"0.013": 0.0,
			"0.014": 0.0,
			"0.015": 0.0,
			"0.016": 0.0,
			"0.017": 0.0,
			"0.018": 0.0,
			"0.019": 0.0,
			"0.02": 0.0,
			"0.021": 0.0,
			"0.022": 0.0,
			"0.023": 0.0,
			"0.024": 0.0,
			"0.025": 0.0
		}
	}
}
