{
	 "smiles": "CCNC(=O)CC1=CC=C(N)C=C1", 
	 "Tm": 391.15, 
	 "num_atms": 27, 
	 "gaussian": { 
		 "optdone": 1, 
		 "sigma_profile": "yes", 
		 "theory": "DFT", 
		 "functional": "B3LYP", 
		 "basiset": "6-31G**", 
		 "properties": { 
			 "R2extent": 3215.6631, 
			 "electric_dipole_moment_norm": 5.52783781781, 
			 "electric_quadrupole_moment_norm": 5.86434248829, 
			 "total_energy": -574.259267686, 
			 "HOMO_LUMO_gap": 0.19742, 
			 "cosmo_polarized_energy": -15.68, 
			 "cosmo_cavitation_energy": 30.54, 
			 "cosmo_dispersion_energy": -21.42, 
			 "cosmo_repulsion_energy": 1.75, 
			 "cosmo_total_nonelectrostatic_energy": 10.87, 
			 "SMD_solvation_energy": 5.28 
		},
		"coords": [
			{
				"x": -3.2481372083,
				"y": 0.654361098,
				"z": -2.3737245395,
				"element": "C" 
			},
			{
				"x": -1.8503863512,
				"y": 1.2676002295,
				"z": -2.5011457774,
				"element": "C" 
			},
			{
				"x": -1.0106653887,
				"y": 1.0224683968,
				"z": -1.3379911486,
				"element": "N" 
			},
			{
				"x": -0.7814697164,
				"y": 1.9733308423,
				"z": -0.3881995433,
				"element": "C" 
			},
			{
				"x": -1.2150531222,
				"y": 3.1178357964,
				"z": -0.4590469417,
				"element": "O" 
			},
			{
				"x": 0.0945559994,
				"y": 1.544756116,
				"z": 0.8059461925,
				"element": "C" 
			},
			{
				"x": 0.5285795418,
				"y": 0.0997526753,
				"z": 0.8836459806,
				"element": "C" 
			},
			{
				"x": 1.724990423,
				"y": -0.3373666248,
				"z": 0.2949601835,
				"element": "C" 
			},
			{
				"x": 2.1215667507,
				"y": -1.6707961022,
				"z": 0.3473616248,
				"element": "C" 
			},
			{
				"x": 1.3262634488,
				"y": -2.6286041526,
				"z": 1.0002491099,
				"element": "C" 
			},
			{
				"x": 1.7476661907,
				"y": -3.9536030921,
				"z": 1.11191206,
				"element": "N" 
			},
			{
				"x": 0.1242898056,
				"y": -2.2013246378,
				"z": 1.5913103512,
				"element": "C" 
			},
			{
				"x": -0.2591690366,
				"y": -0.8646884336,
				"z": 1.5306113674,
				"element": "C" 
			},
			{
				"x": -3.8390350518,
				"y": 0.85592542,
				"z": -3.2737415952,
				"element": "H" 
			},
			{
				"x": -3.7755140546,
				"y": 1.0789156269,
				"z": -1.5145310307,
				"element": "H" 
			},
			{
				"x": -3.1978591522,
				"y": -0.4322933275,
				"z": -2.2413899015,
				"element": "H" 
			},
			{
				"x": -1.3433625694,
				"y": 0.8764786544,
				"z": -3.3918574103,
				"element": "H" 
			},
			{
				"x": -1.9201537339,
				"y": 2.3528395443,
				"z": -2.6033894643,
				"element": "H" 
			},
			{
				"x": -0.6566723196,
				"y": 0.0916882509,
				"z": -1.1700853528,
				"element": "H" 
			},
			{
				"x": 0.9654869311,
				"y": 2.209564005,
				"z": 0.7827167832,
				"element": "H" 
			},
			{
				"x": -0.4720546351,
				"y": 1.82981021,
				"z": 1.6987652492,
				"element": "H" 
			},
			{
				"x": 2.3629508787,
				"y": 0.3825751338,
				"z": -0.2125905117,
				"element": "H" 
			},
			{
				"x": 3.0602494819,
				"y": -1.9753225806,
				"z": -0.1093914863,
				"element": "H" 
			},
			{
				"x": 2.4026734413,
				"y": -4.26176597,
				"z": 0.4069173662,
				"element": "H" 
			},
			{
				"x": 1.0145124683,
				"y": -4.6303857552,
				"z": 1.2714974505,
				"element": "H" 
			},
			{
				"x": -0.5034471158,
				"y": -2.9221559733,
				"z": 2.1098125227,
				"element": "H" 
			},
			{
				"x": -1.1921059054,
				"y": -0.5621953498,
				"z": 2.0007784616,
				"element": "H" 
			}
		],
		 "valence_orbital": [ 
			{
				"type": "occ",
				"energy": -0.31017,
				"method": "rhf"
			},
			{
				"type": "occ",
				"energy": -0.25441,
				"method": "rhf"
			},
			{
				"type": "occ",
				"energy": -0.24023,
				"method": "rhf"
			},
			{
				"type": "occ",
				"energy": -0.23687,
				"method": "rhf"
			},
			{
				"type": "occ",
				"energy": -0.20289,
				"method": "rhf"
			},
			{
				"type": "unocc",
				"energy": -0.00547,
				"method": "rhf"
			},
			{
				"type": "unocc",
				"energy": 0.00806,
				"method": "rhf"
			},
			{
				"type": "unocc",
				"energy": 0.04486,
				"method": "rhf"
			},
			{
				"type": "unocc",
				"energy": 0.07507,
				"method": "rhf"
			},
			{
				"type": "unocc",
				"energy": 0.09617,
				"method": "rhf"
			}
		],
		"cosmo_sigma_profile": { 
			"-0.025": 0.0,
			"-0.024": 0.0,
			"-0.023": 0.0,
			"-0.022": 0.0,
			"-0.021": 0.0,
			"-0.02": 0.0,
			"-0.019": 0.0,
			"-0.018": 0.0,
			"-0.017": 0.0,
			"-0.016": 0.0,
			"-0.015": 0.0,
			"-0.014": 0.0,
			"-0.013": 0.309094136014,
			"-0.012": 2.36319115193,
			"-0.011": 3.43024556657,
			"-0.01": 3.54536763658,
			"-0.009": 3.41203754709,
			"-0.008": 3.75591279925,
			"-0.007": 4.23649332556,
			"-0.006": 6.26608935867,
			"-0.005": 17.4183583171,
			"-0.004": 18.8282962572,
			"-0.003": 22.8839798642,
			"-0.002": 21.7514272707,
			"-0.001": 19.524056747,
			"0.0": 19.0253928792,
			"0.001": 17.3058120511,
			"0.002": 11.0973073638,
			"0.003": 8.66968552208,
			"0.004": 9.75345977001,
			"0.005": 9.71539577407,
			"0.006": 8.48627422708,
			"0.007": 4.74214118538,
			"0.008": 2.0853060873,
			"0.009": 2.36832245004,
			"0.01": 1.70471656426,
			"0.011": 3.16755680792,
			"0.012": 1.57937225582,
			"0.013": 2.4028990513,
			"0.014": 5.56427588186,
			"0.015": 3.95829664673,
			"0.016": 0.645060936322,
			"0.017": 0.0,
			"0.018": 0.0,
			"0.019": 0.0,
			"0.02": 0.0,
			"0.021": 0.0,
			"0.022": 0.0,
			"0.023": 0.0,
			"0.024": 0.0,
			"0.025": 0.0
		}
	}
}
