{
	 "smiles": "CC1=CC(=CC(NN)=N1)C(F)(F)F", 
	 "Tm": 353.15, 
	 "num_atms": 21, 
	 "gaussian": { 
		 "optdone": 1, 
		 "sigma_profile": "yes", 
		 "theory": "DFT", 
		 "functional": "B3LYP", 
		 "basiset": "6-31G**", 
		 "properties": { 
			 "R2extent": 3030.0438, 
			 "electric_dipole_moment_norm": 1.44147953853, 
			 "electric_quadrupole_moment_norm": 6.92108724985, 
			 "total_energy": -735.326863654, 
			 "HOMO_LUMO_gap": 0.18216, 
			 "cosmo_polarized_energy": -8.63, 
			 "cosmo_cavitation_energy": 26.68, 
			 "cosmo_dispersion_energy": -19.03, 
			 "cosmo_repulsion_energy": 1.48, 
			 "cosmo_total_nonelectrostatic_energy": 9.13, 
			 "SMD_solvation_energy": 5.28 
		},
		"coords": [
			{
				"x": 0.9928359514,
				"y": -1.6355913914,
				"z": -1.9546283065,
				"element": "C" 
			},
			{
				"x": 0.89716152,
				"y": -0.6188476443,
				"z": -0.8460114471,
				"element": "C" 
			},
			{
				"x": -0.2522402745,
				"y": 0.1419220557,
				"z": -0.6504922577,
				"element": "C" 
			},
			{
				"x": -0.2606093336,
				"y": 1.0703740006,
				"z": 0.4019646996,
				"element": "C" 
			},
			{
				"x": 0.8464830453,
				"y": 1.207522999,
				"z": 1.2157397261,
				"element": "C" 
			},
			{
				"x": 1.9638251842,
				"y": 0.3836532486,
				"z": 0.9411081132,
				"element": "C" 
			},
			{
				"x": 3.0838868816,
				"y": 0.457126892,
				"z": 1.7457444916,
				"element": "N" 
			},
			{
				"x": 4.2966415808,
				"y": -0.1612604716,
				"z": 1.3764546104,
				"element": "N" 
			},
			{
				"x": 1.9887979813,
				"y": -0.4962684408,
				"z": -0.0646583105,
				"element": "N" 
			},
			{
				"x": -1.4792724055,
				"y": 1.9330608503,
				"z": 0.607977375,
				"element": "C" 
			},
			{
				"x": -1.4284024116,
				"y": 2.6276325924,
				"z": 1.7641385021,
				"element": "F" 
			},
			{
				"x": -2.6086663785,
				"y": 1.1920093497,
				"z": 0.6278601771,
				"element": "F" 
			},
			{
				"x": -1.6162458166,
				"y": 2.8300951029,
				"z": -0.3942592024,
				"element": "F" 
			},
			{
				"x": 0.0823089372,
				"y": -1.6646647126,
				"z": -2.5577520301,
				"element": "H" 
			},
			{
				"x": 1.8402831504,
				"y": -1.4055550287,
				"z": -2.6087371621,
				"element": "H" 
			},
			{
				"x": 1.1708216355,
				"y": -2.6336012588,
				"z": -1.5403915248,
				"element": "H" 
			},
			{
				"x": -1.1178756788,
				"y": 0.0201416526,
				"z": -1.2907845176,
				"element": "H" 
			},
			{
				"x": 0.8562922394,
				"y": 1.9123207545,
				"z": 2.0391618843,
				"element": "H" 
			},
			{
				"x": 3.2198998006,
				"y": 1.3132963484,
				"z": 2.2635525037,
				"element": "H" 
			},
			{
				"x": 4.3593679906,
				"y": -0.1449374615,
				"z": 0.3570655227,
				"element": "H" 
			},
			{
				"x": 4.218206401,
				"y": -1.1477294368,
				"z": 1.6196471529,
				"element": "H" 
			}
		],
		 "valence_orbital": [ 
			{
				"type": "occ",
				"energy": -0.31489,
				"method": "rhf"
			},
			{
				"type": "occ",
				"energy": -0.2881,
				"method": "rhf"
			},
			{
				"type": "occ",
				"energy": -0.27763,
				"method": "rhf"
			},
			{
				"type": "occ",
				"energy": -0.26486,
				"method": "rhf"
			},
			{
				"type": "occ",
				"energy": -0.21939,
				"method": "rhf"
			},
			{
				"type": "unocc",
				"energy": -0.03723,
				"method": "rhf"
			},
			{
				"type": "unocc",
				"energy": -0.00346,
				"method": "rhf"
			},
			{
				"type": "unocc",
				"energy": 0.08627,
				"method": "rhf"
			},
			{
				"type": "unocc",
				"energy": 0.09266,
				"method": "rhf"
			},
			{
				"type": "unocc",
				"energy": 0.1113,
				"method": "rhf"
			}
		],
		"cosmo_sigma_profile": { 
			"-0.025": 0.0,
			"-0.024": 0.0,
			"-0.023": 0.0,
			"-0.022": 0.0,
			"-0.021": 0.0,
			"-0.02": 0.0,
			"-0.019": 0.0,
			"-0.018": 0.0,
			"-0.017": 0.0,
			"-0.016": 0.0,
			"-0.015": 0.0,
			"-0.014": 0.678118487374,
			"-0.013": 1.37827196221,
			"-0.012": 1.66152462671,
			"-0.011": 1.50961765614,
			"-0.01": 2.71029904717,
			"-0.009": 3.50751400282,
			"-0.008": 4.12122630288,
			"-0.007": 3.99111724755,
			"-0.006": 5.97018486177,
			"-0.005": 8.13539016767,
			"-0.004": 10.0237552591,
			"-0.003": 11.9840322313,
			"-0.002": 13.4979125058,
			"-0.001": 15.2432003719,
			"0.0": 18.6452302049,
			"0.001": 17.7712204466,
			"0.002": 32.2684831712,
			"0.003": 34.709508284,
			"0.004": 3.87358302491,
			"0.005": 3.96346709869,
			"0.006": 3.23047733853,
			"0.007": 1.86109686644,
			"0.008": 2.0979536621,
			"0.009": 1.7275449079,
			"0.01": 1.35815811841,
			"0.011": 1.80049724192,
			"0.012": 1.25256973128,
			"0.013": 0.622894530959,
			"0.014": 0.592646955873,
			"0.015": 0.388210311908,
			"0.016": 0.758166949228,
			"0.017": 0.41769568066,
			"0.018": 0.0,
			"0.019": 0.0,
			"0.02": 0.0,
			"0.021": 0.0,
			"0.022": 0.0,
			"0.023": 0.0,
			"0.024": 0.0,
			"0.025": 0.0
		}
	}
}
