{
	 "smiles": "COC(=O)C(=O)CC(=O)C1=CC2=C(OCO2)C=C1", 
	 "Tm": 375.15, 
	 "num_atms": 28, 
	 "gaussian": { 
		 "optdone": 1, 
		 "sigma_profile": "yes", 
		 "theory": "DFT", 
		 "functional": "B3LYP", 
		 "basiset": "6-31G**", 
		 "properties": { 
			 "R2extent": 6016.9624, 
			 "electric_dipole_moment_norm": 2.09040222924, 
			 "electric_quadrupole_moment_norm": 20.9081618381, 
			 "total_energy": -914.604334893, 
			 "HOMO_LUMO_gap": 0.13805, 
			 "cosmo_polarized_energy": -16.37, 
			 "cosmo_cavitation_energy": 34.01, 
			 "cosmo_dispersion_energy": -24.21, 
			 "cosmo_repulsion_energy": 1.88, 
			 "cosmo_total_nonelectrostatic_energy": 11.68, 
			 "SMD_solvation_energy": 9.36 
		},
		"coords": [
			{
				"x": -2.7631193568,
				"y": 2.3137673622,
				"z": -3.432669028,
				"element": "C" 
			},
			{
				"x": -2.6957408436,
				"y": 1.423953858,
				"z": -2.3015208051,
				"element": "O" 
			},
			{
				"x": -1.7514786545,
				"y": 0.4719882154,
				"z": -2.3720402436,
				"element": "C" 
			},
			{
				"x": -0.9962313266,
				"y": 0.3029109943,
				"z": -3.2982537845,
				"element": "O" 
			},
			{
				"x": -1.7462021034,
				"y": -0.4162518713,
				"z": -1.1028622911,
				"element": "C" 
			},
			{
				"x": -1.2080170609,
				"y": -1.4996276704,
				"z": -1.16410342,
				"element": "O" 
			},
			{
				"x": -2.3813448567,
				"y": 0.1343958188,
				"z": 0.1644948036,
				"element": "C" 
			},
			{
				"x": -1.4552205918,
				"y": 1.1495666495,
				"z": 0.8788120295,
				"element": "C" 
			},
			{
				"x": -1.6614259765,
				"y": 2.3438765184,
				"z": 0.7322510316,
				"element": "O" 
			},
			{
				"x": -0.3489477037,
				"y": 0.6365391782,
				"z": 1.7310512742,
				"element": "C" 
			},
			{
				"x": -0.022093848,
				"y": -0.7419216967,
				"z": 1.8030234265,
				"element": "C" 
			},
			{
				"x": 1.0261512214,
				"y": -1.0879920106,
				"z": 2.6255786347,
				"element": "C" 
			},
			{
				"x": 1.7374833337,
				"y": -0.1422038642,
				"z": 3.365384332,
				"element": "C" 
			},
			{
				"x": 2.708171885,
				"y": -0.7606579444,
				"z": 4.0984776573,
				"element": "O" 
			},
			{
				"x": 2.6591666137,
				"y": -2.150704511,
				"z": 3.7340940057,
				"element": "C" 
			},
			{
				"x": 1.5322350165,
				"y": -2.3406857064,
				"z": 2.8750277869,
				"element": "O" 
			},
			{
				"x": 1.4356560735,
				"y": 1.2082614605,
				"z": 3.3117478728,
				"element": "C" 
			},
			{
				"x": 0.3783669143,
				"y": 1.5809930277,
				"z": 2.4750456974,
				"element": "C" 
			},
			{
				"x": -2.9751980281,
				"y": 1.7511515723,
				"z": -4.3449811456,
				"element": "H" 
			},
			{
				"x": -3.5690252466,
				"y": 3.0113149761,
				"z": -3.2095823,
				"element": "H" 
			},
			{
				"x": -1.8151139738,
				"y": 2.843139257,
				"z": -3.551276949,
				"element": "H" 
			},
			{
				"x": -2.6089268702,
				"y": -0.7106875727,
				"z": 0.8173014926,
				"element": "H" 
			},
			{
				"x": -3.2903955349,
				"y": 0.6822278439,
				"z": -0.0832607207,
				"element": "H" 
			},
			{
				"x": -0.5354595151,
				"y": -1.4930469293,
				"z": 1.2154459916,
				"element": "H" 
			},
			{
				"x": 3.5817092851,
				"y": -2.4172836282,
				"z": 3.2022055496,
				"element": "H" 
			},
			{
				"x": 2.5401486585,
				"y": -2.7569184473,
				"z": 4.6381820427,
				"element": "H" 
			},
			{
				"x": 1.9951490513,
				"y": 1.9343821162,
				"z": 3.8901534949,
				"element": "H" 
			},
			{
				"x": 0.0942034381,
				"y": 2.6230130041,
				"z": 2.3818735643,
				"element": "H" 
			}
		],
		 "valence_orbital": [ 
			{
				"type": "occ",
				"energy": -0.3032,
				"method": "rhf"
			},
			{
				"type": "occ",
				"energy": -0.26994,
				"method": "rhf"
			},
			{
				"type": "occ",
				"energy": -0.26192,
				"method": "rhf"
			},
			{
				"type": "occ",
				"energy": -0.25421,
				"method": "rhf"
			},
			{
				"type": "occ",
				"energy": -0.22085,
				"method": "rhf"
			},
			{
				"type": "unocc",
				"energy": -0.0828,
				"method": "rhf"
			},
			{
				"type": "unocc",
				"energy": -0.05401,
				"method": "rhf"
			},
			{
				"type": "unocc",
				"energy": -0.01025,
				"method": "rhf"
			},
			{
				"type": "unocc",
				"energy": 0.03801,
				"method": "rhf"
			},
			{
				"type": "unocc",
				"energy": 0.05411,
				"method": "rhf"
			}
		],
		"cosmo_sigma_profile": { 
			"-0.025": 0.0,
			"-0.024": 0.0,
			"-0.023": 0.0,
			"-0.022": 0.0,
			"-0.021": 0.0,
			"-0.02": 0.0,
			"-0.019": 0.0,
			"-0.018": 0.0,
			"-0.017": 0.0,
			"-0.016": 0.0,
			"-0.015": 0.0,
			"-0.014": 0.0,
			"-0.013": 0.0,
			"-0.012": 0.0,
			"-0.011": 0.0,
			"-0.01": 0.0680782491672,
			"-0.009": 1.05087971351,
			"-0.008": 9.98276439872,
			"-0.007": 18.941283648,
			"-0.006": 23.3430545471,
			"-0.005": 22.2042177484,
			"-0.004": 21.349512038,
			"-0.003": 13.8061744724,
			"-0.002": 14.0014111339,
			"-0.001": 13.2383003907,
			"0.0": 13.3061886719,
			"0.001": 19.5043453176,
			"0.002": 20.0737241354,
			"0.003": 13.1368670715,
			"0.004": 7.92212242875,
			"0.005": 6.09187838033,
			"0.006": 7.1780817708,
			"0.007": 8.19815953803,
			"0.008": 8.24703991003,
			"0.009": 9.56401475479,
			"0.01": 9.36330101004,
			"0.011": 7.88640584902,
			"0.012": 3.90308622458,
			"0.013": 0.151174536217,
			"0.014": 0.0,
			"0.015": 0.0,
			"0.016": 0.0,
			"0.017": 0.0,
			"0.018": 0.0,
			"0.019": 0.0,
			"0.02": 0.0,
			"0.021": 0.0,
			"0.022": 0.0,
			"0.023": 0.0,
			"0.024": 0.0,
			"0.025": 0.0
		}
	}
}
