{
	 "smiles": "O=CC1=CC=C(O1)SC1=NC=CC=C1", 
	 "Tm": 339.15, 
	 "num_atms": 21, 
	 "gaussian": { 
		 "optdone": 1, 
		 "sigma_profile": "yes", 
		 "theory": "DFT", 
		 "functional": "B3LYP", 
		 "basiset": "6-31G**", 
		 "properties": { 
			 "R2extent": 4799.6906, 
			 "electric_dipole_moment_norm": 3.83735163361, 
			 "electric_quadrupole_moment_norm": 23.5166955155, 
			 "total_energy": -988.618568908, 
			 "HOMO_LUMO_gap": 0.15839, 
			 "cosmo_polarized_energy": -13.75, 
			 "cosmo_cavitation_energy": 28.7, 
			 "cosmo_dispersion_energy": -20.9, 
			 "cosmo_repulsion_energy": 1.6, 
			 "cosmo_total_nonelectrostatic_energy": 9.41, 
			 "SMD_solvation_energy": 4.9 
		},
		"coords": [
			{
				"x": 1.4489079103,
				"y": 2.4596317717,
				"z": 1.1977015135,
				"element": "O" 
			},
			{
				"x": 2.2645393668,
				"y": 1.8994465729,
				"z": 0.4896179455,
				"element": "C" 
			},
			{
				"x": 1.9795774976,
				"y": 1.2960570168,
				"z": -0.806424401,
				"element": "C" 
			},
			{
				"x": 2.7897099388,
				"y": 0.59269537,
				"z": -1.6674518154,
				"element": "C" 
			},
			{
				"x": 1.9728051041,
				"y": 0.1981818918,
				"z": -2.758850673,
				"element": "C" 
			},
			{
				"x": 0.7165666481,
				"y": 0.696281197,
				"z": -2.5009903048,
				"element": "C" 
			},
			{
				"x": 0.7134114351,
				"y": 1.3743702329,
				"z": -1.3169535648,
				"element": "O" 
			},
			{
				"x": -0.7161160793,
				"y": 0.7059749784,
				"z": -3.5092412688,
				"element": "S" 
			},
			{
				"x": -1.9362437511,
				"y": -0.2370559077,
				"z": -2.5717634413,
				"element": "C" 
			},
			{
				"x": -3.0526738211,
				"y": -0.4076336954,
				"z": -3.2776573989,
				"element": "N" 
			},
			{
				"x": -4.0516199085,
				"y": -1.0921160498,
				"z": -2.7071658515,
				"element": "C" 
			},
			{
				"x": -3.976221143,
				"y": -1.6312727849,
				"z": -1.4242384295,
				"element": "C" 
			},
			{
				"x": -2.7998822255,
				"y": -1.4354046064,
				"z": -0.6987782162,
				"element": "C" 
			},
			{
				"x": -1.7504427156,
				"y": -0.7210410301,
				"z": -1.2717392478,
				"element": "C" 
			},
			{
				"x": 3.3310937022,
				"y": 1.7967171324,
				"z": 0.7855893497,
				"element": "H" 
			},
			{
				"x": 3.8389479436,
				"y": 0.3779515653,
				"z": -1.5186908577,
				"element": "H" 
			},
			{
				"x": 2.2548592765,
				"y": -0.3816106557,
				"z": -3.6250452608,
				"element": "H" 
			},
			{
				"x": -4.9496911941,
				"y": -1.2115678788,
				"z": -3.3098588275,
				"element": "H" 
			},
			{
				"x": -4.8136156469,
				"y": -2.1804644712,
				"z": -1.0071935242,
				"element": "H" 
			},
			{
				"x": -2.6987413487,
				"y": -1.8289006331,
				"z": 0.308610126,
				"element": "H" 
			},
			{
				"x": -0.8365709892,
				"y": -0.5342400161,
				"z": -0.7227758516,
				"element": "H" 
			}
		],
		 "valence_orbital": [ 
			{
				"type": "occ",
				"energy": -0.29238,
				"method": "rhf"
			},
			{
				"type": "occ",
				"energy": -0.27259,
				"method": "rhf"
			},
			{
				"type": "occ",
				"energy": -0.26317,
				"method": "rhf"
			},
			{
				"type": "occ",
				"energy": -0.25778,
				"method": "rhf"
			},
			{
				"type": "occ",
				"energy": -0.23278,
				"method": "rhf"
			},
			{
				"type": "unocc",
				"energy": -0.07439,
				"method": "rhf"
			},
			{
				"type": "unocc",
				"energy": -0.03262,
				"method": "rhf"
			},
			{
				"type": "unocc",
				"energy": -0.01989,
				"method": "rhf"
			},
			{
				"type": "unocc",
				"energy": 0.00331,
				"method": "rhf"
			},
			{
				"type": "unocc",
				"energy": 0.04892,
				"method": "rhf"
			}
		],
		"cosmo_sigma_profile": { 
			"-0.025": 0.0,
			"-0.024": 0.0,
			"-0.023": 0.0,
			"-0.022": 0.0,
			"-0.021": 0.0,
			"-0.02": 0.0,
			"-0.019": 0.0,
			"-0.018": 0.0,
			"-0.017": 0.0,
			"-0.016": 0.0,
			"-0.015": 0.0,
			"-0.014": 0.0,
			"-0.013": 0.0,
			"-0.012": 0.0,
			"-0.011": 0.0,
			"-0.01": 0.365467415462,
			"-0.009": 4.35756097383,
			"-0.008": 6.73236995589,
			"-0.007": 13.7351603128,
			"-0.006": 16.6016378753,
			"-0.005": 13.75276811,
			"-0.004": 11.8638365554,
			"-0.003": 13.5602669892,
			"-0.002": 14.3806687924,
			"-0.001": 15.9695852741,
			"0.0": 15.23623585,
			"0.001": 23.7054965666,
			"0.002": 21.6933434987,
			"0.003": 11.6053179689,
			"0.004": 9.53053504458,
			"0.005": 7.77559051638,
			"0.006": 5.27528297752,
			"0.007": 4.34564274077,
			"0.008": 3.28428356488,
			"0.009": 3.74475429313,
			"0.01": 3.82111859365,
			"0.011": 6.25928895338,
			"0.012": 4.70329398503,
			"0.013": 1.35752552421,
			"0.014": 0.668622600736,
			"0.015": 0.0215830922564,
			"0.016": 0.0,
			"0.017": 0.0,
			"0.018": 0.0,
			"0.019": 0.0,
			"0.02": 0.0,
			"0.021": 0.0,
			"0.022": 0.0,
			"0.023": 0.0,
			"0.024": 0.0,
			"0.025": 0.0
		}
	}
}
