{
	 "smiles": "CCOC1OC(=O)C2=C(OC)C=CC=C12", 
	 "Tm": 340.15, 
	 "num_atms": 27, 
	 "gaussian": { 
		 "optdone": 1, 
		 "sigma_profile": "yes", 
		 "theory": "DFT", 
		 "functional": "B3LYP", 
		 "basiset": "6-31G**", 
		 "properties": { 
			 "R2extent": 3521.5237, 
			 "electric_dipole_moment_norm": 3.72839884937, 
			 "electric_quadrupole_moment_norm": 11.1331527695, 
			 "total_energy": -727.287793167, 
			 "HOMO_LUMO_gap": 0.18731, 
			 "cosmo_polarized_energy": -11.3, 
			 "cosmo_cavitation_energy": 30.54, 
			 "cosmo_dispersion_energy": -22.32, 
			 "cosmo_repulsion_energy": 1.76, 
			 "cosmo_total_nonelectrostatic_energy": 9.99, 
			 "SMD_solvation_energy": 7.03 
		},
		"coords": [
			{
				"x": 0.7906763274,
				"y": 2.2147258465,
				"z": 4.1037834771,
				"element": "C" 
			},
			{
				"x": -0.3686231036,
				"y": 2.2342155683,
				"z": 3.1137602088,
				"element": "C" 
			},
			{
				"x": -0.4327598752,
				"y": 1.0309228656,
				"z": 2.3255525388,
				"element": "O" 
			},
			{
				"x": 0.3784360365,
				"y": 1.0245443916,
				"z": 1.201050257,
				"element": "C" 
			},
			{
				"x": -0.1086403285,
				"y": 1.9353648909,
				"z": 0.1905673423,
				"element": "O" 
			},
			{
				"x": -0.4343833309,
				"y": 1.2747739128,
				"z": -0.9699634687,
				"element": "C" 
			},
			{
				"x": -0.9256301196,
				"y": 1.8674467901,
				"z": -1.900821604,
				"element": "O" 
			},
			{
				"x": -0.0908783342,
				"y": -0.1615397711,
				"z": -0.7886297318,
				"element": "C" 
			},
			{
				"x": -0.2242097523,
				"y": -1.292366336,
				"z": -1.6222778222,
				"element": "C" 
			},
			{
				"x": -0.6130652786,
				"y": -1.3222271601,
				"z": -2.9175935968,
				"element": "O" 
			},
			{
				"x": -0.1850400395,
				"y": -0.2956928521,
				"z": -3.8264440219,
				"element": "C" 
			},
			{
				"x": 0.0454761716,
				"y": -2.5501004902,
				"z": -1.0515526263,
				"element": "C" 
			},
			{
				"x": 0.4437177019,
				"y": -2.6838761099,
				"z": 0.2754291922,
				"element": "C" 
			},
			{
				"x": 0.6075559466,
				"y": -1.560904483,
				"z": 1.0960783784,
				"element": "C" 
			},
			{
				"x": 0.3347883306,
				"y": -0.3257989914,
				"z": 0.5353944734,
				"element": "C" 
			},
			{
				"x": 0.7228491099,
				"y": 1.3403245897,
				"z": 4.7575405713,
				"element": "H" 
			},
			{
				"x": 1.7612502237,
				"y": 2.1904246024,
				"z": 3.5975309015,
				"element": "H" 
			},
			{
				"x": 0.766910277,
				"y": 3.114877236,
				"z": 4.7271961639,
				"element": "H" 
			},
			{
				"x": -1.3240029774,
				"y": 2.2723466446,
				"z": 3.6442152015,
				"element": "H" 
			},
			{
				"x": -0.3220061345,
				"y": 3.1071651218,
				"z": 2.4528333038,
				"element": "H" 
			},
			{
				"x": 1.3999603744,
				"y": 1.3565887542,
				"z": 1.4369018811,
				"element": "H" 
			},
			{
				"x": -0.4096603552,
				"y": -0.6826147282,
				"z": -4.8217833949,
				"element": "H" 
			},
			{
				"x": 0.8960955351,
				"y": -0.1354392784,
				"z": -3.7360859747,
				"element": "H" 
			},
			{
				"x": -0.7095764759,
				"y": 0.6416303268,
				"z": -3.6452341698,
				"element": "H" 
			},
			{
				"x": -0.0600724233,
				"y": -3.419173667,
				"z": -1.6922109321,
				"element": "H" 
			},
			{
				"x": 0.6394932679,
				"y": -3.6763630401,
				"z": 0.6710385673,
				"element": "H" 
			},
			{
				"x": 0.9120392261,
				"y": -1.654754634,
				"z": 2.1327248849,
				"element": "H" 
			}
		],
		 "valence_orbital": [ 
			{
				"type": "occ",
				"energy": -0.29788,
				"method": "rhf"
			},
			{
				"type": "occ",
				"energy": -0.28795,
				"method": "rhf"
			},
			{
				"type": "occ",
				"energy": -0.27124,
				"method": "rhf"
			},
			{
				"type": "occ",
				"energy": -0.26745,
				"method": "rhf"
			},
			{
				"type": "occ",
				"energy": -0.23585,
				"method": "rhf"
			},
			{
				"type": "unocc",
				"energy": -0.04854,
				"method": "rhf"
			},
			{
				"type": "unocc",
				"energy": -0.01508,
				"method": "rhf"
			},
			{
				"type": "unocc",
				"energy": 0.05259,
				"method": "rhf"
			},
			{
				"type": "unocc",
				"energy": 0.08684,
				"method": "rhf"
			},
			{
				"type": "unocc",
				"energy": 0.09342,
				"method": "rhf"
			}
		],
		"cosmo_sigma_profile": { 
			"-0.025": 0.0,
			"-0.024": 0.0,
			"-0.023": 0.0,
			"-0.022": 0.0,
			"-0.021": 0.0,
			"-0.02": 0.0,
			"-0.019": 0.0,
			"-0.018": 0.0,
			"-0.017": 0.0,
			"-0.016": 0.0,
			"-0.015": 0.0,
			"-0.014": 0.0,
			"-0.013": 0.0,
			"-0.012": 0.0,
			"-0.011": 0.0,
			"-0.01": 0.0,
			"-0.009": 0.0,
			"-0.008": 1.06430488575,
			"-0.007": 7.66791819863,
			"-0.006": 11.7304771107,
			"-0.005": 19.369608301,
			"-0.004": 23.4245281942,
			"-0.003": 26.8351379787,
			"-0.002": 21.4363915788,
			"-0.001": 17.4459736168,
			"0.0": 18.8016082539,
			"0.001": 15.9435586958,
			"0.002": 14.991483875,
			"0.003": 14.0167004147,
			"0.004": 7.54522098869,
			"0.005": 6.79800644095,
			"0.006": 6.14629206362,
			"0.007": 5.13812121588,
			"0.008": 4.88904505413,
			"0.009": 6.2566308221,
			"0.01": 5.90845027354,
			"0.011": 4.1979961068,
			"0.012": 2.45668057549,
			"0.013": 0.613360897694,
			"0.014": 0.0,
			"0.015": 0.0,
			"0.016": 0.0,
			"0.017": 0.0,
			"0.018": 0.0,
			"0.019": 0.0,
			"0.02": 0.0,
			"0.021": 0.0,
			"0.022": 0.0,
			"0.023": 0.0,
			"0.024": 0.0,
			"0.025": 0.0
		}
	}
}
