{
	 "smiles": "NS(=O)(=O)C1=C(C=C(F)C=C1)C(O)=O", 
	 "Tm": 492.15, 
	 "num_atms": 20, 
	 "gaussian": { 
		 "optdone": 1, 
		 "sigma_profile": "yes", 
		 "theory": "DFT", 
		 "functional": "B3LYP", 
		 "basiset": "6-31G**", 
		 "properties": { 
			 "R2extent": 3409.1552, 
			 "electric_dipole_moment_norm": 7.61180401876, 
			 "electric_quadrupole_moment_norm": 19.8023230415, 
			 "total_energy": -1123.96256145, 
			 "HOMO_LUMO_gap": 0.20191, 
			 "cosmo_polarized_energy": -20.33, 
			 "cosmo_cavitation_energy": 26.42, 
			 "cosmo_dispersion_energy": -20.04, 
			 "cosmo_repulsion_energy": 1.49, 
			 "cosmo_total_nonelectrostatic_energy": 7.87, 
			 "SMD_solvation_energy": 5.97 
		},
		"coords": [
			{
				"x": -3.8658686427,
				"y": -0.3248895609,
				"z": 1.63449073,
				"element": "N" 
			},
			{
				"x": -2.7953110318,
				"y": -0.9293385841,
				"z": 0.4904291201,
				"element": "S" 
			},
			{
				"x": -3.382876093,
				"y": -0.6134530758,
				"z": -0.8328086505,
				"element": "O" 
			},
			{
				"x": -2.4699087659,
				"y": -2.3069540367,
				"z": 0.853677174,
				"element": "O" 
			},
			{
				"x": -1.3296273509,
				"y": 0.0988433814,
				"z": 0.6630611074,
				"element": "C" 
			},
			{
				"x": -0.2408406935,
				"y": -0.0260945305,
				"z": -0.2335127717,
				"element": "C" 
			},
			{
				"x": 0.8919958388,
				"y": 0.7589819295,
				"z": 0.0072534952,
				"element": "C" 
			},
			{
				"x": 0.9248479997,
				"y": 1.6436804872,
				"z": 1.0758149947,
				"element": "C" 
			},
			{
				"x": 2.0225411055,
				"y": 2.3916454662,
				"z": 1.2649213132,
				"element": "F" 
			},
			{
				"x": -0.1407915032,
				"y": 1.7721880807,
				"z": 1.956103599,
				"element": "C" 
			},
			{
				"x": -1.2673494057,
				"y": 0.9822184832,
				"z": 1.7458186685,
				"element": "C" 
			},
			{
				"x": -0.0801302256,
				"y": -0.9501331508,
				"z": -1.441831676,
				"element": "C" 
			},
			{
				"x": -1.1456162536,
				"y": -1.2887171979,
				"z": -2.168406344,
				"element": "O" 
			},
			{
				"x": 1.0287879271,
				"y": -1.3231307928,
				"z": -1.7540662808,
				"element": "O" 
			},
			{
				"x": -4.1349400696,
				"y": -1.07013216,
				"z": 2.2711309072,
				"element": "H" 
			},
			{
				"x": -4.6658055068,
				"y": 0.0971923834,
				"z": 1.1709417063,
				"element": "H" 
			},
			{
				"x": 1.7492495586,
				"y": 0.6555411422,
				"z": -0.6465162792,
				"element": "H" 
			},
			{
				"x": -0.0828737242,
				"y": 2.4674114028,
				"z": 2.7858864603,
				"element": "H" 
			},
			{
				"x": -2.110626974,
				"y": 1.0495611605,
				"z": 2.4210065521,
				"element": "H" 
			},
			{
				"x": -1.9937561892,
				"y": -0.9139208277,
				"z": -1.8438938258,
				"element": "H" 
			}
		],
		 "valence_orbital": [ 
			{
				"type": "occ",
				"energy": -0.32232,
				"method": "rhf"
			},
			{
				"type": "occ",
				"energy": -0.31251,
				"method": "rhf"
			},
			{
				"type": "occ",
				"energy": -0.29594,
				"method": "rhf"
			},
			{
				"type": "occ",
				"energy": -0.28015,
				"method": "rhf"
			},
			{
				"type": "occ",
				"energy": -0.27239,
				"method": "rhf"
			},
			{
				"type": "unocc",
				"energy": -0.07048,
				"method": "rhf"
			},
			{
				"type": "unocc",
				"energy": -0.04518,
				"method": "rhf"
			},
			{
				"type": "unocc",
				"energy": 0.01993,
				"method": "rhf"
			},
			{
				"type": "unocc",
				"energy": 0.03175,
				"method": "rhf"
			},
			{
				"type": "unocc",
				"energy": 0.04335,
				"method": "rhf"
			}
		],
		"cosmo_sigma_profile": { 
			"-0.025": 0.0,
			"-0.024": 0.0,
			"-0.023": 0.0,
			"-0.022": 0.0,
			"-0.021": 0.0,
			"-0.02": 0.0,
			"-0.019": 0.0,
			"-0.018": 0.0,
			"-0.017": 0.0,
			"-0.016": 1.80366479061,
			"-0.015": 2.39233245871,
			"-0.014": 3.13143497753,
			"-0.013": 2.5003837633,
			"-0.012": 2.34198745348,
			"-0.011": 1.34666777917,
			"-0.01": 1.37001029941,
			"-0.009": 4.07470265702,
			"-0.008": 7.15665525277,
			"-0.007": 7.1449087981,
			"-0.006": 7.35826318039,
			"-0.005": 8.59347141888,
			"-0.004": 8.69492880128,
			"-0.003": 9.56650721575,
			"-0.002": 17.5142606842,
			"-0.001": 20.9415234639,
			"0.0": 15.3130569164,
			"0.001": 10.5121618059,
			"0.002": 7.51165125779,
			"0.003": 14.1808075717,
			"0.004": 6.80235730606,
			"0.005": 4.63561326075,
			"0.006": 5.51908483503,
			"0.007": 5.80698089186,
			"0.008": 5.35152278133,
			"0.009": 10.7710997887,
			"0.01": 10.618727207,
			"0.011": 5.90332994812,
			"0.012": 2.90825586609,
			"0.013": 0.633066438696,
			"0.014": 0.0,
			"0.015": 0.0,
			"0.016": 0.0,
			"0.017": 0.0,
			"0.018": 0.0,
			"0.019": 0.0,
			"0.02": 0.0,
			"0.021": 0.0,
			"0.022": 0.0,
			"0.023": 0.0,
			"0.024": 0.0,
			"0.025": 0.0
		}
	}
}
