{
	 "smiles": "NS(=O)(=O)C1=CN(CC(O)=O)N=C1", 
	 "Tm": 430.15, 
	 "num_atms": 20, 
	 "gaussian": { 
		 "optdone": 1, 
		 "sigma_profile": "yes", 
		 "theory": "DFT", 
		 "functional": "B3LYP", 
		 "basiset": "6-31G**", 
		 "properties": { 
			 "R2extent": 3500.9758, 
			 "electric_dipole_moment_norm": 5.15797166917, 
			 "electric_quadrupole_moment_norm": 23.7188458197, 
			 "total_energy": -1057.99583878, 
			 "HOMO_LUMO_gap": 0.24644, 
			 "cosmo_polarized_energy": -28.18, 
			 "cosmo_cavitation_energy": 27.5, 
			 "cosmo_dispersion_energy": -20.0, 
			 "cosmo_repulsion_energy": 1.58, 
			 "cosmo_total_nonelectrostatic_energy": 9.07, 
			 "SMD_solvation_energy": 5.29 
		},
		"coords": [
			{
				"x": 1.8486391569,
				"y": 0.9560629434,
				"z": -2.6854340483,
				"element": "N" 
			},
			{
				"x": 1.3002060543,
				"y": 2.1493793664,
				"z": -1.6376461516,
				"element": "S" 
			},
			{
				"x": 0.1123908552,
				"y": 2.7181617974,
				"z": -2.2716126876,
				"element": "O" 
			},
			{
				"x": 2.4818135905,
				"y": 2.9332850376,
				"z": -1.289755093,
				"element": "O" 
			},
			{
				"x": 0.7491325888,
				"y": 1.3434994345,
				"z": -0.1662192072,
				"element": "C" 
			},
			{
				"x": -0.5648870573,
				"y": 1.0527215237,
				"z": 0.1550741414,
				"element": "C" 
			},
			{
				"x": -0.5305589594,
				"y": 0.4631535181,
				"z": 1.3735498507,
				"element": "N" 
			},
			{
				"x": -1.632753965,
				"y": -0.0818710193,
				"z": 2.1354678562,
				"element": "C" 
			},
			{
				"x": -1.9244646034,
				"y": -1.5638587142,
				"z": 1.909926811,
				"element": "C" 
			},
			{
				"x": -1.3636119024,
				"y": -2.0501640589,
				"z": 0.7867562712,
				"element": "O" 
			},
			{
				"x": -2.6214742857,
				"y": -2.2083226798,
				"z": 2.6565259246,
				"element": "O" 
			},
			{
				"x": 0.7309604305,
				"y": 0.3443910555,
				"z": 1.8639665275,
				"element": "N" 
			},
			{
				"x": 1.5110057363,
				"y": 0.8838260229,
				"z": 0.9361212782,
				"element": "C" 
			},
			{
				"x": 1.1173420376,
				"y": 0.311341353,
				"z": -2.9679366736,
				"element": "H" 
			},
			{
				"x": 2.6833857266,
				"y": 0.4888236561,
				"z": -2.3459929481,
				"element": "H" 
			},
			{
				"x": -1.480658175,
				"y": 1.244310167,
				"z": -0.3834800896,
				"element": "H" 
			},
			{
				"x": -2.5445982723,
				"y": 0.476021972,
				"z": 1.9010590503,
				"element": "H" 
			},
			{
				"x": -1.4205401777,
				"y": 0.0533086108,
				"z": 3.1968975272,
				"element": "H" 
			},
			{
				"x": -1.6191628968,
				"y": -2.9872364426,
				"z": 0.7370292401,
				"element": "H" 
			},
			{
				"x": 2.5792341183,
				"y": 0.9523664562,
				"z": 1.0875024206,
				"element": "H" 
			}
		],
		 "valence_orbital": [ 
			{
				"type": "occ",
				"energy": -0.31073,
				"method": "rhf"
			},
			{
				"type": "occ",
				"energy": -0.30731,
				"method": "rhf"
			},
			{
				"type": "occ",
				"energy": -0.29986,
				"method": "rhf"
			},
			{
				"type": "occ",
				"energy": -0.28133,
				"method": "rhf"
			},
			{
				"type": "occ",
				"energy": -0.2691,
				"method": "rhf"
			},
			{
				"type": "unocc",
				"energy": -0.02266,
				"method": "rhf"
			},
			{
				"type": "unocc",
				"energy": -0.017,
				"method": "rhf"
			},
			{
				"type": "unocc",
				"energy": 0.01019,
				"method": "rhf"
			},
			{
				"type": "unocc",
				"energy": 0.05018,
				"method": "rhf"
			},
			{
				"type": "unocc",
				"energy": 0.05484,
				"method": "rhf"
			}
		],
		"cosmo_sigma_profile": { 
			"-0.025": 0.0,
			"-0.024": 0.0,
			"-0.023": 0.0,
			"-0.022": 0.0,
			"-0.021": 0.0,
			"-0.02": 0.0,
			"-0.019": 0.590443801367,
			"-0.018": 1.02410392013,
			"-0.017": 0.975630765042,
			"-0.016": 0.92994544755,
			"-0.015": 3.62861574753,
			"-0.014": 3.95741491829,
			"-0.013": 2.50100252358,
			"-0.012": 5.39232785387,
			"-0.011": 7.43715266907,
			"-0.01": 5.61323077788,
			"-0.009": 8.03944417991,
			"-0.008": 9.16942517953,
			"-0.007": 8.63493546807,
			"-0.006": 8.34553347001,
			"-0.005": 5.87962158258,
			"-0.004": 7.58530268426,
			"-0.003": 7.68818609687,
			"-0.002": 6.82157685665,
			"-0.001": 6.98291092259,
			"0.0": 9.28540670518,
			"0.001": 9.07163358589,
			"0.002": 8.40021411673,
			"0.003": 5.99970363474,
			"0.004": 7.6449791884,
			"0.005": 8.3623057632,
			"0.006": 8.13723887703,
			"0.007": 8.50860154348,
			"0.008": 7.65341471767,
			"0.009": 5.96186982149,
			"0.01": 12.9332656865,
			"0.011": 17.1929991592,
			"0.012": 7.26297115483,
			"0.013": 1.01641187416,
			"0.014": 0.385543623743,
			"0.015": 0.0,
			"0.016": 0.0,
			"0.017": 0.0,
			"0.018": 0.0,
			"0.019": 0.0,
			"0.02": 0.0,
			"0.021": 0.0,
			"0.022": 0.0,
			"0.023": 0.0,
			"0.024": 0.0,
			"0.025": 0.0
		}
	}
}
