{
	 "smiles": "COC1=CC=C(CC(N)C(=O)NC2C(CO)OC(C2O)N2C=NC3=C2N=CN=C3N(C)C)C=C1", 
	 "Tm": 449.15, 
	 "num_atms": 63, 
	 "gaussian": { 
		 "optdone": 1, 
		 "sigma_profile": "yes", 
		 "theory": "DFT", 
		 "functional": "B3LYP", 
		 "basiset": "6-31G**", 
		 "properties": { 
			 "R2extent": 19429.8631, 
			 "electric_dipole_moment_norm": 5.68784259715, 
			 "electric_quadrupole_moment_norm": 31.6724585885, 
			 "total_energy": -1615.18660846, 
			 "HOMO_LUMO_gap": 0.1869, 
			 "cosmo_polarized_energy": -34.25, 
			 "cosmo_cavitation_energy": 63.03, 
			 "cosmo_dispersion_energy": -42.0, 
			 "cosmo_repulsion_energy": 3.13, 
			 "cosmo_total_nonelectrostatic_energy": 24.16, 
			 "SMD_solvation_energy": 6.21 
		},
		"coords": [
			{
				"x": -5.1998358574,
				"y": 2.1068509782,
				"z": 3.1074306549,
				"element": "C" 
			},
			{
				"x": -4.4551269763,
				"y": 1.9054266583,
				"z": 4.3059242756,
				"element": "O" 
			},
			{
				"x": -3.0963824136,
				"y": 1.9464751396,
				"z": 4.2285614583,
				"element": "C" 
			},
			{
				"x": -2.3728356141,
				"y": 2.2747880255,
				"z": 3.0750467141,
				"element": "C" 
			},
			{
				"x": -0.9758539084,
				"y": 2.2636284369,
				"z": 3.1091805542,
				"element": "C" 
			},
			{
				"x": -0.269193216,
				"y": 1.9287731894,
				"z": 4.2687549346,
				"element": "C" 
			},
			{
				"x": 1.2404318175,
				"y": 1.8405868814,
				"z": 4.2606254075,
				"element": "C" 
			},
			{
				"x": 1.7698921014,
				"y": 0.4011903219,
				"z": 4.0613300239,
				"element": "C" 
			},
			{
				"x": 3.2312210816,
				"y": 0.4228503691,
				"z": 4.0674322186,
				"element": "N" 
			},
			{
				"x": 1.2866681975,
				"y": -0.1285670474,
				"z": 2.6968216232,
				"element": "C" 
			},
			{
				"x": 1.5532063416,
				"y": 0.439419924,
				"z": 1.6419290957,
				"element": "O" 
			},
			{
				"x": 0.5470742536,
				"y": -1.2786857002,
				"z": 2.7541571446,
				"element": "N" 
			},
			{
				"x": -0.1365239192,
				"y": -1.8715786625,
				"z": 1.6094274485,
				"element": "C" 
			},
			{
				"x": -1.2259080801,
				"y": -0.9993687638,
				"z": 0.959368874,
				"element": "C" 
			},
			{
				"x": -2.5855403754,
				"y": -1.0362964864,
				"z": 1.6380449716,
				"element": "C" 
			},
			{
				"x": -3.534788,
				"y": -0.2434079891,
				"z": 0.9443262977,
				"element": "O" 
			},
			{
				"x": -1.3873553868,
				"y": -1.5869015473,
				"z": -0.3394271039,
				"element": "O" 
			},
			{
				"x": -0.1306534594,
				"y": -2.0572228777,
				"z": -0.8168259636,
				"element": "C" 
			},
			{
				"x": 0.7777685804,
				"y": -2.2654865164,
				"z": 0.4196661973,
				"element": "C" 
			},
			{
				"x": 1.1813745028,
				"y": -3.6259811691,
				"z": 0.4509281793,
				"element": "O" 
			},
			{
				"x": 0.4384606788,
				"y": -1.1581275886,
				"z": -1.8077010418,
				"element": "N" 
			},
			{
				"x": 1.0424439888,
				"y": 0.0783349932,
				"z": -1.6334159238,
				"element": "C" 
			},
			{
				"x": 1.3292624594,
				"y": 0.676358189,
				"z": -2.7626345641,
				"element": "N" 
			},
			{
				"x": 0.8882211146,
				"y": -0.1915307692,
				"z": -3.7546955619,
				"element": "C" 
			},
			{
				"x": 0.3223229054,
				"y": -1.3356534649,
				"z": -3.1752141056,
				"element": "C" 
			},
			{
				"x": -0.2104663412,
				"y": -2.3927933715,
				"z": -3.7988815616,
				"element": "N" 
			},
			{
				"x": -0.1453586145,
				"y": -2.2428276681,
				"z": -5.123790882,
				"element": "C" 
			},
			{
				"x": 0.3597644218,
				"y": -1.2218891066,
				"z": -5.8237354445,
				"element": "N" 
			},
			{
				"x": 0.896605096,
				"y": -0.1592147045,
				"z": -5.1799906733,
				"element": "C" 
			},
			{
				"x": 1.4003776837,
				"y": 0.8537868604,
				"z": -5.9396562276,
				"element": "N" 
			},
			{
				"x": 1.3599036548,
				"y": 0.7978350007,
				"z": -7.3933395263,
				"element": "C" 
			},
			{
				"x": 2.0017962655,
				"y": 2.0574489165,
				"z": -5.3847411242,
				"element": "C" 
			},
			{
				"x": -1.0132673979,
				"y": 1.6236527578,
				"z": 5.4208786779,
				"element": "C" 
			},
			{
				"x": -2.4031161265,
				"y": 1.6321016712,
				"z": 5.4088276775,
				"element": "C" 
			},
			{
				"x": -6.2469160951,
				"y": 1.9711616188,
				"z": 3.3830121073,
				"element": "H" 
			},
			{
				"x": -5.0626558116,
				"y": 3.1238303411,
				"z": 2.7174736467,
				"element": "H" 
			},
			{
				"x": -4.9211292105,
				"y": 1.379085563,
				"z": 2.336463352,
				"element": "H" 
			},
			{
				"x": -2.8798392311,
				"y": 2.5123678331,
				"z": 2.1484020658,
				"element": "H" 
			},
			{
				"x": -0.4247806594,
				"y": 2.5086019352,
				"z": 2.2053801424,
				"element": "H" 
			},
			{
				"x": 1.6490853578,
				"y": 2.2159235465,
				"z": 5.2080054516,
				"element": "H" 
			},
			{
				"x": 1.6637260387,
				"y": 2.4485517521,
				"z": 3.4563064684,
				"element": "H" 
			},
			{
				"x": 1.3331693996,
				"y": -0.2331399021,
				"z": 4.8563059254,
				"element": "H" 
			},
			{
				"x": 3.563711584,
				"y": 0.8396061768,
				"z": 4.9331701731,
				"element": "H" 
			},
			{
				"x": 3.6117784817,
				"y": -0.5189897436,
				"z": 4.0256896358,
				"element": "H" 
			},
			{
				"x": 0.2879304965,
				"y": -1.6139257699,
				"z": 3.6699185085,
				"element": "H" 
			},
			{
				"x": -0.595862583,
				"y": -2.803096042,
				"z": 1.9576488503,
				"element": "H" 
			},
			{
				"x": -0.8888915394,
				"y": 0.0407896258,
				"z": 0.8730635163,
				"element": "H" 
			},
			{
				"x": -2.5063909048,
				"y": -0.6206303756,
				"z": 2.6465495358,
				"element": "H" 
			},
			{
				"x": -2.9163744332,
				"y": -2.0850310143,
				"z": 1.7131811487,
				"element": "H" 
			},
			{
				"x": -3.5317351799,
				"y": -0.5495346123,
				"z": 0.0261477559,
				"element": "H" 
			},
			{
				"x": -0.2990041136,
				"y": -3.0029610005,
				"z": -1.3346278065,
				"element": "H" 
			},
			{
				"x": 1.6433414805,
				"y": -1.601004556,
				"z": 0.3799358052,
				"element": "H" 
			},
			{
				"x": 1.9553314481,
				"y": -3.6957979273,
				"z": 1.0229606783,
				"element": "H" 
			},
			{
				"x": 1.253911191,
				"y": 0.4691279615,
				"z": -0.6458068961,
				"element": "H" 
			},
			{
				"x": -0.557127011,
				"y": -3.0568813344,
				"z": -5.7181908775,
				"element": "H" 
			},
			{
				"x": 2.3772915629,
				"y": 0.8574471167,
				"z": -7.8019043276,
				"element": "H" 
			},
			{
				"x": 0.8954153201,
				"y": -0.1343891525,
				"z": -7.7056289477,
				"element": "H" 
			},
			{
				"x": 0.7850104535,
				"y": 1.6458179471,
				"z": -7.7885579495,
				"element": "H" 
			},
			{
				"x": 1.4452487496,
				"y": 2.9436512724,
				"z": -5.7190391669,
				"element": "H" 
			},
			{
				"x": 2.0010229202,
				"y": 2.0249219046,
				"z": -4.2972375169,
				"element": "H" 
			},
			{
				"x": 3.0357252721,
				"y": 2.1578606543,
				"z": -5.7416891486,
				"element": "H" 
			},
			{
				"x": -0.4948369249,
				"y": 1.3772293076,
				"z": 6.3453737437,
				"element": "H" 
			},
			{
				"x": -2.9775455173,
				"y": 1.3962319943,
				"z": 6.2989814012,
				"element": "H" 
			}
		],
		 "valence_orbital": [ 
			{
				"type": "occ",
				"energy": -0.24936,
				"method": "rhf"
			},
			{
				"type": "occ",
				"energy": -0.24717,
				"method": "rhf"
			},
			{
				"type": "occ",
				"energy": -0.2353,
				"method": "rhf"
			},
			{
				"type": "occ",
				"energy": -0.21566,
				"method": "rhf"
			},
			{
				"type": "occ",
				"energy": -0.19486,
				"method": "rhf"
			},
			{
				"type": "unocc",
				"energy": -0.00796,
				"method": "rhf"
			},
			{
				"type": "unocc",
				"energy": -0.00696,
				"method": "rhf"
			},
			{
				"type": "unocc",
				"energy": 0.00106,
				"method": "rhf"
			},
			{
				"type": "unocc",
				"energy": 0.0074,
				"method": "rhf"
			},
			{
				"type": "unocc",
				"energy": 0.01774,
				"method": "rhf"
			}
		],
		"cosmo_sigma_profile": { 
			"-0.025": 0.0,
			"-0.024": 0.0,
			"-0.023": 0.0,
			"-0.022": 0.0,
			"-0.021": 0.0,
			"-0.02": 0.0,
			"-0.019": 0.0,
			"-0.018": 0.0,
			"-0.017": 0.269105452834,
			"-0.016": 0.97572091091,
			"-0.015": 1.79600782787,
			"-0.014": 3.01130874252,
			"-0.013": 1.99358668818,
			"-0.012": 3.0389686635,
			"-0.011": 3.11298587925,
			"-0.01": 6.39372781616,
			"-0.009": 6.50438830762,
			"-0.008": 6.70948367671,
			"-0.007": 9.80736428032,
			"-0.006": 14.3919858151,
			"-0.005": 28.1059324504,
			"-0.004": 42.4411022924,
			"-0.003": 43.7854193633,
			"-0.002": 40.2472969708,
			"-0.001": 39.0193098409,
			"0.0": 36.789295827,
			"0.001": 35.1291528245,
			"0.002": 27.6251353031,
			"0.003": 23.0856413557,
			"0.004": 22.3126476818,
			"0.005": 21.0401134802,
			"0.006": 16.3597847203,
			"0.007": 11.2079928519,
			"0.008": 10.9198093996,
			"0.009": 9.52425181249,
			"0.01": 8.7693593417,
			"0.011": 7.58825037557,
			"0.012": 4.63458798159,
			"0.013": 2.91401762197,
			"0.014": 1.97810419138,
			"0.015": 1.08914509718,
			"0.016": 1.04114095833,
			"0.017": 1.15987170294,
			"0.018": 0.87294039868,
			"0.019": 0.588113033252,
			"0.02": 0.131330378002,
			"0.021": 0.0,
			"0.022": 0.0,
			"0.023": 0.0,
			"0.024": 0.0,
			"0.025": 0.0
		}
	}
}
