{
	 "smiles": "COC(C)OC", 
	 "Tm": 160.15, 
	 "num_atms": 16, 
	 "gaussian": { 
		 "optdone": 1, 
		 "sigma_profile": "yes", 
		 "theory": "DFT", 
		 "functional": "B3LYP", 
		 "basiset": "6-31G**", 
		 "properties": { 
			 "R2extent": 847.4053, 
			 "electric_dipole_moment_norm": 0.248086980714, 
			 "electric_quadrupole_moment_norm": 4.51526315844, 
			 "total_energy": -308.879407709, 
			 "HOMO_LUMO_gap": 0.35473, 
			 "cosmo_polarized_energy": -4.71, 
			 "cosmo_cavitation_energy": 18.32, 
			 "cosmo_dispersion_energy": -13.5, 
			 "cosmo_repulsion_energy": 1.17, 
			 "cosmo_total_nonelectrostatic_energy": 5.99, 
			 "SMD_solvation_energy": 4.42 
		},
		"coords": [
			{
				"x": 0.7749770207,
				"y": 0.9064349704,
				"z": 0.6081918604,
				"element": "C" 
			},
			{
				"x": 1.1410171692,
				"y": -0.4282979835,
				"z": 0.2902837169,
				"element": "O" 
			},
			{
				"x": 0.85383485,
				"y": -0.7931743903,
				"z": -1.0407777736,
				"element": "C" 
			},
			{
				"x": 1.544095463,
				"y": -2.127052856,
				"z": -1.2953569121,
				"element": "C" 
			},
			{
				"x": -0.5367080224,
				"y": -0.7981893042,
				"z": -1.3096185116,
				"element": "O" 
			},
			{
				"x": -1.3022532695,
				"y": -1.7404209039,
				"z": -0.5686836429,
				"element": "C" 
			},
			{
				"x": 1.0425037669,
				"y": 1.0690110845,
				"z": 1.6546883776,
				"element": "H" 
			},
			{
				"x": 1.3215246616,
				"y": 1.6293290319,
				"z": -0.0163798677,
				"element": "H" 
			},
			{
				"x": -0.2998397315,
				"y": 1.0761065664,
				"z": 0.4754821793,
				"element": "H" 
			},
			{
				"x": 1.2371548743,
				"y": -0.0255468852,
				"z": -1.7305843052,
				"element": "H" 
			},
			{
				"x": 2.6271756656,
				"y": -2.0001893109,
				"z": -1.2227940942,
				"element": "H" 
			},
			{
				"x": 1.2952218174,
				"y": -2.4939859535,
				"z": -2.2946535799,
				"element": "H" 
			},
			{
				"x": 1.2430833294,
				"y": -2.8719117567,
				"z": -0.5541300351,
				"element": "H" 
			},
			{
				"x": -1.0641369052,
				"y": -1.7033998149,
				"z": 0.5007647671,
				"element": "H" 
			},
			{
				"x": -2.3507289607,
				"y": -1.4684302795,
				"z": -0.711814532,
				"element": "H" 
			},
			{
				"x": -1.1563217288,
				"y": -2.7673822146,
				"z": -0.930017647,
				"element": "H" 
			}
		],
		 "valence_orbital": [ 
			{
				"type": "occ",
				"energy": -0.36372,
				"method": "rhf"
			},
			{
				"type": "occ",
				"energy": -0.34799,
				"method": "rhf"
			},
			{
				"type": "occ",
				"energy": -0.29315,
				"method": "rhf"
			},
			{
				"type": "occ",
				"energy": -0.2676,
				"method": "rhf"
			},
			{
				"type": "occ",
				"energy": -0.25988,
				"method": "rhf"
			},
			{
				"type": "unocc",
				"energy": 0.09485,
				"method": "rhf"
			},
			{
				"type": "unocc",
				"energy": 0.11737,
				"method": "rhf"
			},
			{
				"type": "unocc",
				"energy": 0.1327,
				"method": "rhf"
			},
			{
				"type": "unocc",
				"energy": 0.1373,
				"method": "rhf"
			},
			{
				"type": "unocc",
				"energy": 0.14728,
				"method": "rhf"
			}
		],
		"cosmo_sigma_profile": { 
			"-0.025": 0.0,
			"-0.024": 0.0,
			"-0.023": 0.0,
			"-0.022": 0.0,
			"-0.021": 0.0,
			"-0.02": 0.0,
			"-0.019": 0.0,
			"-0.018": 0.0,
			"-0.017": 0.0,
			"-0.016": 0.0,
			"-0.015": 0.0,
			"-0.014": 0.0,
			"-0.013": 0.0,
			"-0.012": 0.0,
			"-0.011": 0.0,
			"-0.01": 0.0,
			"-0.009": 0.0,
			"-0.008": 0.0,
			"-0.007": 0.0,
			"-0.006": 0.143320198144,
			"-0.005": 4.32558514634,
			"-0.004": 17.3316359931,
			"-0.003": 21.5360747366,
			"-0.002": 26.9697692553,
			"-0.001": 18.5674315081,
			"0.0": 13.0835538811,
			"0.001": 7.57250062402,
			"0.002": 5.13853931093,
			"0.003": 2.89323957944,
			"0.004": 3.0238300752,
			"0.005": 2.7672513927,
			"0.006": 2.87443873749,
			"0.007": 2.92624336667,
			"0.008": 2.1542973805,
			"0.009": 1.9495152929,
			"0.01": 1.69303596164,
			"0.011": 2.12475469944,
			"0.012": 2.38271791754,
			"0.013": 2.38123165624,
			"0.014": 0.294080292671,
			"0.015": 0.0,
			"0.016": 0.0,
			"0.017": 0.0,
			"0.018": 0.0,
			"0.019": 0.0,
			"0.02": 0.0,
			"0.021": 0.0,
			"0.022": 0.0,
			"0.023": 0.0,
			"0.024": 0.0,
			"0.025": 0.0
		}
	}
}
