{
	 "smiles": "NC(=O)C1=CC(OCC(O)=O)=CC=C1", 
	 "Tm": 480.15, 
	 "num_atms": 23, 
	 "gaussian": { 
		 "optdone": 1, 
		 "sigma_profile": "yes", 
		 "theory": "DFT", 
		 "functional": "B3LYP", 
		 "basiset": "6-31G**", 
		 "properties": { 
			 "R2extent": 3823.2014, 
			 "electric_dipole_moment_norm": 4.56737781774, 
			 "electric_quadrupole_moment_norm": 18.8900434356, 
			 "total_energy": -704.041286235, 
			 "HOMO_LUMO_gap": 0.19664, 
			 "cosmo_polarized_energy": -21.94, 
			 "cosmo_cavitation_energy": 28.14, 
			 "cosmo_dispersion_energy": -20.49, 
			 "cosmo_repulsion_energy": 1.63, 
			 "cosmo_total_nonelectrostatic_energy": 9.28, 
			 "SMD_solvation_energy": 7.04 
		},
		"coords": [
			{
				"x": -4.491105321,
				"y": 0.6761275767,
				"z": -0.4910817887,
				"element": "N" 
			},
			{
				"x": -3.6750930228,
				"y": 0.9263444037,
				"z": -1.5683317982,
				"element": "C" 
			},
			{
				"x": -4.0980075757,
				"y": 1.4371026004,
				"z": -2.5970886281,
				"element": "O" 
			},
			{
				"x": -2.2238877523,
				"y": 0.5615263726,
				"z": -1.4045646407,
				"element": "C" 
			},
			{
				"x": -1.6272937049,
				"y": 0.3696960911,
				"z": -0.1557600362,
				"element": "C" 
			},
			{
				"x": -0.2720730933,
				"y": 0.0375300462,
				"z": -0.0716047587,
				"element": "C" 
			},
			{
				"x": 0.2207021465,
				"y": -0.101029753,
				"z": 1.2150362702,
				"element": "O" 
			},
			{
				"x": 1.4948475626,
				"y": -0.714138914,
				"z": 1.388699935,
				"element": "C" 
			},
			{
				"x": 2.6574685795,
				"y": 0.277310895,
				"z": 1.2571097311,
				"element": "C" 
			},
			{
				"x": 2.3108048096,
				"y": 1.5699434603,
				"z": 1.3961455666,
				"element": "O" 
			},
			{
				"x": 3.7950259318,
				"y": -0.0825000936,
				"z": 1.0874184889,
				"element": "O" 
			},
			{
				"x": 0.4968786884,
				"y": -0.1054866177,
				"z": -1.2293867744,
				"element": "C" 
			},
			{
				"x": -0.1094400795,
				"y": 0.0946222454,
				"z": -2.4745469668,
				"element": "C" 
			},
			{
				"x": -1.4546171869,
				"y": 0.4319263079,
				"z": -2.5694391397,
				"element": "C" 
			},
			{
				"x": -5.4775658709,
				"y": 0.8173548663,
				"z": -0.6557979878,
				"element": "H" 
			},
			{
				"x": -4.2382392403,
				"y": -0.0221936034,
				"z": 0.1904560353,
				"element": "H" 
			},
			{
				"x": -2.1788429836,
				"y": 0.5027768887,
				"z": 0.7690529023,
				"element": "H" 
			},
			{
				"x": 1.6526741364,
				"y": -1.5489929454,
				"z": 0.7009826896,
				"element": "H" 
			},
			{
				"x": 1.5015654383,
				"y": -1.1062687764,
				"z": 2.4106816494,
				"element": "H" 
			},
			{
				"x": 1.3448394236,
				"y": 1.6136481951,
				"z": 1.5076791142,
				"element": "H" 
			},
			{
				"x": 1.5527531112,
				"y": -0.3467812464,
				"z": -1.1817288326,
				"element": "H" 
			},
			{
				"x": 0.4893762916,
				"y": -0.0086141883,
				"z": -3.3743142603,
				"element": "H" 
			},
			{
				"x": -1.9325702881,
				"y": 0.6044961888,
				"z": -3.5268167704,
				"element": "H" 
			}
		],
		 "valence_orbital": [ 
			{
				"type": "occ",
				"energy": -0.28279,
				"method": "rhf"
			},
			{
				"type": "occ",
				"energy": -0.28001,
				"method": "rhf"
			},
			{
				"type": "occ",
				"energy": -0.27392,
				"method": "rhf"
			},
			{
				"type": "occ",
				"energy": -0.2598,
				"method": "rhf"
			},
			{
				"type": "occ",
				"energy": -0.24598,
				"method": "rhf"
			},
			{
				"type": "unocc",
				"energy": -0.04934,
				"method": "rhf"
			},
			{
				"type": "unocc",
				"energy": -0.01645,
				"method": "rhf"
			},
			{
				"type": "unocc",
				"energy": -0.00224,
				"method": "rhf"
			},
			{
				"type": "unocc",
				"energy": 0.04927,
				"method": "rhf"
			},
			{
				"type": "unocc",
				"energy": 0.0655,
				"method": "rhf"
			}
		],
		"cosmo_sigma_profile": { 
			"-0.025": 0.0,
			"-0.024": 0.0,
			"-0.023": 0.0,
			"-0.022": 0.0,
			"-0.021": 0.0,
			"-0.02": 0.0,
			"-0.019": 0.0,
			"-0.018": 0.0,
			"-0.017": 0.0,
			"-0.016": 0.26660605731,
			"-0.015": 0.631502323262,
			"-0.014": 2.69917882668,
			"-0.013": 3.09866092283,
			"-0.012": 2.88573017519,
			"-0.011": 3.77426769291,
			"-0.01": 5.4261583241,
			"-0.009": 7.24856516722,
			"-0.008": 10.2442933826,
			"-0.007": 9.53923585434,
			"-0.006": 11.2204643662,
			"-0.005": 10.9710735905,
			"-0.004": 9.70987613278,
			"-0.003": 9.30767454768,
			"-0.002": 9.7673465242,
			"-0.001": 9.41391241414,
			"0.0": 12.5032730832,
			"0.001": 11.6149915742,
			"0.002": 13.6186821481,
			"0.003": 13.9710022525,
			"0.004": 11.0966248106,
			"0.005": 5.82463678584,
			"0.006": 4.07794880382,
			"0.007": 5.35682043807,
			"0.008": 6.59160393979,
			"0.009": 5.20746085965,
			"0.01": 5.96606195449,
			"0.011": 6.83365386454,
			"0.012": 6.66387375635,
			"0.013": 5.44192080443,
			"0.014": 3.18170835639,
			"0.015": 0.118222446014,
			"0.016": 0.0,
			"0.017": 0.0,
			"0.018": 0.0,
			"0.019": 0.0,
			"0.02": 0.0,
			"0.021": 0.0,
			"0.022": 0.0,
			"0.023": 0.0,
			"0.024": 0.0,
			"0.025": 0.0
		}
	}
}
