{
	 "smiles": "COC(=O)C1=CC=C(CNC(=O)CCl)C=C1", 
	 "Tm": 382.15, 
	 "num_atms": 28, 
	 "gaussian": { 
		 "optdone": 1, 
		 "sigma_profile": "yes", 
		 "theory": "DFT", 
		 "functional": "B3LYP", 
		 "basiset": "6-31G**", 
		 "properties": { 
			 "R2extent": 7652.3605, 
			 "electric_dipole_moment_norm": 3.86794669301, 
			 "electric_quadrupole_moment_norm": 15.4355931428, 
			 "total_energy": -1167.04115112, 
			 "HOMO_LUMO_gap": 0.20093, 
			 "cosmo_polarized_energy": -17.02, 
			 "cosmo_cavitation_energy": 34.9, 
			 "cosmo_dispersion_energy": -24.89, 
			 "cosmo_repulsion_energy": 1.96, 
			 "cosmo_total_nonelectrostatic_energy": 11.97, 
			 "SMD_solvation_energy": 7.75 
		},
		"coords": [
			{
				"x": 5.6335385588,
				"y": 4.3434625539,
				"z": -0.5037300338,
				"element": "C" 
			},
			{
				"x": 4.5377210098,
				"y": 3.5093141144,
				"z": -0.0964528189,
				"element": "O" 
			},
			{
				"x": 4.1157982685,
				"y": 2.6200416271,
				"z": -1.0241061998,
				"element": "C" 
			},
			{
				"x": 4.6178195845,
				"y": 2.5216114302,
				"z": -2.1269231511,
				"element": "O" 
			},
			{
				"x": 2.978978586,
				"y": 1.7868515765,
				"z": -0.5388595215,
				"element": "C" 
			},
			{
				"x": 2.4287556655,
				"y": 1.9327788333,
				"z": 0.7407683124,
				"element": "C" 
			},
			{
				"x": 1.3625000149,
				"y": 1.1271383981,
				"z": 1.1349111663,
				"element": "C" 
			},
			{
				"x": 0.8338427438,
				"y": 0.1620226893,
				"z": 0.2691758253,
				"element": "C" 
			},
			{
				"x": -0.2978684754,
				"y": -0.7352552134,
				"z": 0.7378746541,
				"element": "C" 
			},
			{
				"x": -1.2971475131,
				"y": -0.9524898268,
				"z": -0.299576368,
				"element": "N" 
			},
			{
				"x": -1.9982894014,
				"y": -2.0841077617,
				"z": -0.6119615631,
				"element": "C" 
			},
			{
				"x": -2.8694222549,
				"y": -2.0886947004,
				"z": -1.4699385873,
				"element": "O" 
			},
			{
				"x": -1.6339762946,
				"y": -3.3822667989,
				"z": 0.1107397336,
				"element": "C" 
			},
			{
				"x": -2.1072587248,
				"y": -3.3616208234,
				"z": 1.8649719088,
				"element": "Cl" 
			},
			{
				"x": 1.3882555139,
				"y": 0.0227419526,
				"z": -1.0112346102,
				"element": "C" 
			},
			{
				"x": 2.4497248142,
				"y": 0.8269631091,
				"z": -1.4122767755,
				"element": "C" 
			},
			{
				"x": 5.8431876542,
				"y": 4.9902890471,
				"z": 0.348051375,
				"element": "H" 
			},
			{
				"x": 5.3601779165,
				"y": 4.9372868745,
				"z": -1.3795023987,
				"element": "H" 
			},
			{
				"x": 6.508244713,
				"y": 3.7364193869,
				"z": -0.7501586469,
				"element": "H" 
			},
			{
				"x": 2.8316680636,
				"y": 2.6789376868,
				"z": 1.4157422135,
				"element": "H" 
			},
			{
				"x": 0.9341850313,
				"y": 1.2506688162,
				"z": 2.1263814963,
				"element": "H" 
			},
			{
				"x": 0.1071338423,
				"y": -1.705866861,
				"z": 1.0384779565,
				"element": "H" 
			},
			{
				"x": -0.7567894724,
				"y": -0.3077720882,
				"z": 1.6390182182,
				"element": "H" 
			},
			{
				"x": -1.6368967233,
				"y": -0.1337656681,
				"z": -0.7898437556,
				"element": "H" 
			},
			{
				"x": -0.5652783696,
				"y": -3.6029330069,
				"z": 0.0709332158,
				"element": "H" 
			},
			{
				"x": -2.199790142,
				"y": -4.1805595934,
				"z": -0.3633599782,
				"element": "H" 
			},
			{
				"x": 0.9781145775,
				"y": -0.714472606,
				"z": -1.6950794483,
				"element": "H" 
			},
			{
				"x": 2.8864708129,
				"y": 0.728476852,
				"z": -2.4003422188,
				"element": "H" 
			}
		],
		 "valence_orbital": [ 
			{
				"type": "occ",
				"energy": -0.27919,
				"method": "rhf"
			},
			{
				"type": "occ",
				"energy": -0.27529,
				"method": "rhf"
			},
			{
				"type": "occ",
				"energy": -0.26889,
				"method": "rhf"
			},
			{
				"type": "occ",
				"energy": -0.2626,
				"method": "rhf"
			},
			{
				"type": "occ",
				"energy": -0.25594,
				"method": "rhf"
			},
			{
				"type": "unocc",
				"energy": -0.05501,
				"method": "rhf"
			},
			{
				"type": "unocc",
				"energy": -0.02432,
				"method": "rhf"
			},
			{
				"type": "unocc",
				"energy": -0.019,
				"method": "rhf"
			},
			{
				"type": "unocc",
				"energy": 0.04248,
				"method": "rhf"
			},
			{
				"type": "unocc",
				"energy": 0.04838,
				"method": "rhf"
			}
		],
		"cosmo_sigma_profile": { 
			"-0.025": 0.0,
			"-0.024": 0.0,
			"-0.023": 0.0,
			"-0.022": 0.0,
			"-0.021": 0.0,
			"-0.02": 0.0,
			"-0.019": 0.0,
			"-0.018": 0.0,
			"-0.017": 0.0,
			"-0.016": 0.0,
			"-0.015": 0.0,
			"-0.014": 0.728482538959,
			"-0.013": 0.805350880861,
			"-0.012": 0.791951497221,
			"-0.011": 1.12385026946,
			"-0.01": 2.98601199853,
			"-0.009": 3.41331934532,
			"-0.008": 5.23991972948,
			"-0.007": 8.87489999613,
			"-0.006": 18.4394719148,
			"-0.005": 21.7970662048,
			"-0.004": 22.3534600097,
			"-0.003": 19.5670550153,
			"-0.002": 16.3492026839,
			"-0.001": 15.5610037946,
			"0.0": 16.5549800433,
			"0.001": 20.9455038277,
			"0.002": 17.2292559358,
			"0.003": 21.0082948194,
			"0.004": 15.2997084517,
			"0.005": 12.1871801916,
			"0.006": 7.56653361509,
			"0.007": 2.72509326709,
			"0.008": 2.34596765457,
			"0.009": 2.5064891558,
			"0.01": 2.90755196136,
			"0.011": 5.15291750126,
			"0.012": 7.25863300144,
			"0.013": 5.88272773627,
			"0.014": 1.91895988255,
			"0.015": 0.0,
			"0.016": 0.0,
			"0.017": 0.0,
			"0.018": 0.0,
			"0.019": 0.0,
			"0.02": 0.0,
			"0.021": 0.0,
			"0.022": 0.0,
			"0.023": 0.0,
			"0.024": 0.0,
			"0.025": 0.0
		}
	}
}
