{
	 "smiles": "CC1=CC=C(CC(=O)NO)C=C1", 
	 "Tm": 429.15, 
	 "num_atms": 23, 
	 "gaussian": { 
		 "optdone": 1, 
		 "sigma_profile": "yes", 
		 "theory": "DFT", 
		 "functional": "B3LYP", 
		 "basiset": "6-31G**", 
		 "properties": { 
			 "R2extent": 2645.8464, 
			 "electric_dipole_moment_norm": 2.892532712, 
			 "electric_quadrupole_moment_norm": 13.6738046308, 
			 "total_energy": -554.744358185, 
			 "HOMO_LUMO_gap": 0.22157, 
			 "cosmo_polarized_energy": -13.75, 
			 "cosmo_cavitation_energy": 27.23, 
			 "cosmo_dispersion_energy": -19.38, 
			 "cosmo_repulsion_energy": 1.57, 
			 "cosmo_total_nonelectrostatic_energy": 9.42, 
			 "SMD_solvation_energy": 6.13 
		},
		"coords": [
			{
				"x": -1.0808092263,
				"y": 3.1903886666,
				"z": 2.6387747072,
				"element": "C" 
			},
			{
				"x": -0.7617239978,
				"y": 2.024207826,
				"z": 1.7328659425,
				"element": "C" 
			},
			{
				"x": 0.4642921467,
				"y": 1.9403080456,
				"z": 1.0631871367,
				"element": "C" 
			},
			{
				"x": 0.7687316985,
				"y": 0.8482717569,
				"z": 0.2489101605,
				"element": "C" 
			},
			{
				"x": -0.1451983715,
				"y": -0.196625174,
				"z": 0.0848207477,
				"element": "C" 
			},
			{
				"x": 0.175965786,
				"y": -1.3925037149,
				"z": -0.7981691091,
				"element": "C" 
			},
			{
				"x": -0.709203745,
				"y": -1.4114610501,
				"z": -2.0372968972,
				"element": "C" 
			},
			{
				"x": -1.8543269852,
				"y": -1.8328642102,
				"z": -2.042519744,
				"element": "O" 
			},
			{
				"x": -0.1442694578,
				"y": -0.965518688,
				"z": -3.2260587377,
				"element": "N" 
			},
			{
				"x": 0.938445869,
				"y": -0.0630352438,
				"z": -3.1497353116,
				"element": "O" 
			},
			{
				"x": -1.3795627035,
				"y": -0.1138896894,
				"z": 0.7436364824,
				"element": "C" 
			},
			{
				"x": -1.679779109,
				"y": 0.9793254336,
				"z": 1.5527674019,
				"element": "C" 
			},
			{
				"x": -0.4692410625,
				"y": 4.0645874892,
				"z": 2.3966385364,
				"element": "H" 
			},
			{
				"x": -0.8921948057,
				"y": 2.9407765355,
				"z": 3.6906331397,
				"element": "H" 
			},
			{
				"x": -2.1331771894,
				"y": 3.4819225957,
				"z": 2.5610450013,
				"element": "H" 
			},
			{
				"x": 1.1912936885,
				"y": 2.741122953,
				"z": 1.1762967724,
				"element": "H" 
			},
			{
				"x": 1.7222978869,
				"y": 0.8130431717,
				"z": -0.270695722,
				"element": "H" 
			},
			{
				"x": 1.2313992292,
				"y": -1.3828285637,
				"z": -1.0749258378,
				"element": "H" 
			},
			{
				"x": -0.0390376236,
				"y": -2.3227729122,
				"z": -0.2633353621,
				"element": "H" 
			},
			{
				"x": -0.830532573,
				"y": -0.6608330175,
				"z": -3.9114685649,
				"element": "H" 
			},
			{
				"x": 1.6654663549,
				"y": -0.5367929972,
				"z": -3.580895891,
				"element": "H" 
			},
			{
				"x": -2.1100616423,
				"y": -0.9056203054,
				"z": 0.6041758752,
				"element": "H" 
			},
			{
				"x": -2.644374167,
				"y": 1.0234910923,
				"z": 2.0532492734,
				"element": "H" 
			}
		],
		 "valence_orbital": [ 
			{
				"type": "occ",
				"energy": -0.32756,
				"method": "rhf"
			},
			{
				"type": "occ",
				"energy": -0.26859,
				"method": "rhf"
			},
			{
				"type": "occ",
				"energy": -0.25701,
				"method": "rhf"
			},
			{
				"type": "occ",
				"energy": -0.24299,
				"method": "rhf"
			},
			{
				"type": "occ",
				"energy": -0.22724,
				"method": "rhf"
			},
			{
				"type": "unocc",
				"energy": -0.00567,
				"method": "rhf"
			},
			{
				"type": "unocc",
				"energy": 0.00423,
				"method": "rhf"
			},
			{
				"type": "unocc",
				"energy": 0.01869,
				"method": "rhf"
			},
			{
				"type": "unocc",
				"energy": 0.05783,
				"method": "rhf"
			},
			{
				"type": "unocc",
				"energy": 0.09939,
				"method": "rhf"
			}
		],
		"cosmo_sigma_profile": { 
			"-0.025": 0.0,
			"-0.024": 0.0,
			"-0.023": 0.0,
			"-0.022": 0.0,
			"-0.021": 0.0,
			"-0.02": 0.0,
			"-0.019": 0.0,
			"-0.018": 0.328414873873,
			"-0.017": 1.25363941242,
			"-0.016": 0.767801806638,
			"-0.015": 1.23810326152,
			"-0.014": 2.03949185555,
			"-0.013": 1.95665318039,
			"-0.012": 1.21783370881,
			"-0.011": 1.24371390158,
			"-0.01": 2.23283946967,
			"-0.009": 2.28185542762,
			"-0.008": 1.23887467741,
			"-0.007": 1.60316816042,
			"-0.006": 3.41345477555,
			"-0.005": 12.8107524577,
			"-0.004": 19.4823095633,
			"-0.003": 19.5488465891,
			"-0.002": 18.5124028289,
			"-0.001": 15.7039815562,
			"0.0": 17.2371626885,
			"0.001": 11.7767178075,
			"0.002": 9.7427500046,
			"0.003": 9.80254501772,
			"0.004": 12.3485325016,
			"0.005": 11.7869196556,
			"0.006": 11.5866772426,
			"0.007": 4.85571623279,
			"0.008": 2.06702128752,
			"0.009": 2.25804558878,
			"0.01": 3.02475576788,
			"0.011": 2.43215448989,
			"0.012": 3.15123488263,
			"0.013": 4.84052098995,
			"0.014": 0.821245152919,
			"0.015": 0.0,
			"0.016": 0.0,
			"0.017": 0.0,
			"0.018": 0.0,
			"0.019": 0.0,
			"0.02": 0.0,
			"0.021": 0.0,
			"0.022": 0.0,
			"0.023": 0.0,
			"0.024": 0.0,
			"0.025": 0.0
		}
	}
}
