{
	 "smiles": "OC(=O)C1=C(NC(=O)C2=CC=NC=C2)C=CS1", 
	 "Tm": 504.15, 
	 "num_atms": 25, 
	 "gaussian": { 
		 "optdone": 1, 
		 "sigma_profile": "yes", 
		 "theory": "DFT", 
		 "functional": "B3LYP", 
		 "basiset": "6-31G**", 
		 "properties": { 
			 "R2extent": 5697.4207, 
			 "electric_dipole_moment_norm": 0.377452566556, 
			 "electric_quadrupole_moment_norm": 13.7106246867, 
			 "total_energy": -1157.37050297, 
			 "HOMO_LUMO_gap": 0.15912, 
			 "cosmo_polarized_energy": -16.59, 
			 "cosmo_cavitation_energy": 32.16, 
			 "cosmo_dispersion_energy": -24.02, 
			 "cosmo_repulsion_energy": 1.77, 
			 "cosmo_total_nonelectrostatic_energy": 9.91, 
			 "SMD_solvation_energy": 5.61 
		},
		"coords": [
			{
				"x": -0.8334782538,
				"y": 0.6581657495,
				"z": 2.3542564343,
				"element": "O" 
			},
			{
				"x": -2.0589843829,
				"y": 1.2745593804,
				"z": 2.2495701478,
				"element": "C" 
			},
			{
				"x": -2.6802580596,
				"y": 1.6082925483,
				"z": 3.2391984675,
				"element": "O" 
			},
			{
				"x": -2.4864996223,
				"y": 1.4642392281,
				"z": 0.8733775221,
				"element": "C" 
			},
			{
				"x": -1.8695993073,
				"y": 1.1317554918,
				"z": -0.3346602501,
				"element": "C" 
			},
			{
				"x": -0.6285482805,
				"y": 0.5028506818,
				"z": -0.3885123619,
				"element": "N" 
			},
			{
				"x": 0.0718880181,
				"y": 0.1391535327,
				"z": -1.5202955727,
				"element": "C" 
			},
			{
				"x": -0.3029179775,
				"y": 0.3732770747,
				"z": -2.662064088,
				"element": "O" 
			},
			{
				"x": 1.37107118,
				"y": -0.5756113514,
				"z": -1.2559178216,
				"element": "C" 
			},
			{
				"x": 2.3141149263,
				"y": -0.6079195897,
				"z": -2.2880061963,
				"element": "C" 
			},
			{
				"x": 3.52207458,
				"y": -1.2685342328,
				"z": -2.0737434317,
				"element": "C" 
			},
			{
				"x": 3.8362704295,
				"y": -1.8945856863,
				"z": -0.9311433634,
				"element": "N" 
			},
			{
				"x": 2.9211715481,
				"y": -1.8750157757,
				"z": 0.0443406927,
				"element": "C" 
			},
			{
				"x": 1.6847898018,
				"y": -1.2356991847,
				"z": -0.0618177198,
				"element": "C" 
			},
			{
				"x": -2.6579153786,
				"y": 1.5019495748,
				"z": -1.4690277663,
				"element": "C" 
			},
			{
				"x": -3.8339308818,
				"y": 2.0970086297,
				"z": -1.1008527591,
				"element": "C" 
			},
			{
				"x": -4.0307259754,
				"y": 2.2319157099,
				"z": 0.6050848767,
				"element": "S" 
			},
			{
				"x": -0.6515480325,
				"y": 0.5977253436,
				"z": 3.3064977369,
				"element": "H" 
			},
			{
				"x": -0.1921674046,
				"y": 0.3563177752,
				"z": 0.5129716818,
				"element": "H" 
			},
			{
				"x": 2.0901984421,
				"y": -0.1233693456,
				"z": -3.231546325,
				"element": "H" 
			},
			{
				"x": 4.275432228,
				"y": -1.2984157725,
				"z": -2.8584723167,
				"element": "H" 
			},
			{
				"x": 3.1842402625,
				"y": -2.4006948119,
				"z": 0.9604253025,
				"element": "H" 
			},
			{
				"x": 0.9866700793,
				"y": -1.2902401755,
				"z": 0.7681306058,
				"element": "H" 
			},
			{
				"x": -2.3405345999,
				"y": 1.3271082231,
				"z": -2.4854203875,
				"element": "H" 
			},
			{
				"x": -4.6053133391,
				"y": 2.4704669823,
				"z": -1.7608731082,
				"element": "H" 
			}
		],
		 "valence_orbital": [ 
			{
				"type": "occ",
				"energy": -0.28095,
				"method": "rhf"
			},
			{
				"type": "occ",
				"energy": -0.27579,
				"method": "rhf"
			},
			{
				"type": "occ",
				"energy": -0.26661,
				"method": "rhf"
			},
			{
				"type": "occ",
				"energy": -0.2605,
				"method": "rhf"
			},
			{
				"type": "occ",
				"energy": -0.23709,
				"method": "rhf"
			},
			{
				"type": "unocc",
				"energy": -0.07797,
				"method": "rhf"
			},
			{
				"type": "unocc",
				"energy": -0.05126,
				"method": "rhf"
			},
			{
				"type": "unocc",
				"energy": -0.0264,
				"method": "rhf"
			},
			{
				"type": "unocc",
				"energy": 0.01612,
				"method": "rhf"
			},
			{
				"type": "unocc",
				"energy": 0.0191,
				"method": "rhf"
			}
		],
		"cosmo_sigma_profile": { 
			"-0.025": 0.0,
			"-0.024": 0.0,
			"-0.023": 0.0,
			"-0.022": 0.0,
			"-0.021": 0.0,
			"-0.02": 0.0,
			"-0.019": 0.344374243562,
			"-0.018": 0.817076083299,
			"-0.017": 0.882056616251,
			"-0.016": 1.0173429819,
			"-0.015": 0.814800433241,
			"-0.014": 0.577136924054,
			"-0.013": 0.233295546688,
			"-0.012": 0.617829542852,
			"-0.011": 0.867603357705,
			"-0.01": 2.11828409369,
			"-0.009": 3.42228112647,
			"-0.008": 4.75138274011,
			"-0.007": 11.4494799547,
			"-0.006": 14.3492260343,
			"-0.005": 11.9646544163,
			"-0.004": 12.560661606,
			"-0.003": 14.8828366443,
			"-0.002": 17.3980313741,
			"-0.001": 18.9454674391,
			"0.0": 21.725017801,
			"0.001": 33.3460748363,
			"0.002": 23.5988435251,
			"0.003": 14.7845585756,
			"0.004": 6.51028274134,
			"0.005": 5.04238026258,
			"0.006": 4.39390998071,
			"0.007": 3.77720763702,
			"0.008": 4.60100988603,
			"0.009": 4.45096609658,
			"0.01": 5.60984649385,
			"0.011": 7.04375286561,
			"0.012": 5.44865552847,
			"0.013": 1.54612003235,
			"0.014": 0.755988013041,
			"0.015": 0.808410164455,
			"0.016": 0.542080822379,
			"0.017": 0.0367577759054,
			"0.018": 0.0,
			"0.019": 0.0,
			"0.02": 0.0,
			"0.021": 0.0,
			"0.022": 0.0,
			"0.023": 0.0,
			"0.024": 0.0,
			"0.025": 0.0
		}
	}
}
