{
	 "smiles": "CN1C=C(C=N1)C1=CC(CN)=CC=C1", 
	 "Tm": 343.15, 
	 "num_atms": 27, 
	 "gaussian": { 
		 "optdone": 1, 
		 "sigma_profile": "yes", 
		 "theory": "DFT", 
		 "functional": "B3LYP", 
		 "basiset": "6-31G**", 
		 "properties": { 
			 "R2extent": 3943.5815, 
			 "electric_dipole_moment_norm": 1.80601691299, 
			 "electric_quadrupole_moment_norm": 18.6281371141, 
			 "total_energy": -591.240006994, 
			 "HOMO_LUMO_gap": 0.19612, 
			 "cosmo_polarized_energy": -13.43, 
			 "cosmo_cavitation_energy": 30.92, 
			 "cosmo_dispersion_energy": -22.19, 
			 "cosmo_repulsion_energy": 1.75, 
			 "cosmo_total_nonelectrostatic_energy": 10.48, 
			 "SMD_solvation_energy": 3.15 
		},
		"coords": [
			{
				"x": -0.2601225005,
				"y": -1.8753948686,
				"z": -4.4365617484,
				"element": "C" 
			},
			{
				"x": -0.3262052449,
				"y": -0.7441131813,
				"z": -3.5314269043,
				"element": "N" 
			},
			{
				"x": -0.3550083719,
				"y": -0.7605990077,
				"z": -2.1742060578,
				"element": "C" 
			},
			{
				"x": -0.32234793,
				"y": 0.5611134432,
				"z": -1.7432206148,
				"element": "C" 
			},
			{
				"x": -0.267768173,
				"y": 1.2980810856,
				"z": -2.9564327592,
				"element": "C" 
			},
			{
				"x": -0.2697598397,
				"y": 0.5110293758,
				"z": -4.02932299,
				"element": "N" 
			},
			{
				"x": -0.3489455642,
				"y": 1.0703087858,
				"z": -0.3656242516,
				"element": "C" 
			},
			{
				"x": -0.8965729445,
				"y": 0.3096965223,
				"z": 0.6820351487,
				"element": "C" 
			},
			{
				"x": -0.9264807006,
				"y": 0.7774840525,
				"z": 1.999485066,
				"element": "C" 
			},
			{
				"x": -1.4639425294,
				"y": -0.0980841532,
				"z": 3.1188536712,
				"element": "C" 
			},
			{
				"x": -0.4597249783,
				"y": -0.921171815,
				"z": 3.8154979414,
				"element": "N" 
			},
			{
				"x": -0.41101726,
				"y": 2.052300606,
				"z": 2.272318248,
				"element": "C" 
			},
			{
				"x": 0.1311059448,
				"y": 2.8262753316,
				"z": 1.2463196659,
				"element": "C" 
			},
			{
				"x": 0.1692141589,
				"y": 2.3404464016,
				"z": -0.0593220808,
				"element": "C" 
			},
			{
				"x": -0.6511135489,
				"y": -2.7623378821,
				"z": -3.9341607327,
				"element": "H" 
			},
			{
				"x": 0.7700156399,
				"y": -2.065572902,
				"z": -4.7555621665,
				"element": "H" 
			},
			{
				"x": -0.8686720701,
				"y": -1.6576962155,
				"z": -5.3156439086,
				"element": "H" 
			},
			{
				"x": -0.3772525004,
				"y": -1.6893997092,
				"z": -1.6228562086,
				"element": "H" 
			},
			{
				"x": -0.257731598,
				"y": 2.3723498586,
				"z": -3.0844695357,
				"element": "H" 
			},
			{
				"x": -1.3333332555,
				"y": -0.6617669845,
				"z": 0.4595218383,
				"element": "H" 
			},
			{
				"x": -2.2294060516,
				"y": -0.7749274274,
				"z": 2.7222203209,
				"element": "H" 
			},
			{
				"x": -1.9573016533,
				"y": 0.5264679863,
				"z": 3.8724004346,
				"element": "H" 
			},
			{
				"x": 0.0253163811,
				"y": -1.4999756892,
				"z": 3.1318685436,
				"element": "H" 
			},
			{
				"x": 0.2558353577,
				"y": -0.3108206864,
				"z": 4.2066119885,
				"element": "H" 
			},
			{
				"x": -0.4423934924,
				"y": 2.4401010019,
				"z": 3.2881876156,
				"element": "H" 
			},
			{
				"x": 0.5286619608,
				"y": 3.8138909842,
				"z": 1.4638402274,
				"element": "H" 
			},
			{
				"x": 0.6134507643,
				"y": 2.9429150865,
				"z": -0.8459507515,
				"element": "H" 
			}
		],
		 "valence_orbital": [ 
			{
				"type": "occ",
				"energy": -0.27662,
				"method": "rhf"
			},
			{
				"type": "occ",
				"energy": -0.25311,
				"method": "rhf"
			},
			{
				"type": "occ",
				"energy": -0.25017,
				"method": "rhf"
			},
			{
				"type": "occ",
				"energy": -0.22977,
				"method": "rhf"
			},
			{
				"type": "occ",
				"energy": -0.21137,
				"method": "rhf"
			},
			{
				"type": "unocc",
				"energy": -0.01525,
				"method": "rhf"
			},
			{
				"type": "unocc",
				"energy": -0.00181,
				"method": "rhf"
			},
			{
				"type": "unocc",
				"energy": 0.02146,
				"method": "rhf"
			},
			{
				"type": "unocc",
				"energy": 0.08192,
				"method": "rhf"
			},
			{
				"type": "unocc",
				"energy": 0.09103,
				"method": "rhf"
			}
		],
		"cosmo_sigma_profile": { 
			"-0.025": 0.0,
			"-0.024": 0.0,
			"-0.023": 0.0,
			"-0.022": 0.0,
			"-0.021": 0.0,
			"-0.02": 0.0,
			"-0.019": 0.0,
			"-0.018": 0.0,
			"-0.017": 0.0,
			"-0.016": 0.0,
			"-0.015": 0.0,
			"-0.014": 0.0,
			"-0.013": 0.0,
			"-0.012": 0.0,
			"-0.011": 0.0,
			"-0.01": 0.162338671043,
			"-0.009": 3.39275587725,
			"-0.008": 6.02745149679,
			"-0.007": 8.35378826731,
			"-0.006": 14.8506641479,
			"-0.005": 21.5552190767,
			"-0.004": 25.301776237,
			"-0.003": 23.6583135646,
			"-0.002": 14.8935197942,
			"-0.001": 15.0706299558,
			"0.0": 10.95358514,
			"0.001": 10.1898624634,
			"0.002": 11.6687544607,
			"0.003": 12.9677667237,
			"0.004": 15.9554606751,
			"0.005": 16.1561412388,
			"0.006": 10.8822502017,
			"0.007": 3.42704031039,
			"0.008": 2.39206550669,
			"0.009": 2.95684747327,
			"0.01": 1.43100837487,
			"0.011": 1.90030781726,
			"0.012": 1.94741335661,
			"0.013": 1.61971461183,
			"0.014": 2.20702839521,
			"0.015": 1.44459817534,
			"0.016": 1.4915061649,
			"0.017": 0.422968521323,
			"0.018": 0.589494618867,
			"0.019": 0.866598951508,
			"0.02": 0.31166109086,
			"0.021": 0.0,
			"0.022": 0.0,
			"0.023": 0.0,
			"0.024": 0.0,
			"0.025": 0.0
		}
	}
}
