{
	 "smiles": "CC1=C(C(=C(C(C)=C1N(=O)=O)N(=O)=O)C(C)(C)C)N(=O)=O", 
	 "Tm": 383.15, 
	 "num_atms": 36, 
	 "gaussian": { 
		 "optdone": 1, 
		 "sigma_profile": "yes", 
		 "theory": "DFT", 
		 "functional": "B3LYP", 
		 "basiset": "6-31G**", 
		 "properties": { 
			 "R2extent": 5823.7817, 
			 "electric_dipole_moment_norm": 1.19113271721, 
			 "electric_quadrupole_moment_norm": 5.22052022599, 
			 "total_energy": -1081.58977365, 
			 "HOMO_LUMO_gap": 0.17757, 
			 "cosmo_polarized_energy": -11.18, 
			 "cosmo_cavitation_energy": 38.17, 
			 "cosmo_dispersion_energy": -25.93, 
			 "cosmo_repulsion_energy": 1.9, 
			 "cosmo_total_nonelectrostatic_energy": 14.14, 
			 "SMD_solvation_energy": 13.26 
		},
		"coords": [
			{
				"x": -1.2235276743,
				"y": 0.2004407312,
				"z": -3.3968186123,
				"element": "C" 
			},
			{
				"x": -0.4304646938,
				"y": 0.0830301851,
				"z": -2.1145252693,
				"element": "C" 
			},
			{
				"x": -0.7125000008,
				"y": -0.9074629752,
				"z": -1.164204801,
				"element": "C" 
			},
			{
				"x": -0.0330580957,
				"y": -1.1059331622,
				"z": 0.0566879839,
				"element": "C" 
			},
			{
				"x": 0.9652085374,
				"y": -0.1351056404,
				"z": 0.2764136001,
				"element": "C" 
			},
			{
				"x": 1.319087818,
				"y": 0.9051887005,
				"z": -0.5970434218,
				"element": "C" 
			},
			{
				"x": 2.4329669045,
				"y": 1.8673433808,
				"z": -0.2505485687,
				"element": "C" 
			},
			{
				"x": 0.6055306756,
				"y": 0.961839862,
				"z": -1.7940359456,
				"element": "C" 
			},
			{
				"x": 0.9459363436,
				"y": 2.0044823765,
				"z": -2.7845444845,
				"element": "N" 
			},
			{
				"x": 1.3483036923,
				"y": 1.6163171679,
				"z": -3.8770207966,
				"element": "O" 
			},
			{
				"x": 0.7907469557,
				"y": 3.1772092014,
				"z": -2.4536219027,
				"element": "O" 
			},
			{
				"x": 1.7342041499,
				"y": -0.0968232843,
				"z": 1.5442189227,
				"element": "N" 
			},
			{
				"x": 2.8971027003,
				"y": -0.4807695806,
				"z": 1.5111621786,
				"element": "O" 
			},
			{
				"x": 1.1636354182,
				"y": 0.3740384122,
				"z": 2.5247937653,
				"element": "O" 
			},
			{
				"x": -0.3833762278,
				"y": -2.2439853996,
				"z": 1.0731435962,
				"element": "C" 
			},
			{
				"x": -1.4634821791,
				"y": -1.699050671,
				"z": 2.0415066841,
				"element": "C" 
			},
			{
				"x": 0.8463626479,
				"y": -2.7198519724,
				"z": 1.8950487783,
				"element": "C" 
			},
			{
				"x": -0.9179798377,
				"y": -3.5276085461,
				"z": 0.3796829948,
				"element": "C" 
			},
			{
				"x": -1.8745384069,
				"y": -1.745936132,
				"z": -1.5446236018,
				"element": "N" 
			},
			{
				"x": -2.9416773345,
				"y": -1.5044882954,
				"z": -0.9858371835,
				"element": "O" 
			},
			{
				"x": -1.7040340573,
				"y": -2.5736599985,
				"z": -2.4312270757,
				"element": "O" 
			},
			{
				"x": -1.1495910246,
				"y": 1.1992561133,
				"z": -3.8251374094,
				"element": "H" 
			},
			{
				"x": -0.8563840032,
				"y": -0.5121354265,
				"z": -4.1407221069,
				"element": "H" 
			},
			{
				"x": -2.2807859218,
				"y": -0.0094469508,
				"z": -3.2215422824,
				"element": "H" 
			},
			{
				"x": 3.3977952001,
				"y": 1.353256557,
				"z": -0.2736482797,
				"element": "H" 
			},
			{
				"x": 2.2942985575,
				"y": 2.2625895448,
				"z": 0.7599358064,
				"element": "H" 
			},
			{
				"x": 2.4600972883,
				"y": 2.7136971136,
				"z": -0.9319595521,
				"element": "H" 
			},
			{
				"x": -1.0938820549,
				"y": -0.8303273996,
				"z": 2.5918092467,
				"element": "H" 
			},
			{
				"x": -2.3675809559,
				"y": -1.4121720174,
				"z": 1.4990025799,
				"element": "H" 
			},
			{
				"x": -1.7281641706,
				"y": -2.4778747976,
				"z": 2.7646629403,
				"element": "H" 
			},
			{
				"x": 0.5651432389,
				"y": -3.6377855669,
				"z": 2.4166809266,
				"element": "H" 
			},
			{
				"x": 1.1556370848,
				"y": -2.0187573802,
				"z": 2.6676952688,
				"element": "H" 
			},
			{
				"x": 1.7036276604,
				"y": -2.9524810098,
				"z": 1.2573714156,
				"element": "H" 
			},
			{
				"x": -1.9390313645,
				"y": -3.4359344972,
				"z": 0.0147730151,
				"element": "H" 
			},
			{
				"x": -0.9348133775,
				"y": -4.3278898464,
				"z": 1.1233411883,
				"element": "H" 
			},
			{
				"x": -0.2716134927,
				"y": -3.8531087961,
				"z": -0.4400695974,
				"element": "H" 
			}
		],
		 "valence_orbital": [ 
			{
				"type": "occ",
				"energy": -0.32308,
				"method": "rhf"
			},
			{
				"type": "occ",
				"energy": -0.32276,
				"method": "rhf"
			},
			{
				"type": "occ",
				"energy": -0.31651,
				"method": "rhf"
			},
			{
				"type": "occ",
				"energy": -0.28521,
				"method": "rhf"
			},
			{
				"type": "occ",
				"energy": -0.28314,
				"method": "rhf"
			},
			{
				"type": "unocc",
				"energy": -0.10557,
				"method": "rhf"
			},
			{
				"type": "unocc",
				"energy": -0.10195,
				"method": "rhf"
			},
			{
				"type": "unocc",
				"energy": -0.09537,
				"method": "rhf"
			},
			{
				"type": "unocc",
				"energy": -0.05777,
				"method": "rhf"
			},
			{
				"type": "unocc",
				"energy": -0.05125,
				"method": "rhf"
			}
		],
		"cosmo_sigma_profile": { 
			"-0.025": 0.0,
			"-0.024": 0.0,
			"-0.023": 0.0,
			"-0.022": 0.0,
			"-0.021": 0.0,
			"-0.02": 0.0,
			"-0.019": 0.0,
			"-0.018": 0.0,
			"-0.017": 0.0,
			"-0.016": 0.0,
			"-0.015": 0.0,
			"-0.014": 0.0,
			"-0.013": 0.0,
			"-0.012": 0.0,
			"-0.011": 0.0,
			"-0.01": 0.00985083192614,
			"-0.009": 0.646727473691,
			"-0.008": 2.87513223525,
			"-0.007": 5.12446793277,
			"-0.006": 12.9913632831,
			"-0.005": 21.0502539459,
			"-0.004": 26.0804718523,
			"-0.003": 32.1941946571,
			"-0.002": 32.1542048486,
			"-0.001": 31.0802116722,
			"0.0": 28.045629687,
			"0.001": 13.5379972962,
			"0.002": 8.90311691625,
			"0.003": 8.41960893154,
			"0.004": 9.63131108522,
			"0.005": 13.4841913598,
			"0.006": 23.311222662,
			"0.007": 19.461832525,
			"0.008": 10.1755601763,
			"0.009": 2.33218913362,
			"0.01": 0.0,
			"0.011": 0.0,
			"0.012": 0.0,
			"0.013": 0.0,
			"0.014": 0.0,
			"0.015": 0.0,
			"0.016": 0.0,
			"0.017": 0.0,
			"0.018": 0.0,
			"0.019": 0.0,
			"0.02": 0.0,
			"0.021": 0.0,
			"0.022": 0.0,
			"0.023": 0.0,
			"0.024": 0.0,
			"0.025": 0.0
		}
	}
}
