{
	 "smiles": "CC1=NC(O)=NC(C)=C1Br", 
	 "Tm": 484.15, 
	 "num_atms": 17, 
	 "gaussian": { 
		 "optdone": 1, 
		 "sigma_profile": "yes", 
		 "theory": "DFT", 
		 "functional": "B3LYP", 
		 "basiset": "6-31G**", 
		 "properties": { 
			 "R2extent": 2433.8952, 
			 "electric_dipole_moment_norm": 1.74879797861, 
			 "electric_quadrupole_moment_norm": 7.53535353318, 
			 "total_energy": -2989.00788704, 
			 "HOMO_LUMO_gap": 0.20235, 
			 "cosmo_polarized_energy": -8.71, 
			 "cosmo_cavitation_energy": 23.16, 
			 "cosmo_dispersion_energy": -17.68, 
			 "cosmo_repulsion_energy": 1.43, 
			 "cosmo_total_nonelectrostatic_energy": 6.91, 
			 "SMD_solvation_energy": 0.92 
		},
		"coords": [
			{
				"x": -1.0494526409,
				"y": -2.4097431984,
				"z": 0.8508717228,
				"element": "C" 
			},
			{
				"x": -0.6214428548,
				"y": -1.0051152303,
				"z": 0.5353049998,
				"element": "C" 
			},
			{
				"x": -1.5371487801,
				"y": -0.1975335013,
				"z": -0.0202400442,
				"element": "N" 
			},
			{
				"x": -1.1517407411,
				"y": 1.0515603263,
				"z": -0.2993242074,
				"element": "C" 
			},
			{
				"x": -2.0719253768,
				"y": 1.8575668015,
				"z": -0.8558025092,
				"element": "O" 
			},
			{
				"x": 0.043430372,
				"y": 1.5999341843,
				"z": -0.0913704911,
				"element": "N" 
			},
			{
				"x": 0.9748259536,
				"y": 0.8116435695,
				"z": 0.462991323,
				"element": "C" 
			},
			{
				"x": 2.3266920777,
				"y": 1.4218386911,
				"z": 0.7014325811,
				"element": "C" 
			},
			{
				"x": 0.6667585967,
				"y": -0.5175453011,
				"z": 0.7927534771,
				"element": "C" 
			},
			{
				"x": 1.9860614189,
				"y": -1.6503013525,
				"z": 1.5831674538,
				"element": "Br" 
			},
			{
				"x": -2.0913962533,
				"y": -2.5429190164,
				"z": 0.5584987565,
				"element": "H" 
			},
			{
				"x": -0.9400173048,
				"y": -2.6203198438,
				"z": 1.9197594406,
				"element": "H" 
			},
			{
				"x": -0.4253348563,
				"y": -3.1364573698,
				"z": 0.3205838091,
				"element": "H" 
			},
			{
				"x": -2.8781471014,
				"y": 1.3262240354,
				"z": -0.9439521519,
				"element": "H" 
			},
			{
				"x": 2.3148892856,
				"y": 2.4581328638,
				"z": 0.3633074679,
				"element": "H" 
			},
			{
				"x": 2.5898313435,
				"y": 1.3853992692,
				"z": 1.7637284699,
				"element": "H" 
			},
			{
				"x": 3.1048168615,
				"y": 0.8694350726,
				"z": 0.1643899024,
				"element": "H" 
			}
		],
		 "valence_orbital": [ 
			{
				"type": "occ",
				"energy": -0.31767,
				"method": "rhf"
			},
			{
				"type": "occ",
				"energy": -0.31011,
				"method": "rhf"
			},
			{
				"type": "occ",
				"energy": -0.3046,
				"method": "rhf"
			},
			{
				"type": "occ",
				"energy": -0.25675,
				"method": "rhf"
			},
			{
				"type": "occ",
				"energy": -0.24319,
				"method": "rhf"
			},
			{
				"type": "unocc",
				"energy": -0.04084,
				"method": "rhf"
			},
			{
				"type": "unocc",
				"energy": -0.01712,
				"method": "rhf"
			},
			{
				"type": "unocc",
				"energy": 0.00265,
				"method": "rhf"
			},
			{
				"type": "unocc",
				"energy": 0.08741,
				"method": "rhf"
			},
			{
				"type": "unocc",
				"energy": 0.11544,
				"method": "rhf"
			}
		],
		"cosmo_sigma_profile": { 
			"-0.025": 0.0,
			"-0.024": 0.0,
			"-0.023": 0.0,
			"-0.022": 0.0,
			"-0.021": 0.0,
			"-0.02": 0.0,
			"-0.019": 0.0,
			"-0.018": 0.228932268581,
			"-0.017": 1.04978279022,
			"-0.016": 0.695629357038,
			"-0.015": 0.610271599279,
			"-0.014": 0.758676882724,
			"-0.013": 0.650392484366,
			"-0.012": 0.469980164486,
			"-0.011": 0.641238781814,
			"-0.01": 1.05457709407,
			"-0.009": 0.673647470818,
			"-0.008": 0.248133864518,
			"-0.007": 1.0221519265,
			"-0.006": 2.84070819458,
			"-0.005": 10.8610426282,
			"-0.004": 13.1472455622,
			"-0.003": 17.0111120536,
			"-0.002": 24.4478987083,
			"-0.001": 25.4871937548,
			"0.0": 14.8649814308,
			"0.001": 10.4935900987,
			"0.002": 10.8067023956,
			"0.003": 12.5389290988,
			"0.004": 8.952648104,
			"0.005": 3.8651919854,
			"0.006": 2.66129400269,
			"0.007": 3.35192388943,
			"0.008": 3.15477653631,
			"0.009": 2.91456158215,
			"0.01": 3.9527878491,
			"0.011": 4.02784264054,
			"0.012": 1.42200912803,
			"0.013": 0.855953956805,
			"0.014": 1.22851210874,
			"0.015": 0.18923342286,
			"0.016": 0.0,
			"0.017": 0.0,
			"0.018": 0.0,
			"0.019": 0.0,
			"0.02": 0.0,
			"0.021": 0.0,
			"0.022": 0.0,
			"0.023": 0.0,
			"0.024": 0.0,
			"0.025": 0.0
		}
	}
}
