{
	 "smiles": "CC1=NC2=C(C=CC=C2)C(=C1)C(N)=O", 
	 "Tm": 520.15, 
	 "num_atms": 24, 
	 "gaussian": { 
		 "optdone": 1, 
		 "sigma_profile": "yes", 
		 "theory": "DFT", 
		 "functional": "B3LYP", 
		 "basiset": "6-31G**", 
		 "properties": { 
			 "R2extent": 3336.5899, 
			 "electric_dipole_moment_norm": 3.29206911379, 
			 "electric_quadrupole_moment_norm": 19.7618700714, 
			 "total_energy": -609.955896461, 
			 "HOMO_LUMO_gap": 0.16781, 
			 "cosmo_polarized_energy": -14.88, 
			 "cosmo_cavitation_energy": 27.93, 
			 "cosmo_dispersion_energy": -20.71, 
			 "cosmo_repulsion_energy": 1.63, 
			 "cosmo_total_nonelectrostatic_energy": 8.85, 
			 "SMD_solvation_energy": 4.02 
		},
		"coords": [
			{
				"x": -3.7079250872,
				"y": -2.1889221255,
				"z": 0.491897165,
				"element": "C" 
			},
			{
				"x": -2.6570209032,
				"y": -1.2436745202,
				"z": -0.0355211684,
				"element": "C" 
			},
			{
				"x": -2.9037594768,
				"y": 0.0495755987,
				"z": 0.0326189806,
				"element": "N" 
			},
			{
				"x": -1.972438267,
				"y": 0.9227024944,
				"z": -0.4565658986,
				"element": "C" 
			},
			{
				"x": -0.736250388,
				"y": 0.504806422,
				"z": -1.0502543037,
				"element": "C" 
			},
			{
				"x": 0.1600969945,
				"y": 1.4955155056,
				"z": -1.535005307,
				"element": "C" 
			},
			{
				"x": -0.156383233,
				"y": 2.8326176344,
				"z": -1.428719896,
				"element": "C" 
			},
			{
				"x": -1.3750486512,
				"y": 3.2445911865,
				"z": -0.8391989461,
				"element": "C" 
			},
			{
				"x": -2.2650508072,
				"y": 2.3085193267,
				"z": -0.3640114045,
				"element": "C" 
			},
			{
				"x": -0.4874458297,
				"y": -0.9052016161,
				"z": -1.0869347263,
				"element": "C" 
			},
			{
				"x": -1.4480932227,
				"y": -1.7575173562,
				"z": -0.5844976911,
				"element": "C" 
			},
			{
				"x": 0.7775167004,
				"y": -1.4669297372,
				"z": -1.6878206986,
				"element": "C" 
			},
			{
				"x": 1.2695922298,
				"y": -2.5806595532,
				"z": -1.0553127872,
				"element": "N" 
			},
			{
				"x": 1.3157162591,
				"y": -0.9979837343,
				"z": -2.6827602427,
				"element": "O" 
			},
			{
				"x": -3.3056466844,
				"y": -2.8274775524,
				"z": 1.2872412391,
				"element": "H" 
			},
			{
				"x": -4.0738081371,
				"y": -2.8529616343,
				"z": -0.3001066755,
				"element": "H" 
			},
			{
				"x": -4.5484145184,
				"y": -1.6179799484,
				"z": 0.8887024102,
				"element": "H" 
			},
			{
				"x": 1.0818683638,
				"y": 1.1805990656,
				"z": -2.0069514716,
				"element": "H" 
			},
			{
				"x": 0.5361779255,
				"y": 3.5794697511,
				"z": -1.8059643748,
				"element": "H" 
			},
			{
				"x": -1.606391745,
				"y": 4.3033817175,
				"z": -0.7651853497,
				"element": "H" 
			},
			{
				"x": -3.2087112895,
				"y": 2.5895328165,
				"z": 0.0917710154,
				"element": "H" 
			},
			{
				"x": -1.3041200754,
				"y": -2.8329749671,
				"z": -0.6312664086,
				"element": "H" 
			},
			{
				"x": 0.9949039468,
				"y": -2.8062198177,
				"z": -0.1125386136,
				"element": "H" 
			},
			{
				"x": 2.1572358959,
				"y": -2.9284089564,
				"z": -1.3882148462,
				"element": "H" 
			}
		],
		 "valence_orbital": [ 
			{
				"type": "occ",
				"energy": -0.27923,
				"method": "rhf"
			},
			{
				"type": "occ",
				"energy": -0.26618,
				"method": "rhf"
			},
			{
				"type": "occ",
				"energy": -0.24824,
				"method": "rhf"
			},
			{
				"type": "occ",
				"energy": -0.24627,
				"method": "rhf"
			},
			{
				"type": "occ",
				"energy": -0.22995,
				"method": "rhf"
			},
			{
				"type": "unocc",
				"energy": -0.06214,
				"method": "rhf"
			},
			{
				"type": "unocc",
				"energy": -0.01782,
				"method": "rhf"
			},
			{
				"type": "unocc",
				"energy": 0.00238,
				"method": "rhf"
			},
			{
				"type": "unocc",
				"energy": 0.04885,
				"method": "rhf"
			},
			{
				"type": "unocc",
				"energy": 0.07875,
				"method": "rhf"
			}
		],
		"cosmo_sigma_profile": { 
			"-0.025": 0.0,
			"-0.024": 0.0,
			"-0.023": 0.0,
			"-0.022": 0.0,
			"-0.021": 0.0,
			"-0.02": 0.0,
			"-0.019": 0.0,
			"-0.018": 0.0,
			"-0.017": 0.0,
			"-0.016": 0.0,
			"-0.015": 0.296691400055,
			"-0.014": 1.70005763047,
			"-0.013": 2.40828517983,
			"-0.012": 2.80014319345,
			"-0.011": 1.75315989068,
			"-0.01": 2.48667099748,
			"-0.009": 2.84786831581,
			"-0.008": 2.26339164814,
			"-0.007": 3.61448520536,
			"-0.006": 7.93175515876,
			"-0.005": 12.7501817873,
			"-0.004": 17.7692979925,
			"-0.003": 16.1015981238,
			"-0.002": 15.307171289,
			"-0.001": 16.895103545,
			"0.0": 18.3693607529,
			"0.001": 15.7722716781,
			"0.002": 14.9362431645,
			"0.003": 14.8214716079,
			"0.004": 16.0345509311,
			"0.005": 7.1890673035,
			"0.006": 3.54165970307,
			"0.007": 3.29176866411,
			"0.008": 3.52196766417,
			"0.009": 2.65251944383,
			"0.01": 1.9602204705,
			"0.011": 2.07435444144,
			"0.012": 3.55487099384,
			"0.013": 5.83782411974,
			"0.014": 2.05434419013,
			"0.015": 0.48394046652,
			"0.016": 0.0,
			"0.017": 0.0,
			"0.018": 0.0,
			"0.019": 0.0,
			"0.02": 0.0,
			"0.021": 0.0,
			"0.022": 0.0,
			"0.023": 0.0,
			"0.024": 0.0,
			"0.025": 0.0
		}
	}
}
