{
	 "smiles": "OC(=O)COC1=CC=CC=C1", 
	 "Tm": 372.35, 
	 "num_atms": 19, 
	 "gaussian": { 
		 "optdone": 1, 
		 "sigma_profile": "yes", 
		 "theory": "DFT", 
		 "functional": "B3LYP", 
		 "basiset": "6-31G**", 
		 "properties": { 
			 "R2extent": 2487.5147, 
			 "electric_dipole_moment_norm": 4.4659181945, 
			 "electric_quadrupole_moment_norm": 21.2449071318, 
			 "total_energy": -535.339706536, 
			 "HOMO_LUMO_gap": 0.22286, 
			 "cosmo_polarized_energy": -12.33, 
			 "cosmo_cavitation_energy": 23.6, 
			 "cosmo_dispersion_energy": -17.54, 
			 "cosmo_repulsion_energy": 1.42, 
			 "cosmo_total_nonelectrostatic_energy": 7.47, 
			 "SMD_solvation_energy": 5.71 
		},
		"coords": [
			{
				"x": -3.6967181244,
				"y": -0.2960964809,
				"z": -1.1427269516,
				"element": "O" 
			},
			{
				"x": -3.6556727911,
				"y": -0.3489898564,
				"z": 0.1981285273,
				"element": "C" 
			},
			{
				"x": -4.6310189877,
				"y": -0.5336575105,
				"z": 0.8815996288,
				"element": "O" 
			},
			{
				"x": -2.272786857,
				"y": -0.1567433083,
				"z": 0.8239109028,
				"element": "C" 
			},
			{
				"x": -1.3219930236,
				"y": 0.0404292619,
				"z": -0.2138251592,
				"element": "O" 
			},
			{
				"x": 0.0023204554,
				"y": 0.2365497246,
				"z": 0.108853904,
				"element": "C" 
			},
			{
				"x": 0.8703160769,
				"y": 0.4230387427,
				"z": -0.9735778774,
				"element": "C" 
			},
			{
				"x": 2.2264380221,
				"y": 0.6283437813,
				"z": -0.7414309771,
				"element": "C" 
			},
			{
				"x": 2.7279790574,
				"y": 0.6496873206,
				"z": 0.5641516093,
				"element": "C" 
			},
			{
				"x": 1.8554777111,
				"y": 0.4630255466,
				"z": 1.6337476291,
				"element": "C" 
			},
			{
				"x": 0.4889383837,
				"y": 0.2553158868,
				"z": 1.418431604,
				"element": "C" 
			},
			{
				"x": -2.7903802994,
				"y": -0.1380462313,
				"z": -1.4627831467,
				"element": "H" 
			},
			{
				"x": -2.0389962835,
				"y": -1.0473274589,
				"z": 1.4201872327,
				"element": "H" 
			},
			{
				"x": -2.3180475954,
				"y": 0.7075567205,
				"z": 1.4979133263,
				"element": "H" 
			},
			{
				"x": 0.4659794941,
				"y": 0.403830022,
				"z": -1.980538135,
				"element": "H" 
			},
			{
				"x": 2.8948598152,
				"y": 0.772417362,
				"z": -1.5852388209,
				"element": "H" 
			},
			{
				"x": 3.7865276438,
				"y": 0.8100882292,
				"z": 0.7419408431,
				"element": "H" 
			},
			{
				"x": 2.2311704531,
				"y": 0.477148486,
				"z": 2.6527333659,
				"element": "H" 
			},
			{
				"x": -0.1716931508,
				"y": 0.1123297621,
				"z": 2.2653224948,
				"element": "H" 
			}
		],
		 "valence_orbital": [ 
			{
				"type": "occ",
				"energy": -0.34245,
				"method": "rhf"
			},
			{
				"type": "occ",
				"energy": -0.31448,
				"method": "rhf"
			},
			{
				"type": "occ",
				"energy": -0.27675,
				"method": "rhf"
			},
			{
				"type": "occ",
				"energy": -0.26568,
				"method": "rhf"
			},
			{
				"type": "occ",
				"energy": -0.24009,
				"method": "rhf"
			},
			{
				"type": "unocc",
				"energy": -0.01723,
				"method": "rhf"
			},
			{
				"type": "unocc",
				"energy": -0.00455,
				"method": "rhf"
			},
			{
				"type": "unocc",
				"energy": 0.009,
				"method": "rhf"
			},
			{
				"type": "unocc",
				"energy": 0.0749,
				"method": "rhf"
			},
			{
				"type": "unocc",
				"energy": 0.07971,
				"method": "rhf"
			}
		],
		"cosmo_sigma_profile": { 
			"-0.025": 0.0,
			"-0.024": 0.0,
			"-0.023": 0.0,
			"-0.022": 0.0,
			"-0.021": 0.0,
			"-0.02": 0.0,
			"-0.019": 0.0,
			"-0.018": 0.0,
			"-0.017": 0.0,
			"-0.016": 0.0,
			"-0.015": 0.366566392962,
			"-0.014": 0.319607489925,
			"-0.013": 0.503890936236,
			"-0.012": 0.861792472131,
			"-0.011": 0.960806890759,
			"-0.01": 0.465630929135,
			"-0.009": 1.27328872411,
			"-0.008": 10.1795956624,
			"-0.007": 8.98414071106,
			"-0.006": 12.3449424967,
			"-0.005": 14.8050845643,
			"-0.004": 12.7878420048,
			"-0.003": 12.7088754968,
			"-0.002": 8.29722721168,
			"-0.001": 9.75334309516,
			"0.0": 8.76845613984,
			"0.001": 8.24853418116,
			"0.002": 9.88024499138,
			"0.003": 12.3999869256,
			"0.004": 11.1840592108,
			"0.005": 11.663982618,
			"0.006": 6.61529878068,
			"0.007": 2.34484736119,
			"0.008": 2.83697715837,
			"0.009": 4.15642732743,
			"0.01": 4.9113082378,
			"0.011": 4.55060363662,
			"0.012": 5.18523493809,
			"0.013": 1.10368513086,
			"0.014": 0.0,
			"0.015": 0.0,
			"0.016": 0.0,
			"0.017": 0.0,
			"0.018": 0.0,
			"0.019": 0.0,
			"0.02": 0.0,
			"0.021": 0.0,
			"0.022": 0.0,
			"0.023": 0.0,
			"0.024": 0.0,
			"0.025": 0.0
		}
	}
}
