{
	 "smiles": "CC(C)C1=NNC(=N1)C1=C(N)C=CC=C1", 
	 "Tm": 399.15, 
	 "num_atms": 29, 
	 "gaussian": { 
		 "optdone": 1, 
		 "sigma_profile": "yes", 
		 "theory": "DFT", 
		 "functional": "B3LYP", 
		 "basiset": "6-31G**", 
		 "properties": { 
			 "R2extent": 4068.781, 
			 "electric_dipole_moment_norm": 3.65237994875, 
			 "electric_quadrupole_moment_norm": 9.4927416556, 
			 "total_energy": -646.631743986, 
			 "HOMO_LUMO_gap": 0.18329, 
			 "cosmo_polarized_energy": -14.15, 
			 "cosmo_cavitation_energy": 32.07, 
			 "cosmo_dispersion_energy": -23.37, 
			 "cosmo_repulsion_energy": 1.85, 
			 "cosmo_total_nonelectrostatic_energy": 10.55, 
			 "SMD_solvation_energy": 3.18 
		},
		"coords": [
			{
				"x": -3.9932196012,
				"y": 2.0810148018,
				"z": 0.342575439,
				"element": "C" 
			},
			{
				"x": -3.2719999821,
				"y": 1.6152072423,
				"z": 1.6204516119,
				"element": "C" 
			},
			{
				"x": -2.8561735573,
				"y": 2.8142580743,
				"z": 2.492292391,
				"element": "C" 
			},
			{
				"x": -2.0804945309,
				"y": 0.7625384053,
				"z": 1.2804998874,
				"element": "C" 
			},
			{
				"x": -1.9703796487,
				"y": -0.5019683798,
				"z": 1.676821485,
				"element": "N" 
			},
			{
				"x": -0.759830817,
				"y": -0.8565375101,
				"z": 1.1739409912,
				"element": "N" 
			},
			{
				"x": -0.2019484418,
				"y": 0.1757191633,
				"z": 0.4868001184,
				"element": "C" 
			},
			{
				"x": -1.0222671206,
				"y": 1.221017916,
				"z": 0.5487830573,
				"element": "N" 
			},
			{
				"x": 1.0665196734,
				"y": 0.1189215241,
				"z": -0.2481422085,
				"element": "C" 
			},
			{
				"x": 2.0432748722,
				"y": -0.8797591266,
				"z": -0.020976704,
				"element": "C" 
			},
			{
				"x": 1.8542193483,
				"y": -1.8556458345,
				"z": 0.9875183322,
				"element": "N" 
			},
			{
				"x": 3.1854966208,
				"y": -0.9103077435,
				"z": -0.8320569765,
				"element": "C" 
			},
			{
				"x": 3.3798154231,
				"y": 0.0370124505,
				"z": -1.8341579749,
				"element": "C" 
			},
			{
				"x": 2.4401216595,
				"y": 1.0516224399,
				"z": -2.0309143411,
				"element": "C" 
			},
			{
				"x": 1.2965437819,
				"y": 1.0854014472,
				"z": -1.2403214163,
				"element": "C" 
			},
			{
				"x": -3.3208932941,
				"y": 2.6803566412,
				"z": -0.2791147917,
				"element": "H" 
			},
			{
				"x": -4.866176769,
				"y": 2.6926165162,
				"z": 0.594518762,
				"element": "H" 
			},
			{
				"x": -4.33474195,
				"y": 1.2286756925,
				"z": -0.2532445882,
				"element": "H" 
			},
			{
				"x": -3.9514103499,
				"y": 0.9775254627,
				"z": 2.1978232693,
				"element": "H" 
			},
			{
				"x": -3.7282389228,
				"y": 3.4260941137,
				"z": 2.7469051944,
				"element": "H" 
			},
			{
				"x": -2.1375233146,
				"y": 3.44405147,
				"z": 1.9587228163,
				"element": "H" 
			},
			{
				"x": -2.388621703,
				"y": 2.4831634344,
				"z": 3.42508295,
				"element": "H" 
			},
			{
				"x": -0.4191147769,
				"y": -1.8069493694,
				"z": 1.2290232733,
				"element": "H" 
			},
			{
				"x": 1.6380842151,
				"y": -1.4456010717,
				"z": 1.8919557183,
				"element": "H" 
			},
			{
				"x": 2.659088826,
				"y": -2.4643095822,
				"z": 1.0845003365,
				"element": "H" 
			},
			{
				"x": 3.9331250483,
				"y": -1.6813060376,
				"z": -0.6599902332,
				"element": "H" 
			},
			{
				"x": 4.2739764567,
				"y": -0.0102180193,
				"z": -2.4489519405,
				"element": "H" 
			},
			{
				"x": 2.5924096309,
				"y": 1.8018710223,
				"z": -2.8002466374,
				"element": "H" 
			},
			{
				"x": 0.5410592236,
				"y": 1.8508348571,
				"z": -1.3808978214,
				"element": "H" 
			}
		],
		 "valence_orbital": [ 
			{
				"type": "occ",
				"energy": -0.29366,
				"method": "rhf"
			},
			{
				"type": "occ",
				"energy": -0.26929,
				"method": "rhf"
			},
			{
				"type": "occ",
				"energy": -0.26358,
				"method": "rhf"
			},
			{
				"type": "occ",
				"energy": -0.23749,
				"method": "rhf"
			},
			{
				"type": "occ",
				"energy": -0.21597,
				"method": "rhf"
			},
			{
				"type": "unocc",
				"energy": -0.03268,
				"method": "rhf"
			},
			{
				"type": "unocc",
				"energy": 0.00104,
				"method": "rhf"
			},
			{
				"type": "unocc",
				"energy": 0.04191,
				"method": "rhf"
			},
			{
				"type": "unocc",
				"energy": 0.06759,
				"method": "rhf"
			},
			{
				"type": "unocc",
				"energy": 0.07591,
				"method": "rhf"
			}
		],
		"cosmo_sigma_profile": { 
			"-0.025": 0.0,
			"-0.024": 0.0,
			"-0.023": 0.0,
			"-0.022": 0.0,
			"-0.021": 0.0,
			"-0.02": 0.0,
			"-0.019": 0.0,
			"-0.018": 0.0,
			"-0.017": 0.0,
			"-0.016": 0.0,
			"-0.015": 0.0,
			"-0.014": 0.348001287411,
			"-0.013": 1.58358490141,
			"-0.012": 3.04852763592,
			"-0.011": 4.40272222502,
			"-0.01": 4.57836721094,
			"-0.009": 4.58493558754,
			"-0.008": 3.4423017872,
			"-0.007": 3.76893711734,
			"-0.006": 6.02781726659,
			"-0.005": 7.60638141748,
			"-0.004": 11.7195169644,
			"-0.003": 19.8233597629,
			"-0.002": 20.8108504633,
			"-0.001": 24.0830291112,
			"0.0": 22.6443639081,
			"0.001": 26.756289792,
			"0.002": 15.4075396893,
			"0.003": 14.7552751166,
			"0.004": 14.8230133649,
			"0.005": 14.8099016077,
			"0.006": 6.68776569439,
			"0.007": 3.49017328712,
			"0.008": 3.37020492884,
			"0.009": 3.51916910474,
			"0.01": 2.45203573032,
			"0.011": 2.47611381034,
			"0.012": 1.41902112905,
			"0.013": 1.92299406948,
			"0.014": 1.32203602168,
			"0.015": 1.2810245299,
			"0.016": 0.430935956784,
			"0.017": 0.0,
			"0.018": 0.0,
			"0.019": 0.0,
			"0.02": 0.0,
			"0.021": 0.0,
			"0.022": 0.0,
			"0.023": 0.0,
			"0.024": 0.0,
			"0.025": 0.0
		}
	}
}
