{
	 "smiles": "O=C(NC1=CC=C2C=C(OC(=O)C3=CC=CC=C3)C=CC2=C1)C1=CC=CC=C1", 
	 "Tm": 499.15, 
	 "num_atms": 45, 
	 "gaussian": { 
		 "optdone": 1, 
		 "sigma_profile": "yes", 
		 "theory": "DFT", 
		 "functional": "B3LYP", 
		 "basiset": "6-31G**", 
		 "properties": { 
			 "R2extent": 18161.9356, 
			 "electric_dipole_moment_norm": 4.23884405115, 
			 "electric_quadrupole_moment_norm": 16.5960357842, 
			 "total_energy": -1205.26063953, 
			 "HOMO_LUMO_gap": 0.1554, 
			 "cosmo_polarized_energy": -17.69, 
			 "cosmo_cavitation_energy": 50.92, 
			 "cosmo_dispersion_energy": -35.49, 
			 "cosmo_repulsion_energy": 2.64, 
			 "cosmo_total_nonelectrostatic_energy": 18.07, 
			 "SMD_solvation_energy": 9.66 
		},
		"coords": [
			{
				"x": 2.8326696096,
				"y": 5.3463036158,
				"z": 1.3045944732,
				"element": "O" 
			},
			{
				"x": 1.9102172812,
				"y": 4.6261685507,
				"z": 0.9391366772,
				"element": "C" 
			},
			{
				"x": 1.2300371361,
				"y": 3.8636761903,
				"z": 1.8790135525,
				"element": "N" 
			},
			{
				"x": 0.5066819271,
				"y": 2.6530541473,
				"z": 1.751048231,
				"element": "C" 
			},
			{
				"x": -0.4934654355,
				"y": 2.3852522895,
				"z": 2.7274526632,
				"element": "C" 
			},
			{
				"x": -1.2171620362,
				"y": 1.2180904038,
				"z": 2.6903515582,
				"element": "C" 
			},
			{
				"x": -1.0019407762,
				"y": 0.2568497388,
				"z": 1.6665286474,
				"element": "C" 
			},
			{
				"x": -1.743943271,
				"y": -0.9494868206,
				"z": 1.5898909109,
				"element": "C" 
			},
			{
				"x": -1.4925502744,
				"y": -1.850110402,
				"z": 0.5831146998,
				"element": "C" 
			},
			{
				"x": -2.1966532102,
				"y": -3.0540111332,
				"z": 0.6209465328,
				"element": "O" 
			},
			{
				"x": -2.8299128072,
				"y": -3.5156969621,
				"z": -0.504193083,
				"element": "C" 
			},
			{
				"x": -2.8367370809,
				"y": -2.9240121249,
				"z": -1.5608348338,
				"element": "O" 
			},
			{
				"x": -3.5014387099,
				"y": -4.8200474479,
				"z": -0.2549831493,
				"element": "C" 
			},
			{
				"x": -3.4461889121,
				"y": -5.4753308822,
				"z": 0.9837198338,
				"element": "C" 
			},
			{
				"x": -4.0956369551,
				"y": -6.6971856591,
				"z": 1.1510490251,
				"element": "C" 
			},
			{
				"x": -4.8008706124,
				"y": -7.268250657,
				"z": 0.0887501912,
				"element": "C" 
			},
			{
				"x": -4.8575881325,
				"y": -6.6166506737,
				"z": -1.1464810894,
				"element": "C" 
			},
			{
				"x": -4.2097808407,
				"y": -5.3965085342,
				"z": -1.3192263624,
				"element": "C" 
			},
			{
				"x": -0.4949206657,
				"y": -1.6088007494,
				"z": -0.3918109397,
				"element": "C" 
			},
			{
				"x": 0.2312527509,
				"y": -0.442430667,
				"z": -0.3359825587,
				"element": "C" 
			},
			{
				"x": 0.0036509828,
				"y": 0.5242133826,
				"z": 0.6821603024,
				"element": "C" 
			},
			{
				"x": 0.7577784022,
				"y": 1.7227383543,
				"z": 0.7600773604,
				"element": "C" 
			},
			{
				"x": 1.4517949041,
				"y": 4.6203016117,
				"z": -0.488307348,
				"element": "C" 
			},
			{
				"x": 0.1063922858,
				"y": 4.4811213024,
				"z": -0.858673932,
				"element": "C" 
			},
			{
				"x": -0.2635513356,
				"y": 4.5798699081,
				"z": -2.1994333609,
				"element": "C" 
			},
			{
				"x": 0.7051028683,
				"y": 4.8066426353,
				"z": -3.1799289202,
				"element": "C" 
			},
			{
				"x": 2.0455178085,
				"y": 4.9552197963,
				"z": -2.815074607,
				"element": "C" 
			},
			{
				"x": 2.4150734151,
				"y": 4.8766509123,
				"z": -1.4739988805,
				"element": "C" 
			},
			{
				"x": 1.5383783253,
				"y": 4.0956447819,
				"z": 2.8164998659,
				"element": "H" 
			},
			{
				"x": -0.6821464459,
				"y": 3.1251731187,
				"z": 3.5003771434,
				"element": "H" 
			},
			{
				"x": -1.9760079021,
				"y": 1.0250996494,
				"z": 3.4437813348,
				"element": "H" 
			},
			{
				"x": -2.5096057255,
				"y": -1.1693196285,
				"z": 2.3273517529,
				"element": "H" 
			},
			{
				"x": -2.8974193431,
				"y": -5.0262259459,
				"z": 1.80319369,
				"element": "H" 
			},
			{
				"x": -4.0518424782,
				"y": -7.2045614411,
				"z": 2.110186233,
				"element": "H" 
			},
			{
				"x": -5.3059533378,
				"y": -8.2205582489,
				"z": 0.223394124,
				"element": "H" 
			},
			{
				"x": -5.4057956106,
				"y": -7.0606346684,
				"z": -1.972030441,
				"element": "H" 
			},
			{
				"x": -4.23825604,
				"y": -4.8718362722,
				"z": -2.2681707766,
				"element": "H" 
			},
			{
				"x": -0.3208157548,
				"y": -2.3368069236,
				"z": -1.173898288,
				"element": "H" 
			},
			{
				"x": 0.9963871978,
				"y": -0.2472550829,
				"z": -1.0821488802,
				"element": "H" 
			},
			{
				"x": 1.5379218634,
				"y": 1.8998837776,
				"z": 0.0279447457,
				"element": "H" 
			},
			{
				"x": -0.6506419415,
				"y": 4.3100623382,
				"z": -0.1011155916,
				"element": "H" 
			},
			{
				"x": -1.3083923656,
				"y": 4.4807324555,
				"z": -2.4785270486,
				"element": "H" 
			},
			{
				"x": 0.4146113786,
				"y": 4.8748561389,
				"z": -4.2244550671,
				"element": "H" 
			},
			{
				"x": 2.7996247795,
				"y": 5.1418319544,
				"z": -3.5740981251,
				"element": "H" 
			},
			{
				"x": 3.4458250841,
				"y": 5.0199838708,
				"z": -1.1673902652,
				"element": "H" 
			}
		],
		 "valence_orbital": [ 
			{
				"type": "occ",
				"energy": -0.26316,
				"method": "rhf"
			},
			{
				"type": "occ",
				"energy": -0.25636,
				"method": "rhf"
			},
			{
				"type": "occ",
				"energy": -0.2469,
				"method": "rhf"
			},
			{
				"type": "occ",
				"energy": -0.23825,
				"method": "rhf"
			},
			{
				"type": "occ",
				"energy": -0.21143,
				"method": "rhf"
			},
			{
				"type": "unocc",
				"energy": -0.05603,
				"method": "rhf"
			},
			{
				"type": "unocc",
				"energy": -0.0468,
				"method": "rhf"
			},
			{
				"type": "unocc",
				"energy": -0.03691,
				"method": "rhf"
			},
			{
				"type": "unocc",
				"energy": -0.01335,
				"method": "rhf"
			},
			{
				"type": "unocc",
				"energy": -0.0119,
				"method": "rhf"
			}
		],
		"cosmo_sigma_profile": { 
			"-0.025": 0.0,
			"-0.024": 0.0,
			"-0.023": 0.0,
			"-0.022": 0.0,
			"-0.021": 0.0,
			"-0.02": 0.0,
			"-0.019": 0.0,
			"-0.018": 0.0,
			"-0.017": 0.0,
			"-0.016": 0.0,
			"-0.015": 0.0510353564563,
			"-0.014": 0.82105201208,
			"-0.013": 0.80575735393,
			"-0.012": 1.07502241891,
			"-0.011": 1.12226311443,
			"-0.01": 1.03265001605,
			"-0.009": 1.65445809027,
			"-0.008": 1.72474914309,
			"-0.007": 10.4972781761,
			"-0.006": 29.1008995002,
			"-0.005": 32.249076808,
			"-0.004": 32.2729974978,
			"-0.003": 24.4972389004,
			"-0.002": 25.2147791237,
			"-0.001": 25.9010027769,
			"0.0": 28.1641943252,
			"0.001": 31.174310363,
			"0.002": 35.7473926792,
			"0.003": 48.5988841053,
			"0.004": 35.0455726053,
			"0.005": 9.06442964038,
			"0.006": 2.4826804852,
			"0.007": 3.91540885391,
			"0.008": 3.36440658903,
			"0.009": 3.13312000822,
			"0.01": 3.79765991393,
			"0.011": 6.52376981922,
			"0.012": 4.05264692418,
			"0.013": 5.21581627381,
			"0.014": 1.26003871785,
			"0.015": 0.0,
			"0.016": 0.0,
			"0.017": 0.0,
			"0.018": 0.0,
			"0.019": 0.0,
			"0.02": 0.0,
			"0.021": 0.0,
			"0.022": 0.0,
			"0.023": 0.0,
			"0.024": 0.0,
			"0.025": 0.0
		}
	}
}
