{
	 "smiles": "OC(=O)CC12CC3CC(CC(O)(C3)C1)C2", 
	 "Tm": 400.15, 
	 "num_atms": 33, 
	 "gaussian": { 
		 "optdone": 1, 
		 "sigma_profile": "yes", 
		 "theory": "DFT", 
		 "functional": "B3LYP", 
		 "basiset": "6-31G**", 
		 "properties": { 
			 "R2extent": 3408.0428, 
			 "electric_dipole_moment_norm": 2.29147483294, 
			 "electric_quadrupole_moment_norm": 7.78447836852, 
			 "total_energy": -693.841243679, 
			 "HOMO_LUMO_gap": 0.25667, 
			 "cosmo_polarized_energy": -12.51, 
			 "cosmo_cavitation_energy": 31.02, 
			 "cosmo_dispersion_energy": -22.73, 
			 "cosmo_repulsion_energy": 1.74, 
			 "cosmo_total_nonelectrostatic_energy": 10.04, 
			 "SMD_solvation_energy": 4.93 
		},
		"coords": [
			{
				"x": 1.5908097633,
				"y": 1.955846135,
				"z": -2.5527931331,
				"element": "O" 
			},
			{
				"x": 1.5743496954,
				"y": 0.6547184268,
				"z": -2.167952478,
				"element": "C" 
			},
			{
				"x": 2.5296152847,
				"y": -0.0752693417,
				"z": -2.3334521659,
				"element": "O" 
			},
			{
				"x": 0.2646609164,
				"y": 0.2695417032,
				"z": -1.5160827645,
				"element": "C" 
			},
			{
				"x": 0.3691971655,
				"y": 0.0348842494,
				"z": 0.014945153,
				"element": "C" 
			},
			{
				"x": 0.9560205926,
				"y": 1.2736969556,
				"z": 0.7362986879,
				"element": "C" 
			},
			{
				"x": 1.0057695865,
				"y": 1.035856862,
				"z": 2.2597638607,
				"element": "C" 
			},
			{
				"x": -0.4193305504,
				"y": 0.7778228561,
				"z": 2.789085811,
				"element": "C" 
			},
			{
				"x": -1.0048289552,
				"y": -0.467625031,
				"z": 2.0930692599,
				"element": "C" 
			},
			{
				"x": -0.1168557249,
				"y": -1.6916542721,
				"z": 2.3935308906,
				"element": "C" 
			},
			{
				"x": 1.3028387653,
				"y": -1.4403061247,
				"z": 1.865400069,
				"element": "C" 
			},
			{
				"x": 2.0620196965,
				"y": -2.6097250291,
				"z": 2.1682705021,
				"element": "O" 
			},
			{
				"x": 1.889404321,
				"y": -0.1936605733,
				"z": 2.5570505065,
				"element": "C" 
			},
			{
				"x": 1.2465791233,
				"y": -1.197766329,
				"z": 0.3440968752,
				"element": "C" 
			},
			{
				"x": -1.0535015102,
				"y": -0.2254607374,
				"z": 0.5705717717,
				"element": "C" 
			},
			{
				"x": 2.4689072865,
				"y": 2.1081150874,
				"z": -2.9425422405,
				"element": "H" 
			},
			{
				"x": -0.4744149006,
				"y": 1.0504530235,
				"z": -1.7165085976,
				"element": "H" 
			},
			{
				"x": -0.0754460815,
				"y": -0.656341618,
				"z": -1.9933567531,
				"element": "H" 
			},
			{
				"x": 1.9666503014,
				"y": 1.4831168177,
				"z": 0.362389137,
				"element": "H" 
			},
			{
				"x": 0.3459540842,
				"y": 2.1582121603,
				"z": 0.5105856674,
				"element": "H" 
			},
			{
				"x": 1.4290097095,
				"y": 1.9211136027,
				"z": 2.7503866356,
				"element": "H" 
			},
			{
				"x": -0.3970021411,
				"y": 0.6275694564,
				"z": 3.8759319002,
				"element": "H" 
			},
			{
				"x": -1.0562382061,
				"y": 1.65163108,
				"z": 2.599696728,
				"element": "H" 
			},
			{
				"x": -2.0211279705,
				"y": -0.6541893713,
				"z": 2.4613822417,
				"element": "H" 
			},
			{
				"x": -0.5195345896,
				"y": -2.5944934073,
				"z": 1.9188646026,
				"element": "H" 
			},
			{
				"x": -0.0715727714,
				"y": -1.8862706715,
				"z": 3.4717441477,
				"element": "H" 
			},
			{
				"x": 2.9477566526,
				"y": -2.4863299431,
				"z": 1.7997078579,
				"element": "H" 
			},
			{
				"x": 2.9137368099,
				"y": -0.0219243995,
				"z": 2.1961969233,
				"element": "H" 
			},
			{
				"x": 1.9531270061,
				"y": -0.3788225227,
				"z": 3.6359948335,
				"element": "H" 
			},
			{
				"x": 2.2599430592,
				"y": -1.0539058163,
				"z": -0.0496880178,
				"element": "H" 
			},
			{
				"x": 0.8413090053,
				"y": -2.0931868593,
				"z": -0.1441076939,
				"element": "H" 
			},
			{
				"x": -1.6998202908,
				"y": 0.6342964198,
				"z": 0.3484201312,
				"element": "H" 
			},
			{
				"x": -1.4935851327,
				"y": -1.0950427886,
				"z": 0.0641996506,
				"element": "H" 
			}
		],
		 "valence_orbital": [ 
			{
				"type": "occ",
				"energy": -0.30094,
				"method": "rhf"
			},
			{
				"type": "occ",
				"energy": -0.29516,
				"method": "rhf"
			},
			{
				"type": "occ",
				"energy": -0.28428,
				"method": "rhf"
			},
			{
				"type": "occ",
				"energy": -0.26793,
				"method": "rhf"
			},
			{
				"type": "occ",
				"energy": -0.25244,
				"method": "rhf"
			},
			{
				"type": "unocc",
				"energy": 0.00423,
				"method": "rhf"
			},
			{
				"type": "unocc",
				"energy": 0.06715,
				"method": "rhf"
			},
			{
				"type": "unocc",
				"energy": 0.07841,
				"method": "rhf"
			},
			{
				"type": "unocc",
				"energy": 0.08691,
				"method": "rhf"
			},
			{
				"type": "unocc",
				"energy": 0.11012,
				"method": "rhf"
			}
		],
		"cosmo_sigma_profile": { 
			"-0.025": 0.0,
			"-0.024": 0.0,
			"-0.023": 0.0,
			"-0.022": 0.0,
			"-0.021": 0.0,
			"-0.02": 0.0,
			"-0.019": 0.0,
			"-0.018": 0.452752415214,
			"-0.017": 0.959742072134,
			"-0.016": 0.814933206978,
			"-0.015": 1.23934571137,
			"-0.014": 1.4513827253,
			"-0.013": 1.3245313886,
			"-0.012": 0.841517931793,
			"-0.011": 2.44090108433,
			"-0.01": 1.29877661512,
			"-0.009": 1.09104965967,
			"-0.008": 1.52695430088,
			"-0.007": 2.56546325352,
			"-0.006": 3.10782262051,
			"-0.005": 5.2644136054,
			"-0.004": 7.95890476104,
			"-0.003": 20.9836458886,
			"-0.002": 43.4394622291,
			"-0.001": 34.1998838545,
			"0.0": 29.9489691195,
			"0.001": 19.2606207286,
			"0.002": 7.2177443995,
			"0.003": 5.54873327749,
			"0.004": 3.88956985785,
			"0.005": 5.03317338912,
			"0.006": 4.08480244428,
			"0.007": 3.43714116227,
			"0.008": 3.73457406371,
			"0.009": 4.72596563023,
			"0.01": 3.92318370544,
			"0.011": 4.19559742834,
			"0.012": 5.81820120689,
			"0.013": 2.52273900106,
			"0.014": 1.87702659644,
			"0.015": 1.30702950317,
			"0.016": 0.0,
			"0.017": 0.0,
			"0.018": 0.0,
			"0.019": 0.0,
			"0.02": 0.0,
			"0.021": 0.0,
			"0.022": 0.0,
			"0.023": 0.0,
			"0.024": 0.0,
			"0.025": 0.0
		}
	}
}
