{
	 "smiles": "CC1=CC=C(C=C1)C(C)(Cl)C(O)=O", 
	 "Tm": 385.15, 
	 "num_atms": 24, 
	 "gaussian": { 
		 "optdone": 1, 
		 "sigma_profile": "yes", 
		 "theory": "DFT", 
		 "functional": "B3LYP", 
		 "basiset": "6-31G**", 
		 "properties": { 
			 "R2extent": 3218.6681, 
			 "electric_dipole_moment_norm": 3.31519217392, 
			 "electric_quadrupole_moment_norm": 14.4127260971, 
			 "total_energy": -998.353840727, 
			 "HOMO_LUMO_gap": 0.2046, 
			 "cosmo_polarized_energy": -10.98, 
			 "cosmo_cavitation_energy": 28.77, 
			 "cosmo_dispersion_energy": -20.65, 
			 "cosmo_repulsion_energy": 1.63, 
			 "cosmo_total_nonelectrostatic_energy": 9.75, 
			 "SMD_solvation_energy": 5.8 
		},
		"coords": [
			{
				"x": -2.9442023425,
				"y": -0.335974734,
				"z": 2.1937522175,
				"element": "C" 
			},
			{
				"x": -1.77993272,
				"y": -0.2970695,
				"z": 1.2339362406,
				"element": "C" 
			},
			{
				"x": -1.0456546888,
				"y": 0.8830049432,
				"z": 1.0412906176,
				"element": "C" 
			},
			{
				"x": 0.040758834,
				"y": 0.9203742519,
				"z": 0.1757245488,
				"element": "C" 
			},
			{
				"x": 0.4367686561,
				"y": -0.2246844973,
				"z": -0.5349159573,
				"element": "C" 
			},
			{
				"x": -0.2927793761,
				"y": -1.402959702,
				"z": -0.3469768006,
				"element": "C" 
			},
			{
				"x": -1.3831598372,
				"y": -1.4341408688,
				"z": 0.5235337686,
				"element": "C" 
			},
			{
				"x": 1.6252877051,
				"y": -0.1589702677,
				"z": -1.4798601232,
				"element": "C" 
			},
			{
				"x": 2.1664429676,
				"y": -1.5045086414,
				"z": -1.9592385585,
				"element": "C" 
			},
			{
				"x": 1.0690088023,
				"y": 0.7718557938,
				"z": -3.0343591054,
				"element": "Cl" 
			},
			{
				"x": 2.7810110825,
				"y": 0.627780764,
				"z": -0.8022626782,
				"element": "C" 
			},
			{
				"x": 2.955321331,
				"y": 1.9193535587,
				"z": -1.1224425974,
				"element": "O" 
			},
			{
				"x": 3.4678850149,
				"y": 0.0758297764,
				"z": 0.0209134129,
				"element": "O" 
			},
			{
				"x": -3.5531193563,
				"y": -1.2324574715,
				"z": 2.0489988845,
				"element": "H" 
			},
			{
				"x": -2.5970318187,
				"y": -0.336083133,
				"z": 3.2342028337,
				"element": "H" 
			},
			{
				"x": -3.5920667291,
				"y": 0.5381860722,
				"z": 2.0711703041,
				"element": "H" 
			},
			{
				"x": -1.3288309955,
				"y": 1.7845970452,
				"z": 1.5785161367,
				"element": "H" 
			},
			{
				"x": 0.585780254,
				"y": 1.8513323325,
				"z": 0.0513578963,
				"element": "H" 
			},
			{
				"x": -0.0203223661,
				"y": -2.3103731618,
				"z": -0.8733545296,
				"element": "H" 
			},
			{
				"x": -1.9327554134,
				"y": -2.3631742583,
				"z": 0.65081717,
				"element": "H" 
			},
			{
				"x": 1.400369919,
				"y": -2.0702704349,
				"z": -2.4910208358,
				"element": "H" 
			},
			{
				"x": 2.5145732575,
				"y": -2.0722693013,
				"z": -1.0937064805,
				"element": "H" 
			},
			{
				"x": 3.0107567625,
				"y": -1.3512608791,
				"z": -2.6342117793,
				"element": "H" 
			},
			{
				"x": 2.3668910571,
				"y": 2.1458823132,
				"z": -1.8651645856,
				"element": "H" 
			}
		],
		 "valence_orbital": [ 
			{
				"type": "occ",
				"energy": -0.32479,
				"method": "rhf"
			},
			{
				"type": "occ",
				"energy": -0.31267,
				"method": "rhf"
			},
			{
				"type": "occ",
				"energy": -0.27684,
				"method": "rhf"
			},
			{
				"type": "occ",
				"energy": -0.26246,
				"method": "rhf"
			},
			{
				"type": "occ",
				"energy": -0.25057,
				"method": "rhf"
			},
			{
				"type": "unocc",
				"energy": -0.04597,
				"method": "rhf"
			},
			{
				"type": "unocc",
				"energy": -0.01593,
				"method": "rhf"
			},
			{
				"type": "unocc",
				"energy": 0.00521,
				"method": "rhf"
			},
			{
				"type": "unocc",
				"energy": 0.01809,
				"method": "rhf"
			},
			{
				"type": "unocc",
				"energy": 0.08067,
				"method": "rhf"
			}
		],
		"cosmo_sigma_profile": { 
			"-0.025": 0.0,
			"-0.024": 0.0,
			"-0.023": 0.0,
			"-0.022": 0.0,
			"-0.021": 0.0,
			"-0.02": 0.0,
			"-0.019": 0.0,
			"-0.018": 0.0,
			"-0.017": 0.0,
			"-0.016": 0.0,
			"-0.015": 0.221214897961,
			"-0.014": 0.628524734342,
			"-0.013": 0.333647591433,
			"-0.012": 0.984726758161,
			"-0.011": 1.44227474614,
			"-0.01": 1.07360955249,
			"-0.009": 0.787075548769,
			"-0.008": 1.71818467097,
			"-0.007": 5.17350414107,
			"-0.006": 10.8082484631,
			"-0.005": 16.9994807408,
			"-0.004": 21.0591978226,
			"-0.003": 17.5994102438,
			"-0.002": 18.879177607,
			"-0.001": 17.7126640818,
			"0.0": 17.8609643428,
			"0.001": 13.290166717,
			"0.002": 10.9298477815,
			"0.003": 14.0416028844,
			"0.004": 18.0733739764,
			"0.005": 14.6750285013,
			"0.006": 3.72322535381,
			"0.007": 2.90699510896,
			"0.008": 3.69417527936,
			"0.009": 4.52538085834,
			"0.01": 4.04448945016,
			"0.011": 5.05356335191,
			"0.012": 1.64474211924,
			"0.013": 0.0491157933799,
			"0.014": 0.0,
			"0.015": 0.0,
			"0.016": 0.0,
			"0.017": 0.0,
			"0.018": 0.0,
			"0.019": 0.0,
			"0.02": 0.0,
			"0.021": 0.0,
			"0.022": 0.0,
			"0.023": 0.0,
			"0.024": 0.0,
			"0.025": 0.0
		}
	}
}
