{
	 "smiles": "[O-][N+](=O)C1=CC2=C(OCCOCCOCCOCCOCCO2)C=C1", 
	 "Tm": 359.65, 
	 "num_atms": 48, 
	 "gaussian": { 
		 "optdone": 1, 
		 "sigma_profile": "yes", 
		 "theory": "DFT", 
		 "functional": "B3LYP", 
		 "basiset": "6-31G**", 
		 "properties": { 
			 "R2extent": 11973.216, 
			 "electric_dipole_moment_norm": 8.34723400235, 
			 "electric_quadrupole_moment_norm": 34.5360714871, 
			 "total_energy": -1279.91458431, 
			 "HOMO_LUMO_gap": 0.15847, 
			 "cosmo_polarized_energy": -23.13, 
			 "cosmo_cavitation_energy": 49.91, 
			 "cosmo_dispersion_energy": -33.46, 
			 "cosmo_repulsion_energy": 2.53, 
			 "cosmo_total_nonelectrostatic_energy": 18.98, 
			 "SMD_solvation_energy": 10.6 
		},
		"coords": [
			{
				"x": 4.9322884397,
				"y": 3.5039353645,
				"z": 3.1949338503,
				"element": "O" 
			},
			{
				"x": 3.9812040553,
				"y": 3.8124561537,
				"z": 2.4734880129,
				"element": "N" 
			},
			{
				"x": 3.8430679954,
				"y": 4.911110636,
				"z": 1.9336013592,
				"element": "O" 
			},
			{
				"x": 2.9443209171,
				"y": 2.8049744929,
				"z": 2.2454363075,
				"element": "C" 
			},
			{
				"x": 1.8542281833,
				"y": 3.1245357068,
				"z": 1.4327301181,
				"element": "C" 
			},
			{
				"x": 0.868305912,
				"y": 2.1740945607,
				"z": 1.2055620872,
				"element": "C" 
			},
			{
				"x": 0.9800826177,
				"y": 0.8901003183,
				"z": 1.8030514737,
				"element": "C" 
			},
			{
				"x": -0.0398831357,
				"y": 0.0322711354,
				"z": 1.5389495963,
				"element": "O" 
			},
			{
				"x": 0.1147182411,
				"y": -1.3734717661,
				"z": 1.7472460847,
				"element": "C" 
			},
			{
				"x": 1.0509520985,
				"y": -2.0143748799,
				"z": 0.7177687824,
				"element": "C" 
			},
			{
				"x": 0.7303110136,
				"y": -1.677673568,
				"z": -0.6123147697,
				"element": "O" 
			},
			{
				"x": -0.3912904988,
				"y": -2.346556413,
				"z": -1.1676955185,
				"element": "C" 
			},
			{
				"x": -0.610364518,
				"y": -1.7413285335,
				"z": -2.554376975,
				"element": "C" 
			},
			{
				"x": -1.591603276,
				"y": -2.4608235097,
				"z": -3.2917695338,
				"element": "O" 
			},
			{
				"x": -2.9439137353,
				"y": -2.0784858876,
				"z": -3.0953255113,
				"element": "C" 
			},
			{
				"x": -3.3129942236,
				"y": -0.7203830097,
				"z": -3.6896473763,
				"element": "C" 
			},
			{
				"x": -3.1312152663,
				"y": 0.3025650933,
				"z": -2.7185352633,
				"element": "O" 
			},
			{
				"x": -3.2809009232,
				"y": 1.6121228143,
				"z": -3.2510189446,
				"element": "C" 
			},
			{
				"x": -3.6051532265,
				"y": 2.609685821,
				"z": -2.1460593197,
				"element": "C" 
			},
			{
				"x": -2.5499953479,
				"y": 2.8672471738,
				"z": -1.2418579582,
				"element": "O" 
			},
			{
				"x": -2.4495616354,
				"y": 1.9538763123,
				"z": -0.1605518175,
				"element": "C" 
			},
			{
				"x": -1.481419062,
				"y": 2.5044576964,
				"z": 0.864352047,
				"element": "C" 
			},
			{
				"x": -0.1434769688,
				"y": 2.4604953731,
				"z": 0.336639569,
				"element": "O" 
			},
			{
				"x": 2.0790455884,
				"y": 0.6008800033,
				"z": 2.6219789031,
				"element": "C" 
			},
			{
				"x": 3.0669605777,
				"y": 1.5569381737,
				"z": 2.8465109784,
				"element": "C" 
			},
			{
				"x": 1.7817462458,
				"y": 4.0982232414,
				"z": 0.9660539843,
				"element": "H" 
			},
			{
				"x": 0.4591693361,
				"y": -1.5977465113,
				"z": 2.7652171136,
				"element": "H" 
			},
			{
				"x": -0.9003484422,
				"y": -1.7660852303,
				"z": 1.6532097001,
				"element": "H" 
			},
			{
				"x": 1.0446195128,
				"y": -3.10584092,
				"z": 0.879533053,
				"element": "H" 
			},
			{
				"x": 2.074679667,
				"y": -1.6607001672,
				"z": 0.8730896623,
				"element": "H" 
			},
			{
				"x": -0.1994137583,
				"y": -3.4273761834,
				"z": -1.2584758412,
				"element": "H" 
			},
			{
				"x": -1.2912974889,
				"y": -2.2164434749,
				"z": -0.5477799925,
				"element": "H" 
			},
			{
				"x": -0.8637177386,
				"y": -0.6799883437,
				"z": -2.4611701535,
				"element": "H" 
			},
			{
				"x": 0.3242950358,
				"y": -1.8220684219,
				"z": -3.1178816868,
				"element": "H" 
			},
			{
				"x": -3.5281705523,
				"y": -2.8547289564,
				"z": -3.6000234511,
				"element": "H" 
			},
			{
				"x": -3.2299507386,
				"y": -2.0821358438,
				"z": -2.032563588,
				"element": "H" 
			},
			{
				"x": -2.6912693554,
				"y": -0.5428707694,
				"z": -4.5806941523,
				"element": "H" 
			},
			{
				"x": -4.3673083241,
				"y": -0.7317947805,
				"z": -4.0152342074,
				"element": "H" 
			},
			{
				"x": -4.1116428753,
				"y": 1.6355308748,
				"z": -3.9765790866,
				"element": "H" 
			},
			{
				"x": -2.3647840218,
				"y": 1.9182288762,
				"z": -3.7787038887,
				"element": "H" 
			},
			{
				"x": -3.8387879356,
				"y": 3.5686498144,
				"z": -2.624486902,
				"element": "H" 
			},
			{
				"x": -4.5060041244,
				"y": 2.2698401453,
				"z": -1.6098099569,
				"element": "H" 
			},
			{
				"x": -2.110180286,
				"y": 0.9669112814,
				"z": -0.4945078412,
				"element": "H" 
			},
			{
				"x": -3.4336146571,
				"y": 1.8311565921,
				"z": 0.3243745031,
				"element": "H" 
			},
			{
				"x": -1.5542592033,
				"y": 1.9061911887,
				"z": 1.7769238616,
				"element": "H" 
			},
			{
				"x": -1.7316155446,
				"y": 3.5473132352,
				"z": 1.0970363315,
				"element": "H" 
			},
			{
				"x": 2.1755445589,
				"y": -0.3732074219,
				"z": 3.0863805967,
				"element": "H" 
			},
			{
				"x": 3.9239968677,
				"y": 1.3470925134,
				"z": 3.4732957598,
				"element": "H" 
			}
		],
		 "valence_orbital": [ 
			{
				"type": "occ",
				"energy": -0.2697,
				"method": "rhf"
			},
			{
				"type": "occ",
				"energy": -0.26058,
				"method": "rhf"
			},
			{
				"type": "occ",
				"energy": -0.25751,
				"method": "rhf"
			},
			{
				"type": "occ",
				"energy": -0.25095,
				"method": "rhf"
			},
			{
				"type": "occ",
				"energy": -0.23409,
				"method": "rhf"
			},
			{
				"type": "unocc",
				"energy": -0.07562,
				"method": "rhf"
			},
			{
				"type": "unocc",
				"energy": -0.01733,
				"method": "rhf"
			},
			{
				"type": "unocc",
				"energy": 0.01688,
				"method": "rhf"
			},
			{
				"type": "unocc",
				"energy": 0.06129,
				"method": "rhf"
			},
			{
				"type": "unocc",
				"energy": 0.06646,
				"method": "rhf"
			}
		],
		"cosmo_sigma_profile": { 
			"-0.025": 0.0,
			"-0.024": 0.0,
			"-0.023": 0.0,
			"-0.022": 0.0,
			"-0.021": 0.0,
			"-0.02": 0.0,
			"-0.019": 0.0,
			"-0.018": 0.0,
			"-0.017": 0.0,
			"-0.016": 0.0,
			"-0.015": 0.0,
			"-0.014": 0.0,
			"-0.013": 0.0,
			"-0.012": 0.0,
			"-0.011": 0.0,
			"-0.01": 0.569437483543,
			"-0.009": 2.17108415105,
			"-0.008": 3.57270010473,
			"-0.007": 8.0764480043,
			"-0.006": 16.0865430585,
			"-0.005": 35.9235780065,
			"-0.004": 49.0675378199,
			"-0.003": 43.1036565629,
			"-0.002": 33.0154895122,
			"-0.001": 27.0314611181,
			"0.0": 28.2833942032,
			"0.001": 24.5045136791,
			"0.002": 17.4662476381,
			"0.003": 12.6737061737,
			"0.004": 10.009231497,
			"0.005": 8.69013539244,
			"0.006": 10.2830353328,
			"0.007": 11.4016643669,
			"0.008": 15.4958869203,
			"0.009": 10.6884920864,
			"0.01": 8.65734190951,
			"0.011": 6.51584921274,
			"0.012": 4.61964987204,
			"0.013": 3.09588481704,
			"0.014": 0.380311749095,
			"0.015": 0.0,
			"0.016": 0.0,
			"0.017": 0.0,
			"0.018": 0.0,
			"0.019": 0.0,
			"0.02": 0.0,
			"0.021": 0.0,
			"0.022": 0.0,
			"0.023": 0.0,
			"0.024": 0.0,
			"0.025": 0.0
		}
	}
}
