{
	 "smiles": "NC1=CC(=O)NC(=O)N1", 
	 "Tm": 633.15, 
	 "num_atms": 14, 
	 "gaussian": { 
		 "optdone": 1, 
		 "sigma_profile": "yes", 
		 "theory": "DFT", 
		 "functional": "B3LYP", 
		 "basiset": "6-31G**", 
		 "properties": { 
			 "R2extent": 1757.0545, 
			 "electric_dipole_moment_norm": 5.95156231674, 
			 "electric_quadrupole_moment_norm": 21.2048011691, 
			 "total_energy": -470.181360388, 
			 "HOMO_LUMO_gap": 0.21294, 
			 "cosmo_polarized_energy": -23.77, 
			 "cosmo_cavitation_energy": 18.87, 
			 "cosmo_dispersion_energy": -14.41, 
			 "cosmo_repulsion_energy": 1.2, 
			 "cosmo_total_nonelectrostatic_energy": 5.66, 
			 "SMD_solvation_energy": 5.07 
		},
		"coords": [
			{
				"x": -2.6224404936,
				"y": -2.4842210568,
				"z": -1.5346004712,
				"element": "N" 
			},
			{
				"x": -1.4106918743,
				"y": -1.828778974,
				"z": -1.4480673962,
				"element": "C" 
			},
			{
				"x": -0.2701371195,
				"y": -2.2080454223,
				"z": -2.0936460074,
				"element": "C" 
			},
			{
				"x": 0.9710245163,
				"y": -1.4985890968,
				"z": -1.8758376335,
				"element": "C" 
			},
			{
				"x": 2.051170559,
				"y": -1.7453645742,
				"z": -2.3916892647,
				"element": "O" 
			},
			{
				"x": 0.8597347583,
				"y": -0.4057178003,
				"z": -0.9762632612,
				"element": "N" 
			},
			{
				"x": -0.2586402606,
				"y": 0.0078464677,
				"z": -0.2890476185,
				"element": "C" 
			},
			{
				"x": -0.2884865275,
				"y": 0.9265509434,
				"z": 0.5103248364,
				"element": "O" 
			},
			{
				"x": -1.3998742546,
				"y": -0.7411954624,
				"z": -0.5946735402,
				"element": "N" 
			},
			{
				"x": -3.4496821614,
				"y": -1.9020066534,
				"z": -1.5074367821,
				"element": "H" 
			},
			{
				"x": -2.6687612553,
				"y": -3.189223534,
				"z": -2.2566303669,
				"element": "H" 
			},
			{
				"x": -0.2641906818,
				"y": -3.0349641079,
				"z": -2.79044214,
				"element": "H" 
			},
			{
				"x": 1.7109503734,
				"y": 0.1103940626,
				"z": -0.7930592687,
				"element": "H" 
			},
			{
				"x": -2.1949755785,
				"y": -0.5413847917,
				"z": -0.0040310857,
				"element": "H" 
			}
		],
		 "valence_orbital": [ 
			{
				"type": "occ",
				"energy": -0.30192,
				"method": "rhf"
			},
			{
				"type": "occ",
				"energy": -0.28942,
				"method": "rhf"
			},
			{
				"type": "occ",
				"energy": -0.27553,
				"method": "rhf"
			},
			{
				"type": "occ",
				"energy": -0.25121,
				"method": "rhf"
			},
			{
				"type": "occ",
				"energy": -0.23099,
				"method": "rhf"
			},
			{
				"type": "unocc",
				"energy": -0.01805,
				"method": "rhf"
			},
			{
				"type": "unocc",
				"energy": 0.01867,
				"method": "rhf"
			},
			{
				"type": "unocc",
				"energy": 0.04281,
				"method": "rhf"
			},
			{
				"type": "unocc",
				"energy": 0.07993,
				"method": "rhf"
			},
			{
				"type": "unocc",
				"energy": 0.09308,
				"method": "rhf"
			}
		],
		"cosmo_sigma_profile": { 
			"-0.025": 0.0,
			"-0.024": 0.0,
			"-0.023": 0.0,
			"-0.022": 0.0,
			"-0.021": 0.0,
			"-0.02": 0.0,
			"-0.019": 0.0,
			"-0.018": 0.0542241584956,
			"-0.017": 1.33597382258,
			"-0.016": 2.39648398831,
			"-0.015": 3.0096522987,
			"-0.014": 5.59253079573,
			"-0.013": 3.90835612719,
			"-0.012": 4.31249901389,
			"-0.011": 3.98490110582,
			"-0.01": 3.15205092331,
			"-0.009": 3.22599265894,
			"-0.008": 3.79021374231,
			"-0.007": 3.94108254001,
			"-0.006": 3.98615670938,
			"-0.005": 3.38162312079,
			"-0.004": 4.4389063348,
			"-0.003": 6.01505102412,
			"-0.002": 6.57926032561,
			"-0.001": 9.28624419078,
			"0.0": 8.31135254676,
			"0.001": 7.13648810434,
			"0.002": 4.57680790421,
			"0.003": 6.31411839416,
			"0.004": 5.47679925427,
			"0.005": 2.78536691866,
			"0.006": 3.65299776962,
			"0.007": 2.66924924474,
			"0.008": 3.00507518645,
			"0.009": 3.8605389988,
			"0.01": 2.26256779439,
			"0.011": 3.22327232201,
			"0.012": 6.67882393136,
			"0.013": 9.56254053009,
			"0.014": 6.20935218573,
			"0.015": 1.62887058161,
			"0.016": 0.0114364740032,
			"0.017": 0.0,
			"0.018": 0.0,
			"0.019": 0.0,
			"0.02": 0.0,
			"0.021": 0.0,
			"0.022": 0.0,
			"0.023": 0.0,
			"0.024": 0.0,
			"0.025": 0.0
		}
	}
}
