{
	 "smiles": "CC1(CCC2C(CCC3C2(C)CCCC3(C)C(O)=O)=C1)C=C", 
	 "Tm": 491.15, 
	 "num_atms": 52, 
	 "gaussian": { 
		 "optdone": 1, 
		 "sigma_profile": "yes", 
		 "theory": "DFT", 
		 "functional": "B3LYP", 
		 "basiset": "6-31G**", 
		 "properties": { 
			 "R2extent": 7632.9015, 
			 "electric_dipole_moment_norm": 4.23942009949, 
			 "electric_quadrupole_moment_norm": 20.5225133614, 
			 "total_energy": -930.645584772, 
			 "HOMO_LUMO_gap": 0.24733, 
			 "cosmo_polarized_energy": -13.56, 
			 "cosmo_cavitation_energy": 45.0, 
			 "cosmo_dispersion_energy": -31.0, 
			 "cosmo_repulsion_energy": 2.29, 
			 "cosmo_total_nonelectrostatic_energy": 16.3, 
			 "SMD_solvation_energy": 7.78 
		},
		"coords": [
			{
				"x": -4.3200197797,
				"y": -0.2122244449,
				"z": -0.8728644826,
				"element": "C" 
			},
			{
				"x": -2.8295784597,
				"y": -0.6287223347,
				"z": -0.9412152316,
				"element": "C" 
			},
			{
				"x": -2.2245183212,
				"y": -0.1302855715,
				"z": -2.2772987769,
				"element": "C" 
			},
			{
				"x": -0.6963866327,
				"y": -0.2119720952,
				"z": -2.2788279931,
				"element": "C" 
			},
			{
				"x": -0.0625225628,
				"y": 0.6699152106,
				"z": -1.1774183406,
				"element": "C" 
			},
			{
				"x": -0.893284844,
				"y": 0.6461018369,
				"z": 0.0934427107,
				"element": "C" 
			},
			{
				"x": -0.3175016289,
				"y": 1.4429862333,
				"z": 1.2326143032,
				"element": "C" 
			},
			{
				"x": 1.1480606506,
				"y": 1.0914732215,
				"z": 1.5034532779,
				"element": "C" 
			},
			{
				"x": 2.0227520305,
				"y": 1.2466593865,
				"z": 0.234969859,
				"element": "C" 
			},
			{
				"x": 1.4716746996,
				"y": 0.3518011274,
				"z": -0.9331162932,
				"element": "C" 
			},
			{
				"x": 2.1922353325,
				"y": 0.6858645177,
				"z": -2.2614094563,
				"element": "C" 
			},
			{
				"x": 1.6792981478,
				"y": -1.155749821,
				"z": -0.5821238279,
				"element": "C" 
			},
			{
				"x": 2.899776453,
				"y": -1.4520612306,
				"z": 0.3204901411,
				"element": "C" 
			},
			{
				"x": 4.0262641165,
				"y": -0.4279000692,
				"z": 0.1671431559,
				"element": "C" 
			},
			{
				"x": 3.5773563015,
				"y": 1.0181619605,
				"z": 0.5222560947,
				"element": "C" 
			},
			{
				"x": 4.455683202,
				"y": 2.0332619697,
				"z": -0.2550882441,
				"element": "C" 
			},
			{
				"x": 3.8518400604,
				"y": 1.2319734273,
				"z": 2.0318609995,
				"element": "C" 
			},
			{
				"x": 3.8161093466,
				"y": 2.5195167708,
				"z": 2.4823432576,
				"element": "O" 
			},
			{
				"x": 4.0924729859,
				"y": 0.3508690094,
				"z": 2.820236033,
				"element": "O" 
			},
			{
				"x": -2.0834197174,
				"y": 0.0369202414,
				"z": 0.1956786098,
				"element": "C" 
			},
			{
				"x": -2.7755842376,
				"y": -2.1487925159,
				"z": -0.8799707548,
				"element": "C" 
			},
			{
				"x": -2.1170408243,
				"y": -2.8991310027,
				"z": 0.0037593512,
				"element": "C" 
			},
			{
				"x": -4.7796519931,
				"y": -0.5510359673,
				"z": 0.061414375,
				"element": "H" 
			},
			{
				"x": -4.8853954336,
				"y": -0.649455018,
				"z": -1.7037507677,
				"element": "H" 
			},
			{
				"x": -4.4206689916,
				"y": 0.8767807992,
				"z": -0.92987866,
				"element": "H" 
			},
			{
				"x": -2.5404786752,
				"y": 0.9098601592,
				"z": -2.4342522715,
				"element": "H" 
			},
			{
				"x": -2.6330562973,
				"y": -0.7129989284,
				"z": -3.1126432447,
				"element": "H" 
			},
			{
				"x": -0.3238200143,
				"y": 0.0858220095,
				"z": -3.2633860244,
				"element": "H" 
			},
			{
				"x": -0.4070403829,
				"y": -1.2578069028,
				"z": -2.1325780518,
				"element": "H" 
			},
			{
				"x": -0.0846216557,
				"y": 1.7152506308,
				"z": -1.5339052987,
				"element": "H" 
			},
			{
				"x": -0.9152349521,
				"y": 1.3077235092,
				"z": 2.1406028278,
				"element": "H" 
			},
			{
				"x": -0.3759345711,
				"y": 2.5136162607,
				"z": 0.9762661212,
				"element": "H" 
			},
			{
				"x": 1.2101798043,
				"y": 0.0691916189,
				"z": 1.8887200951,
				"element": "H" 
			},
			{
				"x": 1.517590551,
				"y": 1.7432268378,
				"z": 2.2996007776,
				"element": "H" 
			},
			{
				"x": 1.9136083063,
				"y": 2.2933516836,
				"z": -0.0909652522,
				"element": "H" 
			},
			{
				"x": 2.111881564,
				"y": 1.7533269749,
				"z": -2.4996071351,
				"element": "H" 
			},
			{
				"x": 1.7504821391,
				"y": 0.1283301385,
				"z": -3.0905804941,
				"element": "H" 
			},
			{
				"x": 3.2490544156,
				"y": 0.4213919837,
				"z": -2.2471422721,
				"element": "H" 
			},
			{
				"x": 1.7826668732,
				"y": -1.714178646,
				"z": -1.5191804968,
				"element": "H" 
			},
			{
				"x": 0.7780818966,
				"y": -1.5486699379,
				"z": -0.0998407266,
				"element": "H" 
			},
			{
				"x": 3.2838309584,
				"y": -2.4534550631,
				"z": 0.0958620913,
				"element": "H" 
			},
			{
				"x": 2.6062744421,
				"y": -1.4755811624,
				"z": 1.3744380371,
				"element": "H" 
			},
			{
				"x": 4.4065104477,
				"y": -0.4484150906,
				"z": -0.8594244555,
				"element": "H" 
			},
			{
				"x": 4.8615459618,
				"y": -0.7038997453,
				"z": 0.8150427546,
				"element": "H" 
			},
			{
				"x": 4.1560731791,
				"y": 3.076368446,
				"z": -0.0899251698,
				"element": "H" 
			},
			{
				"x": 4.3912490562,
				"y": 1.8670105175,
				"z": -1.330302574,
				"element": "H" 
			},
			{
				"x": 5.5077178341,
				"y": 1.9395583053,
				"z": 0.0346715423,
				"element": "H" 
			},
			{
				"x": 3.6199712805,
				"y": 3.1237125775,
				"z": 1.7532331995,
				"element": "H" 
			},
			{
				"x": -2.6040983532,
				"y": 0.0742238875,
				"z": 1.15333796,
				"element": "H" 
			},
			{
				"x": -3.3674726474,
				"y": -2.645189947,
				"z": -1.6522402981,
				"element": "H" 
			},
			{
				"x": -2.1587579137,
				"y": -3.9838581594,
				"z": -0.0349739967,
				"element": "H" 
			},
			{
				"x": -1.5192531477,
				"y": -2.4577675993,
				"z": 0.7958730156,
				"element": "H" 
			}
		],
		 "valence_orbital": [ 
			{
				"type": "occ",
				"energy": -0.28917,
				"method": "rhf"
			},
			{
				"type": "occ",
				"energy": -0.28447,
				"method": "rhf"
			},
			{
				"type": "occ",
				"energy": -0.25997,
				"method": "rhf"
			},
			{
				"type": "occ",
				"energy": -0.25185,
				"method": "rhf"
			},
			{
				"type": "occ",
				"energy": -0.23385,
				"method": "rhf"
			},
			{
				"type": "unocc",
				"energy": 0.01348,
				"method": "rhf"
			},
			{
				"type": "unocc",
				"energy": 0.01743,
				"method": "rhf"
			},
			{
				"type": "unocc",
				"energy": 0.02207,
				"method": "rhf"
			},
			{
				"type": "unocc",
				"energy": 0.04872,
				"method": "rhf"
			},
			{
				"type": "unocc",
				"energy": 0.08611,
				"method": "rhf"
			}
		],
		"cosmo_sigma_profile": { 
			"-0.025": 0.0,
			"-0.024": 0.0,
			"-0.023": 0.0,
			"-0.022": 0.0,
			"-0.021": 0.0,
			"-0.02": 0.0,
			"-0.019": 0.0,
			"-0.018": 0.0375482640893,
			"-0.017": 0.577709097114,
			"-0.016": 1.10672600144,
			"-0.015": 0.634195767349,
			"-0.014": 0.960472930445,
			"-0.013": 1.09458247694,
			"-0.012": 0.949674494936,
			"-0.011": 1.16091956031,
			"-0.01": 1.27002415722,
			"-0.009": 0.724319067651,
			"-0.008": 0.615679355501,
			"-0.007": 1.93488924051,
			"-0.006": 1.81015823363,
			"-0.005": 5.62280851113,
			"-0.004": 10.6524452262,
			"-0.003": 33.1108699397,
			"-0.002": 58.8849710666,
			"-0.001": 54.8566622379,
			"0.0": 50.8903992514,
			"0.001": 40.2986319759,
			"0.002": 20.530076503,
			"0.003": 11.9733316224,
			"0.004": 9.50416693836,
			"0.005": 6.11992155153,
			"0.006": 5.63925514655,
			"0.007": 3.68302851012,
			"0.008": 2.50723906645,
			"0.009": 2.81579513272,
			"0.01": 3.68852578712,
			"0.011": 5.31329717699,
			"0.012": 5.07943730246,
			"0.013": 2.29955827608,
			"0.014": 0.218950986095,
			"0.015": 0.0,
			"0.016": 0.0,
			"0.017": 0.0,
			"0.018": 0.0,
			"0.019": 0.0,
			"0.02": 0.0,
			"0.021": 0.0,
			"0.022": 0.0,
			"0.023": 0.0,
			"0.024": 0.0,
			"0.025": 0.0
		}
	}
}
