{
	 "smiles": "C1=CC=C(C=C1)C1=CC=NC=C1", 
	 "Tm": 350.65, 
	 "num_atms": 21, 
	 "gaussian": { 
		 "optdone": 1, 
		 "sigma_profile": "yes", 
		 "theory": "DFT", 
		 "functional": "B3LYP", 
		 "basiset": "6-31G**", 
		 "properties": { 
			 "R2extent": 2903.6033, 
			 "electric_dipole_moment_norm": 2.73531702733, 
			 "electric_quadrupole_moment_norm": 13.2016266653, 
			 "total_energy": -479.346534335, 
			 "HOMO_LUMO_gap": 0.1979, 
			 "cosmo_polarized_energy": -7.37, 
			 "cosmo_cavitation_energy": 24.88, 
			 "cosmo_dispersion_energy": -18.48, 
			 "cosmo_repulsion_energy": 1.44, 
			 "cosmo_total_nonelectrostatic_energy": 7.84, 
			 "SMD_solvation_energy": 2.72 
		},
		"coords": [
			{
				"x": -1.8043752978,
				"y": 1.8135719701,
				"z": -1.6362209672,
				"element": "C" 
			},
			{
				"x": -0.9889880084,
				"y": 1.3940667598,
				"z": -2.6891375988,
				"element": "C" 
			},
			{
				"x": -0.0125393145,
				"y": 0.4223103892,
				"z": -2.4760192675,
				"element": "C" 
			},
			{
				"x": 0.1702359691,
				"y": -0.1473937494,
				"z": -1.2047508808,
				"element": "C" 
			},
			{
				"x": -0.6562292952,
				"y": 0.2850735452,
				"z": -0.1540137399,
				"element": "C" 
			},
			{
				"x": -1.6346164036,
				"y": 1.2546750068,
				"z": -0.3680393682,
				"element": "C" 
			},
			{
				"x": 1.2108790512,
				"y": -1.1805232188,
				"z": -0.9773332534,
				"element": "C" 
			},
			{
				"x": 1.513972854,
				"y": -2.1488196795,
				"z": -1.9470081596,
				"element": "C" 
			},
			{
				"x": 2.5013062463,
				"y": -3.0966310593,
				"z": -1.6839616845,
				"element": "C" 
			},
			{
				"x": 3.199813079,
				"y": -3.154810951,
				"z": -0.542699707,
				"element": "N" 
			},
			{
				"x": 2.9090245703,
				"y": -2.2309922705,
				"z": 0.3823774931,
				"element": "C" 
			},
			{
				"x": 1.9430157695,
				"y": -1.2398483719,
				"z": 0.2185681265,
				"element": "C" 
			},
			{
				"x": -2.5658966087,
				"y": 2.56986357,
				"z": -1.8026266414,
				"element": "H" 
			},
			{
				"x": -1.1081948521,
				"y": 1.8292850202,
				"z": -3.6772133894,
				"element": "H" 
			},
			{
				"x": 0.6331061689,
				"y": 0.1202021232,
				"z": -3.2952640064,
				"element": "H" 
			},
			{
				"x": -0.548014544,
				"y": -0.1614331973,
				"z": 0.8299654345,
				"element": "H" 
			},
			{
				"x": -2.2699097245,
				"y": 1.5687440523,
				"z": 0.4551755569,
				"element": "H" 
			},
			{
				"x": 0.970496981,
				"y": -2.1807911539,
				"z": -2.8860273578,
				"element": "H" 
			},
			{
				"x": 2.7381913307,
				"y": -3.8542988272,
				"z": -2.4293530441,
				"element": "H" 
			},
			{
				"x": 3.4847970593,
				"y": -2.2799819821,
				"z": 1.3053447233,
				"element": "H" 
			},
			{
				"x": 1.7812249695,
				"y": -0.5077679759,
				"z": 1.0034377318,
				"element": "H" 
			}
		],
		 "valence_orbital": [ 
			{
				"type": "occ",
				"energy": -0.29821,
				"method": "rhf"
			},
			{
				"type": "occ",
				"energy": -0.26095,
				"method": "rhf"
			},
			{
				"type": "occ",
				"energy": -0.25902,
				"method": "rhf"
			},
			{
				"type": "occ",
				"energy": -0.25137,
				"method": "rhf"
			},
			{
				"type": "occ",
				"energy": -0.2418,
				"method": "rhf"
			},
			{
				"type": "unocc",
				"energy": -0.0439,
				"method": "rhf"
			},
			{
				"type": "unocc",
				"energy": -0.0123,
				"method": "rhf"
			},
			{
				"type": "unocc",
				"energy": -0.00743,
				"method": "rhf"
			},
			{
				"type": "unocc",
				"energy": 0.01778,
				"method": "rhf"
			},
			{
				"type": "unocc",
				"energy": 0.09067,
				"method": "rhf"
			}
		],
		"cosmo_sigma_profile": { 
			"-0.025": 0.0,
			"-0.024": 0.0,
			"-0.023": 0.0,
			"-0.022": 0.0,
			"-0.021": 0.0,
			"-0.02": 0.0,
			"-0.019": 0.0,
			"-0.018": 0.0,
			"-0.017": 0.0,
			"-0.016": 0.0,
			"-0.015": 0.0,
			"-0.014": 0.0,
			"-0.013": 0.0,
			"-0.012": 0.0,
			"-0.011": 0.0,
			"-0.01": 0.0,
			"-0.009": 0.0,
			"-0.008": 0.0,
			"-0.007": 1.93907963619,
			"-0.006": 17.1541166678,
			"-0.005": 20.0553470719,
			"-0.004": 17.6444949649,
			"-0.003": 14.9959188546,
			"-0.002": 11.6359193638,
			"-0.001": 11.5695038655,
			"0.0": 12.6331862629,
			"0.001": 14.689953874,
			"0.002": 21.0313286143,
			"0.003": 18.9770118151,
			"0.004": 11.206576377,
			"0.005": 12.6301421704,
			"0.006": 2.94339376722,
			"0.007": 1.49062682987,
			"0.008": 1.05873529301,
			"0.009": 1.1481323453,
			"0.01": 1.20049124554,
			"0.011": 1.57825887891,
			"0.012": 0.252755748697,
			"0.013": 0.844333131675,
			"0.014": 1.48556202712,
			"0.015": 0.677125238564,
			"0.016": 0.870918412888,
			"0.017": 0.494295961113,
			"0.018": 0.0266793318787,
			"0.019": 0.0,
			"0.02": 0.0,
			"0.021": 0.0,
			"0.022": 0.0,
			"0.023": 0.0,
			"0.024": 0.0,
			"0.025": 0.0
		}
	}
}
