{
	 "smiles": "COCCOC1=C(C=C(Cl)C=C1)C#N", 
	 "Tm": 338.15, 
	 "num_atms": 24, 
	 "gaussian": { 
		 "optdone": 1, 
		 "sigma_profile": "yes", 
		 "theory": "DFT", 
		 "functional": "B3LYP", 
		 "basiset": "6-31G**", 
		 "properties": { 
			 "R2extent": 5121.2879, 
			 "electric_dipole_moment_norm": 6.06399971471, 
			 "electric_quadrupole_moment_norm": 13.750227709, 
			 "total_energy": -1052.43726671, 
			 "HOMO_LUMO_gap": 0.18344, 
			 "cosmo_polarized_energy": -11.89, 
			 "cosmo_cavitation_energy": 31.03, 
			 "cosmo_dispersion_energy": -21.85, 
			 "cosmo_repulsion_energy": 1.77, 
			 "cosmo_total_nonelectrostatic_energy": 10.95, 
			 "SMD_solvation_energy": 7.3 
		},
		"coords": [
			{
				"x": -1.4906987438,
				"y": 1.5948878722,
				"z": -2.3399068653,
				"element": "C" 
			},
			{
				"x": -1.1525139712,
				"y": 0.7842841444,
				"z": -1.2304325592,
				"element": "O" 
			},
			{
				"x": -1.167799137,
				"y": 1.4870852529,
				"z": -0.0051255599,
				"element": "C" 
			},
			{
				"x": -0.7071681861,
				"y": 0.5771530992,
				"z": 1.120107316,
				"element": "C" 
			},
			{
				"x": 0.7126442569,
				"y": 0.3906553537,
				"z": 1.1451357967,
				"element": "O" 
			},
			{
				"x": 1.2866496169,
				"y": -0.7197319599,
				"z": 0.619265284,
				"element": "C" 
			},
			{
				"x": 2.5827126681,
				"y": -1.0229349002,
				"z": 1.0983803985,
				"element": "C" 
			},
			{
				"x": 3.2728181553,
				"y": -2.143904885,
				"z": 0.6122789628,
				"element": "C" 
			},
			{
				"x": 2.6682405684,
				"y": -2.9618200724,
				"z": -0.3345777279,
				"element": "C" 
			},
			{
				"x": 3.5248625031,
				"y": -4.3705830843,
				"z": -0.9382425141,
				"element": "Cl" 
			},
			{
				"x": 1.3915336391,
				"y": -2.6680429326,
				"z": -0.8145658626,
				"element": "C" 
			},
			{
				"x": 0.704360935,
				"y": -1.5498244189,
				"z": -0.345267537,
				"element": "C" 
			},
			{
				"x": 3.1941864619,
				"y": -0.1898458655,
				"z": 2.0892010371,
				"element": "C" 
			},
			{
				"x": 3.7136215464,
				"y": 0.4673711002,
				"z": 2.8962653328,
				"element": "N" 
			},
			{
				"x": -1.4439848543,
				"y": 0.9624617876,
				"z": -3.2289003983,
				"element": "H" 
			},
			{
				"x": -0.7867546103,
				"y": 2.4319219782,
				"z": -2.4589183418,
				"element": "H" 
			},
			{
				"x": -2.5077565421,
				"y": 2.005731147,
				"z": -2.2466873901,
				"element": "H" 
			},
			{
				"x": -2.1877414687,
				"y": 1.8400492985,
				"z": 0.2279759203,
				"element": "H" 
			},
			{
				"x": -0.510964182,
				"y": 2.3704492295,
				"z": -0.0467187679,
				"element": "H" 
			},
			{
				"x": -1.2259378826,
				"y": -0.3866893509,
				"z": 1.0750559071,
				"element": "H" 
			},
			{
				"x": -0.9452591513,
				"y": 1.0545194396,
				"z": 2.0756018318,
				"element": "H" 
			},
			{
				"x": 4.2652229301,
				"y": -2.3669003214,
				"z": 0.9854933575,
				"element": "H" 
			},
			{
				"x": 0.9382088935,
				"y": -3.3049197321,
				"z": -1.5662983766,
				"element": "H" 
			},
			{
				"x": -0.2594834454,
				"y": -1.2922721798,
				"z": -0.7650192439,
				"element": "H" 
			}
		],
		 "valence_orbital": [ 
			{
				"type": "occ",
				"energy": -0.31835,
				"method": "rhf"
			},
			{
				"type": "occ",
				"energy": -0.31154,
				"method": "rhf"
			},
			{
				"type": "occ",
				"energy": -0.2795,
				"method": "rhf"
			},
			{
				"type": "occ",
				"energy": -0.27026,
				"method": "rhf"
			},
			{
				"type": "occ",
				"energy": -0.23501,
				"method": "rhf"
			},
			{
				"type": "unocc",
				"energy": -0.05157,
				"method": "rhf"
			},
			{
				"type": "unocc",
				"energy": -0.01622,
				"method": "rhf"
			},
			{
				"type": "unocc",
				"energy": 0.0201,
				"method": "rhf"
			},
			{
				"type": "unocc",
				"energy": 0.04266,
				"method": "rhf"
			},
			{
				"type": "unocc",
				"energy": 0.07155,
				"method": "rhf"
			}
		],
		"cosmo_sigma_profile": { 
			"-0.025": 0.0,
			"-0.024": 0.0,
			"-0.023": 0.0,
			"-0.022": 0.0,
			"-0.021": 0.0,
			"-0.02": 0.0,
			"-0.019": 0.0,
			"-0.018": 0.0,
			"-0.017": 0.0,
			"-0.016": 0.0,
			"-0.015": 0.0,
			"-0.014": 0.0,
			"-0.013": 0.0,
			"-0.012": 0.0,
			"-0.011": 0.0,
			"-0.01": 0.119758787396,
			"-0.009": 1.4660236379,
			"-0.008": 3.64526212641,
			"-0.007": 6.95096336926,
			"-0.006": 11.5890348591,
			"-0.005": 18.2098885315,
			"-0.004": 25.0967164802,
			"-0.003": 20.2249083994,
			"-0.002": 20.7847042059,
			"-0.001": 17.538421984,
			"0.0": 19.4919961902,
			"0.001": 21.4046530385,
			"0.002": 15.5400390716,
			"0.003": 12.0632707367,
			"0.004": 14.9137411155,
			"0.005": 8.85446414469,
			"0.006": 5.39670301557,
			"0.007": 7.03875746857,
			"0.008": 5.72672150697,
			"0.009": 4.33976285461,
			"0.01": 3.34799098147,
			"0.011": 2.78086631435,
			"0.012": 2.39675518904,
			"0.013": 1.5140592122,
			"0.014": 0.0531535951178,
			"0.015": 0.0,
			"0.016": 0.0,
			"0.017": 0.0,
			"0.018": 0.0,
			"0.019": 0.0,
			"0.02": 0.0,
			"0.021": 0.0,
			"0.022": 0.0,
			"0.023": 0.0,
			"0.024": 0.0,
			"0.025": 0.0
		}
	}
}
