{
	 "smiles": "CC(C)(C)C(=O)C1C(=O)C2=C(C=CC=C2)C1=O", 
	 "Tm": 382.15, 
	 "num_atms": 31, 
	 "gaussian": { 
		 "optdone": 1, 
		 "sigma_profile": "yes", 
		 "theory": "DFT", 
		 "functional": "B3LYP", 
		 "basiset": "6-31G**", 
		 "properties": { 
			 "R2extent": 4321.9289, 
			 "electric_dipole_moment_norm": 5.35331846615, 
			 "electric_quadrupole_moment_norm": 19.4539416595, 
			 "total_energy": -767.60031989, 
			 "HOMO_LUMO_gap": 0.1566, 
			 "cosmo_polarized_energy": -13.49, 
			 "cosmo_cavitation_energy": 33.93, 
			 "cosmo_dispersion_energy": -23.1, 
			 "cosmo_repulsion_energy": 1.76, 
			 "cosmo_total_nonelectrostatic_energy": 12.6, 
			 "SMD_solvation_energy": 7.35 
		},
		"coords": [
			{
				"x": 0.5603581779,
				"y": 1.2200941535,
				"z": 0.3536471316,
				"element": "C" 
			},
			{
				"x": 1.4830275847,
				"y": 0.036483574,
				"z": 0.6887608634,
				"element": "C" 
			},
			{
				"x": 2.6739617553,
				"y": 0.0034412371,
				"z": -0.3028257632,
				"element": "C" 
			},
			{
				"x": 2.0114383863,
				"y": 0.1874951923,
				"z": 2.1307474747,
				"element": "C" 
			},
			{
				"x": 0.8049843535,
				"y": -1.3490513318,
				"z": 0.5834552753,
				"element": "C" 
			},
			{
				"x": 1.346413166,
				"y": -2.3309776582,
				"z": 1.0502299293,
				"element": "O" 
			},
			{
				"x": -0.5466507369,
				"y": -1.5441617883,
				"z": -0.1304777768,
				"element": "C" 
			},
			{
				"x": -1.7822441113,
				"y": -0.9451085365,
				"z": 0.5770175301,
				"element": "C" 
			},
			{
				"x": -1.9898844751,
				"y": -0.933394183,
				"z": 1.7729008299,
				"element": "O" 
			},
			{
				"x": -2.6744916837,
				"y": -0.3990374495,
				"z": -0.4834491104,
				"element": "C" 
			},
			{
				"x": -2.0435490094,
				"y": -0.4694940025,
				"z": -1.7309387576,
				"element": "C" 
			},
			{
				"x": -2.6733371464,
				"y": -0.0060859389,
				"z": -2.8860403255,
				"element": "C" 
			},
			{
				"x": -3.9573091633,
				"y": 0.525235059,
				"z": -2.7587246458,
				"element": "C" 
			},
			{
				"x": -4.5910556754,
				"y": 0.5959613457,
				"z": -1.5055177085,
				"element": "C" 
			},
			{
				"x": -3.9552755626,
				"y": 0.136956914,
				"z": -0.3512432123,
				"element": "C" 
			},
			{
				"x": -0.6850951471,
				"y": -1.0642122509,
				"z": -1.5888675105,
				"element": "C" 
			},
			{
				"x": 0.1496059667,
				"y": -1.1673009972,
				"z": -2.465860275,
				"element": "O" 
			},
			{
				"x": -0.3004742459,
				"y": 1.2728499637,
				"z": 1.0271365113,
				"element": "H" 
			},
			{
				"x": 1.119092935,
				"y": 2.1545623006,
				"z": 0.4700990235,
				"element": "H" 
			},
			{
				"x": 0.2012410311,
				"y": 1.1964219647,
				"z": -0.679542027,
				"element": "H" 
			},
			{
				"x": 3.3577925721,
				"y": -0.8107589596,
				"z": -0.0486994835,
				"element": "H" 
			},
			{
				"x": 2.3342372404,
				"y": -0.1430708785,
				"z": -1.3323905923,
				"element": "H" 
			},
			{
				"x": 3.2234489863,
				"y": 0.9495992605,
				"z": -0.2499527197,
				"element": "H" 
			},
			{
				"x": 2.597149574,
				"y": 1.10850837,
				"z": 2.2188176968,
				"element": "H" 
			},
			{
				"x": 1.1863033758,
				"y": 0.2368575493,
				"z": 2.8490647943,
				"element": "H" 
			},
			{
				"x": 2.6440773831,
				"y": -0.6610053103,
				"z": 2.39781791,
				"element": "H" 
			},
			{
				"x": -0.6895264061,
				"y": -2.6331391159,
				"z": -0.1392312523,
				"element": "H" 
			},
			{
				"x": -2.1702177687,
				"y": -0.0627420022,
				"z": -3.8460488127,
				"element": "H" 
			},
			{
				"x": -4.4780661664,
				"y": 0.8929384018,
				"z": -3.6379794368,
				"element": "H" 
			},
			{
				"x": -5.5899981397,
				"y": 1.0169514744,
				"z": -1.43934467,
				"element": "H" 
			},
			{
				"x": -4.4306570503,
				"y": 0.1891836427,
				"z": 0.6230391097,
				"element": "H" 
			}
		],
		 "valence_orbital": [ 
			{
				"type": "occ",
				"energy": -0.28878,
				"method": "rhf"
			},
			{
				"type": "occ",
				"energy": -0.28612,
				"method": "rhf"
			},
			{
				"type": "occ",
				"energy": -0.28536,
				"method": "rhf"
			},
			{
				"type": "occ",
				"energy": -0.25715,
				"method": "rhf"
			},
			{
				"type": "occ",
				"energy": -0.24652,
				"method": "rhf"
			},
			{
				"type": "unocc",
				"energy": -0.08992,
				"method": "rhf"
			},
			{
				"type": "unocc",
				"energy": -0.07005,
				"method": "rhf"
			},
			{
				"type": "unocc",
				"energy": -0.02598,
				"method": "rhf"
			},
			{
				"type": "unocc",
				"energy": 0.01572,
				"method": "rhf"
			},
			{
				"type": "unocc",
				"energy": 0.02173,
				"method": "rhf"
			}
		],
		"cosmo_sigma_profile": { 
			"-0.025": 0.0,
			"-0.024": 0.0,
			"-0.023": 0.0,
			"-0.022": 0.0,
			"-0.021": 0.0,
			"-0.02": 0.0,
			"-0.019": 0.0,
			"-0.018": 0.0,
			"-0.017": 0.0,
			"-0.016": 0.0,
			"-0.015": 0.0,
			"-0.014": 0.0,
			"-0.013": 0.0,
			"-0.012": 0.0,
			"-0.011": 0.0655584415024,
			"-0.01": 2.253078199,
			"-0.009": 2.1654899854,
			"-0.008": 5.12810494347,
			"-0.007": 10.4499004193,
			"-0.006": 10.7997082242,
			"-0.005": 9.53021582463,
			"-0.004": 15.6061135684,
			"-0.003": 25.6005383117,
			"-0.002": 25.1712173032,
			"-0.001": 28.4887284518,
			"0.0": 35.5344201283,
			"0.001": 28.3557133913,
			"0.002": 11.8138242839,
			"0.003": 7.18771594758,
			"0.004": 4.99674680419,
			"0.005": 4.99730135943,
			"0.006": 4.01240668031,
			"0.007": 4.20432912231,
			"0.008": 5.85656363865,
			"0.009": 5.83931263293,
			"0.01": 9.38846221072,
			"0.011": 9.64012830818,
			"0.012": 1.45807483372,
			"0.013": 0.0,
			"0.014": 0.0,
			"0.015": 0.0,
			"0.016": 0.0,
			"0.017": 0.0,
			"0.018": 0.0,
			"0.019": 0.0,
			"0.02": 0.0,
			"0.021": 0.0,
			"0.022": 0.0,
			"0.023": 0.0,
			"0.024": 0.0,
			"0.025": 0.0
		}
	}
}
