{
	 "smiles": "C1=CC=C(C=C1)P(C1=CC=CC=C1)C1=CC=CC=C1", 
	 "Tm": 353.35, 
	 "num_atms": 34, 
	 "gaussian": { 
		 "optdone": 1, 
		 "sigma_profile": "yes", 
		 "theory": "DFT", 
		 "functional": "B3LYP", 
		 "basiset": "6-31G**", 
		 "properties": { 
			 "R2extent": 5530.6935, 
			 "electric_dipole_moment_norm": 1.39636311896, 
			 "electric_quadrupole_moment_norm": 4.00818776257, 
			 "total_energy": -1036.30487617, 
			 "HOMO_LUMO_gap": 0.19229, 
			 "cosmo_polarized_energy": -7.57, 
			 "cosmo_cavitation_energy": 38.91, 
			 "cosmo_dispersion_energy": -27.2, 
			 "cosmo_repulsion_energy": 2.19, 
			 "cosmo_total_nonelectrostatic_energy": 13.9, 
			 "SMD_solvation_energy": 6.61 
		},
		"coords": [
			{
				"x": 2.5329032084,
				"y": -0.334991583,
				"z": 3.3094327522,
				"element": "C" 
			},
			{
				"x": 1.4306811802,
				"y": 0.5155348459,
				"z": 3.2095808303,
				"element": "C" 
			},
			{
				"x": 0.5491600451,
				"y": 0.4025904932,
				"z": 2.132007098,
				"element": "C" 
			},
			{
				"x": 0.7554575395,
				"y": -0.5674035255,
				"z": 1.1389544935,
				"element": "C" 
			},
			{
				"x": 1.8611274013,
				"y": -1.4266259724,
				"z": 1.259454713,
				"element": "C" 
			},
			{
				"x": 2.7477955871,
				"y": -1.3065367592,
				"z": 2.3293815331,
				"element": "C" 
			},
			{
				"x": -0.3580923613,
				"y": -0.8345564565,
				"z": -0.3185881544,
				"element": "P" 
			},
			{
				"x": 0.3993053586,
				"y": 0.2597250924,
				"z": -1.6087557547,
				"element": "C" 
			},
			{
				"x": 1.3457589483,
				"y": 1.2624218822,
				"z": -1.3471854577,
				"element": "C" 
			},
			{
				"x": 1.8803452753,
				"y": 2.0245550513,
				"z": -2.3885081947,
				"element": "C" 
			},
			{
				"x": 1.475055189,
				"y": 1.7998522832,
				"z": -3.7051461786,
				"element": "C" 
			},
			{
				"x": 0.536092418,
				"y": 0.8029474949,
				"z": -3.979186782,
				"element": "C" 
			},
			{
				"x": 0.0108359927,
				"y": 0.0344194864,
				"z": -2.9405138902,
				"element": "C" 
			},
			{
				"x": -1.8814044399,
				"y": 0.1059020082,
				"z": 0.161876488,
				"element": "C" 
			},
			{
				"x": -2.8697707047,
				"y": -0.6028919346,
				"z": 0.8661277505,
				"element": "C" 
			},
			{
				"x": -4.0534586132,
				"y": 0.0204208333,
				"z": 1.260772777,
				"element": "C" 
			},
			{
				"x": -4.2774730604,
				"y": 1.3613298768,
				"z": 0.9408628659,
				"element": "C" 
			},
			{
				"x": -3.3103064597,
				"y": 2.0730922978,
				"z": 0.2293225431,
				"element": "C" 
			},
			{
				"x": -2.120112759,
				"y": 1.4518526641,
				"z": -0.155983693,
				"element": "C" 
			},
			{
				"x": 3.2166960085,
				"y": -0.2460756192,
				"z": 4.1489306915,
				"element": "H" 
			},
			{
				"x": 1.2551116047,
				"y": 1.2704266727,
				"z": 3.971296072,
				"element": "H" 
			},
			{
				"x": -0.3047413789,
				"y": 1.0694096064,
				"z": 2.0657540709,
				"element": "H" 
			},
			{
				"x": 2.0238612889,
				"y": -2.1980759453,
				"z": 0.5107492199,
				"element": "H" 
			},
			{
				"x": 3.5992037017,
				"y": -1.977386633,
				"z": 2.4037175717,
				"element": "H" 
			},
			{
				"x": 1.6692324416,
				"y": 1.446139548,
				"z": -0.327472912,
				"element": "H" 
			},
			{
				"x": 2.6141346348,
				"y": 2.7954693032,
				"z": -2.1691001604,
				"element": "H" 
			},
			{
				"x": 1.8928986332,
				"y": 2.3930953413,
				"z": -4.513666501,
				"element": "H" 
			},
			{
				"x": 0.2209501167,
				"y": 0.616742306,
				"z": -5.0021595593,
				"element": "H" 
			},
			{
				"x": -0.7050883584,
				"y": -0.7529019845,
				"z": -3.1635518079,
				"element": "H" 
			},
			{
				"x": -2.7106588444,
				"y": -1.6523358767,
				"z": 1.1017493304,
				"element": "H" 
			},
			{
				"x": -4.8044771678,
				"y": -0.5426838516,
				"z": 1.8078953672,
				"element": "H" 
			},
			{
				"x": -5.2029251456,
				"y": 1.8461723462,
				"z": 1.2386923931,
				"element": "H" 
			},
			{
				"x": -3.4805118993,
				"y": 3.1153386663,
				"z": -0.0268965711,
				"element": "H" 
			},
			{
				"x": -1.375785381,
				"y": 2.0156280417,
				"z": -0.7094429443,
				"element": "H" 
			}
		],
		 "valence_orbital": [ 
			{
				"type": "occ",
				"energy": -0.25484,
				"method": "rhf"
			},
			{
				"type": "occ",
				"energy": -0.25294,
				"method": "rhf"
			},
			{
				"type": "occ",
				"energy": -0.24745,
				"method": "rhf"
			},
			{
				"type": "occ",
				"energy": -0.24745,
				"method": "rhf"
			},
			{
				"type": "occ",
				"energy": -0.2117,
				"method": "rhf"
			},
			{
				"type": "unocc",
				"energy": -0.01941,
				"method": "rhf"
			},
			{
				"type": "unocc",
				"energy": -0.01938,
				"method": "rhf"
			},
			{
				"type": "unocc",
				"energy": -0.0093,
				"method": "rhf"
			},
			{
				"type": "unocc",
				"energy": 0.0009,
				"method": "rhf"
			},
			{
				"type": "unocc",
				"energy": 0.00332,
				"method": "rhf"
			}
		],
		"cosmo_sigma_profile": { 
			"-0.025": 0.0,
			"-0.024": 0.0,
			"-0.023": 0.0,
			"-0.022": 0.0,
			"-0.021": 0.0,
			"-0.02": 0.0,
			"-0.019": 0.0,
			"-0.018": 0.0,
			"-0.017": 0.0,
			"-0.016": 0.0,
			"-0.015": 0.0,
			"-0.014": 0.0,
			"-0.013": 0.0,
			"-0.012": 0.0,
			"-0.011": 0.0,
			"-0.01": 0.0,
			"-0.009": 0.0,
			"-0.008": 0.0,
			"-0.007": 0.0208423107148,
			"-0.006": 13.3938360137,
			"-0.005": 26.0992077675,
			"-0.004": 32.3465526839,
			"-0.003": 28.7992215553,
			"-0.002": 22.3322694045,
			"-0.001": 25.4784734854,
			"0.0": 21.8924438579,
			"0.001": 22.8122336127,
			"0.002": 25.2446595868,
			"0.003": 27.4769607477,
			"0.004": 27.1248255468,
			"0.005": 26.7705397356,
			"0.006": 7.77124015866,
			"0.007": 1.39984620389,
			"0.008": 0.531019528814,
			"0.009": 0.384101923027,
			"0.01": 0.751125902416,
			"0.011": 0.766441387329,
			"0.012": 0.71537257608,
			"0.013": 0.516255102216,
			"0.014": 0.178827659932,
			"0.015": 0.0,
			"0.016": 0.0,
			"0.017": 0.0,
			"0.018": 0.0,
			"0.019": 0.0,
			"0.02": 0.0,
			"0.021": 0.0,
			"0.022": 0.0,
			"0.023": 0.0,
			"0.024": 0.0,
			"0.025": 0.0
		}
	}
}
