{
	 "smiles": "OC1=CC=CC2=C1N=CC=C2", 
	 "Tm": 348.15, 
	 "num_atms": 18, 
	 "gaussian": { 
		 "optdone": 1, 
		 "sigma_profile": "yes", 
		 "theory": "DFT", 
		 "functional": "B3LYP", 
		 "basiset": "6-31G**", 
		 "properties": { 
			 "R2extent": 1607.3783, 
			 "electric_dipole_moment_norm": 2.16117167527, 
			 "electric_quadrupole_moment_norm": 15.4274562997, 
			 "total_energy": -477.147966705, 
			 "HOMO_LUMO_gap": 0.16577, 
			 "cosmo_polarized_energy": -13.17, 
			 "cosmo_cavitation_energy": 21.97, 
			 "cosmo_dispersion_energy": -16.75, 
			 "cosmo_repulsion_energy": 1.32, 
			 "cosmo_total_nonelectrostatic_energy": 6.54, 
			 "SMD_solvation_energy": 2.77 
		},
		"coords": [
			{
				"x": -2.8446134727,
				"y": 0.355414522,
				"z": -1.1444563567,
				"element": "O" 
			},
			{
				"x": -2.0402568095,
				"y": -0.2902498041,
				"z": -0.2621850016,
				"element": "C" 
			},
			{
				"x": -2.5210338076,
				"y": -1.1348738813,
				"z": 0.7214302881,
				"element": "C" 
			},
			{
				"x": -1.6383631201,
				"y": -1.7831641339,
				"z": 1.6155608711,
				"element": "C" 
			},
			{
				"x": -0.2790939618,
				"y": -1.5906219584,
				"z": 1.5302756873,
				"element": "C" 
			},
			{
				"x": 0.2481757707,
				"y": -0.7296753445,
				"z": 0.5318009628,
				"element": "C" 
			},
			{
				"x": -0.6289035791,
				"y": -0.0635069333,
				"z": -0.3836494058,
				"element": "C" 
			},
			{
				"x": -0.1842234085,
				"y": 0.7722272208,
				"z": -1.3603837338,
				"element": "N" 
			},
			{
				"x": 1.1152386081,
				"y": 0.9690861977,
				"z": -1.4576840053,
				"element": "C" 
			},
			{
				"x": 2.0750982644,
				"y": 0.3645209044,
				"z": -0.6086665819,
				"element": "C" 
			},
			{
				"x": 1.6373497447,
				"y": -0.4818721339,
				"z": 0.3819552857,
				"element": "C" 
			},
			{
				"x": -3.7624168976,
				"y": 0.1185241897,
				"z": -0.9556977117,
				"element": "H" 
			},
			{
				"x": -3.5926982064,
				"y": -1.3023360493,
				"z": 0.8078668696,
				"element": "H" 
			},
			{
				"x": -2.0510336325,
				"y": -2.4397981898,
				"z": 2.3759037568,
				"element": "H" 
			},
			{
				"x": 0.4006208669,
				"y": -2.087846585,
				"z": 2.2163503786,
				"element": "H" 
			},
			{
				"x": 1.4444103813,
				"y": 1.6428343419,
				"z": -2.2483628302,
				"element": "H" 
			},
			{
				"x": 3.1312014929,
				"y": 0.5737461585,
				"z": -0.7481683731,
				"element": "H" 
			},
			{
				"x": 2.3381417668,
				"y": -0.9677085215,
				"z": 1.0564099001,
				"element": "H" 
			}
		],
		 "valence_orbital": [ 
			{
				"type": "occ",
				"energy": -0.33027,
				"method": "rhf"
			},
			{
				"type": "occ",
				"energy": -0.28697,
				"method": "rhf"
			},
			{
				"type": "occ",
				"energy": -0.24988,
				"method": "rhf"
			},
			{
				"type": "occ",
				"energy": -0.24729,
				"method": "rhf"
			},
			{
				"type": "occ",
				"energy": -0.21044,
				"method": "rhf"
			},
			{
				"type": "unocc",
				"energy": -0.04467,
				"method": "rhf"
			},
			{
				"type": "unocc",
				"energy": -0.01403,
				"method": "rhf"
			},
			{
				"type": "unocc",
				"energy": 0.03315,
				"method": "rhf"
			},
			{
				"type": "unocc",
				"energy": 0.07002,
				"method": "rhf"
			},
			{
				"type": "unocc",
				"energy": 0.09499,
				"method": "rhf"
			}
		],
		"cosmo_sigma_profile": { 
			"-0.025": 0.0,
			"-0.024": 0.0,
			"-0.023": 0.0,
			"-0.022": 0.0,
			"-0.021": 0.0,
			"-0.02": 0.0,
			"-0.019": 0.0842647223289,
			"-0.018": 0.834139213791,
			"-0.017": 0.767702775281,
			"-0.016": 1.12454532046,
			"-0.015": 0.912984605525,
			"-0.014": 1.08596853868,
			"-0.013": 1.00036031192,
			"-0.012": 0.713183445711,
			"-0.011": 0.903272906228,
			"-0.01": 1.40484491238,
			"-0.009": 1.35905107397,
			"-0.008": 0.711572206344,
			"-0.007": 5.21106771432,
			"-0.006": 13.4969070451,
			"-0.005": 13.3013654465,
			"-0.004": 11.7609781266,
			"-0.003": 9.54663778908,
			"-0.002": 7.25816113056,
			"-0.001": 7.83643737371,
			"0.0": 7.70897715773,
			"0.001": 11.6211605382,
			"0.002": 21.1422681444,
			"0.003": 17.6792172338,
			"0.004": 9.75566767897,
			"0.005": 8.00632168108,
			"0.006": 2.40143192313,
			"0.007": 2.57694094736,
			"0.008": 1.14657156948,
			"0.009": 2.19642872928,
			"0.01": 1.59136569379,
			"0.011": 2.1806358435,
			"0.012": 1.74594873805,
			"0.013": 1.39735130242,
			"0.014": 1.48951655231,
			"0.015": 0.93042428245,
			"0.016": 1.43573712063,
			"0.017": 0.986587013202,
			"0.018": 0.983753472653,
			"0.019": 0.144934091057,
			"0.02": 0.0,
			"0.021": 0.0,
			"0.022": 0.0,
			"0.023": 0.0,
			"0.024": 0.0,
			"0.025": 0.0
		}
	}
}
