{
	 "smiles": "CC(CC1=C(C)N(C)N=C1C)C(O)=O", 
	 "Tm": 399.15, 
	 "num_atms": 30, 
	 "gaussian": { 
		 "optdone": 1, 
		 "sigma_profile": "yes", 
		 "theory": "DFT", 
		 "functional": "B3LYP", 
		 "basiset": "6-31G**", 
		 "properties": { 
			 "R2extent": 3180.5735, 
			 "electric_dipole_moment_norm": 2.92121909654, 
			 "electric_quadrupole_moment_norm": 15.3702863249, 
			 "total_energy": -650.676921193, 
			 "HOMO_LUMO_gap": 0.22971, 
			 "cosmo_polarized_energy": -14.68, 
			 "cosmo_cavitation_energy": 32.15, 
			 "cosmo_dispersion_energy": -21.94, 
			 "cosmo_repulsion_energy": 1.72, 
			 "cosmo_total_nonelectrostatic_energy": 11.93, 
			 "SMD_solvation_energy": 5.36 
		},
		"coords": [
			{
				"x": -0.3007881834,
				"y": -3.0362776955,
				"z": 0.5768830377,
				"element": "C" 
			},
			{
				"x": -1.2896667677,
				"y": -2.0792860951,
				"z": 1.243153449,
				"element": "C" 
			},
			{
				"x": -0.6018511008,
				"y": -0.8673192025,
				"z": 1.9526161233,
				"element": "C" 
			},
			{
				"x": 0.3208244552,
				"y": -0.0259811091,
				"z": 1.1143898951,
				"element": "C" 
			},
			{
				"x": 1.7079117914,
				"y": -0.1227514555,
				"z": 1.0397123306,
				"element": "C" 
			},
			{
				"x": 2.6762481377,
				"y": -1.0480291724,
				"z": 1.7064459661,
				"element": "C" 
			},
			{
				"x": 2.1182931016,
				"y": 0.8658046746,
				"z": 0.1951516381,
				"element": "N" 
			},
			{
				"x": 3.4717644357,
				"y": 1.194698126,
				"z": -0.202977299,
				"element": "C" 
			},
			{
				"x": 1.0860500283,
				"y": 1.6053932826,
				"z": -0.2787192615,
				"element": "N" 
			},
			{
				"x": -0.0059496315,
				"y": 1.0733539101,
				"z": 0.2684618472,
				"element": "C" 
			},
			{
				"x": -1.3517412936,
				"y": 1.6535328829,
				"z": -0.05177629,
				"element": "C" 
			},
			{
				"x": -2.3360298776,
				"y": -1.6075272845,
				"z": 0.249586269,
				"element": "C" 
			},
			{
				"x": -3.3820137077,
				"y": -1.0040609311,
				"z": 0.874503995,
				"element": "O" 
			},
			{
				"x": -2.2904960614,
				"y": -1.727163249,
				"z": -0.955579604,
				"element": "O" 
			},
			{
				"x": -0.819369676,
				"y": -3.8916085418,
				"z": 0.1355894679,
				"element": "H" 
			},
			{
				"x": 0.2474204811,
				"y": -2.5312905364,
				"z": -0.2214271728,
				"element": "H" 
			},
			{
				"x": 0.4176095058,
				"y": -3.4132275385,
				"z": 1.3118526776,
				"element": "H" 
			},
			{
				"x": -1.8450080051,
				"y": -2.6089958316,
				"z": 2.0284605418,
				"element": "H" 
			},
			{
				"x": -1.3890573804,
				"y": -0.2395753809,
				"z": 2.3841444094,
				"element": "H" 
			},
			{
				"x": -0.0439566686,
				"y": -1.2791708559,
				"z": 2.8018874824,
				"element": "H" 
			},
			{
				"x": 3.1639329943,
				"y": -1.7210883118,
				"z": 0.9903154872,
				"element": "H" 
			},
			{
				"x": 2.1630985955,
				"y": -1.6712407534,
				"z": 2.4418886485,
				"element": "H" 
			},
			{
				"x": 3.4681305697,
				"y": -0.5002803487,
				"z": 2.2310732676,
				"element": "H" 
			},
			{
				"x": 3.9565107855,
				"y": 0.3467661332,
				"z": -0.6987099737,
				"element": "H" 
			},
			{
				"x": 4.080166711,
				"y": 1.4945452851,
				"z": 0.6576589737,
				"element": "H" 
			},
			{
				"x": 3.4045872509,
				"y": 2.0281218673,
				"z": -0.9012508572,
				"element": "H" 
			},
			{
				"x": -1.8756245721,
				"y": 1.054017224,
				"z": -0.8044944359,
				"element": "H" 
			},
			{
				"x": -1.9911894148,
				"y": 1.7039562993,
				"z": 0.8357654945,
				"element": "H" 
			},
			{
				"x": -1.229349444,
				"y": 2.662749271,
				"z": -0.4518752789,
				"element": "H" 
			},
			{
				"x": -3.9866570588,
				"y": -0.7191646621,
				"z": 0.1690691712,
				"element": "H" 
			}
		],
		 "valence_orbital": [ 
			{
				"type": "occ",
				"energy": -0.31424,
				"method": "rhf"
			},
			{
				"type": "occ",
				"energy": -0.27243,
				"method": "rhf"
			},
			{
				"type": "occ",
				"energy": -0.26694,
				"method": "rhf"
			},
			{
				"type": "occ",
				"energy": -0.22436,
				"method": "rhf"
			},
			{
				"type": "occ",
				"energy": -0.22038,
				"method": "rhf"
			},
			{
				"type": "unocc",
				"energy": 0.00933,
				"method": "rhf"
			},
			{
				"type": "unocc",
				"energy": 0.03007,
				"method": "rhf"
			},
			{
				"type": "unocc",
				"energy": 0.0625,
				"method": "rhf"
			},
			{
				"type": "unocc",
				"energy": 0.07787,
				"method": "rhf"
			},
			{
				"type": "unocc",
				"energy": 0.08351,
				"method": "rhf"
			}
		],
		"cosmo_sigma_profile": { 
			"-0.025": 0.0,
			"-0.024": 0.0,
			"-0.023": 0.0,
			"-0.022": 0.0,
			"-0.021": 0.0,
			"-0.02": 0.0,
			"-0.019": 0.0,
			"-0.018": 0.301276974081,
			"-0.017": 1.00580644942,
			"-0.016": 0.62262485012,
			"-0.015": 0.551937338502,
			"-0.014": 0.792116434862,
			"-0.013": 0.784209430372,
			"-0.012": 1.03004260273,
			"-0.011": 0.553834995724,
			"-0.01": 0.662891882179,
			"-0.009": 0.530986727213,
			"-0.008": 0.501852832326,
			"-0.007": 1.02079295872,
			"-0.006": 5.01360275662,
			"-0.005": 19.883036485,
			"-0.004": 25.0949828074,
			"-0.003": 29.4671676397,
			"-0.002": 26.8663547985,
			"-0.001": 25.1897460876,
			"0.0": 22.6224733689,
			"0.001": 16.0991315516,
			"0.002": 9.44136125625,
			"0.003": 8.24697927997,
			"0.004": 6.69841678469,
			"0.005": 9.70516106431,
			"0.006": 6.17757927588,
			"0.007": 5.14424290321,
			"0.008": 4.1733055299,
			"0.009": 4.78835215282,
			"0.01": 3.46617576611,
			"0.011": 3.80784034929,
			"0.012": 5.35968910414,
			"0.013": 1.80380361978,
			"0.014": 1.25163268355,
			"0.015": 1.01771422427,
			"0.016": 0.873488013157,
			"0.017": 0.257002413134,
			"0.018": 0.0,
			"0.019": 0.0,
			"0.02": 0.0,
			"0.021": 0.0,
			"0.022": 0.0,
			"0.023": 0.0,
			"0.024": 0.0,
			"0.025": 0.0
		}
	}
}
