{
	 "smiles": "CC(=O)OC1=CC=CC2=C1N=CC=C2", 
	 "Tm": 328.15, 
	 "num_atms": 23, 
	 "gaussian": { 
		 "optdone": 1, 
		 "sigma_profile": "yes", 
		 "theory": "DFT", 
		 "functional": "B3LYP", 
		 "basiset": "6-31G**", 
		 "properties": { 
			 "R2extent": 2648.666, 
			 "electric_dipole_moment_norm": 2.19831963327, 
			 "electric_quadrupole_moment_norm": 16.5245867703, 
			 "total_energy": -629.806485177, 
			 "HOMO_LUMO_gap": 0.1742, 
			 "cosmo_polarized_energy": -11.77, 
			 "cosmo_cavitation_energy": 27.72, 
			 "cosmo_dispersion_energy": -19.97, 
			 "cosmo_repulsion_energy": 1.57, 
			 "cosmo_total_nonelectrostatic_energy": 9.33, 
			 "SMD_solvation_energy": 4.94 
		},
		"coords": [
			{
				"x": -3.9997676139,
				"y": 0.3199312201,
				"z": -0.3334898758,
				"element": "C" 
			},
			{
				"x": -2.5559646356,
				"y": 0.5655533933,
				"z": -0.6837186528,
				"element": "C" 
			},
			{
				"x": -1.9811536965,
				"y": 1.6225378077,
				"z": -0.6680883691,
				"element": "O" 
			},
			{
				"x": -1.9583599393,
				"y": -0.6225379115,
				"z": -1.0481044228,
				"element": "O" 
			},
			{
				"x": -0.5768630615,
				"y": -0.6474540029,
				"z": -1.1518590097,
				"element": "C" 
			},
			{
				"x": 0.0065190911,
				"y": -0.8233626789,
				"z": -2.3830565698,
				"element": "C" 
			},
			{
				"x": 1.413724461,
				"y": -0.9336084981,
				"z": -2.4935702804,
				"element": "C" 
			},
			{
				"x": 2.2122427818,
				"y": -0.8608612446,
				"z": -1.3753446398,
				"element": "C" 
			},
			{
				"x": 1.6306361444,
				"y": -0.6836104934,
				"z": -0.0920422667,
				"element": "C" 
			},
			{
				"x": 0.2091016344,
				"y": -0.5797969129,
				"z": 0.0366372246,
				"element": "C" 
			},
			{
				"x": -0.4194430393,
				"y": -0.4285902056,
				"z": 1.2343306602,
				"element": "N" 
			},
			{
				"x": 0.3314378387,
				"y": -0.363179879,
				"z": 2.3153859078,
				"element": "C" 
			},
			{
				"x": 1.7464861803,
				"y": -0.4438619751,
				"z": 2.306583985,
				"element": "C" 
			},
			{
				"x": 2.3909063052,
				"y": -0.6064075505,
				"z": 1.103264745,
				"element": "C" 
			},
			{
				"x": -4.5228452081,
				"y": 1.272413211,
				"z": -0.2538993,
				"element": "H" 
			},
			{
				"x": -4.0415296107,
				"y": -0.2033648092,
				"z": 0.6270806289,
				"element": "H" 
			},
			{
				"x": -4.477114753,
				"y": -0.3197381818,
				"z": -1.0800189898,
				"element": "H" 
			},
			{
				"x": -0.6260071299,
				"y": -0.8763579105,
				"z": -3.262806758,
				"element": "H" 
			},
			{
				"x": 1.8578931024,
				"y": -1.0711434812,
				"z": -3.4746373171,
				"element": "H" 
			},
			{
				"x": 3.2927062655,
				"y": -0.9405197302,
				"z": -1.4583967243,
				"element": "H" 
			},
			{
				"x": -0.1936987462,
				"y": -0.2410117789,
				"z": 3.262054458,
				"element": "H" 
			},
			{
				"x": 2.2974906918,
				"y": -0.3800146958,
				"z": 3.2394671528,
				"element": "H" 
			},
			{
				"x": 3.4744029372,
				"y": -0.676913692,
				"z": 1.0506284139,
				"element": "H" 
			}
		],
		 "valence_orbital": [ 
			{
				"type": "occ",
				"energy": -0.29594,
				"method": "rhf"
			},
			{
				"type": "occ",
				"energy": -0.26977,
				"method": "rhf"
			},
			{
				"type": "occ",
				"energy": -0.25915,
				"method": "rhf"
			},
			{
				"type": "occ",
				"energy": -0.25529,
				"method": "rhf"
			},
			{
				"type": "occ",
				"energy": -0.23004,
				"method": "rhf"
			},
			{
				"type": "unocc",
				"energy": -0.05584,
				"method": "rhf"
			},
			{
				"type": "unocc",
				"energy": -0.01995,
				"method": "rhf"
			},
			{
				"type": "unocc",
				"energy": 0.01136,
				"method": "rhf"
			},
			{
				"type": "unocc",
				"energy": 0.02548,
				"method": "rhf"
			},
			{
				"type": "unocc",
				"energy": 0.08619,
				"method": "rhf"
			}
		],
		"cosmo_sigma_profile": { 
			"-0.025": 0.0,
			"-0.024": 0.0,
			"-0.023": 0.0,
			"-0.022": 0.0,
			"-0.021": 0.0,
			"-0.02": 0.0,
			"-0.019": 0.0,
			"-0.018": 0.0,
			"-0.017": 0.0,
			"-0.016": 0.0,
			"-0.015": 0.0,
			"-0.014": 0.0,
			"-0.013": 0.0,
			"-0.012": 0.0,
			"-0.011": 0.0,
			"-0.01": 0.0,
			"-0.009": 0.0,
			"-0.008": 1.06641964257,
			"-0.007": 11.2176037022,
			"-0.006": 19.8316055033,
			"-0.005": 17.9659734259,
			"-0.004": 16.1174583939,
			"-0.003": 15.5607905668,
			"-0.002": 17.9342931201,
			"-0.001": 11.2578700725,
			"0.0": 11.9348567545,
			"0.001": 19.3234546645,
			"0.002": 21.8696536205,
			"0.003": 12.7140054974,
			"0.004": 7.93987869464,
			"0.005": 5.09611054301,
			"0.006": 3.94184098118,
			"0.007": 4.46722917173,
			"0.008": 4.97814491942,
			"0.009": 4.8847998981,
			"0.01": 4.43802227532,
			"0.011": 6.40876760719,
			"0.012": 3.3412350112,
			"0.013": 0.231141712058,
			"0.014": 0.0,
			"0.015": 0.0,
			"0.016": 0.0,
			"0.017": 0.0,
			"0.018": 0.0,
			"0.019": 0.0,
			"0.02": 0.0,
			"0.021": 0.0,
			"0.022": 0.0,
			"0.023": 0.0,
			"0.024": 0.0,
			"0.025": 0.0
		}
	}
}
