{
	 "smiles": "CC1=NC2=C(N=NC3=CC=CC=C3[N+]([O-])=O)C(N)=NN2C(=C1)C(F)(F)F", 
	 "Tm": 508.15, 
	 "num_atms": 36, 
	 "gaussian": { 
		 "optdone": 1, 
		 "sigma_profile": "yes", 
		 "theory": "DFT", 
		 "functional": "B3LYP", 
		 "basiset": "6-31G**", 
		 "properties": { 
			 "R2extent": 12457.2715, 
			 "electric_dipole_moment_norm": 4.18451307801, 
			 "electric_quadrupole_moment_norm": 28.9024803529, 
			 "total_energy": -1372.57780175, 
			 "HOMO_LUMO_gap": 0.12976, 
			 "cosmo_polarized_energy": -22.79, 
			 "cosmo_cavitation_energy": 44.85, 
			 "cosmo_dispersion_energy": -30.67, 
			 "cosmo_repulsion_energy": 2.28, 
			 "cosmo_total_nonelectrostatic_energy": 16.47, 
			 "SMD_solvation_energy": 8.16 
		},
		"coords": [
			{
				"x": 0.1798836581,
				"y": 2.8907381777,
				"z": 3.7396259469,
				"element": "C" 
			},
			{
				"x": 1.1315644209,
				"y": 2.3376705889,
				"z": 2.7146199143,
				"element": "C" 
			},
			{
				"x": 0.6094375104,
				"y": 1.7328984229,
				"z": 1.6530371454,
				"element": "N" 
			},
			{
				"x": 1.4434764985,
				"y": 1.2420227089,
				"z": 0.7310830789,
				"element": "C" 
			},
			{
				"x": 1.2520025586,
				"y": 0.5512463605,
				"z": -0.4872429522,
				"element": "C" 
			},
			{
				"x": 0.1535743724,
				"y": 0.1181978406,
				"z": -1.1817923598,
				"element": "N" 
			},
			{
				"x": -0.9822475732,
				"y": 0.4605695348,
				"z": -0.7288133795,
				"element": "N" 
			},
			{
				"x": -2.065495819,
				"y": -0.1153690342,
				"z": -1.4211132149,
				"element": "C" 
			},
			{
				"x": -2.0058475172,
				"y": -1.4031623925,
				"z": -1.981652541,
				"element": "C" 
			},
			{
				"x": -3.1327416849,
				"y": -1.9986765892,
				"z": -2.5380076188,
				"element": "C" 
			},
			{
				"x": -4.3630289846,
				"y": -1.3330968971,
				"z": -2.5302807655,
				"element": "C" 
			},
			{
				"x": -4.4532935107,
				"y": -0.0629256972,
				"z": -1.9678989809,
				"element": "C" 
			},
			{
				"x": -3.3144963406,
				"y": 0.5380453947,
				"z": -1.4361315989,
				"element": "C" 
			},
			{
				"x": -3.4571012079,
				"y": 1.9088083145,
				"z": -0.9284564905,
				"element": "N" 
			},
			{
				"x": -4.5467884187,
				"y": 2.2130340049,
				"z": -0.4357551279,
				"element": "O" 
			},
			{
				"x": -2.5021030507,
				"y": 2.6703038353,
				"z": -1.0502258924,
				"element": "O" 
			},
			{
				"x": 2.5736954474,
				"y": 0.2989860672,
				"z": -0.973786081,
				"element": "C" 
			},
			{
				"x": 2.8662511316,
				"y": -0.3085489455,
				"z": -2.149489037,
				"element": "N" 
			},
			{
				"x": 3.5336237328,
				"y": 0.7629310681,
				"z": -0.1637053448,
				"element": "N" 
			},
			{
				"x": 2.8405363423,
				"y": 1.3335896228,
				"z": 0.8636344758,
				"element": "N" 
			},
			{
				"x": 3.3852039262,
				"y": 1.9454802878,
				"z": 1.9426589638,
				"element": "C" 
			},
			{
				"x": 2.5360843931,
				"y": 2.465787495,
				"z": 2.891288873,
				"element": "C" 
			},
			{
				"x": 4.8941238873,
				"y": 2.0216344695,
				"z": 2.0464602616,
				"element": "C" 
			},
			{
				"x": 5.2414728287,
				"y": 2.6637850751,
				"z": 3.1813072506,
				"element": "F" 
			},
			{
				"x": 5.4253733599,
				"y": 2.6947484626,
				"z": 1.0149482636,
				"element": "F" 
			},
			{
				"x": 5.4452839806,
				"y": 0.7980083317,
				"z": 2.0832333432,
				"element": "F" 
			},
			{
				"x": 0.3189158485,
				"y": 3.971373924,
				"z": 3.8579745726,
				"element": "H" 
			},
			{
				"x": 0.350382513,
				"y": 2.4329071622,
				"z": 4.7208178828,
				"element": "H" 
			},
			{
				"x": -0.8468416308,
				"y": 2.6975977627,
				"z": 3.4279127938,
				"element": "H" 
			},
			{
				"x": -1.0558480894,
				"y": -1.9240254066,
				"z": -1.9438294673,
				"element": "H" 
			},
			{
				"x": -3.0572694915,
				"y": -2.9941295187,
				"z": -2.9661207276,
				"element": "H" 
			},
			{
				"x": -5.2454925297,
				"y": -1.8008849446,
				"z": -2.9544738642,
				"element": "H" 
			},
			{
				"x": -5.3883406091,
				"y": 0.4832110963,
				"z": -1.9389428275,
				"element": "H" 
			},
			{
				"x": 2.1084720498,
				"y": -0.7823430544,
				"z": -2.6157215858,
				"element": "H" 
			},
			{
				"x": 3.8074891716,
				"y": -0.6344249114,
				"z": -2.3008627769,
				"element": "H" 
			},
			{
				"x": 2.9502888264,
				"y": 2.9614113825,
				"z": 3.758899868,
				"element": "H" 
			}
		],
		 "valence_orbital": [ 
			{
				"type": "occ",
				"energy": -0.2732,
				"method": "rhf"
			},
			{
				"type": "occ",
				"energy": -0.26433,
				"method": "rhf"
			},
			{
				"type": "occ",
				"energy": -0.24018,
				"method": "rhf"
			},
			{
				"type": "occ",
				"energy": -0.22735,
				"method": "rhf"
			},
			{
				"type": "occ",
				"energy": -0.216,
				"method": "rhf"
			},
			{
				"type": "unocc",
				"energy": -0.08624,
				"method": "rhf"
			},
			{
				"type": "unocc",
				"energy": -0.07124,
				"method": "rhf"
			},
			{
				"type": "unocc",
				"energy": -0.06218,
				"method": "rhf"
			},
			{
				"type": "unocc",
				"energy": -0.01776,
				"method": "rhf"
			},
			{
				"type": "unocc",
				"energy": -0.00154,
				"method": "rhf"
			}
		],
		"cosmo_sigma_profile": { 
			"-0.025": 0.0,
			"-0.024": 0.0,
			"-0.023": 0.0,
			"-0.022": 0.0,
			"-0.021": 0.0,
			"-0.02": 0.0,
			"-0.019": 0.0,
			"-0.018": 0.0,
			"-0.017": 0.0,
			"-0.016": 0.0,
			"-0.015": 0.61938719235,
			"-0.014": 1.24588032233,
			"-0.013": 1.64407995712,
			"-0.012": 2.06468642022,
			"-0.011": 2.10387851682,
			"-0.01": 2.72353383265,
			"-0.009": 2.4240164643,
			"-0.008": 4.2762637162,
			"-0.007": 11.1085156895,
			"-0.006": 21.1008698419,
			"-0.005": 23.7599375699,
			"-0.004": 23.4895755755,
			"-0.003": 22.0683244483,
			"-0.002": 24.7512706317,
			"-0.001": 23.9953714339,
			"0.0": 25.7461514573,
			"0.001": 36.2682479076,
			"0.002": 41.195088103,
			"0.003": 15.319436353,
			"0.004": 10.189732594,
			"0.005": 7.50633566915,
			"0.006": 8.76942597393,
			"0.007": 10.3989670066,
			"0.008": 12.6384615625,
			"0.009": 10.2323852937,
			"0.01": 6.84841814439,
			"0.011": 3.14496286786,
			"0.012": 1.29601605797,
			"0.013": 0.790686200901,
			"0.014": 1.10171320276,
			"0.015": 1.15139629067,
			"0.016": 0.721548114228,
			"0.017": 0.444591353703,
			"0.018": 0.0182191649844,
			"0.019": 0.0,
			"0.02": 0.0,
			"0.021": 0.0,
			"0.022": 0.0,
			"0.023": 0.0,
			"0.024": 0.0,
			"0.025": 0.0
		}
	}
}
