{
	 "smiles": "CC1=NN=C(N)S1", 
	 "Tm": 498.15, 
	 "num_atms": 12, 
	 "gaussian": { 
		 "optdone": 1, 
		 "sigma_profile": "yes", 
		 "theory": "DFT", 
		 "functional": "B3LYP", 
		 "basiset": "6-31G**", 
		 "properties": { 
			 "R2extent": 1917.1898, 
			 "electric_dipole_moment_norm": 3.18910277194, 
			 "electric_quadrupole_moment_norm": 13.3274290488, 
			 "total_energy": -679.749060815, 
			 "HOMO_LUMO_gap": 0.21347, 
			 "cosmo_polarized_energy": -13.65, 
			 "cosmo_cavitation_energy": 17.81, 
			 "cosmo_dispersion_energy": -14.06, 
			 "cosmo_repulsion_energy": 1.15, 
			 "cosmo_total_nonelectrostatic_energy": 4.9, 
			 "SMD_solvation_energy": 1.16 
		},
		"coords": [
			{
				"x": 1.5008442911,
				"y": 0.4315759337,
				"z": 0.6355906259,
				"element": "C" 
			},
			{
				"x": 0.4309350027,
				"y": 1.3492020628,
				"z": 0.1373988929,
				"element": "C" 
			},
			{
				"x": -0.7655711113,
				"y": 1.4122497977,
				"z": 0.6291741747,
				"element": "N" 
			},
			{
				"x": -1.5898743572,
				"y": 2.310958798,
				"z": 0.0022571146,
				"element": "N" 
			},
			{
				"x": -0.9942511688,
				"y": 2.9458937431,
				"z": -0.9695583049,
				"element": "C" 
			},
			{
				"x": -1.58826316,
				"y": 3.9543126591,
				"z": -1.6922554483,
				"element": "N" 
			},
			{
				"x": 0.6869818166,
				"y": 2.4750365877,
				"z": -1.2135906727,
				"element": "S" 
			},
			{
				"x": 1.0911311959,
				"y": -0.14990368,
				"z": 1.4639028157,
				"element": "H" 
			},
			{
				"x": 1.8376315352,
				"y": -0.2571885471,
				"z": -0.1465878143,
				"element": "H" 
			},
			{
				"x": 2.3750111029,
				"y": 0.9865086233,
				"z": 0.9923325351,
				"element": "H" 
			},
			{
				"x": -2.5871536182,
				"y": 4.003616659,
				"z": -1.5334662592,
				"element": "H" 
			},
			{
				"x": -1.3280215289,
				"y": 4.0301373628,
				"z": -2.6652976594,
				"element": "H" 
			}
		],
		 "valence_orbital": [ 
			{
				"type": "occ",
				"energy": -0.33707,
				"method": "rhf"
			},
			{
				"type": "occ",
				"energy": -0.29493,
				"method": "rhf"
			},
			{
				"type": "occ",
				"energy": -0.28455,
				"method": "rhf"
			},
			{
				"type": "occ",
				"energy": -0.25507,
				"method": "rhf"
			},
			{
				"type": "occ",
				"energy": -0.2295,
				"method": "rhf"
			},
			{
				"type": "unocc",
				"energy": -0.01603,
				"method": "rhf"
			},
			{
				"type": "unocc",
				"energy": -0.00024,
				"method": "rhf"
			},
			{
				"type": "unocc",
				"energy": 0.04991,
				"method": "rhf"
			},
			{
				"type": "unocc",
				"energy": 0.06669,
				"method": "rhf"
			},
			{
				"type": "unocc",
				"energy": 0.10321,
				"method": "rhf"
			}
		],
		"cosmo_sigma_profile": { 
			"-0.025": 0.0,
			"-0.024": 0.0,
			"-0.023": 0.0,
			"-0.022": 0.0,
			"-0.021": 0.0,
			"-0.02": 0.0,
			"-0.019": 0.0,
			"-0.018": 0.0,
			"-0.017": 0.0,
			"-0.016": 0.0,
			"-0.015": 0.940493477357,
			"-0.014": 2.1944660847,
			"-0.013": 2.93369686591,
			"-0.012": 2.64598610242,
			"-0.011": 2.30934781543,
			"-0.01": 2.37540066884,
			"-0.009": 2.0473157943,
			"-0.008": 2.09786187522,
			"-0.007": 1.24543534409,
			"-0.006": 6.06147211423,
			"-0.005": 9.60229584751,
			"-0.004": 9.81380419047,
			"-0.003": 8.28334411813,
			"-0.002": 10.5829189654,
			"-0.001": 9.75944013411,
			"0.0": 10.8985033778,
			"0.001": 9.50677655197,
			"0.002": 7.32898499103,
			"0.003": 7.00166452769,
			"0.004": 4.39060675047,
			"0.005": 2.97042469657,
			"0.006": 3.58634649004,
			"0.007": 2.8599987229,
			"0.008": 1.98302759888,
			"0.009": 2.14357633861,
			"0.01": 3.30454310943,
			"0.011": 3.24737588109,
			"0.012": 2.84000218676,
			"0.013": 3.33718075687,
			"0.014": 2.86433435954,
			"0.015": 2.15404450607,
			"0.016": 0.589550116155,
			"0.017": 0.0,
			"0.018": 0.0,
			"0.019": 0.0,
			"0.02": 0.0,
			"0.021": 0.0,
			"0.022": 0.0,
			"0.023": 0.0,
			"0.024": 0.0,
			"0.025": 0.0
		}
	}
}
