{
	 "smiles": "CN(C)C1=CC=C(C=C1)C1NN2C(COC3=CC=CC=C3)=NN=C2S1", 
	 "Tm": 417.15, 
	 "num_atms": 44, 
	 "gaussian": { 
		 "optdone": 1, 
		 "sigma_profile": "yes", 
		 "theory": "DFT", 
		 "functional": "B3LYP", 
		 "basiset": "6-31G**", 
		 "properties": { 
			 "R2extent": 14631.923, 
			 "electric_dipole_moment_norm": 9.187803903, 
			 "electric_quadrupole_moment_norm": 40.0192685979, 
			 "total_energy": -1444.43858592, 
			 "HOMO_LUMO_gap": 0.17856, 
			 "cosmo_polarized_energy": -22.85, 
			 "cosmo_cavitation_energy": 49.31, 
			 "cosmo_dispersion_energy": -35.32, 
			 "cosmo_repulsion_energy": 2.61, 
			 "cosmo_total_nonelectrostatic_energy": 16.6, 
			 "SMD_solvation_energy": 4.48 
		},
		"coords": [
			{
				"x": -3.8417073401,
				"y": 2.0485735902,
				"z": 4.50356101,
				"element": "C" 
			},
			{
				"x": -2.407024129,
				"y": 2.1955617105,
				"z": 4.3243784514,
				"element": "N" 
			},
			{
				"x": -1.599045294,
				"y": 2.6429082151,
				"z": 5.4470314807,
				"element": "C" 
			},
			{
				"x": -1.8703147402,
				"y": 2.1873192608,
				"z": 3.050150228,
				"element": "C" 
			},
			{
				"x": -2.6654810152,
				"y": 1.8927961954,
				"z": 1.9172883006,
				"element": "C" 
			},
			{
				"x": -2.1078630455,
				"y": 1.8648738109,
				"z": 0.644559831,
				"element": "C" 
			},
			{
				"x": -0.7512174606,
				"y": 2.1351689295,
				"z": 0.4318881697,
				"element": "C" 
			},
			{
				"x": 0.0400441221,
				"y": 2.440227055,
				"z": 1.5489354733,
				"element": "C" 
			},
			{
				"x": -0.4982874229,
				"y": 2.4658867298,
				"z": 2.8269795728,
				"element": "C" 
			},
			{
				"x": -0.187036015,
				"y": 2.1176885522,
				"z": -0.9526389061,
				"element": "C" 
			},
			{
				"x": 1.1300705284,
				"y": 1.4251176881,
				"z": -1.0144733561,
				"element": "N" 
			},
			{
				"x": 1.7086945422,
				"y": 1.8458915377,
				"z": -2.2367956437,
				"element": "N" 
			},
			{
				"x": 2.7036653086,
				"y": 1.4030904089,
				"z": -3.0584363913,
				"element": "C" 
			},
			{
				"x": 3.3879471807,
				"y": 0.0896543284,
				"z": -2.9150721875,
				"element": "C" 
			},
			{
				"x": 2.381924784,
				"y": -0.8963617563,
				"z": -2.6620639152,
				"element": "O" 
			},
			{
				"x": 2.7810294808,
				"y": -2.1978674759,
				"z": -2.4780407307,
				"element": "C" 
			},
			{
				"x": 4.1064386656,
				"y": -2.6362237468,
				"z": -2.5616513862,
				"element": "C" 
			},
			{
				"x": 4.3935250537,
				"y": -3.9898950286,
				"z": -2.3558188966,
				"element": "C" 
			},
			{
				"x": 3.3801677293,
				"y": -4.9020704209,
				"z": -2.0714382882,
				"element": "C" 
			},
			{
				"x": 2.0575799869,
				"y": -4.4526785962,
				"z": -1.9938127653,
				"element": "C" 
			},
			{
				"x": 1.7553934406,
				"y": -3.1102207454,
				"z": -2.1950524259,
				"element": "C" 
			},
			{
				"x": 2.9438606248,
				"y": 2.3237577351,
				"z": -3.9734278968,
				"element": "N" 
			},
			{
				"x": 2.1134241421,
				"y": 3.4095305214,
				"z": -3.7347548037,
				"element": "N" 
			},
			{
				"x": 1.389852575,
				"y": 3.0884186331,
				"z": -2.6868507914,
				"element": "C" 
			},
			{
				"x": 0.171814533,
				"y": 3.8428415303,
				"z": -1.6585340645,
				"element": "S" 
			},
			{
				"x": -4.1972339698,
				"y": 1.0926542365,
				"z": 4.1001961705,
				"element": "H" 
			},
			{
				"x": -4.4135114937,
				"y": 2.8543375725,
				"z": 4.0193059573,
				"element": "H" 
			},
			{
				"x": -4.0729333483,
				"y": 2.062047524,
				"z": 5.569328709,
				"element": "H" 
			},
			{
				"x": -0.7055350083,
				"y": 2.0188366284,
				"z": 5.5681355425,
				"element": "H" 
			},
			{
				"x": -2.1840766755,
				"y": 2.560558921,
				"z": 6.3638310684,
				"element": "H" 
			},
			{
				"x": -1.2713574815,
				"y": 3.6879814235,
				"z": 5.3431233104,
				"element": "H" 
			},
			{
				"x": -3.7216182202,
				"y": 1.6816824802,
				"z": 2.0271783445,
				"element": "H" 
			},
			{
				"x": -2.7484260247,
				"y": 1.6305449742,
				"z": -0.2028071715,
				"element": "H" 
			},
			{
				"x": 1.0942735465,
				"y": 2.6549569493,
				"z": 1.40726173,
				"element": "H" 
			},
			{
				"x": 0.1520152021,
				"y": 2.7080486739,
				"z": 3.6581606567,
				"element": "H" 
			},
			{
				"x": -0.9042499245,
				"y": 1.6704534145,
				"z": -1.6535911151,
				"element": "H" 
			},
			{
				"x": 0.9790802165,
				"y": 0.4182396861,
				"z": -1.091103745,
				"element": "H" 
			},
			{
				"x": 4.1046418343,
				"y": 0.1044529436,
				"z": -2.0807134759,
				"element": "H" 
			},
			{
				"x": 3.9359276174,
				"y": -0.1152285994,
				"z": -3.8413607798,
				"element": "H" 
			},
			{
				"x": 4.9125755922,
				"y": -1.9481988338,
				"z": -2.7864626081,
				"element": "H" 
			},
			{
				"x": 5.4247915276,
				"y": -4.3245929563,
				"z": -2.4222361672,
				"element": "H" 
			},
			{
				"x": 3.6136693063,
				"y": -5.9503051033,
				"z": -1.9140127032,
				"element": "H" 
			},
			{
				"x": 1.2556856865,
				"y": -5.1523392274,
				"z": -1.7762010522,
				"element": "H" 
			},
			{
				"x": 0.7336253817,
				"y": -2.7474193697,
				"z": -2.1440427394,
				"element": "H" 
			}
		],
		 "valence_orbital": [ 
			{
				"type": "occ",
				"energy": -0.24841,
				"method": "rhf"
			},
			{
				"type": "occ",
				"energy": -0.24493,
				"method": "rhf"
			},
			{
				"type": "occ",
				"energy": -0.23012,
				"method": "rhf"
			},
			{
				"type": "occ",
				"energy": -0.21649,
				"method": "rhf"
			},
			{
				"type": "occ",
				"energy": -0.20195,
				"method": "rhf"
			},
			{
				"type": "unocc",
				"energy": -0.02339,
				"method": "rhf"
			},
			{
				"type": "unocc",
				"energy": -0.00914,
				"method": "rhf"
			},
			{
				"type": "unocc",
				"energy": -0.00798,
				"method": "rhf"
			},
			{
				"type": "unocc",
				"energy": 0.00444,
				"method": "rhf"
			},
			{
				"type": "unocc",
				"energy": 0.01309,
				"method": "rhf"
			}
		],
		"cosmo_sigma_profile": { 
			"-0.025": 0.0,
			"-0.024": 0.0,
			"-0.023": 0.0,
			"-0.022": 0.0,
			"-0.021": 0.0,
			"-0.02": 0.0,
			"-0.019": 0.0,
			"-0.018": 0.0,
			"-0.017": 0.0,
			"-0.016": 0.0,
			"-0.015": 0.0,
			"-0.014": 0.0952656321041,
			"-0.013": 0.692226218961,
			"-0.012": 1.03816615965,
			"-0.011": 1.19154514369,
			"-0.01": 1.21951449877,
			"-0.009": 1.89814089111,
			"-0.008": 7.44555877029,
			"-0.007": 13.9083541139,
			"-0.006": 18.9995008047,
			"-0.005": 29.1241354401,
			"-0.004": 33.8604491844,
			"-0.003": 34.058595466,
			"-0.002": 33.941870833,
			"-0.001": 29.336237457,
			"0.0": 22.1292894466,
			"0.001": 22.9085159557,
			"0.002": 22.0877417139,
			"0.003": 24.099693824,
			"0.004": 23.9255680645,
			"0.005": 24.4317094424,
			"0.006": 19.8694804311,
			"0.007": 4.35252954652,
			"0.008": 1.99076716398,
			"0.009": 2.39850258365,
			"0.01": 2.80530973125,
			"0.011": 2.3729399512,
			"0.012": 2.30528375055,
			"0.013": 4.29768951736,
			"0.014": 2.94237864505,
			"0.015": 2.73145542091,
			"0.016": 2.32712713079,
			"0.017": 0.533779037806,
			"0.018": 0.0,
			"0.019": 0.0,
			"0.02": 0.0,
			"0.021": 0.0,
			"0.022": 0.0,
			"0.023": 0.0,
			"0.024": 0.0,
			"0.025": 0.0
		}
	}
}
