{
	 "smiles": "OC1=C(C=C(C(Cl)=C1)N(=O)=O)N(=O)=O", 
	 "Tm": 365.15, 
	 "num_atms": 17, 
	 "gaussian": { 
		 "optdone": 1, 
		 "sigma_profile": "yes", 
		 "theory": "DFT", 
		 "functional": "B3LYP", 
		 "basiset": "6-31G**", 
		 "properties": { 
			 "R2extent": 3371.6645, 
			 "electric_dipole_moment_norm": 3.15524223634, 
			 "electric_quadrupole_moment_norm": 9.79487142693, 
			 "total_energy": -1176.046564, 
			 "HOMO_LUMO_gap": 0.15731, 
			 "cosmo_polarized_energy": -11.62, 
			 "cosmo_cavitation_energy": 25.08, 
			 "cosmo_dispersion_energy": -18.91, 
			 "cosmo_repulsion_energy": 1.47, 
			 "cosmo_total_nonelectrostatic_energy": 7.63, 
			 "SMD_solvation_energy": 8.81 
		},
		"coords": [
			{
				"x": 1.1202763468,
				"y": 3.6527296936,
				"z": 0.0074406714,
				"element": "O" 
			},
			{
				"x": 0.6527941239,
				"y": 2.4110003185,
				"z": -0.0234414237,
				"element": "C" 
			},
			{
				"x": 1.4634538277,
				"y": 1.2510836577,
				"z": 0.078799687,
				"element": "C" 
			},
			{
				"x": 0.8979657679,
				"y": -0.020311437,
				"z": 0.0421187155,
				"element": "C" 
			},
			{
				"x": -0.4686552925,
				"y": -0.1783140203,
				"z": -0.1153785052,
				"element": "C" 
			},
			{
				"x": -1.3016245398,
				"y": 0.9645131449,
				"z": -0.2105622035,
				"element": "C" 
			},
			{
				"x": -3.0300357262,
				"y": 0.8822014402,
				"z": -0.3225095717,
				"element": "Cl" 
			},
			{
				"x": -0.7342749063,
				"y": 2.2290486243,
				"z": -0.1564614379,
				"element": "C" 
			},
			{
				"x": -0.9580893242,
				"y": -1.5641426781,
				"z": -0.1901611061,
				"element": "N" 
			},
			{
				"x": -2.0021591769,
				"y": -1.7760054465,
				"z": -0.7969455236,
				"element": "O" 
			},
			{
				"x": -0.2591982512,
				"y": -2.4247870203,
				"z": 0.3443230051,
				"element": "O" 
			},
			{
				"x": 2.9015085379,
				"y": 1.3579047697,
				"z": 0.2262048467,
				"element": "N" 
			},
			{
				"x": 3.5697041073,
				"y": 0.3382872625,
				"z": 0.3073993098,
				"element": "O" 
			},
			{
				"x": 3.3966519515,
				"y": 2.5073996222,
				"z": 0.2637433513,
				"element": "O" 
			},
			{
				"x": 2.1018607841,
				"y": 3.5803397328,
				"z": 0.1122851324,
				"element": "H" 
			},
			{
				"x": 1.5302827478,
				"y": -0.893588452,
				"z": 0.1347874894,
				"element": "H" 
			},
			{
				"x": -1.3596609778,
				"y": 3.1115407879,
				"z": -0.2111424369,
				"element": "H" 
			}
		],
		 "valence_orbital": [ 
			{
				"type": "occ",
				"energy": -0.32513,
				"method": "rhf"
			},
			{
				"type": "occ",
				"energy": -0.32178,
				"method": "rhf"
			},
			{
				"type": "occ",
				"energy": -0.3072,
				"method": "rhf"
			},
			{
				"type": "occ",
				"energy": -0.302,
				"method": "rhf"
			},
			{
				"type": "occ",
				"energy": -0.28415,
				"method": "rhf"
			},
			{
				"type": "unocc",
				"energy": -0.12684,
				"method": "rhf"
			},
			{
				"type": "unocc",
				"energy": -0.10419,
				"method": "rhf"
			},
			{
				"type": "unocc",
				"energy": -0.04648,
				"method": "rhf"
			},
			{
				"type": "unocc",
				"energy": -0.02153,
				"method": "rhf"
			},
			{
				"type": "unocc",
				"energy": -0.00665,
				"method": "rhf"
			}
		],
		"cosmo_sigma_profile": { 
			"-0.025": 0.0,
			"-0.024": 0.0,
			"-0.023": 0.0,
			"-0.022": 0.0,
			"-0.021": 0.0,
			"-0.02": 0.0,
			"-0.019": 0.0,
			"-0.018": 0.0,
			"-0.017": 0.0,
			"-0.016": 0.0,
			"-0.015": 0.0,
			"-0.014": 0.0,
			"-0.013": 0.0,
			"-0.012": 0.0880192792465,
			"-0.011": 0.400156003215,
			"-0.01": 2.70539861042,
			"-0.009": 6.01765443685,
			"-0.008": 6.38508228799,
			"-0.007": 8.63879827231,
			"-0.006": 8.52790718321,
			"-0.005": 14.25662558,
			"-0.004": 15.1564250595,
			"-0.003": 14.9623421536,
			"-0.002": 14.8400945313,
			"-0.001": 9.69975577938,
			"0.0": 9.83764704738,
			"0.001": 11.317911249,
			"0.002": 11.8983645747,
			"0.003": 8.27392709373,
			"0.004": 7.39983485011,
			"0.005": 8.85207266076,
			"0.006": 13.3249472285,
			"0.007": 16.1921680859,
			"0.008": 10.7963416893,
			"0.009": 4.97604420144,
			"0.01": 0.41084928518,
			"0.011": 0.0,
			"0.012": 0.0,
			"0.013": 0.0,
			"0.014": 0.0,
			"0.015": 0.0,
			"0.016": 0.0,
			"0.017": 0.0,
			"0.018": 0.0,
			"0.019": 0.0,
			"0.02": 0.0,
			"0.021": 0.0,
			"0.022": 0.0,
			"0.023": 0.0,
			"0.024": 0.0,
			"0.025": 0.0
		}
	}
}
