{
	 "smiles": "CN(C)C1=C2C=CC(=CC2=NC=N1)C(O)=O", 
	 "Tm": 597.15, 
	 "num_atms": 27, 
	 "gaussian": { 
		 "optdone": 1, 
		 "sigma_profile": "yes", 
		 "theory": "DFT", 
		 "functional": "B3LYP", 
		 "basiset": "6-31G**", 
		 "properties": { 
			 "R2extent": 5491.8887, 
			 "electric_dipole_moment_norm": 5.33212166215, 
			 "electric_quadrupole_moment_norm": 18.8187984151, 
			 "total_energy": -740.523325784, 
			 "HOMO_LUMO_gap": 0.15145, 
			 "cosmo_polarized_energy": -15.15, 
			 "cosmo_cavitation_energy": 30.83, 
			 "cosmo_dispersion_energy": -22.83, 
			 "cosmo_repulsion_energy": 1.75, 
			 "cosmo_total_nonelectrostatic_energy": 9.75, 
			 "SMD_solvation_energy": 3.61 
		},
		"coords": [
			{
				"x": -2.9524633157,
				"y": -1.1628872726,
				"z": -1.3254455425,
				"element": "C" 
			},
			{
				"x": -1.6652333865,
				"y": -0.6710614336,
				"z": -0.8413200887,
				"element": "N" 
			},
			{
				"x": -1.2641713185,
				"y": -1.2355957013,
				"z": 0.4460408224,
				"element": "C" 
			},
			{
				"x": -1.2372594075,
				"y": 0.56298516,
				"z": -1.2740075496,
				"element": "C" 
			},
			{
				"x": 0.118584408,
				"y": 1.0376018915,
				"z": -1.0765233065,
				"element": "C" 
			},
			{
				"x": 1.2168007281,
				"y": 0.25691161,
				"z": -0.6335289767,
				"element": "C" 
			},
			{
				"x": 2.465730973,
				"y": 0.8175272163,
				"z": -0.4721840688,
				"element": "C" 
			},
			{
				"x": 2.6691489407,
				"y": 2.1917857508,
				"z": -0.7532313995,
				"element": "C" 
			},
			{
				"x": 1.6298276149,
				"y": 2.9610532622,
				"z": -1.2428060482,
				"element": "C" 
			},
			{
				"x": 0.3481846319,
				"y": 2.3967419075,
				"z": -1.449276256,
				"element": "C" 
			},
			{
				"x": -0.610086901,
				"y": 3.1677188925,
				"z": -2.0504393022,
				"element": "N" 
			},
			{
				"x": -1.7433623632,
				"y": 2.5536349797,
				"z": -2.3049068739,
				"element": "C" 
			},
			{
				"x": -2.1155794261,
				"y": 1.3054533436,
				"z": -1.9432421699,
				"element": "N" 
			},
			{
				"x": 3.9963426679,
				"y": 2.8444686433,
				"z": -0.569459841,
				"element": "C" 
			},
			{
				"x": 4.9418193255,
				"y": 1.9914817234,
				"z": -0.0996657561,
				"element": "O" 
			},
			{
				"x": 4.2382516181,
				"y": 4.0108249281,
				"z": -0.8034094782,
				"element": "O" 
			},
			{
				"x": -2.9684287888,
				"y": -2.2511962621,
				"z": -1.2124373969,
				"element": "H" 
			},
			{
				"x": -3.0796943318,
				"y": -0.902621408,
				"z": -2.3748732736,
				"element": "H" 
			},
			{
				"x": -3.7951238532,
				"y": -0.7354134983,
				"z": -0.7647520091,
				"element": "H" 
			},
			{
				"x": -2.1496974224,
				"y": -1.3520322667,
				"z": 1.084145828,
				"element": "H" 
			},
			{
				"x": -0.7998251085,
				"y": -2.2229097363,
				"z": 0.3299217354,
				"element": "H" 
			},
			{
				"x": -0.5688939187,
				"y": -0.5768317238,
				"z": 0.9633089667,
				"element": "H" 
			},
			{
				"x": 1.0897084525,
				"y": -0.8031083451,
				"z": -0.4506700441,
				"element": "H" 
			},
			{
				"x": 3.3006992783,
				"y": 0.2118431747,
				"z": -0.1408113008,
				"element": "H" 
			},
			{
				"x": 1.7888606201,
				"y": 4.0016583144,
				"z": -1.5009206396,
				"element": "H" 
			},
			{
				"x": -2.4985584546,
				"y": 3.1210160357,
				"z": -2.8474468578,
				"element": "H" 
			},
			{
				"x": 5.7546187376,
				"y": 2.517450814,
				"z": -0.0208591727,
				"element": "H" 
			}
		],
		 "valence_orbital": [ 
			{
				"type": "occ",
				"energy": -0.27992,
				"method": "rhf"
			},
			{
				"type": "occ",
				"energy": -0.27357,
				"method": "rhf"
			},
			{
				"type": "occ",
				"energy": -0.26222,
				"method": "rhf"
			},
			{
				"type": "occ",
				"energy": -0.24764,
				"method": "rhf"
			},
			{
				"type": "occ",
				"energy": -0.21982,
				"method": "rhf"
			},
			{
				"type": "unocc",
				"energy": -0.06837,
				"method": "rhf"
			},
			{
				"type": "unocc",
				"energy": -0.03718,
				"method": "rhf"
			},
			{
				"type": "unocc",
				"energy": 0.0134,
				"method": "rhf"
			},
			{
				"type": "unocc",
				"energy": 0.02973,
				"method": "rhf"
			},
			{
				"type": "unocc",
				"energy": 0.0752,
				"method": "rhf"
			}
		],
		"cosmo_sigma_profile": { 
			"-0.025": 0.0,
			"-0.024": 0.0,
			"-0.023": 0.0,
			"-0.022": 0.0,
			"-0.021": 0.0,
			"-0.02": 0.0,
			"-0.019": 0.21723069041,
			"-0.018": 0.764170925058,
			"-0.017": 1.30282674333,
			"-0.016": 0.334344327632,
			"-0.015": 0.843562545968,
			"-0.014": 0.675605062603,
			"-0.013": 0.171673151096,
			"-0.012": 0.954263665287,
			"-0.011": 1.39180550605,
			"-0.01": 0.330973937465,
			"-0.009": 0.342933767683,
			"-0.008": 0.760233872197,
			"-0.007": 3.9922715614,
			"-0.006": 9.36722813851,
			"-0.005": 18.5061185156,
			"-0.004": 22.3279813557,
			"-0.003": 23.0433567325,
			"-0.002": 22.7860263962,
			"-0.001": 16.4213025601,
			"0.0": 19.8577910404,
			"0.001": 24.5439549772,
			"0.002": 16.2034592282,
			"0.003": 10.0383644294,
			"0.004": 6.95336739352,
			"0.005": 5.55189199814,
			"0.006": 5.74635927519,
			"0.007": 6.29997959382,
			"0.008": 4.04773278496,
			"0.009": 3.5668905845,
			"0.01": 4.10479923297,
			"0.011": 6.336974689,
			"0.012": 4.45277311693,
			"0.013": 1.65024555424,
			"0.014": 0.615446972441,
			"0.015": 0.962227915922,
			"0.016": 0.669011723099,
			"0.017": 0.0333574152509,
			"0.018": 0.0,
			"0.019": 0.0,
			"0.02": 0.0,
			"0.021": 0.0,
			"0.022": 0.0,
			"0.023": 0.0,
			"0.024": 0.0,
			"0.025": 0.0
		}
	}
}
