{
	 "smiles": "ClC1=C(Cl)C2=C(Cl)C(Cl)=C(Cl)C(Cl)=C2C(Cl)=C1Cl", 
	 "Tm": 471.15, 
	 "num_atms": 18, 
	 "gaussian": { 
		 "optdone": 1, 
		 "sigma_profile": "yes", 
		 "theory": "DFT", 
		 "functional": "B3LYP", 
		 "basiset": "6-31G**", 
		 "properties": { 
			 "R2extent": 9161.3392, 
			 "electric_dipole_moment_norm": 0.0003, 
			 "electric_quadrupole_moment_norm": 0.635005291317, 
			 "total_energy": -4062.53629174, 
			 "HOMO_LUMO_gap": 0.14322, 
			 "cosmo_polarized_energy": -3.56, 
			 "cosmo_cavitation_energy": 35.55, 
			 "cosmo_dispersion_energy": -27.34, 
			 "cosmo_repulsion_energy": 2.07, 
			 "cosmo_total_nonelectrostatic_energy": 10.28, 
			 "SMD_solvation_energy": 3.95 
		},
		"coords": [
			{
				"x": -1.8749255753,
				"y": -1.8754840824,
				"z": -4.2513884857,
				"element": "Cl" 
			},
			{
				"x": -1.363231933,
				"y": -1.2547497903,
				"z": -2.7156658423,
				"element": "C" 
			},
			{
				"x": -0.2730122077,
				"y": -1.798152423,
				"z": -2.05583972,
				"element": "C" 
			},
			{
				"x": 0.4580406228,
				"y": -3.2172827943,
				"z": -2.7507034925,
				"element": "Cl" 
			},
			{
				"x": 0.1350599645,
				"y": -1.2983572573,
				"z": -0.7707563036,
				"element": "C" 
			},
			{
				"x": 1.3931363138,
				"y": -1.5887511465,
				"z": -0.1377762537,
				"element": "C" 
			},
			{
				"x": 2.7685195094,
				"y": -2.1279706845,
				"z": -1.0590367822,
				"element": "Cl" 
			},
			{
				"x": 1.5952749501,
				"y": -1.3064801485,
				"z": 1.2033755612,
				"element": "C" 
			},
			{
				"x": 3.1209924932,
				"y": -1.6283168681,
				"z": 1.9611224713,
				"element": "Cl" 
			},
			{
				"x": 0.5418829908,
				"y": -0.7495836158,
				"z": 1.9782569175,
				"element": "C" 
			},
			{
				"x": 0.7347935314,
				"y": -0.6217986289,
				"z": 3.6964086991,
				"element": "Cl" 
			},
			{
				"x": -0.6173843674,
				"y": -0.3133292575,
				"z": 1.3578074621,
				"element": "C" 
			},
			{
				"x": -1.9221261076,
				"y": 0.2188315411,
				"z": 2.3803691782,
				"element": "Cl" 
			},
			{
				"x": -0.7856830215,
				"y": -0.442347255,
				"z": -0.064381127,
				"element": "C" 
			},
			{
				"x": -1.8041634439,
				"y": 0.2190808402,
				"z": -0.8343085684,
				"element": "C" 
			},
			{
				"x": -2.6062321911,
				"y": 1.6457036537,
				"z": -0.2405240652,
				"element": "Cl" 
			},
			{
				"x": -2.0756240377,
				"y": -0.1700627789,
				"z": -2.1358683463,
				"element": "C" 
			},
			{
				"x": -3.2829174908,
				"y": 0.645150696,
				"z": -3.0757913024,
				"element": "Cl" 
			}
		],
		 "valence_orbital": [ 
			{
				"type": "occ",
				"energy": -0.3076,
				"method": "rhf"
			},
			{
				"type": "occ",
				"energy": -0.2987,
				"method": "rhf"
			},
			{
				"type": "occ",
				"energy": -0.28425,
				"method": "rhf"
			},
			{
				"type": "occ",
				"energy": -0.27116,
				"method": "rhf"
			},
			{
				"type": "occ",
				"energy": -0.24415,
				"method": "rhf"
			},
			{
				"type": "unocc",
				"energy": -0.10093,
				"method": "rhf"
			},
			{
				"type": "unocc",
				"energy": -0.08408,
				"method": "rhf"
			},
			{
				"type": "unocc",
				"energy": -0.04453,
				"method": "rhf"
			},
			{
				"type": "unocc",
				"energy": -0.03334,
				"method": "rhf"
			},
			{
				"type": "unocc",
				"energy": -0.02911,
				"method": "rhf"
			}
		],
		"cosmo_sigma_profile": { 
			"-0.025": 0.0,
			"-0.024": 0.0,
			"-0.023": 0.0,
			"-0.022": 0.0,
			"-0.021": 0.0,
			"-0.02": 0.0,
			"-0.019": 0.0,
			"-0.018": 0.0,
			"-0.017": 0.0,
			"-0.016": 0.0,
			"-0.015": 0.0,
			"-0.014": 0.0,
			"-0.013": 0.0,
			"-0.012": 0.0,
			"-0.011": 0.0,
			"-0.01": 0.0,
			"-0.009": 0.0,
			"-0.008": 0.0,
			"-0.007": 0.0,
			"-0.006": 0.00402530051697,
			"-0.005": 4.88006370457,
			"-0.004": 20.4451558335,
			"-0.003": 43.7982934162,
			"-0.002": 33.0968540996,
			"-0.001": 27.0426204246,
			"0.0": 26.2914644083,
			"0.001": 34.0906112134,
			"0.002": 50.338557832,
			"0.003": 56.1800852713,
			"0.004": 8.56097782903,
			"0.005": 0.0,
			"0.006": 0.0,
			"0.007": 0.0,
			"0.008": 0.0,
			"0.009": 0.0,
			"0.01": 0.0,
			"0.011": 0.0,
			"0.012": 0.0,
			"0.013": 0.0,
			"0.014": 0.0,
			"0.015": 0.0,
			"0.016": 0.0,
			"0.017": 0.0,
			"0.018": 0.0,
			"0.019": 0.0,
			"0.02": 0.0,
			"0.021": 0.0,
			"0.022": 0.0,
			"0.023": 0.0,
			"0.024": 0.0,
			"0.025": 0.0
		}
	}
}
