{
	 "smiles": "NNC(=O)C1=C2C=CC=NC2=CC=C1", 
	 "Tm": 404.15, 
	 "num_atms": 23, 
	 "gaussian": { 
		 "optdone": 1, 
		 "sigma_profile": "yes", 
		 "theory": "DFT", 
		 "functional": "B3LYP", 
		 "basiset": "6-31G**", 
		 "properties": { 
			 "R2extent": 2937.9253, 
			 "electric_dipole_moment_norm": 2.46911054026, 
			 "electric_quadrupole_moment_norm": 13.9502841186, 
			 "total_energy": -625.944222681, 
			 "HOMO_LUMO_gap": 0.16875, 
			 "cosmo_polarized_energy": -15.41, 
			 "cosmo_cavitation_energy": 26.96, 
			 "cosmo_dispersion_energy": -19.73, 
			 "cosmo_repulsion_energy": 1.55, 
			 "cosmo_total_nonelectrostatic_energy": 8.77, 
			 "SMD_solvation_energy": 4.15 
		},
		"coords": [
			{
				"x": 1.2409779511,
				"y": -2.9990549237,
				"z": 0.9600681015,
				"element": "N" 
			},
			{
				"x": -0.1533158505,
				"y": -2.8520065388,
				"z": 0.7983800687,
				"element": "N" 
			},
			{
				"x": -0.7826449336,
				"y": -2.3087052983,
				"z": -0.3061341945,
				"element": "C" 
			},
			{
				"x": -1.9367238757,
				"y": -2.6103021607,
				"z": -0.5794863823,
				"element": "O" 
			},
			{
				"x": 0.0131198791,
				"y": -1.3493701114,
				"z": -1.1543856237,
				"element": "C" 
			},
			{
				"x": 0.6721514486,
				"y": -0.1918673859,
				"z": -0.6292193147,
				"element": "C" 
			},
			{
				"x": 0.6385619644,
				"y": 0.1966427512,
				"z": 0.7381305812,
				"element": "C" 
			},
			{
				"x": 1.3007464817,
				"y": 1.3345814833,
				"z": 1.1352666188,
				"element": "C" 
			},
			{
				"x": 1.9992019016,
				"y": 2.0949892862,
				"z": 0.1646028601,
				"element": "C" 
			},
			{
				"x": 2.0410916086,
				"y": 1.7910192036,
				"z": -1.1160089913,
				"element": "N" 
			},
			{
				"x": 1.3820702876,
				"y": 0.668418924,
				"z": -1.5302754106,
				"element": "C" 
			},
			{
				"x": 1.4035022993,
				"y": 0.3647376917,
				"z": -2.9174692339,
				"element": "C" 
			},
			{
				"x": 0.7315153879,
				"y": -0.7343583994,
				"z": -3.4002268005,
				"element": "C" 
			},
			{
				"x": 0.0253782101,
				"y": -1.5827710722,
				"z": -2.5172998114,
				"element": "C" 
			},
			{
				"x": 1.6762072143,
				"y": -3.2196117136,
				"z": 0.0670715813,
				"element": "H" 
			},
			{
				"x": 1.6382636058,
				"y": -2.1242328358,
				"z": 1.2923663679,
				"element": "H" 
			},
			{
				"x": -0.6977552297,
				"y": -3.5748807326,
				"z": 1.2547496198,
				"element": "H" 
			},
			{
				"x": 0.0741239482,
				"y": -0.3967615858,
				"z": 1.4516694103,
				"element": "H" 
			},
			{
				"x": 1.2875887524,
				"y": 1.6592941081,
				"z": 2.1709245239,
				"element": "H" 
			},
			{
				"x": 2.5350609,
				"y": 2.9939301669,
				"z": 0.4675009356,
				"element": "H" 
			},
			{
				"x": 1.9551101486,
				"y": 1.0355564766,
				"z": -3.5677257626,
				"element": "H" 
			},
			{
				"x": 0.7363169029,
				"y": -0.9564826071,
				"z": -4.4630614426,
				"element": "H" 
			},
			{
				"x": -0.5193490026,
				"y": -2.4378647263,
				"z": -2.9048377011,
				"element": "H" 
			}
		],
		 "valence_orbital": [ 
			{
				"type": "occ",
				"energy": -0.26866,
				"method": "rhf"
			},
			{
				"type": "occ",
				"energy": -0.26412,
				"method": "rhf"
			},
			{
				"type": "occ",
				"energy": -0.26189,
				"method": "rhf"
			},
			{
				"type": "occ",
				"energy": -0.25602,
				"method": "rhf"
			},
			{
				"type": "occ",
				"energy": -0.23804,
				"method": "rhf"
			},
			{
				"type": "unocc",
				"energy": -0.06929,
				"method": "rhf"
			},
			{
				"type": "unocc",
				"energy": -0.02774,
				"method": "rhf"
			},
			{
				"type": "unocc",
				"energy": -0.01423,
				"method": "rhf"
			},
			{
				"type": "unocc",
				"energy": 0.03548,
				"method": "rhf"
			},
			{
				"type": "unocc",
				"energy": 0.07301,
				"method": "rhf"
			}
		],
		"cosmo_sigma_profile": { 
			"-0.025": 0.0,
			"-0.024": 0.0,
			"-0.023": 0.0,
			"-0.022": 0.0,
			"-0.021": 0.0,
			"-0.02": 0.0,
			"-0.019": 0.0,
			"-0.018": 0.0,
			"-0.017": 0.0,
			"-0.016": 0.0,
			"-0.015": 0.0,
			"-0.014": 0.203177681552,
			"-0.013": 1.10544424666,
			"-0.012": 1.26866788308,
			"-0.011": 2.3117791371,
			"-0.01": 2.91184125352,
			"-0.009": 4.32145756108,
			"-0.008": 4.15064079329,
			"-0.007": 9.21315572081,
			"-0.006": 17.6802400051,
			"-0.005": 15.5602565422,
			"-0.004": 12.940218521,
			"-0.003": 11.1786303065,
			"-0.002": 12.4440027804,
			"-0.001": 10.2360812643,
			"0.0": 13.5156481233,
			"0.001": 20.2747202168,
			"0.002": 17.8440180949,
			"0.003": 12.1118783845,
			"0.004": 5.92602343949,
			"0.005": 4.13081315364,
			"0.006": 2.75686261873,
			"0.007": 3.03794077512,
			"0.008": 3.9774015288,
			"0.009": 3.34576696424,
			"0.01": 2.83573205298,
			"0.011": 3.33658865229,
			"0.012": 5.24591818544,
			"0.013": 6.42783726316,
			"0.014": 3.13438001743,
			"0.015": 1.28903919959,
			"0.016": 0.921798366902,
			"0.017": 0.0,
			"0.018": 0.0,
			"0.019": 0.0,
			"0.02": 0.0,
			"0.021": 0.0,
			"0.022": 0.0,
			"0.023": 0.0,
			"0.024": 0.0,
			"0.025": 0.0
		}
	}
}
