{
	 "smiles": "NC(=O)NN=C(C1=CC2=C(O1)C=CC=C2)C1=CC2=C(O1)C=CC=C2", 
	 "Tm": 463.15, 
	 "num_atms": 37, 
	 "gaussian": { 
		 "optdone": 1, 
		 "sigma_profile": "yes", 
		 "theory": "DFT", 
		 "functional": "B3LYP", 
		 "basiset": "6-31G**", 
		 "properties": { 
			 "R2extent": 10166.4703, 
			 "electric_dipole_moment_norm": 3.89745132875, 
			 "electric_quadrupole_moment_norm": 24.7536332202, 
			 "total_energy": -1083.65912215, 
			 "HOMO_LUMO_gap": 0.13536, 
			 "cosmo_polarized_energy": -16.48, 
			 "cosmo_cavitation_energy": 43.0, 
			 "cosmo_dispersion_energy": -31.1, 
			 "cosmo_repulsion_energy": 2.36, 
			 "cosmo_total_nonelectrostatic_energy": 14.26, 
			 "SMD_solvation_energy": 8.06 
		},
		"coords": [
			{
				"x": 3.2025908371,
				"y": 3.9764433689,
				"z": 0.0223472992,
				"element": "N" 
			},
			{
				"x": 3.3919114732,
				"y": 3.1005486764,
				"z": -1.0000974416,
				"element": "C" 
			},
			{
				"x": 4.2492271975,
				"y": 3.1818960876,
				"z": -1.8672045886,
				"element": "O" 
			},
			{
				"x": 2.5085041316,
				"y": 2.006772858,
				"z": -0.9962798473,
				"element": "N" 
			},
			{
				"x": 1.5104531683,
				"y": 1.9406015088,
				"z": -0.1090796517,
				"element": "N" 
			},
			{
				"x": 0.6723057594,
				"y": 0.9440371717,
				"z": -0.0688101101,
				"element": "C" 
			},
			{
				"x": -0.3492253989,
				"y": 1.0131959385,
				"z": 0.9776989379,
				"element": "C" 
			},
			{
				"x": -1.5835394184,
				"y": 0.435151951,
				"z": 1.1006507228,
				"element": "C" 
			},
			{
				"x": -2.1431810149,
				"y": 0.9183450347,
				"z": 2.3338876096,
				"element": "C" 
			},
			{
				"x": -1.1684336199,
				"y": 1.7814281808,
				"z": 2.8707653805,
				"element": "C" 
			},
			{
				"x": -0.0780353552,
				"y": 1.8386376105,
				"z": 2.0474022006,
				"element": "O" 
			},
			{
				"x": -1.3197102389,
				"y": 2.4635173628,
				"z": 4.0715932684,
				"element": "C" 
			},
			{
				"x": -2.5189115307,
				"y": 2.2588454426,
				"z": 4.7537826248,
				"element": "C" 
			},
			{
				"x": -3.5157987854,
				"y": 1.4053093574,
				"z": 4.2427086814,
				"element": "C" 
			},
			{
				"x": -3.3436757264,
				"y": 0.7301952686,
				"z": 3.0380817247,
				"element": "C" 
			},
			{
				"x": 0.6653547126,
				"y": -0.2328229259,
				"z": -0.9389580618,
				"element": "C" 
			},
			{
				"x": 0.2063472427,
				"y": -1.5076422973,
				"z": -0.7526062796,
				"element": "C" 
			},
			{
				"x": 0.5091738344,
				"y": -2.2411343403,
				"z": -1.9509012904,
				"element": "C" 
			},
			{
				"x": 1.1558759462,
				"y": -1.3265379478,
				"z": -2.8019261179,
				"element": "C" 
			},
			{
				"x": 1.2525854125,
				"y": -0.1030397081,
				"z": -2.19009318,
				"element": "O" 
			},
			{
				"x": 1.6199680765,
				"y": -1.6418662574,
				"z": -4.0722870865,
				"element": "C" 
			},
			{
				"x": 1.413573099,
				"y": -2.9549421104,
				"z": -4.4936989492,
				"element": "C" 
			},
			{
				"x": 0.7706092868,
				"y": -3.898043722,
				"z": -3.6678865636,
				"element": "C" 
			},
			{
				"x": 0.3144014744,
				"y": -3.5586487883,
				"z": -2.3985658642,
				"element": "C" 
			},
			{
				"x": 3.7378661924,
				"y": 4.82736421,
				"z": 0.0029849276,
				"element": "H" 
			},
			{
				"x": 2.4039700147,
				"y": 3.8730330566,
				"z": 0.6297045622,
				"element": "H" 
			},
			{
				"x": 2.6110354195,
				"y": 1.3484439034,
				"z": -1.7618981392,
				"element": "H" 
			},
			{
				"x": -2.0488834952,
				"y": -0.2234027923,
				"z": 0.3833224528,
				"element": "H" 
			},
			{
				"x": -0.5426870769,
				"y": 3.118013849,
				"z": 4.4510424148,
				"element": "H" 
			},
			{
				"x": -2.6868372591,
				"y": 2.7687487282,
				"z": 5.6975253692,
				"element": "H" 
			},
			{
				"x": -4.4366163353,
				"y": 1.2733963651,
				"z": 4.8029960306,
				"element": "H" 
			},
			{
				"x": -4.1187121337,
				"y": 0.0747905941,
				"z": 2.6521345809,
				"element": "H" 
			},
			{
				"x": -0.2665555255,
				"y": -1.8798703029,
				"z": 0.1431645971,
				"element": "H" 
			},
			{
				"x": 2.1143726034,
				"y": -0.9046303341,
				"z": -4.6951931065,
				"element": "H" 
			},
			{
				"x": 1.7569081246,
				"y": -3.2558787383,
				"z": -5.4785840325,
				"element": "H" 
			},
			{
				"x": 0.6302714563,
				"y": -4.9107426205,
				"z": -4.033439939,
				"element": "H" 
			},
			{
				"x": -0.1794025486,
				"y": -4.2926136392,
				"z": -1.7691831355,
				"element": "H" 
			}
		],
		 "valence_orbital": [ 
			{
				"type": "occ",
				"energy": -0.25916,
				"method": "rhf"
			},
			{
				"type": "occ",
				"energy": -0.25126,
				"method": "rhf"
			},
			{
				"type": "occ",
				"energy": -0.2413,
				"method": "rhf"
			},
			{
				"type": "occ",
				"energy": -0.23092,
				"method": "rhf"
			},
			{
				"type": "occ",
				"energy": -0.20414,
				"method": "rhf"
			},
			{
				"type": "unocc",
				"energy": -0.06878,
				"method": "rhf"
			},
			{
				"type": "unocc",
				"energy": -0.03076,
				"method": "rhf"
			},
			{
				"type": "unocc",
				"energy": -0.00244,
				"method": "rhf"
			},
			{
				"type": "unocc",
				"energy": 0.00639,
				"method": "rhf"
			},
			{
				"type": "unocc",
				"energy": 0.01566,
				"method": "rhf"
			}
		],
		"cosmo_sigma_profile": { 
			"-0.025": 0.0,
			"-0.024": 0.0,
			"-0.023": 0.0,
			"-0.022": 0.0,
			"-0.021": 0.0,
			"-0.02": 0.0,
			"-0.019": 0.0,
			"-0.018": 0.0,
			"-0.017": 0.0,
			"-0.016": 0.0,
			"-0.015": 0.182044435246,
			"-0.014": 0.935234913251,
			"-0.013": 1.25467179995,
			"-0.012": 1.5108443845,
			"-0.011": 1.30579795587,
			"-0.01": 2.09478992016,
			"-0.009": 2.47398575182,
			"-0.008": 3.64658183295,
			"-0.007": 10.4983397603,
			"-0.006": 20.9125838312,
			"-0.005": 23.568085358,
			"-0.004": 25.5775723242,
			"-0.003": 19.1177360373,
			"-0.002": 20.5209127528,
			"-0.001": 22.2468148409,
			"0.0": 26.9869425903,
			"0.001": 30.1281073929,
			"0.002": 31.8930571319,
			"0.003": 28.0427505035,
			"0.004": 25.6178602439,
			"0.005": 17.6729049852,
			"0.006": 5.90834850973,
			"0.007": 4.36275765424,
			"0.008": 2.68017819737,
			"0.009": 1.80116105553,
			"0.01": 1.53622953054,
			"0.011": 1.27164793163,
			"0.012": 1.84773816313,
			"0.013": 3.72350956342,
			"0.014": 6.38672769396,
			"0.015": 0.877752306116,
			"0.016": 0.0,
			"0.017": 0.0,
			"0.018": 0.0,
			"0.019": 0.0,
			"0.02": 0.0,
			"0.021": 0.0,
			"0.022": 0.0,
			"0.023": 0.0,
			"0.024": 0.0,
			"0.025": 0.0
		}
	}
}
