{
	 "smiles": "OC1=NC=NC2=C1C=NN2C1=CC=CC=C1", 
	 "Tm": 579.15, 
	 "num_atms": 24, 
	 "gaussian": { 
		 "optdone": 1, 
		 "sigma_profile": "yes", 
		 "theory": "DFT", 
		 "functional": "B3LYP", 
		 "basiset": "6-31G**", 
		 "properties": { 
			 "R2extent": 4734.1359, 
			 "electric_dipole_moment_norm": 2.15172643243, 
			 "electric_quadrupole_moment_norm": 19.5157435103, 
			 "total_energy": -718.205338268, 
			 "HOMO_LUMO_gap": 0.17376, 
			 "cosmo_polarized_energy": -14.81, 
			 "cosmo_cavitation_energy": 28.68, 
			 "cosmo_dispersion_energy": -21.77, 
			 "cosmo_repulsion_energy": 1.64, 
			 "cosmo_total_nonelectrostatic_energy": 8.55, 
			 "SMD_solvation_energy": 2.41 
		},
		"coords": [
			{
				"x": -2.0945457143,
				"y": -3.0882827595,
				"z": -4.2666268917,
				"element": "O" 
			},
			{
				"x": -1.0313967561,
				"y": -2.5207116629,
				"z": -3.6661049875,
				"element": "C" 
			},
			{
				"x": 0.1209901556,
				"y": -2.6367789222,
				"z": -4.3072129793,
				"element": "N" 
			},
			{
				"x": 1.2088512017,
				"y": -2.0821040796,
				"z": -3.7388207303,
				"element": "C" 
			},
			{
				"x": 1.2937076976,
				"y": -1.4143947016,
				"z": -2.5911231006,
				"element": "N" 
			},
			{
				"x": 0.113847974,
				"y": -1.309210691,
				"z": -1.9588444265,
				"element": "C" 
			},
			{
				"x": -1.1074712926,
				"y": -1.8397179981,
				"z": -2.4341202157,
				"element": "C" 
			},
			{
				"x": -2.0653604364,
				"y": -1.4837981317,
				"z": -1.4427666872,
				"element": "C" 
			},
			{
				"x": -1.5002805282,
				"y": -0.8089181856,
				"z": -0.4640775525,
				"element": "N" 
			},
			{
				"x": -0.1670263126,
				"y": -0.6923809002,
				"z": -0.7626031495,
				"element": "N" 
			},
			{
				"x": 0.6887431314,
				"y": 0.0039437168,
				"z": 0.1441421173,
				"element": "C" 
			},
			{
				"x": 2.056407502,
				"y": 0.14544894,
				"z": -0.1229221374,
				"element": "C" 
			},
			{
				"x": 2.8592010992,
				"y": 0.8327755534,
				"z": 0.7879429876,
				"element": "C" 
			},
			{
				"x": 2.3189281029,
				"y": 1.3766031472,
				"z": 1.9530758924,
				"element": "C" 
			},
			{
				"x": 0.9539447919,
				"y": 1.2282404214,
				"z": 2.207015705,
				"element": "C" 
			},
			{
				"x": 0.1344594235,
				"y": 0.5459226888,
				"z": 1.3112844734,
				"element": "C" 
			},
			{
				"x": -2.8848790988,
				"y": -2.9520368396,
				"z": -3.7267947361,
				"element": "H" 
			},
			{
				"x": 2.1364772987,
				"y": -2.1980341062,
				"z": -4.2945981976,
				"element": "H" 
			},
			{
				"x": -3.1279458849,
				"y": -1.6865665242,
				"z": -1.3990079256,
				"element": "H" 
			},
			{
				"x": 2.4763446067,
				"y": -0.2760022707,
				"z": -1.0263066233,
				"element": "H" 
			},
			{
				"x": 3.9191913504,
				"y": 0.9400985973,
				"z": 0.5767976257,
				"element": "H" 
			},
			{
				"x": 2.952701401,
				"y": 1.9096754922,
				"z": 2.6553055188,
				"element": "H" 
			},
			{
				"x": 0.5179021185,
				"y": 1.6459161557,
				"z": 3.109846639,
				"element": "H" 
			},
			{
				"x": -0.9241918311,
				"y": 0.4269130606,
				"z": 1.5012193816,
				"element": "H" 
			}
		],
		 "valence_orbital": [ 
			{
				"type": "occ",
				"energy": -0.29607,
				"method": "rhf"
			},
			{
				"type": "occ",
				"energy": -0.27041,
				"method": "rhf"
			},
			{
				"type": "occ",
				"energy": -0.2631,
				"method": "rhf"
			},
			{
				"type": "occ",
				"energy": -0.25357,
				"method": "rhf"
			},
			{
				"type": "occ",
				"energy": -0.22722,
				"method": "rhf"
			},
			{
				"type": "unocc",
				"energy": -0.05346,
				"method": "rhf"
			},
			{
				"type": "unocc",
				"energy": -0.02689,
				"method": "rhf"
			},
			{
				"type": "unocc",
				"energy": -0.00562,
				"method": "rhf"
			},
			{
				"type": "unocc",
				"energy": 0.00919,
				"method": "rhf"
			},
			{
				"type": "unocc",
				"energy": 0.04161,
				"method": "rhf"
			}
		],
		"cosmo_sigma_profile": { 
			"-0.025": 0.0,
			"-0.024": 0.0,
			"-0.023": 0.0,
			"-0.022": 0.0,
			"-0.021": 0.0,
			"-0.02": 0.132656457676,
			"-0.019": 0.804254225028,
			"-0.018": 1.49410063723,
			"-0.017": 1.1818720616,
			"-0.016": 1.42669732371,
			"-0.015": 1.33863743314,
			"-0.014": 0.750690436211,
			"-0.013": 0.874146783531,
			"-0.012": 1.64565515212,
			"-0.011": 1.29809890949,
			"-0.01": 1.72215166011,
			"-0.009": 2.47807548083,
			"-0.008": 2.64614926696,
			"-0.007": 3.98248529496,
			"-0.006": 9.00754567061,
			"-0.005": 10.5434005828,
			"-0.004": 14.0133183833,
			"-0.003": 14.4599747716,
			"-0.002": 18.1991827794,
			"-0.001": 17.3734079644,
			"0.0": 15.618369015,
			"0.001": 16.4557850756,
			"0.002": 17.2699861092,
			"0.003": 16.4199928701,
			"0.004": 14.5761013958,
			"0.005": 14.9971851517,
			"0.006": 6.45420803459,
			"0.007": 4.59845166803,
			"0.008": 4.56253792598,
			"0.009": 5.17497499472,
			"0.01": 4.15388534908,
			"0.011": 2.37881422531,
			"0.012": 1.32906364792,
			"0.013": 0.823859190004,
			"0.014": 1.31363409323,
			"0.015": 0.680246631783,
			"0.016": 0.0020214242499,
			"0.017": 0.0,
			"0.018": 0.0,
			"0.019": 0.0,
			"0.02": 0.0,
			"0.021": 0.0,
			"0.022": 0.0,
			"0.023": 0.0,
			"0.024": 0.0,
			"0.025": 0.0
		}
	}
}
