{
	 "smiles": "OC(=O)C1=C2C(ON=C2C2CC2)=NC(=C1)C1=CC=CC=C1", 
	 "Tm": 473.15, 
	 "num_atms": 33, 
	 "gaussian": { 
		 "optdone": 1, 
		 "sigma_profile": "yes", 
		 "theory": "DFT", 
		 "functional": "B3LYP", 
		 "basiset": "6-31G**", 
		 "properties": { 
			 "R2extent": 7609.5604, 
			 "electric_dipole_moment_norm": 1.11002460333, 
			 "electric_quadrupole_moment_norm": 29.7514585863, 
			 "total_energy": -952.050336027, 
			 "HOMO_LUMO_gap": 0.14999, 
			 "cosmo_polarized_energy": -16.07, 
			 "cosmo_cavitation_energy": 37.43, 
			 "cosmo_dispersion_energy": -27.33, 
			 "cosmo_repulsion_energy": 2.03, 
			 "cosmo_total_nonelectrostatic_energy": 12.12, 
			 "SMD_solvation_energy": 5.55 
		},
		"coords": [
			{
				"x": -1.8155415552,
				"y": -0.7206305301,
				"z": -3.8124245058,
				"element": "O" 
			},
			{
				"x": -0.6902495007,
				"y": -0.2524453861,
				"z": -3.2308044441,
				"element": "C" 
			},
			{
				"x": 0.2249753386,
				"y": 0.148518161,
				"z": -3.9100249328,
				"element": "O" 
			},
			{
				"x": -0.616695848,
				"y": -0.2796903041,
				"z": -1.7241704607,
				"element": "C" 
			},
			{
				"x": -1.704059394,
				"y": -0.3147527106,
				"z": -0.8230824785,
				"element": "C" 
			},
			{
				"x": -1.368025944,
				"y": -0.3812043673,
				"z": 0.5405969246,
				"element": "C" 
			},
			{
				"x": -2.4939550947,
				"y": -0.4244000044,
				"z": 1.2906190138,
				"element": "O" 
			},
			{
				"x": -3.5956207133,
				"y": -0.3618604069,
				"z": 0.427632688,
				"element": "N" 
			},
			{
				"x": -3.148188429,
				"y": -0.2980008715,
				"z": -0.8047243623,
				"element": "C" 
			},
			{
				"x": -4.1094329022,
				"y": -0.2323636821,
				"z": -1.9342499542,
				"element": "C" 
			},
			{
				"x": -4.7285284609,
				"y": -1.5257104524,
				"z": -2.484533174,
				"element": "C" 
			},
			{
				"x": -5.5637328676,
				"y": -0.5471026709,
				"z": -1.7089857082,
				"element": "C" 
			},
			{
				"x": -0.1723025444,
				"y": -0.3952749795,
				"z": 1.0936281816,
				"element": "N" 
			},
			{
				"x": 0.8614798543,
				"y": -0.327648715,
				"z": 0.234240812,
				"element": "C" 
			},
			{
				"x": 0.6579500628,
				"y": -0.2735971289,
				"z": -1.1674122818,
				"element": "C" 
			},
			{
				"x": 2.2216687118,
				"y": -0.3336766121,
				"z": 0.8266663873,
				"element": "C" 
			},
			{
				"x": 3.3557042944,
				"y": 0.0489868547,
				"z": 0.0897102618,
				"element": "C" 
			},
			{
				"x": 4.6207718653,
				"y": 0.0316011326,
				"z": 0.6737992746,
				"element": "C" 
			},
			{
				"x": 4.7763345044,
				"y": -0.3689207474,
				"z": 2.0020457198,
				"element": "C" 
			},
			{
				"x": 3.655159128,
				"y": -0.7449846756,
				"z": 2.7460562463,
				"element": "C" 
			},
			{
				"x": 2.3896687865,
				"y": -0.7245550478,
				"z": 2.1667951673,
				"element": "C" 
			},
			{
				"x": -2.4477484696,
				"y": -1.070961114,
				"z": -3.165099103,
				"element": "H" 
			},
			{
				"x": -3.8868547908,
				"y": 0.5375489494,
				"z": -2.6685055079,
				"element": "H" 
			},
			{
				"x": -4.4599722166,
				"y": -2.4560772136,
				"z": -1.9929175968,
				"element": "H" 
			},
			{
				"x": -4.8712276244,
				"y": -1.599050104,
				"z": -3.5586461125,
				"element": "H" 
			},
			{
				"x": -5.8575629008,
				"y": -0.8175019142,
				"z": -0.7014838341,
				"element": "H" 
			},
			{
				"x": -6.2862629439,
				"y": 0.0522090762,
				"z": -2.2526616911,
				"element": "H" 
			},
			{
				"x": 1.4968895165,
				"y": -0.248186924,
				"z": -1.8497942712,
				"element": "H" 
			},
			{
				"x": 3.2572647568,
				"y": 0.3854612388,
				"z": -0.9369804268,
				"element": "H" 
			},
			{
				"x": 5.4847420963,
				"y": 0.3369117098,
				"z": 0.0910124682,
				"element": "H" 
			},
			{
				"x": 5.7633607105,
				"y": -0.3839662913,
				"z": 2.4550699704,
				"element": "H" 
			},
			{
				"x": 3.7674802223,
				"y": -1.0556742191,
				"z": 3.7807002579,
				"element": "H" 
			},
			{
				"x": 1.5140123514,
				"y": -1.0100000495,
				"z": 2.7383274725,
				"element": "H" 
			}
		],
		 "valence_orbital": [ 
			{
				"type": "occ",
				"energy": -0.29413,
				"method": "rhf"
			},
			{
				"type": "occ",
				"energy": -0.2858,
				"method": "rhf"
			},
			{
				"type": "occ",
				"energy": -0.2735,
				"method": "rhf"
			},
			{
				"type": "occ",
				"energy": -0.25981,
				"method": "rhf"
			},
			{
				"type": "occ",
				"energy": -0.24247,
				"method": "rhf"
			},
			{
				"type": "unocc",
				"energy": -0.09248,
				"method": "rhf"
			},
			{
				"type": "unocc",
				"energy": -0.04646,
				"method": "rhf"
			},
			{
				"type": "unocc",
				"energy": -0.00992,
				"method": "rhf"
			},
			{
				"type": "unocc",
				"energy": -0.00711,
				"method": "rhf"
			},
			{
				"type": "unocc",
				"energy": 0.01847,
				"method": "rhf"
			}
		],
		"cosmo_sigma_profile": { 
			"-0.025": 0.0,
			"-0.024": 0.0,
			"-0.023": 0.0,
			"-0.022": 0.0,
			"-0.021": 0.0,
			"-0.02": 0.0,
			"-0.019": 0.0,
			"-0.018": 0.0,
			"-0.017": 0.0,
			"-0.016": 0.0,
			"-0.015": 0.218981529453,
			"-0.014": 0.51293323811,
			"-0.013": 0.699255968473,
			"-0.012": 0.886870491217,
			"-0.011": 0.560621168754,
			"-0.01": 1.23238725272,
			"-0.009": 2.60470161412,
			"-0.008": 3.59489175097,
			"-0.007": 8.86161766463,
			"-0.006": 21.0724868927,
			"-0.005": 23.4638027131,
			"-0.004": 22.9899270305,
			"-0.003": 24.9782838189,
			"-0.002": 23.0467892175,
			"-0.001": 20.7984919385,
			"0.0": 18.2806331746,
			"0.001": 16.6195243292,
			"0.002": 15.7136585657,
			"0.003": 18.0377597301,
			"0.004": 18.0694867913,
			"0.005": 11.8297867581,
			"0.006": 7.40519552107,
			"0.007": 10.7071371062,
			"0.008": 6.90342202904,
			"0.009": 6.687227972,
			"0.01": 7.0155507671,
			"0.011": 6.07195067312,
			"0.012": 2.4931496103,
			"0.013": 0.17259794048,
			"0.014": 0.0,
			"0.015": 0.0,
			"0.016": 0.0,
			"0.017": 0.0,
			"0.018": 0.0,
			"0.019": 0.0,
			"0.02": 0.0,
			"0.021": 0.0,
			"0.022": 0.0,
			"0.023": 0.0,
			"0.024": 0.0,
			"0.025": 0.0
		}
	}
}
