{
	 "smiles": "COC1=CC(C=CC(=O)C2=CC=CC=C2O)=CC=C1O", 
	 "Tm": 401.15, 
	 "num_atms": 34, 
	 "gaussian": { 
		 "optdone": 1, 
		 "sigma_profile": "yes", 
		 "theory": "DFT", 
		 "functional": "B3LYP", 
		 "basiset": "6-31G**", 
		 "properties": { 
			 "R2extent": 9487.2305, 
			 "electric_dipole_moment_norm": 6.29982386182, 
			 "electric_quadrupole_moment_norm": 8.01061837563, 
			 "total_energy": -919.006328141, 
			 "HOMO_LUMO_gap": 0.13654, 
			 "cosmo_polarized_energy": -19.61, 
			 "cosmo_cavitation_energy": 39.03, 
			 "cosmo_dispersion_energy": -28.05, 
			 "cosmo_repulsion_energy": 2.13, 
			 "cosmo_total_nonelectrostatic_energy": 13.11, 
			 "SMD_solvation_energy": 8.46 
		},
		"coords": [
			{
				"x": -1.4940062166,
				"y": -1.1981002009,
				"z": 4.403279434,
				"element": "C" 
			},
			{
				"x": -0.5163943526,
				"y": -0.5636408091,
				"z": 5.214225722,
				"element": "O" 
			},
			{
				"x": 0.5212140522,
				"y": 0.0877579206,
				"z": 4.5916520303,
				"element": "C" 
			},
			{
				"x": 0.7174208572,
				"y": 0.1961263179,
				"z": 3.2257576873,
				"element": "C" 
			},
			{
				"x": 1.8357392075,
				"y": 0.9003674474,
				"z": 2.7186884772,
				"element": "C" 
			},
			{
				"x": 2.0958494006,
				"y": 1.0466036673,
				"z": 1.2934101659,
				"element": "C" 
			},
			{
				"x": 1.3671420116,
				"y": 0.5705160162,
				"z": 0.2594363122,
				"element": "C" 
			},
			{
				"x": 1.8195496877,
				"y": 0.8116628546,
				"z": -1.1271585718,
				"element": "C" 
			},
			{
				"x": 2.8764151742,
				"y": 1.4013501213,
				"z": -1.3587919726,
				"element": "O" 
			},
			{
				"x": 1.0247824935,
				"y": 0.2804256176,
				"z": -2.295726551,
				"element": "C" 
			},
			{
				"x": 1.7270668651,
				"y": 0.1575802819,
				"z": -3.5078841108,
				"element": "C" 
			},
			{
				"x": 1.131485729,
				"y": -0.3193675497,
				"z": -4.6690245892,
				"element": "C" 
			},
			{
				"x": -0.2183743617,
				"y": -0.6781372718,
				"z": -4.6442244214,
				"element": "C" 
			},
			{
				"x": -0.947593413,
				"y": -0.5520601396,
				"z": -3.4662445922,
				"element": "C" 
			},
			{
				"x": -0.34099482,
				"y": -0.0765169468,
				"z": -2.2959836013,
				"element": "C" 
			},
			{
				"x": -1.0832898703,
				"y": 0.0667028358,
				"z": -1.1541060856,
				"element": "O" 
			},
			{
				"x": 2.7299303676,
				"y": 1.4791496131,
				"z": 3.6342326837,
				"element": "C" 
			},
			{
				"x": 2.534550651,
				"y": 1.3712684734,
				"z": 5.0103577601,
				"element": "C" 
			},
			{
				"x": 1.4331342379,
				"y": 0.6774322678,
				"z": 5.4996694682,
				"element": "C" 
			},
			{
				"x": 1.2289389703,
				"y": 0.5633939111,
				"z": 6.8358718652,
				"element": "O" 
			},
			{
				"x": -2.2137444122,
				"y": -1.6476539706,
				"z": 5.0887612659,
				"element": "H" 
			},
			{
				"x": -2.0078020874,
				"y": -0.4736592959,
				"z": 3.7592999708,
				"element": "H" 
			},
			{
				"x": -1.0463276638,
				"y": -1.9818203621,
				"z": 3.7797260604,
				"element": "H" 
			},
			{
				"x": 0.0144879933,
				"y": -0.2569410577,
				"z": 2.5374745673,
				"element": "H" 
			},
			{
				"x": 2.9895633155,
				"y": 1.6095973664,
				"z": 1.0288182128,
				"element": "H" 
			},
			{
				"x": 0.4562992755,
				"y": 0.0066433476,
				"z": 0.4082480726,
				"element": "H" 
			},
			{
				"x": 2.7689859557,
				"y": 0.4585642657,
				"z": -3.4962564538,
				"element": "H" 
			},
			{
				"x": 1.7088593445,
				"y": -0.4101246534,
				"z": -5.5835304975,
				"element": "H" 
			},
			{
				"x": -0.7074667573,
				"y": -1.0518043315,
				"z": -5.5392775752,
				"element": "H" 
			},
			{
				"x": -2.0032758101,
				"y": -0.8177765687,
				"z": -3.4460582691,
				"element": "H" 
			},
			{
				"x": -1.9969171445,
				"y": -0.179735634,
				"z": -1.3488159862,
				"element": "H" 
			},
			{
				"x": 3.5920638551,
				"y": 2.0221069857,
				"z": 3.2583254835,
				"element": "H" 
			},
			{
				"x": 3.2247812863,
				"y": 1.8178356407,
				"z": 5.7180825863,
				"element": "H" 
			},
			{
				"x": 0.4160261786,
				"y": 0.0478538396,
				"z": 6.9571654522,
				"element": "H" 
			}
		],
		 "valence_orbital": [ 
			{
				"type": "occ",
				"energy": -0.2537,
				"method": "rhf"
			},
			{
				"type": "occ",
				"energy": -0.24082,
				"method": "rhf"
			},
			{
				"type": "occ",
				"energy": -0.23502,
				"method": "rhf"
			},
			{
				"type": "occ",
				"energy": -0.22987,
				"method": "rhf"
			},
			{
				"type": "occ",
				"energy": -0.20251,
				"method": "rhf"
			},
			{
				"type": "unocc",
				"energy": -0.06597,
				"method": "rhf"
			},
			{
				"type": "unocc",
				"energy": -0.01358,
				"method": "rhf"
			},
			{
				"type": "unocc",
				"energy": 0.0045,
				"method": "rhf"
			},
			{
				"type": "unocc",
				"energy": 0.00664,
				"method": "rhf"
			},
			{
				"type": "unocc",
				"energy": 0.04388,
				"method": "rhf"
			}
		],
		"cosmo_sigma_profile": { 
			"-0.025": 0.0,
			"-0.024": 0.0,
			"-0.023": 0.0,
			"-0.022": 0.0,
			"-0.021": 0.0,
			"-0.02": 0.0,
			"-0.019": 0.0276687295817,
			"-0.018": 1.01683940981,
			"-0.017": 0.92744691615,
			"-0.016": 1.17728422495,
			"-0.015": 1.2459251596,
			"-0.014": 1.89479471953,
			"-0.013": 1.134112442,
			"-0.012": 1.2028505997,
			"-0.011": 1.70753842226,
			"-0.01": 1.80941844355,
			"-0.009": 1.80034077488,
			"-0.008": 1.85900090686,
			"-0.007": 6.78056057766,
			"-0.006": 20.0503668047,
			"-0.005": 23.5179894608,
			"-0.004": 23.0089733363,
			"-0.003": 18.3853332651,
			"-0.002": 15.7815063355,
			"-0.001": 13.3206032525,
			"0.0": 16.4000167746,
			"0.001": 24.048882365,
			"0.002": 26.1435639772,
			"0.003": 29.9347394185,
			"0.004": 31.3978412051,
			"0.005": 15.9721113182,
			"0.006": 4.80632871076,
			"0.007": 3.77960749809,
			"0.008": 4.5245226963,
			"0.009": 4.05338375021,
			"0.01": 3.46836123325,
			"0.011": 3.62341800782,
			"0.012": 2.51898242567,
			"0.013": 4.41638346484,
			"0.014": 0.472326181996,
			"0.015": 0.0,
			"0.016": 0.0,
			"0.017": 0.0,
			"0.018": 0.0,
			"0.019": 0.0,
			"0.02": 0.0,
			"0.021": 0.0,
			"0.022": 0.0,
			"0.023": 0.0,
			"0.024": 0.0,
			"0.025": 0.0
		}
	}
}
