{
	 "smiles": "CC(CNC(=O)C1=CC=CC=C1)C(=O)OCC(=O)[C@@]12OC(C)(C)O[C@@H]1CC1C3CCC4=CC(=O)C=CC4(C)[C@@]3(F)C(O)CC21C", 
	 "Tm": 478.15, 
	 "num_atms": 87, 
	 "gaussian": { 
		 "optdone": 1, 
		 "sigma_profile": "yes", 
		 "theory": "DFT", 
		 "functional": "B3LYP", 
		 "basiset": "6-31G**", 
		 "properties": { 
			 "R2extent": 26541.8893, 
			 "electric_dipole_moment_norm": 7.93074139409, 
			 "electric_quadrupole_moment_norm": 44.7864340194, 
			 "total_energy": -2115.41691025, 
			 "HOMO_LUMO_gap": 0.17689, 
			 "cosmo_polarized_energy": -39.19, 
			 "cosmo_cavitation_energy": 80.61, 
			 "cosmo_dispersion_energy": -47.65, 
			 "cosmo_repulsion_energy": 3.4, 
			 "cosmo_total_nonelectrostatic_energy": 36.36, 
			 "SMD_solvation_energy": 14.3 
		},
		"coords": [
			{
				"x": 3.410288994,
				"y": -5.3732682751,
				"z": 3.4703352732,
				"element": "C" 
			},
			{
				"x": 3.0110867323,
				"y": -3.9924565154,
				"z": 2.9398984045,
				"element": "C" 
			},
			{
				"x": 3.0163639309,
				"y": -2.945675212,
				"z": 4.0915527283,
				"element": "C" 
			},
			{
				"x": 2.9671131594,
				"y": -1.5590067301,
				"z": 3.6622015213,
				"element": "N" 
			},
			{
				"x": 1.7992295461,
				"y": -0.8545682316,
				"z": 3.5729788092,
				"element": "C" 
			},
			{
				"x": 0.7124846508,
				"y": -1.337198065,
				"z": 3.8876995283,
				"element": "O" 
			},
			{
				"x": 1.9164849045,
				"y": 0.5650202348,
				"z": 3.0880376231,
				"element": "C" 
			},
			{
				"x": 0.932994793,
				"y": 1.471756146,
				"z": 3.5074163927,
				"element": "C" 
			},
			{
				"x": 0.9819443224,
				"y": 2.803232517,
				"z": 3.098821325,
				"element": "C" 
			},
			{
				"x": 2.002415347,
				"y": 3.2383350916,
				"z": 2.2472321692,
				"element": "C" 
			},
			{
				"x": 2.9706396881,
				"y": 2.3349722912,
				"z": 1.8041743167,
				"element": "C" 
			},
			{
				"x": 2.9305457144,
				"y": 1.0046799183,
				"z": 2.2250199183,
				"element": "C" 
			},
			{
				"x": 1.6301446522,
				"y": -4.0461381027,
				"z": 2.3046370469,
				"element": "C" 
			},
			{
				"x": 0.7722837104,
				"y": -4.8554728698,
				"z": 2.5779057492,
				"element": "O" 
			},
			{
				"x": 1.4707144279,
				"y": -3.0393791653,
				"z": 1.4106685711,
				"element": "O" 
			},
			{
				"x": 0.1647605465,
				"y": -2.8658632415,
				"z": 0.8600740573,
				"element": "C" 
			},
			{
				"x": 0.2545513751,
				"y": -2.8806940132,
				"z": -0.666669065,
				"element": "C" 
			},
			{
				"x": 1.1005059206,
				"y": -3.5461465118,
				"z": -1.2221351783,
				"element": "O" 
			},
			{
				"x": -0.7688523618,
				"y": -2.0453356957,
				"z": -1.4690894651,
				"element": "C" 
			},
			{
				"x": -0.905973591,
				"y": -2.6195270505,
				"z": -2.7588843411,
				"element": "O" 
			},
			{
				"x": -2.1989816355,
				"y": -3.2374233982,
				"z": -2.8475406447,
				"element": "C" 
			},
			{
				"x": -2.1227785318,
				"y": -4.7051468834,
				"z": -2.413674414,
				"element": "C" 
			},
			{
				"x": -2.7208228236,
				"y": -3.0780373315,
				"z": -4.2666258789,
				"element": "C" 
			},
			{
				"x": -3.0267267108,
				"y": -2.4785812091,
				"z": -1.9687924805,
				"element": "O" 
			},
			{
				"x": -2.217864727,
				"y": -2.0600377372,
				"z": -0.8732262796,
				"element": "C" 
			},
			{
				"x": -2.5550397124,
				"y": -0.6290248247,
				"z": -0.4255433041,
				"element": "C" 
			},
			{
				"x": -1.2052121713,
				"y": 0.1349622197,
				"z": -0.4053615958,
				"element": "C" 
			},
			{
				"x": -1.2828824936,
				"y": 1.6835224377,
				"z": -0.4601476436,
				"element": "C" 
			},
			{
				"x": -2.2513482852,
				"y": 2.2184753771,
				"z": 0.6130958381,
				"element": "C" 
			},
			{
				"x": -2.3559026075,
				"y": 3.7540061597,
				"z": 0.6089361232,
				"element": "C" 
			},
			{
				"x": -2.648735136,
				"y": 4.2664863259,
				"z": -0.7772624874,
				"element": "C" 
			},
			{
				"x": -3.7183786837,
				"y": 5.0362301291,
				"z": -1.0461373963,
				"element": "C" 
			},
			{
				"x": -4.05069208,
				"y": 5.515422224,
				"z": -2.3997586023,
				"element": "C" 
			},
			{
				"x": -5.0325835574,
				"y": 6.220324713,
				"z": -2.6221441329,
				"element": "O" 
			},
			{
				"x": -3.1233544197,
				"y": 5.1038649721,
				"z": -3.4751629928,
				"element": "C" 
			},
			{
				"x": -2.0552665558,
				"y": 4.3346882644,
				"z": -3.2288305449,
				"element": "C" 
			},
			{
				"x": -1.6600496205,
				"y": 3.839555119,
				"z": -1.857223508,
				"element": "C" 
			},
			{
				"x": -0.2800601752,
				"y": 4.4969786037,
				"z": -1.5372883107,
				"element": "C" 
			},
			{
				"x": -1.6353706662,
				"y": 2.2550150711,
				"z": -1.8471702929,
				"element": "C" 
			},
			{
				"x": -2.974901888,
				"y": 1.8772588745,
				"z": -2.1264851814,
				"element": "F" 
			},
			{
				"x": -0.8475454978,
				"y": 1.5925254843,
				"z": -3.0023286102,
				"element": "C" 
			},
			{
				"x": 0.4649329338,
				"y": 2.1546363002,
				"z": -3.0552052675,
				"element": "O" 
			},
			{
				"x": -0.8426977707,
				"y": 0.0614583031,
				"z": -2.8939522927,
				"element": "C" 
			},
			{
				"x": -0.3566734214,
				"y": -0.5107287553,
				"z": -1.5398384918,
				"element": "C" 
			},
			{
				"x": 1.157929606,
				"y": -0.3024009184,
				"z": -1.3533797684,
				"element": "C" 
			},
			{
				"x": 2.6988215419,
				"y": -5.7178884438,
				"z": 4.2252587021,
				"element": "H" 
			},
			{
				"x": 4.4092236014,
				"y": -5.3388389247,
				"z": 3.9165216949,
				"element": "H" 
			},
			{
				"x": 3.4198746322,
				"y": -6.1133179457,
				"z": 2.6661747134,
				"element": "H" 
			},
			{
				"x": 3.7197485558,
				"y": -3.6569933477,
				"z": 2.1742130408,
				"element": "H" 
			},
			{
				"x": 2.1605885429,
				"y": -3.120569179,
				"z": 4.7490175525,
				"element": "H" 
			},
			{
				"x": 3.9302218121,
				"y": -3.0894624759,
				"z": 4.6772375651,
				"element": "H" 
			},
			{
				"x": 3.8349095827,
				"y": -1.0900725685,
				"z": 3.4554795067,
				"element": "H" 
			},
			{
				"x": 0.144199505,
				"y": 1.1098671552,
				"z": 4.1584586544,
				"element": "H" 
			},
			{
				"x": 0.2284892964,
				"y": 3.5038528273,
				"z": 3.4471739674,
				"element": "H" 
			},
			{
				"x": 2.0424061361,
				"y": 4.2764330278,
				"z": 1.9298898336,
				"element": "H" 
			},
			{
				"x": 3.7544488679,
				"y": 2.6638182718,
				"z": 1.1283124725,
				"element": "H" 
			},
			{
				"x": 3.672210335,
				"y": 0.3063628369,
				"z": 1.8468176684,
				"element": "H" 
			},
			{
				"x": -0.2423595982,
				"y": -1.9367825816,
				"z": 1.2653590518,
				"element": "H" 
			},
			{
				"x": -0.4787063359,
				"y": -3.6908259582,
				"z": 1.1885702336,
				"element": "H" 
			},
			{
				"x": -1.4266475174,
				"y": -5.2505676445,
				"z": -3.0557583511,
				"element": "H" 
			},
			{
				"x": -1.7705718083,
				"y": -4.7990949165,
				"z": -1.3831584057,
				"element": "H" 
			},
			{
				"x": -3.1109151695,
				"y": -5.1689270172,
				"z": -2.4807814415,
				"element": "H" 
			},
			{
				"x": -2.0634801343,
				"y": -3.5980505928,
				"z": -4.968048763,
				"element": "H" 
			},
			{
				"x": -2.7624957966,
				"y": -2.0202578275,
				"z": -4.5332782396,
				"element": "H" 
			},
			{
				"x": -3.7250887805,
				"y": -3.5019758765,
				"z": -4.3460797895,
				"element": "H" 
			},
			{
				"x": -2.3179838985,
				"y": -2.7763847188,
				"z": -0.046933292,
				"element": "H" 
			},
			{
				"x": -3.2471200191,
				"y": -0.1948621783,
				"z": -1.1480686892,
				"element": "H" 
			},
			{
				"x": -3.0464539634,
				"y": -0.6151274737,
				"z": 0.5507632446,
				"element": "H" 
			},
			{
				"x": -0.7128374201,
				"y": -0.0838858708,
				"z": 0.551145566,
				"element": "H" 
			},
			{
				"x": -0.2760096697,
				"y": 2.0495572071,
				"z": -0.2264615249,
				"element": "H" 
			},
			{
				"x": -1.9257514062,
				"y": 1.868459281,
				"z": 1.5993447366,
				"element": "H" 
			},
			{
				"x": -3.2478297081,
				"y": 1.8047268346,
				"z": 0.4334674153,
				"element": "H" 
			},
			{
				"x": -1.4111389581,
				"y": 4.1804000609,
				"z": 0.9729748942,
				"element": "H" 
			},
			{
				"x": -3.1378854388,
				"y": 4.0822617016,
				"z": 1.3008409012,
				"element": "H" 
			},
			{
				"x": -4.4042972896,
				"y": 5.3385380818,
				"z": -0.2584367049,
				"element": "H" 
			},
			{
				"x": -3.3516279605,
				"y": 5.469220896,
				"z": -4.4724545702,
				"element": "H" 
			},
			{
				"x": -1.371618275,
				"y": 4.0799739547,
				"z": -4.0355605719,
				"element": "H" 
			},
			{
				"x": -0.427528555,
				"y": 5.5758829998,
				"z": -1.433658454,
				"element": "H" 
			},
			{
				"x": 0.4329720795,
				"y": 4.3077919665,
				"z": -2.3373162635,
				"element": "H" 
			},
			{
				"x": 0.1536953008,
				"y": 4.1228539707,
				"z": -0.6075648223,
				"element": "H" 
			},
			{
				"x": -1.3932998736,
				"y": 1.846885988,
				"z": -3.9220342591,
				"element": "H" 
			},
			{
				"x": 0.978702098,
				"y": 1.6304727458,
				"z": -3.6832602511,
				"element": "H" 
			},
			{
				"x": -0.2392811986,
				"y": -0.3499477808,
				"z": -3.7116275453,
				"element": "H" 
			},
			{
				"x": -1.8637754224,
				"y": -0.2742383539,
				"z": -3.0872153915,
				"element": "H" 
			},
			{
				"x": 1.4200125175,
				"y": 0.7528086207,
				"z": -1.4392298809,
				"element": "H" 
			},
			{
				"x": 1.717431624,
				"y": -0.8584726251,
				"z": -2.1132363887,
				"element": "H" 
			},
			{
				"x": 1.5005283367,
				"y": -0.6544201668,
				"z": -0.3748850404,
				"element": "H" 
			}
		],
		 "valence_orbital": [ 
			{
				"type": "occ",
				"energy": -0.2626,
				"method": "rhf"
			},
			{
				"type": "occ",
				"energy": -0.25966,
				"method": "rhf"
			},
			{
				"type": "occ",
				"energy": -0.25398,
				"method": "rhf"
			},
			{
				"type": "occ",
				"energy": -0.2426,
				"method": "rhf"
			},
			{
				"type": "occ",
				"energy": -0.2299,
				"method": "rhf"
			},
			{
				"type": "unocc",
				"energy": -0.05301,
				"method": "rhf"
			},
			{
				"type": "unocc",
				"energy": -0.04818,
				"method": "rhf"
			},
			{
				"type": "unocc",
				"energy": -0.02761,
				"method": "rhf"
			},
			{
				"type": "unocc",
				"energy": -0.02538,
				"method": "rhf"
			},
			{
				"type": "unocc",
				"energy": 0.00331,
				"method": "rhf"
			}
		],
		"cosmo_sigma_profile": { 
			"-0.025": 0.0,
			"-0.024": 0.0,
			"-0.023": 0.0,
			"-0.022": 0.0,
			"-0.021": 0.0,
			"-0.02": 0.0,
			"-0.019": 0.0,
			"-0.018": 0.0,
			"-0.017": 0.0,
			"-0.016": 0.340358210485,
			"-0.015": 1.50000147774,
			"-0.014": 1.67853408461,
			"-0.013": 2.16263177432,
			"-0.012": 2.33627277549,
			"-0.011": 3.26369912173,
			"-0.01": 3.19034256627,
			"-0.009": 4.99550758227,
			"-0.008": 6.79008631502,
			"-0.007": 9.36267742144,
			"-0.006": 20.8884234596,
			"-0.005": 36.3083947652,
			"-0.004": 58.4484502544,
			"-0.003": 55.5027315404,
			"-0.002": 60.4946321685,
			"-0.001": 67.6677923005,
			"0.0": 63.0724120022,
			"0.001": 45.5685918517,
			"0.002": 32.9234625436,
			"0.003": 24.725616651,
			"0.004": 21.0434607888,
			"0.005": 16.5598641388,
			"0.006": 14.8427371872,
			"0.007": 10.8250692935,
			"0.008": 8.48699111538,
			"0.009": 8.36392242939,
			"0.01": 8.29121845268,
			"0.011": 13.4758436187,
			"0.012": 10.1122891778,
			"0.013": 8.72889252588,
			"0.014": 6.6731016055,
			"0.015": 1.5088597912,
			"0.016": 0.0536142547916,
			"0.017": 0.0,
			"0.018": 0.0,
			"0.019": 0.0,
			"0.02": 0.0,
			"0.021": 0.0,
			"0.022": 0.0,
			"0.023": 0.0,
			"0.024": 0.0,
			"0.025": 0.0
		}
	}
}
