{
	 "smiles": "COC1=CC2=CC(OC)=CC=C2C=C1", 
	 "Tm": 411.15, 
	 "num_atms": 26, 
	 "gaussian": { 
		 "optdone": 1, 
		 "sigma_profile": "yes", 
		 "theory": "DFT", 
		 "functional": "B3LYP", 
		 "basiset": "6-31G**", 
		 "properties": { 
			 "R2extent": 4045.6051, 
			 "electric_dipole_moment_norm": 1.11153532557, 
			 "electric_quadrupole_moment_norm": 13.1401089596, 
			 "total_energy": -614.943895297, 
			 "HOMO_LUMO_gap": 0.16945, 
			 "cosmo_polarized_energy": -8.56, 
			 "cosmo_cavitation_energy": 29.33, 
			 "cosmo_dispersion_energy": -21.88, 
			 "cosmo_repulsion_energy": 1.69, 
			 "cosmo_total_nonelectrostatic_energy": 9.14, 
			 "SMD_solvation_energy": 6.26 
		},
		"coords": [
			{
				"x": -3.8197957781,
				"y": 2.3239586377,
				"z": 2.9751031746,
				"element": "C" 
			},
			{
				"x": -2.8591570626,
				"y": 1.5733493066,
				"z": 3.6994749018,
				"element": "O" 
			},
			{
				"x": -1.8184486974,
				"y": 1.0260791971,
				"z": 3.0069656662,
				"element": "C" 
			},
			{
				"x": -1.6208196294,
				"y": 1.1436197031,
				"z": 1.6465192498,
				"element": "C" 
			},
			{
				"x": -0.4937637226,
				"y": 0.5273920924,
				"z": 1.0284233845,
				"element": "C" 
			},
			{
				"x": -0.2588785979,
				"y": 0.6264074232,
				"z": -0.3618638004,
				"element": "C" 
			},
			{
				"x": 0.8419100358,
				"y": 0.0209838322,
				"z": -0.9447644703,
				"element": "C" 
			},
			{
				"x": 0.9714765392,
				"y": 0.1811868626,
				"z": -2.2966870575,
				"element": "O" 
			},
			{
				"x": 2.0794033784,
				"y": -0.4158452922,
				"z": -2.9495686881,
				"element": "C" 
			},
			{
				"x": 1.7576819734,
				"y": -0.713673916,
				"z": -0.148789128,
				"element": "C" 
			},
			{
				"x": 1.5434554828,
				"y": -0.8204514373,
				"z": 1.2101619849,
				"element": "C" 
			},
			{
				"x": 0.4297153703,
				"y": -0.2144383008,
				"z": 1.836522534,
				"element": "C" 
			},
			{
				"x": 0.1876851583,
				"y": -0.3104450332,
				"z": 3.2360120754,
				"element": "C" 
			},
			{
				"x": -0.9016668068,
				"y": 0.2892348911,
				"z": 3.811037547,
				"element": "C" 
			},
			{
				"x": -4.3234376222,
				"y": 1.7102123144,
				"z": 2.216949392,
				"element": "H" 
			},
			{
				"x": -3.3652315327,
				"y": 3.1941183654,
				"z": 2.4838450889,
				"element": "H" 
			},
			{
				"x": -4.5528146155,
				"y": 2.6655532069,
				"z": 3.7075762568,
				"element": "H" 
			},
			{
				"x": -2.3097843482,
				"y": 1.7009688579,
				"z": 1.0223997595,
				"element": "H" 
			},
			{
				"x": -0.9428715909,
				"y": 1.1822682107,
				"z": -0.995940767,
				"element": "H" 
			},
			{
				"x": 1.9784295857,
				"y": -0.1599139391,
				"z": -4.0056128016,
				"element": "H" 
			},
			{
				"x": 2.0762359667,
				"y": -1.5086405633,
				"z": -2.8444386426,
				"element": "H" 
			},
			{
				"x": 3.0344362782,
				"y": -0.0237402193,
				"z": -2.5761741438,
				"element": "H" 
			},
			{
				"x": 2.6216008109,
				"y": -1.1907266103,
				"z": -0.5954615739,
				"element": "H" 
			},
			{
				"x": 2.2451915202,
				"y": -1.3835415962,
				"z": 1.820723827,
				"element": "H" 
			},
			{
				"x": 0.886304895,
				"y": -0.872337411,
				"z": 3.8510445772,
				"element": "H" 
			},
			{
				"x": -1.0964569905,
				"y": 0.2230214172,
				"z": 4.8762416538,
				"element": "H" 
			}
		],
		 "valence_orbital": [ 
			{
				"type": "occ",
				"energy": -0.31906,
				"method": "rhf"
			},
			{
				"type": "occ",
				"energy": -0.2768,
				"method": "rhf"
			},
			{
				"type": "occ",
				"energy": -0.27172,
				"method": "rhf"
			},
			{
				"type": "occ",
				"energy": -0.20986,
				"method": "rhf"
			},
			{
				"type": "occ",
				"energy": -0.19672,
				"method": "rhf"
			},
			{
				"type": "unocc",
				"energy": -0.02727,
				"method": "rhf"
			},
			{
				"type": "unocc",
				"energy": 0.00852,
				"method": "rhf"
			},
			{
				"type": "unocc",
				"energy": 0.0418,
				"method": "rhf"
			},
			{
				"type": "unocc",
				"energy": 0.09443,
				"method": "rhf"
			},
			{
				"type": "unocc",
				"energy": 0.10311,
				"method": "rhf"
			}
		],
		"cosmo_sigma_profile": { 
			"-0.025": 0.0,
			"-0.024": 0.0,
			"-0.023": 0.0,
			"-0.022": 0.0,
			"-0.021": 0.0,
			"-0.02": 0.0,
			"-0.019": 0.0,
			"-0.018": 0.0,
			"-0.017": 0.0,
			"-0.016": 0.0,
			"-0.015": 0.0,
			"-0.014": 0.0,
			"-0.013": 0.0,
			"-0.012": 0.0,
			"-0.011": 0.0,
			"-0.01": 0.0,
			"-0.009": 0.0,
			"-0.008": 0.0,
			"-0.007": 0.327966381043,
			"-0.006": 14.1396294502,
			"-0.005": 29.2060806762,
			"-0.004": 25.9659606859,
			"-0.003": 24.9569748711,
			"-0.002": 14.6075745925,
			"-0.001": 11.4362749371,
			"0.0": 9.2998211615,
			"0.001": 10.1615906016,
			"0.002": 9.89650021612,
			"0.003": 14.513815534,
			"0.004": 22.3715772656,
			"0.005": 28.167120027,
			"0.006": 6.19229893409,
			"0.007": 1.9967959909,
			"0.008": 2.76269614623,
			"0.009": 3.28435991648,
			"0.01": 3.08337393689,
			"0.011": 1.11227258161,
			"0.012": 0.0,
			"0.013": 0.0,
			"0.014": 0.0,
			"0.015": 0.0,
			"0.016": 0.0,
			"0.017": 0.0,
			"0.018": 0.0,
			"0.019": 0.0,
			"0.02": 0.0,
			"0.021": 0.0,
			"0.022": 0.0,
			"0.023": 0.0,
			"0.024": 0.0,
			"0.025": 0.0
		}
	}
}
