{
	 "smiles": "CC1=CC=C(NC(=O)C(F)(F)C(F)(F)C(F)(F)C(F)(F)C(F)(F)C(F)(F)C(F)(F)C(F)(F)F)C=C1C", 
	 "Tm": 384.15, 
	 "num_atms": 46, 
	 "gaussian": { 
		 "optdone": 1, 
		 "sigma_profile": "yes", 
		 "theory": "DFT", 
		 "functional": "B3LYP", 
		 "basiset": "6-31G**", 
		 "properties": { 
			 "R2extent": 19460.4051, 
			 "electric_dipole_moment_norm": 5.13060334464, 
			 "electric_quadrupole_moment_norm": 17.6821463878, 
			 "total_energy": -2481.03981036, 
			 "HOMO_LUMO_gap": 0.21854, 
			 "cosmo_polarized_energy": -10.45, 
			 "cosmo_cavitation_energy": 54.89, 
			 "cosmo_dispersion_energy": -35.17, 
			 "cosmo_repulsion_energy": 2.37, 
			 "cosmo_total_nonelectrostatic_energy": 22.1, 
			 "SMD_solvation_energy": 14.77 
		},
		"coords": [
			{
				"x": 1.0082337687,
				"y": 5.5462657795,
				"z": 1.4424653275,
				"element": "C" 
			},
			{
				"x": 0.3063467799,
				"y": 4.282340315,
				"z": 1.8763993792,
				"element": "C" 
			},
			{
				"x": 1.0452104713,
				"y": 3.1344324074,
				"z": 2.1815689665,
				"element": "C" 
			},
			{
				"x": 0.4253887943,
				"y": 1.9501443352,
				"z": 2.5779325186,
				"element": "C" 
			},
			{
				"x": -0.964134578,
				"y": 1.9068606116,
				"z": 2.6776573008,
				"element": "C" 
			},
			{
				"x": -1.5966472685,
				"y": 0.7152054153,
				"z": 3.1742387412,
				"element": "N" 
			},
			{
				"x": -2.4167096506,
				"y": -0.2117401938,
				"z": 2.5973675126,
				"element": "C" 
			},
			{
				"x": -2.9513763918,
				"y": -1.1041264525,
				"z": 3.2288649778,
				"element": "O" 
			},
			{
				"x": -2.6349369704,
				"y": -0.1736129765,
				"z": 1.0524198004,
				"element": "C" 
			},
			{
				"x": -2.8066450115,
				"y": 1.0925254552,
				"z": 0.5877703496,
				"element": "F" 
			},
			{
				"x": -3.7560370219,
				"y": -0.8775902128,
				"z": 0.7818402218,
				"element": "F" 
			},
			{
				"x": -1.4551612138,
				"y": -0.8274882736,
				"z": 0.2757980582,
				"element": "C" 
			},
			{
				"x": -0.4218929319,
				"y": 0.0505794595,
				"z": 0.2526877723,
				"element": "F" 
			},
			{
				"x": -1.0669224442,
				"y": -1.9389092227,
				"z": 0.9482346367,
				"element": "F" 
			},
			{
				"x": -1.7940879123,
				"y": -1.2366162317,
				"z": -1.1839050606,
				"element": "C" 
			},
			{
				"x": -2.5899181153,
				"y": -2.3248424063,
				"z": -1.1696900008,
				"element": "F" 
			},
			{
				"x": -2.4701864898,
				"y": -0.2126106822,
				"z": -1.7631589515,
				"element": "F" 
			},
			{
				"x": -0.5884937314,
				"y": -1.5151053438,
				"z": -2.1414607699,
				"element": "C" 
			},
			{
				"x": 0.025698296,
				"y": -0.3316600899,
				"z": -2.3709659626,
				"element": "F" 
			},
			{
				"x": -1.1286830289,
				"y": -1.957437569,
				"z": -3.3017622719,
				"element": "F" 
			},
			{
				"x": 0.5522947778,
				"y": -2.5077781992,
				"z": -1.7511271441,
				"element": "C" 
			},
			{
				"x": 1.1446158099,
				"y": -2.0712974349,
				"z": -0.6159815378,
				"element": "F" 
			},
			{
				"x": 1.448740947,
				"y": -2.4304287997,
				"z": -2.7682568684,
				"element": "F" 
			},
			{
				"x": 0.1818673024,
				"y": -4.0033419112,
				"z": -1.5890187777,
				"element": "C" 
			},
			{
				"x": -0.2727759687,
				"y": -4.4647257142,
				"z": -2.7739852008,
				"element": "F" 
			},
			{
				"x": -0.7985941162,
				"y": -4.1155274144,
				"z": -0.6631012422,
				"element": "F" 
			},
			{
				"x": 1.3215431263,
				"y": -4.9516512561,
				"z": -1.0997103684,
				"element": "C" 
			},
			{
				"x": 1.6490335491,
				"y": -4.6171608188,
				"z": 0.1673479284,
				"element": "F" 
			},
			{
				"x": 0.7868566429,
				"y": -6.1948864283,
				"z": -1.1046292632,
				"element": "F" 
			},
			{
				"x": 2.6295341705,
				"y": -5.0116090351,
				"z": -1.927939661,
				"element": "C" 
			},
			{
				"x": 3.3357000576,
				"y": -6.0802516286,
				"z": -1.5406187929,
				"element": "F" 
			},
			{
				"x": 2.3617480721,
				"y": -5.1197093539,
				"z": -3.2346601437,
				"element": "F" 
			},
			{
				"x": 3.367226974,
				"y": -3.9145396458,
				"z": -1.715327839,
				"element": "F" 
			},
			{
				"x": -1.7154532087,
				"y": 3.050244462,
				"z": 2.3931681591,
				"element": "C" 
			},
			{
				"x": -1.1018511737,
				"y": 4.2360372804,
				"z": 1.9820584045,
				"element": "C" 
			},
			{
				"x": -1.9426973385,
				"y": 5.4501406692,
				"z": 1.6671215433,
				"element": "C" 
			},
			{
				"x": 2.0917531446,
				"y": 5.4064104711,
				"z": 1.4146618417,
				"element": "H" 
			},
			{
				"x": 0.6860136006,
				"y": 5.8640964312,
				"z": 0.4435819079,
				"element": "H" 
			},
			{
				"x": 0.7955694299,
				"y": 6.3806626495,
				"z": 2.121670407,
				"element": "H" 
			},
			{
				"x": 2.1285322326,
				"y": 3.1653850708,
				"z": 2.1011091901,
				"element": "H" 
			},
			{
				"x": 1.0104659294,
				"y": 1.0629007279,
				"z": 2.7981144366,
				"element": "H" 
			},
			{
				"x": -1.4820787951,
				"y": 0.5211546613,
				"z": 4.1636392488,
				"element": "H" 
			},
			{
				"x": -2.795867205,
				"y": 3.0077064436,
				"z": 2.4882561296,
				"element": "H" 
			},
			{
				"x": -1.678932205,
				"y": 6.3017146498,
				"z": 2.3057133139,
				"element": "H" 
			},
			{
				"x": -1.802411408,
				"y": 5.7783122127,
				"z": 0.6302326003,
				"element": "H" 
			},
			{
				"x": -3.0060796976,
				"y": 5.242327787,
				"z": 1.809179182,
				"element": "H" 
			}
		],
		 "valence_orbital": [ 
			{
				"type": "occ",
				"energy": -0.34468,
				"method": "rhf"
			},
			{
				"type": "occ",
				"energy": -0.28655,
				"method": "rhf"
			},
			{
				"type": "occ",
				"energy": -0.27626,
				"method": "rhf"
			},
			{
				"type": "occ",
				"energy": -0.25723,
				"method": "rhf"
			},
			{
				"type": "occ",
				"energy": -0.24644,
				"method": "rhf"
			},
			{
				"type": "unocc",
				"energy": -0.0279,
				"method": "rhf"
			},
			{
				"type": "unocc",
				"energy": -0.01563,
				"method": "rhf"
			},
			{
				"type": "unocc",
				"energy": -0.00899,
				"method": "rhf"
			},
			{
				"type": "unocc",
				"energy": 0.01346,
				"method": "rhf"
			},
			{
				"type": "unocc",
				"energy": 0.02208,
				"method": "rhf"
			}
		],
		"cosmo_sigma_profile": { 
			"-0.025": 0.0,
			"-0.024": 0.0,
			"-0.023": 0.0,
			"-0.022": 0.0,
			"-0.021": 0.0,
			"-0.02": 0.0,
			"-0.019": 0.0,
			"-0.018": 0.0,
			"-0.017": 0.0,
			"-0.016": 0.265749094072,
			"-0.015": 0.827579849729,
			"-0.014": 1.13441030321,
			"-0.013": 0.769940815832,
			"-0.012": 0.821713784676,
			"-0.011": 0.723592890648,
			"-0.01": 1.01389069729,
			"-0.009": 1.138150851,
			"-0.008": 0.691654544279,
			"-0.007": 1.74344500252,
			"-0.006": 7.69170329364,
			"-0.005": 12.1985487222,
			"-0.004": 23.0401770498,
			"-0.003": 22.9975707865,
			"-0.002": 30.8274199021,
			"-0.001": 43.5756283213,
			"0.0": 86.7238141513,
			"0.001": 121.861947819,
			"0.002": 30.8818308265,
			"0.003": 12.3703682842,
			"0.004": 11.2876902327,
			"0.005": 8.33343255366,
			"0.006": 1.30113687138,
			"0.007": 1.46363055778,
			"0.008": 1.70189453265,
			"0.009": 2.11020186912,
			"0.01": 2.06819589921,
			"0.011": 4.26794960562,
			"0.012": 4.08584646709,
			"0.013": 0.12679961492,
			"0.014": 0.0,
			"0.015": 0.0,
			"0.016": 0.0,
			"0.017": 0.0,
			"0.018": 0.0,
			"0.019": 0.0,
			"0.02": 0.0,
			"0.021": 0.0,
			"0.022": 0.0,
			"0.023": 0.0,
			"0.024": 0.0,
			"0.025": 0.0
		}
	}
}
