{
	 "smiles": "NC(=O)C1=CC=CC=C1N", 
	 "Tm": 383.15, 
	 "num_atms": 18, 
	 "gaussian": { 
		 "optdone": 1, 
		 "sigma_profile": "yes", 
		 "theory": "DFT", 
		 "functional": "B3LYP", 
		 "basiset": "6-31G**", 
		 "properties": { 
			 "R2extent": 1714.2585, 
			 "electric_dipole_moment_norm": 1.69874296467, 
			 "electric_quadrupole_moment_norm": 15.4182173636, 
			 "total_energy": -456.322007098, 
			 "HOMO_LUMO_gap": 0.16811, 
			 "cosmo_polarized_energy": -12.52, 
			 "cosmo_cavitation_energy": 21.44, 
			 "cosmo_dispersion_energy": -16.49, 
			 "cosmo_repulsion_energy": 1.34, 
			 "cosmo_total_nonelectrostatic_energy": 6.29, 
			 "SMD_solvation_energy": 4.22 
		},
		"coords": [
			{
				"x": 1.6490813414,
				"y": -2.2413714261,
				"z": 2.3508026608,
				"element": "N" 
			},
			{
				"x": 0.3670374663,
				"y": -1.9049050966,
				"z": 1.9792110187,
				"element": "C" 
			},
			{
				"x": -0.5910457793,
				"y": -2.3428619209,
				"z": 2.6277392663,
				"element": "O" 
			},
			{
				"x": 0.2173685653,
				"y": -1.0406078263,
				"z": 0.777449822,
				"element": "C" 
			},
			{
				"x": 1.277739015,
				"y": -0.8665205235,
				"z": -0.1316037982,
				"element": "C" 
			},
			{
				"x": 1.1631129803,
				"y": -0.0619381613,
				"z": -1.256275597,
				"element": "C" 
			},
			{
				"x": -0.0519520011,
				"y": 0.5960454474,
				"z": -1.4915611499,
				"element": "C" 
			},
			{
				"x": -1.1221001261,
				"y": 0.4336317524,
				"z": -0.6276316409,
				"element": "C" 
			},
			{
				"x": -1.0263613517,
				"y": -0.3920386514,
				"z": 0.5164982715,
				"element": "C" 
			},
			{
				"x": -2.0952437096,
				"y": -0.5163285325,
				"z": 1.3630768805,
				"element": "N" 
			},
			{
				"x": 2.4199126018,
				"y": -1.6407675797,
				"z": 2.1048276373,
				"element": "H" 
			},
			{
				"x": 1.713950666,
				"y": -2.721596473,
				"z": 3.2368855425,
				"element": "H" 
			},
			{
				"x": 2.2028741892,
				"y": -1.4117892622,
				"z": 0.0300803641,
				"element": "H" 
			},
			{
				"x": 1.994940552,
				"y": 0.0451548344,
				"z": -1.9444576852,
				"element": "H" 
			},
			{
				"x": -0.1655932158,
				"y": 1.2325070154,
				"z": -2.3650527254,
				"element": "H" 
			},
			{
				"x": -2.0633209043,
				"y": 0.9417555056,
				"z": -0.8229124725,
				"element": "H" 
			},
			{
				"x": -2.998077494,
				"y": -0.2265866012,
				"z": 1.0226334993,
				"element": "H" 
			},
			{
				"x": -2.0470227954,
				"y": -1.2883825002,
				"z": 2.0193901061,
				"element": "H" 
			}
		],
		 "valence_orbital": [ 
			{
				"type": "occ",
				"energy": -0.30936,
				"method": "rhf"
			},
			{
				"type": "occ",
				"energy": -0.27143,
				"method": "rhf"
			},
			{
				"type": "occ",
				"energy": -0.25329,
				"method": "rhf"
			},
			{
				"type": "occ",
				"energy": -0.24944,
				"method": "rhf"
			},
			{
				"type": "occ",
				"energy": -0.19886,
				"method": "rhf"
			},
			{
				"type": "unocc",
				"energy": -0.03075,
				"method": "rhf"
			},
			{
				"type": "unocc",
				"energy": 0.01496,
				"method": "rhf"
			},
			{
				"type": "unocc",
				"energy": 0.06169,
				"method": "rhf"
			},
			{
				"type": "unocc",
				"energy": 0.08355,
				"method": "rhf"
			},
			{
				"type": "unocc",
				"energy": 0.09998,
				"method": "rhf"
			}
		],
		"cosmo_sigma_profile": { 
			"-0.025": 0.0,
			"-0.024": 0.0,
			"-0.023": 0.0,
			"-0.022": 0.0,
			"-0.021": 0.0,
			"-0.02": 0.0,
			"-0.019": 0.0,
			"-0.018": 0.0,
			"-0.017": 0.0,
			"-0.016": 0.0,
			"-0.015": 0.0,
			"-0.014": 0.753068044674,
			"-0.013": 2.708620003,
			"-0.012": 4.07687005874,
			"-0.011": 3.13389330366,
			"-0.01": 3.82340043914,
			"-0.009": 4.01171294134,
			"-0.008": 3.63267079808,
			"-0.007": 5.3700616546,
			"-0.006": 5.97497640011,
			"-0.005": 9.57881636779,
			"-0.004": 10.1981466888,
			"-0.003": 9.96624654851,
			"-0.002": 7.36352240105,
			"-0.001": 7.50815671376,
			"0.0": 7.23240154669,
			"0.001": 8.83016927682,
			"0.002": 8.66521304894,
			"0.003": 11.8994014807,
			"0.004": 11.8501411516,
			"0.005": 14.0872266765,
			"0.006": 10.1956805921,
			"0.007": 2.85553336475,
			"0.008": 2.87317585392,
			"0.009": 2.85175074583,
			"0.01": 1.70059642411,
			"0.011": 2.31446748374,
			"0.012": 2.83929890737,
			"0.013": 2.10051792401,
			"0.014": 1.89905287664,
			"0.015": 0.175744749075,
			"0.016": 0.0,
			"0.017": 0.0,
			"0.018": 0.0,
			"0.019": 0.0,
			"0.02": 0.0,
			"0.021": 0.0,
			"0.022": 0.0,
			"0.023": 0.0,
			"0.024": 0.0,
			"0.025": 0.0
		}
	}
}
