{
	 "smiles": "FC1=CC(C#N)=C(F)C=C1", 
	 "Tm": 307.15, 
	 "num_atms": 13, 
	 "gaussian": { 
		 "optdone": 1, 
		 "sigma_profile": "yes", 
		 "theory": "DFT", 
		 "functional": "B3LYP", 
		 "basiset": "6-31G**", 
		 "properties": { 
			 "R2extent": 1644.4595, 
			 "electric_dipole_moment_norm": 4.29408523669, 
			 "electric_quadrupole_moment_norm": 8.78237140583, 
			 "total_energy": -522.948252007, 
			 "HOMO_LUMO_gap": 0.19655, 
			 "cosmo_polarized_energy": -8.24, 
			 "cosmo_cavitation_energy": 19.95, 
			 "cosmo_dispersion_energy": -13.87, 
			 "cosmo_repulsion_energy": 1.08, 
			 "cosmo_total_nonelectrostatic_energy": 7.16, 
			 "SMD_solvation_energy": 5.91 
		},
		"coords": [
			{
				"x": -1.0545246097,
				"y": 1.6916087462,
				"z": 2.5662697335,
				"element": "F" 
			},
			{
				"x": -1.0574429252,
				"y": 0.6405623167,
				"z": 1.7264379253,
				"element": "C" 
			},
			{
				"x": 0.1157876789,
				"y": 0.3062547296,
				"z": 1.0670789996,
				"element": "C" 
			},
			{
				"x": 0.1120206143,
				"y": -0.7920071584,
				"z": 0.1897246621,
				"element": "C" 
			},
			{
				"x": 1.2986528718,
				"y": -1.1740012583,
				"z": -0.5122314685,
				"element": "C" 
			},
			{
				"x": 2.2699521178,
				"y": -1.4737723202,
				"z": -1.0764723782,
				"element": "N" 
			},
			{
				"x": -1.0775532544,
				"y": -1.5129582765,
				"z": 0.0103182734,
				"element": "C" 
			},
			{
				"x": -1.0800573158,
				"y": -2.5602166573,
				"z": -0.826678151,
				"element": "F" 
			},
			{
				"x": -2.2454349207,
				"y": -1.1666022758,
				"z": 0.6775564174,
				"element": "C" 
			},
			{
				"x": -2.2380181262,
				"y": -0.076920509,
				"z": 1.5468426709,
				"element": "C" 
			},
			{
				"x": 1.0181141007,
				"y": 0.8838378938,
				"z": 1.2277396589,
				"element": "H" 
			},
			{
				"x": -3.1428428889,
				"y": -1.7510634653,
				"z": 0.5097566042,
				"element": "H" 
			},
			{
				"x": -3.1315533427,
				"y": 0.2210782345,
				"z": 2.0837570523,
				"element": "H" 
			}
		],
		 "valence_orbital": [ 
			{
				"type": "occ",
				"energy": -0.36668,
				"method": "rhf"
			},
			{
				"type": "occ",
				"energy": -0.35528,
				"method": "rhf"
			},
			{
				"type": "occ",
				"energy": -0.34286,
				"method": "rhf"
			},
			{
				"type": "occ",
				"energy": -0.2897,
				"method": "rhf"
			},
			{
				"type": "occ",
				"energy": -0.26616,
				"method": "rhf"
			},
			{
				"type": "unocc",
				"energy": -0.06961,
				"method": "rhf"
			},
			{
				"type": "unocc",
				"energy": -0.02741,
				"method": "rhf"
			},
			{
				"type": "unocc",
				"energy": 0.02233,
				"method": "rhf"
			},
			{
				"type": "unocc",
				"energy": 0.06117,
				"method": "rhf"
			},
			{
				"type": "unocc",
				"energy": 0.06626,
				"method": "rhf"
			}
		],
		"cosmo_sigma_profile": { 
			"-0.025": 0.0,
			"-0.024": 0.0,
			"-0.023": 0.0,
			"-0.022": 0.0,
			"-0.021": 0.0,
			"-0.02": 0.0,
			"-0.019": 0.0,
			"-0.018": 0.0,
			"-0.017": 0.0,
			"-0.016": 0.0,
			"-0.015": 0.0,
			"-0.014": 0.0,
			"-0.013": 0.0,
			"-0.012": 0.0,
			"-0.011": 0.0,
			"-0.01": 1.10879192074,
			"-0.009": 5.44292385259,
			"-0.008": 5.50955492148,
			"-0.007": 6.38407610729,
			"-0.006": 4.96190798001,
			"-0.005": 4.04767139754,
			"-0.004": 6.78451534645,
			"-0.003": 9.61829605233,
			"-0.002": 17.877936278,
			"-0.001": 19.9233321601,
			"0.0": 13.5695829456,
			"0.001": 8.93128060969,
			"0.002": 9.30091588884,
			"0.003": 18.1447502995,
			"0.004": 8.19611842226,
			"0.005": 2.91960630011,
			"0.006": 2.52584532135,
			"0.007": 3.1261453967,
			"0.008": 3.48638283791,
			"0.009": 3.15347984945,
			"0.01": 2.84396613861,
			"0.011": 2.50320996507,
			"0.012": 2.06279478916,
			"0.013": 0.403440868203,
			"0.014": 0.0,
			"0.015": 0.0,
			"0.016": 0.0,
			"0.017": 0.0,
			"0.018": 0.0,
			"0.019": 0.0,
			"0.02": 0.0,
			"0.021": 0.0,
			"0.022": 0.0,
			"0.023": 0.0,
			"0.024": 0.0,
			"0.025": 0.0
		}
	}
}
