{
	 "smiles": "ClC1=CC2=NN=CN2C=N1", 
	 "Tm": 385.15, 
	 "num_atms": 13, 
	 "gaussian": { 
		 "optdone": 1, 
		 "sigma_profile": "yes", 
		 "theory": "DFT", 
		 "functional": "B3LYP", 
		 "basiset": "6-31G**", 
		 "properties": { 
			 "R2extent": 1847.2536, 
			 "electric_dipole_moment_norm": 3.15174775323, 
			 "electric_quadrupole_moment_norm": 15.842543032, 
			 "total_energy": -871.490799644, 
			 "HOMO_LUMO_gap": 0.17026, 
			 "cosmo_polarized_energy": -15.81, 
			 "cosmo_cavitation_energy": 19.93, 
			 "cosmo_dispersion_energy": -15.32, 
			 "cosmo_repulsion_energy": 1.21, 
			 "cosmo_total_nonelectrostatic_energy": 5.83, 
			 "SMD_solvation_energy": 0.83 
		},
		"coords": [
			{
				"x": -2.5530231902,
				"y": -0.6549435938,
				"z": -2.7345128485,
				"element": "Cl" 
			},
			{
				"x": -1.2644684725,
				"y": -0.481366299,
				"z": -1.5686727795,
				"element": "C" 
			},
			{
				"x": -1.1574124817,
				"y": -1.3623426353,
				"z": -0.5259156229,
				"element": "C" 
			},
			{
				"x": -0.0843324512,
				"y": -1.1538303743,
				"z": 0.3773561823,
				"element": "C" 
			},
			{
				"x": 0.3121708142,
				"y": -1.7908049263,
				"z": 1.4653894813,
				"element": "N" 
			},
			{
				"x": 1.4229537542,
				"y": -1.1323460864,
				"z": 1.932760015,
				"element": "N" 
			},
			{
				"x": 1.690121294,
				"y": -0.1199955578,
				"z": 1.1431242895,
				"element": "C" 
			},
			{
				"x": 0.7663557391,
				"y": -0.0674419164,
				"z": 0.1203850725,
				"element": "N" 
			},
			{
				"x": 0.5597419056,
				"y": 0.7524493768,
				"z": -0.9620083382,
				"element": "C" 
			},
			{
				"x": -0.418393555,
				"y": 0.5676683209,
				"z": -1.7909544502,
				"element": "N" 
			},
			{
				"x": -1.8435407077,
				"y": -2.1849221461,
				"z": -0.3753510263,
				"element": "H" 
			},
			{
				"x": 2.5031228412,
				"y": 0.5817138017,
				"z": 1.2530374707,
				"element": "H" 
			},
			{
				"x": 1.2554045101,
				"y": 1.574862036,
				"z": -1.1023374454,
				"element": "H" 
			}
		],
		 "valence_orbital": [ 
			{
				"type": "occ",
				"energy": -0.32888,
				"method": "rhf"
			},
			{
				"type": "occ",
				"energy": -0.31578,
				"method": "rhf"
			},
			{
				"type": "occ",
				"energy": -0.315,
				"method": "rhf"
			},
			{
				"type": "occ",
				"energy": -0.27398,
				"method": "rhf"
			},
			{
				"type": "occ",
				"energy": -0.2496,
				"method": "rhf"
			},
			{
				"type": "unocc",
				"energy": -0.07934,
				"method": "rhf"
			},
			{
				"type": "unocc",
				"energy": -0.03918,
				"method": "rhf"
			},
			{
				"type": "unocc",
				"energy": 0.01684,
				"method": "rhf"
			},
			{
				"type": "unocc",
				"energy": 0.02499,
				"method": "rhf"
			},
			{
				"type": "unocc",
				"energy": 0.0862,
				"method": "rhf"
			}
		],
		"cosmo_sigma_profile": { 
			"-0.025": 0.0,
			"-0.024": 0.0,
			"-0.023": 0.0,
			"-0.022": 0.0,
			"-0.021": 0.0,
			"-0.02": 0.0,
			"-0.019": 0.0,
			"-0.018": 0.0,
			"-0.017": 0.0,
			"-0.016": 0.0,
			"-0.015": 0.0,
			"-0.014": 0.451702902983,
			"-0.013": 2.02860903872,
			"-0.012": 4.00690504514,
			"-0.011": 5.01598872085,
			"-0.01": 3.97225131232,
			"-0.009": 4.64200673994,
			"-0.008": 3.9874835148,
			"-0.007": 5.78093614126,
			"-0.006": 8.51344334888,
			"-0.005": 7.09427013143,
			"-0.004": 6.1212372802,
			"-0.003": 8.21623681285,
			"-0.002": 11.6515613011,
			"-0.001": 12.7620887856,
			"0.0": 7.01664281583,
			"0.001": 8.45526192677,
			"0.002": 7.65362705232,
			"0.003": 11.9405135225,
			"0.004": 8.70172503494,
			"0.005": 3.57029584293,
			"0.006": 3.09314465549,
			"0.007": 4.01805340206,
			"0.008": 3.19003651172,
			"0.009": 2.57206813516,
			"0.01": 3.21650297438,
			"0.011": 3.97854476229,
			"0.012": 4.33405980959,
			"0.013": 2.91113527718,
			"0.014": 2.48725514447,
			"0.015": 2.27440369583,
			"0.016": 1.00905016299,
			"0.017": 0.0233387634726,
			"0.018": 0.0,
			"0.019": 0.0,
			"0.02": 0.0,
			"0.021": 0.0,
			"0.022": 0.0,
			"0.023": 0.0,
			"0.024": 0.0,
			"0.025": 0.0
		}
	}
}
