{
	 "smiles": "CC(=O)C1=CC=C(C=C1)S(=O)(=O)CC(F)F", 
	 "Tm": 371.15, 
	 "num_atms": 26, 
	 "gaussian": { 
		 "optdone": 1, 
		 "sigma_profile": "yes", 
		 "theory": "DFT", 
		 "functional": "B3LYP", 
		 "basiset": "6-31G**", 
		 "properties": { 
			 "R2extent": 5830.8892, 
			 "electric_dipole_moment_norm": 3.45436978912, 
			 "electric_quadrupole_moment_norm": 17.9918253515, 
			 "total_energy": -1210.55956795, 
			 "HOMO_LUMO_gap": 0.1808, 
			 "cosmo_polarized_energy": -17.54, 
			 "cosmo_cavitation_energy": 32.47, 
			 "cosmo_dispersion_energy": -23.28, 
			 "cosmo_repulsion_energy": 1.73, 
			 "cosmo_total_nonelectrostatic_energy": 10.92, 
			 "SMD_solvation_energy": 6.25 
		},
		"coords": [
			{
				"x": -3.1480314477,
				"y": 2.7100914978,
				"z": -2.4494841114,
				"element": "C" 
			},
			{
				"x": -3.4896177331,
				"y": 1.9139243392,
				"z": -1.2038614922,
				"element": "C" 
			},
			{
				"x": -4.4518238764,
				"y": 2.2088188642,
				"z": -0.5142726659,
				"element": "O" 
			},
			{
				"x": -2.6191168261,
				"y": 0.744071836,
				"z": -0.8247238217,
				"element": "C" 
			},
			{
				"x": -1.4998357189,
				"y": 0.3588617161,
				"z": -1.5769097293,
				"element": "C" 
			},
			{
				"x": -0.7270948166,
				"y": -0.7331425534,
				"z": -1.1841679832,
				"element": "C" 
			},
			{
				"x": -1.0831594215,
				"y": -1.4303079169,
				"z": -0.0291949881,
				"element": "C" 
			},
			{
				"x": -2.1996094659,
				"y": -1.0721557648,
				"z": 0.7307288942,
				"element": "C" 
			},
			{
				"x": -2.9622916475,
				"y": 0.0177650948,
				"z": 0.3263640928,
				"element": "C" 
			},
			{
				"x": -0.0953825959,
				"y": -2.8559713415,
				"z": 0.4560052226,
				"element": "S" 
			},
			{
				"x": -0.9371308686,
				"y": -3.7443868331,
				"z": 1.2735693291,
				"element": "O" 
			},
			{
				"x": 0.6017780959,
				"y": -3.3411236058,
				"z": -0.7435869536,
				"element": "O" 
			},
			{
				"x": 1.2083257626,
				"y": -2.2038848032,
				"z": 1.5591681283,
				"element": "C" 
			},
			{
				"x": 0.7396224029,
				"y": -1.9492432171,
				"z": 2.9790591051,
				"element": "C" 
			},
			{
				"x": 1.8206948052,
				"y": -1.5858990817,
				"z": 3.7294052142,
				"element": "F" 
			},
			{
				"x": -0.1498606694,
				"y": -0.9093499834,
				"z": 2.9953950701,
				"element": "F" 
			},
			{
				"x": -2.1433325828,
				"y": 3.1413125231,
				"z": -2.3777884647,
				"element": "H" 
			},
			{
				"x": -3.8783421485,
				"y": 3.5114988877,
				"z": -2.5620852498,
				"element": "H" 
			},
			{
				"x": -3.1676790433,
				"y": 2.0727935829,
				"z": -3.3405562874,
				"element": "H" 
			},
			{
				"x": -1.2277177824,
				"y": 0.9004991674,
				"z": -2.4764177229,
				"element": "H" 
			},
			{
				"x": 0.1247378048,
				"y": -1.0580665575,
				"z": -1.7716260037,
				"element": "H" 
			},
			{
				"x": -2.4635778925,
				"y": -1.6462589352,
				"z": 1.6109980328,
				"element": "H" 
			},
			{
				"x": -3.8376276351,
				"y": 0.3282273578,
				"z": 0.8863726642,
				"element": "H" 
			},
			{
				"x": 1.9735982544,
				"y": -2.9845393879,
				"z": 1.5508082748,
				"element": "H" 
			},
			{
				"x": 1.618787326,
				"y": -1.2920130391,
				"z": 1.1195464314,
				"element": "H" 
			},
			{
				"x": 0.2621877204,
				"y": -2.8207218466,
				"z": 3.4357550143,
				"element": "H" 
			}
		],
		 "valence_orbital": [ 
			{
				"type": "occ",
				"energy": -0.31406,
				"method": "rhf"
			},
			{
				"type": "occ",
				"energy": -0.30283,
				"method": "rhf"
			},
			{
				"type": "occ",
				"energy": -0.28759,
				"method": "rhf"
			},
			{
				"type": "occ",
				"energy": -0.28361,
				"method": "rhf"
			},
			{
				"type": "occ",
				"energy": -0.26546,
				"method": "rhf"
			},
			{
				"type": "unocc",
				"energy": -0.08466,
				"method": "rhf"
			},
			{
				"type": "unocc",
				"energy": -0.03427,
				"method": "rhf"
			},
			{
				"type": "unocc",
				"energy": 0.00063,
				"method": "rhf"
			},
			{
				"type": "unocc",
				"energy": 0.04268,
				"method": "rhf"
			},
			{
				"type": "unocc",
				"energy": 0.06232,
				"method": "rhf"
			}
		],
		"cosmo_sigma_profile": { 
			"-0.025": 0.0,
			"-0.024": 0.0,
			"-0.023": 0.0,
			"-0.022": 0.0,
			"-0.021": 0.0,
			"-0.02": 0.0,
			"-0.019": 0.0,
			"-0.018": 0.0,
			"-0.017": 0.0,
			"-0.016": 0.0,
			"-0.015": 0.0,
			"-0.014": 0.0,
			"-0.013": 0.0,
			"-0.012": 0.0,
			"-0.011": 0.94833944959,
			"-0.01": 4.61167861187,
			"-0.009": 6.86325044933,
			"-0.008": 8.2471792336,
			"-0.007": 15.2723243351,
			"-0.006": 17.5567090263,
			"-0.005": 14.0630434185,
			"-0.004": 14.2857402972,
			"-0.003": 13.493555722,
			"-0.002": 15.1134668316,
			"-0.001": 16.7450101684,
			"0.0": 16.771077934,
			"0.001": 20.7070495589,
			"0.002": 11.9495457975,
			"0.003": 12.7527625492,
			"0.004": 19.8028725324,
			"0.005": 5.31108668338,
			"0.006": 2.85558173367,
			"0.007": 4.8727673802,
			"0.008": 4.69271562034,
			"0.009": 6.30543920632,
			"0.01": 9.42525521306,
			"0.011": 11.5934884876,
			"0.012": 4.22549993694,
			"0.013": 0.446064688927,
			"0.014": 0.0,
			"0.015": 0.0,
			"0.016": 0.0,
			"0.017": 0.0,
			"0.018": 0.0,
			"0.019": 0.0,
			"0.02": 0.0,
			"0.021": 0.0,
			"0.022": 0.0,
			"0.023": 0.0,
			"0.024": 0.0,
			"0.025": 0.0
		}
	}
}
