{
	 "smiles": "CN1CCC(=O)NC2=C1C=CC(Cl)=C2", 
	 "Tm": 412.15, 
	 "num_atms": 25, 
	 "gaussian": { 
		 "optdone": 1, 
		 "sigma_profile": "yes", 
		 "theory": "DFT", 
		 "functional": "B3LYP", 
		 "basiset": "6-31G**", 
		 "properties": { 
			 "R2extent": 4053.8009, 
			 "electric_dipole_moment_norm": 4.2388428763, 
			 "electric_quadrupole_moment_norm": 11.7736901361, 
			 "total_energy": -1032.61907969, 
			 "HOMO_LUMO_gap": 0.17986, 
			 "cosmo_polarized_energy": -12.8, 
			 "cosmo_cavitation_energy": 29.22, 
			 "cosmo_dispersion_energy": -21.86, 
			 "cosmo_repulsion_energy": 1.7, 
			 "cosmo_total_nonelectrostatic_energy": 9.06, 
			 "SMD_solvation_energy": 4.33 
		},
		"coords": [
			{
				"x": 0.3740339085,
				"y": 2.5442112419,
				"z": 1.3201019326,
				"element": "C" 
			},
			{
				"x": -0.3905094259,
				"y": 1.3184622701,
				"z": 1.1536695453,
				"element": "N" 
			},
			{
				"x": -1.406002698,
				"y": 1.0591568198,
				"z": 2.1792318522,
				"element": "C" 
			},
			{
				"x": -1.1968556087,
				"y": -0.288645239,
				"z": 2.8580615527,
				"element": "C" 
			},
			{
				"x": -1.3508418005,
				"y": -1.5174116378,
				"z": 1.985198793,
				"element": "C" 
			},
			{
				"x": -1.4816904687,
				"y": -2.6268088763,
				"z": 2.486427847,
				"element": "O" 
			},
			{
				"x": -1.3723079855,
				"y": -1.4152177288,
				"z": 0.6036150498,
				"element": "N" 
			},
			{
				"x": -1.1991742643,
				"y": -0.4159593621,
				"z": -0.3783488065,
				"element": "C" 
			},
			{
				"x": -0.6951646307,
				"y": 0.8914503474,
				"z": -0.146765247,
				"element": "C" 
			},
			{
				"x": -0.4934039462,
				"y": 1.7216698864,
				"z": -1.2632971032,
				"element": "C" 
			},
			{
				"x": -0.7661523682,
				"y": 1.3116220934,
				"z": -2.5660364857,
				"element": "C" 
			},
			{
				"x": -1.2828429696,
				"y": 0.0371426982,
				"z": -2.7664122858,
				"element": "C" 
			},
			{
				"x": -1.6604214783,
				"y": -0.5174861606,
				"z": -4.3918538072,
				"element": "Cl" 
			},
			{
				"x": -1.5021838314,
				"y": -0.8130859246,
				"z": -1.6894465148,
				"element": "C" 
			},
			{
				"x": 0.7150305633,
				"y": 2.6088895814,
				"z": 2.3568151704,
				"element": "H" 
			},
			{
				"x": 1.2602841311,
				"y": 2.5212040979,
				"z": 0.6805326099,
				"element": "H" 
			},
			{
				"x": -0.19501965,
				"y": 3.4614759935,
				"z": 1.0912843078,
				"element": "H" 
			},
			{
				"x": -2.4154683752,
				"y": 1.1247880475,
				"z": 1.7497496773,
				"element": "H" 
			},
			{
				"x": -1.3405016425,
				"y": 1.846854626,
				"z": 2.9350820182,
				"element": "H" 
			},
			{
				"x": -0.1926644371,
				"y": -0.3257187398,
				"z": 3.2955636594,
				"element": "H" 
			},
			{
				"x": -1.9032150365,
				"y": -0.4245465383,
				"z": 3.6840981326,
				"element": "H" 
			},
			{
				"x": -1.5310708018,
				"y": -2.3395861044,
				"z": 0.2187440557,
				"element": "H" 
			},
			{
				"x": -0.1169263777,
				"y": 2.7257443978,
				"z": -1.1109913927,
				"element": "H" 
			},
			{
				"x": -0.5946566152,
				"y": 1.9783728475,
				"z": -3.4030200885,
				"element": "H" 
			},
			{
				"x": -1.8935741908,
				"y": -1.8099786373,
				"z": -1.8660044722,
				"element": "H" 
			}
		],
		 "valence_orbital": [ 
			{
				"type": "occ",
				"energy": -0.30524,
				"method": "rhf"
			},
			{
				"type": "occ",
				"energy": -0.27809,
				"method": "rhf"
			},
			{
				"type": "occ",
				"energy": -0.25582,
				"method": "rhf"
			},
			{
				"type": "occ",
				"energy": -0.23778,
				"method": "rhf"
			},
			{
				"type": "occ",
				"energy": -0.20125,
				"method": "rhf"
			},
			{
				"type": "unocc",
				"energy": -0.02139,
				"method": "rhf"
			},
			{
				"type": "unocc",
				"energy": -0.00858,
				"method": "rhf"
			},
			{
				"type": "unocc",
				"energy": 0.02862,
				"method": "rhf"
			},
			{
				"type": "unocc",
				"energy": 0.03332,
				"method": "rhf"
			},
			{
				"type": "unocc",
				"energy": 0.07936,
				"method": "rhf"
			}
		],
		"cosmo_sigma_profile": { 
			"-0.025": 0.0,
			"-0.024": 0.0,
			"-0.023": 0.0,
			"-0.022": 0.0,
			"-0.021": 0.0,
			"-0.02": 0.0,
			"-0.019": 0.0,
			"-0.018": 0.0,
			"-0.017": 0.0,
			"-0.016": 0.0,
			"-0.015": 0.0358861354085,
			"-0.014": 0.969562142624,
			"-0.013": 1.12260900182,
			"-0.012": 1.44369407015,
			"-0.011": 0.915669687229,
			"-0.01": 1.09827556401,
			"-0.009": 1.47655365331,
			"-0.008": 1.48691779926,
			"-0.007": 3.03604694026,
			"-0.006": 10.6502720086,
			"-0.005": 20.4647555414,
			"-0.004": 23.2562173348,
			"-0.003": 20.4136419287,
			"-0.002": 20.1203101401,
			"-0.001": 14.5391268134,
			"0.0": 10.4758473561,
			"0.001": 12.4235822975,
			"0.002": 16.4591823966,
			"0.003": 17.844228303,
			"0.004": 18.707136203,
			"0.005": 15.2161819986,
			"0.006": 2.40391480065,
			"0.007": 2.19043535891,
			"0.008": 1.57625517824,
			"0.009": 1.08278929152,
			"0.01": 0.831305968671,
			"0.011": 1.85284072966,
			"0.012": 2.2170347156,
			"0.013": 4.5956710118,
			"0.014": 4.31227019367,
			"0.015": 0.517169611357,
			"0.016": 0.0,
			"0.017": 0.0,
			"0.018": 0.0,
			"0.019": 0.0,
			"0.02": 0.0,
			"0.021": 0.0,
			"0.022": 0.0,
			"0.023": 0.0,
			"0.024": 0.0,
			"0.025": 0.0
		}
	}
}
