{
	 "smiles": "FC(F)(F)OC1=C(C=CC=C1)C1NC(=O)NC1=O", 
	 "Tm": 430.15, 
	 "num_atms": 25, 
	 "gaussian": { 
		 "optdone": 1, 
		 "sigma_profile": "yes", 
		 "theory": "DFT", 
		 "functional": "B3LYP", 
		 "basiset": "6-31G**", 
		 "properties": { 
			 "R2extent": 4785.9459, 
			 "electric_dipole_moment_norm": 2.85335338505, 
			 "electric_quadrupole_moment_norm": 11.7205747103, 
			 "total_energy": -1020.01619227, 
			 "HOMO_LUMO_gap": 0.227, 
			 "cosmo_polarized_energy": -16.92, 
			 "cosmo_cavitation_energy": 31.44, 
			 "cosmo_dispersion_energy": -22.07, 
			 "cosmo_repulsion_energy": 1.65, 
			 "cosmo_total_nonelectrostatic_energy": 11.02, 
			 "SMD_solvation_energy": 8.07 
		},
		"coords": [
			{
				"x": -2.6527837666,
				"y": -0.8759970033,
				"z": 3.206711249,
				"element": "F" 
			},
			{
				"x": -2.4359904468,
				"y": 0.1682842427,
				"z": 2.37076369,
				"element": "C" 
			},
			{
				"x": -3.20334308,
				"y": -0.0196397134,
				"z": 1.2935809787,
				"element": "F" 
			},
			{
				"x": -2.8143657291,
				"y": 1.2786160488,
				"z": 3.0009426108,
				"element": "F" 
			},
			{
				"x": -1.1165900652,
				"y": 0.3025730952,
				"z": 2.06465383,
				"element": "O" 
			},
			{
				"x": -0.527855028,
				"y": -0.553986602,
				"z": 1.127613613,
				"element": "C" 
			},
			{
				"x": 0.3086789756,
				"y": 0.0519730714,
				"z": 0.1824109619,
				"element": "C" 
			},
			{
				"x": 0.9744766192,
				"y": -0.769684386,
				"z": -0.731614292,
				"element": "C" 
			},
			{
				"x": 0.8066464016,
				"y": -2.1540983413,
				"z": -0.7044166858,
				"element": "C" 
			},
			{
				"x": -0.0298683766,
				"y": -2.7343083805,
				"z": 0.2490290314,
				"element": "C" 
			},
			{
				"x": -0.6955910917,
				"y": -1.9358409429,
				"z": 1.1793746222,
				"element": "C" 
			},
			{
				"x": 0.4507856551,
				"y": 1.5633385742,
				"z": 0.152919122,
				"element": "C" 
			},
			{
				"x": 1.6444487596,
				"y": 2.0514694077,
				"z": -0.5200250157,
				"element": "N" 
			},
			{
				"x": 1.3785516459,
				"y": 3.0170136891,
				"z": -1.4666373729,
				"element": "C" 
			},
			{
				"x": 2.1661954768,
				"y": 3.6856478708,
				"z": -2.0995637194,
				"element": "O" 
			},
			{
				"x": -0.0265821426,
				"y": 3.0697134521,
				"z": -1.5640723165,
				"element": "N" 
			},
			{
				"x": -0.6759604172,
				"y": 2.24360231,
				"z": -0.6708386509,
				"element": "C" 
			},
			{
				"x": -1.8684049088,
				"y": 2.083749822,
				"z": -0.5472042561,
				"element": "O" 
			},
			{
				"x": 1.6285984527,
				"y": -0.309512522,
				"z": -1.4650965489,
				"element": "H" 
			},
			{
				"x": 1.3296779383,
				"y": -2.7758297918,
				"z": -1.4242259425,
				"element": "H" 
			},
			{
				"x": -0.1619303184,
				"y": -3.8114078125,
				"z": 0.2802443032,
				"element": "H" 
			},
			{
				"x": -1.3328742747,
				"y": -2.3746262686,
				"z": 1.9368662817,
				"element": "H" 
			},
			{
				"x": 0.3707164837,
				"y": 1.9545650981,
				"z": 1.1748354594,
				"element": "H" 
			},
			{
				"x": 2.5654765981,
				"y": 2.0130376043,
				"z": -0.1100715368,
				"element": "H" 
			},
			{
				"x": -0.4971133609,
				"y": 3.6531474779,
				"z": -2.2411794159,
				"element": "H" 
			}
		],
		 "valence_orbital": [ 
			{
				"type": "occ",
				"energy": -0.29648,
				"method": "rhf"
			},
			{
				"type": "occ",
				"energy": -0.28375,
				"method": "rhf"
			},
			{
				"type": "occ",
				"energy": -0.27341,
				"method": "rhf"
			},
			{
				"type": "occ",
				"energy": -0.26561,
				"method": "rhf"
			},
			{
				"type": "occ",
				"energy": -0.25614,
				"method": "rhf"
			},
			{
				"type": "unocc",
				"energy": -0.02914,
				"method": "rhf"
			},
			{
				"type": "unocc",
				"energy": -0.0225,
				"method": "rhf"
			},
			{
				"type": "unocc",
				"energy": -0.01039,
				"method": "rhf"
			},
			{
				"type": "unocc",
				"energy": 0.05077,
				"method": "rhf"
			},
			{
				"type": "unocc",
				"energy": 0.07238,
				"method": "rhf"
			}
		],
		"cosmo_sigma_profile": { 
			"-0.025": 0.0,
			"-0.024": 0.0,
			"-0.023": 0.0,
			"-0.022": 0.0,
			"-0.021": 0.0,
			"-0.02": 0.0,
			"-0.019": 0.0,
			"-0.018": 0.0,
			"-0.017": 0.638354891835,
			"-0.016": 1.87300735401,
			"-0.015": 2.53266199301,
			"-0.014": 2.36728985493,
			"-0.013": 1.85362709581,
			"-0.012": 1.3410086303,
			"-0.011": 2.00579879018,
			"-0.01": 1.51131653108,
			"-0.009": 2.81557298415,
			"-0.008": 5.17129650712,
			"-0.007": 6.6050162029,
			"-0.006": 12.4424626337,
			"-0.005": 12.4596682749,
			"-0.004": 12.9279161796,
			"-0.003": 13.3041379149,
			"-0.002": 15.2368976197,
			"-0.001": 12.7853639436,
			"0.0": 14.1859160702,
			"0.001": 23.8563642991,
			"0.002": 36.6564897398,
			"0.003": 18.7617407672,
			"0.004": 11.0764316832,
			"0.005": 4.16357819725,
			"0.006": 3.63077949363,
			"0.007": 3.62882592489,
			"0.008": 3.45515354229,
			"0.009": 4.21574142184,
			"0.01": 3.8003278843,
			"0.011": 4.86327556284,
			"0.012": 7.54506363317,
			"0.013": 4.41620853152,
			"0.014": 0.112190690107,
			"0.015": 0.0,
			"0.016": 0.0,
			"0.017": 0.0,
			"0.018": 0.0,
			"0.019": 0.0,
			"0.02": 0.0,
			"0.021": 0.0,
			"0.022": 0.0,
			"0.023": 0.0,
			"0.024": 0.0,
			"0.025": 0.0
		}
	}
}
