{
	 "smiles": "CC(=O)NCCCCC(N)C(O)=O", 
	 "Tm": 523.15, 
	 "num_atms": 29, 
	 "gaussian": { 
		 "optdone": 1, 
		 "sigma_profile": "yes", 
		 "theory": "DFT", 
		 "functional": "B3LYP", 
		 "basiset": "6-31G**", 
		 "properties": { 
			 "R2extent": 4906.2767, 
			 "electric_dipole_moment_norm": 2.66970434318, 
			 "electric_quadrupole_moment_norm": 18.2348419382, 
			 "total_energy": -649.705907831, 
			 "HOMO_LUMO_gap": 0.23933, 
			 "cosmo_polarized_energy": -20.74, 
			 "cosmo_cavitation_energy": 32.42, 
			 "cosmo_dispersion_energy": -22.38, 
			 "cosmo_repulsion_energy": 1.86, 
			 "cosmo_total_nonelectrostatic_energy": 11.9, 
			 "SMD_solvation_energy": 5.35 
		},
		"coords": [
			{
				"x": 1.3807927627,
				"y": -1.8824719911,
				"z": -5.3532953904,
				"element": "C" 
			},
			{
				"x": 1.2756209001,
				"y": -2.0600022416,
				"z": -3.8449254841,
				"element": "C" 
			},
			{
				"x": 2.0689371854,
				"y": -2.7527939745,
				"z": -3.2185263286,
				"element": "O" 
			},
			{
				"x": 0.2317886207,
				"y": -1.4065811126,
				"z": -3.2471329801,
				"element": "N" 
			},
			{
				"x": 0.037893085,
				"y": -1.420468933,
				"z": -1.8040002374,
				"element": "C" 
			},
			{
				"x": 0.6945270515,
				"y": -0.2309735838,
				"z": -1.0879970569,
				"element": "C" 
			},
			{
				"x": 0.4400608802,
				"y": -0.2620305521,
				"z": 0.4261308597,
				"element": "C" 
			},
			{
				"x": 1.1905813918,
				"y": 0.7920291649,
				"z": 1.2570984466,
				"element": "C" 
			},
			{
				"x": 0.7569146848,
				"y": 2.2565018331,
				"z": 1.0538720133,
				"element": "C" 
			},
			{
				"x": 1.2593990411,
				"y": 3.0682398266,
				"z": 2.1731222449,
				"element": "N" 
			},
			{
				"x": 1.1916924329,
				"y": 2.8405665759,
				"z": -0.289296546,
				"element": "C" 
			},
			{
				"x": 2.5432249419,
				"y": 2.8279472472,
				"z": -0.4335136245,
				"element": "O" 
			},
			{
				"x": 0.4587143839,
				"y": 3.3200743266,
				"z": -1.1287285027,
				"element": "O" 
			},
			{
				"x": 2.3415936612,
				"y": -1.4151079069,
				"z": -5.5870926459,
				"element": "H" 
			},
			{
				"x": 1.3781373104,
				"y": -2.8700649022,
				"z": -5.8218680204,
				"element": "H" 
			},
			{
				"x": 0.5776815325,
				"y": -1.2802322862,
				"z": -5.7876484724,
				"element": "H" 
			},
			{
				"x": -0.3333690308,
				"y": -0.7821729092,
				"z": -3.8022462981,
				"element": "H" 
			},
			{
				"x": -1.0393859358,
				"y": -1.4401973844,
				"z": -1.5981051533,
				"element": "H" 
			},
			{
				"x": 0.4673992503,
				"y": -2.3579795208,
				"z": -1.4414176204,
				"element": "H" 
			},
			{
				"x": 0.3111610279,
				"y": 0.7000294415,
				"z": -1.5213616807,
				"element": "H" 
			},
			{
				"x": 1.7726845129,
				"y": -0.2603126443,
				"z": -1.2878577302,
				"element": "H" 
			},
			{
				"x": 0.7287456478,
				"y": -1.2500829139,
				"z": 0.8081226413,
				"element": "H" 
			},
			{
				"x": -0.6385787675,
				"y": -0.1689824357,
				"z": 0.6174406732,
				"element": "H" 
			},
			{
				"x": 1.0317874417,
				"y": 0.5863549631,
				"z": 2.321113526,
				"element": "H" 
			},
			{
				"x": 2.2699555745,
				"y": 0.710300964,
				"z": 1.0770556348,
				"element": "H" 
			},
			{
				"x": -0.3361823583,
				"y": 2.3174347103,
				"z": 1.0609156904,
				"element": "H" 
			},
			{
				"x": 0.935810068,
				"y": 4.0290353314,
				"z": 2.0839883936,
				"element": "H" 
			},
			{
				"x": 2.2764345453,
				"y": 3.0989636076,
				"z": 2.1389336261,
				"element": "H" 
			},
			{
				"x": 2.7289781579,
				"y": 3.2527773004,
				"z": -1.2875799777,
				"element": "H" 
			}
		],
		 "valence_orbital": [ 
			{
				"type": "occ",
				"energy": -0.31739,
				"method": "rhf"
			},
			{
				"type": "occ",
				"energy": -0.29234,
				"method": "rhf"
			},
			{
				"type": "occ",
				"energy": -0.24658,
				"method": "rhf"
			},
			{
				"type": "occ",
				"energy": -0.24299,
				"method": "rhf"
			},
			{
				"type": "occ",
				"energy": -0.23926,
				"method": "rhf"
			},
			{
				"type": "unocc",
				"energy": 7e-05,
				"method": "rhf"
			},
			{
				"type": "unocc",
				"energy": 0.03596,
				"method": "rhf"
			},
			{
				"type": "unocc",
				"energy": 0.06274,
				"method": "rhf"
			},
			{
				"type": "unocc",
				"energy": 0.07427,
				"method": "rhf"
			},
			{
				"type": "unocc",
				"energy": 0.09541,
				"method": "rhf"
			}
		],
		"cosmo_sigma_profile": { 
			"-0.025": 0.0,
			"-0.024": 0.0,
			"-0.023": 0.0,
			"-0.022": 0.0,
			"-0.021": 0.0,
			"-0.02": 0.0,
			"-0.019": 0.0,
			"-0.018": 0.607893177157,
			"-0.017": 0.919577359278,
			"-0.016": 0.732941904946,
			"-0.015": 1.09187292592,
			"-0.014": 1.1405348197,
			"-0.013": 1.64899836804,
			"-0.012": 2.13826902978,
			"-0.011": 3.29240076354,
			"-0.01": 4.65152869221,
			"-0.009": 3.74407975309,
			"-0.008": 5.3085959907,
			"-0.007": 5.79387053856,
			"-0.006": 4.96491146296,
			"-0.005": 11.8502043866,
			"-0.004": 14.3758243796,
			"-0.003": 26.9903086565,
			"-0.002": 27.8035043292,
			"-0.001": 27.3840797842,
			"0.0": 19.6551953019,
			"0.001": 10.9441928623,
			"0.002": 9.79653054104,
			"0.003": 6.54715430775,
			"0.004": 6.34749078692,
			"0.005": 5.16000777422,
			"0.006": 3.52664367319,
			"0.007": 5.51695803589,
			"0.008": 3.95563987333,
			"0.009": 4.05631301364,
			"0.01": 3.35773978284,
			"0.011": 5.08467020493,
			"0.012": 7.2891814006,
			"0.013": 3.89360678526,
			"0.014": 5.00776597476,
			"0.015": 4.5437113411,
			"0.016": 0.945567036548,
			"0.017": 0.564691099891,
			"0.018": 0.4002472782,
			"0.019": 0.0178998185502,
			"0.02": 0.0,
			"0.021": 0.0,
			"0.022": 0.0,
			"0.023": 0.0,
			"0.024": 0.0,
			"0.025": 0.0
		}
	}
}
