{
	 "smiles": "O=C1C=CC2=C(C=CC=C2)C1=O", 
	 "Tm": 411.15, 
	 "num_atms": 18, 
	 "gaussian": { 
		 "optdone": 1, 
		 "sigma_profile": "yes", 
		 "theory": "DFT", 
		 "functional": "B3LYP", 
		 "basiset": "6-31G**", 
		 "properties": { 
			 "R2extent": 2067.0851, 
			 "electric_dipole_moment_norm": 6.02970851783, 
			 "electric_quadrupole_moment_norm": 16.5998651422, 
			 "total_energy": -535.102892916, 
			 "HOMO_LUMO_gap": 0.12616, 
			 "cosmo_polarized_energy": -13.3, 
			 "cosmo_cavitation_energy": 22.97, 
			 "cosmo_dispersion_energy": -16.99, 
			 "cosmo_repulsion_energy": 1.32, 
			 "cosmo_total_nonelectrostatic_energy": 7.3, 
			 "SMD_solvation_energy": 5.08 
		},
		"coords": [
			{
				"x": 0.5406125275,
				"y": 3.6024054218,
				"z": -1.1676850497,
				"element": "O" 
			},
			{
				"x": 0.4013865077,
				"y": 2.4389273706,
				"z": -0.8312453219,
				"element": "C" 
			},
			{
				"x": 0.9177139332,
				"y": 1.3088578322,
				"z": -1.6165201693,
				"element": "C" 
			},
			{
				"x": 0.7436909431,
				"y": 0.0334049998,
				"z": -1.2111594348,
				"element": "C" 
			},
			{
				"x": 0.0419252485,
				"y": -0.3331313082,
				"z": 0.0175733919,
				"element": "C" 
			},
			{
				"x": -0.4990258899,
				"y": 0.6706934571,
				"z": 0.8555855021,
				"element": "C" 
			},
			{
				"x": -1.1696234254,
				"y": 0.3198340978,
				"z": 2.0296251188,
				"element": "C" 
			},
			{
				"x": -1.3113656731,
				"y": -1.0218032534,
				"z": 2.3852280396,
				"element": "C" 
			},
			{
				"x": -0.7796259915,
				"y": -2.01788273,
				"z": 1.5623704124,
				"element": "C" 
			},
			{
				"x": -0.1079918229,
				"y": -1.6761468074,
				"z": 0.3873376421,
				"element": "C" 
			},
			{
				"x": -0.3548631412,
				"y": 2.1056938481,
				"z": 0.4881381885,
				"element": "C" 
			},
			{
				"x": -0.7995562066,
				"y": 3.0107234206,
				"z": 1.1701012033,
				"element": "O" 
			},
			{
				"x": 1.4429915404,
				"y": 1.5553495509,
				"z": -2.533975061,
				"element": "H" 
			},
			{
				"x": 1.1370476641,
				"y": -0.7832435104,
				"z": -1.8131138122,
				"element": "H" 
			},
			{
				"x": -1.5714772827,
				"y": 1.1162134052,
				"z": 2.6478794722,
				"element": "H" 
			},
			{
				"x": -1.8331898648,
				"y": -1.2907487634,
				"z": 3.2984638346,
				"element": "H" 
			},
			{
				"x": -0.8876980865,
				"y": -3.0634211406,
				"z": 1.8354488246,
				"element": "H" 
			},
			{
				"x": 0.30414902,
				"y": -2.4539258907,
				"z": -0.2499527809,
				"element": "H" 
			}
		],
		 "valence_orbital": [ 
			{
				"type": "occ",
				"energy": -0.32479,
				"method": "rhf"
			},
			{
				"type": "occ",
				"energy": -0.292,
				"method": "rhf"
			},
			{
				"type": "occ",
				"energy": -0.27687,
				"method": "rhf"
			},
			{
				"type": "occ",
				"energy": -0.25337,
				"method": "rhf"
			},
			{
				"type": "occ",
				"energy": -0.24353,
				"method": "rhf"
			},
			{
				"type": "unocc",
				"energy": -0.11737,
				"method": "rhf"
			},
			{
				"type": "unocc",
				"energy": -0.04846,
				"method": "rhf"
			},
			{
				"type": "unocc",
				"energy": -0.0119,
				"method": "rhf"
			},
			{
				"type": "unocc",
				"energy": 0.02295,
				"method": "rhf"
			},
			{
				"type": "unocc",
				"energy": 0.0789,
				"method": "rhf"
			}
		],
		"cosmo_sigma_profile": { 
			"-0.025": 0.0,
			"-0.024": 0.0,
			"-0.023": 0.0,
			"-0.022": 0.0,
			"-0.021": 0.0,
			"-0.02": 0.0,
			"-0.019": 0.0,
			"-0.018": 0.0,
			"-0.017": 0.0,
			"-0.016": 0.0,
			"-0.015": 0.0,
			"-0.014": 0.0,
			"-0.013": 0.0,
			"-0.012": 0.0,
			"-0.011": 0.0,
			"-0.01": 0.0,
			"-0.009": 1.14150697403,
			"-0.008": 5.15065307437,
			"-0.007": 12.9071614292,
			"-0.006": 14.3120964503,
			"-0.005": 13.6672596093,
			"-0.004": 10.765993047,
			"-0.003": 10.8174635111,
			"-0.002": 11.0038399392,
			"-0.001": 13.5389934628,
			"0.0": 15.9134622553,
			"0.001": 16.7421486203,
			"0.002": 16.3776195726,
			"0.003": 6.14887295544,
			"0.004": 2.96558653646,
			"0.005": 1.5694936432,
			"0.006": 2.68170178454,
			"0.007": 2.81995123182,
			"0.008": 3.37913735478,
			"0.009": 4.81111869499,
			"0.01": 5.91803319008,
			"0.011": 6.62553961392,
			"0.012": 3.2515317704,
			"0.013": 1.63823493456,
			"0.014": 1.29006614849,
			"0.015": 0.241071918894,
			"0.016": 0.0,
			"0.017": 0.0,
			"0.018": 0.0,
			"0.019": 0.0,
			"0.02": 0.0,
			"0.021": 0.0,
			"0.022": 0.0,
			"0.023": 0.0,
			"0.024": 0.0,
			"0.025": 0.0
		}
	}
}
