{
	 "smiles": "O=CC1=CC=CC2=NSN=C12", 
	 "Tm": 373.15, 
	 "num_atms": 15, 
	 "gaussian": { 
		 "optdone": 1, 
		 "sigma_profile": "yes", 
		 "theory": "DFT", 
		 "functional": "B3LYP", 
		 "basiset": "6-31G**", 
		 "properties": { 
			 "R2extent": 3492.9235, 
			 "electric_dipole_moment_norm": 4.06968499641, 
			 "electric_quadrupole_moment_norm": 10.1407233514, 
			 "total_energy": -852.028635626, 
			 "HOMO_LUMO_gap": 0.1486, 
			 "cosmo_polarized_energy": -12.65, 
			 "cosmo_cavitation_energy": 21.78, 
			 "cosmo_dispersion_energy": -16.91, 
			 "cosmo_repulsion_energy": 1.28, 
			 "cosmo_total_nonelectrostatic_energy": 6.15, 
			 "SMD_solvation_energy": 1.67 
		},
		"coords": [
			{
				"x": -2.3894437348,
				"y": -1.9696013052,
				"z": -2.5983652841,
				"element": "O" 
			},
			{
				"x": -1.3993742783,
				"y": -1.6546909248,
				"z": -1.9730268953,
				"element": "C" 
			},
			{
				"x": -1.3739401883,
				"y": -0.8715529653,
				"z": -0.7161922869,
				"element": "C" 
			},
			{
				"x": -0.1523182178,
				"y": -0.60089841,
				"z": -0.1334474353,
				"element": "C" 
			},
			{
				"x": -0.0167659255,
				"y": 0.1437079082,
				"z": 1.0749060536,
				"element": "C" 
			},
			{
				"x": -1.1158181405,
				"y": 0.6375442437,
				"z": 1.7307701412,
				"element": "C" 
			},
			{
				"x": -2.4043785676,
				"y": 0.3887303327,
				"z": 1.1748460147,
				"element": "C" 
			},
			{
				"x": -3.5675601251,
				"y": 0.8018245538,
				"z": 1.6938066712,
				"element": "N" 
			},
			{
				"x": -4.7361305883,
				"y": 0.2561849831,
				"z": 0.6771540737,
				"element": "S" 
			},
			{
				"x": -3.8194399271,
				"y": -0.5153292612,
				"z": -0.4451998931,
				"element": "N" 
			},
			{
				"x": -2.5483977741,
				"y": -0.3696302606,
				"z": -0.0565572135,
				"element": "C" 
			},
			{
				"x": -0.3822565949,
				"y": -1.9495583644,
				"z": -2.3204592381,
				"element": "H" 
			},
			{
				"x": 0.7467860191,
				"y": -0.9731873401,
				"z": -0.6193126221,
				"element": "H" 
			},
			{
				"x": 0.9771470519,
				"y": 0.3176497415,
				"z": 1.474985675,
				"element": "H" 
			},
			{
				"x": -1.0336090087,
				"y": 1.2060070687,
				"z": 2.650692239,
				"element": "H" 
			}
		],
		 "valence_orbital": [ 
			{
				"type": "occ",
				"energy": -0.33701,
				"method": "rhf"
			},
			{
				"type": "occ",
				"energy": -0.30769,
				"method": "rhf"
			},
			{
				"type": "occ",
				"energy": -0.27811,
				"method": "rhf"
			},
			{
				"type": "occ",
				"energy": -0.25856,
				"method": "rhf"
			},
			{
				"type": "occ",
				"energy": -0.25455,
				"method": "rhf"
			},
			{
				"type": "unocc",
				"energy": -0.10595,
				"method": "rhf"
			},
			{
				"type": "unocc",
				"energy": -0.04654,
				"method": "rhf"
			},
			{
				"type": "unocc",
				"energy": -0.00605,
				"method": "rhf"
			},
			{
				"type": "unocc",
				"energy": 0.00528,
				"method": "rhf"
			},
			{
				"type": "unocc",
				"energy": 0.03756,
				"method": "rhf"
			}
		],
		"cosmo_sigma_profile": { 
			"-0.025": 0.0,
			"-0.024": 0.0,
			"-0.023": 0.0,
			"-0.022": 0.0,
			"-0.021": 0.0,
			"-0.02": 0.0,
			"-0.019": 0.0,
			"-0.018": 0.0,
			"-0.017": 0.0,
			"-0.016": 0.0,
			"-0.015": 0.0,
			"-0.014": 0.0,
			"-0.013": 0.0,
			"-0.012": 0.0,
			"-0.011": 0.0,
			"-0.01": 0.017654709656,
			"-0.009": 2.24140757843,
			"-0.008": 6.88809128281,
			"-0.007": 9.53242861407,
			"-0.006": 8.59461571663,
			"-0.005": 9.44708802861,
			"-0.004": 12.2626132461,
			"-0.003": 14.9975757132,
			"-0.002": 20.6729320909,
			"-0.001": 20.2737082847,
			"0.0": 15.4170137236,
			"0.001": 10.113585256,
			"0.002": 5.79975644431,
			"0.003": 3.73688417341,
			"0.004": 3.69179199488,
			"0.005": 2.32463244271,
			"0.006": 3.34252561169,
			"0.007": 2.91410388109,
			"0.008": 3.41029796501,
			"0.009": 4.06883807304,
			"0.01": 3.83165591926,
			"0.011": 5.08361795097,
			"0.012": 4.60499767861,
			"0.013": 2.68776387545,
			"0.014": 1.38225591826,
			"0.015": 1.03250627949,
			"0.016": 0.812378723488,
			"0.017": 0.0511498026048,
			"0.018": 0.0,
			"0.019": 0.0,
			"0.02": 0.0,
			"0.021": 0.0,
			"0.022": 0.0,
			"0.023": 0.0,
			"0.024": 0.0,
			"0.025": 0.0
		}
	}
}
