{
	 "smiles": "ClCC1=CC(=O)N2N=CSC2=N1", 
	 "Tm": 458.15, 
	 "num_atms": 16, 
	 "gaussian": { 
		 "optdone": 1, 
		 "sigma_profile": "yes", 
		 "theory": "DFT", 
		 "functional": "B3LYP", 
		 "basiset": "6-31G**", 
		 "properties": { 
			 "R2extent": 3655.3467, 
			 "electric_dipole_moment_norm": 3.5438498769, 
			 "electric_quadrupole_moment_norm": 22.6839802793, 
			 "total_energy": -1328.87386825, 
			 "HOMO_LUMO_gap": 0.16926, 
			 "cosmo_polarized_energy": -16.37, 
			 "cosmo_cavitation_energy": 24.81, 
			 "cosmo_dispersion_energy": -19.07, 
			 "cosmo_repulsion_energy": 1.48, 
			 "cosmo_total_nonelectrostatic_energy": 7.21, 
			 "SMD_solvation_energy": 2.67 
		},
		"coords": [
			{
				"x": -3.7327057413,
				"y": -0.3614456871,
				"z": 2.9105246573,
				"element": "Cl" 
			},
			{
				"x": -2.2444824075,
				"y": 0.6092479339,
				"z": 2.5084389251,
				"element": "C" 
			},
			{
				"x": -1.4365227873,
				"y": -0.0522835758,
				"z": 1.4282567902,
				"element": "C" 
			},
			{
				"x": -1.4634277906,
				"y": 0.4104076464,
				"z": 0.1391637603,
				"element": "C" 
			},
			{
				"x": -0.6965431961,
				"y": -0.2032421209,
				"z": -0.9245109577,
				"element": "C" 
			},
			{
				"x": -0.6327781059,
				"y": 0.1141187748,
				"z": -2.0930953801,
				"element": "O" 
			},
			{
				"x": 0.0572864227,
				"y": -1.3338452236,
				"z": -0.4143150169,
				"element": "N" 
			},
			{
				"x": 0.8561115864,
				"y": -2.0728363951,
				"z": -1.2440846353,
				"element": "N" 
			},
			{
				"x": 1.4268582109,
				"y": -3.0136069602,
				"z": -0.5754163158,
				"element": "C" 
			},
			{
				"x": 1.0570910707,
				"y": -3.1062507219,
				"z": 1.1401070544,
				"element": "S" 
			},
			{
				"x": 0.0078971945,
				"y": -1.7060229787,
				"z": 0.9134801132,
				"element": "C" 
			},
			{
				"x": -0.6851009581,
				"y": -1.1267244669,
				"z": 1.8420070801,
				"element": "N" 
			},
			{
				"x": -2.5891766581,
				"y": 1.5974802375,
				"z": 2.2072157425,
				"element": "H" 
			},
			{
				"x": -1.6670821458,
				"y": 0.6719211505,
				"z": 3.4307789194,
				"element": "H" 
			},
			{
				"x": -2.071682874,
				"y": 1.2605638856,
				"z": -0.1449102818,
				"element": "H" 
			},
			{
				"x": 2.1031581794,
				"y": -3.7166814986,
				"z": -1.0448404548,
				"element": "H" 
			}
		],
		 "valence_orbital": [ 
			{
				"type": "occ",
				"energy": -0.30467,
				"method": "rhf"
			},
			{
				"type": "occ",
				"energy": -0.29995,
				"method": "rhf"
			},
			{
				"type": "occ",
				"energy": -0.29789,
				"method": "rhf"
			},
			{
				"type": "occ",
				"energy": -0.27558,
				"method": "rhf"
			},
			{
				"type": "occ",
				"energy": -0.24595,
				"method": "rhf"
			},
			{
				"type": "unocc",
				"energy": -0.07669,
				"method": "rhf"
			},
			{
				"type": "unocc",
				"energy": -0.03575,
				"method": "rhf"
			},
			{
				"type": "unocc",
				"energy": -0.03015,
				"method": "rhf"
			},
			{
				"type": "unocc",
				"energy": -0.02404,
				"method": "rhf"
			},
			{
				"type": "unocc",
				"energy": 0.03138,
				"method": "rhf"
			}
		],
		"cosmo_sigma_profile": { 
			"-0.025": 0.0,
			"-0.024": 0.0,
			"-0.023": 0.0,
			"-0.022": 0.0,
			"-0.021": 0.0,
			"-0.02": 0.0,
			"-0.019": 0.0,
			"-0.018": 0.0,
			"-0.017": 0.0,
			"-0.016": 0.0,
			"-0.015": 0.0,
			"-0.014": 0.000420847578291,
			"-0.013": 1.73851871281,
			"-0.012": 2.99833461722,
			"-0.011": 1.90170767045,
			"-0.01": 2.08892529955,
			"-0.009": 5.32125371509,
			"-0.008": 7.65099267249,
			"-0.007": 9.46786213442,
			"-0.006": 10.6725349991,
			"-0.005": 10.6296274218,
			"-0.004": 12.0120718095,
			"-0.003": 13.2603253223,
			"-0.002": 13.9312366907,
			"-0.001": 14.4971953054,
			"0.0": 14.9503239834,
			"0.001": 8.95271847782,
			"0.002": 7.08106270023,
			"0.003": 7.82394732495,
			"0.004": 7.56045170581,
			"0.005": 8.53316481798,
			"0.006": 12.5607087084,
			"0.007": 5.14779957614,
			"0.008": 4.05322058135,
			"0.009": 2.30484205947,
			"0.01": 3.16836619145,
			"0.011": 4.00402927716,
			"0.012": 7.24668097318,
			"0.013": 3.57132222867,
			"0.014": 1.49353141854,
			"0.015": 0.489669621049,
			"0.016": 0.0,
			"0.017": 0.0,
			"0.018": 0.0,
			"0.019": 0.0,
			"0.02": 0.0,
			"0.021": 0.0,
			"0.022": 0.0,
			"0.023": 0.0,
			"0.024": 0.0,
			"0.025": 0.0
		}
	}
}
