{
	 "smiles": "N=C1SC(=NN1C1=CC=NC=C1)C(=O)C1=CC=CS1", 
	 "Tm": 404.15, 
	 "num_atms": 27, 
	 "gaussian": { 
		 "optdone": 1, 
		 "sigma_profile": "yes", 
		 "theory": "DFT", 
		 "functional": "B3LYP", 
		 "basiset": "6-31G**", 
		 "properties": { 
			 "R2extent": 6963.3342, 
			 "electric_dipole_moment_norm": 3.86132336512, 
			 "electric_quadrupole_moment_norm": 18.8112432075, 
			 "total_energy": -1552.63696802, 
			 "HOMO_LUMO_gap": 0.13416, 
			 "cosmo_polarized_energy": -15.07, 
			 "cosmo_cavitation_energy": 35.97, 
			 "cosmo_dispersion_energy": -26.67, 
			 "cosmo_repulsion_energy": 1.93, 
			 "cosmo_total_nonelectrostatic_energy": 11.23, 
			 "SMD_solvation_energy": 3.76 
		},
		"coords": [
			{
				"x": 4.4260868111,
				"y": 0.4962292839,
				"z": 0.536498262,
				"element": "N" 
			},
			{
				"x": 3.3118632981,
				"y": -0.1055988785,
				"z": 0.4799990188,
				"element": "C" 
			},
			{
				"x": 3.165784611,
				"y": -1.8760668919,
				"z": 0.7005755964,
				"element": "S" 
			},
			{
				"x": 1.4155437952,
				"y": -1.6992169381,
				"z": 0.6245403431,
				"element": "C" 
			},
			{
				"x": 0.9738711533,
				"y": -0.5030735532,
				"z": 0.4218964584,
				"element": "N" 
			},
			{
				"x": 1.988282821,
				"y": 0.3921097074,
				"z": 0.2865128175,
				"element": "N" 
			},
			{
				"x": 1.6487440249,
				"y": 1.7503843274,
				"z": 0.0634705027,
				"element": "C" 
			},
			{
				"x": 0.5077561288,
				"y": 2.2965876892,
				"z": 0.6602881145,
				"element": "C" 
			},
			{
				"x": 0.2089655823,
				"y": 3.632408692,
				"z": 0.403378717,
				"element": "C" 
			},
			{
				"x": 0.9500464838,
				"y": 4.4356741608,
				"z": -0.3722524068,
				"element": "N" 
			},
			{
				"x": 2.031315096,
				"y": 3.8917768208,
				"z": -0.9407188848,
				"element": "C" 
			},
			{
				"x": 2.4255357545,
				"y": 2.5639584869,
				"z": -0.7687263331,
				"element": "C" 
			},
			{
				"x": 0.5615608152,
				"y": -2.9070377006,
				"z": 0.7755872292,
				"element": "C" 
			},
			{
				"x": 1.1300099669,
				"y": -3.9796783296,
				"z": 0.9673973462,
				"element": "O" 
			},
			{
				"x": -0.9037532205,
				"y": -2.8207301043,
				"z": 0.6987328547,
				"element": "C" 
			},
			{
				"x": -1.718073092,
				"y": -3.926010435,
				"z": 0.8627425681,
				"element": "C" 
			},
			{
				"x": -3.0977813996,
				"y": -3.6321142381,
				"z": 0.7472354706,
				"element": "C" 
			},
			{
				"x": -3.3252732724,
				"y": -2.3013520179,
				"z": 0.4937101148,
				"element": "C" 
			},
			{
				"x": -1.8654325711,
				"y": -1.3875868294,
				"z": 0.392016992,
				"element": "S" 
			},
			{
				"x": 4.3411057696,
				"y": 1.5066773729,
				"z": 0.4435701149,
				"element": "H" 
			},
			{
				"x": -0.1234536114,
				"y": 1.6913846966,
				"z": 1.2995389101,
				"element": "H" 
			},
			{
				"x": -0.6731973422,
				"y": 4.0823214326,
				"z": 0.8546373534,
				"element": "H" 
			},
			{
				"x": 2.617775062,
				"y": 4.5453265159,
				"z": -1.5836134537,
				"element": "H" 
			},
			{
				"x": 3.2848790378,
				"y": 2.1743931831,
				"z": -1.3017585978,
				"element": "H" 
			},
			{
				"x": -1.3016149222,
				"y": -4.9063014893,
				"z": 1.0591682756,
				"element": "H" 
			},
			{
				"x": -3.8869519304,
				"y": -4.3680567164,
				"z": 0.8454681857,
				"element": "H" 
			},
			{
				"x": -4.2774948499,
				"y": -1.805208247,
				"z": 0.3588044305,
				"element": "H" 
			}
		],
		 "valence_orbital": [ 
			{
				"type": "occ",
				"energy": -0.27815,
				"method": "rhf"
			},
			{
				"type": "occ",
				"energy": -0.27115,
				"method": "rhf"
			},
			{
				"type": "occ",
				"energy": -0.2701,
				"method": "rhf"
			},
			{
				"type": "occ",
				"energy": -0.25702,
				"method": "rhf"
			},
			{
				"type": "occ",
				"energy": -0.23192,
				"method": "rhf"
			},
			{
				"type": "unocc",
				"energy": -0.09776,
				"method": "rhf"
			},
			{
				"type": "unocc",
				"energy": -0.04831,
				"method": "rhf"
			},
			{
				"type": "unocc",
				"energy": -0.0325,
				"method": "rhf"
			},
			{
				"type": "unocc",
				"energy": -0.02927,
				"method": "rhf"
			},
			{
				"type": "unocc",
				"energy": 0.00212,
				"method": "rhf"
			}
		],
		"cosmo_sigma_profile": { 
			"-0.025": 0.0,
			"-0.024": 0.0,
			"-0.023": 0.0,
			"-0.022": 0.0,
			"-0.021": 0.0,
			"-0.02": 0.0,
			"-0.019": 0.0,
			"-0.018": 0.0,
			"-0.017": 0.0,
			"-0.016": 0.0,
			"-0.015": 0.0,
			"-0.014": 0.0,
			"-0.013": 0.0,
			"-0.012": 0.0,
			"-0.011": 0.591685470952,
			"-0.01": 2.17222081752,
			"-0.009": 4.86468687108,
			"-0.008": 6.57354766015,
			"-0.007": 13.8544533713,
			"-0.006": 16.9292670455,
			"-0.005": 16.5139855943,
			"-0.004": 18.2923735798,
			"-0.003": 18.9297464936,
			"-0.002": 16.1719323764,
			"-0.001": 18.6319590661,
			"0.0": 26.5423825126,
			"0.001": 33.1945840046,
			"0.002": 29.5415364844,
			"0.003": 21.9136684279,
			"0.004": 9.45810418136,
			"0.005": 4.78416444312,
			"0.006": 3.98330267401,
			"0.007": 4.8006045462,
			"0.008": 3.70224340434,
			"0.009": 3.97654095552,
			"0.01": 4.83581871008,
			"0.011": 6.51679417337,
			"0.012": 1.89473523346,
			"0.013": 1.87166145784,
			"0.014": 1.68011377579,
			"0.015": 2.36975359738,
			"0.016": 0.934690245199,
			"0.017": 0.0264768302826,
			"0.018": 0.0,
			"0.019": 0.0,
			"0.02": 0.0,
			"0.021": 0.0,
			"0.022": 0.0,
			"0.023": 0.0,
			"0.024": 0.0,
			"0.025": 0.0
		}
	}
}
