{
	 "smiles": "BrCC(=O)C1=CC2=C(OCCCO2)C=C1", 
	 "Tm": 352.15, 
	 "num_atms": 26, 
	 "gaussian": { 
		 "optdone": 1, 
		 "sigma_profile": "yes", 
		 "theory": "DFT", 
		 "functional": "B3LYP", 
		 "basiset": "6-31G**", 
		 "properties": { 
			 "R2extent": 5823.1202, 
			 "electric_dipole_moment_norm": 4.97824880254, 
			 "electric_quadrupole_moment_norm": 5.18686791619, 
			 "total_energy": -3222.85247156, 
			 "HOMO_LUMO_gap": 0.15894, 
			 "cosmo_polarized_energy": -11.24, 
			 "cosmo_cavitation_energy": 31.27, 
			 "cosmo_dispersion_energy": -23.46, 
			 "cosmo_repulsion_energy": 1.85, 
			 "cosmo_total_nonelectrostatic_energy": 9.66, 
			 "SMD_solvation_energy": 4.83 
		},
		"coords": [
			{
				"x": 1.659706076,
				"y": 3.4700644224,
				"z": 0.1777231805,
				"element": "Br" 
			},
			{
				"x": 1.5826662365,
				"y": 2.8660387908,
				"z": -1.7081588242,
				"element": "C" 
			},
			{
				"x": 1.7289482087,
				"y": 1.3488828386,
				"z": -1.8103589691,
				"element": "C" 
			},
			{
				"x": 2.7871978145,
				"y": 0.8984550828,
				"z": -2.2242977306,
				"element": "O" 
			},
			{
				"x": 0.5831671322,
				"y": 0.4692427558,
				"z": -1.459716755,
				"element": "C" 
			},
			{
				"x": -0.6358585141,
				"y": 0.9594491553,
				"z": -0.9697476791,
				"element": "C" 
			},
			{
				"x": -1.694533202,
				"y": 0.1016956775,
				"z": -0.6793189354,
				"element": "C" 
			},
			{
				"x": -1.5442697163,
				"y": -1.2859573927,
				"z": -0.9012350026,
				"element": "C" 
			},
			{
				"x": -2.5265492372,
				"y": -2.2089956546,
				"z": -0.6727797696,
				"element": "O" 
			},
			{
				"x": -3.8834216443,
				"y": -1.7975128261,
				"z": -0.9130366502,
				"element": "C" 
			},
			{
				"x": -4.489645976,
				"y": -1.0824949374,
				"z": 0.2935818468,
				"element": "C" 
			},
			{
				"x": -3.5122339379,
				"y": -0.0468115218,
				"z": 0.8555334704,
				"element": "C" 
			},
			{
				"x": -2.8475473462,
				"y": 0.674151165,
				"z": -0.1931800614,
				"element": "O" 
			},
			{
				"x": -0.3145917166,
				"y": -1.7768307587,
				"z": -1.3611270109,
				"element": "C" 
			},
			{
				"x": 0.73709671,
				"y": -0.9167081748,
				"z": -1.6346839161,
				"element": "C" 
			},
			{
				"x": 0.6384998669,
				"y": 3.2385887285,
				"z": -2.1041734471,
				"element": "H" 
			},
			{
				"x": 2.429664886,
				"y": 3.3306068679,
				"z": -2.2062601391,
				"element": "H" 
			},
			{
				"x": -0.7878677872,
				"y": 2.0123380989,
				"z": -0.7618362206,
				"element": "H" 
			},
			{
				"x": -3.9130290645,
				"y": -1.1527289129,
				"z": -1.7980135767,
				"element": "H" 
			},
			{
				"x": -4.4285968896,
				"y": -2.7168338301,
				"z": -1.1416799429,
				"element": "H" 
			},
			{
				"x": -4.7407948652,
				"y": -1.7985904451,
				"z": 1.0845392611,
				"element": "H" 
			},
			{
				"x": -5.4236890219,
				"y": -0.6041749716,
				"z": -0.0240000881,
				"element": "H" 
			},
			{
				"x": -4.034161476,
				"y": 0.7066397416,
				"z": 1.4515827035,
				"element": "H" 
			},
			{
				"x": -2.7640485216,
				"y": -0.5278716429,
				"z": 1.4957903369,
				"element": "H" 
			},
			{
				"x": -0.2255252125,
				"y": -2.8474827652,
				"z": -1.513644096,
				"element": "H" 
			},
			{
				"x": 1.6847171983,
				"y": -1.2906594912,
				"z": -2.0054019846,
				"element": "H" 
			}
		],
		 "valence_orbital": [ 
			{
				"type": "occ",
				"energy": -0.28874,
				"method": "rhf"
			},
			{
				"type": "occ",
				"energy": -0.27911,
				"method": "rhf"
			},
			{
				"type": "occ",
				"energy": -0.25253,
				"method": "rhf"
			},
			{
				"type": "occ",
				"energy": -0.24997,
				"method": "rhf"
			},
			{
				"type": "occ",
				"energy": -0.22575,
				"method": "rhf"
			},
			{
				"type": "unocc",
				"energy": -0.06681,
				"method": "rhf"
			},
			{
				"type": "unocc",
				"energy": -0.00974,
				"method": "rhf"
			},
			{
				"type": "unocc",
				"energy": -0.00283,
				"method": "rhf"
			},
			{
				"type": "unocc",
				"energy": 0.05304,
				"method": "rhf"
			},
			{
				"type": "unocc",
				"energy": 0.06811,
				"method": "rhf"
			}
		],
		"cosmo_sigma_profile": { 
			"-0.025": 0.0,
			"-0.024": 0.0,
			"-0.023": 0.0,
			"-0.022": 0.0,
			"-0.021": 0.0,
			"-0.02": 0.0,
			"-0.019": 0.0,
			"-0.018": 0.0,
			"-0.017": 0.0,
			"-0.016": 0.0,
			"-0.015": 0.0,
			"-0.014": 0.0,
			"-0.013": 0.0,
			"-0.012": 0.0,
			"-0.011": 0.0,
			"-0.01": 0.136071354723,
			"-0.009": 2.57421482616,
			"-0.008": 4.1581818247,
			"-0.007": 5.78482426373,
			"-0.006": 11.95331752,
			"-0.005": 24.161206219,
			"-0.004": 26.0148397987,
			"-0.003": 20.2539151677,
			"-0.002": 14.8953022413,
			"-0.001": 13.5842541656,
			"0.0": 12.6555171534,
			"0.001": 16.8662425044,
			"0.002": 22.5571006077,
			"0.003": 18.6882072905,
			"0.004": 15.8566546487,
			"0.005": 12.9501189366,
			"0.006": 5.17558734102,
			"0.007": 3.85470878766,
			"0.008": 3.70442199836,
			"0.009": 3.81921429465,
			"0.01": 4.911180162,
			"0.011": 4.63977220829,
			"0.012": 2.23842665973,
			"0.013": 0.103760441352,
			"0.014": 0.0,
			"0.015": 0.0,
			"0.016": 0.0,
			"0.017": 0.0,
			"0.018": 0.0,
			"0.019": 0.0,
			"0.02": 0.0,
			"0.021": 0.0,
			"0.022": 0.0,
			"0.023": 0.0,
			"0.024": 0.0,
			"0.025": 0.0
		}
	}
}
