{
	 "smiles": "CC(C)(C)OC(=O)NC1=CC(O)=C(C=C1)C(O)=O", 
	 "Tm": 432.15, 
	 "num_atms": 33, 
	 "gaussian": { 
		 "optdone": 1, 
		 "sigma_profile": "yes", 
		 "theory": "DFT", 
		 "functional": "B3LYP", 
		 "basiset": "6-31G**", 
		 "properties": { 
			 "R2extent": 7735.9518, 
			 "electric_dipole_moment_norm": 7.14903207225, 
			 "electric_quadrupole_moment_norm": 38.4706574631, 
			 "total_energy": -897.241204294, 
			 "HOMO_LUMO_gap": 0.18903, 
			 "cosmo_polarized_energy": -22.7, 
			 "cosmo_cavitation_energy": 36.54, 
			 "cosmo_dispersion_energy": -25.85, 
			 "cosmo_repulsion_energy": 1.97, 
			 "cosmo_total_nonelectrostatic_energy": 12.66, 
			 "SMD_solvation_energy": 8.74 
		},
		"coords": [
			{
				"x": -1.7180300668,
				"y": 2.431641063,
				"z": -1.0177098166,
				"element": "C" 
			},
			{
				"x": -1.4451030302,
				"y": 0.9267718731,
				"z": -1.0895590792,
				"element": "C" 
			},
			{
				"x": -1.550984426,
				"y": 0.3764568334,
				"z": -2.5144074294,
				"element": "C" 
			},
			{
				"x": -2.3680207259,
				"y": 0.1599435019,
				"z": -0.1396289268,
				"element": "C" 
			},
			{
				"x": -0.1017275322,
				"y": 0.632705834,
				"z": -0.535480257,
				"element": "O" 
			},
			{
				"x": 0.999375085,
				"y": 1.1431000908,
				"z": -1.1120815402,
				"element": "C" 
			},
			{
				"x": 1.0390468338,
				"y": 1.8613829185,
				"z": -2.0952264057,
				"element": "O" 
			},
			{
				"x": 2.1691113472,
				"y": 0.7715271305,
				"z": -0.4673238085,
				"element": "N" 
			},
			{
				"x": 2.4662227176,
				"y": -0.0163495774,
				"z": 0.6517509715,
				"element": "C" 
			},
			{
				"x": 1.5094455386,
				"y": -0.6690455279,
				"z": 1.4387959463,
				"element": "C" 
			},
			{
				"x": 1.9160448606,
				"y": -1.4306382518,
				"z": 2.5344289099,
				"element": "C" 
			},
			{
				"x": 0.9735574577,
				"y": -2.0708235112,
				"z": 3.3058249124,
				"element": "O" 
			},
			{
				"x": 3.2691413179,
				"y": -1.5729849054,
				"z": 2.8878880021,
				"element": "C" 
			},
			{
				"x": 4.2055156046,
				"y": -0.9078040394,
				"z": 2.08123389,
				"element": "C" 
			},
			{
				"x": 3.8284549004,
				"y": -0.1468177177,
				"z": 0.9897953427,
				"element": "C" 
			},
			{
				"x": 3.8075625496,
				"y": -2.3668147795,
				"z": 4.0431074352,
				"element": "C" 
			},
			{
				"x": 2.9273076115,
				"y": -3.0158804709,
				"z": 4.8329902359,
				"element": "O" 
			},
			{
				"x": 4.9968581628,
				"y": -2.4322787085,
				"z": 4.2720054905,
				"element": "O" 
			},
			{
				"x": -1.0522207371,
				"y": 2.9838362608,
				"z": -1.6808009298,
				"element": "H" 
			},
			{
				"x": -2.7533791005,
				"y": 2.6271580752,
				"z": -1.3144743912,
				"element": "H" 
			},
			{
				"x": -1.5842463356,
				"y": 2.7954472731,
				"z": 0.0058530793,
				"element": "H" 
			},
			{
				"x": -2.5796123182,
				"y": 0.4894079746,
				"z": -2.8713621895,
				"element": "H" 
			},
			{
				"x": -1.3012040904,
				"y": -0.6890265144,
				"z": -2.5317303252,
				"element": "H" 
			},
			{
				"x": -0.8835014929,
				"y": 0.9087951767,
				"z": -3.1918781953,
				"element": "H" 
			},
			{
				"x": -3.4101399252,
				"y": 0.2956362162,
				"z": -0.4423789768,
				"element": "H" 
			},
			{
				"x": -2.1429252511,
				"y": -0.9107936945,
				"z": -0.1594725787,
				"element": "H" 
			},
			{
				"x": -2.2597557716,
				"y": 0.5251951924,
				"z": 0.8862427394,
				"element": "H" 
			},
			{
				"x": 2.9665673524,
				"y": 1.1787851336,
				"z": -0.9362780173,
				"element": "H" 
			},
			{
				"x": 0.4583973474,
				"y": -0.5833652833,
				"z": 1.1985288033,
				"element": "H" 
			},
			{
				"x": 0.086080558,
				"y": -1.8997417361,
				"z": 2.966453586,
				"element": "H" 
			},
			{
				"x": 5.2503840926,
				"y": -1.0153477676,
				"z": 2.3508972698,
				"element": "H" 
			},
			{
				"x": 4.5824768127,
				"y": 0.3536567335,
				"z": 0.3887034086,
				"element": "H" 
			},
			{
				"x": 2.0176006533,
				"y": -2.8667347959,
				"z": 4.5213928444,
				"element": "H" 
			}
		],
		 "valence_orbital": [ 
			{
				"type": "occ",
				"energy": -0.29205,
				"method": "rhf"
			},
			{
				"type": "occ",
				"energy": -0.28775,
				"method": "rhf"
			},
			{
				"type": "occ",
				"energy": -0.25911,
				"method": "rhf"
			},
			{
				"type": "occ",
				"energy": -0.25656,
				"method": "rhf"
			},
			{
				"type": "occ",
				"energy": -0.23265,
				"method": "rhf"
			},
			{
				"type": "unocc",
				"energy": -0.04362,
				"method": "rhf"
			},
			{
				"type": "unocc",
				"energy": -0.01054,
				"method": "rhf"
			},
			{
				"type": "unocc",
				"energy": 0.03138,
				"method": "rhf"
			},
			{
				"type": "unocc",
				"energy": 0.03581,
				"method": "rhf"
			},
			{
				"type": "unocc",
				"energy": 0.06354,
				"method": "rhf"
			}
		],
		"cosmo_sigma_profile": { 
			"-0.025": 0.0,
			"-0.024": 0.0,
			"-0.023": 0.0,
			"-0.022": 0.0,
			"-0.021": 0.0,
			"-0.02": 0.0356527074648,
			"-0.019": 0.741178595167,
			"-0.018": 0.941703323055,
			"-0.017": 1.32437015985,
			"-0.016": 1.33821912211,
			"-0.015": 1.72425877187,
			"-0.014": 1.7904217807,
			"-0.013": 2.42844956613,
			"-0.012": 1.86530349407,
			"-0.011": 2.37105634803,
			"-0.01": 1.16286869289,
			"-0.009": 2.62807743327,
			"-0.008": 3.16029218696,
			"-0.007": 4.17743756256,
			"-0.006": 4.57360206422,
			"-0.005": 8.28041281083,
			"-0.004": 20.589970313,
			"-0.003": 24.12667108,
			"-0.002": 26.101287518,
			"-0.001": 29.3689407788,
			"0.0": 34.7362076238,
			"0.001": 25.8976573503,
			"0.002": 19.2545551917,
			"0.003": 15.9175386971,
			"0.004": 8.32358141766,
			"0.005": 2.82299228218,
			"0.006": 4.06777137213,
			"0.007": 4.14560402353,
			"0.008": 2.839125792,
			"0.009": 4.64392667387,
			"0.01": 4.94211289957,
			"0.011": 5.99987519667,
			"0.012": 9.31460820779,
			"0.013": 5.77191197363,
			"0.014": 1.33863578808,
			"0.015": 0.002697168205,
			"0.016": 0.0,
			"0.017": 0.0,
			"0.018": 0.0,
			"0.019": 0.0,
			"0.02": 0.0,
			"0.021": 0.0,
			"0.022": 0.0,
			"0.023": 0.0,
			"0.024": 0.0,
			"0.025": 0.0
		}
	}
}
