{
	 "smiles": "OC(=O)C1=C(Br)C=C(Br)C(=C1)S(Cl)(=O)=O", 
	 "Tm": 459.15, 
	 "num_atms": 18, 
	 "gaussian": { 
		 "optdone": 1, 
		 "sigma_profile": "yes", 
		 "theory": "DFT", 
		 "functional": "B3LYP", 
		 "basiset": "6-31G**", 
		 "properties": { 
			 "R2extent": 9045.2172, 
			 "electric_dipole_moment_norm": 6.42869575108, 
			 "electric_quadrupole_moment_norm": 16.8506153692, 
			 "total_energy": -6570.55268136, 
			 "HOMO_LUMO_gap": 0.18332, 
			 "cosmo_polarized_energy": -15.57, 
			 "cosmo_cavitation_energy": 30.9, 
			 "cosmo_dispersion_energy": -23.88, 
			 "cosmo_repulsion_energy": 1.8, 
			 "cosmo_total_nonelectrostatic_energy": 8.82, 
			 "SMD_solvation_energy": 3.22 
		},
		"coords": [
			{
				"x": 1.1482813877,
				"y": -0.1059064545,
				"z": 3.7359609194,
				"element": "O" 
			},
			{
				"x": 0.4408578137,
				"y": 0.956433036,
				"z": 3.3310731265,
				"element": "C" 
			},
			{
				"x": 0.2742580294,
				"y": 1.8964427041,
				"z": 4.0730474969,
				"element": "O" 
			},
			{
				"x": -0.1562402703,
				"y": 0.9821422502,
				"z": 1.9279834228,
				"element": "C" 
			},
			{
				"x": -0.1116875554,
				"y": 0.0228685741,
				"z": 0.9033591592,
				"element": "C" 
			},
			{
				"x": 0.7830730832,
				"y": -1.6683649172,
				"z": 1.0592924689,
				"element": "Br" 
			},
			{
				"x": -0.7315003134,
				"y": 0.2321304062,
				"z": -0.3289310532,
				"element": "C" 
			},
			{
				"x": -1.4189343567,
				"y": 1.4153062168,
				"z": -0.5882674802,
				"element": "C" 
			},
			{
				"x": -2.2395274809,
				"y": 1.5895749036,
				"z": -2.2815864134,
				"element": "Br" 
			},
			{
				"x": -1.4737505786,
				"y": 2.3901928648,
				"z": 0.4196593377,
				"element": "C" 
			},
			{
				"x": -0.8571260107,
				"y": 2.1648494649,
				"z": 1.6440334001,
				"element": "C" 
			},
			{
				"x": -2.2688596283,
				"y": 4.001188545,
				"z": 0.2339895588,
				"element": "S" 
			},
			{
				"x": -4.31364574,
				"y": 3.4497235198,
				"z": 0.227024708,
				"element": "Cl" 
			},
			{
				"x": -2.0509276573,
				"y": 4.7510370334,
				"z": 1.4621199103,
				"element": "O" 
			},
			{
				"x": -1.9655074801,
				"y": 4.5599876479,
				"z": -1.074036195,
				"element": "O" 
			},
			{
				"x": 1.2114214955,
				"y": -0.794906372,
				"z": 3.0520716107,
				"element": "H" 
			},
			{
				"x": -0.6815418728,
				"y": -0.5300776897,
				"z": -1.0956223654,
				"element": "H" 
			},
			{
				"x": -0.902642865,
				"y": 2.9155782667,
				"z": 2.4249283879,
				"element": "H" 
			}
		],
		 "valence_orbital": [ 
			{
				"type": "occ",
				"energy": -0.32611,
				"method": "rhf"
			},
			{
				"type": "occ",
				"energy": -0.31908,
				"method": "rhf"
			},
			{
				"type": "occ",
				"energy": -0.30564,
				"method": "rhf"
			},
			{
				"type": "occ",
				"energy": -0.29973,
				"method": "rhf"
			},
			{
				"type": "occ",
				"energy": -0.29261,
				"method": "rhf"
			},
			{
				"type": "unocc",
				"energy": -0.10929,
				"method": "rhf"
			},
			{
				"type": "unocc",
				"energy": -0.09096,
				"method": "rhf"
			},
			{
				"type": "unocc",
				"energy": -0.0733,
				"method": "rhf"
			},
			{
				"type": "unocc",
				"energy": -0.05955,
				"method": "rhf"
			},
			{
				"type": "unocc",
				"energy": -0.02341,
				"method": "rhf"
			}
		],
		"cosmo_sigma_profile": { 
			"-0.025": 0.0,
			"-0.024": 0.0,
			"-0.023": 0.0,
			"-0.022": 0.0,
			"-0.021": 0.0,
			"-0.02": 0.0,
			"-0.019": 0.0,
			"-0.018": 0.0,
			"-0.017": 0.0,
			"-0.016": 0.0,
			"-0.015": 0.0,
			"-0.014": 0.0,
			"-0.013": 0.0,
			"-0.012": 0.407880913346,
			"-0.011": 1.50978807434,
			"-0.01": 3.28212764007,
			"-0.009": 3.71909070456,
			"-0.008": 5.19758795365,
			"-0.007": 8.06144993131,
			"-0.006": 10.1577778767,
			"-0.005": 12.9204545583,
			"-0.004": 20.2341434957,
			"-0.003": 28.8077448023,
			"-0.002": 17.8103102742,
			"-0.001": 16.156437804,
			"0.0": 16.8477752138,
			"0.001": 20.6527130613,
			"0.002": 22.0352588216,
			"0.003": 14.917917855,
			"0.004": 5.37338564674,
			"0.005": 6.33742157522,
			"0.006": 6.52674266519,
			"0.007": 11.5053351251,
			"0.008": 10.5609219029,
			"0.009": 5.37071709851,
			"0.01": 4.85585866257,
			"0.011": 3.72271889364,
			"0.012": 1.72429706339,
			"0.013": 0.128769524571,
			"0.014": 0.0,
			"0.015": 0.0,
			"0.016": 0.0,
			"0.017": 0.0,
			"0.018": 0.0,
			"0.019": 0.0,
			"0.02": 0.0,
			"0.021": 0.0,
			"0.022": 0.0,
			"0.023": 0.0,
			"0.024": 0.0,
			"0.025": 0.0
		}
	}
}
