{
	 "smiles": "FC1=C(F)C=C2C(=O)OC(=O)C2=C1", 
	 "Tm": 368.15, 
	 "num_atms": 15, 
	 "gaussian": { 
		 "optdone": 1, 
		 "sigma_profile": "yes", 
		 "theory": "DFT", 
		 "functional": "B3LYP", 
		 "basiset": "6-31G**", 
		 "properties": { 
			 "R2extent": 3161.4666, 
			 "electric_dipole_moment_norm": 3.47101971905, 
			 "electric_quadrupole_moment_norm": 9.74978108831, 
			 "total_energy": -731.400276531, 
			 "HOMO_LUMO_gap": 0.18577, 
			 "cosmo_polarized_energy": -10.29, 
			 "cosmo_cavitation_energy": 22.39, 
			 "cosmo_dispersion_energy": -16.21, 
			 "cosmo_repulsion_energy": 1.22, 
			 "cosmo_total_nonelectrostatic_energy": 7.39, 
			 "SMD_solvation_energy": 6.83 
		},
		"coords": [
			{
				"x": -0.4599414941,
				"y": -1.5757106866,
				"z": 3.5095128147,
				"element": "F" 
			},
			{
				"x": 0.0492729132,
				"y": -0.6726240565,
				"z": 2.6668669526,
				"element": "C" 
			},
			{
				"x": -0.2568753391,
				"y": 0.6832198165,
				"z": 2.8914056239,
				"element": "C" 
			},
			{
				"x": -1.0377321172,
				"y": 0.9829208374,
				"z": 3.9332087168,
				"element": "F" 
			},
			{
				"x": 0.2302041951,
				"y": 1.6880536141,
				"z": 2.0645217839,
				"element": "C" 
			},
			{
				"x": 1.0347181584,
				"y": 1.2780455788,
				"z": 1.0061073759,
				"element": "C" 
			},
			{
				"x": 1.7074746769,
				"y": 2.0753061028,
				"z": -0.0485030095,
				"element": "C" 
			},
			{
				"x": 1.7192905315,
				"y": 3.2579095958,
				"z": -0.2406866361,
				"element": "O" 
			},
			{
				"x": 2.3934528492,
				"y": 1.173345123,
				"z": -0.8688286901,
				"element": "O" 
			},
			{
				"x": 2.2070961929,
				"y": -0.1366910118,
				"z": -0.4147439291,
				"element": "C" 
			},
			{
				"x": 2.69965604,
				"y": -1.0833100924,
				"z": -0.9596387174,
				"element": "O" 
			},
			{
				"x": 1.3370985936,
				"y": -0.0610459703,
				"z": 0.7843475697,
				"element": "C" 
			},
			{
				"x": 0.853722046,
				"y": -1.0734061414,
				"z": 1.6071991562,
				"element": "C" 
			},
			{
				"x": -0.0143248046,
				"y": 2.727725853,
				"z": 2.2502852506,
				"element": "H" 
			},
			{
				"x": 1.0805875585,
				"y": -2.1213385623,
				"z": 1.4472457379,
				"element": "H" 
			}
		],
		 "valence_orbital": [ 
			{
				"type": "occ",
				"energy": -0.34191,
				"method": "rhf"
			},
			{
				"type": "occ",
				"energy": -0.32339,
				"method": "rhf"
			},
			{
				"type": "occ",
				"energy": -0.30769,
				"method": "rhf"
			},
			{
				"type": "occ",
				"energy": -0.30032,
				"method": "rhf"
			},
			{
				"type": "occ",
				"energy": -0.2907,
				"method": "rhf"
			},
			{
				"type": "unocc",
				"energy": -0.10493,
				"method": "rhf"
			},
			{
				"type": "unocc",
				"energy": -0.07343,
				"method": "rhf"
			},
			{
				"type": "unocc",
				"energy": 0.01397,
				"method": "rhf"
			},
			{
				"type": "unocc",
				"energy": 0.0413,
				"method": "rhf"
			},
			{
				"type": "unocc",
				"energy": 0.0453,
				"method": "rhf"
			}
		],
		"cosmo_sigma_profile": { 
			"-0.025": 0.0,
			"-0.024": 0.0,
			"-0.023": 0.0,
			"-0.022": 0.0,
			"-0.021": 0.0,
			"-0.02": 0.0,
			"-0.019": 0.0,
			"-0.018": 0.0,
			"-0.017": 0.0,
			"-0.016": 0.0,
			"-0.015": 0.0,
			"-0.014": 0.0,
			"-0.013": 0.0,
			"-0.012": 0.0,
			"-0.011": 0.749529688222,
			"-0.01": 3.61703440572,
			"-0.009": 4.14452056104,
			"-0.008": 5.23231782354,
			"-0.007": 4.95895860486,
			"-0.006": 6.1367802093,
			"-0.005": 9.60889215452,
			"-0.004": 16.7558802431,
			"-0.003": 20.6594854963,
			"-0.002": 13.7217017482,
			"-0.001": 8.36431884192,
			"0.0": 6.13371795463,
			"0.001": 7.4220528665,
			"0.002": 19.6961025419,
			"0.003": 11.8121138864,
			"0.004": 3.65632271416,
			"0.005": 4.77855554121,
			"0.006": 6.41077276502,
			"0.007": 5.98860301519,
			"0.008": 6.53328758676,
			"0.009": 10.4716701333,
			"0.01": 5.53569589607,
			"0.011": 0.292038756112,
			"0.012": 0.0,
			"0.013": 0.0,
			"0.014": 0.0,
			"0.015": 0.0,
			"0.016": 0.0,
			"0.017": 0.0,
			"0.018": 0.0,
			"0.019": 0.0,
			"0.02": 0.0,
			"0.021": 0.0,
			"0.022": 0.0,
			"0.023": 0.0,
			"0.024": 0.0,
			"0.025": 0.0
		}
	}
}
