{
	 "smiles": "CC(C)(C)C1=NN=C(Cl)C=C1", 
	 "Tm": 357.15, 
	 "num_atms": 22, 
	 "gaussian": { 
		 "optdone": 1, 
		 "sigma_profile": "yes", 
		 "theory": "DFT", 
		 "functional": "B3LYP", 
		 "basiset": "6-31G**", 
		 "properties": { 
			 "R2extent": 3321.7119, 
			 "electric_dipole_moment_norm": 4.36105417073, 
			 "electric_quadrupole_moment_norm": 11.0468815106, 
			 "total_energy": -881.147325226, 
			 "HOMO_LUMO_gap": 0.18096, 
			 "cosmo_polarized_energy": -9.86, 
			 "cosmo_cavitation_energy": 26.42, 
			 "cosmo_dispersion_energy": -19.2, 
			 "cosmo_repulsion_energy": 1.54, 
			 "cosmo_total_nonelectrostatic_energy": 8.76, 
			 "SMD_solvation_energy": 3.01 
		},
		"coords": [
			{
				"x": 1.2034196188,
				"y": -1.562241789,
				"z": -0.1794708068,
				"element": "C" 
			},
			{
				"x": 0.5332544843,
				"y": -0.2027858096,
				"z": -0.4447600631,
				"element": "C" 
			},
			{
				"x": 0.5109691945,
				"y": 0.0662487949,
				"z": -1.9673953872,
				"element": "C" 
			},
			{
				"x": 1.3416969307,
				"y": 0.9104676632,
				"z": 0.2612668769,
				"element": "C" 
			},
			{
				"x": -0.9090968455,
				"y": -0.1612909,
				"z": 0.077248014,
				"element": "C" 
			},
			{
				"x": -1.5479275365,
				"y": 1.0012286476,
				"z": -0.1256094584,
				"element": "N" 
			},
			{
				"x": -2.8058330753,
				"y": 1.1765962187,
				"z": 0.2770199551,
				"element": "N" 
			},
			{
				"x": -3.4297465068,
				"y": 0.1812662292,
				"z": 0.8874329351,
				"element": "C" 
			},
			{
				"x": -5.0811592186,
				"y": 0.4908384309,
				"z": 1.3858694657,
				"element": "Cl" 
			},
			{
				"x": -2.8536676082,
				"y": -1.0651803998,
				"z": 1.1455413486,
				"element": "C" 
			},
			{
				"x": -1.5481591605,
				"y": -1.2346375902,
				"z": 0.7229019191,
				"element": "C" 
			},
			{
				"x": 0.6782716059,
				"y": -2.3840493073,
				"z": -0.6788673019,
				"element": "H" 
			},
			{
				"x": 1.2631588233,
				"y": -1.7893930589,
				"z": 0.8907603245,
				"element": "H" 
			},
			{
				"x": 2.2268220929,
				"y": -1.5469174501,
				"z": -0.5665916492,
				"element": "H" 
			},
			{
				"x": 0.0288262153,
				"y": 1.0226078233,
				"z": -2.1810940371,
				"element": "H" 
			},
			{
				"x": -0.0362169935,
				"y": -0.7194150381,
				"z": -2.4999868544,
				"element": "H" 
			},
			{
				"x": 1.5332448486,
				"y": 0.091753002,
				"z": -2.3598122713,
				"element": "H" 
			},
			{
				"x": 1.3950722878,
				"y": 0.736088278,
				"z": 1.3415805054,
				"element": "H" 
			},
			{
				"x": 2.3651788895,
				"y": 0.9364224416,
				"z": -0.1279625366,
				"element": "H" 
			},
			{
				"x": 0.8781673653,
				"y": 1.8853867475,
				"z": 0.095600291,
				"element": "H" 
			},
			{
				"x": -3.4098861658,
				"y": -1.8471855415,
				"z": 1.6497103782,
				"element": "H" 
			},
			{
				"x": -1.0373892461,
				"y": -2.1755073923,
				"z": 0.8894183525,
				"element": "H" 
			}
		],
		 "valence_orbital": [ 
			{
				"type": "occ",
				"energy": -0.32581,
				"method": "rhf"
			},
			{
				"type": "occ",
				"energy": -0.31592,
				"method": "rhf"
			},
			{
				"type": "occ",
				"energy": -0.31375,
				"method": "rhf"
			},
			{
				"type": "occ",
				"energy": -0.27152,
				"method": "rhf"
			},
			{
				"type": "occ",
				"energy": -0.24207,
				"method": "rhf"
			},
			{
				"type": "unocc",
				"energy": -0.06111,
				"method": "rhf"
			},
			{
				"type": "unocc",
				"energy": -0.03444,
				"method": "rhf"
			},
			{
				"type": "unocc",
				"energy": 0.02606,
				"method": "rhf"
			},
			{
				"type": "unocc",
				"energy": 0.08127,
				"method": "rhf"
			},
			{
				"type": "unocc",
				"energy": 0.10506,
				"method": "rhf"
			}
		],
		"cosmo_sigma_profile": { 
			"-0.025": 0.0,
			"-0.024": 0.0,
			"-0.023": 0.0,
			"-0.022": 0.0,
			"-0.021": 0.0,
			"-0.02": 0.0,
			"-0.019": 0.0,
			"-0.018": 0.0,
			"-0.017": 0.0,
			"-0.016": 0.0,
			"-0.015": 0.0,
			"-0.014": 0.0,
			"-0.013": 0.0,
			"-0.012": 0.0,
			"-0.011": 0.0,
			"-0.01": 0.277119400386,
			"-0.009": 2.29015404252,
			"-0.008": 4.5915524996,
			"-0.007": 4.36289892204,
			"-0.006": 3.70025593118,
			"-0.005": 4.94974239047,
			"-0.004": 10.0482739213,
			"-0.003": 25.0639409359,
			"-0.002": 26.8486920428,
			"-0.001": 25.8082942393,
			"0.0": 24.5076939016,
			"0.001": 24.4713978801,
			"0.002": 9.69362033361,
			"0.003": 10.358626252,
			"0.004": 9.65919216114,
			"0.005": 3.92961538568,
			"0.006": 2.5685768179,
			"0.007": 2.89559829618,
			"0.008": 2.34407449152,
			"0.009": 1.48304495562,
			"0.01": 1.79505157171,
			"0.011": 2.30230895239,
			"0.012": 2.07510894913,
			"0.013": 2.56777419065,
			"0.014": 1.78343578791,
			"0.015": 0.293032105424,
			"0.016": 0.0,
			"0.017": 0.0,
			"0.018": 0.0,
			"0.019": 0.0,
			"0.02": 0.0,
			"0.021": 0.0,
			"0.022": 0.0,
			"0.023": 0.0,
			"0.024": 0.0,
			"0.025": 0.0
		}
	}
}
