{
	 "smiles": "CC1(C)C2CCC1(C)C(=O)C(=NO)C2=O", 
	 "Tm": 382.15, 
	 "num_atms": 30, 
	 "gaussian": { 
		 "optdone": 1, 
		 "sigma_profile": "yes", 
		 "theory": "DFT", 
		 "functional": "B3LYP", 
		 "basiset": "6-31G**", 
		 "properties": { 
			 "R2extent": 2903.3383, 
			 "electric_dipole_moment_norm": 2.53028799942, 
			 "electric_quadrupole_moment_norm": 14.4951204265, 
			 "total_energy": -708.560577134, 
			 "HOMO_LUMO_gap": 0.15032, 
			 "cosmo_polarized_energy": -16.2, 
			 "cosmo_cavitation_energy": 30.36, 
			 "cosmo_dispersion_energy": -21.54, 
			 "cosmo_repulsion_energy": 1.66, 
			 "cosmo_total_nonelectrostatic_energy": 10.48, 
			 "SMD_solvation_energy": 6.27 
		},
		"coords": [
			{
				"x": 2.3780442765,
				"y": -1.7448097844,
				"z": 0.1351081174,
				"element": "C" 
			},
			{
				"x": 1.6176081081,
				"y": -0.5408007819,
				"z": 0.7217959324,
				"element": "C" 
			},
			{
				"x": 2.3928307206,
				"y": -0.0524346426,
				"z": 1.9620626948,
				"element": "C" 
			},
			{
				"x": 0.1489269175,
				"y": -0.8727464456,
				"z": 1.1212270996,
				"element": "C" 
			},
			{
				"x": -0.5136192772,
				"y": 0.5217105958,
				"z": 1.3217409927,
				"element": "C" 
			},
			{
				"x": 0.269540198,
				"y": 1.4850382951,
				"z": 0.3906369388,
				"element": "C" 
			},
			{
				"x": 1.3707279473,
				"y": 0.6211358525,
				"z": -0.3107412099,
				"element": "C" 
			},
			{
				"x": 2.6035138038,
				"y": 1.434987792,
				"z": -0.7047068371,
				"element": "C" 
			},
			{
				"x": 0.7251698363,
				"y": 0.0266174363,
				"z": -1.5752925218,
				"element": "C" 
			},
			{
				"x": 1.0926614409,
				"y": 0.3175972903,
				"z": -2.6967781193,
				"element": "O" 
			},
			{
				"x": -0.430120035,
				"y": -0.9344911075,
				"z": -1.3516786019,
				"element": "C" 
			},
			{
				"x": -1.1967622518,
				"y": -1.0818927349,
				"z": -2.3823714418,
				"element": "N" 
			},
			{
				"x": -2.2465296705,
				"y": -1.9363179194,
				"z": -2.2029226061,
				"element": "O" 
			},
			{
				"x": -0.5714227127,
				"y": -1.5988915132,
				"z": -0.0036708682,
				"element": "C" 
			},
			{
				"x": -1.2065603883,
				"y": -2.6221063967,
				"z": 0.1697258247,
				"element": "O" 
			},
			{
				"x": 1.8942816481,
				"y": -2.1777816544,
				"z": -0.7458243649,
				"element": "H" 
			},
			{
				"x": 3.3919607413,
				"y": -1.4551224169,
				"z": -0.1587164404,
				"element": "H" 
			},
			{
				"x": 2.4652545345,
				"y": -2.5407505864,
				"z": 0.8821949144,
				"element": "H" 
			},
			{
				"x": 2.4050280591,
				"y": -0.8392949698,
				"z": 2.724016676,
				"element": "H" 
			},
			{
				"x": 3.4325797686,
				"y": 0.17557724,
				"z": 1.7098007224,
				"element": "H" 
			},
			{
				"x": 1.9569161794,
				"y": 0.8415287475,
				"z": 2.4159882838,
				"element": "H" 
			},
			{
				"x": 0.0813051324,
				"y": -1.5082517439,
				"z": 2.0083643617,
				"element": "H" 
			},
			{
				"x": -1.5843490188,
				"y": 0.4972805821,
				"z": 1.0971052283,
				"element": "H" 
			},
			{
				"x": -0.4239666263,
				"y": 0.8234151514,
				"z": 2.3687969235,
				"element": "H" 
			},
			{
				"x": -0.37678919,
				"y": 1.9803831138,
				"z": -0.3407641959,
				"element": "H" 
			},
			{
				"x": 0.7524479332,
				"y": 2.2821753177,
				"z": 0.9637240122,
				"element": "H" 
			},
			{
				"x": 3.3726651329,
				"y": 0.8042723921,
				"z": -1.1596494318,
				"element": "H" 
			},
			{
				"x": 3.032930751,
				"y": 1.9377808552,
				"z": 0.1657479361,
				"element": "H" 
			},
			{
				"x": 2.3367578876,
				"y": 2.1926738622,
				"z": -1.4451930746,
				"element": "H" 
			},
			{
				"x": -2.7126318464,
				"y": -1.8718818262,
				"z": -3.0502269452,
				"element": "H" 
			}
		],
		 "valence_orbital": [ 
			{
				"type": "occ",
				"energy": -0.31441,
				"method": "rhf"
			},
			{
				"type": "occ",
				"energy": -0.30619,
				"method": "rhf"
			},
			{
				"type": "occ",
				"energy": -0.27917,
				"method": "rhf"
			},
			{
				"type": "occ",
				"energy": -0.25562,
				"method": "rhf"
			},
			{
				"type": "occ",
				"energy": -0.23584,
				"method": "rhf"
			},
			{
				"type": "unocc",
				"energy": -0.08552,
				"method": "rhf"
			},
			{
				"type": "unocc",
				"energy": -0.01673,
				"method": "rhf"
			},
			{
				"type": "unocc",
				"energy": 0.06057,
				"method": "rhf"
			},
			{
				"type": "unocc",
				"energy": 0.06252,
				"method": "rhf"
			},
			{
				"type": "unocc",
				"energy": 0.07011,
				"method": "rhf"
			}
		],
		"cosmo_sigma_profile": { 
			"-0.025": 0.0,
			"-0.024": 0.0,
			"-0.023": 0.0,
			"-0.022": 0.0,
			"-0.021": 0.0,
			"-0.02": 0.137227744551,
			"-0.019": 1.03411173965,
			"-0.018": 1.16246038678,
			"-0.017": 1.22729418554,
			"-0.016": 0.902643542519,
			"-0.015": 0.267761588115,
			"-0.014": 0.481604979213,
			"-0.013": 0.847297947897,
			"-0.012": 1.08524530832,
			"-0.011": 0.777430456105,
			"-0.01": 0.71381090545,
			"-0.009": 0.408432603439,
			"-0.008": 0.77176855967,
			"-0.007": 0.569192327278,
			"-0.006": 2.57185621897,
			"-0.005": 12.9765166149,
			"-0.004": 26.7584014213,
			"-0.003": 33.3760656016,
			"-0.002": 27.0120569847,
			"-0.001": 26.3418540872,
			"0.0": 21.8496117833,
			"0.001": 13.062730845,
			"0.002": 5.7451498264,
			"0.003": 4.42393280323,
			"0.004": 3.94319163869,
			"0.005": 4.1684295253,
			"0.006": 3.72512783298,
			"0.007": 4.038996337,
			"0.008": 4.02679521021,
			"0.009": 4.61665396199,
			"0.01": 6.51513950304,
			"0.011": 8.32876646867,
			"0.012": 6.75503786901,
			"0.013": 3.18457487225,
			"0.014": 2.16287319096,
			"0.015": 0.18881707485,
			"0.016": 0.0,
			"0.017": 0.0,
			"0.018": 0.0,
			"0.019": 0.0,
			"0.02": 0.0,
			"0.021": 0.0,
			"0.022": 0.0,
			"0.023": 0.0,
			"0.024": 0.0,
			"0.025": 0.0
		}
	}
}
