{
	 "smiles": "OC(=O)C1=CC=C(C=C1)N1CCC2=C(C1)C=CC=C2", 
	 "Tm": 483.15, 
	 "num_atms": 34, 
	 "gaussian": { 
		 "optdone": 1, 
		 "sigma_profile": "yes", 
		 "theory": "DFT", 
		 "functional": "B3LYP", 
		 "basiset": "6-31G**", 
		 "properties": { 
			 "R2extent": 7869.1511, 
			 "electric_dipole_moment_norm": 6.94739229783, 
			 "electric_quadrupole_moment_norm": 40.826350405, 
			 "total_energy": -823.955866617, 
			 "HOMO_LUMO_gap": 0.17391, 
			 "cosmo_polarized_energy": -18.09, 
			 "cosmo_cavitation_energy": 36.55, 
			 "cosmo_dispersion_energy": -26.97, 
			 "cosmo_repulsion_energy": 2.02, 
			 "cosmo_total_nonelectrostatic_energy": 11.6, 
			 "SMD_solvation_energy": 5.67 
		},
		"coords": [
			{
				"x": 6.4764956895,
				"y": -1.2494758392,
				"z": -0.3699350131,
				"element": "O" 
			},
			{
				"x": 5.7706469263,
				"y": -0.7293320391,
				"z": 0.6758451624,
				"element": "C" 
			},
			{
				"x": 6.3498940173,
				"y": -0.4413112402,
				"z": 1.6991994438,
				"element": "O" 
			},
			{
				"x": 4.3054891581,
				"y": -0.5466137418,
				"z": 0.4772691186,
				"element": "C" 
			},
			{
				"x": 3.6126405942,
				"y": 0.2735321127,
				"z": 1.3834565826,
				"element": "C" 
			},
			{
				"x": 2.2508378038,
				"y": 0.4862003873,
				"z": 1.2680337756,
				"element": "C" 
			},
			{
				"x": 1.4963412401,
				"y": -0.1248826381,
				"z": 0.2353952085,
				"element": "C" 
			},
			{
				"x": 2.1931456611,
				"y": -0.9690518776,
				"z": -0.6588888454,
				"element": "C" 
			},
			{
				"x": 3.563427751,
				"y": -1.1727331957,
				"z": -0.5313829462,
				"element": "C" 
			},
			{
				"x": 0.1194816563,
				"y": 0.0593338991,
				"z": 0.1441445529,
				"element": "N" 
			},
			{
				"x": -0.4999208232,
				"y": 1.3382825695,
				"z": 0.498940316,
				"element": "C" 
			},
			{
				"x": -1.8494120329,
				"y": 1.0946600828,
				"z": 1.1718971496,
				"element": "C" 
			},
			{
				"x": -2.7239681283,
				"y": 0.2060915291,
				"z": 0.3154126736,
				"element": "C" 
			},
			{
				"x": -2.1366202385,
				"y": -0.635175935,
				"z": -0.6400312531,
				"element": "C" 
			},
			{
				"x": -0.6326836447,
				"y": -0.6972266123,
				"z": -0.8484169243,
				"element": "C" 
			},
			{
				"x": -2.95311253,
				"y": -1.4465426729,
				"z": -1.4396770854,
				"element": "C" 
			},
			{
				"x": -4.3371615679,
				"y": -1.4348567235,
				"z": -1.2934977723,
				"element": "C" 
			},
			{
				"x": -4.9245267504,
				"y": -0.6004236318,
				"z": -0.3382568782,
				"element": "C" 
			},
			{
				"x": -4.1189814165,
				"y": 0.2127035249,
				"z": 0.4538732764,
				"element": "C" 
			},
			{
				"x": 5.9249450121,
				"y": -1.2690083518,
				"z": -1.1635759247,
				"element": "H" 
			},
			{
				"x": 4.173829964,
				"y": 0.7327370629,
				"z": 2.1903913269,
				"element": "H" 
			},
			{
				"x": 1.7578017234,
				"y": 1.1043046205,
				"z": 2.0093363846,
				"element": "H" 
			},
			{
				"x": 1.6719986144,
				"y": -1.4640483838,
				"z": -1.4680924939,
				"element": "H" 
			},
			{
				"x": 4.0381797836,
				"y": -1.8586341895,
				"z": -1.2301927052,
				"element": "H" 
			},
			{
				"x": 0.1605203461,
				"y": 1.8996629541,
				"z": 1.1570167218,
				"element": "H" 
			},
			{
				"x": -0.64209685,
				"y": 1.9485912511,
				"z": -0.4091168799,
				"element": "H" 
			},
			{
				"x": -1.6798994228,
				"y": 0.6279665863,
				"z": 2.1513796824,
				"element": "H" 
			},
			{
				"x": -2.3496662145,
				"y": 2.0526040184,
				"z": 1.3571507955,
				"element": "H" 
			},
			{
				"x": -0.3207485748,
				"y": -1.7455985267,
				"z": -0.7897488487,
				"element": "H" 
			},
			{
				"x": -0.3978624019,
				"y": -0.3572090887,
				"z": -1.8750189672,
				"element": "H" 
			},
			{
				"x": -2.4946885126,
				"y": -2.0959000774,
				"z": -2.1827024988,
				"element": "H" 
			},
			{
				"x": -4.9550234196,
				"y": -2.0721833546,
				"z": -1.9192399683,
				"element": "H" 
			},
			{
				"x": -6.003681286,
				"y": -0.5811974398,
				"z": -0.2171682786,
				"element": "H" 
			},
			{
				"x": -4.5725221265,
				"y": 0.8696349607,
				"z": 1.192501112,
				"element": "H" 
			}
		],
		 "valence_orbital": [ 
			{
				"type": "occ",
				"energy": -0.26417,
				"method": "rhf"
			},
			{
				"type": "occ",
				"energy": -0.25928,
				"method": "rhf"
			},
			{
				"type": "occ",
				"energy": -0.25324,
				"method": "rhf"
			},
			{
				"type": "occ",
				"energy": -0.24759,
				"method": "rhf"
			},
			{
				"type": "occ",
				"energy": -0.20914,
				"method": "rhf"
			},
			{
				"type": "unocc",
				"energy": -0.03523,
				"method": "rhf"
			},
			{
				"type": "unocc",
				"energy": -0.01456,
				"method": "rhf"
			},
			{
				"type": "unocc",
				"energy": -0.01148,
				"method": "rhf"
			},
			{
				"type": "unocc",
				"energy": -0.00562,
				"method": "rhf"
			},
			{
				"type": "unocc",
				"energy": 0.05883,
				"method": "rhf"
			}
		],
		"cosmo_sigma_profile": { 
			"-0.025": 0.0,
			"-0.024": 0.0,
			"-0.023": 0.0,
			"-0.022": 0.0,
			"-0.021": 0.0,
			"-0.02": 0.0,
			"-0.019": 0.0114070497846,
			"-0.018": 0.642471553302,
			"-0.017": 1.15825178323,
			"-0.016": 0.619551648524,
			"-0.015": 0.698064508148,
			"-0.014": 1.1136495191,
			"-0.013": 0.638071849248,
			"-0.012": 1.27971747267,
			"-0.011": 1.54168775797,
			"-0.01": 0.575472650685,
			"-0.009": 1.2510593446,
			"-0.008": 2.1935651245,
			"-0.007": 5.0462530713,
			"-0.006": 10.9692583805,
			"-0.005": 22.2618899529,
			"-0.004": 31.3092186589,
			"-0.003": 29.6903033043,
			"-0.002": 22.4310983444,
			"-0.001": 18.8871100065,
			"0.0": 14.1417835984,
			"0.001": 14.3875078509,
			"0.002": 14.7476581259,
			"0.003": 17.7074865742,
			"0.004": 22.3819247857,
			"0.005": 15.3706470085,
			"0.006": 11.0461367963,
			"0.007": 4.07798900145,
			"0.008": 2.5640876799,
			"0.009": 2.81549026156,
			"0.01": 3.80261967161,
			"0.011": 4.6499953921,
			"0.012": 5.93860763375,
			"0.013": 3.93607464195,
			"0.014": 0.950900040039,
			"0.015": 0.0,
			"0.016": 0.0,
			"0.017": 0.0,
			"0.018": 0.0,
			"0.019": 0.0,
			"0.02": 0.0,
			"0.021": 0.0,
			"0.022": 0.0,
			"0.023": 0.0,
			"0.024": 0.0,
			"0.025": 0.0
		}
	}
}
