{
	 "smiles": "NC(=NO)C1=CC=C(C=C1)N1CCC(O)CC1", 
	 "Tm": 443.15, 
	 "num_atms": 34, 
	 "gaussian": { 
		 "optdone": 1, 
		 "sigma_profile": "yes", 
		 "theory": "DFT", 
		 "functional": "B3LYP", 
		 "basiset": "6-31G**", 
		 "properties": { 
			 "R2extent": 6610.6794, 
			 "electric_dipole_moment_norm": 2.00875143808, 
			 "electric_quadrupole_moment_norm": 16.3816896003, 
			 "total_energy": -782.16587702, 
			 "HOMO_LUMO_gap": 0.17611, 
			 "cosmo_polarized_energy": -16.62, 
			 "cosmo_cavitation_energy": 35.21, 
			 "cosmo_dispersion_energy": -26.13, 
			 "cosmo_repulsion_energy": 2.03, 
			 "cosmo_total_nonelectrostatic_energy": 11.11, 
			 "SMD_solvation_energy": 5.13 
		},
		"coords": [
			{
				"x": 3.9454161129,
				"y": -0.3675963779,
				"z": -3.4550236525,
				"element": "N" 
			},
			{
				"x": 3.7618309525,
				"y": -0.4675560548,
				"z": -2.0863532504,
				"element": "C" 
			},
			{
				"x": 4.7318195305,
				"y": -0.5408410374,
				"z": -1.2315707381,
				"element": "N" 
			},
			{
				"x": 5.976844607,
				"y": -0.3849692569,
				"z": -1.9074556236,
				"element": "O" 
			},
			{
				"x": 2.3777537103,
				"y": -0.5550278421,
				"z": -1.5719658024,
				"element": "C" 
			},
			{
				"x": 1.3235545338,
				"y": -0.9777855736,
				"z": -2.3894456753,
				"element": "C" 
			},
			{
				"x": 0.0183981972,
				"y": -1.0603637912,
				"z": -1.9030845415,
				"element": "C" 
			},
			{
				"x": -0.2801611316,
				"y": -0.7097916496,
				"z": -0.5760932596,
				"element": "C" 
			},
			{
				"x": 0.7880106249,
				"y": -0.2913502472,
				"z": 0.2462328634,
				"element": "C" 
			},
			{
				"x": 2.0835775495,
				"y": -0.2166620745,
				"z": -0.2395672737,
				"element": "C" 
			},
			{
				"x": -1.5938984056,
				"y": -0.7405507611,
				"z": -0.0457356865,
				"element": "N" 
			},
			{
				"x": -2.7124959572,
				"y": -0.92652642,
				"z": -0.9783099949,
				"element": "C" 
			},
			{
				"x": -4.0124026372,
				"y": -0.3490002496,
				"z": -0.3693737383,
				"element": "C" 
			},
			{
				"x": -3.9494426995,
				"y": -0.3045134365,
				"z": 1.1698465467,
				"element": "C" 
			},
			{
				"x": -3.3189206766,
				"y": 0.8851843412,
				"z": 1.6358158252,
				"element": "O" 
			},
			{
				"x": -3.216506755,
				"y": -1.555646339,
				"z": 1.6700188103,
				"element": "C" 
			},
			{
				"x": -1.7493159578,
				"y": -1.545932689,
				"z": 1.1917665701,
				"element": "C" 
			},
			{
				"x": 3.2525967357,
				"y": 0.1801189734,
				"z": -3.9451236707,
				"element": "H" 
			},
			{
				"x": 4.8998730386,
				"y": -0.1535558336,
				"z": -3.7124459441,
				"element": "H" 
			},
			{
				"x": 6.6067112131,
				"y": -0.4654040086,
				"z": -1.1816138706,
				"element": "H" 
			},
			{
				"x": 1.5253549088,
				"y": -1.2885205956,
				"z": -3.4101683597,
				"element": "H" 
			},
			{
				"x": -0.7583938825,
				"y": -1.4271194689,
				"z": -2.5635560448,
				"element": "H" 
			},
			{
				"x": 0.5900187777,
				"y": 0.0106888058,
				"z": 1.2695369712,
				"element": "H" 
			},
			{
				"x": 2.889196445,
				"y": 0.1219554412,
				"z": 0.4025114126,
				"element": "H" 
			},
			{
				"x": -2.4794657655,
				"y": -0.401807437,
				"z": -1.9064539333,
				"element": "H" 
			},
			{
				"x": -2.8419553024,
				"y": -1.9922004326,
				"z": -1.2370535295,
				"element": "H" 
			},
			{
				"x": -4.1843427806,
				"y": 0.6718740957,
				"z": -0.724808195,
				"element": "H" 
			},
			{
				"x": -4.8653344334,
				"y": -0.9548710929,
				"z": -0.6966948862,
				"element": "H" 
			},
			{
				"x": -4.9642415336,
				"y": -0.2754532132,
				"z": 1.5800026168,
				"element": "H" 
			},
			{
				"x": -2.4736124772,
				"y": 0.9289646784,
				"z": 1.1610066501,
				"element": "H" 
			},
			{
				"x": -3.7368609639,
				"y": -2.4454727781,
				"z": 1.2946775598,
				"element": "H" 
			},
			{
				"x": -3.2434876774,
				"y": -1.6029747041,
				"z": 2.7625907405,
				"element": "H" 
			},
			{
				"x": -1.3924311424,
				"y": -2.5749992249,
				"z": 1.0267875955,
				"element": "H" 
			},
			{
				"x": -1.1168867584,
				"y": -1.1075937455,
				"z": 1.9658035085,
				"element": "H" 
			}
		],
		 "valence_orbital": [ 
			{
				"type": "occ",
				"energy": -0.26742,
				"method": "rhf"
			},
			{
				"type": "occ",
				"energy": -0.25595,
				"method": "rhf"
			},
			{
				"type": "occ",
				"energy": -0.25235,
				"method": "rhf"
			},
			{
				"type": "occ",
				"energy": -0.22144,
				"method": "rhf"
			},
			{
				"type": "occ",
				"energy": -0.19532,
				"method": "rhf"
			},
			{
				"type": "unocc",
				"energy": -0.01921,
				"method": "rhf"
			},
			{
				"type": "unocc",
				"energy": -0.00326,
				"method": "rhf"
			},
			{
				"type": "unocc",
				"energy": 0.06228,
				"method": "rhf"
			},
			{
				"type": "unocc",
				"energy": 0.07252,
				"method": "rhf"
			},
			{
				"type": "unocc",
				"energy": 0.07965,
				"method": "rhf"
			}
		],
		"cosmo_sigma_profile": { 
			"-0.025": 0.0,
			"-0.024": 0.0,
			"-0.023": 0.0,
			"-0.022": 0.0,
			"-0.021": 0.0,
			"-0.02": 0.0,
			"-0.019": 0.0,
			"-0.018": 0.0,
			"-0.017": 0.187782677319,
			"-0.016": 1.17440046024,
			"-0.015": 0.671292133041,
			"-0.014": 0.81780102706,
			"-0.013": 1.69824195331,
			"-0.012": 1.90531930973,
			"-0.011": 2.41213243508,
			"-0.01": 2.58062853218,
			"-0.009": 2.89982717975,
			"-0.008": 3.80039429392,
			"-0.007": 4.17980918316,
			"-0.006": 8.41530782801,
			"-0.005": 12.8499265599,
			"-0.004": 20.4268036049,
			"-0.003": 38.5325371673,
			"-0.002": 27.8681516095,
			"-0.001": 22.525155165,
			"0.0": 16.9807460173,
			"0.001": 9.98383357843,
			"0.002": 10.8326779101,
			"0.003": 10.8114578749,
			"0.004": 12.1187529105,
			"0.005": 16.908410351,
			"0.006": 9.32415419633,
			"0.007": 6.22868846947,
			"0.008": 6.7008542304,
			"0.009": 4.91301606273,
			"0.01": 4.52116487271,
			"0.011": 2.81199923266,
			"0.012": 3.18926912128,
			"0.013": 2.21920597168,
			"0.014": 2.51790334694,
			"0.015": 2.39598337175,
			"0.016": 0.267187799405,
			"0.017": 0.0,
			"0.018": 0.0,
			"0.019": 0.0,
			"0.02": 0.0,
			"0.021": 0.0,
			"0.022": 0.0,
			"0.023": 0.0,
			"0.024": 0.0,
			"0.025": 0.0
		}
	}
}
