{
	 "smiles": "NC1=CC(C(O)=O)=C(Cl)N=C1", 
	 "Tm": 467.15, 
	 "num_atms": 16, 
	 "gaussian": { 
		 "optdone": 1, 
		 "sigma_profile": "yes", 
		 "theory": "DFT", 
		 "functional": "B3LYP", 
		 "basiset": "6-31G**", 
		 "properties": { 
			 "R2extent": 2722.6389, 
			 "electric_dipole_moment_norm": 4.99214671359, 
			 "electric_quadrupole_moment_norm": 8.62169799401, 
			 "total_energy": -951.79901383, 
			 "HOMO_LUMO_gap": 0.16904, 
			 "cosmo_polarized_energy": -16.06, 
			 "cosmo_cavitation_energy": 22.47, 
			 "cosmo_dispersion_energy": -17.25, 
			 "cosmo_repulsion_energy": 1.38, 
			 "cosmo_total_nonelectrostatic_energy": 6.6, 
			 "SMD_solvation_energy": 3.6 
		},
		"coords": [
			{
				"x": -0.6252650072,
				"y": 2.495144329,
				"z": 0.2537653663,
				"element": "N" 
			},
			{
				"x": 0.3255598454,
				"y": 1.5443565723,
				"z": -0.0682595679,
				"element": "C" 
			},
			{
				"x": 0.1295167493,
				"y": 0.1820563371,
				"z": 0.18831336,
				"element": "C" 
			},
			{
				"x": 1.120293051,
				"y": -0.7640683325,
				"z": -0.0923469128,
				"element": "C" 
			},
			{
				"x": 0.7349380161,
				"y": -2.1948681688,
				"z": 0.2442220674,
				"element": "C" 
			},
			{
				"x": 1.6216303489,
				"y": -3.1796850807,
				"z": 0.0469173123,
				"element": "O" 
			},
			{
				"x": -0.3639032721,
				"y": -2.4440056147,
				"z": 0.6895394767,
				"element": "O" 
			},
			{
				"x": 2.312056243,
				"y": -0.255054565,
				"z": -0.6440604508,
				"element": "C" 
			},
			{
				"x": 3.6906615038,
				"y": -1.3035671089,
				"z": -1.0720821809,
				"element": "Cl" 
			},
			{
				"x": 2.5224584143,
				"y": 1.0186382271,
				"z": -0.8984841132,
				"element": "N" 
			},
			{
				"x": 1.5670042325,
				"y": 1.903998366,
				"z": -0.6241136722,
				"element": "C" 
			},
			{
				"x": -0.5564414134,
				"y": 3.3855342544,
				"z": -0.2168457756,
				"element": "H" 
			},
			{
				"x": -1.5744374759,
				"y": 2.1695369466,
				"z": 0.3626287544,
				"element": "H" 
			},
			{
				"x": -0.7978833336,
				"y": -0.1862205294,
				"z": 0.6148238623,
				"element": "H" 
			},
			{
				"x": 2.4590157337,
				"y": -2.8403194009,
				"z": -0.3164399872,
				"element": "H" 
			},
			{
				"x": 1.7920963642,
				"y": 2.9450237685,
				"z": -0.8508775389,
				"element": "H" 
			}
		],
		 "valence_orbital": [ 
			{
				"type": "occ",
				"energy": -0.32168,
				"method": "rhf"
			},
			{
				"type": "occ",
				"energy": -0.29864,
				"method": "rhf"
			},
			{
				"type": "occ",
				"energy": -0.29571,
				"method": "rhf"
			},
			{
				"type": "occ",
				"energy": -0.27424,
				"method": "rhf"
			},
			{
				"type": "occ",
				"energy": -0.23679,
				"method": "rhf"
			},
			{
				"type": "unocc",
				"energy": -0.06775,
				"method": "rhf"
			},
			{
				"type": "unocc",
				"energy": -0.03222,
				"method": "rhf"
			},
			{
				"type": "unocc",
				"energy": 0.00824,
				"method": "rhf"
			},
			{
				"type": "unocc",
				"energy": 0.04297,
				"method": "rhf"
			},
			{
				"type": "unocc",
				"energy": 0.06209,
				"method": "rhf"
			}
		],
		"cosmo_sigma_profile": { 
			"-0.025": 0.0,
			"-0.024": 0.0,
			"-0.023": 0.0,
			"-0.022": 0.0,
			"-0.021": 0.0,
			"-0.02": 0.0,
			"-0.019": 0.0,
			"-0.018": 0.0,
			"-0.017": 0.0,
			"-0.016": 0.0,
			"-0.015": 0.0,
			"-0.014": 1.55255511093,
			"-0.013": 3.81582522766,
			"-0.012": 3.45359644115,
			"-0.011": 3.85574379063,
			"-0.01": 4.930547459,
			"-0.009": 4.56921981113,
			"-0.008": 5.99945434911,
			"-0.007": 5.51325861939,
			"-0.006": 4.85795926813,
			"-0.005": 7.12141069022,
			"-0.004": 6.27234112374,
			"-0.003": 8.23586176807,
			"-0.002": 9.12535411543,
			"-0.001": 15.0581659071,
			"0.0": 16.1275833226,
			"0.001": 11.2887672332,
			"0.002": 8.68434285007,
			"0.003": 10.517110733,
			"0.004": 8.13016793838,
			"0.005": 5.66420269359,
			"0.006": 4.36629552191,
			"0.007": 4.02951489409,
			"0.008": 4.9388316077,
			"0.009": 5.2646608387,
			"0.01": 6.71301708324,
			"0.011": 6.18206631388,
			"0.012": 4.15750224534,
			"0.013": 2.06738169379,
			"0.014": 0.138235398948,
			"0.015": 0.0,
			"0.016": 0.0,
			"0.017": 0.0,
			"0.018": 0.0,
			"0.019": 0.0,
			"0.02": 0.0,
			"0.021": 0.0,
			"0.022": 0.0,
			"0.023": 0.0,
			"0.024": 0.0,
			"0.025": 0.0
		}
	}
}
