{
	 "smiles": "FC1=CC(Br)=C(C(Br)=C1)S(Cl)(=O)=O", 
	 "Tm": 356.15, 
	 "num_atms": 15, 
	 "gaussian": { 
		 "optdone": 1, 
		 "sigma_profile": "yes", 
		 "theory": "DFT", 
		 "functional": "B3LYP", 
		 "basiset": "6-31G**", 
		 "properties": { 
			 "R2extent": 5325.9853, 
			 "electric_dipole_moment_norm": 4.29330915961, 
			 "electric_quadrupole_moment_norm": 7.59017623708, 
			 "total_energy": -6481.20881592, 
			 "HOMO_LUMO_gap": 0.17715, 
			 "cosmo_polarized_energy": -8.85, 
			 "cosmo_cavitation_energy": 27.71, 
			 "cosmo_dispersion_energy": -21.48, 
			 "cosmo_repulsion_energy": 1.61, 
			 "cosmo_total_nonelectrostatic_energy": 7.84, 
			 "SMD_solvation_energy": 2.15 
		},
		"coords": [
			{
				"x": -4.6409608691,
				"y": 0.9904002915,
				"z": -0.8394547366,
				"element": "F" 
			},
			{
				"x": -3.4401331014,
				"y": 0.5628444915,
				"z": -0.4348619721,
				"element": "C" 
			},
			{
				"x": -3.3083785795,
				"y": -0.7418436956,
				"z": 0.0151597565,
				"element": "C" 
			},
			{
				"x": -2.0587673646,
				"y": -1.1822363565,
				"z": 0.4401703553,
				"element": "C" 
			},
			{
				"x": -2.0127145647,
				"y": -3.0059574431,
				"z": 0.9777308084,
				"element": "Br" 
			},
			{
				"x": -0.934925207,
				"y": -0.3198227453,
				"z": 0.4249966768,
				"element": "C" 
			},
			{
				"x": -1.1076058532,
				"y": 0.9953761408,
				"z": -0.0683336992,
				"element": "C" 
			},
			{
				"x": 0.2495908338,
				"y": 2.3178714087,
				"z": -0.2463289193,
				"element": "Br" 
			},
			{
				"x": -2.3642812537,
				"y": 1.4328982514,
				"z": -0.4887235016,
				"element": "C" 
			},
			{
				"x": 0.6563217194,
				"y": -0.9158943742,
				"z": 1.0707944723,
				"element": "S" 
			},
			{
				"x": 1.2288737324,
				"y": -2.2725158062,
				"z": -0.4637475891,
				"element": "Cl" 
			},
			{
				"x": 0.4120331385,
				"y": -1.6883099294,
				"z": 2.2781691388,
				"element": "O" 
			},
			{
				"x": 1.6555497342,
				"y": 0.1365570185,
				"z": 1.0479269353,
				"element": "O" 
			},
			{
				"x": -4.1641141214,
				"y": -1.4039623532,
				"z": 0.0290526477,
				"element": "H" 
			},
			{
				"x": -2.4999882437,
				"y": 2.440795101,
				"z": -0.8580503732,
				"element": "H" 
			}
		],
		 "valence_orbital": [ 
			{
				"type": "occ",
				"energy": -0.31473,
				"method": "rhf"
			},
			{
				"type": "occ",
				"energy": -0.30702,
				"method": "rhf"
			},
			{
				"type": "occ",
				"energy": -0.29625,
				"method": "rhf"
			},
			{
				"type": "occ",
				"energy": -0.2925,
				"method": "rhf"
			},
			{
				"type": "occ",
				"energy": -0.2759,
				"method": "rhf"
			},
			{
				"type": "unocc",
				"energy": -0.09875,
				"method": "rhf"
			},
			{
				"type": "unocc",
				"energy": -0.06903,
				"method": "rhf"
			},
			{
				"type": "unocc",
				"energy": -0.06375,
				"method": "rhf"
			},
			{
				"type": "unocc",
				"energy": -0.04214,
				"method": "rhf"
			},
			{
				"type": "unocc",
				"energy": -0.00229,
				"method": "rhf"
			}
		],
		"cosmo_sigma_profile": { 
			"-0.025": 0.0,
			"-0.024": 0.0,
			"-0.023": 0.0,
			"-0.022": 0.0,
			"-0.021": 0.0,
			"-0.02": 0.0,
			"-0.019": 0.0,
			"-0.018": 0.0,
			"-0.017": 0.0,
			"-0.016": 0.0,
			"-0.015": 0.0,
			"-0.014": 0.0,
			"-0.013": 0.0,
			"-0.012": 0.0,
			"-0.011": 0.0866251135782,
			"-0.01": 2.38613593062,
			"-0.009": 3.12437055048,
			"-0.008": 3.69163355713,
			"-0.007": 4.36549288194,
			"-0.006": 7.34119935967,
			"-0.005": 8.52526618935,
			"-0.004": 12.1290109305,
			"-0.003": 23.431385562,
			"-0.002": 24.7443172488,
			"-0.001": 18.308068883,
			"0.0": 13.9692281616,
			"0.001": 17.0653812753,
			"0.002": 30.4667550068,
			"0.003": 27.1383726327,
			"0.004": 7.59504861819,
			"0.005": 4.37618082884,
			"0.006": 4.37756006415,
			"0.007": 8.9729265555,
			"0.008": 9.4439009347,
			"0.009": 1.15626779607,
			"0.01": 0.0,
			"0.011": 0.0,
			"0.012": 0.0,
			"0.013": 0.0,
			"0.014": 0.0,
			"0.015": 0.0,
			"0.016": 0.0,
			"0.017": 0.0,
			"0.018": 0.0,
			"0.019": 0.0,
			"0.02": 0.0,
			"0.021": 0.0,
			"0.022": 0.0,
			"0.023": 0.0,
			"0.024": 0.0,
			"0.025": 0.0
		}
	}
}
