{
	 "smiles": "ClC1=CC=C(O[Si]23OCCN(CCO2)CCO3)C=C1", 
	 "Tm": 439.15, 
	 "num_atms": 35, 
	 "gaussian": { 
		 "optdone": 1, 
		 "sigma_profile": "yes", 
		 "theory": "DFT", 
		 "functional": "B3LYP", 
		 "basiset": "6-31G**", 
		 "properties": { 
			 "R2extent": 8893.6842, 
			 "electric_dipole_moment_norm": 9.03145631557, 
			 "electric_quadrupole_moment_norm": 14.3042346094, 
			 "total_energy": -1572.40328616, 
			 "HOMO_LUMO_gap": 0.2122, 
			 "cosmo_polarized_energy": -18.16, 
			 "cosmo_cavitation_energy": 38.31, 
			 "cosmo_dispersion_energy": -27.0, 
			 "cosmo_repulsion_energy": 2.14, 
			 "cosmo_total_nonelectrostatic_energy": 13.45, 
			 "SMD_solvation_energy": 5.99 
		},
		"coords": [
			{
				"x": 0.2775765018,
				"y": 5.613075521,
				"z": -4.8406015621,
				"element": "Cl" 
			},
			{
				"x": 0.5128263552,
				"y": 4.6604517484,
				"z": -3.3742587399,
				"element": "C" 
			},
			{
				"x": 0.6883381796,
				"y": 3.2816596909,
				"z": -3.4696668462,
				"element": "C" 
			},
			{
				"x": 0.8758160522,
				"y": 2.5269175304,
				"z": -2.3115915432,
				"element": "C" 
			},
			{
				"x": 0.8768636785,
				"y": 3.1515882702,
				"z": -1.0568370478,
				"element": "C" 
			},
			{
				"x": 1.0858885969,
				"y": 2.4756691274,
				"z": 0.1061209594,
				"element": "O" 
			},
			{
				"x": 0.5383715382,
				"y": 0.9739792976,
				"z": 0.5915602964,
				"element": "Si" 
			},
			{
				"x": 1.2958227159,
				"y": -0.0571330517,
				"z": -0.4875202697,
				"element": "O" 
			},
			{
				"x": 1.56656747,
				"y": -1.4120970515,
				"z": -0.189136371,
				"element": "C" 
			},
			{
				"x": 0.3140246941,
				"y": -2.0732856179,
				"z": 0.401905643,
				"element": "C" 
			},
			{
				"x": -0.2383863009,
				"y": -1.1629247127,
				"z": 1.4094010557,
				"element": "N" 
			},
			{
				"x": 0.387764456,
				"y": -1.2006098823,
				"z": 2.7346142073,
				"element": "C" 
			},
			{
				"x": 0.5971552416,
				"y": 0.2494582623,
				"z": 3.1933473224,
				"element": "C" 
			},
			{
				"x": 1.1492819128,
				"y": 1.0089811129,
				"z": 2.1396997908,
				"element": "O" 
			},
			{
				"x": -1.6907055972,
				"y": -0.9646642528,
				"z": 1.3791203054,
				"element": "C" 
			},
			{
				"x": -1.9983003426,
				"y": 0.0661853688,
				"z": 0.2842117307,
				"element": "C" 
			},
			{
				"x": -1.1090715609,
				"y": 1.1576200003,
				"z": 0.3946057053,
				"element": "O" 
			},
			{
				"x": 0.7063899243,
				"y": 4.5398745975,
				"z": -0.9789097611,
				"element": "C" 
			},
			{
				"x": 0.5242569888,
				"y": 5.2970685706,
				"z": -2.1336793361,
				"element": "C" 
			},
			{
				"x": 0.6860727741,
				"y": 2.8003792235,
				"z": -4.4418381651,
				"element": "H" 
			},
			{
				"x": 1.0361159489,
				"y": 1.4565093944,
				"z": -2.3743675194,
				"element": "H" 
			},
			{
				"x": 2.4068923692,
				"y": -1.481345782,
				"z": 0.5165384713,
				"element": "H" 
			},
			{
				"x": 1.8689735649,
				"y": -1.9199888037,
				"z": -1.1112016004,
				"element": "H" 
			},
			{
				"x": 0.5377578182,
				"y": -3.069507433,
				"z": 0.8100243561,
				"element": "H" 
			},
			{
				"x": -0.4305688234,
				"y": -2.1982405482,
				"z": -0.3896050778,
				"element": "H" 
			},
			{
				"x": -0.2013508352,
				"y": -1.775168661,
				"z": 3.4638527317,
				"element": "H" 
			},
			{
				"x": 1.3624652272,
				"y": -1.6874614805,
				"z": 2.637156382,
				"element": "H" 
			},
			{
				"x": 1.2838664029,
				"y": 0.2850567083,
				"z": 4.0458695991,
				"element": "H" 
			},
			{
				"x": -0.3564832297,
				"y": 0.689377292,
				"z": 3.520458268,
				"element": "H" 
			},
			{
				"x": -1.9989448259,
				"y": -0.5587409564,
				"z": 2.3469759213,
				"element": "H" 
			},
			{
				"x": -2.2420453145,
				"y": -1.9024451242,
				"z": 1.218667731,
				"element": "H" 
			},
			{
				"x": -3.0232487336,
				"y": 0.4385781979,
				"z": 0.3861398598,
				"element": "H" 
			},
			{
				"x": -1.9128583295,
				"y": -0.3937158946,
				"z": -0.7112721332,
				"element": "H" 
			},
			{
				"x": 0.7177442425,
				"y": 5.0115335767,
				"z": -0.0019672013,
				"element": "H" 
			},
			{
				"x": 0.3901312395,
				"y": 6.3715657618,
				"z": -2.0717171626,
				"element": "H" 
			}
		],
		 "valence_orbital": [ 
			{
				"type": "occ",
				"energy": -0.28447,
				"method": "rhf"
			},
			{
				"type": "occ",
				"energy": -0.28184,
				"method": "rhf"
			},
			{
				"type": "occ",
				"energy": -0.26397,
				"method": "rhf"
			},
			{
				"type": "occ",
				"energy": -0.24292,
				"method": "rhf"
			},
			{
				"type": "occ",
				"energy": -0.20564,
				"method": "rhf"
			},
			{
				"type": "unocc",
				"energy": 0.00656,
				"method": "rhf"
			},
			{
				"type": "unocc",
				"energy": 0.01889,
				"method": "rhf"
			},
			{
				"type": "unocc",
				"energy": 0.04766,
				"method": "rhf"
			},
			{
				"type": "unocc",
				"energy": 0.06182,
				"method": "rhf"
			},
			{
				"type": "unocc",
				"energy": 0.07842,
				"method": "rhf"
			}
		],
		"cosmo_sigma_profile": { 
			"-0.025": 0.0,
			"-0.024": 0.0,
			"-0.023": 0.0,
			"-0.022": 0.0,
			"-0.021": 0.0,
			"-0.02": 0.0,
			"-0.019": 0.0,
			"-0.018": 0.0,
			"-0.017": 0.0,
			"-0.016": 0.0,
			"-0.015": 0.0,
			"-0.014": 0.0,
			"-0.013": 0.0,
			"-0.012": 0.0,
			"-0.011": 0.0,
			"-0.01": 0.0,
			"-0.009": 0.0,
			"-0.008": 0.130711114931,
			"-0.007": 5.33750151045,
			"-0.006": 16.4700088072,
			"-0.005": 40.9332092726,
			"-0.004": 36.9438823236,
			"-0.003": 30.2251247931,
			"-0.002": 19.0308502421,
			"-0.001": 12.3373664621,
			"0.0": 10.8563990426,
			"0.001": 13.9324815182,
			"0.002": 15.8838486803,
			"0.003": 19.3233804319,
			"0.004": 24.6548810098,
			"0.005": 18.9135741762,
			"0.006": 7.83698548071,
			"0.007": 5.23037299482,
			"0.008": 5.00286380876,
			"0.009": 4.1454305019,
			"0.01": 3.58066030565,
			"0.011": 3.67953373017,
			"0.012": 2.31151654848,
			"0.013": 2.71127082662,
			"0.014": 1.71146239037,
			"0.015": 0.582939163645,
			"0.016": 0.0,
			"0.017": 0.0,
			"0.018": 0.0,
			"0.019": 0.0,
			"0.02": 0.0,
			"0.021": 0.0,
			"0.022": 0.0,
			"0.023": 0.0,
			"0.024": 0.0,
			"0.025": 0.0
		}
	}
}
