{
	 "smiles": "CCCCCCC(C)=O", 
	 "Tm": 254.65, 
	 "num_atms": 25, 
	 "gaussian": { 
		 "optdone": 1, 
		 "sigma_profile": "yes", 
		 "theory": "DFT", 
		 "functional": "B3LYP", 
		 "basiset": "6-31G**", 
		 "properties": { 
			 "R2extent": 1935.9749, 
			 "electric_dipole_moment_norm": 2.6280913854, 
			 "electric_quadrupole_moment_norm": 8.49947583854, 
			 "total_energy": -389.734031677, 
			 "HOMO_LUMO_gap": 0.23317, 
			 "cosmo_polarized_energy": -6.85, 
			 "cosmo_cavitation_energy": 26.49, 
			 "cosmo_dispersion_energy": -18.58, 
			 "cosmo_repulsion_energy": 1.56, 
			 "cosmo_total_nonelectrostatic_energy": 9.48, 
			 "SMD_solvation_energy": 4.85 
		},
		"coords": [
			{
				"x": 1.7120190053,
				"y": -1.2296996952,
				"z": 0.8792041658,
				"element": "C" 
			},
			{
				"x": 0.8904880525,
				"y": -2.4133972276,
				"z": 0.3501248793,
				"element": "C" 
			},
			{
				"x": -0.6412978295,
				"y": -2.2188307007,
				"z": 0.3584122735,
				"element": "C" 
			},
			{
				"x": -1.2549628883,
				"y": -1.5626589361,
				"z": -0.8944903115,
				"element": "C" 
			},
			{
				"x": -0.8735161918,
				"y": -0.1050737489,
				"z": -1.2012708612,
				"element": "C" 
			},
			{
				"x": -1.3052035394,
				"y": 0.8952197358,
				"z": -0.1272363312,
				"element": "C" 
			},
			{
				"x": -0.9698907061,
				"y": 2.3439812243,
				"z": -0.4640372489,
				"element": "C" 
			},
			{
				"x": -1.4731493069,
				"y": 3.400138769,
				"z": 0.5073279781,
				"element": "C" 
			},
			{
				"x": -0.3331334195,
				"y": 2.6451082376,
				"z": -1.4563201112,
				"element": "O" 
			},
			{
				"x": 1.4215256394,
				"y": -0.9822686662,
				"z": 1.9072192963,
				"element": "H" 
			},
			{
				"x": 2.7807449035,
				"y": -1.469402308,
				"z": 0.889769788,
				"element": "H" 
			},
			{
				"x": 1.586844926,
				"y": -0.3279996302,
				"z": 0.2730051492,
				"element": "H" 
			},
			{
				"x": 1.1308381183,
				"y": -3.2905407379,
				"z": 0.9641833924,
				"element": "H" 
			},
			{
				"x": 1.2178597365,
				"y": -2.6651336043,
				"z": -0.6679784945,
				"element": "H" 
			},
			{
				"x": -0.9320708124,
				"y": -1.664277193,
				"z": 1.2616227034,
				"element": "H" 
			},
			{
				"x": -1.1124883692,
				"y": -3.2047506939,
				"z": 0.459767655,
				"element": "H" 
			},
			{
				"x": -0.9883079625,
				"y": -2.1758196441,
				"z": -1.7659669614,
				"element": "H" 
			},
			{
				"x": -2.3492926406,
				"y": -1.6260653095,
				"z": -0.8101495006,
				"element": "H" 
			},
			{
				"x": 0.2040325145,
				"y": -0.011331437,
				"z": -1.3683495916,
				"element": "H" 
			},
			{
				"x": -1.335972558,
				"y": 0.1873976443,
				"z": -2.1510397115,
				"element": "H" 
			},
			{
				"x": -0.83659461,
				"y": 0.6705166828,
				"z": 0.8415476538,
				"element": "H" 
			},
			{
				"x": -2.3871478671,
				"y": 0.8273590777,
				"z": 0.0612349197,
				"element": "H" 
			},
			{
				"x": -1.1565554878,
				"y": 3.1731274504,
				"z": 1.5316139443,
				"element": "H" 
			},
			{
				"x": -1.0979432273,
				"y": 4.3812242837,
				"z": 0.2127496397,
				"element": "H" 
			},
			{
				"x": -2.5696254797,
				"y": 3.417176427,
				"z": 0.5098556851,
				"element": "H" 
			}
		],
		 "valence_orbital": [ 
			{
				"type": "occ",
				"energy": -0.34004,
				"method": "rhf"
			},
			{
				"type": "occ",
				"energy": -0.31671,
				"method": "rhf"
			},
			{
				"type": "occ",
				"energy": -0.31209,
				"method": "rhf"
			},
			{
				"type": "occ",
				"energy": -0.30609,
				"method": "rhf"
			},
			{
				"type": "occ",
				"energy": -0.24185,
				"method": "rhf"
			},
			{
				"type": "unocc",
				"energy": -0.00868,
				"method": "rhf"
			},
			{
				"type": "unocc",
				"energy": 0.07394,
				"method": "rhf"
			},
			{
				"type": "unocc",
				"energy": 0.09841,
				"method": "rhf"
			},
			{
				"type": "unocc",
				"energy": 0.11368,
				"method": "rhf"
			},
			{
				"type": "unocc",
				"energy": 0.11947,
				"method": "rhf"
			}
		],
		"cosmo_sigma_profile": { 
			"-0.025": 0.0,
			"-0.024": 0.0,
			"-0.023": 0.0,
			"-0.022": 0.0,
			"-0.021": 0.0,
			"-0.02": 0.0,
			"-0.019": 0.0,
			"-0.018": 0.0,
			"-0.017": 0.0,
			"-0.016": 0.0,
			"-0.015": 0.0,
			"-0.014": 0.0,
			"-0.013": 0.0,
			"-0.012": 0.0,
			"-0.011": 0.0,
			"-0.01": 0.0,
			"-0.009": 0.0,
			"-0.008": 0.0,
			"-0.007": 0.0,
			"-0.006": 5.09405215427,
			"-0.005": 8.77486916975,
			"-0.004": 9.96764886433,
			"-0.003": 15.9423374329,
			"-0.002": 32.9168422937,
			"-0.001": 36.493987454,
			"0.0": 34.0155365702,
			"0.001": 25.9854253837,
			"0.002": 10.2831724104,
			"0.003": 2.37766261104,
			"0.004": 1.62577220828,
			"0.005": 1.79006355433,
			"0.006": 1.93818686749,
			"0.007": 1.06538480704,
			"0.008": 1.78183873546,
			"0.009": 1.86036028432,
			"0.01": 2.1371572425,
			"0.011": 2.32983944486,
			"0.012": 4.51049600029,
			"0.013": 3.00582199623,
			"0.014": 0.462764471776,
			"0.015": 0.0,
			"0.016": 0.0,
			"0.017": 0.0,
			"0.018": 0.0,
			"0.019": 0.0,
			"0.02": 0.0,
			"0.021": 0.0,
			"0.022": 0.0,
			"0.023": 0.0,
			"0.024": 0.0,
			"0.025": 0.0
		}
	}
}
