{
	 "smiles": "CCOC(CC(OCC)OCC)OCC", 
	 "Tm": 183.15, 
	 "num_atms": 39, 
	 "gaussian": { 
		 "optdone": 1, 
		 "sigma_profile": "yes", 
		 "theory": "DFT", 
		 "functional": "B3LYP", 
		 "basiset": "6-31G**", 
		 "properties": { 
			 "R2extent": 4965.0342, 
			 "electric_dipole_moment_norm": 1.11737579175, 
			 "electric_quadrupole_moment_norm": 11.3014484519, 
			 "total_energy": -734.502045224, 
			 "HOMO_LUMO_gap": 0.31899, 
			 "cosmo_polarized_energy": -11.07, 
			 "cosmo_cavitation_energy": 39.31, 
			 "cosmo_dispersion_energy": -26.51, 
			 "cosmo_repulsion_energy": 2.17, 
			 "cosmo_total_nonelectrostatic_energy": 14.96, 
			 "SMD_solvation_energy": 7.02 
		},
		"coords": [
			{
				"x": 1.6570841805,
				"y": 1.7840942895,
				"z": 0.8525624253,
				"element": "C" 
			},
			{
				"x": 0.5330622889,
				"y": 2.7429778119,
				"z": 0.457761395,
				"element": "C" 
			},
			{
				"x": -0.780056466,
				"y": 2.1917819607,
				"z": 0.5147904723,
				"element": "O" 
			},
			{
				"x": -1.2805826828,
				"y": 1.4272532361,
				"z": -0.5689943807,
				"element": "C" 
			},
			{
				"x": -1.0145518416,
				"y": -0.0809296031,
				"z": -0.4313318237,
				"element": "C" 
			},
			{
				"x": -1.5811683276,
				"y": -0.6807024998,
				"z": 0.8610549276,
				"element": "C" 
			},
			{
				"x": -0.6245871024,
				"y": -0.556612914,
				"z": 1.8644640892,
				"element": "O" 
			},
			{
				"x": -1.0981502319,
				"y": -0.8870788408,
				"z": 3.1704469997,
				"element": "C" 
			},
			{
				"x": 0.0465899876,
				"y": -0.7053614207,
				"z": 4.1519581918,
				"element": "C" 
			},
			{
				"x": -1.867930029,
				"y": -2.0672261041,
				"z": 0.6960372856,
				"element": "O" 
			},
			{
				"x": -3.1630124448,
				"y": -2.358733576,
				"z": 0.1932399732,
				"element": "C" 
			},
			{
				"x": -3.3399823206,
				"y": -3.8686313535,
				"z": 0.1823445791,
				"element": "C" 
			},
			{
				"x": -0.9412358495,
				"y": 1.9659343104,
				"z": -1.8306937804,
				"element": "O" 
			},
			{
				"x": 0.1236703736,
				"y": 1.4032209334,
				"z": -2.5987893833,
				"element": "C" 
			},
			{
				"x": 0.3008222634,
				"y": 2.2833319739,
				"z": -3.8260593045,
				"element": "C" 
			},
			{
				"x": 1.4189561931,
				"y": 1.2845992379,
				"z": 1.7938754736,
				"element": "H" 
			},
			{
				"x": 1.8296409565,
				"y": 1.0078691108,
				"z": 0.1008985299,
				"element": "H" 
			},
			{
				"x": 2.5924877728,
				"y": 2.3433684347,
				"z": 0.9708908704,
				"element": "H" 
			},
			{
				"x": 0.5054039851,
				"y": 3.5734642638,
				"z": 1.1716296233,
				"element": "H" 
			},
			{
				"x": 0.7126664009,
				"y": 3.1789437933,
				"z": -0.5323615811,
				"element": "H" 
			},
			{
				"x": -2.365548638,
				"y": 1.5792044094,
				"z": -0.4920443287,
				"element": "H" 
			},
			{
				"x": -1.503174811,
				"y": -0.5782099371,
				"z": -1.2767948827,
				"element": "H" 
			},
			{
				"x": 0.0490147343,
				"y": -0.327391611,
				"z": -0.4702743407,
				"element": "H" 
			},
			{
				"x": -2.5174804232,
				"y": -0.1653075807,
				"z": 1.1543334979,
				"element": "H" 
			},
			{
				"x": -1.4619088075,
				"y": -1.921810545,
				"z": 3.18093839,
				"element": "H" 
			},
			{
				"x": -1.9430156304,
				"y": -0.2294889482,
				"z": 3.4317868884,
				"element": "H" 
			},
			{
				"x": 0.8876578285,
				"y": -1.3513472359,
				"z": 3.883747083,
				"element": "H" 
			},
			{
				"x": 0.3955255649,
				"y": 0.3315116232,
				"z": 4.1556180443,
				"element": "H" 
			},
			{
				"x": -0.2783697276,
				"y": -0.9636478243,
				"z": 5.1649516633,
				"element": "H" 
			},
			{
				"x": -3.9323801094,
				"y": -1.8821199625,
				"z": 0.8237314102,
				"element": "H" 
			},
			{
				"x": -3.2895529289,
				"y": -1.9565684214,
				"z": -0.8256310844,
				"element": "H" 
			},
			{
				"x": -3.2345756776,
				"y": -4.2742632262,
				"z": 1.1927403755,
				"element": "H" 
			},
			{
				"x": -4.3308644325,
				"y": -4.1349840327,
				"z": -0.1989166587,
				"element": "H" 
			},
			{
				"x": -2.5848066108,
				"y": -4.3383485015,
				"z": -0.4543326288,
				"element": "H" 
			},
			{
				"x": -0.1192802046,
				"y": 0.3758991322,
				"z": -2.9037082759,
				"element": "H" 
			},
			{
				"x": 1.0576226767,
				"y": 1.363130795,
				"z": -2.0225782983,
				"element": "H" 
			},
			{
				"x": -0.6279491919,
				"y": 2.3259648951,
				"z": -4.402172046,
				"element": "H" 
			},
			{
				"x": 0.5680405654,
				"y": 3.3034759136,
				"z": -3.5353096214,
				"element": "H" 
			},
			{
				"x": 1.0923187173,
				"y": 1.8853380137,
				"z": -4.4691097694,
				"element": "H" 
			}
		],
		 "valence_orbital": [ 
			{
				"type": "occ",
				"energy": -0.2998,
				"method": "rhf"
			},
			{
				"type": "occ",
				"energy": -0.26796,
				"method": "rhf"
			},
			{
				"type": "occ",
				"energy": -0.26284,
				"method": "rhf"
			},
			{
				"type": "occ",
				"energy": -0.25387,
				"method": "rhf"
			},
			{
				"type": "occ",
				"energy": -0.23936,
				"method": "rhf"
			},
			{
				"type": "unocc",
				"energy": 0.07963,
				"method": "rhf"
			},
			{
				"type": "unocc",
				"energy": 0.08707,
				"method": "rhf"
			},
			{
				"type": "unocc",
				"energy": 0.10244,
				"method": "rhf"
			},
			{
				"type": "unocc",
				"energy": 0.1096,
				"method": "rhf"
			},
			{
				"type": "unocc",
				"energy": 0.11305,
				"method": "rhf"
			}
		],
		"cosmo_sigma_profile": { 
			"-0.025": 0.0,
			"-0.024": 0.0,
			"-0.023": 0.0,
			"-0.022": 0.0,
			"-0.021": 0.0,
			"-0.02": 0.0,
			"-0.019": 0.0,
			"-0.018": 0.0,
			"-0.017": 0.0,
			"-0.016": 0.0,
			"-0.015": 0.0,
			"-0.014": 0.0,
			"-0.013": 0.0,
			"-0.012": 0.0,
			"-0.011": 0.00176377551945,
			"-0.01": 0.0543903151105,
			"-0.009": 0.0667118373364,
			"-0.008": 0.248428027878,
			"-0.007": 0.19716441373,
			"-0.006": 2.12937817382,
			"-0.005": 9.71111884899,
			"-0.004": 28.2319491897,
			"-0.003": 50.428914492,
			"-0.002": 49.0263508519,
			"-0.001": 38.9535630551,
			"0.0": 32.924645647,
			"0.001": 26.8392247914,
			"0.002": 10.1301394796,
			"0.003": 7.20507786099,
			"0.004": 4.79776764826,
			"0.005": 5.53886604327,
			"0.006": 4.67691759093,
			"0.007": 4.82323090418,
			"0.008": 4.96524016419,
			"0.009": 5.22239501852,
			"0.01": 3.83309494949,
			"0.011": 4.6594243916,
			"0.012": 4.15490545447,
			"0.013": 3.71658638322,
			"0.014": 0.912780914746,
			"0.015": 0.0,
			"0.016": 0.0,
			"0.017": 0.0,
			"0.018": 0.0,
			"0.019": 0.0,
			"0.02": 0.0,
			"0.021": 0.0,
			"0.022": 0.0,
			"0.023": 0.0,
			"0.024": 0.0,
			"0.025": 0.0
		}
	}
}
