{
	 "smiles": "CC1=C(N)C=CC(=C1)C1=NC(=NO1)C1CC1", 
	 "Tm": 361.15, 
	 "num_atms": 29, 
	 "gaussian": { 
		 "optdone": 1, 
		 "sigma_profile": "yes", 
		 "theory": "DFT", 
		 "functional": "B3LYP", 
		 "basiset": "6-31G**", 
		 "properties": { 
			 "R2extent": 6355.828, 
			 "electric_dipole_moment_norm": 4.74791633667, 
			 "electric_quadrupole_moment_norm": 19.9993493367, 
			 "total_energy": -704.54734445, 
			 "HOMO_LUMO_gap": 0.16892, 
			 "cosmo_polarized_energy": -14.04, 
			 "cosmo_cavitation_energy": 33.08, 
			 "cosmo_dispersion_energy": -24.21, 
			 "cosmo_repulsion_energy": 1.89, 
			 "cosmo_total_nonelectrostatic_energy": 10.75, 
			 "SMD_solvation_energy": 3.63 
		},
		"coords": [
			{
				"x": -3.5074335719,
				"y": 0.9850578519,
				"z": 0.6768058121,
				"element": "C" 
			},
			{
				"x": -2.1697793377,
				"y": 1.0096344939,
				"z": 1.3738567895,
				"element": "C" 
			},
			{
				"x": -2.0669831323,
				"y": 0.6187265877,
				"z": 2.7336624984,
				"element": "C" 
			},
			{
				"x": -3.2007299336,
				"y": 0.2498886175,
				"z": 3.4428400347,
				"element": "N" 
			},
			{
				"x": -0.8143964596,
				"y": 0.6606656794,
				"z": 3.3737570765,
				"element": "C" 
			},
			{
				"x": 0.319979951,
				"y": 1.0772351397,
				"z": 2.6945207248,
				"element": "C" 
			},
			{
				"x": 0.2319940927,
				"y": 1.4617146221,
				"z": 1.3475917267,
				"element": "C" 
			},
			{
				"x": -1.0197774913,
				"y": 1.4204818574,
				"z": 0.7105370055,
				"element": "C" 
			},
			{
				"x": 1.4013391584,
				"y": 1.8994790486,
				"z": 0.6027134726,
				"element": "C" 
			},
			{
				"x": 1.4684334102,
				"y": 2.2829206563,
				"z": -0.6479771343,
				"element": "N" 
			},
			{
				"x": 2.8044532967,
				"y": 2.5755216937,
				"z": -0.800822579,
				"element": "C" 
			},
			{
				"x": 3.5371097624,
				"y": 2.3920871506,
				"z": 0.2734956794,
				"element": "N" 
			},
			{
				"x": 2.5958949977,
				"y": 1.9358119794,
				"z": 1.2246536904,
				"element": "O" 
			},
			{
				"x": 3.3843940647,
				"y": 3.0581857828,
				"z": -2.0653446544,
				"element": "C" 
			},
			{
				"x": 2.820086715,
				"y": 2.5505306242,
				"z": -3.3797164557,
				"element": "C" 
			},
			{
				"x": 2.5590422506,
				"y": 3.9656341923,
				"z": -2.9592596445,
				"element": "C" 
			},
			{
				"x": -3.4200493247,
				"y": 1.3502061754,
				"z": -0.3490076162,
				"element": "H" 
			},
			{
				"x": -4.2433438098,
				"y": 1.6121712346,
				"z": 1.1956368251,
				"element": "H" 
			},
			{
				"x": -3.9266785575,
				"y": -0.0299799135,
				"z": 0.624530193,
				"element": "H" 
			},
			{
				"x": -3.9775738945,
				"y": -0.1110476,
				"z": 2.9095175628,
				"element": "H" 
			},
			{
				"x": -3.0431724347,
				"y": -0.2520549342,
				"z": 4.3046394415,
				"element": "H" 
			},
			{
				"x": -0.7417728987,
				"y": 0.3634946553,
				"z": 4.4169660331,
				"element": "H" 
			},
			{
				"x": 1.2784653433,
				"y": 1.1027056563,
				"z": 3.2017309097,
				"element": "H" 
			},
			{
				"x": -1.0795249863,
				"y": 1.7218484904,
				"z": -0.330782966,
				"element": "H" 
			},
			{
				"x": 4.4526973155,
				"y": 3.2397619021,
				"z": -2.0128348667,
				"element": "H" 
			},
			{
				"x": 3.5260030444,
				"y": 2.3635600002,
				"z": -4.1829418468,
				"element": "H" 
			},
			{
				"x": 1.9965065108,
				"y": 1.8470617118,
				"z": -3.3165489378,
				"element": "H" 
			},
			{
				"x": 3.0823610567,
				"y": 4.7691562116,
				"z": -3.4681004806,
				"element": "H" 
			},
			{
				"x": 1.5603548624,
				"y": 4.2117404323,
				"z": -2.6140182939,
				"element": "H" 
			}
		],
		 "valence_orbital": [ 
			{
				"type": "occ",
				"energy": -0.2895,
				"method": "rhf"
			},
			{
				"type": "occ",
				"energy": -0.28002,
				"method": "rhf"
			},
			{
				"type": "occ",
				"energy": -0.25701,
				"method": "rhf"
			},
			{
				"type": "occ",
				"energy": -0.25187,
				"method": "rhf"
			},
			{
				"type": "occ",
				"energy": -0.20618,
				"method": "rhf"
			},
			{
				"type": "unocc",
				"energy": -0.03726,
				"method": "rhf"
			},
			{
				"type": "unocc",
				"energy": -0.00355,
				"method": "rhf"
			},
			{
				"type": "unocc",
				"energy": 0.03189,
				"method": "rhf"
			},
			{
				"type": "unocc",
				"energy": 0.06422,
				"method": "rhf"
			},
			{
				"type": "unocc",
				"energy": 0.07388,
				"method": "rhf"
			}
		],
		"cosmo_sigma_profile": { 
			"-0.025": 0.0,
			"-0.024": 0.0,
			"-0.023": 0.0,
			"-0.022": 0.0,
			"-0.021": 0.0,
			"-0.02": 0.0,
			"-0.019": 0.0,
			"-0.018": 0.0,
			"-0.017": 0.0,
			"-0.016": 0.0,
			"-0.015": 0.0,
			"-0.014": 0.0690076157762,
			"-0.013": 1.36142516001,
			"-0.012": 2.70864898063,
			"-0.011": 3.19144387696,
			"-0.01": 2.71358178792,
			"-0.009": 3.1054413279,
			"-0.008": 3.0138483967,
			"-0.007": 3.13797505143,
			"-0.006": 8.37155047007,
			"-0.005": 17.1009161645,
			"-0.004": 19.0312347945,
			"-0.003": 17.0746461465,
			"-0.002": 17.7558708586,
			"-0.001": 21.9980410495,
			"0.0": 23.4698628611,
			"0.001": 20.9758587779,
			"0.002": 21.2276737403,
			"0.003": 16.9486747371,
			"0.004": 18.5995460313,
			"0.005": 11.1943515859,
			"0.006": 5.74871461123,
			"0.007": 5.71062312182,
			"0.008": 4.93114277735,
			"0.009": 3.89130624713,
			"0.01": 2.12309259861,
			"0.011": 2.79557665511,
			"0.012": 2.30004780427,
			"0.013": 1.25980663997,
			"0.014": 1.13061514036,
			"0.015": 0.0397984543781,
			"0.016": 0.0,
			"0.017": 0.0,
			"0.018": 0.0,
			"0.019": 0.0,
			"0.02": 0.0,
			"0.021": 0.0,
			"0.022": 0.0,
			"0.023": 0.0,
			"0.024": 0.0,
			"0.025": 0.0
		}
	}
}
