{
	 "smiles": "ClC1=CC=C(C=C1)C1=CSC(=N1)C(=NNC1=CC=C(Cl)C=C1Cl)C#N", 
	 "Tm": 519.15, 
	 "num_atms": 34, 
	 "gaussian": { 
		 "optdone": 1, 
		 "sigma_profile": "yes", 
		 "theory": "DFT", 
		 "functional": "B3LYP", 
		 "basiset": "6-31G**", 
		 "properties": { 
			 "R2extent": 20433.6637, 
			 "electric_dipole_moment_norm": 5.28246322656, 
			 "electric_quadrupole_moment_norm": 14.008054437, 
			 "total_energy": -2650.94217657, 
			 "HOMO_LUMO_gap": 0.12964, 
			 "cosmo_polarized_energy": -16.69, 
			 "cosmo_cavitation_energy": 48.67, 
			 "cosmo_dispersion_energy": -34.84, 
			 "cosmo_repulsion_energy": 2.58, 
			 "cosmo_total_nonelectrostatic_energy": 16.41, 
			 "SMD_solvation_energy": 6.96 
		},
		"coords": [
			{
				"x": 4.0399516025,
				"y": 7.4806021961,
				"z": 2.0229305155,
				"element": "Cl" 
			},
			{
				"x": 3.0794167391,
				"y": 6.1212561963,
				"z": 1.4651667981,
				"element": "C" 
			},
			{
				"x": 2.6145185942,
				"y": 5.1815887442,
				"z": 2.3844760238,
				"element": "C" 
			},
			{
				"x": 1.853575912,
				"y": 4.1057089614,
				"z": 1.9346107417,
				"element": "C" 
			},
			{
				"x": 1.5488473274,
				"y": 3.9575370376,
				"z": 0.5717896757,
				"element": "C" 
			},
			{
				"x": 2.0324457446,
				"y": 4.9164595126,
				"z": -0.3325811895,
				"element": "C" 
			},
			{
				"x": 2.7937156152,
				"y": 5.9960238717,
				"z": 0.1048897904,
				"element": "C" 
			},
			{
				"x": 0.7354788769,
				"y": 2.8090428957,
				"z": 0.1286493113,
				"element": "C" 
			},
			{
				"x": 0.2629565375,
				"y": 2.5737034059,
				"z": -1.1443500817,
				"element": "C" 
			},
			{
				"x": -0.6604974556,
				"y": 1.1189326087,
				"z": -1.1968718218,
				"element": "S" 
			},
			{
				"x": -0.3314653825,
				"y": 0.888021261,
				"z": 0.525334988,
				"element": "C" 
			},
			{
				"x": 0.3839396644,
				"y": 1.8473953476,
				"z": 1.0469225122,
				"element": "N" 
			},
			{
				"x": -0.8529894165,
				"y": -0.2175272444,
				"z": 1.3392073037,
				"element": "C" 
			},
			{
				"x": -1.3034968033,
				"y": -1.3877924774,
				"z": 0.9790918525,
				"element": "N" 
			},
			{
				"x": -1.3239646135,
				"y": -1.782627393,
				"z": -0.2861092329,
				"element": "N" 
			},
			{
				"x": -1.7869745439,
				"y": -3.0672545036,
				"z": -0.6010239744,
				"element": "C" 
			},
			{
				"x": -2.3601565819,
				"y": -3.8994937882,
				"z": 0.371798234,
				"element": "C" 
			},
			{
				"x": -2.8259461175,
				"y": -5.1654658611,
				"z": 0.0386684901,
				"element": "C" 
			},
			{
				"x": -2.72525251,
				"y": -5.6158646122,
				"z": -1.2788038921,
				"element": "C" 
			},
			{
				"x": -3.3130508939,
				"y": -7.2106644925,
				"z": -1.7052001617,
				"element": "Cl" 
			},
			{
				"x": -2.1625229797,
				"y": -4.8102844216,
				"z": -2.2659417241,
				"element": "C" 
			},
			{
				"x": -1.7000358475,
				"y": -3.5440732893,
				"z": -1.9195459651,
				"element": "C" 
			},
			{
				"x": -0.990142955,
				"y": -2.5325794115,
				"z": -3.1724455718,
				"element": "Cl" 
			},
			{
				"x": -0.8668821606,
				"y": 0.0116216808,
				"z": 2.7611796577,
				"element": "C" 
			},
			{
				"x": -0.8851585179,
				"y": 0.1912709334,
				"z": 3.9094628681,
				"element": "N" 
			},
			{
				"x": 2.844603912,
				"y": 5.2911572109,
				"z": 3.4383775619,
				"element": "H" 
			},
			{
				"x": 1.4856828379,
				"y": 3.3680473334,
				"z": 2.6386539768,
				"element": "H" 
			},
			{
				"x": 1.8239116147,
				"y": 4.8258816496,
				"z": -1.3941781446,
				"element": "H" 
			},
			{
				"x": 3.1653237367,
				"y": 6.7321288646,
				"z": -0.5990708878,
				"element": "H" 
			},
			{
				"x": 0.384780822,
				"y": 3.1683508424,
				"z": -2.0374294005,
				"element": "H" 
			},
			{
				"x": -0.8290640185,
				"y": -1.2766191957,
				"z": -1.0176433699,
				"element": "H" 
			},
			{
				"x": -2.4287158911,
				"y": -3.5332602771,
				"z": 1.3885653663,
				"element": "H" 
			},
			{
				"x": -3.2662189601,
				"y": -5.8009247007,
				"z": 0.7983908835,
				"element": "H" 
			},
			{
				"x": -2.0823138878,
				"y": -5.1559988855,
				"z": -3.2890711332,
				"element": "H" 
			}
		],
		 "valence_orbital": [ 
			{
				"type": "occ",
				"energy": -0.28475,
				"method": "rhf"
			},
			{
				"type": "occ",
				"energy": -0.27872,
				"method": "rhf"
			},
			{
				"type": "occ",
				"energy": -0.27196,
				"method": "rhf"
			},
			{
				"type": "occ",
				"energy": -0.24241,
				"method": "rhf"
			},
			{
				"type": "occ",
				"energy": -0.2268,
				"method": "rhf"
			},
			{
				"type": "unocc",
				"energy": -0.09716,
				"method": "rhf"
			},
			{
				"type": "unocc",
				"energy": -0.05495,
				"method": "rhf"
			},
			{
				"type": "unocc",
				"energy": -0.03922,
				"method": "rhf"
			},
			{
				"type": "unocc",
				"energy": -0.02754,
				"method": "rhf"
			},
			{
				"type": "unocc",
				"energy": -0.02056,
				"method": "rhf"
			}
		],
		"cosmo_sigma_profile": { 
			"-0.025": 0.0,
			"-0.024": 0.0,
			"-0.023": 0.0,
			"-0.022": 0.0,
			"-0.021": 0.0,
			"-0.02": 0.0,
			"-0.019": 0.0,
			"-0.018": 0.0,
			"-0.017": 0.0,
			"-0.016": 0.0,
			"-0.015": 0.0,
			"-0.014": 0.00965136684886,
			"-0.013": 0.482309814153,
			"-0.012": 0.677537811992,
			"-0.011": 1.87268212707,
			"-0.01": 3.8365474924,
			"-0.009": 4.45458281217,
			"-0.008": 7.8417383413,
			"-0.007": 12.6352457387,
			"-0.006": 14.6510823026,
			"-0.005": 16.5936846651,
			"-0.004": 16.4898913324,
			"-0.003": 22.0596071927,
			"-0.002": 26.7951245662,
			"-0.001": 36.6251190953,
			"0.0": 42.4643736559,
			"0.001": 49.5885876888,
			"0.002": 38.9040221566,
			"0.003": 40.6404635146,
			"0.004": 28.6991476858,
			"0.005": 10.8902068395,
			"0.006": 4.70684069974,
			"0.007": 5.6180532712,
			"0.008": 5.75792992003,
			"0.009": 3.34302835591,
			"0.01": 3.14954192853,
			"0.011": 2.56270228104,
			"0.012": 2.29336017685,
			"0.013": 0.664012205377,
			"0.014": 0.0,
			"0.015": 0.0,
			"0.016": 0.0,
			"0.017": 0.0,
			"0.018": 0.0,
			"0.019": 0.0,
			"0.02": 0.0,
			"0.021": 0.0,
			"0.022": 0.0,
			"0.023": 0.0,
			"0.024": 0.0,
			"0.025": 0.0
		}
	}
}
