{
	 "smiles": "ClC1=CNC=C1C1=C(C(Cl)=CC=C1)N(=O)=O", 
	 "Tm": 397.15, 
	 "num_atms": 22, 
	 "gaussian": { 
		 "optdone": 1, 
		 "sigma_profile": "yes", 
		 "theory": "DFT", 
		 "functional": "B3LYP", 
		 "basiset": "6-31G**", 
		 "properties": { 
			 "R2extent": 4374.7505, 
			 "electric_dipole_moment_norm": 3.9518699675, 
			 "electric_quadrupole_moment_norm": 18.9599716622, 
			 "total_energy": -1564.88972337, 
			 "HOMO_LUMO_gap": 0.15262, 
			 "cosmo_polarized_energy": -13.02, 
			 "cosmo_cavitation_energy": 30.97, 
			 "cosmo_dispersion_energy": -22.06, 
			 "cosmo_repulsion_energy": 1.72, 
			 "cosmo_total_nonelectrostatic_energy": 10.63, 
			 "SMD_solvation_energy": 7.47 
		},
		"coords": [
			{
				"x": -2.1658693048,
				"y": 1.9289446003,
				"z": -2.3548137735,
				"element": "Cl" 
			},
			{
				"x": -1.4035557054,
				"y": 2.1837366039,
				"z": -0.8121677095,
				"element": "C" 
			},
			{
				"x": -1.8431737617,
				"y": 3.0882446699,
				"z": 0.1251734042,
				"element": "C" 
			},
			{
				"x": -1.015019411,
				"y": 2.9650292555,
				"z": 1.2145498021,
				"element": "N" 
			},
			{
				"x": -0.0724745776,
				"y": 2.0026120765,
				"z": 0.9888378795,
				"element": "C" 
			},
			{
				"x": -0.2754917579,
				"y": 1.4746189592,
				"z": -0.2788223949,
				"element": "C" 
			},
			{
				"x": 0.5339415447,
				"y": 0.4366431555,
				"z": -0.9402387962,
				"element": "C" 
			},
			{
				"x": 0.9344430201,
				"y": -0.7384113176,
				"z": -0.2813601495,
				"element": "C" 
			},
			{
				"x": 1.7181197821,
				"y": -1.7089555605,
				"z": -0.9061864272,
				"element": "C" 
			},
			{
				"x": 2.1926555425,
				"y": -3.1561375498,
				"z": -0.0465844107,
				"element": "Cl" 
			},
			{
				"x": 2.113470836,
				"y": -1.535004966,
				"z": -2.2305949239,
				"element": "C" 
			},
			{
				"x": 1.7194242828,
				"y": -0.3821362374,
				"z": -2.9081131555,
				"element": "C" 
			},
			{
				"x": 0.9479688934,
				"y": 0.5878803256,
				"z": -2.274432401,
				"element": "C" 
			},
			{
				"x": 0.5002784056,
				"y": -0.9727274532,
				"z": 1.1119608234,
				"element": "N" 
			},
			{
				"x": 1.2725030773,
				"y": -0.6205685637,
				"z": 2.0018045873,
				"element": "O" 
			},
			{
				"x": -0.5926881778,
				"y": -1.4966096312,
				"z": 1.2753990019,
				"element": "O" 
			},
			{
				"x": -2.6701628386,
				"y": 3.7795186467,
				"z": 0.0987060598,
				"element": "H" 
			},
			{
				"x": -1.0924575151,
				"y": 3.5050941053,
				"z": 2.0615383081,
				"element": "H" 
			},
			{
				"x": 0.6801899749,
				"y": 1.7619213709,
				"z": 1.7229894559,
				"element": "H" 
			},
			{
				"x": 2.7181306945,
				"y": -2.2948611902,
				"z": -2.7120230834,
				"element": "H" 
			},
			{
				"x": 2.0265936953,
				"y": -0.2373474552,
				"z": -3.9390881037,
				"element": "H" 
			},
			{
				"x": 0.6635733005,
				"y": 1.4872161554,
				"z": -2.8075339934,
				"element": "H" 
			}
		],
		 "valence_orbital": [ 
			{
				"type": "occ",
				"energy": -0.30758,
				"method": "rhf"
			},
			{
				"type": "occ",
				"energy": -0.28649,
				"method": "rhf"
			},
			{
				"type": "occ",
				"energy": -0.26076,
				"method": "rhf"
			},
			{
				"type": "occ",
				"energy": -0.24074,
				"method": "rhf"
			},
			{
				"type": "occ",
				"energy": -0.22857,
				"method": "rhf"
			},
			{
				"type": "unocc",
				"energy": -0.07595,
				"method": "rhf"
			},
			{
				"type": "unocc",
				"energy": -0.03856,
				"method": "rhf"
			},
			{
				"type": "unocc",
				"energy": -0.02966,
				"method": "rhf"
			},
			{
				"type": "unocc",
				"energy": 0.01185,
				"method": "rhf"
			},
			{
				"type": "unocc",
				"energy": 0.01997,
				"method": "rhf"
			}
		],
		"cosmo_sigma_profile": { 
			"-0.025": 0.0,
			"-0.024": 0.0,
			"-0.023": 0.0,
			"-0.022": 0.0,
			"-0.021": 0.0,
			"-0.02": 0.0,
			"-0.019": 0.0,
			"-0.018": 0.0,
			"-0.017": 0.843868807971,
			"-0.016": 2.07235316098,
			"-0.015": 1.29062025902,
			"-0.014": 1.0665054281,
			"-0.013": 1.48261369706,
			"-0.012": 1.15836368059,
			"-0.011": 1.30029554996,
			"-0.01": 1.12997636745,
			"-0.009": 3.41123765897,
			"-0.008": 6.81862013533,
			"-0.007": 8.57368000999,
			"-0.006": 10.011690885,
			"-0.005": 7.32725994296,
			"-0.004": 7.21122351651,
			"-0.003": 9.69507168306,
			"-0.002": 11.8281363621,
			"-0.001": 15.573859444,
			"0.0": 23.5234819336,
			"0.001": 26.1800623724,
			"0.002": 29.1974939078,
			"0.003": 26.3023669269,
			"0.004": 22.4622602291,
			"0.005": 12.0273778797,
			"0.006": 8.41993848971,
			"0.007": 8.66461157823,
			"0.008": 5.0186793175,
			"0.009": 1.44709498,
			"0.01": 0.0,
			"0.011": 0.0,
			"0.012": 0.0,
			"0.013": 0.0,
			"0.014": 0.0,
			"0.015": 0.0,
			"0.016": 0.0,
			"0.017": 0.0,
			"0.018": 0.0,
			"0.019": 0.0,
			"0.02": 0.0,
			"0.021": 0.0,
			"0.022": 0.0,
			"0.023": 0.0,
			"0.024": 0.0,
			"0.025": 0.0
		}
	}
}
