{
	 "smiles": "COC1=C(C=C(C=C1)C1=NN(CCC#N)C=C1C(O)=O)[N+]([O-])=O", 
	 "Tm": 464.15, 
	 "num_atms": 35, 
	 "gaussian": { 
		 "optdone": 1, 
		 "sigma_profile": "yes", 
		 "theory": "DFT", 
		 "functional": "B3LYP", 
		 "basiset": "6-31G**", 
		 "properties": { 
			 "R2extent": 10208.6096, 
			 "electric_dipole_moment_norm": 11.2994750652, 
			 "electric_quadrupole_moment_norm": 31.6118064721, 
			 "total_energy": -1135.69884041, 
			 "HOMO_LUMO_gap": 0.16056, 
			 "cosmo_polarized_energy": -34.85, 
			 "cosmo_cavitation_energy": 42.54, 
			 "cosmo_dispersion_energy": -28.74, 
			 "cosmo_repulsion_energy": 2.2, 
			 "cosmo_total_nonelectrostatic_energy": 16.0, 
			 "SMD_solvation_energy": 11.7 
		},
		"coords": [
			{
				"x": 3.4070036384,
				"y": 4.9068379384,
				"z": -0.2165345677,
				"element": "C" 
			},
			{
				"x": 3.6136373479,
				"y": 3.8152412089,
				"z": 0.6727570746,
				"element": "O" 
			},
			{
				"x": 2.7898899273,
				"y": 2.7520025538,
				"z": 0.601007983,
				"element": "C" 
			},
			{
				"x": 2.9618998685,
				"y": 1.6911827984,
				"z": 1.5196686494,
				"element": "C" 
			},
			{
				"x": 2.115009234,
				"y": 0.5882167623,
				"z": 1.5298015839,
				"element": "C" 
			},
			{
				"x": 1.0701937471,
				"y": 0.4797145105,
				"z": 0.607150677,
				"element": "C" 
			},
			{
				"x": 0.8959309465,
				"y": 1.5291710163,
				"z": -0.3097834369,
				"element": "C" 
			},
			{
				"x": 1.728739722,
				"y": 2.6413092499,
				"z": -0.3122870188,
				"element": "C" 
			},
			{
				"x": 0.1300132542,
				"y": -0.6564283361,
				"z": 0.5925316651,
				"element": "C" 
			},
			{
				"x": -1.0792203559,
				"y": -0.4763413377,
				"z": 0.0520635943,
				"element": "N" 
			},
			{
				"x": -1.7127225408,
				"y": -1.66859844,
				"z": 0.1501585816,
				"element": "N" 
			},
			{
				"x": -3.0956605742,
				"y": -1.7683544962,
				"z": -0.2762439275,
				"element": "C" 
			},
			{
				"x": -4.0819353392,
				"y": -1.2798371067,
				"z": 0.8086313565,
				"element": "C" 
			},
			{
				"x": -4.0524045076,
				"y": -2.1346167981,
				"z": 1.997408074,
				"element": "C" 
			},
			{
				"x": -3.9919335725,
				"y": -2.8427711691,
				"z": 2.9148887642,
				"element": "N" 
			},
			{
				"x": -0.9569246955,
				"y": -2.599223357,
				"z": 0.7741280829,
				"element": "C" 
			},
			{
				"x": 0.2563874303,
				"y": -1.9993971629,
				"z": 1.0836854808,
				"element": "C" 
			},
			{
				"x": 1.4267489863,
				"y": -2.7045653437,
				"z": 1.6567359504,
				"element": "C" 
			},
			{
				"x": 1.1304140297,
				"y": -3.7853247926,
				"z": 2.4336158774,
				"element": "O" 
			},
			{
				"x": 2.579966805,
				"y": -2.4076569909,
				"z": 1.4523574476,
				"element": "O" 
			},
			{
				"x": 4.0419086759,
				"y": 1.7023984392,
				"z": 2.5166482571,
				"element": "N" 
			},
			{
				"x": 5.0942881645,
				"y": 2.2647205501,
				"z": 2.2280363654,
				"element": "O" 
			},
			{
				"x": 3.8226346565,
				"y": 1.1209784735,
				"z": 3.5813582276,
				"element": "O" 
			},
			{
				"x": 3.5274962822,
				"y": 4.6001211183,
				"z": -1.2622661789,
				"element": "H" 
			},
			{
				"x": 2.4164464678,
				"y": 5.3570346473,
				"z": -0.0788434064,
				"element": "H" 
			},
			{
				"x": 4.1760652495,
				"y": 5.6369050664,
				"z": 0.0360600157,
				"element": "H" 
			},
			{
				"x": 2.3057739441,
				"y": -0.1787075082,
				"z": 2.2662340651,
				"element": "H" 
			},
			{
				"x": 0.0879484255,
				"y": 1.4672357038,
				"z": -1.030334376,
				"element": "H" 
			},
			{
				"x": 1.552819755,
				"y": 3.4290847411,
				"z": -1.0337967277,
				"element": "H" 
			},
			{
				"x": -3.2077808174,
				"y": -1.147239953,
				"z": -1.1667868258,
				"element": "H" 
			},
			{
				"x": -3.3027309149,
				"y": -2.8073937056,
				"z": -0.5432372403,
				"element": "H" 
			},
			{
				"x": -3.8270054066,
				"y": -0.2535422673,
				"z": 1.0925802154,
				"element": "H" 
			},
			{
				"x": -5.0980715436,
				"y": -1.270205523,
				"z": 0.3988110577,
				"element": "H" 
			},
			{
				"x": -1.3083066988,
				"y": -3.6118282863,
				"z": 0.9136493109,
				"element": "H" 
			},
			{
				"x": 0.1976804088,
				"y": -3.7670222034,
				"z": 2.6909453485,
				"element": "H" 
			}
		],
		 "valence_orbital": [ 
			{
				"type": "occ",
				"energy": -0.28617,
				"method": "rhf"
			},
			{
				"type": "occ",
				"energy": -0.28134,
				"method": "rhf"
			},
			{
				"type": "occ",
				"energy": -0.27255,
				"method": "rhf"
			},
			{
				"type": "occ",
				"energy": -0.26286,
				"method": "rhf"
			},
			{
				"type": "occ",
				"energy": -0.23029,
				"method": "rhf"
			},
			{
				"type": "unocc",
				"energy": -0.06973,
				"method": "rhf"
			},
			{
				"type": "unocc",
				"energy": -0.04309,
				"method": "rhf"
			},
			{
				"type": "unocc",
				"energy": -0.0354,
				"method": "rhf"
			},
			{
				"type": "unocc",
				"energy": -0.00366,
				"method": "rhf"
			},
			{
				"type": "unocc",
				"energy": 0.00425,
				"method": "rhf"
			}
		],
		"cosmo_sigma_profile": { 
			"-0.025": 0.0,
			"-0.024": 0.0,
			"-0.023": 0.0,
			"-0.022": 0.0,
			"-0.021": 0.0,
			"-0.02": 0.0,
			"-0.019": 0.0364910812759,
			"-0.018": 0.998613743635,
			"-0.017": 1.42070164754,
			"-0.016": 1.02467051459,
			"-0.015": 0.786932284982,
			"-0.014": 1.06022313461,
			"-0.013": 1.30704125603,
			"-0.012": 1.89057018237,
			"-0.011": 3.55718559513,
			"-0.01": 4.27892364953,
			"-0.009": 11.2318984029,
			"-0.008": 14.083573571,
			"-0.007": 16.973225683,
			"-0.006": 24.5222187042,
			"-0.005": 19.4641871331,
			"-0.004": 18.2347201154,
			"-0.003": 15.0222071461,
			"-0.002": 13.2281187728,
			"-0.001": 16.1536443921,
			"0.0": 20.2417596257,
			"0.001": 21.4397859445,
			"0.002": 18.7995886174,
			"0.003": 10.758248656,
			"0.004": 8.57391713259,
			"0.005": 9.78919912038,
			"0.006": 10.8382260418,
			"0.007": 12.4899195462,
			"0.008": 17.0291893482,
			"0.009": 14.3607572071,
			"0.01": 12.2747459845,
			"0.011": 9.9449482022,
			"0.012": 6.83110547513,
			"0.013": 2.68326441712,
			"0.014": 0.024139551792,
			"0.015": 0.0,
			"0.016": 0.0,
			"0.017": 0.0,
			"0.018": 0.0,
			"0.019": 0.0,
			"0.02": 0.0,
			"0.021": 0.0,
			"0.022": 0.0,
			"0.023": 0.0,
			"0.024": 0.0,
			"0.025": 0.0
		}
	}
}
