{
	 "smiles": "OC1(CC2=CC=CC=C2)CCNCC1", 
	 "Tm": 355.65, 
	 "num_atms": 31, 
	 "gaussian": { 
		 "optdone": 1, 
		 "sigma_profile": "yes", 
		 "theory": "DFT", 
		 "functional": "B3LYP", 
		 "basiset": "6-31G**", 
		 "properties": { 
			 "R2extent": 3945.2081, 
			 "electric_dipole_moment_norm": 1.69605880205, 
			 "electric_quadrupole_moment_norm": 4.5497552121, 
			 "total_energy": -597.489613757, 
			 "HOMO_LUMO_gap": 0.20402, 
			 "cosmo_polarized_energy": -9.94, 
			 "cosmo_cavitation_energy": 30.95, 
			 "cosmo_dispersion_energy": -22.45, 
			 "cosmo_repulsion_energy": 1.74, 
			 "cosmo_total_nonelectrostatic_energy": 10.24, 
			 "SMD_solvation_energy": 1.74 
		},
		"coords": [
			{
				"x": -0.8915831673,
				"y": 0.4747110921,
				"z": 1.1989907329,
				"element": "O" 
			},
			{
				"x": 0.5228241244,
				"y": 0.3683915718,
				"z": 1.3988801781,
				"element": "C" 
			},
			{
				"x": 0.856071353,
				"y": -1.0504760406,
				"z": 1.9567501878,
				"element": "C" 
			},
			{
				"x": 0.4150835936,
				"y": -2.2012157094,
				"z": 1.0788279637,
				"element": "C" 
			},
			{
				"x": 1.3089633697,
				"y": -2.8472302873,
				"z": 0.2118008776,
				"element": "C" 
			},
			{
				"x": 0.8864286538,
				"y": -3.8911280972,
				"z": -0.6125210028,
				"element": "C" 
			},
			{
				"x": -0.44478832,
				"y": -4.3113345386,
				"z": -0.5858745973,
				"element": "C" 
			},
			{
				"x": -1.3462002484,
				"y": -3.6839601958,
				"z": 0.2755513056,
				"element": "C" 
			},
			{
				"x": -0.9192021918,
				"y": -2.6415980093,
				"z": 1.1007430961,
				"element": "C" 
			},
			{
				"x": 0.8796943007,
				"y": 1.4556929798,
				"z": 2.4493217726,
				"element": "C" 
			},
			{
				"x": 2.1695161864,
				"y": 2.2336251873,
				"z": 2.1022375266,
				"element": "C" 
			},
			{
				"x": 3.2195200564,
				"y": 1.404454913,
				"z": 1.5091638737,
				"element": "N" 
			},
			{
				"x": 2.7904149725,
				"y": 0.7968734901,
				"z": 0.236493066,
				"element": "C" 
			},
			{
				"x": 1.2556960109,
				"y": 0.6680850784,
				"z": 0.0778567954,
				"element": "C" 
			},
			{
				"x": -1.1417009213,
				"y": -0.1858873958,
				"z": 0.5366010835,
				"element": "H" 
			},
			{
				"x": 0.3616244055,
				"y": -1.127975786,
				"z": 2.9315944123,
				"element": "H" 
			},
			{
				"x": 1.9343748542,
				"y": -1.1163742172,
				"z": 2.1425734142,
				"element": "H" 
			},
			{
				"x": 2.3503448756,
				"y": -2.5352071062,
				"z": 0.1902106914,
				"element": "H" 
			},
			{
				"x": 1.5983113801,
				"y": -4.3789814328,
				"z": -1.2725868025,
				"element": "H" 
			},
			{
				"x": -0.7742733108,
				"y": -5.1254856318,
				"z": -1.2248602328,
				"element": "H" 
			},
			{
				"x": -2.3817101613,
				"y": -4.0108387451,
				"z": 0.3127640027,
				"element": "H" 
			},
			{
				"x": -1.6214301046,
				"y": -2.168394669,
				"z": 1.7819332344,
				"element": "H" 
			},
			{
				"x": 0.0291696811,
				"y": 2.1422675643,
				"z": 2.5129191523,
				"element": "H" 
			},
			{
				"x": 0.9841756793,
				"y": 0.9913145168,
				"z": 3.437774017,
				"element": "H" 
			},
			{
				"x": 2.5678531836,
				"y": 2.7207207068,
				"z": 2.9988669579,
				"element": "H" 
			},
			{
				"x": 1.9445439277,
				"y": 3.0388691037,
				"z": 1.3920463557,
				"element": "H" 
			},
			{
				"x": 3.4738509437,
				"y": 0.6743678459,
				"z": 2.1689301674,
				"element": "H" 
			},
			{
				"x": 3.1757517196,
				"y": 1.399521231,
				"z": -0.5974396041,
				"element": "H" 
			},
			{
				"x": 3.269941648,
				"y": -0.1843084371,
				"z": 0.148631609,
				"element": "H" 
			},
			{
				"x": 0.8392133991,
				"y": 1.6071033777,
				"z": -0.3034183571,
				"element": "H" 
			},
			{
				"x": 1.0223201068,
				"y": -0.1006023594,
				"z": -0.6683618772,
				"element": "H" 
			}
		],
		 "valence_orbital": [ 
			{
				"type": "occ",
				"energy": -0.30005,
				"method": "rhf"
			},
			{
				"type": "occ",
				"energy": -0.26725,
				"method": "rhf"
			},
			{
				"type": "occ",
				"energy": -0.2539,
				"method": "rhf"
			},
			{
				"type": "occ",
				"energy": -0.24332,
				"method": "rhf"
			},
			{
				"type": "occ",
				"energy": -0.21242,
				"method": "rhf"
			},
			{
				"type": "unocc",
				"energy": -0.0084,
				"method": "rhf"
			},
			{
				"type": "unocc",
				"energy": -0.00693,
				"method": "rhf"
			},
			{
				"type": "unocc",
				"energy": 0.06368,
				"method": "rhf"
			},
			{
				"type": "unocc",
				"energy": 0.09168,
				"method": "rhf"
			},
			{
				"type": "unocc",
				"energy": 0.10344,
				"method": "rhf"
			}
		],
		"cosmo_sigma_profile": { 
			"-0.025": 0.0,
			"-0.024": 0.0,
			"-0.023": 0.0,
			"-0.022": 0.0,
			"-0.021": 0.0,
			"-0.02": 0.0,
			"-0.019": 0.0,
			"-0.018": 0.0,
			"-0.017": 0.0,
			"-0.016": 0.0,
			"-0.015": 0.0,
			"-0.014": 0.0,
			"-0.013": 0.0,
			"-0.012": 0.076589996972,
			"-0.011": 0.453189060382,
			"-0.01": 0.802733950889,
			"-0.009": 2.32508431074,
			"-0.008": 3.01564552954,
			"-0.007": 3.07193258406,
			"-0.006": 5.37635462459,
			"-0.005": 15.5228794616,
			"-0.004": 18.0210925949,
			"-0.003": 28.7301130907,
			"-0.002": 29.31996929,
			"-0.001": 26.5827477493,
			"0.0": 23.3068197199,
			"0.001": 15.4149034389,
			"0.002": 9.69813675538,
			"0.003": 11.29618221,
			"0.004": 9.85910012188,
			"0.005": 9.8318351252,
			"0.006": 9.43963223384,
			"0.007": 2.52631519219,
			"0.008": 1.48667057133,
			"0.009": 1.63316070242,
			"0.01": 2.3990947479,
			"0.011": 1.85516717029,
			"0.012": 1.56736252409,
			"0.013": 1.96926578834,
			"0.014": 2.82564116718,
			"0.015": 0.692735421566,
			"0.016": 0.62171817995,
			"0.017": 0.64327053683,
			"0.018": 0.431103947606,
			"0.019": 0.326349513701,
			"0.02": 0.0,
			"0.021": 0.0,
			"0.022": 0.0,
			"0.023": 0.0,
			"0.024": 0.0,
			"0.025": 0.0
		}
	}
}
