{
	 "smiles": "COC1=CC=C(Cl)C=C1", 
	 "Tm": 255.15, 
	 "num_atms": 16, 
	 "gaussian": { 
		 "optdone": 1, 
		 "sigma_profile": "yes", 
		 "theory": "DFT", 
		 "functional": "B3LYP", 
		 "basiset": "6-31G**", 
		 "properties": { 
			 "R2extent": 2035.3128, 
			 "electric_dipole_moment_norm": 2.89624980449, 
			 "electric_quadrupole_moment_norm": 5.42955298713, 
			 "total_energy": -806.367410741, 
			 "HOMO_LUMO_gap": 0.20757, 
			 "cosmo_polarized_energy": -5.66, 
			 "cosmo_cavitation_energy": 21.58, 
			 "cosmo_dispersion_energy": -16.35, 
			 "cosmo_repulsion_energy": 1.34, 
			 "cosmo_total_nonelectrostatic_energy": 6.57, 
			 "SMD_solvation_energy": 4.27 
		},
		"coords": [
			{
				"x": -2.840151363,
				"y": 0.612878507,
				"z": 0.5248152019,
				"element": "C" 
			},
			{
				"x": -2.3179951419,
				"y": -0.6858398592,
				"z": 0.2919632109,
				"element": "O" 
			},
			{
				"x": -0.9751506469,
				"y": -0.8164515776,
				"z": 0.0936791067,
				"element": "C" 
			},
			{
				"x": -0.0608214416,
				"y": 0.2435467047,
				"z": 0.102339433,
				"element": "C" 
			},
			{
				"x": 1.2979232321,
				"y": -0.0062801663,
				"z": -0.1130269649,
				"element": "C" 
			},
			{
				"x": 1.7368034989,
				"y": -1.3067967559,
				"z": -0.3351488605,
				"element": "C" 
			},
			{
				"x": 3.4484407089,
				"y": -1.6176543517,
				"z": -0.6060421383,
				"element": "Cl" 
			},
			{
				"x": 0.8318524174,
				"y": -2.371652009,
				"z": -0.3457052243,
				"element": "C" 
			},
			{
				"x": -0.5182151937,
				"y": -2.1241175144,
				"z": -0.1317929457,
				"element": "C" 
			},
			{
				"x": -3.9158220595,
				"y": 0.4860742138,
				"z": 0.6546695579,
				"element": "H" 
			},
			{
				"x": -2.6560637165,
				"y": 1.2820956634,
				"z": -0.3256315694,
				"element": "H" 
			},
			{
				"x": -2.4179461821,
				"y": 1.0626279876,
				"z": 1.4328211361,
				"element": "H" 
			},
			{
				"x": -0.3861135212,
				"y": 1.2625002088,
				"z": 0.2738578232,
				"element": "H" 
			},
			{
				"x": 2.0082515068,
				"y": 0.8132271042,
				"z": -0.1068014358,
				"element": "H" 
			},
			{
				"x": 1.1839186313,
				"y": -3.3824661467,
				"z": -0.5198855265,
				"element": "H" 
			},
			{
				"x": -1.2412107289,
				"y": -2.9329920087,
				"z": -0.1350108044,
				"element": "H" 
			}
		],
		 "valence_orbital": [ 
			{
				"type": "occ",
				"energy": -0.33563,
				"method": "rhf"
			},
			{
				"type": "occ",
				"energy": -0.30724,
				"method": "rhf"
			},
			{
				"type": "occ",
				"energy": -0.30288,
				"method": "rhf"
			},
			{
				"type": "occ",
				"energy": -0.2623,
				"method": "rhf"
			},
			{
				"type": "occ",
				"energy": -0.22012,
				"method": "rhf"
			},
			{
				"type": "unocc",
				"energy": -0.01255,
				"method": "rhf"
			},
			{
				"type": "unocc",
				"energy": 0.00261,
				"method": "rhf"
			},
			{
				"type": "unocc",
				"energy": 0.03412,
				"method": "rhf"
			},
			{
				"type": "unocc",
				"energy": 0.09591,
				"method": "rhf"
			},
			{
				"type": "unocc",
				"energy": 0.10499,
				"method": "rhf"
			}
		],
		"cosmo_sigma_profile": { 
			"-0.025": 0.0,
			"-0.024": 0.0,
			"-0.023": 0.0,
			"-0.022": 0.0,
			"-0.021": 0.0,
			"-0.02": 0.0,
			"-0.019": 0.0,
			"-0.018": 0.0,
			"-0.017": 0.0,
			"-0.016": 0.0,
			"-0.015": 0.0,
			"-0.014": 0.0,
			"-0.013": 0.0,
			"-0.012": 0.0,
			"-0.011": 0.0,
			"-0.01": 0.0,
			"-0.009": 0.0,
			"-0.008": 0.160805983839,
			"-0.007": 5.19834147099,
			"-0.006": 12.0875943848,
			"-0.005": 15.969103229,
			"-0.004": 13.6998281035,
			"-0.003": 13.3925963877,
			"-0.002": 9.29797550211,
			"-0.001": 9.03774809476,
			"0.0": 8.80304348511,
			"0.001": 10.8454946204,
			"0.002": 15.1574553961,
			"0.003": 18.5793954774,
			"0.004": 21.1887421768,
			"0.005": 13.0477484803,
			"0.006": 2.98134807216,
			"0.007": 1.17134250251,
			"0.008": 1.07476667986,
			"0.009": 1.51261673438,
			"0.01": 1.33447101959,
			"0.011": 0.151493009769,
			"0.012": 0.0,
			"0.013": 0.0,
			"0.014": 0.0,
			"0.015": 0.0,
			"0.016": 0.0,
			"0.017": 0.0,
			"0.018": 0.0,
			"0.019": 0.0,
			"0.02": 0.0,
			"0.021": 0.0,
			"0.022": 0.0,
			"0.023": 0.0,
			"0.024": 0.0,
			"0.025": 0.0
		}
	}
}
