{
	 "smiles": "NNC(=O)C1=CC=C(C=C1)S(=O)(=O)N1CCCC1", 
	 "Tm": 473.15, 
	 "num_atms": 33, 
	 "gaussian": { 
		 "optdone": 1, 
		 "sigma_profile": "yes", 
		 "theory": "DFT", 
		 "functional": "B3LYP", 
		 "basiset": "6-31G**", 
		 "properties": { 
			 "R2extent": 7452.8889, 
			 "electric_dipole_moment_norm": 3.07984051048, 
			 "electric_quadrupole_moment_norm": 30.3962482734, 
			 "total_energy": -1216.22796559, 
			 "HOMO_LUMO_gap": 0.18777, 
			 "cosmo_polarized_energy": -23.01, 
			 "cosmo_cavitation_energy": 37.09, 
			 "cosmo_dispersion_energy": -26.73, 
			 "cosmo_repulsion_energy": 2.05, 
			 "cosmo_total_nonelectrostatic_energy": 12.42, 
			 "SMD_solvation_energy": 5.24 
		},
		"coords": [
			{
				"x": -5.6900545753,
				"y": 0.9362462944,
				"z": 1.1221623337,
				"element": "N" 
			},
			{
				"x": -5.4315962864,
				"y": 0.2124540524,
				"z": -0.0618558182,
				"element": "N" 
			},
			{
				"x": -4.4456566328,
				"y": -0.7369693333,
				"z": -0.2369064222,
				"element": "C" 
			},
			{
				"x": -4.5727848162,
				"y": -1.6263749061,
				"z": -1.0693146958,
				"element": "O" 
			},
			{
				"x": -3.2020356085,
				"y": -0.6327859065,
				"z": 0.6043995132,
				"element": "C" 
			},
			{
				"x": -2.5633274968,
				"y": 0.585509396,
				"z": 0.875416909,
				"element": "C" 
			},
			{
				"x": -1.3666439168,
				"y": 0.6125621181,
				"z": 1.5901903775,
				"element": "C" 
			},
			{
				"x": -0.8154095982,
				"y": -0.5878848806,
				"z": 2.0461699765,
				"element": "C" 
			},
			{
				"x": -1.44117967,
				"y": -1.8116860131,
				"z": 1.7864254441,
				"element": "C" 
			},
			{
				"x": -2.6232705008,
				"y": -1.8289320782,
				"z": 1.0510769258,
				"element": "C" 
			},
			{
				"x": 0.7525030856,
				"y": -0.5617563107,
				"z": 2.934004028,
				"element": "S" 
			},
			{
				"x": 0.9241199247,
				"y": 0.7970868874,
				"z": 3.4519563175,
				"element": "O" 
			},
			{
				"x": 0.7756145409,
				"y": -1.7457962011,
				"z": 3.7949336832,
				"element": "O" 
			},
			{
				"x": 1.9368154938,
				"y": -0.785166497,
				"z": 1.79149792,
				"element": "N" 
			},
			{
				"x": 2.3023271483,
				"y": 0.3075224852,
				"z": 0.8576900029,
				"element": "C" 
			},
			{
				"x": 2.9272535968,
				"y": -0.4363234365,
				"z": -0.3411133644,
				"element": "C" 
			},
			{
				"x": 3.3248396663,
				"y": -1.8117797559,
				"z": 0.2249799611,
				"element": "C" 
			},
			{
				"x": 2.1947136387,
				"y": -2.117537015,
				"z": 1.2131268782,
				"element": "C" 
			},
			{
				"x": -5.4712752265,
				"y": 0.3736504882,
				"z": 1.9406446338,
				"element": "H" 
			},
			{
				"x": -5.117974872,
				"y": 1.7744021248,
				"z": 1.1496578022,
				"element": "H" 
			},
			{
				"x": -6.265247251,
				"y": 0.0130015529,
				"z": -0.6028463494,
				"element": "H" 
			},
			{
				"x": -2.9820755495,
				"y": 1.5153949523,
				"z": 0.5037920156,
				"element": "H" 
			},
			{
				"x": -0.8731339789,
				"y": 1.5504632295,
				"z": 1.8197340568,
				"element": "H" 
			},
			{
				"x": -1.0131998437,
				"y": -2.7290001997,
				"z": 2.1754712019,
				"element": "H" 
			},
			{
				"x": -3.1142694617,
				"y": -2.7669011445,
				"z": 0.8141476715,
				"element": "H" 
			},
			{
				"x": 1.4287734884,
				"y": 0.8968251033,
				"z": 0.5563824725,
				"element": "H" 
			},
			{
				"x": 3.0075924878,
				"y": 0.982157773,
				"z": 1.3512295938,
				"element": "H" 
			},
			{
				"x": 2.179497395,
				"y": -0.5630336289,
				"z": -1.1314601613,
				"element": "H" 
			},
			{
				"x": 3.7707405533,
				"y": 0.1117530359,
				"z": -0.7686337387,
				"element": "H" 
			},
			{
				"x": 3.4210385853,
				"y": -2.5806541252,
				"z": -0.546137942,
				"element": "H" 
			},
			{
				"x": 4.2763488016,
				"y": -1.7454892905,
				"z": 0.7629107357,
				"element": "H" 
			},
			{
				"x": 2.4712694324,
				"y": -2.8192473216,
				"z": 2.0012618445,
				"element": "H" 
			},
			{
				"x": 1.3123874461,
				"y": -2.511311449,
				"z": 0.6846061932,
				"element": "H" 
			}
		],
		 "valence_orbital": [ 
			{
				"type": "occ",
				"energy": -0.28679,
				"method": "rhf"
			},
			{
				"type": "occ",
				"energy": -0.28021,
				"method": "rhf"
			},
			{
				"type": "occ",
				"energy": -0.26494,
				"method": "rhf"
			},
			{
				"type": "occ",
				"energy": -0.25785,
				"method": "rhf"
			},
			{
				"type": "occ",
				"energy": -0.25013,
				"method": "rhf"
			},
			{
				"type": "unocc",
				"energy": -0.06236,
				"method": "rhf"
			},
			{
				"type": "unocc",
				"energy": -0.032,
				"method": "rhf"
			},
			{
				"type": "unocc",
				"energy": 0.02119,
				"method": "rhf"
			},
			{
				"type": "unocc",
				"energy": 0.0516,
				"method": "rhf"
			},
			{
				"type": "unocc",
				"energy": 0.06588,
				"method": "rhf"
			}
		],
		"cosmo_sigma_profile": { 
			"-0.025": 0.0,
			"-0.024": 0.0,
			"-0.023": 0.0,
			"-0.022": 0.0,
			"-0.021": 0.0,
			"-0.02": 0.0,
			"-0.019": 0.0,
			"-0.018": 0.0,
			"-0.017": 0.0,
			"-0.016": 0.0,
			"-0.015": 0.0,
			"-0.014": 0.209957380977,
			"-0.013": 0.996563859831,
			"-0.012": 3.53603795865,
			"-0.011": 4.37996362258,
			"-0.01": 3.54760013446,
			"-0.009": 4.51109525796,
			"-0.008": 4.15701724568,
			"-0.007": 8.95036300456,
			"-0.006": 9.79129436201,
			"-0.005": 15.4196754363,
			"-0.004": 32.682910786,
			"-0.003": 34.6566869938,
			"-0.002": 25.6361178522,
			"-0.001": 18.4114625821,
			"0.0": 15.8918082986,
			"0.001": 15.3206653927,
			"0.002": 13.9281390181,
			"0.003": 6.81642543843,
			"0.004": 6.82170067163,
			"0.005": 7.09127734628,
			"0.006": 7.00957570453,
			"0.007": 6.35042437353,
			"0.008": 6.09242917678,
			"0.009": 4.43614233567,
			"0.01": 8.48071128946,
			"0.011": 10.3205567848,
			"0.012": 8.65857600098,
			"0.013": 6.15418031642,
			"0.014": 1.72129234067,
			"0.015": 0.480887895089,
			"0.016": 0.269894851243,
			"0.017": 0.0,
			"0.018": 0.0,
			"0.019": 0.0,
			"0.02": 0.0,
			"0.021": 0.0,
			"0.022": 0.0,
			"0.023": 0.0,
			"0.024": 0.0,
			"0.025": 0.0
		}
	}
}
