{
	 "smiles": "NN1C(S)=NN=C1CC1=C(F)C=CC=C1", 
	 "Tm": 433.15, 
	 "num_atms": 24, 
	 "gaussian": { 
		 "optdone": 1, 
		 "sigma_profile": "yes", 
		 "theory": "DFT", 
		 "functional": "B3LYP", 
		 "basiset": "6-31G**", 
		 "properties": { 
			 "R2extent": 4156.8591, 
			 "electric_dipole_moment_norm": 6.27215033621, 
			 "electric_quadrupole_moment_norm": 19.3442849728, 
			 "total_energy": -1065.35296698, 
			 "HOMO_LUMO_gap": 0.19696, 
			 "cosmo_polarized_energy": -20.46, 
			 "cosmo_cavitation_energy": 30.33, 
			 "cosmo_dispersion_energy": -22.25, 
			 "cosmo_repulsion_energy": 1.67, 
			 "cosmo_total_nonelectrostatic_energy": 9.75, 
			 "SMD_solvation_energy": 3.01 
		},
		"coords": [
			{
				"x": -0.2861657346,
				"y": 1.5706197432,
				"z": -2.486041546,
				"element": "N" 
			},
			{
				"x": 0.8639796754,
				"y": 0.9583743644,
				"z": -1.9762736663,
				"element": "N" 
			},
			{
				"x": 1.7124138415,
				"y": 0.1502348967,
				"z": -2.7020291143,
				"element": "C" 
			},
			{
				"x": 1.4678675243,
				"y": -0.2691399153,
				"z": -4.3942096056,
				"element": "S" 
			},
			{
				"x": 2.7216067427,
				"y": -0.2340248973,
				"z": -1.9618245541,
				"element": "N" 
			},
			{
				"x": 2.5434737602,
				"y": 0.3276654382,
				"z": -0.7028224869,
				"element": "N" 
			},
			{
				"x": 1.4430897751,
				"y": 1.034199301,
				"z": -0.7215727664,
				"element": "C" 
			},
			{
				"x": 0.8413706195,
				"y": 1.7502397283,
				"z": 0.4510700948,
				"element": "C" 
			},
			{
				"x": -0.1169426839,
				"y": 0.8838804469,
				"z": 1.2542864706,
				"element": "C" 
			},
			{
				"x": -1.4906026737,
				"y": 0.8983499319,
				"z": 1.0223449839,
				"element": "C" 
			},
			{
				"x": -1.9770248044,
				"y": 1.7156576973,
				"z": 0.0362687243,
				"element": "F" 
			},
			{
				"x": -2.3977530503,
				"y": 0.1212165459,
				"z": 1.728626032,
				"element": "C" 
			},
			{
				"x": -1.9096444166,
				"y": -0.7272736105,
				"z": 2.7227373172,
				"element": "C" 
			},
			{
				"x": -0.5379495123,
				"y": -0.781917987,
				"z": 2.9811794512,
				"element": "C" 
			},
			{
				"x": 0.3442745231,
				"y": 0.0156736177,
				"z": 2.2525256536,
				"element": "C" 
			},
			{
				"x": -0.128376669,
				"y": 2.573873313,
				"z": -2.5603235257,
				"element": "H" 
			},
			{
				"x": -1.0620843625,
				"y": 1.4109480459,
				"z": -1.848028371,
				"element": "H" 
			},
			{
				"x": 0.2668429171,
				"y": 0.3465043308,
				"z": -4.4518004673,
				"element": "H" 
			},
			{
				"x": 0.3314868627,
				"y": 2.659410814,
				"z": 0.1174681645,
				"element": "H" 
			},
			{
				"x": 1.6714291907,
				"y": 2.0545566005,
				"z": 1.0932074811,
				"element": "H" 
			},
			{
				"x": -3.4547368619,
				"y": 0.1889316468,
				"z": 1.4952283086,
				"element": "H" 
			},
			{
				"x": -2.6003775671,
				"y": -1.3447301557,
				"z": 3.2884174529,
				"element": "H" 
			},
			{
				"x": -0.1548319946,
				"y": -1.4454029798,
				"z": 3.7499530671,
				"element": "H" 
			},
			{
				"x": 1.4122548988,
				"y": -0.034546917,
				"z": 2.444112902,
				"element": "H" 
			}
		],
		 "valence_orbital": [ 
			{
				"type": "occ",
				"energy": -0.28938,
				"method": "rhf"
			},
			{
				"type": "occ",
				"energy": -0.26828,
				"method": "rhf"
			},
			{
				"type": "occ",
				"energy": -0.25965,
				"method": "rhf"
			},
			{
				"type": "occ",
				"energy": -0.24699,
				"method": "rhf"
			},
			{
				"type": "occ",
				"energy": -0.2235,
				"method": "rhf"
			},
			{
				"type": "unocc",
				"energy": -0.02654,
				"method": "rhf"
			},
			{
				"type": "unocc",
				"energy": -0.01397,
				"method": "rhf"
			},
			{
				"type": "unocc",
				"energy": 0.01789,
				"method": "rhf"
			},
			{
				"type": "unocc",
				"energy": 0.02416,
				"method": "rhf"
			},
			{
				"type": "unocc",
				"energy": 0.04687,
				"method": "rhf"
			}
		],
		"cosmo_sigma_profile": { 
			"-0.025": 0.0,
			"-0.024": 0.0,
			"-0.023": 0.0,
			"-0.022": 0.0,
			"-0.021": 0.0,
			"-0.02": 0.0,
			"-0.019": 0.0,
			"-0.018": 0.0,
			"-0.017": 0.0,
			"-0.016": 0.0,
			"-0.015": 0.0260405753676,
			"-0.014": 1.42640211633,
			"-0.013": 1.65690307383,
			"-0.012": 2.43438992918,
			"-0.011": 2.7173829953,
			"-0.01": 3.32332181806,
			"-0.009": 3.49830596384,
			"-0.008": 4.67164475999,
			"-0.007": 8.73379049369,
			"-0.006": 15.375757105,
			"-0.005": 16.1407170592,
			"-0.004": 14.1710759248,
			"-0.003": 15.9310856876,
			"-0.002": 14.5503202331,
			"-0.001": 12.6768759078,
			"0.0": 15.023543328,
			"0.001": 15.2653931295,
			"0.002": 18.1551781447,
			"0.003": 18.1823555554,
			"0.004": 19.6701043016,
			"0.005": 9.00614245929,
			"0.006": 6.04893432147,
			"0.007": 4.22667283368,
			"0.008": 1.29966975738,
			"0.009": 2.31972016336,
			"0.01": 2.43315642714,
			"0.011": 1.62597585977,
			"0.012": 2.61475532032,
			"0.013": 3.57368884751,
			"0.014": 3.19343705512,
			"0.015": 2.26719449122,
			"0.016": 2.48947939315,
			"0.017": 0.960022642634,
			"0.018": 0.0187067915785,
			"0.019": 0.0,
			"0.02": 0.0,
			"0.021": 0.0,
			"0.022": 0.0,
			"0.023": 0.0,
			"0.024": 0.0,
			"0.025": 0.0
		}
	}
}
