{
	 "smiles": "CC1=CC(C)=CC=C1", 
	 "Tm": 225.65, 
	 "num_atms": 18, 
	 "gaussian": { 
		 "optdone": 1, 
		 "sigma_profile": "yes", 
		 "theory": "DFT", 
		 "functional": "B3LYP", 
		 "basiset": "6-31G**", 
		 "properties": { 
			 "R2extent": 1639.7003, 
			 "electric_dipole_moment_norm": 0.3320813304, 
			 "electric_quadrupole_moment_norm": 4.31398552617, 
			 "total_energy": -310.892743648, 
			 "HOMO_LUMO_gap": 0.23622, 
			 "cosmo_polarized_energy": -3.04, 
			 "cosmo_cavitation_energy": 20.82, 
			 "cosmo_dispersion_energy": -15.41, 
			 "cosmo_repulsion_energy": 1.28, 
			 "cosmo_total_nonelectrostatic_energy": 6.69, 
			 "SMD_solvation_energy": 3.76 
		},
		"coords": [
			{
				"x": -0.1159468385,
				"y": 1.0375586968,
				"z": -1.3226111582,
				"element": "C" 
			},
			{
				"x": 0.3020278941,
				"y": 0.8714336703,
				"z": 0.1204285251,
				"element": "C" 
			},
			{
				"x": -0.4427505369,
				"y": 1.4555782378,
				"z": 1.1525350522,
				"element": "C" 
			},
			{
				"x": -0.0651008597,
				"y": 1.3428115992,
				"z": 2.4963400082,
				"element": "C" 
			},
			{
				"x": -0.8741627054,
				"y": 2.0109541268,
				"z": 3.5843014492,
				"element": "C" 
			},
			{
				"x": 1.0905261593,
				"y": 0.6135280701,
				"z": 2.8040690799,
				"element": "C" 
			},
			{
				"x": 1.8437028055,
				"y": 0.0212844157,
				"z": 1.7903841257,
				"element": "C" 
			},
			{
				"x": 1.4531363766,
				"y": 0.1479339644,
				"z": 0.4573395639,
				"element": "C" 
			},
			{
				"x": -1.2018592989,
				"y": 1.1350884396,
				"z": -1.4169103101,
				"element": "H" 
			},
			{
				"x": 0.330144354,
				"y": 1.937806676,
				"z": -1.7641776081,
				"element": "H" 
			},
			{
				"x": 0.2020073756,
				"y": 0.186322267,
				"z": -1.9323424393,
				"element": "H" 
			},
			{
				"x": -1.3450898653,
				"y": 2.0112310908,
				"z": 0.902858019,
				"element": "H" 
			},
			{
				"x": -0.5244945585,
				"y": 3.0350131411,
				"z": 3.767217945,
				"element": "H" 
			},
			{
				"x": -1.9330801099,
				"y": 2.0739202568,
				"z": 3.3153417684,
				"element": "H" 
			},
			{
				"x": -0.7968510264,
				"y": 1.4684583399,
				"z": 4.5315047883,
				"element": "H" 
			},
			{
				"x": 1.3968649501,
				"y": 0.5048281689,
				"z": 3.841677954,
				"element": "H" 
			},
			{
				"x": 2.7342911006,
				"y": -0.548794677,
				"z": 2.0410968641,
				"element": "H" 
			},
			{
				"x": 2.0410347837,
				"y": -0.3222564842,
				"z": -0.3272536272,
				"element": "H" 
			}
		],
		 "valence_orbital": [ 
			{
				"type": "occ",
				"energy": -0.33624,
				"method": "rhf"
			},
			{
				"type": "occ",
				"energy": -0.33033,
				"method": "rhf"
			},
			{
				"type": "occ",
				"energy": -0.32814,
				"method": "rhf"
			},
			{
				"type": "occ",
				"energy": -0.23682,
				"method": "rhf"
			},
			{
				"type": "occ",
				"energy": -0.22959,
				"method": "rhf"
			},
			{
				"type": "unocc",
				"energy": 0.00663,
				"method": "rhf"
			},
			{
				"type": "unocc",
				"energy": 0.00824,
				"method": "rhf"
			},
			{
				"type": "unocc",
				"energy": 0.09856,
				"method": "rhf"
			},
			{
				"type": "unocc",
				"energy": 0.12309,
				"method": "rhf"
			},
			{
				"type": "unocc",
				"energy": 0.1271,
				"method": "rhf"
			}
		],
		"cosmo_sigma_profile": { 
			"-0.025": 0.0,
			"-0.024": 0.0,
			"-0.023": 0.0,
			"-0.022": 0.0,
			"-0.021": 0.0,
			"-0.02": 0.0,
			"-0.019": 0.0,
			"-0.018": 0.0,
			"-0.017": 0.0,
			"-0.016": 0.0,
			"-0.015": 0.0,
			"-0.014": 0.0,
			"-0.013": 0.0,
			"-0.012": 0.0,
			"-0.011": 0.0,
			"-0.01": 0.0,
			"-0.009": 0.0,
			"-0.008": 0.0,
			"-0.007": 0.0,
			"-0.006": 0.14814549326,
			"-0.005": 4.20548965079,
			"-0.004": 17.5426570936,
			"-0.003": 22.6898338019,
			"-0.002": 19.2827287749,
			"-0.001": 17.4484021519,
			"0.0": 23.3666685552,
			"0.001": 14.3825259575,
			"0.002": 8.60674650988,
			"0.003": 7.2051266443,
			"0.004": 7.18495892699,
			"0.005": 7.73628886057,
			"0.006": 7.50537577692,
			"0.007": 6.26470537531,
			"0.008": 0.708998415824,
			"0.009": 0.0,
			"0.01": 0.0,
			"0.011": 0.0,
			"0.012": 0.0,
			"0.013": 0.0,
			"0.014": 0.0,
			"0.015": 0.0,
			"0.016": 0.0,
			"0.017": 0.0,
			"0.018": 0.0,
			"0.019": 0.0,
			"0.02": 0.0,
			"0.021": 0.0,
			"0.022": 0.0,
			"0.023": 0.0,
			"0.024": 0.0,
			"0.025": 0.0
		}
	}
}
