{
	 "smiles": "COC1=CC=CC(C#N)=C1OC", 
	 "Tm": 318.35, 
	 "num_atms": 21, 
	 "gaussian": { 
		 "optdone": 1, 
		 "sigma_profile": "yes", 
		 "theory": "DFT", 
		 "functional": "B3LYP", 
		 "basiset": "6-31G**", 
		 "properties": { 
			 "R2extent": 2555.3604, 
			 "electric_dipole_moment_norm": 4.50725639164, 
			 "electric_quadrupole_moment_norm": 20.9529588259, 
			 "total_energy": -553.528797542, 
			 "HOMO_LUMO_gap": 0.20156, 
			 "cosmo_polarized_energy": -10.49, 
			 "cosmo_cavitation_energy": 25.95, 
			 "cosmo_dispersion_energy": -17.94, 
			 "cosmo_repulsion_energy": 1.45, 
			 "cosmo_total_nonelectrostatic_energy": 9.46, 
			 "SMD_solvation_energy": 7.38 
		},
		"coords": [
			{
				"x": 0.0951406841,
				"y": 1.1494239452,
				"z": 2.758678691,
				"element": "C" 
			},
			{
				"x": 0.5087917633,
				"y": 0.2203786964,
				"z": 1.7452842563,
				"element": "O" 
			},
			{
				"x": 0.8725028999,
				"y": 0.787678099,
				"z": 0.5481746246,
				"element": "C" 
			},
			{
				"x": 2.2088190045,
				"y": 0.730204743,
				"z": 0.1499218691,
				"element": "C" 
			},
			{
				"x": 2.6121339795,
				"y": 1.2711915963,
				"z": -1.0731085063,
				"element": "C" 
			},
			{
				"x": 1.681479764,
				"y": 1.8835520746,
				"z": -1.905223493,
				"element": "C" 
			},
			{
				"x": 0.3292667039,
				"y": 1.9336000146,
				"z": -1.5223679486,
				"element": "C" 
			},
			{
				"x": -0.6421402059,
				"y": 2.5366443471,
				"z": -2.3867394607,
				"element": "C" 
			},
			{
				"x": -1.4065023655,
				"y": 3.0256450361,
				"z": -3.1143709025,
				"element": "N" 
			},
			{
				"x": -0.0856609097,
				"y": 1.3797438425,
				"z": -0.2955987597,
				"element": "C" 
			},
			{
				"x": -1.4012791396,
				"y": 1.4744647711,
				"z": 0.0634622663,
				"element": "O" 
			},
			{
				"x": -2.1265604055,
				"y": 0.2327405165,
				"z": 0.0823522512,
				"element": "C" 
			},
			{
				"x": 0.9152913089,
				"y": 1.8315081334,
				"z": 3.0136508205,
				"element": "H" 
			},
			{
				"x": -0.1606611347,
				"y": 0.5487117378,
				"z": 3.6332020445,
				"element": "H" 
			},
			{
				"x": -0.775619399,
				"y": 1.7282858027,
				"z": 2.4373936933,
				"element": "H" 
			},
			{
				"x": 2.9194943099,
				"y": 0.2566354131,
				"z": 0.8197499305,
				"element": "H" 
			},
			{
				"x": 3.6551439103,
				"y": 1.2231163809,
				"z": -1.3686847789,
				"element": "H" 
			},
			{
				"x": 1.9792958331,
				"y": 2.3160463536,
				"z": -2.8539898932,
				"element": "H" 
			},
			{
				"x": -3.1398617113,
				"y": 0.4833512207,
				"z": 0.3990697906,
				"element": "H" 
			},
			{
				"x": -1.6774132225,
				"y": -0.4748528837,
				"z": 0.78507664,
				"element": "H" 
			},
			{
				"x": -2.1579616679,
				"y": -0.2066698409,
				"z": -0.920933135,
				"element": "H" 
			}
		],
		 "valence_orbital": [ 
			{
				"type": "occ",
				"energy": -0.32498,
				"method": "rhf"
			},
			{
				"type": "occ",
				"energy": -0.31224,
				"method": "rhf"
			},
			{
				"type": "occ",
				"energy": -0.2807,
				"method": "rhf"
			},
			{
				"type": "occ",
				"energy": -0.25829,
				"method": "rhf"
			},
			{
				"type": "occ",
				"energy": -0.24958,
				"method": "rhf"
			},
			{
				"type": "unocc",
				"energy": -0.04802,
				"method": "rhf"
			},
			{
				"type": "unocc",
				"energy": -0.01796,
				"method": "rhf"
			},
			{
				"type": "unocc",
				"energy": 0.03983,
				"method": "rhf"
			},
			{
				"type": "unocc",
				"energy": 0.07197,
				"method": "rhf"
			},
			{
				"type": "unocc",
				"energy": 0.08139,
				"method": "rhf"
			}
		],
		"cosmo_sigma_profile": { 
			"-0.025": 0.0,
			"-0.024": 0.0,
			"-0.023": 0.0,
			"-0.022": 0.0,
			"-0.021": 0.0,
			"-0.02": 0.0,
			"-0.019": 0.0,
			"-0.018": 0.0,
			"-0.017": 0.0,
			"-0.016": 0.0,
			"-0.015": 0.0,
			"-0.014": 0.0,
			"-0.013": 0.0,
			"-0.012": 0.0,
			"-0.011": 0.0,
			"-0.01": 0.0,
			"-0.009": 0.00603382097099,
			"-0.008": 1.75851493633,
			"-0.007": 5.99179485705,
			"-0.006": 11.6408040456,
			"-0.005": 15.9323955299,
			"-0.004": 19.7825820082,
			"-0.003": 24.7527120317,
			"-0.002": 18.1252860862,
			"-0.001": 17.7008878967,
			"0.0": 13.0328006531,
			"0.001": 13.9798190387,
			"0.002": 13.8789681108,
			"0.003": 8.8645789668,
			"0.004": 3.55279118647,
			"0.005": 4.42996159638,
			"0.006": 4.83612773926,
			"0.007": 5.80553529926,
			"0.008": 5.77050980484,
			"0.009": 4.91259127623,
			"0.01": 5.48779348315,
			"0.011": 3.41657877719,
			"0.012": 2.66465080846,
			"0.013": 1.65641958076,
			"0.014": 0.0747471828502,
			"0.015": 0.0,
			"0.016": 0.0,
			"0.017": 0.0,
			"0.018": 0.0,
			"0.019": 0.0,
			"0.02": 0.0,
			"0.021": 0.0,
			"0.022": 0.0,
			"0.023": 0.0,
			"0.024": 0.0,
			"0.025": 0.0
		}
	}
}
