{
	 "smiles": "OC(=O)C(CC1=C(F)C=CC=C1)NC(=O)OCC1C2=C(C=CC=C2)C2=C1C=CC=C2", 
	 "Tm": 418.15, 
	 "num_atms": 50, 
	 "gaussian": { 
		 "optdone": 1, 
		 "sigma_profile": "yes", 
		 "theory": "DFT", 
		 "functional": "B3LYP", 
		 "basiset": "6-31G**", 
		 "properties": { 
			 "R2extent": 14999.9566, 
			 "electric_dipole_moment_norm": 6.65003561645, 
			 "electric_quadrupole_moment_norm": 27.8664567667, 
			 "total_energy": -1382.14069264, 
			 "HOMO_LUMO_gap": 0.18427, 
			 "cosmo_polarized_energy": -22.01, 
			 "cosmo_cavitation_energy": 54.93, 
			 "cosmo_dispersion_energy": -35.67, 
			 "cosmo_repulsion_energy": 2.62, 
			 "cosmo_total_nonelectrostatic_energy": 21.88, 
			 "SMD_solvation_energy": 10.2 
		},
		"coords": [
			{
				"x": -4.2634939174,
				"y": -1.3823542876,
				"z": 2.5489638231,
				"element": "O" 
			},
			{
				"x": -3.2148808285,
				"y": -2.1846339338,
				"z": 2.8167887078,
				"element": "C" 
			},
			{
				"x": -3.3706023836,
				"y": -3.2478770919,
				"z": 3.3675904388,
				"element": "O" 
			},
			{
				"x": -1.8368449975,
				"y": -1.664014498,
				"z": 2.3759004699,
				"element": "C" 
			},
			{
				"x": -1.3966176991,
				"y": -0.4047774862,
				"z": 3.1895010823,
				"element": "C" 
			},
			{
				"x": -2.2262487699,
				"y": 0.8346691184,
				"z": 2.9397564227,
				"element": "C" 
			},
			{
				"x": -3.1280340898,
				"y": 1.3098097242,
				"z": 3.8996261809,
				"element": "C" 
			},
			{
				"x": -3.2519652776,
				"y": 0.6307253439,
				"z": 5.059989184,
				"element": "F" 
			},
			{
				"x": -3.9026556503,
				"y": 2.4489484741,
				"z": 3.7127087392,
				"element": "C" 
			},
			{
				"x": -3.7855950613,
				"y": 3.1522256016,
				"z": 2.5138255903,
				"element": "C" 
			},
			{
				"x": -2.9000024955,
				"y": 2.7109641257,
				"z": 1.5274107225,
				"element": "C" 
			},
			{
				"x": -2.1296839228,
				"y": 1.5676101107,
				"z": 1.7442568338,
				"element": "C" 
			},
			{
				"x": -0.9045388882,
				"y": -2.7570597423,
				"z": 2.533932612,
				"element": "N" 
			},
			{
				"x": 0.2973423102,
				"y": -2.8997565894,
				"z": 1.904996857,
				"element": "C" 
			},
			{
				"x": 1.0287347837,
				"y": -3.8642934446,
				"z": 2.0140593512,
				"element": "O" 
			},
			{
				"x": 0.5873500948,
				"y": -1.8038845443,
				"z": 1.1387662361,
				"element": "O" 
			},
			{
				"x": 1.8618103584,
				"y": -1.8663853156,
				"z": 0.4635364765,
				"element": "C" 
			},
			{
				"x": 2.08317573,
				"y": -0.5284931499,
				"z": -0.2460239844,
				"element": "C" 
			},
			{
				"x": 1.22084638,
				"y": -0.3024605658,
				"z": -1.480571084,
				"element": "C" 
			},
			{
				"x": 2.0359299675,
				"y": -0.0563810763,
				"z": -2.6057224985,
				"element": "C" 
			},
			{
				"x": 1.4646685938,
				"y": 0.1897153274,
				"z": -3.8559566632,
				"element": "C" 
			},
			{
				"x": 0.0732048563,
				"y": 0.1826945134,
				"z": -3.9757719271,
				"element": "C" 
			},
			{
				"x": -0.7357670925,
				"y": -0.0689685733,
				"z": -2.8628970135,
				"element": "C" 
			},
			{
				"x": -0.1645391899,
				"y": -0.3128394905,
				"z": -1.6080785972,
				"element": "C" 
			},
			{
				"x": 3.443283902,
				"y": -0.1202414534,
				"z": -2.190226627,
				"element": "C" 
			},
			{
				"x": 3.491815542,
				"y": -0.4026181128,
				"z": -0.8100679214,
				"element": "C" 
			},
			{
				"x": 4.7133260283,
				"y": -0.5167756893,
				"z": -0.1551746992,
				"element": "C" 
			},
			{
				"x": 5.8941399396,
				"y": -0.3498141387,
				"z": -0.8882765628,
				"element": "C" 
			},
			{
				"x": 5.8466231319,
				"y": -0.0689049666,
				"z": -2.2579276414,
				"element": "C" 
			},
			{
				"x": 4.622106746,
				"y": 0.0495765593,
				"z": -2.9192351576,
				"element": "C" 
			},
			{
				"x": -3.9642735503,
				"y": -0.5417974809,
				"z": 2.1661495273,
				"element": "H" 
			},
			{
				"x": -1.9062671161,
				"y": -1.3808071375,
				"z": 1.3175933857,
				"element": "H" 
			},
			{
				"x": -0.3605829024,
				"y": -0.2114824435,
				"z": 2.8996645212,
				"element": "H" 
			},
			{
				"x": -1.4036985881,
				"y": -0.6601410604,
				"z": 4.251431866,
				"element": "H" 
			},
			{
				"x": -4.5793588205,
				"y": 2.7625067005,
				"z": 4.5000488421,
				"element": "H" 
			},
			{
				"x": -4.3850058781,
				"y": 4.0429620294,
				"z": 2.3533830744,
				"element": "H" 
			},
			{
				"x": -2.8023155111,
				"y": 3.2592415345,
				"z": 0.5958627344,
				"element": "H" 
			},
			{
				"x": -1.4268064264,
				"y": 1.2398306957,
				"z": 0.9822145994,
				"element": "H" 
			},
			{
				"x": -1.2436744268,
				"y": -3.5601713367,
				"z": 3.0490982207,
				"element": "H" 
			},
			{
				"x": 2.6438179826,
				"y": -2.0543269009,
				"z": 1.2042432206,
				"element": "H" 
			},
			{
				"x": 1.8620733539,
				"y": -2.6992661022,
				"z": -0.2451417445,
				"element": "H" 
			},
			{
				"x": 1.9040682522,
				"y": 0.2659160185,
				"z": 0.4936094038,
				"element": "H" 
			},
			{
				"x": 2.088450395,
				"y": 0.3813290842,
				"z": -4.7246425227,
				"element": "H" 
			},
			{
				"x": -0.3849233603,
				"y": 0.3711340636,
				"z": -4.9424832998,
				"element": "H" 
			},
			{
				"x": -1.8162976416,
				"y": -0.078748371,
				"z": -2.9740894906,
				"element": "H" 
			},
			{
				"x": -0.7939632616,
				"y": -0.5228816011,
				"z": -0.7494807468,
				"element": "H" 
			},
			{
				"x": 4.7599383015,
				"y": -0.7302235861,
				"z": 0.9096453106,
				"element": "H" 
			},
			{
				"x": 6.8546268575,
				"y": -0.4382043837,
				"z": -0.3891890786,
				"element": "H" 
			},
			{
				"x": 6.7719076154,
				"y": 0.0586936937,
				"z": -2.8124103752,
				"element": "H" 
			},
			{
				"x": 4.5925966244,
				"y": 0.2685318351,
				"z": -3.9829867987,
				"element": "H" 
			}
		],
		 "valence_orbital": [ 
			{
				"type": "occ",
				"energy": -0.26713,
				"method": "rhf"
			},
			{
				"type": "occ",
				"energy": -0.25702,
				"method": "rhf"
			},
			{
				"type": "occ",
				"energy": -0.25587,
				"method": "rhf"
			},
			{
				"type": "occ",
				"energy": -0.25126,
				"method": "rhf"
			},
			{
				"type": "occ",
				"energy": -0.22196,
				"method": "rhf"
			},
			{
				"type": "unocc",
				"energy": -0.03769,
				"method": "rhf"
			},
			{
				"type": "unocc",
				"energy": -0.03634,
				"method": "rhf"
			},
			{
				"type": "unocc",
				"energy": -0.02032,
				"method": "rhf"
			},
			{
				"type": "unocc",
				"energy": -0.01982,
				"method": "rhf"
			},
			{
				"type": "unocc",
				"energy": -0.00469,
				"method": "rhf"
			}
		],
		"cosmo_sigma_profile": { 
			"-0.025": 0.0,
			"-0.024": 0.0,
			"-0.023": 0.0,
			"-0.022": 0.0,
			"-0.021": 0.0,
			"-0.02": 0.0,
			"-0.019": 0.0,
			"-0.018": 0.0,
			"-0.017": 0.0,
			"-0.016": 0.0,
			"-0.015": 0.15136924784,
			"-0.014": 0.824008205785,
			"-0.013": 1.27054351169,
			"-0.012": 1.42235288589,
			"-0.011": 1.20506872433,
			"-0.01": 2.10747112248,
			"-0.009": 2.0447247099,
			"-0.008": 2.80147331782,
			"-0.007": 7.26456437242,
			"-0.006": 24.18746572,
			"-0.005": 35.8074379789,
			"-0.004": 39.9744711328,
			"-0.003": 38.8518657675,
			"-0.002": 32.302228677,
			"-0.001": 31.2677135885,
			"0.0": 28.1906911543,
			"0.001": 26.4663862577,
			"0.002": 28.6133171562,
			"0.003": 31.3288044787,
			"0.004": 30.5895605888,
			"0.005": 22.0413438005,
			"0.006": 13.7538710871,
			"0.007": 4.3575534402,
			"0.008": 4.27726177177,
			"0.009": 5.50526634618,
			"0.01": 6.10747476589,
			"0.011": 4.75255184896,
			"0.012": 4.57045692076,
			"0.013": 5.66288260978,
			"0.014": 0.877793241212,
			"0.015": 0.0,
			"0.016": 0.0,
			"0.017": 0.0,
			"0.018": 0.0,
			"0.019": 0.0,
			"0.02": 0.0,
			"0.021": 0.0,
			"0.022": 0.0,
			"0.023": 0.0,
			"0.024": 0.0,
			"0.025": 0.0
		}
	}
}
