{
	 "smiles": "ClC1=C(C=C2C=CC=CC2=N1)C#N", 
	 "Tm": 437.15, 
	 "num_atms": 18, 
	 "gaussian": { 
		 "optdone": 1, 
		 "sigma_profile": "yes", 
		 "theory": "DFT", 
		 "functional": "B3LYP", 
		 "basiset": "6-31G**", 
		 "properties": { 
			 "R2extent": 2954.2017, 
			 "electric_dipole_moment_norm": 6.06822635784, 
			 "electric_quadrupole_moment_norm": 6.26728020995, 
			 "total_energy": -953.7598898, 
			 "HOMO_LUMO_gap": 0.16922, 
			 "cosmo_polarized_energy": -11.4, 
			 "cosmo_cavitation_energy": 25.67, 
			 "cosmo_dispersion_energy": -18.67, 
			 "cosmo_repulsion_energy": 1.46, 
			 "cosmo_total_nonelectrostatic_energy": 8.45, 
			 "SMD_solvation_energy": 3.81 
		},
		"coords": [
			{
				"x": 3.3360262283,
				"y": -1.1271644225,
				"z": -0.7863068538,
				"element": "Cl" 
			},
			{
				"x": 1.7998569531,
				"y": -0.5527154733,
				"z": -0.1657259866,
				"element": "C" 
			},
			{
				"x": 1.3087712034,
				"y": 0.7131501041,
				"z": -0.6324018967,
				"element": "C" 
			},
			{
				"x": 0.094348741,
				"y": 1.1456422764,
				"z": -0.128540092,
				"element": "C" 
			},
			{
				"x": -0.6107844816,
				"y": 0.3530389608,
				"z": 0.8054225067,
				"element": "C" 
			},
			{
				"x": -1.8594639098,
				"y": 0.7336038643,
				"z": 1.3629087519,
				"element": "C" 
			},
			{
				"x": -2.4906268749,
				"y": -0.0894070536,
				"z": 2.2686677738,
				"element": "C" 
			},
			{
				"x": -1.9010176349,
				"y": -1.3200928634,
				"z": 2.6513037684,
				"element": "C" 
			},
			{
				"x": -0.6893162842,
				"y": -1.716399013,
				"z": 2.1269188482,
				"element": "C" 
			},
			{
				"x": -0.0179736777,
				"y": -0.8896019187,
				"z": 1.1933516729,
				"element": "C" 
			},
			{
				"x": 1.1822615674,
				"y": -1.3070017607,
				"z": 0.6891914295,
				"element": "N" 
			},
			{
				"x": 2.0260187365,
				"y": 1.5108051212,
				"z": -1.5771460672,
				"element": "C" 
			},
			{
				"x": 2.5789747034,
				"y": 2.1882816161,
				"z": -2.3439089772,
				"element": "N" 
			},
			{
				"x": -0.3141133122,
				"y": 2.0974318911,
				"z": -0.4545869972,
				"element": "H" 
			},
			{
				"x": -2.3053079826,
				"y": 1.6785055779,
				"z": 1.0647750953,
				"element": "H" 
			},
			{
				"x": -3.4455898997,
				"y": 0.2019590619,
				"z": 2.6948149183,
				"element": "H" 
			},
			{
				"x": -2.4138107591,
				"y": -1.9557373934,
				"z": 3.3669233417,
				"element": "H" 
			},
			{
				"x": -0.2200533164,
				"y": -2.6536985752,
				"z": 2.4055387639,
				"element": "H" 
			}
		],
		 "valence_orbital": [ 
			{
				"type": "occ",
				"energy": -0.32466,
				"method": "rhf"
			},
			{
				"type": "occ",
				"energy": -0.32453,
				"method": "rhf"
			},
			{
				"type": "occ",
				"energy": -0.29143,
				"method": "rhf"
			},
			{
				"type": "occ",
				"energy": -0.26958,
				"method": "rhf"
			},
			{
				"type": "occ",
				"energy": -0.25905,
				"method": "rhf"
			},
			{
				"type": "unocc",
				"energy": -0.08983,
				"method": "rhf"
			},
			{
				"type": "unocc",
				"energy": -0.05753,
				"method": "rhf"
			},
			{
				"type": "unocc",
				"energy": -0.00837,
				"method": "rhf"
			},
			{
				"type": "unocc",
				"energy": 0.01262,
				"method": "rhf"
			},
			{
				"type": "unocc",
				"energy": 0.02715,
				"method": "rhf"
			}
		],
		"cosmo_sigma_profile": { 
			"-0.025": 0.0,
			"-0.024": 0.0,
			"-0.023": 0.0,
			"-0.022": 0.0,
			"-0.021": 0.0,
			"-0.02": 0.0,
			"-0.019": 0.0,
			"-0.018": 0.0,
			"-0.017": 0.0,
			"-0.016": 0.0,
			"-0.015": 0.0,
			"-0.014": 0.0,
			"-0.013": 0.0,
			"-0.012": 0.0,
			"-0.011": 0.0256321288,
			"-0.01": 2.71413383701,
			"-0.009": 3.0120864708,
			"-0.008": 3.86439964144,
			"-0.007": 9.7052739048,
			"-0.006": 10.4763568527,
			"-0.005": 10.7951140505,
			"-0.004": 12.6150472995,
			"-0.003": 17.7411572865,
			"-0.002": 14.6056617019,
			"-0.001": 14.3590519841,
			"0.0": 15.3439080221,
			"0.001": 18.1034382635,
			"0.002": 19.2255756377,
			"0.003": 16.3740398515,
			"0.004": 8.750787459,
			"0.005": 5.19535831054,
			"0.006": 4.82349727756,
			"0.007": 3.92462702131,
			"0.008": 4.91084594316,
			"0.009": 4.29952786917,
			"0.01": 3.75360042643,
			"0.011": 3.15982996861,
			"0.012": 2.82037352872,
			"0.013": 0.655969386753,
			"0.014": 0.0,
			"0.015": 0.0,
			"0.016": 0.0,
			"0.017": 0.0,
			"0.018": 0.0,
			"0.019": 0.0,
			"0.02": 0.0,
			"0.021": 0.0,
			"0.022": 0.0,
			"0.023": 0.0,
			"0.024": 0.0,
			"0.025": 0.0
		}
	}
}
