{
	 "smiles": "NC1=NC2=C(CN(CC3=CC=CC=C3)CC2)S1", 
	 "Tm": 369.65, 
	 "num_atms": 32, 
	 "gaussian": { 
		 "optdone": 1, 
		 "sigma_profile": "yes", 
		 "theory": "DFT", 
		 "functional": "B3LYP", 
		 "basiset": "6-31G**", 
		 "properties": { 
			 "R2extent": 5907.342, 
			 "electric_dipole_moment_norm": 1.80107776623, 
			 "electric_quadrupole_moment_norm": 12.2317414995, 
			 "total_energy": -1066.85616433, 
			 "HOMO_LUMO_gap": 0.19236, 
			 "cosmo_polarized_energy": -13.19, 
			 "cosmo_cavitation_energy": 35.66, 
			 "cosmo_dispersion_energy": -26.37, 
			 "cosmo_repulsion_energy": 2.0, 
			 "cosmo_total_nonelectrostatic_energy": 11.29, 
			 "SMD_solvation_energy": 0.82 
		},
		"coords": [
			{
				"x": -3.1591206477,
				"y": -2.7589007843,
				"z": -4.1608166753,
				"element": "N" 
			},
			{
				"x": -2.3562855689,
				"y": -1.9958938264,
				"z": -3.3372930028,
				"element": "C" 
			},
			{
				"x": -1.0719114339,
				"y": -1.8673589872,
				"z": -3.4847316979,
				"element": "N" 
			},
			{
				"x": -0.5643646526,
				"y": -0.9748857373,
				"z": -2.5540875462,
				"element": "C" 
			},
			{
				"x": -1.4532603265,
				"y": -0.4179097295,
				"z": -1.6893266785,
				"element": "C" 
			},
			{
				"x": -1.1026057501,
				"y": 0.542283117,
				"z": -0.590302611,
				"element": "C" 
			},
			{
				"x": 0.2572207924,
				"y": 1.0443342858,
				"z": -0.8018351746,
				"element": "N" 
			},
			{
				"x": 0.6937787726,
				"y": 1.9918200568,
				"z": 0.2311886748,
				"element": "C" 
			},
			{
				"x": 0.8579261995,
				"y": 1.4481934536,
				"z": 1.6461153992,
				"element": "C" 
			},
			{
				"x": -0.1995745549,
				"y": 1.5034574764,
				"z": 2.5652868208,
				"element": "C" 
			},
			{
				"x": -0.0640510379,
				"y": 0.9777999999,
				"z": 3.85146175,
				"element": "C" 
			},
			{
				"x": 1.1393239541,
				"y": 0.3884693914,
				"z": 4.2423874367,
				"element": "C" 
			},
			{
				"x": 2.20522003,
				"y": 0.3347314142,
				"z": 3.3419441111,
				"element": "C" 
			},
			{
				"x": 2.0636205968,
				"y": 0.8618785978,
				"z": 2.0576620004,
				"element": "C" 
			},
			{
				"x": 1.2175649218,
				"y": -0.0175051341,
				"z": -1.1132994766,
				"element": "C" 
			},
			{
				"x": 0.8975239095,
				"y": -0.6437694589,
				"z": -2.4793232727,
				"element": "C" 
			},
			{
				"x": -3.0673802843,
				"y": -1.0202062614,
				"z": -2.0346018338,
				"element": "S" 
			},
			{
				"x": -2.6214556073,
				"y": -3.3963286817,
				"z": -4.7347029267,
				"element": "H" 
			},
			{
				"x": -3.9645959264,
				"y": -3.1900418907,
				"z": -3.7289087323,
				"element": "H" 
			},
			{
				"x": -1.7852275572,
				"y": 1.4038669426,
				"z": -0.5906068851,
				"element": "H" 
			},
			{
				"x": -1.2242124568,
				"y": 0.0458463338,
				"z": 0.3920331526,
				"element": "H" 
			},
			{
				"x": -0.0346192531,
				"y": 2.8123470041,
				"z": 0.2450372952,
				"element": "H" 
			},
			{
				"x": 1.6467632777,
				"y": 2.4164992766,
				"z": -0.1061099158,
				"element": "H" 
			},
			{
				"x": -1.1351720253,
				"y": 1.9754160787,
				"z": 2.2738379517,
				"element": "H" 
			},
			{
				"x": -0.8951249605,
				"y": 1.0341883813,
				"z": 4.5490948021,
				"element": "H" 
			},
			{
				"x": 1.2488657692,
				"y": -0.018279371,
				"z": 5.2436496487,
				"element": "H" 
			},
			{
				"x": 3.1494019792,
				"y": -0.1113697051,
				"z": 3.6421225297,
				"element": "H" 
			},
			{
				"x": 2.9040745092,
				"y": 0.8286035672,
				"z": 1.3685994836,
				"element": "H" 
			},
			{
				"x": 2.2178943874,
				"y": 0.4279942876,
				"z": -1.1372646452,
				"element": "H" 
			},
			{
				"x": 1.2356034859,
				"y": -0.809132536,
				"z": -0.3421915274,
				"element": "H" 
			},
			{
				"x": 1.1646318478,
				"y": 0.0540723793,
				"z": -3.2835492619,
				"element": "H" 
			},
			{
				"x": 1.4948476107,
				"y": -1.5506199403,
				"z": -2.6294691927,
				"element": "H" 
			}
		],
		 "valence_orbital": [ 
			{
				"type": "occ",
				"energy": -0.26331,
				"method": "rhf"
			},
			{
				"type": "occ",
				"energy": -0.2494,
				"method": "rhf"
			},
			{
				"type": "occ",
				"energy": -0.24551,
				"method": "rhf"
			},
			{
				"type": "occ",
				"energy": -0.20845,
				"method": "rhf"
			},
			{
				"type": "occ",
				"energy": -0.19616,
				"method": "rhf"
			},
			{
				"type": "unocc",
				"energy": -0.0038,
				"method": "rhf"
			},
			{
				"type": "unocc",
				"energy": -0.00213,
				"method": "rhf"
			},
			{
				"type": "unocc",
				"energy": 0.0048,
				"method": "rhf"
			},
			{
				"type": "unocc",
				"energy": 0.01714,
				"method": "rhf"
			},
			{
				"type": "unocc",
				"energy": 0.06982,
				"method": "rhf"
			}
		],
		"cosmo_sigma_profile": { 
			"-0.025": 0.0,
			"-0.024": 0.0,
			"-0.023": 0.0,
			"-0.022": 0.0,
			"-0.021": 0.0,
			"-0.02": 0.0,
			"-0.019": 0.0,
			"-0.018": 0.0,
			"-0.017": 0.0,
			"-0.016": 0.0,
			"-0.015": 0.0,
			"-0.014": 1.54979900621,
			"-0.013": 2.58132112456,
			"-0.012": 2.57054925942,
			"-0.011": 2.91049942642,
			"-0.01": 1.83686639542,
			"-0.009": 2.84879843282,
			"-0.008": 1.64943305034,
			"-0.007": 1.42023851253,
			"-0.006": 3.87373240413,
			"-0.005": 18.4597831138,
			"-0.004": 27.8228844133,
			"-0.003": 26.6931695965,
			"-0.002": 24.1151676665,
			"-0.001": 26.5364700354,
			"0.0": 16.8009707438,
			"0.001": 16.3505725275,
			"0.002": 17.6066860009,
			"0.003": 17.7933254225,
			"0.004": 19.2848946984,
			"0.005": 15.9133842863,
			"0.006": 12.4104812779,
			"0.007": 5.32699038384,
			"0.008": 3.314733773,
			"0.009": 2.60627718923,
			"0.01": 2.63612427507,
			"0.011": 2.04809547844,
			"0.012": 2.22035195338,
			"0.013": 1.45717173972,
			"0.014": 1.26881443229,
			"0.015": 1.12918608374,
			"0.016": 0.623606552336,
			"0.017": 0.000915940084644,
			"0.018": 0.0,
			"0.019": 0.0,
			"0.02": 0.0,
			"0.021": 0.0,
			"0.022": 0.0,
			"0.023": 0.0,
			"0.024": 0.0,
			"0.025": 0.0
		}
	}
}
