{
	 "smiles": "CN(C)C(=O)CC1=C(N=C2C=CC(C)=CN12)C1=CC=C(C)C=C1", 
	 "Tm": 469.15, 
	 "num_atms": 44, 
	 "gaussian": { 
		 "optdone": 1, 
		 "sigma_profile": "yes", 
		 "theory": "DFT", 
		 "functional": "B3LYP", 
		 "basiset": "6-31G**", 
		 "properties": { 
			 "R2extent": 9247.5129, 
			 "electric_dipole_moment_norm": 5.07083561654, 
			 "electric_quadrupole_moment_norm": 16.1201994898, 
			 "total_energy": -976.187276581, 
			 "HOMO_LUMO_gap": 0.16811, 
			 "cosmo_polarized_energy": -19.84, 
			 "cosmo_cavitation_energy": 46.55, 
			 "cosmo_dispersion_energy": -32.22, 
			 "cosmo_repulsion_energy": 2.48, 
			 "cosmo_total_nonelectrostatic_energy": 16.81, 
			 "SMD_solvation_energy": 6.67 
		},
		"coords": [
			{
				"x": -4.4659026281,
				"y": 2.2017107687,
				"z": 2.2377000017,
				"element": "C" 
			},
			{
				"x": -3.2578365477,
				"y": 2.4959714327,
				"z": 1.4769451889,
				"element": "N" 
			},
			{
				"x": -3.3329362887,
				"y": 3.6627795669,
				"z": 0.6121590935,
				"element": "C" 
			},
			{
				"x": -2.2210656581,
				"y": 1.5922835418,
				"z": 1.508075503,
				"element": "C" 
			},
			{
				"x": -2.2495347997,
				"y": 0.5941273447,
				"z": 2.2204279252,
				"element": "O" 
			},
			{
				"x": -0.9954511618,
				"y": 1.9113409055,
				"z": 0.6270585951,
				"element": "C" 
			},
			{
				"x": 0.0023720727,
				"y": 0.8047072951,
				"z": 0.5337827288,
				"element": "C" 
			},
			{
				"x": 0.4215021743,
				"y": 0.0286818799,
				"z": -0.549254938,
				"element": "C" 
			},
			{
				"x": 1.336286301,
				"y": -0.9144268847,
				"z": -0.1669245476,
				"element": "N" 
			},
			{
				"x": 1.5178181172,
				"y": -0.7275129837,
				"z": 1.1356192797,
				"element": "C" 
			},
			{
				"x": 2.3660443461,
				"y": -1.3922135395,
				"z": 2.05109629,
				"element": "C" 
			},
			{
				"x": 2.3846668304,
				"y": -1.0006077323,
				"z": 3.3654978149,
				"element": "C" 
			},
			{
				"x": 1.549882361,
				"y": 0.063430059,
				"z": 3.8317027403,
				"element": "C" 
			},
			{
				"x": 1.5665326438,
				"y": 0.4677680503,
				"z": 5.2847494228,
				"element": "C" 
			},
			{
				"x": 0.7275016514,
				"y": 0.6973867047,
				"z": 2.9391895943,
				"element": "C" 
			},
			{
				"x": 0.7185607032,
				"y": 0.3225418154,
				"z": 1.6156072238,
				"element": "N" 
			},
			{
				"x": -0.0114268772,
				"y": 0.1048341823,
				"z": -1.9577380633,
				"element": "C" 
			},
			{
				"x": -0.1865977974,
				"y": -1.0835821724,
				"z": -2.6874351547,
				"element": "C" 
			},
			{
				"x": -0.5858647164,
				"y": -1.0513353889,
				"z": -4.019278899,
				"element": "C" 
			},
			{
				"x": -0.8226691661,
				"y": 0.1635396852,
				"z": -4.6807103685,
				"element": "C" 
			},
			{
				"x": -1.2832940964,
				"y": 0.1872307239,
				"z": -6.1190141541,
				"element": "C" 
			},
			{
				"x": -0.6232974384,
				"y": 1.3466806516,
				"z": -3.9610407968,
				"element": "C" 
			},
			{
				"x": -0.2191917407,
				"y": 1.3212578523,
				"z": -2.6254556786,
				"element": "C" 
			},
			{
				"x": -4.7134395328,
				"y": 3.0411108517,
				"z": 2.8987329662,
				"element": "H" 
			},
			{
				"x": -4.2889922057,
				"y": 1.3065013811,
				"z": 2.8308880369,
				"element": "H" 
			},
			{
				"x": -5.3167979219,
				"y": 2.0293885696,
				"z": 1.5656528632,
				"element": "H" 
			},
			{
				"x": -3.971151759,
				"y": 3.4809459803,
				"z": -0.2644215993,
				"element": "H" 
			},
			{
				"x": -3.7631607579,
				"y": 4.5014946688,
				"z": 1.1712874554,
				"element": "H" 
			},
			{
				"x": -2.3479647217,
				"y": 3.9700634846,
				"z": 0.2650307839,
				"element": "H" 
			},
			{
				"x": -1.3314162843,
				"y": 2.1382961355,
				"z": -0.386504661,
				"element": "H" 
			},
			{
				"x": -0.5296961172,
				"y": 2.8345755081,
				"z": 1.007047563,
				"element": "H" 
			},
			{
				"x": 2.9833507588,
				"y": -2.2003331251,
				"z": 1.6759529027,
				"element": "H" 
			},
			{
				"x": 3.0345765455,
				"y": -1.5065097602,
				"z": 4.0738628157,
				"element": "H" 
			},
			{
				"x": 0.8735496124,
				"y": 1.2906088582,
				"z": 5.4805124788,
				"element": "H" 
			},
			{
				"x": 2.5670541586,
				"y": 0.7897551207,
				"z": 5.596878503,
				"element": "H" 
			},
			{
				"x": 1.2806753941,
				"y": -0.3694474818,
				"z": 5.9320199715,
				"element": "H" 
			},
			{
				"x": 0.0391404247,
				"y": 1.4806562805,
				"z": 3.2243182863,
				"element": "H" 
			},
			{
				"x": 0.0028303091,
				"y": -2.0293657565,
				"z": -2.1907978333,
				"element": "H" 
			},
			{
				"x": -0.7161937319,
				"y": -1.9864948146,
				"z": -4.5593712518,
				"element": "H" 
			},
			{
				"x": -2.3501251615,
				"y": -0.0569739184,
				"z": -6.2002527966,
				"element": "H" 
			},
			{
				"x": -0.740073392,
				"y": -0.5448377233,
				"z": -6.7258303859,
				"element": "H" 
			},
			{
				"x": -1.1380481813,
				"y": 1.173255339,
				"z": -6.5700474466,
				"element": "H" 
			},
			{
				"x": -0.7677264243,
				"y": 2.3040764729,
				"z": -4.4564509992,
				"element": "H" 
			},
			{
				"x": -0.019389296,
				"y": 2.2589401705,
				"z": -2.1149664542,
				"element": "H" 
			}
		],
		 "valence_orbital": [ 
			{
				"type": "occ",
				"energy": -0.2486,
				"method": "rhf"
			},
			{
				"type": "occ",
				"energy": -0.24337,
				"method": "rhf"
			},
			{
				"type": "occ",
				"energy": -0.24023,
				"method": "rhf"
			},
			{
				"type": "occ",
				"energy": -0.20821,
				"method": "rhf"
			},
			{
				"type": "occ",
				"energy": -0.1916,
				"method": "rhf"
			},
			{
				"type": "unocc",
				"energy": -0.02349,
				"method": "rhf"
			},
			{
				"type": "unocc",
				"energy": -0.00163,
				"method": "rhf"
			},
			{
				"type": "unocc",
				"energy": 0.00685,
				"method": "rhf"
			},
			{
				"type": "unocc",
				"energy": 0.02293,
				"method": "rhf"
			},
			{
				"type": "unocc",
				"energy": 0.02526,
				"method": "rhf"
			}
		],
		"cosmo_sigma_profile": { 
			"-0.025": 0.0,
			"-0.024": 0.0,
			"-0.023": 0.0,
			"-0.022": 0.0,
			"-0.021": 0.0,
			"-0.02": 0.0,
			"-0.019": 0.0,
			"-0.018": 0.0,
			"-0.017": 0.0,
			"-0.016": 0.0,
			"-0.015": 0.0,
			"-0.014": 0.0,
			"-0.013": 0.0,
			"-0.012": 0.0,
			"-0.011": 0.0,
			"-0.01": 0.0,
			"-0.009": 0.10381110627,
			"-0.008": 2.05665741013,
			"-0.007": 9.16423039051,
			"-0.006": 13.3099480167,
			"-0.005": 25.9252709234,
			"-0.004": 40.6565496217,
			"-0.003": 40.1178526869,
			"-0.002": 39.3815894407,
			"-0.001": 31.2410103523,
			"0.0": 29.8802266219,
			"0.001": 22.5675073187,
			"0.002": 18.8100836113,
			"0.003": 22.0854452667,
			"0.004": 16.4016371578,
			"0.005": 13.4358671371,
			"0.006": 12.7706426188,
			"0.007": 4.29992050224,
			"0.008": 3.50371145234,
			"0.009": 2.80761300782,
			"0.01": 3.38023567189,
			"0.011": 3.53597642842,
			"0.012": 2.90098782447,
			"0.013": 4.27991605273,
			"0.014": 3.97184010278,
			"0.015": 0.892829078381,
			"0.016": 0.86791133029,
			"0.017": 0.541407457839,
			"0.018": 0.393022504859,
			"0.019": 0.0,
			"0.02": 0.0,
			"0.021": 0.0,
			"0.022": 0.0,
			"0.023": 0.0,
			"0.024": 0.0,
			"0.025": 0.0
		}
	}
}
