{
	 "smiles": "C1CCC(NC1)C1=CNN=C1", 
	 "Tm": 388.15, 
	 "num_atms": 24, 
	 "gaussian": { 
		 "optdone": 1, 
		 "sigma_profile": "yes", 
		 "theory": "DFT", 
		 "functional": "B3LYP", 
		 "basiset": "6-31G**", 
		 "properties": { 
			 "R2extent": 2629.571, 
			 "electric_dipole_moment_norm": 2.29572009182, 
			 "electric_quadrupole_moment_norm": 9.50227600894, 
			 "total_energy": -476.914808437, 
			 "HOMO_LUMO_gap": 0.23256, 
			 "cosmo_polarized_energy": -11.18, 
			 "cosmo_cavitation_energy": 24.84, 
			 "cosmo_dispersion_energy": -18.84, 
			 "cosmo_repulsion_energy": 1.52, 
			 "cosmo_total_nonelectrostatic_energy": 7.52, 
			 "SMD_solvation_energy": 0.87 
		},
		"coords": [
			{
				"x": -1.1070091055,
				"y": -1.2450946474,
				"z": -1.0797113033,
				"element": "C" 
			},
			{
				"x": -1.3053478741,
				"y": -1.9215348014,
				"z": 0.2848786772,
				"element": "C" 
			},
			{
				"x": -0.0860208994,
				"y": -2.7827517793,
				"z": 0.6492008527,
				"element": "C" 
			},
			{
				"x": 1.2540961977,
				"y": -2.0249080707,
				"z": 0.526529078,
				"element": "C" 
			},
			{
				"x": 1.3213173798,
				"y": -1.4127752005,
				"z": -0.8178431141,
				"element": "N" 
			},
			{
				"x": 0.2250528085,
				"y": -0.4897451689,
				"z": -1.1174657523,
				"element": "C" 
			},
			{
				"x": 1.5657470992,
				"y": -1.0827151007,
				"z": 1.6751875793,
				"element": "C" 
			},
			{
				"x": 0.8378065503,
				"y": -0.0494319206,
				"z": 2.2527117005,
				"element": "C" 
			},
			{
				"x": 1.6249088935,
				"y": 0.4875043576,
				"z": 3.2234892411,
				"element": "N" 
			},
			{
				"x": 2.8259446296,
				"y": -0.1152943574,
				"z": 3.3330185542,
				"element": "N" 
			},
			{
				"x": 2.7890439453,
				"y": -1.0614384479,
				"z": 2.3974508311,
				"element": "C" 
			},
			{
				"x": -1.9340779958,
				"y": -0.5587552092,
				"z": -1.2971562957,
				"element": "H" 
			},
			{
				"x": -1.0968867517,
				"y": -2.0086223624,
				"z": -1.8674705544,
				"element": "H" 
			},
			{
				"x": -1.4714655119,
				"y": -1.1569048486,
				"z": 1.0548390768,
				"element": "H" 
			},
			{
				"x": -2.2082942706,
				"y": -2.5435113433,
				"z": 0.2773593275,
				"element": "H" 
			},
			{
				"x": -0.0423007818,
				"y": -3.6328543351,
				"z": -0.0426079475,
				"element": "H" 
			},
			{
				"x": -0.1842486539,
				"y": -3.18894128,
				"z": 1.6615494838,
				"element": "H" 
			},
			{
				"x": 2.0487787856,
				"y": -2.7815678406,
				"z": 0.5466566098,
				"element": "H" 
			},
			{
				"x": 2.2106450613,
				"y": -0.929894112,
				"z": -0.9148297394,
				"element": "H" 
			},
			{
				"x": 0.1768688859,
				"y": 0.3694421676,
				"z": -0.4208694598,
				"element": "H" 
			},
			{
				"x": 0.3976767865,
				"y": -0.0746204436,
				"z": -2.1169086443,
				"element": "H" 
			},
			{
				"x": -0.1519178882,
				"y": 0.3357591887,
				"z": 2.0625056335,
				"element": "H" 
			},
			{
				"x": 1.4048951639,
				"y": 1.2546956962,
				"z": 3.8392964924,
				"element": "H" 
			},
			{
				"x": 3.6423875459,
				"y": -1.7150401405,
				"z": 2.2635896728,
				"element": "H" 
			}
		],
		 "valence_orbital": [ 
			{
				"type": "occ",
				"energy": -0.30764,
				"method": "rhf"
			},
			{
				"type": "occ",
				"energy": -0.28288,
				"method": "rhf"
			},
			{
				"type": "occ",
				"energy": -0.25361,
				"method": "rhf"
			},
			{
				"type": "occ",
				"energy": -0.2417,
				"method": "rhf"
			},
			{
				"type": "occ",
				"energy": -0.21339,
				"method": "rhf"
			},
			{
				"type": "unocc",
				"energy": 0.01917,
				"method": "rhf"
			},
			{
				"type": "unocc",
				"energy": 0.07054,
				"method": "rhf"
			},
			{
				"type": "unocc",
				"energy": 0.07905,
				"method": "rhf"
			},
			{
				"type": "unocc",
				"energy": 0.0839,
				"method": "rhf"
			},
			{
				"type": "unocc",
				"energy": 0.1026,
				"method": "rhf"
			}
		],
		"cosmo_sigma_profile": { 
			"-0.025": 0.0,
			"-0.024": 0.0,
			"-0.023": 0.0,
			"-0.022": 0.0,
			"-0.021": 0.0,
			"-0.02": 0.0,
			"-0.019": 0.0,
			"-0.018": 0.0,
			"-0.017": 0.0431137088717,
			"-0.016": 1.43486726381,
			"-0.015": 1.52438921147,
			"-0.014": 1.04238996117,
			"-0.013": 1.03778078344,
			"-0.012": 1.18423542363,
			"-0.011": 1.09021607351,
			"-0.01": 1.06602879013,
			"-0.009": 2.05700247855,
			"-0.008": 4.02655158131,
			"-0.007": 4.26664042598,
			"-0.006": 4.99146905816,
			"-0.005": 5.46943164151,
			"-0.004": 7.81274973118,
			"-0.003": 13.7993442202,
			"-0.002": 19.5317123905,
			"-0.001": 24.9012393549,
			"0.0": 26.5545047536,
			"0.001": 19.1488571027,
			"0.002": 7.34950961606,
			"0.003": 5.65174225384,
			"0.004": 6.7627366605,
			"0.005": 7.24413080971,
			"0.006": 4.40121880224,
			"0.007": 2.81396239957,
			"0.008": 1.68820510173,
			"0.009": 2.28682900341,
			"0.01": 2.94299064743,
			"0.011": 1.86892421754,
			"0.012": 1.6567261231,
			"0.013": 1.92899315423,
			"0.014": 1.19313328293,
			"0.015": 2.27486179272,
			"0.016": 1.3800379002,
			"0.017": 0.801302543909,
			"0.018": 0.338471300379,
			"0.019": 0.120404235886,
			"0.02": 0.0,
			"0.021": 0.0,
			"0.022": 0.0,
			"0.023": 0.0,
			"0.024": 0.0,
			"0.025": 0.0
		}
	}
}
