{
	 "smiles": "COC1=C(F)C=C(CCC(O)=O)C=C1", 
	 "Tm": 385.15, 
	 "num_atms": 25, 
	 "gaussian": { 
		 "optdone": 1, 
		 "sigma_profile": "yes", 
		 "theory": "DFT", 
		 "functional": "B3LYP", 
		 "basiset": "6-31G**", 
		 "properties": { 
			 "R2extent": 4236.9042, 
			 "electric_dipole_moment_norm": 5.59456870366, 
			 "electric_quadrupole_moment_norm": 19.1122879708, 
			 "total_energy": -713.193994249, 
			 "HOMO_LUMO_gap": 0.2084, 
			 "cosmo_polarized_energy": -14.02, 
			 "cosmo_cavitation_energy": 29.21, 
			 "cosmo_dispersion_energy": -20.9, 
			 "cosmo_repulsion_energy": 1.63, 
			 "cosmo_total_nonelectrostatic_energy": 9.94, 
			 "SMD_solvation_energy": 7.06 
		},
		"coords": [
			{
				"x": -2.0251472989,
				"y": -2.8968543771,
				"z": 1.7804115244,
				"element": "C" 
			},
			{
				"x": -0.7618404451,
				"y": -2.3265665989,
				"z": 2.1360123332,
				"element": "O" 
			},
			{
				"x": 0.073288708,
				"y": -1.84015324,
				"z": 1.1821622313,
				"element": "C" 
			},
			{
				"x": -0.2875181165,
				"y": -1.4057575563,
				"z": -0.1048318905,
				"element": "C" 
			},
			{
				"x": -1.5814176917,
				"y": -1.4621279149,
				"z": -0.5056734189,
				"element": "F" 
			},
			{
				"x": 0.64693117,
				"y": -0.9057155377,
				"z": -0.9995585906,
				"element": "C" 
			},
			{
				"x": 1.9995752969,
				"y": -0.7985566814,
				"z": -0.6446714858,
				"element": "C" 
			},
			{
				"x": 3.016796735,
				"y": -0.2573403182,
				"z": -1.6324000613,
				"element": "C" 
			},
			{
				"x": 2.8956449291,
				"y": 1.2539738801,
				"z": -1.9529850611,
				"element": "C" 
			},
			{
				"x": 3.3524401396,
				"y": 2.2077107293,
				"z": -0.8511267718,
				"element": "C" 
			},
			{
				"x": 2.8507949348,
				"y": 1.9886113123,
				"z": 0.3900959177,
				"element": "O" 
			},
			{
				"x": 4.1042681075,
				"y": 3.1307371675,
				"z": -1.0470977186,
				"element": "O" 
			},
			{
				"x": 2.3670549861,
				"y": -1.2150220809,
				"z": 0.64458516,
				"element": "C" 
			},
			{
				"x": 1.4243545248,
				"y": -1.7272295363,
				"z": 1.53386061,
				"element": "C" 
			},
			{
				"x": -2.7454254777,
				"y": -2.1320127684,
				"z": 1.4810962561,
				"element": "H" 
			},
			{
				"x": -1.9188143827,
				"y": -3.6298454901,
				"z": 0.9740162312,
				"element": "H" 
			},
			{
				"x": -2.376014918,
				"y": -3.3991544977,
				"z": 2.6832989177,
				"element": "H" 
			},
			{
				"x": 0.2929512705,
				"y": -0.601939641,
				"z": -1.9805565074,
				"element": "H" 
			},
			{
				"x": 4.0279247944,
				"y": -0.4701291175,
				"z": -1.2688588857,
				"element": "H" 
			},
			{
				"x": 2.9124329946,
				"y": -0.798885726,
				"z": -2.5797702182,
				"element": "H" 
			},
			{
				"x": 3.4981577706,
				"y": 1.4988918424,
				"z": -2.8298713877,
				"element": "H" 
			},
			{
				"x": 1.8525113742,
				"y": 1.493189514,
				"z": -2.1993853892,
				"element": "H" 
			},
			{
				"x": 2.2857548276,
				"y": 1.1985524683,
				"z": 0.4006646519,
				"element": "H" 
			},
			{
				"x": 3.4066934667,
				"y": -1.1514855182,
				"z": 0.9534293187,
				"element": "H" 
			},
			{
				"x": 1.7123023001,
				"y": -2.0568903134,
				"z": 2.5265542346,
				"element": "H" 
			}
		],
		 "valence_orbital": [ 
			{
				"type": "occ",
				"energy": -0.32456,
				"method": "rhf"
			},
			{
				"type": "occ",
				"energy": -0.30487,
				"method": "rhf"
			},
			{
				"type": "occ",
				"energy": -0.26859,
				"method": "rhf"
			},
			{
				"type": "occ",
				"energy": -0.25956,
				"method": "rhf"
			},
			{
				"type": "occ",
				"energy": -0.23515,
				"method": "rhf"
			},
			{
				"type": "unocc",
				"energy": -0.02675,
				"method": "rhf"
			},
			{
				"type": "unocc",
				"energy": -0.01297,
				"method": "rhf"
			},
			{
				"type": "unocc",
				"energy": 0.01663,
				"method": "rhf"
			},
			{
				"type": "unocc",
				"energy": 0.0636,
				"method": "rhf"
			},
			{
				"type": "unocc",
				"energy": 0.09106,
				"method": "rhf"
			}
		],
		"cosmo_sigma_profile": { 
			"-0.025": 0.0,
			"-0.024": 0.0,
			"-0.023": 0.0,
			"-0.022": 0.0,
			"-0.021": 0.0,
			"-0.02": 0.0,
			"-0.019": 0.0,
			"-0.018": 0.0,
			"-0.017": 0.0,
			"-0.016": 0.0,
			"-0.015": 0.0,
			"-0.014": 0.0,
			"-0.013": 0.0,
			"-0.012": 0.0,
			"-0.011": 0.0842574816678,
			"-0.01": 1.09365541563,
			"-0.009": 1.40656481141,
			"-0.008": 1.71455734631,
			"-0.007": 7.60629414595,
			"-0.006": 17.6532961381,
			"-0.005": 21.8157835295,
			"-0.004": 22.9940187931,
			"-0.003": 22.1236573432,
			"-0.002": 16.0514578397,
			"-0.001": 12.1811438004,
			"0.0": 12.9939751605,
			"0.001": 14.6047085567,
			"0.002": 13.1860155248,
			"0.003": 12.6604274841,
			"0.004": 12.5269122154,
			"0.005": 4.53636381399,
			"0.006": 4.03807756693,
			"0.007": 3.49714117804,
			"0.008": 3.99918296282,
			"0.009": 3.7721104749,
			"0.01": 5.48995241917,
			"0.011": 5.70814760312,
			"0.012": 6.10732930474,
			"0.013": 3.40787072305,
			"0.014": 0.348714718783,
			"0.015": 0.0,
			"0.016": 0.0,
			"0.017": 0.0,
			"0.018": 0.0,
			"0.019": 0.0,
			"0.02": 0.0,
			"0.021": 0.0,
			"0.022": 0.0,
			"0.023": 0.0,
			"0.024": 0.0,
			"0.025": 0.0
		}
	}
}
