{
	 "smiles": "IC1=CC(I)=C(I)C(I)=C1", 
	 "Tm": 421.15, 
	 "num_atms": 12, 
	 "gaussian": { 
		 "optdone": 1, 
		 "sigma_profile": "yes", 
		 "theory": "DFT", 
		 "functional": "B3LYP", 
		 "basiset": "6-31G**", 
		 "properties": { 
			 "R2extent": 2767.9658, 
			 "electric_dipole_moment_norm": 0.365929679037, 
			 "electric_quadrupole_moment_norm": 7.51480494624, 
			 "total_energy": -275.365543985, 
			 "HOMO_LUMO_gap": 0.15608, 
			 "cosmo_polarized_energy": -4.6, 
			 "cosmo_cavitation_energy": 28.68, 
			 "cosmo_dispersion_energy": -26.24, 
			 "cosmo_repulsion_energy": 1.98, 
			 "cosmo_total_nonelectrostatic_energy": 4.43, 
			 "SMD_solvation_energy": 1.54 
		},
		"coords": [
			{
				"x": -0.0862481468,
				"y": 1.8295406764,
				"z": -3.6730747638,
				"element": "I" 
			},
			{
				"x": -0.755505213,
				"y": 1.7097787723,
				"z": -1.6708217658,
				"element": "C" 
			},
			{
				"x": 0.1452442896,
				"y": 1.9227238449,
				"z": -0.6314260301,
				"element": "C" 
			},
			{
				"x": -0.3004273033,
				"y": 1.842771015,
				"z": 0.6920180087,
				"element": "C" 
			},
			{
				"x": 1.1845705655,
				"y": 2.1903839115,
				"z": 2.1632285717,
				"element": "I" 
			},
			{
				"x": -1.6460220154,
				"y": 1.5502857576,
				"z": 0.9934539295,
				"element": "C" 
			},
			{
				"x": -2.3138419199,
				"y": 1.4309354705,
				"z": 2.9913880842,
				"element": "I" 
			},
			{
				"x": -2.5308711885,
				"y": 1.3402612599,
				"z": -0.0835795105,
				"element": "C" 
			},
			{
				"x": -4.5876210184,
				"y": 0.8898874606,
				"z": 0.156127496,
				"element": "I" 
			},
			{
				"x": -2.0911498605,
				"y": 1.4189089326,
				"z": -1.4090883381,
				"element": "C" 
			},
			{
				"x": 1.1828420597,
				"y": 2.1486098246,
				"z": -0.8391106143,
				"element": "H" 
			},
			{
				"x": -2.7882702491,
				"y": 1.2540130741,
				"z": -2.2200150677,
				"element": "H" 
			}
		],
		 "valence_orbital": [ 
			{
				"type": "occ",
				"energy": -0.28469,
				"method": "rhf"
			},
			{
				"type": "occ",
				"energy": -0.27861,
				"method": "rhf"
			},
			{
				"type": "occ",
				"energy": -0.25639,
				"method": "rhf"
			},
			{
				"type": "occ",
				"energy": -0.2529,
				"method": "rhf"
			},
			{
				"type": "occ",
				"energy": -0.25017,
				"method": "rhf"
			},
			{
				"type": "unocc",
				"energy": -0.09409,
				"method": "rhf"
			},
			{
				"type": "unocc",
				"energy": -0.05291,
				"method": "rhf"
			},
			{
				"type": "unocc",
				"energy": -0.05152,
				"method": "rhf"
			},
			{
				"type": "unocc",
				"energy": -0.04956,
				"method": "rhf"
			},
			{
				"type": "unocc",
				"energy": -0.04007,
				"method": "rhf"
			}
		],
		"cosmo_sigma_profile": { 
			"-0.025": 0.0,
			"-0.024": 0.0,
			"-0.023": 0.0,
			"-0.022": 0.0,
			"-0.021": 0.0,
			"-0.02": 0.0,
			"-0.019": 0.0,
			"-0.018": 0.0,
			"-0.017": 0.0,
			"-0.016": 0.0,
			"-0.015": 0.0,
			"-0.014": 0.0,
			"-0.013": 0.0,
			"-0.012": 0.0,
			"-0.011": 0.0,
			"-0.01": 0.0,
			"-0.009": 0.410778283544,
			"-0.008": 6.00943439587,
			"-0.007": 7.84093660573,
			"-0.006": 9.1191793732,
			"-0.005": 9.28010535003,
			"-0.004": 10.2365675334,
			"-0.003": 11.5992605915,
			"-0.002": 13.7015496956,
			"-0.001": 20.9598056924,
			"0.0": 36.6815566588,
			"0.001": 28.7124268682,
			"0.002": 24.210640828,
			"0.003": 37.3037130723,
			"0.004": 34.7466921282,
			"0.005": 0.114825555137,
			"0.006": 0.0,
			"0.007": 0.0,
			"0.008": 0.0,
			"0.009": 0.0,
			"0.01": 0.0,
			"0.011": 0.0,
			"0.012": 0.0,
			"0.013": 0.0,
			"0.014": 0.0,
			"0.015": 0.0,
			"0.016": 0.0,
			"0.017": 0.0,
			"0.018": 0.0,
			"0.019": 0.0,
			"0.02": 0.0,
			"0.021": 0.0,
			"0.022": 0.0,
			"0.023": 0.0,
			"0.024": 0.0,
			"0.025": 0.0
		}
	}
}
