{
	 "smiles": "CS(=O)(=O)C1=CC(NC(=O)CCl)=C(Cl)C=C1", 
	 "Tm": 421.15, 
	 "num_atms": 25, 
	 "gaussian": { 
		 "optdone": 1, 
		 "sigma_profile": "yes", 
		 "theory": "DFT", 
		 "functional": "B3LYP", 
		 "basiset": "6-31G**", 
		 "properties": { 
			 "R2extent": 6517.0823, 
			 "electric_dipole_moment_norm": 2.66132371199, 
			 "electric_quadrupole_moment_norm": 22.1883607198, 
			 "total_energy": -1947.3224003, 
			 "HOMO_LUMO_gap": 0.21014, 
			 "cosmo_polarized_energy": -21.67, 
			 "cosmo_cavitation_energy": 34.91, 
			 "cosmo_dispersion_energy": -25.19, 
			 "cosmo_repulsion_energy": 1.96, 
			 "cosmo_total_nonelectrostatic_energy": 11.69, 
			 "SMD_solvation_energy": 5.85 
		},
		"coords": [
			{
				"x": 0.9123166226,
				"y": -1.7856282667,
				"z": 3.7272262645,
				"element": "C" 
			},
			{
				"x": -0.8381764321,
				"y": -1.4033368545,
				"z": 3.4833240531,
				"element": "S" 
			},
			{
				"x": -1.1013740818,
				"y": -0.1017310121,
				"z": 4.115564307,
				"element": "O" 
			},
			{
				"x": -1.6096663647,
				"y": -2.6019174729,
				"z": 3.843850874,
				"element": "O" 
			},
			{
				"x": -0.9795013045,
				"y": -1.1800745986,
				"z": 1.7008389919,
				"element": "C" 
			},
			{
				"x": -0.8115578293,
				"y": 0.0932573115,
				"z": 1.1632791225,
				"element": "C" 
			},
			{
				"x": -0.9171579722,
				"y": 0.2926609303,
				"z": -0.2161461883,
				"element": "C" 
			},
			{
				"x": -0.7733324198,
				"y": 1.6023991088,
				"z": -0.7414105889,
				"element": "N" 
			},
			{
				"x": 0.275467832,
				"y": 1.9740294271,
				"z": -1.5386995123,
				"element": "C" 
			},
			{
				"x": 1.1593022333,
				"y": 1.2258704665,
				"z": -1.9165650862,
				"element": "O" 
			},
			{
				"x": 0.3096324386,
				"y": 3.4272424593,
				"z": -2.0170661801,
				"element": "C" 
			},
			{
				"x": -0.8572947424,
				"y": 4.5728406363,
				"z": -1.229581575,
				"element": "Cl" 
			},
			{
				"x": -1.2055105855,
				"y": -0.8135611767,
				"z": -1.0366309528,
				"element": "C" 
			},
			{
				"x": -1.4287882198,
				"y": -0.6143797922,
				"z": -2.7535670639,
				"element": "Cl" 
			},
			{
				"x": -1.3629539535,
				"y": -2.089212539,
				"z": -0.4887412918,
				"element": "C" 
			},
			{
				"x": -1.2549714482,
				"y": -2.2784104943,
				"z": 0.8861549656,
				"element": "C" 
			},
			{
				"x": 1.5160428586,
				"y": -0.9466605714,
				"z": 3.3787141577,
				"element": "H" 
			},
			{
				"x": 1.044441148,
				"y": -1.9296471617,
				"z": 4.8016406742,
				"element": "H" 
			},
			{
				"x": 1.1591782872,
				"y": -2.7010994918,
				"z": 3.1879996891,
				"element": "H" 
			},
			{
				"x": -0.6089222261,
				"y": 0.9364352276,
				"z": 1.8155742831,
				"element": "H" 
			},
			{
				"x": -1.3801597421,
				"y": 2.3311149358,
				"z": -0.3875464653,
				"element": "H" 
			},
			{
				"x": 0.0987305287,
				"y": 3.4416615326,
				"z": -3.0874955921,
				"element": "H" 
			},
			{
				"x": 1.3134088162,
				"y": 3.8150292363,
				"z": -1.8480314372,
				"element": "H" 
			},
			{
				"x": -1.5921688467,
				"y": -2.9216776243,
				"z": -1.1441803167,
				"element": "H" 
			},
			{
				"x": -1.4089845967,
				"y": -3.257604216,
				"z": 1.3264948682,
				"element": "H" 
			}
		],
		 "valence_orbital": [ 
			{
				"type": "occ",
				"energy": -0.3043,
				"method": "rhf"
			},
			{
				"type": "occ",
				"energy": -0.29796,
				"method": "rhf"
			},
			{
				"type": "occ",
				"energy": -0.28058,
				"method": "rhf"
			},
			{
				"type": "occ",
				"energy": -0.27572,
				"method": "rhf"
			},
			{
				"type": "occ",
				"energy": -0.26759,
				"method": "rhf"
			},
			{
				"type": "unocc",
				"energy": -0.05745,
				"method": "rhf"
			},
			{
				"type": "unocc",
				"energy": -0.04671,
				"method": "rhf"
			},
			{
				"type": "unocc",
				"energy": -0.00232,
				"method": "rhf"
			},
			{
				"type": "unocc",
				"energy": 0.00831,
				"method": "rhf"
			},
			{
				"type": "unocc",
				"energy": 0.01353,
				"method": "rhf"
			}
		],
		"cosmo_sigma_profile": { 
			"-0.025": 0.0,
			"-0.024": 0.0,
			"-0.023": 0.0,
			"-0.022": 0.0,
			"-0.021": 0.0,
			"-0.02": 0.0,
			"-0.019": 0.0,
			"-0.018": 0.0,
			"-0.017": 0.0,
			"-0.016": 0.0,
			"-0.015": 0.0875469563168,
			"-0.014": 0.857263277178,
			"-0.013": 0.723468586113,
			"-0.012": 0.836565160708,
			"-0.011": 0.957084343321,
			"-0.01": 2.5310926046,
			"-0.009": 10.0640614933,
			"-0.008": 16.6472206669,
			"-0.007": 15.3973740296,
			"-0.006": 16.4495340505,
			"-0.005": 15.3674671617,
			"-0.004": 15.7874179619,
			"-0.003": 12.5802620447,
			"-0.002": 13.4758575266,
			"-0.001": 16.1842427358,
			"0.0": 21.6581354182,
			"0.001": 19.7804200757,
			"0.002": 12.1235402131,
			"0.003": 15.9253556749,
			"0.004": 11.6711669713,
			"0.005": 11.2113183464,
			"0.006": 5.35046201478,
			"0.007": 4.55236611749,
			"0.008": 4.76286669182,
			"0.009": 4.85776135633,
			"0.01": 7.72166048434,
			"0.011": 11.8195327244,
			"0.012": 11.5128493575,
			"0.013": 2.51826471291,
			"0.014": 0.0274948097088,
			"0.015": 0.0,
			"0.016": 0.0,
			"0.017": 0.0,
			"0.018": 0.0,
			"0.019": 0.0,
			"0.02": 0.0,
			"0.021": 0.0,
			"0.022": 0.0,
			"0.023": 0.0,
			"0.024": 0.0,
			"0.025": 0.0
		}
	}
}
