{
	 "smiles": "CC(C)(C)OC(=O)NC12CC(C1)(CC2)C(O)=O", 
	 "Tm": 443.15, 
	 "num_atms": 36, 
	 "gaussian": { 
		 "optdone": 1, 
		 "sigma_profile": "yes", 
		 "theory": "DFT", 
		 "functional": "B3LYP", 
		 "basiset": "6-31G**", 
		 "properties": { 
			 "R2extent": 6140.1949, 
			 "electric_dipole_moment_norm": 4.05558484685, 
			 "electric_quadrupole_moment_norm": 27.8444515311, 
			 "total_energy": -824.387648522, 
			 "HOMO_LUMO_gap": 0.25382, 
			 "cosmo_polarized_energy": -19.69, 
			 "cosmo_cavitation_energy": 37.47, 
			 "cosmo_dispersion_energy": -25.07, 
			 "cosmo_repulsion_energy": 1.95, 
			 "cosmo_total_nonelectrostatic_energy": 14.35, 
			 "SMD_solvation_energy": 7.66 
		},
		"coords": [
			{
				"x": 0.3294833811,
				"y": -1.9684747327,
				"z": 1.6580253438,
				"element": "C" 
			},
			{
				"x": 0.1902765337,
				"y": -2.6062153515,
				"z": 0.2732272892,
				"element": "C" 
			},
			{
				"x": 1.5663169404,
				"y": -2.8125037048,
				"z": -0.3687507871,
				"element": "C" 
			},
			{
				"x": -0.6153086766,
				"y": -3.9071917012,
				"z": 0.3534489914,
				"element": "C" 
			},
			{
				"x": -0.5681386829,
				"y": -1.5887394189,
				"z": -0.4759852451,
				"element": "O" 
			},
			{
				"x": -0.8943823885,
				"y": -1.7916928732,
				"z": -1.7760253913,
				"element": "C" 
			},
			{
				"x": -0.6213053308,
				"y": -2.7738803648,
				"z": -2.446015222,
				"element": "O" 
			},
			{
				"x": -1.5905279924,
				"y": -0.7199952232,
				"z": -2.2739048493,
				"element": "N" 
			},
			{
				"x": -1.9411604566,
				"y": 0.4944014875,
				"z": -1.5913533543,
				"element": "C" 
			},
			{
				"x": -2.4736220329,
				"y": 1.6906058157,
				"z": -2.4262236957,
				"element": "C" 
			},
			{
				"x": -2.0652399983,
				"y": 2.4939582847,
				"z": -1.1671008233,
				"element": "C" 
			},
			{
				"x": -0.8770713432,
				"y": 1.4874320022,
				"z": -1.0240211419,
				"element": "C" 
			},
			{
				"x": -3.0578501233,
				"y": 1.9532327917,
				"z": -0.0988066899,
				"element": "C" 
			},
			{
				"x": -2.9711395467,
				"y": 0.4321621977,
				"z": -0.4345797619,
				"element": "C" 
			},
			{
				"x": -1.8470592667,
				"y": 3.981571669,
				"z": -1.2486337028,
				"element": "C" 
			},
			{
				"x": -1.2916904734,
				"y": 4.549635796,
				"z": -0.1408720709,
				"element": "O" 
			},
			{
				"x": -2.1293736375,
				"y": 4.6628384696,
				"z": -2.2031249307,
				"element": "O" 
			},
			{
				"x": -0.6535696169,
				"y": -1.7840676947,
				"z": 2.101641662,
				"element": "H" 
			},
			{
				"x": 0.8873112563,
				"y": -2.6344942421,
				"z": 2.3228628849,
				"element": "H" 
			},
			{
				"x": 0.8662569894,
				"y": -1.0171737183,
				"z": 1.5944178677,
				"element": "H" 
			},
			{
				"x": 2.0959898164,
				"y": -1.8576689924,
				"z": -0.4475663995,
				"element": "H" 
			},
			{
				"x": 1.4712326294,
				"y": -3.2480623692,
				"z": -1.3633603206,
				"element": "H" 
			},
			{
				"x": 2.1658304055,
				"y": -3.482267137,
				"z": 0.2562857657,
				"element": "H" 
			},
			{
				"x": -0.0980895921,
				"y": -4.6192960908,
				"z": 1.004674244,
				"element": "H" 
			},
			{
				"x": -0.7344274864,
				"y": -4.3533708165,
				"z": -0.6338860395,
				"element": "H" 
			},
			{
				"x": -1.6055129863,
				"y": -3.7157549655,
				"z": 0.779277698,
				"element": "H" 
			},
			{
				"x": -1.8150131051,
				"y": -0.8091510182,
				"z": -3.2534318749,
				"element": "H" 
			},
			{
				"x": -1.8407265017,
				"y": 1.9303466782,
				"z": -3.2838712544,
				"element": "H" 
			},
			{
				"x": -3.5288332412,
				"y": 1.6900192759,
				"z": -2.7152723966,
				"element": "H" 
			},
			{
				"x": -0.0716469088,
				"y": 1.6813315163,
				"z": -1.7362373697,
				"element": "H" 
			},
			{
				"x": -0.4752246419,
				"y": 1.2881165951,
				"z": -0.0262934308,
				"element": "H" 
			},
			{
				"x": -2.7375122155,
				"y": 2.1783035778,
				"z": 0.9247414793,
				"element": "H" 
			},
			{
				"x": -4.060770236,
				"y": 2.3676937237,
				"z": -0.2344146927,
				"element": "H" 
			},
			{
				"x": -2.6060120137,
				"y": -0.1739390896,
				"z": 0.3962260863,
				"element": "H" 
			},
			{
				"x": -3.925729649,
				"y": 0.0188025695,
				"z": -0.7731631003,
				"element": "H" 
			},
			{
				"x": -1.1071598079,
				"y": 3.8683870541,
				"z": 0.5216652329,
				"element": "H" 
			}
		],
		 "valence_orbital": [ 
			{
				"type": "occ",
				"energy": -0.3144,
				"method": "rhf"
			},
			{
				"type": "occ",
				"energy": -0.29364,
				"method": "rhf"
			},
			{
				"type": "occ",
				"energy": -0.27065,
				"method": "rhf"
			},
			{
				"type": "occ",
				"energy": -0.26605,
				"method": "rhf"
			},
			{
				"type": "occ",
				"energy": -0.25018,
				"method": "rhf"
			},
			{
				"type": "unocc",
				"energy": 0.00364,
				"method": "rhf"
			},
			{
				"type": "unocc",
				"energy": 0.03704,
				"method": "rhf"
			},
			{
				"type": "unocc",
				"energy": 0.05191,
				"method": "rhf"
			},
			{
				"type": "unocc",
				"energy": 0.06795,
				"method": "rhf"
			},
			{
				"type": "unocc",
				"energy": 0.08051,
				"method": "rhf"
			}
		],
		"cosmo_sigma_profile": { 
			"-0.025": 0.0,
			"-0.024": 0.0,
			"-0.023": 0.0,
			"-0.022": 0.0,
			"-0.021": 0.0,
			"-0.02": 0.0,
			"-0.019": 0.0,
			"-0.018": 0.179358227476,
			"-0.017": 0.869220457068,
			"-0.016": 0.877419071634,
			"-0.015": 0.608961376616,
			"-0.014": 1.91537249956,
			"-0.013": 1.91854717076,
			"-0.012": 1.97982799954,
			"-0.011": 1.92014234084,
			"-0.01": 2.06675489316,
			"-0.009": 1.7565314551,
			"-0.008": 2.45167008392,
			"-0.007": 3.05248401303,
			"-0.006": 3.10403914651,
			"-0.005": 11.130975118,
			"-0.004": 27.5885083191,
			"-0.003": 34.4959160753,
			"-0.002": 28.5548255129,
			"-0.001": 27.9428713904,
			"0.0": 34.8419651945,
			"0.001": 27.5243605007,
			"0.002": 12.1101321483,
			"0.003": 8.2375141434,
			"0.004": 5.37478567159,
			"0.005": 4.81449627366,
			"0.006": 4.15411538276,
			"0.007": 4.05000911551,
			"0.008": 3.955263586,
			"0.009": 4.97991172205,
			"0.01": 5.89972827519,
			"0.011": 7.57469286718,
			"0.012": 7.10503646005,
			"0.013": 5.63508294942,
			"0.014": 2.47688167593,
			"0.015": 0.022656998787,
			"0.016": 0.0,
			"0.017": 0.0,
			"0.018": 0.0,
			"0.019": 0.0,
			"0.02": 0.0,
			"0.021": 0.0,
			"0.022": 0.0,
			"0.023": 0.0,
			"0.024": 0.0,
			"0.025": 0.0
		}
	}
}
