{
	 "smiles": "FC1=CC=C(NN=C2C(=O)N(N=C2C(F)(F)F)C2=CC=CC=C2)C=C1", 
	 "Tm": 458.15, 
	 "num_atms": 35, 
	 "gaussian": { 
		 "optdone": 1, 
		 "sigma_profile": "yes", 
		 "theory": "DFT", 
		 "functional": "B3LYP", 
		 "basiset": "6-31G**", 
		 "properties": { 
			 "R2extent": 12400.7875, 
			 "electric_dipole_moment_norm": 2.57881763993, 
			 "electric_quadrupole_moment_norm": 13.1620482422, 
			 "total_energy": -1309.25958802, 
			 "HOMO_LUMO_gap": 0.11294, 
			 "cosmo_polarized_energy": -14.09, 
			 "cosmo_cavitation_energy": 43.1, 
			 "cosmo_dispersion_energy": -30.21, 
			 "cosmo_repulsion_energy": 2.16, 
			 "cosmo_total_nonelectrostatic_energy": 15.04, 
			 "SMD_solvation_energy": 8.23 
		},
		"coords": [
			{
				"x": 7.6978676849,
				"y": 0.4773886426,
				"z": -1.6278864301,
				"element": "F" 
			},
			{
				"x": 6.433107001,
				"y": 0.1586313613,
				"z": -1.2905922367,
				"element": "C" 
			},
			{
				"x": 5.4804244817,
				"y": 1.1704487778,
				"z": -1.200821409,
				"element": "C" 
			},
			{
				"x": 4.1729110974,
				"y": 0.8484915975,
				"z": -0.8521406515,
				"element": "C" 
			},
			{
				"x": 3.8367441693,
				"y": -0.4883950794,
				"z": -0.598982888,
				"element": "C" 
			},
			{
				"x": 2.5256092067,
				"y": -0.8598745452,
				"z": -0.2417567829,
				"element": "N" 
			},
			{
				"x": 1.5698870525,
				"y": 0.0268192604,
				"z": -0.1663760024,
				"element": "N" 
			},
			{
				"x": 0.3453023789,
				"y": -0.282019847,
				"z": 0.1699204838,
				"element": "C" 
			},
			{
				"x": -0.6919421993,
				"y": 0.7859129989,
				"z": 0.1853306597,
				"element": "C" 
			},
			{
				"x": -0.590358275,
				"y": 1.9707670758,
				"z": -0.0756109854,
				"element": "O" 
			},
			{
				"x": -1.8639040228,
				"y": 0.0907724839,
				"z": 0.5742662066,
				"element": "N" 
			},
			{
				"x": -1.6261501881,
				"y": -1.2343191817,
				"z": 0.8000830464,
				"element": "N" 
			},
			{
				"x": -0.3677656815,
				"y": -1.4815314899,
				"z": 0.567757406,
				"element": "C" 
			},
			{
				"x": 0.1643136391,
				"y": -2.8567969181,
				"z": 0.8040040075,
				"element": "C" 
			},
			{
				"x": 0.8608032938,
				"y": -3.2952271963,
				"z": -0.2933735814,
				"element": "F" 
			},
			{
				"x": 1.0620835815,
				"y": -2.8637121672,
				"z": 1.8213509804,
				"element": "F" 
			},
			{
				"x": -0.7842075816,
				"y": -3.7501585322,
				"z": 1.0700853603,
				"element": "F" 
			},
			{
				"x": -3.1839966783,
				"y": 0.5961188163,
				"z": 0.7530475971,
				"element": "C" 
			},
			{
				"x": -4.2086360788,
				"y": -0.2865179628,
				"z": 1.1226592268,
				"element": "C" 
			},
			{
				"x": -5.5024305982,
				"y": 0.1973900975,
				"z": 1.3001601092,
				"element": "C" 
			},
			{
				"x": -5.7894193098,
				"y": 1.5509547503,
				"z": 1.112948569,
				"element": "C" 
			},
			{
				"x": -4.7626612404,
				"y": 2.4198829044,
				"z": 0.7445948416,
				"element": "C" 
			},
			{
				"x": -3.4589774306,
				"y": 1.9575183282,
				"z": 0.562022544,
				"element": "C" 
			},
			{
				"x": 4.8058754009,
				"y": -1.4951502912,
				"z": -0.6924049576,
				"element": "C" 
			},
			{
				"x": 6.1147909338,
				"y": -1.1715091809,
				"z": -1.0409314167,
				"element": "C" 
			},
			{
				"x": 5.7696892505,
				"y": 2.1957749634,
				"z": -1.4031780371,
				"element": "H" 
			},
			{
				"x": 3.4098222785,
				"y": 1.6133139315,
				"z": -0.7744097927,
				"element": "H" 
			},
			{
				"x": 2.3416662984,
				"y": -1.851227725,
				"z": -0.1012005182,
				"element": "H" 
			},
			{
				"x": -3.9840583147,
				"y": -1.3354948603,
				"z": 1.2670997194,
				"element": "H" 
			},
			{
				"x": -6.2901844174,
				"y": -0.4933811509,
				"z": 1.5867883003,
				"element": "H" 
			},
			{
				"x": -6.8001966296,
				"y": 1.9221777554,
				"z": 1.2523917268,
				"element": "H" 
			},
			{
				"x": -4.969794744,
				"y": 3.4756100487,
				"z": 0.5950947423,
				"element": "H" 
			},
			{
				"x": -2.6646663192,
				"y": 2.6324110951,
				"z": 0.2761806276,
				"element": "H" 
			},
			{
				"x": 4.5402897153,
				"y": -2.5300360467,
				"z": -0.4932895334,
				"element": "H" 
			},
			{
				"x": 6.8823622452,
				"y": -1.9330327144,
				"z": -1.1198309319,
				"element": "H" 
			}
		],
		 "valence_orbital": [ 
			{
				"type": "occ",
				"energy": -0.28095,
				"method": "rhf"
			},
			{
				"type": "occ",
				"energy": -0.2638,
				"method": "rhf"
			},
			{
				"type": "occ",
				"energy": -0.2503,
				"method": "rhf"
			},
			{
				"type": "occ",
				"energy": -0.23294,
				"method": "rhf"
			},
			{
				"type": "occ",
				"energy": -0.21732,
				"method": "rhf"
			},
			{
				"type": "unocc",
				"energy": -0.10438,
				"method": "rhf"
			},
			{
				"type": "unocc",
				"energy": -0.03101,
				"method": "rhf"
			},
			{
				"type": "unocc",
				"energy": -0.02443,
				"method": "rhf"
			},
			{
				"type": "unocc",
				"energy": -0.00192,
				"method": "rhf"
			},
			{
				"type": "unocc",
				"energy": 0.0005,
				"method": "rhf"
			}
		],
		"cosmo_sigma_profile": { 
			"-0.025": 0.0,
			"-0.024": 0.0,
			"-0.023": 0.0,
			"-0.022": 0.0,
			"-0.021": 0.0,
			"-0.02": 0.0,
			"-0.019": 0.0,
			"-0.018": 0.0,
			"-0.017": 0.0,
			"-0.016": 0.0,
			"-0.015": 0.239703660896,
			"-0.014": 0.452186716126,
			"-0.013": 0.922233539234,
			"-0.012": 1.26185343074,
			"-0.011": 1.45826770549,
			"-0.01": 0.853740544794,
			"-0.009": 2.29018864362,
			"-0.008": 5.17432326677,
			"-0.007": 8.10653707405,
			"-0.006": 14.2611730894,
			"-0.005": 18.7311551649,
			"-0.004": 21.9749040965,
			"-0.003": 23.3444922495,
			"-0.002": 21.0157129049,
			"-0.001": 26.7764809167,
			"0.0": 31.3748193464,
			"0.001": 38.2479010115,
			"0.002": 47.740168847,
			"0.003": 23.5824876519,
			"0.004": 22.3986912121,
			"0.005": 15.2472627202,
			"0.006": 5.86148352124,
			"0.007": 2.76818423794,
			"0.008": 2.04111562793,
			"0.009": 1.74355789028,
			"0.01": 2.64203359734,
			"0.011": 3.2634062978,
			"0.012": 3.49478992298,
			"0.013": 1.746092502,
			"0.014": 0.088821389786,
			"0.015": 0.0,
			"0.016": 0.0,
			"0.017": 0.0,
			"0.018": 0.0,
			"0.019": 0.0,
			"0.02": 0.0,
			"0.021": 0.0,
			"0.022": 0.0,
			"0.023": 0.0,
			"0.024": 0.0,
			"0.025": 0.0
		}
	}
}
