{
	 "smiles": "CC1=CC(Cl)=CC=C1Cl", 
	 "Tm": 278.15, 
	 "num_atms": 15, 
	 "gaussian": { 
		 "optdone": 1, 
		 "sigma_profile": "yes", 
		 "theory": "DFT", 
		 "functional": "B3LYP", 
		 "basiset": "6-31G**", 
		 "properties": { 
			 "R2extent": 2575.9179, 
			 "electric_dipole_moment_norm": 0.588858828583, 
			 "electric_quadrupole_moment_norm": 10.0706297186, 
			 "total_energy": -1190.75496184, 
			 "HOMO_LUMO_gap": 0.22024, 
			 "cosmo_polarized_energy": -3.72, 
			 "cosmo_cavitation_energy": 22.3, 
			 "cosmo_dispersion_energy": -16.8, 
			 "cosmo_repulsion_energy": 1.37, 
			 "cosmo_total_nonelectrostatic_energy": 6.87, 
			 "SMD_solvation_energy": 3.34 
		},
		"coords": [
			{
				"x": 1.8752768566,
				"y": 0.8765064584,
				"z": 0.0817511573,
				"element": "C" 
			},
			{
				"x": 0.7540400092,
				"y": 0.3872662767,
				"z": -0.798203432,
				"element": "C" 
			},
			{
				"x": 0.9184146687,
				"y": 0.3120899595,
				"z": -2.1874303306,
				"element": "C" 
			},
			{
				"x": -0.1131705992,
				"y": -0.1390602311,
				"z": -3.0081919016,
				"element": "C" 
			},
			{
				"x": 0.1408142902,
				"y": -0.2156034672,
				"z": -4.7451575512,
				"element": "Cl" 
			},
			{
				"x": -1.3394114558,
				"y": -0.5293772225,
				"z": -2.4752666082,
				"element": "C" 
			},
			{
				"x": -1.5219303697,
				"y": -0.461644422,
				"z": -1.0952543907,
				"element": "C" 
			},
			{
				"x": -0.4878337043,
				"y": -0.009879525,
				"z": -0.2773682087,
				"element": "C" 
			},
			{
				"x": -0.7672957128,
				"y": 0.0573950637,
				"z": 1.4593104833,
				"element": "Cl" 
			},
			{
				"x": 2.7525605957,
				"y": 1.1348947809,
				"z": -0.5155027931,
				"element": "H" 
			},
			{
				"x": 1.5734217239,
				"y": 1.760968541,
				"z": 0.6526693567,
				"element": "H" 
			},
			{
				"x": 2.1669004469,
				"y": 0.1142623208,
				"z": 0.8120073074,
				"element": "H" 
			},
			{
				"x": 1.8635356315,
				"y": 0.6099851461,
				"z": -2.6289112181,
				"element": "H" 
			},
			{
				"x": -2.1358177664,
				"y": -0.8789560526,
				"z": -3.1221745025,
				"element": "H" 
			},
			{
				"x": -2.4662046146,
				"y": -0.7591476268,
				"z": -0.6529773681,
				"element": "H" 
			}
		],
		 "valence_orbital": [ 
			{
				"type": "occ",
				"energy": -0.31905,
				"method": "rhf"
			},
			{
				"type": "occ",
				"energy": -0.31702,
				"method": "rhf"
			},
			{
				"type": "occ",
				"energy": -0.31637,
				"method": "rhf"
			},
			{
				"type": "occ",
				"energy": -0.26729,
				"method": "rhf"
			},
			{
				"type": "occ",
				"energy": -0.24325,
				"method": "rhf"
			},
			{
				"type": "unocc",
				"energy": -0.02301,
				"method": "rhf"
			},
			{
				"type": "unocc",
				"energy": -0.02139,
				"method": "rhf"
			},
			{
				"type": "unocc",
				"energy": 0.01691,
				"method": "rhf"
			},
			{
				"type": "unocc",
				"energy": 0.03665,
				"method": "rhf"
			},
			{
				"type": "unocc",
				"energy": 0.10842,
				"method": "rhf"
			}
		],
		"cosmo_sigma_profile": { 
			"-0.025": 0.0,
			"-0.024": 0.0,
			"-0.023": 0.0,
			"-0.022": 0.0,
			"-0.021": 0.0,
			"-0.02": 0.0,
			"-0.019": 0.0,
			"-0.018": 0.0,
			"-0.017": 0.0,
			"-0.016": 0.0,
			"-0.015": 0.0,
			"-0.014": 0.0,
			"-0.013": 0.0,
			"-0.012": 0.0,
			"-0.011": 0.0,
			"-0.01": 0.0,
			"-0.009": 0.0,
			"-0.008": 1.77448655129,
			"-0.007": 6.32087958331,
			"-0.006": 6.68574579476,
			"-0.005": 8.02910008505,
			"-0.004": 8.96821318929,
			"-0.003": 10.6319288556,
			"-0.002": 13.1128918386,
			"-0.001": 18.4664416838,
			"0.0": 16.9628880993,
			"0.001": 19.0254471827,
			"0.002": 24.5359829732,
			"0.003": 21.4493425262,
			"0.004": 17.2249881169,
			"0.005": 9.55478190798,
			"0.006": 0.0,
			"0.007": 0.0,
			"0.008": 0.0,
			"0.009": 0.0,
			"0.01": 0.0,
			"0.011": 0.0,
			"0.012": 0.0,
			"0.013": 0.0,
			"0.014": 0.0,
			"0.015": 0.0,
			"0.016": 0.0,
			"0.017": 0.0,
			"0.018": 0.0,
			"0.019": 0.0,
			"0.02": 0.0,
			"0.021": 0.0,
			"0.022": 0.0,
			"0.023": 0.0,
			"0.024": 0.0,
			"0.025": 0.0
		}
	}
}
