{
	 "smiles": "ClC(Cl)(Cl)Cl", 
	 "Tm": 250.15, 
	 "num_atms": 5, 
	 "gaussian": { 
		 "optdone": 1, 
		 "sigma_profile": "yes", 
		 "theory": "DFT", 
		 "functional": "B3LYP", 
		 "basiset": "6-31G**", 
		 "properties": { 
			 "R2extent": 2141.8929, 
			 "electric_dipole_moment_norm": 0.0003, 
			 "electric_quadrupole_moment_norm": 0.00112694276696, 
			 "total_energy": -1878.84018977, 
			 "HOMO_LUMO_gap": 0.2473, 
			 "cosmo_polarized_energy": -1.29, 
			 "cosmo_cavitation_energy": 16.2, 
			 "cosmo_dispersion_energy": -12.68, 
			 "cosmo_repulsion_energy": 1.11, 
			 "cosmo_total_nonelectrostatic_energy": 4.63, 
			 "SMD_solvation_energy": 1.55 
		},
		"coords": [
			{
				"x": -2.8522863417,
				"y": 0.8603508488,
				"z": 0.8318653836,
				"element": "Cl" 
			},
			{
				"x": -2.0724118063,
				"y": -0.6077287088,
				"z": 0.1628241174,
				"element": "C" 
			},
			{
				"x": -2.9372148939,
				"y": -2.0634930013,
				"z": 0.7494001032,
				"element": "Cl" 
			},
			{
				"x": -2.1370114575,
				"y": -0.5553928793,
				"z": -1.6271614354,
				"element": "Cl" 
			},
			{
				"x": -0.3632755008,
				"y": -0.6724362593,
				"z": 0.6972718311,
				"element": "Cl" 
			}
		],
		 "valence_orbital": [ 
			{
				"type": "occ",
				"energy": -0.3571,
				"method": "rhf"
			},
			{
				"type": "occ",
				"energy": -0.3571,
				"method": "rhf"
			},
			{
				"type": "occ",
				"energy": -0.32457,
				"method": "rhf"
			},
			{
				"type": "occ",
				"energy": -0.32456,
				"method": "rhf"
			},
			{
				"type": "occ",
				"energy": -0.32456,
				"method": "rhf"
			},
			{
				"type": "unocc",
				"energy": -0.07726,
				"method": "rhf"
			},
			{
				"type": "unocc",
				"energy": -0.01981,
				"method": "rhf"
			},
			{
				"type": "unocc",
				"energy": -0.0198,
				"method": "rhf"
			},
			{
				"type": "unocc",
				"energy": -0.01979,
				"method": "rhf"
			},
			{
				"type": "unocc",
				"energy": 0.25084,
				"method": "rhf"
			}
		],
		"cosmo_sigma_profile": { 
			"-0.025": 0.0,
			"-0.024": 0.0,
			"-0.023": 0.0,
			"-0.022": 0.0,
			"-0.021": 0.0,
			"-0.02": 0.0,
			"-0.019": 0.0,
			"-0.018": 0.0,
			"-0.017": 0.0,
			"-0.016": 0.0,
			"-0.015": 0.0,
			"-0.014": 0.0,
			"-0.013": 0.0,
			"-0.012": 0.0,
			"-0.011": 0.0,
			"-0.01": 0.0,
			"-0.009": 0.0,
			"-0.008": 0.0,
			"-0.007": 0.0,
			"-0.006": 1.17276757296,
			"-0.005": 5.00233430336,
			"-0.004": 8.22073820291,
			"-0.003": 8.98511225887,
			"-0.002": 10.1326586415,
			"-0.001": 13.0849444954,
			"0.0": 16.2455267694,
			"0.001": 30.8548139367,
			"0.002": 43.9205461858,
			"0.003": 1.44362268819,
			"0.004": 0.0,
			"0.005": 0.0,
			"0.006": 0.0,
			"0.007": 0.0,
			"0.008": 0.0,
			"0.009": 0.0,
			"0.01": 0.0,
			"0.011": 0.0,
			"0.012": 0.0,
			"0.013": 0.0,
			"0.014": 0.0,
			"0.015": 0.0,
			"0.016": 0.0,
			"0.017": 0.0,
			"0.018": 0.0,
			"0.019": 0.0,
			"0.02": 0.0,
			"0.021": 0.0,
			"0.022": 0.0,
			"0.023": 0.0,
			"0.024": 0.0,
			"0.025": 0.0
		}
	}
}
