{
	 "smiles": "CC1=CC(C)=C(C)C=C1C1=NNC(N)=C1", 
	 "Tm": 419.15, 
	 "num_atms": 30, 
	 "gaussian": { 
		 "optdone": 1, 
		 "sigma_profile": "yes", 
		 "theory": "DFT", 
		 "functional": "B3LYP", 
		 "basiset": "6-31G**", 
		 "properties": { 
			 "R2extent": 4234.3216, 
			 "electric_dipole_moment_norm": 3.15453607049, 
			 "electric_quadrupole_moment_norm": 20.2376820503, 
			 "total_energy": -630.572898511, 
			 "HOMO_LUMO_gap": 0.19488, 
			 "cosmo_polarized_energy": -16.12, 
			 "cosmo_cavitation_energy": 32.64, 
			 "cosmo_dispersion_energy": -23.87, 
			 "cosmo_repulsion_energy": 1.87, 
			 "cosmo_total_nonelectrostatic_energy": 10.65, 
			 "SMD_solvation_energy": 4.61 
		},
		"coords": [
			{
				"x": 0.5595424327,
				"y": -1.6009337898,
				"z": -1.6362014996,
				"element": "C" 
			},
			{
				"x": 0.6775332479,
				"y": -0.7482396523,
				"z": -0.3926457511,
				"element": "C" 
			},
			{
				"x": 1.9552033391,
				"y": -0.4943091967,
				"z": 0.1236602979,
				"element": "C" 
			},
			{
				"x": 2.1860617876,
				"y": 0.2957463176,
				"z": 1.2509375253,
				"element": "C" 
			},
			{
				"x": 3.5926176328,
				"y": 0.52203357,
				"z": 1.7506135076,
				"element": "C" 
			},
			{
				"x": 1.0778020962,
				"y": 0.8764277406,
				"z": 1.9017812888,
				"element": "C" 
			},
			{
				"x": 1.2579755558,
				"y": 1.7470525403,
				"z": 3.122872487,
				"element": "C" 
			},
			{
				"x": -0.1969060466,
				"y": 0.6275452417,
				"z": 1.3976801025,
				"element": "C" 
			},
			{
				"x": -0.4304700819,
				"y": -0.1753503178,
				"z": 0.2670500519,
				"element": "C" 
			},
			{
				"x": -1.8334115864,
				"y": -0.35125221,
				"z": -0.168624788,
				"element": "C" 
			},
			{
				"x": -2.7226990854,
				"y": 0.6148185378,
				"z": 0.0918818277,
				"element": "N" 
			},
			{
				"x": -3.9006461659,
				"y": 0.1322118511,
				"z": -0.3782338165,
				"element": "N" 
			},
			{
				"x": -3.7901282604,
				"y": -1.1011882591,
				"z": -0.9394777482,
				"element": "C" 
			},
			{
				"x": -4.9142592194,
				"y": -1.780984418,
				"z": -1.4251149537,
				"element": "N" 
			},
			{
				"x": -2.4568883849,
				"y": -1.4529811498,
				"z": -0.8252757612,
				"element": "C" 
			},
			{
				"x": -0.1836501565,
				"y": -1.2057238719,
				"z": -2.334537329,
				"element": "H" 
			},
			{
				"x": 1.5209091298,
				"y": -1.6531138682,
				"z": -2.1553643236,
				"element": "H" 
			},
			{
				"x": 0.2663526583,
				"y": -2.632230016,
				"z": -1.401053731,
				"element": "H" 
			},
			{
				"x": 2.8118575235,
				"y": -0.9292786055,
				"z": -0.3879410987,
				"element": "H" 
			},
			{
				"x": 3.7208618062,
				"y": 0.161916815,
				"z": 2.7791182288,
				"element": "H" 
			},
			{
				"x": 4.3231359245,
				"y": 0.0036357734,
				"z": 1.1235630388,
				"element": "H" 
			},
			{
				"x": 3.8548615027,
				"y": 1.5873659815,
				"z": 1.7578618156,
				"element": "H" 
			},
			{
				"x": 0.2948021689,
				"y": 2.1072312252,
				"z": 3.4935662927,
				"element": "H" 
			},
			{
				"x": 1.7496880542,
				"y": 1.2053554839,
				"z": 3.9406347091,
				"element": "H" 
			},
			{
				"x": 1.8817034796,
				"y": 2.6238485166,
				"z": 2.9081798834,
				"element": "H" 
			},
			{
				"x": -1.0590390143,
				"y": 1.0672996799,
				"z": 1.8891411496,
				"element": "H" 
			},
			{
				"x": -4.7435766419,
				"y": 0.6679308662,
				"z": -0.2441050827,
				"element": "H" 
			},
			{
				"x": -5.4119174967,
				"y": -1.2681553903,
				"z": -2.1464633952,
				"element": "H" 
			},
			{
				"x": -4.6685852526,
				"y": -2.6966746921,
				"z": -1.7801646139,
				"element": "H" 
			},
			{
				"x": -2.011730947,
				"y": -2.3780047032,
				"z": -1.1535383144,
				"element": "H" 
			}
		],
		 "valence_orbital": [ 
			{
				"type": "occ",
				"energy": -0.27402,
				"method": "rhf"
			},
			{
				"type": "occ",
				"energy": -0.26043,
				"method": "rhf"
			},
			{
				"type": "occ",
				"energy": -0.2214,
				"method": "rhf"
			},
			{
				"type": "occ",
				"energy": -0.21339,
				"method": "rhf"
			},
			{
				"type": "occ",
				"energy": -0.19767,
				"method": "rhf"
			},
			{
				"type": "unocc",
				"energy": -0.00279,
				"method": "rhf"
			},
			{
				"type": "unocc",
				"energy": 0.0204,
				"method": "rhf"
			},
			{
				"type": "unocc",
				"energy": 0.04481,
				"method": "rhf"
			},
			{
				"type": "unocc",
				"energy": 0.06874,
				"method": "rhf"
			},
			{
				"type": "unocc",
				"energy": 0.09538,
				"method": "rhf"
			}
		],
		"cosmo_sigma_profile": { 
			"-0.025": 0.0,
			"-0.024": 0.0,
			"-0.023": 0.0,
			"-0.022": 0.0,
			"-0.021": 0.0,
			"-0.02": 0.0,
			"-0.019": 0.0,
			"-0.018": 0.0,
			"-0.017": 0.0,
			"-0.016": 0.795376948041,
			"-0.015": 1.47505627276,
			"-0.014": 1.45297594523,
			"-0.013": 2.76375739357,
			"-0.012": 4.21157505355,
			"-0.011": 3.85230600166,
			"-0.01": 3.98494607325,
			"-0.009": 3.77913800061,
			"-0.008": 2.7508472895,
			"-0.007": 2.42883595531,
			"-0.006": 3.30995849045,
			"-0.005": 6.01167982024,
			"-0.004": 17.8815651203,
			"-0.003": 23.9563371244,
			"-0.002": 19.6627704951,
			"-0.001": 19.8189267078,
			"0.0": 28.0397404493,
			"0.001": 21.240752015,
			"0.002": 11.7531029355,
			"0.003": 9.88776918194,
			"0.004": 11.555290823,
			"0.005": 14.7736076049,
			"0.006": 14.9118242977,
			"0.007": 9.71441138371,
			"0.008": 2.56782614758,
			"0.009": 2.39003489285,
			"0.01": 2.77163900874,
			"0.011": 2.04086495819,
			"0.012": 1.74455122578,
			"0.013": 1.77017843812,
			"0.014": 1.24501896992,
			"0.015": 1.52263897742,
			"0.016": 0.908583442232,
			"0.017": 0.0726048192609,
			"0.018": 0.0,
			"0.019": 0.0,
			"0.02": 0.0,
			"0.021": 0.0,
			"0.022": 0.0,
			"0.023": 0.0,
			"0.024": 0.0,
			"0.025": 0.0
		}
	}
}
