{
	 "smiles": "OC(=O)C1=C(F)C=CC(Cl)=N1", 
	 "Tm": 423.15, 
	 "num_atms": 14, 
	 "gaussian": { 
		 "optdone": 1, 
		 "sigma_profile": "yes", 
		 "theory": "DFT", 
		 "functional": "B3LYP", 
		 "basiset": "6-31G**", 
		 "properties": { 
			 "R2extent": 2431.2343, 
			 "electric_dipole_moment_norm": 6.62883215205, 
			 "electric_quadrupole_moment_norm": 12.0300893006, 
			 "total_energy": -995.664058084, 
			 "HOMO_LUMO_gap": 0.19609, 
			 "cosmo_polarized_energy": -17.47, 
			 "cosmo_cavitation_energy": 21.67, 
			 "cosmo_dispersion_energy": -16.36, 
			 "cosmo_repulsion_energy": 1.3, 
			 "cosmo_total_nonelectrostatic_energy": 6.61, 
			 "SMD_solvation_energy": 4.03 
		},
		"coords": [
			{
				"x": -3.0159833736,
				"y": 2.5299496023,
				"z": 0.2140603716,
				"element": "O" 
			},
			{
				"x": -2.4348593684,
				"y": 1.6095160418,
				"z": 1.0130798043,
				"element": "C" 
			},
			{
				"x": -2.965212851,
				"y": 1.235633374,
				"z": 2.0248113409,
				"element": "O" 
			},
			{
				"x": -1.0781915312,
				"y": 1.0687059109,
				"z": 0.573662513,
				"element": "C" 
			},
			{
				"x": -0.3883144607,
				"y": 1.4431454326,
				"z": -0.5809295471,
				"element": "C" 
			},
			{
				"x": -0.9074774981,
				"y": 2.3654817518,
				"z": -1.4386794847,
				"element": "F" 
			},
			{
				"x": 0.8484145285,
				"y": 0.892944812,
				"z": -0.8993819667,
				"element": "C" 
			},
			{
				"x": 1.3849667915,
				"y": -0.0467815732,
				"z": -0.0324400848,
				"element": "C" 
			},
			{
				"x": 0.6300203479,
				"y": -0.3696046464,
				"z": 1.106248263,
				"element": "C" 
			},
			{
				"x": 1.2774768774,
				"y": -1.555861545,
				"z": 2.2273748564,
				"element": "Cl" 
			},
			{
				"x": -0.5373548073,
				"y": 0.1564172337,
				"z": 1.3973585717,
				"element": "N" 
			},
			{
				"x": -2.4660338935,
				"y": 2.7259731102,
				"z": -0.5595681464,
				"element": "H" 
			},
			{
				"x": 1.3604433517,
				"y": 1.2038198406,
				"z": -1.8035275052,
				"element": "H" 
			},
			{
				"x": 2.3438058869,
				"y": -0.5144393453,
				"z": -0.220368986,
				"element": "H" 
			}
		],
		 "valence_orbital": [ 
			{
				"type": "occ",
				"energy": -0.33177,
				"method": "rhf"
			},
			{
				"type": "occ",
				"energy": -0.31669,
				"method": "rhf"
			},
			{
				"type": "occ",
				"energy": -0.30164,
				"method": "rhf"
			},
			{
				"type": "occ",
				"energy": -0.2826,
				"method": "rhf"
			},
			{
				"type": "occ",
				"energy": -0.28241,
				"method": "rhf"
			},
			{
				"type": "unocc",
				"energy": -0.08632,
				"method": "rhf"
			},
			{
				"type": "unocc",
				"energy": -0.05445,
				"method": "rhf"
			},
			{
				"type": "unocc",
				"energy": 0.01567,
				"method": "rhf"
			},
			{
				"type": "unocc",
				"energy": 0.03013,
				"method": "rhf"
			},
			{
				"type": "unocc",
				"energy": 0.05331,
				"method": "rhf"
			}
		],
		"cosmo_sigma_profile": { 
			"-0.025": 0.0,
			"-0.024": 0.0,
			"-0.023": 0.0,
			"-0.022": 0.0,
			"-0.021": 0.0,
			"-0.02": 0.0,
			"-0.019": 0.0,
			"-0.018": 0.0,
			"-0.017": 0.0,
			"-0.016": 0.0,
			"-0.015": 0.0,
			"-0.014": 0.302934703162,
			"-0.013": 0.686352464628,
			"-0.012": 1.40971698417,
			"-0.011": 2.77045198737,
			"-0.01": 5.87627490241,
			"-0.009": 5.62338759969,
			"-0.008": 6.66508405091,
			"-0.007": 5.43103469013,
			"-0.006": 6.40014105004,
			"-0.005": 7.99497594237,
			"-0.004": 11.0754717101,
			"-0.003": 14.0319365293,
			"-0.002": 14.539255432,
			"-0.001": 10.188153869,
			"0.0": 7.0047383005,
			"0.001": 10.6243067178,
			"0.002": 8.47180391866,
			"0.003": 9.97627716096,
			"0.004": 9.76467144603,
			"0.005": 4.3141837374,
			"0.006": 2.8586856944,
			"0.007": 3.7136820633,
			"0.008": 3.76075425636,
			"0.009": 4.70896738289,
			"0.01": 5.82871836347,
			"0.011": 5.89007035406,
			"0.012": 3.73883017513,
			"0.013": 1.68072376793,
			"0.014": 0.929504291629,
			"0.015": 1.16789707704,
			"0.016": 0.543804009877,
			"0.017": 0.0336369742878,
			"0.018": 0.0,
			"0.019": 0.0,
			"0.02": 0.0,
			"0.021": 0.0,
			"0.022": 0.0,
			"0.023": 0.0,
			"0.024": 0.0,
			"0.025": 0.0
		}
	}
}
