{
	 "smiles": "NC(=O)C1=CC(=CC=C1)S(Cl)(=O)=O", 
	 "Tm": 352.15, 
	 "num_atms": 19, 
	 "gaussian": { 
		 "optdone": 1, 
		 "sigma_profile": "yes", 
		 "theory": "DFT", 
		 "functional": "B3LYP", 
		 "basiset": "6-31G**", 
		 "properties": { 
			 "R2extent": 3729.2519, 
			 "electric_dipole_moment_norm": 7.67677133892, 
			 "electric_quadrupole_moment_norm": 12.4553905968, 
			 "total_energy": -1409.11071965, 
			 "HOMO_LUMO_gap": 0.17827, 
			 "cosmo_polarized_energy": -18.72, 
			 "cosmo_cavitation_energy": 27.6, 
			 "cosmo_dispersion_energy": -20.59, 
			 "cosmo_repulsion_energy": 1.6, 
			 "cosmo_total_nonelectrostatic_energy": 8.6, 
			 "SMD_solvation_energy": 4.24 
		},
		"coords": [
			{
				"x": -0.3978538088,
				"y": 2.7170013262,
				"z": -2.4401191204,
				"element": "N" 
			},
			{
				"x": -0.4820337781,
				"y": 1.4645562085,
				"z": -1.8861703378,
				"element": "C" 
			},
			{
				"x": -0.668709618,
				"y": 0.4609229933,
				"z": -2.5589628464,
				"element": "O" 
			},
			{
				"x": -0.3612612193,
				"y": 1.3897736774,
				"z": -0.3851737723,
				"element": "C" 
			},
			{
				"x": -0.0667329541,
				"y": 0.1359281163,
				"z": 0.1619329399,
				"element": "C" 
			},
			{
				"x": 0.0474756211,
				"y": 0.0211497501,
				"z": 1.5429778447,
				"element": "C" 
			},
			{
				"x": -0.1415064281,
				"y": 1.1020394977,
				"z": 2.4073806844,
				"element": "C" 
			},
			{
				"x": -0.4570079982,
				"y": 2.3406009266,
				"z": 1.8527056512,
				"element": "C" 
			},
			{
				"x": -0.563014146,
				"y": 2.4835761244,
				"z": 0.4674904393,
				"element": "C" 
			},
			{
				"x": 0.4251882343,
				"y": -1.5809068503,
				"z": 2.2484215016,
				"element": "S" 
			},
			{
				"x": 2.5592266858,
				"y": -1.5132586812,
				"z": 2.2919961845,
				"element": "Cl" 
			},
			{
				"x": 0.068611183,
				"y": -2.627767821,
				"z": 1.3013398078,
				"element": "O" 
			},
			{
				"x": -0.0076411502,
				"y": -1.6029240866,
				"z": 3.6401346181,
				"element": "O" 
			},
			{
				"x": -0.3743343666,
				"y": 2.7418805764,
				"z": -3.4498097272,
				"element": "H" 
			},
			{
				"x": 0.0726234922,
				"y": 3.4655922747,
				"z": -1.9559637427,
				"element": "H" 
			},
			{
				"x": 0.0544287927,
				"y": -0.7171377383,
				"z": -0.4961397821,
				"element": "H" 
			},
			{
				"x": -0.0586877201,
				"y": 0.9655769857,
				"z": 3.4796230431,
				"element": "H" 
			},
			{
				"x": -0.6302478772,
				"y": 3.1930791602,
				"z": 2.5015329785,
				"element": "H" 
			},
			{
				"x": -0.8392229446,
				"y": 3.44961756,
				"z": 0.0561036359,
				"element": "H" 
			}
		],
		 "valence_orbital": [ 
			{
				"type": "occ",
				"energy": -0.3145,
				"method": "rhf"
			},
			{
				"type": "occ",
				"energy": -0.2983,
				"method": "rhf"
			},
			{
				"type": "occ",
				"energy": -0.29493,
				"method": "rhf"
			},
			{
				"type": "occ",
				"energy": -0.29212,
				"method": "rhf"
			},
			{
				"type": "occ",
				"energy": -0.27181,
				"method": "rhf"
			},
			{
				"type": "unocc",
				"energy": -0.09354,
				"method": "rhf"
			},
			{
				"type": "unocc",
				"energy": -0.06677,
				"method": "rhf"
			},
			{
				"type": "unocc",
				"energy": -0.04845,
				"method": "rhf"
			},
			{
				"type": "unocc",
				"energy": 0.01971,
				"method": "rhf"
			},
			{
				"type": "unocc",
				"energy": 0.05327,
				"method": "rhf"
			}
		],
		"cosmo_sigma_profile": { 
			"-0.025": 0.0,
			"-0.024": 0.0,
			"-0.023": 0.0,
			"-0.022": 0.0,
			"-0.021": 0.0,
			"-0.02": 0.0,
			"-0.019": 0.0,
			"-0.018": 0.0,
			"-0.017": 0.0,
			"-0.016": 0.0,
			"-0.015": 1.16471806288,
			"-0.014": 2.31807518302,
			"-0.013": 2.54274165595,
			"-0.012": 2.67304341796,
			"-0.011": 2.68784127501,
			"-0.01": 2.92977122502,
			"-0.009": 3.91956683423,
			"-0.008": 7.05465263862,
			"-0.007": 8.8329855372,
			"-0.006": 8.47100050888,
			"-0.005": 7.71365191923,
			"-0.004": 7.94089639509,
			"-0.003": 10.7304268836,
			"-0.002": 15.064100934,
			"-0.001": 16.9642566439,
			"0.0": 22.3052221117,
			"0.001": 14.9840433346,
			"0.002": 11.6634376015,
			"0.003": 17.2884042033,
			"0.004": 10.311669439,
			"0.005": 4.76198425842,
			"0.006": 5.76764240976,
			"0.007": 8.16958827783,
			"0.008": 10.9813911935,
			"0.009": 4.56775007787,
			"0.01": 1.56677010767,
			"0.011": 1.84927592798,
			"0.012": 3.20178541706,
			"0.013": 4.75242059423,
			"0.014": 0.88187195111,
			"0.015": 0.0,
			"0.016": 0.0,
			"0.017": 0.0,
			"0.018": 0.0,
			"0.019": 0.0,
			"0.02": 0.0,
			"0.021": 0.0,
			"0.022": 0.0,
			"0.023": 0.0,
			"0.024": 0.0,
			"0.025": 0.0
		}
	}
}
