{
	 "smiles": "BrC1=CC(Br)=C(Br)C(Br)=C1Br", 
	 "Tm": 433.15, 
	 "num_atms": 12, 
	 "gaussian": { 
		 "optdone": 1, 
		 "sigma_profile": "yes", 
		 "theory": "DFT", 
		 "functional": "B3LYP", 
		 "basiset": "6-31G**", 
		 "properties": { 
			 "R2extent": 7937.7572, 
			 "electric_dipole_moment_norm": 0.642413480556, 
			 "electric_quadrupole_moment_norm": 3.67072395993, 
			 "total_energy": -13086.234116, 
			 "HOMO_LUMO_gap": 0.18385, 
			 "cosmo_polarized_energy": -3.59, 
			 "cosmo_cavitation_energy": 27.56, 
			 "cosmo_dispersion_energy": -22.35, 
			 "cosmo_repulsion_energy": 1.77, 
			 "cosmo_total_nonelectrostatic_energy": 6.98, 
			 "SMD_solvation_energy": -0.38 
		},
		"coords": [
			{
				"x": -3.8874706619,
				"y": 1.2159280777,
				"z": 1.4313779608,
				"element": "Br" 
			},
			{
				"x": -2.1016786376,
				"y": 0.8848471455,
				"z": 0.8805281748,
				"element": "C" 
			},
			{
				"x": -1.3962993623,
				"y": -0.0942348881,
				"z": 1.5717803782,
				"element": "C" 
			},
			{
				"x": -0.0829317245,
				"y": -0.3917236221,
				"z": 1.2245234451,
				"element": "C" 
			},
			{
				"x": 0.7922930478,
				"y": -1.7435902192,
				"z": 2.2288189446,
				"element": "Br" 
			},
			{
				"x": 0.5468182819,
				"y": 0.2905685792,
				"z": 0.1742861239,
				"element": "C" 
			},
			{
				"x": 2.3340996092,
				"y": -0.124057731,
				"z": -0.2873615924,
				"element": "Br" 
			},
			{
				"x": -0.1692071779,
				"y": 1.2814065839,
				"z": -0.5242893305,
				"element": "C" 
			},
			{
				"x": 0.6635025448,
				"y": 2.2148677572,
				"z": -1.9468273207,
				"element": "Br" 
			},
			{
				"x": -1.4989909099,
				"y": 1.5842029538,
				"z": -0.1743696461,
				"element": "C" 
			},
			{
				"x": -2.4703237342,
				"y": 2.9138146752,
				"z": -1.1061189879,
				"element": "Br" 
			},
			{
				"x": -1.8718112755,
				"y": -0.6273293121,
				"z": 2.3840518501,
				"element": "H" 
			}
		],
		 "valence_orbital": [ 
			{
				"type": "occ",
				"energy": -0.30021,
				"method": "rhf"
			},
			{
				"type": "occ",
				"energy": -0.29199,
				"method": "rhf"
			},
			{
				"type": "occ",
				"energy": -0.27116,
				"method": "rhf"
			},
			{
				"type": "occ",
				"energy": -0.26154,
				"method": "rhf"
			},
			{
				"type": "occ",
				"energy": -0.25443,
				"method": "rhf"
			},
			{
				"type": "unocc",
				"energy": -0.07058,
				"method": "rhf"
			},
			{
				"type": "unocc",
				"energy": -0.0529,
				"method": "rhf"
			},
			{
				"type": "unocc",
				"energy": -0.05278,
				"method": "rhf"
			},
			{
				"type": "unocc",
				"energy": -0.01722,
				"method": "rhf"
			},
			{
				"type": "unocc",
				"energy": -0.00031,
				"method": "rhf"
			}
		],
		"cosmo_sigma_profile": { 
			"-0.025": 0.0,
			"-0.024": 0.0,
			"-0.023": 0.0,
			"-0.022": 0.0,
			"-0.021": 0.0,
			"-0.02": 0.0,
			"-0.019": 0.0,
			"-0.018": 0.0,
			"-0.017": 0.0,
			"-0.016": 0.0,
			"-0.015": 0.0,
			"-0.014": 0.0,
			"-0.013": 0.0,
			"-0.012": 0.0,
			"-0.011": 0.0,
			"-0.01": 0.0959508140704,
			"-0.009": 1.44411243915,
			"-0.008": 1.09711139467,
			"-0.007": 2.01393070426,
			"-0.006": 7.2353776892,
			"-0.005": 9.0413658019,
			"-0.004": 9.45941447837,
			"-0.003": 11.2013869414,
			"-0.002": 30.7070982853,
			"-0.001": 31.4167885594,
			"0.0": 19.1850567319,
			"0.001": 21.5823469484,
			"0.002": 30.4159208583,
			"0.003": 43.890335856,
			"0.004": 18.9114167295,
			"0.005": 0.61319788505,
			"0.006": 0.0,
			"0.007": 0.0,
			"0.008": 0.0,
			"0.009": 0.0,
			"0.01": 0.0,
			"0.011": 0.0,
			"0.012": 0.0,
			"0.013": 0.0,
			"0.014": 0.0,
			"0.015": 0.0,
			"0.016": 0.0,
			"0.017": 0.0,
			"0.018": 0.0,
			"0.019": 0.0,
			"0.02": 0.0,
			"0.021": 0.0,
			"0.022": 0.0,
			"0.023": 0.0,
			"0.024": 0.0,
			"0.025": 0.0
		}
	}
}
