{
	 "smiles": "C1CN(CCN1)C1=NC=CC=N1", 
	 "Tm": 306.15, 
	 "num_atms": 24, 
	 "gaussian": { 
		 "optdone": 1, 
		 "sigma_profile": "yes", 
		 "theory": "DFT", 
		 "functional": "B3LYP", 
		 "basiset": "6-31G**", 
		 "properties": { 
			 "R2extent": 2439.1381, 
			 "electric_dipole_moment_norm": 0.952663618493, 
			 "electric_quadrupole_moment_norm": 8.73099745963, 
			 "total_energy": -531.085058254, 
			 "HOMO_LUMO_gap": 0.17897, 
			 "cosmo_polarized_energy": -8.08, 
			 "cosmo_cavitation_energy": 25.78, 
			 "cosmo_dispersion_energy": -19.76, 
			 "cosmo_repulsion_energy": 1.58, 
			 "cosmo_total_nonelectrostatic_energy": 7.59, 
			 "SMD_solvation_energy": -0.41 
		},
		"coords": [
			{
				"x": -2.1938697024,
				"y": 0.4996008804,
				"z": 0.3547040063,
				"element": "C" 
			},
			{
				"x": -1.0426911083,
				"y": 1.2439127781,
				"z": -0.3255312786,
				"element": "C" 
			},
			{
				"x": 0.233116509,
				"y": 0.6363209089,
				"z": 0.0476924316,
				"element": "N" 
			},
			{
				"x": 0.4520403564,
				"y": 0.5051326142,
				"z": 1.4867787469,
				"element": "C" 
			},
			{
				"x": -0.729719032,
				"y": -0.2241432231,
				"z": 2.1297973644,
				"element": "C" 
			},
			{
				"x": -1.9703890104,
				"y": 0.4792405256,
				"z": 1.8009922244,
				"element": "N" 
			},
			{
				"x": 1.2259922665,
				"y": 0.4051998905,
				"z": -0.8654178468,
				"element": "C" 
			},
			{
				"x": 0.945997291,
				"y": 0.6543096092,
				"z": -2.1668303917,
				"element": "N" 
			},
			{
				"x": 1.9176221405,
				"y": 0.3987585264,
				"z": -3.0397272072,
				"element": "C" 
			},
			{
				"x": 3.1689043325,
				"y": -0.0946637589,
				"z": -2.6715748672,
				"element": "C" 
			},
			{
				"x": 3.3485559041,
				"y": -0.3071154249,
				"z": -1.3050874464,
				"element": "C" 
			},
			{
				"x": 2.4060703382,
				"y": -0.0659443891,
				"z": -0.3968565539,
				"element": "N" 
			},
			{
				"x": -3.1337716861,
				"y": 1.0222752617,
				"z": 0.145589595,
				"element": "H" 
			},
			{
				"x": -2.2640451786,
				"y": -0.513726765,
				"z": -0.0841245986,
				"element": "H" 
			},
			{
				"x": -1.1370286456,
				"y": 1.2120385633,
				"z": -1.40957713,
				"element": "H" 
			},
			{
				"x": -1.0558985209,
				"y": 2.2954246431,
				"z": -0.0011876278,
				"element": "H" 
			},
			{
				"x": 0.5417574986,
				"y": 1.5057208384,
				"z": 1.9360352444,
				"element": "H" 
			},
			{
				"x": 1.3840496754,
				"y": -0.0340585784,
				"z": 1.6471289406,
				"element": "H" 
			},
			{
				"x": -0.599925943,
				"y": -0.2303983567,
				"z": 3.2176627493,
				"element": "H" 
			},
			{
				"x": -0.7251627785,
				"y": -1.2743173664,
				"z": 1.7813163347,
				"element": "H" 
			},
			{
				"x": -2.7559747239,
				"y": 0.0354437705,
				"z": 2.2680456305,
				"element": "H" 
			},
			{
				"x": 1.6830371548,
				"y": 0.601257726,
				"z": -4.0847140579,
				"element": "H" 
			},
			{
				"x": 3.949158285,
				"y": -0.2935703862,
				"z": -3.3961747507,
				"element": "H" 
			},
			{
				"x": 4.2944745777,
				"y": -0.6868982876,
				"z": -0.9190395114,
				"element": "H" 
			}
		],
		 "valence_orbital": [ 
			{
				"type": "occ",
				"energy": -0.30076,
				"method": "rhf"
			},
			{
				"type": "occ",
				"energy": -0.29738,
				"method": "rhf"
			},
			{
				"type": "occ",
				"energy": -0.23504,
				"method": "rhf"
			},
			{
				"type": "occ",
				"energy": -0.22635,
				"method": "rhf"
			},
			{
				"type": "occ",
				"energy": -0.20381,
				"method": "rhf"
			},
			{
				"type": "unocc",
				"energy": -0.02484,
				"method": "rhf"
			},
			{
				"type": "unocc",
				"energy": 0.00817,
				"method": "rhf"
			},
			{
				"type": "unocc",
				"energy": 0.08729,
				"method": "rhf"
			},
			{
				"type": "unocc",
				"energy": 0.11344,
				"method": "rhf"
			},
			{
				"type": "unocc",
				"energy": 0.1211,
				"method": "rhf"
			}
		],
		"cosmo_sigma_profile": { 
			"-0.025": 0.0,
			"-0.024": 0.0,
			"-0.023": 0.0,
			"-0.022": 0.0,
			"-0.021": 0.0,
			"-0.02": 0.0,
			"-0.019": 0.0,
			"-0.018": 0.0,
			"-0.017": 0.0,
			"-0.016": 0.0,
			"-0.015": 0.0,
			"-0.014": 0.0,
			"-0.013": 0.0,
			"-0.012": 0.0,
			"-0.011": 0.114571243435,
			"-0.01": 1.4871470366,
			"-0.009": 1.0539523111,
			"-0.008": 1.4200613203,
			"-0.007": 4.77085810109,
			"-0.006": 7.96427017028,
			"-0.005": 8.76541733876,
			"-0.004": 14.8490524227,
			"-0.003": 21.0378002781,
			"-0.002": 27.3239969383,
			"-0.001": 22.3417446134,
			"0.0": 14.6682490953,
			"0.001": 15.5834022817,
			"0.002": 14.2596303491,
			"0.003": 10.5774135277,
			"0.004": 7.09108130097,
			"0.005": 4.48595196699,
			"0.006": 4.11275085069,
			"0.007": 3.22605181628,
			"0.008": 4.59275934464,
			"0.009": 3.19154506697,
			"0.01": 2.74244575418,
			"0.011": 3.20984105012,
			"0.012": 1.78413278742,
			"0.013": 0.295963691752,
			"0.014": 0.209468550615,
			"0.015": 0.829879944074,
			"0.016": 0.592744537871,
			"0.017": 0.31381759929,
			"0.018": 0.282975611283,
			"0.019": 0.0,
			"0.02": 0.0,
			"0.021": 0.0,
			"0.022": 0.0,
			"0.023": 0.0,
			"0.024": 0.0,
			"0.025": 0.0
		}
	}
}
