{
	 "smiles": "ClC1=C2OCCC(=O)C2=CC=C1", 
	 "Tm": 336.15, 
	 "num_atms": 19, 
	 "gaussian": { 
		 "optdone": 1, 
		 "sigma_profile": "yes", 
		 "theory": "DFT", 
		 "functional": "B3LYP", 
		 "basiset": "6-31G**", 
		 "properties": { 
			 "R2extent": 2922.7954, 
			 "electric_dipole_moment_norm": 0.715351004752, 
			 "electric_quadrupole_moment_norm": 15.7961968141, 
			 "total_energy": -957.811329214, 
			 "HOMO_LUMO_gap": 0.17239, 
			 "cosmo_polarized_energy": -9.39, 
			 "cosmo_cavitation_energy": 24.43, 
			 "cosmo_dispersion_energy": -18.55, 
			 "cosmo_repulsion_energy": 1.48, 
			 "cosmo_total_nonelectrostatic_energy": 7.36, 
			 "SMD_solvation_energy": 4.51 
		},
		"coords": [
			{
				"x": -3.372038989,
				"y": -2.4227822085,
				"z": 0.6797338586,
				"element": "Cl" 
			},
			{
				"x": -1.6786337053,
				"y": -2.1778551439,
				"z": 0.3129487025,
				"element": "C" 
			},
			{
				"x": -1.2780131194,
				"y": -1.0122638679,
				"z": -0.3654693913,
				"element": "C" 
			},
			{
				"x": -2.230311323,
				"y": -0.1130085088,
				"z": -0.709069868,
				"element": "O" 
			},
			{
				"x": -1.8706610056,
				"y": 0.8070370878,
				"z": -1.7534184138,
				"element": "C" 
			},
			{
				"x": -0.537164578,
				"y": 1.4856807544,
				"z": -1.4688559249,
				"element": "C" 
			},
			{
				"x": 0.5552936106,
				"y": 0.445002952,
				"z": -1.2628469154,
				"element": "C" 
			},
			{
				"x": 1.7236533273,
				"y": 0.6569389491,
				"z": -1.544381948,
				"element": "O" 
			},
			{
				"x": 0.0926491027,
				"y": -0.8246622146,
				"z": -0.6460119774,
				"element": "C" 
			},
			{
				"x": 1.0249700119,
				"y": -1.8063592587,
				"z": -0.2759368147,
				"element": "C" 
			},
			{
				"x": 0.6146079893,
				"y": -2.9570607603,
				"z": 0.380240067,
				"element": "C" 
			},
			{
				"x": -0.7418374628,
				"y": -3.1373918089,
				"z": 0.6806597181,
				"element": "C" 
			},
			{
				"x": -1.8271379754,
				"y": 0.2540170001,
				"z": -2.7021759629,
				"element": "H" 
			},
			{
				"x": -2.6948481844,
				"y": 1.5205057696,
				"z": -1.804471904,
				"element": "H" 
			},
			{
				"x": -0.612656876,
				"y": 2.0839384709,
				"z": -0.5505787577,
				"element": "H" 
			},
			{
				"x": -0.2483823436,
				"y": 2.1582536394,
				"z": -2.2810308008,
				"element": "H" 
			},
			{
				"x": 2.0681071399,
				"y": -1.6206190209,
				"z": -0.509400079,
				"element": "H" 
			},
			{
				"x": 1.3339157941,
				"y": -3.7160328486,
				"z": 0.6697672424,
				"element": "H" 
			},
			{
				"x": -1.0812114132,
				"y": -4.029338982,
				"z": 1.1964991694,
				"element": "H" 
			}
		],
		 "valence_orbital": [ 
			{
				"type": "occ",
				"energy": -0.33132,
				"method": "rhf"
			},
			{
				"type": "occ",
				"energy": -0.31459,
				"method": "rhf"
			},
			{
				"type": "occ",
				"energy": -0.26155,
				"method": "rhf"
			},
			{
				"type": "occ",
				"energy": -0.25538,
				"method": "rhf"
			},
			{
				"type": "occ",
				"energy": -0.23832,
				"method": "rhf"
			},
			{
				"type": "unocc",
				"energy": -0.06593,
				"method": "rhf"
			},
			{
				"type": "unocc",
				"energy": -0.01249,
				"method": "rhf"
			},
			{
				"type": "unocc",
				"energy": 0.0259,
				"method": "rhf"
			},
			{
				"type": "unocc",
				"energy": 0.0291,
				"method": "rhf"
			},
			{
				"type": "unocc",
				"energy": 0.09447,
				"method": "rhf"
			}
		],
		"cosmo_sigma_profile": { 
			"-0.025": 0.0,
			"-0.024": 0.0,
			"-0.023": 0.0,
			"-0.022": 0.0,
			"-0.021": 0.0,
			"-0.02": 0.0,
			"-0.019": 0.0,
			"-0.018": 0.0,
			"-0.017": 0.0,
			"-0.016": 0.0,
			"-0.015": 0.0,
			"-0.014": 0.0,
			"-0.013": 0.0,
			"-0.012": 0.0,
			"-0.011": 0.0,
			"-0.01": 0.0,
			"-0.009": 0.0322425812856,
			"-0.008": 1.36490585366,
			"-0.007": 11.9098679019,
			"-0.006": 18.8558269472,
			"-0.005": 17.1062816015,
			"-0.004": 12.6338339274,
			"-0.003": 9.73101594925,
			"-0.002": 9.9759093879,
			"-0.001": 10.6514506512,
			"0.0": 13.5637610139,
			"0.001": 17.8820423518,
			"0.002": 16.5137086159,
			"0.003": 14.5278099838,
			"0.004": 10.2089738749,
			"0.005": 7.93488612544,
			"0.006": 3.88269362663,
			"0.007": 2.87693441483,
			"0.008": 2.70734537149,
			"0.009": 4.01904021363,
			"0.01": 3.11380670946,
			"0.011": 3.19586615428,
			"0.012": 4.02570602604,
			"0.013": 0.99672763202,
			"0.014": 0.0132858045253,
			"0.015": 0.0,
			"0.016": 0.0,
			"0.017": 0.0,
			"0.018": 0.0,
			"0.019": 0.0,
			"0.02": 0.0,
			"0.021": 0.0,
			"0.022": 0.0,
			"0.023": 0.0,
			"0.024": 0.0,
			"0.025": 0.0
		}
	}
}
