{
	 "smiles": "[O-][N+](=O)C1=C(OCC2CO2)C=CC(=C1)C#N", 
	 "Tm": 359.15, 
	 "num_atms": 24, 
	 "gaussian": { 
		 "optdone": 1, 
		 "sigma_profile": "yes", 
		 "theory": "DFT", 
		 "functional": "B3LYP", 
		 "basiset": "6-31G**", 
		 "properties": { 
			 "R2extent": 5625.5862, 
			 "electric_dipole_moment_norm": 4.78391138296, 
			 "electric_quadrupole_moment_norm": 17.8654043803, 
			 "total_energy": -796.092893701, 
			 "HOMO_LUMO_gap": 0.16774, 
			 "cosmo_polarized_energy": -18.96, 
			 "cosmo_cavitation_energy": 31.3, 
			 "cosmo_dispersion_energy": -21.65, 
			 "cosmo_repulsion_energy": 1.7, 
			 "cosmo_total_nonelectrostatic_energy": 11.36, 
			 "SMD_solvation_energy": 9.31 
		},
		"coords": [
			{
				"x": 0.3161047807,
				"y": -3.0554703752,
				"z": -1.6554337625,
				"element": "O" 
			},
			{
				"x": 0.1647457549,
				"y": -1.8754273133,
				"z": -1.974673645,
				"element": "N" 
			},
			{
				"x": 0.374925465,
				"y": -1.4152742803,
				"z": -3.0921588287,
				"element": "O" 
			},
			{
				"x": -0.2706297575,
				"y": -0.953606207,
				"z": -0.9123075274,
				"element": "C" 
			},
			{
				"x": -0.9809833119,
				"y": 0.2389273158,
				"z": -1.1969978813,
				"element": "C" 
			},
			{
				"x": -1.3212305138,
				"y": 0.4990322707,
				"z": -2.4681505728,
				"element": "O" 
			},
			{
				"x": -2.0384936655,
				"y": 1.6995290826,
				"z": -2.7812268063,
				"element": "C" 
			},
			{
				"x": -2.209255631,
				"y": 1.7264145924,
				"z": -4.280189991,
				"element": "C" 
			},
			{
				"x": -3.4430993149,
				"y": 1.2422814572,
				"z": -4.9112334567,
				"element": "C" 
			},
			{
				"x": -3.2015759927,
				"y": 2.6466374062,
				"z": -4.7358196835,
				"element": "O" 
			},
			{
				"x": -1.3276152776,
				"y": 1.0645787984,
				"z": -0.1117689876,
				"element": "C" 
			},
			{
				"x": -0.98020766,
				"y": 0.7235904577,
				"z": 1.1881068372,
				"element": "C" 
			},
			{
				"x": -0.2857783895,
				"y": -0.4680068279,
				"z": 1.4561775835,
				"element": "C" 
			},
			{
				"x": 0.0565530808,
				"y": -1.3078347014,
				"z": 0.3901530987,
				"element": "C" 
			},
			{
				"x": 0.0655087084,
				"y": -0.8188565838,
				"z": 2.7994815155,
				"element": "C" 
			},
			{
				"x": 0.3469729493,
				"y": -1.0954187527,
				"z": 3.8936665073,
				"element": "N" 
			},
			{
				"x": -3.0196747005,
				"y": 1.7097845721,
				"z": -2.2908207121,
				"element": "H" 
			},
			{
				"x": -1.4678170818,
				"y": 2.5756767661,
				"z": -2.4472122354,
				"element": "H" 
			},
			{
				"x": -1.281232848,
				"y": 1.7116000613,
				"z": -4.8525051294,
				"element": "H" 
			},
			{
				"x": -3.4133083674,
				"y": 0.8876506469,
				"z": -5.9402192775,
				"element": "H" 
			},
			{
				"x": -4.2359644152,
				"y": 0.8223038544,
				"z": -4.2924708534,
				"element": "H" 
			},
			{
				"x": -1.8779241604,
				"y": 1.98020446,
				"z": -0.2854431116,
				"element": "H" 
			},
			{
				"x": -1.253293579,
				"y": 1.3801618243,
				"z": 2.0072692711,
				"element": "H" 
			},
			{
				"x": 0.5792739276,
				"y": -2.2413785243,
				"z": 0.5558776489,
				"element": "H" 
			}
		],
		 "valence_orbital": [ 
			{
				"type": "occ",
				"energy": -0.31679,
				"method": "rhf"
			},
			{
				"type": "occ",
				"energy": -0.3096,
				"method": "rhf"
			},
			{
				"type": "occ",
				"energy": -0.29343,
				"method": "rhf"
			},
			{
				"type": "occ",
				"energy": -0.29259,
				"method": "rhf"
			},
			{
				"type": "occ",
				"energy": -0.26585,
				"method": "rhf"
			},
			{
				"type": "unocc",
				"energy": -0.09811,
				"method": "rhf"
			},
			{
				"type": "unocc",
				"energy": -0.06235,
				"method": "rhf"
			},
			{
				"type": "unocc",
				"energy": -0.03019,
				"method": "rhf"
			},
			{
				"type": "unocc",
				"energy": 0.02277,
				"method": "rhf"
			},
			{
				"type": "unocc",
				"energy": 0.04487,
				"method": "rhf"
			}
		],
		"cosmo_sigma_profile": { 
			"-0.025": 0.0,
			"-0.024": 0.0,
			"-0.023": 0.0,
			"-0.022": 0.0,
			"-0.021": 0.0,
			"-0.02": 0.0,
			"-0.019": 0.0,
			"-0.018": 0.0,
			"-0.017": 0.0,
			"-0.016": 0.0,
			"-0.015": 0.0,
			"-0.014": 0.0,
			"-0.013": 0.0,
			"-0.012": 0.0,
			"-0.011": 0.0,
			"-0.01": 1.08592225149,
			"-0.009": 7.58707819669,
			"-0.008": 11.1095000633,
			"-0.007": 19.9975780958,
			"-0.006": 16.9189316954,
			"-0.005": 14.8401400891,
			"-0.004": 14.8279679806,
			"-0.003": 17.2420466966,
			"-0.002": 19.4126169965,
			"-0.001": 17.3312876893,
			"0.0": 12.7866981932,
			"0.001": 7.70830680961,
			"0.002": 5.91632167878,
			"0.003": 7.15305621664,
			"0.004": 6.96724518879,
			"0.005": 6.96656248264,
			"0.006": 7.30557013896,
			"0.007": 14.0068054385,
			"0.008": 13.8641882625,
			"0.009": 11.2028716352,
			"0.01": 7.22168491073,
			"0.011": 6.15188592517,
			"0.012": 3.40394611801,
			"0.013": 0.945240926545,
			"0.014": 0.0,
			"0.015": 0.0,
			"0.016": 0.0,
			"0.017": 0.0,
			"0.018": 0.0,
			"0.019": 0.0,
			"0.02": 0.0,
			"0.021": 0.0,
			"0.022": 0.0,
			"0.023": 0.0,
			"0.024": 0.0,
			"0.025": 0.0
		}
	}
}
