{
	 "smiles": "C[C@]12C[C@H](O)[C@H]3[C@@H](CCC4=CC(=O)C=C[C@]34C)[C@@H]1CC[C@]2(O)C(=O)CO", 
	 "Tm": 511.15, 
	 "num_atms": 54, 
	 "gaussian": { 
		 "optdone": 1, 
		 "sigma_profile": "yes", 
		 "theory": "DFT", 
		 "functional": "B3LYP", 
		 "basiset": "6-31G**", 
		 "properties": { 
			 "R2extent": 10835.4557, 
			 "electric_dipole_moment_norm": 5.56351265749, 
			 "electric_quadrupole_moment_norm": 38.5154162178, 
			 "total_energy": -1193.1871796, 
			 "HOMO_LUMO_gap": 0.17795, 
			 "cosmo_polarized_energy": -25.15, 
			 "cosmo_cavitation_energy": 48.18, 
			 "cosmo_dispersion_energy": -33.59, 
			 "cosmo_repulsion_energy": 2.44, 
			 "cosmo_total_nonelectrostatic_energy": 17.03, 
			 "SMD_solvation_energy": 8.19 
		},
		"coords": [
			{
				"x": 0.1284940852,
				"y": 0.6439987992,
				"z": -3.0453020727,
				"element": "C" 
			},
			{
				"x": -0.581483277,
				"y": 0.7200142429,
				"z": -1.6715133242,
				"element": "C" 
			},
			{
				"x": 0.1470630138,
				"y": 1.6636280929,
				"z": -0.6995570518,
				"element": "C" 
			},
			{
				"x": 1.5080335962,
				"y": 1.1151831753,
				"z": -0.2096506381,
				"element": "C" 
			},
			{
				"x": 2.5544420101,
				"y": 1.3541876262,
				"z": -1.1552496063,
				"element": "O" 
			},
			{
				"x": 1.4154429429,
				"y": -0.3517287988,
				"z": 0.304432507,
				"element": "C" 
			},
			{
				"x": 0.6262289612,
				"y": -1.3194601137,
				"z": -0.6257725853,
				"element": "C" 
			},
			{
				"x": 0.3978508089,
				"y": -2.6716795691,
				"z": 0.0767352419,
				"element": "C" 
			},
			{
				"x": 1.6945113668,
				"y": -3.2874324662,
				"z": 0.6359593304,
				"element": "C" 
			},
			{
				"x": 2.4352268353,
				"y": -2.2872157781,
				"z": 1.4852090451,
				"element": "C" 
			},
			{
				"x": 2.706252736,
				"y": -2.5194186558,
				"z": 2.7834519414,
				"element": "C" 
			},
			{
				"x": 3.3751677449,
				"y": -1.5394631634,
				"z": 3.6583702604,
				"element": "C" 
			},
			{
				"x": 3.6092267138,
				"y": -1.7718063977,
				"z": 4.8426338689,
				"element": "O" 
			},
			{
				"x": 3.7489081534,
				"y": -0.2601167786,
				"z": 3.020013064,
				"element": "C" 
			},
			{
				"x": 3.4810882488,
				"y": -0.0102694358,
				"z": 1.7303199871,
				"element": "C" 
			},
			{
				"x": 2.7902884695,
				"y": -0.9753781599,
				"z": 0.7974072869,
				"element": "C" 
			},
			{
				"x": 3.7966754271,
				"y": -1.267953263,
				"z": -0.3579063482,
				"element": "C" 
			},
			{
				"x": -0.7153946014,
				"y": -0.6698315793,
				"z": -0.9934994375,
				"element": "C" 
			},
			{
				"x": -1.7060912322,
				"y": -1.4267636182,
				"z": -1.8940623621,
				"element": "C" 
			},
			{
				"x": -2.694433435,
				"y": -0.3239319478,
				"z": -2.3714991046,
				"element": "C" 
			},
			{
				"x": -2.1147438212,
				"y": 1.0408682444,
				"z": -1.8952429414,
				"element": "C" 
			},
			{
				"x": -2.643461778,
				"y": 1.4256544106,
				"z": -0.6210697404,
				"element": "O" 
			},
			{
				"x": -2.3621658416,
				"y": 2.1716101183,
				"z": -2.8974891337,
				"element": "C" 
			},
			{
				"x": -2.360831668,
				"y": 1.9886648944,
				"z": -4.1062331215,
				"element": "O" 
			},
			{
				"x": -2.6090795711,
				"y": 3.5804984732,
				"z": -2.3726767532,
				"element": "C" 
			},
			{
				"x": -2.7159849082,
				"y": 4.4976807513,
				"z": -3.4230109541,
				"element": "O" 
			},
			{
				"x": 1.0250697423,
				"y": 0.0174615109,
				"z": -3.0029114368,
				"element": "H" 
			},
			{
				"x": 0.4256850481,
				"y": 1.6383513521,
				"z": -3.3901323171,
				"element": "H" 
			},
			{
				"x": -0.5063741108,
				"y": 0.2187436154,
				"z": -3.8240836293,
				"element": "H" 
			},
			{
				"x": 0.3382262942,
				"y": 2.6448023378,
				"z": -1.1498129016,
				"element": "H" 
			},
			{
				"x": -0.4947599503,
				"y": 1.8242220709,
				"z": 0.171659851,
				"element": "H" 
			},
			{
				"x": 1.8011596372,
				"y": 1.7328172035,
				"z": 0.64457345,
				"element": "H" 
			},
			{
				"x": 2.3419497325,
				"y": 0.9039015489,
				"z": -1.9809030022,
				"element": "H" 
			},
			{
				"x": 0.8071114025,
				"y": -0.270645366,
				"z": 1.2184923196,
				"element": "H" 
			},
			{
				"x": 1.203441781,
				"y": -1.5088641332,
				"z": -1.5414956881,
				"element": "H" 
			},
			{
				"x": -0.0775450487,
				"y": -3.3786028935,
				"z": -0.6126099298,
				"element": "H" 
			},
			{
				"x": -0.3044466166,
				"y": -2.5189436195,
				"z": 0.9078653153,
				"element": "H" 
			},
			{
				"x": 2.3281013894,
				"y": -3.6127993632,
				"z": -0.1999637976,
				"element": "H" 
			},
			{
				"x": 1.4653192544,
				"y": -4.1820920578,
				"z": 1.2234346288,
				"element": "H" 
			},
			{
				"x": 2.4301677,
				"y": -3.4595980397,
				"z": 3.255284429,
				"element": "H" 
			},
			{
				"x": 4.2658331967,
				"y": 0.4586966979,
				"z": 3.6497104864,
				"element": "H" 
			},
			{
				"x": 3.8036465953,
				"y": 0.9262338674,
				"z": 1.2810908385,
				"element": "H" 
			},
			{
				"x": 4.1421786251,
				"y": -0.335415923,
				"z": -0.8028732277,
				"element": "H" 
			},
			{
				"x": 4.6580686413,
				"y": -1.8113413625,
				"z": 0.0419613956,
				"element": "H" 
			},
			{
				"x": 3.3539715471,
				"y": -1.8804385123,
				"z": -1.1476542921,
				"element": "H" 
			},
			{
				"x": -1.2351744327,
				"y": -0.4788472724,
				"z": -0.0446676076,
				"element": "H" 
			},
			{
				"x": -2.2190699142,
				"y": -2.2348411992,
				"z": -1.3660033093,
				"element": "H" 
			},
			{
				"x": -1.1931823577,
				"y": -1.8805860773,
				"z": -2.7497211601,
				"element": "H" 
			},
			{
				"x": -3.6950167455,
				"y": -0.460333415,
				"z": -1.9447133601,
				"element": "H" 
			},
			{
				"x": -2.8125225668,
				"y": -0.3178582279,
				"z": -3.4568105761,
				"element": "H" 
			},
			{
				"x": -3.5947542866,
				"y": 1.2586219636,
				"z": -0.6245562215,
				"element": "H" 
			},
			{
				"x": -3.5221881592,
				"y": 3.5624004596,
				"z": -1.756010379,
				"element": "H" 
			},
			{
				"x": -1.7947976353,
				"y": 3.8491788166,
				"z": -1.6819821477,
				"element": "H" 
			},
			{
				"x": -2.6556297427,
				"y": 3.9658369141,
				"z": -4.2363650885,
				"element": "H" 
			}
		],
		 "valence_orbital": [ 
			{
				"type": "occ",
				"energy": -0.2726,
				"method": "rhf"
			},
			{
				"type": "occ",
				"energy": -0.26653,
				"method": "rhf"
			},
			{
				"type": "occ",
				"energy": -0.26378,
				"method": "rhf"
			},
			{
				"type": "occ",
				"energy": -0.25299,
				"method": "rhf"
			},
			{
				"type": "occ",
				"energy": -0.23038,
				"method": "rhf"
			},
			{
				"type": "unocc",
				"energy": -0.05243,
				"method": "rhf"
			},
			{
				"type": "unocc",
				"energy": -0.04367,
				"method": "rhf"
			},
			{
				"type": "unocc",
				"energy": 0.00116,
				"method": "rhf"
			},
			{
				"type": "unocc",
				"energy": 0.04416,
				"method": "rhf"
			},
			{
				"type": "unocc",
				"energy": 0.05096,
				"method": "rhf"
			}
		],
		"cosmo_sigma_profile": { 
			"-0.025": 0.0,
			"-0.024": 0.0,
			"-0.023": 0.0,
			"-0.022": 0.0,
			"-0.021": 0.0,
			"-0.02": 0.0,
			"-0.019": 0.0,
			"-0.018": 0.0,
			"-0.017": 0.0371290827414,
			"-0.016": 0.795115490392,
			"-0.015": 1.02696627112,
			"-0.014": 1.31347685656,
			"-0.013": 1.35951559286,
			"-0.012": 2.67658703293,
			"-0.011": 2.29873925984,
			"-0.01": 2.87054437742,
			"-0.009": 2.94030917206,
			"-0.008": 3.44533654037,
			"-0.007": 3.91329675034,
			"-0.006": 9.5187919168,
			"-0.005": 18.7744322816,
			"-0.004": 31.1293543175,
			"-0.003": 42.521900297,
			"-0.002": 44.7698507608,
			"-0.001": 43.8593787162,
			"0.0": 33.6717300853,
			"0.001": 23.1200281359,
			"0.002": 15.3650553761,
			"0.003": 12.9153023456,
			"0.004": 8.76061002557,
			"0.005": 7.05005443809,
			"0.006": 5.9913449508,
			"0.007": 6.01654228187,
			"0.008": 6.41583931515,
			"0.009": 6.01825488857,
			"0.01": 6.9169270971,
			"0.011": 5.11165844022,
			"0.012": 5.45320577587,
			"0.013": 7.5145038527,
			"0.014": 7.24542795247,
			"0.015": 2.19708552525,
			"0.016": 0.0,
			"0.017": 0.0,
			"0.018": 0.0,
			"0.019": 0.0,
			"0.02": 0.0,
			"0.021": 0.0,
			"0.022": 0.0,
			"0.023": 0.0,
			"0.024": 0.0,
			"0.025": 0.0
		}
	}
}
