{
	 "smiles": "CCCC#CCCCC(O)=O", 
	 "Tm": 270.15, 
	 "num_atms": 25, 
	 "gaussian": { 
		 "optdone": 1, 
		 "sigma_profile": "yes", 
		 "theory": "DFT", 
		 "functional": "B3LYP", 
		 "basiset": "6-31G**", 
		 "properties": { 
			 "R2extent": 3621.8589, 
			 "electric_dipole_moment_norm": 1.60193296364, 
			 "electric_quadrupole_moment_norm": 10.2136630721, 
			 "total_energy": -501.812431055, 
			 "HOMO_LUMO_gap": 0.25565, 
			 "cosmo_polarized_energy": -10.11, 
			 "cosmo_cavitation_energy": 29.39, 
			 "cosmo_dispersion_energy": -20.16, 
			 "cosmo_repulsion_energy": 1.73, 
			 "cosmo_total_nonelectrostatic_energy": 10.96, 
			 "SMD_solvation_energy": 6.2 
		},
		"coords": [
			{
				"x": 1.216484938,
				"y": 2.3784553512,
				"z": -0.5908814218,
				"element": "C" 
			},
			{
				"x": 2.492617745,
				"y": 1.5538819433,
				"z": -0.7728107631,
				"element": "C" 
			},
			{
				"x": 2.2734840374,
				"y": 0.2486211269,
				"z": -1.5709906615,
				"element": "C" 
			},
			{
				"x": 1.3659205559,
				"y": -0.6980421392,
				"z": -0.9171646218,
				"element": "C" 
			},
			{
				"x": 0.6255148473,
				"y": -1.475741813,
				"z": -0.3572312589,
				"element": "C" 
			},
			{
				"x": -0.2868232848,
				"y": -2.4099836389,
				"z": 0.3066080611,
				"element": "C" 
			},
			{
				"x": -1.7637469302,
				"y": -1.9599742019,
				"z": 0.2885917522,
				"element": "C" 
			},
			{
				"x": -2.3255107466,
				"y": -1.8312745977,
				"z": -1.1378823635,
				"element": "C" 
			},
			{
				"x": -3.7695533097,
				"y": -1.3846729454,
				"z": -1.1696972111,
				"element": "C" 
			},
			{
				"x": -4.580114731,
				"y": -2.2474995636,
				"z": -0.5015015791,
				"element": "O" 
			},
			{
				"x": -4.1964724665,
				"y": -0.3897466794,
				"z": -1.712306052,
				"element": "O" 
			},
			{
				"x": 0.798327019,
				"y": 2.6796175774,
				"z": -1.5583062765,
				"element": "H" 
			},
			{
				"x": 0.4507378977,
				"y": 1.801956992,
				"z": -0.062753325,
				"element": "H" 
			},
			{
				"x": 1.4134371686,
				"y": 3.2883326018,
				"z": -0.0149775304,
				"element": "H" 
			},
			{
				"x": 3.249381964,
				"y": 2.1485286498,
				"z": -1.2992996478,
				"element": "H" 
			},
			{
				"x": 2.9163492264,
				"y": 1.3014246456,
				"z": 0.2064059518,
				"element": "H" 
			},
			{
				"x": 3.2423930459,
				"y": -0.2402597104,
				"z": -1.7384331647,
				"element": "H" 
			},
			{
				"x": 1.8829321636,
				"y": 0.4970470316,
				"z": -2.5678843265,
				"element": "H" 
			},
			{
				"x": 0.0259235127,
				"y": -2.5480688222,
				"z": 1.3498821607,
				"element": "H" 
			},
			{
				"x": -0.2053903763,
				"y": -3.3989760478,
				"z": -0.1663060945,
				"element": "H" 
			},
			{
				"x": -1.8503372578,
				"y": -0.996626887,
				"z": 0.8039844546,
				"element": "H" 
			},
			{
				"x": -2.3599624402,
				"y": -2.6840383165,
				"z": 0.8527940213,
				"element": "H" 
			},
			{
				"x": -2.262298546,
				"y": -2.8047071722,
				"z": -1.6415085111,
				"element": "H" 
			},
			{
				"x": -1.7452814288,
				"y": -1.1107074417,
				"z": -1.7170493688,
				"element": "H" 
			},
			{
				"x": -5.4767126034,
				"y": -1.8789459426,
				"z": -0.5723822235,
				"element": "H" 
			}
		],
		 "valence_orbital": [ 
			{
				"type": "occ",
				"energy": -0.33543,
				"method": "rhf"
			},
			{
				"type": "occ",
				"energy": -0.31506,
				"method": "rhf"
			},
			{
				"type": "occ",
				"energy": -0.27023,
				"method": "rhf"
			},
			{
				"type": "occ",
				"energy": -0.24656,
				"method": "rhf"
			},
			{
				"type": "occ",
				"energy": -0.24562,
				"method": "rhf"
			},
			{
				"type": "unocc",
				"energy": 0.01003,
				"method": "rhf"
			},
			{
				"type": "unocc",
				"energy": 0.05382,
				"method": "rhf"
			},
			{
				"type": "unocc",
				"energy": 0.05647,
				"method": "rhf"
			},
			{
				"type": "unocc",
				"energy": 0.08087,
				"method": "rhf"
			},
			{
				"type": "unocc",
				"energy": 0.10178,
				"method": "rhf"
			}
		],
		"cosmo_sigma_profile": { 
			"-0.025": 0.0,
			"-0.024": 0.0,
			"-0.023": 0.0,
			"-0.022": 0.0,
			"-0.021": 0.0,
			"-0.02": 0.0,
			"-0.019": 0.0,
			"-0.018": 0.481837152703,
			"-0.017": 1.02932413382,
			"-0.016": 0.989067071859,
			"-0.015": 0.373493342141,
			"-0.014": 0.561359805304,
			"-0.013": 0.681413781651,
			"-0.012": 0.579813823061,
			"-0.011": 1.22519687983,
			"-0.01": 1.17208913685,
			"-0.009": 0.439394318855,
			"-0.008": 0.335335395874,
			"-0.007": 0.533436086198,
			"-0.006": 4.17784807007,
			"-0.005": 11.788170728,
			"-0.004": 16.0501600907,
			"-0.003": 25.9610330494,
			"-0.002": 30.4055279135,
			"-0.001": 26.1494829464,
			"0.0": 20.5059166226,
			"0.001": 17.4575366288,
			"0.002": 13.9173115512,
			"0.003": 8.78154606703,
			"0.004": 7.09164970371,
			"0.005": 6.76932858795,
			"0.006": 5.01280669874,
			"0.007": 7.93521774522,
			"0.008": 4.10403402675,
			"0.009": 3.22498515248,
			"0.01": 2.09165528146,
			"0.011": 3.25881556899,
			"0.012": 5.16581577318,
			"0.013": 1.48911479605,
			"0.014": 0.047470097597,
			"0.015": 0.0,
			"0.016": 0.0,
			"0.017": 0.0,
			"0.018": 0.0,
			"0.019": 0.0,
			"0.02": 0.0,
			"0.021": 0.0,
			"0.022": 0.0,
			"0.023": 0.0,
			"0.024": 0.0,
			"0.025": 0.0
		}
	}
}
