{
	 "smiles": "NC1=C2C(=O)C3=CC=CC=C3C(=O)C2=C(N)C=C1", 
	 "Tm": 539.15, 
	 "num_atms": 28, 
	 "gaussian": { 
		 "optdone": 1, 
		 "sigma_profile": "yes", 
		 "theory": "DFT", 
		 "functional": "B3LYP", 
		 "basiset": "6-31G**", 
		 "properties": { 
			 "R2extent": 4357.3725, 
			 "electric_dipole_moment_norm": 3.06697647366, 
			 "electric_quadrupole_moment_norm": 19.8752269829, 
			 "total_energy": -799.507024213, 
			 "HOMO_LUMO_gap": 0.0953, 
			 "cosmo_polarized_energy": -15.34, 
			 "cosmo_cavitation_energy": 31.07, 
			 "cosmo_dispersion_energy": -23.96, 
			 "cosmo_repulsion_energy": 1.77, 
			 "cosmo_total_nonelectrostatic_energy": 8.88, 
			 "SMD_solvation_energy": 5.24 
		},
		"coords": [
			{
				"x": -2.9184936352,
				"y": -1.008159009,
				"z": 0.2370395091,
				"element": "N" 
			},
			{
				"x": -2.1986243769,
				"y": 0.1393799067,
				"z": 0.1092673048,
				"element": "C" 
			},
			{
				"x": -0.7923797441,
				"y": 0.1885513383,
				"z": 0.2809215648,
				"element": "C" 
			},
			{
				"x": -0.0750502977,
				"y": -1.0312760284,
				"z": 0.6613470873,
				"element": "C" 
			},
			{
				"x": -0.6465568717,
				"y": -2.1263195234,
				"z": 0.833690227,
				"element": "O" 
			},
			{
				"x": 1.3960097635,
				"y": -0.9519500799,
				"z": 0.8536984553,
				"element": "C" 
			},
			{
				"x": 2.1022346412,
				"y": -2.1074061496,
				"z": 1.2172990228,
				"element": "C" 
			},
			{
				"x": 3.4794093682,
				"y": -2.055616891,
				"z": 1.4021902758,
				"element": "C" 
			},
			{
				"x": 4.167292812,
				"y": -0.8471841842,
				"z": 1.2251801288,
				"element": "C" 
			},
			{
				"x": 3.4743460466,
				"y": 0.3030401603,
				"z": 0.8642175177,
				"element": "C" 
			},
			{
				"x": 2.0855383564,
				"y": 0.259368004,
				"z": 0.6762615448,
				"element": "C" 
			},
			{
				"x": 1.3663116725,
				"y": 1.5008165655,
				"z": 0.2904417058,
				"element": "C" 
			},
			{
				"x": 2.0180344335,
				"y": 2.5545772066,
				"z": 0.1479586416,
				"element": "O" 
			},
			{
				"x": -0.0848036868,
				"y": 1.4315774241,
				"z": 0.0988562299,
				"element": "C" 
			},
			{
				"x": -0.7933906516,
				"y": 2.6080185686,
				"z": -0.2522929601,
				"element": "C" 
			},
			{
				"x": -0.1797129165,
				"y": 3.8031770444,
				"z": -0.4676604588,
				"element": "N" 
			},
			{
				"x": -2.2081425092,
				"y": 2.5236102425,
				"z": -0.4009114002,
				"element": "C" 
			},
			{
				"x": -2.8789483701,
				"y": 1.3451738872,
				"z": -0.228322028,
				"element": "C" 
			},
			{
				"x": -3.9238746327,
				"y": -0.9697816781,
				"z": 0.2309277884,
				"element": "H" 
			},
			{
				"x": -2.4139027154,
				"y": -1.8324649965,
				"z": 0.5490781813,
				"element": "H" 
			},
			{
				"x": 1.5445231763,
				"y": -3.0283137287,
				"z": 1.3470223602,
				"element": "H" 
			},
			{
				"x": 4.0226386662,
				"y": -2.953175176,
				"z": 1.6839123305,
				"element": "H" 
			},
			{
				"x": 5.2432507473,
				"y": -0.8088748073,
				"z": 1.3698281697,
				"element": "H" 
			},
			{
				"x": 3.9805557542,
				"y": 1.2511647234,
				"z": 0.7201650466,
				"element": "H" 
			},
			{
				"x": -0.7340819584,
				"y": 4.6338988915,
				"z": -0.5896379151,
				"element": "H" 
			},
			{
				"x": 0.8180161611,
				"y": 3.8451112145,
				"z": -0.2826214023,
				"element": "H" 
			},
			{
				"x": -2.7575830674,
				"y": 3.4242146631,
				"z": -0.6642033141,
				"element": "H" 
			},
			{
				"x": -3.9584161655,
				"y": 1.3146424115,
				"z": -0.3552536134,
				"element": "H" 
			}
		],
		 "valence_orbital": [ 
			{
				"type": "occ",
				"energy": -0.25309,
				"method": "rhf"
			},
			{
				"type": "occ",
				"energy": -0.2521,
				"method": "rhf"
			},
			{
				"type": "occ",
				"energy": -0.25164,
				"method": "rhf"
			},
			{
				"type": "occ",
				"energy": -0.24327,
				"method": "rhf"
			},
			{
				"type": "occ",
				"energy": -0.18272,
				"method": "rhf"
			},
			{
				"type": "unocc",
				"energy": -0.08742,
				"method": "rhf"
			},
			{
				"type": "unocc",
				"energy": -0.03497,
				"method": "rhf"
			},
			{
				"type": "unocc",
				"energy": -0.01185,
				"method": "rhf"
			},
			{
				"type": "unocc",
				"energy": 0.01887,
				"method": "rhf"
			},
			{
				"type": "unocc",
				"energy": 0.06629,
				"method": "rhf"
			}
		],
		"cosmo_sigma_profile": { 
			"-0.025": 0.0,
			"-0.024": 0.0,
			"-0.023": 0.0,
			"-0.022": 0.0,
			"-0.021": 0.0,
			"-0.02": 0.0,
			"-0.019": 0.0,
			"-0.018": 0.0,
			"-0.017": 0.0,
			"-0.016": 0.0,
			"-0.015": 0.047192442208,
			"-0.014": 1.80417514629,
			"-0.013": 2.74051950656,
			"-0.012": 3.05759077992,
			"-0.011": 3.68995932878,
			"-0.01": 2.49075471257,
			"-0.009": 2.68263452716,
			"-0.008": 6.56172982179,
			"-0.007": 8.31628626442,
			"-0.006": 10.0370662509,
			"-0.005": 12.7442980418,
			"-0.004": 13.5392835845,
			"-0.003": 8.78262267806,
			"-0.002": 9.17215195592,
			"-0.001": 15.1143456221,
			"0.0": 13.9789192981,
			"0.001": 19.2744217168,
			"0.002": 32.5129498712,
			"0.003": 32.4330511317,
			"0.004": 15.6612725709,
			"0.005": 5.89009777491,
			"0.006": 4.89792510791,
			"0.007": 5.62363757268,
			"0.008": 3.90658756126,
			"0.009": 2.74427538461,
			"0.01": 3.45335022834,
			"0.011": 3.82182959589,
			"0.012": 3.92220214205,
			"0.013": 0.913612084793,
			"0.014": 0.0,
			"0.015": 0.0,
			"0.016": 0.0,
			"0.017": 0.0,
			"0.018": 0.0,
			"0.019": 0.0,
			"0.02": 0.0,
			"0.021": 0.0,
			"0.022": 0.0,
			"0.023": 0.0,
			"0.024": 0.0,
			"0.025": 0.0
		}
	}
}
