{
	 "smiles": "O=CC1=NNC=C1", 
	 "Tm": 413.15, 
	 "num_atms": 11, 
	 "gaussian": { 
		 "optdone": 1, 
		 "sigma_profile": "yes", 
		 "theory": "DFT", 
		 "functional": "B3LYP", 
		 "basiset": "6-31G**", 
		 "properties": { 
			 "R2extent": 1224.8543, 
			 "electric_dipole_moment_norm": 4.83517044994, 
			 "electric_quadrupole_moment_norm": 6.94223064584, 
			 "total_energy": -339.525040858, 
			 "HOMO_LUMO_gap": 0.20396, 
			 "cosmo_polarized_energy": -12.7, 
			 "cosmo_cavitation_energy": 15.94, 
			 "cosmo_dispersion_energy": -11.89, 
			 "cosmo_repulsion_energy": 1.01, 
			 "cosmo_total_nonelectrostatic_energy": 5.07, 
			 "SMD_solvation_energy": 3.49 
		},
		"coords": [
			{
				"x": -3.3033274854,
				"y": -1.618555435,
				"z": 0.8325642326,
				"element": "O" 
			},
			{
				"x": -2.5319789103,
				"y": -2.1408056333,
				"z": 0.0492763439,
				"element": "C" 
			},
			{
				"x": -1.2129226522,
				"y": -1.5898247177,
				"z": -0.2880528196,
				"element": "C" 
			},
			{
				"x": -0.4270154431,
				"y": -2.233889593,
				"z": -1.1638519445,
				"element": "N" 
			},
			{
				"x": 0.6711040218,
				"y": -1.4740098598,
				"z": -1.2357920181,
				"element": "N" 
			},
			{
				"x": 0.6200218225,
				"y": -0.3651172909,
				"z": -0.438249213,
				"element": "C" 
			},
			{
				"x": -0.5988862245,
				"y": -0.4064260009,
				"z": 0.1982245981,
				"element": "C" 
			},
			{
				"x": -2.7744963198,
				"y": -3.0879776743,
				"z": -0.4758171267,
				"element": "H" 
			},
			{
				"x": 1.4238951207,
				"y": -1.7592349745,
				"z": -1.84457207,
				"element": "H" 
			},
			{
				"x": 1.4371152145,
				"y": 0.3399325887,
				"z": -0.3947882571,
				"element": "H" 
			},
			{
				"x": -1.0082091442,
				"y": 0.2948085906,
				"z": 0.9082582744,
				"element": "H" 
			}
		],
		 "valence_orbital": [ 
			{
				"type": "occ",
				"energy": -0.3842,
				"method": "rhf"
			},
			{
				"type": "occ",
				"energy": -0.31203,
				"method": "rhf"
			},
			{
				"type": "occ",
				"energy": -0.27236,
				"method": "rhf"
			},
			{
				"type": "occ",
				"energy": -0.2676,
				"method": "rhf"
			},
			{
				"type": "occ",
				"energy": -0.25107,
				"method": "rhf"
			},
			{
				"type": "unocc",
				"energy": -0.04711,
				"method": "rhf"
			},
			{
				"type": "unocc",
				"energy": 0.01204,
				"method": "rhf"
			},
			{
				"type": "unocc",
				"energy": 0.06462,
				"method": "rhf"
			},
			{
				"type": "unocc",
				"energy": 0.10589,
				"method": "rhf"
			},
			{
				"type": "unocc",
				"energy": 0.12077,
				"method": "rhf"
			}
		],
		"cosmo_sigma_profile": { 
			"-0.025": 0.0,
			"-0.024": 0.0,
			"-0.023": 0.0,
			"-0.022": 0.0,
			"-0.021": 0.0,
			"-0.02": 0.0,
			"-0.019": 0.0,
			"-0.018": 0.308209527397,
			"-0.017": 1.89751395922,
			"-0.016": 1.8475127162,
			"-0.015": 0.793459793604,
			"-0.014": 1.34733490713,
			"-0.013": 1.09817065804,
			"-0.012": 0.930610465469,
			"-0.011": 1.1172946787,
			"-0.01": 2.44342214625,
			"-0.009": 3.23317345002,
			"-0.008": 2.66480720726,
			"-0.007": 3.79944765185,
			"-0.006": 5.85331552725,
			"-0.005": 5.68346939691,
			"-0.004": 6.66570928704,
			"-0.003": 5.98412522443,
			"-0.002": 6.37237296684,
			"-0.001": 6.22168964688,
			"0.0": 7.13757835685,
			"0.001": 7.0276628173,
			"0.002": 11.16876646,
			"0.003": 8.46991209901,
			"0.004": 5.56237273447,
			"0.005": 3.14795743309,
			"0.006": 2.54794197471,
			"0.007": 3.20783456354,
			"0.008": 2.65326149463,
			"0.009": 3.00848657872,
			"0.01": 3.65703459217,
			"0.011": 4.96082003733,
			"0.012": 4.65583477253,
			"0.013": 1.89481568812,
			"0.014": 0.718797785701,
			"0.015": 0.170657694307,
			"0.016": 0.0,
			"0.017": 0.0,
			"0.018": 0.0,
			"0.019": 0.0,
			"0.02": 0.0,
			"0.021": 0.0,
			"0.022": 0.0,
			"0.023": 0.0,
			"0.024": 0.0,
			"0.025": 0.0
		}
	}
}
