{
	 "smiles": "OC(=O)C1=C(N=C(S1)C1=CC=CC=C1)C1=CC=CC=C1", 
	 "Tm": 487.15, 
	 "num_atms": 31, 
	 "gaussian": { 
		 "optdone": 1, 
		 "sigma_profile": "yes", 
		 "theory": "DFT", 
		 "functional": "B3LYP", 
		 "basiset": "6-31G**", 
		 "properties": { 
			 "R2extent": 7375.4629, 
			 "electric_dipole_moment_norm": 5.00816684427, 
			 "electric_quadrupole_moment_norm": 26.6869027159, 
			 "total_energy": -1219.7334913, 
			 "HOMO_LUMO_gap": 0.1521, 
			 "cosmo_polarized_energy": -13.92, 
			 "cosmo_cavitation_energy": 37.39, 
			 "cosmo_dispersion_energy": -27.44, 
			 "cosmo_repulsion_energy": 2.03, 
			 "cosmo_total_nonelectrostatic_energy": 11.99, 
			 "SMD_solvation_energy": 5.85 
		},
		"coords": [
			{
				"x": 2.1369928861,
				"y": -0.5190189129,
				"z": -3.2141153532,
				"element": "O" 
			},
			{
				"x": 2.7381129049,
				"y": -0.2920415467,
				"z": -2.0244755994,
				"element": "C" 
			},
			{
				"x": 3.9466666608,
				"y": -0.3293668638,
				"z": -1.9347730709,
				"element": "O" 
			},
			{
				"x": 1.8827771629,
				"y": 0.0386805118,
				"z": -0.8582981876,
				"element": "C" 
			},
			{
				"x": 0.5132454326,
				"y": 0.0561228024,
				"z": -0.6306423021,
				"element": "C" 
			},
			{
				"x": 0.1344185566,
				"y": 0.5742413068,
				"z": 0.5808534815,
				"element": "N" 
			},
			{
				"x": 1.1669021393,
				"y": 0.9290119324,
				"z": 1.3131877462,
				"element": "C" 
			},
			{
				"x": 2.7154145399,
				"y": 0.6510318283,
				"z": 0.5456525197,
				"element": "S" 
			},
			{
				"x": 1.0366953765,
				"y": 1.4973465581,
				"z": 2.6614026639,
				"element": "C" 
			},
			{
				"x": 2.1525613697,
				"y": 1.9347147719,
				"z": 3.3941468411,
				"element": "C" 
			},
			{
				"x": 1.993039721,
				"y": 2.4696907466,
				"z": 4.6699465666,
				"element": "C" 
			},
			{
				"x": 0.7186957509,
				"y": 2.5772219652,
				"z": 5.2316324977,
				"element": "C" 
			},
			{
				"x": -0.3967863466,
				"y": 2.1454392323,
				"z": 4.5089395599,
				"element": "C" 
			},
			{
				"x": -0.2429591813,
				"y": 1.6086822164,
				"z": 3.2341836986,
				"element": "C" 
			},
			{
				"x": -0.5610679182,
				"y": -0.4173310452,
				"z": -1.5367967766,
				"element": "C" 
			},
			{
				"x": -1.718915628,
				"y": 0.3637323349,
				"z": -1.6972914253,
				"element": "C" 
			},
			{
				"x": -2.7514803564,
				"y": -0.067116334,
				"z": -2.5258674906,
				"element": "C" 
			},
			{
				"x": -2.6522203128,
				"y": -1.2881626317,
				"z": -3.19966438,
				"element": "C" 
			},
			{
				"x": -1.5178967177,
				"y": -2.0819927779,
				"z": -3.0308062334,
				"element": "C" 
			},
			{
				"x": -0.4795829092,
				"y": -1.6549523129,
				"z": -2.1998781088,
				"element": "C" 
			},
			{
				"x": 1.1718421785,
				"y": -0.4356166497,
				"z": -3.1455603076,
				"element": "H" 
			},
			{
				"x": 3.1494332311,
				"y": 1.8621754056,
				"z": 2.9680448017,
				"element": "H" 
			},
			{
				"x": 2.8641584923,
				"y": 2.8043139149,
				"z": 5.2250699058,
				"element": "H" 
			},
			{
				"x": 0.5960838397,
				"y": 2.9947771679,
				"z": 6.2266475043,
				"element": "H" 
			},
			{
				"x": -1.3896779515,
				"y": 2.2256932375,
				"z": 4.9416890444,
				"element": "H" 
			},
			{
				"x": -1.0990454755,
				"y": 1.2667116001,
				"z": 2.6636317877,
				"element": "H" 
			},
			{
				"x": -1.7949839151,
				"y": 1.3045795727,
				"z": -1.1626833129,
				"element": "H" 
			},
			{
				"x": -3.6369643976,
				"y": 0.549953723,
				"z": -2.6468698843,
				"element": "H" 
			},
			{
				"x": -3.4596695045,
				"y": -1.6219673673,
				"z": -3.8445163558,
				"element": "H" 
			},
			{
				"x": -1.4426463753,
				"y": -3.0422668653,
				"z": -3.5320206342,
				"element": "H" 
			},
			{
				"x": 0.3821567468,
				"y": -2.2962875213,
				"z": -2.0417691966,
				"element": "H" 
			}
		],
		 "valence_orbital": [ 
			{
				"type": "occ",
				"energy": -0.27035,
				"method": "rhf"
			},
			{
				"type": "occ",
				"energy": -0.2675,
				"method": "rhf"
			},
			{
				"type": "occ",
				"energy": -0.26496,
				"method": "rhf"
			},
			{
				"type": "occ",
				"energy": -0.26182,
				"method": "rhf"
			},
			{
				"type": "occ",
				"energy": -0.2321,
				"method": "rhf"
			},
			{
				"type": "unocc",
				"energy": -0.08,
				"method": "rhf"
			},
			{
				"type": "unocc",
				"energy": -0.04199,
				"method": "rhf"
			},
			{
				"type": "unocc",
				"energy": -0.02343,
				"method": "rhf"
			},
			{
				"type": "unocc",
				"energy": -0.01357,
				"method": "rhf"
			},
			{
				"type": "unocc",
				"energy": 0.00047,
				"method": "rhf"
			}
		],
		"cosmo_sigma_profile": { 
			"-0.025": 0.0,
			"-0.024": 0.0,
			"-0.023": 0.0,
			"-0.022": 0.0,
			"-0.021": 0.0,
			"-0.02": 0.0,
			"-0.019": 0.0,
			"-0.018": 0.0,
			"-0.017": 0.0,
			"-0.016": 0.0,
			"-0.015": 0.0,
			"-0.014": 0.0,
			"-0.013": 0.329462411251,
			"-0.012": 0.596246380071,
			"-0.011": 1.1970021172,
			"-0.01": 1.13198934928,
			"-0.009": 0.566816239905,
			"-0.008": 2.05610547044,
			"-0.007": 8.53850691941,
			"-0.006": 21.1818070618,
			"-0.005": 22.9382927274,
			"-0.004": 23.5393907814,
			"-0.003": 18.3566433314,
			"-0.002": 22.3867779892,
			"-0.001": 22.8997113522,
			"0.0": 22.5751557883,
			"0.001": 22.7915980124,
			"0.002": 24.8669607551,
			"0.003": 24.6365292025,
			"0.004": 25.0463996352,
			"0.005": 5.90116783011,
			"0.006": 3.94823819508,
			"0.007": 3.21525629981,
			"0.008": 5.06279317489,
			"0.009": 4.39686650487,
			"0.01": 5.067191962,
			"0.011": 5.51209067717,
			"0.012": 3.99794302593,
			"0.013": 1.02194996371,
			"0.014": 0.0,
			"0.015": 0.0,
			"0.016": 0.0,
			"0.017": 0.0,
			"0.018": 0.0,
			"0.019": 0.0,
			"0.02": 0.0,
			"0.021": 0.0,
			"0.022": 0.0,
			"0.023": 0.0,
			"0.024": 0.0,
			"0.025": 0.0
		}
	}
}
