{
	 "smiles": "ON=CC1=CC=C(OCC2=CN=CC=C2)C=C1", 
	 "Tm": 461.15, 
	 "num_atms": 29, 
	 "gaussian": { 
		 "optdone": 1, 
		 "sigma_profile": "yes", 
		 "theory": "DFT", 
		 "functional": "B3LYP", 
		 "basiset": "6-31G**", 
		 "properties": { 
			 "R2extent": 5532.3224, 
			 "electric_dipole_moment_norm": 1.53723057477, 
			 "electric_quadrupole_moment_norm": 12.0604837279, 
			 "total_energy": -762.487459102, 
			 "HOMO_LUMO_gap": 0.18045, 
			 "cosmo_polarized_energy": -13.99, 
			 "cosmo_cavitation_energy": 33.84, 
			 "cosmo_dispersion_energy": -24.3, 
			 "cosmo_repulsion_energy": 1.89, 
			 "cosmo_total_nonelectrostatic_energy": 11.43, 
			 "SMD_solvation_energy": 4.57 
		},
		"coords": [
			{
				"x": -1.0898182458,
				"y": 3.7017410222,
				"z": 2.1075066694,
				"element": "O" 
			},
			{
				"x": -2.4792628216,
				"y": 3.5087069872,
				"z": 2.046991445,
				"element": "N" 
			},
			{
				"x": -2.8232128042,
				"y": 2.3913313152,
				"z": 1.5106754179,
				"element": "C" 
			},
			{
				"x": -2.072832899,
				"y": 1.2668799177,
				"z": 0.9449178168,
				"element": "C" 
			},
			{
				"x": -0.6707916876,
				"y": 1.176114368,
				"z": 0.8624966807,
				"element": "C" 
			},
			{
				"x": -0.0512549346,
				"y": 0.0591522374,
				"z": 0.3029349809,
				"element": "C" 
			},
			{
				"x": -0.8241264936,
				"y": -1.0010286757,
				"z": -0.1855235382,
				"element": "C" 
			},
			{
				"x": -0.3250739004,
				"y": -2.1476236856,
				"z": -0.7408304277,
				"element": "O" 
			},
			{
				"x": 1.0833744685,
				"y": -2.3723355254,
				"z": -0.7412813931,
				"element": "C" 
			},
			{
				"x": 1.8232719417,
				"y": -1.6176578886,
				"z": -1.8261094207,
				"element": "C" 
			},
			{
				"x": 3.1498351002,
				"y": -1.2138257429,
				"z": -1.6375561525,
				"element": "C" 
			},
			{
				"x": 3.8880684227,
				"y": -0.5936908426,
				"z": -2.5648753136,
				"element": "N" 
			},
			{
				"x": 3.3046632887,
				"y": -0.3415170594,
				"z": -3.7426057412,
				"element": "C" 
			},
			{
				"x": 1.9848364351,
				"y": -0.6902591299,
				"z": -4.0372654092,
				"element": "C" 
			},
			{
				"x": 1.2333110573,
				"y": -1.342530866,
				"z": -3.0632451373,
				"element": "C" 
			},
			{
				"x": -2.2233111595,
				"y": -0.9276417283,
				"z": -0.1169308259,
				"element": "C" 
			},
			{
				"x": -2.8284592239,
				"y": 0.1875611007,
				"z": 0.4384473586,
				"element": "C" 
			},
			{
				"x": -1.0269904216,
				"y": 4.5691129987,
				"z": 2.5277350123,
				"element": "H" 
			},
			{
				"x": -3.9080151475,
				"y": 2.284917801,
				"z": 1.4853202607,
				"element": "H" 
			},
			{
				"x": -0.0621506859,
				"y": 1.9878291677,
				"z": 1.2336061089,
				"element": "H" 
			},
			{
				"x": 1.0295823114,
				"y": 0.0376997409,
				"z": 0.2364580545,
				"element": "H" 
			},
			{
				"x": 1.1786653851,
				"y": -3.4511422132,
				"z": -0.9054896833,
				"element": "H" 
			},
			{
				"x": 1.5117142298,
				"y": -2.152646384,
				"z": 0.2451094668,
				"element": "H" 
			},
			{
				"x": 3.6435381401,
				"y": -1.4005008728,
				"z": -0.6830231435,
				"element": "H" 
			},
			{
				"x": 3.9190550017,
				"y": 0.1667490657,
				"z": -4.4836284006,
				"element": "H" 
			},
			{
				"x": 1.5594867896,
				"y": -0.454640588,
				"z": -5.0078533636,
				"element": "H" 
			},
			{
				"x": 0.2019877044,
				"y": -1.6284421708,
				"z": -3.2462550724,
				"element": "H" 
			},
			{
				"x": -2.8082194747,
				"y": -1.7579696362,
				"z": -0.4985695218,
				"element": "H" 
			},
			{
				"x": -3.9135703765,
				"y": 0.2300572871,
				"z": 0.4882432721,
				"element": "H" 
			}
		],
		 "valence_orbital": [ 
			{
				"type": "occ",
				"energy": -0.26672,
				"method": "rhf"
			},
			{
				"type": "occ",
				"energy": -0.26444,
				"method": "rhf"
			},
			{
				"type": "occ",
				"energy": -0.25771,
				"method": "rhf"
			},
			{
				"type": "occ",
				"energy": -0.25543,
				"method": "rhf"
			},
			{
				"type": "occ",
				"energy": -0.21457,
				"method": "rhf"
			},
			{
				"type": "unocc",
				"energy": -0.03412,
				"method": "rhf"
			},
			{
				"type": "unocc",
				"energy": -0.03084,
				"method": "rhf"
			},
			{
				"type": "unocc",
				"energy": -0.02005,
				"method": "rhf"
			},
			{
				"type": "unocc",
				"energy": -0.00414,
				"method": "rhf"
			},
			{
				"type": "unocc",
				"energy": 0.0637,
				"method": "rhf"
			}
		],
		"cosmo_sigma_profile": { 
			"-0.025": 0.0,
			"-0.024": 0.0,
			"-0.023": 0.0,
			"-0.022": 0.0,
			"-0.021": 0.0,
			"-0.02": 0.0,
			"-0.019": 0.0,
			"-0.018": 0.123121256382,
			"-0.017": 0.861634369874,
			"-0.016": 1.10597048692,
			"-0.015": 0.713307939533,
			"-0.014": 0.664646111527,
			"-0.013": 0.875012883832,
			"-0.012": 0.581781367787,
			"-0.011": 0.638807393829,
			"-0.01": 0.688261420363,
			"-0.009": 0.362634642345,
			"-0.008": 3.73328472393,
			"-0.007": 14.3765085778,
			"-0.006": 18.5815357654,
			"-0.005": 19.7053320328,
			"-0.004": 19.1967894531,
			"-0.003": 15.0810543752,
			"-0.002": 13.1008325034,
			"-0.001": 12.4657767131,
			"0.0": 14.6638307241,
			"0.001": 18.7285132555,
			"0.002": 25.1524594314,
			"0.003": 23.1659515777,
			"0.004": 21.5417244527,
			"0.005": 10.3243448477,
			"0.006": 7.36315056092,
			"0.007": 5.03891087058,
			"0.008": 5.8954075043,
			"0.009": 5.45706207853,
			"0.01": 1.81618558527,
			"0.011": 1.55657912375,
			"0.012": 1.64007347204,
			"0.013": 2.05484501969,
			"0.014": 1.64706944745,
			"0.015": 0.953953176081,
			"0.016": 0.726183808901,
			"0.017": 0.362264030227,
			"0.018": 0.0,
			"0.019": 0.0,
			"0.02": 0.0,
			"0.021": 0.0,
			"0.022": 0.0,
			"0.023": 0.0,
			"0.024": 0.0,
			"0.025": 0.0
		}
	}
}
