{
	 "smiles": "OCCN(CCC#N)C1=CC=C(C=C1)N=NC1=CC=C(C=C1Cl)[N+]([O-])=O", 
	 "Tm": 430.15, 
	 "num_atms": 42, 
	 "gaussian": { 
		 "optdone": 1, 
		 "sigma_profile": "yes", 
		 "theory": "DFT", 
		 "functional": "B3LYP", 
		 "basiset": "6-31G**", 
		 "properties": { 
			 "R2extent": 16617.2484, 
			 "electric_dipole_moment_norm": 8.20316287416, 
			 "electric_quadrupole_moment_norm": 28.5909791002, 
			 "total_energy": -1616.87033468, 
			 "HOMO_LUMO_gap": 0.11729, 
			 "cosmo_polarized_energy": -29.0, 
			 "cosmo_cavitation_energy": 50.49, 
			 "cosmo_dispersion_energy": -33.83, 
			 "cosmo_repulsion_energy": 2.6, 
			 "cosmo_total_nonelectrostatic_energy": 19.26, 
			 "SMD_solvation_energy": 9.76 
		},
		"coords": [
			{
				"x": 4.1929163676,
				"y": 0.9839868784,
				"z": -2.586959113,
				"element": "O" 
			},
			{
				"x": 3.1185764917,
				"y": 0.3514620342,
				"z": -1.9133080307,
				"element": "C" 
			},
			{
				"x": 3.2231558331,
				"y": 0.777087613,
				"z": -0.4453992846,
				"element": "C" 
			},
			{
				"x": 2.188323789,
				"y": 0.1864877634,
				"z": 0.3995435529,
				"element": "N" 
			},
			{
				"x": 2.5452578954,
				"y": -1.033859592,
				"z": 1.1036281249,
				"element": "C" 
			},
			{
				"x": 3.1204981297,
				"y": -0.7599466768,
				"z": 2.5201137777,
				"element": "C" 
			},
			{
				"x": 3.4914345839,
				"y": -1.9991832077,
				"z": 3.2041772114,
				"element": "C" 
			},
			{
				"x": 3.7745815704,
				"y": -3.0024453861,
				"z": 3.714524527,
				"element": "N" 
			},
			{
				"x": 0.953156196,
				"y": 0.7899354089,
				"z": 0.5710254206,
				"element": "C" 
			},
			{
				"x": 0.0015343366,
				"y": 0.2816347721,
				"z": 1.4937197231,
				"element": "C" 
			},
			{
				"x": -1.2452276795,
				"y": 0.8663186868,
				"z": 1.6453480934,
				"element": "C" 
			},
			{
				"x": -1.5999519778,
				"y": 2.0087802344,
				"z": 0.9043374561,
				"element": "C" 
			},
			{
				"x": -0.6378024936,
				"y": 2.5570655169,
				"z": 0.0390428782,
				"element": "C" 
			},
			{
				"x": 0.5925463096,
				"y": 1.9535706316,
				"z": -0.1543066585,
				"element": "C" 
			},
			{
				"x": -2.7892042104,
				"y": 2.7671714699,
				"z": 1.0264469526,
				"element": "N" 
			},
			{
				"x": -3.8952359112,
				"y": 2.306252738,
				"z": 1.389527237,
				"element": "N" 
			},
			{
				"x": -4.2230891038,
				"y": 0.9294824165,
				"z": 1.494541264,
				"element": "C" 
			},
			{
				"x": -4.2303406864,
				"y": 0.1106860689,
				"z": 0.3487575216,
				"element": "C" 
			},
			{
				"x": -4.774761338,
				"y": -1.164407464,
				"z": 0.3873367321,
				"element": "C" 
			},
			{
				"x": -5.3161032743,
				"y": -1.628313823,
				"z": 1.5869046003,
				"element": "C" 
			},
			{
				"x": -5.3334385611,
				"y": -0.8460427461,
				"z": 2.7405644098,
				"element": "C" 
			},
			{
				"x": -4.7966872577,
				"y": 0.4332856353,
				"z": 2.6813017122,
				"element": "C" 
			},
			{
				"x": -4.7928845706,
				"y": 1.4333960814,
				"z": 4.1162058237,
				"element": "Cl" 
			},
			{
				"x": -5.884957448,
				"y": -2.9782178065,
				"z": 1.642300684,
				"element": "N" 
			},
			{
				"x": -6.3547276548,
				"y": -3.3580236184,
				"z": 2.7151665601,
				"element": "O" 
			},
			{
				"x": -5.8553477846,
				"y": -3.6508543329,
				"z": 0.6109295809,
				"element": "O" 
			},
			{
				"x": 4.1618648339,
				"y": 0.7369660625,
				"z": -3.5190332292,
				"element": "H" 
			},
			{
				"x": 3.1776995002,
				"y": -0.7468765729,
				"z": -1.9790175211,
				"element": "H" 
			},
			{
				"x": 2.1402052613,
				"y": 0.6506854006,
				"z": -2.3187490012,
				"element": "H" 
			},
			{
				"x": 4.203299224,
				"y": 0.4709780386,
				"z": -0.0667838601,
				"element": "H" 
			},
			{
				"x": 3.1994147753,
				"y": 1.868086117,
				"z": -0.3794190925,
				"element": "H" 
			},
			{
				"x": 3.2954992792,
				"y": -1.5663380876,
				"z": 0.5131001746,
				"element": "H" 
			},
			{
				"x": 1.6821368102,
				"y": -1.7002223457,
				"z": 1.175338105,
				"element": "H" 
			},
			{
				"x": 4.005409674,
				"y": -0.1182614492,
				"z": 2.4429269227,
				"element": "H" 
			},
			{
				"x": 2.38616135,
				"y": -0.2203151892,
				"z": 3.1273554373,
				"element": "H" 
			},
			{
				"x": 0.2375876727,
				"y": -0.5739760244,
				"z": 2.1138904373,
				"element": "H" 
			},
			{
				"x": -1.9248794844,
				"y": 0.4534651139,
				"z": 2.3805651166,
				"element": "H" 
			},
			{
				"x": -0.8926509277,
				"y": 3.4657498265,
				"z": -0.4971927811,
				"element": "H" 
			},
			{
				"x": 1.2789025686,
				"y": 2.3947346343,
				"z": -0.8655888977,
				"element": "H" 
			},
			{
				"x": -3.8122963589,
				"y": 0.5004942204,
				"z": -0.5730147071,
				"element": "H" 
			},
			{
				"x": -4.7886246215,
				"y": -1.8042764772,
				"z": -0.4857640036,
				"element": "H" 
			},
			{
				"x": -5.7596511081,
				"y": -1.2382025638,
				"z": 3.6547161431,
				"element": "H" 
			}
		],
		 "valence_orbital": [ 
			{
				"type": "occ",
				"energy": -0.2903,
				"method": "rhf"
			},
			{
				"type": "occ",
				"energy": -0.27865,
				"method": "rhf"
			},
			{
				"type": "occ",
				"energy": -0.27171,
				"method": "rhf"
			},
			{
				"type": "occ",
				"energy": -0.24164,
				"method": "rhf"
			},
			{
				"type": "occ",
				"energy": -0.21735,
				"method": "rhf"
			},
			{
				"type": "unocc",
				"energy": -0.10006,
				"method": "rhf"
			},
			{
				"type": "unocc",
				"energy": -0.07755,
				"method": "rhf"
			},
			{
				"type": "unocc",
				"energy": -0.04012,
				"method": "rhf"
			},
			{
				"type": "unocc",
				"energy": -0.02748,
				"method": "rhf"
			},
			{
				"type": "unocc",
				"energy": -0.00464,
				"method": "rhf"
			}
		],
		"cosmo_sigma_profile": { 
			"-0.025": 0.0,
			"-0.024": 0.0,
			"-0.023": 0.0,
			"-0.022": 0.0,
			"-0.021": 0.0,
			"-0.02": 0.0,
			"-0.019": 0.0,
			"-0.018": 0.0,
			"-0.017": 0.00228568405559,
			"-0.016": 0.810862880871,
			"-0.015": 1.12564199121,
			"-0.014": 0.918935173456,
			"-0.013": 1.17176383596,
			"-0.012": 0.701521597784,
			"-0.011": 0.581633649096,
			"-0.01": 1.8863690476,
			"-0.009": 4.51398201897,
			"-0.008": 15.6442224174,
			"-0.007": 21.5200082017,
			"-0.006": 25.5552490851,
			"-0.005": 26.5809755408,
			"-0.004": 27.4513446384,
			"-0.003": 26.0307663692,
			"-0.002": 26.9563571612,
			"-0.001": 28.129929305,
			"0.0": 25.6844373223,
			"0.001": 20.8175251346,
			"0.002": 18.6145142488,
			"0.003": 24.8789860096,
			"0.004": 19.2873916376,
			"0.005": 8.56871089993,
			"0.006": 9.70718045286,
			"0.007": 14.1433423877,
			"0.008": 14.4471129419,
			"0.009": 10.9644621773,
			"0.01": 8.95461435473,
			"0.011": 7.4558276145,
			"0.012": 6.51292048888,
			"0.013": 5.02096564313,
			"0.014": 1.35789403757,
			"0.015": 0.0,
			"0.016": 0.0,
			"0.017": 0.0,
			"0.018": 0.0,
			"0.019": 0.0,
			"0.02": 0.0,
			"0.021": 0.0,
			"0.022": 0.0,
			"0.023": 0.0,
			"0.024": 0.0,
			"0.025": 0.0
		}
	}
}
