{
	 "smiles": "ClC1=CC=C(C=C1)N1N=CC(Cl)=C(Cl)C1=O", 
	 "Tm": 460.15, 
	 "num_atms": 21, 
	 "gaussian": { 
		 "optdone": 1, 
		 "sigma_profile": "yes", 
		 "theory": "DFT", 
		 "functional": "B3LYP", 
		 "basiset": "6-31G**", 
		 "properties": { 
			 "R2extent": 7835.0356, 
			 "electric_dipole_moment_norm": 2.84809710684, 
			 "electric_quadrupole_moment_norm": 12.6497312936, 
			 "total_energy": -1949.34325912, 
			 "HOMO_LUMO_gap": 0.14985, 
			 "cosmo_polarized_energy": -9.66, 
			 "cosmo_cavitation_energy": 31.74, 
			 "cosmo_dispersion_energy": -23.81, 
			 "cosmo_repulsion_energy": 1.84, 
			 "cosmo_total_nonelectrostatic_energy": 9.77, 
			 "SMD_solvation_energy": 4.83 
		},
		"coords": [
			{
				"x": 5.3808313185,
				"y": -2.4717116653,
				"z": -0.2925885035,
				"element": "Cl" 
			},
			{
				"x": 3.8938914204,
				"y": -1.5790788342,
				"z": -0.5600394889,
				"element": "C" 
			},
			{
				"x": 3.8609510806,
				"y": -0.2079028925,
				"z": -0.3069616682,
				"element": "C" 
			},
			{
				"x": 2.6808149507,
				"y": 0.4969316531,
				"z": -0.5249483136,
				"element": "C" 
			},
			{
				"x": 1.5412737703,
				"y": -0.1675496012,
				"z": -0.9896605087,
				"element": "C" 
			},
			{
				"x": 1.5808210926,
				"y": -1.5430953791,
				"z": -1.2394291717,
				"element": "C" 
			},
			{
				"x": 2.7627493285,
				"y": -2.2490918005,
				"z": -1.0234072394,
				"element": "C" 
			},
			{
				"x": 0.3298937317,
				"y": 0.5932120313,
				"z": -1.1680576,
				"element": "N" 
			},
			{
				"x": 0.1528302582,
				"y": 1.5698666061,
				"z": -0.2564058209,
				"element": "N" 
			},
			{
				"x": -0.8852869413,
				"y": 2.3465975445,
				"z": -0.3590807252,
				"element": "C" 
			},
			{
				"x": -1.858900517,
				"y": 2.2187757754,
				"z": -1.3964107941,
				"element": "C" 
			},
			{
				"x": -3.1987143389,
				"y": 3.3208921284,
				"z": -1.397407008,
				"element": "Cl" 
			},
			{
				"x": -1.6899578892,
				"y": 1.2406134646,
				"z": -2.3328308023,
				"element": "C" 
			},
			{
				"x": -2.7757132555,
				"y": 0.9831729625,
				"z": -3.6422163144,
				"element": "Cl" 
			},
			{
				"x": -0.5303540347,
				"y": 0.3366352616,
				"z": -2.2713900611,
				"element": "C" 
			},
			{
				"x": -0.3107796584,
				"y": -0.5506036341,
				"z": -3.0784007111,
				"element": "O" 
			},
			{
				"x": 4.7476449545,
				"y": 0.3029656842,
				"z": 0.0505914089,
				"element": "H" 
			},
			{
				"x": 2.6362196867,
				"y": 1.5608271199,
				"z": -0.3268014883,
				"element": "H" 
			},
			{
				"x": 0.7058867401,
				"y": -2.058685256,
				"z": -1.6085965181,
				"element": "H" 
			},
			{
				"x": 2.8014375331,
				"y": -3.3156449155,
				"z": -1.2130550719,
				"element": "H" 
			},
			{
				"x": -0.9910392311,
				"y": 3.1137737466,
				"z": 0.4000964005,
				"element": "H" 
			}
		],
		 "valence_orbital": [ 
			{
				"type": "occ",
				"energy": -0.30635,
				"method": "rhf"
			},
			{
				"type": "occ",
				"energy": -0.28144,
				"method": "rhf"
			},
			{
				"type": "occ",
				"energy": -0.27235,
				"method": "rhf"
			},
			{
				"type": "occ",
				"energy": -0.26863,
				"method": "rhf"
			},
			{
				"type": "occ",
				"energy": -0.24145,
				"method": "rhf"
			},
			{
				"type": "unocc",
				"energy": -0.0916,
				"method": "rhf"
			},
			{
				"type": "unocc",
				"energy": -0.03122,
				"method": "rhf"
			},
			{
				"type": "unocc",
				"energy": -0.02338,
				"method": "rhf"
			},
			{
				"type": "unocc",
				"energy": -0.01828,
				"method": "rhf"
			},
			{
				"type": "unocc",
				"energy": -0.01427,
				"method": "rhf"
			}
		],
		"cosmo_sigma_profile": { 
			"-0.025": 0.0,
			"-0.024": 0.0,
			"-0.023": 0.0,
			"-0.022": 0.0,
			"-0.021": 0.0,
			"-0.02": 0.0,
			"-0.019": 0.0,
			"-0.018": 0.0,
			"-0.017": 0.0,
			"-0.016": 0.0,
			"-0.015": 0.0,
			"-0.014": 0.0,
			"-0.013": 0.0,
			"-0.012": 0.0,
			"-0.011": 0.0,
			"-0.01": 1.36973883317,
			"-0.009": 1.57642558042,
			"-0.008": 4.42725748562,
			"-0.007": 9.23445576527,
			"-0.006": 11.0782173429,
			"-0.005": 14.4481597743,
			"-0.004": 17.6777922032,
			"-0.003": 20.1551293841,
			"-0.002": 17.7408114101,
			"-0.001": 17.2770662191,
			"0.0": 20.0183725251,
			"0.001": 26.0891733083,
			"0.002": 36.6898691441,
			"0.003": 23.9739293892,
			"0.004": 14.5643767133,
			"0.005": 7.0523372103,
			"0.006": 3.16356679744,
			"0.007": 2.72562234823,
			"0.008": 2.6203978725,
			"0.009": 2.12712231099,
			"0.01": 2.65887021725,
			"0.011": 3.3359353277,
			"0.012": 3.23156917918,
			"0.013": 0.502156239298,
			"0.014": 0.0,
			"0.015": 0.0,
			"0.016": 0.0,
			"0.017": 0.0,
			"0.018": 0.0,
			"0.019": 0.0,
			"0.02": 0.0,
			"0.021": 0.0,
			"0.022": 0.0,
			"0.023": 0.0,
			"0.024": 0.0,
			"0.025": 0.0
		}
	}
}
