{
	 "smiles": "COC1=CC=C(CNC(=O)CCl)C=C1", 
	 "Tm": 377.15, 
	 "num_atms": 26, 
	 "gaussian": { 
		 "optdone": 1, 
		 "sigma_profile": "yes", 
		 "theory": "DFT", 
		 "functional": "B3LYP", 
		 "basiset": "6-31G**", 
		 "properties": { 
			 "R2extent": 5345.5212, 
			 "electric_dipole_moment_norm": 4.86120322245, 
			 "electric_quadrupole_moment_norm": 13.5517117642, 
			 "total_energy": -1053.68687662, 
			 "HOMO_LUMO_gap": 0.20731, 
			 "cosmo_polarized_energy": -14.4, 
			 "cosmo_cavitation_energy": 31.98, 
			 "cosmo_dispersion_energy": -22.99, 
			 "cosmo_repulsion_energy": 1.83, 
			 "cosmo_total_nonelectrostatic_energy": 10.83, 
			 "SMD_solvation_energy": 6.29 
		},
		"coords": [
			{
				"x": 3.8285781123,
				"y": -2.8350170069,
				"z": -2.9539439966,
				"element": "C" 
			},
			{
				"x": 3.6257379847,
				"y": -2.6449365624,
				"z": -1.5621293332,
				"element": "O" 
			},
			{
				"x": 2.4896312801,
				"y": -2.0109108977,
				"z": -1.155635564,
				"element": "C" 
			},
			{
				"x": 2.3455627153,
				"y": -1.8522774825,
				"z": 0.2330359674,
				"element": "C" 
			},
			{
				"x": 1.2239884845,
				"y": -1.2209868434,
				"z": 0.7496503897,
				"element": "C" 
			},
			{
				"x": 0.2153167247,
				"y": -0.7277877968,
				"z": -0.0958477637,
				"element": "C" 
			},
			{
				"x": -1.0189927332,
				"y": -0.0567432885,
				"z": 0.4699422113,
				"element": "C" 
			},
			{
				"x": -0.6646794984,
				"y": 1.0634896779,
				"z": 1.3407897223,
				"element": "N" 
			},
			{
				"x": -1.3247769189,
				"y": 1.5640868869,
				"z": 2.4253742452,
				"element": "C" 
			},
			{
				"x": -0.9383846719,
				"y": 2.5608377003,
				"z": 3.0214208962,
				"element": "O" 
			},
			{
				"x": -2.5581710754,
				"y": 0.8101690039,
				"z": 2.9262427048,
				"element": "C" 
			},
			{
				"x": -3.9637327225,
				"y": 0.9263742236,
				"z": 1.7796744834,
				"element": "Cl" 
			},
			{
				"x": 0.3746098759,
				"y": -0.8864933558,
				"z": -1.472374492,
				"element": "C" 
			},
			{
				"x": 1.4966446807,
				"y": -1.5243108781,
				"z": -2.0119340423,
				"element": "C" 
			},
			{
				"x": 4.7822278422,
				"y": -3.3558305847,
				"z": -3.051007306,
				"element": "H" 
			},
			{
				"x": 3.8839228906,
				"y": -1.8784838432,
				"z": -3.4893967082,
				"element": "H" 
			},
			{
				"x": 3.0350439991,
				"y": -3.4493696241,
				"z": -3.3984684564,
				"element": "H" 
			},
			{
				"x": 3.1275458014,
				"y": -2.2349324751,
				"z": 0.8807187047,
				"element": "H" 
			},
			{
				"x": 1.1280565089,
				"y": -1.0996616257,
				"z": 1.825392821,
				"element": "H" 
			},
			{
				"x": -1.6681119537,
				"y": 0.2755555792,
				"z": -0.3503680878,
				"element": "H" 
			},
			{
				"x": -1.6047547908,
				"y": -0.7743011475,
				"z": 1.0532192953,
				"element": "H" 
			},
			{
				"x": 0.1113878068,
				"y": 1.6434130298,
				"z": 1.0460132789,
				"element": "H" 
			},
			{
				"x": -2.3665139573,
				"y": -0.252978991,
				"z": 3.0855953005,
				"element": "H" 
			},
			{
				"x": -2.8655443731,
				"y": 1.2810153372,
				"z": 3.85688061,
				"element": "H" 
			},
			{
				"x": -0.3893320373,
				"y": -0.508110291,
				"z": -2.1473093592,
				"element": "H" 
			},
			{
				"x": 1.5841400252,
				"y": -1.6276087443,
				"z": -3.0868355213,
				"element": "H" 
			}
		],
		 "valence_orbital": [ 
			{
				"type": "occ",
				"energy": -0.30437,
				"method": "rhf"
			},
			{
				"type": "occ",
				"energy": -0.26344,
				"method": "rhf"
			},
			{
				"type": "occ",
				"energy": -0.25569,
				"method": "rhf"
			},
			{
				"type": "occ",
				"energy": -0.25446,
				"method": "rhf"
			},
			{
				"type": "occ",
				"energy": -0.22535,
				"method": "rhf"
			},
			{
				"type": "unocc",
				"energy": -0.01804,
				"method": "rhf"
			},
			{
				"type": "unocc",
				"energy": -0.01064,
				"method": "rhf"
			},
			{
				"type": "unocc",
				"energy": -0.00248,
				"method": "rhf"
			},
			{
				"type": "unocc",
				"energy": 0.05318,
				"method": "rhf"
			},
			{
				"type": "unocc",
				"energy": 0.08479,
				"method": "rhf"
			}
		],
		"cosmo_sigma_profile": { 
			"-0.025": 0.0,
			"-0.024": 0.0,
			"-0.023": 0.0,
			"-0.022": 0.0,
			"-0.021": 0.0,
			"-0.02": 0.0,
			"-0.019": 0.0,
			"-0.018": 0.0,
			"-0.017": 0.0,
			"-0.016": 0.0,
			"-0.015": 0.0,
			"-0.014": 0.180389039136,
			"-0.013": 0.811387574408,
			"-0.012": 0.934102518414,
			"-0.011": 0.498043193986,
			"-0.01": 1.97797331544,
			"-0.009": 4.0869091851,
			"-0.008": 4.56573668998,
			"-0.007": 5.12401064211,
			"-0.006": 15.696772415,
			"-0.005": 24.3384473975,
			"-0.004": 21.3179434234,
			"-0.003": 22.0209748471,
			"-0.002": 14.7081613303,
			"-0.001": 11.6479887909,
			"0.0": 15.3092512609,
			"0.001": 14.3657584178,
			"0.002": 12.7532041367,
			"0.003": 16.0632691391,
			"0.004": 16.5657668202,
			"0.005": 19.7595973485,
			"0.006": 9.31379379682,
			"0.007": 2.82272924257,
			"0.008": 2.10863344206,
			"0.009": 2.29898109245,
			"0.01": 2.78374536528,
			"0.011": 2.39038541166,
			"0.012": 2.32312274353,
			"0.013": 5.78947686224,
			"0.014": 2.84954363325,
			"0.015": 0.0634267731193,
			"0.016": 0.0,
			"0.017": 0.0,
			"0.018": 0.0,
			"0.019": 0.0,
			"0.02": 0.0,
			"0.021": 0.0,
			"0.022": 0.0,
			"0.023": 0.0,
			"0.024": 0.0,
			"0.025": 0.0
		}
	}
}
