{
	 "smiles": "COC(=O)C=CC1=CC(=C(OC)C(OC)=C1)S(Cl)(=O)=O", 
	 "Tm": 434.15, 
	 "num_atms": 33, 
	 "gaussian": { 
		 "optdone": 1, 
		 "sigma_profile": "yes", 
		 "theory": "DFT", 
		 "functional": "B3LYP", 
		 "basiset": "6-31G**", 
		 "properties": { 
			 "R2extent": 9006.6075, 
			 "electric_dipole_moment_norm": 6.00221364665, 
			 "electric_quadrupole_moment_norm": 21.3611408939, 
			 "total_energy": -1774.717746, 
			 "HOMO_LUMO_gap": 0.16193, 
			 "cosmo_polarized_energy": -15.43, 
			 "cosmo_cavitation_energy": 40.86, 
			 "cosmo_dispersion_energy": -28.85, 
			 "cosmo_repulsion_energy": 2.2, 
			 "cosmo_total_nonelectrostatic_energy": 14.2, 
			 "SMD_solvation_energy": 8.86 
		},
		"coords": [
			{
				"x": -6.3128584867,
				"y": -2.0536844098,
				"z": 3.0860105673,
				"element": "C" 
			},
			{
				"x": -4.9560777336,
				"y": -2.0898756404,
				"z": 3.5548542618,
				"element": "O" 
			},
			{
				"x": -4.0297163121,
				"y": -1.6309008794,
				"z": 2.6788243065,
				"element": "C" 
			},
			{
				"x": -4.3293441397,
				"y": -1.2173055194,
				"z": 1.572102413,
				"element": "O" 
			},
			{
				"x": -2.6907803475,
				"y": -1.7277627563,
				"z": 3.2924671965,
				"element": "C" 
			},
			{
				"x": -1.4726896572,
				"y": -1.3971874514,
				"z": 2.8058239476,
				"element": "C" 
			},
			{
				"x": -0.9576537087,
				"y": -0.8362128968,
				"z": 1.5514761759,
				"element": "C" 
			},
			{
				"x": -1.7269043194,
				"y": -0.4664916451,
				"z": 0.4313768716,
				"element": "C" 
			},
			{
				"x": -1.0870851146,
				"y": 0.0695903369,
				"z": -0.6829560876,
				"element": "C" 
			},
			{
				"x": 0.3050979304,
				"y": 0.2484869833,
				"z": -0.7605377373,
				"element": "C" 
			},
			{
				"x": 0.8817969793,
				"y": 0.7145161114,
				"z": -1.8977601771,
				"element": "O" 
			},
			{
				"x": 1.4678973075,
				"y": 2.031838075,
				"z": -1.8206380519,
				"element": "C" 
			},
			{
				"x": 1.0719159684,
				"y": -0.1482328325,
				"z": 0.3523016088,
				"element": "C" 
			},
			{
				"x": 2.4347931646,
				"y": 0.0091554384,
				"z": 0.3628906977,
				"element": "O" 
			},
			{
				"x": 3.1576144292,
				"y": -0.8799862071,
				"z": -0.5047494693,
				"element": "C" 
			},
			{
				"x": 0.4405356743,
				"y": -0.6666753609,
				"z": 1.4775845572,
				"element": "C" 
			},
			{
				"x": -2.1261095278,
				"y": 0.640131409,
				"z": -2.0312440333,
				"element": "S" 
			},
			{
				"x": -1.6174398297,
				"y": -0.7237605764,
				"z": -3.5847893002,
				"element": "Cl" 
			},
			{
				"x": -3.5184907315,
				"y": 0.3701522853,
				"z": -1.7007585066,
				"element": "O" 
			},
			{
				"x": -1.6960663788,
				"y": 1.962884904,
				"z": -2.4714492214,
				"element": "O" 
			},
			{
				"x": -6.6125181022,
				"y": -1.0288139293,
				"z": 2.8527217649,
				"element": "H" 
			},
			{
				"x": -6.9156354819,
				"y": -2.4540506437,
				"z": 3.9009333551,
				"element": "H" 
			},
			{
				"x": -6.4261339415,
				"y": -2.6644739436,
				"z": 2.1867811236,
				"element": "H" 
			},
			{
				"x": -2.7153430015,
				"y": -2.1348462369,
				"z": 4.2984718923,
				"element": "H" 
			},
			{
				"x": -0.6665305555,
				"y": -1.5914537736,
				"z": 3.5125672749,
				"element": "H" 
			},
			{
				"x": -2.8034879672,
				"y": -0.5859239983,
				"z": 0.4429679016,
				"element": "H" 
			},
			{
				"x": 1.9554583352,
				"y": 2.1915550099,
				"z": -2.7826277355,
				"element": "H" 
			},
			{
				"x": 0.679330328,
				"y": 2.7759702285,
				"z": -1.681874573,
				"element": "H" 
			},
			{
				"x": 2.2017882536,
				"y": 2.0829219987,
				"z": -1.0122383773,
				"element": "H" 
			},
			{
				"x": 2.8543946046,
				"y": -0.7518631463,
				"z": -1.5476725216,
				"element": "H" 
			},
			{
				"x": 3.0028547948,
				"y": -1.9224527605,
				"z": -0.2019410256,
				"element": "H" 
			},
			{
				"x": 4.2115277734,
				"y": -0.6217061291,
				"z": -0.3901489253,
				"element": "H" 
			},
			{
				"x": 1.0724597937,
				"y": -0.9487420434,
				"z": 2.3146298269,
				"element": "H" 
			}
		],
		 "valence_orbital": [ 
			{
				"type": "occ",
				"energy": -0.30217,
				"method": "rhf"
			},
			{
				"type": "occ",
				"energy": -0.28668,
				"method": "rhf"
			},
			{
				"type": "occ",
				"energy": -0.27858,
				"method": "rhf"
			},
			{
				"type": "occ",
				"energy": -0.27213,
				"method": "rhf"
			},
			{
				"type": "occ",
				"energy": -0.24582,
				"method": "rhf"
			},
			{
				"type": "unocc",
				"energy": -0.08389,
				"method": "rhf"
			},
			{
				"type": "unocc",
				"energy": -0.0749,
				"method": "rhf"
			},
			{
				"type": "unocc",
				"energy": -0.03709,
				"method": "rhf"
			},
			{
				"type": "unocc",
				"energy": -0.00326,
				"method": "rhf"
			},
			{
				"type": "unocc",
				"energy": 0.04992,
				"method": "rhf"
			}
		],
		"cosmo_sigma_profile": { 
			"-0.025": 0.0,
			"-0.024": 0.0,
			"-0.023": 0.0,
			"-0.022": 0.0,
			"-0.021": 0.0,
			"-0.02": 0.0,
			"-0.019": 0.0,
			"-0.018": 0.0,
			"-0.017": 0.0,
			"-0.016": 0.0,
			"-0.015": 0.0,
			"-0.014": 0.0,
			"-0.013": 0.0,
			"-0.012": 0.0,
			"-0.011": 0.0,
			"-0.01": 0.335811041532,
			"-0.009": 2.27957051363,
			"-0.008": 3.08808975421,
			"-0.007": 7.25045460938,
			"-0.006": 13.6692398374,
			"-0.005": 20.6774602847,
			"-0.004": 30.8840086186,
			"-0.003": 36.1102453491,
			"-0.002": 27.3650011435,
			"-0.001": 26.9058670418,
			"0.0": 30.8197663834,
			"0.001": 20.2215544359,
			"0.002": 17.1948876357,
			"0.003": 19.4381327995,
			"0.004": 15.3468867744,
			"0.005": 8.35843220601,
			"0.006": 10.0927239756,
			"0.007": 11.4186500499,
			"0.008": 14.0075235623,
			"0.009": 8.33755201222,
			"0.01": 2.63202731583,
			"0.011": 2.01956174802,
			"0.012": 0.52609303124,
			"0.013": 0.0,
			"0.014": 0.0,
			"0.015": 0.0,
			"0.016": 0.0,
			"0.017": 0.0,
			"0.018": 0.0,
			"0.019": 0.0,
			"0.02": 0.0,
			"0.021": 0.0,
			"0.022": 0.0,
			"0.023": 0.0,
			"0.024": 0.0,
			"0.025": 0.0
		}
	}
}
