{
	 "smiles": "NC1=C(I)C=CC=N1", 
	 "Tm": 363.15, 
	 "num_atms": 13, 
	 "gaussian": { 
		 "optdone": 1, 
		 "sigma_profile": "no", 
		 "theory": "DFT", 
		 "functional": "B3LYP", 
		 "basiset": "6-31G**", 
		 "properties": { 
			 "R2extent": 1429.3972, 
			 "electric_dipole_moment_norm": 2.30695363846, 
			 "electric_quadrupole_moment_norm": 13.7086126534, 
			 "total_energy": -314.418272025, 
			 "HOMO_LUMO_gap": 0.20472, 
			 "cosmo_polarized_energy": -87789.81, 
			 "cosmo_cavitation_energy": 20.12, 
			 "cosmo_dispersion_energy": -16.5, 
			 "cosmo_repulsion_energy": 1.33, 
			 "cosmo_total_nonelectrostatic_energy": 4.95, 
			 "SMD_solvation_energy": 1.14 
		},
		"coords": [
			{
				"x": 0.7005475788,
				"y": 0.7074574224,
				"z": -2.2218403012,
				"element": "N" 
			},
			{
				"x": -0.4906913006,
				"y": 0.8194887557,
				"z": -1.443324107,
				"element": "C" 
			},
			{
				"x": -0.5162617224,
				"y": 1.2465243507,
				"z": -0.0976716031,
				"element": "C" 
			},
			{
				"x": 1.277196739,
				"y": 1.775725546,
				"z": 0.9144862934,
				"element": "I" 
			},
			{
				"x": -1.7244027772,
				"y": 1.3283344385,
				"z": 0.5921018313,
				"element": "C" 
			},
			{
				"x": -2.8943312604,
				"y": 0.9793365976,
				"z": -0.0800342331,
				"element": "C" 
			},
			{
				"x": -2.7879912393,
				"y": 0.5676439919,
				"z": -1.4065607154,
				"element": "C" 
			},
			{
				"x": -1.628069932,
				"y": 0.49013718,
				"z": -2.0656518925,
				"element": "N" 
			},
			{
				"x": 1.353423991,
				"y": 0.0665129309,
				"z": -1.7758969253,
				"element": "H" 
			},
			{
				"x": 1.1768582354,
				"y": 1.6057699121,
				"z": -2.2675256475,
				"element": "H" 
			},
			{
				"x": -1.7517263506,
				"y": 1.655470026,
				"z": 1.6256451523,
				"element": "H" 
			},
			{
				"x": -3.8584435454,
				"y": 1.0272674313,
				"z": 0.4161277519,
				"element": "H" 
			},
			{
				"x": -3.6749084163,
				"y": 0.2855314168,
				"z": -1.970955604,
				"element": "H" 
			}
		],
		 "valence_orbital": [ 
			{
				"type": "occ",
				"energy": -0.28846,
				"method": "rhf"
			},
			{
				"type": "occ",
				"energy": -0.28636,
				"method": "rhf"
			},
			{
				"type": "occ",
				"energy": -0.26122,
				"method": "rhf"
			},
			{
				"type": "occ",
				"energy": -0.25617,
				"method": "rhf"
			},
			{
				"type": "occ",
				"energy": -0.25242,
				"method": "rhf"
			},
			{
				"type": "unocc",
				"energy": -0.0477,
				"method": "rhf"
			},
			{
				"type": "unocc",
				"energy": -0.03681,
				"method": "rhf"
			},
			{
				"type": "unocc",
				"energy": -0.02692,
				"method": "rhf"
			},
			{
				"type": "unocc",
				"energy": 0.02936,
				"method": "rhf"
			},
			{
				"type": "unocc",
				"energy": 0.04133,
				"method": "rhf"
			}
		],
		"cosmo_sigma_profile": { 
			"0.0": 0.0,
			"0.0": 0.0,
			"0.0": 0.0,
			"0.0": 0.0,
			"0.0": 0.0,
			"0.0": 0.0,
			"0.0": 0.0,
			"0.0": 0.0,
			"0.0": 0.0,
			"0.0": 0.0,
			"0.0": 0.0,
			"0.0": 0.0,
			"0.0": 0.0,
			"0.0": 0.0,
			"0.0": 0.0,
			"0.0": 0.0,
			"0.0": 0.0,
			"0.0": 0.0,
			"0.0": 0.0,
			"0.0": 0.0,
			"0.0": 0.0,
			"0.0": 0.0,
			"0.0": 0.0,
			"0.0": 0.0,
			"0.0": 0.0,
			"0.0": 0.0,
			"0.0": 0.0,
			"0.0": 0.0,
			"0.0": 0.0,
			"0.0": 0.0,
			"0.0": 0.0,
			"0.0": 0.0,
			"0.0": 0.0,
			"0.0": 0.0,
			"0.0": 0.0,
			"0.0": 0.0,
			"0.0": 0.0,
			"0.0": 0.0,
			"0.0": 0.0,
			"0.0": 0.0,
			"0.0": 0.0,
			"0.0": 0.0,
			"0.0": 0.0,
			"0.0": 0.0,
			"0.0": 0.0,
			"0.0": 0.0,
			"0.0": 0.0,
			"0.0": 0.0,
			"0.0": 0.0,
			"0.0": 0.0,
			"0.0": 0.0
		}
	}
}
