{
	 "smiles": "CC1=CC(C(=O)CCl)=C(C)N1C1=CC=C(OC(F)F)C=C1", 
	 "Tm": 358.15, 
	 "num_atms": 35, 
	 "gaussian": { 
		 "optdone": 1, 
		 "sigma_profile": "yes", 
		 "theory": "DFT", 
		 "functional": "B3LYP", 
		 "basiset": "6-31G**", 
		 "properties": { 
			 "R2extent": 10800.1581, 
			 "electric_dipole_moment_norm": 5.95026564617, 
			 "electric_quadrupole_moment_norm": 12.9559714182, 
			 "total_energy": -1445.10523932, 
			 "HOMO_LUMO_gap": 0.16807, 
			 "cosmo_polarized_energy": -13.33, 
			 "cosmo_cavitation_energy": 42.56, 
			 "cosmo_dispersion_energy": -28.62, 
			 "cosmo_repulsion_energy": 2.19, 
			 "cosmo_total_nonelectrostatic_energy": 16.13, 
			 "SMD_solvation_energy": 8.85 
		},
		"coords": [
			{
				"x": 2.0190527348,
				"y": 0.7028850549,
				"z": 1.9208773288,
				"element": "C" 
			},
			{
				"x": 0.685314712,
				"y": 0.0436114543,
				"z": 1.7817832721,
				"element": "C" 
			},
			{
				"x": -0.2870369635,
				"y": -0.2098740319,
				"z": 2.7099092951,
				"element": "C" 
			},
			{
				"x": -1.3757934433,
				"y": -0.8793833832,
				"z": 2.0522495523,
				"element": "C" 
			},
			{
				"x": -2.6339424831,
				"y": -1.3175257058,
				"z": 2.649743236,
				"element": "C" 
			},
			{
				"x": -3.5534638481,
				"y": -1.8480728345,
				"z": 2.0321036816,
				"element": "O" 
			},
			{
				"x": -2.8474073141,
				"y": -1.0575597203,
				"z": 4.1483295396,
				"element": "C" 
			},
			{
				"x": -1.8065577744,
				"y": -2.1283796546,
				"z": 5.1869763443,
				"element": "Cl" 
			},
			{
				"x": -1.0225415998,
				"y": -1.0167201886,
				"z": 0.7062045395,
				"element": "C" 
			},
			{
				"x": -1.7599104892,
				"y": -1.6291634959,
				"z": -0.4399405778,
				"element": "C" 
			},
			{
				"x": 0.2247431379,
				"y": -0.4550728715,
				"z": 0.5549426556,
				"element": "N" 
			},
			{
				"x": 0.9522853924,
				"y": -0.3888032638,
				"z": -0.676892602,
				"element": "C" 
			},
			{
				"x": 0.814079278,
				"y": 0.7210735493,
				"z": -1.5164259179,
				"element": "C" 
			},
			{
				"x": 1.5259161812,
				"y": 0.7844495681,
				"z": -2.7100347671,
				"element": "C" 
			},
			{
				"x": 2.3783192386,
				"y": -0.2629239481,
				"z": -3.0667146905,
				"element": "C" 
			},
			{
				"x": 3.0309377683,
				"y": -0.0790077278,
				"z": -4.2798793648,
				"element": "O" 
			},
			{
				"x": 3.8984023033,
				"y": -1.0156121209,
				"z": -4.77280594,
				"element": "C" 
			},
			{
				"x": 4.9400845694,
				"y": -1.2317307106,
				"z": -3.9250930595,
				"element": "F" 
			},
			{
				"x": 3.2894441849,
				"y": -2.2173160466,
				"z": -4.9583885612,
				"element": "F" 
			},
			{
				"x": 2.5264379745,
				"y": -1.3779638408,
				"z": -2.2378030682,
				"element": "C" 
			},
			{
				"x": 1.8075498552,
				"y": -1.429951698,
				"z": -1.0433376099,
				"element": "C" 
			},
			{
				"x": 2.1662062749,
				"y": 1.0038594515,
				"z": 2.9605976212,
				"element": "H" 
			},
			{
				"x": 2.8433329074,
				"y": 0.0346418171,
				"z": 1.6447201798,
				"element": "H" 
			},
			{
				"x": 2.1083376685,
				"y": 1.5988728416,
				"z": 1.2949916371,
				"element": "H" 
			},
			{
				"x": -0.2192429988,
				"y": 0.0349515669,
				"z": 3.7600687397,
				"element": "H" 
			},
			{
				"x": -2.6108207791,
				"y": -0.0283911957,
				"z": 4.4249557603,
				"element": "H" 
			},
			{
				"x": -3.8828460927,
				"y": -1.2917439023,
				"z": 4.388197575,
				"element": "H" 
			},
			{
				"x": -1.9233638753,
				"y": -0.9041709206,
				"z": -1.2461722226,
				"element": "H" 
			},
			{
				"x": -1.2031717557,
				"y": -2.4689894042,
				"z": -0.8724954006,
				"element": "H" 
			},
			{
				"x": -2.7242820215,
				"y": -1.9884509506,
				"z": -0.0847889321,
				"element": "H" 
			},
			{
				"x": 0.1483530264,
				"y": 1.5292286617,
				"z": -1.2309599139,
				"element": "H" 
			},
			{
				"x": 1.4331886281,
				"y": 1.6351541903,
				"z": -3.3762712833,
				"element": "H" 
			},
			{
				"x": 4.2742818541,
				"y": -0.643175665,
				"z": -5.7281521834,
				"element": "H" 
			},
			{
				"x": 3.1841178492,
				"y": -2.1922280032,
				"z": -2.5075776632,
				"element": "H" 
			},
			{
				"x": 1.9111958996,
				"y": -2.2889168713,
				"z": -0.3880172001,
				"element": "H" 
			}
		],
		 "valence_orbital": [ 
			{
				"type": "occ",
				"energy": -0.27933,
				"method": "rhf"
			},
			{
				"type": "occ",
				"energy": -0.25802,
				"method": "rhf"
			},
			{
				"type": "occ",
				"energy": -0.24805,
				"method": "rhf"
			},
			{
				"type": "occ",
				"energy": -0.2395,
				"method": "rhf"
			},
			{
				"type": "occ",
				"energy": -0.20935,
				"method": "rhf"
			},
			{
				"type": "unocc",
				"energy": -0.04128,
				"method": "rhf"
			},
			{
				"type": "unocc",
				"energy": -0.03036,
				"method": "rhf"
			},
			{
				"type": "unocc",
				"energy": -0.02475,
				"method": "rhf"
			},
			{
				"type": "unocc",
				"energy": 0.0281,
				"method": "rhf"
			},
			{
				"type": "unocc",
				"energy": 0.04362,
				"method": "rhf"
			}
		],
		"cosmo_sigma_profile": { 
			"-0.025": 0.0,
			"-0.024": 0.0,
			"-0.023": 0.0,
			"-0.022": 0.0,
			"-0.021": 0.0,
			"-0.02": 0.0,
			"-0.019": 0.0,
			"-0.018": 0.0,
			"-0.017": 0.0,
			"-0.016": 0.0,
			"-0.015": 0.0,
			"-0.014": 0.0,
			"-0.013": 0.0,
			"-0.012": 0.00567954382572,
			"-0.011": 2.40283505555,
			"-0.01": 2.69915622149,
			"-0.009": 1.67386898697,
			"-0.008": 4.57204982797,
			"-0.007": 12.0142070886,
			"-0.006": 13.2349658047,
			"-0.005": 16.7730321545,
			"-0.004": 22.1617769825,
			"-0.003": 24.8167464324,
			"-0.002": 25.8801010438,
			"-0.001": 30.0928216334,
			"0.0": 26.015005946,
			"0.001": 27.5707157785,
			"0.002": 30.0083612037,
			"0.003": 36.1000089079,
			"0.004": 18.9551518719,
			"0.005": 14.84331794,
			"0.006": 14.3596538887,
			"0.007": 4.46267557545,
			"0.008": 1.91085494322,
			"0.009": 1.52829405104,
			"0.01": 1.86490077262,
			"0.011": 2.69229968933,
			"0.012": 2.58836019581,
			"0.013": 1.73864139153,
			"0.014": 0.11916902568,
			"0.015": 0.0,
			"0.016": 0.0,
			"0.017": 0.0,
			"0.018": 0.0,
			"0.019": 0.0,
			"0.02": 0.0,
			"0.021": 0.0,
			"0.022": 0.0,
			"0.023": 0.0,
			"0.024": 0.0,
			"0.025": 0.0
		}
	}
}
