{
	 "smiles": "CN(C)C1=NC(Cl)=CC(=C1)C(O)=O", 
	 "Tm": 468.15, 
	 "num_atms": 22, 
	 "gaussian": { 
		 "optdone": 1, 
		 "sigma_profile": "yes", 
		 "theory": "DFT", 
		 "functional": "B3LYP", 
		 "basiset": "6-31G**", 
		 "properties": { 
			 "R2extent": 4802.4189, 
			 "electric_dipole_moment_norm": 3.33808073899, 
			 "electric_quadrupole_moment_norm": 17.2348854905, 
			 "total_energy": -1030.42569005, 
			 "HOMO_LUMO_gap": 0.15462, 
			 "cosmo_polarized_energy": -14.58, 
			 "cosmo_cavitation_energy": 28.03, 
			 "cosmo_dispersion_energy": -20.62, 
			 "cosmo_repulsion_energy": 1.65, 
			 "cosmo_total_nonelectrostatic_energy": 9.05, 
			 "SMD_solvation_energy": 4.8 
		},
		"coords": [
			{
				"x": 2.8150845371,
				"y": 2.2887265813,
				"z": -1.6136511865,
				"element": "C" 
			},
			{
				"x": 2.0327332879,
				"y": 1.1561825141,
				"z": -1.133199261,
				"element": "N" 
			},
			{
				"x": 1.370660301,
				"y": 0.3271837694,
				"z": -2.1279481048,
				"element": "C" 
			},
			{
				"x": 1.7510867753,
				"y": 0.9940155397,
				"z": 0.1961426319,
				"element": "C" 
			},
			{
				"x": 2.3534497028,
				"y": 1.8369056842,
				"z": 1.0665419197,
				"element": "N" 
			},
			{
				"x": 2.1287971231,
				"y": 1.683292933,
				"z": 2.3515427835,
				"element": "C" 
			},
			{
				"x": 2.9720964375,
				"y": 2.8003493812,
				"z": 3.4302190635,
				"element": "Cl" 
			},
			{
				"x": 1.2916119898,
				"y": 0.7265947881,
				"z": 2.9221740849,
				"element": "C" 
			},
			{
				"x": 0.6454554284,
				"y": -0.1346556456,
				"z": 2.022065524,
				"element": "C" 
			},
			{
				"x": 0.8720425567,
				"y": -0.0176490616,
				"z": 0.6572021031,
				"element": "C" 
			},
			{
				"x": -0.300090025,
				"y": -1.2163334616,
				"z": 2.4761913495,
				"element": "C" 
			},
			{
				"x": -0.8702356085,
				"y": -1.0458227182,
				"z": 3.6944405155,
				"element": "O" 
			},
			{
				"x": -0.5581482078,
				"y": -2.1896058166,
				"z": 1.8099762079,
				"element": "O" 
			},
			{
				"x": 3.3320737418,
				"y": 2.7482423374,
				"z": -0.7743547475,
				"element": "H" 
			},
			{
				"x": 3.551045475,
				"y": 1.944877831,
				"z": -2.3481369665,
				"element": "H" 
			},
			{
				"x": 2.1745039363,
				"y": 3.0436399515,
				"z": -2.0903049047,
				"element": "H" 
			},
			{
				"x": 1.5218317894,
				"y": -0.7382135087,
				"z": -1.9235242099,
				"element": "H" 
			},
			{
				"x": 1.8032833071,
				"y": 0.5440315113,
				"z": -3.1057270233,
				"element": "H" 
			},
			{
				"x": 0.289741243,
				"y": 0.5193709032,
				"z": -2.1817363285,
				"element": "H" 
			},
			{
				"x": 1.2048626076,
				"y": 0.6433967742,
				"z": 3.9985695861,
				"element": "H" 
			},
			{
				"x": 0.3673040229,
				"y": -0.7015568264,
				"z": -0.0103425483,
				"element": "H" 
			},
			{
				"x": -0.6773904213,
				"y": -0.1600734607,
				"z": 4.0336595115,
				"element": "H" 
			}
		],
		 "valence_orbital": [ 
			{
				"type": "occ",
				"energy": -0.31202,
				"method": "rhf"
			},
			{
				"type": "occ",
				"energy": -0.28695,
				"method": "rhf"
			},
			{
				"type": "occ",
				"energy": -0.28454,
				"method": "rhf"
			},
			{
				"type": "occ",
				"energy": -0.27845,
				"method": "rhf"
			},
			{
				"type": "occ",
				"energy": -0.21976,
				"method": "rhf"
			},
			{
				"type": "unocc",
				"energy": -0.06514,
				"method": "rhf"
			},
			{
				"type": "unocc",
				"energy": -0.01859,
				"method": "rhf"
			},
			{
				"type": "unocc",
				"energy": 0.02721,
				"method": "rhf"
			},
			{
				"type": "unocc",
				"energy": 0.04002,
				"method": "rhf"
			},
			{
				"type": "unocc",
				"energy": 0.06464,
				"method": "rhf"
			}
		],
		"cosmo_sigma_profile": { 
			"-0.025": 0.0,
			"-0.024": 0.0,
			"-0.023": 0.0,
			"-0.022": 0.0,
			"-0.021": 0.0,
			"-0.02": 0.0,
			"-0.019": 0.354506128996,
			"-0.018": 1.17060679597,
			"-0.017": 0.829776199125,
			"-0.016": 1.33978804006,
			"-0.015": 0.499163572934,
			"-0.014": 1.23272298023,
			"-0.013": 1.22481613194,
			"-0.012": 1.36234454833,
			"-0.011": 0.955552190285,
			"-0.01": 0.892819890101,
			"-0.009": 1.38187300679,
			"-0.008": 2.12586759167,
			"-0.007": 2.53031212849,
			"-0.006": 8.19248116981,
			"-0.005": 13.4035985184,
			"-0.004": 17.6392175187,
			"-0.003": 17.7532594281,
			"-0.002": 21.4589254373,
			"-0.001": 15.7019396472,
			"0.0": 18.9098512019,
			"0.001": 16.9975886754,
			"0.002": 11.2221576819,
			"0.003": 11.7747658956,
			"0.004": 12.1866743218,
			"0.005": 9.68644630337,
			"0.006": 5.20289594046,
			"0.007": 5.09828726698,
			"0.008": 5.11295682863,
			"0.009": 5.31971557294,
			"0.01": 5.77438891453,
			"0.011": 5.20412182531,
			"0.012": 2.83824565622,
			"0.013": 0.36431766151,
			"0.014": 0.0,
			"0.015": 0.0,
			"0.016": 0.0,
			"0.017": 0.0,
			"0.018": 0.0,
			"0.019": 0.0,
			"0.02": 0.0,
			"0.021": 0.0,
			"0.022": 0.0,
			"0.023": 0.0,
			"0.024": 0.0,
			"0.025": 0.0
		}
	}
}
