{
	 "smiles": "COC(=O)C1=NN(C(=C1)C(O)=O)C1=CC=CC=C1", 
	 "Tm": 435.15, 
	 "num_atms": 28, 
	 "gaussian": { 
		 "optdone": 1, 
		 "sigma_profile": "yes", 
		 "theory": "DFT", 
		 "functional": "B3LYP", 
		 "basiset": "6-31G**", 
		 "properties": { 
			 "R2extent": 5934.1463, 
			 "electric_dipole_moment_norm": 3.07924804457, 
			 "electric_quadrupole_moment_norm": 28.9564172325, 
			 "total_energy": -873.688376687, 
			 "HOMO_LUMO_gap": 0.19765, 
			 "cosmo_polarized_energy": -18.94, 
			 "cosmo_cavitation_energy": 34.06, 
			 "cosmo_dispersion_energy": -24.23, 
			 "cosmo_repulsion_energy": 1.88, 
			 "cosmo_total_nonelectrostatic_energy": 11.7, 
			 "SMD_solvation_energy": 7.8 
		},
		"coords": [
			{
				"x": 4.4699471801,
				"y": 0.0502691705,
				"z": -3.4081027528,
				"element": "C" 
			},
			{
				"x": 3.0695160877,
				"y": 0.1084667989,
				"z": -3.094423884,
				"element": "O" 
			},
			{
				"x": 2.7147292339,
				"y": -0.5060128749,
				"z": -1.9418226952,
				"element": "C" 
			},
			{
				"x": 3.491680228,
				"y": -1.0725471144,
				"z": -1.2058399044,
				"element": "O" 
			},
			{
				"x": 1.2525372235,
				"y": -0.3826822795,
				"z": -1.7248809919,
				"element": "C" 
			},
			{
				"x": 0.7015744694,
				"y": -0.8992230966,
				"z": -0.6192845916,
				"element": "N" 
			},
			{
				"x": -0.6102126319,
				"y": -0.6328762059,
				"z": -0.7189677876,
				"element": "N" 
			},
			{
				"x": -0.9166621535,
				"y": 0.0510879945,
				"z": -1.8862628463,
				"element": "C" 
			},
			{
				"x": 0.28530266,
				"y": 0.2312523425,
				"z": -2.5452526865,
				"element": "C" 
			},
			{
				"x": -2.244129913,
				"y": 0.4346206581,
				"z": -2.4429535736,
				"element": "C" 
			},
			{
				"x": -3.361876701,
				"y": -0.1109142806,
				"z": -1.909790425,
				"element": "O" 
			},
			{
				"x": -2.3220612683,
				"y": 1.1893020256,
				"z": -3.3834359664,
				"element": "O" 
			},
			{
				"x": -1.4583168918,
				"y": -1.0268834056,
				"z": 0.363590533,
				"element": "C" 
			},
			{
				"x": -1.3572480764,
				"y": -2.3321772751,
				"z": 0.857162835,
				"element": "C" 
			},
			{
				"x": -2.1581422606,
				"y": -2.7190032245,
				"z": 1.9292066046,
				"element": "C" 
			},
			{
				"x": -3.0587893226,
				"y": -1.815697677,
				"z": 2.5008457366,
				"element": "C" 
			},
			{
				"x": -3.1473828654,
				"y": -0.5133563804,
				"z": 2.0079480904,
				"element": "C" 
			},
			{
				"x": -2.3385895514,
				"y": -0.1063453406,
				"z": 0.9448878486,
				"element": "C" 
			},
			{
				"x": 5.0599491835,
				"y": 0.5291830288,
				"z": -2.6226259813,
				"element": "H" 
			},
			{
				"x": 4.7981633895,
				"y": -0.9871057245,
				"z": -3.5114018552,
				"element": "H" 
			},
			{
				"x": 4.5821321355,
				"y": 0.5839616511,
				"z": -4.3515742938,
				"element": "H" 
			},
			{
				"x": 0.4207670133,
				"y": 0.7164682587,
				"z": -3.498056279,
				"element": "H" 
			},
			{
				"x": -3.1590426607,
				"y": -0.700907414,
				"z": -1.1670517534,
				"element": "H" 
			},
			{
				"x": -0.6479185982,
				"y": -3.0151814079,
				"z": 0.4041079945,
				"element": "H" 
			},
			{
				"x": -2.0817176099,
				"y": -3.7305911808,
				"z": 2.3154567922,
				"element": "H" 
			},
			{
				"x": -3.6843749546,
				"y": -2.1249045245,
				"z": 3.3323923801,
				"element": "H" 
			},
			{
				"x": -3.8324524555,
				"y": 0.197634297,
				"z": 2.4587411295,
				"element": "H" 
			},
			{
				"x": -2.3746808894,
				"y": 0.9158631813,
				"z": 0.5833883236,
				"element": "H" 
			}
		],
		 "valence_orbital": [ 
			{
				"type": "occ",
				"energy": -0.2839,
				"method": "rhf"
			},
			{
				"type": "occ",
				"energy": -0.28349,
				"method": "rhf"
			},
			{
				"type": "occ",
				"energy": -0.27659,
				"method": "rhf"
			},
			{
				"type": "occ",
				"energy": -0.27173,
				"method": "rhf"
			},
			{
				"type": "occ",
				"energy": -0.26201,
				"method": "rhf"
			},
			{
				"type": "unocc",
				"energy": -0.06436,
				"method": "rhf"
			},
			{
				"type": "unocc",
				"energy": -0.03549,
				"method": "rhf"
			},
			{
				"type": "unocc",
				"energy": -0.03257,
				"method": "rhf"
			},
			{
				"type": "unocc",
				"energy": -0.02566,
				"method": "rhf"
			},
			{
				"type": "unocc",
				"energy": 0.06843,
				"method": "rhf"
			}
		],
		"cosmo_sigma_profile": { 
			"-0.025": 0.0,
			"-0.024": 0.0,
			"-0.023": 0.0,
			"-0.022": 0.0,
			"-0.021": 0.0,
			"-0.02": 0.0,
			"-0.019": 0.0,
			"-0.018": 0.0,
			"-0.017": 0.0,
			"-0.016": 0.0,
			"-0.015": 0.179405938567,
			"-0.014": 1.17021041544,
			"-0.013": 0.714520549863,
			"-0.012": 1.06553568164,
			"-0.011": 0.92860025146,
			"-0.01": 0.895959260577,
			"-0.009": 2.83941357055,
			"-0.008": 4.62788051141,
			"-0.007": 12.9430808241,
			"-0.006": 19.378285077,
			"-0.005": 21.2197994335,
			"-0.004": 21.7632015899,
			"-0.003": 21.3210732935,
			"-0.002": 17.8060155885,
			"-0.001": 17.3098096625,
			"0.0": 18.0290096585,
			"0.001": 17.1872031406,
			"0.002": 15.5379620828,
			"0.003": 14.790399129,
			"0.004": 7.43013579875,
			"0.005": 5.96671313187,
			"0.006": 5.87109310925,
			"0.007": 3.78526255567,
			"0.008": 6.1206329276,
			"0.009": 6.44286069071,
			"0.01": 7.80056733513,
			"0.011": 10.781019599,
			"0.012": 6.12865179658,
			"0.013": 3.12408891375,
			"0.014": 0.489575228383,
			"0.015": 0.0,
			"0.016": 0.0,
			"0.017": 0.0,
			"0.018": 0.0,
			"0.019": 0.0,
			"0.02": 0.0,
			"0.021": 0.0,
			"0.022": 0.0,
			"0.023": 0.0,
			"0.024": 0.0,
			"0.025": 0.0
		}
	}
}
