{
	 "smiles": "NC(=O)CC1=CC=C(N)C=C1", 
	 "Tm": 431.15, 
	 "num_atms": 21, 
	 "gaussian": { 
		 "optdone": 1, 
		 "sigma_profile": "yes", 
		 "theory": "DFT", 
		 "functional": "B3LYP", 
		 "basiset": "6-31G**", 
		 "properties": { 
			 "R2extent": 2347.0747, 
			 "electric_dipole_moment_norm": 5.6370352243, 
			 "electric_quadrupole_moment_norm": 9.91475883721, 
			 "total_energy": -495.629211961, 
			 "HOMO_LUMO_gap": 0.19744, 
			 "cosmo_polarized_energy": -16.75, 
			 "cosmo_cavitation_energy": 24.99, 
			 "cosmo_dispersion_energy": -18.13, 
			 "cosmo_repulsion_energy": 1.49, 
			 "cosmo_total_nonelectrostatic_energy": 8.35, 
			 "SMD_solvation_energy": 4.96 
		},
		"coords": [
			{
				"x": -1.0354581947,
				"y": 0.5082972299,
				"z": -1.9335548974,
				"element": "N" 
			},
			{
				"x": -0.2817509459,
				"y": 1.6435020765,
				"z": -1.9587869536,
				"element": "C" 
			},
			{
				"x": -0.2016499322,
				"y": 2.3667670277,
				"z": -2.9410928595,
				"element": "O" 
			},
			{
				"x": 0.495113802,
				"y": 1.9712662381,
				"z": -0.6686070258,
				"element": "C" 
			},
			{
				"x": 0.2723336909,
				"y": 1.0824329266,
				"z": 0.5325042507,
				"element": "C" 
			},
			{
				"x": 1.0664814978,
				"y": -0.0515297127,
				"z": 0.76041056,
				"element": "C" 
			},
			{
				"x": 0.8523347653,
				"y": -0.8868264384,
				"z": 1.8535246572,
				"element": "C" 
			},
			{
				"x": -0.1762239177,
				"y": -0.6136713093,
				"z": 2.7718999705,
				"element": "C" 
			},
			{
				"x": -0.3563800147,
				"y": -1.4092642492,
				"z": 3.9033334049,
				"element": "N" 
			},
			{
				"x": -0.9787135753,
				"y": 0.5195927506,
				"z": 2.5514022946,
				"element": "C" 
			},
			{
				"x": -0.7530027523,
				"y": 1.3450850098,
				"z": 1.4537962051,
				"element": "C" 
			},
			{
				"x": -1.1121009462,
				"y": -0.0581576853,
				"z": -1.1044294497,
				"element": "H" 
			},
			{
				"x": -1.5634869026,
				"y": 0.2713117885,
				"z": -2.758909917,
				"element": "H" 
			},
			{
				"x": 0.247235924,
				"y": 3.0124426558,
				"z": -0.4367513944,
				"element": "H" 
			},
			{
				"x": 1.5523044716,
				"y": 1.9748722048,
				"z": -0.9572424472,
				"element": "H" 
			},
			{
				"x": 1.873224132,
				"y": -0.2848622302,
				"z": 0.0692597681,
				"element": "H" 
			},
			{
				"x": 1.4925619779,
				"y": -1.7521406216,
				"z": 2.0078193144,
				"element": "H" 
			},
			{
				"x": -0.0057389863,
				"y": -2.354095262,
				"z": 3.8303209079,
				"element": "H" 
			},
			{
				"x": -1.2786086839,
				"y": -1.3765343646,
				"z": 4.314932755,
				"element": "H" 
			},
			{
				"x": -1.7749040041,
				"y": 0.7567349659,
				"z": 3.2530596458,
				"element": "H" 
			},
			{
				"x": -1.3873714055,
				"y": 2.2168769993,
				"z": 1.3108112106,
				"element": "H" 
			}
		],
		 "valence_orbital": [ 
			{
				"type": "occ",
				"energy": -0.31147,
				"method": "rhf"
			},
			{
				"type": "occ",
				"energy": -0.25797,
				"method": "rhf"
			},
			{
				"type": "occ",
				"energy": -0.25181,
				"method": "rhf"
			},
			{
				"type": "occ",
				"energy": -0.24003,
				"method": "rhf"
			},
			{
				"type": "occ",
				"energy": -0.20322,
				"method": "rhf"
			},
			{
				"type": "unocc",
				"energy": -0.00578,
				"method": "rhf"
			},
			{
				"type": "unocc",
				"energy": 0.00791,
				"method": "rhf"
			},
			{
				"type": "unocc",
				"energy": 0.04427,
				"method": "rhf"
			},
			{
				"type": "unocc",
				"energy": 0.07482,
				"method": "rhf"
			},
			{
				"type": "unocc",
				"energy": 0.09307,
				"method": "rhf"
			}
		],
		"cosmo_sigma_profile": { 
			"-0.025": 0.0,
			"-0.024": 0.0,
			"-0.023": 0.0,
			"-0.022": 0.0,
			"-0.021": 0.0,
			"-0.02": 0.0,
			"-0.019": 0.0,
			"-0.018": 0.0,
			"-0.017": 0.0,
			"-0.016": 0.0,
			"-0.015": 0.0,
			"-0.014": 0.381266930721,
			"-0.013": 1.60871198358,
			"-0.012": 3.94612969024,
			"-0.011": 4.37642123657,
			"-0.01": 4.67796030545,
			"-0.009": 4.56692193423,
			"-0.008": 4.75836900517,
			"-0.007": 4.32085145673,
			"-0.006": 6.87224946367,
			"-0.005": 17.1762468545,
			"-0.004": 14.4428505764,
			"-0.003": 12.8811118695,
			"-0.002": 10.6547517882,
			"-0.001": 11.6519624911,
			"0.0": 10.0986683249,
			"0.001": 8.27077018824,
			"0.002": 9.37778572612,
			"0.003": 10.00178541,
			"0.004": 9.07981155619,
			"0.005": 10.6242481336,
			"0.006": 8.35916247632,
			"0.007": 4.62719437966,
			"0.008": 2.29886733006,
			"0.009": 2.20589360885,
			"0.01": 1.87088585115,
			"0.011": 1.92264670425,
			"0.012": 2.17633239115,
			"0.013": 2.72594644121,
			"0.014": 6.4111802912,
			"0.015": 4.23427197933,
			"0.016": 0.499054814688,
			"0.017": 0.0,
			"0.018": 0.0,
			"0.019": 0.0,
			"0.02": 0.0,
			"0.021": 0.0,
			"0.022": 0.0,
			"0.023": 0.0,
			"0.024": 0.0,
			"0.025": 0.0
		}
	}
}
