{
	 "smiles": "OC(=O)C1=C(C(O)=O)C(=CC=C1)[N+]([O-])=O", 
	 "Tm": 484.15, 
	 "num_atms": 20, 
	 "gaussian": { 
		 "optdone": 1, 
		 "sigma_profile": "yes", 
		 "theory": "DFT", 
		 "functional": "B3LYP", 
		 "basiset": "6-31G**", 
		 "properties": { 
			 "R2extent": 3653.1008, 
			 "electric_dipole_moment_norm": 8.54558165194, 
			 "electric_quadrupole_moment_norm": 16.2883385743, 
			 "total_energy": -813.865462025, 
			 "HOMO_LUMO_gap": 0.17826, 
			 "cosmo_polarized_energy": -21.04, 
			 "cosmo_cavitation_energy": 26.13, 
			 "cosmo_dispersion_energy": -19.09, 
			 "cosmo_repulsion_energy": 1.48, 
			 "cosmo_total_nonelectrostatic_energy": 8.52, 
			 "SMD_solvation_energy": 8.96 
		},
		"coords": [
			{
				"x": 0.1524262181,
				"y": -1.874940462,
				"z": -2.2715267282,
				"element": "O" 
			},
			{
				"x": 1.0165089972,
				"y": -0.9203911127,
				"z": -1.889796112,
				"element": "C" 
			},
			{
				"x": 1.7856912288,
				"y": -0.4042550587,
				"z": -2.6877051877,
				"element": "O" 
			},
			{
				"x": 0.9736032419,
				"y": -0.6365946262,
				"z": -0.4269660651,
				"element": "C" 
			},
			{
				"x": 1.3910679781,
				"y": 0.6038930659,
				"z": 0.1083207685,
				"element": "C" 
			},
			{
				"x": 1.5209487209,
				"y": 1.9104558736,
				"z": -0.6846815794,
				"element": "C" 
			},
			{
				"x": 2.35823384,
				"y": 1.9606385535,
				"z": -1.7163616111,
				"element": "O" 
			},
			{
				"x": 0.8530776091,
				"y": 2.854672627,
				"z": -0.3362655835,
				"element": "O" 
			},
			{
				"x": 1.4428980642,
				"y": 0.6929665665,
				"z": 1.5079826256,
				"element": "C" 
			},
			{
				"x": 1.064342495,
				"y": -0.3422210171,
				"z": 2.3538278541,
				"element": "C" 
			},
			{
				"x": 0.6194036435,
				"y": -1.5418808723,
				"z": 1.8037200923,
				"element": "C" 
			},
			{
				"x": 0.580044341,
				"y": -1.6861763574,
				"z": 0.4228701402,
				"element": "C" 
			},
			{
				"x": 1.9928910628,
				"y": 1.9002575038,
				"z": 2.1633312585,
				"element": "N" 
			},
			{
				"x": 1.510602363,
				"y": 2.2144301476,
				"z": 3.2477898444,
				"element": "O" 
			},
			{
				"x": 2.9330689447,
				"y": 2.457260673,
				"z": 1.6071346602,
				"element": "O" 
			},
			{
				"x": 0.3037434291,
				"y": -2.0250232138,
				"z": -3.220541501,
				"element": "H" 
			},
			{
				"x": 2.5399602415,
				"y": 1.0562509787,
				"z": -2.0508474619,
				"element": "H" 
			},
			{
				"x": 1.1237404601,
				"y": -0.1900774782,
				"z": 3.4248806679,
				"element": "H" 
			},
			{
				"x": 0.3186362941,
				"y": -2.3599812783,
				"z": 2.4492903138,
				"element": "H" 
			},
			{
				"x": 0.2499108269,
				"y": -2.618384513,
				"z": -0.0194563958,
				"element": "H" 
			}
		],
		 "valence_orbital": [ 
			{
				"type": "occ",
				"energy": -0.31515,
				"method": "rhf"
			},
			{
				"type": "occ",
				"energy": -0.3097,
				"method": "rhf"
			},
			{
				"type": "occ",
				"energy": -0.30387,
				"method": "rhf"
			},
			{
				"type": "occ",
				"energy": -0.29214,
				"method": "rhf"
			},
			{
				"type": "occ",
				"energy": -0.27556,
				"method": "rhf"
			},
			{
				"type": "unocc",
				"energy": -0.0973,
				"method": "rhf"
			},
			{
				"type": "unocc",
				"energy": -0.09179,
				"method": "rhf"
			},
			{
				"type": "unocc",
				"energy": -0.04209,
				"method": "rhf"
			},
			{
				"type": "unocc",
				"energy": 0.00584,
				"method": "rhf"
			},
			{
				"type": "unocc",
				"energy": 0.01403,
				"method": "rhf"
			}
		],
		"cosmo_sigma_profile": { 
			"-0.025": 0.0,
			"-0.024": 0.0,
			"-0.023": 0.0,
			"-0.022": 0.0,
			"-0.021": 0.0,
			"-0.02": 0.445220172941,
			"-0.019": 1.00067467628,
			"-0.018": 0.828087794622,
			"-0.017": 1.10206872507,
			"-0.016": 0.753540895774,
			"-0.015": 0.777932534245,
			"-0.014": 0.437880136362,
			"-0.013": 0.781295540569,
			"-0.012": 0.645840146293,
			"-0.011": 0.992688736447,
			"-0.01": 2.34567020087,
			"-0.009": 6.28953739864,
			"-0.008": 9.99995927097,
			"-0.007": 9.4340664431,
			"-0.006": 9.93687999853,
			"-0.005": 9.71709418585,
			"-0.004": 9.46722181475,
			"-0.003": 10.9894775376,
			"-0.002": 14.2685132054,
			"-0.001": 15.5941485757,
			"0.0": 11.8494797669,
			"0.001": 7.65501656022,
			"0.002": 6.3402863908,
			"0.003": 6.57059385376,
			"0.004": 6.55474915416,
			"0.005": 9.34419691267,
			"0.006": 12.3118807209,
			"0.007": 14.8683138635,
			"0.008": 8.95687147119,
			"0.009": 7.75037763735,
			"0.01": 6.42523623148,
			"0.011": 4.11040442851,
			"0.012": 1.74828983769,
			"0.013": 0.101780178916,
			"0.014": 0.0,
			"0.015": 0.0,
			"0.016": 0.0,
			"0.017": 0.0,
			"0.018": 0.0,
			"0.019": 0.0,
			"0.02": 0.0,
			"0.021": 0.0,
			"0.022": 0.0,
			"0.023": 0.0,
			"0.024": 0.0,
			"0.025": 0.0
		}
	}
}
