{
	 "smiles": "FC1=CC=C(C=C1)C1=CN=C(CBr)O1", 
	 "Tm": 308.65, 
	 "num_atms": 21, 
	 "gaussian": { 
		 "optdone": 1, 
		 "sigma_profile": "yes", 
		 "theory": "DFT", 
		 "functional": "B3LYP", 
		 "basiset": "6-31G**", 
		 "properties": { 
			 "R2extent": 6322.0965, 
			 "electric_dipole_moment_norm": 2.00868123155, 
			 "electric_quadrupole_moment_norm": 13.8605739246, 
			 "total_energy": -3186.490084, 
			 "HOMO_LUMO_gap": 0.16382, 
			 "cosmo_polarized_energy": -9.12, 
			 "cosmo_cavitation_energy": 29.25, 
			 "cosmo_dispersion_energy": -21.46, 
			 "cosmo_repulsion_energy": 1.67, 
			 "cosmo_total_nonelectrostatic_energy": 9.45, 
			 "SMD_solvation_energy": 2.81 
		},
		"coords": [
			{
				"x": -2.3176743717,
				"y": 4.3472818013,
				"z": 1.9973202298,
				"element": "F" 
			},
			{
				"x": -2.0466431985,
				"y": 3.1528332022,
				"z": 1.436210084,
				"element": "C" 
			},
			{
				"x": -2.9207177433,
				"y": 2.0915162692,
				"z": 1.6532298997,
				"element": "C" 
			},
			{
				"x": -2.6368009304,
				"y": 0.8598081366,
				"z": 1.0736705857,
				"element": "C" 
			},
			{
				"x": -1.4888890152,
				"y": 0.6835753044,
				"z": 0.2790863212,
				"element": "C" 
			},
			{
				"x": -0.6279751094,
				"y": 1.777652757,
				"z": 0.080301446,
				"element": "C" 
			},
			{
				"x": -0.9029199242,
				"y": 3.0141226445,
				"z": 0.657832263,
				"element": "C" 
			},
			{
				"x": -1.2063462713,
				"y": -0.6098225432,
				"z": -0.3247685168,
				"element": "C" 
			},
			{
				"x": -1.8454258224,
				"y": -1.8210403564,
				"z": -0.3718444303,
				"element": "C" 
			},
			{
				"x": -1.0980689389,
				"y": -2.7177898513,
				"z": -1.1085636226,
				"element": "N" 
			},
			{
				"x": -0.0475918135,
				"y": -2.0440990656,
				"z": -1.4773942198,
				"element": "C" 
			},
			{
				"x": 1.0855282109,
				"y": -2.5122725872,
				"z": -2.2913211385,
				"element": "C" 
			},
			{
				"x": 0.9876917701,
				"y": -1.8477784697,
				"z": -4.1784434405,
				"element": "Br" 
			},
			{
				"x": -0.040681546,
				"y": -0.7546068106,
				"z": -1.0383537338,
				"element": "O" 
			},
			{
				"x": -3.8018467044,
				"y": 2.2397542768,
				"z": 2.2676937825,
				"element": "H" 
			},
			{
				"x": -3.312642687,
				"y": 0.0274877424,
				"z": 1.2428119782,
				"element": "H" 
			},
			{
				"x": 0.2578872735,
				"y": 1.6550900231,
				"z": -0.5326093585,
				"element": "H" 
			},
			{
				"x": -0.2475530793,
				"y": 3.8656644053,
				"z": 0.511428086,
				"element": "H" 
			},
			{
				"x": -2.7886642456,
				"y": -2.104469256,
				"z": 0.07108637,
				"element": "H" 
			},
			{
				"x": 2.0428081684,
				"y": -2.1487715639,
				"z": -1.9234553542,
				"element": "H" 
			},
			{
				"x": 1.070025978,
				"y": -3.5963360589,
				"z": -2.3588172311,
				"element": "H" 
			}
		],
		 "valence_orbital": [ 
			{
				"type": "occ",
				"energy": -0.29269,
				"method": "rhf"
			},
			{
				"type": "occ",
				"energy": -0.28022,
				"method": "rhf"
			},
			{
				"type": "occ",
				"energy": -0.27813,
				"method": "rhf"
			},
			{
				"type": "occ",
				"energy": -0.27413,
				"method": "rhf"
			},
			{
				"type": "occ",
				"energy": -0.22365,
				"method": "rhf"
			},
			{
				"type": "unocc",
				"energy": -0.05983,
				"method": "rhf"
			},
			{
				"type": "unocc",
				"energy": -0.02526,
				"method": "rhf"
			},
			{
				"type": "unocc",
				"energy": -0.01979,
				"method": "rhf"
			},
			{
				"type": "unocc",
				"energy": 0.04109,
				"method": "rhf"
			},
			{
				"type": "unocc",
				"energy": 0.06866,
				"method": "rhf"
			}
		],
		"cosmo_sigma_profile": { 
			"-0.025": 0.0,
			"-0.024": 0.0,
			"-0.023": 0.0,
			"-0.022": 0.0,
			"-0.021": 0.0,
			"-0.02": 0.0,
			"-0.019": 0.0,
			"-0.018": 0.0,
			"-0.017": 0.0,
			"-0.016": 0.0,
			"-0.015": 0.0,
			"-0.014": 0.0,
			"-0.013": 0.0,
			"-0.012": 0.0,
			"-0.011": 0.0,
			"-0.01": 0.81277156216,
			"-0.009": 5.19871796898,
			"-0.008": 7.80506709285,
			"-0.007": 11.1665987759,
			"-0.006": 12.4166321952,
			"-0.005": 12.1465012322,
			"-0.004": 9.03338340527,
			"-0.003": 11.1913245971,
			"-0.002": 10.4188185296,
			"-0.001": 15.9691039474,
			"0.0": 21.1871421525,
			"0.001": 24.1273023708,
			"0.002": 23.1136599841,
			"0.003": 24.8473955575,
			"0.004": 19.7990938084,
			"0.005": 12.8028650317,
			"0.006": 8.21260745111,
			"0.007": 1.11444739222,
			"0.008": 0.984457040601,
			"0.009": 0.929038478851,
			"0.01": 1.28478781757,
			"0.011": 1.10037396965,
			"0.012": 0.922009030943,
			"0.013": 0.623282469789,
			"0.014": 1.2975883965,
			"0.015": 0.597751377592,
			"0.016": 0.0572362624136,
			"0.017": 0.0,
			"0.018": 0.0,
			"0.019": 0.0,
			"0.02": 0.0,
			"0.021": 0.0,
			"0.022": 0.0,
			"0.023": 0.0,
			"0.024": 0.0,
			"0.025": 0.0
		}
	}
}
