{
	 "smiles": "COC1=CC=C(C(O)=O)C(OC)=C1", 
	 "Tm": 382.15, 
	 "num_atms": 23, 
	 "gaussian": { 
		 "optdone": 1, 
		 "sigma_profile": "yes", 
		 "theory": "DFT", 
		 "functional": "B3LYP", 
		 "basiset": "6-31G**", 
		 "properties": { 
			 "R2extent": 3391.2226, 
			 "electric_dipole_moment_norm": 8.23904927707, 
			 "electric_quadrupole_moment_norm": 15.9964887228, 
			 "total_energy": -649.871176824, 
			 "HOMO_LUMO_gap": 0.19679, 
			 "cosmo_polarized_energy": -17.08, 
			 "cosmo_cavitation_energy": 26.88, 
			 "cosmo_dispersion_energy": -19.86, 
			 "cosmo_repulsion_energy": 1.56, 
			 "cosmo_total_nonelectrostatic_energy": 8.58, 
			 "SMD_solvation_energy": 7.37 
		},
		"coords": [
			{
				"x": 3.8052743731,
				"y": -1.6384022464,
				"z": 0.0859448732,
				"element": "C" 
			},
			{
				"x": 3.8107436059,
				"y": -0.2230889466,
				"z": -0.0289379645,
				"element": "O" 
			},
			{
				"x": 2.6488174644,
				"y": 0.4180107259,
				"z": -0.3198774334,
				"element": "C" 
			},
			{
				"x": 2.7269150959,
				"y": 1.8147912904,
				"z": -0.4176515971,
				"element": "C" 
			},
			{
				"x": 1.583875519,
				"y": 2.5362774811,
				"z": -0.711505936,
				"element": "C" 
			},
			{
				"x": 0.3373165103,
				"y": 1.9223688109,
				"z": -0.9178296862,
				"element": "C" 
			},
			{
				"x": -0.8133633823,
				"y": 2.8381281224,
				"z": -1.2297070769,
				"element": "C" 
			},
			{
				"x": -2.0268375053,
				"y": 2.2857417645,
				"z": -1.433899177,
				"element": "O" 
			},
			{
				"x": -0.6710299326,
				"y": 4.0409291854,
				"z": -1.299341196,
				"element": "O" 
			},
			{
				"x": 0.2829735807,
				"y": 0.5170773984,
				"z": -0.8143913922,
				"element": "C" 
			},
			{
				"x": -0.9406307039,
				"y": -0.0780301818,
				"z": -1.0172172157,
				"element": "O" 
			},
			{
				"x": -1.0704488764,
				"y": -1.4933595928,
				"z": -0.9312503743,
				"element": "C" 
			},
			{
				"x": 1.4252079112,
				"y": -0.2351712131,
				"z": -0.5180778514,
				"element": "C" 
			},
			{
				"x": 4.8313659266,
				"y": -1.9241122785,
				"z": 0.3206696718,
				"element": "H" 
			},
			{
				"x": 3.1438177915,
				"y": -1.9754644017,
				"z": 0.8941267703,
				"element": "H" 
			},
			{
				"x": 3.5038041761,
				"y": -2.1186533188,
				"z": -0.8536236655,
				"element": "H" 
			},
			{
				"x": 3.6838803386,
				"y": 2.2992148318,
				"z": -0.2603410134,
				"element": "H" 
			},
			{
				"x": 1.6135698073,
				"y": 3.6171745919,
				"z": -0.7935993987,
				"element": "H" 
			},
			{
				"x": -1.9635735541,
				"y": 1.3178761259,
				"z": -1.3414271108,
				"element": "H" 
			},
			{
				"x": -2.1203988419,
				"y": -1.708821047,
				"z": -1.1311961845,
				"element": "H" 
			},
			{
				"x": -0.8089337079,
				"y": -1.8546827222,
				"z": 0.0696406591,
				"element": "H" 
			},
			{
				"x": -0.4470620323,
				"y": -1.9941066365,
				"z": -1.6804736385,
				"element": "H" 
			},
			{
				"x": 1.362816436,
				"y": -1.3107977435,
				"z": -0.4430340622,
				"element": "H" 
			}
		],
		 "valence_orbital": [ 
			{
				"type": "occ",
				"energy": -0.31807,
				"method": "rhf"
			},
			{
				"type": "occ",
				"energy": -0.28864,
				"method": "rhf"
			},
			{
				"type": "occ",
				"energy": -0.25555,
				"method": "rhf"
			},
			{
				"type": "occ",
				"energy": -0.25446,
				"method": "rhf"
			},
			{
				"type": "occ",
				"energy": -0.22861,
				"method": "rhf"
			},
			{
				"type": "unocc",
				"energy": -0.03182,
				"method": "rhf"
			},
			{
				"type": "unocc",
				"energy": -0.00579,
				"method": "rhf"
			},
			{
				"type": "unocc",
				"energy": 0.06747,
				"method": "rhf"
			},
			{
				"type": "unocc",
				"energy": 0.07058,
				"method": "rhf"
			},
			{
				"type": "unocc",
				"energy": 0.07712,
				"method": "rhf"
			}
		],
		"cosmo_sigma_profile": { 
			"-0.025": 0.0,
			"-0.024": 0.0,
			"-0.023": 0.0,
			"-0.022": 0.0,
			"-0.021": 0.0,
			"-0.02": 0.0,
			"-0.019": 0.0,
			"-0.018": 0.0,
			"-0.017": 0.0,
			"-0.016": 0.0,
			"-0.015": 0.0,
			"-0.014": 0.0,
			"-0.013": 0.0,
			"-0.012": 0.0,
			"-0.011": 0.0,
			"-0.01": 0.100317443072,
			"-0.009": 0.878066449115,
			"-0.008": 2.63370104715,
			"-0.007": 8.83535293707,
			"-0.006": 20.8002899265,
			"-0.005": 20.4493415377,
			"-0.004": 24.1499401179,
			"-0.003": 15.1580445376,
			"-0.002": 10.2275384162,
			"-0.001": 11.0157410605,
			"0.0": 11.9469025798,
			"0.001": 10.367409286,
			"0.002": 15.8434848612,
			"0.003": 13.973923281,
			"0.004": 9.01225316531,
			"0.005": 3.38373644567,
			"0.006": 3.46289927089,
			"0.007": 4.09197557784,
			"0.008": 3.18266722501,
			"0.009": 4.77820824576,
			"0.01": 3.27663267118,
			"0.011": 4.5239985243,
			"0.012": 6.10836182981,
			"0.013": 4.32132417825,
			"0.014": 1.60485880003,
			"0.015": 0.0883549679889,
			"0.016": 0.0,
			"0.017": 0.0,
			"0.018": 0.0,
			"0.019": 0.0,
			"0.02": 0.0,
			"0.021": 0.0,
			"0.022": 0.0,
			"0.023": 0.0,
			"0.024": 0.0,
			"0.025": 0.0
		}
	}
}
