{
	 "smiles": "CCCCCCCCCCS(Cl)(=O)=O", 
	 "Tm": 307.15, 
	 "num_atms": 35, 
	 "gaussian": { 
		 "optdone": 1, 
		 "sigma_profile": "yes", 
		 "theory": "DFT", 
		 "functional": "B3LYP", 
		 "basiset": "6-31G**", 
		 "properties": { 
			 "R2extent": 8657.9042, 
			 "electric_dipole_moment_norm": 4.83891255656, 
			 "electric_quadrupole_moment_norm": 22.1919389613, 
			 "total_energy": -1402.51659893, 
			 "HOMO_LUMO_gap": 0.2287, 
			 "cosmo_polarized_energy": -9.75, 
			 "cosmo_cavitation_energy": 39.7, 
			 "cosmo_dispersion_energy": -27.68, 
			 "cosmo_repulsion_energy": 2.24, 
			 "cosmo_total_nonelectrostatic_energy": 14.26, 
			 "SMD_solvation_energy": 4.2 
		},
		"coords": [
			{
				"x": 1.578755158,
				"y": 5.168645829,
				"z": -0.3225741391,
				"element": "C" 
			},
			{
				"x": 2.0958232108,
				"y": 4.2687959742,
				"z": -1.4515675718,
				"element": "C" 
			},
			{
				"x": 1.666809082,
				"y": 2.7960347169,
				"z": -1.3396335432,
				"element": "C" 
			},
			{
				"x": 2.2569565443,
				"y": 2.0549608114,
				"z": -0.1298769323,
				"element": "C" 
			},
			{
				"x": 1.9536146476,
				"y": 0.547632523,
				"z": -0.0941675875,
				"element": "C" 
			},
			{
				"x": 0.4728944992,
				"y": 0.1954457671,
				"z": 0.1117950397,
				"element": "C" 
			},
			{
				"x": 0.2291783652,
				"y": -1.3175890993,
				"z": 0.2057260093,
				"element": "C" 
			},
			{
				"x": -1.2221595613,
				"y": -1.7190485327,
				"z": 0.5211125853,
				"element": "C" 
			},
			{
				"x": -2.2829338729,
				"y": -1.2977600011,
				"z": -0.5146323885,
				"element": "C" 
			},
			{
				"x": -2.0563533607,
				"y": -1.9696350798,
				"z": -1.8733396581,
				"element": "C" 
			},
			{
				"x": -3.3660291775,
				"y": -1.4896022564,
				"z": -3.0383101466,
				"element": "S" 
			},
			{
				"x": -2.7258486309,
				"y": -2.5947291078,
				"z": -4.7554167969,
				"element": "Cl" 
			},
			{
				"x": -4.6389785492,
				"y": -2.0615742199,
				"z": -2.6150681763,
				"element": "O" 
			},
			{
				"x": -3.2346372812,
				"y": -0.0752531396,
				"z": -3.3692678001,
				"element": "O" 
			},
			{
				"x": 1.8708663414,
				"y": 6.2112634321,
				"z": -0.4855066753,
				"element": "H" 
			},
			{
				"x": 1.9720453802,
				"y": 4.8680140061,
				"z": 0.6540077559,
				"element": "H" 
			},
			{
				"x": 0.4844176345,
				"y": 5.1367006936,
				"z": -0.2632165791,
				"element": "H" 
			},
			{
				"x": 1.7405827174,
				"y": 4.6641322001,
				"z": -2.4116219309,
				"element": "H" 
			},
			{
				"x": 3.1927042621,
				"y": 4.3227046532,
				"z": -1.4888857885,
				"element": "H" 
			},
			{
				"x": 1.9707828289,
				"y": 2.2695689825,
				"z": -2.2551786321,
				"element": "H" 
			},
			{
				"x": 0.5698256608,
				"y": 2.7488323582,
				"z": -1.3120142438,
				"element": "H" 
			},
			{
				"x": 3.3472120609,
				"y": 2.1910670676,
				"z": -0.1346102876,
				"element": "H" 
			},
			{
				"x": 1.899059205,
				"y": 2.512123866,
				"z": 0.8021960846,
				"element": "H" 
			},
			{
				"x": 2.5386408908,
				"y": 0.0880003685,
				"z": 0.7140596976,
				"element": "H" 
			},
			{
				"x": 2.3095430998,
				"y": 0.0847544053,
				"z": -1.0260200448,
				"element": "H" 
			},
			{
				"x": -0.1219401925,
				"y": 0.6195882121,
				"z": -0.7065245391,
				"element": "H" 
			},
			{
				"x": 0.1112921214,
				"y": 0.6767504756,
				"z": 1.032214122,
				"element": "H" 
			},
			{
				"x": 0.8707144823,
				"y": -1.7323352183,
				"z": 0.9942046455,
				"element": "H" 
			},
			{
				"x": 0.563480222,
				"y": -1.7994498254,
				"z": -0.7238836516,
				"element": "H" 
			},
			{
				"x": -1.5123961658,
				"y": -1.2777719604,
				"z": 1.4830106446,
				"element": "H" 
			},
			{
				"x": -1.2741627914,
				"y": -2.8070406554,
				"z": 0.6585334284,
				"element": "H" 
			},
			{
				"x": -2.282251665,
				"y": -0.211436077,
				"z": -0.6465156544,
				"element": "H" 
			},
			{
				"x": -3.2752451595,
				"y": -1.5763640632,
				"z": -0.1455354281,
				"element": "H" 
			},
			{
				"x": -1.1225180208,
				"y": -1.6684162474,
				"z": -2.3520947586,
				"element": "H" 
			},
			{
				"x": -2.1008439858,
				"y": -3.0602108587,
				"z": -1.8151970588,
				"element": "H" 
			}
		],
		 "valence_orbital": [ 
			{
				"type": "occ",
				"energy": -0.32659,
				"method": "rhf"
			},
			{
				"type": "occ",
				"energy": -0.31941,
				"method": "rhf"
			},
			{
				"type": "occ",
				"energy": -0.31412,
				"method": "rhf"
			},
			{
				"type": "occ",
				"energy": -0.31374,
				"method": "rhf"
			},
			{
				"type": "occ",
				"energy": -0.31002,
				"method": "rhf"
			},
			{
				"type": "unocc",
				"energy": -0.08132,
				"method": "rhf"
			},
			{
				"type": "unocc",
				"energy": 0.03208,
				"method": "rhf"
			},
			{
				"type": "unocc",
				"energy": 0.06415,
				"method": "rhf"
			},
			{
				"type": "unocc",
				"energy": 0.07205,
				"method": "rhf"
			},
			{
				"type": "unocc",
				"energy": 0.08315,
				"method": "rhf"
			}
		],
		"cosmo_sigma_profile": { 
			"-0.025": 0.0,
			"-0.024": 0.0,
			"-0.023": 0.0,
			"-0.022": 0.0,
			"-0.021": 0.0,
			"-0.02": 0.0,
			"-0.019": 0.0,
			"-0.018": 0.0,
			"-0.017": 0.0,
			"-0.016": 0.0,
			"-0.015": 0.0,
			"-0.014": 0.0,
			"-0.013": 0.0,
			"-0.012": 0.0,
			"-0.011": 0.0,
			"-0.01": 0.63742022855,
			"-0.009": 3.75231205283,
			"-0.008": 3.7407908381,
			"-0.007": 4.49749050571,
			"-0.006": 5.24134383074,
			"-0.005": 7.31772121832,
			"-0.004": 12.8145153208,
			"-0.003": 18.0436303003,
			"-0.002": 38.2824483778,
			"-0.001": 49.3299924275,
			"0.0": 50.3733996065,
			"0.001": 41.7721432585,
			"0.002": 19.3263169991,
			"0.003": 12.5772048383,
			"0.004": 11.6927056378,
			"0.005": 3.16291475883,
			"0.006": 2.84598227893,
			"0.007": 3.98338626305,
			"0.008": 9.33825199857,
			"0.009": 9.97699713017,
			"0.01": 0.9000261116,
			"0.011": 0.0,
			"0.012": 0.0,
			"0.013": 0.0,
			"0.014": 0.0,
			"0.015": 0.0,
			"0.016": 0.0,
			"0.017": 0.0,
			"0.018": 0.0,
			"0.019": 0.0,
			"0.02": 0.0,
			"0.021": 0.0,
			"0.022": 0.0,
			"0.023": 0.0,
			"0.024": 0.0,
			"0.025": 0.0
		}
	}
}
