{
	 "smiles": "CN(C)C1=CC=C(C=C1)N=C1C=C(OC(=C1)C1=CC=CC=C1)C1=CC=CC=C1", 
	 "Tm": 421.15, 
	 "num_atms": 50, 
	 "gaussian": { 
		 "optdone": 1, 
		 "sigma_profile": "yes", 
		 "theory": "DFT", 
		 "functional": "B3LYP", 
		 "basiset": "6-31G**", 
		 "properties": { 
			 "R2extent": 16454.8534, 
			 "electric_dipole_moment_norm": 3.02392082568, 
			 "electric_quadrupole_moment_norm": 22.5027429781, 
			 "total_energy": -1150.62015048, 
			 "HOMO_LUMO_gap": 0.11136, 
			 "cosmo_polarized_energy": -14.47, 
			 "cosmo_cavitation_energy": 53.6, 
			 "cosmo_dispersion_energy": -37.79, 
			 "cosmo_repulsion_energy": 2.81, 
			 "cosmo_total_nonelectrostatic_energy": 18.62, 
			 "SMD_solvation_energy": 6.88 
		},
		"coords": [
			{
				"x": -4.1212517795,
				"y": -4.9876691371,
				"z": -1.4787294663,
				"element": "C" 
			},
			{
				"x": -4.1873305312,
				"y": -3.8218588504,
				"z": -0.6150088073,
				"element": "N" 
			},
			{
				"x": -4.8385543129,
				"y": -3.982130107,
				"z": 0.6729301157,
				"element": "C" 
			},
			{
				"x": -3.2215145088,
				"y": -2.8216899927,
				"z": -0.7594583895,
				"element": "C" 
			},
			{
				"x": -3.0721598219,
				"y": -1.7949422085,
				"z": 0.1973176505,
				"element": "C" 
			},
			{
				"x": -2.1259088041,
				"y": -0.7860808559,
				"z": 0.0365244539,
				"element": "C" 
			},
			{
				"x": -1.275377963,
				"y": -0.7417217367,
				"z": -1.0840536813,
				"element": "C" 
			},
			{
				"x": -1.4448510976,
				"y": -1.750461784,
				"z": -2.0493994157,
				"element": "C" 
			},
			{
				"x": -2.3694305096,
				"y": -2.7738937602,
				"z": -1.8867496758,
				"element": "C" 
			},
			{
				"x": -0.3629721037,
				"y": 0.2875212503,
				"z": -1.3461036909,
				"element": "N" 
			},
			{
				"x": 0.4764535975,
				"y": 0.7279278965,
				"z": -0.4560166784,
				"element": "C" 
			},
			{
				"x": 1.301410472,
				"y": 1.8780760773,
				"z": -0.7927070009,
				"element": "C" 
			},
			{
				"x": 2.1826297014,
				"y": 2.4136161619,
				"z": 0.0815370228,
				"element": "C" 
			},
			{
				"x": 2.3796977431,
				"y": 1.8555471059,
				"z": 1.3238761626,
				"element": "O" 
			},
			{
				"x": 1.6884525287,
				"y": 0.7255658754,
				"z": 1.6795092062,
				"element": "C" 
			},
			{
				"x": 0.7531500654,
				"y": 0.1786942463,
				"z": 0.8674367292,
				"element": "C" 
			},
			{
				"x": 2.0718440189,
				"y": 0.2394248305,
				"z": 3.0181364522,
				"element": "C" 
			},
			{
				"x": 1.8468981633,
				"y": -1.097078382,
				"z": 3.3915094429,
				"element": "C" 
			},
			{
				"x": 2.1913695159,
				"y": -1.5438824124,
				"z": 4.6643632067,
				"element": "C" 
			},
			{
				"x": 2.7732790614,
				"y": -0.6689808469,
				"z": 5.5852266642,
				"element": "C" 
			},
			{
				"x": 3.010655022,
				"y": 0.6572156157,
				"z": 5.2204270519,
				"element": "C" 
			},
			{
				"x": 2.6664101956,
				"y": 1.1097861301,
				"z": 3.9479955467,
				"element": "C" 
			},
			{
				"x": 3.0432097157,
				"y": 3.5880119011,
				"z": -0.1448688354,
				"element": "C" 
			},
			{
				"x": 4.2140905155,
				"y": 3.7708604995,
				"z": 0.6108628138,
				"element": "C" 
			},
			{
				"x": 5.0372453823,
				"y": 4.8725137176,
				"z": 0.3841516778,
				"element": "C" 
			},
			{
				"x": 4.7065772348,
				"y": 5.8102794257,
				"z": -0.5952909777,
				"element": "C" 
			},
			{
				"x": 3.5401264185,
				"y": 5.6413025943,
				"z": -1.3457362351,
				"element": "C" 
			},
			{
				"x": 2.7126282837,
				"y": 4.5446593882,
				"z": -1.1205786548,
				"element": "C" 
			},
			{
				"x": -4.2248473625,
				"y": -4.7017956572,
				"z": -2.5311451601,
				"element": "H" 
			},
			{
				"x": -4.951328636,
				"y": -5.6557054799,
				"z": -1.2409921954,
				"element": "H" 
			},
			{
				"x": -3.1814849238,
				"y": -5.5550088641,
				"z": -1.3741335769,
				"element": "H" 
			},
			{
				"x": -5.3903268642,
				"y": -3.0765774565,
				"z": 0.9485823412,
				"element": "H" 
			},
			{
				"x": -4.1353406258,
				"y": -4.2104711113,
				"z": 1.4911441747,
				"element": "H" 
			},
			{
				"x": -5.5631643308,
				"y": -4.7961074614,
				"z": 0.608453929,
				"element": "H" 
			},
			{
				"x": -3.7044435657,
				"y": -1.7686659215,
				"z": 1.0767591199,
				"element": "H" 
			},
			{
				"x": -2.0697158713,
				"y": 0.0033379173,
				"z": 0.7806269735,
				"element": "H" 
			},
			{
				"x": -0.8163072005,
				"y": -1.7246162667,
				"z": -2.9345697414,
				"element": "H" 
			},
			{
				"x": -2.4341020984,
				"y": -3.5351941067,
				"z": -2.6547599438,
				"element": "H" 
			},
			{
				"x": 1.1850683877,
				"y": 2.3011705744,
				"z": -1.7823535434,
				"element": "H" 
			},
			{
				"x": 0.2114486665,
				"y": -0.694603984,
				"z": 1.2034968157,
				"element": "H" 
			},
			{
				"x": 1.4228257764,
				"y": -1.7941357026,
				"z": 2.6761345001,
				"element": "H" 
			},
			{
				"x": 2.0153362074,
				"y": -2.5810983253,
				"z": 4.9340921778,
				"element": "H" 
			},
			{
				"x": 3.0442192015,
				"y": -1.0205283671,
				"z": 6.5764392639,
				"element": "H" 
			},
			{
				"x": 3.4632375824,
				"y": 1.3444521379,
				"z": 5.9294287947,
				"element": "H" 
			},
			{
				"x": 2.8442775352,
				"y": 2.1425182967,
				"z": 3.6707169635,
				"element": "H" 
			},
			{
				"x": 4.4792663145,
				"y": 3.0392228775,
				"z": 1.3654767184,
				"element": "H" 
			},
			{
				"x": 5.9417921386,
				"y": 4.9957536924,
				"z": 0.9727791451,
				"element": "H" 
			},
			{
				"x": 5.3484937053,
				"y": 6.668788571,
				"z": -0.7696565113,
				"element": "H" 
			},
			{
				"x": 3.2673762461,
				"y": 6.3724005723,
				"z": -2.1011681682,
				"element": "H" 
			},
			{
				"x": 1.7944435142,
				"y": 4.4403514223,
				"z": -1.6893547651,
				"element": "H" 
			}
		],
		 "valence_orbital": [ 
			{
				"type": "occ",
				"energy": -0.23558,
				"method": "rhf"
			},
			{
				"type": "occ",
				"energy": -0.23166,
				"method": "rhf"
			},
			{
				"type": "occ",
				"energy": -0.23146,
				"method": "rhf"
			},
			{
				"type": "occ",
				"energy": -0.21262,
				"method": "rhf"
			},
			{
				"type": "occ",
				"energy": -0.16284,
				"method": "rhf"
			},
			{
				"type": "unocc",
				"energy": -0.05148,
				"method": "rhf"
			},
			{
				"type": "unocc",
				"energy": -0.04317,
				"method": "rhf"
			},
			{
				"type": "unocc",
				"energy": -0.00869,
				"method": "rhf"
			},
			{
				"type": "unocc",
				"energy": -0.00685,
				"method": "rhf"
			},
			{
				"type": "unocc",
				"energy": 0.01517,
				"method": "rhf"
			}
		],
		"cosmo_sigma_profile": { 
			"-0.025": 0.0,
			"-0.024": 0.0,
			"-0.023": 0.0,
			"-0.022": 0.0,
			"-0.021": 0.0,
			"-0.02": 0.0,
			"-0.019": 0.0,
			"-0.018": 0.0,
			"-0.017": 0.0,
			"-0.016": 0.0,
			"-0.015": 0.0,
			"-0.014": 0.0,
			"-0.013": 0.0,
			"-0.012": 0.0,
			"-0.011": 0.0,
			"-0.01": 0.0,
			"-0.009": 0.0,
			"-0.008": 1.43915481863,
			"-0.007": 5.31985328472,
			"-0.006": 19.7445125355,
			"-0.005": 32.8906540014,
			"-0.004": 37.9274878322,
			"-0.003": 35.661436825,
			"-0.002": 38.9520291926,
			"-0.001": 41.613882827,
			"0.0": 34.7889437304,
			"0.001": 31.5917330786,
			"0.002": 32.6588689183,
			"0.003": 28.3761474306,
			"0.004": 30.944608395,
			"0.005": 22.55756156,
			"0.006": 9.95764226265,
			"0.007": 11.9196977843,
			"0.008": 3.53107993008,
			"0.009": 1.69971530329,
			"0.01": 1.39565284889,
			"0.011": 1.39863865152,
			"0.012": 1.31132902984,
			"0.013": 0.642480453599,
			"0.014": 1.02198807064,
			"0.015": 0.567390204537,
			"0.016": 0.999632547423,
			"0.017": 0.391402571435,
			"0.018": 0.032228601888,
			"0.019": 0.0,
			"0.02": 0.0,
			"0.021": 0.0,
			"0.022": 0.0,
			"0.023": 0.0,
			"0.024": 0.0,
			"0.025": 0.0
		}
	}
}
