{
	 "smiles": "OC(=O)C(CC(=O)NC(C1=CC=CC=C1)(C1=CC=CC=C1)C1=CC=CC=C1)NC(=O)OCC1C2=C(C=CC=C2)C2=C1C=CC=C2", 
	 "Tm": 478.15, 
	 "num_atms": 77, 
	 "gaussian": { 
		 "optdone": 1, 
		 "sigma_profile": "yes", 
		 "theory": "DFT", 
		 "functional": "B3LYP", 
		 "basiset": "6-31G**", 
		 "properties": { 
			 "R2extent": 29158.4763, 
			 "electric_dipole_moment_norm": 4.84832071237, 
			 "electric_quadrupole_moment_norm": 18.9008335549, 
			 "total_energy": -1953.00981379, 
			 "HOMO_LUMO_gap": 0.18372, 
			 "cosmo_polarized_energy": -36.13, 
			 "cosmo_cavitation_energy": 80.59, 
			 "cosmo_dispersion_energy": -48.58, 
			 "cosmo_repulsion_energy": 3.65, 
			 "cosmo_total_nonelectrostatic_energy": 35.67, 
			 "SMD_solvation_energy": 14.86 
		},
		"coords": [
			{
				"x": 3.7228112421,
				"y": -1.1263784572,
				"z": -2.3793512642,
				"element": "O" 
			},
			{
				"x": 3.7307512527,
				"y": -1.0534368144,
				"z": -1.0312720504,
				"element": "C" 
			},
			{
				"x": 4.7520666023,
				"y": -1.0323646621,
				"z": -0.3791866197,
				"element": "O" 
			},
			{
				"x": 2.3263507832,
				"y": -1.0198058711,
				"z": -0.4191533246,
				"element": "C" 
			},
			{
				"x": 2.2745691284,
				"y": 0.0089145521,
				"z": 0.7164393643,
				"element": "C" 
			},
			{
				"x": 1.0888257313,
				"y": -0.2641528734,
				"z": 1.646264115,
				"element": "C" 
			},
			{
				"x": 0.7146853221,
				"y": -1.4006596572,
				"z": 1.8917948111,
				"element": "O" 
			},
			{
				"x": 0.5018629996,
				"y": 0.8642499517,
				"z": 2.1585743194,
				"element": "N" 
			},
			{
				"x": -0.4667570685,
				"y": 0.873443821,
				"z": 3.2834899098,
				"element": "C" 
			},
			{
				"x": -0.7975925636,
				"y": 2.3630211941,
				"z": 3.5647342841,
				"element": "C" 
			},
			{
				"x": -1.0367694688,
				"y": 2.8388569825,
				"z": 4.8610336608,
				"element": "C" 
			},
			{
				"x": -1.4067953085,
				"y": 4.1671390954,
				"z": 5.0796363062,
				"element": "C" 
			},
			{
				"x": -1.5462902544,
				"y": 5.0485823311,
				"z": 4.0079023511,
				"element": "C" 
			},
			{
				"x": -1.3275165412,
				"y": 4.5833854968,
				"z": 2.7108068574,
				"element": "C" 
			},
			{
				"x": -0.9667156008,
				"y": 3.2537975063,
				"z": 2.4924060026,
				"element": "C" 
			},
			{
				"x": -1.8146582315,
				"y": 0.2343831346,
				"z": 2.8706218948,
				"element": "C" 
			},
			{
				"x": -2.8163131516,
				"y": 0.0580758369,
				"z": 3.8375563725,
				"element": "C" 
			},
			{
				"x": -4.0724359635,
				"y": -0.4341599353,
				"z": 3.4880435522,
				"element": "C" 
			},
			{
				"x": -4.358845196,
				"y": -0.7471397608,
				"z": 2.1577438419,
				"element": "C" 
			},
			{
				"x": -3.375598691,
				"y": -0.5624455076,
				"z": 1.1872402902,
				"element": "C" 
			},
			{
				"x": -2.1148825018,
				"y": -0.0762875067,
				"z": 1.5407813817,
				"element": "C" 
			},
			{
				"x": 0.2180149565,
				"y": 0.1750865211,
				"z": 4.4841288087,
				"element": "C" 
			},
			{
				"x": -0.1020819723,
				"y": -1.1293855936,
				"z": 4.8758204864,
				"element": "C" 
			},
			{
				"x": 0.5992057852,
				"y": -1.7581024925,
				"z": 5.9075373063,
				"element": "C" 
			},
			{
				"x": 1.6431355355,
				"y": -1.1010673642,
				"z": 6.5563380578,
				"element": "C" 
			},
			{
				"x": 1.9907352936,
				"y": 0.1911902769,
				"z": 6.157019037,
				"element": "C" 
			},
			{
				"x": 1.2882838917,
				"y": 0.8172014424,
				"z": 5.1288275274,
				"element": "C" 
			},
			{
				"x": 1.2564312157,
				"y": -0.8206010648,
				"z": -1.37357166,
				"element": "N" 
			},
			{
				"x": 0.7109614874,
				"y": -1.8951359742,
				"z": -2.0324975152,
				"element": "C" 
			},
			{
				"x": 0.9081625605,
				"y": -3.0645620551,
				"z": -1.7666870334,
				"element": "O" 
			},
			{
				"x": -0.1103892603,
				"y": -1.4538004162,
				"z": -3.0204552919,
				"element": "O" 
			},
			{
				"x": -0.7319532566,
				"y": -2.4888099496,
				"z": -3.7967041038,
				"element": "C" 
			},
			{
				"x": -1.7084489833,
				"y": -1.8364694243,
				"z": -4.7767646354,
				"element": "C" 
			},
			{
				"x": -2.83670154,
				"y": -1.0507932468,
				"z": -4.1240145504,
				"element": "C" 
			},
			{
				"x": -2.8647850356,
				"y": 0.2674703065,
				"z": -4.6211884976,
				"element": "C" 
			},
			{
				"x": -3.8315932571,
				"y": 1.1712126588,
				"z": -4.1746931001,
				"element": "C" 
			},
			{
				"x": -4.7671109461,
				"y": 0.7458225813,
				"z": -3.2289827201,
				"element": "C" 
			},
			{
				"x": -4.7405589092,
				"y": -0.5647254608,
				"z": -2.7388410786,
				"element": "C" 
			},
			{
				"x": -3.7720624436,
				"y": -1.4721794022,
				"z": -3.1861238564,
				"element": "C" 
			},
			{
				"x": -1.778988594,
				"y": 0.423231003,
				"z": -5.5993076066,
				"element": "C" 
			},
			{
				"x": -1.0863716479,
				"y": -0.8001254678,
				"z": -5.7021360353,
				"element": "C" 
			},
			{
				"x": -0.0088641187,
				"y": -0.930212006,
				"z": -6.5701935493,
				"element": "C" 
			},
			{
				"x": 0.3805828198,
				"y": 0.1729131319,
				"z": -7.3393135566,
				"element": "C" 
			},
			{
				"x": -0.306400483,
				"y": 1.387463682,
				"z": -7.2386772765,
				"element": "C" 
			},
			{
				"x": -1.3916961105,
				"y": 1.5218590338,
				"z": -6.3695111296,
				"element": "C" 
			},
			{
				"x": 4.654919453,
				"y": -1.1880341032,
				"z": -2.6488353568,
				"element": "H" 
			},
			{
				"x": 2.159907146,
				"y": -2.0075127435,
				"z": 0.0261484478,
				"element": "H" 
			},
			{
				"x": 2.247535169,
				"y": 1.0292656136,
				"z": 0.3132275611,
				"element": "H" 
			},
			{
				"x": 3.1964933549,
				"y": -0.0839705222,
				"z": 1.3001453266,
				"element": "H" 
			},
			{
				"x": 0.9882301864,
				"y": 1.7365507266,
				"z": 2.0084464205,
				"element": "H" 
			},
			{
				"x": -0.9251128632,
				"y": 2.1731377921,
				"z": 5.7090529235,
				"element": "H" 
			},
			{
				"x": -1.5817614344,
				"y": 4.5112284319,
				"z": 6.0951011977,
				"element": "H" 
			},
			{
				"x": -1.8291981821,
				"y": 6.0828807983,
				"z": 4.1802047124,
				"element": "H" 
			},
			{
				"x": -1.4479044281,
				"y": 5.2517897329,
				"z": 1.8628827585,
				"element": "H" 
			},
			{
				"x": -0.8437560567,
				"y": 2.9003612141,
				"z": 1.4732298274,
				"element": "H" 
			},
			{
				"x": -2.615294246,
				"y": 0.3095062392,
				"z": 4.8741364068,
				"element": "H" 
			},
			{
				"x": -4.8288983017,
				"y": -0.5665907565,
				"z": 4.2565744449,
				"element": "H" 
			},
			{
				"x": -5.3385124824,
				"y": -1.1280507714,
				"z": 1.883251084,
				"element": "H" 
			},
			{
				"x": -3.5812108173,
				"y": -0.7936215499,
				"z": 0.1459515552,
				"element": "H" 
			},
			{
				"x": -1.3657979436,
				"y": 0.055630368,
				"z": 0.7703270191,
				"element": "H" 
			},
			{
				"x": -0.8880110875,
				"y": -1.6670511504,
				"z": 4.3610630218,
				"element": "H" 
			},
			{
				"x": 0.3322870218,
				"y": -2.7719297089,
				"z": 6.191875079,
				"element": "H" 
			},
			{
				"x": 2.1877094927,
				"y": -1.5920628942,
				"z": 7.3578186638,
				"element": "H" 
			},
			{
				"x": 2.80966119,
				"y": 0.7130691663,
				"z": 6.6443095359,
				"element": "H" 
			},
			{
				"x": 1.5739714301,
				"y": 1.8208715034,
				"z": 4.8278469404,
				"element": "H" 
			},
			{
				"x": 1.193462355,
				"y": 0.0654133141,
				"z": -1.8558286656,
				"element": "H" 
			},
			{
				"x": 0.039085603,
				"y": -3.0543241336,
				"z": -4.3313977602,
				"element": "H" 
			},
			{
				"x": -1.2482873926,
				"y": -3.1864181084,
				"z": -3.1304285705,
				"element": "H" 
			},
			{
				"x": -2.1285798315,
				"y": -2.6619630212,
				"z": -5.3719666981,
				"element": "H" 
			},
			{
				"x": -3.8607500394,
				"y": 2.1887302968,
				"z": -4.5548195626,
				"element": "H" 
			},
			{
				"x": -5.5251521237,
				"y": 1.4372719383,
				"z": -2.8723672134,
				"element": "H" 
			},
			{
				"x": -5.4810735103,
				"y": -0.8823707823,
				"z": -2.0104114825,
				"element": "H" 
			},
			{
				"x": -3.7602839111,
				"y": -2.4893693655,
				"z": -2.8025692337,
				"element": "H" 
			},
			{
				"x": 0.5292671479,
				"y": -1.8709911308,
				"z": -6.6557563969,
				"element": "H" 
			},
			{
				"x": 1.2215237396,
				"y": 0.0843897505,
				"z": -8.021096502,
				"element": "H" 
			},
			{
				"x": 0.0062328861,
				"y": 2.2335491369,
				"z": -7.8441342164,
				"element": "H" 
			},
			{
				"x": -1.9228610318,
				"y": 2.4671151424,
				"z": -6.2981953507,
				"element": "H" 
			}
		],
		 "valence_orbital": [ 
			{
				"type": "occ",
				"energy": -0.24082,
				"method": "rhf"
			},
			{
				"type": "occ",
				"energy": -0.23864,
				"method": "rhf"
			},
			{
				"type": "occ",
				"energy": -0.23555,
				"method": "rhf"
			},
			{
				"type": "occ",
				"energy": -0.22736,
				"method": "rhf"
			},
			{
				"type": "occ",
				"energy": -0.21652,
				"method": "rhf"
			},
			{
				"type": "unocc",
				"energy": -0.0328,
				"method": "rhf"
			},
			{
				"type": "unocc",
				"energy": -0.01745,
				"method": "rhf"
			},
			{
				"type": "unocc",
				"energy": -0.01404,
				"method": "rhf"
			},
			{
				"type": "unocc",
				"energy": -0.01385,
				"method": "rhf"
			},
			{
				"type": "unocc",
				"energy": -0.00272,
				"method": "rhf"
			}
		],
		"cosmo_sigma_profile": { 
			"-0.025": 0.0,
			"-0.024": 0.0,
			"-0.023": 0.0,
			"-0.022": 0.0,
			"-0.021": 0.0,
			"-0.02": 0.0,
			"-0.019": 0.275937596193,
			"-0.018": 0.758300607622,
			"-0.017": 1.44665194995,
			"-0.016": 0.582750905365,
			"-0.015": 0.826934851381,
			"-0.014": 2.42614420038,
			"-0.013": 3.16101089904,
			"-0.012": 3.02480762049,
			"-0.011": 3.49589685653,
			"-0.01": 2.98036643303,
			"-0.009": 3.3423299603,
			"-0.008": 4.97309853291,
			"-0.007": 6.90689705859,
			"-0.006": 34.9943734383,
			"-0.005": 56.4141783039,
			"-0.004": 54.0977089917,
			"-0.003": 54.5520860358,
			"-0.002": 41.0703334964,
			"-0.001": 40.8615137162,
			"0.0": 37.6960364433,
			"0.001": 35.9513714207,
			"0.002": 36.6910240341,
			"0.003": 39.0258007054,
			"0.004": 41.9896048249,
			"0.005": 47.2700788155,
			"0.006": 35.3209357973,
			"0.007": 10.8495417702,
			"0.008": 5.21635441555,
			"0.009": 5.83696340343,
			"0.01": 6.23700919399,
			"0.011": 9.11422554257,
			"0.012": 8.62550767932,
			"0.013": 5.70352397837,
			"0.014": 0.441876677265,
			"0.015": 0.0,
			"0.016": 0.0,
			"0.017": 0.0,
			"0.018": 0.0,
			"0.019": 0.0,
			"0.02": 0.0,
			"0.021": 0.0,
			"0.022": 0.0,
			"0.023": 0.0,
			"0.024": 0.0,
			"0.025": 0.0
		}
	}
}
