{
	 "smiles": "NC1=CC=C(CCN2CCOCC2)C=C1", 
	 "Tm": 361.15, 
	 "num_atms": 33, 
	 "gaussian": { 
		 "optdone": 1, 
		 "sigma_profile": "yes", 
		 "theory": "DFT", 
		 "functional": "B3LYP", 
		 "basiset": "6-31G**", 
		 "properties": { 
			 "R2extent": 4522.8265, 
			 "electric_dipole_moment_norm": 1.99111345232, 
			 "electric_quadrupole_moment_norm": 15.7276179576, 
			 "total_energy": -652.825599657, 
			 "HOMO_LUMO_gap": 0.20269, 
			 "cosmo_polarized_energy": -12.24, 
			 "cosmo_cavitation_energy": 33.98, 
			 "cosmo_dispersion_energy": -24.26, 
			 "cosmo_repulsion_energy": 1.91, 
			 "cosmo_total_nonelectrostatic_energy": 11.63, 
			 "SMD_solvation_energy": 4.84 
		},
		"coords": [
			{
				"x": -1.373518811,
				"y": 4.9974800874,
				"z": 1.4607598736,
				"element": "N" 
			},
			{
				"x": -1.4679929156,
				"y": 3.6144644488,
				"z": 1.262647205,
				"element": "C" 
			},
			{
				"x": -0.3599968092,
				"y": 2.873186383,
				"z": 0.8179049754,
				"element": "C" 
			},
			{
				"x": -0.434721221,
				"y": 1.4901515248,
				"z": 0.6807992921,
				"element": "C" 
			},
			{
				"x": -1.613849844,
				"y": 0.7882338947,
				"z": 0.9777607785,
				"element": "C" 
			},
			{
				"x": -1.7128179828,
				"y": -0.715152699,
				"z": 0.8250321037,
				"element": "C" 
			},
			{
				"x": -1.6449575004,
				"y": -1.2228466954,
				"z": -0.6315576748,
				"element": "C" 
			},
			{
				"x": -0.3222832986,
				"y": -1.0904384804,
				"z": -1.230251524,
				"element": "N" 
			},
			{
				"x": 0.6596622513,
				"y": -2.0428660497,
				"z": -0.6978403919,
				"element": "C" 
			},
			{
				"x": 1.8452359099,
				"y": -2.1918342624,
				"z": -1.6706619706,
				"element": "C" 
			},
			{
				"x": 2.1298162576,
				"y": -0.96427967,
				"z": -2.3140209609,
				"element": "O" 
			},
			{
				"x": 1.0601927092,
				"y": -0.5464216231,
				"z": -3.1610483925,
				"element": "C" 
			},
			{
				"x": -0.3069242426,
				"y": -1.0718574434,
				"z": -2.6858279651,
				"element": "C" 
			},
			{
				"x": -2.7129240867,
				"y": 1.5363670872,
				"z": 1.4182728955,
				"element": "C" 
			},
			{
				"x": -2.6511750573,
				"y": 2.9213792201,
				"z": 1.5605741715,
				"element": "C" 
			},
			{
				"x": -2.255006656,
				"y": 5.4909835056,
				"z": 1.4166115487,
				"element": "H" 
			},
			{
				"x": -0.6669923997,
				"y": 5.455533168,
				"z": 0.9008055114,
				"element": "H" 
			},
			{
				"x": 0.5687613991,
				"y": 3.3893172384,
				"z": 0.5844740162,
				"element": "H" 
			},
			{
				"x": 0.4300365715,
				"y": 0.9463438624,
				"z": 0.3149559279,
				"element": "H" 
			},
			{
				"x": -2.6660835439,
				"y": -1.0552589816,
				"z": 1.2468427993,
				"element": "H" 
			},
			{
				"x": -0.9325192023,
				"y": -1.2133518085,
				"z": 1.4145004108,
				"element": "H" 
			},
			{
				"x": -1.9949354202,
				"y": -2.2748196869,
				"z": -0.6584821154,
				"element": "H" 
			},
			{
				"x": -2.349152247,
				"y": -0.6376058324,
				"z": -1.2334601453,
				"element": "H" 
			},
			{
				"x": 1.0185862632,
				"y": -1.6829625329,
				"z": 0.2735387344,
				"element": "H" 
			},
			{
				"x": 0.2137588876,
				"y": -3.0433927832,
				"z": -0.5291689282,
				"element": "H" 
			},
			{
				"x": 2.7490734386,
				"y": -2.4824441394,
				"z": -1.1280318957,
				"element": "H" 
			},
			{
				"x": 1.6397215564,
				"y": -2.9819395662,
				"z": -2.4109746574,
				"element": "H" 
			},
			{
				"x": 1.0704216754,
				"y": 0.547783583,
				"z": -3.1374679219,
				"element": "H" 
			},
			{
				"x": 1.2440035915,
				"y": -0.8722915944,
				"z": -4.1979372245,
				"element": "H" 
			},
			{
				"x": -0.5203301437,
				"y": -2.0644030951,
				"z": -3.1298227257,
				"element": "H" 
			},
			{
				"x": -1.0904757154,
				"y": -0.3968363028,
				"z": -3.0448854407,
				"element": "H" 
			},
			{
				"x": -3.6434578864,
				"y": 1.0260256175,
				"z": 1.6583424983,
				"element": "H" 
			},
			{
				"x": -3.5219555274,
				"y": 3.4705536263,
				"z": 1.9117171924,
				"element": "H" 
			}
		],
		 "valence_orbital": [ 
			{
				"type": "occ",
				"energy": -0.28898,
				"method": "rhf"
			},
			{
				"type": "occ",
				"energy": -0.24457,
				"method": "rhf"
			},
			{
				"type": "occ",
				"energy": -0.2351,
				"method": "rhf"
			},
			{
				"type": "occ",
				"energy": -0.20643,
				"method": "rhf"
			},
			{
				"type": "occ",
				"energy": -0.18906,
				"method": "rhf"
			},
			{
				"type": "unocc",
				"energy": 0.01363,
				"method": "rhf"
			},
			{
				"type": "unocc",
				"energy": 0.02697,
				"method": "rhf"
			},
			{
				"type": "unocc",
				"energy": 0.07984,
				"method": "rhf"
			},
			{
				"type": "unocc",
				"energy": 0.0882,
				"method": "rhf"
			},
			{
				"type": "unocc",
				"energy": 0.10317,
				"method": "rhf"
			}
		],
		"cosmo_sigma_profile": { 
			"-0.025": 0.0,
			"-0.024": 0.0,
			"-0.023": 0.0,
			"-0.022": 0.0,
			"-0.021": 0.0,
			"-0.02": 0.0,
			"-0.019": 0.0,
			"-0.018": 0.0,
			"-0.017": 0.0,
			"-0.016": 0.0,
			"-0.015": 0.0,
			"-0.014": 0.0,
			"-0.013": 0.0,
			"-0.012": 1.28558391208,
			"-0.011": 2.83538621309,
			"-0.01": 2.94997763525,
			"-0.009": 2.9968142533,
			"-0.008": 3.08649521141,
			"-0.007": 2.34952244024,
			"-0.006": 3.68463967265,
			"-0.005": 9.77173852114,
			"-0.004": 20.0501651069,
			"-0.003": 36.3106809417,
			"-0.002": 38.5359149705,
			"-0.001": 32.7380871196,
			"0.0": 19.0872404684,
			"0.001": 10.8730622374,
			"0.002": 8.41860930739,
			"0.003": 7.41852835096,
			"0.004": 8.59416053858,
			"0.005": 8.43888923443,
			"0.006": 9.28296614655,
			"0.007": 11.3326767428,
			"0.008": 8.79549106571,
			"0.009": 4.37778816846,
			"0.01": 2.41999639681,
			"0.011": 2.02254694749,
			"0.012": 2.16481356092,
			"0.013": 2.78016195964,
			"0.014": 1.62720251595,
			"0.015": 0.475347808165,
			"0.016": 0.0533301964587,
			"0.017": 0.0,
			"0.018": 0.0,
			"0.019": 0.0,
			"0.02": 0.0,
			"0.021": 0.0,
			"0.022": 0.0,
			"0.023": 0.0,
			"0.024": 0.0,
			"0.025": 0.0
		}
	}
}
