{
	 "smiles": "COC1=CC=CC2=C1OC(=C2)C(=O)C1=CC2=C(O1)C=CC=C2", 
	 "Tm": 427.15, 
	 "num_atms": 34, 
	 "gaussian": { 
		 "optdone": 1, 
		 "sigma_profile": "yes", 
		 "theory": "DFT", 
		 "functional": "B3LYP", 
		 "basiset": "6-31G**", 
		 "properties": { 
			 "R2extent": 9105.2051, 
			 "electric_dipole_moment_norm": 3.04895038005, 
			 "electric_quadrupole_moment_norm": 13.8541056918, 
			 "total_energy": -994.005679185, 
			 "HOMO_LUMO_gap": 0.12647, 
			 "cosmo_polarized_energy": -11.56, 
			 "cosmo_cavitation_energy": 39.58, 
			 "cosmo_dispersion_energy": -28.69, 
			 "cosmo_repulsion_energy": 2.13, 
			 "cosmo_total_nonelectrostatic_energy": 13.02, 
			 "SMD_solvation_energy": 8.36 
		},
		"coords": [
			{
				"x": -0.5053452548,
				"y": -3.3800322162,
				"z": -3.7784571157,
				"element": "C" 
			},
			{
				"x": 0.3208248171,
				"y": -2.4740812992,
				"z": -4.514810209,
				"element": "O" 
			},
			{
				"x": 0.8268967235,
				"y": -1.3695484653,
				"z": -3.9094221067,
				"element": "C" 
			},
			{
				"x": 1.6433380294,
				"y": -0.540568647,
				"z": -4.6857311964,
				"element": "C" 
			},
			{
				"x": 2.2253206884,
				"y": 0.6322880564,
				"z": -4.1746909492,
				"element": "C" 
			},
			{
				"x": 2.0208433049,
				"y": 1.0350879029,
				"z": -2.8621459494,
				"element": "C" 
			},
			{
				"x": 1.2044142759,
				"y": 0.221628045,
				"z": -2.0576826282,
				"element": "C" 
			},
			{
				"x": 0.6247982308,
				"y": -0.9541788874,
				"z": -2.5823033554,
				"element": "C" 
			},
			{
				"x": -0.1251039454,
				"y": -1.5813569204,
				"z": -1.6278471505,
				"element": "O" 
			},
			{
				"x": -0.0329448399,
				"y": -0.8156163079,
				"z": -0.4869204392,
				"element": "C" 
			},
			{
				"x": 0.7581849062,
				"y": 0.2824026721,
				"z": -0.6963395016,
				"element": "C" 
			},
			{
				"x": -0.7884593426,
				"y": -1.3468974506,
				"z": 0.659567625,
				"element": "C" 
			},
			{
				"x": -1.4328824594,
				"y": -2.3892710081,
				"z": 0.5670124133,
				"element": "O" 
			},
			{
				"x": -0.7796464961,
				"y": -0.6248797514,
				"z": 1.9463129104,
				"element": "C" 
			},
			{
				"x": -1.4187513416,
				"y": -0.9731207938,
				"z": 3.1020201762,
				"element": "C" 
			},
			{
				"x": -1.1053415509,
				"y": 0.0412567889,
				"z": 4.0658058345,
				"element": "C" 
			},
			{
				"x": -0.2708144975,
				"y": 0.955601328,
				"z": 3.3903537419,
				"element": "C" 
			},
			{
				"x": -0.0707513339,
				"y": 0.552753593,
				"z": 2.0999918885,
				"element": "O" 
			},
			{
				"x": 0.2587723331,
				"y": 2.0978519782,
				"z": 3.9809671316,
				"element": "C" 
			},
			{
				"x": -0.0777470076,
				"y": 2.3146572782,
				"z": 5.3152487244,
				"element": "C" 
			},
			{
				"x": -0.9098339425,
				"y": 1.4204307036,
				"z": 6.0204577763,
				"element": "C" 
			},
			{
				"x": -1.4292300073,
				"y": 0.2842918912,
				"z": 5.4124231184,
				"element": "C" 
			},
			{
				"x": -1.4154595146,
				"y": -2.8929991916,
				"z": -3.417042021,
				"element": "H" 
			},
			{
				"x": 0.0290116246,
				"y": -3.8106042089,
				"z": -2.9266513722,
				"element": "H" 
			},
			{
				"x": -0.7665673835,
				"y": -4.1692593334,
				"z": -4.4850023464,
				"element": "H" 
			},
			{
				"x": 1.8159421809,
				"y": -0.8382631759,
				"z": -5.7147478175,
				"element": "H" 
			},
			{
				"x": 2.849043998,
				"y": 1.2303487676,
				"z": -4.8322655592,
				"element": "H" 
			},
			{
				"x": 2.4709304969,
				"y": 1.9405382897,
				"z": -2.469358201,
				"element": "H" 
			},
			{
				"x": 0.9902700325,
				"y": 1.0389277432,
				"z": 0.0357883313,
				"element": "H" 
			},
			{
				"x": -2.0328419532,
				"y": -1.8528511933,
				"z": 3.2233491626,
				"element": "H" 
			},
			{
				"x": 0.8974147884,
				"y": 2.7777533913,
				"z": 3.427920891,
				"element": "H" 
			},
			{
				"x": 0.3095751422,
				"y": 3.1922961145,
				"z": 5.8237150049,
				"element": "H" 
			},
			{
				"x": -1.1465618085,
				"y": 1.6282942574,
				"z": 7.0594525931,
				"element": "H" 
			},
			{
				"x": -2.0690988934,
				"y": -0.3996799506,
				"z": 5.9613305953,
				"element": "H" 
			}
		],
		 "valence_orbital": [ 
			{
				"type": "occ",
				"energy": -0.26174,
				"method": "rhf"
			},
			{
				"type": "occ",
				"energy": -0.2515,
				"method": "rhf"
			},
			{
				"type": "occ",
				"energy": -0.23911,
				"method": "rhf"
			},
			{
				"type": "occ",
				"energy": -0.23338,
				"method": "rhf"
			},
			{
				"type": "occ",
				"energy": -0.20987,
				"method": "rhf"
			},
			{
				"type": "unocc",
				"energy": -0.0834,
				"method": "rhf"
			},
			{
				"type": "unocc",
				"energy": -0.02529,
				"method": "rhf"
			},
			{
				"type": "unocc",
				"energy": -0.00074,
				"method": "rhf"
			},
			{
				"type": "unocc",
				"energy": 0.01163,
				"method": "rhf"
			},
			{
				"type": "unocc",
				"energy": 0.01822,
				"method": "rhf"
			}
		],
		"cosmo_sigma_profile": { 
			"-0.025": 0.0,
			"-0.024": 0.0,
			"-0.023": 0.0,
			"-0.022": 0.0,
			"-0.021": 0.0,
			"-0.02": 0.0,
			"-0.019": 0.0,
			"-0.018": 0.0,
			"-0.017": 0.0,
			"-0.016": 0.0,
			"-0.015": 0.0,
			"-0.014": 0.0,
			"-0.013": 0.0,
			"-0.012": 0.0,
			"-0.011": 0.0,
			"-0.01": 0.0,
			"-0.009": 0.195535318567,
			"-0.008": 1.92909449299,
			"-0.007": 6.98015235137,
			"-0.006": 19.5837185364,
			"-0.005": 24.4278021555,
			"-0.004": 25.6388972505,
			"-0.003": 24.8973912057,
			"-0.002": 19.883202984,
			"-0.001": 25.4213382639,
			"0.0": 28.4747361262,
			"0.001": 29.8028888188,
			"0.002": 27.7884629447,
			"0.003": 26.3159959231,
			"0.004": 20.292987878,
			"0.005": 11.3081616103,
			"0.006": 3.59639129537,
			"0.007": 2.92450613833,
			"0.008": 3.54829574148,
			"0.009": 3.1131956668,
			"0.01": 2.94447117501,
			"0.011": 4.11261145802,
			"0.012": 4.90599435649,
			"0.013": 1.31634083769,
			"0.014": 0.00161356165459,
			"0.015": 0.0,
			"0.016": 0.0,
			"0.017": 0.0,
			"0.018": 0.0,
			"0.019": 0.0,
			"0.02": 0.0,
			"0.021": 0.0,
			"0.022": 0.0,
			"0.023": 0.0,
			"0.024": 0.0,
			"0.025": 0.0
		}
	}
}
