{
	 "smiles": "OC1=CC(NC(=O)C2=CSC=C2)=CC=C1", 
	 "Tm": 439.15, 
	 "num_atms": 24, 
	 "gaussian": { 
		 "optdone": 1, 
		 "sigma_profile": "yes", 
		 "theory": "DFT", 
		 "functional": "B3LYP", 
		 "basiset": "6-31G**", 
		 "properties": { 
			 "R2extent": 4400.7148, 
			 "electric_dipole_moment_norm": 2.29133134662, 
			 "electric_quadrupole_moment_norm": 18.4752206658, 
			 "total_energy": -1027.97219044, 
			 "HOMO_LUMO_gap": 0.18224, 
			 "cosmo_polarized_energy": -15.42, 
			 "cosmo_cavitation_energy": 30.38, 
			 "cosmo_dispersion_energy": -22.06, 
			 "cosmo_repulsion_energy": 1.69, 
			 "cosmo_total_nonelectrostatic_energy": 10.01, 
			 "SMD_solvation_energy": 6.31 
		},
		"coords": [
			{
				"x": 2.221399038,
				"y": 0.6887152459,
				"z": 1.8932562581,
				"element": "O" 
			},
			{
				"x": 1.1681431785,
				"y": -0.0599985161,
				"z": 1.4545215009,
				"element": "C" 
			},
			{
				"x": 0.9825940547,
				"y": -0.3606725281,
				"z": 0.1023189953,
				"element": "C" 
			},
			{
				"x": -0.1246323443,
				"y": -1.1214578403,
				"z": -0.2970461047,
				"element": "C" 
			},
			{
				"x": -0.3384172574,
				"y": -1.4647651666,
				"z": -1.6548102538,
				"element": "N" 
			},
			{
				"x": -0.0056317505,
				"y": -0.8005011454,
				"z": -2.8255222348,
				"element": "C" 
			},
			{
				"x": 0.1227902233,
				"y": -1.436017918,
				"z": -3.8665758597,
				"element": "O" 
			},
			{
				"x": 0.1132393623,
				"y": 0.6864599315,
				"z": -2.8064828176,
				"element": "C" 
			},
			{
				"x": 0.8394489903,
				"y": 1.322348551,
				"z": -3.7849855243,
				"element": "C" 
			},
			{
				"x": 0.7632584367,
				"y": 3.0373041548,
				"z": -3.6342476704,
				"element": "S" 
			},
			{
				"x": -0.2791589406,
				"y": 2.9164734636,
				"z": -2.2475807968,
				"element": "C" 
			},
			{
				"x": -0.5349183237,
				"y": 1.6162628346,
				"z": -1.9226775523,
				"element": "C" 
			},
			{
				"x": -1.0185560116,
				"y": -1.6095340452,
				"z": 0.6647964104,
				"element": "C" 
			},
			{
				"x": -0.8011486505,
				"y": -1.3246148958,
				"z": 2.0135535742,
				"element": "C" 
			},
			{
				"x": 0.2786242425,
				"y": -0.5457736442,
				"z": 2.4201584832,
				"element": "C" 
			},
			{
				"x": 2.7486410748,
				"y": 0.9737881993,
				"z": 1.1355569668,
				"element": "H" 
			},
			{
				"x": 1.6977784162,
				"y": -0.0139668091,
				"z": -0.6373660267,
				"element": "H" 
			},
			{
				"x": -0.5551151724,
				"y": -2.4372628417,
				"z": -1.8389917193,
				"element": "H" 
			},
			{
				"x": 1.390910242,
				"y": 0.8495059751,
				"z": -4.5848816714,
				"element": "H" 
			},
			{
				"x": -0.6426142795,
				"y": 3.8116994536,
				"z": -1.7625685437,
				"element": "H" 
			},
			{
				"x": -1.1708384986,
				"y": 1.3243223684,
				"z": -1.0970239957,
				"element": "H" 
			},
			{
				"x": -1.8766855748,
				"y": -2.1957510024,
				"z": 0.3513619092,
				"element": "H" 
			},
			{
				"x": -1.4937382216,
				"y": -1.7065623151,
				"z": 2.7578310566,
				"element": "H" 
			},
			{
				"x": 0.4518277659,
				"y": -0.3088015099,
				"z": 3.4640056166,
				"element": "H" 
			}
		],
		 "valence_orbital": [ 
			{
				"type": "occ",
				"energy": -0.26623,
				"method": "rhf"
			},
			{
				"type": "occ",
				"energy": -0.25835,
				"method": "rhf"
			},
			{
				"type": "occ",
				"energy": -0.24333,
				"method": "rhf"
			},
			{
				"type": "occ",
				"energy": -0.23901,
				"method": "rhf"
			},
			{
				"type": "occ",
				"energy": -0.22245,
				"method": "rhf"
			},
			{
				"type": "unocc",
				"energy": -0.04021,
				"method": "rhf"
			},
			{
				"type": "unocc",
				"energy": -0.01544,
				"method": "rhf"
			},
			{
				"type": "unocc",
				"energy": 0.00524,
				"method": "rhf"
			},
			{
				"type": "unocc",
				"energy": 0.01509,
				"method": "rhf"
			},
			{
				"type": "unocc",
				"energy": 0.0249,
				"method": "rhf"
			}
		],
		"cosmo_sigma_profile": { 
			"-0.025": 0.0,
			"-0.024": 0.0,
			"-0.023": 0.0,
			"-0.022": 0.0,
			"-0.021": 0.0,
			"-0.02": 0.0,
			"-0.019": 0.0,
			"-0.018": 0.285417533027,
			"-0.017": 1.38595721269,
			"-0.016": 1.08065830744,
			"-0.015": 0.851877408081,
			"-0.014": 2.3440759138,
			"-0.013": 1.54981979661,
			"-0.012": 1.92013104605,
			"-0.011": 1.63610948123,
			"-0.01": 1.68695234633,
			"-0.009": 3.97765779649,
			"-0.008": 6.08174088225,
			"-0.007": 6.62521830792,
			"-0.006": 11.4434832355,
			"-0.005": 13.7003230534,
			"-0.004": 13.8146059702,
			"-0.003": 12.1976310883,
			"-0.002": 11.4747260339,
			"-0.001": 13.9956182626,
			"0.0": 16.6016320247,
			"0.001": 17.96272884,
			"0.002": 21.4116410166,
			"0.003": 23.830178512,
			"0.004": 18.5118918816,
			"0.005": 11.074636055,
			"0.006": 3.7574736957,
			"0.007": 2.70968634695,
			"0.008": 3.78627976289,
			"0.009": 2.48901866348,
			"0.01": 3.20820934222,
			"0.011": 3.43451458912,
			"0.012": 3.17366288552,
			"0.013": 5.29984607734,
			"0.014": 2.15933970117,
			"0.015": 0.0,
			"0.016": 0.0,
			"0.017": 0.0,
			"0.018": 0.0,
			"0.019": 0.0,
			"0.02": 0.0,
			"0.021": 0.0,
			"0.022": 0.0,
			"0.023": 0.0,
			"0.024": 0.0,
			"0.025": 0.0
		}
	}
}
