{
	 "smiles": "OC1=CC(Cl)=C(C=O)C(Cl)=C1", 
	 "Tm": 501.15, 
	 "num_atms": 15, 
	 "gaussian": { 
		 "optdone": 1, 
		 "sigma_profile": "yes", 
		 "theory": "DFT", 
		 "functional": "B3LYP", 
		 "basiset": "6-31G**", 
		 "properties": { 
			 "R2extent": 2495.9679, 
			 "electric_dipole_moment_norm": 5.26241348527, 
			 "electric_quadrupole_moment_norm": 6.34202146953, 
			 "total_energy": -1339.96219197, 
			 "HOMO_LUMO_gap": 0.17879, 
			 "cosmo_polarized_energy": -13.57, 
			 "cosmo_cavitation_energy": 23.39, 
			 "cosmo_dispersion_energy": -17.69, 
			 "cosmo_repulsion_energy": 1.41, 
			 "cosmo_total_nonelectrostatic_energy": 7.11, 
			 "SMD_solvation_energy": 5.0 
		},
		"coords": [
			{
				"x": -0.175899345,
				"y": 0.788044475,
				"z": -4.0703870828,
				"element": "O" 
			},
			{
				"x": -0.1650627213,
				"y": 0.6285471657,
				"z": -2.7255193628,
				"element": "C" 
			},
			{
				"x": -1.0654498713,
				"y": 1.2833496463,
				"z": -1.8797050395,
				"element": "C" 
			},
			{
				"x": -0.9849046872,
				"y": 1.0631930859,
				"z": -0.5111169071,
				"element": "C" 
			},
			{
				"x": -2.1635367726,
				"y": 1.9344207288,
				"z": 0.4687726144,
				"element": "Cl" 
			},
			{
				"x": -0.0327699133,
				"y": 0.2042893607,
				"z": 0.0811291914,
				"element": "C" 
			},
			{
				"x": -0.0054974703,
				"y": 0.0166349069,
				"z": 1.5575207748,
				"element": "C" 
			},
			{
				"x": 0.7648564767,
				"y": -0.6936490658,
				"z": 2.171972855,
				"element": "O" 
			},
			{
				"x": 0.8563379218,
				"y": -0.4350090426,
				"z": -0.8205709522,
				"element": "C" 
			},
			{
				"x": 2.0980033975,
				"y": -1.5309195073,
				"z": -0.2670267322,
				"element": "Cl" 
			},
			{
				"x": 0.7982797562,
				"y": -0.233043944,
				"z": -2.1927265138,
				"element": "C" 
			},
			{
				"x": -0.8779244086,
				"y": 1.4019773802,
				"z": -4.3246840942,
				"element": "H" 
			},
			{
				"x": -1.8194913964,
				"y": 1.9552801868,
				"z": -2.2764988079,
				"element": "H" 
			},
			{
				"x": -0.7766414143,
				"y": 0.5991502131,
				"z": 2.0920348972,
				"element": "H" 
			},
			{
				"x": 1.4909004482,
				"y": -0.7353655897,
				"z": -2.8563948403,
				"element": "H" 
			}
		],
		 "valence_orbital": [ 
			{
				"type": "occ",
				"energy": -0.31871,
				"method": "rhf"
			},
			{
				"type": "occ",
				"energy": -0.31785,
				"method": "rhf"
			},
			{
				"type": "occ",
				"energy": -0.26492,
				"method": "rhf"
			},
			{
				"type": "occ",
				"energy": -0.25811,
				"method": "rhf"
			},
			{
				"type": "occ",
				"energy": -0.24936,
				"method": "rhf"
			},
			{
				"type": "unocc",
				"energy": -0.07057,
				"method": "rhf"
			},
			{
				"type": "unocc",
				"energy": -0.03881,
				"method": "rhf"
			},
			{
				"type": "unocc",
				"energy": -0.00539,
				"method": "rhf"
			},
			{
				"type": "unocc",
				"energy": 0.03144,
				"method": "rhf"
			},
			{
				"type": "unocc",
				"energy": 0.03545,
				"method": "rhf"
			}
		],
		"cosmo_sigma_profile": { 
			"-0.025": 0.0,
			"-0.024": 0.0,
			"-0.023": 0.0,
			"-0.022": 0.0,
			"-0.021": 0.0,
			"-0.02": 0.158762715626,
			"-0.019": 1.29542472899,
			"-0.018": 1.55502026672,
			"-0.017": 0.740139398209,
			"-0.016": 1.23329789091,
			"-0.015": 1.24444050979,
			"-0.014": 1.11612393403,
			"-0.013": 1.0643681757,
			"-0.012": 0.706455767439,
			"-0.011": 1.28657144087,
			"-0.01": 1.33636783183,
			"-0.009": 1.52839216411,
			"-0.008": 2.97578825516,
			"-0.007": 2.94214753805,
			"-0.006": 4.15771292768,
			"-0.005": 5.35896988487,
			"-0.004": 9.08301342201,
			"-0.003": 9.79162889183,
			"-0.002": 11.6551005745,
			"-0.001": 19.0585322822,
			"0.0": 28.9240437532,
			"0.001": 16.9561416632,
			"0.002": 12.2052757348,
			"0.003": 15.317573473,
			"0.004": 10.9939521246,
			"0.005": 3.54171745517,
			"0.006": 3.71532434891,
			"0.007": 3.8029261963,
			"0.008": 3.34822466811,
			"0.009": 4.18399665405,
			"0.01": 3.37879816055,
			"0.011": 4.79135567355,
			"0.012": 2.79880154645,
			"0.013": 0.432860256435,
			"0.014": 0.0,
			"0.015": 0.0,
			"0.016": 0.0,
			"0.017": 0.0,
			"0.018": 0.0,
			"0.019": 0.0,
			"0.02": 0.0,
			"0.021": 0.0,
			"0.022": 0.0,
			"0.023": 0.0,
			"0.024": 0.0,
			"0.025": 0.0
		}
	}
}
