{
	 "smiles": "COC1=CC2=C(C=C1)C(CO)=CC(=O)O2", 
	 "Tm": 451.15, 
	 "num_atms": 25, 
	 "gaussian": { 
		 "optdone": 1, 
		 "sigma_profile": "yes", 
		 "theory": "DFT", 
		 "functional": "B3LYP", 
		 "basiset": "6-31G**", 
		 "properties": { 
			 "R2extent": 4041.9241, 
			 "electric_dipole_moment_norm": 6.84803416025, 
			 "electric_quadrupole_moment_norm": 13.640786106, 
			 "total_energy": -726.074415772, 
			 "HOMO_LUMO_gap": 0.16461, 
			 "cosmo_polarized_energy": -17.98, 
			 "cosmo_cavitation_energy": 29.26, 
			 "cosmo_dispersion_energy": -21.81, 
			 "cosmo_repulsion_energy": 1.69, 
			 "cosmo_total_nonelectrostatic_energy": 9.13, 
			 "SMD_solvation_energy": 6.9 
		},
		"coords": [
			{
				"x": -3.9056939194,
				"y": 1.6792159483,
				"z": 0.2275218571,
				"element": "C" 
			},
			{
				"x": -2.5733212446,
				"y": 2.1404740484,
				"z": 0.4084836185,
				"element": "O" 
			},
			{
				"x": -1.5680051974,
				"y": 1.2287025605,
				"z": 0.4542416784,
				"element": "C" 
			},
			{
				"x": -0.2854605699,
				"y": 1.7541036566,
				"z": 0.638772386,
				"element": "C" 
			},
			{
				"x": 0.8047117306,
				"y": 0.8946134697,
				"z": 0.6987414089,
				"element": "C" 
			},
			{
				"x": 0.656970164,
				"y": -0.5061202137,
				"z": 0.5740166844,
				"element": "C" 
			},
			{
				"x": -0.6454649895,
				"y": -1.0025880464,
				"z": 0.3905250881,
				"element": "C" 
			},
			{
				"x": -1.7495327527,
				"y": -0.1616843354,
				"z": 0.3304132223,
				"element": "C" 
			},
			{
				"x": 1.8546166007,
				"y": -1.32078585,
				"z": 0.6536154309,
				"element": "C" 
			},
			{
				"x": 1.7552548803,
				"y": -2.8277981827,
				"z": 0.5174939766,
				"element": "C" 
			},
			{
				"x": 2.999496718,
				"y": -3.4948153092,
				"z": 0.4844634896,
				"element": "O" 
			},
			{
				"x": 3.0535715615,
				"y": -0.7209128949,
				"z": 0.8567688475,
				"element": "C" 
			},
			{
				"x": 3.2023036465,
				"y": 0.7211311411,
				"z": 0.977490677,
				"element": "C" 
			},
			{
				"x": 4.2366694255,
				"y": 1.3226730628,
				"z": 1.1467838752,
				"element": "O" 
			},
			{
				"x": 2.025901749,
				"y": 1.4712233798,
				"z": 0.8824018222,
				"element": "O" 
			},
			{
				"x": -4.2195499498,
				"y": 1.0210039003,
				"z": 1.047045969,
				"element": "H" 
			},
			{
				"x": -4.0237707045,
				"y": 1.151182301,
				"z": -0.7267691518,
				"element": "H" 
			},
			{
				"x": -4.5320830122,
				"y": 2.5719781507,
				"z": 0.2238697904,
				"element": "H" 
			},
			{
				"x": -0.1423952508,
				"y": 2.8235304055,
				"z": 0.7364082586,
				"element": "H" 
			},
			{
				"x": -0.8038612294,
				"y": -2.0719373817,
				"z": 0.2961676355,
				"element": "H" 
			},
			{
				"x": -2.7357399894,
				"y": -0.5854139636,
				"z": 0.1895080822,
				"element": "H" 
			},
			{
				"x": 1.1455965663,
				"y": -3.0689541672,
				"z": -0.3679806427,
				"element": "H" 
			},
			{
				"x": 1.2180082415,
				"y": -3.2315113469,
				"z": 1.3843306944,
				"element": "H" 
			},
			{
				"x": 3.453075019,
				"y": -3.2398591052,
				"z": -0.3300276513,
				"element": "H" 
			},
			{
				"x": 3.9637025069,
				"y": -1.2994512278,
				"z": 0.9507129531,
				"element": "H" 
			}
		],
		 "valence_orbital": [ 
			{
				"type": "occ",
				"energy": -0.29686,
				"method": "rhf"
			},
			{
				"type": "occ",
				"energy": -0.28709,
				"method": "rhf"
			},
			{
				"type": "occ",
				"energy": -0.26686,
				"method": "rhf"
			},
			{
				"type": "occ",
				"energy": -0.24928,
				"method": "rhf"
			},
			{
				"type": "occ",
				"energy": -0.22501,
				"method": "rhf"
			},
			{
				"type": "unocc",
				"energy": -0.0604,
				"method": "rhf"
			},
			{
				"type": "unocc",
				"energy": -0.01168,
				"method": "rhf"
			},
			{
				"type": "unocc",
				"energy": 0.00818,
				"method": "rhf"
			},
			{
				"type": "unocc",
				"energy": 0.06417,
				"method": "rhf"
			},
			{
				"type": "unocc",
				"energy": 0.07738,
				"method": "rhf"
			}
		],
		"cosmo_sigma_profile": { 
			"-0.025": 0.0,
			"-0.024": 0.0,
			"-0.023": 0.0,
			"-0.022": 0.0,
			"-0.021": 0.0,
			"-0.02": 0.0,
			"-0.019": 0.0,
			"-0.018": 0.0,
			"-0.017": 0.0624605876022,
			"-0.016": 0.958218892893,
			"-0.015": 0.900580798196,
			"-0.014": 0.774367424362,
			"-0.013": 0.825857936481,
			"-0.012": 1.24892329267,
			"-0.011": 0.878692930565,
			"-0.01": 1.02292396478,
			"-0.009": 0.876301248069,
			"-0.008": 4.13303083602,
			"-0.007": 11.4167452337,
			"-0.006": 18.6168251886,
			"-0.005": 18.677117843,
			"-0.004": 16.6267764548,
			"-0.003": 16.2247153386,
			"-0.002": 12.3096106359,
			"-0.001": 12.233480925,
			"0.0": 13.7791454192,
			"0.001": 15.372790369,
			"0.002": 19.3152905708,
			"0.003": 12.8269339908,
			"0.004": 7.62049104188,
			"0.005": 4.53615766962,
			"0.006": 4.58093520211,
			"0.007": 4.77417008545,
			"0.008": 4.15995845541,
			"0.009": 4.78643612967,
			"0.01": 5.15452080914,
			"0.011": 4.1497374417,
			"0.012": 7.31065833584,
			"0.013": 6.46564267543,
			"0.014": 0.621003286702,
			"0.015": 0.0,
			"0.016": 0.0,
			"0.017": 0.0,
			"0.018": 0.0,
			"0.019": 0.0,
			"0.02": 0.0,
			"0.021": 0.0,
			"0.022": 0.0,
			"0.023": 0.0,
			"0.024": 0.0,
			"0.025": 0.0
		}
	}
}
