{
	 "smiles": "CCS(=O)CC", 
	 "Tm": 287.15, 
	 "num_atms": 16, 
	 "gaussian": { 
		 "optdone": 1, 
		 "sigma_profile": "yes", 
		 "theory": "DFT", 
		 "functional": "B3LYP", 
		 "basiset": "6-31G**", 
		 "properties": { 
			 "R2extent": 957.2009, 
			 "electric_dipole_moment_norm": 3.6661227339, 
			 "electric_quadrupole_moment_norm": 2.94070587785, 
			 "total_energy": -631.822158918, 
			 "HOMO_LUMO_gap": 0.25639, 
			 "cosmo_polarized_energy": -11.22, 
			 "cosmo_cavitation_energy": 19.14, 
			 "cosmo_dispersion_energy": -14.86, 
			 "cosmo_repulsion_energy": 1.22, 
			 "cosmo_total_nonelectrostatic_energy": 5.5, 
			 "SMD_solvation_energy": 3.08 
		},
		"coords": [
			{
				"x": -0.6409775807,
				"y": 2.0182485619,
				"z": 0.4038300548,
				"element": "C" 
			},
			{
				"x": -1.2815813306,
				"y": 1.1248503086,
				"z": -0.6527468875,
				"element": "C" 
			},
			{
				"x": -0.7697966921,
				"y": -0.6650469917,
				"z": -0.5350030055,
				"element": "S" 
			},
			{
				"x": 0.6404236968,
				"y": -0.6899049936,
				"z": 0.0284514411,
				"element": "O" 
			},
			{
				"x": -1.9093105493,
				"y": -1.2558675605,
				"z": 0.816623403,
				"element": "C" 
			},
			{
				"x": -1.4385838609,
				"y": -0.8960384929,
				"z": 2.2215198668,
				"element": "C" 
			},
			{
				"x": -0.6655180471,
				"y": 3.0635625044,
				"z": 0.0808027438,
				"element": "H" 
			},
			{
				"x": -1.1519385425,
				"y": 1.9497397897,
				"z": 1.3667324398,
				"element": "H" 
			},
			{
				"x": 0.4018965926,
				"y": 1.7207282769,
				"z": 0.5485135143,
				"element": "H" 
			},
			{
				"x": -0.9419391196,
				"y": 1.4126603983,
				"z": -1.6529424114,
				"element": "H" 
			},
			{
				"x": -2.3761085669,
				"y": 1.1519807754,
				"z": -0.6544708283,
				"element": "H" 
			},
			{
				"x": -2.9140939325,
				"y": -0.8926825244,
				"z": 0.5770097678,
				"element": "H" 
			},
			{
				"x": -1.9089524543,
				"y": -2.3421713502,
				"z": 0.6802483529,
				"element": "H" 
			},
			{
				"x": -1.6829837798,
				"y": 0.13507311,
				"z": 2.4864511038,
				"element": "H" 
			},
			{
				"x": -0.3530629686,
				"y": -1.0180288789,
				"z": 2.2836946721,
				"element": "H" 
			},
			{
				"x": -1.9074728646,
				"y": -1.555102933,
				"z": 2.9586857725,
				"element": "H" 
			}
		],
		 "valence_orbital": [ 
			{
				"type": "occ",
				"energy": -0.35809,
				"method": "rhf"
			},
			{
				"type": "occ",
				"energy": -0.3451,
				"method": "rhf"
			},
			{
				"type": "occ",
				"energy": -0.33986,
				"method": "rhf"
			},
			{
				"type": "occ",
				"energy": -0.25593,
				"method": "rhf"
			},
			{
				"type": "occ",
				"energy": -0.21867,
				"method": "rhf"
			},
			{
				"type": "unocc",
				"energy": 0.03772,
				"method": "rhf"
			},
			{
				"type": "unocc",
				"energy": 0.05202,
				"method": "rhf"
			},
			{
				"type": "unocc",
				"energy": 0.07723,
				"method": "rhf"
			},
			{
				"type": "unocc",
				"energy": 0.08534,
				"method": "rhf"
			},
			{
				"type": "unocc",
				"energy": 0.10605,
				"method": "rhf"
			}
		],
		"cosmo_sigma_profile": { 
			"-0.025": 0.0,
			"-0.024": 0.0,
			"-0.023": 0.0,
			"-0.022": 0.0,
			"-0.021": 0.0,
			"-0.02": 0.0,
			"-0.019": 0.0,
			"-0.018": 0.0,
			"-0.017": 0.0,
			"-0.016": 0.0,
			"-0.015": 0.0,
			"-0.014": 0.0,
			"-0.013": 0.0,
			"-0.012": 0.0,
			"-0.011": 0.0,
			"-0.01": 0.0,
			"-0.009": 0.662375362497,
			"-0.008": 1.77423532407,
			"-0.007": 3.53661945975,
			"-0.006": 8.78968674715,
			"-0.005": 10.8281931785,
			"-0.004": 16.1549124326,
			"-0.003": 17.052899273,
			"-0.002": 16.51332016,
			"-0.001": 13.5221665868,
			"0.0": 16.7349077804,
			"0.001": 10.2815652437,
			"0.002": 3.17806544836,
			"0.003": 3.96304567521,
			"0.004": 3.24534005109,
			"0.005": 2.24277309032,
			"0.006": 0.962429538881,
			"0.007": 2.40760703216,
			"0.008": 1.68159897713,
			"0.009": 1.19074328515,
			"0.01": 1.20476835066,
			"0.011": 1.81542824592,
			"0.012": 1.71091863191,
			"0.013": 0.656697289515,
			"0.014": 3.59929826838,
			"0.015": 3.28602152898,
			"0.016": 2.85296038301,
			"0.017": 0.4814662168,
			"0.018": 0.0,
			"0.019": 0.0,
			"0.02": 0.0,
			"0.021": 0.0,
			"0.022": 0.0,
			"0.023": 0.0,
			"0.024": 0.0,
			"0.025": 0.0
		}
	}
}
