{
	 "smiles": "CC1=C(C)C=C(NS(=O)(=O)C2=CC=C(N)C=C2)C=C1", 
	 "Tm": 424.15, 
	 "num_atms": 35, 
	 "gaussian": { 
		 "optdone": 1, 
		 "sigma_profile": "yes", 
		 "theory": "DFT", 
		 "functional": "B3LYP", 
		 "basiset": "6-31G**", 
		 "properties": { 
			 "R2extent": 6607.382, 
			 "electric_dipole_moment_norm": 7.80428104953, 
			 "electric_quadrupole_moment_norm": 29.4190684021, 
			 "total_energy": -1201.22285835, 
			 "HOMO_LUMO_gap": 0.19077, 
			 "cosmo_polarized_energy": -21.73, 
			 "cosmo_cavitation_energy": 39.8, 
			 "cosmo_dispersion_energy": -27.82, 
			 "cosmo_repulsion_energy": 2.12, 
			 "cosmo_total_nonelectrostatic_energy": 14.1, 
			 "SMD_solvation_energy": 5.83 
		},
		"coords": [
			{
				"x": -2.0428868289,
				"y": 0.5311484239,
				"z": 3.5610224696,
				"element": "C" 
			},
			{
				"x": -1.176925577,
				"y": 0.927240619,
				"z": 2.3893207888,
				"element": "C" 
			},
			{
				"x": 0.2304734361,
				"y": 0.9726125279,
				"z": 2.5053486139,
				"element": "C" 
			},
			{
				"x": 0.9073116608,
				"y": 0.6288030973,
				"z": 3.8114244833,
				"element": "C" 
			},
			{
				"x": 1.0038560031,
				"y": 1.3615895495,
				"z": 1.4088865185,
				"element": "C" 
			},
			{
				"x": 0.4083231082,
				"y": 1.6807475553,
				"z": 0.1809574825,
				"element": "C" 
			},
			{
				"x": 1.2014692369,
				"y": 2.1160651442,
				"z": -0.9175978279,
				"element": "N" 
			},
			{
				"x": 2.4607055414,
				"y": 1.1769680098,
				"z": -1.5832140089,
				"element": "S" 
			},
			{
				"x": 3.383822897,
				"y": 0.8722635753,
				"z": -0.4894020048,
				"element": "O" 
			},
			{
				"x": 2.865781068,
				"y": 1.9421511395,
				"z": -2.7646634762,
				"element": "O" 
			},
			{
				"x": 1.7442765789,
				"y": -0.3590529625,
				"z": -2.1348299286,
				"element": "C" 
			},
			{
				"x": 1.2902199113,
				"y": -0.4755227977,
				"z": -3.4531147934,
				"element": "C" 
			},
			{
				"x": 0.7045242748,
				"y": -1.6590253012,
				"z": -3.8807789562,
				"element": "C" 
			},
			{
				"x": 0.558559826,
				"y": -2.7478889926,
				"z": -2.997466685,
				"element": "C" 
			},
			{
				"x": 0.0197573862,
				"y": -3.9443434671,
				"z": -3.4371845812,
				"element": "N" 
			},
			{
				"x": 1.0257377865,
				"y": -2.6146332046,
				"z": -1.6745053329,
				"element": "C" 
			},
			{
				"x": 1.6147526221,
				"y": -1.4326811578,
				"z": -1.2467210724,
				"element": "C" 
			},
			{
				"x": -0.9830524332,
				"y": 1.6255847432,
				"z": 0.0608218328,
				"element": "C" 
			},
			{
				"x": -1.7567069077,
				"y": 1.2656369608,
				"z": 1.1630040696,
				"element": "C" 
			},
			{
				"x": -3.1020613656,
				"y": 0.5448059399,
				"z": 3.2902137777,
				"element": "H" 
			},
			{
				"x": -1.803955167,
				"y": -0.4767814606,
				"z": 3.9222582783,
				"element": "H" 
			},
			{
				"x": -1.9089517185,
				"y": 1.2087383633,
				"z": 4.4133055537,
				"element": "H" 
			},
			{
				"x": 1.9929533614,
				"y": 0.7206470879,
				"z": 3.7291826634,
				"element": "H" 
			},
			{
				"x": 0.5752123468,
				"y": 1.2865357001,
				"z": 4.6238946489,
				"element": "H" 
			},
			{
				"x": 0.6800990699,
				"y": -0.3972475661,
				"z": 4.125960099,
				"element": "H" 
			},
			{
				"x": 2.0823603051,
				"y": 1.4245660134,
				"z": 1.4978524719,
				"element": "H" 
			},
			{
				"x": 0.6749600056,
				"y": 2.537331637,
				"z": -1.6766795018,
				"element": "H" 
			},
			{
				"x": 1.4187283501,
				"y": 0.354599255,
				"z": -4.1395956854,
				"element": "H" 
			},
			{
				"x": 0.3664741397,
				"y": -1.754830864,
				"z": -4.9092646391,
				"element": "H" 
			},
			{
				"x": -0.5518087887,
				"y": -3.910553457,
				"z": -4.2681849465,
				"element": "H" 
			},
			{
				"x": -0.32970138,
				"y": -4.5750632835,
				"z": -2.7311471138,
				"element": "H" 
			},
			{
				"x": 0.9337312862,
				"y": -3.451849787,
				"z": -0.9876997498,
				"element": "H" 
			},
			{
				"x": 1.9880567861,
				"y": -1.3415542018,
				"z": -0.2330825899,
				"element": "H" 
			},
			{
				"x": -1.4587268275,
				"y": 1.865712625,
				"z": -0.8868126857,
				"element": "H" 
			},
			{
				"x": -2.838869994,
				"y": 1.2362805361,
				"z": 1.0623918274,
				"element": "H" 
			}
		],
		 "valence_orbital": [ 
			{
				"type": "occ",
				"energy": -0.29077,
				"method": "rhf"
			},
			{
				"type": "occ",
				"energy": -0.26597,
				"method": "rhf"
			},
			{
				"type": "occ",
				"energy": -0.24342,
				"method": "rhf"
			},
			{
				"type": "occ",
				"energy": -0.22668,
				"method": "rhf"
			},
			{
				"type": "occ",
				"energy": -0.21376,
				"method": "rhf"
			},
			{
				"type": "unocc",
				"energy": -0.02299,
				"method": "rhf"
			},
			{
				"type": "unocc",
				"energy": -0.01532,
				"method": "rhf"
			},
			{
				"type": "unocc",
				"energy": 0.00069,
				"method": "rhf"
			},
			{
				"type": "unocc",
				"energy": 0.00256,
				"method": "rhf"
			},
			{
				"type": "unocc",
				"energy": 0.06161,
				"method": "rhf"
			}
		],
		"cosmo_sigma_profile": { 
			"-0.025": 0.0,
			"-0.024": 0.0,
			"-0.023": 0.0,
			"-0.022": 0.0,
			"-0.021": 0.0,
			"-0.02": 0.0,
			"-0.019": 0.0,
			"-0.018": 0.0,
			"-0.017": 0.0,
			"-0.016": 0.0,
			"-0.015": 0.64824033514,
			"-0.014": 1.25029173939,
			"-0.013": 3.55822608386,
			"-0.012": 4.56574024501,
			"-0.011": 4.38863289197,
			"-0.01": 4.58309943542,
			"-0.009": 3.96211333097,
			"-0.008": 4.44845828789,
			"-0.007": 6.65773744453,
			"-0.006": 9.717276313,
			"-0.005": 14.9807454075,
			"-0.004": 23.4521475272,
			"-0.003": 21.9021652176,
			"-0.002": 21.8741804479,
			"-0.001": 20.6384154534,
			"0.0": 26.2086735198,
			"0.001": 19.6199802875,
			"0.002": 18.5064084499,
			"0.003": 18.7080755845,
			"0.004": 25.6563422606,
			"0.005": 15.0171005918,
			"0.006": 8.93207234869,
			"0.007": 6.54242833691,
			"0.008": 4.06780713151,
			"0.009": 4.55744684407,
			"0.01": 7.11707602383,
			"0.011": 9.15758483341,
			"0.012": 4.71203552341,
			"0.013": 0.0530063332557,
			"0.014": 0.0,
			"0.015": 0.0,
			"0.016": 0.0,
			"0.017": 0.0,
			"0.018": 0.0,
			"0.019": 0.0,
			"0.02": 0.0,
			"0.021": 0.0,
			"0.022": 0.0,
			"0.023": 0.0,
			"0.024": 0.0,
			"0.025": 0.0
		}
	}
}
