{
	 "smiles": "OC12CC3=C(C=CC=C3)C(O)(CC3=C1C=CC=C3)O2", 
	 "Tm": 437.15, 
	 "num_atms": 33, 
	 "gaussian": { 
		 "optdone": 1, 
		 "sigma_profile": "yes", 
		 "theory": "DFT", 
		 "functional": "B3LYP", 
		 "basiset": "6-31G**", 
		 "properties": { 
			 "R2extent": 4288.7497, 
			 "electric_dipole_moment_norm": 1.4911594851, 
			 "electric_quadrupole_moment_norm": 7.60626265389, 
			 "total_energy": -843.821480489, 
			 "HOMO_LUMO_gap": 0.22555, 
			 "cosmo_polarized_energy": -12.75, 
			 "cosmo_cavitation_energy": 34.38, 
			 "cosmo_dispersion_energy": -24.82, 
			 "cosmo_repulsion_energy": 1.87, 
			 "cosmo_total_nonelectrostatic_energy": 11.43, 
			 "SMD_solvation_energy": 5.05 
		},
		"coords": [
			{
				"x": -1.4465917457,
				"y": -2.0271186863,
				"z": 1.9131361002,
				"element": "O" 
			},
			{
				"x": -0.5386075118,
				"y": -1.2160447498,
				"z": 1.2223342528,
				"element": "C" 
			},
			{
				"x": -0.0509896951,
				"y": -2.0317620237,
				"z": 0.0200104458,
				"element": "C" 
			},
			{
				"x": 1.2076416386,
				"y": -1.4393794631,
				"z": -0.5740535843,
				"element": "C" 
			},
			{
				"x": 1.9840299531,
				"y": -0.5353910862,
				"z": 0.1672473868,
				"element": "C" 
			},
			{
				"x": 3.1700184291,
				"y": -0.0252137388,
				"z": -0.3762406465,
				"element": "C" 
			},
			{
				"x": 3.5880655857,
				"y": -0.4024741252,
				"z": -1.6501193926,
				"element": "C" 
			},
			{
				"x": 2.813521699,
				"y": -1.2957716517,
				"z": -2.3948098186,
				"element": "C" 
			},
			{
				"x": 1.6342408293,
				"y": -1.8064154421,
				"z": -1.857014121,
				"element": "C" 
			},
			{
				"x": 1.5443514531,
				"y": -0.0848775014,
				"z": 1.5626101877,
				"element": "C" 
			},
			{
				"x": 2.6192465264,
				"y": -0.0586609267,
				"z": 2.4588733422,
				"element": "O" 
			},
			{
				"x": 0.931304477,
				"y": 1.3197595886,
				"z": 1.5741296379,
				"element": "C" 
			},
			{
				"x": -0.4537535442,
				"y": 1.3217351278,
				"z": 0.9662522808,
				"element": "C" 
			},
			{
				"x": -1.1671074518,
				"y": 0.1216362088,
				"z": 0.8236878616,
				"element": "C" 
			},
			{
				"x": -2.465406726,
				"y": 0.1399188975,
				"z": 0.2980443683,
				"element": "C" 
			},
			{
				"x": -3.0581666642,
				"y": 1.3389501491,
				"z": -0.0902892921,
				"element": "C" 
			},
			{
				"x": -2.3480959471,
				"y": 2.5350727758,
				"z": 0.0422153658,
				"element": "C" 
			},
			{
				"x": -1.0573500508,
				"y": 2.5210035657,
				"z": 0.5660718057,
				"element": "C" 
			},
			{
				"x": 0.5766458731,
				"y": -0.9974301621,
				"z": 2.0939635899,
				"element": "O" 
			},
			{
				"x": -1.7575283749,
				"y": -1.5202631977,
				"z": 2.6773240278,
				"element": "H" 
			},
			{
				"x": 0.1433267194,
				"y": -3.0461287745,
				"z": 0.3898285109,
				"element": "H" 
			},
			{
				"x": -0.84076951,
				"y": -2.1055507801,
				"z": -0.7343377616,
				"element": "H" 
			},
			{
				"x": 3.7680003481,
				"y": 0.6600680104,
				"z": 0.2174099155,
				"element": "H" 
			},
			{
				"x": 4.5115009347,
				"y": -0.0038313899,
				"z": -2.0601810769,
				"element": "H" 
			},
			{
				"x": 3.1279347004,
				"y": -1.5928822189,
				"z": -3.3912861282,
				"element": "H" 
			},
			{
				"x": 1.0324289363,
				"y": -2.5030456688,
				"z": -2.435850026,
				"element": "H" 
			},
			{
				"x": 3.0108140303,
				"y": -0.9442337095,
				"z": 2.4605007531,
				"element": "H" 
			},
			{
				"x": 1.5868319473,
				"y": 2.0244538788,
				"z": 1.0526687794,
				"element": "H" 
			},
			{
				"x": 0.8865531768,
				"y": 1.6315926611,
				"z": 2.6249547371,
				"element": "H" 
			},
			{
				"x": -3.0100451173,
				"y": -0.7956453358,
				"z": 0.2103446201,
				"element": "H" 
			},
			{
				"x": -4.0669340218,
				"y": 1.3420396829,
				"z": -0.493000485,
				"element": "H" 
			},
			{
				"x": -2.7992444956,
				"y": 3.4752829802,
				"z": -0.2620343837,
				"element": "H" 
			},
			{
				"x": -0.5054664015,
				"y": 3.4521071059,
				"z": 0.6709087468,
				"element": "H" 
			}
		],
		 "valence_orbital": [ 
			{
				"type": "occ",
				"energy": -0.25604,
				"method": "rhf"
			},
			{
				"type": "occ",
				"energy": -0.2504,
				"method": "rhf"
			},
			{
				"type": "occ",
				"energy": -0.24629,
				"method": "rhf"
			},
			{
				"type": "occ",
				"energy": -0.24345,
				"method": "rhf"
			},
			{
				"type": "occ",
				"energy": -0.24069,
				"method": "rhf"
			},
			{
				"type": "unocc",
				"energy": -0.01514,
				"method": "rhf"
			},
			{
				"type": "unocc",
				"energy": -0.00538,
				"method": "rhf"
			},
			{
				"type": "unocc",
				"energy": -0.00356,
				"method": "rhf"
			},
			{
				"type": "unocc",
				"energy": 0.00223,
				"method": "rhf"
			},
			{
				"type": "unocc",
				"energy": 0.09303,
				"method": "rhf"
			}
		],
		"cosmo_sigma_profile": { 
			"-0.025": 0.0,
			"-0.024": 0.0,
			"-0.023": 0.0,
			"-0.022": 0.0,
			"-0.021": 0.0,
			"-0.02": 0.0,
			"-0.019": 0.0,
			"-0.018": 0.0,
			"-0.017": 0.0601849096751,
			"-0.016": 1.23425571966,
			"-0.015": 1.63534897306,
			"-0.014": 1.52792886757,
			"-0.013": 1.44571945061,
			"-0.012": 1.29619957937,
			"-0.011": 1.21464291214,
			"-0.01": 0.815290608693,
			"-0.009": 1.75735405208,
			"-0.008": 2.15677897984,
			"-0.007": 0.809540733781,
			"-0.006": 7.31131831266,
			"-0.005": 22.7619576067,
			"-0.004": 28.8384628243,
			"-0.003": 25.1459503421,
			"-0.002": 20.2851249278,
			"-0.001": 16.9807333696,
			"0.0": 16.8614145494,
			"0.001": 15.8854549941,
			"0.002": 15.7876108519,
			"0.003": 16.4673675191,
			"0.004": 18.3797280168,
			"0.005": 19.6734459766,
			"0.006": 10.4078435996,
			"0.007": 2.36558114002,
			"0.008": 2.90727916704,
			"0.009": 2.83872746853,
			"0.01": 3.24544113896,
			"0.011": 5.94449487052,
			"0.012": 5.19598978547,
			"0.013": 0.692137771289,
			"0.014": 0.0,
			"0.015": 0.0,
			"0.016": 0.0,
			"0.017": 0.0,
			"0.018": 0.0,
			"0.019": 0.0,
			"0.02": 0.0,
			"0.021": 0.0,
			"0.022": 0.0,
			"0.023": 0.0,
			"0.024": 0.0,
			"0.025": 0.0
		}
	}
}
