{
	 "smiles": "CCOC(=O)C1=CN=C(SC)N=C1Cl", 
	 "Tm": 335.15, 
	 "num_atms": 23, 
	 "gaussian": { 
		 "optdone": 1, 
		 "sigma_profile": "yes", 
		 "theory": "DFT", 
		 "functional": "B3LYP", 
		 "basiset": "6-31G**", 
		 "properties": { 
			 "R2extent": 5073.5113, 
			 "electric_dipole_moment_norm": 1.24479113107, 
			 "electric_quadrupole_moment_norm": 21.0717670384, 
			 "total_energy": -1428.61459862, 
			 "HOMO_LUMO_gap": 0.17429, 
			 "cosmo_polarized_energy": -9.42, 
			 "cosmo_cavitation_energy": 31.41, 
			 "cosmo_dispersion_energy": -23.32, 
			 "cosmo_repulsion_energy": 1.82, 
			 "cosmo_total_nonelectrostatic_energy": 9.9, 
			 "SMD_solvation_energy": 4.06 
		},
		"coords": [
			{
				"x": 4.7328334896,
				"y": 0.1012162939,
				"z": 2.1374425312,
				"element": "C" 
			},
			{
				"x": 3.3317403772,
				"y": -0.4571414863,
				"z": 2.2916917976,
				"element": "C" 
			},
			{
				"x": 2.5976329986,
				"y": -0.1241216138,
				"z": 1.0863764529,
				"element": "O" 
			},
			{
				"x": 1.3272047937,
				"y": -0.5430075511,
				"z": 1.0449293973,
				"element": "C" 
			},
			{
				"x": 0.7932234823,
				"y": -1.1666640033,
				"z": 1.9447573714,
				"element": "O" 
			},
			{
				"x": 0.596372288,
				"y": -0.1857655779,
				"z": -0.2093696262,
				"element": "C" 
			},
			{
				"x": -0.7347690782,
				"y": -0.629511778,
				"z": -0.2787228046,
				"element": "C" 
			},
			{
				"x": -1.5509417814,
				"y": -0.414830863,
				"z": -1.3082258703,
				"element": "N" 
			},
			{
				"x": -1.0182860066,
				"y": 0.2775098019,
				"z": -2.3235669115,
				"element": "C" 
			},
			{
				"x": -1.9880347103,
				"y": 0.6319992221,
				"z": -3.7501610108,
				"element": "S" 
			},
			{
				"x": -3.575865594,
				"y": -0.1543438859,
				"z": -3.3150777065,
				"element": "C" 
			},
			{
				"x": 0.2337166816,
				"y": 0.757427355,
				"z": -2.3824788581,
				"element": "N" 
			},
			{
				"x": 1.0223142224,
				"y": 0.5310776341,
				"z": -1.3495580746,
				"element": "C" 
			},
			{
				"x": 2.6309135063,
				"y": 1.1958530951,
				"z": -1.5175802227,
				"element": "Cl" 
			},
			{
				"x": 4.7099694282,
				"y": 1.1871821383,
				"z": 2.0115749067,
				"element": "H" 
			},
			{
				"x": 5.2353881903,
				"y": -0.3361342407,
				"z": 1.2703419137,
				"element": "H" 
			},
			{
				"x": 5.3211605956,
				"y": -0.1305173017,
				"z": 3.0306846108,
				"element": "H" 
			},
			{
				"x": 2.805643508,
				"y": -0.0283598163,
				"z": 3.1499968795,
				"element": "H" 
			},
			{
				"x": 3.3287251621,
				"y": -1.5446684257,
				"z": 2.4124789781,
				"element": "H" 
			},
			{
				"x": -1.1297007968,
				"y": -1.187817797,
				"z": 0.565727943,
				"element": "H" 
			},
			{
				"x": -4.2353576038,
				"y": 0.0277013105,
				"z": -4.166297799,
				"element": "H" 
			},
			{
				"x": -3.9957166631,
				"y": 0.2944602046,
				"z": -2.4147739369,
				"element": "H" 
			},
			{
				"x": -3.4479664897,
				"y": -1.2263427148,
				"z": -3.1643899609,
				"element": "H" 
			}
		],
		 "valence_orbital": [ 
			{
				"type": "occ",
				"energy": -0.31041,
				"method": "rhf"
			},
			{
				"type": "occ",
				"energy": -0.29701,
				"method": "rhf"
			},
			{
				"type": "occ",
				"energy": -0.28499,
				"method": "rhf"
			},
			{
				"type": "occ",
				"energy": -0.27474,
				"method": "rhf"
			},
			{
				"type": "occ",
				"energy": -0.24398,
				"method": "rhf"
			},
			{
				"type": "unocc",
				"energy": -0.06969,
				"method": "rhf"
			},
			{
				"type": "unocc",
				"energy": -0.05543,
				"method": "rhf"
			},
			{
				"type": "unocc",
				"energy": 0.021,
				"method": "rhf"
			},
			{
				"type": "unocc",
				"energy": 0.02799,
				"method": "rhf"
			},
			{
				"type": "unocc",
				"energy": 0.02965,
				"method": "rhf"
			}
		],
		"cosmo_sigma_profile": { 
			"-0.025": 0.0,
			"-0.024": 0.0,
			"-0.023": 0.0,
			"-0.022": 0.0,
			"-0.021": 0.0,
			"-0.02": 0.0,
			"-0.019": 0.0,
			"-0.018": 0.0,
			"-0.017": 0.0,
			"-0.016": 0.0,
			"-0.015": 0.0,
			"-0.014": 0.0,
			"-0.013": 0.0,
			"-0.012": 0.0,
			"-0.011": 0.0,
			"-0.01": 0.0,
			"-0.009": 0.0,
			"-0.008": 1.72414986778,
			"-0.007": 3.62584740125,
			"-0.006": 8.11138153971,
			"-0.005": 17.3871638939,
			"-0.004": 29.4179764277,
			"-0.003": 30.2023082042,
			"-0.002": 26.6833794809,
			"-0.001": 19.3559746764,
			"0.0": 18.4815009913,
			"0.001": 12.9494950188,
			"0.002": 13.4359394781,
			"0.003": 16.7961163515,
			"0.004": 15.4975439635,
			"0.005": 10.3062668956,
			"0.006": 8.57932551889,
			"0.007": 5.51258837061,
			"0.008": 3.80362430794,
			"0.009": 2.52488617461,
			"0.01": 4.30996320115,
			"0.011": 4.66718455521,
			"0.012": 1.55347754191,
			"0.013": 0.0,
			"0.014": 0.0,
			"0.015": 0.0,
			"0.016": 0.0,
			"0.017": 0.0,
			"0.018": 0.0,
			"0.019": 0.0,
			"0.02": 0.0,
			"0.021": 0.0,
			"0.022": 0.0,
			"0.023": 0.0,
			"0.024": 0.0,
			"0.025": 0.0
		}
	}
}
