{
	 "smiles": "CC(=O)OC1=CC2=C(C=C1)C(C)=CC(=O)O2", 
	 "Tm": 427.15, 
	 "num_atms": 26, 
	 "gaussian": { 
		 "optdone": 1, 
		 "sigma_profile": "yes", 
		 "theory": "DFT", 
		 "functional": "B3LYP", 
		 "basiset": "6-31G**", 
		 "properties": { 
			 "R2extent": 4833.0815, 
			 "electric_dipole_moment_norm": 4.29748154504, 
			 "electric_quadrupole_moment_norm": 26.3548985487, 
			 "total_energy": -764.220601223, 
			 "HOMO_LUMO_gap": 0.16804, 
			 "cosmo_polarized_energy": -14.34, 
			 "cosmo_cavitation_energy": 31.1, 
			 "cosmo_dispersion_energy": -22.79, 
			 "cosmo_repulsion_energy": 1.76, 
			 "cosmo_total_nonelectrostatic_energy": 10.07, 
			 "SMD_solvation_energy": 7.84 
		},
		"coords": [
			{
				"x": 2.7594899509,
				"y": -3.6595663883,
				"z": 2.1457483731,
				"element": "C" 
			},
			{
				"x": 1.7357308834,
				"y": -2.5845781651,
				"z": 2.4082482154,
				"element": "C" 
			},
			{
				"x": 1.0750225876,
				"y": -2.4602135511,
				"z": 3.4085855965,
				"element": "O" 
			},
			{
				"x": 1.659324161,
				"y": -1.7546256069,
				"z": 1.3148279516,
				"element": "O" 
			},
			{
				"x": 0.7922119988,
				"y": -0.6708419286,
				"z": 1.2572045731,
				"element": "C" 
			},
			{
				"x": 0.2867609525,
				"y": -0.3967208402,
				"z": -0.008730793,
				"element": "C" 
			},
			{
				"x": -0.5376246829,
				"y": 0.7138449751,
				"z": -0.1834260401,
				"element": "C" 
			},
			{
				"x": -0.8697549678,
				"y": 1.5608708519,
				"z": 0.8934364627,
				"element": "C" 
			},
			{
				"x": -0.332683279,
				"y": 1.2486995505,
				"z": 2.1565157745,
				"element": "C" 
			},
			{
				"x": 0.4926817503,
				"y": 0.1504930575,
				"z": 2.3542691353,
				"element": "C" 
			},
			{
				"x": -1.7393299603,
				"y": 2.6958219975,
				"z": 0.6261307629,
				"element": "C" 
			},
			{
				"x": -2.1271439307,
				"y": 3.6305220378,
				"z": 1.7394497388,
				"element": "C" 
			},
			{
				"x": -2.1863215184,
				"y": 2.8857256971,
				"z": -0.6414005134,
				"element": "C" 
			},
			{
				"x": -1.8397748994,
				"y": 2.010068609,
				"z": -1.7514165406,
				"element": "C" 
			},
			{
				"x": -2.2050665071,
				"y": 2.1285786776,
				"z": -2.8970708447,
				"element": "O" 
			},
			{
				"x": -1.0028195471,
				"y": 0.9334012096,
				"z": -1.4445536934,
				"element": "O" 
			},
			{
				"x": 2.8360152271,
				"y": -4.3048799519,
				"z": 3.0199394435,
				"element": "H" 
			},
			{
				"x": 3.7306971802,
				"y": -3.2072487091,
				"z": 1.9249901828,
				"element": "H" 
			},
			{
				"x": 2.4678549378,
				"y": -4.2479093292,
				"z": 1.2707380265,
				"element": "H" 
			},
			{
				"x": 0.5301611111,
				"y": -1.0308500922,
				"z": -0.852638693,
				"element": "H" 
			},
			{
				"x": -0.5676375373,
				"y": 1.8828706354,
				"z": 3.0045227967,
				"element": "H" 
			},
			{
				"x": 0.884972013,
				"y": -0.0772684327,
				"z": 3.3344935579,
				"element": "H" 
			},
			{
				"x": -2.6525072039,
				"y": 3.0944913899,
				"z": 2.5380598793,
				"element": "H" 
			},
			{
				"x": -1.2423418868,
				"y": 4.0941855656,
				"z": 2.1903966633,
				"element": "H" 
			},
			{
				"x": -2.7804070507,
				"y": 4.4250949039,
				"z": 1.3735349989,
				"element": "H" 
			},
			{
				"x": -2.8364097821,
				"y": 3.714133837,
				"z": -0.8990550145,
				"element": "H" 
			}
		],
		 "valence_orbital": [ 
			{
				"type": "occ",
				"energy": -0.29878,
				"method": "rhf"
			},
			{
				"type": "occ",
				"energy": -0.29037,
				"method": "rhf"
			},
			{
				"type": "occ",
				"energy": -0.27095,
				"method": "rhf"
			},
			{
				"type": "occ",
				"energy": -0.25628,
				"method": "rhf"
			},
			{
				"type": "occ",
				"energy": -0.23381,
				"method": "rhf"
			},
			{
				"type": "unocc",
				"energy": -0.06577,
				"method": "rhf"
			},
			{
				"type": "unocc",
				"energy": -0.01972,
				"method": "rhf"
			},
			{
				"type": "unocc",
				"energy": -0.00935,
				"method": "rhf"
			},
			{
				"type": "unocc",
				"energy": 0.01108,
				"method": "rhf"
			},
			{
				"type": "unocc",
				"energy": 0.07889,
				"method": "rhf"
			}
		],
		"cosmo_sigma_profile": { 
			"-0.025": 0.0,
			"-0.024": 0.0,
			"-0.023": 0.0,
			"-0.022": 0.0,
			"-0.021": 0.0,
			"-0.02": 0.0,
			"-0.019": 0.0,
			"-0.018": 0.0,
			"-0.017": 0.0,
			"-0.016": 0.0,
			"-0.015": 0.0,
			"-0.014": 0.0,
			"-0.013": 0.0,
			"-0.012": 0.0,
			"-0.011": 0.0,
			"-0.01": 0.0,
			"-0.009": 0.0136186400187,
			"-0.008": 1.55355849845,
			"-0.007": 9.67179241365,
			"-0.006": 18.7540900179,
			"-0.005": 20.8560545776,
			"-0.004": 20.2592642713,
			"-0.003": 21.5676362111,
			"-0.002": 22.7008910807,
			"-0.001": 21.6137899862,
			"0.0": 18.0765204291,
			"0.001": 21.8773958395,
			"0.002": 13.6434879029,
			"0.003": 8.38126400674,
			"0.004": 5.29474142039,
			"0.005": 4.43288365486,
			"0.006": 4.99525547782,
			"0.007": 4.26382897511,
			"0.008": 3.96239088637,
			"0.009": 3.90262899294,
			"0.01": 5.96748821276,
			"0.011": 6.78339594296,
			"0.012": 7.11729704885,
			"0.013": 3.26902928347,
			"0.014": 0.126971897266,
			"0.015": 0.0,
			"0.016": 0.0,
			"0.017": 0.0,
			"0.018": 0.0,
			"0.019": 0.0,
			"0.02": 0.0,
			"0.021": 0.0,
			"0.022": 0.0,
			"0.023": 0.0,
			"0.024": 0.0,
			"0.025": 0.0
		}
	}
}
