{
	 "smiles": "COC1=C(NC(=O)C2=C(N)NN=C2C)C=CC=C1", 
	 "Tm": 453.15, 
	 "num_atms": 32, 
	 "gaussian": { 
		 "optdone": 1, 
		 "sigma_profile": "yes", 
		 "theory": "DFT", 
		 "functional": "B3LYP", 
		 "basiset": "6-31G**", 
		 "properties": { 
			 "R2extent": 6083.5308, 
			 "electric_dipole_moment_norm": 6.84332669175, 
			 "electric_quadrupole_moment_norm": 13.758759242, 
			 "total_energy": -835.165700982, 
			 "HOMO_LUMO_gap": 0.18915, 
			 "cosmo_polarized_energy": -23.34, 
			 "cosmo_cavitation_energy": 35.81, 
			 "cosmo_dispersion_energy": -25.82, 
			 "cosmo_repulsion_energy": 1.98, 
			 "cosmo_total_nonelectrostatic_energy": 11.97, 
			 "SMD_solvation_energy": 6.33 
		},
		"coords": [
			{
				"x": 2.4925591092,
				"y": 0.8213154772,
				"z": 2.1484658601,
				"element": "C" 
			},
			{
				"x": 1.3308238762,
				"y": 0.228256634,
				"z": 1.5903108373,
				"element": "O" 
			},
			{
				"x": 1.0136093801,
				"y": -1.0596400416,
				"z": 1.9598769236,
				"element": "C" 
			},
			{
				"x": -0.2181591123,
				"y": -1.5334171798,
				"z": 1.4450360083,
				"element": "C" 
			},
			{
				"x": -0.9358236039,
				"y": -0.6314152027,
				"z": 0.6389349758,
				"element": "N" 
			},
			{
				"x": -2.1565276223,
				"y": -0.8288993851,
				"z": 0.0023179473,
				"element": "C" 
			},
			{
				"x": -2.8152660118,
				"y": -1.86041455,
				"z": 0.1167403116,
				"element": "O" 
			},
			{
				"x": -2.5929731778,
				"y": 0.298736481,
				"z": -0.8338866317,
				"element": "C" 
			},
			{
				"x": -1.8360707771,
				"y": 1.3281612756,
				"z": -1.4033104088,
				"element": "C" 
			},
			{
				"x": -0.4840348221,
				"y": 1.6362708077,
				"z": -1.3044473961,
				"element": "N" 
			},
			{
				"x": -2.7067709299,
				"y": 2.0890216287,
				"z": -2.1053776609,
				"element": "N" 
			},
			{
				"x": -3.9997028118,
				"y": 1.6309095672,
				"z": -2.0423943831,
				"element": "N" 
			},
			{
				"x": -3.9303535354,
				"y": 0.5445230927,
				"z": -1.2895876876,
				"element": "C" 
			},
			{
				"x": -5.1591060237,
				"y": -0.2574452014,
				"z": -0.9987104213,
				"element": "C" 
			},
			{
				"x": -0.6229722932,
				"y": -2.8368560194,
				"z": 1.7489634523,
				"element": "C" 
			},
			{
				"x": 0.1825973134,
				"y": -3.6491676284,
				"z": 2.5531543086,
				"element": "C" 
			},
			{
				"x": 1.3861475527,
				"y": -3.1740933225,
				"z": 3.0630731077,
				"element": "C" 
			},
			{
				"x": 1.8050824272,
				"y": -1.8714275107,
				"z": 2.7668896006,
				"element": "C" 
			},
			{
				"x": 2.4433857396,
				"y": 0.8456749378,
				"z": 3.2441360368,
				"element": "H" 
			},
			{
				"x": 3.4025121669,
				"y": 0.2899944526,
				"z": 1.8420201485,
				"element": "H" 
			},
			{
				"x": 2.525671804,
				"y": 1.842544741,
				"z": 1.7654764306,
				"element": "H" 
			},
			{
				"x": -0.5904074888,
				"y": 0.3182542533,
				"z": 0.6916856612,
				"element": "H" 
			},
			{
				"x": -0.1281789159,
				"y": 2.2138055851,
				"z": -2.0563145928,
				"element": "H" 
			},
			{
				"x": 0.1031731097,
				"y": 0.8219065611,
				"z": -1.1660837361,
				"element": "H" 
			},
			{
				"x": -2.5133170926,
				"y": 2.9325284557,
				"z": -2.6216047846,
				"element": "H" 
			},
			{
				"x": -6.0219503503,
				"y": 0.2114893478,
				"z": -1.4768682144,
				"element": "H" 
			},
			{
				"x": -5.3388485603,
				"y": -0.3266236613,
				"z": 0.0788242593,
				"element": "H" 
			},
			{
				"x": -5.0480056295,
				"y": -1.2828020346,
				"z": -1.360726886,
				"element": "H" 
			},
			{
				"x": -1.5656399599,
				"y": -3.1891738739,
				"z": 1.3555624473,
				"element": "H" 
			},
			{
				"x": -0.1464826231,
				"y": -4.6584657905,
				"z": 2.7809945669,
				"element": "H" 
			},
			{
				"x": 2.007677255,
				"y": -3.8044859837,
				"z": 3.6916608488,
				"element": "H" 
			},
			{
				"x": 2.7449516077,
				"y": -1.5038659129,
				"z": 3.1618890706,
				"element": "H" 
			}
		],
		 "valence_orbital": [ 
			{
				"type": "occ",
				"energy": -0.24882,
				"method": "rhf"
			},
			{
				"type": "occ",
				"energy": -0.24117,
				"method": "rhf"
			},
			{
				"type": "occ",
				"energy": -0.23314,
				"method": "rhf"
			},
			{
				"type": "occ",
				"energy": -0.21714,
				"method": "rhf"
			},
			{
				"type": "occ",
				"energy": -0.20151,
				"method": "rhf"
			},
			{
				"type": "unocc",
				"energy": -0.01236,
				"method": "rhf"
			},
			{
				"type": "unocc",
				"energy": 0.01421,
				"method": "rhf"
			},
			{
				"type": "unocc",
				"energy": 0.02888,
				"method": "rhf"
			},
			{
				"type": "unocc",
				"energy": 0.03941,
				"method": "rhf"
			},
			{
				"type": "unocc",
				"energy": 0.0542,
				"method": "rhf"
			}
		],
		"cosmo_sigma_profile": { 
			"-0.025": 0.0,
			"-0.024": 0.0,
			"-0.023": 0.0,
			"-0.022": 0.0,
			"-0.021": 0.0,
			"-0.02": 0.0,
			"-0.019": 0.0,
			"-0.018": 0.00188785627916,
			"-0.017": 1.60298330215,
			"-0.016": 2.72281860981,
			"-0.015": 2.33699204128,
			"-0.014": 2.25049705267,
			"-0.013": 2.49872997582,
			"-0.012": 2.69387610139,
			"-0.011": 2.92128183117,
			"-0.01": 3.01154596851,
			"-0.009": 2.04052260073,
			"-0.008": 2.91706920254,
			"-0.007": 3.34952931669,
			"-0.006": 9.59423874267,
			"-0.005": 18.1784798522,
			"-0.004": 19.8952610138,
			"-0.003": 21.0996020596,
			"-0.002": 17.6217465941,
			"-0.001": 15.4985018926,
			"0.0": 19.5439764193,
			"0.001": 18.3036781944,
			"0.002": 18.6951135782,
			"0.003": 20.3582997877,
			"0.004": 18.9891762861,
			"0.005": 14.2392619334,
			"0.006": 11.7867593213,
			"0.007": 5.93454283198,
			"0.008": 4.96009696227,
			"0.009": 3.24867655093,
			"0.01": 4.05480087995,
			"0.011": 3.35249156597,
			"0.012": 3.05830744886,
			"0.013": 4.26183780021,
			"0.014": 1.70150813383,
			"0.015": 0.916447522917,
			"0.016": 0.939261913179,
			"0.017": 0.2221101856,
			"0.018": 0.0,
			"0.019": 0.0,
			"0.02": 0.0,
			"0.021": 0.0,
			"0.022": 0.0,
			"0.023": 0.0,
			"0.024": 0.0,
			"0.025": 0.0
		}
	}
}
