{
	 "smiles": "O=C1CC2=C(C=CC=C2)C(=O)CC2=C1C=CC=C2", 
	 "Tm": 481.15, 
	 "num_atms": 30, 
	 "gaussian": { 
		 "optdone": 1, 
		 "sigma_profile": "yes", 
		 "theory": "DFT", 
		 "functional": "B3LYP", 
		 "basiset": "6-31G**", 
		 "properties": { 
			 "R2extent": 4324.7376, 
			 "electric_dipole_moment_norm": 1.10882359733, 
			 "electric_quadrupole_moment_norm": 16.2905857329, 
			 "total_energy": -767.380226778, 
			 "HOMO_LUMO_gap": 0.17036, 
			 "cosmo_polarized_energy": -12.42, 
			 "cosmo_cavitation_energy": 32.81, 
			 "cosmo_dispersion_energy": -23.59, 
			 "cosmo_repulsion_energy": 1.77, 
			 "cosmo_total_nonelectrostatic_energy": 11.0, 
			 "SMD_solvation_energy": 6.11 
		},
		"coords": [
			{
				"x": -0.5298020629,
				"y": 1.8990362298,
				"z": 1.2473800003,
				"element": "O" 
			},
			{
				"x": -0.0921631912,
				"y": 0.8348906547,
				"z": 0.8375306658,
				"element": "C" 
			},
			{
				"x": 1.4210265692,
				"y": 0.7110694265,
				"z": 0.5981111089,
				"element": "C" 
			},
			{
				"x": 1.7969205139,
				"y": 0.3303309569,
				"z": -0.8233111402,
				"element": "C" 
			},
			{
				"x": 1.9097063666,
				"y": -0.9941237801,
				"z": -1.3038779273,
				"element": "C" 
			},
			{
				"x": 2.3194652296,
				"y": -1.2135862822,
				"z": -2.6314719081,
				"element": "C" 
			},
			{
				"x": 2.5824339617,
				"y": -0.1567617588,
				"z": -3.4938429093,
				"element": "C" 
			},
			{
				"x": 2.4529882983,
				"y": 1.1527412433,
				"z": -3.0279177899,
				"element": "C" 
			},
			{
				"x": 2.0737851986,
				"y": 1.3835137438,
				"z": -1.7075252211,
				"element": "C" 
			},
			{
				"x": 1.6367787819,
				"y": -2.2382489309,
				"z": -0.5079596423,
				"element": "C" 
			},
			{
				"x": 2.1085224424,
				"y": -3.3084113707,
				"z": -0.8602582883,
				"element": "O" 
			},
			{
				"x": 0.7033048113,
				"y": -2.2179991776,
				"z": 0.7129767708,
				"element": "C" 
			},
			{
				"x": -0.6794757722,
				"y": -1.657318772,
				"z": 0.4295956036,
				"element": "C" 
			},
			{
				"x": -1.0304340437,
				"y": -0.2903376073,
				"z": 0.5070005266,
				"element": "C" 
			},
			{
				"x": -2.3630363694,
				"y": 0.0939621383,
				"z": 0.2723388359,
				"element": "C" 
			},
			{
				"x": -3.3370192958,
				"y": -0.8358414232,
				"z": -0.0690419268,
				"element": "C" 
			},
			{
				"x": -2.989271335,
				"y": -2.184320008,
				"z": -0.1655717571,
				"element": "C" 
			},
			{
				"x": -1.6788454626,
				"y": -2.5814246989,
				"z": 0.0904988498,
				"element": "C" 
			},
			{
				"x": 1.8638870148,
				"y": 0.0304164911,
				"z": 1.329264448,
				"element": "H" 
			},
			{
				"x": 1.8174866068,
				"y": 1.7033464982,
				"z": 0.8219644077,
				"element": "H" 
			},
			{
				"x": 2.4203899936,
				"y": -2.2416350316,
				"z": -2.9616327382,
				"element": "H" 
			},
			{
				"x": 2.8873115331,
				"y": -0.3503304887,
				"z": -4.5178332337,
				"element": "H" 
			},
			{
				"x": 2.6541861493,
				"y": 1.9932193832,
				"z": -3.685961696,
				"element": "H" 
			},
			{
				"x": 1.9945743419,
				"y": 2.4042962836,
				"z": -1.3435855532,
				"element": "H" 
			},
			{
				"x": 0.6137292444,
				"y": -3.2650851182,
				"z": 1.0087565722,
				"element": "H" 
			},
			{
				"x": 1.1851701681,
				"y": -1.7024769002,
				"z": 1.5472947941,
				"element": "H" 
			},
			{
				"x": -2.6047616625,
				"y": 1.1471515195,
				"z": 0.3642015673,
				"element": "H" 
			},
			{
				"x": -4.3571959762,
				"y": -0.5144978631,
				"z": -0.2560006615,
				"element": "H" 
			},
			{
				"x": -3.7358432877,
				"y": -2.9273708111,
				"z": -0.4309240579,
				"element": "H" 
			},
			{
				"x": -1.4177187661,
				"y": -3.6347045461,
				"z": 0.0345022996,
				"element": "H" 
			}
		],
		 "valence_orbital": [ 
			{
				"type": "occ",
				"energy": -0.27094,
				"method": "rhf"
			},
			{
				"type": "occ",
				"energy": -0.26465,
				"method": "rhf"
			},
			{
				"type": "occ",
				"energy": -0.26066,
				"method": "rhf"
			},
			{
				"type": "occ",
				"energy": -0.24596,
				"method": "rhf"
			},
			{
				"type": "occ",
				"energy": -0.24081,
				"method": "rhf"
			},
			{
				"type": "unocc",
				"energy": -0.07045,
				"method": "rhf"
			},
			{
				"type": "unocc",
				"energy": -0.04918,
				"method": "rhf"
			},
			{
				"type": "unocc",
				"energy": -0.01721,
				"method": "rhf"
			},
			{
				"type": "unocc",
				"energy": -0.00941,
				"method": "rhf"
			},
			{
				"type": "unocc",
				"energy": 0.01912,
				"method": "rhf"
			}
		],
		"cosmo_sigma_profile": { 
			"-0.025": 0.0,
			"-0.024": 0.0,
			"-0.023": 0.0,
			"-0.022": 0.0,
			"-0.021": 0.0,
			"-0.02": 0.0,
			"-0.019": 0.0,
			"-0.018": 0.0,
			"-0.017": 0.0,
			"-0.016": 0.0,
			"-0.015": 0.0,
			"-0.014": 0.0,
			"-0.013": 0.0,
			"-0.012": 0.0,
			"-0.011": 0.45472929113,
			"-0.01": 2.43196636144,
			"-0.009": 2.29514344079,
			"-0.008": 2.3279170582,
			"-0.007": 6.56450252227,
			"-0.006": 19.3049322589,
			"-0.005": 21.4510672983,
			"-0.004": 22.6300056887,
			"-0.003": 18.029498996,
			"-0.002": 19.3045815365,
			"-0.001": 16.6011292844,
			"0.0": 15.3213821048,
			"0.001": 17.7066083664,
			"0.002": 18.6892632088,
			"0.003": 23.3717775467,
			"0.004": 20.6098140483,
			"0.005": 4.68666178519,
			"0.006": 2.75184546793,
			"0.007": 2.7670916749,
			"0.008": 3.11430761909,
			"0.009": 4.00296496457,
			"0.01": 4.06726966676,
			"0.011": 7.4752711157,
			"0.012": 5.94738136557,
			"0.013": 1.06613189469,
			"0.014": 0.0,
			"0.015": 0.0,
			"0.016": 0.0,
			"0.017": 0.0,
			"0.018": 0.0,
			"0.019": 0.0,
			"0.02": 0.0,
			"0.021": 0.0,
			"0.022": 0.0,
			"0.023": 0.0,
			"0.024": 0.0,
			"0.025": 0.0
		}
	}
}
