{
	 "smiles": "NC(=O)C1=CN(C=CC1)[C@@H]1O[C@H](COP(O)(=O)OP(O)(=O)OC[C@H]2O[C@H]([C@H](O)[C@@H]2O)N2C=NC3=C2N=CN=C3N)[C@@H](O)[C@H]1O", 
	 "Tm": 414.15, 
	 "num_atms": 73, 
	 "gaussian": { 
		 "optdone": 1, 
		 "sigma_profile": "yes", 
		 "theory": "DFT", 
		 "functional": "B3LYP", 
		 "basiset": "6-31G**", 
		 "properties": { 
			 "R2extent": 29305.7693, 
			 "electric_dipole_moment_norm": 5.53603315561, 
			 "electric_quadrupole_moment_norm": 80.6713760108, 
			 "total_energy": -2936.93251149, 
			 "HOMO_LUMO_gap": 0.16101, 
			 "cosmo_polarized_energy": -62.96, 
			 "cosmo_cavitation_energy": 78.16, 
			 "cosmo_dispersion_energy": -49.18, 
			 "cosmo_repulsion_energy": 3.63, 
			 "cosmo_total_nonelectrostatic_energy": 32.61, 
			 "SMD_solvation_energy": 12.81 
		},
		"coords": [
			{
				"x": -7.4437060641,
				"y": -3.5128599405,
				"z": -0.2624672516,
				"element": "N" 
			},
			{
				"x": -7.1610760667,
				"y": -2.3414679498,
				"z": 0.4328426688,
				"element": "C" 
			},
			{
				"x": -8.0079286496,
				"y": -1.8103678673,
				"z": 1.1470299082,
				"element": "O" 
			},
			{
				"x": -5.7983661659,
				"y": -1.7811247946,
				"z": 0.301959636,
				"element": "C" 
			},
			{
				"x": -4.7613483839,
				"y": -2.5277158494,
				"z": -0.1408982482,
				"element": "C" 
			},
			{
				"x": -3.4633057086,
				"y": -2.062372178,
				"z": -0.2313998965,
				"element": "N" 
			},
			{
				"x": -3.2070840972,
				"y": -0.7343747949,
				"z": 0.1527844577,
				"element": "C" 
			},
			{
				"x": -4.1715045122,
				"y": 0.072716297,
				"z": 0.61864811,
				"element": "C" 
			},
			{
				"x": -5.6093743305,
				"y": -0.3556140507,
				"z": 0.7886331937,
				"element": "C" 
			},
			{
				"x": -2.4571397653,
				"y": -2.8319625973,
				"z": -0.9107963095,
				"element": "C" 
			},
			{
				"x": -1.2677592045,
				"y": -2.8884880115,
				"z": -0.1222795941,
				"element": "O" 
			},
			{
				"x": -0.1548643117,
				"y": -3.1994270879,
				"z": -0.9710443853,
				"element": "C" 
			},
			{
				"x": 1.0535539942,
				"y": -2.3633609525,
				"z": -0.5800523096,
				"element": "C" 
			},
			{
				"x": 1.6430161579,
				"y": -2.9008419189,
				"z": 0.6330628639,
				"element": "O" 
			},
			{
				"x": 3.2393963195,
				"y": -2.9041394933,
				"z": 0.7812671183,
				"element": "P" 
			},
			{
				"x": 3.4820102141,
				"y": -3.8626649513,
				"z": 2.0273482229,
				"element": "O" 
			},
			{
				"x": 4.0152683121,
				"y": -3.1693461246,
				"z": -0.4382608185,
				"element": "O" 
			},
			{
				"x": 3.5912124701,
				"y": -1.3945935289,
				"z": 1.3855574242,
				"element": "O" 
			},
			{
				"x": 2.9574782257,
				"y": -0.5968010062,
				"z": 2.6249118463,
				"element": "P" 
			},
			{
				"x": 3.2723841318,
				"y": -1.6723697758,
				"z": 3.8115569444,
				"element": "O" 
			},
			{
				"x": 1.5424323507,
				"y": -0.1728094852,
				"z": 2.5659452252,
				"element": "O" 
			},
			{
				"x": 4.0259432632,
				"y": 0.568027161,
				"z": 2.8699632767,
				"element": "O" 
			},
			{
				"x": 3.636278389,
				"y": 1.9484504633,
				"z": 2.660148319,
				"element": "C" 
			},
			{
				"x": 3.9664601026,
				"y": 2.414656386,
				"z": 1.2538845274,
				"element": "C" 
			},
			{
				"x": 3.2774161868,
				"y": 1.5962801843,
				"z": 0.3033021742,
				"element": "O" 
			},
			{
				"x": 2.8087163933,
				"y": 2.3679767546,
				"z": -0.7929035661,
				"element": "C" 
			},
			{
				"x": 3.3077910631,
				"y": 3.8049247426,
				"z": -0.5694324523,
				"element": "C" 
			},
			{
				"x": 4.5670253446,
				"y": 3.924516225,
				"z": -1.1941001054,
				"element": "O" 
			},
			{
				"x": 3.4926122008,
				"y": 3.8466859416,
				"z": 0.9634979397,
				"element": "C" 
			},
			{
				"x": 4.4895721681,
				"y": 4.7709412395,
				"z": 1.3752121259,
				"element": "O" 
			},
			{
				"x": 1.3471316928,
				"y": 2.2531906582,
				"z": -0.8389034801,
				"element": "N" 
			},
			{
				"x": 0.5329502594,
				"y": 1.5000794598,
				"z": -0.0055452968,
				"element": "C" 
			},
			{
				"x": -0.7131902076,
				"y": 1.4373873338,
				"z": -0.4180356822,
				"element": "N" 
			},
			{
				"x": -0.7296892515,
				"y": 2.1743673868,
				"z": -1.5879855504,
				"element": "C" 
			},
			{
				"x": 0.5386568883,
				"y": 2.6858012201,
				"z": -1.8769101237,
				"element": "C" 
			},
			{
				"x": 0.8831659565,
				"y": 3.4294225075,
				"z": -2.9370192092,
				"element": "N" 
			},
			{
				"x": -0.1677829915,
				"y": 3.6402259327,
				"z": -3.7393083841,
				"element": "C" 
			},
			{
				"x": -1.4324148339,
				"y": 3.213072083,
				"z": -3.601548728,
				"element": "N" 
			},
			{
				"x": -1.747230659,
				"y": 2.4678185877,
				"z": -2.523199642,
				"element": "C" 
			},
			{
				"x": -3.0187655426,
				"y": 2.0329620378,
				"z": -2.3772225414,
				"element": "N" 
			},
			{
				"x": -0.6178762625,
				"y": -2.9612263278,
				"z": -2.4358312209,
				"element": "C" 
			},
			{
				"x": -0.8948286951,
				"y": -4.1881765628,
				"z": -3.1126688669,
				"element": "O" 
			},
			{
				"x": -1.9774693713,
				"y": -2.2625416366,
				"z": -2.2669548931,
				"element": "C" 
			},
			{
				"x": -2.8694643142,
				"y": -2.4769226845,
				"z": -3.3273874333,
				"element": "O" 
			},
			{
				"x": -7.0029885137,
				"y": -3.6449302349,
				"z": -1.1613696422,
				"element": "H" 
			},
			{
				"x": -8.423685219,
				"y": -3.7605620705,
				"z": -0.231938397,
				"element": "H" 
			},
			{
				"x": -4.8904671009,
				"y": -3.5668555068,
				"z": -0.4241194441,
				"element": "H" 
			},
			{
				"x": -2.1750126509,
				"y": -0.4119603657,
				"z": 0.0893778204,
				"element": "H" 
			},
			{
				"x": -3.8797064947,
				"y": 1.0674686579,
				"z": 0.9433380926,
				"element": "H" 
			},
			{
				"x": -6.2921593882,
				"y": 0.3230156178,
				"z": 0.2546419488,
				"element": "H" 
			},
			{
				"x": -5.9222146053,
				"y": -0.2802232624,
				"z": 1.8405297933,
				"element": "H" 
			},
			{
				"x": -2.8721445525,
				"y": -3.8367657135,
				"z": -1.076589338,
				"element": "H" 
			},
			{
				"x": 0.1060695738,
				"y": -4.2614307915,
				"z": -0.8622224109,
				"element": "H" 
			},
			{
				"x": 0.7570852909,
				"y": -1.3287837332,
				"z": -0.3876065834,
				"element": "H" 
			},
			{
				"x": 1.8023697731,
				"y": -2.3984459187,
				"z": -1.3772740398,
				"element": "H" 
			},
			{
				"x": 3.4420250214,
				"y": -3.3965436406,
				"z": 2.8830588195,
				"element": "H" 
			},
			{
				"x": 2.6553801138,
				"y": -1.5550781771,
				"z": 4.5496644757,
				"element": "H" 
			},
			{
				"x": 2.5670873067,
				"y": 2.0541535797,
				"z": 2.8634345508,
				"element": "H" 
			},
			{
				"x": 4.2095699736,
				"y": 2.5347018232,
				"z": 3.3821005123,
				"element": "H" 
			},
			{
				"x": 5.0475281511,
				"y": 2.3494346434,
				"z": 1.0791578975,
				"element": "H" 
			},
			{
				"x": 3.217845746,
				"y": 1.9793355218,
				"z": -1.7305607422,
				"element": "H" 
			},
			{
				"x": 2.5904872612,
				"y": 4.5430350867,
				"z": -0.9502079247,
				"element": "H" 
			},
			{
				"x": 5.0991779094,
				"y": 4.502447037,
				"z": -0.6237304071,
				"element": "H" 
			},
			{
				"x": 2.5329999805,
				"y": 4.0409587535,
				"z": 1.4615136915,
				"element": "H" 
			},
			{
				"x": 4.0853379705,
				"y": 5.6435812715,
				"z": 1.4683865912,
				"element": "H" 
			},
			{
				"x": 0.9152011024,
				"y": 1.0167260415,
				"z": 0.8830023285,
				"element": "H" 
			},
			{
				"x": 0.0267537748,
				"y": 4.237583685,
				"z": -4.6279617536,
				"element": "H" 
			},
			{
				"x": -3.6694598212,
				"y": 2.2087266899,
				"z": -3.1261172407,
				"element": "H" 
			},
			{
				"x": -3.2742690038,
				"y": 1.4062928907,
				"z": -1.6261264388,
				"element": "H" 
			},
			{
				"x": 0.0931064237,
				"y": -2.3578988787,
				"z": -3.0130613766,
				"element": "H" 
			},
			{
				"x": -0.0732854981,
				"y": -4.5574950298,
				"z": -3.4578583526,
				"element": "H" 
			},
			{
				"x": -1.8265655043,
				"y": -1.1833066253,
				"z": -2.1560533762,
				"element": "H" 
			},
			{
				"x": -2.6212697156,
				"y": -3.3350143832,
				"z": -3.7080090478,
				"element": "H" 
			}
		],
		 "valence_orbital": [ 
			{
				"type": "occ",
				"energy": -0.25895,
				"method": "rhf"
			},
			{
				"type": "occ",
				"energy": -0.24911,
				"method": "rhf"
			},
			{
				"type": "occ",
				"energy": -0.23236,
				"method": "rhf"
			},
			{
				"type": "occ",
				"energy": -0.21819,
				"method": "rhf"
			},
			{
				"type": "occ",
				"energy": -0.18258,
				"method": "rhf"
			},
			{
				"type": "unocc",
				"energy": -0.02157,
				"method": "rhf"
			},
			{
				"type": "unocc",
				"energy": -0.01753,
				"method": "rhf"
			},
			{
				"type": "unocc",
				"energy": 0.00122,
				"method": "rhf"
			},
			{
				"type": "unocc",
				"energy": 0.00405,
				"method": "rhf"
			},
			{
				"type": "unocc",
				"energy": 0.02336,
				"method": "rhf"
			}
		],
		"cosmo_sigma_profile": { 
			"-0.025": 0.0,
			"-0.024": 0.0,
			"-0.023": 0.0,
			"-0.022": 0.0,
			"-0.021": 0.359988404429,
			"-0.02": 1.2692836477,
			"-0.019": 1.12701094624,
			"-0.018": 1.45825980871,
			"-0.017": 3.51315375819,
			"-0.016": 3.13801944188,
			"-0.015": 3.07954591888,
			"-0.014": 3.94099239701,
			"-0.013": 6.27042194677,
			"-0.012": 7.5139330574,
			"-0.011": 9.12442048516,
			"-0.01": 11.0338001111,
			"-0.009": 13.9723795009,
			"-0.008": 19.9384107631,
			"-0.007": 25.7987422319,
			"-0.006": 26.1702419466,
			"-0.005": 25.2657796919,
			"-0.004": 30.7237975165,
			"-0.003": 31.8211161668,
			"-0.002": 32.7105233372,
			"-0.001": 35.3953781365,
			"0.0": 34.3603093375,
			"0.001": 29.498298143,
			"0.002": 30.7654503213,
			"0.003": 32.653466926,
			"0.004": 25.1824469639,
			"0.005": 25.0976722214,
			"0.006": 21.2370236212,
			"0.007": 21.9608945496,
			"0.008": 19.6634545832,
			"0.009": 14.3075930905,
			"0.01": 12.2751111605,
			"0.011": 10.4376099889,
			"0.012": 15.0327339303,
			"0.013": 13.953681075,
			"0.014": 8.03677405212,
			"0.015": 3.01650168823,
			"0.016": 0.14159344746,
			"0.017": 0.0,
			"0.018": 0.0,
			"0.019": 0.0,
			"0.02": 0.0,
			"0.021": 0.0,
			"0.022": 0.0,
			"0.023": 0.0,
			"0.024": 0.0,
			"0.025": 0.0
		}
	}
}
