{
	 "smiles": "CC(C=C(/C)C1=CC=C(C=C1)C1=CC=CC=C1)=NNS(=O)(=O)C1=CC=C(C(=C1)[N+]([O-])=O)[N+]([O-])=O", 
	 "Tm": 473.15, 
	 "num_atms": 54, 
	 "gaussian": { 
		 "optdone": 1, 
		 "sigma_profile": "yes", 
		 "theory": "DFT", 
		 "functional": "B3LYP", 
		 "basiset": "6-31G**", 
		 "properties": { 
			 "R2extent": 29982.0787, 
			 "electric_dipole_moment_norm": 8.42356368825, 
			 "electric_quadrupole_moment_norm": 32.3481338446, 
			 "total_energy": -1956.70207038, 
			 "HOMO_LUMO_gap": 0.10603, 
			 "cosmo_polarized_energy": -24.5, 
			 "cosmo_cavitation_energy": 62.27, 
			 "cosmo_dispersion_energy": -42.06, 
			 "cosmo_repulsion_energy": 3.08, 
			 "cosmo_total_nonelectrostatic_energy": 23.29, 
			 "SMD_solvation_energy": 14.11 
		},
		"coords": [
			{
				"x": -1.1791667143,
				"y": -2.5471860229,
				"z": -2.7579428387,
				"element": "C" 
			},
			{
				"x": -1.4406772899,
				"y": -2.0084941203,
				"z": -1.371336408,
				"element": "C" 
			},
			{
				"x": -0.2520290312,
				"y": -1.7851225349,
				"z": -0.5444273256,
				"element": "C" 
			},
			{
				"x": -0.153861512,
				"y": -1.5431835831,
				"z": 0.7906254414,
				"element": "C" 
			},
			{
				"x": -1.3441873672,
				"y": -1.433405812,
				"z": 1.7123924378,
				"element": "C" 
			},
			{
				"x": 1.1906412056,
				"y": -1.3658290714,
				"z": 1.3935160866,
				"element": "C" 
			},
			{
				"x": 1.3813654151,
				"y": -0.4873039535,
				"z": 2.4763033914,
				"element": "C" 
			},
			{
				"x": 2.6412480649,
				"y": -0.2850086192,
				"z": 3.0296508579,
				"element": "C" 
			},
			{
				"x": 3.7691225292,
				"y": -0.9685384098,
				"z": 2.5446477274,
				"element": "C" 
			},
			{
				"x": 3.5764466617,
				"y": -1.8633080957,
				"z": 1.4772451593,
				"element": "C" 
			},
			{
				"x": 2.3201138774,
				"y": -2.0560033667,
				"z": 0.9147543576,
				"element": "C" 
			},
			{
				"x": 5.1109903654,
				"y": -0.7621246092,
				"z": 3.1425998323,
				"element": "C" 
			},
			{
				"x": 5.2629811453,
				"y": -0.5630749078,
				"z": 4.5258194544,
				"element": "C" 
			},
			{
				"x": 6.5241530698,
				"y": -0.367957095,
				"z": 5.0865442168,
				"element": "C" 
			},
			{
				"x": 7.6615024377,
				"y": -0.3676915052,
				"z": 4.2766595191,
				"element": "C" 
			},
			{
				"x": 7.5263675943,
				"y": -0.5644021498,
				"z": 2.9009727064,
				"element": "C" 
			},
			{
				"x": 6.2652130154,
				"y": -0.7595515966,
				"z": 2.3402150774,
				"element": "C" 
			},
			{
				"x": -2.6126525285,
				"y": -1.7239250971,
				"z": -0.8813328987,
				"element": "N" 
			},
			{
				"x": -3.6983896439,
				"y": -1.9739408018,
				"z": -1.7900451304,
				"element": "N" 
			},
			{
				"x": -4.2202101273,
				"y": -0.6032947261,
				"z": -2.6653098214,
				"element": "S" 
			},
			{
				"x": -3.0693817625,
				"y": -0.1151919991,
				"z": -3.4212717248,
				"element": "O" 
			},
			{
				"x": -5.479401986,
				"y": -1.0048561551,
				"z": -3.2904581972,
				"element": "O" 
			},
			{
				"x": -4.6118123692,
				"y": 0.6639189459,
				"z": -1.4392667449,
				"element": "C" 
			},
			{
				"x": -3.5901406644,
				"y": 1.4481906413,
				"z": -0.9020861133,
				"element": "C" 
			},
			{
				"x": -3.9019386387,
				"y": 2.3983986521,
				"z": 0.0696266576,
				"element": "C" 
			},
			{
				"x": -5.2201883815,
				"y": 2.5569419157,
				"z": 0.485174335,
				"element": "C" 
			},
			{
				"x": -6.2393348811,
				"y": 1.7856385024,
				"z": -0.0827377046,
				"element": "C" 
			},
			{
				"x": -5.9388441309,
				"y": 0.8269021678,
				"z": -1.042663125,
				"element": "C" 
			},
			{
				"x": -7.6658246834,
				"y": 2.0173182803,
				"z": 0.2174375956,
				"element": "N" 
			},
			{
				"x": -8.0191385807,
				"y": 3.1805019408,
				"z": 0.3673241018,
				"element": "O" 
			},
			{
				"x": -8.3895921584,
				"y": 1.0270949609,
				"z": 0.2408160271,
				"element": "O" 
			},
			{
				"x": -5.4641076964,
				"y": 3.4852568698,
				"z": 1.6065387332,
				"element": "N" 
			},
			{
				"x": -6.2278374196,
				"y": 3.1022265176,
				"z": 2.4841436472,
				"element": "O" 
			},
			{
				"x": -4.8330967687,
				"y": 4.5370906965,
				"z": 1.5971393698,
				"element": "O" 
			},
			{
				"x": -0.3100955007,
				"y": -3.2099067045,
				"z": -2.7467804816,
				"element": "H" 
			},
			{
				"x": -2.0502317479,
				"y": -3.0776637337,
				"z": -3.1422753933,
				"element": "H" 
			},
			{
				"x": -0.9724036022,
				"y": -1.7199638955,
				"z": -3.4447724003,
				"element": "H" 
			},
			{
				"x": 0.6750759413,
				"y": -1.8263836659,
				"z": -1.1093072833,
				"element": "H" 
			},
			{
				"x": -2.1332563157,
				"y": -2.1232766255,
				"z": 1.4119047228,
				"element": "H" 
			},
			{
				"x": -1.7918960972,
				"y": -0.4330711642,
				"z": 1.6588009128,
				"element": "H" 
			},
			{
				"x": -1.0581472721,
				"y": -1.6262873276,
				"z": 2.7485416616,
				"element": "H" 
			},
			{
				"x": 0.5394671077,
				"y": 0.0731767721,
				"z": 2.8704630359,
				"element": "H" 
			},
			{
				"x": 2.7576320182,
				"y": 0.4338409391,
				"z": 3.8349848485,
				"element": "H" 
			},
			{
				"x": 4.4170446751,
				"y": -2.44364824,
				"z": 1.1091372866,
				"element": "H" 
			},
			{
				"x": 2.2036334901,
				"y": -2.7874060649,
				"z": 0.1212440686,
				"element": "H" 
			},
			{
				"x": 4.3882024926,
				"y": -0.5888751968,
				"z": 5.1688547136,
				"element": "H" 
			},
			{
				"x": 6.6192272249,
				"y": -0.224699245,
				"z": 6.1591376954,
				"element": "H" 
			},
			{
				"x": 8.6440815064,
				"y": -0.2156788964,
				"z": 4.713576593,
				"element": "H" 
			},
			{
				"x": 8.4040473576,
				"y": -0.5572798602,
				"z": 2.2609247246,
				"element": "H" 
			},
			{
				"x": 6.169224595,
				"y": -0.8843222855,
				"z": 1.2656546361,
				"element": "H" 
			},
			{
				"x": -4.4982519232,
				"y": -2.2934414478,
				"z": -1.2424195627,
				"element": "H" 
			},
			{
				"x": -2.5708152902,
				"y": 1.3233913145,
				"z": -1.2461150925,
				"element": "H" 
			},
			{
				"x": -3.1362052002,
				"y": 3.0203154061,
				"z": 0.5179570677,
				"element": "H" 
			},
			{
				"x": -6.7332645055,
				"y": 0.2404940629,
				"z": -1.4893804541,
				"element": "H" 
			}
		],
		 "valence_orbital": [ 
			{
				"type": "occ",
				"energy": -0.26884,
				"method": "rhf"
			},
			{
				"type": "occ",
				"energy": -0.26665,
				"method": "rhf"
			},
			{
				"type": "occ",
				"energy": -0.26016,
				"method": "rhf"
			},
			{
				"type": "occ",
				"energy": -0.25529,
				"method": "rhf"
			},
			{
				"type": "occ",
				"energy": -0.2277,
				"method": "rhf"
			},
			{
				"type": "unocc",
				"energy": -0.12167,
				"method": "rhf"
			},
			{
				"type": "unocc",
				"energy": -0.09533,
				"method": "rhf"
			},
			{
				"type": "unocc",
				"energy": -0.07997,
				"method": "rhf"
			},
			{
				"type": "unocc",
				"energy": -0.05975,
				"method": "rhf"
			},
			{
				"type": "unocc",
				"energy": -0.04518,
				"method": "rhf"
			}
		],
		"cosmo_sigma_profile": { 
			"-0.025": 0.0,
			"-0.024": 0.0,
			"-0.023": 0.0,
			"-0.022": 0.0,
			"-0.021": 0.0,
			"-0.02": 0.0,
			"-0.019": 0.0,
			"-0.018": 0.0,
			"-0.017": 0.00236640137916,
			"-0.016": 0.752649921353,
			"-0.015": 1.47964670708,
			"-0.014": 1.17458227555,
			"-0.013": 1.04643365753,
			"-0.012": 1.20257797093,
			"-0.011": 1.28468409535,
			"-0.01": 5.07473838483,
			"-0.009": 6.9391908056,
			"-0.008": 5.68757344981,
			"-0.007": 6.41911006128,
			"-0.006": 19.3522808793,
			"-0.005": 36.5287259292,
			"-0.004": 44.5315499599,
			"-0.003": 40.1122364699,
			"-0.002": 35.0921152839,
			"-0.001": 35.2115867084,
			"0.0": 31.7935436608,
			"0.001": 30.3487012045,
			"0.002": 30.426759703,
			"0.003": 30.7786368209,
			"0.004": 30.2669934369,
			"0.005": 31.0975204227,
			"0.006": 29.8138465165,
			"0.007": 14.5280468347,
			"0.008": 10.896111375,
			"0.009": 7.48516276563,
			"0.01": 7.42216915813,
			"0.011": 2.17189087995,
			"0.012": 0.0,
			"0.013": 0.0,
			"0.014": 0.0,
			"0.015": 0.0,
			"0.016": 0.0,
			"0.017": 0.0,
			"0.018": 0.0,
			"0.019": 0.0,
			"0.02": 0.0,
			"0.021": 0.0,
			"0.022": 0.0,
			"0.023": 0.0,
			"0.024": 0.0,
			"0.025": 0.0
		}
	}
}
