{
	 "smiles": "COC1=C(Cl)C(Cl)=C(C=C1)S(Cl)(=O)=O", 
	 "Tm": 366.15, 
	 "num_atms": 19, 
	 "gaussian": { 
		 "optdone": 1, 
		 "sigma_profile": "yes", 
		 "theory": "DFT", 
		 "functional": "B3LYP", 
		 "basiset": "6-31G**", 
		 "properties": { 
			 "R2extent": 6079.3925, 
			 "electric_dipole_moment_norm": 5.70854703843, 
			 "electric_quadrupole_moment_norm": 10.6912588225, 
			 "total_energy": -2274.08860445, 
			 "HOMO_LUMO_gap": 0.18195, 
			 "cosmo_polarized_energy": -10.03, 
			 "cosmo_cavitation_energy": 30.12, 
			 "cosmo_dispersion_energy": -22.6, 
			 "cosmo_repulsion_energy": 1.73, 
			 "cosmo_total_nonelectrostatic_energy": 9.24, 
			 "SMD_solvation_energy": 4.32 
		},
		"coords": [
			{
				"x": -0.0849862427,
				"y": 1.8029194202,
				"z": 2.3637284562,
				"element": "C" 
			},
			{
				"x": -0.9903909759,
				"y": 0.715533832,
				"z": 2.1165348583,
				"element": "O" 
			},
			{
				"x": -0.938280407,
				"y": 0.1750062271,
				"z": 0.8689286312,
				"element": "C" 
			},
			{
				"x": -1.7402082111,
				"y": 0.6896626932,
				"z": -0.1705257596,
				"element": "C" 
			},
			{
				"x": -2.7538399578,
				"y": 2.0606176231,
				"z": 0.1645872944,
				"element": "Cl" 
			},
			{
				"x": -1.7293511396,
				"y": 0.089678815,
				"z": -1.4405582971,
				"element": "C" 
			},
			{
				"x": -2.7116392978,
				"y": 0.7460611133,
				"z": -2.7082108366,
				"element": "Cl" 
			},
			{
				"x": -0.8997603526,
				"y": -1.0280909673,
				"z": -1.6478220228,
				"element": "C" 
			},
			{
				"x": -0.1033250887,
				"y": -1.5351352555,
				"z": -0.6188410893,
				"element": "C" 
			},
			{
				"x": -0.1264114154,
				"y": -0.9353012615,
				"z": 0.6332644897,
				"element": "C" 
			},
			{
				"x": -0.8162681319,
				"y": -1.9368936543,
				"z": -3.2009361852,
				"element": "S" 
			},
			{
				"x": 0.1842397501,
				"y": -0.5480838466,
				"z": -4.4574857234,
				"element": "Cl" 
			},
			{
				"x": -2.1437997905,
				"y": -2.1431170959,
				"z": -3.7577579245,
				"element": "O" 
			},
			{
				"x": 0.1120271246,
				"y": -3.0451279709,
				"z": -3.0138943726,
				"element": "O" 
			},
			{
				"x": 0.9546400893,
				"y": 1.4821784905,
				"z": 2.2281511591,
				"element": "H" 
			},
			{
				"x": -0.2969782282,
				"y": 2.6524680637,
				"z": 1.7063685139,
				"element": "H" 
			},
			{
				"x": -0.2453651037,
				"y": 2.0963164729,
				"z": 3.4015645993,
				"element": "H" 
			},
			{
				"x": 0.5223582966,
				"y": -2.3975388271,
				"z": -0.8128374007,
				"element": "H" 
			},
			{
				"x": 0.4706390823,
				"y": -1.3236538718,
				"z": 1.4509416095,
				"element": "H" 
			}
		],
		 "valence_orbital": [ 
			{
				"type": "occ",
				"energy": -0.32299,
				"method": "rhf"
			},
			{
				"type": "occ",
				"energy": -0.31764,
				"method": "rhf"
			},
			{
				"type": "occ",
				"energy": -0.30772,
				"method": "rhf"
			},
			{
				"type": "occ",
				"energy": -0.28486,
				"method": "rhf"
			},
			{
				"type": "occ",
				"energy": -0.27701,
				"method": "rhf"
			},
			{
				"type": "unocc",
				"energy": -0.09506,
				"method": "rhf"
			},
			{
				"type": "unocc",
				"energy": -0.05901,
				"method": "rhf"
			},
			{
				"type": "unocc",
				"energy": -0.05349,
				"method": "rhf"
			},
			{
				"type": "unocc",
				"energy": -0.02063,
				"method": "rhf"
			},
			{
				"type": "unocc",
				"energy": 0.04053,
				"method": "rhf"
			}
		],
		"cosmo_sigma_profile": { 
			"-0.025": 0.0,
			"-0.024": 0.0,
			"-0.023": 0.0,
			"-0.022": 0.0,
			"-0.021": 0.0,
			"-0.02": 0.0,
			"-0.019": 0.0,
			"-0.018": 0.0,
			"-0.017": 0.0,
			"-0.016": 0.0,
			"-0.015": 0.0,
			"-0.014": 0.0,
			"-0.013": 0.0,
			"-0.012": 0.0,
			"-0.011": 0.0,
			"-0.01": 0.0513096953023,
			"-0.009": 2.54310054396,
			"-0.008": 4.08990718613,
			"-0.007": 4.37562773537,
			"-0.006": 9.05871109676,
			"-0.005": 14.148923008,
			"-0.004": 19.7146412411,
			"-0.003": 22.7455475615,
			"-0.002": 24.7554286949,
			"-0.001": 19.1947505196,
			"0.0": 17.282145792,
			"0.001": 16.9973802711,
			"0.002": 23.3284855864,
			"0.003": 25.6680343758,
			"0.004": 8.83712727966,
			"0.005": 5.95653531452,
			"0.006": 6.5806750126,
			"0.007": 8.20619441618,
			"0.008": 11.2542463318,
			"0.009": 3.06623685018,
			"0.01": 0.913617876077,
			"0.011": 0.0,
			"0.012": 0.0,
			"0.013": 0.0,
			"0.014": 0.0,
			"0.015": 0.0,
			"0.016": 0.0,
			"0.017": 0.0,
			"0.018": 0.0,
			"0.019": 0.0,
			"0.02": 0.0,
			"0.021": 0.0,
			"0.022": 0.0,
			"0.023": 0.0,
			"0.024": 0.0,
			"0.025": 0.0
		}
	}
}
