{
	 "smiles": "CCC=C", 
	 "Tm": 88.15, 
	 "num_atms": 12, 
	 "gaussian": { 
		 "optdone": 1, 
		 "sigma_profile": "yes", 
		 "theory": "DFT", 
		 "functional": "B3LYP", 
		 "basiset": "6-31G**", 
		 "properties": { 
			 "R2extent": 397.1538, 
			 "electric_dipole_moment_norm": 0.423054771868, 
			 "electric_quadrupole_moment_norm": 1.53821765365, 
			 "total_energy": -157.228938252, 
			 "HOMO_LUMO_gap": 0.27844, 
			 "cosmo_polarized_energy": -1.44, 
			 "cosmo_cavitation_energy": 14.56, 
			 "cosmo_dispersion_energy": -10.71, 
			 "cosmo_repulsion_energy": 0.97, 
			 "cosmo_total_nonelectrostatic_energy": 4.82, 
			 "SMD_solvation_energy": 3.35 
		},
		"coords": [
			{
				"x": 1.3031440469,
				"y": 0.1155792006,
				"z": -0.7358188608,
				"element": "C" 
			},
			{
				"x": 0.6544064345,
				"y": 0.9325692806,
				"z": 0.3831158348,
				"element": "C" 
			},
			{
				"x": -0.105919952,
				"y": 0.1425527474,
				"z": 1.417855481,
				"element": "C" 
			},
			{
				"x": -0.2659522402,
				"y": -1.1810543061,
				"z": 1.4522388157,
				"element": "C" 
			},
			{
				"x": 2.0285725692,
				"y": -0.6008428262,
				"z": -0.3364467106,
				"element": "H" 
			},
			{
				"x": 0.5546789661,
				"y": -0.4478303437,
				"z": -1.3027165,
				"element": "H" 
			},
			{
				"x": 1.8304764671,
				"y": 0.7699921974,
				"z": -1.4365455057,
				"element": "H" 
			},
			{
				"x": -0.027864525,
				"y": 1.6774152982,
				"z": -0.0531211582,
				"element": "H" 
			},
			{
				"x": 1.4237724652,
				"y": 1.5267488597,
				"z": 0.8984951148,
				"element": "H" 
			},
			{
				"x": -0.5613977056,
				"y": 0.7417308707,
				"z": 2.2076170461,
				"element": "H" 
			},
			{
				"x": -0.8347209742,
				"y": -1.6592721576,
				"z": 2.2441253623,
				"element": "H" 
			},
			{
				"x": 0.1595044481,
				"y": -1.837888821,
				"z": 0.6991010807,
				"element": "H" 
			}
		],
		 "valence_orbital": [ 
			{
				"type": "occ",
				"energy": -0.38449,
				"method": "rhf"
			},
			{
				"type": "occ",
				"energy": -0.3508,
				"method": "rhf"
			},
			{
				"type": "occ",
				"energy": -0.34534,
				"method": "rhf"
			},
			{
				"type": "occ",
				"energy": -0.3301,
				"method": "rhf"
			},
			{
				"type": "occ",
				"energy": -0.24894,
				"method": "rhf"
			},
			{
				"type": "unocc",
				"energy": 0.0295,
				"method": "rhf"
			},
			{
				"type": "unocc",
				"energy": 0.10045,
				"method": "rhf"
			},
			{
				"type": "unocc",
				"energy": 0.12729,
				"method": "rhf"
			},
			{
				"type": "unocc",
				"energy": 0.14881,
				"method": "rhf"
			},
			{
				"type": "unocc",
				"energy": 0.15822,
				"method": "rhf"
			}
		],
		"cosmo_sigma_profile": { 
			"-0.025": 0.0,
			"-0.024": 0.0,
			"-0.023": 0.0,
			"-0.022": 0.0,
			"-0.021": 0.0,
			"-0.02": 0.0,
			"-0.019": 0.0,
			"-0.018": 0.0,
			"-0.017": 0.0,
			"-0.016": 0.0,
			"-0.015": 0.0,
			"-0.014": 0.0,
			"-0.013": 0.0,
			"-0.012": 0.0,
			"-0.011": 0.0,
			"-0.01": 0.0,
			"-0.009": 0.0,
			"-0.008": 0.0,
			"-0.007": 0.0,
			"-0.006": 0.0,
			"-0.005": 0.699383644881,
			"-0.004": 5.27575029483,
			"-0.003": 13.3465362327,
			"-0.002": 17.8856057381,
			"-0.001": 19.7200642722,
			"0.0": 17.6350727695,
			"0.001": 13.4152581006,
			"0.002": 7.86943173878,
			"0.003": 3.58816666189,
			"0.004": 4.3034032534,
			"0.005": 2.69405580054,
			"0.006": 3.04352292023,
			"0.007": 2.73140782413,
			"0.008": 1.42869923829,
			"0.009": 0.0291876428567,
			"0.01": 0.0,
			"0.011": 0.0,
			"0.012": 0.0,
			"0.013": 0.0,
			"0.014": 0.0,
			"0.015": 0.0,
			"0.016": 0.0,
			"0.017": 0.0,
			"0.018": 0.0,
			"0.019": 0.0,
			"0.02": 0.0,
			"0.021": 0.0,
			"0.022": 0.0,
			"0.023": 0.0,
			"0.024": 0.0,
			"0.025": 0.0
		}
	}
}
