{
	 "smiles": "[O-][N+](=O)C1=CC(=C(C=C1C(=O)C1=CC=CC=C1)C(=O)C1=CC=CC=C1)[N+]([O-])=O", 
	 "Tm": 447.15, 
	 "num_atms": 40, 
	 "gaussian": { 
		 "optdone": 1, 
		 "sigma_profile": "yes", 
		 "theory": "DFT", 
		 "functional": "B3LYP", 
		 "basiset": "6-31G**", 
		 "properties": { 
			 "R2extent": 11209.5105, 
			 "electric_dipole_moment_norm": 7.41680880501, 
			 "electric_quadrupole_moment_norm": 5.67002488443, 
			 "total_energy": -1329.98392785, 
			 "HOMO_LUMO_gap": 0.15328, 
			 "cosmo_polarized_energy": -21.92, 
			 "cosmo_cavitation_energy": 47.99, 
			 "cosmo_dispersion_energy": -31.7, 
			 "cosmo_repulsion_energy": 2.4, 
			 "cosmo_total_nonelectrostatic_energy": 18.68, 
			 "SMD_solvation_energy": 13.03 
		},
		"coords": [
			{
				"x": -0.5593978445,
				"y": -1.8777853317,
				"z": -3.6728469254,
				"element": "O" 
			},
			{
				"x": -1.5603931205,
				"y": -1.3743644824,
				"z": -3.1657279652,
				"element": "N" 
			},
			{
				"x": -2.595253735,
				"y": -1.1011128519,
				"z": -3.7660609514,
				"element": "O" 
			},
			{
				"x": -1.5039230172,
				"y": -1.0710270847,
				"z": -1.7233806965,
				"element": "C" 
			},
			{
				"x": -2.6156758957,
				"y": -0.4643915324,
				"z": -1.1529266612,
				"element": "C" 
			},
			{
				"x": -2.5821703247,
				"y": -0.1554950534,
				"z": 0.2005017092,
				"element": "C" 
			},
			{
				"x": -1.471228092,
				"y": -0.4471462401,
				"z": 1.0023860226,
				"element": "C" 
			},
			{
				"x": -0.3797961307,
				"y": -1.0715057269,
				"z": 0.389136666,
				"element": "C" 
			},
			{
				"x": -0.3618432683,
				"y": -1.3837266289,
				"z": -0.9747489231,
				"element": "C" 
			},
			{
				"x": 0.8531470747,
				"y": -2.1516970136,
				"z": -1.493958977,
				"element": "C" 
			},
			{
				"x": 0.8799255719,
				"y": -3.3518835475,
				"z": -1.2862970246,
				"element": "O" 
			},
			{
				"x": 1.9916555453,
				"y": -1.3998617559,
				"z": -2.083794146,
				"element": "C" 
			},
			{
				"x": 1.9686354112,
				"y": -0.0071497667,
				"z": -2.2447718875,
				"element": "C" 
			},
			{
				"x": 3.0676334987,
				"y": 0.6525835417,
				"z": -2.7922749318,
				"element": "C" 
			},
			{
				"x": 4.1942135348,
				"y": -0.0752340357,
				"z": -3.1814311648,
				"element": "C" 
			},
			{
				"x": 4.2229095973,
				"y": -1.464758534,
				"z": -3.0227846459,
				"element": "C" 
			},
			{
				"x": 3.1278282731,
				"y": -2.1251909932,
				"z": -2.475937394,
				"element": "C" 
			},
			{
				"x": -1.4122151358,
				"y": -0.2691225291,
				"z": 2.5191772346,
				"element": "C" 
			},
			{
				"x": -1.7426018604,
				"y": -1.2230892007,
				"z": 3.201090813,
				"element": "O" 
			},
			{
				"x": -0.8316157076,
				"y": 0.9768818655,
				"z": 3.0831326949,
				"element": "C" 
			},
			{
				"x": -0.6905074957,
				"y": 1.0670221816,
				"z": 4.4770219646,
				"element": "C" 
			},
			{
				"x": -0.1441836055,
				"y": 2.210310391,
				"z": 5.0504007766,
				"element": "C" 
			},
			{
				"x": 0.2659963293,
				"y": 3.2726856799,
				"z": 4.2379936013,
				"element": "C" 
			},
			{
				"x": 0.128093464,
				"y": 3.1897012157,
				"z": 2.8507221069,
				"element": "C" 
			},
			{
				"x": -0.4191696189,
				"y": 2.0449921652,
				"z": 2.2737534538,
				"element": "C" 
			},
			{
				"x": -3.7638975145,
				"y": 0.5145328258,
				"z": 0.7748952681,
				"element": "N" 
			},
			{
				"x": -4.741654772,
				"y": 0.6675983194,
				"z": 0.0494038873,
				"element": "O" 
			},
			{
				"x": -3.6844595794,
				"y": 0.8853731114,
				"z": 1.9448523541,
				"element": "O" 
			},
			{
				"x": -3.4884033277,
				"y": -0.2371884032,
				"z": -1.7501724063,
				"element": "H" 
			},
			{
				"x": 0.4821202757,
				"y": -1.3323843183,
				"z": 0.9954613075,
				"element": "H" 
			},
			{
				"x": 1.0946190204,
				"y": 0.5624148129,
				"z": -1.943493007,
				"element": "H" 
			},
			{
				"x": 3.0456803457,
				"y": 1.7309539029,
				"z": -2.9168586741,
				"element": "H" 
			},
			{
				"x": 5.0498388244,
				"y": 0.4394334502,
				"z": -3.6089902392,
				"element": "H" 
			},
			{
				"x": 5.0994589888,
				"y": -2.0285611664,
				"z": -3.3274554605,
				"element": "H" 
			},
			{
				"x": 3.1245386163,
				"y": -3.2018548258,
				"z": -2.3435256732,
				"element": "H" 
			},
			{
				"x": -1.0179887228,
				"y": 0.2302152897,
				"z": 5.0847279137,
				"element": "H" 
			},
			{
				"x": -0.0373749356,
				"y": 2.2781456557,
				"z": 6.1288325581,
				"element": "H" 
			},
			{
				"x": 0.6920579211,
				"y": 4.165266982,
				"z": 4.6869539782,
				"element": "H" 
			},
			{
				"x": 0.4446370146,
				"y": 4.0157777141,
				"z": 2.2212248644,
				"element": "H" 
			},
			{
				"x": -0.5265356026,
				"y": 1.9843419179,
				"z": 1.1949685797,
				"element": "H" 
			}
		],
		 "valence_orbital": [ 
			{
				"type": "occ",
				"energy": -0.27491,
				"method": "rhf"
			},
			{
				"type": "occ",
				"energy": -0.27428,
				"method": "rhf"
			},
			{
				"type": "occ",
				"energy": -0.27244,
				"method": "rhf"
			},
			{
				"type": "occ",
				"energy": -0.27221,
				"method": "rhf"
			},
			{
				"type": "occ",
				"energy": -0.27171,
				"method": "rhf"
			},
			{
				"type": "unocc",
				"energy": -0.11843,
				"method": "rhf"
			},
			{
				"type": "unocc",
				"energy": -0.10821,
				"method": "rhf"
			},
			{
				"type": "unocc",
				"energy": -0.07674,
				"method": "rhf"
			},
			{
				"type": "unocc",
				"energy": -0.07263,
				"method": "rhf"
			},
			{
				"type": "unocc",
				"energy": -0.04427,
				"method": "rhf"
			}
		],
		"cosmo_sigma_profile": { 
			"-0.025": 0.0,
			"-0.024": 0.0,
			"-0.023": 0.0,
			"-0.022": 0.0,
			"-0.021": 0.0,
			"-0.02": 0.0,
			"-0.019": 0.0,
			"-0.018": 0.0,
			"-0.017": 0.0,
			"-0.016": 0.0,
			"-0.015": 0.0,
			"-0.014": 0.0,
			"-0.013": 0.0,
			"-0.012": 0.0,
			"-0.011": 0.244674191926,
			"-0.01": 2.59177830609,
			"-0.009": 3.82562213215,
			"-0.008": 8.51643885366,
			"-0.007": 18.7752676072,
			"-0.006": 28.879297639,
			"-0.005": 32.8232023358,
			"-0.004": 32.5170252912,
			"-0.003": 21.3440477422,
			"-0.002": 18.935275036,
			"-0.001": 17.5466488651,
			"0.0": 18.8396322083,
			"0.001": 22.135136646,
			"0.002": 24.952354532,
			"0.003": 31.3457106587,
			"0.004": 23.9517586497,
			"0.005": 14.2954088805,
			"0.006": 17.9972278702,
			"0.007": 14.2625979622,
			"0.008": 11.7910814827,
			"0.009": 7.66796500572,
			"0.01": 7.33923189296,
			"0.011": 5.92225274806,
			"0.012": 0.690546965764,
			"0.013": 0.0,
			"0.014": 0.0,
			"0.015": 0.0,
			"0.016": 0.0,
			"0.017": 0.0,
			"0.018": 0.0,
			"0.019": 0.0,
			"0.02": 0.0,
			"0.021": 0.0,
			"0.022": 0.0,
			"0.023": 0.0,
			"0.024": 0.0,
			"0.025": 0.0
		}
	}
}
