{
	 "smiles": "CC(COC1=CC=CC=C1)C(O)=O", 
	 "Tm": 358.15, 
	 "num_atms": 25, 
	 "gaussian": { 
		 "optdone": 1, 
		 "sigma_profile": "yes", 
		 "theory": "DFT", 
		 "functional": "B3LYP", 
		 "basiset": "6-31G**", 
		 "properties": { 
			 "R2extent": 3353.6257, 
			 "electric_dipole_moment_norm": 1.48075020513, 
			 "electric_quadrupole_moment_norm": 10.1479954149, 
			 "total_energy": -613.977676953, 
			 "HOMO_LUMO_gap": 0.21471, 
			 "cosmo_polarized_energy": -10.9, 
			 "cosmo_cavitation_energy": 28.77, 
			 "cosmo_dispersion_energy": -20.43, 
			 "cosmo_repulsion_energy": 1.63, 
			 "cosmo_total_nonelectrostatic_energy": 9.97, 
			 "SMD_solvation_energy": 6.36 
		},
		"coords": [
			{
				"x": 0.4930569308,
				"y": 0.6732649607,
				"z": 1.7903395066,
				"element": "C" 
			},
			{
				"x": -0.1798069198,
				"y": -0.3118944669,
				"z": 0.8341005099,
				"element": "C" 
			},
			{
				"x": 0.7392657074,
				"y": -0.685565265,
				"z": -0.3549848244,
				"element": "C" 
			},
			{
				"x": 1.0148409778,
				"y": 0.4346343936,
				"z": -1.1860536326,
				"element": "O" 
			},
			{
				"x": 0.0931647758,
				"y": 0.8205766602,
				"z": -2.1265255204,
				"element": "C" 
			},
			{
				"x": -1.122778653,
				"y": 0.1716141274,
				"z": -2.3767390409,
				"element": "C" 
			},
			{
				"x": -1.9652463226,
				"y": 0.6593878064,
				"z": -3.3816947064,
				"element": "C" 
			},
			{
				"x": -1.6155878665,
				"y": 1.7789744063,
				"z": -4.1328144724,
				"element": "C" 
			},
			{
				"x": -0.4006133326,
				"y": 2.4219820719,
				"z": -3.8723488734,
				"element": "C" 
			},
			{
				"x": 0.4488184703,
				"y": 1.950591208,
				"z": -2.8774862986,
				"element": "C" 
			},
			{
				"x": -0.6209805909,
				"y": -1.5765563819,
				"z": 1.5507979241,
				"element": "C" 
			},
			{
				"x": -1.4023129762,
				"y": -2.3514448873,
				"z": 0.7512594324,
				"element": "O" 
			},
			{
				"x": -0.3319338714,
				"y": -1.8998900648,
				"z": 2.6807060379,
				"element": "O" 
			},
			{
				"x": 0.8378243921,
				"y": 1.5499740196,
				"z": 1.2371576941,
				"element": "H" 
			},
			{
				"x": 1.350945883,
				"y": 0.2075292126,
				"z": 2.2836445008,
				"element": "H" 
			},
			{
				"x": -0.1994256494,
				"y": 1.0002132216,
				"z": 2.5701342751,
				"element": "H" 
			},
			{
				"x": -1.0876295644,
				"y": 0.1345457089,
				"z": 0.410099084,
				"element": "H" 
			},
			{
				"x": 0.315819393,
				"y": -1.5094816942,
				"z": -0.9381245925,
				"element": "H" 
			},
			{
				"x": 1.7151174864,
				"y": -1.0035858325,
				"z": 0.0248699293,
				"element": "H" 
			},
			{
				"x": -1.4269045288,
				"y": -0.6979518536,
				"z": -1.8059347083,
				"element": "H" 
			},
			{
				"x": -2.9066982728,
				"y": 0.1505818219,
				"z": -3.5694254155,
				"element": "H" 
			},
			{
				"x": -2.2781458,
				"y": 2.1490350927,
				"z": -4.9089488296,
				"element": "H" 
			},
			{
				"x": -0.1120961505,
				"y": 3.2965148887,
				"z": -4.4487423101,
				"element": "H" 
			},
			{
				"x": 1.3962745357,
				"y": 2.4347450863,
				"z": -2.6640119608,
				"element": "H" 
			},
			{
				"x": -1.6290680534,
				"y": -3.1394942405,
				"z": 1.2733262915,
				"element": "H" 
			}
		],
		 "valence_orbital": [ 
			{
				"type": "occ",
				"energy": -0.32324,
				"method": "rhf"
			},
			{
				"type": "occ",
				"energy": -0.31633,
				"method": "rhf"
			},
			{
				"type": "occ",
				"energy": -0.28089,
				"method": "rhf"
			},
			{
				"type": "occ",
				"energy": -0.25057,
				"method": "rhf"
			},
			{
				"type": "occ",
				"energy": -0.22013,
				"method": "rhf"
			},
			{
				"type": "unocc",
				"energy": -0.00542,
				"method": "rhf"
			},
			{
				"type": "unocc",
				"energy": 0.00063,
				"method": "rhf"
			},
			{
				"type": "unocc",
				"energy": 0.01358,
				"method": "rhf"
			},
			{
				"type": "unocc",
				"energy": 0.0677,
				"method": "rhf"
			},
			{
				"type": "unocc",
				"energy": 0.09251,
				"method": "rhf"
			}
		],
		"cosmo_sigma_profile": { 
			"-0.025": 0.0,
			"-0.024": 0.0,
			"-0.023": 0.0,
			"-0.022": 0.0,
			"-0.021": 0.0,
			"-0.02": 0.0,
			"-0.019": 0.0,
			"-0.018": 0.744557947615,
			"-0.017": 0.996747095349,
			"-0.016": 0.676084126298,
			"-0.015": 0.867054019102,
			"-0.014": 0.705113239954,
			"-0.013": 0.719866862759,
			"-0.012": 0.762486050826,
			"-0.011": 0.766998284205,
			"-0.01": 0.856743993616,
			"-0.009": 0.631172725485,
			"-0.008": 0.432645437291,
			"-0.007": 1.67479427685,
			"-0.006": 9.54519691833,
			"-0.005": 16.4555695198,
			"-0.004": 20.4556919852,
			"-0.003": 22.8791683037,
			"-0.002": 18.1437125718,
			"-0.001": 17.2578466586,
			"0.0": 15.5953560089,
			"0.001": 14.8186341003,
			"0.002": 10.8798457728,
			"0.003": 11.410997286,
			"0.004": 14.2623072941,
			"0.005": 14.0641338424,
			"0.006": 10.8549236027,
			"0.007": 3.66939657891,
			"0.008": 3.34976583558,
			"0.009": 2.90174530382,
			"0.01": 2.56226200043,
			"0.011": 4.74129741652,
			"0.012": 3.52695634105,
			"0.013": 0.168831999535,
			"0.014": 0.0,
			"0.015": 0.0,
			"0.016": 0.0,
			"0.017": 0.0,
			"0.018": 0.0,
			"0.019": 0.0,
			"0.02": 0.0,
			"0.021": 0.0,
			"0.022": 0.0,
			"0.023": 0.0,
			"0.024": 0.0,
			"0.025": 0.0
		}
	}
}
