{
	 "smiles": "OC1=C2C(=O)C3=CC=CC=C3C(=O)C2=C(O)C=C1", 
	 "Tm": 471.15, 
	 "num_atms": 26, 
	 "gaussian": { 
		 "optdone": 1, 
		 "sigma_profile": "yes", 
		 "theory": "DFT", 
		 "functional": "B3LYP", 
		 "basiset": "6-31G**", 
		 "properties": { 
			 "R2extent": 5004.883, 
			 "electric_dipole_moment_norm": 0.985951971447, 
			 "electric_quadrupole_moment_norm": 25.0620232761, 
			 "total_energy": -839.220661236, 
			 "HOMO_LUMO_gap": 0.115, 
			 "cosmo_polarized_energy": -16.95, 
			 "cosmo_cavitation_energy": 30.17, 
			 "cosmo_dispersion_energy": -23.05, 
			 "cosmo_repulsion_energy": 1.69, 
			 "cosmo_total_nonelectrostatic_energy": 8.82, 
			 "SMD_solvation_energy": 6.22 
		},
		"coords": [
			{
				"x": 2.2948842721,
				"y": -3.8201356446,
				"z": -1.7216596075,
				"element": "O" 
			},
			{
				"x": 1.0816776325,
				"y": -3.2779607197,
				"z": -1.5720888047,
				"element": "C" 
			},
			{
				"x": 0.8776034272,
				"y": -1.9146045512,
				"z": -1.2524551116,
				"element": "C" 
			},
			{
				"x": 2.0609813804,
				"y": -1.0637377011,
				"z": -1.0788215947,
				"element": "C" 
			},
			{
				"x": 3.2147555597,
				"y": -1.5249534965,
				"z": -1.2082146445,
				"element": "O" 
			},
			{
				"x": 1.8732257434,
				"y": 0.3630942705,
				"z": -0.7444016134,
				"element": "C" 
			},
			{
				"x": 2.9941411062,
				"y": 1.1880992219,
				"z": -0.5751247264,
				"element": "C" 
			},
			{
				"x": 2.8254315259,
				"y": 2.5323991073,
				"z": -0.2601445167,
				"element": "C" 
			},
			{
				"x": 1.5367037482,
				"y": 3.0612836729,
				"z": -0.1122548211,
				"element": "C" 
			},
			{
				"x": 0.4206531334,
				"y": 2.2460235457,
				"z": -0.2794206404,
				"element": "C" 
			},
			{
				"x": 0.579708638,
				"y": 0.8921112741,
				"z": -0.5964109304,
				"element": "C" 
			},
			{
				"x": -0.6445067822,
				"y": 0.046337869,
				"z": -0.768549052,
				"element": "C" 
			},
			{
				"x": -1.7531227309,
				"y": 0.5512196995,
				"z": -0.6297062359,
				"element": "O" 
			},
			{
				"x": -0.4453113056,
				"y": -1.3899590753,
				"z": -1.1048336634,
				"element": "C" 
			},
			{
				"x": -1.5397241473,
				"y": -2.2533567624,
				"z": -1.2829315751,
				"element": "C" 
			},
			{
				"x": -2.8090327282,
				"y": -1.7949500253,
				"z": -1.1515273865,
				"element": "O" 
			},
			{
				"x": -1.3100884242,
				"y": -3.6101192308,
				"z": -1.601550738,
				"element": "C" 
			},
			{
				"x": -0.0371394398,
				"y": -4.1167733651,
				"z": -1.7440863548,
				"element": "C" 
			},
			{
				"x": 2.9453944507,
				"y": -3.0809007325,
				"z": -1.5634970082,
				"element": "H" 
			},
			{
				"x": 3.9799411552,
				"y": 0.7525014234,
				"z": -0.6954655079,
				"element": "H" 
			},
			{
				"x": 3.6936075874,
				"y": 3.1714902506,
				"z": -0.1290193746,
				"element": "H" 
			},
			{
				"x": 1.4071272186,
				"y": 4.11127602,
				"z": 0.1337209541,
				"element": "H" 
			},
			{
				"x": -0.5877253568,
				"y": 2.6300947999,
				"z": -0.1706601063,
				"element": "H" 
			},
			{
				"x": -3.4200025117,
				"y": -2.5276938194,
				"z": -1.3088331076,
				"element": "H" 
			},
			{
				"x": -2.1670480068,
				"y": -4.267560326,
				"z": -1.7367049747,
				"element": "H" 
			},
			{
				"x": 0.1333648547,
				"y": -5.1595257049,
				"z": -1.9888588576,
				"element": "H" 
			}
		],
		 "valence_orbital": [ 
			{
				"type": "occ",
				"energy": -0.27439,
				"method": "rhf"
			},
			{
				"type": "occ",
				"energy": -0.26809,
				"method": "rhf"
			},
			{
				"type": "occ",
				"energy": -0.26552,
				"method": "rhf"
			},
			{
				"type": "occ",
				"energy": -0.24766,
				"method": "rhf"
			},
			{
				"type": "occ",
				"energy": -0.2189,
				"method": "rhf"
			},
			{
				"type": "unocc",
				"energy": -0.1039,
				"method": "rhf"
			},
			{
				"type": "unocc",
				"energy": -0.05011,
				"method": "rhf"
			},
			{
				"type": "unocc",
				"energy": -0.02585,
				"method": "rhf"
			},
			{
				"type": "unocc",
				"energy": 0.00201,
				"method": "rhf"
			},
			{
				"type": "unocc",
				"energy": 0.05222,
				"method": "rhf"
			}
		],
		"cosmo_sigma_profile": { 
			"-0.025": 0.0,
			"-0.024": 0.0,
			"-0.023": 0.0,
			"-0.022": 0.0,
			"-0.021": 0.0,
			"-0.02": 0.0,
			"-0.019": 0.240007983139,
			"-0.018": 1.41997454273,
			"-0.017": 1.22657868831,
			"-0.016": 1.15296068111,
			"-0.015": 1.48123932715,
			"-0.014": 0.73003565184,
			"-0.013": 0.746807816796,
			"-0.012": 0.974535629024,
			"-0.011": 1.67631933095,
			"-0.01": 1.33019589406,
			"-0.009": 1.37127833261,
			"-0.008": 3.15724784645,
			"-0.007": 8.31496222456,
			"-0.006": 12.7965213962,
			"-0.005": 12.4177715401,
			"-0.004": 11.9972188373,
			"-0.003": 15.3504529028,
			"-0.002": 15.7951054454,
			"-0.001": 15.2460824313,
			"0.0": 26.0305412221,
			"0.001": 28.0181661282,
			"0.002": 22.2920541451,
			"0.003": 10.6281671055,
			"0.004": 4.70621616321,
			"0.005": 5.43552351559,
			"0.006": 5.23725613217,
			"0.007": 4.29161512136,
			"0.008": 5.06094921684,
			"0.009": 5.01987048866,
			"0.01": 5.52753052293,
			"0.011": 4.52498050007,
			"0.012": 3.55203394526,
			"0.013": 2.09542425435,
			"0.014": 1.22165550444,
			"0.015": 1.54751621786,
			"0.016": 1.02046086551,
			"0.017": 0.0636431200757,
			"0.018": 0.0,
			"0.019": 0.0,
			"0.02": 0.0,
			"0.021": 0.0,
			"0.022": 0.0,
			"0.023": 0.0,
			"0.024": 0.0,
			"0.025": 0.0
		}
	}
}
