{
	 "smiles": "CC(C)N(C)S(=O)(=O)C1=CC(C(O)=O)=C(F)C=C1", 
	 "Tm": 468.15, 
	 "num_atms": 32, 
	 "gaussian": { 
		 "optdone": 1, 
		 "sigma_profile": "yes", 
		 "theory": "DFT", 
		 "functional": "B3LYP", 
		 "basiset": "6-31G**", 
		 "properties": { 
			 "R2extent": 6455.6695, 
			 "electric_dipole_moment_norm": 3.69283984083, 
			 "electric_quadrupole_moment_norm": 16.9621317322, 
			 "total_energy": -1281.22316405, 
			 "HOMO_LUMO_gap": 0.18184, 
			 "cosmo_polarized_energy": -17.11, 
			 "cosmo_cavitation_energy": 37.18, 
			 "cosmo_dispersion_energy": -25.72, 
			 "cosmo_repulsion_energy": 1.92, 
			 "cosmo_total_nonelectrostatic_energy": 13.39, 
			 "SMD_solvation_energy": 7.33 
		},
		"coords": [
			{
				"x": -1.9229844485,
				"y": -0.7383612963,
				"z": 3.1418813871,
				"element": "C" 
			},
			{
				"x": -2.6380228529,
				"y": 0.3520982815,
				"z": 2.3363050916,
				"element": "C" 
			},
			{
				"x": -4.1606342408,
				"y": 0.3197253609,
				"z": 2.5320501458,
				"element": "C" 
			},
			{
				"x": -2.2219891391,
				"y": 0.2676690553,
				"z": 0.9044219245,
				"element": "N" 
			},
			{
				"x": -2.7119928204,
				"y": -0.8769073796,
				"z": 0.124091719,
				"element": "C" 
			},
			{
				"x": -2.2552448517,
				"y": 1.725581957,
				"z": 0.0420213987,
				"element": "S" 
			},
			{
				"x": -3.4530519139,
				"y": 1.8238690202,
				"z": -0.8068621322,
				"element": "O" 
			},
			{
				"x": -1.9362950134,
				"y": 2.7935180411,
				"z": 0.9950673584,
				"element": "O" 
			},
			{
				"x": -0.8566909207,
				"y": 1.513484021,
				"z": -1.0692290618,
				"element": "C" 
			},
			{
				"x": 0.4190471564,
				"y": 1.3325785473,
				"z": -0.5457500341,
				"element": "C" 
			},
			{
				"x": 1.5282803396,
				"y": 1.2260269199,
				"z": -1.3947306579,
				"element": "C" 
			},
			{
				"x": 2.8535660655,
				"y": 1.0220069094,
				"z": -0.7388176216,
				"element": "C" 
			},
			{
				"x": 3.8955343874,
				"y": 0.982680845,
				"z": -1.5934287192,
				"element": "O" 
			},
			{
				"x": 2.9894214386,
				"y": 0.9023708963,
				"z": 0.4626361043,
				"element": "O" 
			},
			{
				"x": 1.3032380254,
				"y": 1.3168456315,
				"z": -2.7789973508,
				"element": "C" 
			},
			{
				"x": 2.3186862544,
				"y": 1.2201600614,
				"z": -3.644466542,
				"element": "F" 
			},
			{
				"x": 0.0285529891,
				"y": 1.5033752385,
				"z": -3.3069576196,
				"element": "C" 
			},
			{
				"x": -1.0621812795,
				"y": 1.6045531164,
				"z": -2.4482362816,
				"element": "C" 
			},
			{
				"x": -0.8428198977,
				"y": -0.6983972056,
				"z": 2.9782011831,
				"element": "H" 
			},
			{
				"x": -2.1163406325,
				"y": -0.5892131231,
				"z": 4.2088141073,
				"element": "H" 
			},
			{
				"x": -2.2763867449,
				"y": -1.7431584185,
				"z": 2.8863790816,
				"element": "H" 
			},
			{
				"x": -2.2656946372,
				"y": 1.3201014812,
				"z": 2.6776233909,
				"element": "H" 
			},
			{
				"x": -4.4026618379,
				"y": 0.4747591317,
				"z": 3.5883893888,
				"element": "H" 
			},
			{
				"x": -4.5887663357,
				"y": -0.6435853532,
				"z": 2.2346396966,
				"element": "H" 
			},
			{
				"x": -4.6514551348,
				"y": 1.1071755487,
				"z": 1.9529518924,
				"element": "H" 
			},
			{
				"x": -2.1672851684,
				"y": -0.9333484052,
				"z": -0.8218416199,
				"element": "H" 
			},
			{
				"x": -3.7844440676,
				"y": -0.8265020436,
				"z": -0.0942158369,
				"element": "H" 
			},
			{
				"x": -2.4969708261,
				"y": -1.7905192159,
				"z": 0.6814618258,
				"element": "H" 
			},
			{
				"x": 0.5858147124,
				"y": 1.2648980709,
				"z": 0.5231809045,
				"element": "H" 
			},
			{
				"x": 4.6830174504,
				"y": 0.8509290256,
				"z": -1.0386098822,
				"element": "H" 
			},
			{
				"x": -0.0861606747,
				"y": 1.5666462239,
				"z": -4.3832739039,
				"element": "H" 
			},
			{
				"x": -2.0661853809,
				"y": 1.7537390563,
				"z": -2.8297993365,
				"element": "H" 
			}
		],
		 "valence_orbital": [ 
			{
				"type": "occ",
				"energy": -0.30088,
				"method": "rhf"
			},
			{
				"type": "occ",
				"energy": -0.29288,
				"method": "rhf"
			},
			{
				"type": "occ",
				"energy": -0.28828,
				"method": "rhf"
			},
			{
				"type": "occ",
				"energy": -0.27835,
				"method": "rhf"
			},
			{
				"type": "occ",
				"energy": -0.25026,
				"method": "rhf"
			},
			{
				"type": "unocc",
				"energy": -0.06842,
				"method": "rhf"
			},
			{
				"type": "unocc",
				"energy": -0.04353,
				"method": "rhf"
			},
			{
				"type": "unocc",
				"energy": 0.02837,
				"method": "rhf"
			},
			{
				"type": "unocc",
				"energy": 0.05478,
				"method": "rhf"
			},
			{
				"type": "unocc",
				"energy": 0.07189,
				"method": "rhf"
			}
		],
		"cosmo_sigma_profile": { 
			"-0.025": 0.0,
			"-0.024": 0.0,
			"-0.023": 0.0,
			"-0.022": 0.0,
			"-0.021": 0.0,
			"-0.02": 0.0,
			"-0.019": 0.304317967923,
			"-0.018": 0.694616198185,
			"-0.017": 1.34227336378,
			"-0.016": 0.619176041878,
			"-0.015": 0.938483193488,
			"-0.014": 0.510599206051,
			"-0.013": 0.713334975521,
			"-0.012": 0.725875293557,
			"-0.011": 0.969295412628,
			"-0.01": 0.604433124593,
			"-0.009": 1.72948955141,
			"-0.008": 4.14477836187,
			"-0.007": 4.74904751328,
			"-0.006": 7.58823057634,
			"-0.005": 10.7977685946,
			"-0.004": 24.3412723672,
			"-0.003": 31.906892809,
			"-0.002": 37.5866054504,
			"-0.001": 30.9003546187,
			"0.0": 30.5703691891,
			"0.001": 17.5719191882,
			"0.002": 9.59403725669,
			"0.003": 12.9383843933,
			"0.004": 7.22422737057,
			"0.005": 5.95627814365,
			"0.006": 5.80348556845,
			"0.007": 5.12216056756,
			"0.008": 7.18331912183,
			"0.009": 6.91372140175,
			"0.01": 8.18135836315,
			"0.011": 12.6878236208,
			"0.012": 3.57067848668,
			"0.013": 0.0,
			"0.014": 0.0,
			"0.015": 0.0,
			"0.016": 0.0,
			"0.017": 0.0,
			"0.018": 0.0,
			"0.019": 0.0,
			"0.02": 0.0,
			"0.021": 0.0,
			"0.022": 0.0,
			"0.023": 0.0,
			"0.024": 0.0,
			"0.025": 0.0
		}
	}
}
