{
	 "smiles": "CON(C)S(=O)(=O)C1=CC(C(O)=O)=C(Cl)C=C1", 
	 "Tm": 458.15, 
	 "num_atms": 27, 
	 "gaussian": { 
		 "optdone": 1, 
		 "sigma_profile": "yes", 
		 "theory": "DFT", 
		 "functional": "B3LYP", 
		 "basiset": "6-31G**", 
		 "properties": { 
			 "R2extent": 5774.9876, 
			 "electric_dipole_moment_norm": 4.00456582166, 
			 "electric_quadrupole_moment_norm": 14.5337211859, 
			 "total_energy": -1638.10174955, 
			 "HOMO_LUMO_gap": 0.18276, 
			 "cosmo_polarized_energy": -18.08, 
			 "cosmo_cavitation_energy": 35.21, 
			 "cosmo_dispersion_energy": -24.9, 
			 "cosmo_repulsion_energy": 1.91, 
			 "cosmo_total_nonelectrostatic_energy": 12.21, 
			 "SMD_solvation_energy": 7.43 
		},
		"coords": [
			{
				"x": 2.8325058045,
				"y": 1.8193501906,
				"z": 2.2289714788,
				"element": "C" 
			},
			{
				"x": 2.3526273432,
				"y": 2.6124446341,
				"z": 1.1371722527,
				"element": "O" 
			},
			{
				"x": 1.202190672,
				"y": 1.9953101139,
				"z": 0.5638802137,
				"element": "N" 
			},
			{
				"x": 0.2164802592,
				"y": 3.0652178888,
				"z": 0.3586919175,
				"element": "C" 
			},
			{
				"x": 1.7369555474,
				"y": 1.2813552831,
				"z": -0.9597964515,
				"element": "S" 
			},
			{
				"x": 1.7611914718,
				"y": 2.2627059476,
				"z": -2.0524562078,
				"element": "O" 
			},
			{
				"x": 2.9207319487,
				"y": 0.4905659796,
				"z": -0.6255417328,
				"element": "O" 
			},
			{
				"x": 0.3524890448,
				"y": 0.1760124292,
				"z": -1.259871155,
				"element": "C" 
			},
			{
				"x": 0.1105446315,
				"y": -0.8776466905,
				"z": -0.387571383,
				"element": "C" 
			},
			{
				"x": -0.9353953098,
				"y": -1.7831508891,
				"z": -0.6229199859,
				"element": "C" 
			},
			{
				"x": -1.0563211366,
				"y": -2.8627809803,
				"z": 0.4125356235,
				"element": "C" 
			},
			{
				"x": -1.8458090947,
				"y": -3.8957145355,
				"z": 0.0701969963,
				"element": "O" 
			},
			{
				"x": -0.4638731556,
				"y": -2.821067661,
				"z": 1.4725071815,
				"element": "O" 
			},
			{
				"x": -1.7362314543,
				"y": -1.5850365835,
				"z": -1.7684096439,
				"element": "C" 
			},
			{
				"x": -3.103230379,
				"y": -2.5937168416,
				"z": -2.1764979246,
				"element": "Cl" 
			},
			{
				"x": -1.4802470399,
				"y": -0.5223929584,
				"z": -2.6422850625,
				"element": "C" 
			},
			{
				"x": -0.4344679743,
				"y": 0.3609002134,
				"z": -2.3968205563,
				"element": "C" 
			},
			{
				"x": 2.0489859006,
				"y": 1.6776151813,
				"z": 2.9814639401,
				"element": "H" 
			},
			{
				"x": 3.2024189188,
				"y": 0.852489089,
				"z": 1.8796970179,
				"element": "H" 
			},
			{
				"x": 3.6554173185,
				"y": 2.4006163846,
				"z": 2.6518283967,
				"element": "H" 
			},
			{
				"x": -0.0842964266,
				"y": 3.420154326,
				"z": 1.345986317,
				"element": "H" 
			},
			{
				"x": -0.6565622538,
				"y": 2.6446284593,
				"z": -0.1462714776,
				"element": "H" 
			},
			{
				"x": 0.6220581628,
				"y": 3.8935772594,
				"z": -0.2313793794,
				"element": "H" 
			},
			{
				"x": 0.7210612926,
				"y": -1.026738324,
				"z": 0.495086481,
				"element": "H" 
			},
			{
				"x": -1.8162236762,
				"y": -4.5106319553,
				"z": 0.8230720226,
				"element": "H" 
			},
			{
				"x": -2.1114333634,
				"y": -0.3957276021,
				"z": -3.5142464957,
				"element": "H" 
			},
			{
				"x": -0.2241670523,
				"y": 1.1829616414,
				"z": -3.0723223836,
				"element": "H" 
			}
		],
		 "valence_orbital": [ 
			{
				"type": "occ",
				"energy": -0.3005,
				"method": "rhf"
			},
			{
				"type": "occ",
				"energy": -0.29346,
				"method": "rhf"
			},
			{
				"type": "occ",
				"energy": -0.29167,
				"method": "rhf"
			},
			{
				"type": "occ",
				"energy": -0.27533,
				"method": "rhf"
			},
			{
				"type": "occ",
				"energy": -0.26076,
				"method": "rhf"
			},
			{
				"type": "unocc",
				"energy": -0.078,
				"method": "rhf"
			},
			{
				"type": "unocc",
				"energy": -0.05697,
				"method": "rhf"
			},
			{
				"type": "unocc",
				"energy": 0.00944,
				"method": "rhf"
			},
			{
				"type": "unocc",
				"energy": 0.01671,
				"method": "rhf"
			},
			{
				"type": "unocc",
				"energy": 0.04245,
				"method": "rhf"
			}
		],
		"cosmo_sigma_profile": { 
			"-0.025": 0.0,
			"-0.024": 0.0,
			"-0.023": 0.0,
			"-0.022": 0.0,
			"-0.021": 0.0,
			"-0.02": 0.0,
			"-0.019": 0.46474872659,
			"-0.018": 0.992684001033,
			"-0.017": 0.948876197106,
			"-0.016": 1.13211854307,
			"-0.015": 0.665805762199,
			"-0.014": 0.344485109578,
			"-0.013": 0.260535707597,
			"-0.012": 1.0626357946,
			"-0.011": 0.903563764483,
			"-0.01": 0.604606309722,
			"-0.009": 2.36662256088,
			"-0.008": 4.52915909169,
			"-0.007": 7.10512615531,
			"-0.006": 10.1457379422,
			"-0.005": 18.7192545281,
			"-0.004": 23.6828230322,
			"-0.003": 29.3369655709,
			"-0.002": 24.4803063961,
			"-0.001": 26.108759376,
			"0.0": 17.8085767076,
			"0.001": 12.7896988514,
			"0.002": 12.2264267183,
			"0.003": 13.2212958335,
			"0.004": 10.3774412638,
			"0.005": 8.12720071543,
			"0.006": 8.42913548961,
			"0.007": 8.78388188058,
			"0.008": 8.550393772,
			"0.009": 8.92244181321,
			"0.01": 10.8548081978,
			"0.011": 8.74193546702,
			"0.012": 0.436219991493,
			"0.013": 0.0,
			"0.014": 0.0,
			"0.015": 0.0,
			"0.016": 0.0,
			"0.017": 0.0,
			"0.018": 0.0,
			"0.019": 0.0,
			"0.02": 0.0,
			"0.021": 0.0,
			"0.022": 0.0,
			"0.023": 0.0,
			"0.024": 0.0,
			"0.025": 0.0
		}
	}
}
