{
	 "smiles": "CCCCCC1=CC2=C([C@@H]3C=C(C)CC[C@H]3C(C)(C)O2)C(O)=C1", 
	 "Tm": 473.15, 
	 "num_atms": 53, 
	 "gaussian": { 
		 "optdone": 1, 
		 "sigma_profile": "yes", 
		 "theory": "DFT", 
		 "functional": "B3LYP", 
		 "basiset": "6-31G**", 
		 "properties": { 
			 "R2extent": 9470.0644, 
			 "electric_dipole_moment_norm": 3.17499117164, 
			 "electric_quadrupole_moment_norm": 10.5980794557, 
			 "total_energy": -968.783172413, 
			 "HOMO_LUMO_gap": 0.20552, 
			 "cosmo_polarized_energy": -9.63, 
			 "cosmo_cavitation_energy": 50.0, 
			 "cosmo_dispersion_energy": -33.71, 
			 "cosmo_repulsion_energy": 2.6, 
			 "cosmo_total_nonelectrostatic_energy": 18.88, 
			 "SMD_solvation_energy": 7.69 
		},
		"coords": [
			{
				"x": 0.5665513486,
				"y": -0.1320270036,
				"z": -5.7223522801,
				"element": "C" 
			},
			{
				"x": 0.4656355135,
				"y": -0.9803104588,
				"z": -4.4499839465,
				"element": "C" 
			},
			{
				"x": -0.3106570695,
				"y": -2.2863921786,
				"z": -4.6747780307,
				"element": "C" 
			},
			{
				"x": -0.3778501203,
				"y": -3.2509536975,
				"z": -3.4770498378,
				"element": "C" 
			},
			{
				"x": -1.3413055954,
				"y": -2.8595775161,
				"z": -2.3331447909,
				"element": "C" 
			},
			{
				"x": -0.9065822021,
				"y": -1.7154945686,
				"z": -1.4369385685,
				"element": "C" 
			},
			{
				"x": -1.6644489477,
				"y": -0.5472038738,
				"z": -1.3502324245,
				"element": "C" 
			},
			{
				"x": -1.2713619137,
				"y": 0.4942419302,
				"z": -0.5009383536,
				"element": "C" 
			},
			{
				"x": -0.1363980882,
				"y": 0.3864469612,
				"z": 0.3211468697,
				"element": "C" 
			},
			{
				"x": 0.2156963441,
				"y": 1.5070356368,
				"z": 1.2880187848,
				"element": "C" 
			},
			{
				"x": 0.5627389811,
				"y": 1.0577659578,
				"z": 2.704580072,
				"element": "C" 
			},
			{
				"x": 0.4136323483,
				"y": 1.8476302962,
				"z": 3.7776716451,
				"element": "C" 
			},
			{
				"x": 0.7502335876,
				"y": 1.375124261,
				"z": 5.1684761072,
				"element": "C" 
			},
			{
				"x": -0.1468715055,
				"y": 3.251070472,
				"z": 3.6775047386,
				"element": "C" 
			},
			{
				"x": -0.4545162094,
				"y": 3.7130116884,
				"z": 2.238527523,
				"element": "C" 
			},
			{
				"x": -0.937885491,
				"y": 2.528394483,
				"z": 1.3910195463,
				"element": "C" 
			},
			{
				"x": -1.536851348,
				"y": 2.8517430866,
				"z": 0.009168374,
				"element": "C" 
			},
			{
				"x": -2.7707193181,
				"y": 3.7503888481,
				"z": 0.1151261221,
				"element": "C" 
			},
			{
				"x": -0.5309731419,
				"y": 3.4334855939,
				"z": -0.9943373513,
				"element": "C" 
			},
			{
				"x": -2.0676992385,
				"y": 1.607821971,
				"z": -0.5239749668,
				"element": "O" 
			},
			{
				"x": 0.6527126724,
				"y": -0.7707733143,
				"z": 0.1607439163,
				"element": "C" 
			},
			{
				"x": 1.8440270205,
				"y": -0.9423076851,
				"z": 0.8231525318,
				"element": "O" 
			},
			{
				"x": 0.2671062024,
				"y": -1.8132354682,
				"z": -0.6804142665,
				"element": "C" 
			},
			{
				"x": -0.4267341091,
				"y": 0.151885521,
				"z": -6.0896342282,
				"element": "H" 
			},
			{
				"x": 1.0699847941,
				"y": -0.6793487206,
				"z": -6.5282082326,
				"element": "H" 
			},
			{
				"x": 1.1295867738,
				"y": 0.7905633779,
				"z": -5.5455420265,
				"element": "H" 
			},
			{
				"x": -0.0080635073,
				"y": -0.3943828175,
				"z": -3.6559672668,
				"element": "H" 
			},
			{
				"x": 1.4747693762,
				"y": -1.2213560612,
				"z": -4.089003606,
				"element": "H" 
			},
			{
				"x": 0.1546613287,
				"y": -2.8208998295,
				"z": -5.5151788139,
				"element": "H" 
			},
			{
				"x": -1.3334821264,
				"y": -2.049893708,
				"z": -5.0036630545,
				"element": "H" 
			},
			{
				"x": -0.7024711646,
				"y": -4.2312145364,
				"z": -3.8492748792,
				"element": "H" 
			},
			{
				"x": 0.6314145803,
				"y": -3.4031923398,
				"z": -3.0721403159,
				"element": "H" 
			},
			{
				"x": -1.4871530036,
				"y": -3.7475256844,
				"z": -1.7031761261,
				"element": "H" 
			},
			{
				"x": -2.3240455931,
				"y": -2.6271837246,
				"z": -2.7613808167,
				"element": "H" 
			},
			{
				"x": -2.5619297067,
				"y": -0.4123151,
				"z": -1.9453237959,
				"element": "H" 
			},
			{
				"x": 1.090490324,
				"y": 2.0470482344,
				"z": 0.8805626376,
				"element": "H" 
			},
			{
				"x": 0.9139205786,
				"y": 0.0398987761,
				"z": 2.8553093602,
				"element": "H" 
			},
			{
				"x": 1.5209844772,
				"y": 2.0091194485,
				"z": 5.6263870533,
				"element": "H" 
			},
			{
				"x": 1.1132728805,
				"y": 0.3437571611,
				"z": 5.1707682664,
				"element": "H" 
			},
			{
				"x": -0.1271156165,
				"y": 1.4289377782,
				"z": 5.8265789726,
				"element": "H" 
			},
			{
				"x": 0.5395124529,
				"y": 3.9588275091,
				"z": 4.1630332665,
				"element": "H" 
			},
			{
				"x": -1.0662581545,
				"y": 3.2863694263,
				"z": 4.2820004535,
				"element": "H" 
			},
			{
				"x": -1.200500788,
				"y": 4.5134679569,
				"z": 2.2695746203,
				"element": "H" 
			},
			{
				"x": 0.4479022279,
				"y": 4.1415042839,
				"z": 1.7842232056,
				"element": "H" 
			},
			{
				"x": -1.7507319399,
				"y": 2.0319800201,
				"z": 1.9397018928,
				"element": "H" 
			},
			{
				"x": -3.2817576902,
				"y": 3.7822389297,
				"z": -0.8511161034,
				"element": "H" 
			},
			{
				"x": -2.4958898299,
				"y": 4.7719715879,
				"z": 0.3908240439,
				"element": "H" 
			},
			{
				"x": -3.4722512647,
				"y": 3.3609974217,
				"z": 0.8589603875,
				"element": "H" 
			},
			{
				"x": 0.2934644898,
				"y": 2.7423148943,
				"z": -1.1865742242,
				"element": "H" 
			},
			{
				"x": -1.0315902012,
				"y": 3.6309684769,
				"z": -1.9465079864,
				"element": "H" 
			},
			{
				"x": -0.1121005044,
				"y": 4.3754444073,
				"z": -0.6261530186,
				"element": "H" 
			},
			{
				"x": 2.0975464084,
				"y": -0.1190206221,
				"z": 1.2570565397,
				"element": "H" 
			},
			{
				"x": 0.9082506786,
				"y": -2.6869474888,
				"z": -0.7392276189,
				"element": "H" 
			}
		],
		 "valence_orbital": [ 
			{
				"type": "occ",
				"energy": -0.29235,
				"method": "rhf"
			},
			{
				"type": "occ",
				"energy": -0.27526,
				"method": "rhf"
			},
			{
				"type": "occ",
				"energy": -0.23894,
				"method": "rhf"
			},
			{
				"type": "occ",
				"energy": -0.21355,
				"method": "rhf"
			},
			{
				"type": "occ",
				"energy": -0.19943,
				"method": "rhf"
			},
			{
				"type": "unocc",
				"energy": 0.00609,
				"method": "rhf"
			},
			{
				"type": "unocc",
				"energy": 0.02019,
				"method": "rhf"
			},
			{
				"type": "unocc",
				"energy": 0.02746,
				"method": "rhf"
			},
			{
				"type": "unocc",
				"energy": 0.07664,
				"method": "rhf"
			},
			{
				"type": "unocc",
				"energy": 0.08997,
				"method": "rhf"
			}
		],
		"cosmo_sigma_profile": { 
			"-0.025": 0.0,
			"-0.024": 0.0,
			"-0.023": 0.0,
			"-0.022": 0.0,
			"-0.021": 0.0,
			"-0.02": 0.0,
			"-0.019": 0.0,
			"-0.018": 0.0,
			"-0.017": 0.0,
			"-0.016": 0.0,
			"-0.015": 0.0608294420316,
			"-0.014": 0.537241356199,
			"-0.013": 1.0077355849,
			"-0.012": 1.1308323967,
			"-0.011": 0.567521538952,
			"-0.01": 0.862895470791,
			"-0.009": 1.10222267061,
			"-0.008": 0.960706436472,
			"-0.007": 0.776270690332,
			"-0.006": 1.5032173852,
			"-0.005": 2.73978826992,
			"-0.004": 18.0336195965,
			"-0.003": 48.747607986,
			"-0.002": 54.1516696489,
			"-0.001": 56.5507342835,
			"0.0": 58.7069867188,
			"0.001": 46.0012884895,
			"0.002": 25.858591276,
			"0.003": 13.1634728018,
			"0.004": 12.6693704725,
			"0.005": 15.0653925123,
			"0.006": 11.0304097196,
			"0.007": 3.52159741566,
			"0.008": 2.13253327757,
			"0.009": 2.83018661965,
			"0.01": 3.55814716642,
			"0.011": 2.70794687286,
			"0.012": 1.15548563737,
			"0.013": 0.0,
			"0.014": 0.0,
			"0.015": 0.0,
			"0.016": 0.0,
			"0.017": 0.0,
			"0.018": 0.0,
			"0.019": 0.0,
			"0.02": 0.0,
			"0.021": 0.0,
			"0.022": 0.0,
			"0.023": 0.0,
			"0.024": 0.0,
			"0.025": 0.0
		}
	}
}
