{
	 "smiles": "COC(=O)C(CC(O)=O)C1CCCCC1", 
	 "Tm": 321.05, 
	 "num_atms": 33, 
	 "gaussian": { 
		 "optdone": 1, 
		 "sigma_profile": "yes", 
		 "theory": "DFT", 
		 "functional": "B3LYP", 
		 "basiset": "6-31G**", 
		 "properties": { 
			 "R2extent": 3630.6346, 
			 "electric_dipole_moment_norm": 2.99153633439, 
			 "electric_quadrupole_moment_norm": 9.00544038235, 
			 "total_energy": -730.952029067, 
			 "HOMO_LUMO_gap": 0.26814, 
			 "cosmo_polarized_energy": -12.4, 
			 "cosmo_cavitation_energy": 33.22, 
			 "cosmo_dispersion_energy": -23.19, 
			 "cosmo_repulsion_energy": 1.84, 
			 "cosmo_total_nonelectrostatic_energy": 11.87, 
			 "SMD_solvation_energy": 7.03 
		},
		"coords": [
			{
				"x": -1.1908491063,
				"y": -3.4746727443,
				"z": 1.8060444539,
				"element": "C" 
			},
			{
				"x": -0.2509075138,
				"y": -2.7519945286,
				"z": 0.9915917476,
				"element": "O" 
			},
			{
				"x": -0.7949336833,
				"y": -1.9930854451,
				"z": 0.0127562709,
				"element": "C" 
			},
			{
				"x": -1.9906829574,
				"y": -1.9358284497,
				"z": -0.1905591563,
				"element": "O" 
			},
			{
				"x": 0.2803800216,
				"y": -1.2825647975,
				"z": -0.7981562229,
				"element": "C" 
			},
			{
				"x": -0.1178421145,
				"y": -1.3945957093,
				"z": -2.2902460627,
				"element": "C" 
			},
			{
				"x": 0.876192486,
				"y": -0.7543756184,
				"z": -3.2321161343,
				"element": "C" 
			},
			{
				"x": 2.108181393,
				"y": -1.3176385143,
				"z": -3.1247840287,
				"element": "O" 
			},
			{
				"x": 0.6428679492,
				"y": 0.1453136656,
				"z": -4.0083290765,
				"element": "O" 
			},
			{
				"x": 0.610192916,
				"y": 0.1862897609,
				"z": -0.3598079182,
				"element": "C" 
			},
			{
				"x": 1.0519136401,
				"y": 0.3040370903,
				"z": 1.1199928849,
				"element": "C" 
			},
			{
				"x": -0.1039392275,
				"y": 0.4453913396,
				"z": 2.1269506844,
				"element": "C" 
			},
			{
				"x": -1.0674025778,
				"y": 1.5754026177,
				"z": 1.7369369387,
				"element": "C" 
			},
			{
				"x": -1.597850699,
				"y": 1.3798722051,
				"z": 0.3094287919,
				"element": "C" 
			},
			{
				"x": -0.4423396263,
				"y": 1.2704756405,
				"z": -0.6981241456,
				"element": "C" 
			},
			{
				"x": -1.8475119732,
				"y": -2.7839783746,
				"z": 2.3413813062,
				"element": "H" 
			},
			{
				"x": -0.588833598,
				"y": -4.050863868,
				"z": 2.5083116285,
				"element": "H" 
			},
			{
				"x": -1.8036857997,
				"y": -4.1357528695,
				"z": 1.188844249,
				"element": "H" 
			},
			{
				"x": 1.2038909536,
				"y": -1.8492271026,
				"z": -0.6457715388,
				"element": "H" 
			},
			{
				"x": -1.0943846562,
				"y": -0.9448028411,
				"z": -2.4660898823,
				"element": "H" 
			},
			{
				"x": -0.1895081091,
				"y": -2.4561441982,
				"z": -2.5552708319,
				"element": "H" 
			},
			{
				"x": 2.6741415302,
				"y": -0.8480282572,
				"z": -3.7605624817,
				"element": "H" 
			},
			{
				"x": 1.4981986604,
				"y": 0.4198130616,
				"z": -0.9622391322,
				"element": "H" 
			},
			{
				"x": 1.687889293,
				"y": -0.5471032872,
				"z": 1.3912695164,
				"element": "H" 
			},
			{
				"x": 1.6828792107,
				"y": 1.1995611435,
				"z": 1.202305599,
				"element": "H" 
			},
			{
				"x": 0.3122866947,
				"y": 0.6258499447,
				"z": 3.1257161425,
				"element": "H" 
			},
			{
				"x": -0.6616710071,
				"y": -0.4953994891,
				"z": 2.1986029146,
				"element": "H" 
			},
			{
				"x": -1.8977425804,
				"y": 1.6279694269,
				"z": 2.4513418916,
				"element": "H" 
			},
			{
				"x": -0.5396819136,
				"y": 2.5384318903,
				"z": 1.7995967537,
				"element": "H" 
			},
			{
				"x": -2.2419788751,
				"y": 2.2215717362,
				"z": 0.0274475574,
				"element": "H" 
			},
			{
				"x": -2.2208793483,
				"y": 0.4801854702,
				"z": 0.2655481443,
				"element": "H" 
			},
			{
				"x": -0.8243920726,
				"y": 1.136259174,
				"z": -1.7146563019,
				"element": "H" 
			},
			{
				"x": 0.0913026907,
				"y": 2.2314319274,
				"z": -0.7103545615,
				"element": "H" 
			}
		],
		 "valence_orbital": [ 
			{
				"type": "occ",
				"energy": -0.30025,
				"method": "rhf"
			},
			{
				"type": "occ",
				"energy": -0.29821,
				"method": "rhf"
			},
			{
				"type": "occ",
				"energy": -0.29231,
				"method": "rhf"
			},
			{
				"type": "occ",
				"energy": -0.27802,
				"method": "rhf"
			},
			{
				"type": "occ",
				"energy": -0.26988,
				"method": "rhf"
			},
			{
				"type": "unocc",
				"energy": -0.00174,
				"method": "rhf"
			},
			{
				"type": "unocc",
				"energy": 0.00827,
				"method": "rhf"
			},
			{
				"type": "unocc",
				"energy": 0.0661,
				"method": "rhf"
			},
			{
				"type": "unocc",
				"energy": 0.08369,
				"method": "rhf"
			},
			{
				"type": "unocc",
				"energy": 0.09163,
				"method": "rhf"
			}
		],
		"cosmo_sigma_profile": { 
			"-0.025": 0.0,
			"-0.024": 0.0,
			"-0.023": 0.0,
			"-0.022": 0.0,
			"-0.021": 0.0,
			"-0.02": 0.0,
			"-0.019": 0.0196808300236,
			"-0.018": 0.70257060957,
			"-0.017": 1.16240956303,
			"-0.016": 0.569961351079,
			"-0.015": 0.962403046213,
			"-0.014": 0.570435978085,
			"-0.013": 0.0575720987629,
			"-0.012": 0.955473694126,
			"-0.011": 1.30146884449,
			"-0.01": 0.784520791162,
			"-0.009": 0.293119791899,
			"-0.008": 0.806578043423,
			"-0.007": 4.21657648252,
			"-0.006": 7.26725169875,
			"-0.005": 12.4696034473,
			"-0.004": 16.194945395,
			"-0.003": 22.385627985,
			"-0.002": 31.6130733883,
			"-0.001": 29.7976467695,
			"0.0": 29.2916580139,
			"0.001": 25.9116136931,
			"0.002": 14.0870084155,
			"0.003": 6.82077060686,
			"0.004": 6.06681929479,
			"0.005": 5.82227762885,
			"0.006": 5.75876507646,
			"0.007": 4.75807085359,
			"0.008": 5.74088171464,
			"0.009": 3.17772675873,
			"0.01": 3.44618486393,
			"0.011": 6.92232084683,
			"0.012": 6.72580284066,
			"0.013": 0.576849965985,
			"0.014": 0.0,
			"0.015": 0.0,
			"0.016": 0.0,
			"0.017": 0.0,
			"0.018": 0.0,
			"0.019": 0.0,
			"0.02": 0.0,
			"0.021": 0.0,
			"0.022": 0.0,
			"0.023": 0.0,
			"0.024": 0.0,
			"0.025": 0.0
		}
	}
}
