{
	 "smiles": "CCOP(=O)(OCC)OC1=C2CC3=CC(=CC(CC4=CC(=CC(CC5=C(O)C(CC1=CC(=C2)C(C)(C)C)=CC(=C5)C(C)(C)C)=C4OP(=O)(OCC)OCC)C(C)(C)C)=C3O)C(C)(C)C", 
	 "Tm": 477.15, 
	 "num_atms": 138, 
	 "gaussian": { 
		 "optdone": 1, 
		 "sigma_profile": "yes", 
		 "theory": "DFT", 
		 "functional": "B3LYP", 
		 "basiset": "6-31G**", 
		 "properties": { 
			 "R2extent": 49278.6954, 
			 "electric_dipole_moment_norm": 0.715348991752, 
			 "electric_quadrupole_moment_norm": 44.8851864282, 
			 "total_energy": -3461.32186161, 
			 "HOMO_LUMO_gap": 0.18524, 
			 "cosmo_polarized_energy": -32.81, 
			 "cosmo_cavitation_energy": 128.81, 
			 "cosmo_dispersion_energy": -67.59, 
			 "cosmo_repulsion_energy": 5.12, 
			 "cosmo_total_nonelectrostatic_energy": 66.34, 
			 "SMD_solvation_energy": 23.37 
		},
		"coords": [
			{
				"x": 2.7877129083,
				"y": -0.1018087965,
				"z": -6.1910798261,
				"element": "C" 
			},
			{
				"x": 1.7754768982,
				"y": -0.6551081545,
				"z": -5.206236584,
				"element": "C" 
			},
			{
				"x": 2.5053085569,
				"y": -1.2733980109,
				"z": -4.1124032019,
				"element": "O" 
			},
			{
				"x": 1.8025577036,
				"y": -2.4077983367,
				"z": -3.2029958793,
				"element": "P" 
			},
			{
				"x": 0.6962817686,
				"y": -3.1267720403,
				"z": -3.8722675343,
				"element": "O" 
			},
			{
				"x": 3.0729715629,
				"y": -3.2557543045,
				"z": -2.709956974,
				"element": "O" 
			},
			{
				"x": 3.8541722249,
				"y": -3.9947921611,
				"z": -3.6843559254,
				"element": "C" 
			},
			{
				"x": 4.9065736085,
				"y": -4.7869836013,
				"z": -2.9334793254,
				"element": "C" 
			},
			{
				"x": 1.3342810345,
				"y": -1.6989414765,
				"z": -1.8334190767,
				"element": "O" 
			},
			{
				"x": 2.1853467385,
				"y": -1.2533324855,
				"z": -0.8111214429,
				"element": "C" 
			},
			{
				"x": 2.441480587,
				"y": -2.1153742519,
				"z": 0.2688492215,
				"element": "C" 
			},
			{
				"x": 1.7764029556,
				"y": -3.4780099276,
				"z": 0.3909270338,
				"element": "C" 
			},
			{
				"x": 0.2527021426,
				"y": -3.4666556183,
				"z": 0.3597012501,
				"element": "C" 
			},
			{
				"x": -0.4302501988,
				"y": -4.1993717161,
				"z": -0.6140682187,
				"element": "C" 
			},
			{
				"x": -1.8258984135,
				"y": -4.2149058146,
				"z": -0.7053674463,
				"element": "C" 
			},
			{
				"x": -2.5265493411,
				"y": -3.4586194818,
				"z": 0.2427752899,
				"element": "C" 
			},
			{
				"x": -1.8946009446,
				"y": -2.7120228526,
				"z": 1.2419804704,
				"element": "C" 
			},
			{
				"x": -2.7429469704,
				"y": -1.9025445539,
				"z": 2.2228790818,
				"element": "C" 
			},
			{
				"x": -3.0014971888,
				"y": -0.4748035652,
				"z": 1.7508237966,
				"element": "C" 
			},
			{
				"x": -4.0362564575,
				"y": -0.2000340123,
				"z": 0.8538798582,
				"element": "C" 
			},
			{
				"x": -4.229821034,
				"y": 1.071566632,
				"z": 0.2932717011,
				"element": "C" 
			},
			{
				"x": -3.3036772538,
				"y": 2.0644957742,
				"z": 0.6274845421,
				"element": "C" 
			},
			{
				"x": -2.2453241572,
				"y": 1.8464917294,
				"z": 1.5203925357,
				"element": "C" 
			},
			{
				"x": -1.1942287454,
				"y": 2.9317868593,
				"z": 1.7116568312,
				"element": "C" 
			},
			{
				"x": -0.318847988,
				"y": 3.1457559622,
				"z": 0.4824623371,
				"element": "C" 
			},
			{
				"x": 0.4391322638,
				"y": 2.0719302274,
				"z": -0.0283576125,
				"element": "C" 
			},
			{
				"x": 0.2706751997,
				"y": 0.8849189447,
				"z": 0.6140565542,
				"element": "O" 
			},
			{
				"x": 1.2953043317,
				"y": 2.2555306297,
				"z": -1.1289424716,
				"element": "C" 
			},
			{
				"x": 2.0661605614,
				"y": 1.1068793696,
				"z": -1.7831398609,
				"element": "C" 
			},
			{
				"x": 2.6234747044,
				"y": 0.0787538056,
				"z": -0.8107981585,
				"element": "C" 
			},
			{
				"x": 3.4774842852,
				"y": 0.4906824032,
				"z": 0.2256492734,
				"element": "C" 
			},
			{
				"x": 3.8443195208,
				"y": -0.3584681335,
				"z": 1.271129792,
				"element": "C" 
			},
			{
				"x": 3.2852858884,
				"y": -1.6469275283,
				"z": 1.2757175146,
				"element": "C" 
			},
			{
				"x": 4.7455102398,
				"y": 0.0912370832,
				"z": 2.4350541634,
				"element": "C" 
			},
			{
				"x": 3.9329620606,
				"y": 0.0534075599,
				"z": 3.7529873397,
				"element": "C" 
			},
			{
				"x": 5.9565388603,
				"y": -0.8645984041,
				"z": 2.5478072678,
				"element": "C" 
			},
			{
				"x": 5.2798411901,
				"y": 1.5227971972,
				"z": 2.2397632777,
				"element": "C" 
			},
			{
				"x": 1.3811216946,
				"y": 3.5388325064,
				"z": -1.6911726986,
				"element": "C" 
			},
			{
				"x": 0.642115458,
				"y": 4.6274673267,
				"z": -1.2208552626,
				"element": "C" 
			},
			{
				"x": -0.2096811878,
				"y": 4.3924048099,
				"z": -0.1272794859,
				"element": "C" 
			},
			{
				"x": 0.7325737869,
				"y": 6.0359191478,
				"z": -1.8372610865,
				"element": "C" 
			},
			{
				"x": 1.7133671291,
				"y": 6.0939000723,
				"z": -3.0238240418,
				"element": "C" 
			},
			{
				"x": 1.2173591898,
				"y": 7.0414608376,
				"z": -0.7656315255,
				"element": "C" 
			},
			{
				"x": -0.6624179262,
				"y": 6.4691026949,
				"z": -2.3478421932,
				"element": "C" 
			},
			{
				"x": -2.1635756193,
				"y": 0.5870107488,
				"z": 2.1193126823,
				"element": "C" 
			},
			{
				"x": -1.1470606734,
				"y": 0.2767827863,
				"z": 3.0430886611,
				"element": "O" 
			},
			{
				"x": -0.9274629497,
				"y": 0.8749706318,
				"z": 4.5399507676,
				"element": "P" 
			},
			{
				"x": 0.2296173109,
				"y": 1.7790018661,
				"z": 4.6993750883,
				"element": "O" 
			},
			{
				"x": -2.3134475927,
				"y": 1.555424046,
				"z": 4.9629689917,
				"element": "O" 
			},
			{
				"x": -3.5448203343,
				"y": 0.8185185016,
				"z": 5.193914446,
				"element": "C" 
			},
			{
				"x": -4.4980576771,
				"y": 1.7390206754,
				"z": 5.9316587545,
				"element": "C" 
			},
			{
				"x": -0.8308871197,
				"y": -0.521701749,
				"z": 5.3356141267,
				"element": "O" 
			},
			{
				"x": 0.1657617336,
				"y": -0.6986863185,
				"z": 6.3815271668,
				"element": "C" 
			},
			{
				"x": -0.3339494205,
				"y": -0.185364755,
				"z": 7.7212940466,
				"element": "C" 
			},
			{
				"x": -5.4040221168,
				"y": 1.3138054692,
				"z": -0.673461907,
				"element": "C" 
			},
			{
				"x": -5.2623700581,
				"y": 0.3842523906,
				"z": -1.9022997533,
				"element": "C" 
			},
			{
				"x": -5.456893496,
				"y": 2.7689349844,
				"z": -1.176668493,
				"element": "C" 
			},
			{
				"x": -6.7366916383,
				"y": 1.0069306105,
				"z": 0.0504051414,
				"element": "C" 
			},
			{
				"x": -0.4860789711,
				"y": -2.722600031,
				"z": 1.2967243016,
				"element": "C" 
			},
			{
				"x": 0.230284265,
				"y": -2.059425962,
				"z": 2.2537961971,
				"element": "O" 
			},
			{
				"x": -2.5824926349,
				"y": -4.9817973706,
				"z": -1.8056048402,
				"element": "C" 
			},
			{
				"x": -1.6317637027,
				"y": -5.7932066798,
				"z": -2.7074678853,
				"element": "C" 
			},
			{
				"x": -3.5968217962,
				"y": -5.9583845019,
				"z": -1.1661610656,
				"element": "C" 
			},
			{
				"x": -3.3356182002,
				"y": -3.9684630396,
				"z": -2.7007727938,
				"element": "C" 
			},
			{
				"x": 2.2675889022,
				"y": 0.3949244691,
				"z": -7.0164505904,
				"element": "H" 
			},
			{
				"x": 3.4445715992,
				"y": 0.6275865644,
				"z": -5.7086352209,
				"element": "H" 
			},
			{
				"x": 3.4059814673,
				"y": -0.9033639354,
				"z": -6.6056229596,
				"element": "H" 
			},
			{
				"x": 1.1236088391,
				"y": -1.4037265882,
				"z": -5.6639444777,
				"element": "H" 
			},
			{
				"x": 1.1482055067,
				"y": 0.1440122051,
				"z": -4.795376799,
				"element": "H" 
			},
			{
				"x": 4.3096904066,
				"y": -3.2786451308,
				"z": -4.3763532024,
				"element": "H" 
			},
			{
				"x": 3.1835053779,
				"y": -4.6517804536,
				"z": -4.2484223351,
				"element": "H" 
			},
			{
				"x": 5.5262934802,
				"y": -5.344359447,
				"z": -3.6431391678,
				"element": "H" 
			},
			{
				"x": 5.5534008204,
				"y": -4.1207726677,
				"z": -2.3561163575,
				"element": "H" 
			},
			{
				"x": 4.4406995594,
				"y": -5.4999321943,
				"z": -2.2476225555,
				"element": "H" 
			},
			{
				"x": 2.1220271376,
				"y": -3.9250216859,
				"z": 1.3302074819,
				"element": "H" 
			},
			{
				"x": 2.1284848471,
				"y": -4.1275662486,
				"z": -0.4169545817,
				"element": "H" 
			},
			{
				"x": 0.1621801479,
				"y": -4.7482523242,
				"z": -1.3365252313,
				"element": "H" 
			},
			{
				"x": -3.6133832364,
				"y": -3.4415500419,
				"z": 0.2140354936,
				"element": "H" 
			},
			{
				"x": -2.2748953775,
				"y": -1.8968526205,
				"z": 3.2113797281,
				"element": "H" 
			},
			{
				"x": -3.7063557527,
				"y": -2.4102874614,
				"z": 2.3345943779,
				"element": "H" 
			},
			{
				"x": -4.6975584918,
				"y": -1.016758816,
				"z": 0.5788733012,
				"element": "H" 
			},
			{
				"x": -3.3681065698,
				"y": 3.0451536192,
				"z": 0.1691659019,
				"element": "H" 
			},
			{
				"x": -1.6927026542,
				"y": 3.8775788575,
				"z": 1.9506832506,
				"element": "H" 
			},
			{
				"x": -0.547708504,
				"y": 2.6943605548,
				"z": 2.5598702278,
				"element": "H" 
			},
			{
				"x": 0.9376236856,
				"y": 0.2409935365,
				"z": 0.3372640248,
				"element": "H" 
			},
			{
				"x": 2.8806934482,
				"y": 1.5345635975,
				"z": -2.3789664284,
				"element": "H" 
			},
			{
				"x": 1.4077590102,
				"y": 0.5951447178,
				"z": -2.4899242398,
				"element": "H" 
			},
			{
				"x": 3.8016700895,
				"y": 1.5250585073,
				"z": 0.2189560245,
				"element": "H" 
			},
			{
				"x": 3.472714734,
				"y": -2.3087891058,
				"z": 2.115614088,
				"element": "H" 
			},
			{
				"x": 3.5699337573,
				"y": -0.9551732838,
				"z": 3.9736746848,
				"element": "H" 
			},
			{
				"x": 3.0642396345,
				"y": 0.7180128204,
				"z": 3.7039881213,
				"element": "H" 
			},
			{
				"x": 4.5608510579,
				"y": 0.373604155,
				"z": 4.592633706,
				"element": "H" 
			},
			{
				"x": 5.6457942294,
				"y": -1.8987456447,
				"z": 2.7239454967,
				"element": "H" 
			},
			{
				"x": 6.5569326762,
				"y": -0.8474710805,
				"z": 1.6319125316,
				"element": "H" 
			},
			{
				"x": 6.6011943954,
				"y": -0.564644554,
				"z": 3.3816773416,
				"element": "H" 
			},
			{
				"x": 5.8616227776,
				"y": 1.6178715868,
				"z": 1.3165678102,
				"element": "H" 
			},
			{
				"x": 5.9376796712,
				"y": 1.7863368563,
				"z": 3.0742938721,
				"element": "H" 
			},
			{
				"x": 4.471404092,
				"y": 2.2602445377,
				"z": 2.2152239527,
				"element": "H" 
			},
			{
				"x": 2.0533163951,
				"y": 3.6663741213,
				"z": -2.5336904797,
				"element": "H" 
			},
			{
				"x": -0.7983019027,
				"y": 5.2099100917,
				"z": 0.281659144,
				"element": "H" 
			},
			{
				"x": 1.4105735578,
				"y": 5.4240156196,
				"z": -3.8355955296,
				"element": "H" 
			},
			{
				"x": 2.7322551036,
				"y": 5.8280989093,
				"z": -2.7231283024,
				"element": "H" 
			},
			{
				"x": 1.7440431507,
				"y": 7.1106978764,
				"z": -3.4292975234,
				"element": "H" 
			},
			{
				"x": 1.2799610947,
				"y": 8.0520625311,
				"z": -1.18613785,
				"element": "H" 
			},
			{
				"x": 2.2092546736,
				"y": 6.765931443,
				"z": -0.392520504,
				"element": "H" 
			},
			{
				"x": 0.5391485372,
				"y": 7.0794413439,
				"z": 0.0920002846,
				"element": "H" 
			},
			{
				"x": -1.0272492301,
				"y": 5.7812157753,
				"z": -3.1178961246,
				"element": "H" 
			},
			{
				"x": -1.4018045011,
				"y": 6.4881462246,
				"z": -1.5415781277,
				"element": "H" 
			},
			{
				"x": -0.6182533344,
				"y": 7.4746125356,
				"z": -2.782555959,
				"element": "H" 
			},
			{
				"x": -3.3169052615,
				"y": -0.0776138396,
				"z": 5.7785660001,
				"element": "H" 
			},
			{
				"x": -3.9540965206,
				"y": 0.5141092439,
				"z": 4.2261592361,
				"element": "H" 
			},
			{
				"x": -4.0786540998,
				"y": 2.043265711,
				"z": 6.8945741966,
				"element": "H" 
			},
			{
				"x": -5.4458496623,
				"y": 1.221501333,
				"z": 6.1117159118,
				"element": "H" 
			},
			{
				"x": -4.7008971703,
				"y": 2.6374351127,
				"z": 5.3425749729,
				"element": "H" 
			},
			{
				"x": 0.3464038657,
				"y": -1.7758478194,
				"z": 6.4066347852,
				"element": "H" 
			},
			{
				"x": 1.0845904234,
				"y": -0.1900933379,
				"z": 6.0800334359,
				"element": "H" 
			},
			{
				"x": -1.2728266346,
				"y": -0.6719330449,
				"z": 8.0024346149,
				"element": "H" 
			},
			{
				"x": -0.4902589141,
				"y": 0.8968761628,
				"z": 7.6913459331,
				"element": "H" 
			},
			{
				"x": 0.4078663852,
				"y": -0.3985961045,
				"z": 8.4983763616,
				"element": "H" 
			},
			{
				"x": -5.2637256523,
				"y": -0.6720894283,
				"z": -1.6179190438,
				"element": "H" 
			},
			{
				"x": -4.3274745776,
				"y": 0.5822336217,
				"z": -2.4360704738,
				"element": "H" 
			},
			{
				"x": -6.0937512782,
				"y": 0.5430233848,
				"z": -2.5987046666,
				"element": "H" 
			},
			{
				"x": -6.3139416417,
				"y": 2.8960615956,
				"z": -1.8461444323,
				"element": "H" 
			},
			{
				"x": -4.5572392217,
				"y": 3.0390537341,
				"z": -1.738940138,
				"element": "H" 
			},
			{
				"x": -5.5723719875,
				"y": 3.481068669,
				"z": -0.3527677054,
				"element": "H" 
			},
			{
				"x": -7.584349963,
				"y": 1.1657872721,
				"z": -0.6259275962,
				"element": "H" 
			},
			{
				"x": -6.8697683135,
				"y": 1.6597097452,
				"z": 0.919744292,
				"element": "H" 
			},
			{
				"x": -6.7807782978,
				"y": -0.0287378488,
				"z": 0.400548524,
				"element": "H" 
			},
			{
				"x": -0.2637646955,
				"y": -1.2980813539,
				"z": 2.6022038651,
				"element": "H" 
			},
			{
				"x": -2.2139908648,
				"y": -6.3277468301,
				"z": -3.4661395541,
				"element": "H" 
			},
			{
				"x": -0.9180936903,
				"y": -5.1464187235,
				"z": -3.2265763537,
				"element": "H" 
			},
			{
				"x": -1.0728738214,
				"y": -6.5418281678,
				"z": -2.1346032941,
				"element": "H" 
			},
			{
				"x": -4.1443648703,
				"y": -6.5040205636,
				"z": -1.943573239,
				"element": "H" 
			},
			{
				"x": -3.0874937828,
				"y": -6.6918689142,
				"z": -0.5319174233,
				"element": "H" 
			},
			{
				"x": -4.3342280025,
				"y": -5.438160648,
				"z": -0.546765426,
				"element": "H" 
			},
			{
				"x": -2.6301244206,
				"y": -3.2805058773,
				"z": -3.1767300734,
				"element": "H" 
			},
			{
				"x": -3.8914945355,
				"y": -4.4904203651,
				"z": -3.488961293,
				"element": "H" 
			},
			{
				"x": -4.0518736589,
				"y": -3.3735411405,
				"z": -2.1246246482,
				"element": "H" 
			}
		],
		 "valence_orbital": [ 
			{
				"type": "occ",
				"energy": -0.22384,
				"method": "rhf"
			},
			{
				"type": "occ",
				"energy": -0.22356,
				"method": "rhf"
			},
			{
				"type": "occ",
				"energy": -0.2175,
				"method": "rhf"
			},
			{
				"type": "occ",
				"energy": -0.195,
				"method": "rhf"
			},
			{
				"type": "occ",
				"energy": -0.19145,
				"method": "rhf"
			},
			{
				"type": "unocc",
				"energy": -0.00621,
				"method": "rhf"
			},
			{
				"type": "unocc",
				"energy": -0.00587,
				"method": "rhf"
			},
			{
				"type": "unocc",
				"energy": -0.0016,
				"method": "rhf"
			},
			{
				"type": "unocc",
				"energy": 0.00328,
				"method": "rhf"
			},
			{
				"type": "unocc",
				"energy": 0.01938,
				"method": "rhf"
			}
		],
		"cosmo_sigma_profile": { 
			"-0.025": 0.0,
			"-0.024": 0.0,
			"-0.023": 0.0,
			"-0.022": 0.0,
			"-0.021": 0.0,
			"-0.02": 0.0,
			"-0.019": 0.0,
			"-0.018": 0.0,
			"-0.017": 0.0,
			"-0.016": 0.0,
			"-0.015": 0.0,
			"-0.014": 0.0,
			"-0.013": 0.0,
			"-0.012": 0.0,
			"-0.011": 0.0,
			"-0.01": 0.151466320361,
			"-0.009": 0.256324638153,
			"-0.008": 0.622410538637,
			"-0.007": 1.67427453294,
			"-0.006": 9.77307594593,
			"-0.005": 45.5638210717,
			"-0.004": 80.2179156769,
			"-0.003": 109.48414619,
			"-0.002": 138.848033893,
			"-0.001": 120.521379608,
			"0.0": 110.890122653,
			"0.001": 113.250909857,
			"0.002": 76.281292676,
			"0.003": 37.590910737,
			"0.004": 35.5938121115,
			"0.005": 29.9523266653,
			"0.006": 26.2439830768,
			"0.007": 17.8688491493,
			"0.008": 11.2430151175,
			"0.009": 9.41652846534,
			"0.01": 6.129706711,
			"0.011": 4.31998740474,
			"0.012": 3.87105466334,
			"0.013": 3.96368316577,
			"0.014": 2.38851562212,
			"0.015": 0.0206987325838,
			"0.016": 0.0,
			"0.017": 0.0,
			"0.018": 0.0,
			"0.019": 0.0,
			"0.02": 0.0,
			"0.021": 0.0,
			"0.022": 0.0,
			"0.023": 0.0,
			"0.024": 0.0,
			"0.025": 0.0
		}
	}
}
