{
	 "smiles": "NC1=C(Cl)C=C(Br)C=C1Cl", 
	 "Tm": 360.15, 
	 "num_atms": 14, 
	 "gaussian": { 
		 "optdone": 1, 
		 "sigma_profile": "yes", 
		 "theory": "DFT", 
		 "functional": "B3LYP", 
		 "basiset": "6-31G**", 
		 "properties": { 
			 "R2extent": 4573.565, 
			 "electric_dipole_moment_norm": 1.98153401687, 
			 "electric_quadrupole_moment_norm": 5.09947306494, 
			 "total_energy": -3777.59304956, 
			 "HOMO_LUMO_gap": 0.18919, 
			 "cosmo_polarized_energy": -6.0, 
			 "cosmo_cavitation_energy": 23.93, 
			 "cosmo_dispersion_energy": -18.74, 
			 "cosmo_repulsion_energy": 1.52, 
			 "cosmo_total_nonelectrostatic_energy": 6.71, 
			 "SMD_solvation_energy": 2.3 
		},
		"coords": [
			{
				"x": 1.2955223005,
				"y": -1.7889538459,
				"z": -0.9978850195,
				"element": "N" 
			},
			{
				"x": 1.0716294504,
				"y": -1.0548323176,
				"z": 0.1415099962,
				"element": "C" 
			},
			{
				"x": 1.2833699944,
				"y": -1.5848601602,
				"z": 1.433107895,
				"element": "C" 
			},
			{
				"x": 1.9277522757,
				"y": -3.216355064,
				"z": 1.5740107601,
				"element": "Cl" 
			},
			{
				"x": 1.009312601,
				"y": -0.8736197877,
				"z": 2.5955996755,
				"element": "C" 
			},
			{
				"x": 0.5062886383,
				"y": 0.4205173284,
				"z": 2.493392259,
				"element": "C" 
			},
			{
				"x": 0.1224869452,
				"y": 1.4125664425,
				"z": 4.0767517012,
				"element": "Br" 
			},
			{
				"x": 0.2830532966,
				"y": 0.9984746679,
				"z": 1.2466401231,
				"element": "C" 
			},
			{
				"x": 0.566459839,
				"y": 0.2631939008,
				"z": 0.1014819884,
				"element": "C" 
			},
			{
				"x": 0.2893854148,
				"y": 1.0070083018,
				"z": -1.4691403848,
				"element": "Cl" 
			},
			{
				"x": 1.8955781602,
				"y": -2.5947823574,
				"z": -0.9073584259,
				"element": "H" 
			},
			{
				"x": 1.3825416868,
				"y": -1.2725366473,
				"z": -1.8600703375,
				"element": "H" 
			},
			{
				"x": 1.1897484837,
				"y": -1.3277207762,
				"z": 3.5616119556,
				"element": "H" 
			},
			{
				"x": -0.1035290867,
				"y": 2.0059003149,
				"z": 1.1595478136,
				"element": "H" 
			}
		],
		 "valence_orbital": [ 
			{
				"type": "occ",
				"energy": -0.32979,
				"method": "rhf"
			},
			{
				"type": "occ",
				"energy": -0.29346,
				"method": "rhf"
			},
			{
				"type": "occ",
				"energy": -0.29088,
				"method": "rhf"
			},
			{
				"type": "occ",
				"energy": -0.26023,
				"method": "rhf"
			},
			{
				"type": "occ",
				"energy": -0.21964,
				"method": "rhf"
			},
			{
				"type": "unocc",
				"energy": -0.03045,
				"method": "rhf"
			},
			{
				"type": "unocc",
				"energy": -0.02275,
				"method": "rhf"
			},
			{
				"type": "unocc",
				"energy": -0.01323,
				"method": "rhf"
			},
			{
				"type": "unocc",
				"energy": 0.03109,
				"method": "rhf"
			},
			{
				"type": "unocc",
				"energy": 0.04187,
				"method": "rhf"
			}
		],
		"cosmo_sigma_profile": { 
			"-0.025": 0.0,
			"-0.024": 0.0,
			"-0.023": 0.0,
			"-0.022": 0.0,
			"-0.021": 0.0,
			"-0.02": 0.0,
			"-0.019": 0.0,
			"-0.018": 0.0,
			"-0.017": 0.0,
			"-0.016": 0.0,
			"-0.015": 0.0,
			"-0.014": 0.0,
			"-0.013": 0.925047925607,
			"-0.012": 1.40339249933,
			"-0.011": 2.48584681331,
			"-0.01": 2.31923878587,
			"-0.009": 2.08443580121,
			"-0.008": 3.70613059488,
			"-0.007": 4.86410790418,
			"-0.006": 4.96985112341,
			"-0.005": 6.03245961105,
			"-0.004": 6.21557352017,
			"-0.003": 9.16121136618,
			"-0.002": 11.1768225181,
			"-0.001": 13.6226604851,
			"0.0": 18.0889401083,
			"0.001": 30.0756261832,
			"0.002": 28.2075768881,
			"0.003": 20.7758155312,
			"0.004": 23.8214396085,
			"0.005": 6.67086388608,
			"0.006": 0.355647336222,
			"0.007": 0.894653047574,
			"0.008": 0.866834887669,
			"0.009": 0.495312248334,
			"0.01": 0.460616725929,
			"0.011": 0.325798103493,
			"0.012": 0.0,
			"0.013": 0.0,
			"0.014": 0.0,
			"0.015": 0.0,
			"0.016": 0.0,
			"0.017": 0.0,
			"0.018": 0.0,
			"0.019": 0.0,
			"0.02": 0.0,
			"0.021": 0.0,
			"0.022": 0.0,
			"0.023": 0.0,
			"0.024": 0.0,
			"0.025": 0.0
		}
	}
}
