{
	 "smiles": "CCN(CC)S(=O)(=O)C1=CC(C(O)=O)=C(C=C1)N1CCCC1", 
	 "Tm": 415.15, 
	 "num_atms": 44, 
	 "gaussian": { 
		 "optdone": 1, 
		 "sigma_profile": "yes", 
		 "theory": "DFT", 
		 "functional": "B3LYP", 
		 "basiset": "6-31G**", 
		 "properties": { 
			 "R2extent": 9199.4387, 
			 "electric_dipole_moment_norm": 5.48090852505, 
			 "electric_quadrupole_moment_norm": 32.099416271, 
			 "total_energy": -1393.39094634, 
			 "HOMO_LUMO_gap": 0.16232, 
			 "cosmo_polarized_energy": -19.88, 
			 "cosmo_cavitation_energy": 45.77, 
			 "cosmo_dispersion_energy": -31.99, 
			 "cosmo_repulsion_energy": 2.43, 
			 "cosmo_total_nonelectrostatic_energy": 16.2, 
			 "SMD_solvation_energy": 6.59 
		},
		"coords": [
			{
				"x": -4.2580494749,
				"y": -0.2744938931,
				"z": -3.4117694433,
				"element": "C" 
			},
			{
				"x": -3.1904086377,
				"y": 0.2084030833,
				"z": -2.4273502775,
				"element": "C" 
			},
			{
				"x": -3.2868568855,
				"y": -0.4377895724,
				"z": -1.1107025704,
				"element": "N" 
			},
			{
				"x": -4.164498335,
				"y": 0.1447888649,
				"z": -0.0884907765,
				"element": "C" 
			},
			{
				"x": -3.6007862781,
				"y": 1.3950840062,
				"z": 0.5956496407,
				"element": "C" 
			},
			{
				"x": -2.3339000487,
				"y": -1.7675916527,
				"z": -0.7750657153,
				"element": "S" 
			},
			{
				"x": -2.0872525579,
				"y": -2.4319958915,
				"z": -2.0604328004,
				"element": "O" 
			},
			{
				"x": -2.9615738147,
				"y": -2.4593844521,
				"z": 0.3558409201,
				"element": "O" 
			},
			{
				"x": -0.7421982516,
				"y": -1.1768783476,
				"z": -0.2064630041,
				"element": "C" 
			},
			{
				"x": -0.5315253786,
				"y": -0.9245202515,
				"z": 1.1418880376,
				"element": "C" 
			},
			{
				"x": 0.6928013736,
				"y": -0.4214585315,
				"z": 1.6125348174,
				"element": "C" 
			},
			{
				"x": 0.6988140566,
				"y": 0.1049141281,
				"z": 2.9981763638,
				"element": "C" 
			},
			{
				"x": -0.1835264398,
				"y": -0.5374951576,
				"z": 3.8110072416,
				"element": "O" 
			},
			{
				"x": 1.3439706444,
				"y": 1.0565388792,
				"z": 3.4025380213,
				"element": "O" 
			},
			{
				"x": 1.790428682,
				"y": -0.2590656814,
				"z": 0.7017637903,
				"element": "C" 
			},
			{
				"x": 1.5178108411,
				"y": -0.4773861905,
				"z": -0.6782457763,
				"element": "C" 
			},
			{
				"x": 0.2889782191,
				"y": -0.9288853518,
				"z": -1.1219863472,
				"element": "C" 
			},
			{
				"x": 3.0688617709,
				"y": 0.0407806072,
				"z": 1.0902436012,
				"element": "N" 
			},
			{
				"x": 4.1369660741,
				"y": 0.2651839278,
				"z": 0.1027235645,
				"element": "C" 
			},
			{
				"x": 5.3914580624,
				"y": 0.4759783491,
				"z": 0.9553537412,
				"element": "C" 
			},
			{
				"x": 5.1326435113,
				"y": -0.4460414776,
				"z": 2.154461801,
				"element": "C" 
			},
			{
				"x": 3.6379434212,
				"y": -0.2340749088,
				"z": 2.4241200438,
				"element": "C" 
			},
			{
				"x": -4.1749329774,
				"y": 0.2676143348,
				"z": -4.3604719115,
				"element": "H" 
			},
			{
				"x": -5.2660998528,
				"y": -0.1095525864,
				"z": -3.0174959001,
				"element": "H" 
			},
			{
				"x": -4.131483016,
				"y": -1.3420872246,
				"z": -3.6044926967,
				"element": "H" 
			},
			{
				"x": -3.2686454735,
				"y": 1.2909575937,
				"z": -2.2716491032,
				"element": "H" 
			},
			{
				"x": -2.1960673484,
				"y": 0.025982717,
				"z": -2.8424494428,
				"element": "H" 
			},
			{
				"x": -5.1181061153,
				"y": 0.3816198408,
				"z": -0.5767977939,
				"element": "H" 
			},
			{
				"x": -4.3762459303,
				"y": -0.6343617057,
				"z": 0.6455087074,
				"element": "H" 
			},
			{
				"x": -2.6779496892,
				"y": 1.1684731954,
				"z": 1.1367624133,
				"element": "H" 
			},
			{
				"x": -3.3816426697,
				"y": 2.1892820269,
				"z": -0.1255873333,
				"element": "H" 
			},
			{
				"x": -4.3287248396,
				"y": 1.7899308874,
				"z": 1.3126915218,
				"element": "H" 
			},
			{
				"x": -1.331369539,
				"y": -1.0956254098,
				"z": 1.851787199,
				"element": "H" 
			},
			{
				"x": -0.1701586785,
				"y": -0.04280078,
				"z": 4.646718348,
				"element": "H" 
			},
			{
				"x": 2.3038246177,
				"y": -0.3327649767,
				"z": -1.4071606803,
				"element": "H" 
			},
			{
				"x": 0.1348480518,
				"y": -1.1374847779,
				"z": -2.1752595802,
				"element": "H" 
			},
			{
				"x": 4.2614300616,
				"y": -0.6143482744,
				"z": -0.5475148736,
				"element": "H" 
			},
			{
				"x": 3.9025540253,
				"y": 1.123210545,
				"z": -0.5369556114,
				"element": "H" 
			},
			{
				"x": 5.4550423211,
				"y": 1.5189512547,
				"z": 1.2846292367,
				"element": "H" 
			},
			{
				"x": 6.306362076,
				"y": 0.2369152564,
				"z": 0.4071162989,
				"element": "H" 
			},
			{
				"x": 5.3314496219,
				"y": -1.4880431782,
				"z": 1.8780958265,
				"element": "H" 
			},
			{
				"x": 5.7449140068,
				"y": -0.2061280637,
				"z": 3.0276959587,
				"element": "H" 
			},
			{
				"x": 3.1535657915,
				"y": -1.1131242548,
				"z": 2.8648062813,
				"element": "H" 
			},
			{
				"x": 3.4645350017,
				"y": 0.6086730943,
				"z": 3.097828262,
				"element": "H" 
			}
		],
		 "valence_orbital": [ 
			{
				"type": "occ",
				"energy": -0.28708,
				"method": "rhf"
			},
			{
				"type": "occ",
				"energy": -0.2754,
				"method": "rhf"
			},
			{
				"type": "occ",
				"energy": -0.26564,
				"method": "rhf"
			},
			{
				"type": "occ",
				"energy": -0.24219,
				"method": "rhf"
			},
			{
				"type": "occ",
				"energy": -0.20696,
				"method": "rhf"
			},
			{
				"type": "unocc",
				"energy": -0.04464,
				"method": "rhf"
			},
			{
				"type": "unocc",
				"energy": -0.01896,
				"method": "rhf"
			},
			{
				"type": "unocc",
				"energy": 0.0344,
				"method": "rhf"
			},
			{
				"type": "unocc",
				"energy": 0.06641,
				"method": "rhf"
			},
			{
				"type": "unocc",
				"energy": 0.07424,
				"method": "rhf"
			}
		],
		"cosmo_sigma_profile": { 
			"-0.025": 0.0,
			"-0.024": 0.0,
			"-0.023": 0.0,
			"-0.022": 0.0,
			"-0.021": 0.0,
			"-0.02": 0.0,
			"-0.019": 0.0,
			"-0.018": 0.541158687777,
			"-0.017": 1.00213954319,
			"-0.016": 0.781115113859,
			"-0.015": 0.536430564085,
			"-0.014": 0.753754578098,
			"-0.013": 0.42904891641,
			"-0.012": 0.962038894734,
			"-0.011": 0.676039134253,
			"-0.01": 1.05883213306,
			"-0.009": 0.365119655091,
			"-0.008": 0.566698991067,
			"-0.007": 2.93495357322,
			"-0.006": 7.15553536439,
			"-0.005": 20.4649655372,
			"-0.004": 34.9956286799,
			"-0.003": 48.6287578662,
			"-0.002": 44.8248541214,
			"-0.001": 32.9202221441,
			"0.0": 31.9717319327,
			"0.001": 22.6820300591,
			"0.002": 19.1402497293,
			"0.003": 19.7110801457,
			"0.004": 8.69736171285,
			"0.005": 5.86171876845,
			"0.006": 6.06543271683,
			"0.007": 6.06241582736,
			"0.008": 6.51289208197,
			"0.009": 6.24279047938,
			"0.01": 6.75655782387,
			"0.011": 9.66733427082,
			"0.012": 9.58969263609,
			"0.013": 0.899295622665,
			"0.014": 0.0,
			"0.015": 0.0,
			"0.016": 0.0,
			"0.017": 0.0,
			"0.018": 0.0,
			"0.019": 0.0,
			"0.02": 0.0,
			"0.021": 0.0,
			"0.022": 0.0,
			"0.023": 0.0,
			"0.024": 0.0,
			"0.025": 0.0
		}
	}
}
