{
	 "smiles": "CC(C)(OC1=CC=C(CCNC(=O)C2=CC=C(Cl)C=C2)C=C1)C(O)=O", 
	 "Tm": 459.15, 
	 "num_atms": 45, 
	 "gaussian": { 
		 "optdone": 1, 
		 "sigma_profile": "yes", 
		 "theory": "DFT", 
		 "functional": "B3LYP", 
		 "basiset": "6-31G**", 
		 "properties": { 
			 "R2extent": 13150.8097, 
			 "electric_dipole_moment_norm": 6.40353954622, 
			 "electric_quadrupole_moment_norm": 25.308570622, 
			 "total_energy": -1551.94384552, 
			 "HOMO_LUMO_gap": 0.20144, 
			 "cosmo_polarized_energy": -21.75, 
			 "cosmo_cavitation_energy": 50.55, 
			 "cosmo_dispersion_energy": -33.47, 
			 "cosmo_repulsion_energy": 2.58, 
			 "cosmo_total_nonelectrostatic_energy": 19.65, 
			 "SMD_solvation_energy": 9.84 
		},
		"coords": [
			{
				"x": 4.5303265751,
				"y": -2.1036891025,
				"z": -0.342839788,
				"element": "C" 
			},
			{
				"x": 3.4455693482,
				"y": -2.796597544,
				"z": 0.4871808492,
				"element": "C" 
			},
			{
				"x": 3.7257638,
				"y": -2.6949662203,
				"z": 1.9898230623,
				"element": "C" 
			},
			{
				"x": 2.1145473872,
				"y": -2.2937530465,
				"z": 0.1549755001,
				"element": "O" 
			},
			{
				"x": 1.7877499934,
				"y": -0.9672024737,
				"z": 0.387665593,
				"element": "C" 
			},
			{
				"x": 1.9685977465,
				"y": -0.0167876391,
				"z": -0.6206870194,
				"element": "C" 
			},
			{
				"x": 1.5740421378,
				"y": 1.3035770977,
				"z": -0.4045325093,
				"element": "C" 
			},
			{
				"x": 0.9887747629,
				"y": 1.700789535,
				"z": 0.8062040468,
				"element": "C" 
			},
			{
				"x": 0.5354475765,
				"y": 3.1295791853,
				"z": 1.0106268181,
				"element": "C" 
			},
			{
				"x": -0.9434758894,
				"y": 3.3894537994,
				"z": 0.6520455884,
				"element": "C" 
			},
			{
				"x": -1.8664648232,
				"y": 2.7273337981,
				"z": 1.5712591608,
				"element": "N" 
			},
			{
				"x": -3.1037703572,
				"y": 2.1819880435,
				"z": 1.2857861493,
				"element": "C" 
			},
			{
				"x": -3.9866556782,
				"y": 2.1695981604,
				"z": 2.1376891798,
				"element": "O" 
			},
			{
				"x": -3.3362668024,
				"y": 1.5620916364,
				"z": -0.0626825007,
				"element": "C" 
			},
			{
				"x": -4.6260566527,
				"y": 1.6637775254,
				"z": -0.602141957,
				"element": "C" 
			},
			{
				"x": -4.939378154,
				"y": 1.0686585918,
				"z": -1.8206256615,
				"element": "C" 
			},
			{
				"x": -3.9555750754,
				"y": 0.3389690259,
				"z": -2.4905075616,
				"element": "C" 
			},
			{
				"x": -4.3415210684,
				"y": -0.4215713404,
				"z": -4.0257351141,
				"element": "Cl" 
			},
			{
				"x": -2.6750906396,
				"y": 0.1943836908,
				"z": -1.9581764029,
				"element": "C" 
			},
			{
				"x": -2.3691851435,
				"y": 0.8113803431,
				"z": -0.7450673851,
				"element": "C" 
			},
			{
				"x": 0.8048953341,
				"y": 0.7287747189,
				"z": 1.8000561041,
				"element": "C" 
			},
			{
				"x": 1.1941044667,
				"y": -0.595068745,
				"z": 1.5966517899,
				"element": "C" 
			},
			{
				"x": 3.4049042908,
				"y": -4.2935783381,
				"z": 0.0956055806,
				"element": "C" 
			},
			{
				"x": 2.2398091844,
				"y": -4.7413396566,
				"z": -0.3942743742,
				"element": "O" 
			},
			{
				"x": 4.3724314695,
				"y": -5.0039720486,
				"z": 0.2320481683,
				"element": "O" 
			},
			{
				"x": 4.2995958747,
				"y": -2.1628550893,
				"z": -1.4104793917,
				"element": "H" 
			},
			{
				"x": 5.4844613442,
				"y": -2.6054775096,
				"z": -0.1698183156,
				"element": "H" 
			},
			{
				"x": 4.6248945781,
				"y": -1.0521610551,
				"z": -0.0590915607,
				"element": "H" 
			},
			{
				"x": 4.6658528428,
				"y": -3.2045222753,
				"z": 2.2108235017,
				"element": "H" 
			},
			{
				"x": 3.8062864742,
				"y": -1.6499561162,
				"z": 2.3006440746,
				"element": "H" 
			},
			{
				"x": 2.9303585478,
				"y": -3.1752887662,
				"z": 2.5670285127,
				"element": "H" 
			},
			{
				"x": 2.408778415,
				"y": -0.3181163697,
				"z": -1.5651531452,
				"element": "H" 
			},
			{
				"x": 1.7235802383,
				"y": 2.03700416,
				"z": -1.1933159475,
				"element": "H" 
			},
			{
				"x": 0.6995843425,
				"y": 3.4298266576,
				"z": 2.0532809254,
				"element": "H" 
			},
			{
				"x": 1.1459196832,
				"y": 3.8021729201,
				"z": 0.3969177876,
				"element": "H" 
			},
			{
				"x": -1.1189866907,
				"y": 4.475015301,
				"z": 0.6649795649,
				"element": "H" 
			},
			{
				"x": -1.1516025556,
				"y": 3.0465849932,
				"z": -0.3622851921,
				"element": "H" 
			},
			{
				"x": -1.8736799455,
				"y": 3.1057334903,
				"z": 2.5127835651,
				"element": "H" 
			},
			{
				"x": -5.3817157141,
				"y": 2.2100427996,
				"z": -0.0477849267,
				"element": "H" 
			},
			{
				"x": -5.9332905856,
				"y": 1.1582084729,
				"z": -2.2446414327,
				"element": "H" 
			},
			{
				"x": -1.9315637738,
				"y": -0.3968025768,
				"z": -2.4809660175,
				"element": "H" 
			},
			{
				"x": -1.3803872072,
				"y": 0.6791786802,
				"z": -0.3194705223,
				"element": "H" 
			},
			{
				"x": 0.3435183244,
				"y": 1.0072819801,
				"z": 2.7427403657,
				"element": "H" 
			},
			{
				"x": 1.0322327442,
				"y": -1.3446461517,
				"z": 2.3637158321,
				"element": "H" 
			},
			{
				"x": 1.6259392742,
				"y": -3.9823525422,
				"z": -0.4055549947,
				"element": "H" 
			}
		],
		 "valence_orbital": [ 
			{
				"type": "occ",
				"energy": -0.26861,
				"method": "rhf"
			},
			{
				"type": "occ",
				"energy": -0.26801,
				"method": "rhf"
			},
			{
				"type": "occ",
				"energy": -0.25972,
				"method": "rhf"
			},
			{
				"type": "occ",
				"energy": -0.25429,
				"method": "rhf"
			},
			{
				"type": "occ",
				"energy": -0.2456,
				"method": "rhf"
			},
			{
				"type": "unocc",
				"energy": -0.04416,
				"method": "rhf"
			},
			{
				"type": "unocc",
				"energy": -0.0252,
				"method": "rhf"
			},
			{
				"type": "unocc",
				"energy": -0.02345,
				"method": "rhf"
			},
			{
				"type": "unocc",
				"energy": -0.02048,
				"method": "rhf"
			},
			{
				"type": "unocc",
				"energy": 0.01141,
				"method": "rhf"
			}
		],
		"cosmo_sigma_profile": { 
			"-0.025": 0.0,
			"-0.024": 0.0,
			"-0.023": 0.0,
			"-0.022": 0.0,
			"-0.021": 0.0,
			"-0.02": 0.0,
			"-0.019": 0.0,
			"-0.018": 0.0,
			"-0.017": 0.0,
			"-0.016": 0.0,
			"-0.015": 0.0,
			"-0.014": 0.334059635241,
			"-0.013": 1.10707738262,
			"-0.012": 1.59871392139,
			"-0.011": 1.43592367693,
			"-0.01": 1.69775811557,
			"-0.009": 1.71252728221,
			"-0.008": 3.04935204238,
			"-0.007": 6.17058107635,
			"-0.006": 15.3321878235,
			"-0.005": 30.510061199,
			"-0.004": 40.2655251926,
			"-0.003": 36.21556896,
			"-0.002": 34.1428793877,
			"-0.001": 37.9182910068,
			"0.0": 28.572471432,
			"0.001": 27.483541727,
			"0.002": 32.3392963563,
			"0.003": 27.4177769493,
			"0.004": 19.3677800296,
			"0.005": 10.1460218575,
			"0.006": 3.19454878949,
			"0.007": 4.7074973107,
			"0.008": 4.25941961755,
			"0.009": 4.97982707816,
			"0.01": 5.80366546441,
			"0.011": 5.64237767401,
			"0.012": 7.05756943525,
			"0.013": 6.36072600772,
			"0.014": 3.69764633464,
			"0.015": 0.177887048167,
			"0.016": 0.0,
			"0.017": 0.0,
			"0.018": 0.0,
			"0.019": 0.0,
			"0.02": 0.0,
			"0.021": 0.0,
			"0.022": 0.0,
			"0.023": 0.0,
			"0.024": 0.0,
			"0.025": 0.0
		}
	}
}
