{
	 "smiles": "FC1=C(C=O)C=CC(=C1)C#N", 
	 "Tm": 353.15, 
	 "num_atms": 15, 
	 "gaussian": { 
		 "optdone": 1, 
		 "sigma_profile": "yes", 
		 "theory": "DFT", 
		 "functional": "B3LYP", 
		 "basiset": "6-31G**", 
		 "properties": { 
			 "R2extent": 2147.8526, 
			 "electric_dipole_moment_norm": 2.64179043832, 
			 "electric_quadrupole_moment_norm": 23.6809207733, 
			 "total_energy": -537.035700829, 
			 "HOMO_LUMO_gap": 0.17137, 
			 "cosmo_polarized_energy": -12.89, 
			 "cosmo_cavitation_energy": 22.02, 
			 "cosmo_dispersion_energy": -15.3, 
			 "cosmo_repulsion_energy": 1.2, 
			 "cosmo_total_nonelectrostatic_energy": 7.92, 
			 "SMD_solvation_energy": 6.81 
		},
		"coords": [
			{
				"x": -1.9618608507,
				"y": -2.1830336466,
				"z": -0.9242196054,
				"element": "F" 
			},
			{
				"x": -1.4105054615,
				"y": -1.0498056205,
				"z": -0.484953438,
				"element": "C" 
			},
			{
				"x": -2.2240226361,
				"y": 0.0348767567,
				"z": -0.1164308727,
				"element": "C" 
			},
			{
				"x": -3.7080826955,
				"y": 0.0078368803,
				"z": -0.1837493499,
				"element": "C" 
			},
			{
				"x": -4.3868658853,
				"y": -0.9254735516,
				"z": -0.5540863025,
				"element": "O" 
			},
			{
				"x": -1.5921436017,
				"y": 1.2027547683,
				"z": 0.3386459629,
				"element": "C" 
			},
			{
				"x": -0.2095342764,
				"y": 1.2975535497,
				"z": 0.4271054063,
				"element": "C" 
			},
			{
				"x": 0.5768315153,
				"y": 0.194441317,
				"z": 0.0507818462,
				"element": "C" 
			},
			{
				"x": -0.0260634168,
				"y": -0.9868915407,
				"z": -0.4081858667,
				"element": "C" 
			},
			{
				"x": 2.0068585587,
				"y": 0.2729812158,
				"z": 0.135172801,
				"element": "C" 
			},
			{
				"x": 3.1654686691,
				"y": 0.3417940396,
				"z": 0.2054878201,
				"element": "N" 
			},
			{
				"x": -4.1741623528,
				"y": 0.9623149183,
				"z": 0.1497694633,
				"element": "H" 
			},
			{
				"x": -2.211086078,
				"y": 2.0486590815,
				"z": 0.6266132696,
				"element": "H" 
			},
			{
				"x": 0.2673787709,
				"y": 2.2046122975,
				"z": 0.7800424915,
				"element": "H" 
			},
			{
				"x": 0.5660897409,
				"y": -1.8455204654,
				"z": -0.7018936259,
				"element": "H" 
			}
		],
		 "valence_orbital": [ 
			{
				"type": "occ",
				"energy": -0.35851,
				"method": "rhf"
			},
			{
				"type": "occ",
				"energy": -0.35067,
				"method": "rhf"
			},
			{
				"type": "occ",
				"energy": -0.29547,
				"method": "rhf"
			},
			{
				"type": "occ",
				"energy": -0.28299,
				"method": "rhf"
			},
			{
				"type": "occ",
				"energy": -0.27308,
				"method": "rhf"
			},
			{
				"type": "unocc",
				"energy": -0.10171,
				"method": "rhf"
			},
			{
				"type": "unocc",
				"energy": -0.04228,
				"method": "rhf"
			},
			{
				"type": "unocc",
				"energy": -0.01352,
				"method": "rhf"
			},
			{
				"type": "unocc",
				"energy": 0.01749,
				"method": "rhf"
			},
			{
				"type": "unocc",
				"energy": 0.06372,
				"method": "rhf"
			}
		],
		"cosmo_sigma_profile": { 
			"-0.025": 0.0,
			"-0.024": 0.0,
			"-0.023": 0.0,
			"-0.022": 0.0,
			"-0.021": 0.0,
			"-0.02": 0.0,
			"-0.019": 0.0,
			"-0.018": 0.0,
			"-0.017": 0.0,
			"-0.016": 0.0,
			"-0.015": 0.0,
			"-0.014": 0.0,
			"-0.013": 0.0,
			"-0.012": 0.0,
			"-0.011": 0.0,
			"-0.01": 1.8856390968,
			"-0.009": 7.25908916253,
			"-0.008": 8.04007626875,
			"-0.007": 9.78716525532,
			"-0.006": 7.18206091225,
			"-0.005": 8.48242247669,
			"-0.004": 8.76217674741,
			"-0.003": 15.4473653355,
			"-0.002": 18.1511990035,
			"-0.001": 15.9332684919,
			"0.0": 9.42289929321,
			"0.001": 5.58235183469,
			"0.002": 5.7469722736,
			"0.003": 9.30620293399,
			"0.004": 5.68560833863,
			"0.005": 3.77998373691,
			"0.006": 5.27197686692,
			"0.007": 5.53564127853,
			"0.008": 5.27291511518,
			"0.009": 6.11739855473,
			"0.01": 6.73587814883,
			"0.011": 6.7361721949,
			"0.012": 3.00890420437,
			"0.013": 0.203176587841,
			"0.014": 0.0,
			"0.015": 0.0,
			"0.016": 0.0,
			"0.017": 0.0,
			"0.018": 0.0,
			"0.019": 0.0,
			"0.02": 0.0,
			"0.021": 0.0,
			"0.022": 0.0,
			"0.023": 0.0,
			"0.024": 0.0,
			"0.025": 0.0
		}
	}
}
