{
	 "smiles": "CSC1=CC=C2SC3=CC=CC=C3N(CCC3CCCCN3C)C2=C1", 
	 "Tm": 346.15, 
	 "num_atms": 51, 
	 "gaussian": { 
		 "optdone": 1, 
		 "sigma_profile": "yes", 
		 "theory": "DFT", 
		 "functional": "B3LYP", 
		 "basiset": "6-31G**", 
		 "properties": { 
			 "R2extent": 13698.3742, 
			 "electric_dipole_moment_norm": 2.21392439121, 
			 "electric_quadrupole_moment_norm": 8.76966045694, 
			 "total_energy": -1721.77323681, 
			 "HOMO_LUMO_gap": 0.16568, 
			 "cosmo_polarized_energy": -10.18, 
			 "cosmo_cavitation_energy": 52.66, 
			 "cosmo_dispersion_energy": -37.04, 
			 "cosmo_repulsion_energy": 2.75, 
			 "cosmo_total_nonelectrostatic_energy": 18.37, 
			 "SMD_solvation_energy": 5.72 
		},
		"coords": [
			{
				"x": -1.2432138575,
				"y": 4.3993653973,
				"z": -4.9884792418,
				"element": "C" 
			},
			{
				"x": -2.1169602083,
				"y": 3.195371389,
				"z": -3.9164401554,
				"element": "S" 
			},
			{
				"x": -1.4352319127,
				"y": 3.6041830635,
				"z": -2.3067924587,
				"element": "C" 
			},
			{
				"x": -1.6962370699,
				"y": 4.8383719986,
				"z": -1.7014122926,
				"element": "C" 
			},
			{
				"x": -1.1494393125,
				"y": 5.1171790504,
				"z": -0.4501138482,
				"element": "C" 
			},
			{
				"x": -0.403989368,
				"y": 4.1534969853,
				"z": 0.2308523857,
				"element": "C" 
			},
			{
				"x": 0.1801910027,
				"y": 4.4661092185,
				"z": 1.8839680013,
				"element": "S" 
			},
			{
				"x": 1.7209399909,
				"y": 3.5749602841,
				"z": 1.7756315905,
				"element": "C" 
			},
			{
				"x": 2.8528787551,
				"y": 4.0398401923,
				"z": 2.4455891606,
				"element": "C" 
			},
			{
				"x": 4.0327807876,
				"y": 3.2941493765,
				"z": 2.4371605152,
				"element": "C" 
			},
			{
				"x": 4.0795814665,
				"y": 2.0988965478,
				"z": 1.7214775782,
				"element": "C" 
			},
			{
				"x": 2.9610471189,
				"y": 1.6485689472,
				"z": 1.0185310477,
				"element": "C" 
			},
			{
				"x": 1.757148309,
				"y": 2.3699559746,
				"z": 1.0464434643,
				"element": "C" 
			},
			{
				"x": 0.59698927,
				"y": 1.9331110802,
				"z": 0.3609808323,
				"element": "N" 
			},
			{
				"x": 0.4487795086,
				"y": 0.5138378792,
				"z": 0.0267761088,
				"element": "C" 
			},
			{
				"x": 0.3891553447,
				"y": -0.3847464278,
				"z": 1.269990563,
				"element": "C" 
			},
			{
				"x": 0.1243781925,
				"y": -1.8538884265,
				"z": 0.9133842765,
				"element": "C" 
			},
			{
				"x": 0.1901668498,
				"y": -2.7740759,
				"z": 2.1615207673,
				"element": "C" 
			},
			{
				"x": -0.4806326124,
				"y": -4.1418726888,
				"z": 1.8877680479,
				"element": "C" 
			},
			{
				"x": -0.4350418442,
				"y": -4.4871921918,
				"z": 0.3930869512,
				"element": "C" 
			},
			{
				"x": -1.1407086616,
				"y": -3.3971597559,
				"z": -0.4581349788,
				"element": "C" 
			},
			{
				"x": -1.1086847069,
				"y": -2.0440017081,
				"z": 0.1322054035,
				"element": "N" 
			},
			{
				"x": -2.3451282816,
				"y": -1.6511288291,
				"z": 0.803621698,
				"element": "C" 
			},
			{
				"x": -0.1556675309,
				"y": 2.8956212412,
				"z": -0.3527822684,
				"element": "C" 
			},
			{
				"x": -0.6527162339,
				"y": 2.6516943942,
				"z": -1.6433202637,
				"element": "C" 
			},
			{
				"x": -1.6065114179,
				"y": 4.2268213933,
				"z": -6.0044413608,
				"element": "H" 
			},
			{
				"x": -1.4725903537,
				"y": 5.4272015049,
				"z": -4.7002660308,
				"element": "H" 
			},
			{
				"x": -0.1639456819,
				"y": 4.2363168224,
				"z": -4.9590611877,
				"element": "H" 
			},
			{
				"x": -2.3183870794,
				"y": 5.5736168097,
				"z": -2.2010683776,
				"element": "H" 
			},
			{
				"x": -1.324955917,
				"y": 6.0801453073,
				"z": 0.0202381828,
				"element": "H" 
			},
			{
				"x": 2.7991705463,
				"y": 4.9811433961,
				"z": 2.9843919632,
				"element": "H" 
			},
			{
				"x": 4.904031998,
				"y": 3.6490196993,
				"z": 2.9786886293,
				"element": "H" 
			},
			{
				"x": 4.9941434336,
				"y": 1.5136964459,
				"z": 1.6941503195,
				"element": "H" 
			},
			{
				"x": 3.0272474105,
				"y": 0.7300304732,
				"z": 0.4468394841,
				"element": "H" 
			},
			{
				"x": 1.2392319303,
				"y": 0.1677857153,
				"z": -0.6577585818,
				"element": "H" 
			},
			{
				"x": -0.4907809893,
				"y": 0.3952038581,
				"z": -0.5111543388,
				"element": "H" 
			},
			{
				"x": 1.3279721137,
				"y": -0.3349328228,
				"z": 1.8312214262,
				"element": "H" 
			},
			{
				"x": -0.3856453364,
				"y": -0.0015102972,
				"z": 1.9435110613,
				"element": "H" 
			},
			{
				"x": 0.933957395,
				"y": -2.1640848777,
				"z": 0.2357397613,
				"element": "H" 
			},
			{
				"x": 1.2428331748,
				"y": -2.9115559148,
				"z": 2.4393023811,
				"element": "H" 
			},
			{
				"x": -0.2900537764,
				"y": -2.2855747124,
				"z": 3.0180383947,
				"element": "H" 
			},
			{
				"x": -1.5266635699,
				"y": -4.1177090877,
				"z": 2.2160113318,
				"element": "H" 
			},
			{
				"x": 0.0033491643,
				"y": -4.9286157068,
				"z": 2.47673211,
				"element": "H" 
			},
			{
				"x": 0.6127800859,
				"y": -4.5842481433,
				"z": 0.080652355,
				"element": "H" 
			},
			{
				"x": -0.8991409842,
				"y": -5.4617751697,
				"z": 0.2041856135,
				"element": "H" 
			},
			{
				"x": -0.6772748308,
				"y": -3.3628391447,
				"z": -1.4547032409,
				"element": "H" 
			},
			{
				"x": -2.189719072,
				"y": -3.6691851434,
				"z": -0.6128396845,
				"element": "H" 
			},
			{
				"x": -2.5792990221,
				"y": -2.2052596752,
				"z": 1.7294993227,
				"element": "H" 
			},
			{
				"x": -2.315720398,
				"y": -0.586732369,
				"z": 1.0552893905,
				"element": "H" 
			},
			{
				"x": -3.1822001647,
				"y": -1.7917737791,
				"z": 0.1131445825,
				"element": "H" 
			},
			{
				"x": -0.4289136543,
				"y": 1.7204683261,
				"z": -2.1492563907,
				"element": "H" 
			}
		],
		 "valence_orbital": [ 
			{
				"type": "occ",
				"energy": -0.25156,
				"method": "rhf"
			},
			{
				"type": "occ",
				"energy": -0.22729,
				"method": "rhf"
			},
			{
				"type": "occ",
				"energy": -0.21851,
				"method": "rhf"
			},
			{
				"type": "occ",
				"energy": -0.20001,
				"method": "rhf"
			},
			{
				"type": "occ",
				"energy": -0.18508,
				"method": "rhf"
			},
			{
				"type": "unocc",
				"energy": -0.0194,
				"method": "rhf"
			},
			{
				"type": "unocc",
				"energy": -0.00928,
				"method": "rhf"
			},
			{
				"type": "unocc",
				"energy": -0.00243,
				"method": "rhf"
			},
			{
				"type": "unocc",
				"energy": 0.00769,
				"method": "rhf"
			},
			{
				"type": "unocc",
				"energy": 0.03856,
				"method": "rhf"
			}
		],
		"cosmo_sigma_profile": { 
			"-0.025": 0.0,
			"-0.024": 0.0,
			"-0.023": 0.0,
			"-0.022": 0.0,
			"-0.021": 0.0,
			"-0.02": 0.0,
			"-0.019": 0.0,
			"-0.018": 0.0,
			"-0.017": 0.0,
			"-0.016": 0.0,
			"-0.015": 0.0,
			"-0.014": 0.0,
			"-0.013": 0.0,
			"-0.012": 0.0,
			"-0.011": 0.0,
			"-0.01": 0.0,
			"-0.009": 0.0,
			"-0.008": 0.0,
			"-0.007": 2.21442284484,
			"-0.006": 15.3313785887,
			"-0.005": 21.5615779054,
			"-0.004": 25.4043663188,
			"-0.003": 37.7223468159,
			"-0.002": 54.8270929535,
			"-0.001": 51.9344642127,
			"0.0": 45.9831365126,
			"0.001": 35.3123750787,
			"0.002": 25.6947434175,
			"0.003": 26.387740473,
			"0.004": 27.659924132,
			"0.005": 19.8317481272,
			"0.006": 9.79666390326,
			"0.007": 6.97266480761,
			"0.008": 4.84699796736,
			"0.009": 3.298104946,
			"0.01": 1.91418085809,
			"0.011": 0.5221947194,
			"0.012": 0.529759268746,
			"0.013": 0.265767458967,
			"0.014": 0.0561428206437,
			"0.015": 0.0,
			"0.016": 0.0,
			"0.017": 0.0,
			"0.018": 0.0,
			"0.019": 0.0,
			"0.02": 0.0,
			"0.021": 0.0,
			"0.022": 0.0,
			"0.023": 0.0,
			"0.024": 0.0,
			"0.025": 0.0
		}
	}
}
