{
	 "smiles": "CC1=CC=C(C=C1)S(=O)(=O)OC1CCC2(C)C(CCC3C4CCCC4(C)CCC23)C1", 
	 "Tm": 403.15, 
	 "num_atms": 68, 
	 "gaussian": { 
		 "optdone": 1, 
		 "sigma_profile": "yes", 
		 "theory": "DFT", 
		 "functional": "B3LYP", 
		 "basiset": "6-31G**", 
		 "properties": { 
			 "R2extent": 18288.6171, 
			 "electric_dipole_moment_norm": 4.24421441965, 
			 "electric_quadrupole_moment_norm": 42.636666054, 
			 "total_energy": -1637.49272153, 
			 "HOMO_LUMO_gap": 0.22419, 
			 "cosmo_polarized_energy": -12.13, 
			 "cosmo_cavitation_energy": 60.84, 
			 "cosmo_dispersion_energy": -42.18, 
			 "cosmo_repulsion_energy": 3.1, 
			 "cosmo_total_nonelectrostatic_energy": 21.75, 
			 "SMD_solvation_energy": 7.48 
		},
		"coords": [
			{
				"x": -7.8233175837,
				"y": -1.6973617909,
				"z": -0.2873873394,
				"element": "C" 
			},
			{
				"x": -6.4597935219,
				"y": -2.3049495052,
				"z": -0.5120732953,
				"element": "C" 
			},
			{
				"x": -5.8374375589,
				"y": -3.0584458192,
				"z": 0.4949568274,
				"element": "C" 
			},
			{
				"x": -4.5685540959,
				"y": -3.60069552,
				"z": 0.3089637262,
				"element": "C" 
			},
			{
				"x": -3.9137566574,
				"y": -3.3846626769,
				"z": -0.904675653,
				"element": "C" 
			},
			{
				"x": -4.5104756443,
				"y": -2.651087947,
				"z": -1.9300735943,
				"element": "C" 
			},
			{
				"x": -5.7804071351,
				"y": -2.1157516199,
				"z": -1.7239969995,
				"element": "C" 
			},
			{
				"x": -2.2946834155,
				"y": -4.0839049453,
				"z": -1.1602756296,
				"element": "S" 
			},
			{
				"x": -2.1159014273,
				"y": -5.2513574056,
				"z": -0.2933045651,
				"element": "O" 
			},
			{
				"x": -2.0412507887,
				"y": -4.1994058462,
				"z": -2.5978973232,
				"element": "O" 
			},
			{
				"x": -1.4154084341,
				"y": -2.8420676273,
				"z": -0.5503450685,
				"element": "O" 
			},
			{
				"x": -0.0007647878,
				"y": -3.1113325866,
				"z": -0.2298767927,
				"element": "C" 
			},
			{
				"x": 0.8967895834,
				"y": -2.9082939081,
				"z": -1.4645114077,
				"element": "C" 
			},
			{
				"x": 1.5394588163,
				"y": -1.5156335371,
				"z": -1.4866552862,
				"element": "C" 
			},
			{
				"x": 2.5004824789,
				"y": -1.2818067974,
				"z": -0.2862554848,
				"element": "C" 
			},
			{
				"x": 3.8352664338,
				"y": -2.0092788773,
				"z": -0.5539840207,
				"element": "C" 
			},
			{
				"x": 1.854342485,
				"y": -1.8974708931,
				"z": 1.0240001152,
				"element": "C" 
			},
			{
				"x": 2.1820300222,
				"y": -1.0520655308,
				"z": 2.2669654701,
				"element": "C" 
			},
			{
				"x": 1.6467164027,
				"y": 0.3929033165,
				"z": 2.1697018805,
				"element": "C" 
			},
			{
				"x": 1.7009942928,
				"y": 0.9469236967,
				"z": 0.7253072586,
				"element": "C" 
			},
			{
				"x": 1.7970777988,
				"y": 2.485200819,
				"z": 0.6771517712,
				"element": "C" 
			},
			{
				"x": 3.1246449856,
				"y": 3.0988028031,
				"z": 1.231849843,
				"element": "C" 
			},
			{
				"x": 3.6873200361,
				"y": 4.0296314764,
				"z": 0.1301953918,
				"element": "C" 
			},
			{
				"x": 2.4849787858,
				"y": 4.3250773231,
				"z": -0.7794349884,
				"element": "C" 
			},
			{
				"x": 1.6116460536,
				"y": 3.0433542497,
				"z": -0.7778334263,
				"element": "C" 
			},
			{
				"x": 0.1418806551,
				"y": 3.3946843602,
				"z": -1.064450104,
				"element": "C" 
			},
			{
				"x": 2.0761625817,
				"y": 1.9956178948,
				"z": -1.8345304865,
				"element": "C" 
			},
			{
				"x": 3.1804218082,
				"y": 1.0309333778,
				"z": -1.3691760622,
				"element": "C" 
			},
			{
				"x": 2.8209960207,
				"y": 0.2429530518,
				"z": -0.0745161012,
				"element": "C" 
			},
			{
				"x": 0.3352594357,
				"y": -2.1363402775,
				"z": 0.8994959998,
				"element": "C" 
			},
			{
				"x": -8.4383424391,
				"y": -2.324029646,
				"z": 0.3650706575,
				"element": "H" 
			},
			{
				"x": -7.7383565432,
				"y": -0.7139405459,
				"z": 0.1915731358,
				"element": "H" 
			},
			{
				"x": -8.3594101409,
				"y": -1.5558613015,
				"z": -1.2299991104,
				"element": "H" 
			},
			{
				"x": -6.3571167334,
				"y": -3.2282234199,
				"z": 1.4341741214,
				"element": "H" 
			},
			{
				"x": -4.0946448558,
				"y": -4.1970316315,
				"z": 1.0808909297,
				"element": "H" 
			},
			{
				"x": -3.9912203989,
				"y": -2.5197247906,
				"z": -2.8729094642,
				"element": "H" 
			},
			{
				"x": -6.2545777777,
				"y": -1.5477943485,
				"z": -2.5198843536,
				"element": "H" 
			},
			{
				"x": 0.055787358,
				"y": -4.1449455762,
				"z": 0.1232424625,
				"element": "H" 
			},
			{
				"x": 0.3078491819,
				"y": -3.0833135318,
				"z": -2.3681856368,
				"element": "H" 
			},
			{
				"x": 1.6764576586,
				"y": -3.6789418912,
				"z": -1.4543879417,
				"element": "H" 
			},
			{
				"x": 2.0813287052,
				"y": -1.3835876984,
				"z": -2.4290801981,
				"element": "H" 
			},
			{
				"x": 0.7401175555,
				"y": -0.765360278,
				"z": -1.4871208753,
				"element": "H" 
			},
			{
				"x": 4.4883644335,
				"y": -1.9612583598,
				"z": 0.3251304624,
				"element": "H" 
			},
			{
				"x": 4.3768598668,
				"y": -1.5587621981,
				"z": -1.3927989622,
				"element": "H" 
			},
			{
				"x": 3.6831221032,
				"y": -3.0676638849,
				"z": -0.7902107246,
				"element": "H" 
			},
			{
				"x": 2.3128409092,
				"y": -2.8850070428,
				"z": 1.1762542201,
				"element": "H" 
			},
			{
				"x": 1.7861298787,
				"y": -1.542409003,
				"z": 3.164585748,
				"element": "H" 
			},
			{
				"x": 3.2708054195,
				"y": -1.0307161208,
				"z": 2.3956181259,
				"element": "H" 
			},
			{
				"x": 2.2376781238,
				"y": 1.0314478477,
				"z": 2.8372965599,
				"element": "H" 
			},
			{
				"x": 0.6153995423,
				"y": 0.4449394077,
				"z": 2.5389923848,
				"element": "H" 
			},
			{
				"x": 0.748050209,
				"y": 0.6979339739,
				"z": 0.2378136314,
				"element": "H" 
			},
			{
				"x": 0.9691787188,
				"y": 2.8733313534,
				"z": 1.2855000921,
				"element": "H" 
			},
			{
				"x": 3.8526925859,
				"y": 2.3319789938,
				"z": 1.5152706542,
				"element": "H" 
			},
			{
				"x": 2.9170392422,
				"y": 3.6711012489,
				"z": 2.1420405307,
				"element": "H" 
			},
			{
				"x": 4.1312813725,
				"y": 4.9414948565,
				"z": 0.5431462313,
				"element": "H" 
			},
			{
				"x": 4.4802535002,
				"y": 3.5276244466,
				"z": -0.4336116939,
				"element": "H" 
			},
			{
				"x": 1.9009482341,
				"y": 5.1490304219,
				"z": -0.3480921356,
				"element": "H" 
			},
			{
				"x": 2.7724148695,
				"y": 4.6365590319,
				"z": -1.7902735777,
				"element": "H" 
			},
			{
				"x": -0.22488252,
				"y": 4.1634890718,
				"z": -0.3749516437,
				"element": "H" 
			},
			{
				"x": -0.5061412107,
				"y": 2.5160785774,
				"z": -0.9630138514,
				"element": "H" 
			},
			{
				"x": 0.0186592141,
				"y": 3.7749179577,
				"z": -2.0856980573,
				"element": "H" 
			},
			{
				"x": 1.2061602838,
				"y": 1.4012589413,
				"z": -2.138809238,
				"element": "H" 
			},
			{
				"x": 2.4056945279,
				"y": 2.5188419757,
				"z": -2.7412018934,
				"element": "H" 
			},
			{
				"x": 4.1017049252,
				"y": 1.5953399355,
				"z": -1.1955366313,
				"element": "H" 
			},
			{
				"x": 3.417505714,
				"y": 0.3452243132,
				"z": -2.1894643025,
				"element": "H" 
			},
			{
				"x": 3.7183785542,
				"y": 0.2621143736,
				"z": 0.5569326587,
				"element": "H" 
			},
			{
				"x": -0.0645383224,
				"y": -2.5176920027,
				"z": 1.845599548,
				"element": "H" 
			},
			{
				"x": -0.1879893713,
				"y": -1.1966127145,
				"z": 0.6977634824,
				"element": "H" 
			}
		],
		 "valence_orbital": [ 
			{
				"type": "occ",
				"energy": -0.27506,
				"method": "rhf"
			},
			{
				"type": "occ",
				"energy": -0.26994,
				"method": "rhf"
			},
			{
				"type": "occ",
				"energy": -0.26832,
				"method": "rhf"
			},
			{
				"type": "occ",
				"energy": -0.26772,
				"method": "rhf"
			},
			{
				"type": "occ",
				"energy": -0.26152,
				"method": "rhf"
			},
			{
				"type": "unocc",
				"energy": -0.03733,
				"method": "rhf"
			},
			{
				"type": "unocc",
				"energy": -0.01876,
				"method": "rhf"
			},
			{
				"type": "unocc",
				"energy": 0.0549,
				"method": "rhf"
			},
			{
				"type": "unocc",
				"energy": 0.06434,
				"method": "rhf"
			},
			{
				"type": "unocc",
				"energy": 0.07113,
				"method": "rhf"
			}
		],
		"cosmo_sigma_profile": { 
			"-0.025": 0.0,
			"-0.024": 0.0,
			"-0.023": 0.0,
			"-0.022": 0.0,
			"-0.021": 0.0,
			"-0.02": 0.0,
			"-0.019": 0.0,
			"-0.018": 0.0,
			"-0.017": 0.0,
			"-0.016": 0.0,
			"-0.015": 0.0,
			"-0.014": 0.0,
			"-0.013": 0.0,
			"-0.012": 0.0,
			"-0.011": 0.0,
			"-0.01": 0.0,
			"-0.009": 0.0,
			"-0.008": 0.293043043966,
			"-0.007": 3.84915053298,
			"-0.006": 9.24185019648,
			"-0.005": 16.0450789846,
			"-0.004": 21.4848643563,
			"-0.003": 31.4394134066,
			"-0.002": 64.8249536722,
			"-0.001": 78.6579990007,
			"0.0": 76.3776587103,
			"0.001": 59.3069230471,
			"0.002": 43.9377054291,
			"0.003": 20.2126328266,
			"0.004": 6.79010403106,
			"0.005": 4.74451814114,
			"0.006": 4.21052304453,
			"0.007": 5.03860696161,
			"0.008": 4.91289710972,
			"0.009": 4.5419357565,
			"0.01": 8.93784826625,
			"0.011": 5.44217601793,
			"0.012": 0.486750409459,
			"0.013": 0.0,
			"0.014": 0.0,
			"0.015": 0.0,
			"0.016": 0.0,
			"0.017": 0.0,
			"0.018": 0.0,
			"0.019": 0.0,
			"0.02": 0.0,
			"0.021": 0.0,
			"0.022": 0.0,
			"0.023": 0.0,
			"0.024": 0.0,
			"0.025": 0.0
		}
	}
}
