{
	 "smiles": "OC(=O)CCCCCCCCCCCCCCCCCCC(O)=O", 
	 "Tm": 399.15, 
	 "num_atms": 62, 
	 "gaussian": { 
		 "optdone": 1, 
		 "sigma_profile": "yes", 
		 "theory": "DFT", 
		 "functional": "B3LYP", 
		 "basiset": "6-31G**", 
		 "properties": { 
			 "R2extent": 12520.5496, 
			 "electric_dipole_moment_norm": 1.84172085561, 
			 "electric_quadrupole_moment_norm": 3.06818593961, 
			 "total_energy": -1086.01047763, 
			 "HOMO_LUMO_gap": 0.27253, 
			 "cosmo_polarized_energy": -14.17, 
			 "cosmo_cavitation_energy": 60.46, 
			 "cosmo_dispersion_energy": -36.95, 
			 "cosmo_repulsion_energy": 2.89, 
			 "cosmo_total_nonelectrostatic_energy": 26.41, 
			 "SMD_solvation_energy": 9.38 
		},
		"coords": [
			{
				"x": -2.0931975656,
				"y": -3.1288309584,
				"z": 1.5643756297,
				"element": "O" 
			},
			{
				"x": -1.3090874916,
				"y": -2.0811150778,
				"z": 1.2029226716,
				"element": "C" 
			},
			{
				"x": -0.5654346379,
				"y": -2.1527294391,
				"z": 0.244763444,
				"element": "O" 
			},
			{
				"x": -1.4340966618,
				"y": -0.9037715527,
				"z": 2.1434656818,
				"element": "C" 
			},
			{
				"x": -2.8500419857,
				"y": -0.5908872917,
				"z": 2.666671198,
				"element": "C" 
			},
			{
				"x": -3.7340967358,
				"y": 0.2229966223,
				"z": 1.7060217756,
				"element": "C" 
			},
			{
				"x": -3.9917183875,
				"y": -0.4127660126,
				"z": 0.3325288322,
				"element": "C" 
			},
			{
				"x": -4.9805188327,
				"y": 0.3999528187,
				"z": -0.5207803666,
				"element": "C" 
			},
			{
				"x": -5.0620894391,
				"y": -0.0518902193,
				"z": -1.9916373957,
				"element": "C" 
			},
			{
				"x": -3.8425232859,
				"y": 0.3617918022,
				"z": -2.8381023733,
				"element": "C" 
			},
			{
				"x": -3.8333382025,
				"y": 1.8534705727,
				"z": -3.2385004716,
				"element": "C" 
			},
			{
				"x": -2.4238980675,
				"y": 2.447900365,
				"z": -3.3983420613,
				"element": "C" 
			},
			{
				"x": -1.5576648647,
				"y": 1.7820995965,
				"z": -4.477868405,
				"element": "C" 
			},
			{
				"x": -0.0904978324,
				"y": 2.2561133449,
				"z": -4.4976243027,
				"element": "C" 
			},
			{
				"x": 0.6830805079,
				"y": 2.0761959275,
				"z": -3.1752395369,
				"element": "C" 
			},
			{
				"x": 0.7096360974,
				"y": 0.6359587491,
				"z": -2.6405815179,
				"element": "C" 
			},
			{
				"x": 1.2608458833,
				"y": 0.4820979332,
				"z": -1.2135436455,
				"element": "C" 
			},
			{
				"x": 2.7687043183,
				"y": 0.7235019254,
				"z": -1.0593966227,
				"element": "C" 
			},
			{
				"x": 3.2827875481,
				"y": 0.5196021905,
				"z": 0.3769034012,
				"element": "C" 
			},
			{
				"x": 3.2022242494,
				"y": -0.9328213784,
				"z": 0.872564852,
				"element": "C" 
			},
			{
				"x": 3.7793259975,
				"y": -1.127738478,
				"z": 2.2790781994,
				"element": "C" 
			},
			{
				"x": 2.9075266499,
				"y": -0.5618290713,
				"z": 3.3801093005,
				"element": "C" 
			},
			{
				"x": 3.6081415275,
				"y": -0.367534087,
				"z": 4.5241940594,
				"element": "O" 
			},
			{
				"x": 1.7190058084,
				"y": -0.3265353509,
				"z": 3.3072052368,
				"element": "O" 
			},
			{
				"x": -1.9057911265,
				"y": -3.8310284178,
				"z": 0.9189503601,
				"element": "H" 
			},
			{
				"x": -0.7678308803,
				"y": -1.1296149293,
				"z": 2.9853694601,
				"element": "H" 
			},
			{
				"x": -0.9865195771,
				"y": -0.0433342739,
				"z": 1.6391561793,
				"element": "H" 
			},
			{
				"x": -2.7452311239,
				"y": -0.0210261657,
				"z": 3.5973827907,
				"element": "H" 
			},
			{
				"x": -3.3489965206,
				"y": -1.5284392871,
				"z": 2.9343259595,
				"element": "H" 
			},
			{
				"x": -3.2772318129,
				"y": 1.2116296322,
				"z": 1.5547271683,
				"element": "H" 
			},
			{
				"x": -4.6965835267,
				"y": 0.4098796663,
				"z": 2.2019243804,
				"element": "H" 
			},
			{
				"x": -4.3769876308,
				"y": -1.433721297,
				"z": 0.4609902669,
				"element": "H" 
			},
			{
				"x": -3.0396956451,
				"y": -0.5121719835,
				"z": -0.2037972793,
				"element": "H" 
			},
			{
				"x": -5.976237735,
				"y": 0.3367603535,
				"z": -0.0622972281,
				"element": "H" 
			},
			{
				"x": -4.7023543901,
				"y": 1.4625283766,
				"z": -0.4807781876,
				"element": "H" 
			},
			{
				"x": -5.1758571491,
				"y": -1.14397077,
				"z": -2.0201461604,
				"element": "H" 
			},
			{
				"x": -5.9716553909,
				"y": 0.3585164516,
				"z": -2.4504672114,
				"element": "H" 
			},
			{
				"x": -2.9266811888,
				"y": 0.1314340252,
				"z": -2.2774808136,
				"element": "H" 
			},
			{
				"x": -3.7985720285,
				"y": -0.2611032867,
				"z": -3.7391499827,
				"element": "H" 
			},
			{
				"x": -4.3602664645,
				"y": 2.4396226263,
				"z": -2.4743919312,
				"element": "H" 
			},
			{
				"x": -4.4085612768,
				"y": 1.9861834526,
				"z": -4.165209262,
				"element": "H" 
			},
			{
				"x": -1.9202581132,
				"y": 2.3692506749,
				"z": -2.4263074963,
				"element": "H" 
			},
			{
				"x": -2.5009392013,
				"y": 3.5231698061,
				"z": -3.6115967415,
				"element": "H" 
			},
			{
				"x": -1.5820653446,
				"y": 0.6940923848,
				"z": -4.3475203922,
				"element": "H" 
			},
			{
				"x": -2.003175757,
				"y": 1.9717704761,
				"z": -5.4641388596,
				"element": "H" 
			},
			{
				"x": -0.0593844443,
				"y": 3.3185003984,
				"z": -4.7763939047,
				"element": "H" 
			},
			{
				"x": 0.4364652002,
				"y": 1.7184957892,
				"z": -5.2977755176,
				"element": "H" 
			},
			{
				"x": 0.2489225262,
				"y": 2.7302036996,
				"z": -2.4070479926,
				"element": "H" 
			},
			{
				"x": 1.7084662164,
				"y": 2.4382458766,
				"z": -3.3238881307,
				"element": "H" 
			},
			{
				"x": 1.2811483373,
				"y": -0.0024683527,
				"z": -3.3303328334,
				"element": "H" 
			},
			{
				"x": -0.3097748462,
				"y": 0.2332289675,
				"z": -2.6397029711,
				"element": "H" 
			},
			{
				"x": 0.7224343067,
				"y": 1.1759471554,
				"z": -0.5499156077,
				"element": "H" 
			},
			{
				"x": 1.0070120149,
				"y": -0.5208576395,
				"z": -0.8581094806,
				"element": "H" 
			},
			{
				"x": 3.0173350654,
				"y": 1.7440424212,
				"z": -1.3779839502,
				"element": "H" 
			},
			{
				"x": 3.3161181356,
				"y": 0.0520102491,
				"z": -1.7376819052,
				"element": "H" 
			},
			{
				"x": 2.7134042925,
				"y": 1.1653885453,
				"z": 1.0587997141,
				"element": "H" 
			},
			{
				"x": 4.3282979478,
				"y": 0.8540768526,
				"z": 0.4336854879,
				"element": "H" 
			},
			{
				"x": 2.1652674659,
				"y": -1.281595045,
				"z": 0.8689146614,
				"element": "H" 
			},
			{
				"x": 3.7572611855,
				"y": -1.5793215254,
				"z": 0.1808649182,
				"element": "H" 
			},
			{
				"x": 3.8909732799,
				"y": -2.1976003044,
				"z": 2.5037913882,
				"element": "H" 
			},
			{
				"x": 4.782195748,
				"y": -0.6969324198,
				"z": 2.3748955988,
				"element": "H" 
			},
			{
				"x": 2.9681748553,
				"y": -0.0422251144,
				"z": 5.1797479228,
				"element": "H" 
			}
		],
		 "valence_orbital": [ 
			{
				"type": "occ",
				"energy": -0.29457,
				"method": "rhf"
			},
			{
				"type": "occ",
				"energy": -0.29145,
				"method": "rhf"
			},
			{
				"type": "occ",
				"energy": -0.28517,
				"method": "rhf"
			},
			{
				"type": "occ",
				"energy": -0.27583,
				"method": "rhf"
			},
			{
				"type": "occ",
				"energy": -0.26472,
				"method": "rhf"
			},
			{
				"type": "unocc",
				"energy": 0.00781,
				"method": "rhf"
			},
			{
				"type": "unocc",
				"energy": 0.01545,
				"method": "rhf"
			},
			{
				"type": "unocc",
				"energy": 0.07025,
				"method": "rhf"
			},
			{
				"type": "unocc",
				"energy": 0.07825,
				"method": "rhf"
			},
			{
				"type": "unocc",
				"energy": 0.08347,
				"method": "rhf"
			}
		],
		"cosmo_sigma_profile": { 
			"-0.025": 0.0,
			"-0.024": 0.0,
			"-0.023": 0.0,
			"-0.022": 0.0,
			"-0.021": 0.0,
			"-0.02": 0.0,
			"-0.019": 0.0,
			"-0.018": 0.704387391683,
			"-0.017": 1.95027575432,
			"-0.016": 1.61070545643,
			"-0.015": 1.67831796114,
			"-0.014": 2.21091782737,
			"-0.013": 0.600790086613,
			"-0.012": 1.21531365244,
			"-0.011": 1.88489773431,
			"-0.01": 1.45154786606,
			"-0.009": 0.710120624961,
			"-0.008": 0.496451012383,
			"-0.007": 2.83425141508,
			"-0.006": 4.65745477069,
			"-0.005": 5.62415450334,
			"-0.004": 8.96754184997,
			"-0.003": 18.8208669206,
			"-0.002": 56.383134258,
			"-0.001": 89.6096610921,
			"0.0": 90.537471688,
			"0.001": 72.1446370696,
			"0.002": 30.3893538094,
			"0.003": 9.51000545248,
			"0.004": 11.2615937113,
			"0.005": 12.0170811538,
			"0.006": 7.91455221043,
			"0.007": 7.80421260175,
			"0.008": 7.29217753184,
			"0.009": 5.48363293017,
			"0.01": 3.49673328394,
			"0.011": 2.74686048371,
			"0.012": 1.83555588604,
			"0.013": 0.31263697891,
			"0.014": 0.0,
			"0.015": 0.0,
			"0.016": 0.0,
			"0.017": 0.0,
			"0.018": 0.0,
			"0.019": 0.0,
			"0.02": 0.0,
			"0.021": 0.0,
			"0.022": 0.0,
			"0.023": 0.0,
			"0.024": 0.0,
			"0.025": 0.0
		}
	}
}
