{
	 "smiles": "O=C1COC2=C(C=CC=C2)C(=O)N1", 
	 "Tm": 423.15, 
	 "num_atms": 20, 
	 "gaussian": { 
		 "optdone": 1, 
		 "sigma_profile": "yes", 
		 "theory": "DFT", 
		 "functional": "B3LYP", 
		 "basiset": "6-31G**", 
		 "properties": { 
			 "R2extent": 2952.8544, 
			 "electric_dipole_moment_norm": 3.67694343987, 
			 "electric_quadrupole_moment_norm": 7.40302753203, 
			 "total_energy": -627.606884487, 
			 "HOMO_LUMO_gap": 0.18542, 
			 "cosmo_polarized_energy": -12.19, 
			 "cosmo_cavitation_energy": 24.37, 
			 "cosmo_dispersion_energy": -18.38, 
			 "cosmo_repulsion_energy": 1.43, 
			 "cosmo_total_nonelectrostatic_energy": 7.42, 
			 "SMD_solvation_energy": 5.72 
		},
		"coords": [
			{
				"x": 3.479668493,
				"y": 0.8464931525,
				"z": 1.7143966474,
				"element": "O" 
			},
			{
				"x": 2.2764696851,
				"y": 0.8293120755,
				"z": 1.5319928498,
				"element": "C" 
			},
			{
				"x": 1.6593775589,
				"y": 1.3326515275,
				"z": 0.2393367405,
				"element": "C" 
			},
			{
				"x": 0.6215010269,
				"y": 0.4996491858,
				"z": -0.2607607333,
				"element": "O" 
			},
			{
				"x": -0.6342856153,
				"y": 0.7058251295,
				"z": 0.2473497105,
				"element": "C" 
			},
			{
				"x": -0.9190604082,
				"y": 0.745935036,
				"z": 1.6257171745,
				"element": "C" 
			},
			{
				"x": -2.2544916366,
				"y": 0.9576995198,
				"z": 2.0209648619,
				"element": "C" 
			},
			{
				"x": -3.2711282964,
				"y": 1.1122338953,
				"z": 1.0896898283,
				"element": "C" 
			},
			{
				"x": -2.9731475541,
				"y": 1.0364139644,
				"z": -0.2755903118,
				"element": "C" 
			},
			{
				"x": -1.6620139051,
				"y": 0.8363821093,
				"z": -0.6926036889,
				"element": "C" 
			},
			{
				"x": 0.0340222134,
				"y": 0.4510410301,
				"z": 2.7364355837,
				"element": "C" 
			},
			{
				"x": -0.3644074696,
				"y": 0.2383728061,
				"z": 3.8727853233,
				"element": "O" 
			},
			{
				"x": 1.4190704676,
				"y": 0.3710790608,
				"z": 2.5232357869,
				"element": "N" 
			},
			{
				"x": 2.4535490179,
				"y": 1.3374384052,
				"z": -0.5078155542,
				"element": "H" 
			},
			{
				"x": 1.2987463052,
				"y": 2.3615144422,
				"z": 0.381449657,
				"element": "H" 
			},
			{
				"x": -2.4608139053,
				"y": 0.9715519682,
				"z": 3.0850925445,
				"element": "H" 
			},
			{
				"x": -4.2914973377,
				"y": 1.2760393115,
				"z": 1.4208438142,
				"element": "H" 
			},
			{
				"x": -3.761136149,
				"y": 1.1437724387,
				"z": -1.0152593838,
				"element": "H" 
			},
			{
				"x": -1.3998225489,
				"y": 0.7847806317,
				"z": -1.7438658536,
				"element": "H" 
			},
			{
				"x": 1.9080000583,
				"y": 0.1054143101,
				"z": 3.3733050031,
				"element": "H" 
			}
		],
		 "valence_orbital": [ 
			{
				"type": "occ",
				"energy": -0.30001,
				"method": "rhf"
			},
			{
				"type": "occ",
				"energy": -0.28741,
				"method": "rhf"
			},
			{
				"type": "occ",
				"energy": -0.27215,
				"method": "rhf"
			},
			{
				"type": "occ",
				"energy": -0.26694,
				"method": "rhf"
			},
			{
				"type": "occ",
				"energy": -0.25184,
				"method": "rhf"
			},
			{
				"type": "unocc",
				"energy": -0.06642,
				"method": "rhf"
			},
			{
				"type": "unocc",
				"energy": -0.0165,
				"method": "rhf"
			},
			{
				"type": "unocc",
				"energy": -0.01383,
				"method": "rhf"
			},
			{
				"type": "unocc",
				"energy": 0.04799,
				"method": "rhf"
			},
			{
				"type": "unocc",
				"energy": 0.08347,
				"method": "rhf"
			}
		],
		"cosmo_sigma_profile": { 
			"-0.025": 0.0,
			"-0.024": 0.0,
			"-0.023": 0.0,
			"-0.022": 0.0,
			"-0.021": 0.0,
			"-0.02": 0.0,
			"-0.019": 0.0,
			"-0.018": 0.0,
			"-0.017": 0.0,
			"-0.016": 0.0,
			"-0.015": 0.478323171971,
			"-0.014": 0.826480468408,
			"-0.013": 0.657063360816,
			"-0.012": 0.496834225581,
			"-0.011": 1.26275248874,
			"-0.01": 2.32844614666,
			"-0.009": 3.2376753029,
			"-0.008": 4.75352709669,
			"-0.007": 9.18461731684,
			"-0.006": 12.0159272513,
			"-0.005": 13.7916519237,
			"-0.004": 12.8299061714,
			"-0.003": 10.5459074333,
			"-0.002": 12.3644576252,
			"-0.001": 11.759499749,
			"0.0": 13.5942461446,
			"0.001": 11.7404230167,
			"0.002": 14.48653902,
			"0.003": 13.7018733013,
			"0.004": 7.32326923436,
			"0.005": 2.85729707247,
			"0.006": 3.84125508489,
			"0.007": 4.19245088059,
			"0.008": 2.84544489295,
			"0.009": 4.59885761423,
			"0.01": 4.55782147321,
			"0.011": 8.31147014541,
			"0.012": 6.63117674307,
			"0.013": 0.189344279719,
			"0.014": 0.0,
			"0.015": 0.0,
			"0.016": 0.0,
			"0.017": 0.0,
			"0.018": 0.0,
			"0.019": 0.0,
			"0.02": 0.0,
			"0.021": 0.0,
			"0.022": 0.0,
			"0.023": 0.0,
			"0.024": 0.0,
			"0.025": 0.0
		}
	}
}
