{
	 "smiles": "N#CC1=NC=C(OC2=CC=CC=C2)N=C1", 
	 "Tm": 373.15, 
	 "num_atms": 22, 
	 "gaussian": { 
		 "optdone": 1, 
		 "sigma_profile": "yes", 
		 "theory": "DFT", 
		 "functional": "B3LYP", 
		 "basiset": "6-31G**", 
		 "properties": { 
			 "R2extent": 4040.1522, 
			 "electric_dipole_moment_norm": 5.78614916935, 
			 "electric_quadrupole_moment_norm": 20.9024352926, 
			 "total_energy": -662.820787903, 
			 "HOMO_LUMO_gap": 0.18851, 
			 "cosmo_polarized_energy": -12.59, 
			 "cosmo_cavitation_energy": 28.96, 
			 "cosmo_dispersion_energy": -20.4, 
			 "cosmo_repulsion_energy": 1.59, 
			 "cosmo_total_nonelectrostatic_energy": 10.15, 
			 "SMD_solvation_energy": 3.74 
		},
		"coords": [
			{
				"x": 5.1899820121,
				"y": -0.8763534188,
				"z": 0.4277827363,
				"element": "N" 
			},
			{
				"x": 4.0463886287,
				"y": -0.6846340481,
				"z": 0.51047743,
				"element": "C" 
			},
			{
				"x": 2.6406684121,
				"y": -0.419791686,
				"z": 0.6548719592,
				"element": "C" 
			},
			{
				"x": 1.7975389589,
				"y": -0.9431869354,
				"z": -0.2550665195,
				"element": "N" 
			},
			{
				"x": 0.5062608978,
				"y": -0.6844335494,
				"z": -0.0996594605,
				"element": "C" 
			},
			{
				"x": 0.0438237228,
				"y": 0.1069423605,
				"z": 0.9767655959,
				"element": "C" 
			},
			{
				"x": -1.2585129892,
				"y": 0.4066896988,
				"z": 1.1896220964,
				"element": "O" 
			},
			{
				"x": -2.2379374571,
				"y": -0.0790008386,
				"z": 0.3173251792,
				"element": "C" 
			},
			{
				"x": -2.8542334082,
				"y": -1.2964285089,
				"z": 0.5995140945,
				"element": "C" 
			},
			{
				"x": -3.8833851183,
				"y": -1.740191035,
				"z": -0.2328773735,
				"element": "C" 
			},
			{
				"x": -4.2860271143,
				"y": -0.9708587498,
				"z": -1.326911122,
				"element": "C" 
			},
			{
				"x": -3.6611766663,
				"y": 0.2504054444,
				"z": -1.5894167093,
				"element": "C" 
			},
			{
				"x": -2.630618082,
				"y": 0.7057334122,
				"z": -0.7650113717,
				"element": "C" 
			},
			{
				"x": 0.8739987794,
				"y": 0.6254777949,
				"z": 1.8770776451,
				"element": "N" 
			},
			{
				"x": 2.1701405687,
				"y": 0.363710785,
				"z": 1.7180913488,
				"element": "C" 
			},
			{
				"x": -0.1788563772,
				"y": -1.1030856238,
				"z": -0.8294389407,
				"element": "H" 
			},
			{
				"x": -2.5341841462,
				"y": -1.8723582494,
				"z": 1.4616789192,
				"element": "H" 
			},
			{
				"x": -4.3720486383,
				"y": -2.6865230192,
				"z": -0.021933364,
				"element": "H" 
			},
			{
				"x": -5.0881878053,
				"y": -1.3194958364,
				"z": -1.9699033449,
				"element": "H" 
			},
			{
				"x": -3.9767248795,
				"y": 0.8541432335,
				"z": -2.4348530922,
				"element": "H" 
			},
			{
				"x": -2.1398438406,
				"y": 1.6568805864,
				"z": -0.9436020036,
				"element": "H" 
			},
			{
				"x": 2.857234542,
				"y": 0.7831581832,
				"z": 2.4490662974,
				"element": "H" 
			}
		],
		 "valence_orbital": [ 
			{
				"type": "occ",
				"energy": -0.32839,
				"method": "rhf"
			},
			{
				"type": "occ",
				"energy": -0.28414,
				"method": "rhf"
			},
			{
				"type": "occ",
				"energy": -0.27821,
				"method": "rhf"
			},
			{
				"type": "occ",
				"energy": -0.2657,
				"method": "rhf"
			},
			{
				"type": "occ",
				"energy": -0.26489,
				"method": "rhf"
			},
			{
				"type": "unocc",
				"energy": -0.07638,
				"method": "rhf"
			},
			{
				"type": "unocc",
				"energy": -0.05684,
				"method": "rhf"
			},
			{
				"type": "unocc",
				"energy": -0.02646,
				"method": "rhf"
			},
			{
				"type": "unocc",
				"energy": -0.02415,
				"method": "rhf"
			},
			{
				"type": "unocc",
				"energy": 0.02516,
				"method": "rhf"
			}
		],
		"cosmo_sigma_profile": { 
			"-0.025": 0.0,
			"-0.024": 0.0,
			"-0.023": 0.0,
			"-0.022": 0.0,
			"-0.021": 0.0,
			"-0.02": 0.0,
			"-0.019": 0.0,
			"-0.018": 0.0,
			"-0.017": 0.0,
			"-0.016": 0.0,
			"-0.015": 0.0,
			"-0.014": 0.0,
			"-0.013": 0.0,
			"-0.012": 0.0,
			"-0.011": 0.0,
			"-0.01": 1.55005854566,
			"-0.009": 2.49216250921,
			"-0.008": 3.79520438162,
			"-0.007": 9.41115942991,
			"-0.006": 16.4731699433,
			"-0.005": 20.057562349,
			"-0.004": 22.9810710847,
			"-0.003": 17.7672859827,
			"-0.002": 14.3638459009,
			"-0.001": 12.3416717433,
			"0.0": 11.7157860518,
			"0.001": 13.5795877695,
			"0.002": 14.9624063053,
			"0.003": 14.8145399669,
			"0.004": 13.8461901155,
			"0.005": 6.75442871212,
			"0.006": 5.669127502,
			"0.007": 6.75789222829,
			"0.008": 6.04096114127,
			"0.009": 6.39327454117,
			"0.01": 5.10277044057,
			"0.011": 3.88197457823,
			"0.012": 3.83047839879,
			"0.013": 0.98574939274,
			"0.014": 0.0270321464321,
			"0.015": 0.0,
			"0.016": 0.0,
			"0.017": 0.0,
			"0.018": 0.0,
			"0.019": 0.0,
			"0.02": 0.0,
			"0.021": 0.0,
			"0.022": 0.0,
			"0.023": 0.0,
			"0.024": 0.0,
			"0.025": 0.0
		}
	}
}
