{
	 "smiles": "COC(=O)C1=CC(Cl)=CC(Cl)=C1", 
	 "Tm": 332.15, 
	 "num_atms": 18, 
	 "gaussian": { 
		 "optdone": 1, 
		 "sigma_profile": "yes", 
		 "theory": "DFT", 
		 "functional": "B3LYP", 
		 "basiset": "6-31G**", 
		 "properties": { 
			 "R2extent": 3484.9839, 
			 "electric_dipole_moment_norm": 2.15022710661, 
			 "electric_quadrupole_moment_norm": 9.67860727688, 
			 "total_energy": -1379.31050725, 
			 "HOMO_LUMO_gap": 0.19466, 
			 "cosmo_polarized_energy": -6.57, 
			 "cosmo_cavitation_energy": 26.82, 
			 "cosmo_dispersion_energy": -19.88, 
			 "cosmo_repulsion_energy": 1.6, 
			 "cosmo_total_nonelectrostatic_energy": 8.54, 
			 "SMD_solvation_energy": 5.68 
		},
		"coords": [
			{
				"x": -1.682736844,
				"y": -3.3590022472,
				"z": -2.1070538742,
				"element": "C" 
			},
			{
				"x": -1.197566627,
				"y": -2.0358686019,
				"z": -1.8213665122,
				"element": "O" 
			},
			{
				"x": -1.1517692454,
				"y": -1.7093681139,
				"z": -0.5135226134,
				"element": "C" 
			},
			{
				"x": -1.490045164,
				"y": -2.4599259212,
				"z": 0.3792286155,
				"element": "O" 
			},
			{
				"x": -0.6384618403,
				"y": -0.3223681288,
				"z": -0.2922360963,
				"element": "C" 
			},
			{
				"x": -0.5483757318,
				"y": 0.124221068,
				"z": 1.0310459906,
				"element": "C" 
			},
			{
				"x": -0.0753969236,
				"y": 1.4088238073,
				"z": 1.27704542,
				"element": "C" 
			},
			{
				"x": 0.044285973,
				"y": 1.9854869375,
				"z": 2.928789169,
				"element": "Cl" 
			},
			{
				"x": 0.3091989942,
				"y": 2.2570931323,
				"z": 0.2373615274,
				"element": "C" 
			},
			{
				"x": 0.2089790365,
				"y": 1.785962776,
				"z": -1.0719433247,
				"element": "C" 
			},
			{
				"x": 0.6882473611,
				"y": 2.8393401573,
				"z": -2.3906941779,
				"element": "Cl" 
			},
			{
				"x": -0.2600866282,
				"y": 0.505926179,
				"z": -1.3553989255,
				"element": "C" 
			},
			{
				"x": -2.7032488183,
				"y": -3.4805240327,
				"z": -1.7361272256,
				"element": "H" 
			},
			{
				"x": -1.0437369153,
				"y": -4.1104409065,
				"z": -1.6371364015,
				"element": "H" 
			},
			{
				"x": -1.6538773995,
				"y": -3.453526921,
				"z": -3.1921325009,
				"element": "H" 
			},
			{
				"x": -0.8470547308,
				"y": -0.5349769996,
				"z": 1.8368828718,
				"element": "H" 
			},
			{
				"x": 0.6759981406,
				"y": 3.2554191853,
				"z": 0.4417177781,
				"element": "H" 
			},
			{
				"x": -0.3315526371,
				"y": 0.1562286301,
				"z": -2.3768597203,
				"element": "H" 
			}
		],
		 "valence_orbital": [ 
			{
				"type": "occ",
				"energy": -0.32249,
				"method": "rhf"
			},
			{
				"type": "occ",
				"energy": -0.31508,
				"method": "rhf"
			},
			{
				"type": "occ",
				"energy": -0.2885,
				"method": "rhf"
			},
			{
				"type": "occ",
				"energy": -0.2741,
				"method": "rhf"
			},
			{
				"type": "occ",
				"energy": -0.26073,
				"method": "rhf"
			},
			{
				"type": "unocc",
				"energy": -0.06607,
				"method": "rhf"
			},
			{
				"type": "unocc",
				"energy": -0.03217,
				"method": "rhf"
			},
			{
				"type": "unocc",
				"energy": 0.0006,
				"method": "rhf"
			},
			{
				"type": "unocc",
				"energy": 0.03738,
				"method": "rhf"
			},
			{
				"type": "unocc",
				"energy": 0.04257,
				"method": "rhf"
			}
		],
		"cosmo_sigma_profile": { 
			"-0.025": 0.0,
			"-0.024": 0.0,
			"-0.023": 0.0,
			"-0.022": 0.0,
			"-0.021": 0.0,
			"-0.02": 0.0,
			"-0.019": 0.0,
			"-0.018": 0.0,
			"-0.017": 0.0,
			"-0.016": 0.0,
			"-0.015": 0.0,
			"-0.014": 0.0,
			"-0.013": 0.0,
			"-0.012": 0.0,
			"-0.011": 0.0,
			"-0.01": 0.0657656656143,
			"-0.009": 1.0073517371,
			"-0.008": 2.01279454369,
			"-0.007": 4.38936522298,
			"-0.006": 8.91084480838,
			"-0.005": 12.5133752932,
			"-0.004": 14.2280704549,
			"-0.003": 17.5445596154,
			"-0.002": 15.7561774729,
			"-0.001": 20.7573420093,
			"0.0": 33.8780529243,
			"0.001": 18.2668374456,
			"0.002": 14.6113195426,
			"0.003": 18.1149615128,
			"0.004": 20.7994828787,
			"0.005": 3.11473216451,
			"0.006": 1.3039834539,
			"0.007": 1.65948144016,
			"0.008": 1.59207688251,
			"0.009": 1.49325220188,
			"0.01": 2.1753068858,
			"0.011": 4.27264178174,
			"0.012": 1.50969488499,
			"0.013": 0.0,
			"0.014": 0.0,
			"0.015": 0.0,
			"0.016": 0.0,
			"0.017": 0.0,
			"0.018": 0.0,
			"0.019": 0.0,
			"0.02": 0.0,
			"0.021": 0.0,
			"0.022": 0.0,
			"0.023": 0.0,
			"0.024": 0.0,
			"0.025": 0.0
		}
	}
}
