{
	 "smiles": "CC1=NC(C(O)=O)=C2CCCCN12", 
	 "Tm": 499.15, 
	 "num_atms": 25, 
	 "gaussian": { 
		 "optdone": 1, 
		 "sigma_profile": "yes", 
		 "theory": "DFT", 
		 "functional": "B3LYP", 
		 "basiset": "6-31G**", 
		 "properties": { 
			 "R2extent": 2736.6671, 
			 "electric_dipole_moment_norm": 7.81945747031, 
			 "electric_quadrupole_moment_norm": 9.59168878717, 
			 "total_energy": -610.184139103, 
			 "HOMO_LUMO_gap": 0.2162, 
			 "cosmo_polarized_energy": -16.22, 
			 "cosmo_cavitation_energy": 27.3, 
			 "cosmo_dispersion_energy": -20.4, 
			 "cosmo_repulsion_energy": 1.62, 
			 "cosmo_total_nonelectrostatic_energy": 8.53, 
			 "SMD_solvation_energy": 3.65 
		},
		"coords": [
			{
				"x": 1.7278390226,
				"y": 0.4302394093,
				"z": -2.5976240863,
				"element": "C" 
			},
			{
				"x": 0.9169381373,
				"y": -0.0718792059,
				"z": -1.4487244686,
				"element": "C" 
			},
			{
				"x": -0.3904887677,
				"y": 0.0167057965,
				"z": -1.332441797,
				"element": "N" 
			},
			{
				"x": -0.7033498652,
				"y": -0.5615541326,
				"z": -0.1170945524,
				"element": "C" 
			},
			{
				"x": -2.096939422,
				"y": -0.6284791247,
				"z": 0.3514831484,
				"element": "C" 
			},
			{
				"x": -2.9842195856,
				"y": -0.0840875215,
				"z": -0.5116800789,
				"element": "O" 
			},
			{
				"x": -2.4419945227,
				"y": -1.1166159698,
				"z": 1.4094493262,
				"element": "O" 
			},
			{
				"x": 0.4346704129,
				"y": -1.0099739548,
				"z": 0.5187267914,
				"element": "C" 
			},
			{
				"x": 0.6700496401,
				"y": -1.7200771889,
				"z": 1.8156189523,
				"element": "C" 
			},
			{
				"x": 2.1394172246,
				"y": -1.6030170332,
				"z": 2.2534613829,
				"element": "C" 
			},
			{
				"x": 3.0737599434,
				"y": -1.9121523691,
				"z": 1.0749632895,
				"element": "C" 
			},
			{
				"x": 2.8880107709,
				"y": -0.8977843645,
				"z": -0.0589994237,
				"element": "C" 
			},
			{
				"x": 1.464948673,
				"y": -0.6989064112,
				"z": -0.346391387,
				"element": "N" 
			},
			{
				"x": 1.0496816948,
				"y": 0.8681660839,
				"z": -3.3310973164,
				"element": "H" 
			},
			{
				"x": 2.2923755508,
				"y": -0.3728145568,
				"z": -3.0865246107,
				"element": "H" 
			},
			{
				"x": 2.4467739331,
				"y": 1.199174427,
				"z": -2.2903873491,
				"element": "H" 
			},
			{
				"x": -2.4711955053,
				"y": 0.2376278868,
				"z": -1.277591419,
				"element": "H" 
			},
			{
				"x": -0.0217288434,
				"y": -1.3292479538,
				"z": 2.5659934543,
				"element": "H" 
			},
			{
				"x": 0.407316049,
				"y": -2.7804952322,
				"z": 1.6956982518,
				"element": "H" 
			},
			{
				"x": 2.3359840499,
				"y": -2.2887559677,
				"z": 3.0833129549,
				"element": "H" 
			},
			{
				"x": 2.3412064252,
				"y": -0.5893207734,
				"z": 2.6238335698,
				"element": "H" 
			},
			{
				"x": 4.1233387564,
				"y": -1.8927249495,
				"z": 1.3861290268,
				"element": "H" 
			},
			{
				"x": 2.8681893802,
				"y": -2.9225004767,
				"z": 0.6993800907,
				"element": "H" 
			},
			{
				"x": 3.3299426893,
				"y": 0.0669782994,
				"z": 0.2230535092,
				"element": "H" 
			},
			{
				"x": 3.3881741585,
				"y": -1.2341047165,
				"z": -0.9723472592,
				"element": "H" 
			}
		],
		 "valence_orbital": [ 
			{
				"type": "occ",
				"energy": -0.29045,
				"method": "rhf"
			},
			{
				"type": "occ",
				"energy": -0.28916,
				"method": "rhf"
			},
			{
				"type": "occ",
				"energy": -0.28088,
				"method": "rhf"
			},
			{
				"type": "occ",
				"energy": -0.24972,
				"method": "rhf"
			},
			{
				"type": "occ",
				"energy": -0.22564,
				"method": "rhf"
			},
			{
				"type": "unocc",
				"energy": -0.00944,
				"method": "rhf"
			},
			{
				"type": "unocc",
				"energy": 0.01944,
				"method": "rhf"
			},
			{
				"type": "unocc",
				"energy": 0.06474,
				"method": "rhf"
			},
			{
				"type": "unocc",
				"energy": 0.0924,
				"method": "rhf"
			},
			{
				"type": "unocc",
				"energy": 0.09805,
				"method": "rhf"
			}
		],
		"cosmo_sigma_profile": { 
			"-0.025": 0.0,
			"-0.024": 0.0,
			"-0.023": 0.0,
			"-0.022": 0.0,
			"-0.021": 0.0,
			"-0.02": 0.0,
			"-0.019": 0.0,
			"-0.018": 0.0,
			"-0.017": 0.0,
			"-0.016": 0.0,
			"-0.015": 0.0,
			"-0.014": 0.0,
			"-0.013": 0.102273599307,
			"-0.012": 0.450402886871,
			"-0.011": 0.790034640728,
			"-0.01": 0.565351285841,
			"-0.009": 0.388909696828,
			"-0.008": 0.394626473831,
			"-0.007": 2.41405762539,
			"-0.006": 9.56366111922,
			"-0.005": 18.1589818282,
			"-0.004": 29.713740874,
			"-0.003": 25.6712318082,
			"-0.002": 23.860824771,
			"-0.001": 21.9041076684,
			"0.0": 12.1318536767,
			"0.001": 7.93515228912,
			"0.002": 7.71021985609,
			"0.003": 6.19885216564,
			"0.004": 4.47727516424,
			"0.005": 3.43213529759,
			"0.006": 4.13829161778,
			"0.007": 4.46951509205,
			"0.008": 4.03798094167,
			"0.009": 4.42501826634,
			"0.01": 4.69775663126,
			"0.011": 6.29822069266,
			"0.012": 4.5779524926,
			"0.013": 4.08139732318,
			"0.014": 1.88644404648,
			"0.015": 0.147625767882,
			"0.016": 0.0,
			"0.017": 0.0,
			"0.018": 0.0,
			"0.019": 0.0,
			"0.02": 0.0,
			"0.021": 0.0,
			"0.022": 0.0,
			"0.023": 0.0,
			"0.024": 0.0,
			"0.025": 0.0
		}
	}
}
