{
	 "smiles": "CC1=NN=C(S)N1CCS(C)(=O)=O", 
	 "Tm": 467.15, 
	 "num_atms": 24, 
	 "gaussian": { 
		 "optdone": 1, 
		 "sigma_profile": "yes", 
		 "theory": "DFT", 
		 "functional": "B3LYP", 
		 "basiset": "6-31G**", 
		 "properties": { 
			 "R2extent": 4055.641, 
			 "electric_dipole_moment_norm": 4.75358631141, 
			 "electric_quadrupole_moment_norm": 27.9296377678, 
			 "total_energy": -1346.25775501, 
			 "HOMO_LUMO_gap": 0.23056, 
			 "cosmo_polarized_energy": -30.15, 
			 "cosmo_cavitation_energy": 31.06, 
			 "cosmo_dispersion_energy": -22.36, 
			 "cosmo_repulsion_energy": 1.68, 
			 "cosmo_total_nonelectrostatic_energy": 10.38, 
			 "SMD_solvation_energy": 2.4 
		},
		"coords": [
			{
				"x": 2.0237534143,
				"y": -2.9653038432,
				"z": 0.2186195162,
				"element": "C" 
			},
			{
				"x": 1.7089043939,
				"y": -2.3146780312,
				"z": -1.0858586094,
				"element": "C" 
			},
			{
				"x": 1.6228262885,
				"y": -2.9306519963,
				"z": -2.2384428434,
				"element": "N" 
			},
			{
				"x": 1.3285860818,
				"y": -1.9880547717,
				"z": -3.2100233559,
				"element": "N" 
			},
			{
				"x": 1.2498513363,
				"y": -0.8292986969,
				"z": -2.6046890037,
				"element": "C" 
			},
			{
				"x": 0.9025904068,
				"y": 0.7279755849,
				"z": -3.3667162868,
				"element": "S" 
			},
			{
				"x": 1.4834763577,
				"y": -0.9582352299,
				"z": -1.2546471063,
				"element": "N" 
			},
			{
				"x": 1.4426056485,
				"y": 0.0822268125,
				"z": -0.2358486075,
				"element": "C" 
			},
			{
				"x": 0.0143168178,
				"y": 0.3305404893,
				"z": 0.2681519671,
				"element": "C" 
			},
			{
				"x": -0.0893844354,
				"y": 1.6879397083,
				"z": 1.4817702548,
				"element": "S" 
			},
			{
				"x": 0.5453471058,
				"y": 0.9707795499,
				"z": 3.0165973597,
				"element": "C" 
			},
			{
				"x": -1.5142542946,
				"y": 1.9791431065,
				"z": 1.6833201058,
				"element": "O" 
			},
			{
				"x": 0.85087676,
				"y": 2.7348457928,
				"z": 1.0513085901,
				"element": "O" 
			},
			{
				"x": 2.9456359072,
				"y": -2.5725072896,
				"z": 0.6635223356,
				"element": "H" 
			},
			{
				"x": 2.1610239397,
				"y": -4.0318187537,
				"z": 0.0348286792,
				"element": "H" 
			},
			{
				"x": 1.2167996092,
				"y": -2.8446350127,
				"z": 0.9509402832,
				"element": "H" 
			},
			{
				"x": 0.8027120894,
				"y": 0.1766160056,
				"z": -4.5907311625,
				"element": "H" 
			},
			{
				"x": 2.1006963831,
				"y": -0.225642289,
				"z": 0.5808189145,
				"element": "H" 
			},
			{
				"x": 1.8518056729,
				"y": 1.0086331442,
				"z": -0.6461973936,
				"element": "H" 
			},
			{
				"x": -0.6376993896,
				"y": 0.6618846732,
				"z": -0.5455761046,
				"element": "H" 
			},
			{
				"x": -0.433482793,
				"y": -0.5581661538,
				"z": 0.721632165,
				"element": "H" 
			},
			{
				"x": 0.5021276219,
				"y": 1.7733203469,
				"z": 3.7554073299,
				"element": "H" 
			},
			{
				"x": -0.0962171364,
				"y": 0.1438876313,
				"z": 3.3246501619,
				"element": "H" 
			},
			{
				"x": 1.5794022142,
				"y": 0.6492992226,
				"z": 2.8814628105,
				"element": "H" 
			}
		],
		 "valence_orbital": [ 
			{
				"type": "occ",
				"energy": -0.31131,
				"method": "rhf"
			},
			{
				"type": "occ",
				"energy": -0.30921,
				"method": "rhf"
			},
			{
				"type": "occ",
				"energy": -0.2921,
				"method": "rhf"
			},
			{
				"type": "occ",
				"energy": -0.26106,
				"method": "rhf"
			},
			{
				"type": "occ",
				"energy": -0.23608,
				"method": "rhf"
			},
			{
				"type": "unocc",
				"energy": -0.00552,
				"method": "rhf"
			},
			{
				"type": "unocc",
				"energy": 0.00597,
				"method": "rhf"
			},
			{
				"type": "unocc",
				"energy": 0.03373,
				"method": "rhf"
			},
			{
				"type": "unocc",
				"energy": 0.0382,
				"method": "rhf"
			},
			{
				"type": "unocc",
				"energy": 0.04683,
				"method": "rhf"
			}
		],
		"cosmo_sigma_profile": { 
			"-0.025": 0.0,
			"-0.024": 0.0,
			"-0.023": 0.0,
			"-0.022": 0.0,
			"-0.021": 0.0,
			"-0.02": 0.0,
			"-0.019": 0.0,
			"-0.018": 0.0,
			"-0.017": 0.0,
			"-0.016": 0.0,
			"-0.015": 0.0,
			"-0.014": 0.0,
			"-0.013": 0.154654811701,
			"-0.012": 1.66686531426,
			"-0.011": 3.42039447383,
			"-0.01": 5.32056654033,
			"-0.009": 12.3812413835,
			"-0.008": 14.2529963649,
			"-0.007": 14.5335803139,
			"-0.006": 17.1358476341,
			"-0.005": 18.8159986367,
			"-0.004": 16.7157000939,
			"-0.003": 13.8753399828,
			"-0.002": 12.4525901276,
			"-0.001": 10.6658013031,
			"0.0": 7.46419132608,
			"0.001": 8.84320831278,
			"0.002": 9.12639800711,
			"0.003": 6.65278821118,
			"0.004": 5.41688100533,
			"0.005": 6.41616076009,
			"0.006": 6.52185507777,
			"0.007": 4.39901358781,
			"0.008": 4.27972735743,
			"0.009": 4.60106652883,
			"0.01": 6.2998719609,
			"0.011": 12.5116676206,
			"0.012": 11.2154403398,
			"0.013": 3.90834848485,
			"0.014": 3.40211971823,
			"0.015": 2.66691637833,
			"0.016": 2.41607213247,
			"0.017": 0.920956068704,
			"0.018": 0.0,
			"0.019": 0.0,
			"0.02": 0.0,
			"0.021": 0.0,
			"0.022": 0.0,
			"0.023": 0.0,
			"0.024": 0.0,
			"0.025": 0.0
		}
	}
}
