{
	 "smiles": "CCOC(=O)C(C(N)=S)=C1NN=C(O1)C1=CC=C(Cl)C=C1", 
	 "Tm": 449.15, 
	 "num_atms": 33, 
	 "gaussian": { 
		 "optdone": 1, 
		 "sigma_profile": "yes", 
		 "theory": "DFT", 
		 "functional": "B3LYP", 
		 "basiset": "6-31G**", 
		 "properties": { 
			 "R2extent": 11767.5283, 
			 "electric_dipole_moment_norm": 5.88040813379, 
			 "electric_quadrupole_moment_norm": 35.5631683352, 
			 "total_energy": -1750.89867385, 
			 "HOMO_LUMO_gap": 0.12952, 
			 "cosmo_polarized_energy": -27.14, 
			 "cosmo_cavitation_energy": 42.44, 
			 "cosmo_dispersion_energy": -30.22, 
			 "cosmo_repulsion_energy": 2.31, 
			 "cosmo_total_nonelectrostatic_energy": 14.53, 
			 "SMD_solvation_energy": 6.67 
		},
		"coords": [
			{
				"x": -4.1436698855,
				"y": 1.160806153,
				"z": -0.6444150015,
				"element": "C" 
			},
			{
				"x": -2.8254330525,
				"y": 0.532234989,
				"z": -1.0716948449,
				"element": "C" 
			},
			{
				"x": -1.7022941887,
				"y": 1.3731822059,
				"z": -0.7230540485,
				"element": "O" 
			},
			{
				"x": -1.3999276002,
				"y": 2.3549334012,
				"z": -1.6140850605,
				"element": "C" 
			},
			{
				"x": -2.0296270818,
				"y": 2.5376389172,
				"z": -2.6365710928,
				"element": "O" 
			},
			{
				"x": -0.2127010211,
				"y": 3.1459690588,
				"z": -1.2177844532,
				"element": "C" 
			},
			{
				"x": -0.057561845,
				"y": 4.5098981323,
				"z": -1.7565907753,
				"element": "C" 
			},
			{
				"x": 1.2508866708,
				"y": 4.8730264184,
				"z": -2.0562022331,
				"element": "N" 
			},
			{
				"x": -1.283395445,
				"y": 5.6170672227,
				"z": -1.8929009242,
				"element": "S" 
			},
			{
				"x": 0.7279513257,
				"y": 2.6850559284,
				"z": -0.3182153932,
				"element": "C" 
			},
			{
				"x": 1.8501250267,
				"y": 3.2975430168,
				"z": 0.1637944641,
				"element": "N" 
			},
			{
				"x": 2.5116060819,
				"y": 2.5274668042,
				"z": 1.0863120979,
				"element": "N" 
			},
			{
				"x": 1.8045096108,
				"y": 1.4481255916,
				"z": 1.1515032066,
				"element": "C" 
			},
			{
				"x": 0.7074173849,
				"y": 1.4756423266,
				"z": 0.3154116378,
				"element": "O" 
			},
			{
				"x": 2.0259444531,
				"y": 0.2665971764,
				"z": 1.969327814,
				"element": "C" 
			},
			{
				"x": 3.1515904472,
				"y": 0.1964908746,
				"z": 2.8070755579,
				"element": "C" 
			},
			{
				"x": 3.3704142223,
				"y": -0.9285552073,
				"z": 3.5923739971,
				"element": "C" 
			},
			{
				"x": 2.4597060602,
				"y": -1.9877432352,
				"z": 3.5390902977,
				"element": "C" 
			},
			{
				"x": 2.7353051955,
				"y": -3.4075060334,
				"z": 4.5280099588,
				"element": "Cl" 
			},
			{
				"x": 1.3363979321,
				"y": -1.9340982967,
				"z": 2.7135284741,
				"element": "C" 
			},
			{
				"x": 1.1207357915,
				"y": -0.8046833843,
				"z": 1.9283724482,
				"element": "C" 
			},
			{
				"x": -4.9695318992,
				"y": 0.4719638385,
				"z": -0.8527908876,
				"element": "H" 
			},
			{
				"x": -4.3186901849,
				"y": 2.0873491398,
				"z": -1.1955582501,
				"element": "H" 
			},
			{
				"x": -4.1408926895,
				"y": 1.3809935718,
				"z": 0.4272964397,
				"element": "H" 
			},
			{
				"x": -2.6390657308,
				"y": -0.405121444,
				"z": -0.5401954693,
				"element": "H" 
			},
			{
				"x": -2.8109659069,
				"y": 0.347617615,
				"z": -2.1485660144,
				"element": "H" 
			},
			{
				"x": 1.3208434266,
				"y": 5.7852940121,
				"z": -2.4925509659,
				"element": "H" 
			},
			{
				"x": 1.8182428954,
				"y": 4.1584898308,
				"z": -2.5020373676,
				"element": "H" 
			},
			{
				"x": 2.1654619799,
				"y": 4.2210436149,
				"z": -0.0969952609,
				"element": "H" 
			},
			{
				"x": 3.8489251998,
				"y": 1.0268723023,
				"z": 2.8369220674,
				"element": "H" 
			},
			{
				"x": 4.2367189556,
				"y": -0.9897364637,
				"z": 4.2411561584,
				"element": "H" 
			},
			{
				"x": 0.6408606122,
				"y": -2.7651529529,
				"z": 2.6875547312,
				"element": "H" 
			},
			{
				"x": 0.2497132589,
				"y": -0.7484051249,
				"z": 1.284878692,
				"element": "H" 
			}
		],
		 "valence_orbital": [ 
			{
				"type": "occ",
				"energy": -0.27138,
				"method": "rhf"
			},
			{
				"type": "occ",
				"energy": -0.263,
				"method": "rhf"
			},
			{
				"type": "occ",
				"energy": -0.24154,
				"method": "rhf"
			},
			{
				"type": "occ",
				"energy": -0.21454,
				"method": "rhf"
			},
			{
				"type": "occ",
				"energy": -0.20188,
				"method": "rhf"
			},
			{
				"type": "unocc",
				"energy": -0.07236,
				"method": "rhf"
			},
			{
				"type": "unocc",
				"energy": -0.05067,
				"method": "rhf"
			},
			{
				"type": "unocc",
				"energy": -0.03549,
				"method": "rhf"
			},
			{
				"type": "unocc",
				"energy": -0.00967,
				"method": "rhf"
			},
			{
				"type": "unocc",
				"energy": 0.01384,
				"method": "rhf"
			}
		],
		"cosmo_sigma_profile": { 
			"-0.025": 0.0,
			"-0.024": 0.0,
			"-0.023": 0.0,
			"-0.022": 0.0,
			"-0.021": 0.0,
			"-0.02": 0.0,
			"-0.019": 0.0,
			"-0.018": 0.0,
			"-0.017": 0.076180238289,
			"-0.016": 0.397766998758,
			"-0.015": 1.25423999382,
			"-0.014": 3.01809440901,
			"-0.013": 3.92822348897,
			"-0.012": 3.43480361212,
			"-0.011": 3.37636061089,
			"-0.01": 3.70476187067,
			"-0.009": 3.16570970581,
			"-0.008": 5.77458773938,
			"-0.007": 10.3569497353,
			"-0.006": 12.7033844169,
			"-0.005": 14.1843133704,
			"-0.004": 21.2244300832,
			"-0.003": 24.4411484298,
			"-0.002": 26.3179780507,
			"-0.001": 25.8481021085,
			"0.0": 28.585243473,
			"0.001": 30.5882751424,
			"0.002": 23.1824979839,
			"0.003": 15.6597640248,
			"0.004": 17.5764140708,
			"0.005": 8.38499164475,
			"0.006": 8.05942144459,
			"0.007": 8.52467404061,
			"0.008": 8.68640860093,
			"0.009": 8.3433926741,
			"0.01": 5.95189030864,
			"0.011": 5.4497305258,
			"0.012": 5.16636537648,
			"0.013": 4.07807434939,
			"0.014": 2.75209325351,
			"0.015": 0.309943114774,
			"0.016": 0.0,
			"0.017": 0.0,
			"0.018": 0.0,
			"0.019": 0.0,
			"0.02": 0.0,
			"0.021": 0.0,
			"0.022": 0.0,
			"0.023": 0.0,
			"0.024": 0.0,
			"0.025": 0.0
		}
	}
}
