{
	 "smiles": "NC(CCO)C1=CC=CC=C1", 
	 "Tm": 346.65, 
	 "num_atms": 24, 
	 "gaussian": { 
		 "optdone": 1, 
		 "sigma_profile": "yes", 
		 "theory": "DFT", 
		 "functional": "B3LYP", 
		 "basiset": "6-31G**", 
		 "properties": { 
			 "R2extent": 2160.1655, 
			 "electric_dipole_moment_norm": 1.45442252802, 
			 "electric_quadrupole_moment_norm": 7.82977192005, 
			 "total_energy": -480.752772793, 
			 "HOMO_LUMO_gap": 0.23464, 
			 "cosmo_polarized_energy": -11.41, 
			 "cosmo_cavitation_energy": 26.12, 
			 "cosmo_dispersion_energy": -19.1, 
			 "cosmo_repulsion_energy": 1.56, 
			 "cosmo_total_nonelectrostatic_energy": 8.59, 
			 "SMD_solvation_energy": 3.56 
		},
		"coords": [
			{
				"x": 1.1780979823,
				"y": 2.2875774973,
				"z": 0.8180005463,
				"element": "N" 
			},
			{
				"x": 0.9454186554,
				"y": 1.1336897972,
				"z": -0.0637342356,
				"element": "C" 
			},
			{
				"x": 0.1877557063,
				"y": 1.4856083598,
				"z": -1.3704382555,
				"element": "C" 
			},
			{
				"x": -1.2638034137,
				"y": 1.9134152175,
				"z": -1.18437442,
				"element": "C" 
			},
			{
				"x": -1.7546164832,
				"y": 2.3132643005,
				"z": -2.459855698,
				"element": "O" 
			},
			{
				"x": 0.3126175698,
				"y": -0.0225105424,
				"z": 0.7170316092,
				"element": "C" 
			},
			{
				"x": -0.1494165317,
				"y": -1.1706265086,
				"z": 0.0533169537,
				"element": "C" 
			},
			{
				"x": -0.6974455849,
				"y": -2.2398960532,
				"z": 0.7615107421,
				"element": "C" 
			},
			{
				"x": -0.7972282017,
				"y": -2.1847119504,
				"z": 2.153199867,
				"element": "C" 
			},
			{
				"x": -0.333988267,
				"y": -1.054105653,
				"z": 2.8251874047,
				"element": "C" 
			},
			{
				"x": 0.2190935889,
				"y": 0.0138344701,
				"z": 2.1147037078,
				"element": "C" 
			},
			{
				"x": 0.2922394149,
				"y": 2.7122639284,
				"z": 1.0844918537,
				"element": "H" 
			},
			{
				"x": 1.6971058875,
				"y": 2.9993978553,
				"z": 0.3101023701,
				"element": "H" 
			},
			{
				"x": 1.9453112537,
				"y": 0.7966208879,
				"z": -0.3731891993,
				"element": "H" 
			},
			{
				"x": 0.7238357115,
				"y": 2.3039840932,
				"z": -1.8674846881,
				"element": "H" 
			},
			{
				"x": 0.2105101197,
				"y": 0.6425622448,
				"z": -2.0699149253,
				"element": "H" 
			},
			{
				"x": -1.3235296038,
				"y": 2.7461852035,
				"z": -0.4632664297,
				"element": "H" 
			},
			{
				"x": -1.8509966808,
				"y": 1.0809609603,
				"z": -0.7701837514,
				"element": "H" 
			},
			{
				"x": -2.6891819398,
				"y": 2.5342635795,
				"z": -2.3643685952,
				"element": "H" 
			},
			{
				"x": -0.0776659381,
				"y": -1.2391668873,
				"z": -1.0283268846,
				"element": "H" 
			},
			{
				"x": -1.0469197684,
				"y": -3.1171314978,
				"z": 0.2238322741,
				"element": "H" 
			},
			{
				"x": -1.226355876,
				"y": -3.0159095239,
				"z": 2.7055460304,
				"element": "H" 
			},
			{
				"x": -0.3968030884,
				"y": -1.0011180347,
				"z": 3.9088659287,
				"element": "H" 
			},
			{
				"x": 0.6021654873,
				"y": 0.8806482559,
				"z": 2.6410477949,
				"element": "H" 
			}
		],
		 "valence_orbital": [ 
			{
				"type": "occ",
				"energy": -0.31621,
				"method": "rhf"
			},
			{
				"type": "occ",
				"energy": -0.26673,
				"method": "rhf"
			},
			{
				"type": "occ",
				"energy": -0.24321,
				"method": "rhf"
			},
			{
				"type": "occ",
				"energy": -0.24186,
				"method": "rhf"
			},
			{
				"type": "occ",
				"energy": -0.23256,
				"method": "rhf"
			},
			{
				"type": "unocc",
				"energy": 0.00208,
				"method": "rhf"
			},
			{
				"type": "unocc",
				"energy": 0.00667,
				"method": "rhf"
			},
			{
				"type": "unocc",
				"energy": 0.07374,
				"method": "rhf"
			},
			{
				"type": "unocc",
				"energy": 0.0789,
				"method": "rhf"
			},
			{
				"type": "unocc",
				"energy": 0.09851,
				"method": "rhf"
			}
		],
		"cosmo_sigma_profile": { 
			"-0.025": 0.0,
			"-0.024": 0.0,
			"-0.023": 0.0,
			"-0.022": 0.0,
			"-0.021": 0.0,
			"-0.02": 0.0,
			"-0.019": 0.0,
			"-0.018": 0.0,
			"-0.017": 0.0,
			"-0.016": 0.235669295131,
			"-0.015": 1.03008316128,
			"-0.014": 0.974187758788,
			"-0.013": 0.813892154775,
			"-0.012": 0.989851951117,
			"-0.011": 0.904529814823,
			"-0.01": 1.55360474072,
			"-0.009": 2.98113556779,
			"-0.008": 3.24924502071,
			"-0.007": 4.76108750518,
			"-0.006": 6.72624473809,
			"-0.005": 13.6945379368,
			"-0.004": 16.3078404869,
			"-0.003": 22.4892300391,
			"-0.002": 17.8219298146,
			"-0.001": 15.1369559271,
			"0.0": 12.2222727353,
			"0.001": 10.5708248023,
			"0.002": 9.33893467021,
			"0.003": 9.02654180583,
			"0.004": 9.61438333229,
			"0.005": 9.71622458096,
			"0.006": 10.2215283942,
			"0.007": 6.17536299112,
			"0.008": 1.92948433626,
			"0.009": 2.3779480527,
			"0.01": 2.18946222667,
			"0.011": 1.7832165601,
			"0.012": 1.64286481895,
			"0.013": 2.82323993137,
			"0.014": 2.12121111893,
			"0.015": 1.70336042862,
			"0.016": 0.773136152801,
			"0.017": 0.323352391459,
			"0.018": 0.124988579867,
			"0.019": 0.0,
			"0.02": 0.0,
			"0.021": 0.0,
			"0.022": 0.0,
			"0.023": 0.0,
			"0.024": 0.0,
			"0.025": 0.0
		}
	}
}
