{
	 "smiles": "NC1=CC(=CC=C1)C1=NN=C2CCCCCN12", 
	 "Tm": 474.15, 
	 "num_atms": 33, 
	 "gaussian": { 
		 "optdone": 1, 
		 "sigma_profile": "yes", 
		 "theory": "DFT", 
		 "functional": "B3LYP", 
		 "basiset": "6-31G**", 
		 "properties": { 
			 "R2extent": 5178.5405, 
			 "electric_dipole_moment_norm": 6.13282282558, 
			 "electric_quadrupole_moment_norm": 23.1682897478, 
			 "total_energy": -724.030736507, 
			 "HOMO_LUMO_gap": 0.18752, 
			 "cosmo_polarized_energy": -21.7, 
			 "cosmo_cavitation_energy": 34.5, 
			 "cosmo_dispersion_energy": -25.33, 
			 "cosmo_repulsion_energy": 1.96, 
			 "cosmo_total_nonelectrostatic_energy": 11.13, 
			 "SMD_solvation_energy": 2.53 
		},
		"coords": [
			{
				"x": -2.9991902244,
				"y": 2.905322235,
				"z": -2.000122268,
				"element": "N" 
			},
			{
				"x": -2.6657371359,
				"y": 2.0049692946,
				"z": -0.9912652881,
				"element": "C" 
			},
			{
				"x": -1.8059272932,
				"y": 0.9266662082,
				"z": -1.2528803781,
				"element": "C" 
			},
			{
				"x": -1.5106643954,
				"y": -0.0171426081,
				"z": -0.2628959142,
				"element": "C" 
			},
			{
				"x": -2.093768104,
				"y": 0.1041708456,
				"z": 1.0099944746,
				"element": "C" 
			},
			{
				"x": -2.9393889506,
				"y": 1.1816782609,
				"z": 1.2745572713,
				"element": "C" 
			},
			{
				"x": -3.221818625,
				"y": 2.1292339555,
				"z": 0.2950267436,
				"element": "C" 
			},
			{
				"x": -0.6327163435,
				"y": -1.1456173653,
				"z": -0.6230172143,
				"element": "C" 
			},
			{
				"x": -0.7413960432,
				"y": -1.8308329707,
				"z": -1.7431495063,
				"element": "N" 
			},
			{
				"x": 0.2329836601,
				"y": -2.8006751545,
				"z": -1.7392853825,
				"element": "N" 
			},
			{
				"x": 0.9131768836,
				"y": -2.6857248058,
				"z": -0.619795606,
				"element": "C" 
			},
			{
				"x": 2.052677086,
				"y": -3.5868241629,
				"z": -0.2444469837,
				"element": "C" 
			},
			{
				"x": 3.2307404141,
				"y": -2.8727051736,
				"z": 0.441419641,
				"element": "C" 
			},
			{
				"x": 3.0031601204,
				"y": -2.5860675091,
				"z": 1.9377428051,
				"element": "C" 
			},
			{
				"x": 1.593618276,
				"y": -2.0756999017,
				"z": 2.2991139404,
				"element": "C" 
			},
			{
				"x": 1.0179301516,
				"y": -1.0371862395,
				"z": 1.3286305685,
				"element": "C" 
			},
			{
				"x": 0.409521711,
				"y": -1.6487374939,
				"z": 0.1379885396,
				"element": "N" 
			},
			{
				"x": -3.3008659372,
				"y": 3.8189673391,
				"z": -1.6929873132,
				"element": "H" 
			},
			{
				"x": -2.3557942886,
				"y": 2.9502313503,
				"z": -2.7774304281,
				"element": "H" 
			},
			{
				"x": -1.3684553357,
				"y": 0.8032397185,
				"z": -2.238898891,
				"element": "H" 
			},
			{
				"x": -1.928597299,
				"y": -0.6561145831,
				"z": 1.7662404588,
				"element": "H" 
			},
			{
				"x": -3.3959727071,
				"y": 1.2787544372,
				"z": 2.2556441954,
				"element": "H" 
			},
			{
				"x": -3.8877822527,
				"y": 2.9602235622,
				"z": 0.513887146,
				"element": "H" 
			},
			{
				"x": 1.6915868134,
				"y": -4.4033076217,
				"z": 0.3975094086,
				"element": "H" 
			},
			{
				"x": 2.3747787711,
				"y": -4.0547100241,
				"z": -1.1785809871,
				"element": "H" 
			},
			{
				"x": 4.1334197229,
				"y": -3.4845196075,
				"z": 0.3354884658,
				"element": "H" 
			},
			{
				"x": 3.4380781768,
				"y": -1.9385369075,
				"z": -0.0951241712,
				"element": "H" 
			},
			{
				"x": 3.7498220989,
				"y": -1.8544198175,
				"z": 2.2708741218,
				"element": "H" 
			},
			{
				"x": 3.1928794432,
				"y": -3.498427695,
				"z": 2.5165623795,
				"element": "H" 
			},
			{
				"x": 0.886164645,
				"y": -2.9106125036,
				"z": 2.3638476333,
				"element": "H" 
			},
			{
				"x": 1.6267096996,
				"y": -1.6290547526,
				"z": 3.2993127595,
				"element": "H" 
			},
			{
				"x": 1.7978253194,
				"y": -0.3325109036,
				"z": 1.0111846991,
				"element": "H" 
			},
			{
				"x": 0.2424019424,
				"y": -0.4487294057,
				"z": 1.81695508,
				"element": "H" 
			}
		],
		 "valence_orbital": [ 
			{
				"type": "occ",
				"energy": -0.27146,
				"method": "rhf"
			},
			{
				"type": "occ",
				"energy": -0.26182,
				"method": "rhf"
			},
			{
				"type": "occ",
				"energy": -0.23346,
				"method": "rhf"
			},
			{
				"type": "occ",
				"energy": -0.22253,
				"method": "rhf"
			},
			{
				"type": "occ",
				"energy": -0.20355,
				"method": "rhf"
			},
			{
				"type": "unocc",
				"energy": -0.01603,
				"method": "rhf"
			},
			{
				"type": "unocc",
				"energy": 0.00968,
				"method": "rhf"
			},
			{
				"type": "unocc",
				"energy": 0.03649,
				"method": "rhf"
			},
			{
				"type": "unocc",
				"energy": 0.066,
				"method": "rhf"
			},
			{
				"type": "unocc",
				"energy": 0.07418,
				"method": "rhf"
			}
		],
		"cosmo_sigma_profile": { 
			"-0.025": 0.0,
			"-0.024": 0.0,
			"-0.023": 0.0,
			"-0.022": 0.0,
			"-0.021": 0.0,
			"-0.02": 0.0,
			"-0.019": 0.0,
			"-0.018": 0.0,
			"-0.017": 0.0,
			"-0.016": 0.0,
			"-0.015": 0.0,
			"-0.014": 0.0,
			"-0.013": 0.569186927026,
			"-0.012": 2.85880456453,
			"-0.011": 2.2235835475,
			"-0.01": 3.43492335623,
			"-0.009": 2.9648808516,
			"-0.008": 3.16853582388,
			"-0.007": 3.37088327252,
			"-0.006": 9.42459665927,
			"-0.005": 19.5132867411,
			"-0.004": 27.3201708758,
			"-0.003": 34.0884408444,
			"-0.002": 28.5922555187,
			"-0.001": 24.1749661045,
			"0.0": 16.7509888688,
			"0.001": 10.0440891227,
			"0.002": 8.50140775976,
			"0.003": 9.065389487,
			"0.004": 8.4796036849,
			"0.005": 13.1952597787,
			"0.006": 9.82380874554,
			"0.007": 3.65512954194,
			"0.008": 3.11491100834,
			"0.009": 2.49181198625,
			"0.01": 3.27264351829,
			"0.011": 2.60979700576,
			"0.012": 3.25418122267,
			"0.013": 3.20787623428,
			"0.014": 3.45568941801,
			"0.015": 3.25023222857,
			"0.016": 2.48741272761,
			"0.017": 2.14265652535,
			"0.018": 1.06126015644,
			"0.019": 0.0,
			"0.02": 0.0,
			"0.021": 0.0,
			"0.022": 0.0,
			"0.023": 0.0,
			"0.024": 0.0,
			"0.025": 0.0
		}
	}
}
