{
	 "smiles": "CN1N=C(C)C(=C1Cl)S(Cl)(=O)=O", 
	 "Tm": 308.15, 
	 "num_atms": 18, 
	 "gaussian": { 
		 "optdone": 1, 
		 "sigma_profile": "yes", 
		 "theory": "DFT", 
		 "functional": "B3LYP", 
		 "basiset": "6-31G**", 
		 "properties": { 
			 "R2extent": 3828.1874, 
			 "electric_dipole_moment_norm": 5.64087738388, 
			 "electric_quadrupole_moment_norm": 12.9143474884, 
			 "total_energy": -1772.57733371, 
			 "HOMO_LUMO_gap": 0.19151, 
			 "cosmo_polarized_energy": -10.43, 
			 "cosmo_cavitation_energy": 27.47, 
			 "cosmo_dispersion_energy": -20.28, 
			 "cosmo_repulsion_energy": 1.58, 
			 "cosmo_total_nonelectrostatic_energy": 8.77, 
			 "SMD_solvation_energy": 2.58 
		},
		"coords": [
			{
				"x": 2.4929700163,
				"y": -0.5093991801,
				"z": -0.5156797647,
				"element": "C" 
			},
			{
				"x": 1.0388380102,
				"y": -0.4448028029,
				"z": -0.4940473917,
				"element": "N" 
			},
			{
				"x": 0.3544400536,
				"y": -0.9540620237,
				"z": 0.5691085191,
				"element": "N" 
			},
			{
				"x": -0.9356868436,
				"y": -0.7784685469,
				"z": 0.3068059012,
				"element": "C" 
			},
			{
				"x": -1.9770429594,
				"y": -1.2205779199,
				"z": 1.2841362071,
				"element": "C" 
			},
			{
				"x": -1.0883689134,
				"y": -0.154804378,
				"z": -0.9665650517,
				"element": "C" 
			},
			{
				"x": 0.210271724,
				"y": 0.0473901713,
				"z": -1.4350014731,
				"element": "C" 
			},
			{
				"x": 0.7974479,
				"y": 0.7576644181,
				"z": -2.8781179014,
				"element": "Cl" 
			},
			{
				"x": -2.579023763,
				"y": 0.2926244745,
				"z": -1.7558275253,
				"element": "S" 
			},
			{
				"x": -2.8308130133,
				"y": 2.3204517608,
				"z": -1.1198245099,
				"element": "Cl" 
			},
			{
				"x": -3.6715259058,
				"y": -0.4499823276,
				"z": -1.1406160688,
				"element": "O" 
			},
			{
				"x": -2.3881716054,
				"y": 0.3488519569,
				"z": -3.1977964963,
				"element": "O" 
			},
			{
				"x": 2.8014345338,
				"y": -0.8744615397,
				"z": 0.4624010544,
				"element": "H" 
			},
			{
				"x": 2.9143902718,
				"y": 0.4821323006,
				"z": -0.6947218459,
				"element": "H" 
			},
			{
				"x": 2.8377848319,
				"y": -1.1958462989,
				"z": -1.2936178655,
				"element": "H" 
			},
			{
				"x": -2.6438736206,
				"y": -1.9633246114,
				"z": 0.8390155701,
				"element": "H" 
			},
			{
				"x": -2.6014257022,
				"y": -0.381073975,
				"z": 1.6038991074,
				"element": "H" 
			},
			{
				"x": -1.4826450149,
				"y": -1.6513114781,
				"z": 2.1567495351,
				"element": "H" 
			}
		],
		 "valence_orbital": [ 
			{
				"type": "occ",
				"energy": -0.33291,
				"method": "rhf"
			},
			{
				"type": "occ",
				"energy": -0.31727,
				"method": "rhf"
			},
			{
				"type": "occ",
				"energy": -0.31055,
				"method": "rhf"
			},
			{
				"type": "occ",
				"energy": -0.2862,
				"method": "rhf"
			},
			{
				"type": "occ",
				"energy": -0.27598,
				"method": "rhf"
			},
			{
				"type": "unocc",
				"energy": -0.08447,
				"method": "rhf"
			},
			{
				"type": "unocc",
				"energy": -0.02661,
				"method": "rhf"
			},
			{
				"type": "unocc",
				"energy": 0.0011,
				"method": "rhf"
			},
			{
				"type": "unocc",
				"energy": 0.00711,
				"method": "rhf"
			},
			{
				"type": "unocc",
				"energy": 0.06444,
				"method": "rhf"
			}
		],
		"cosmo_sigma_profile": { 
			"-0.025": 0.0,
			"-0.024": 0.0,
			"-0.023": 0.0,
			"-0.022": 0.0,
			"-0.021": 0.0,
			"-0.02": 0.0,
			"-0.019": 0.0,
			"-0.018": 0.0,
			"-0.017": 0.0,
			"-0.016": 0.0,
			"-0.015": 0.0,
			"-0.014": 0.0,
			"-0.013": 0.0,
			"-0.012": 0.0,
			"-0.011": 0.0,
			"-0.01": 0.0,
			"-0.009": 0.0,
			"-0.008": 2.82991144125,
			"-0.007": 8.3534601331,
			"-0.006": 9.50100131862,
			"-0.005": 17.2652940184,
			"-0.004": 19.8995804003,
			"-0.003": 18.0399714126,
			"-0.002": 18.959345865,
			"-0.001": 19.6247212984,
			"0.0": 15.7071783277,
			"0.001": 15.3372873149,
			"0.002": 12.7275934037,
			"0.003": 16.4346102163,
			"0.004": 13.0065968234,
			"0.005": 4.79980307932,
			"0.006": 6.79526042304,
			"0.007": 7.16613347648,
			"0.008": 9.44864793473,
			"0.009": 5.30361773917,
			"0.01": 1.03531726813,
			"0.011": 0.99562718053,
			"0.012": 0.978174861917,
			"0.013": 0.205385100106,
			"0.014": 0.0,
			"0.015": 0.0,
			"0.016": 0.0,
			"0.017": 0.0,
			"0.018": 0.0,
			"0.019": 0.0,
			"0.02": 0.0,
			"0.021": 0.0,
			"0.022": 0.0,
			"0.023": 0.0,
			"0.024": 0.0,
			"0.025": 0.0
		}
	}
}
