{
	 "smiles": "CN(C)S(=O)(=O)C1=CNN=C1", 
	 "Tm": 406.15, 
	 "num_atms": 20, 
	 "gaussian": { 
		 "optdone": 1, 
		 "sigma_profile": "yes", 
		 "theory": "DFT", 
		 "functional": "B3LYP", 
		 "basiset": "6-31G**", 
		 "properties": { 
			 "R2extent": 3131.4135, 
			 "electric_dipole_moment_norm": 5.47483245132, 
			 "electric_quadrupole_moment_norm": 22.8663550368, 
			 "total_energy": -908.740128914, 
			 "HOMO_LUMO_gap": 0.24193, 
			 "cosmo_polarized_energy": -19.23, 
			 "cosmo_cavitation_energy": 24.88, 
			 "cosmo_dispersion_energy": -18.41, 
			 "cosmo_repulsion_energy": 1.43, 
			 "cosmo_total_nonelectrostatic_energy": 7.9, 
			 "SMD_solvation_energy": 2.21 
		},
		"coords": [
			{
				"x": 1.2112402083,
				"y": -0.5438943737,
				"z": 1.2107759899,
				"element": "C" 
			},
			{
				"x": 0.436792083,
				"y": -0.1335745716,
				"z": 0.0381732775,
				"element": "N" 
			},
			{
				"x": -1.0021695674,
				"y": 0.0120337795,
				"z": 0.2702551618,
				"element": "C" 
			},
			{
				"x": 0.8791667677,
				"y": -0.8544374572,
				"z": -1.4244962182,
				"element": "S" 
			},
			{
				"x": 0.0419632204,
				"y": -0.2397263645,
				"z": -2.4536919086,
				"element": "O" 
			},
			{
				"x": 2.3419738862,
				"y": -0.8195404555,
				"z": -1.4728917728,
				"element": "O" 
			},
			{
				"x": 0.4138265499,
				"y": -2.5556651668,
				"z": -1.3213022074,
				"element": "C" 
			},
			{
				"x": 1.2357471421,
				"y": -3.6041935513,
				"z": -0.9409888589,
				"element": "C" 
			},
			{
				"x": 0.4579558762,
				"y": -4.708360338,
				"z": -0.9895427698,
				"element": "N" 
			},
			{
				"x": -0.8162362308,
				"y": -4.4600152316,
				"z": -1.3761148072,
				"element": "N" 
			},
			{
				"x": -0.8492033442,
				"y": -3.1478957239,
				"z": -1.5784143109,
				"element": "C" 
			},
			{
				"x": 0.9178672235,
				"y": -1.5364146563,
				"z": 1.5883860226,
				"element": "H" 
			},
			{
				"x": 1.041717901,
				"y": 0.1913642692,
				"z": 2.0024664699,
				"element": "H" 
			},
			{
				"x": 2.2717141563,
				"y": -0.5464025668,
				"z": 0.9605316939,
				"element": "H" 
			},
			{
				"x": -1.4792449255,
				"y": 0.3792299585,
				"z": -0.6379086525,
				"element": "H" 
			},
			{
				"x": -1.143910174,
				"y": 0.7530250339,
				"z": 1.062157832,
				"element": "H" 
			},
			{
				"x": -1.4797431196,
				"y": -0.9294204282,
				"z": 0.5844189817,
				"element": "H" 
			},
			{
				"x": 2.2828114274,
				"y": -3.6245135238,
				"z": -0.6798661771,
				"element": "H" 
			},
			{
				"x": 0.7299510663,
				"y": -5.6607909449,
				"z": -0.7970162308,
				"element": "H" 
			},
			{
				"x": -1.7542201465,
				"y": -2.666607687,
				"z": -1.9204315149,
				"element": "H" 
			}
		],
		 "valence_orbital": [ 
			{
				"type": "occ",
				"energy": -0.30488,
				"method": "rhf"
			},
			{
				"type": "occ",
				"energy": -0.29716,
				"method": "rhf"
			},
			{
				"type": "occ",
				"energy": -0.2869,
				"method": "rhf"
			},
			{
				"type": "occ",
				"energy": -0.27984,
				"method": "rhf"
			},
			{
				"type": "occ",
				"energy": -0.25461,
				"method": "rhf"
			},
			{
				"type": "unocc",
				"energy": -0.01268,
				"method": "rhf"
			},
			{
				"type": "unocc",
				"energy": 0.01461,
				"method": "rhf"
			},
			{
				"type": "unocc",
				"energy": 0.05278,
				"method": "rhf"
			},
			{
				"type": "unocc",
				"energy": 0.08328,
				"method": "rhf"
			},
			{
				"type": "unocc",
				"energy": 0.08587,
				"method": "rhf"
			}
		],
		"cosmo_sigma_profile": { 
			"-0.025": 0.0,
			"-0.024": 0.0,
			"-0.023": 0.0,
			"-0.022": 0.0,
			"-0.021": 0.0,
			"-0.02": 0.0,
			"-0.019": 0.0,
			"-0.018": 0.819594698783,
			"-0.017": 1.89861986334,
			"-0.016": 1.59240669938,
			"-0.015": 1.13565078701,
			"-0.014": 0.847268120037,
			"-0.013": 1.12441155225,
			"-0.012": 1.340782518,
			"-0.011": 2.16464481254,
			"-0.01": 2.42600400224,
			"-0.009": 2.76571377254,
			"-0.008": 2.82983126743,
			"-0.007": 3.5662528161,
			"-0.006": 8.88838504607,
			"-0.005": 10.0293444487,
			"-0.004": 17.1557489304,
			"-0.003": 23.4771426385,
			"-0.002": 19.0847745091,
			"-0.001": 7.28729600565,
			"0.0": 7.31592713006,
			"0.001": 9.02250623476,
			"0.002": 8.36884547129,
			"0.003": 5.84134227724,
			"0.004": 4.77908309706,
			"0.005": 5.30490518198,
			"0.006": 6.50916583192,
			"0.007": 5.98174204594,
			"0.008": 5.25575994708,
			"0.009": 4.66302200176,
			"0.01": 9.03659396576,
			"0.011": 9.30925024713,
			"0.012": 4.90056935011,
			"0.013": 1.28479160825,
			"0.014": 1.02640988982,
			"0.015": 0.361422075817,
			"0.016": 0.0,
			"0.017": 0.0,
			"0.018": 0.0,
			"0.019": 0.0,
			"0.02": 0.0,
			"0.021": 0.0,
			"0.022": 0.0,
			"0.023": 0.0,
			"0.024": 0.0,
			"0.025": 0.0
		}
	}
}
