{
	 "smiles": "CC1=CC=CC=C1NC(=O)C1=NC=C(N=C1)C(C)(C)C", 
	 "Tm": 354.15, 
	 "num_atms": 39, 
	 "gaussian": { 
		 "optdone": 1, 
		 "sigma_profile": "yes", 
		 "theory": "DFT", 
		 "functional": "B3LYP", 
		 "basiset": "6-31G**", 
		 "properties": { 
			 "R2extent": 7156.9673, 
			 "electric_dipole_moment_norm": 3.55735015707, 
			 "electric_quadrupole_moment_norm": 20.0396249723, 
			 "total_energy": -860.649085797, 
			 "HOMO_LUMO_gap": 0.17521, 
			 "cosmo_polarized_energy": -15.89, 
			 "cosmo_cavitation_energy": 41.86, 
			 "cosmo_dispersion_energy": -28.18, 
			 "cosmo_repulsion_energy": 2.19, 
			 "cosmo_total_nonelectrostatic_energy": 15.87, 
			 "SMD_solvation_energy": 5.53 
		},
		"coords": [
			{
				"x": -3.3309350114,
				"y": 2.701938096,
				"z": -2.8125492806,
				"element": "C" 
			},
			{
				"x": -3.5462474509,
				"y": 2.1790518717,
				"z": -1.4131299717,
				"element": "C" 
			},
			{
				"x": -4.7674955947,
				"y": 1.610160301,
				"z": -1.0362234986,
				"element": "C" 
			},
			{
				"x": -4.9774569566,
				"y": 1.1135311055,
				"z": 0.2505469179,
				"element": "C" 
			},
			{
				"x": -3.9565659495,
				"y": 1.1989674598,
				"z": 1.1966982211,
				"element": "C" 
			},
			{
				"x": -2.7377331002,
				"y": 1.7817747499,
				"z": 0.8547522263,
				"element": "C" 
			},
			{
				"x": -2.5209700257,
				"y": 2.2529239286,
				"z": -0.4468176524,
				"element": "C" 
			},
			{
				"x": -1.2855216734,
				"y": 2.85021081,
				"z": -0.8129984924,
				"element": "N" 
			},
			{
				"x": -0.0041588599,
				"y": 2.5651207258,
				"z": -0.3802842169,
				"element": "C" 
			},
			{
				"x": 0.9013295498,
				"y": 3.3733831734,
				"z": -0.511625348,
				"element": "O" 
			},
			{
				"x": 0.2641447844,
				"y": 1.178139136,
				"z": 0.1538328344,
				"element": "C" 
			},
			{
				"x": 1.0102614805,
				"y": 1.0942741356,
				"z": 1.2660229759,
				"element": "N" 
			},
			{
				"x": 1.33566418,
				"y": -0.1296167219,
				"z": 1.6741309388,
				"element": "C" 
			},
			{
				"x": 0.9566969627,
				"y": -1.2988594287,
				"z": 0.9837455143,
				"element": "C" 
			},
			{
				"x": 0.2211718542,
				"y": -1.1976493204,
				"z": -0.1308594589,
				"element": "N" 
			},
			{
				"x": -0.1287603845,
				"y": 0.0280372258,
				"z": -0.5344771691,
				"element": "C" 
			},
			{
				"x": 1.3678464547,
				"y": -2.6903838454,
				"z": 1.4759109825,
				"element": "C" 
			},
			{
				"x": 2.9124135438,
				"y": -2.7798935692,
				"z": 1.516840296,
				"element": "C" 
			},
			{
				"x": 0.8250065939,
				"y": -3.7841268564,
				"z": 0.5401647144,
				"element": "C" 
			},
			{
				"x": 0.8015913068,
				"y": -2.9151100643,
				"z": 2.8986466635,
				"element": "C" 
			},
			{
				"x": -4.163445026,
				"y": 2.4249917007,
				"z": -3.4638782329,
				"element": "H" 
			},
			{
				"x": -3.2535239439,
				"y": 3.7975296796,
				"z": -2.8352450193,
				"element": "H" 
			},
			{
				"x": -2.4068342776,
				"y": 2.3094183649,
				"z": -3.2507043732,
				"element": "H" 
			},
			{
				"x": -5.5635959134,
				"y": 1.547747379,
				"z": -1.7737185683,
				"element": "H" 
			},
			{
				"x": -5.9329141173,
				"y": 0.668876997,
				"z": 0.5119314409,
				"element": "H" 
			},
			{
				"x": -4.1106271032,
				"y": 0.8315967596,
				"z": 2.2068745447,
				"element": "H" 
			},
			{
				"x": -1.9543330008,
				"y": 1.8858013874,
				"z": 1.5978471122,
				"element": "H" 
			},
			{
				"x": -1.3266736998,
				"y": 3.7392886623,
				"z": -1.298505318,
				"element": "H" 
			},
			{
				"x": 1.9276985339,
				"y": -0.1871131194,
				"z": 2.5847314586,
				"element": "H" 
			},
			{
				"x": -0.7317297833,
				"y": 0.0942040272,
				"z": -1.4371562959,
				"element": "H" 
			},
			{
				"x": 3.3420701294,
				"y": -2.620868692,
				"z": 0.5225296011,
				"element": "H" 
			},
			{
				"x": 3.3501145075,
				"y": -2.0407299457,
				"z": 2.1951209115,
				"element": "H" 
			},
			{
				"x": 3.2206715825,
				"y": -3.772175777,
				"z": 1.863431686,
				"element": "H" 
			},
			{
				"x": 1.2052696706,
				"y": -3.6643309467,
				"z": -0.477433429,
				"element": "H" 
			},
			{
				"x": -0.2662287248,
				"y": -3.7576211432,
				"z": 0.4845948985,
				"element": "H" 
			},
			{
				"x": 1.1305893827,
				"y": -4.7679308766,
				"z": 0.9119388099,
				"element": "H" 
			},
			{
				"x": 1.1819193604,
				"y": -2.1796019495,
				"z": 3.6145508319,
				"element": "H" 
			},
			{
				"x": -0.2916840784,
				"y": -2.8550138746,
				"z": 2.9010244527,
				"element": "H" 
			},
			{
				"x": 1.0856747977,
				"y": -3.9086415458,
				"z": 3.2618382923,
				"element": "H" 
			}
		],
		 "valence_orbital": [ 
			{
				"type": "occ",
				"energy": -0.27408,
				"method": "rhf"
			},
			{
				"type": "occ",
				"energy": -0.25952,
				"method": "rhf"
			},
			{
				"type": "occ",
				"energy": -0.25195,
				"method": "rhf"
			},
			{
				"type": "occ",
				"energy": -0.24057,
				"method": "rhf"
			},
			{
				"type": "occ",
				"energy": -0.22979,
				"method": "rhf"
			},
			{
				"type": "unocc",
				"energy": -0.05458,
				"method": "rhf"
			},
			{
				"type": "unocc",
				"energy": -0.03727,
				"method": "rhf"
			},
			{
				"type": "unocc",
				"energy": -0.01203,
				"method": "rhf"
			},
			{
				"type": "unocc",
				"energy": -0.00654,
				"method": "rhf"
			},
			{
				"type": "unocc",
				"energy": 0.03717,
				"method": "rhf"
			}
		],
		"cosmo_sigma_profile": { 
			"-0.025": 0.0,
			"-0.024": 0.0,
			"-0.023": 0.0,
			"-0.022": 0.0,
			"-0.021": 0.0,
			"-0.02": 0.0,
			"-0.019": 0.0,
			"-0.018": 0.0,
			"-0.017": 0.0,
			"-0.016": 0.0,
			"-0.015": 0.0,
			"-0.014": 0.449511915229,
			"-0.013": 0.732747395935,
			"-0.012": 0.961894217498,
			"-0.011": 1.33002949557,
			"-0.01": 1.21111674078,
			"-0.009": 1.20827237908,
			"-0.008": 1.98929271831,
			"-0.007": 5.99243000007,
			"-0.006": 10.0612153616,
			"-0.005": 17.9911844781,
			"-0.004": 22.0514666012,
			"-0.003": 35.8582873962,
			"-0.002": 38.5231366199,
			"-0.001": 38.9354935395,
			"0.0": 36.4857497013,
			"0.001": 29.095199117,
			"0.002": 15.4857436706,
			"0.003": 11.4330368806,
			"0.004": 10.9099716271,
			"0.005": 11.1409537401,
			"0.006": 6.75490845524,
			"0.007": 3.76111983929,
			"0.008": 1.44040823997,
			"0.009": 2.98482309162,
			"0.01": 3.50592642863,
			"0.011": 3.67613288276,
			"0.012": 5.93988206219,
			"0.013": 6.28489747843,
			"0.014": 3.29327656093,
			"0.015": 0.739706604167,
			"0.016": 0.0,
			"0.017": 0.0,
			"0.018": 0.0,
			"0.019": 0.0,
			"0.02": 0.0,
			"0.021": 0.0,
			"0.022": 0.0,
			"0.023": 0.0,
			"0.024": 0.0,
			"0.025": 0.0
		}
	}
}
