{
	 "smiles": "CC1=C(C=C(C=C1)C(O)=O)S(=O)(=O)N1CCCCC1", 
	 "Tm": 453.15, 
	 "num_atms": 36, 
	 "gaussian": { 
		 "optdone": 1, 
		 "sigma_profile": "yes", 
		 "theory": "DFT", 
		 "functional": "B3LYP", 
		 "basiset": "6-31G**", 
		 "properties": { 
			 "R2extent": 6833.4871, 
			 "electric_dipole_moment_norm": 1.88649156902, 
			 "electric_quadrupole_moment_norm": 37.7760599043, 
			 "total_energy": -1259.41562859, 
			 "HOMO_LUMO_gap": 0.18908, 
			 "cosmo_polarized_energy": -20.67, 
			 "cosmo_cavitation_energy": 38.83, 
			 "cosmo_dispersion_energy": -27.55, 
			 "cosmo_repulsion_energy": 2.05, 
			 "cosmo_total_nonelectrostatic_energy": 13.34, 
			 "SMD_solvation_energy": 6.63 
		},
		"coords": [
			{
				"x": 2.6760547681,
				"y": -1.6454478977,
				"z": -3.2350999554,
				"element": "C" 
			},
			{
				"x": 1.1922014373,
				"y": -1.8279910953,
				"z": -3.0400758543,
				"element": "C" 
			},
			{
				"x": 0.4695550769,
				"y": -1.1910674727,
				"z": -2.0053380403,
				"element": "C" 
			},
			{
				"x": -0.8972791843,
				"y": -1.3805594316,
				"z": -1.8497430149,
				"element": "C" 
			},
			{
				"x": -1.6003553667,
				"y": -2.2289024578,
				"z": -2.7151641163,
				"element": "C" 
			},
			{
				"x": -0.9060641988,
				"y": -2.854982474,
				"z": -3.7548356549,
				"element": "C" 
			},
			{
				"x": 0.4648186918,
				"y": -2.6525418712,
				"z": -3.9064875469,
				"element": "C" 
			},
			{
				"x": -3.073951874,
				"y": -2.377333514,
				"z": -2.485278447,
				"element": "C" 
			},
			{
				"x": -3.6805193345,
				"y": -3.4502361753,
				"z": -3.0587034446,
				"element": "O" 
			},
			{
				"x": -3.7218736361,
				"y": -1.5984491397,
				"z": -1.8259800934,
				"element": "O" 
			},
			{
				"x": 1.3576108713,
				"y": -0.1047556007,
				"z": -0.8590328536,
				"element": "S" 
			},
			{
				"x": 2.2701848727,
				"y": -0.9567402048,
				"z": -0.0835011659,
				"element": "O" 
			},
			{
				"x": 1.8826425524,
				"y": 1.0137641343,
				"z": -1.6547521037,
				"element": "O" 
			},
			{
				"x": 0.1767544648,
				"y": 0.4756081052,
				"z": 0.1656714521,
				"element": "N" 
			},
			{
				"x": 0.1165886609,
				"y": -0.0244572139,
				"z": 1.5540957491,
				"element": "C" 
			},
			{
				"x": 0.824063308,
				"y": 0.925671106,
				"z": 2.5277984237,
				"element": "C" 
			},
			{
				"x": 0.2964784877,
				"y": 2.3618456612,
				"z": 2.3827851233,
				"element": "C" 
			},
			{
				"x": 0.3811017003,
				"y": 2.8384758884,
				"z": 0.9242155143,
				"element": "C" 
			},
			{
				"x": -0.3195294162,
				"y": 1.8546989106,
				"z": -0.0204326695,
				"element": "C" 
			},
			{
				"x": 3.0301618948,
				"y": -2.2403447057,
				"z": -4.0798696494,
				"element": "H" 
			},
			{
				"x": 2.9170952441,
				"y": -0.59380619,
				"z": -3.4159454592,
				"element": "H" 
			},
			{
				"x": 3.2247345584,
				"y": -1.9450838164,
				"z": -2.3371294632,
				"element": "H" 
			},
			{
				"x": -1.4381045373,
				"y": -0.8763662648,
				"z": -1.0585958047,
				"element": "H" 
			},
			{
				"x": -1.4236543461,
				"y": -3.4773367344,
				"z": -4.4811513182,
				"element": "H" 
			},
			{
				"x": 0.9886230395,
				"y": -3.1412960652,
				"z": -4.7228338694,
				"element": "H" 
			},
			{
				"x": -3.0203991007,
				"y": -4.0644330852,
				"z": -3.4080991249,
				"element": "H" 
			},
			{
				"x": 0.5564469782,
				"y": -1.0212393325,
				"z": 1.5867187258,
				"element": "H" 
			},
			{
				"x": -0.947233835,
				"y": -0.114497092,
				"z": 1.8136497447,
				"element": "H" 
			},
			{
				"x": 0.6801861614,
				"y": 0.5629004421,
				"z": 3.5526798572,
				"element": "H" 
			},
			{
				"x": 1.9007107007,
				"y": 0.8959623765,
				"z": 2.3211992661,
				"element": "H" 
			},
			{
				"x": 0.8552217835,
				"y": 3.0399090867,
				"z": 3.0373525426,
				"element": "H" 
			},
			{
				"x": -0.75099594,
				"y": 2.3981445845,
				"z": 2.7156979059,
				"element": "H" 
			},
			{
				"x": -0.0753960359,
				"y": 3.82953036,
				"z": 0.8146916908,
				"element": "H" 
			},
			{
				"x": 1.4296744967,
				"y": 2.9275047662,
				"z": 0.6159590722,
				"element": "H" 
			},
			{
				"x": -0.1780897473,
				"y": 2.1411113194,
				"z": -1.0626848765,
				"element": "H" 
			},
			{
				"x": -1.3994631964,
				"y": 1.8337410935,
				"z": 0.1799194586,
				"element": "H" 
			}
		],
		 "valence_orbital": [ 
			{
				"type": "occ",
				"energy": -0.3006,
				"method": "rhf"
			},
			{
				"type": "occ",
				"energy": -0.2825,
				"method": "rhf"
			},
			{
				"type": "occ",
				"energy": -0.27594,
				"method": "rhf"
			},
			{
				"type": "occ",
				"energy": -0.26714,
				"method": "rhf"
			},
			{
				"type": "occ",
				"energy": -0.25161,
				"method": "rhf"
			},
			{
				"type": "unocc",
				"energy": -0.06253,
				"method": "rhf"
			},
			{
				"type": "unocc",
				"energy": -0.0377,
				"method": "rhf"
			},
			{
				"type": "unocc",
				"energy": 0.03138,
				"method": "rhf"
			},
			{
				"type": "unocc",
				"energy": 0.05148,
				"method": "rhf"
			},
			{
				"type": "unocc",
				"energy": 0.05775,
				"method": "rhf"
			}
		],
		"cosmo_sigma_profile": { 
			"-0.025": 0.0,
			"-0.024": 0.0,
			"-0.023": 0.0,
			"-0.022": 0.0,
			"-0.021": 0.0,
			"-0.02": 0.0,
			"-0.019": 0.425459252129,
			"-0.018": 0.779357559116,
			"-0.017": 1.11966459637,
			"-0.016": 0.938235979268,
			"-0.015": 1.46559955945,
			"-0.014": 0.877112355634,
			"-0.013": 1.19611451144,
			"-0.012": 0.970346359761,
			"-0.011": 1.6338700861,
			"-0.01": 0.742499986551,
			"-0.009": 1.83470887661,
			"-0.008": 2.43501740218,
			"-0.007": 6.5286010014,
			"-0.006": 5.6898695178,
			"-0.005": 12.5658246455,
			"-0.004": 22.8783882702,
			"-0.003": 40.3022138946,
			"-0.002": 37.9086242336,
			"-0.001": 31.8138773867,
			"0.0": 25.8814503119,
			"0.001": 22.0970041561,
			"0.002": 12.6103772352,
			"0.003": 6.3670267764,
			"0.004": 5.73278398247,
			"0.005": 6.00845791676,
			"0.006": 5.28464626053,
			"0.007": 5.9023323954,
			"0.008": 6.00920496885,
			"0.009": 7.30072894096,
			"0.01": 11.6883080346,
			"0.011": 11.4942577581,
			"0.012": 6.30107639369,
			"0.013": 1.13478230967,
			"0.014": 0.0,
			"0.015": 0.0,
			"0.016": 0.0,
			"0.017": 0.0,
			"0.018": 0.0,
			"0.019": 0.0,
			"0.02": 0.0,
			"0.021": 0.0,
			"0.022": 0.0,
			"0.023": 0.0,
			"0.024": 0.0,
			"0.0": 0.0
		}
	}
}
