{
	 "smiles": "CCC(C)(NC(=O)C1=CC=CC=C1)C#N", 
	 "Tm": 412.15, 
	 "num_atms": 29, 
	 "gaussian": { 
		 "optdone": 1, 
		 "sigma_profile": "yes", 
		 "theory": "DFT", 
		 "functional": "B3LYP", 
		 "basiset": "6-31G**", 
		 "properties": { 
			 "R2extent": 4200.845, 
			 "electric_dipole_moment_norm": 6.51161506464, 
			 "electric_quadrupole_moment_norm": 19.880551358, 
			 "total_energy": -650.442131456, 
			 "HOMO_LUMO_gap": 0.21015, 
			 "cosmo_polarized_energy": -19.94, 
			 "cosmo_cavitation_energy": 32.69, 
			 "cosmo_dispersion_energy": -22.42, 
			 "cosmo_repulsion_energy": 1.76, 
			 "cosmo_total_nonelectrostatic_energy": 12.02, 
			 "SMD_solvation_energy": 6.81 
		},
		"coords": [
			{
				"x": 1.4766236871,
				"y": 0.4681291797,
				"z": -1.940003516,
				"element": "C" 
			},
			{
				"x": 0.1030351639,
				"y": 1.1408323792,
				"z": -1.9129178506,
				"element": "C" 
			},
			{
				"x": -0.3816278887,
				"y": 1.6983599445,
				"z": -0.5424644749,
				"element": "C" 
			},
			{
				"x": -1.7448954017,
				"y": 2.4057268102,
				"z": -0.7371919919,
				"element": "C" 
			},
			{
				"x": -0.5888817619,
				"y": 0.6498587629,
				"z": 0.4654353853,
				"element": "N" 
			},
			{
				"x": 0.3796327034,
				"y": 0.0927157731,
				"z": 1.2664589809,
				"element": "C" 
			},
			{
				"x": 1.5644875202,
				"y": 0.3900472887,
				"z": 1.1742510129,
				"element": "O" 
			},
			{
				"x": -0.1087552298,
				"y": -0.9204392469,
				"z": 2.2659138595,
				"element": "C" 
			},
			{
				"x": -1.4256704067,
				"y": -0.9694906103,
				"z": 2.7453632487,
				"element": "C" 
			},
			{
				"x": -1.7995987644,
				"y": -1.9356973092,
				"z": 3.6797081143,
				"element": "C" 
			},
			{
				"x": -0.8617978229,
				"y": -2.860456407,
				"z": 4.1424704647,
				"element": "C" 
			},
			{
				"x": 0.4556232205,
				"y": -2.8075602277,
				"z": 3.6794309964,
				"element": "C" 
			},
			{
				"x": 0.8316389351,
				"y": -1.8386543471,
				"z": 2.7523677685,
				"element": "C" 
			},
			{
				"x": 0.5696326227,
				"y": 2.7232696487,
				"z": -0.0504147416,
				"element": "C" 
			},
			{
				"x": 1.245611727,
				"y": 3.6199981254,
				"z": 0.2414614133,
				"element": "N" 
			},
			{
				"x": 1.7132065502,
				"y": 0.1656895105,
				"z": -2.9653666933,
				"element": "H" 
			},
			{
				"x": 1.50880834,
				"y": -0.4193930691,
				"z": -1.3057606159,
				"element": "H" 
			},
			{
				"x": 2.259457634,
				"y": 1.1472712211,
				"z": -1.5933013514,
				"element": "H" 
			},
			{
				"x": 0.09144372,
				"y": 1.9786415375,
				"z": -2.620704945,
				"element": "H" 
			},
			{
				"x": -0.6693953025,
				"y": 0.4367118943,
				"z": -2.2482601689,
				"element": "H" 
			},
			{
				"x": -2.1054215192,
				"y": 2.8168778463,
				"z": 0.2086800362,
				"element": "H" 
			},
			{
				"x": -1.6530601324,
				"y": 3.2191508749,
				"z": -1.4593518305,
				"element": "H" 
			},
			{
				"x": -2.4805792093,
				"y": 1.6898545903,
				"z": -1.1207282748,
				"element": "H" 
			},
			{
				"x": -1.5168762085,
				"y": 0.256323815,
				"z": 0.4954923943,
				"element": "H" 
			},
			{
				"x": -2.1578192826,
				"y": -0.2321867644,
				"z": 2.4272506235,
				"element": "H" 
			},
			{
				"x": -2.8191382572,
				"y": -1.9590927151,
				"z": 4.0531492108,
				"element": "H" 
			},
			{
				"x": -1.1543138891,
				"y": -3.6134072599,
				"z": 4.8685993431,
				"element": "H" 
			},
			{
				"x": 1.1896993417,
				"y": -3.5197057057,
				"z": 4.0447499685,
				"element": "H" 
			},
			{
				"x": 1.851929911,
				"y": -1.76867554,
				"z": 2.390883634,
				"element": "H" 
			}
		],
		 "valence_orbital": [ 
			{
				"type": "occ",
				"energy": -0.31771,
				"method": "rhf"
			},
			{
				"type": "occ",
				"energy": -0.2702,
				"method": "rhf"
			},
			{
				"type": "occ",
				"energy": -0.26496,
				"method": "rhf"
			},
			{
				"type": "occ",
				"energy": -0.26368,
				"method": "rhf"
			},
			{
				"type": "occ",
				"energy": -0.25288,
				"method": "rhf"
			},
			{
				"type": "unocc",
				"energy": -0.04273,
				"method": "rhf"
			},
			{
				"type": "unocc",
				"energy": -0.01556,
				"method": "rhf"
			},
			{
				"type": "unocc",
				"energy": 0.03448,
				"method": "rhf"
			},
			{
				"type": "unocc",
				"energy": 0.04285,
				"method": "rhf"
			},
			{
				"type": "unocc",
				"energy": 0.0509,
				"method": "rhf"
			}
		],
		"cosmo_sigma_profile": { 
			"-0.025": 0.0,
			"-0.024": 0.0,
			"-0.023": 0.0,
			"-0.022": 0.0,
			"-0.021": 0.0,
			"-0.02": 0.0,
			"-0.019": 0.0,
			"-0.018": 0.0,
			"-0.017": 0.0,
			"-0.016": 0.0,
			"-0.015": 0.208595002931,
			"-0.014": 1.07159951435,
			"-0.013": 1.25577273367,
			"-0.012": 1.34962669327,
			"-0.011": 1.68901297623,
			"-0.01": 1.64498058716,
			"-0.009": 1.32743820752,
			"-0.008": 2.4808328789,
			"-0.007": 5.08128025454,
			"-0.006": 13.8077579024,
			"-0.005": 20.446890296,
			"-0.004": 22.1632392144,
			"-0.003": 20.5158977676,
			"-0.002": 25.831658026,
			"-0.001": 24.2614697736,
			"0.0": 16.7152128954,
			"0.001": 13.9365174107,
			"0.002": 12.0488806843,
			"0.003": 11.7745942425,
			"0.004": 14.8865961563,
			"0.005": 6.96354765,
			"0.006": 3.49850372703,
			"0.007": 3.81968629168,
			"0.008": 4.55960205227,
			"0.009": 4.70214158211,
			"0.01": 6.54822866096,
			"0.011": 5.04763785687,
			"0.012": 4.75342884927,
			"0.013": 5.56249283926,
			"0.014": 1.20809841097,
			"0.015": 0.0,
			"0.016": 0.0,
			"0.017": 0.0,
			"0.018": 0.0,
			"0.019": 0.0,
			"0.02": 0.0,
			"0.021": 0.0,
			"0.022": 0.0,
			"0.023": 0.0,
			"0.024": 0.0,
			"0.025": 0.0
		}
	}
}
