{
	 "smiles": "NC1=C(C=CC(=C1)S(=O)(=O)N1CCOCC1)N1CCOCC1", 
	 "Tm": 484.15, 
	 "num_atms": 43, 
	 "gaussian": { 
		 "optdone": 1, 
		 "sigma_profile": "yes", 
		 "theory": "DFT", 
		 "functional": "B3LYP", 
		 "basiset": "6-31G**", 
		 "properties": { 
			 "R2extent": 10396.4553, 
			 "electric_dipole_moment_norm": 5.1717357067, 
			 "electric_quadrupole_moment_norm": 20.626582468, 
			 "total_energy": -1409.36938789, 
			 "HOMO_LUMO_gap": 0.17934, 
			 "cosmo_polarized_energy": -21.49, 
			 "cosmo_cavitation_energy": 44.28, 
			 "cosmo_dispersion_energy": -31.98, 
			 "cosmo_repulsion_energy": 2.41, 
			 "cosmo_total_nonelectrostatic_energy": 14.71, 
			 "SMD_solvation_energy": 4.88 
		},
		"coords": [
			{
				"x": -2.6877286545,
				"y": 0.08920323,
				"z": -1.4373492185,
				"element": "N" 
			},
			{
				"x": -1.3561788495,
				"y": -0.124712528,
				"z": -1.0961375502,
				"element": "C" 
			},
			{
				"x": -1.0416034339,
				"y": -1.1128557252,
				"z": -0.1258640274,
				"element": "C" 
			},
			{
				"x": 0.3004759022,
				"y": -1.3464664062,
				"z": 0.2019425448,
				"element": "C" 
			},
			{
				"x": 1.3346798166,
				"y": -0.6284126694,
				"z": -0.3943082277,
				"element": "C" 
			},
			{
				"x": 1.0047881677,
				"y": 0.3344549421,
				"z": -1.3488158992,
				"element": "C" 
			},
			{
				"x": -0.3169571371,
				"y": 0.5906658624,
				"z": -1.7066809792,
				"element": "C" 
			},
			{
				"x": 2.3096552459,
				"y": 1.2368284857,
				"z": -2.1808603386,
				"element": "S" 
			},
			{
				"x": 3.3598317617,
				"y": 0.302970056,
				"z": -2.6013342816,
				"element": "O" 
			},
			{
				"x": 1.6784180191,
				"y": 2.1338014147,
				"z": -3.1619301344,
				"element": "O" 
			},
			{
				"x": 2.9793195124,
				"y": 2.1254125657,
				"z": -0.8853225711,
				"element": "N" 
			},
			{
				"x": 4.3964614847,
				"y": 2.5011357178,
				"z": -1.0709364314,
				"element": "C" 
			},
			{
				"x": 4.9061221506,
				"y": 3.0637080131,
				"z": 0.2541708046,
				"element": "C" 
			},
			{
				"x": 4.1293142749,
				"y": 4.1746836959,
				"z": 0.6817338384,
				"element": "O" 
			},
			{
				"x": 2.7688648697,
				"y": 3.8100412647,
				"z": 0.8544079988,
				"element": "C" 
			},
			{
				"x": 2.1640219619,
				"y": 3.2708289363,
				"z": -0.4424096912,
				"element": "C" 
			},
			{
				"x": -2.1327046403,
				"y": -1.8220732279,
				"z": 0.4520064423,
				"element": "N" 
			},
			{
				"x": -2.6766856139,
				"y": -2.8885467751,
				"z": -0.4204104497,
				"element": "C" 
			},
			{
				"x": -3.7115169689,
				"y": -3.6992566436,
				"z": 0.3479783938,
				"element": "C" 
			},
			{
				"x": -3.1570171195,
				"y": -4.3739258952,
				"z": 1.4774862323,
				"element": "O" 
			},
			{
				"x": -2.0005227687,
				"y": -3.7497012962,
				"z": 2.0281190285,
				"element": "C" 
			},
			{
				"x": -2.0404320159,
				"y": -2.2309433799,
				"z": 1.8677051477,
				"element": "C" 
			},
			{
				"x": -2.8850024131,
				"y": 0.9866934408,
				"z": -1.8584852482,
				"element": "H" 
			},
			{
				"x": -3.3209666115,
				"y": -0.1498012689,
				"z": -0.6818149496,
				"element": "H" 
			},
			{
				"x": 0.5430169676,
				"y": -2.1147453615,
				"z": 0.9297164059,
				"element": "H" 
			},
			{
				"x": 2.3701463058,
				"y": -0.8238189434,
				"z": -0.1418338673,
				"element": "H" 
			},
			{
				"x": -0.5294774374,
				"y": 1.3488798983,
				"z": -2.4535294123,
				"element": "H" 
			},
			{
				"x": 4.9599613575,
				"y": 1.6113554287,
				"z": -1.3569400225,
				"element": "H" 
			},
			{
				"x": 4.5094360916,
				"y": 3.2602410045,
				"z": -1.8596988741,
				"element": "H" 
			},
			{
				"x": 4.8923686379,
				"y": 2.2706172837,
				"z": 1.0190086981,
				"element": "H" 
			},
			{
				"x": 5.9320099216,
				"y": 3.4251101003,
				"z": 0.1397434709,
				"element": "H" 
			},
			{
				"x": 2.6730282273,
				"y": 3.0488888384,
				"z": 1.645668594,
				"element": "H" 
			},
			{
				"x": 2.2391836726,
				"y": 4.7137444753,
				"z": 1.1694925259,
				"element": "H" 
			},
			{
				"x": 1.1392644558,
				"y": 2.9328797156,
				"z": -0.2596116914,
				"element": "H" 
			},
			{
				"x": 2.1392111703,
				"y": 4.0605378199,
				"z": -1.2064526993,
				"element": "H" 
			},
			{
				"x": -1.8789630297,
				"y": -3.5609112844,
				"z": -0.7744180498,
				"element": "H" 
			},
			{
				"x": -3.1343037567,
				"y": -2.4343355576,
				"z": -1.3056325296,
				"element": "H" 
			},
			{
				"x": -4.1408108927,
				"y": -4.4675528439,
				"z": -0.3034505331,
				"element": "H" 
			},
			{
				"x": -4.5305360315,
				"y": -3.0364464952,
				"z": 0.6696271118,
				"element": "H" 
			},
			{
				"x": -1.0887878681,
				"y": -4.1542078691,
				"z": 1.560157716,
				"element": "H" 
			},
			{
				"x": -1.9736900263,
				"y": -4.0177102485,
				"z": 3.089892723,
				"element": "H" 
			},
			{
				"x": -2.9157797008,
				"y": -1.8471307911,
				"z": 2.4096250907,
				"element": "H" 
			},
			{
				"x": -1.1598150053,
				"y": -1.7779269795,
				"z": 2.3303449099,
				"element": "H" 
			}
		],
		 "valence_orbital": [ 
			{
				"type": "occ",
				"energy": -0.26761,
				"method": "rhf"
			},
			{
				"type": "occ",
				"energy": -0.25615,
				"method": "rhf"
			},
			{
				"type": "occ",
				"energy": -0.24624,
				"method": "rhf"
			},
			{
				"type": "occ",
				"energy": -0.23422,
				"method": "rhf"
			},
			{
				"type": "occ",
				"energy": -0.21012,
				"method": "rhf"
			},
			{
				"type": "unocc",
				"energy": -0.03078,
				"method": "rhf"
			},
			{
				"type": "unocc",
				"energy": -0.006,
				"method": "rhf"
			},
			{
				"type": "unocc",
				"energy": 0.06011,
				"method": "rhf"
			},
			{
				"type": "unocc",
				"energy": 0.06734,
				"method": "rhf"
			},
			{
				"type": "unocc",
				"energy": 0.07906,
				"method": "rhf"
			}
		],
		"cosmo_sigma_profile": { 
			"-0.025": 0.0,
			"-0.024": 0.0,
			"-0.023": 0.0,
			"-0.022": 0.0,
			"-0.021": 0.0,
			"-0.02": 0.0,
			"-0.019": 0.0,
			"-0.018": 0.0,
			"-0.017": 0.0,
			"-0.016": 0.0,
			"-0.015": 0.0,
			"-0.014": 0.0,
			"-0.013": 0.699458472299,
			"-0.012": 1.55571262561,
			"-0.011": 1.80552511109,
			"-0.01": 2.22641839041,
			"-0.009": 2.69170821588,
			"-0.008": 2.67272194198,
			"-0.007": 4.89451635033,
			"-0.006": 15.4079638169,
			"-0.005": 28.3542044352,
			"-0.004": 46.9136779415,
			"-0.003": 41.0987652501,
			"-0.002": 29.345748072,
			"-0.001": 20.336900545,
			"0.0": 15.6404720181,
			"0.001": 16.5255241512,
			"0.002": 16.9032615841,
			"0.003": 17.1734652477,
			"0.004": 15.3304860512,
			"0.005": 7.46145495513,
			"0.006": 7.14802179929,
			"0.007": 6.72107589023,
			"0.008": 6.46774521073,
			"0.009": 6.08249622756,
			"0.01": 8.82800344785,
			"0.011": 11.1913702401,
			"0.012": 9.20479646232,
			"0.013": 3.10113272287,
			"0.014": 1.03185222643,
			"0.015": 0.0,
			"0.016": 0.0,
			"0.017": 0.0,
			"0.018": 0.0,
			"0.019": 0.0,
			"0.02": 0.0,
			"0.021": 0.0,
			"0.022": 0.0,
			"0.023": 0.0,
			"0.024": 0.0,
			"0.025": 0.0
		}
	}
}
