{
	 "smiles": "CN(C)C(=S)NC1=C(C)C=C(Cl)C=C1", 
	 "Tm": 448.15, 
	 "num_atms": 27, 
	 "gaussian": { 
		 "optdone": 1, 
		 "sigma_profile": "yes", 
		 "theory": "DFT", 
		 "functional": "B3LYP", 
		 "basiset": "6-31G**", 
		 "properties": { 
			 "R2extent": 5416.2063, 
			 "electric_dipole_moment_norm": 6.60788078812, 
			 "electric_quadrupole_moment_norm": 10.419394588, 
			 "total_energy": -1356.79250504, 
			 "HOMO_LUMO_gap": 0.1746, 
			 "cosmo_polarized_energy": -18.07, 
			 "cosmo_cavitation_energy": 33.13, 
			 "cosmo_dispersion_energy": -23.97, 
			 "cosmo_repulsion_energy": 1.86, 
			 "cosmo_total_nonelectrostatic_energy": 11.02, 
			 "SMD_solvation_energy": 4.55 
		},
		"coords": [
			{
				"x": -0.6552113351,
				"y": 1.8323722488,
				"z": 3.2165760027,
				"element": "C" 
			},
			{
				"x": 0.0215780853,
				"y": 1.3191000059,
				"z": 2.0300437215,
				"element": "N" 
			},
			{
				"x": 1.4786892667,
				"y": 1.2717039556,
				"z": 2.1069221361,
				"element": "C" 
			},
			{
				"x": -0.6792431148,
				"y": 0.8559548572,
				"z": 0.9477595489,
				"element": "C" 
			},
			{
				"x": -2.3451186333,
				"y": 0.6168256026,
				"z": 0.9523951483,
				"element": "S" 
			},
			{
				"x": 0.1214426494,
				"y": 0.6168013108,
				"z": -0.1545727752,
				"element": "N" 
			},
			{
				"x": -0.2267363597,
				"y": -0.0030093833,
				"z": -1.380749778,
				"element": "C" 
			},
			{
				"x": 0.2422938183,
				"y": 0.5712041427,
				"z": -2.5796725799,
				"element": "C" 
			},
			{
				"x": 1.0223287309,
				"y": 1.8652173166,
				"z": -2.5799886822,
				"element": "C" 
			},
			{
				"x": -0.0324863166,
				"y": -0.0800032701,
				"z": -3.7873326075,
				"element": "C" 
			},
			{
				"x": -0.7647240573,
				"y": -1.2632524781,
				"z": -3.8020421945,
				"element": "C" 
			},
			{
				"x": -1.1022534477,
				"y": -2.0511559968,
				"z": -5.3385710755,
				"element": "Cl" 
			},
			{
				"x": -1.2313541687,
				"y": -1.8302309392,
				"z": -2.6180102267,
				"element": "C" 
			},
			{
				"x": -0.9510724526,
				"y": -1.2003787702,
				"z": -1.4095576102,
				"element": "C" 
			},
			{
				"x": -0.1601566255,
				"y": 2.7526661006,
				"z": 3.5449651661,
				"element": "H" 
			},
			{
				"x": -0.6228136455,
				"y": 1.101356591,
				"z": 4.0343571242,
				"element": "H" 
			},
			{
				"x": -1.696159687,
				"y": 2.037642029,
				"z": 2.9757496767,
				"element": "H" 
			},
			{
				"x": 1.9582605574,
				"y": 2.1519566021,
				"z": 1.6520961467,
				"element": "H" 
			},
			{
				"x": 1.7732674079,
				"y": 1.2442566539,
				"z": 3.1582126335,
				"element": "H" 
			},
			{
				"x": 1.8646063755,
				"y": 0.3679824813,
				"z": 1.6278959384,
				"element": "H" 
			},
			{
				"x": 0.9929617029,
				"y": 1.125240601,
				"z": -0.1843253489,
				"element": "H" 
			},
			{
				"x": 0.4965727052,
				"y": 2.6508620142,
				"z": -2.0257925047,
				"element": "H" 
			},
			{
				"x": 1.178714581,
				"y": 2.2226994421,
				"z": -3.6002910925,
				"element": "H" 
			},
			{
				"x": 2.0181562413,
				"y": 1.7525521139,
				"z": -2.1279287084,
				"element": "H" 
			},
			{
				"x": 0.3185458069,
				"y": 0.3474927656,
				"z": -4.7206083582,
				"element": "H" 
			},
			{
				"x": -1.7974228653,
				"y": -2.7544947275,
				"z": -2.6378754788,
				"element": "H" 
			},
			{
				"x": -1.3021652197,
				"y": -1.6318612699,
				"z": -0.4812542217,
				"element": "H" 
			}
		],
		 "valence_orbital": [ 
			{
				"type": "occ",
				"energy": -0.27999,
				"method": "rhf"
			},
			{
				"type": "occ",
				"energy": -0.25596,
				"method": "rhf"
			},
			{
				"type": "occ",
				"energy": -0.22669,
				"method": "rhf"
			},
			{
				"type": "occ",
				"energy": -0.20848,
				"method": "rhf"
			},
			{
				"type": "occ",
				"energy": -0.1998,
				"method": "rhf"
			},
			{
				"type": "unocc",
				"energy": -0.0252,
				"method": "rhf"
			},
			{
				"type": "unocc",
				"energy": -0.00824,
				"method": "rhf"
			},
			{
				"type": "unocc",
				"energy": 0.01516,
				"method": "rhf"
			},
			{
				"type": "unocc",
				"energy": 0.03472,
				"method": "rhf"
			},
			{
				"type": "unocc",
				"energy": 0.05166,
				"method": "rhf"
			}
		],
		"cosmo_sigma_profile": { 
			"-0.025": 0.0,
			"-0.024": 0.0,
			"-0.023": 0.0,
			"-0.022": 0.0,
			"-0.021": 0.0,
			"-0.02": 0.0,
			"-0.019": 0.0,
			"-0.018": 0.0,
			"-0.017": 0.0,
			"-0.016": 0.0,
			"-0.015": 0.0,
			"-0.014": 0.00285157636557,
			"-0.013": 1.10127671671,
			"-0.012": 1.83216181844,
			"-0.011": 1.52111741996,
			"-0.01": 1.35382270103,
			"-0.009": 2.23763469626,
			"-0.008": 1.98322525956,
			"-0.007": 5.96984559089,
			"-0.006": 14.8172880125,
			"-0.005": 22.7088709201,
			"-0.004": 22.8844404284,
			"-0.003": 22.3444078417,
			"-0.002": 19.8300092507,
			"-0.001": 18.1844617485,
			"0.0": 15.4616786796,
			"0.001": 13.8118101699,
			"0.002": 17.0177273158,
			"0.003": 16.2319491507,
			"0.004": 19.3850827603,
			"0.005": 13.546095762,
			"0.006": 5.35111267193,
			"0.007": 4.48023949346,
			"0.008": 5.06029110295,
			"0.009": 5.23344656426,
			"0.01": 5.65651860565,
			"0.011": 4.52818272405,
			"0.012": 3.92825265993,
			"0.013": 1.02449149529,
			"0.014": 0.0,
			"0.015": 0.0,
			"0.016": 0.0,
			"0.017": 0.0,
			"0.018": 0.0,
			"0.019": 0.0,
			"0.02": 0.0,
			"0.021": 0.0,
			"0.022": 0.0,
			"0.023": 0.0,
			"0.024": 0.0,
			"0.025": 0.0
		}
	}
}
