{
	 "smiles": "[O-][N+](=O)C1=CC=CC2=C1C1=CC=CC3=C(C=CC2=C13)[N+]([O-])=O", 
	 "Tm": 476.65, 
	 "num_atms": 30, 
	 "gaussian": { 
		 "optdone": 1, 
		 "sigma_profile": "yes", 
		 "theory": "DFT", 
		 "functional": "B3LYP", 
		 "basiset": "6-31G**", 
		 "properties": { 
			 "R2extent": 7325.7142, 
			 "electric_dipole_moment_norm": 4.3156981521, 
			 "electric_quadrupole_moment_norm": 31.4295655544, 
			 "total_energy": -1024.73505712, 
			 "HOMO_LUMO_gap": 0.13146, 
			 "cosmo_polarized_energy": -13.09, 
			 "cosmo_cavitation_energy": 35.15, 
			 "cosmo_dispersion_energy": -26.11, 
			 "cosmo_repulsion_energy": 1.88, 
			 "cosmo_total_nonelectrostatic_energy": 10.92, 
			 "SMD_solvation_energy": 9.18 
		},
		"coords": [
			{
				"x": -1.1780810329,
				"y": -2.506084306,
				"z": -3.3564089616,
				"element": "O" 
			},
			{
				"x": -1.1269613439,
				"y": -1.5466397885,
				"z": -2.5886390299,
				"element": "N" 
			},
			{
				"x": -0.8741945507,
				"y": -0.3929087194,
				"z": -2.9364295173,
				"element": "O" 
			},
			{
				"x": -1.4210211637,
				"y": -1.7926138422,
				"z": -1.1693233077,
				"element": "C" 
			},
			{
				"x": -2.1974546674,
				"y": -2.9291330614,
				"z": -0.9013825265,
				"element": "C" 
			},
			{
				"x": -2.5743320336,
				"y": -3.2386059508,
				"z": 0.3997448359,
				"element": "C" 
			},
			{
				"x": -2.1613479666,
				"y": -2.422241211,
				"z": 1.4571161435,
				"element": "C" 
			},
			{
				"x": -1.3742994398,
				"y": -1.3092471858,
				"z": 1.1894021743,
				"element": "C" 
			},
			{
				"x": -0.9797614121,
				"y": -0.9497618791,
				"z": -0.1397121308,
				"element": "C" 
			},
			{
				"x": -0.1223290964,
				"y": 0.2595381025,
				"z": -0.0376801916,
				"element": "C" 
			},
			{
				"x": 0.5844455978,
				"y": 1.0538274887,
				"z": -0.9216333686,
				"element": "C" 
			},
			{
				"x": 1.336827483,
				"y": 2.1412116317,
				"z": -0.4068868582,
				"element": "C" 
			},
			{
				"x": 1.392721767,
				"y": 2.4612075258,
				"z": 0.9368369498,
				"element": "C" 
			},
			{
				"x": 0.6777508962,
				"y": 1.6675692872,
				"z": 1.8823432722,
				"element": "C" 
			},
			{
				"x": 0.5978786452,
				"y": 1.7792018877,
				"z": 3.3098396636,
				"element": "C" 
			},
			{
				"x": -0.1310447396,
				"y": 0.8808648698,
				"z": 4.0755806173,
				"element": "C" 
			},
			{
				"x": -0.840311822,
				"y": -0.1913345958,
				"z": 3.4953541779,
				"element": "C" 
			},
			{
				"x": -0.7961517753,
				"y": -0.3373697341,
				"z": 2.1234323108,
				"element": "C" 
			},
			{
				"x": -0.0504131197,
				"y": 0.5825585823,
				"z": 1.3480757513,
				"element": "C" 
			},
			{
				"x": 1.2799867519,
				"y": 2.8527364869,
				"z": 4.0531593992,
				"element": "N" 
			},
			{
				"x": 1.7798045237,
				"y": 3.779859725,
				"z": 3.4137366964,
				"element": "O" 
			},
			{
				"x": 1.3088968774,
				"y": 2.7738418665,
				"z": 5.2815700222,
				"element": "O" 
			},
			{
				"x": -2.4966730832,
				"y": -3.5503972196,
				"z": -1.735765235,
				"element": "H" 
			},
			{
				"x": -3.18722013,
				"y": -4.1135640612,
				"z": 0.5887508963,
				"element": "H" 
			},
			{
				"x": -2.4471401158,
				"y": -2.659799082,
				"z": 2.4776072159,
				"element": "H" 
			},
			{
				"x": 0.5722297486,
				"y": 0.8676189481,
				"z": -1.9856403423,
				"element": "H" 
			},
			{
				"x": 1.8905690849,
				"y": 2.7570687844,
				"z": -1.109293602,
				"element": "H" 
			},
			{
				"x": 1.9722159334,
				"y": 3.3075592607,
				"z": 1.2734541025,
				"element": "H" 
			},
			{
				"x": -0.1396375711,
				"y": 1.0252129025,
				"z": 5.1483306493,
				"element": "H" 
			},
			{
				"x": -1.3973522454,
				"y": -0.8703767126,
				"z": 4.133260193,
				"element": "H" 
			}
		],
		 "valence_orbital": [ 
			{
				"type": "occ",
				"energy": -0.29343,
				"method": "rhf"
			},
			{
				"type": "occ",
				"energy": -0.2927,
				"method": "rhf"
			},
			{
				"type": "occ",
				"energy": -0.27575,
				"method": "rhf"
			},
			{
				"type": "occ",
				"energy": -0.25605,
				"method": "rhf"
			},
			{
				"type": "occ",
				"energy": -0.24804,
				"method": "rhf"
			},
			{
				"type": "unocc",
				"energy": -0.11658,
				"method": "rhf"
			},
			{
				"type": "unocc",
				"energy": -0.09875,
				"method": "rhf"
			},
			{
				"type": "unocc",
				"energy": -0.06233,
				"method": "rhf"
			},
			{
				"type": "unocc",
				"energy": -0.03983,
				"method": "rhf"
			},
			{
				"type": "unocc",
				"energy": -0.01992,
				"method": "rhf"
			}
		],
		"cosmo_sigma_profile": { 
			"-0.025": 0.0,
			"-0.024": 0.0,
			"-0.023": 0.0,
			"-0.022": 0.0,
			"-0.021": 0.0,
			"-0.02": 0.0,
			"-0.019": 0.0,
			"-0.018": 0.0,
			"-0.017": 0.0,
			"-0.016": 0.0,
			"-0.015": 0.0,
			"-0.014": 0.0,
			"-0.013": 0.0,
			"-0.012": 0.0,
			"-0.011": 0.0,
			"-0.01": 0.0,
			"-0.009": 1.26591338243,
			"-0.008": 7.89188694475,
			"-0.007": 13.4967162949,
			"-0.006": 16.2258087674,
			"-0.005": 16.2017980878,
			"-0.004": 15.3966805483,
			"-0.003": 16.1363063133,
			"-0.002": 16.2914940282,
			"-0.001": 25.7013565308,
			"0.0": 35.960157407,
			"0.001": 31.5771721825,
			"0.002": 21.7925907439,
			"0.003": 9.23265747144,
			"0.004": 6.50076113433,
			"0.005": 5.69487828742,
			"0.006": 8.4529194648,
			"0.007": 12.9848613944,
			"0.008": 11.5793565445,
			"0.009": 8.09691059501,
			"0.01": 4.76588586611,
			"0.011": 0.201402335611,
			"0.012": 0.0,
			"0.013": 0.0,
			"0.014": 0.0,
			"0.015": 0.0,
			"0.016": 0.0,
			"0.017": 0.0,
			"0.018": 0.0,
			"0.019": 0.0,
			"0.02": 0.0,
			"0.021": 0.0,
			"0.022": 0.0,
			"0.023": 0.0,
			"0.024": 0.0,
			"0.025": 0.0
		}
	}
}
