{
	 "smiles": "C1CSCS1", 
	 "Tm": 223.15, 
	 "num_atms": 11, 
	 "gaussian": { 
		 "optdone": 1, 
		 "sigma_profile": "yes", 
		 "theory": "DFT", 
		 "functional": "B3LYP", 
		 "basiset": "6-31G**", 
		 "properties": { 
			 "R2extent": 919.978, 
			 "electric_dipole_moment_norm": 1.13328533918, 
			 "electric_quadrupole_moment_norm": 6.45096685002, 
			 "total_energy": -914.306997976, 
			 "HOMO_LUMO_gap": 0.22138, 
			 "cosmo_polarized_energy": -5.48, 
			 "cosmo_cavitation_energy": 16.27, 
			 "cosmo_dispersion_energy": -13.85, 
			 "cosmo_repulsion_energy": 1.1, 
			 "cosmo_total_nonelectrostatic_energy": 3.52, 
			 "SMD_solvation_energy": 1.86 
		},
		"coords": [
			{
				"x": -0.392030816,
				"y": 0.2075933452,
				"z": 1.2019514683,
				"element": "C" 
			},
			{
				"x": -1.4730201632,
				"y": -0.8599911842,
				"z": 1.3280666066,
				"element": "C" 
			},
			{
				"x": -0.6876213768,
				"y": -2.4893898137,
				"z": 1.0210236086,
				"element": "S" 
			},
			{
				"x": 0.4500257995,
				"y": -1.9135517139,
				"z": -0.3125927877,
				"element": "C" 
			},
			{
				"x": 0.4852385849,
				"y": -0.0701626759,
				"z": -0.3853866794,
				"element": "S" 
			},
			{
				"x": -0.8231203324,
				"y": 1.2123949155,
				"z": 1.1534678252,
				"element": "H" 
			},
			{
				"x": 0.3083534354,
				"y": 0.1591383511,
				"z": 2.0395228699,
				"element": "H" 
			},
			{
				"x": -2.2831930027,
				"y": -0.6855891374,
				"z": 0.6155942867,
				"element": "H" 
			},
			{
				"x": -1.8877258586,
				"y": -0.8944830055,
				"z": 2.340316089,
				"element": "H" 
			},
			{
				"x": 0.1193774593,
				"y": -2.2756237778,
				"z": -1.2877098566,
				"element": "H" 
			},
			{
				"x": 1.4423162706,
				"y": -2.3121353034,
				"z": -0.0940534305,
				"element": "H" 
			}
		],
		 "valence_orbital": [ 
			{
				"type": "occ",
				"energy": -0.37439,
				"method": "rhf"
			},
			{
				"type": "occ",
				"energy": -0.34636,
				"method": "rhf"
			},
			{
				"type": "occ",
				"energy": -0.30513,
				"method": "rhf"
			},
			{
				"type": "occ",
				"energy": -0.23533,
				"method": "rhf"
			},
			{
				"type": "occ",
				"energy": -0.22522,
				"method": "rhf"
			},
			{
				"type": "unocc",
				"energy": -0.00384,
				"method": "rhf"
			},
			{
				"type": "unocc",
				"energy": 0.06054,
				"method": "rhf"
			},
			{
				"type": "unocc",
				"energy": 0.06542,
				"method": "rhf"
			},
			{
				"type": "unocc",
				"energy": 0.06788,
				"method": "rhf"
			},
			{
				"type": "unocc",
				"energy": 0.10231,
				"method": "rhf"
			}
		],
		"cosmo_sigma_profile": { 
			"-0.025": 0.0,
			"-0.024": 0.0,
			"-0.023": 0.0,
			"-0.022": 0.0,
			"-0.021": 0.0,
			"-0.02": 0.0,
			"-0.019": 0.0,
			"-0.018": 0.0,
			"-0.017": 0.0,
			"-0.016": 0.0,
			"-0.015": 0.0,
			"-0.014": 0.0,
			"-0.013": 0.0,
			"-0.012": 0.0,
			"-0.011": 0.0,
			"-0.01": 0.0,
			"-0.009": 0.0,
			"-0.008": 0.0,
			"-0.007": 3.88419332726,
			"-0.006": 9.82194899609,
			"-0.005": 12.7264777797,
			"-0.004": 14.4459201664,
			"-0.003": 16.2291154565,
			"-0.002": 9.08457412496,
			"-0.001": 6.57075065744,
			"0.0": 6.67137696729,
			"0.001": 4.9854057283,
			"0.002": 5.87328478957,
			"0.003": 6.18151943419,
			"0.004": 5.04363358212,
			"0.005": 7.1498316442,
			"0.006": 6.00964442545,
			"0.007": 4.64239036787,
			"0.008": 4.17084103069,
			"0.009": 4.38796394291,
			"0.01": 3.32778529547,
			"0.011": 1.12341734625,
			"0.012": 0.0182183183572,
			"0.013": 0.0,
			"0.014": 0.0,
			"0.015": 0.0,
			"0.016": 0.0,
			"0.017": 0.0,
			"0.018": 0.0,
			"0.019": 0.0,
			"0.02": 0.0,
			"0.021": 0.0,
			"0.022": 0.0,
			"0.023": 0.0,
			"0.024": 0.0,
			"0.025": 0.0
		}
	}
}
