{
	 "smiles": "COC(C)C1=NC(CC(O)=O)=CS1", 
	 "Tm": 428.15, 
	 "num_atms": 24, 
	 "gaussian": { 
		 "optdone": 1, 
		 "sigma_profile": "yes", 
		 "theory": "DFT", 
		 "functional": "B3LYP", 
		 "basiset": "6-31G**", 
		 "properties": { 
			 "R2extent": 3476.5781, 
			 "electric_dipole_moment_norm": 1.5276018984, 
			 "electric_quadrupole_moment_norm": 14.8621539354, 
			 "total_energy": -990.08512861, 
			 "HOMO_LUMO_gap": 0.21032, 
			 "cosmo_polarized_energy": -13.64, 
			 "cosmo_cavitation_energy": 29.76, 
			 "cosmo_dispersion_energy": -21.4, 
			 "cosmo_repulsion_energy": 1.71, 
			 "cosmo_total_nonelectrostatic_energy": 10.07, 
			 "SMD_solvation_energy": 5.39 
		},
		"coords": [
			{
				"x": 0.7649700959,
				"y": -1.3526803052,
				"z": -3.0554056106,
				"element": "C" 
			},
			{
				"x": 1.8610507013,
				"y": -0.8971058639,
				"z": -2.2733357199,
				"element": "O" 
			},
			{
				"x": 1.6917486254,
				"y": -0.9675091579,
				"z": -0.8592298997,
				"element": "C" 
			},
			{
				"x": 1.2754992243,
				"y": -2.3397645714,
				"z": -0.3269348196,
				"element": "C" 
			},
			{
				"x": 0.7717643995,
				"y": 0.1372712931,
				"z": -0.3733017121,
				"element": "C" 
			},
			{
				"x": 0.022020468,
				"y": 0.0803303796,
				"z": 0.686835448,
				"element": "N" 
			},
			{
				"x": -0.6384351966,
				"y": 1.2738519506,
				"z": 0.9093199979,
				"element": "C" 
			},
			{
				"x": -1.5641319114,
				"y": 1.3783095005,
				"z": 2.0899484364,
				"element": "C" 
			},
			{
				"x": -0.8797355113,
				"y": 1.2044095163,
				"z": 3.4379833408,
				"element": "C" 
			},
			{
				"x": 0.2440063785,
				"y": 1.9524198502,
				"z": 3.538474829,
				"element": "O" 
			},
			{
				"x": -1.29204175,
				"y": 0.5148611002,
				"z": 4.3422305617,
				"element": "O" 
			},
			{
				"x": -0.3842750186,
				"y": 2.2537226982,
				"z": -0.0082126079,
				"element": "C" 
			},
			{
				"x": 0.7269446862,
				"y": 1.6868397286,
				"z": -1.2111415873,
				"element": "S" 
			},
			{
				"x": 1.001755398,
				"y": -1.0957286971,
				"z": -4.0902098451,
				"element": "H" 
			},
			{
				"x": 0.6319378584,
				"y": -2.439649669,
				"z": -2.9845765346,
				"element": "H" 
			},
			{
				"x": -0.1777248447,
				"y": -0.8614093899,
				"z": -2.7785021105,
				"element": "H" 
			},
			{
				"x": 2.6963701618,
				"y": -0.7431310223,
				"z": -0.4772723394,
				"element": "H" 
			},
			{
				"x": 1.3111619349,
				"y": -2.3345903395,
				"z": 0.7643475663,
				"element": "H" 
			},
			{
				"x": 1.9628212365,
				"y": -3.1021159146,
				"z": -0.7045613854,
				"element": "H" 
			},
			{
				"x": 0.2549031621,
				"y": -2.5999235252,
				"z": -0.6180366901,
				"element": "H" 
			},
			{
				"x": -2.0487046152,
				"y": 2.3612357358,
				"z": 2.0923417086,
				"element": "H" 
			},
			{
				"x": -2.3466127073,
				"y": 0.6170027751,
				"z": 2.040493082,
				"element": "H" 
			},
			{
				"x": 0.597718288,
				"y": 1.7840952124,
				"z": 4.4280443462,
				"element": "H" 
			},
			{
				"x": -0.7906110639,
				"y": 3.2546587153,
				"z": -0.0462984547,
				"element": "H" 
			}
		],
		 "valence_orbital": [ 
			{
				"type": "occ",
				"energy": -0.28529,
				"method": "rhf"
			},
			{
				"type": "occ",
				"energy": -0.28324,
				"method": "rhf"
			},
			{
				"type": "occ",
				"energy": -0.27589,
				"method": "rhf"
			},
			{
				"type": "occ",
				"energy": -0.26368,
				"method": "rhf"
			},
			{
				"type": "occ",
				"energy": -0.23958,
				"method": "rhf"
			},
			{
				"type": "unocc",
				"energy": -0.02926,
				"method": "rhf"
			},
			{
				"type": "unocc",
				"energy": 0.01002,
				"method": "rhf"
			},
			{
				"type": "unocc",
				"energy": 0.02587,
				"method": "rhf"
			},
			{
				"type": "unocc",
				"energy": 0.04029,
				"method": "rhf"
			},
			{
				"type": "unocc",
				"energy": 0.07719,
				"method": "rhf"
			}
		],
		"cosmo_sigma_profile": { 
			"-0.025": 0.0,
			"-0.024": 0.0,
			"-0.023": 0.0,
			"-0.022": 0.0,
			"-0.021": 0.0,
			"-0.02": 0.0,
			"-0.019": 0.0862867421257,
			"-0.018": 0.817919303536,
			"-0.017": 0.864346509812,
			"-0.016": 0.928146987727,
			"-0.015": 0.944261678634,
			"-0.014": 0.380201484564,
			"-0.013": 0.311970819937,
			"-0.012": 0.845089900897,
			"-0.011": 1.28786902972,
			"-0.01": 0.852391440447,
			"-0.009": 1.76736012188,
			"-0.008": 5.66912599909,
			"-0.007": 6.89117436476,
			"-0.006": 8.33879827884,
			"-0.005": 10.6267289194,
			"-0.004": 18.7436813045,
			"-0.003": 23.1168987279,
			"-0.002": 24.30731901,
			"-0.001": 15.5493234348,
			"0.0": 15.2274434582,
			"0.001": 12.6257896809,
			"0.002": 18.1286684595,
			"0.003": 12.5194945434,
			"0.004": 8.56460824842,
			"0.005": 7.49340826072,
			"0.006": 5.59683580394,
			"0.007": 5.56457340247,
			"0.008": 6.09271146086,
			"0.009": 4.96885986288,
			"0.01": 3.94256764158,
			"0.011": 6.61205915927,
			"0.012": 5.85652019185,
			"0.013": 1.29781881149,
			"0.014": 0.0,
			"0.015": 0.0,
			"0.016": 0.0,
			"0.017": 0.0,
			"0.018": 0.0,
			"0.019": 0.0,
			"0.02": 0.0,
			"0.021": 0.0,
			"0.022": 0.0,
			"0.023": 0.0,
			"0.024": 0.0,
			"0.025": 0.0
		}
	}
}
