{
	 "smiles": "COC(=O)C1CC(O)CN1C(=O)C1=CC=C(F)C=C1", 
	 "Tm": 424.15, 
	 "num_atms": 33, 
	 "gaussian": { 
		 "optdone": 1, 
		 "sigma_profile": "yes", 
		 "theory": "DFT", 
		 "functional": "B3LYP", 
		 "basiset": "6-31G**", 
		 "properties": { 
			 "R2extent": 5449.3537, 
			 "electric_dipole_moment_norm": 2.40175747319, 
			 "electric_quadrupole_moment_norm": 14.2831856251, 
			 "total_energy": -959.30561679, 
			 "HOMO_LUMO_gap": 0.20955, 
			 "cosmo_polarized_energy": -19.43, 
			 "cosmo_cavitation_energy": 37.17, 
			 "cosmo_dispersion_energy": -24.76, 
			 "cosmo_repulsion_energy": 1.91, 
			 "cosmo_total_nonelectrostatic_energy": 14.31, 
			 "SMD_solvation_energy": 7.67 
		},
		"coords": [
			{
				"x": -2.223517016,
				"y": -1.6133896262,
				"z": -0.6668078232,
				"element": "C" 
			},
			{
				"x": -0.8399475506,
				"y": -1.2296889799,
				"z": -0.5651771666,
				"element": "O" 
			},
			{
				"x": -0.2372577504,
				"y": -1.5527285484,
				"z": 0.5951540067,
				"element": "C" 
			},
			{
				"x": -0.7664222272,
				"y": -2.1660678952,
				"z": 1.4947521577,
				"element": "O" 
			},
			{
				"x": 1.231128507,
				"y": -1.1327531561,
				"z": 0.6170643569,
				"element": "C" 
			},
			{
				"x": 2.0935211536,
				"y": -2.1600411786,
				"z": -0.1573459181,
				"element": "C" 
			},
			{
				"x": 3.24445761,
				"y": -1.3196068501,
				"z": -0.7376823607,
				"element": "C" 
			},
			{
				"x": 3.9521830851,
				"y": -1.9293661128,
				"z": -1.7945453787,
				"element": "O" 
			},
			{
				"x": 2.5430799399,
				"y": -0.0059186688,
				"z": -1.1059768578,
				"element": "C" 
			},
			{
				"x": 1.5420008669,
				"y": 0.147965131,
				"z": -0.0477809996,
				"element": "N" 
			},
			{
				"x": 0.7832852263,
				"y": 1.2983038243,
				"z": -0.0435836575,
				"element": "C" 
			},
			{
				"x": 0.9259645749,
				"y": 2.1402854029,
				"z": -0.9268030311,
				"element": "O" 
			},
			{
				"x": -0.1970879322,
				"y": 1.5204026475,
				"z": 1.0720802024,
				"element": "C" 
			},
			{
				"x": 0.072326716,
				"y": 1.2075190724,
				"z": 2.4114290624,
				"element": "C" 
			},
			{
				"x": -0.8453131906,
				"y": 1.5173355185,
				"z": 3.4148275418,
				"element": "C" 
			},
			{
				"x": -2.0374664595,
				"y": 2.1361608108,
				"z": 3.0585633036,
				"element": "C" 
			},
			{
				"x": -2.9338225493,
				"y": 2.4292276262,
				"z": 4.0205000128,
				"element": "F" 
			},
			{
				"x": -2.331071611,
				"y": 2.4731533341,
				"z": 1.739622681,
				"element": "C" 
			},
			{
				"x": -1.397440576,
				"y": 2.1741514259,
				"z": 0.7526621948,
				"element": "C" 
			},
			{
				"x": -2.3334184272,
				"y": -2.6926728882,
				"z": -0.5384312578,
				"element": "H" 
			},
			{
				"x": -2.5398056891,
				"y": -1.3083075589,
				"z": -1.6638164652,
				"element": "H" 
			},
			{
				"x": -2.8138723889,
				"y": -1.1013592334,
				"z": 0.0967121545,
				"element": "H" 
			},
			{
				"x": 1.5199146881,
				"y": -1.1221738838,
				"z": 1.6717464418,
				"element": "H" 
			},
			{
				"x": 1.5145671543,
				"y": -2.5788422952,
				"z": -0.9897184856,
				"element": "H" 
			},
			{
				"x": 2.4253591172,
				"y": -2.9847536248,
				"z": 0.4760667063,
				"element": "H" 
			},
			{
				"x": 3.9933769191,
				"y": -1.1315682572,
				"z": 0.0395330585,
				"element": "H" 
			},
			{
				"x": 3.3382084903,
				"y": -2.0609218734,
				"z": -2.530480059,
				"element": "H" 
			},
			{
				"x": 3.2090684205,
				"y": 0.858437137,
				"z": -1.1328064259,
				"element": "H" 
			},
			{
				"x": 2.0663388913,
				"y": -0.0842883205,
				"z": -2.0954222839,
				"element": "H" 
			},
			{
				"x": 1.0154040106,
				"y": 0.7472739703,
				"z": 2.6857990101,
				"element": "H" 
			},
			{
				"x": -0.6484107859,
				"y": 1.2906919842,
				"z": 4.456726125,
				"element": "H" 
			},
			{
				"x": -3.2679242099,
				"y": 2.9689011036,
				"z": 1.5095531809,
				"element": "H" 
			},
			{
				"x": -1.5773070075,
				"y": 2.4528399629,
				"z": -0.2800140262,
				"element": "H" 
			}
		],
		 "valence_orbital": [ 
			{
				"type": "occ",
				"energy": -0.27875,
				"method": "rhf"
			},
			{
				"type": "occ",
				"energy": -0.26966,
				"method": "rhf"
			},
			{
				"type": "occ",
				"energy": -0.26252,
				"method": "rhf"
			},
			{
				"type": "occ",
				"energy": -0.24806,
				"method": "rhf"
			},
			{
				"type": "occ",
				"energy": -0.24284,
				"method": "rhf"
			},
			{
				"type": "unocc",
				"energy": -0.03329,
				"method": "rhf"
			},
			{
				"type": "unocc",
				"energy": -0.02117,
				"method": "rhf"
			},
			{
				"type": "unocc",
				"energy": -0.00179,
				"method": "rhf"
			},
			{
				"type": "unocc",
				"energy": 0.04576,
				"method": "rhf"
			},
			{
				"type": "unocc",
				"energy": 0.06142,
				"method": "rhf"
			}
		],
		"cosmo_sigma_profile": { 
			"-0.025": 0.0,
			"-0.024": 0.0,
			"-0.023": 0.0,
			"-0.022": 0.0,
			"-0.021": 0.0,
			"-0.02": 0.0,
			"-0.019": 0.0,
			"-0.018": 0.0,
			"-0.017": 0.0,
			"-0.016": 0.365685967512,
			"-0.015": 1.21943650272,
			"-0.014": 0.982919157093,
			"-0.013": 1.62231535441,
			"-0.012": 1.09682260905,
			"-0.011": 1.09467387588,
			"-0.01": 1.067367239,
			"-0.009": 1.94388339285,
			"-0.008": 5.82605724323,
			"-0.007": 9.17694778118,
			"-0.006": 19.6151259795,
			"-0.005": 28.7287751422,
			"-0.004": 22.2139619885,
			"-0.003": 21.156036148,
			"-0.002": 17.346579222,
			"-0.001": 15.0878112863,
			"0.0": 21.6878094225,
			"0.001": 19.5269715215,
			"0.002": 15.7799194245,
			"0.003": 16.4464305508,
			"0.004": 16.0917977035,
			"0.005": 8.28831000063,
			"0.006": 4.75788784747,
			"0.007": 4.96086448966,
			"0.008": 4.36482162541,
			"0.009": 4.12602386413,
			"0.01": 4.25365725982,
			"0.011": 7.4073095235,
			"0.012": 7.00231592105,
			"0.013": 6.83973025629,
			"0.014": 3.47332633987,
			"0.015": 0.0669983418492,
			"0.016": 0.0,
			"0.017": 0.0,
			"0.018": 0.0,
			"0.019": 0.0,
			"0.02": 0.0,
			"0.021": 0.0,
			"0.022": 0.0,
			"0.023": 0.0,
			"0.024": 0.0,
			"0.025": 0.0
		}
	}
}
