{
	 "smiles": "OC(=O)COC1=C(Br)C=C(F)C=C1", 
	 "Tm": 416.15, 
	 "num_atms": 19, 
	 "gaussian": { 
		 "optdone": 1, 
		 "sigma_profile": "yes", 
		 "theory": "DFT", 
		 "functional": "B3LYP", 
		 "basiset": "6-31G**", 
		 "properties": { 
			 "R2extent": 5527.3317, 
			 "electric_dipole_moment_norm": 2.21282908061, 
			 "electric_quadrupole_moment_norm": 13.6612025924, 
			 "total_energy": -3205.3647148, 
			 "HOMO_LUMO_gap": 0.20435, 
			 "cosmo_polarized_energy": -13.08, 
			 "cosmo_cavitation_energy": 26.84, 
			 "cosmo_dispersion_energy": -19.59, 
			 "cosmo_repulsion_energy": 1.55, 
			 "cosmo_total_nonelectrostatic_energy": 8.8, 
			 "SMD_solvation_energy": 5.51 
		},
		"coords": [
			{
				"x": 1.9522479905,
				"y": -1.6430220441,
				"z": -1.9184471351,
				"element": "O" 
			},
			{
				"x": 2.00131882,
				"y": -1.7164425034,
				"z": -0.5758356422,
				"element": "C" 
			},
			{
				"x": 1.7940827285,
				"y": -2.735311228,
				"z": 0.0333419832,
				"element": "O" 
			},
			{
				"x": 2.3973220659,
				"y": -0.4090049923,
				"z": 0.1208422853,
				"element": "C" 
			},
			{
				"x": 2.1773866234,
				"y": 0.7364095871,
				"z": -0.6974485768,
				"element": "O" 
			},
			{
				"x": 0.9221079495,
				"y": 1.3007463015,
				"z": -0.7121070126,
				"element": "C" 
			},
			{
				"x": 0.8022728084,
				"y": 2.5631480379,
				"z": -1.3168450389,
				"element": "C" 
			},
			{
				"x": 2.3362815237,
				"y": 3.4107386729,
				"z": -2.0570378068,
				"element": "Br" 
			},
			{
				"x": -0.4289253201,
				"y": 3.2064847792,
				"z": -1.3876321137,
				"element": "C" 
			},
			{
				"x": -1.5452281572,
				"y": 2.5781259082,
				"z": -0.845276166,
				"element": "C" 
			},
			{
				"x": -2.7360123226,
				"y": 3.2038747057,
				"z": -0.9110670451,
				"element": "F" 
			},
			{
				"x": -1.4607698219,
				"y": 1.329986296,
				"z": -0.2464154134,
				"element": "C" 
			},
			{
				"x": -0.2209327216,
				"y": 0.6909529958,
				"z": -0.1844984874,
				"element": "C" 
			},
			{
				"x": 2.1408032718,
				"y": -0.7253584121,
				"z": -2.1827206748,
				"element": "H" 
			},
			{
				"x": 3.4757656292,
				"y": -0.4350101505,
				"z": 0.3057816059,
				"element": "H" 
			},
			{
				"x": 1.8854689822,
				"y": -0.3393070223,
				"z": 1.0838928104,
				"element": "H" 
			},
			{
				"x": -0.5234718474,
				"y": 4.1803479434,
				"z": -1.8516638591,
				"element": "H" 
			},
			{
				"x": -2.3509184163,
				"y": 0.8626840932,
				"z": 0.1586720638,
				"element": "H" 
			},
			{
				"x": -0.163199786,
				"y": -0.2923429684,
				"z": 0.2676642235,
				"element": "H" 
			}
		],
		 "valence_orbital": [ 
			{
				"type": "occ",
				"energy": -0.32716,
				"method": "rhf"
			},
			{
				"type": "occ",
				"energy": -0.29962,
				"method": "rhf"
			},
			{
				"type": "occ",
				"energy": -0.28439,
				"method": "rhf"
			},
			{
				"type": "occ",
				"energy": -0.26983,
				"method": "rhf"
			},
			{
				"type": "occ",
				"energy": -0.24367,
				"method": "rhf"
			},
			{
				"type": "unocc",
				"energy": -0.03932,
				"method": "rhf"
			},
			{
				"type": "unocc",
				"energy": -0.01452,
				"method": "rhf"
			},
			{
				"type": "unocc",
				"energy": -0.01031,
				"method": "rhf"
			},
			{
				"type": "unocc",
				"energy": -0.00586,
				"method": "rhf"
			},
			{
				"type": "unocc",
				"energy": 0.06964,
				"method": "rhf"
			}
		],
		"cosmo_sigma_profile": { 
			"-0.025": 0.0,
			"-0.024": 0.0,
			"-0.023": 0.0,
			"-0.022": 0.0,
			"-0.021": 0.0,
			"-0.02": 0.0,
			"-0.019": 0.0,
			"-0.018": 0.0,
			"-0.017": 0.0248545104522,
			"-0.016": 0.385737629735,
			"-0.015": 0.762708051152,
			"-0.014": 0.494611645406,
			"-0.013": 0.750434313261,
			"-0.012": 0.959371748576,
			"-0.011": 1.85313100639,
			"-0.01": 3.57868193097,
			"-0.009": 6.14838057329,
			"-0.008": 10.0859639007,
			"-0.007": 9.48072566787,
			"-0.006": 10.5279942927,
			"-0.005": 7.91078933967,
			"-0.004": 7.98001436935,
			"-0.003": 9.15354817293,
			"-0.002": 8.63659739404,
			"-0.001": 11.1270186894,
			"0.0": 17.807099409,
			"0.001": 22.921667947,
			"0.002": 16.0562006982,
			"0.003": 14.6851737166,
			"0.004": 20.9130851718,
			"0.005": 6.21022677711,
			"0.006": 3.13265754562,
			"0.007": 4.16132940356,
			"0.008": 4.01861648304,
			"0.009": 5.18895856834,
			"0.01": 4.24358345622,
			"0.011": 5.22536644018,
			"0.012": 3.90517884742,
			"0.013": 0.365802843953,
			"0.014": 0.0,
			"0.015": 0.0,
			"0.016": 0.0,
			"0.017": 0.0,
			"0.018": 0.0,
			"0.019": 0.0,
			"0.02": 0.0,
			"0.021": 0.0,
			"0.022": 0.0,
			"0.023": 0.0,
			"0.024": 0.0,
			"0.025": 0.0
		}
	}
}
