{
	 "smiles": "COC1=NC=C(CC#N)C=C1", 
	 "Tm": 323.15, 
	 "num_atms": 19, 
	 "gaussian": { 
		 "optdone": 1, 
		 "sigma_profile": "yes", 
		 "theory": "DFT", 
		 "functional": "B3LYP", 
		 "basiset": "6-31G**", 
		 "properties": { 
			 "R2extent": 3427.2524, 
			 "electric_dipole_moment_norm": 3.55904033414, 
			 "electric_quadrupole_moment_norm": 23.1634083127, 
			 "total_energy": -494.37396172, 
			 "HOMO_LUMO_gap": 0.20681, 
			 "cosmo_polarized_energy": -12.0, 
			 "cosmo_cavitation_energy": 24.42, 
			 "cosmo_dispersion_energy": -17.4, 
			 "cosmo_repulsion_energy": 1.41, 
			 "cosmo_total_nonelectrostatic_energy": 8.44, 
			 "SMD_solvation_energy": 5.59 
		},
		"coords": [
			{
				"x": -0.5852345242,
				"y": 1.4061522368,
				"z": -1.8156223545,
				"element": "C" 
			},
			{
				"x": -0.1836277727,
				"y": 0.3008243908,
				"z": -1.0000302275,
				"element": "O" 
			},
			{
				"x": -0.5281086496,
				"y": 0.3400002922,
				"z": 0.3033900017,
				"element": "C" 
			},
			{
				"x": -1.2161557235,
				"y": 1.3742415447,
				"z": 0.7726239536,
				"element": "N" 
			},
			{
				"x": -1.5351239228,
				"y": 1.368269082,
				"z": 2.0765568439,
				"element": "C" 
			},
			{
				"x": -1.1958779094,
				"y": 0.3489334404,
				"z": 2.9590979168,
				"element": "C" 
			},
			{
				"x": -1.6312074656,
				"y": 0.4045599669,
				"z": 4.4135290033,
				"element": "C" 
			},
			{
				"x": -0.5275962571,
				"y": 0.2024064267,
				"z": 5.3610452803,
				"element": "C" 
			},
			{
				"x": 0.3488252313,
				"y": 0.0240992545,
				"z": 6.1006428261,
				"element": "N" 
			},
			{
				"x": -0.4628041531,
				"y": -0.7335981887,
				"z": 2.4386988393,
				"element": "C" 
			},
			{
				"x": -0.1200857176,
				"y": -0.7489277242,
				"z": 1.1001206005,
				"element": "C" 
			},
			{
				"x": -0.1519900567,
				"y": 2.3420230306,
				"z": -1.4514942388,
				"element": "H" 
			},
			{
				"x": -1.673918951,
				"y": 1.5098864749,
				"z": -1.830455939,
				"element": "H" 
			},
			{
				"x": -0.2116390139,
				"y": 1.1778229411,
				"z": -2.8145117446,
				"element": "H" 
			},
			{
				"x": -2.0955799915,
				"y": 2.233802575,
				"z": 2.4290908851,
				"element": "H" 
			},
			{
				"x": -2.3925916916,
				"y": -0.3588776639,
				"z": 4.6232918832,
				"element": "H" 
			},
			{
				"x": -2.0971838922,
				"y": 1.3726094515,
				"z": 4.6287898179,
				"element": "H" 
			},
			{
				"x": -0.1579586482,
				"y": -1.5498979242,
				"z": 3.0882029656,
				"element": "H" 
			},
			{
				"x": 0.4464591092,
				"y": -1.558829607,
				"z": 0.655433687,
				"element": "H" 
			}
		],
		 "valence_orbital": [ 
			{
				"type": "occ",
				"energy": -0.32912,
				"method": "rhf"
			},
			{
				"type": "occ",
				"energy": -0.32575,
				"method": "rhf"
			},
			{
				"type": "occ",
				"energy": -0.29516,
				"method": "rhf"
			},
			{
				"type": "occ",
				"energy": -0.2749,
				"method": "rhf"
			},
			{
				"type": "occ",
				"energy": -0.23966,
				"method": "rhf"
			},
			{
				"type": "unocc",
				"energy": -0.03285,
				"method": "rhf"
			},
			{
				"type": "unocc",
				"energy": -0.01219,
				"method": "rhf"
			},
			{
				"type": "unocc",
				"energy": 0.03071,
				"method": "rhf"
			},
			{
				"type": "unocc",
				"energy": 0.03877,
				"method": "rhf"
			},
			{
				"type": "unocc",
				"energy": 0.09367,
				"method": "rhf"
			}
		],
		"cosmo_sigma_profile": { 
			"-0.025": 0.0,
			"-0.024": 0.0,
			"-0.023": 0.0,
			"-0.022": 0.0,
			"-0.021": 0.0,
			"-0.02": 0.0,
			"-0.019": 0.0,
			"-0.018": 0.0,
			"-0.017": 0.0,
			"-0.016": 0.0,
			"-0.015": 0.0,
			"-0.014": 0.0,
			"-0.013": 0.0,
			"-0.012": 0.0,
			"-0.011": 0.0,
			"-0.01": 0.212020424307,
			"-0.009": 5.41924652348,
			"-0.008": 7.28031248047,
			"-0.007": 10.8261793724,
			"-0.006": 12.7438527126,
			"-0.005": 12.931382105,
			"-0.004": 12.7300722459,
			"-0.003": 14.2211911531,
			"-0.002": 12.0832658381,
			"-0.001": 8.93463527945,
			"0.0": 11.783721724,
			"0.001": 16.0551831368,
			"0.002": 14.1850494963,
			"0.003": 8.0133374441,
			"0.004": 7.39791105231,
			"0.005": 4.99823095591,
			"0.006": 4.29560271057,
			"0.007": 5.56040891204,
			"0.008": 5.67702267411,
			"0.009": 6.07035430487,
			"0.01": 4.63994411079,
			"0.011": 4.2006544318,
			"0.012": 3.13757822085,
			"0.013": 2.33788057878,
			"0.014": 0.212915807038,
			"0.015": 0.0,
			"0.016": 0.0,
			"0.017": 0.0,
			"0.018": 0.0,
			"0.019": 0.0,
			"0.02": 0.0,
			"0.021": 0.0,
			"0.022": 0.0,
			"0.023": 0.0,
			"0.024": 0.0,
			"0.025": 0.0
		}
	}
}
