{
	 "smiles": "C1CC1C1NCCC2=C1C=CS2", 
	 "Tm": 318.15, 
	 "num_atms": 25, 
	 "gaussian": { 
		 "optdone": 1, 
		 "sigma_profile": "yes", 
		 "theory": "DFT", 
		 "functional": "B3LYP", 
		 "basiset": "6-31G**", 
		 "properties": { 
			 "R2extent": 2591.4251, 
			 "electric_dipole_moment_norm": 0.602635719154, 
			 "electric_quadrupole_moment_norm": 5.8153527494, 
			 "total_energy": -841.791435429, 
			 "HOMO_LUMO_gap": 0.21148, 
			 "cosmo_polarized_energy": -6.59, 
			 "cosmo_cavitation_energy": 27.83, 
			 "cosmo_dispersion_energy": -20.93, 
			 "cosmo_repulsion_energy": 1.62, 
			 "cosmo_total_nonelectrostatic_energy": 8.52, 
			 "SMD_solvation_energy": 1.68 
		},
		"coords": [
			{
				"x": 1.9357877469,
				"y": 0.7427257841,
				"z": 2.3035152797,
				"element": "C" 
			},
			{
				"x": 2.1236644283,
				"y": 2.1954554892,
				"z": 1.9425752355,
				"element": "C" 
			},
			{
				"x": 0.9402030066,
				"y": 1.4354341563,
				"z": 1.4013990017,
				"element": "C" 
			},
			{
				"x": 0.8772370733,
				"y": 1.1037573094,
				"z": -0.0802589661,
				"element": "C" 
			},
			{
				"x": 0.6551878183,
				"y": 2.3371413503,
				"z": -0.8566638419,
				"element": "N" 
			},
			{
				"x": 0.2748134466,
				"y": 2.089220704,
				"z": -2.2464040309,
				"element": "C" 
			},
			{
				"x": -1.0384398426,
				"y": 1.2908033737,
				"z": -2.4068813355,
				"element": "C" 
			},
			{
				"x": -1.0102145478,
				"y": 0.1336756572,
				"z": -1.4494076311,
				"element": "C" 
			},
			{
				"x": -0.1532582574,
				"y": 0.0225426705,
				"z": -0.3836917517,
				"element": "C" 
			},
			{
				"x": -0.3362041742,
				"y": -1.2005937414,
				"z": 0.345182431,
				"element": "C" 
			},
			{
				"x": -1.3277207863,
				"y": -1.985415182,
				"z": -0.1683113521,
				"element": "C" 
			},
			{
				"x": -2.063123575,
				"y": -1.2540554952,
				"z": -1.5638640419,
				"element": "S" 
			},
			{
				"x": 2.6101116915,
				"y": 0.0176093811,
				"z": 1.8558368507,
				"element": "H" 
			},
			{
				"x": 1.6272124441,
				"y": 0.4949966401,
				"z": 3.3147995464,
				"element": "H" 
			},
			{
				"x": 2.9108934586,
				"y": 2.4517458431,
				"z": 1.2402495375,
				"element": "H" 
			},
			{
				"x": 1.9488519395,
				"y": 2.9446006915,
				"z": 2.7087319096,
				"element": "H" 
			},
			{
				"x": -0.0291860789,
				"y": 1.6608833661,
				"z": 1.8443818572,
				"element": "H" 
			},
			{
				"x": 1.8686414547,
				"y": 0.7216940097,
				"z": -0.3752403082,
				"element": "H" 
			},
			{
				"x": -0.0737661599,
				"y": 2.8826698822,
				"z": -0.3999367363,
				"element": "H" 
			},
			{
				"x": 0.1971987177,
				"y": 3.0507846188,
				"z": -2.7654818482,
				"element": "H" 
			},
			{
				"x": 1.093011687,
				"y": 1.533262341,
				"z": -2.7213859447,
				"element": "H" 
			},
			{
				"x": -1.8991321076,
				"y": 1.9439390819,
				"z": -2.2006053546,
				"element": "H" 
			},
			{
				"x": -1.151506617,
				"y": 0.949804663,
				"z": -3.4437691831,
				"element": "H" 
			},
			{
				"x": 0.2457659333,
				"y": -1.4725522158,
				"z": 1.2181914122,
				"element": "H" 
			},
			{
				"x": -1.6769286997,
				"y": -2.9452303785,
				"z": 0.1862392648,
				"element": "H" 
			}
		],
		 "valence_orbital": [ 
			{
				"type": "occ",
				"energy": -0.28873,
				"method": "rhf"
			},
			{
				"type": "occ",
				"energy": -0.2859,
				"method": "rhf"
			},
			{
				"type": "occ",
				"energy": -0.23739,
				"method": "rhf"
			},
			{
				"type": "occ",
				"energy": -0.22229,
				"method": "rhf"
			},
			{
				"type": "occ",
				"energy": -0.21466,
				"method": "rhf"
			},
			{
				"type": "unocc",
				"energy": -0.00318,
				"method": "rhf"
			},
			{
				"type": "unocc",
				"energy": 0.03526,
				"method": "rhf"
			},
			{
				"type": "unocc",
				"energy": 0.06413,
				"method": "rhf"
			},
			{
				"type": "unocc",
				"energy": 0.08806,
				"method": "rhf"
			},
			{
				"type": "unocc",
				"energy": 0.10352,
				"method": "rhf"
			}
		],
		"cosmo_sigma_profile": { 
			"-0.025": 0.0,
			"-0.024": 0.0,
			"-0.023": 0.0,
			"-0.022": 0.0,
			"-0.021": 0.0,
			"-0.02": 0.0,
			"-0.019": 0.0,
			"-0.018": 0.0,
			"-0.017": 0.0,
			"-0.016": 0.0,
			"-0.015": 0.0,
			"-0.014": 0.0,
			"-0.013": 0.0,
			"-0.012": 0.0,
			"-0.011": 0.0,
			"-0.01": 0.159233780097,
			"-0.009": 1.17195342913,
			"-0.008": 2.12058934047,
			"-0.007": 3.14175084803,
			"-0.006": 3.15513792447,
			"-0.005": 6.61254984834,
			"-0.004": 23.1816868511,
			"-0.003": 28.7853387026,
			"-0.002": 28.832524682,
			"-0.001": 22.2001481774,
			"0.0": 17.1656582632,
			"0.001": 13.0321138791,
			"0.002": 11.4227035192,
			"0.003": 13.0566680928,
			"0.004": 11.4307991586,
			"0.005": 14.4077549252,
			"0.006": 11.2629193721,
			"0.007": 2.69020493554,
			"0.008": 0.75758310531,
			"0.009": 0.909148679338,
			"0.01": 0.794026743883,
			"0.011": 0.8527414377,
			"0.012": 0.690168244852,
			"0.013": 0.417680842969,
			"0.014": 0.473313833848,
			"0.015": 0.866017112847,
			"0.016": 0.243403611553,
			"0.017": 0.66401803259,
			"0.018": 0.162396750747,
			"0.019": 0.0,
			"0.02": 0.0,
			"0.021": 0.0,
			"0.022": 0.0,
			"0.023": 0.0,
			"0.024": 0.0,
			"0.025": 0.0
		}
	}
}
