{
	 "smiles": "CC1=C(C=O)C2=C(N1)C=CC(Cl)=C2", 
	 "Tm": 522.15, 
	 "num_atms": 21, 
	 "gaussian": { 
		 "optdone": 1, 
		 "sigma_profile": "yes", 
		 "theory": "DFT", 
		 "functional": "B3LYP", 
		 "basiset": "6-31G**", 
		 "properties": { 
			 "R2extent": 3707.5215, 
			 "electric_dipole_moment_norm": 5.01259059868, 
			 "electric_quadrupole_moment_norm": 10.2413298756, 
			 "total_energy": -976.063727524, 
			 "HOMO_LUMO_gap": 0.17858, 
			 "cosmo_polarized_energy": -14.64, 
			 "cosmo_cavitation_energy": 27.29, 
			 "cosmo_dispersion_energy": -20.06, 
			 "cosmo_repulsion_energy": 1.57, 
			 "cosmo_total_nonelectrostatic_energy": 8.8, 
			 "SMD_solvation_energy": 4.96 
		},
		"coords": [
			{
				"x": 1.4226335778,
				"y": 1.2699454892,
				"z": -1.8493767539,
				"element": "C" 
			},
			{
				"x": 0.648009375,
				"y": 0.5690389449,
				"z": -0.7839237877,
				"element": "C" 
			},
			{
				"x": 0.7921212474,
				"y": -0.7252680915,
				"z": -0.2857292009,
				"element": "C" 
			},
			{
				"x": 1.7824800139,
				"y": -1.6819976149,
				"z": -0.7421642684,
				"element": "C" 
			},
			{
				"x": 2.609995175,
				"y": -1.4678192437,
				"z": -1.6207394275,
				"element": "O" 
			},
			{
				"x": -0.2146337763,
				"y": -0.9014365266,
				"z": 0.7398030635,
				"element": "C" 
			},
			{
				"x": -0.9359998684,
				"y": 0.3169587251,
				"z": 0.8174733994,
				"element": "C" 
			},
			{
				"x": -0.3818746826,
				"y": 1.1781619954,
				"z": -0.1205634094,
				"element": "N" 
			},
			{
				"x": -1.9919267481,
				"y": 0.5111805852,
				"z": 1.7078950909,
				"element": "C" 
			},
			{
				"x": -2.3354064936,
				"y": -0.545333371,
				"z": 2.5447900355,
				"element": "C" 
			},
			{
				"x": -1.6249435908,
				"y": -1.7571132866,
				"z": 2.4740635488,
				"element": "C" 
			},
			{
				"x": -2.0963518314,
				"y": -3.0670444443,
				"z": 3.5542910135,
				"element": "Cl" 
			},
			{
				"x": -0.5724859738,
				"y": -1.9591060376,
				"z": 1.5906552382,
				"element": "C" 
			},
			{
				"x": 1.3624408195,
				"y": 0.7197742727,
				"z": -2.7926719667,
				"element": "H" 
			},
			{
				"x": 2.4845566629,
				"y": 1.3070785313,
				"z": -1.590440249,
				"element": "H" 
			},
			{
				"x": 1.0558432901,
				"y": 2.2891672033,
				"z": -2.0049620515,
				"element": "H" 
			},
			{
				"x": 1.751797958,
				"y": -2.6696882003,
				"z": -0.2321838478,
				"element": "H" 
			},
			{
				"x": -0.6893025369,
				"y": 2.1229541636,
				"z": -0.2953790445,
				"element": "H" 
			},
			{
				"x": -2.5338066092,
				"y": 1.4511762341,
				"z": 1.754128342,
				"element": "H" 
			},
			{
				"x": -3.148507607,
				"y": -0.4438814335,
				"z": 3.2539537091,
				"element": "H" 
			},
			{
				"x": -0.0520384014,
				"y": -2.9097478949,
				"z": 1.5695805663,
				"element": "H" 
			}
		],
		 "valence_orbital": [ 
			{
				"type": "occ",
				"energy": -0.30976,
				"method": "rhf"
			},
			{
				"type": "occ",
				"energy": -0.29204,
				"method": "rhf"
			},
			{
				"type": "occ",
				"energy": -0.24263,
				"method": "rhf"
			},
			{
				"type": "occ",
				"energy": -0.23263,
				"method": "rhf"
			},
			{
				"type": "occ",
				"energy": -0.22272,
				"method": "rhf"
			},
			{
				"type": "unocc",
				"energy": -0.04414,
				"method": "rhf"
			},
			{
				"type": "unocc",
				"energy": -0.01879,
				"method": "rhf"
			},
			{
				"type": "unocc",
				"energy": 0.00639,
				"method": "rhf"
			},
			{
				"type": "unocc",
				"energy": 0.0313,
				"method": "rhf"
			},
			{
				"type": "unocc",
				"energy": 0.05967,
				"method": "rhf"
			}
		],
		"cosmo_sigma_profile": { 
			"-0.025": 0.0,
			"-0.024": 0.0,
			"-0.023": 0.0,
			"-0.022": 0.0,
			"-0.021": 0.0,
			"-0.02": 0.0,
			"-0.019": 0.0,
			"-0.018": 0.0,
			"-0.017": 0.348068317571,
			"-0.016": 1.57774688323,
			"-0.015": 1.7541212405,
			"-0.014": 1.18634185835,
			"-0.013": 1.34516772498,
			"-0.012": 1.68860366966,
			"-0.011": 1.75541866559,
			"-0.01": 1.2917226745,
			"-0.009": 1.6182327202,
			"-0.008": 2.08224029672,
			"-0.007": 7.25394345658,
			"-0.006": 9.41548034066,
			"-0.005": 12.2851532461,
			"-0.004": 11.844894749,
			"-0.003": 11.3901245017,
			"-0.002": 15.5786082281,
			"-0.001": 16.0389674378,
			"0.0": 11.743289813,
			"0.001": 15.7876544575,
			"0.002": 19.2460772168,
			"0.003": 21.8511249717,
			"0.004": 20.6684867676,
			"0.005": 13.3108882444,
			"0.006": 2.92567133569,
			"0.007": 1.45608562635,
			"0.008": 1.44158385733,
			"0.009": 1.7372332075,
			"0.01": 1.69910296055,
			"0.011": 2.22341863811,
			"0.012": 2.92447433281,
			"0.013": 3.3098093162,
			"0.014": 1.65342609202,
			"0.015": 0.261921446166,
			"0.016": 0.0,
			"0.017": 0.0,
			"0.018": 0.0,
			"0.019": 0.0,
			"0.02": 0.0,
			"0.021": 0.0,
			"0.022": 0.0,
			"0.023": 0.0,
			"0.024": 0.0,
			"0.025": 0.0
		}
	}
}
