{
	 "smiles": "[O-][N+](=O)C1=CC2=C(C=C1CC(=NNC1=CC=CC=C1)C1=CC=CC=C1)N1N2N1C1=CC=CC=C1", 
	 "Tm": 471.15, 
	 "num_atms": 54, 
	 "gaussian": { 
		 "optdone": 1, 
		 "sigma_profile": "yes", 
		 "theory": "DFT", 
		 "functional": "B3LYP", 
		 "basiset": "6-31G**", 
		 "properties": { 
			 "R2extent": 14849.9013, 
			 "electric_dipole_moment_norm": 4.51250819168, 
			 "electric_quadrupole_moment_norm": 23.1512312457, 
			 "total_energy": -1481.44314435, 
			 "HOMO_LUMO_gap": 0.09732, 
			 "cosmo_polarized_energy": -20.29, 
			 "cosmo_cavitation_energy": 59.6, 
			 "cosmo_dispersion_energy": -37.19, 
			 "cosmo_repulsion_energy": 2.73, 
			 "cosmo_total_nonelectrostatic_energy": 25.14, 
			 "SMD_solvation_energy": 8.22 
		},
		"coords": [
			{
				"x": 1.3526352767,
				"y": -2.5492943235,
				"z": -2.0179303559,
				"element": "O" 
			},
			{
				"x": 0.7746673131,
				"y": -2.6010587874,
				"z": -0.9336089704,
				"element": "N" 
			},
			{
				"x": 1.2478711054,
				"y": -3.1324224134,
				"z": 0.0727163585,
				"element": "O" 
			},
			{
				"x": -0.5788889538,
				"y": -2.0220555912,
				"z": -0.8635284006,
				"element": "C" 
			},
			{
				"x": -1.2380127009,
				"y": -1.9405872435,
				"z": -2.1139346575,
				"element": "C" 
			},
			{
				"x": -2.4965531848,
				"y": -1.4085462373,
				"z": -2.0394295832,
				"element": "C" 
			},
			{
				"x": -3.0819749207,
				"y": -1.0151765814,
				"z": -0.8602582428,
				"element": "C" 
			},
			{
				"x": -2.4727348301,
				"y": -1.1133351757,
				"z": 0.3659303889,
				"element": "C" 
			},
			{
				"x": -1.1515080475,
				"y": -1.6295027784,
				"z": 0.3690081202,
				"element": "C" 
			},
			{
				"x": -0.4648433946,
				"y": -1.7430721804,
				"z": 1.7153237699,
				"element": "C" 
			},
			{
				"x": 0.7503350608,
				"y": -0.8536386979,
				"z": 1.9289102847,
				"element": "C" 
			},
			{
				"x": 0.9830499236,
				"y": 0.0854484944,
				"z": 1.0781495774,
				"element": "N" 
			},
			{
				"x": 2.0489506171,
				"y": 0.8975702916,
				"z": 1.2502033906,
				"element": "N" 
			},
			{
				"x": 2.4378771581,
				"y": 1.7969785534,
				"z": 0.2550714412,
				"element": "C" 
			},
			{
				"x": 3.6468384428,
				"y": 2.493350264,
				"z": 0.420927491,
				"element": "C" 
			},
			{
				"x": 4.0631696202,
				"y": 3.4132344295,
				"z": -0.5377884829,
				"element": "C" 
			},
			{
				"x": 3.2880215184,
				"y": 3.6545649482,
				"z": -1.6741246325,
				"element": "C" 
			},
			{
				"x": 2.0866296916,
				"y": 2.9598476838,
				"z": -1.8330903307,
				"element": "C" 
			},
			{
				"x": 1.6524976107,
				"y": 2.0381849263,
				"z": -0.8826090463,
				"element": "C" 
			},
			{
				"x": 1.5637206306,
				"y": -1.1257958825,
				"z": 3.1540894126,
				"element": "C" 
			},
			{
				"x": 2.2331095312,
				"y": -2.3513972554,
				"z": 3.3063294694,
				"element": "C" 
			},
			{
				"x": 2.9789659755,
				"y": -2.610962906,
				"z": 4.4560930055,
				"element": "C" 
			},
			{
				"x": 3.0644984877,
				"y": -1.6549208452,
				"z": 5.4707493145,
				"element": "C" 
			},
			{
				"x": 2.4040528568,
				"y": -0.4330189938,
				"z": 5.3295821705,
				"element": "C" 
			},
			{
				"x": 1.6599581766,
				"y": -0.1684097819,
				"z": 4.1788871856,
				"element": "C" 
			},
			{
				"x": -4.4050339606,
				"y": -0.7648143831,
				"z": -1.4900247197,
				"element": "N" 
			},
			{
				"x": -3.7450943458,
				"y": -1.2158024649,
				"z": -2.8290239054,
				"element": "N" 
			},
			{
				"x": -4.1851166456,
				"y": 0.1492304828,
				"z": -2.6000128233,
				"element": "N" 
			},
			{
				"x": -3.2616847973,
				"y": 1.2364540799,
				"z": -2.5116042703,
				"element": "C" 
			},
			{
				"x": -2.3811752071,
				"y": 1.4713548553,
				"z": -3.5716798203,
				"element": "C" 
			},
			{
				"x": -1.5910054774,
				"y": 2.6202774319,
				"z": -3.5611109376,
				"element": "C" 
			},
			{
				"x": -1.6786065952,
				"y": 3.5303626975,
				"z": -2.5048154435,
				"element": "C" 
			},
			{
				"x": -2.5656068773,
				"y": 3.2873896982,
				"z": -1.453765316,
				"element": "C" 
			},
			{
				"x": -3.3639678715,
				"y": 2.1444072208,
				"z": -1.4534498243,
				"element": "C" 
			},
			{
				"x": -0.754659743,
				"y": -2.3054889138,
				"z": -3.0103937913,
				"element": "H" 
			},
			{
				"x": -2.952566438,
				"y": -0.8415200048,
				"z": 1.2998230008,
				"element": "H" 
			},
			{
				"x": -1.2024405982,
				"y": -1.502848943,
				"z": 2.4930468835,
				"element": "H" 
			},
			{
				"x": -0.1662833745,
				"y": -2.7791047474,
				"z": 1.8915707205,
				"element": "H" 
			},
			{
				"x": 2.7266792771,
				"y": 0.6695680968,
				"z": 1.9713367929,
				"element": "H" 
			},
			{
				"x": 4.2582185424,
				"y": 2.308272246,
				"z": 1.3013404817,
				"element": "H" 
			},
			{
				"x": 5.002293389,
				"y": 3.9405707342,
				"z": -0.3947450797,
				"element": "H" 
			},
			{
				"x": 3.6160797478,
				"y": 4.3689003055,
				"z": -2.4228417501,
				"element": "H" 
			},
			{
				"x": 1.4723176234,
				"y": 3.1315248572,
				"z": -2.7123962634,
				"element": "H" 
			},
			{
				"x": 0.7207261444,
				"y": 1.5013755602,
				"z": -1.0088965214,
				"element": "H" 
			},
			{
				"x": 2.1787566641,
				"y": -3.0895084744,
				"z": 2.5118315324,
				"element": "H" 
			},
			{
				"x": 3.4963599437,
				"y": -3.5605452007,
				"z": 4.558365948,
				"element": "H" 
			},
			{
				"x": 3.6434703581,
				"y": -1.8607931588,
				"z": 6.3663466286,
				"element": "H" 
			},
			{
				"x": 2.463576884,
				"y": 0.313473572,
				"z": 6.1164743844,
				"element": "H" 
			},
			{
				"x": 1.1408147428,
				"y": 0.7805032493,
				"z": 4.0744703312,
				"element": "H" 
			},
			{
				"x": -2.3269970693,
				"y": 0.7652054609,
				"z": -4.3941178944,
				"element": "H" 
			},
			{
				"x": -0.9054511242,
				"y": 2.802763104,
				"z": -4.3833640666,
				"element": "H" 
			},
			{
				"x": -1.0580649452,
				"y": 4.4206131464,
				"z": -2.498413019,
				"element": "H" 
			},
			{
				"x": -2.6366781106,
				"y": 3.9890529474,
				"z": -0.6282293899,
				"element": "H" 
			},
			{
				"x": -4.0660931005,
				"y": 1.9556426286,
				"z": -0.6475905456,
				"element": "H" 
			}
		],
		 "valence_orbital": [ 
			{
				"type": "occ",
				"energy": -0.26331,
				"method": "rhf"
			},
			{
				"type": "occ",
				"energy": -0.25844,
				"method": "rhf"
			},
			{
				"type": "occ",
				"energy": -0.24341,
				"method": "rhf"
			},
			{
				"type": "occ",
				"energy": -0.23753,
				"method": "rhf"
			},
			{
				"type": "occ",
				"energy": -0.19085,
				"method": "rhf"
			},
			{
				"type": "unocc",
				"energy": -0.09353,
				"method": "rhf"
			},
			{
				"type": "unocc",
				"energy": -0.04625,
				"method": "rhf"
			},
			{
				"type": "unocc",
				"energy": -0.03254,
				"method": "rhf"
			},
			{
				"type": "unocc",
				"energy": -0.02749,
				"method": "rhf"
			},
			{
				"type": "unocc",
				"energy": -0.01852,
				"method": "rhf"
			}
		],
		"cosmo_sigma_profile": { 
			"-0.025": 0.0,
			"-0.024": 0.0,
			"-0.023": 0.0,
			"-0.022": 0.0,
			"-0.021": 0.0,
			"-0.02": 0.0,
			"-0.019": 0.0,
			"-0.018": 0.0,
			"-0.017": 0.0,
			"-0.016": 0.0,
			"-0.015": 0.0,
			"-0.014": 0.0,
			"-0.013": 0.0,
			"-0.012": 0.467690635495,
			"-0.011": 1.42324399907,
			"-0.01": 1.19440348934,
			"-0.009": 4.27576000308,
			"-0.008": 6.44410391114,
			"-0.007": 13.7509014404,
			"-0.006": 27.02369445,
			"-0.005": 36.2307153788,
			"-0.004": 37.8110554791,
			"-0.003": 34.961819153,
			"-0.002": 33.6995330216,
			"-0.001": 32.8563040212,
			"0.0": 33.8133845862,
			"0.001": 29.059073379,
			"0.002": 36.2475649343,
			"0.003": 33.1543493627,
			"0.004": 32.942281862,
			"0.005": 24.0743758724,
			"0.006": 16.586008855,
			"0.007": 16.0853614907,
			"0.008": 10.8695812999,
			"0.009": 6.94978838209,
			"0.01": 6.23351993191,
			"0.011": 2.59119231371,
			"0.012": 0.64520647484,
			"0.013": 0.0,
			"0.014": 0.0,
			"0.015": 0.0,
			"0.016": 0.0,
			"0.017": 0.0,
			"0.018": 0.0,
			"0.019": 0.0,
			"0.02": 0.0,
			"0.021": 0.0,
			"0.022": 0.0,
			"0.023": 0.0,
			"0.024": 0.0,
			"0.025": 0.0
		}
	}
}
