{
	 "smiles": "NC1=CC(=CC=C1)C1=CN(CC2=CC=CC=C2)N=N1", 
	 "Tm": 413.15, 
	 "num_atms": 33, 
	 "gaussian": { 
		 "optdone": 1, 
		 "sigma_profile": "yes", 
		 "theory": "DFT", 
		 "functional": "B3LYP", 
		 "basiset": "6-31G**", 
		 "properties": { 
			 "R2extent": 7574.7563, 
			 "electric_dipole_moment_norm": 3.18775003098, 
			 "electric_quadrupole_moment_norm": 20.9787970883, 
			 "total_energy": -799.013194314, 
			 "HOMO_LUMO_gap": 0.17886, 
			 "cosmo_polarized_energy": -18.67, 
			 "cosmo_cavitation_energy": 37.86, 
			 "cosmo_dispersion_energy": -27.09, 
			 "cosmo_repulsion_energy": 2.07, 
			 "cosmo_total_nonelectrostatic_energy": 12.85, 
			 "SMD_solvation_energy": 4.89 
		},
		"coords": [
			{
				"x": -2.3422170348,
				"y": -4.7933912602,
				"z": 3.6217756253,
				"element": "N" 
			},
			{
				"x": -2.4223061816,
				"y": -3.5967840715,
				"z": 2.9060134063,
				"element": "C" 
			},
			{
				"x": -1.2558558219,
				"y": -2.9101298902,
				"z": 2.5387184611,
				"element": "C" 
			},
			{
				"x": -1.3217565501,
				"y": -1.6813966687,
				"z": 1.8713111957,
				"element": "C" 
			},
			{
				"x": -2.5754054083,
				"y": -1.1281226357,
				"z": 1.5629283062,
				"element": "C" 
			},
			{
				"x": -3.7349974331,
				"y": -1.8092536863,
				"z": 1.9272839297,
				"element": "C" 
			},
			{
				"x": -3.6709325502,
				"y": -3.0315172444,
				"z": 2.5922216419,
				"element": "C" 
			},
			{
				"x": -0.0758372931,
				"y": -0.9966584232,
				"z": 1.5013020332,
				"element": "C" 
			},
			{
				"x": 0.1241583697,
				"y": 0.238811262,
				"z": 0.9084666529,
				"element": "C" 
			},
			{
				"x": 1.4711572015,
				"y": 0.3623614449,
				"z": 0.8147597413,
				"element": "N" 
			},
			{
				"x": 2.266421607,
				"y": 1.4409351457,
				"z": 0.2345383581,
				"element": "C" 
			},
			{
				"x": 2.1801100806,
				"y": 1.5047216965,
				"z": -1.2786102607,
				"element": "C" 
			},
			{
				"x": 1.8400529108,
				"y": 2.6996070828,
				"z": -1.9196232871,
				"element": "C" 
			},
			{
				"x": 1.7879204098,
				"y": 2.7661157169,
				"z": -3.3142095956,
				"element": "C" 
			},
			{
				"x": 2.0699568794,
				"y": 1.6331610967,
				"z": -4.0769830775,
				"element": "C" 
			},
			{
				"x": 2.4068775175,
				"y": 0.4343215956,
				"z": -3.44151016,
				"element": "C" 
			},
			{
				"x": 2.4640067672,
				"y": 0.3699943469,
				"z": -2.050622815,
				"element": "C" 
			},
			{
				"x": 2.0865603692,
				"y": -0.7363246322,
				"z": 1.3119639975,
				"element": "N" 
			},
			{
				"x": 1.1586065102,
				"y": -1.5500684029,
				"z": 1.7256333849,
				"element": "N" 
			},
			{
				"x": -3.1406716751,
				"y": -5.4055341891,
				"z": 3.5261857801,
				"element": "H" 
			},
			{
				"x": -1.46937238,
				"y": -5.2929427062,
				"z": 3.520765343,
				"element": "H" 
			},
			{
				"x": -0.2804251533,
				"y": -3.3256056718,
				"z": 2.7722499415,
				"element": "H" 
			},
			{
				"x": -2.6464638574,
				"y": -0.1804501862,
				"z": 1.0383396273,
				"element": "H" 
			},
			{
				"x": -4.7060206613,
				"y": -1.3846462057,
				"z": 1.6873809851,
				"element": "H" 
			},
			{
				"x": -4.5835510069,
				"y": -3.5502127232,
				"z": 2.8752439879,
				"element": "H" 
			},
			{
				"x": -0.5497700081,
				"y": 1.0051502174,
				"z": 0.5606163378,
				"element": "H" 
			},
			{
				"x": 3.2900816929,
				"y": 1.2428208819,
				"z": 0.5646202211,
				"element": "H" 
			},
			{
				"x": 1.9483261589,
				"y": 2.389457428,
				"z": 0.677917705,
				"element": "H" 
			},
			{
				"x": 1.6168342431,
				"y": 3.5840632038,
				"z": -1.3273733247,
				"element": "H" 
			},
			{
				"x": 1.5225804522,
				"y": 3.7002668947,
				"z": -3.8008000848,
				"element": "H" 
			},
			{
				"x": 2.0267846715,
				"y": 1.681403093,
				"z": -5.1611846944,
				"element": "H" 
			},
			{
				"x": 2.6269519449,
				"y": -0.4508082833,
				"z": -4.0313169909,
				"element": "H" 
			},
			{
				"x": 2.7233952289,
				"y": -0.561544226,
				"z": -1.5547023723,
				"element": "H" 
			}
		],
		 "valence_orbital": [ 
			{
				"type": "occ",
				"energy": -0.26187,
				"method": "rhf"
			},
			{
				"type": "occ",
				"energy": -0.25869,
				"method": "rhf"
			},
			{
				"type": "occ",
				"energy": -0.25349,
				"method": "rhf"
			},
			{
				"type": "occ",
				"energy": -0.21782,
				"method": "rhf"
			},
			{
				"type": "occ",
				"energy": -0.19545,
				"method": "rhf"
			},
			{
				"type": "unocc",
				"energy": -0.01659,
				"method": "rhf"
			},
			{
				"type": "unocc",
				"energy": -0.01307,
				"method": "rhf"
			},
			{
				"type": "unocc",
				"energy": -0.01057,
				"method": "rhf"
			},
			{
				"type": "unocc",
				"energy": 0.0027,
				"method": "rhf"
			},
			{
				"type": "unocc",
				"energy": 0.02382,
				"method": "rhf"
			}
		],
		"cosmo_sigma_profile": { 
			"-0.025": 0.0,
			"-0.024": 0.0,
			"-0.023": 0.0,
			"-0.022": 0.0,
			"-0.021": 0.0,
			"-0.02": 0.0,
			"-0.019": 0.0,
			"-0.018": 0.0,
			"-0.017": 0.0,
			"-0.016": 0.0,
			"-0.015": 0.0,
			"-0.014": 0.0492553288786,
			"-0.013": 0.715451896521,
			"-0.012": 2.56408644669,
			"-0.011": 2.51392442244,
			"-0.01": 4.32092558019,
			"-0.009": 6.20731668778,
			"-0.008": 7.58487676887,
			"-0.007": 10.5789356287,
			"-0.006": 15.9224424592,
			"-0.005": 20.3852259194,
			"-0.004": 22.3817292476,
			"-0.003": 21.4434547731,
			"-0.002": 15.1021289264,
			"-0.001": 16.6865062959,
			"0.0": 15.9830187331,
			"0.001": 15.8332675378,
			"0.002": 18.8593328049,
			"0.003": 18.109920432,
			"0.004": 19.1794425755,
			"0.005": 21.7650572459,
			"0.006": 16.3459119969,
			"0.007": 6.69281165334,
			"0.008": 3.14039814702,
			"0.009": 2.97342022732,
			"0.01": 3.87753661773,
			"0.011": 4.70072040395,
			"0.012": 3.65586397415,
			"0.013": 2.58703559718,
			"0.014": 2.20983319671,
			"0.015": 0.391631102748,
			"0.016": 0.0,
			"0.017": 0.0,
			"0.018": 0.0,
			"0.019": 0.0,
			"0.02": 0.0,
			"0.021": 0.0,
			"0.022": 0.0,
			"0.023": 0.0,
			"0.024": 0.0,
			"0.025": 0.0
		}
	}
}
