{
	 "smiles": "OC(=O)CCC1=C(F)C=CC(Br)=C1", 
	 "Tm": 358.15, 
	 "num_atms": 21, 
	 "gaussian": { 
		 "optdone": 1, 
		 "sigma_profile": "yes", 
		 "theory": "DFT", 
		 "functional": "B3LYP", 
		 "basiset": "6-31G**", 
		 "properties": { 
			 "R2extent": 4784.1173, 
			 "electric_dipole_moment_norm": 2.03479892127, 
			 "electric_quadrupole_moment_norm": 7.50556603328, 
			 "total_energy": -3169.48928608, 
			 "HOMO_LUMO_gap": 0.21592, 
			 "cosmo_polarized_energy": -9.86, 
			 "cosmo_cavitation_energy": 28.32, 
			 "cosmo_dispersion_energy": -20.41, 
			 "cosmo_repulsion_energy": 1.63, 
			 "cosmo_total_nonelectrostatic_energy": 9.53, 
			 "SMD_solvation_energy": 5.02 
		},
		"coords": [
			{
				"x": -0.6960820105,
				"y": 1.9774965945,
				"z": -3.9198915454,
				"element": "O" 
			},
			{
				"x": -1.00154139,
				"y": 1.5279679026,
				"z": -2.6809344881,
				"element": "C" 
			},
			{
				"x": -1.9041274823,
				"y": 0.7448097418,
				"z": -2.4752668935,
				"element": "O" 
			},
			{
				"x": -0.1133143484,
				"y": 2.1517831378,
				"z": -1.6249203731,
				"element": "C" 
			},
			{
				"x": -0.1580601883,
				"y": 1.3954582242,
				"z": -0.2865644862,
				"element": "C" 
			},
			{
				"x": 0.5558841384,
				"y": 0.062158855,
				"z": -0.325453407,
				"element": "C" 
			},
			{
				"x": 1.9477924204,
				"y": 0.0020089981,
				"z": -0.2221166693,
				"element": "C" 
			},
			{
				"x": 2.6318995812,
				"y": 1.1648225339,
				"z": -0.0908090805,
				"element": "F" 
			},
			{
				"x": 2.6598226249,
				"y": -1.1891475443,
				"z": -0.2481531442,
				"element": "C" 
			},
			{
				"x": 1.9632121899,
				"y": -2.389630519,
				"z": -0.3898089539,
				"element": "C" 
			},
			{
				"x": 0.5745775789,
				"y": -2.3548719,
				"z": -0.503413808,
				"element": "C" 
			},
			{
				"x": -0.3880901574,
				"y": -3.995256326,
				"z": -0.7031074196,
				"element": "Br" 
			},
			{
				"x": -0.1276631643,
				"y": -1.1507779405,
				"z": -0.4744850418,
				"element": "C" 
			},
			{
				"x": -1.3283317353,
				"y": 1.5550939268,
				"z": -4.5258855296,
				"element": "H" 
			},
			{
				"x": 0.9079728563,
				"y": 2.2279133789,
				"z": -2.0092904079,
				"element": "H" 
			},
			{
				"x": -0.4640822182,
				"y": 3.1831853526,
				"z": -1.487189393,
				"element": "H" 
			},
			{
				"x": -1.2020973339,
				"y": 1.2402334221,
				"z": -0.0035177678,
				"element": "H" 
			},
			{
				"x": 0.3043525585,
				"y": 2.0269020992,
				"z": 0.477999554,
				"element": "H" 
			},
			{
				"x": 3.740375669,
				"y": -1.1691626459,
				"z": -0.1574125506,
				"element": "H" 
			},
			{
				"x": 2.4935946584,
				"y": -3.3343296713,
				"z": -0.4122921883,
				"element": "H" 
			},
			{
				"x": -1.2057942474,
				"y": -1.1414576206,
				"z": -0.5822864061,
				"element": "H" 
			}
		],
		 "valence_orbital": [ 
			{
				"type": "occ",
				"energy": -0.30497,
				"method": "rhf"
			},
			{
				"type": "occ",
				"energy": -0.2855,
				"method": "rhf"
			},
			{
				"type": "occ",
				"energy": -0.28293,
				"method": "rhf"
			},
			{
				"type": "occ",
				"energy": -0.26368,
				"method": "rhf"
			},
			{
				"type": "occ",
				"energy": -0.23655,
				"method": "rhf"
			},
			{
				"type": "unocc",
				"energy": -0.02063,
				"method": "rhf"
			},
			{
				"type": "unocc",
				"energy": -0.01009,
				"method": "rhf"
			},
			{
				"type": "unocc",
				"energy": 0.00239,
				"method": "rhf"
			},
			{
				"type": "unocc",
				"energy": 0.00887,
				"method": "rhf"
			},
			{
				"type": "unocc",
				"energy": 0.07519,
				"method": "rhf"
			}
		],
		"cosmo_sigma_profile": { 
			"-0.025": 0.0,
			"-0.024": 0.0,
			"-0.023": 0.0,
			"-0.022": 0.0,
			"-0.021": 0.0,
			"-0.02": 0.0,
			"-0.019": 0.0439450275905,
			"-0.018": 0.781287463663,
			"-0.017": 1.08830705072,
			"-0.016": 0.724070570528,
			"-0.015": 0.493545198136,
			"-0.014": 0.664772563772,
			"-0.013": 0.531898539305,
			"-0.012": 0.894503135359,
			"-0.011": 1.00282688294,
			"-0.01": 0.63906861192,
			"-0.009": 0.195699944452,
			"-0.008": 2.47945482435,
			"-0.007": 6.34841771151,
			"-0.006": 9.09156779178,
			"-0.005": 11.9548893432,
			"-0.004": 15.1861206226,
			"-0.003": 17.8116933129,
			"-0.002": 14.6525164256,
			"-0.001": 16.6359132055,
			"0.0": 15.6410717566,
			"0.001": 16.8189310013,
			"0.002": 22.8266040109,
			"0.003": 21.9612075883,
			"0.004": 20.7613194931,
			"0.005": 10.6748754095,
			"0.006": 1.95393061934,
			"0.007": 3.45793500379,
			"0.008": 2.69265686155,
			"0.009": 2.82239391022,
			"0.01": 2.33230802056,
			"0.011": 3.28365870493,
			"0.012": 2.19397000327,
			"0.013": 0.0984166627362,
			"0.014": 0.0,
			"0.015": 0.0,
			"0.016": 0.0,
			"0.017": 0.0,
			"0.018": 0.0,
			"0.019": 0.0,
			"0.02": 0.0,
			"0.021": 0.0,
			"0.022": 0.0,
			"0.023": 0.0,
			"0.024": 0.0,
			"0.025": 0.0
		}
	}
}
