{
	 "smiles": "CCOC(=O)C1=C(N)C2=C(S1)N=CC(=C2)C(=O)OC", 
	 "Tm": 487.15, 
	 "num_atms": 31, 
	 "gaussian": { 
		 "optdone": 1, 
		 "sigma_profile": "yes", 
		 "theory": "DFT", 
		 "functional": "B3LYP", 
		 "basiset": "6-31G**", 
		 "properties": { 
			 "R2extent": 8183.4892, 
			 "electric_dipole_moment_norm": 7.05142398527, 
			 "electric_quadrupole_moment_norm": 8.75278916232, 
			 "total_energy": -1273.12666379, 
			 "HOMO_LUMO_gap": 0.14619, 
			 "cosmo_polarized_energy": -18.62, 
			 "cosmo_cavitation_energy": 37.66, 
			 "cosmo_dispersion_energy": -27.84, 
			 "cosmo_repulsion_energy": 2.1, 
			 "cosmo_total_nonelectrostatic_energy": 11.93, 
			 "SMD_solvation_energy": 6.8 
		},
		"coords": [
			{
				"x": -0.1541189723,
				"y": 6.5073366983,
				"z": 0.7775927139,
				"element": "C" 
			},
			{
				"x": -1.1592439096,
				"y": 5.5369215479,
				"z": 1.3783546256,
				"element": "C" 
			},
			{
				"x": -0.8286719936,
				"y": 4.1630813359,
				"z": 1.0513500983,
				"element": "O" 
			},
			{
				"x": 0.0789857387,
				"y": 3.5508022499,
				"z": 1.873294691,
				"element": "C" 
			},
			{
				"x": 0.58039728,
				"y": 4.1010149559,
				"z": 2.8376252975,
				"element": "O" 
			},
			{
				"x": 0.3597776961,
				"y": 2.1800299075,
				"z": 1.4697799067,
				"element": "C" 
			},
			{
				"x": -0.1453147448,
				"y": 1.4451686468,
				"z": 0.4089041029,
				"element": "C" 
			},
			{
				"x": -0.9981456842,
				"y": 1.8986892195,
				"z": -0.5652759737,
				"element": "N" 
			},
			{
				"x": 0.3904890962,
				"y": 0.0997207983,
				"z": 0.3979566229,
				"element": "C" 
			},
			{
				"x": 1.2889739302,
				"y": -0.1328590424,
				"z": 1.4717211483,
				"element": "C" 
			},
			{
				"x": 1.5006400991,
				"y": 1.2753012569,
				"z": 2.4800308648,
				"element": "S" 
			},
			{
				"x": 1.925382573,
				"y": -1.2844568884,
				"z": 1.704496221,
				"element": "N" 
			},
			{
				"x": 1.6827225146,
				"y": -2.272500654,
				"z": 0.8477065434,
				"element": "C" 
			},
			{
				"x": 0.8188422011,
				"y": -2.1618363146,
				"z": -0.2653840324,
				"element": "C" 
			},
			{
				"x": 0.1653467182,
				"y": -0.951595143,
				"z": -0.4946184527,
				"element": "C" 
			},
			{
				"x": 0.6552951766,
				"y": -3.3487461639,
				"z": -1.1444461234,
				"element": "C" 
			},
			{
				"x": 1.2138161504,
				"y": -4.4141413666,
				"z": -0.9726239437,
				"element": "O" 
			},
			{
				"x": -0.1956155691,
				"y": -3.113277364,
				"z": -2.1709635985,
				"element": "O" 
			},
			{
				"x": -0.3958188873,
				"y": -4.2214399111,
				"z": -3.0636661185,
				"element": "C" 
			},
			{
				"x": 0.8330997063,
				"y": 6.3578645631,
				"z": 1.2207391206,
				"element": "H" 
			},
			{
				"x": -0.0811419654,
				"y": 6.3752354889,
				"z": -0.3060334048,
				"element": "H" 
			},
			{
				"x": -0.4687204672,
				"y": 7.5369949892,
				"z": 0.9781260311,
				"element": "H" 
			},
			{
				"x": -2.1585493037,
				"y": 5.6816539908,
				"z": 0.9602453261,
				"element": "H" 
			},
			{
				"x": -1.2026303221,
				"y": 5.635096653,
				"z": 2.4649950142,
				"element": "H" 
			},
			{
				"x": -1.4288410834,
				"y": 2.7941765207,
				"z": -0.3800419074,
				"element": "H" 
			},
			{
				"x": -1.5867650252,
				"y": 1.2134871677,
				"z": -1.0144895676,
				"element": "H" 
			},
			{
				"x": 2.1896471396,
				"y": -3.2173577273,
				"z": 1.023128015,
				"element": "H" 
			},
			{
				"x": -0.4879478185,
				"y": -0.8465193986,
				"z": -1.3545515439,
				"element": "H" 
			},
			{
				"x": -0.8115608836,
				"y": -5.077343929,
				"z": -2.5263991307,
				"element": "H" 
			},
			{
				"x": -1.09528135,
				"y": -3.8666900557,
				"z": -3.8204602384,
				"element": "H" 
			},
			{
				"x": 0.5494519599,
				"y": -4.5198120318,
				"z": -3.5234923076,
				"element": "H" 
			}
		],
		 "valence_orbital": [ 
			{
				"type": "occ",
				"energy": -0.28775,
				"method": "rhf"
			},
			{
				"type": "occ",
				"energy": -0.27943,
				"method": "rhf"
			},
			{
				"type": "occ",
				"energy": -0.26907,
				"method": "rhf"
			},
			{
				"type": "occ",
				"energy": -0.25517,
				"method": "rhf"
			},
			{
				"type": "occ",
				"energy": -0.21319,
				"method": "rhf"
			},
			{
				"type": "unocc",
				"energy": -0.067,
				"method": "rhf"
			},
			{
				"type": "unocc",
				"energy": -0.05697,
				"method": "rhf"
			},
			{
				"type": "unocc",
				"energy": -0.00069,
				"method": "rhf"
			},
			{
				"type": "unocc",
				"energy": 0.02128,
				"method": "rhf"
			},
			{
				"type": "unocc",
				"energy": 0.04726,
				"method": "rhf"
			}
		],
		"cosmo_sigma_profile": { 
			"-0.025": 0.0,
			"-0.024": 0.0,
			"-0.023": 0.0,
			"-0.022": 0.0,
			"-0.021": 0.0,
			"-0.02": 0.0,
			"-0.019": 0.0,
			"-0.018": 0.0,
			"-0.017": 0.0,
			"-0.016": 0.0,
			"-0.015": 0.441555973594,
			"-0.014": 1.92801846834,
			"-0.013": 1.83939752283,
			"-0.012": 1.48271613816,
			"-0.011": 2.10374086532,
			"-0.01": 3.3818424601,
			"-0.009": 1.95175655773,
			"-0.008": 1.90476956073,
			"-0.007": 3.97501314217,
			"-0.006": 10.2017891736,
			"-0.005": 14.3464892735,
			"-0.004": 24.3101008166,
			"-0.003": 25.7978201626,
			"-0.002": 27.1720129709,
			"-0.001": 35.4949257595,
			"0.0": 30.0672894875,
			"0.001": 19.4650746655,
			"0.002": 18.9924192904,
			"0.003": 15.6721118296,
			"0.004": 12.0742125661,
			"0.005": 8.92187084315,
			"0.006": 5.20100334107,
			"0.007": 5.03550309754,
			"0.008": 4.11077517513,
			"0.009": 4.78377557932,
			"0.01": 5.95101648954,
			"0.011": 7.17271215233,
			"0.012": 7.30004033648,
			"0.013": 1.14147195474,
			"0.014": 0.527377284773,
			"0.015": 0.0689507150763,
			"0.016": 0.0,
			"0.017": 0.0,
			"0.018": 0.0,
			"0.019": 0.0,
			"0.02": 0.0,
			"0.021": 0.0,
			"0.022": 0.0,
			"0.023": 0.0,
			"0.024": 0.0,
			"0.025": 0.0
		}
	}
}
