{
	 "smiles": "CC(C)OC(=O)C1=C(C)NC(=O)NC1C1=CC=CO1", 
	 "Tm": 478.15, 
	 "num_atms": 35, 
	 "gaussian": { 
		 "optdone": 1, 
		 "sigma_profile": "yes", 
		 "theory": "DFT", 
		 "functional": "B3LYP", 
		 "basiset": "6-31G**", 
		 "properties": { 
			 "R2extent": 6291.781, 
			 "electric_dipole_moment_norm": 2.50297458637, 
			 "electric_quadrupole_moment_norm": 21.8658405057, 
			 "total_energy": -915.444988239, 
			 "HOMO_LUMO_gap": 0.18434, 
			 "cosmo_polarized_energy": -16.69, 
			 "cosmo_cavitation_energy": 38.8, 
			 "cosmo_dispersion_energy": -25.86, 
			 "cosmo_repulsion_energy": 2.03, 
			 "cosmo_total_nonelectrostatic_energy": 14.98, 
			 "SMD_solvation_energy": 8.53 
		},
		"coords": [
			{
				"x": 2.3868227223,
				"y": 2.5801426299,
				"z": 2.0833306488,
				"element": "C" 
			},
			{
				"x": 2.0649464285,
				"y": 1.6882319171,
				"z": 0.8921646856,
				"element": "C" 
			},
			{
				"x": 3.0678553299,
				"y": 0.5564202174,
				"z": 0.6898528193,
				"element": "C" 
			},
			{
				"x": 0.7488218695,
				"y": 1.1264333303,
				"z": 1.1592687843,
				"element": "O" 
			},
			{
				"x": 0.0006583804,
				"y": 0.7513580309,
				"z": 0.0889546405,
				"element": "C" 
			},
			{
				"x": 0.3923430554,
				"y": 0.8892196242,
				"z": -1.0612982602,
				"element": "O" 
			},
			{
				"x": -1.2880178489,
				"y": 0.1860984088,
				"z": 0.5276409614,
				"element": "C" 
			},
			{
				"x": -2.245672053,
				"y": -0.2475550621,
				"z": -0.341854616,
				"element": "C" 
			},
			{
				"x": -2.1773681472,
				"y": -0.2538041704,
				"z": -1.8436070808,
				"element": "C" 
			},
			{
				"x": -3.4396770287,
				"y": -0.7348171874,
				"z": 0.1609611134,
				"element": "N" 
			},
			{
				"x": -3.9067949045,
				"y": -0.5398872646,
				"z": 1.4682710294,
				"element": "C" 
			},
			{
				"x": -5.0459737332,
				"y": -0.8416892886,
				"z": 1.7870278046,
				"element": "O" 
			},
			{
				"x": -2.9905414826,
				"y": 0.0637441052,
				"z": 2.2844926198,
				"element": "N" 
			},
			{
				"x": -1.5400574575,
				"y": 0.0356662168,
				"z": 2.0201602395,
				"element": "C" 
			},
			{
				"x": -0.8896250718,
				"y": -1.20180267,
				"z": 2.5815336866,
				"element": "C" 
			},
			{
				"x": -0.3751434637,
				"y": -2.3460050242,
				"z": 2.0469353956,
				"element": "C" 
			},
			{
				"x": 0.0488590834,
				"y": -3.1580226063,
				"z": 3.1513560427,
				"element": "C" 
			},
			{
				"x": -0.2420263198,
				"y": -2.4499983947,
				"z": 4.2756792275,
				"element": "C" 
			},
			{
				"x": -0.8123516227,
				"y": -1.2534280437,
				"z": 3.94934103,
				"element": "O" 
			},
			{
				"x": 3.359132267,
				"y": 3.0614200893,
				"z": 1.9392797936,
				"element": "H" 
			},
			{
				"x": 2.426610066,
				"y": 1.995105485,
				"z": 3.0077798216,
				"element": "H" 
			},
			{
				"x": 1.6301970908,
				"y": 3.3610545975,
				"z": 2.2009110846,
				"element": "H" 
			},
			{
				"x": 1.9885796353,
				"y": 2.278911774,
				"z": -0.025113728,
				"element": "H" 
			},
			{
				"x": 4.0689961211,
				"y": 0.9662343702,
				"z": 0.5203204098,
				"element": "H" 
			},
			{
				"x": 2.7933302512,
				"y": -0.0459503253,
				"z": -0.1789617649,
				"element": "H" 
			},
			{
				"x": 3.1026381772,
				"y": -0.0884292209,
				"z": 1.5738217077,
				"element": "H" 
			},
			{
				"x": -2.9053854928,
				"y": 0.4590973822,
				"z": -2.2496768368,
				"element": "H" 
			},
			{
				"x": -2.4476719041,
				"y": -1.2480611011,
				"z": -2.2192406303,
				"element": "H" 
			},
			{
				"x": -1.185127183,
				"y": 0.0162125938,
				"z": -2.1927617393,
				"element": "H" 
			},
			{
				"x": -4.1529135863,
				"y": -1.0571202905,
				"z": -0.4776151421,
				"element": "H" 
			},
			{
				"x": -3.2767266976,
				"y": 0.0890778662,
				"z": 3.2539633626,
				"element": "H" 
			},
			{
				"x": -1.1138894143,
				"y": 0.8957157487,
				"z": 2.54273613,
				"element": "H" 
			},
			{
				"x": -0.30179294,
				"y": -2.5800603388,
				"z": 0.9953171028,
				"element": "H" 
			},
			{
				"x": 0.5081608681,
				"y": -4.1351041973,
				"z": 3.1073333596,
				"element": "H" 
			},
			{
				"x": -0.1128949943,
				"y": -2.6381092017,
				"z": 5.3302962966,
				"element": "H" 
			}
		],
		 "valence_orbital": [ 
			{
				"type": "occ",
				"energy": -0.2745,
				"method": "rhf"
			},
			{
				"type": "occ",
				"energy": -0.26648,
				"method": "rhf"
			},
			{
				"type": "occ",
				"energy": -0.25769,
				"method": "rhf"
			},
			{
				"type": "occ",
				"energy": -0.2321,
				"method": "rhf"
			},
			{
				"type": "occ",
				"energy": -0.22343,
				"method": "rhf"
			},
			{
				"type": "unocc",
				"energy": -0.03909,
				"method": "rhf"
			},
			{
				"type": "unocc",
				"energy": 0.00863,
				"method": "rhf"
			},
			{
				"type": "unocc",
				"energy": 0.05143,
				"method": "rhf"
			},
			{
				"type": "unocc",
				"energy": 0.07035,
				"method": "rhf"
			},
			{
				"type": "unocc",
				"energy": 0.07837,
				"method": "rhf"
			}
		],
		"cosmo_sigma_profile": { 
			"-0.025": 0.0,
			"-0.024": 0.0,
			"-0.023": 0.0,
			"-0.022": 0.0,
			"-0.021": 0.0,
			"-0.02": 0.0,
			"-0.019": 0.0,
			"-0.018": 0.0,
			"-0.017": 0.0,
			"-0.016": 0.149392977716,
			"-0.015": 0.819858718933,
			"-0.014": 2.07367034854,
			"-0.013": 1.09008162503,
			"-0.012": 1.70611471627,
			"-0.011": 2.25077218844,
			"-0.01": 1.81276943658,
			"-0.009": 4.05123508751,
			"-0.008": 3.96365534421,
			"-0.007": 6.38045917477,
			"-0.006": 11.6913909738,
			"-0.005": 10.7350404898,
			"-0.004": 22.0030910783,
			"-0.003": 25.6184880439,
			"-0.002": 28.4082233487,
			"-0.001": 31.609627834,
			"0.0": 32.4282589443,
			"0.001": 22.1931332686,
			"0.002": 15.601208934,
			"0.003": 14.98881926,
			"0.004": 14.5424610269,
			"0.005": 12.5019589813,
			"0.006": 7.80208514841,
			"0.007": 4.64530881859,
			"0.008": 3.3500399432,
			"0.009": 2.60595429812,
			"0.01": 3.32986727614,
			"0.011": 3.74112325717,
			"0.012": 4.22962368389,
			"0.013": 7.0615147483,
			"0.014": 3.26890375638,
			"0.015": 0.0341717882079,
			"0.016": 0.0,
			"0.017": 0.0,
			"0.018": 0.0,
			"0.019": 0.0,
			"0.02": 0.0,
			"0.021": 0.0,
			"0.022": 0.0,
			"0.023": 0.0,
			"0.024": 0.0,
			"0.025": 0.0
		}
	}
}
