{
	 "smiles": "CC(=O)C1=CC=C(C=C1)N1C=CN=C1", 
	 "Tm": 389.15, 
	 "num_atms": 24, 
	 "gaussian": { 
		 "optdone": 1, 
		 "sigma_profile": "yes", 
		 "theory": "DFT", 
		 "functional": "B3LYP", 
		 "basiset": "6-31G**", 
		 "properties": { 
			 "R2extent": 3900.8608, 
			 "electric_dipole_moment_norm": 1.46859416109, 
			 "electric_quadrupole_moment_norm": 23.3828231373, 
			 "total_energy": -609.915277813, 
			 "HOMO_LUMO_gap": 0.16703, 
			 "cosmo_polarized_energy": -14.82, 
			 "cosmo_cavitation_energy": 28.31, 
			 "cosmo_dispersion_energy": -20.83, 
			 "cosmo_repulsion_energy": 1.58, 
			 "cosmo_total_nonelectrostatic_energy": 9.05, 
			 "SMD_solvation_energy": 4.71 
		},
		"coords": [
			{
				"x": -0.6753719849,
				"y": 3.9035442021,
				"z": 0.598720129,
				"element": "C" 
			},
			{
				"x": 0.4437766914,
				"y": 2.8759748667,
				"z": 0.6015430309,
				"element": "C" 
			},
			{
				"x": 1.5540353186,
				"y": 3.1647030218,
				"z": 1.0232901454,
				"element": "O" 
			},
			{
				"x": 0.1642509217,
				"y": 1.5019361126,
				"z": 0.0773741154,
				"element": "C" 
			},
			{
				"x": -1.0845089524,
				"y": 1.1049889496,
				"z": -0.4205824754,
				"element": "C" 
			},
			{
				"x": -1.2919585692,
				"y": -0.1853601159,
				"z": -0.8964348513,
				"element": "C" 
			},
			{
				"x": -0.2452172359,
				"y": -1.1204000442,
				"z": -0.8860948096,
				"element": "C" 
			},
			{
				"x": 1.0093093924,
				"y": -0.7295940079,
				"z": -0.3883855904,
				"element": "C" 
			},
			{
				"x": 1.2039062044,
				"y": 0.5604140352,
				"z": 0.0835331856,
				"element": "C" 
			},
			{
				"x": -0.4489447958,
				"y": -2.435685922,
				"z": -1.3688867643,
				"element": "N" 
			},
			{
				"x": 0.4844450457,
				"y": -3.4677197023,
				"z": -1.4254253049,
				"element": "C" 
			},
			{
				"x": -0.1714046197,
				"y": -4.5389457065,
				"z": -1.9631105022,
				"element": "C" 
			},
			{
				"x": -1.4840197305,
				"y": -4.2189113849,
				"z": -2.2471110949,
				"element": "N" 
			},
			{
				"x": -1.6172809596,
				"y": -2.9682846033,
				"z": -1.8844511586,
				"element": "C" 
			},
			{
				"x": -1.0444094064,
				"y": 4.0810088565,
				"z": -0.4176002432,
				"element": "H" 
			},
			{
				"x": -0.292515227,
				"y": 4.8369234221,
				"z": 1.0119233729,
				"element": "H" 
			},
			{
				"x": -1.5250949304,
				"y": 3.5619294048,
				"z": 1.2002590722,
				"element": "H" 
			},
			{
				"x": -1.9144771632,
				"y": 1.8035443457,
				"z": -0.4425901121,
				"element": "H" 
			},
			{
				"x": -2.2710133815,
				"y": -0.4537672637,
				"z": -1.2732625866,
				"element": "H" 
			},
			{
				"x": 1.8357954811,
				"y": -1.4291725159,
				"z": -0.3675975374,
				"element": "H" 
			},
			{
				"x": 2.1700712509,
				"y": 0.8681534863,
				"z": 0.4690665727,
				"element": "H" 
			},
			{
				"x": 1.5003435312,
				"y": -3.3521803946,
				"z": -1.0890155474,
				"element": "H" 
			},
			{
				"x": 0.2249531808,
				"y": -5.5246372749,
				"z": -2.1631575076,
				"element": "H" 
			},
			{
				"x": -2.5276700617,
				"y": -2.3954617673,
				"z": -1.9685035382,
				"element": "H" 
			}
		],
		 "valence_orbital": [ 
			{
				"type": "occ",
				"energy": -0.27696,
				"method": "rhf"
			},
			{
				"type": "occ",
				"energy": -0.2752,
				"method": "rhf"
			},
			{
				"type": "occ",
				"energy": -0.25425,
				"method": "rhf"
			},
			{
				"type": "occ",
				"energy": -0.25095,
				"method": "rhf"
			},
			{
				"type": "occ",
				"energy": -0.23466,
				"method": "rhf"
			},
			{
				"type": "unocc",
				"energy": -0.06763,
				"method": "rhf"
			},
			{
				"type": "unocc",
				"energy": -0.02563,
				"method": "rhf"
			},
			{
				"type": "unocc",
				"energy": 0.00076,
				"method": "rhf"
			},
			{
				"type": "unocc",
				"energy": 0.05675,
				"method": "rhf"
			},
			{
				"type": "unocc",
				"energy": 0.06279,
				"method": "rhf"
			}
		],
		"cosmo_sigma_profile": { 
			"-0.025": 0.0,
			"-0.024": 0.0,
			"-0.023": 0.0,
			"-0.022": 0.0,
			"-0.021": 0.0,
			"-0.02": 0.0,
			"-0.019": 0.0,
			"-0.018": 0.0,
			"-0.017": 0.0,
			"-0.016": 0.0,
			"-0.015": 0.0,
			"-0.014": 0.0,
			"-0.013": 0.0,
			"-0.012": 0.129455804463,
			"-0.011": 2.37396302133,
			"-0.01": 3.26559036068,
			"-0.009": 4.39880975783,
			"-0.008": 4.11683701516,
			"-0.007": 8.42030538741,
			"-0.006": 17.2140478004,
			"-0.005": 14.0555234369,
			"-0.004": 14.6753466458,
			"-0.003": 13.5929656675,
			"-0.002": 14.2786397137,
			"-0.001": 19.6732662917,
			"0.0": 15.4352147778,
			"0.001": 14.3602568114,
			"0.002": 17.3145148492,
			"0.003": 16.9235468237,
			"0.004": 7.88853831845,
			"0.005": 5.88756504888,
			"0.006": 4.51249055057,
			"0.007": 2.29372416171,
			"0.008": 3.35914148267,
			"0.009": 3.65127205098,
			"0.01": 4.04316311923,
			"0.011": 3.39451876712,
			"0.012": 5.02445194174,
			"0.013": 2.54700949676,
			"0.014": 1.55542742206,
			"0.015": 1.07848934599,
			"0.016": 0.967399679,
			"0.017": 1.01689524413,
			"0.018": 0.247654422755,
			"0.019": 0.0,
			"0.02": 0.0,
			"0.021": 0.0,
			"0.022": 0.0,
			"0.023": 0.0,
			"0.024": 0.0,
			"0.025": 0.0
		}
	}
}
