{
	 "smiles": "CCCC1=NC(=C(N1CC1=CC=C(C=C1)C1=CC=CC=C1C1=NNN=N1)C(=O)OCC1=C(C)OC(=O)O1)C(C)(C)O", 
	 "Tm": 450.65, 
	 "num_atms": 71, 
	 "gaussian": { 
		 "optdone": 1, 
		 "sigma_profile": "yes", 
		 "theory": "DFT", 
		 "functional": "B3LYP", 
		 "basiset": "6-31G**", 
		 "properties": { 
			 "R2extent": 33283.0348, 
			 "electric_dipole_moment_norm": 5.0762638249, 
			 "electric_quadrupole_moment_norm": 59.6416788568, 
			 "total_energy": -1902.9975437, 
			 "HOMO_LUMO_gap": 0.18357, 
			 "cosmo_polarized_energy": -31.26, 
			 "cosmo_cavitation_energy": 75.25, 
			 "cosmo_dispersion_energy": -47.81, 
			 "cosmo_repulsion_energy": 3.6, 
			 "cosmo_total_nonelectrostatic_energy": 31.04, 
			 "SMD_solvation_energy": 11.42 
		},
		"coords": [
			{
				"x": -2.433932146,
				"y": 0.6204348904,
				"z": -4.5267385552,
				"element": "C" 
			},
			{
				"x": -2.2238353707,
				"y": -0.0940770504,
				"z": -3.1895363502,
				"element": "C" 
			},
			{
				"x": -2.8329147039,
				"y": 0.6854988272,
				"z": -2.0045509532,
				"element": "C" 
			},
			{
				"x": -2.6830847887,
				"y": -0.0329898788,
				"z": -0.6982378954,
				"element": "C" 
			},
			{
				"x": -3.4230873173,
				"y": -1.0797906529,
				"z": -0.3548390996,
				"element": "N" 
			},
			{
				"x": -3.009495097,
				"y": -1.4651376963,
				"z": 0.8874982971,
				"element": "C" 
			},
			{
				"x": -1.9838271883,
				"y": -0.627038025,
				"z": 1.3179545929,
				"element": "C" 
			},
			{
				"x": -1.7704988704,
				"y": 0.2729952454,
				"z": 0.2702666924,
				"element": "N" 
			},
			{
				"x": -0.8187696315,
				"y": 1.3989483614,
				"z": 0.2533561915,
				"element": "C" 
			},
			{
				"x": 0.343797979,
				"y": 1.2124442963,
				"z": -0.7035797241,
				"element": "C" 
			},
			{
				"x": 0.5681894954,
				"y": 2.1312338063,
				"z": -1.7350778351,
				"element": "C" 
			},
			{
				"x": 1.6467729962,
				"y": 1.9816323647,
				"z": -2.6051910926,
				"element": "C" 
			},
			{
				"x": 2.5312591111,
				"y": 0.9028921049,
				"z": -2.4677621997,
				"element": "C" 
			},
			{
				"x": 2.3022377898,
				"y": -0.0166383565,
				"z": -1.4320667557,
				"element": "C" 
			},
			{
				"x": 1.2307658662,
				"y": 0.1383725185,
				"z": -0.5555119271,
				"element": "C" 
			},
			{
				"x": 3.6426922355,
				"y": 0.6886098496,
				"z": -3.4388417553,
				"element": "C" 
			},
			{
				"x": 3.659839044,
				"y": -0.5143943789,
				"z": -4.1623488259,
				"element": "C" 
			},
			{
				"x": 4.6146900242,
				"y": -0.7654023883,
				"z": -5.145609828,
				"element": "C" 
			},
			{
				"x": 5.58084238,
				"y": 0.1987437461,
				"z": -5.4336104462,
				"element": "C" 
			},
			{
				"x": 5.5964721054,
				"y": 1.3906344765,
				"z": -4.7159316153,
				"element": "C" 
			},
			{
				"x": 4.6499571541,
				"y": 1.6449960071,
				"z": -3.7095622372,
				"element": "C" 
			},
			{
				"x": 4.8056641745,
				"y": 2.9007855659,
				"z": -2.9554542051,
				"element": "C" 
			},
			{
				"x": 4.4851368029,
				"y": 3.0854274579,
				"z": -1.6722799543,
				"element": "N" 
			},
			{
				"x": 4.8811609327,
				"y": 4.338372089,
				"z": -1.486770359,
				"element": "N" 
			},
			{
				"x": 5.4203884209,
				"y": 4.9212757973,
				"z": -2.5534242119,
				"element": "N" 
			},
			{
				"x": 5.3803651773,
				"y": 4.0189505589,
				"z": -3.4967880172,
				"element": "N" 
			},
			{
				"x": -1.1377805063,
				"y": -0.6508950024,
				"z": 2.5135439878,
				"element": "C" 
			},
			{
				"x": 0.0553166773,
				"y": -0.3808766557,
				"z": 2.5384858808,
				"element": "O" 
			},
			{
				"x": -1.8290556649,
				"y": -1.0131920225,
				"z": 3.6146170703,
				"element": "O" 
			},
			{
				"x": -1.020736286,
				"y": -1.409286561,
				"z": 4.7490008213,
				"element": "C" 
			},
			{
				"x": -1.9038361535,
				"y": -1.6773344933,
				"z": 5.9059595458,
				"element": "C" 
			},
			{
				"x": -2.6081616791,
				"y": -2.7479313985,
				"z": 6.2961691885,
				"element": "C" 
			},
			{
				"x": -2.8289219378,
				"y": -4.1006494212,
				"z": 5.7290405397,
				"element": "C" 
			},
			{
				"x": -3.2481993024,
				"y": -2.4314602915,
				"z": 7.4875699308,
				"element": "O" 
			},
			{
				"x": -2.9249723698,
				"y": -1.1358682962,
				"z": 7.812499659,
				"element": "C" 
			},
			{
				"x": -3.3043158877,
				"y": -0.5409545378,
				"z": 8.7773124531,
				"element": "O" 
			},
			{
				"x": -2.0950252935,
				"y": -0.656042008,
				"z": 6.8394698094,
				"element": "O" 
			},
			{
				"x": -3.6101733035,
				"y": -2.696329749,
				"z": 1.557868929,
				"element": "C" 
			},
			{
				"x": -4.6533798117,
				"y": -2.2958130955,
				"z": 2.6089689845,
				"element": "C" 
			},
			{
				"x": -4.2388430868,
				"y": -3.622575463,
				"z": 0.5071386001,
				"element": "C" 
			},
			{
				"x": -2.5856307819,
				"y": -3.4223128814,
				"z": 2.2718466873,
				"element": "O" 
			},
			{
				"x": -3.4993672851,
				"y": 0.7694363575,
				"z": -4.7361231885,
				"element": "H" 
			},
			{
				"x": -2.0101567147,
				"y": 0.0417272967,
				"z": -5.3534989811,
				"element": "H" 
			},
			{
				"x": -1.9527287577,
				"y": 1.6051012326,
				"z": -4.5313556361,
				"element": "H" 
			},
			{
				"x": -1.1528747517,
				"y": -0.2419301767,
				"z": -3.0098301953,
				"element": "H" 
			},
			{
				"x": -2.6811514068,
				"y": -1.08952682,
				"z": -3.215043981,
				"element": "H" 
			},
			{
				"x": -2.3855348645,
				"y": 1.6830761324,
				"z": -1.9521708888,
				"element": "H" 
			},
			{
				"x": -3.9053774808,
				"y": 0.8234195411,
				"z": -2.1819453853,
				"element": "H" 
			},
			{
				"x": -1.3728343441,
				"y": 2.3068280412,
				"z": -0.002208702,
				"element": "H" 
			},
			{
				"x": -0.4472220379,
				"y": 1.509630117,
				"z": 1.2719352963,
				"element": "H" 
			},
			{
				"x": -0.1084251079,
				"y": 2.973063452,
				"z": -1.864341515,
				"element": "H" 
			},
			{
				"x": 1.7956245515,
				"y": 2.6986819228,
				"z": -3.4070782022,
				"element": "H" 
			},
			{
				"x": 2.9877789991,
				"y": -0.8489699247,
				"z": -1.3008843129,
				"element": "H" 
			},
			{
				"x": 1.0875895606,
				"y": -0.5591952215,
				"z": 0.2635934505,
				"element": "H" 
			},
			{
				"x": 2.8852887571,
				"y": -1.248724423,
				"z": -3.9620963127,
				"element": "H" 
			},
			{
				"x": 4.5945763086,
				"y": -1.7040006157,
				"z": -5.6917911647,
				"element": "H" 
			},
			{
				"x": 6.3244377272,
				"y": 0.0212577593,
				"z": -6.2046030385,
				"element": "H" 
			},
			{
				"x": 6.3539358878,
				"y": 2.1414266249,
				"z": -4.9137345928,
				"element": "H" 
			},
			{
				"x": 4.785641182,
				"y": 4.8149950217,
				"z": -0.6001364231,
				"element": "H" 
			},
			{
				"x": -0.3049014844,
				"y": -0.6202575949,
				"z": 4.9885160345,
				"element": "H" 
			},
			{
				"x": -0.463612885,
				"y": -2.3087207659,
				"z": 4.4724815082,
				"element": "H" 
			},
			{
				"x": -2.499363659,
				"y": -4.1325253294,
				"z": 4.6881598749,
				"element": "H" 
			},
			{
				"x": -3.8968994325,
				"y": -4.3399281839,
				"z": 5.7524414345,
				"element": "H" 
			},
			{
				"x": -2.3052972434,
				"y": -4.8683351935,
				"z": 6.3103687628,
				"element": "H" 
			},
			{
				"x": -5.0796165865,
				"y": -3.1936247669,
				"z": 3.0677735247,
				"element": "H" 
			},
			{
				"x": -5.4605371282,
				"y": -1.7284632421,
				"z": 2.1373545027,
				"element": "H" 
			},
			{
				"x": -4.1962836056,
				"y": -1.6809815005,
				"z": 3.3851120969,
				"element": "H" 
			},
			{
				"x": -5.0372193269,
				"y": -3.1180349293,
				"z": -0.0396352074,
				"element": "H" 
			},
			{
				"x": -3.493628886,
				"y": -3.9391707712,
				"z": -0.2311221204,
				"element": "H" 
			},
			{
				"x": -4.6399836036,
				"y": -4.5092018442,
				"z": 1.0063555937,
				"element": "H" 
			},
			{
				"x": -1.9876275694,
				"y": -3.7914098548,
				"z": 1.6075537499,
				"element": "H" 
			}
		],
		 "valence_orbital": [ 
			{
				"type": "occ",
				"energy": -0.25851,
				"method": "rhf"
			},
			{
				"type": "occ",
				"energy": -0.25265,
				"method": "rhf"
			},
			{
				"type": "occ",
				"energy": -0.23935,
				"method": "rhf"
			},
			{
				"type": "occ",
				"energy": -0.2364,
				"method": "rhf"
			},
			{
				"type": "occ",
				"energy": -0.2292,
				"method": "rhf"
			},
			{
				"type": "unocc",
				"energy": -0.04563,
				"method": "rhf"
			},
			{
				"type": "unocc",
				"energy": -0.03734,
				"method": "rhf"
			},
			{
				"type": "unocc",
				"energy": -0.02904,
				"method": "rhf"
			},
			{
				"type": "unocc",
				"energy": -0.02394,
				"method": "rhf"
			},
			{
				"type": "unocc",
				"energy": -0.0091,
				"method": "rhf"
			}
		],
		"cosmo_sigma_profile": { 
			"-0.025": 0.0,
			"-0.024": 0.0,
			"-0.023": 0.0,
			"-0.022": 0.0,
			"-0.021": 0.0,
			"-0.02": 0.347400021568,
			"-0.019": 2.06820974516,
			"-0.018": 1.34381252407,
			"-0.017": 1.08066465519,
			"-0.016": 0.517276037091,
			"-0.015": 2.16259638829,
			"-0.014": 1.92277144645,
			"-0.013": 1.07400835422,
			"-0.012": 2.0767411992,
			"-0.011": 1.33089069309,
			"-0.01": 1.42396446022,
			"-0.009": 1.9855173508,
			"-0.008": 6.19690483226,
			"-0.007": 12.0231667818,
			"-0.006": 26.6678083891,
			"-0.005": 30.6875913449,
			"-0.004": 38.056237366,
			"-0.003": 50.9185904659,
			"-0.002": 52.5716285429,
			"-0.001": 52.4112756482,
			"0.0": 54.1161549631,
			"0.001": 54.3321327454,
			"0.002": 38.3278937422,
			"0.003": 35.2844043121,
			"0.004": 30.4993519913,
			"0.005": 17.7966013216,
			"0.006": 15.5286100842,
			"0.007": 12.7727398365,
			"0.008": 9.50581908371,
			"0.009": 10.2723721223,
			"0.01": 11.9459683694,
			"0.011": 12.8967877354,
			"0.012": 3.90713109051,
			"0.013": 2.00296246994,
			"0.014": 1.03073255662,
			"0.015": 0.402222323276,
			"0.016": 0.0,
			"0.017": 0.0,
			"0.018": 0.0,
			"0.019": 0.0,
			"0.02": 0.0,
			"0.021": 0.0,
			"0.022": 0.0,
			"0.023": 0.0,
			"0.024": 0.0,
			"0.025": 0.0
		}
	}
}
