{
	 "smiles": "CC1=C(SCCO1)C(=O)NC1=CC=CC=C1", 
	 "Tm": 364.65, 
	 "num_atms": 29, 
	 "gaussian": { 
		 "optdone": 1, 
		 "sigma_profile": "yes", 
		 "theory": "DFT", 
		 "functional": "B3LYP", 
		 "basiset": "6-31G**", 
		 "properties": { 
			 "R2extent": 4906.0744, 
			 "electric_dipole_moment_norm": 4.03498581286, 
			 "electric_quadrupole_moment_norm": 22.4747107038, 
			 "total_energy": -1068.48464847, 
			 "HOMO_LUMO_gap": 0.17156, 
			 "cosmo_polarized_energy": -15.59, 
			 "cosmo_cavitation_energy": 33.28, 
			 "cosmo_dispersion_energy": -23.73, 
			 "cosmo_repulsion_energy": 1.82, 
			 "cosmo_total_nonelectrostatic_energy": 11.36, 
			 "SMD_solvation_energy": 6.1 
		},
		"coords": [
			{
				"x": -0.647827603,
				"y": 0.7592266199,
				"z": -2.9122993371,
				"element": "C" 
			},
			{
				"x": -0.0158704089,
				"y": 1.0116933275,
				"z": -1.5739203079,
				"element": "C" 
			},
			{
				"x": 1.2224437478,
				"y": 0.6251548971,
				"z": -1.1824972786,
				"element": "C" 
			},
			{
				"x": 2.0284117112,
				"y": 1.1698119762,
				"z": 0.3211953889,
				"element": "S" 
			},
			{
				"x": 0.7867422492,
				"y": 2.390030836,
				"z": 0.8666655061,
				"element": "C" 
			},
			{
				"x": -0.6211112362,
				"y": 1.8823149097,
				"z": 0.5859052637,
				"element": "C" 
			},
			{
				"x": -0.8712689912,
				"y": 1.7614412118,
				"z": -0.8131838098,
				"element": "O" 
			},
			{
				"x": 2.1493616966,
				"y": -0.1913890368,
				"z": -2.0263449136,
				"element": "C" 
			},
			{
				"x": 3.3146924482,
				"y": 0.1379750072,
				"z": -2.2101315142,
				"element": "O" 
			},
			{
				"x": 1.6664655139,
				"y": -1.3509191514,
				"z": -2.6179236971,
				"element": "N" 
			},
			{
				"x": 0.5888863001,
				"y": -2.2002637361,
				"z": -2.2626353798,
				"element": "C" 
			},
			{
				"x": 0.1553314147,
				"y": -2.3521884011,
				"z": -0.9372778928,
				"element": "C" 
			},
			{
				"x": -0.8914786673,
				"y": -3.2257874246,
				"z": -0.6458162505,
				"element": "C" 
			},
			{
				"x": -1.4983096188,
				"y": -3.977266618,
				"z": -1.6547218521,
				"element": "C" 
			},
			{
				"x": -1.0497775929,
				"y": -3.8445832022,
				"z": -2.9696131138,
				"element": "C" 
			},
			{
				"x": -0.0200131824,
				"y": -2.9556050423,
				"z": -3.2751121589,
				"element": "C" 
			},
			{
				"x": -1.480067798,
				"y": 0.0527253507,
				"z": -2.8184706204,
				"element": "H" 
			},
			{
				"x": -1.0588508427,
				"y": 1.7033114841,
				"z": -3.285127402,
				"element": "H" 
			},
			{
				"x": 0.0634353139,
				"y": 0.3695355029,
				"z": -3.6379726508,
				"element": "H" 
			},
			{
				"x": 0.9375235579,
				"y": 2.5337487375,
				"z": 1.9399163012,
				"element": "H" 
			},
			{
				"x": 0.9479943731,
				"y": 3.3449238278,
				"z": 0.3586634328,
				"element": "H" 
			},
			{
				"x": -1.371299068,
				"y": 2.5932115271,
				"z": 0.9438737132,
				"element": "H" 
			},
			{
				"x": -0.7853075254,
				"y": 0.9162035417,
				"z": 1.078016986,
				"element": "H" 
			},
			{
				"x": 2.3477837338,
				"y": -1.7394446452,
				"z": -3.2598337842,
				"element": "H" 
			},
			{
				"x": 0.643866928,
				"y": -1.8002599738,
				"z": -0.1424702159,
				"element": "H" 
			},
			{
				"x": -1.2194565688,
				"y": -3.334393992,
				"z": 0.3841313934,
				"element": "H" 
			},
			{
				"x": -2.3056461427,
				"y": -4.6631464972,
				"z": -1.4170841222,
				"element": "H" 
			},
			{
				"x": -1.5075739979,
				"y": -4.4257408764,
				"z": -3.7649149272,
				"element": "H" 
			},
			{
				"x": 0.3164202559,
				"y": -2.8376201599,
				"z": -4.3017167566,
				"element": "H" 
			}
		],
		 "valence_orbital": [ 
			{
				"type": "occ",
				"energy": -0.28215,
				"method": "rhf"
			},
			{
				"type": "occ",
				"energy": -0.25758,
				"method": "rhf"
			},
			{
				"type": "occ",
				"energy": -0.25039,
				"method": "rhf"
			},
			{
				"type": "occ",
				"energy": -0.22643,
				"method": "rhf"
			},
			{
				"type": "occ",
				"energy": -0.19796,
				"method": "rhf"
			},
			{
				"type": "unocc",
				"energy": -0.0264,
				"method": "rhf"
			},
			{
				"type": "unocc",
				"energy": -0.00857,
				"method": "rhf"
			},
			{
				"type": "unocc",
				"energy": 0.00366,
				"method": "rhf"
			},
			{
				"type": "unocc",
				"energy": 0.03444,
				"method": "rhf"
			},
			{
				"type": "unocc",
				"energy": 0.06111,
				"method": "rhf"
			}
		],
		"cosmo_sigma_profile": { 
			"-0.025": 0.0,
			"-0.024": 0.0,
			"-0.023": 0.0,
			"-0.022": 0.0,
			"-0.021": 0.0,
			"-0.02": 0.0,
			"-0.019": 0.0,
			"-0.018": 0.0,
			"-0.017": 0.0,
			"-0.016": 0.0,
			"-0.015": 0.0431240853652,
			"-0.014": 0.775477911373,
			"-0.013": 0.952765126815,
			"-0.012": 0.88691946006,
			"-0.011": 1.08119223234,
			"-0.01": 0.980100356953,
			"-0.009": 1.34380446876,
			"-0.008": 1.92961753755,
			"-0.007": 6.48981397444,
			"-0.006": 16.0010109115,
			"-0.005": 21.5869456025,
			"-0.004": 24.8646243697,
			"-0.003": 24.3759484786,
			"-0.002": 18.9224216176,
			"-0.001": 20.4959528836,
			"0.0": 19.2363264758,
			"0.001": 15.1814295144,
			"0.002": 13.259582319,
			"0.003": 13.0722326779,
			"0.004": 14.1470040005,
			"0.005": 13.0311564757,
			"0.006": 7.51591280773,
			"0.007": 3.74474384586,
			"0.008": 4.67478765089,
			"0.009": 3.55270756924,
			"0.01": 2.25894409414,
			"0.011": 2.75897809442,
			"0.012": 2.79707183149,
			"0.013": 5.67216346832,
			"0.014": 2.94995988358,
			"0.015": 1.07485934695,
			"0.016": 0.0473999647726,
			"0.017": 0.0,
			"0.018": 0.0,
			"0.019": 0.0,
			"0.02": 0.0,
			"0.021": 0.0,
			"0.022": 0.0,
			"0.023": 0.0,
			"0.024": 0.0,
			"0.025": 0.0
		}
	}
}
