{
	 "smiles": "CN1C(Cl)=CN=C1CC(N)=S", 
	 "Tm": 416.15, 
	 "num_atms": 19, 
	 "gaussian": { 
		 "optdone": 1, 
		 "sigma_profile": "yes", 
		 "theory": "DFT", 
		 "functional": "B3LYP", 
		 "basiset": "6-31G**", 
		 "properties": { 
			 "R2extent": 4010.6793, 
			 "electric_dipole_moment_norm": 3.52618719441, 
			 "electric_quadrupole_moment_norm": 20.6911441192, 
			 "total_energy": -1256.09899064, 
			 "HOMO_LUMO_gap": 0.17549, 
			 "cosmo_polarized_energy": -14.23, 
			 "cosmo_cavitation_energy": 26.27, 
			 "cosmo_dispersion_energy": -19.76, 
			 "cosmo_repulsion_energy": 1.56, 
			 "cosmo_total_nonelectrostatic_energy": 8.07, 
			 "SMD_solvation_energy": 2.43 
		},
		"coords": [
			{
				"x": -0.088278818,
				"y": 3.0681119878,
				"z": 2.2595473344,
				"element": "C" 
			},
			{
				"x": -0.6477047402,
				"y": 2.2576922029,
				"z": 1.1831586756,
				"element": "N" 
			},
			{
				"x": -1.7162674715,
				"y": 2.5826454881,
				"z": 0.3613956768,
				"element": "C" 
			},
			{
				"x": -2.5757870733,
				"y": 4.0726629769,
				"z": 0.4971301329,
				"element": "Cl" 
			},
			{
				"x": -1.8956027667,
				"y": 1.532921124,
				"z": -0.4993837605,
				"element": "C" 
			},
			{
				"x": -0.9548183144,
				"y": 0.5681757205,
				"z": -0.2378930328,
				"element": "N" 
			},
			{
				"x": -0.2211129968,
				"y": 1.0217484202,
				"z": 0.7659904263,
				"element": "C" 
			},
			{
				"x": 0.9213925762,
				"y": 0.2697180106,
				"z": 1.3849463545,
				"element": "C" 
			},
			{
				"x": 0.5487106058,
				"y": -1.098332027,
				"z": 1.9720815914,
				"element": "C" 
			},
			{
				"x": -0.2873877658,
				"y": -1.8131235442,
				"z": 1.2101743714,
				"element": "N" 
			},
			{
				"x": 1.2110758875,
				"y": -1.637088992,
				"z": 3.4025836644,
				"element": "S" 
			},
			{
				"x": -0.7784589758,
				"y": 3.8809463898,
				"z": 2.4821439348,
				"element": "H" 
			},
			{
				"x": 0.8758376242,
				"y": 3.4946574612,
				"z": 1.9676647811,
				"element": "H" 
			},
			{
				"x": 0.0394653004,
				"y": 2.4604669954,
				"z": 3.1573997201,
				"element": "H" 
			},
			{
				"x": -2.6366833084,
				"y": 1.430395887,
				"z": -1.2779375354,
				"element": "H" 
			},
			{
				"x": 1.6768888522,
				"y": 0.0840548554,
				"z": 0.6096251307,
				"element": "H" 
			},
			{
				"x": 1.407832047,
				"y": 0.8481574645,
				"z": 2.1679018897,
				"element": "H" 
			},
			{
				"x": -0.5776472445,
				"y": -2.7249978066,
				"z": 1.5318013853,
				"element": "H" 
			},
			{
				"x": -0.724153418,
				"y": -1.3833126144,
				"z": 0.3949692593,
				"element": "H" 
			}
		],
		 "valence_orbital": [ 
			{
				"type": "occ",
				"energy": -0.29543,
				"method": "rhf"
			},
			{
				"type": "occ",
				"energy": -0.29269,
				"method": "rhf"
			},
			{
				"type": "occ",
				"energy": -0.23908,
				"method": "rhf"
			},
			{
				"type": "occ",
				"energy": -0.22696,
				"method": "rhf"
			},
			{
				"type": "occ",
				"energy": -0.204,
				"method": "rhf"
			},
			{
				"type": "unocc",
				"energy": -0.02851,
				"method": "rhf"
			},
			{
				"type": "unocc",
				"energy": 0.00138,
				"method": "rhf"
			},
			{
				"type": "unocc",
				"energy": 0.02151,
				"method": "rhf"
			},
			{
				"type": "unocc",
				"energy": 0.04023,
				"method": "rhf"
			},
			{
				"type": "unocc",
				"energy": 0.07314,
				"method": "rhf"
			}
		],
		"cosmo_sigma_profile": { 
			"-0.025": 0.0,
			"-0.024": 0.0,
			"-0.023": 0.0,
			"-0.022": 0.0,
			"-0.021": 0.0,
			"-0.02": 0.0,
			"-0.019": 0.0,
			"-0.018": 0.0,
			"-0.017": 0.0,
			"-0.016": 0.0292481533385,
			"-0.015": 0.711613297704,
			"-0.014": 1.05026091366,
			"-0.013": 1.20155488902,
			"-0.012": 1.04877901683,
			"-0.011": 1.93035017009,
			"-0.01": 1.42816802622,
			"-0.009": 0.965042813172,
			"-0.008": 3.83277741649,
			"-0.007": 12.3903919535,
			"-0.006": 14.1527562399,
			"-0.005": 14.6444250089,
			"-0.004": 16.4685391854,
			"-0.003": 14.2560387739,
			"-0.002": 10.5931680216,
			"-0.001": 9.25880038474,
			"0.0": 12.0143377685,
			"0.001": 14.6903583972,
			"0.002": 13.5659806831,
			"0.003": 15.7915487471,
			"0.004": 10.6444781079,
			"0.005": 5.24251923504,
			"0.006": 4.50282028305,
			"0.007": 4.90688420194,
			"0.008": 6.1386708253,
			"0.009": 7.5930750138,
			"0.01": 6.4744592585,
			"0.011": 4.37687378159,
			"0.012": 3.83346550932,
			"0.013": 0.846336880621,
			"0.014": 0.0289571836613,
			"0.015": 0.0,
			"0.016": 0.0,
			"0.017": 0.0,
			"0.018": 0.0,
			"0.019": 0.0,
			"0.02": 0.0,
			"0.021": 0.0,
			"0.022": 0.0,
			"0.023": 0.0,
			"0.024": 0.0,
			"0.025": 0.0
		}
	}
}
