{
	 "smiles": "CC(O)C1=CN(CC(O)=O)N=N1", 
	 "Tm": 408.15, 
	 "num_atms": 21, 
	 "gaussian": { 
		 "optdone": 1, 
		 "sigma_profile": "yes", 
		 "theory": "DFT", 
		 "functional": "B3LYP", 
		 "basiset": "6-31G**", 
		 "properties": { 
			 "R2extent": 4831.4354, 
			 "electric_dipole_moment_norm": 3.72201419127, 
			 "electric_quadrupole_moment_norm": 11.0479425347, 
			 "total_energy": -623.950203668, 
			 "HOMO_LUMO_gap": 0.24235, 
			 "cosmo_polarized_energy": -19.79, 
			 "cosmo_cavitation_energy": 26.18, 
			 "cosmo_dispersion_energy": -18.61, 
			 "cosmo_repulsion_energy": 1.53, 
			 "cosmo_total_nonelectrostatic_energy": 9.1, 
			 "SMD_solvation_energy": 4.91 
		},
		"coords": [
			{
				"x": 1.5541474581,
				"y": 0.0897362485,
				"z": -0.2469569797,
				"element": "C" 
			},
			{
				"x": 1.8264971189,
				"y": 0.2205802117,
				"z": 1.258806949,
				"element": "C" 
			},
			{
				"x": 2.3919271767,
				"y": -0.9753346155,
				"z": 1.7805192142,
				"element": "O" 
			},
			{
				"x": 0.5737137616,
				"y": 0.5773347262,
				"z": 2.0191361454,
				"element": "C" 
			},
			{
				"x": 0.0735742152,
				"y": 1.7737661038,
				"z": 2.4797274929,
				"element": "C" 
			},
			{
				"x": -1.1024373813,
				"y": 1.4403707492,
				"z": 3.0793734256,
				"element": "N" 
			},
			{
				"x": -2.0779219855,
				"y": 2.2816784719,
				"z": 3.7358445684,
				"element": "C" 
			},
			{
				"x": -2.9714557387,
				"y": 3.1201603981,
				"z": 2.8255427214,
				"element": "C" 
			},
			{
				"x": -2.7547842235,
				"y": 2.9076046872,
				"z": 1.515756926,
				"element": "O" 
			},
			{
				"x": -3.789726697,
				"y": 3.8929325659,
				"z": 3.2653357215,
				"element": "O" 
			},
			{
				"x": -1.3205257545,
				"y": 0.1074158212,
				"z": 2.9985531788,
				"element": "N" 
			},
			{
				"x": -0.3106935539,
				"y": -0.4079493784,
				"z": 2.3591225646,
				"element": "N" 
			},
			{
				"x": 0.7888714579,
				"y": -0.6723120768,
				"z": -0.4263516547,
				"element": "H" 
			},
			{
				"x": 1.2006521845,
				"y": 1.035569438,
				"z": -0.6719851078,
				"element": "H" 
			},
			{
				"x": 2.4720807778,
				"y": -0.2082479175,
				"z": -0.7611728343,
				"element": "H" 
			},
			{
				"x": 2.5754876201,
				"y": 1.0056669198,
				"z": 1.418422266,
				"element": "H" 
			},
			{
				"x": 1.6503928137,
				"y": -1.5735655622,
				"z": 1.9575429523,
				"element": "H" 
			},
			{
				"x": 0.4379144467,
				"y": 2.788063754,
				"z": 2.4332494714,
				"element": "H" 
			},
			{
				"x": -2.7265396937,
				"y": 1.6225687157,
				"z": 4.3179222289,
				"element": "H" 
			},
			{
				"x": -1.5869773529,
				"y": 2.9644697992,
				"z": 4.4352547736,
				"element": "H" 
			},
			{
				"x": -3.38369665,
				"y": 3.47409094,
				"z": 1.0366559766,
				"element": "H" 
			}
		],
		 "valence_orbital": [ 
			{
				"type": "occ",
				"energy": -0.31698,
				"method": "rhf"
			},
			{
				"type": "occ",
				"energy": -0.28947,
				"method": "rhf"
			},
			{
				"type": "occ",
				"energy": -0.278,
				"method": "rhf"
			},
			{
				"type": "occ",
				"energy": -0.26432,
				"method": "rhf"
			},
			{
				"type": "occ",
				"energy": -0.25936,
				"method": "rhf"
			},
			{
				"type": "unocc",
				"energy": -0.01701,
				"method": "rhf"
			},
			{
				"type": "unocc",
				"energy": -0.01512,
				"method": "rhf"
			},
			{
				"type": "unocc",
				"energy": 0.03909,
				"method": "rhf"
			},
			{
				"type": "unocc",
				"energy": 0.05432,
				"method": "rhf"
			},
			{
				"type": "unocc",
				"energy": 0.09385,
				"method": "rhf"
			}
		],
		"cosmo_sigma_profile": { 
			"-0.025": 0.0,
			"-0.024": 0.0,
			"-0.023": 0.0,
			"-0.022": 0.0,
			"-0.021": 0.0,
			"-0.02": 0.0279389698057,
			"-0.019": 0.815781172958,
			"-0.018": 0.993306804952,
			"-0.017": 0.908155555733,
			"-0.016": 1.03413541486,
			"-0.015": 0.674799521374,
			"-0.014": 0.139569078398,
			"-0.013": 0.603982654677,
			"-0.012": 1.6565605691,
			"-0.011": 4.05725941516,
			"-0.01": 6.79926730088,
			"-0.009": 7.62680951603,
			"-0.008": 6.16595012236,
			"-0.007": 6.82787409641,
			"-0.006": 9.41630018895,
			"-0.005": 7.94246863819,
			"-0.004": 11.1677615095,
			"-0.003": 12.5676958173,
			"-0.002": 11.8218769708,
			"-0.001": 11.1155064139,
			"0.0": 14.1478057404,
			"0.001": 11.8703280255,
			"0.002": 7.94478844898,
			"0.003": 6.68222217412,
			"0.004": 6.83006706378,
			"0.005": 6.74601600533,
			"0.006": 5.56675021012,
			"0.007": 5.95362128929,
			"0.008": 5.4728316004,
			"0.009": 5.73406253582,
			"0.01": 6.961942733,
			"0.011": 9.13171307092,
			"0.012": 5.3559936101,
			"0.013": 3.50595506691,
			"0.014": 2.29288848936,
			"0.015": 0.296361647528,
			"0.016": 0.0,
			"0.017": 0.0,
			"0.018": 0.0,
			"0.019": 0.0,
			"0.02": 0.0,
			"0.021": 0.0,
			"0.022": 0.0,
			"0.023": 0.0,
			"0.024": 0.0,
			"0.025": 0.0
		}
	}
}
