{
	 "smiles": "ClS(=O)(=O)C1=NC=NN1", 
	 "Tm": 332.15, 
	 "num_atms": 11, 
	 "gaussian": { 
		 "optdone": 1, 
		 "sigma_profile": "yes", 
		 "theory": "DFT", 
		 "functional": "B3LYP", 
		 "basiset": "6-31G**", 
		 "properties": { 
			 "R2extent": 2097.6974, 
			 "electric_dipole_moment_norm": 2.82638406095, 
			 "electric_quadrupole_moment_norm": 7.48331818113, 
			 "total_energy": -1250.39093526, 
			 "HOMO_LUMO_gap": 0.20569, 
			 "cosmo_polarized_energy": -12.12, 
			 "cosmo_cavitation_energy": 19.79, 
			 "cosmo_dispersion_energy": -15.46, 
			 "cosmo_repulsion_energy": 1.23, 
			 "cosmo_total_nonelectrostatic_energy": 5.56, 
			 "SMD_solvation_energy": -0.47 
		},
		"coords": [
			{
				"x": -2.4149682812,
				"y": 2.0139843979,
				"z": 1.8669342994,
				"element": "Cl" 
			},
			{
				"x": -2.350676703,
				"y": 0.5941899887,
				"z": 0.3193736929,
				"element": "S" 
			},
			{
				"x": -3.0569550788,
				"y": -0.584792456,
				"z": 0.78280706,
				"element": "O" 
			},
			{
				"x": -2.6827888627,
				"y": 1.2891546672,
				"z": -0.9207311148,
				"element": "O" 
			},
			{
				"x": -0.604733561,
				"y": 0.2693385799,
				"z": 0.2147081812,
				"element": "C" 
			},
			{
				"x": 0.1379024176,
				"y": -0.4160376488,
				"z": 1.0543670167,
				"element": "N" 
			},
			{
				"x": 1.3639598156,
				"y": -0.3423387685,
				"z": 0.4677575198,
				"element": "C" 
			},
			{
				"x": 1.407096109,
				"y": 0.3466256757,
				"z": -0.6713705231,
				"element": "N" 
			},
			{
				"x": 0.1295933787,
				"y": 0.7413491439,
				"z": -0.817621941,
				"element": "N" 
			},
			{
				"x": 2.2460298857,
				"y": -0.8064386943,
				"z": 0.8847369652,
				"element": "H" 
			},
			{
				"x": -0.1776591199,
				"y": 1.2835651141,
				"z": -1.6148611563,
				"element": "H" 
			}
		],
		 "valence_orbital": [ 
			{
				"type": "occ",
				"energy": -0.35555,
				"method": "rhf"
			},
			{
				"type": "occ",
				"energy": -0.3444,
				"method": "rhf"
			},
			{
				"type": "occ",
				"energy": -0.33536,
				"method": "rhf"
			},
			{
				"type": "occ",
				"energy": -0.32369,
				"method": "rhf"
			},
			{
				"type": "occ",
				"energy": -0.31236,
				"method": "rhf"
			},
			{
				"type": "unocc",
				"energy": -0.10667,
				"method": "rhf"
			},
			{
				"type": "unocc",
				"energy": -0.05256,
				"method": "rhf"
			},
			{
				"type": "unocc",
				"energy": 0.00164,
				"method": "rhf"
			},
			{
				"type": "unocc",
				"energy": 0.03207,
				"method": "rhf"
			},
			{
				"type": "unocc",
				"energy": 0.05163,
				"method": "rhf"
			}
		],
		"cosmo_sigma_profile": { 
			"-0.025": 0.0,
			"-0.024": 0.0,
			"-0.023": 0.0,
			"-0.022": 0.0,
			"-0.021": 0.0,
			"-0.02": 0.173606278709,
			"-0.019": 1.02770965002,
			"-0.018": 0.878857844803,
			"-0.017": 0.939430507161,
			"-0.016": 0.791014097544,
			"-0.015": 1.01480471378,
			"-0.014": 0.92482127422,
			"-0.013": 0.934449739941,
			"-0.012": 1.13809307676,
			"-0.011": 1.603082226,
			"-0.01": 4.30021040269,
			"-0.009": 4.0690733827,
			"-0.008": 3.70629219551,
			"-0.007": 3.2889504845,
			"-0.006": 3.97343144635,
			"-0.005": 5.37954897954,
			"-0.004": 6.40886023383,
			"-0.003": 7.67443818054,
			"-0.002": 8.09121871793,
			"-0.001": 10.9423889627,
			"0.0": 11.3662885022,
			"0.001": 15.0797607551,
			"0.002": 15.0901921195,
			"0.003": 7.64361110134,
			"0.004": 5.85943013959,
			"0.005": 4.38855366086,
			"0.006": 9.13348030715,
			"0.007": 12.247329474,
			"0.008": 6.17691936962,
			"0.009": 1.48342050412,
			"0.01": 2.91405303011,
			"0.011": 1.82284650842,
			"0.012": 1.52899565714,
			"0.013": 0.740973627608,
			"0.014": 0.0142833090678,
			"0.015": 0.0,
			"0.016": 0.0,
			"0.017": 0.0,
			"0.018": 0.0,
			"0.019": 0.0,
			"0.02": 0.0,
			"0.021": 0.0,
			"0.022": 0.0,
			"0.023": 0.0,
			"0.024": 0.0,
			"0.025": 0.0
		}
	}
}
