{
	 "smiles": "C#CC1=CC=C(C=C1)C1=CN=CO1", 
	 "Tm": 349.65, 
	 "num_atms": 20, 
	 "gaussian": { 
		 "optdone": 1, 
		 "sigma_profile": "yes", 
		 "theory": "DFT", 
		 "functional": "B3LYP", 
		 "basiset": "6-31G**", 
		 "properties": { 
			 "R2extent": 3019.1049, 
			 "electric_dipole_moment_norm": 1.21408731976, 
			 "electric_quadrupole_moment_norm": 11.0047120167, 
			 "total_energy": -553.27911499, 
			 "HOMO_LUMO_gap": 0.16056, 
			 "cosmo_polarized_energy": -8.98, 
			 "cosmo_cavitation_energy": 26.28, 
			 "cosmo_dispersion_energy": -18.68, 
			 "cosmo_repulsion_energy": 1.42, 
			 "cosmo_total_nonelectrostatic_energy": 9.03, 
			 "SMD_solvation_energy": 5.15 
		},
		"coords": [
			{
				"x": -0.4775417766,
				"y": -3.8911903999,
				"z": 3.027933503,
				"element": "C" 
			},
			{
				"x": -0.3493713104,
				"y": -2.9375592488,
				"z": 2.2933509598,
				"element": "C" 
			},
			{
				"x": -0.1983125676,
				"y": -1.8125193812,
				"z": 1.4276859394,
				"element": "C" 
			},
			{
				"x": -0.2254598339,
				"y": -1.9706357505,
				"z": 0.0290197734,
				"element": "C" 
			},
			{
				"x": -0.0783960376,
				"y": -0.8753539705,
				"z": -0.8122562888,
				"element": "C" 
			},
			{
				"x": 0.1009483106,
				"y": 0.4160284171,
				"z": -0.2848910962,
				"element": "C" 
			},
			{
				"x": 0.1281494038,
				"y": 0.5747349325,
				"z": 1.1134212778,
				"element": "C" 
			},
			{
				"x": -0.0185829505,
				"y": -0.5180135945,
				"z": 1.9552101326,
				"element": "C" 
			},
			{
				"x": 0.2558148428,
				"y": 1.5684985654,
				"z": -1.1580220011,
				"element": "C" 
			},
			{
				"x": 0.4407841549,
				"y": 2.9113220836,
				"z": -0.9707737937,
				"element": "C" 
			},
			{
				"x": 0.5242388356,
				"y": 3.55265537,
				"z": -2.1962203258,
				"element": "N" 
			},
			{
				"x": 0.3899800204,
				"y": 2.5977308306,
				"z": -3.0610629024,
				"element": "C" 
			},
			{
				"x": 0.2228335638,
				"y": 1.3650627956,
				"z": -2.5213157457,
				"element": "O" 
			},
			{
				"x": -0.5904267839,
				"y": -4.7304976831,
				"z": 3.6741731615,
				"element": "H" 
			},
			{
				"x": -0.3632017018,
				"y": -2.9623166877,
				"z": -0.3890990321,
				"element": "H" 
			},
			{
				"x": -0.1015070671,
				"y": -1.0129905782,
				"z": -1.887564021,
				"element": "H" 
			},
			{
				"x": 0.2653427845,
				"y": 1.5620478694,
				"z": 1.5434697846,
				"element": "H" 
			},
			{
				"x": 0.0041157315,
				"y": -0.3830054504,
				"z": 3.0314706981,
				"element": "H" 
			},
			{
				"x": 0.5194244603,
				"y": 3.4594506081,
				"z": -0.0436153694,
				"element": "H" 
			},
			{
				"x": 0.3945679213,
				"y": 2.6602512727,
				"z": -4.1392146539,
				"element": "H" 
			}
		],
		 "valence_orbital": [ 
			{
				"type": "occ",
				"energy": -0.29384,
				"method": "rhf"
			},
			{
				"type": "occ",
				"energy": -0.2772,
				"method": "rhf"
			},
			{
				"type": "occ",
				"energy": -0.26923,
				"method": "rhf"
			},
			{
				"type": "occ",
				"energy": -0.26608,
				"method": "rhf"
			},
			{
				"type": "occ",
				"energy": -0.21752,
				"method": "rhf"
			},
			{
				"type": "unocc",
				"energy": -0.05696,
				"method": "rhf"
			},
			{
				"type": "unocc",
				"energy": -0.01399,
				"method": "rhf"
			},
			{
				"type": "unocc",
				"energy": 0.01083,
				"method": "rhf"
			},
			{
				"type": "unocc",
				"energy": 0.04932,
				"method": "rhf"
			},
			{
				"type": "unocc",
				"energy": 0.04951,
				"method": "rhf"
			}
		],
		"cosmo_sigma_profile": { 
			"-0.025": 0.0,
			"-0.024": 0.0,
			"-0.023": 0.0,
			"-0.022": 0.0,
			"-0.021": 0.0,
			"-0.02": 0.0,
			"-0.019": 0.0,
			"-0.018": 0.0,
			"-0.017": 0.0,
			"-0.016": 0.0,
			"-0.015": 0.0,
			"-0.014": 0.0,
			"-0.013": 0.0,
			"-0.012": 0.809083206977,
			"-0.011": 3.13395140993,
			"-0.01": 2.02954964544,
			"-0.009": 4.68058152352,
			"-0.008": 5.95172426734,
			"-0.007": 7.28063782039,
			"-0.006": 9.50974692847,
			"-0.005": 11.9085785041,
			"-0.004": 8.60392525109,
			"-0.003": 10.0319063789,
			"-0.002": 11.432320785,
			"-0.001": 12.3924301362,
			"0.0": 18.2689733359,
			"0.001": 18.3958891981,
			"0.002": 21.2804654015,
			"0.003": 23.6603716853,
			"0.004": 14.0524260698,
			"0.005": 8.30904780178,
			"0.006": 9.58629160668,
			"0.007": 3.98523443389,
			"0.008": 0.945351155611,
			"0.009": 0.475216975501,
			"0.01": 1.55021600212,
			"0.011": 0.952269223811,
			"0.012": 1.0645325729,
			"0.013": 1.17910168453,
			"0.014": 1.0647612745,
			"0.015": 1.10730374969,
			"0.016": 0.398527883051,
			"0.017": 0.0,
			"0.018": 0.0,
			"0.019": 0.0,
			"0.02": 0.0,
			"0.021": 0.0,
			"0.022": 0.0,
			"0.023": 0.0,
			"0.024": 0.0,
			"0.025": 0.0
		}
	}
}
