{
	 "smiles": "CCC(=O)C1=CC(OC)=C(OC)C=C1", 
	 "Tm": 335.15, 
	 "num_atms": 28, 
	 "gaussian": { 
		 "optdone": 1, 
		 "sigma_profile": "yes", 
		 "theory": "DFT", 
		 "functional": "B3LYP", 
		 "basiset": "6-31G**", 
		 "properties": { 
			 "R2extent": 3635.1401, 
			 "electric_dipole_moment_norm": 3.04705847991, 
			 "electric_quadrupole_moment_norm": 15.7380010424, 
			 "total_energy": -653.252458576, 
			 "HOMO_LUMO_gap": 0.18593, 
			 "cosmo_polarized_energy": -9.95, 
			 "cosmo_cavitation_energy": 31.23, 
			 "cosmo_dispersion_energy": -22.15, 
			 "cosmo_repulsion_energy": 1.77, 
			 "cosmo_total_nonelectrostatic_energy": 10.84, 
			 "SMD_solvation_energy": 7.43 
		},
		"coords": [
			{
				"x": 2.7605795217,
				"y": -3.1201290242,
				"z": 1.2041760744,
				"element": "C" 
			},
			{
				"x": 1.5498902414,
				"y": -2.8801458162,
				"z": 2.1266882703,
				"element": "C" 
			},
			{
				"x": 0.2747353965,
				"y": -2.6264363755,
				"z": 1.3289902744,
				"element": "C" 
			},
			{
				"x": -0.4999858711,
				"y": -3.548090427,
				"z": 1.110693093,
				"element": "O" 
			},
			{
				"x": -0.0001297505,
				"y": -1.2583874175,
				"z": 0.7823199719,
				"element": "C" 
			},
			{
				"x": -1.1564266572,
				"y": -1.0867819917,
				"z": 0.0035222758,
				"element": "C" 
			},
			{
				"x": -1.4829260603,
				"y": 0.1504086421,
				"z": -0.536290878,
				"element": "C" 
			},
			{
				"x": -2.6196678551,
				"y": 0.2714097799,
				"z": -1.3050668153,
				"element": "O" 
			},
			{
				"x": -3.6809137424,
				"y": 1.0087100729,
				"z": -0.6853007775,
				"element": "C" 
			},
			{
				"x": -0.6286145279,
				"y": 1.254016449,
				"z": -0.3181333138,
				"element": "C" 
			},
			{
				"x": -0.9107662465,
				"y": 2.5008381834,
				"z": -0.8149120064,
				"element": "O" 
			},
			{
				"x": -0.905000667,
				"y": 2.6155090674,
				"z": -2.2456637912,
				"element": "C" 
			},
			{
				"x": 0.5132267183,
				"y": 1.0922386873,
				"z": 0.4693930714,
				"element": "C" 
			},
			{
				"x": 0.8249667671,
				"y": -0.1488614124,
				"z": 1.0207831754,
				"element": "C" 
			},
			{
				"x": 2.5705324468,
				"y": -3.9655396305,
				"z": 0.5362280046,
				"element": "H" 
			},
			{
				"x": 3.6531264198,
				"y": -3.3480625311,
				"z": 1.7946134302,
				"element": "H" 
			},
			{
				"x": 2.978364404,
				"y": -2.2444129338,
				"z": 0.5851478785,
				"element": "H" 
			},
			{
				"x": 1.7565945342,
				"y": -2.0509731684,
				"z": 2.8119455659,
				"element": "H" 
			},
			{
				"x": 1.3626771063,
				"y": -3.7729564606,
				"z": 2.7290380252,
				"element": "H" 
			},
			{
				"x": -1.8062786084,
				"y": -1.9370951695,
				"z": -0.1719415402,
				"element": "H" 
			},
			{
				"x": -4.5031017335,
				"y": 1.0234650416,
				"z": -1.4034306096,
				"element": "H" 
			},
			{
				"x": -3.3733184109,
				"y": 2.0339685954,
				"z": -0.4546292729,
				"element": "H" 
			},
			{
				"x": -4.0121584151,
				"y": 0.511295249,
				"z": 0.2345409675,
				"element": "H" 
			},
			{
				"x": -1.1617840118,
				"y": 3.6532682265,
				"z": -2.4658708292,
				"element": "H" 
			},
			{
				"x": -1.6357239426,
				"y": 1.9438402759,
				"z": -2.7038844492,
				"element": "H" 
			},
			{
				"x": 0.0938037748,
				"y": 2.3973961117,
				"z": -2.6430862219,
				"element": "H" 
			},
			{
				"x": 1.1469003912,
				"y": 1.957811801,
				"z": 0.6339305475,
				"element": "H" 
			},
			{
				"x": 1.7201987782,
				"y": -0.2443038249,
				"z": 1.6253998791,
				"element": "H" 
			}
		],
		 "valence_orbital": [ 
			{
				"type": "occ",
				"energy": -0.30317,
				"method": "rhf"
			},
			{
				"type": "occ",
				"energy": -0.27068,
				"method": "rhf"
			},
			{
				"type": "occ",
				"energy": -0.25063,
				"method": "rhf"
			},
			{
				"type": "occ",
				"energy": -0.24123,
				"method": "rhf"
			},
			{
				"type": "occ",
				"energy": -0.23731,
				"method": "rhf"
			},
			{
				"type": "unocc",
				"energy": -0.05138,
				"method": "rhf"
			},
			{
				"type": "unocc",
				"energy": -0.00729,
				"method": "rhf"
			},
			{
				"type": "unocc",
				"energy": 0.04244,
				"method": "rhf"
			},
			{
				"type": "unocc",
				"energy": 0.07956,
				"method": "rhf"
			},
			{
				"type": "unocc",
				"energy": 0.09581,
				"method": "rhf"
			}
		],
		"cosmo_sigma_profile": { 
			"-0.025": 0.0,
			"-0.024": 0.0,
			"-0.023": 0.0,
			"-0.022": 0.0,
			"-0.021": 0.0,
			"-0.02": 0.0,
			"-0.019": 0.0,
			"-0.018": 0.0,
			"-0.017": 0.0,
			"-0.016": 0.0,
			"-0.015": 0.0,
			"-0.014": 0.0,
			"-0.013": 0.0,
			"-0.012": 0.0,
			"-0.011": 0.0,
			"-0.01": 0.0,
			"-0.009": 0.0,
			"-0.008": 0.244279351179,
			"-0.007": 2.94202474326,
			"-0.006": 7.76534795655,
			"-0.005": 14.2275993849,
			"-0.004": 23.4666588504,
			"-0.003": 31.544896467,
			"-0.002": 31.4892599865,
			"-0.001": 28.6079764933,
			"0.0": 20.1964216447,
			"0.001": 15.1115229028,
			"0.002": 15.7062724995,
			"0.003": 14.5866378154,
			"0.004": 6.73475452115,
			"0.005": 4.61670822091,
			"0.006": 4.28339368926,
			"0.007": 3.18719349591,
			"0.008": 3.03710272165,
			"0.009": 3.44847718563,
			"0.01": 4.28663234793,
			"0.011": 4.19403226458,
			"0.012": 4.82210036429,
			"0.013": 1.9053418688,
			"0.014": 0.372312279227,
			"0.015": 0.0,
			"0.016": 0.0,
			"0.017": 0.0,
			"0.018": 0.0,
			"0.019": 0.0,
			"0.02": 0.0,
			"0.021": 0.0,
			"0.022": 0.0,
			"0.023": 0.0,
			"0.024": 0.0,
			"0.0": 0.0
		}
	}
}
