{
	 "smiles": "BrC1=CNC(=C1)C(=O)N1CCCC1", 
	 "Tm": 484.15, 
	 "num_atms": 24, 
	 "gaussian": { 
		 "optdone": 1, 
		 "sigma_profile": "yes", 
		 "theory": "DFT", 
		 "functional": "B3LYP", 
		 "basiset": "6-31G**", 
		 "properties": { 
			 "R2extent": 5597.1885, 
			 "electric_dipole_moment_norm": 2.61984194371, 
			 "electric_quadrupole_moment_norm": 13.4900222561, 
			 "total_energy": -3105.72824423, 
			 "HOMO_LUMO_gap": 0.19938, 
			 "cosmo_polarized_energy": -11.0, 
			 "cosmo_cavitation_energy": 29.03, 
			 "cosmo_dispersion_energy": -22.17, 
			 "cosmo_repulsion_energy": 1.77, 
			 "cosmo_total_nonelectrostatic_energy": 8.63, 
			 "SMD_solvation_energy": 3.24 
		},
		"coords": [
			{
				"x": 3.5332646587,
				"y": 3.4459934043,
				"z": -0.7012098114,
				"element": "Br" 
			},
			{
				"x": 2.6323912574,
				"y": 1.8284445632,
				"z": -1.0839568397,
				"element": "C" 
			},
			{
				"x": 2.7724026087,
				"y": 1.0917344491,
				"z": -2.2474613009,
				"element": "C" 
			},
			{
				"x": 1.9584428357,
				"y": 0.0089443616,
				"z": -2.1249241089,
				"element": "N" 
			},
			{
				"x": 1.2980448078,
				"y": 0.02507409,
				"z": -0.9191439732,
				"element": "C" 
			},
			{
				"x": 1.7094845558,
				"y": 1.1700402126,
				"z": -0.2395558383,
				"element": "C" 
			},
			{
				"x": 0.4111323011,
				"y": -1.1392852354,
				"z": -0.6931637039,
				"element": "C" 
			},
			{
				"x": 0.3939368018,
				"y": -2.0426252782,
				"z": -1.5435826783,
				"element": "O" 
			},
			{
				"x": -0.3586703301,
				"y": -1.2118239916,
				"z": 0.4257341041,
				"element": "N" 
			},
			{
				"x": -1.193999419,
				"y": -2.4033808234,
				"z": 0.6451971841,
				"element": "C" 
			},
			{
				"x": -1.6950398382,
				"y": -2.2243043744,
				"z": 2.0836922644,
				"element": "C" 
			},
			{
				"x": -1.7766626911,
				"y": -0.6968317978,
				"z": 2.2400811106,
				"element": "C" 
			},
			{
				"x": -0.5464010526,
				"y": -0.1935715487,
				"z": 1.4666762711,
				"element": "C" 
			},
			{
				"x": 3.3797455013,
				"y": 1.2696466164,
				"z": -3.1208234326,
				"element": "H" 
			},
			{
				"x": 1.8191737201,
				"y": -0.7614800341,
				"z": -2.7662951334,
				"element": "H" 
			},
			{
				"x": 1.4126545775,
				"y": 1.5010975069,
				"z": 0.7413516556,
				"element": "H" 
			},
			{
				"x": -2.0198463345,
				"y": -2.4247041914,
				"z": -0.0779990031,
				"element": "H" 
			},
			{
				"x": -0.6043138991,
				"y": -3.3098315524,
				"z": 0.4884581915,
				"element": "H" 
			},
			{
				"x": -0.9662680093,
				"y": -2.6374498625,
				"z": 2.7904316207,
				"element": "H" 
			},
			{
				"x": -2.6506062167,
				"y": -2.7256487916,
				"z": 2.2576310825,
				"element": "H" 
			},
			{
				"x": -1.7749665811,
				"y": -0.3636032513,
				"z": 3.2812117968,
				"element": "H" 
			},
			{
				"x": -2.6907533354,
				"y": -0.3188518278,
				"z": 1.7686019065,
				"element": "H" 
			},
			{
				"x": 0.3351075049,
				"y": -0.1348671356,
				"z": 2.1205024371,
				"element": "H" 
			},
			{
				"x": -0.7069534237,
				"y": 0.7944844919,
				"z": 1.0255461988,
				"element": "H" 
			}
		],
		 "valence_orbital": [ 
			{
				"type": "occ",
				"energy": -0.28237,
				"method": "rhf"
			},
			{
				"type": "occ",
				"energy": -0.25421,
				"method": "rhf"
			},
			{
				"type": "occ",
				"energy": -0.24664,
				"method": "rhf"
			},
			{
				"type": "occ",
				"energy": -0.23851,
				"method": "rhf"
			},
			{
				"type": "occ",
				"energy": -0.21789,
				"method": "rhf"
			},
			{
				"type": "unocc",
				"energy": -0.01851,
				"method": "rhf"
			},
			{
				"type": "unocc",
				"energy": 0.02134,
				"method": "rhf"
			},
			{
				"type": "unocc",
				"energy": 0.05225,
				"method": "rhf"
			},
			{
				"type": "unocc",
				"energy": 0.07549,
				"method": "rhf"
			},
			{
				"type": "unocc",
				"energy": 0.08889,
				"method": "rhf"
			}
		],
		"cosmo_sigma_profile": { 
			"-0.025": 0.0,
			"-0.024": 0.0,
			"-0.023": 0.0,
			"-0.022": 0.0,
			"-0.021": 0.0,
			"-0.02": 0.0,
			"-0.019": 0.0,
			"-0.018": 0.0,
			"-0.017": 0.0,
			"-0.016": 0.0,
			"-0.015": 0.255902360779,
			"-0.014": 0.928556285527,
			"-0.013": 0.931251695869,
			"-0.012": 0.703060032481,
			"-0.011": 0.864150065103,
			"-0.01": 0.514380531146,
			"-0.009": 2.37701262893,
			"-0.008": 3.49909103611,
			"-0.007": 3.45126245578,
			"-0.006": 4.98090146077,
			"-0.005": 8.37213187407,
			"-0.004": 22.0270472488,
			"-0.003": 29.5839105676,
			"-0.002": 23.7732258793,
			"-0.001": 19.1282266872,
			"0.0": 17.3166616673,
			"0.001": 12.9948962634,
			"0.002": 12.0265139745,
			"0.003": 14.7824344229,
			"0.004": 19.9729702175,
			"0.005": 16.6180687195,
			"0.006": 2.37679124183,
			"0.007": 1.26488754017,
			"0.008": 0.925028508059,
			"0.009": 1.37268769015,
			"0.01": 1.70024691208,
			"0.011": 1.60020188932,
			"0.012": 1.59411364677,
			"0.013": 1.97293974044,
			"0.014": 4.0925998201,
			"0.015": 1.07690679152,
			"0.016": 0.0,
			"0.017": 0.0,
			"0.018": 0.0,
			"0.019": 0.0,
			"0.02": 0.0,
			"0.021": 0.0,
			"0.022": 0.0,
			"0.023": 0.0,
			"0.024": 0.0,
			"0.025": 0.0
		}
	}
}
