{
	 "smiles": "COC1=C(NS(=O)(=O)C2=CC(=CC=C2)C(O)=O)C=CC=C1", 
	 "Tm": 430.15, 
	 "num_atms": 34, 
	 "gaussian": { 
		 "optdone": 1, 
		 "sigma_profile": "yes", 
		 "theory": "DFT", 
		 "functional": "B3LYP", 
		 "basiset": "6-31G**", 
		 "properties": { 
			 "R2extent": 7733.5825, 
			 "electric_dipole_moment_norm": 5.1749520249, 
			 "electric_quadrupole_moment_norm": 26.9691946791, 
			 "total_energy": -1370.30287542, 
			 "HOMO_LUMO_gap": 0.17421, 
			 "cosmo_polarized_energy": -22.97, 
			 "cosmo_cavitation_energy": 39.35, 
			 "cosmo_dispersion_energy": -27.33, 
			 "cosmo_repulsion_energy": 2.01, 
			 "cosmo_total_nonelectrostatic_energy": 14.03, 
			 "SMD_solvation_energy": 7.8 
		},
		"coords": [
			{
				"x": 3.6307924777,
				"y": 1.9382485688,
				"z": 0.979680184,
				"element": "C" 
			},
			{
				"x": 2.3912333171,
				"y": 1.2462031814,
				"z": 1.1087812076,
				"element": "O" 
			},
			{
				"x": 1.2660585739,
				"y": 1.8611522484,
				"z": 0.6407945092,
				"element": "C" 
			},
			{
				"x": 0.0472504698,
				"y": 1.1497986264,
				"z": 0.7344011339,
				"element": "C" 
			},
			{
				"x": 0.0450103413,
				"y": -0.1588565734,
				"z": 1.3262805695,
				"element": "N" 
			},
			{
				"x": -0.35595088,
				"y": -1.5312196905,
				"z": 0.4100470096,
				"element": "S" 
			},
			{
				"x": -0.6702711399,
				"y": -2.5429018263,
				"z": 1.4239215836,
				"element": "O" 
			},
			{
				"x": -1.3065871937,
				"y": -1.2290918897,
				"z": -0.6646863983,
				"element": "O" 
			},
			{
				"x": 1.2127118666,
				"y": -1.910679269,
				"z": -0.3726007166,
				"element": "C" 
			},
			{
				"x": 2.3762405398,
				"y": -1.8596496419,
				"z": 0.3912215827,
				"element": "C" 
			},
			{
				"x": 3.603033378,
				"y": -2.1679215223,
				"z": -0.2007386194,
				"element": "C" 
			},
			{
				"x": 3.6356030174,
				"y": -2.5782256796,
				"z": -1.5428038709,
				"element": "C" 
			},
			{
				"x": 2.4630479697,
				"y": -2.6410183774,
				"z": -2.2907871627,
				"element": "C" 
			},
			{
				"x": 1.2383033464,
				"y": -2.2947979527,
				"z": -1.7122510975,
				"element": "C" 
			},
			{
				"x": 4.9083557054,
				"y": -2.0609076034,
				"z": 0.532115284,
				"element": "C" 
			},
			{
				"x": 4.901108266,
				"y": -1.3678725642,
				"z": 1.7031512685,
				"element": "O" 
			},
			{
				"x": 5.9391924426,
				"y": -2.5355183485,
				"z": 0.1182991736,
				"element": "O" 
			},
			{
				"x": -1.1336329942,
				"y": 1.7389011261,
				"z": 0.2756920969,
				"element": "C" 
			},
			{
				"x": -1.132595521,
				"y": 3.0207460565,
				"z": -0.2726569373,
				"element": "C" 
			},
			{
				"x": 0.0690993111,
				"y": 3.7196206405,
				"z": -0.3599483935,
				"element": "C" 
			},
			{
				"x": 1.2609462649,
				"y": 3.1504269007,
				"z": 0.0914666125,
				"element": "C" 
			},
			{
				"x": 3.8497429372,
				"y": 2.178189027,
				"z": -0.0674326745,
				"element": "H" 
			},
			{
				"x": 4.3983658058,
				"y": 1.2602682009,
				"z": 1.3548311176,
				"element": "H" 
			},
			{
				"x": 3.6404299614,
				"y": 2.8599083072,
				"z": 1.5735420393,
				"element": "H" 
			},
			{
				"x": -0.4393816253,
				"y": -0.2436438656,
				"z": 2.2165670456,
				"element": "H" 
			},
			{
				"x": 2.2875266283,
				"y": -1.5654504382,
				"z": 1.4308763261,
				"element": "H" 
			},
			{
				"x": 4.5965911779,
				"y": -2.8301256741,
				"z": -1.9780608697,
				"element": "H" 
			},
			{
				"x": 2.4990137098,
				"y": -2.9477371103,
				"z": -3.3313030532,
				"element": "H" 
			},
			{
				"x": 0.3163156299,
				"y": -2.3094492696,
				"z": -2.2828458115,
				"element": "H" 
			},
			{
				"x": 4.0305344254,
				"y": -0.9782409007,
				"z": 1.8668990575,
				"element": "H" 
			},
			{
				"x": -2.0524023933,
				"y": 1.1663322819,
				"z": 0.3414928468,
				"element": "H" 
			},
			{
				"x": -2.0577676898,
				"y": 3.4632224274,
				"z": -0.6267070316,
				"element": "H" 
			},
			{
				"x": 0.0899303841,
				"y": 4.7201593587,
				"z": -0.7820577204,
				"element": "H" 
			},
			{
				"x": 2.1797514898,
				"y": 3.7182312454,
				"z": 0.0163197089,
				"element": "H" 
			}
		],
		 "valence_orbital": [ 
			{
				"type": "occ",
				"energy": -0.28753,
				"method": "rhf"
			},
			{
				"type": "occ",
				"energy": -0.28117,
				"method": "rhf"
			},
			{
				"type": "occ",
				"energy": -0.27358,
				"method": "rhf"
			},
			{
				"type": "occ",
				"energy": -0.26717,
				"method": "rhf"
			},
			{
				"type": "occ",
				"energy": -0.24017,
				"method": "rhf"
			},
			{
				"type": "unocc",
				"energy": -0.06596,
				"method": "rhf"
			},
			{
				"type": "unocc",
				"energy": -0.04868,
				"method": "rhf"
			},
			{
				"type": "unocc",
				"energy": -0.02894,
				"method": "rhf"
			},
			{
				"type": "unocc",
				"energy": -0.00636,
				"method": "rhf"
			},
			{
				"type": "unocc",
				"energy": 0.03092,
				"method": "rhf"
			}
		],
		"cosmo_sigma_profile": { 
			"-0.025": 0.0,
			"-0.024": 0.0,
			"-0.023": 0.0,
			"-0.022": 0.0,
			"-0.021": 0.0,
			"-0.02": 0.0,
			"-0.019": 0.0,
			"-0.018": 0.0845356018318,
			"-0.017": 0.428438677931,
			"-0.016": 0.677838236131,
			"-0.015": 1.32682887708,
			"-0.014": 1.80413713202,
			"-0.013": 1.37004843301,
			"-0.012": 1.43121643083,
			"-0.011": 2.66486793844,
			"-0.01": 2.72220392718,
			"-0.009": 2.35901310406,
			"-0.008": 5.49829292474,
			"-0.007": 10.9568701072,
			"-0.006": 20.0425626283,
			"-0.005": 23.4012696337,
			"-0.004": 25.7426807367,
			"-0.003": 21.4067219487,
			"-0.002": 17.9698006912,
			"-0.001": 16.9869810536,
			"0.0": 22.9592760574,
			"0.001": 23.2923917445,
			"0.002": 14.9319787548,
			"0.003": 12.2807413578,
			"0.004": 13.2627330291,
			"0.005": 12.3246294327,
			"0.006": 6.07295160518,
			"0.007": 5.84334138287,
			"0.008": 8.2541950674,
			"0.009": 7.56965464648,
			"0.01": 13.688192828,
			"0.011": 13.4012734921,
			"0.012": 4.07096773791,
			"0.013": 0.533791955157,
			"0.014": 0.0,
			"0.015": 0.0,
			"0.016": 0.0,
			"0.017": 0.0,
			"0.018": 0.0,
			"0.019": 0.0,
			"0.02": 0.0,
			"0.021": 0.0,
			"0.022": 0.0,
			"0.023": 0.0,
			"0.024": 0.0,
			"0.0": 0.0
		}
	}
}
