{
	 "smiles": "O=CC1=CC=C(C=C1)N1CCNC(=O)C1", 
	 "Tm": 466.15, 
	 "num_atms": 27, 
	 "gaussian": { 
		 "optdone": 1, 
		 "sigma_profile": "yes", 
		 "theory": "DFT", 
		 "functional": "B3LYP", 
		 "basiset": "6-31G**", 
		 "properties": { 
			 "R2extent": 4462.5808, 
			 "electric_dipole_moment_norm": 4.27144843584, 
			 "electric_quadrupole_moment_norm": 31.0254856644, 
			 "total_energy": -686.352362755, 
			 "HOMO_LUMO_gap": 0.16405, 
			 "cosmo_polarized_energy": -19.43, 
			 "cosmo_cavitation_energy": 30.32, 
			 "cosmo_dispersion_energy": -22.36, 
			 "cosmo_repulsion_energy": 1.73, 
			 "cosmo_total_nonelectrostatic_energy": 9.69, 
			 "SMD_solvation_energy": 5.04 
		},
		"coords": [
			{
				"x": -1.9864081428,
				"y": 4.5043942685,
				"z": 1.5626499912,
				"element": "O" 
			},
			{
				"x": -0.9233329808,
				"y": 3.930714474,
				"z": 1.7288937151,
				"element": "C" 
			},
			{
				"x": -0.5405100763,
				"y": 2.6641763417,
				"z": 1.0872051753,
				"element": "C" 
			},
			{
				"x": -1.4142212267,
				"y": 2.0135732039,
				"z": 0.198198795,
				"element": "C" 
			},
			{
				"x": -1.0562627706,
				"y": 0.8240448914,
				"z": -0.407770657,
				"element": "C" 
			},
			{
				"x": 0.2000904002,
				"y": 0.2195704476,
				"z": -0.1460244848,
				"element": "C" 
			},
			{
				"x": 1.0745496867,
				"y": 0.8790986106,
				"z": 0.7466703903,
				"element": "C" 
			},
			{
				"x": 0.7044684441,
				"y": 2.0790294741,
				"z": 1.3430358392,
				"element": "C" 
			},
			{
				"x": 0.5738656326,
				"y": -0.9617534905,
				"z": -0.7898231825,
				"element": "N" 
			},
			{
				"x": -0.4054705945,
				"y": -2.0032493222,
				"z": -1.0875841344,
				"element": "C" 
			},
			{
				"x": -0.0303612671,
				"y": -2.6992131846,
				"z": -2.3903658994,
				"element": "C" 
			},
			{
				"x": 1.3459061717,
				"y": -3.1673970152,
				"z": -2.3094348528,
				"element": "N" 
			},
			{
				"x": 2.323252582,
				"y": -2.6172704381,
				"z": -1.5332679099,
				"element": "C" 
			},
			{
				"x": 3.4824632276,
				"y": -3.0052549856,
				"z": -1.5518512357,
				"element": "O" 
			},
			{
				"x": 1.9142721814,
				"y": -1.4939246423,
				"z": -0.5765305874,
				"element": "C" 
			},
			{
				"x": -0.1486697529,
				"y": 4.3552962673,
				"z": 2.4076540369,
				"element": "H" 
			},
			{
				"x": -2.3740577537,
				"y": 2.4756405939,
				"z": -0.0113369188,
				"element": "H" 
			},
			{
				"x": -1.7408964781,
				"y": 0.3729097513,
				"z": -1.1171029088,
				"element": "H" 
			},
			{
				"x": 2.0371185905,
				"y": 0.4488834043,
				"z": 0.9922866121,
				"element": "H" 
			},
			{
				"x": 1.3926771356,
				"y": 2.5647148405,
				"z": 2.0316529461,
				"element": "H" 
			},
			{
				"x": -1.4013235273,
				"y": -1.5746286819,
				"z": -1.1808959721,
				"element": "H" 
			},
			{
				"x": -0.4401938308,
				"y": -2.7438380313,
				"z": -0.2705198598,
				"element": "H" 
			},
			{
				"x": -0.6912181208,
				"y": -3.5580745371,
				"z": -2.5517573328,
				"element": "H" 
			},
			{
				"x": -0.1648932391,
				"y": -2.00428406,
				"z": -3.2310664587,
				"element": "H" 
			},
			{
				"x": 1.6759249974,
				"y": -3.8669760973,
				"z": -2.9615490412,
				"element": "H" 
			},
			{
				"x": 2.0569720851,
				"y": -1.8864143521,
				"z": 0.4452693672,
				"element": "H" 
			},
			{
				"x": 2.6546586267,
				"y": -0.703867731,
				"z": -0.7213354322,
				"element": "H" 
			}
		],
		 "valence_orbital": [ 
			{
				"type": "occ",
				"energy": -0.26526,
				"method": "rhf"
			},
			{
				"type": "occ",
				"energy": -0.26463,
				"method": "rhf"
			},
			{
				"type": "occ",
				"energy": -0.2595,
				"method": "rhf"
			},
			{
				"type": "occ",
				"energy": -0.2448,
				"method": "rhf"
			},
			{
				"type": "occ",
				"energy": -0.21542,
				"method": "rhf"
			},
			{
				"type": "unocc",
				"energy": -0.05137,
				"method": "rhf"
			},
			{
				"type": "unocc",
				"energy": -0.01432,
				"method": "rhf"
			},
			{
				"type": "unocc",
				"energy": 0.01731,
				"method": "rhf"
			},
			{
				"type": "unocc",
				"energy": 0.04724,
				"method": "rhf"
			},
			{
				"type": "unocc",
				"energy": 0.06429,
				"method": "rhf"
			}
		],
		"cosmo_sigma_profile": { 
			"-0.025": 0.0,
			"-0.024": 0.0,
			"-0.023": 0.0,
			"-0.022": 0.0,
			"-0.021": 0.0,
			"-0.02": 0.0,
			"-0.019": 0.0,
			"-0.018": 0.0,
			"-0.017": 0.0,
			"-0.016": 0.0,
			"-0.015": 0.0634691782288,
			"-0.014": 1.04483224557,
			"-0.013": 1.03176745053,
			"-0.012": 1.0434606445,
			"-0.011": 1.20980235619,
			"-0.01": 0.692727181067,
			"-0.009": 1.81097242052,
			"-0.008": 3.18048816298,
			"-0.007": 9.83825892927,
			"-0.006": 21.4685358878,
			"-0.005": 26.6333496754,
			"-0.004": 21.7888223463,
			"-0.003": 17.3972981924,
			"-0.002": 14.1195150403,
			"-0.001": 9.56851272635,
			"0.0": 11.284268175,
			"0.001": 10.7961810589,
			"0.002": 11.69232848,
			"0.003": 14.2856461856,
			"0.004": 15.6887260151,
			"0.005": 6.19304245707,
			"0.006": 2.98339116462,
			"0.007": 2.84177434418,
			"0.008": 3.0547791601,
			"0.009": 2.8719008178,
			"0.01": 2.74835832769,
			"0.011": 4.30938628306,
			"0.012": 6.67071388911,
			"0.013": 6.14495606203,
			"0.014": 6.48505332931,
			"0.015": 1.61249485406,
			"0.016": 0.0,
			"0.017": 0.0,
			"0.018": 0.0,
			"0.019": 0.0,
			"0.02": 0.0,
			"0.021": 0.0,
			"0.022": 0.0,
			"0.023": 0.0,
			"0.024": 0.0,
			"0.025": 0.0
		}
	}
}
