{
	 "smiles": "[O-][N+](=O)C1=CC=C(COC(=O)C2=CC=CC=C2)C(=C1)[N+]([O-])=O", 
	 "Tm": 412.15, 
	 "num_atms": 32, 
	 "gaussian": { 
		 "optdone": 1, 
		 "sigma_profile": "yes", 
		 "theory": "DFT", 
		 "functional": "B3LYP", 
		 "basiset": "6-31G**", 
		 "properties": { 
			 "R2extent": 9513.4056, 
			 "electric_dipole_moment_norm": 6.34409398732, 
			 "electric_quadrupole_moment_norm": 20.8353939161, 
			 "total_energy": -1100.16911096, 
			 "HOMO_LUMO_gap": 0.15976, 
			 "cosmo_polarized_energy": -15.35, 
			 "cosmo_cavitation_energy": 39.18, 
			 "cosmo_dispersion_energy": -27.71, 
			 "cosmo_repulsion_energy": 2.09, 
			 "cosmo_total_nonelectrostatic_energy": 13.56, 
			 "SMD_solvation_energy": 11.68 
		},
		"coords": [
			{
				"x": 2.8466867042,
				"y": -0.1813581322,
				"z": 5.6141293653,
				"element": "O" 
			},
			{
				"x": 1.8381137851,
				"y": 0.286078813,
				"z": 5.0914864147,
				"element": "N" 
			},
			{
				"x": 0.836781654,
				"y": 0.6670378472,
				"z": 5.6946309726,
				"element": "O" 
			},
			{
				"x": 1.824632907,
				"y": 0.4020375729,
				"z": 3.6227105208,
				"element": "C" 
			},
			{
				"x": 0.7051837104,
				"y": 0.9333570897,
				"z": 2.9882275726,
				"element": "C" 
			},
			{
				"x": 0.7051585764,
				"y": 1.035922409,
				"z": 1.6015403672,
				"element": "C" 
			},
			{
				"x": 1.798022474,
				"y": 0.6257970093,
				"z": 0.8233029894,
				"element": "C" 
			},
			{
				"x": 1.7309421026,
				"y": 0.7581925935,
				"z": -0.688909581,
				"element": "C" 
			},
			{
				"x": 0.430350135,
				"y": 1.1750758622,
				"z": -1.1260702953,
				"element": "O" 
			},
			{
				"x": -0.4436528935,
				"y": 0.1763763673,
				"z": -1.4576321549,
				"element": "C" 
			},
			{
				"x": -0.1697777187,
				"y": -1.0005276442,
				"z": -1.3485339952,
				"element": "O" 
			},
			{
				"x": -1.7426785193,
				"y": 0.706729477,
				"z": -1.9489203777,
				"element": "C" 
			},
			{
				"x": -2.7416834172,
				"y": -0.2220564143,
				"z": -2.2750604275,
				"element": "C" 
			},
			{
				"x": -3.9779316319,
				"y": 0.2187826586,
				"z": -2.7391098422,
				"element": "C" 
			},
			{
				"x": -4.2227044657,
				"y": 1.5876523881,
				"z": -2.8809612653,
				"element": "C" 
			},
			{
				"x": -3.2290430804,
				"y": 2.5156045664,
				"z": -2.5591125068,
				"element": "C" 
			},
			{
				"x": -1.9896723547,
				"y": 2.0799838991,
				"z": -2.0935365825,
				"element": "C" 
			},
			{
				"x": 2.9090143612,
				"y": 0.1049787612,
				"z": 1.5189199715,
				"element": "C" 
			},
			{
				"x": 2.9330123813,
				"y": -0.0198380857,
				"z": 2.9055928471,
				"element": "C" 
			},
			{
				"x": 4.1274930386,
				"y": -0.334519679,
				"z": 0.8126707525,
				"element": "N" 
			},
			{
				"x": 4.242015814,
				"y": -0.0251378547,
				"z": -0.3749366786,
				"element": "O" 
			},
			{
				"x": 4.9609835061,
				"y": -0.9704007292,
				"z": 1.4501789409,
				"element": "O" 
			},
			{
				"x": -0.1420003069,
				"y": 1.2554239925,
				"z": 3.580901579,
				"element": "H" 
			},
			{
				"x": -0.1609290798,
				"y": 1.4460566826,
				"z": 1.0981282639,
				"element": "H" 
			},
			{
				"x": 1.9947095264,
				"y": -0.1839184339,
				"z": -1.1688933979,
				"element": "H" 
			},
			{
				"x": 2.4232168683,
				"y": 1.5271012602,
				"z": -1.0357022708,
				"element": "H" 
			},
			{
				"x": -2.5271560082,
				"y": -1.2788554932,
				"z": -2.1580135165,
				"element": "H" 
			},
			{
				"x": -4.7503659568,
				"y": -0.5016729916,
				"z": -2.9905524663,
				"element": "H" 
			},
			{
				"x": -5.1873406524,
				"y": 1.9311329923,
				"z": -3.2434882338,
				"element": "H" 
			},
			{
				"x": -3.4197974655,
				"y": 3.5785152172,
				"z": -2.6728019774,
				"element": "H" 
			},
			{
				"x": -1.2125327712,
				"y": 2.794028359,
				"z": -1.8465933027,
				"element": "H" 
			},
			{
				"x": 3.7973487777,
				"y": -0.4360803601,
				"z": 3.404308315,
				"element": "H" 
			}
		],
		 "valence_orbital": [ 
			{
				"type": "occ",
				"energy": -0.30392,
				"method": "rhf"
			},
			{
				"type": "occ",
				"energy": -0.30084,
				"method": "rhf"
			},
			{
				"type": "occ",
				"energy": -0.29299,
				"method": "rhf"
			},
			{
				"type": "occ",
				"energy": -0.27371,
				"method": "rhf"
			},
			{
				"type": "occ",
				"energy": -0.2715,
				"method": "rhf"
			},
			{
				"type": "unocc",
				"energy": -0.11174,
				"method": "rhf"
			},
			{
				"type": "unocc",
				"energy": -0.10306,
				"method": "rhf"
			},
			{
				"type": "unocc",
				"energy": -0.06202,
				"method": "rhf"
			},
			{
				"type": "unocc",
				"energy": -0.03455,
				"method": "rhf"
			},
			{
				"type": "unocc",
				"energy": -0.02104,
				"method": "rhf"
			}
		],
		"cosmo_sigma_profile": { 
			"-0.025": 0.0,
			"-0.024": 0.0,
			"-0.023": 0.0,
			"-0.022": 0.0,
			"-0.021": 0.0,
			"-0.02": 0.0,
			"-0.019": 0.0,
			"-0.018": 0.0,
			"-0.017": 0.0,
			"-0.016": 0.0,
			"-0.015": 0.0,
			"-0.014": 0.0,
			"-0.013": 0.0,
			"-0.012": 0.0,
			"-0.011": 0.0,
			"-0.01": 0.393130363111,
			"-0.009": 1.88050987249,
			"-0.008": 7.01248537599,
			"-0.007": 11.9719862547,
			"-0.006": 19.1051875949,
			"-0.005": 24.6754327887,
			"-0.004": 25.6173822646,
			"-0.003": 27.1118589166,
			"-0.002": 24.1443320096,
			"-0.001": 20.5517261179,
			"0.0": 19.3280172713,
			"0.001": 16.5313227092,
			"0.002": 17.2211040855,
			"0.003": 18.4318430998,
			"0.004": 17.8057694005,
			"0.005": 8.73406764321,
			"0.006": 11.7456978331,
			"0.007": 16.2364380946,
			"0.008": 11.3340011581,
			"0.009": 7.88875975054,
			"0.01": 3.32512786066,
			"0.011": 3.790595584,
			"0.012": 0.788284708723,
			"0.013": 0.0,
			"0.014": 0.0,
			"0.015": 0.0,
			"0.016": 0.0,
			"0.017": 0.0,
			"0.018": 0.0,
			"0.019": 0.0,
			"0.02": 0.0,
			"0.021": 0.0,
			"0.022": 0.0,
			"0.023": 0.0,
			"0.024": 0.0,
			"0.025": 0.0
		}
	}
}
