{
	 "smiles": "CC1=CC=C2NC3=C(C=CC=C3)C2=C1", 
	 "Tm": 481.15, 
	 "num_atms": 25, 
	 "gaussian": { 
		 "optdone": 1, 
		 "sigma_profile": "yes", 
		 "theory": "DFT", 
		 "functional": "B3LYP", 
		 "basiset": "6-31G**", 
		 "properties": { 
			 "R2extent": 3635.959, 
			 "electric_dipole_moment_norm": 1.5414235693, 
			 "electric_quadrupole_moment_norm": 11.7271303003, 
			 "total_energy": -556.79496832, 
			 "HOMO_LUMO_gap": 0.17325, 
			 "cosmo_polarized_energy": -8.7, 
			 "cosmo_cavitation_energy": 28.26, 
			 "cosmo_dispersion_energy": -21.13, 
			 "cosmo_repulsion_energy": 1.63, 
			 "cosmo_total_nonelectrostatic_energy": 8.77, 
			 "SMD_solvation_energy": 4.11 
		},
		"coords": [
			{
				"x": 4.43087538,
				"y": 0.2225150919,
				"z": 0.9853788583,
				"element": "C" 
			},
			{
				"x": 3.0932281329,
				"y": 0.9265095946,
				"z": 1.027482229,
				"element": "C" 
			},
			{
				"x": 2.917575964,
				"y": 2.0576863795,
				"z": 1.8555067323,
				"element": "C" 
			},
			{
				"x": 1.7089102839,
				"y": 2.7424974671,
				"z": 1.9326404125,
				"element": "C" 
			},
			{
				"x": 0.646401212,
				"y": 2.2762221338,
				"z": 1.1547843367,
				"element": "C" 
			},
			{
				"x": -0.6498453897,
				"y": 2.7573378606,
				"z": 1.0363425997,
				"element": "N" 
			},
			{
				"x": -1.3568620542,
				"y": 1.9693093013,
				"z": 0.1414166886,
				"element": "C" 
			},
			{
				"x": -0.4938026499,
				"y": 0.9459128508,
				"z": -0.3369157058,
				"element": "C" 
			},
			{
				"x": -0.9841809442,
				"y": 0.0156921416,
				"z": -1.2617549563,
				"element": "C" 
			},
			{
				"x": -2.3052198848,
				"y": 0.1154989575,
				"z": -1.690325477,
				"element": "C" 
			},
			{
				"x": -3.1433126598,
				"y": 1.1353315254,
				"z": -1.20506464,
				"element": "C" 
			},
			{
				"x": -2.68317051,
				"y": 2.0746865469,
				"z": -0.2847951019,
				"element": "C" 
			},
			{
				"x": 0.7875189415,
				"y": 1.1440527149,
				"z": 0.3127279334,
				"element": "C" 
			},
			{
				"x": 2.0188803456,
				"y": 0.4778003548,
				"z": 0.2588649026,
				"element": "C" 
			},
			{
				"x": 4.7207125253,
				"y": -0.1520359755,
				"z": 1.9744428412,
				"element": "H" 
			},
			{
				"x": 5.2300489891,
				"y": 0.8947475257,
				"z": 0.6508973376,
				"element": "H" 
			},
			{
				"x": 4.4092295405,
				"y": -0.6311460791,
				"z": 0.3020236569,
				"element": "H" 
			},
			{
				"x": 3.7568328584,
				"y": 2.4050343442,
				"z": 2.4533489526,
				"element": "H" 
			},
			{
				"x": 1.6000822009,
				"y": 3.6100598904,
				"z": 2.5774504883,
				"element": "H" 
			},
			{
				"x": -1.0212623272,
				"y": 3.5533134666,
				"z": 1.5278609554,
				"element": "H" 
			},
			{
				"x": -0.3414832265,
				"y": -0.7744128431,
				"z": -1.6401833133,
				"element": "H" 
			},
			{
				"x": -2.6953331433,
				"y": -0.6007215246,
				"z": -2.4071501165,
				"element": "H" 
			},
			{
				"x": -4.1704579891,
				"y": 1.193549513,
				"z": -1.5536094277,
				"element": "H" 
			},
			{
				"x": -3.334545568,
				"y": 2.8606135082,
				"z": 0.0869503691,
				"element": "H" 
			},
			{
				"x": 2.1402799724,
				"y": -0.3915547467,
				"z": -0.3828205556,
				"element": "H" 
			}
		],
		 "valence_orbital": [ 
			{
				"type": "occ",
				"energy": -0.31747,
				"method": "rhf"
			},
			{
				"type": "occ",
				"energy": -0.27323,
				"method": "rhf"
			},
			{
				"type": "occ",
				"energy": -0.24426,
				"method": "rhf"
			},
			{
				"type": "occ",
				"energy": -0.20736,
				"method": "rhf"
			},
			{
				"type": "occ",
				"energy": -0.19621,
				"method": "rhf"
			},
			{
				"type": "unocc",
				"energy": -0.02296,
				"method": "rhf"
			},
			{
				"type": "unocc",
				"energy": 0.01177,
				"method": "rhf"
			},
			{
				"type": "unocc",
				"energy": 0.03481,
				"method": "rhf"
			},
			{
				"type": "unocc",
				"energy": 0.04585,
				"method": "rhf"
			},
			{
				"type": "unocc",
				"energy": 0.08569,
				"method": "rhf"
			}
		],
		"cosmo_sigma_profile": { 
			"-0.025": 0.0,
			"-0.024": 0.0,
			"-0.023": 0.0,
			"-0.022": 0.0,
			"-0.021": 0.0,
			"-0.02": 0.0,
			"-0.019": 0.0,
			"-0.018": 0.0,
			"-0.017": 0.0,
			"-0.016": 0.0584248806182,
			"-0.015": 1.32227621596,
			"-0.014": 1.57295477506,
			"-0.013": 1.04889759443,
			"-0.012": 0.867391538417,
			"-0.011": 1.35964659337,
			"-0.01": 1.49277989212,
			"-0.009": 1.72888119126,
			"-0.008": 1.35845767434,
			"-0.007": 1.64121835357,
			"-0.006": 5.99953319705,
			"-0.005": 13.3045710172,
			"-0.004": 17.1332949175,
			"-0.003": 20.7157919087,
			"-0.002": 18.3051842334,
			"-0.001": 16.5256674257,
			"0.0": 15.9985005114,
			"0.001": 14.2898902976,
			"0.002": 11.9061756935,
			"0.003": 14.5938052886,
			"0.004": 20.0026762093,
			"0.005": 18.5998457177,
			"0.006": 18.419988107,
			"0.007": 7.61578171885,
			"0.008": 0.00115489243524,
			"0.009": 0.0,
			"0.01": 0.0,
			"0.011": 0.0,
			"0.012": 0.0,
			"0.013": 0.0,
			"0.014": 0.0,
			"0.015": 0.0,
			"0.016": 0.0,
			"0.017": 0.0,
			"0.018": 0.0,
			"0.019": 0.0,
			"0.02": 0.0,
			"0.021": 0.0,
			"0.022": 0.0,
			"0.023": 0.0,
			"0.024": 0.0,
			"0.025": 0.0
		}
	}
}
