{
	 "smiles": "OC(=O)C1CN(CC2=CC=C(C=C2)C(F)(F)F)C(=O)C1", 
	 "Tm": 401.15, 
	 "num_atms": 32, 
	 "gaussian": { 
		 "optdone": 1, 
		 "sigma_profile": "yes", 
		 "theory": "DFT", 
		 "functional": "B3LYP", 
		 "basiset": "6-31G**", 
		 "properties": { 
			 "R2extent": 8423.9975, 
			 "electric_dipole_moment_norm": 4.68715839929, 
			 "electric_quadrupole_moment_norm": 21.3904440008, 
			 "total_energy": -1082.6022816, 
			 "HOMO_LUMO_gap": 0.21816, 
			 "cosmo_polarized_energy": -18.04, 
			 "cosmo_cavitation_energy": 38.04, 
			 "cosmo_dispersion_energy": -25.53, 
			 "cosmo_repulsion_energy": 1.92, 
			 "cosmo_total_nonelectrostatic_energy": 14.43, 
			 "SMD_solvation_energy": 8.78 
		},
		"coords": [
			{
				"x": 4.4191518956,
				"y": -1.3412087614,
				"z": -1.5569025038,
				"element": "O" 
			},
			{
				"x": 3.1467794412,
				"y": -0.9197156874,
				"z": -1.3693291494,
				"element": "C" 
			},
			{
				"x": 2.8402436769,
				"y": 0.2513605707,
				"z": -1.3720250782,
				"element": "O" 
			},
			{
				"x": 2.1955305577,
				"y": -2.0988594145,
				"z": -1.2000600242,
				"element": "C" 
			},
			{
				"x": 0.7715911731,
				"y": -1.6275321105,
				"z": -0.8250964337,
				"element": "C" 
			},
			{
				"x": 0.6747975418,
				"y": -1.9031036392,
				"z": 0.6018298363,
				"element": "N" 
			},
			{
				"x": -0.4421576073,
				"y": -1.4535897866,
				"z": 1.4188257432,
				"element": "C" 
			},
			{
				"x": -0.3695017681,
				"y": 0.0192276522,
				"z": 1.7794472828,
				"element": "C" 
			},
			{
				"x": -1.312308768,
				"y": 0.9315176182,
				"z": 1.3005516554,
				"element": "C" 
			},
			{
				"x": -1.2357317602,
				"y": 2.2841296551,
				"z": 1.6406405442,
				"element": "C" 
			},
			{
				"x": -0.2062722813,
				"y": 2.7303173997,
				"z": 2.4667438777,
				"element": "C" 
			},
			{
				"x": 0.7451286751,
				"y": 1.8246932319,
				"z": 2.9542199405,
				"element": "C" 
			},
			{
				"x": 0.6622834098,
				"y": 0.4804978739,
				"z": 2.6124657478,
				"element": "C" 
			},
			{
				"x": -0.0909897399,
				"y": 4.1794396394,
				"z": 2.8523459668,
				"element": "C" 
			},
			{
				"x": -1.0849807618,
				"y": 4.9314335525,
				"z": 2.3325196003,
				"element": "F" 
			},
			{
				"x": 1.0795866797,
				"y": 4.7137596009,
				"z": 2.4330034279,
				"element": "F" 
			},
			{
				"x": -0.1256561576,
				"y": 4.3391655151,
				"z": 4.1962965498,
				"element": "F" 
			},
			{
				"x": 1.6806846194,
				"y": -2.6832311271,
				"z": 1.1082742241,
				"element": "C" 
			},
			{
				"x": 1.7914883886,
				"y": -3.0339246762,
				"z": 2.2741110488,
				"element": "O" 
			},
			{
				"x": 2.6122044338,
				"y": -3.0444017008,
				"z": -0.0479567908,
				"element": "C" 
			},
			{
				"x": 4.9586327801,
				"y": -0.5407282925,
				"z": -1.6719273564,
				"element": "H" 
			},
			{
				"x": 2.198460769,
				"y": -2.6259900006,
				"z": -2.1596057465,
				"element": "H" 
			},
			{
				"x": 0.6471637993,
				"y": -0.5605858519,
				"z": -1.0305150553,
				"element": "H" 
			},
			{
				"x": 0.0046771014,
				"y": -2.1844339528,
				"z": -1.3821473376,
				"element": "H" 
			},
			{
				"x": -0.4118667009,
				"y": -2.0649506008,
				"z": 2.3260418335,
				"element": "H" 
			},
			{
				"x": -1.3806271209,
				"y": -1.6670940638,
				"z": 0.8924519409,
				"element": "H" 
			},
			{
				"x": -2.1185503945,
				"y": 0.5862441396,
				"z": 0.6582066362,
				"element": "H" 
			},
			{
				"x": -1.9701896345,
				"y": 2.9876378275,
				"z": 1.2654906566,
				"element": "H" 
			},
			{
				"x": 1.5420228384,
				"y": 2.1754934311,
				"z": 3.6025305914,
				"element": "H" 
			},
			{
				"x": 1.3929711757,
				"y": -0.2272389339,
				"z": 2.9938319141,
				"element": "H" 
			},
			{
				"x": 2.4477879348,
				"y": -4.0954113755,
				"z": -0.3081526809,
				"element": "H" 
			},
			{
				"x": 3.6566458035,
				"y": -2.9440177323,
				"z": 0.2496891385,
				"element": "H" 
			}
		],
		 "valence_orbital": [ 
			{
				"type": "occ",
				"energy": -0.29054,
				"method": "rhf"
			},
			{
				"type": "occ",
				"energy": -0.2668,
				"method": "rhf"
			},
			{
				"type": "occ",
				"energy": -0.2651,
				"method": "rhf"
			},
			{
				"type": "occ",
				"energy": -0.25296,
				"method": "rhf"
			},
			{
				"type": "occ",
				"energy": -0.24652,
				"method": "rhf"
			},
			{
				"type": "unocc",
				"energy": -0.02836,
				"method": "rhf"
			},
			{
				"type": "unocc",
				"energy": -0.01532,
				"method": "rhf"
			},
			{
				"type": "unocc",
				"energy": -0.00924,
				"method": "rhf"
			},
			{
				"type": "unocc",
				"energy": 0.02274,
				"method": "rhf"
			},
			{
				"type": "unocc",
				"energy": 0.06378,
				"method": "rhf"
			}
		],
		"cosmo_sigma_profile": { 
			"-0.025": 0.0,
			"-0.024": 0.0,
			"-0.023": 0.0,
			"-0.022": 0.0,
			"-0.021": 0.0,
			"-0.02": 0.0,
			"-0.019": 0.0373366154275,
			"-0.018": 0.894080943239,
			"-0.017": 1.08230172361,
			"-0.016": 0.862022793426,
			"-0.015": 0.613403883439,
			"-0.014": 1.10872366308,
			"-0.013": 0.246387631393,
			"-0.012": 0.52250620699,
			"-0.011": 1.35681211637,
			"-0.01": 0.667861182383,
			"-0.009": 0.358551405134,
			"-0.008": 2.48050496002,
			"-0.007": 11.1174879118,
			"-0.006": 20.2303063051,
			"-0.005": 23.9000541664,
			"-0.004": 19.6564365132,
			"-0.003": 21.6015033155,
			"-0.002": 19.7706865893,
			"-0.001": 16.7395216579,
			"0.0": 16.9043616707,
			"0.001": 17.7768412721,
			"0.002": 26.8695173851,
			"0.003": 45.1910192102,
			"0.004": 11.3184961586,
			"0.005": 4.93195778181,
			"0.006": 3.58597683754,
			"0.007": 3.09821164485,
			"0.008": 4.68146052295,
			"0.009": 3.51724185775,
			"0.01": 3.24843973367,
			"0.011": 5.95433593531,
			"0.012": 3.3689611672,
			"0.013": 3.76991968001,
			"0.014": 3.88493356125,
			"0.015": 0.908131185141,
			"0.016": 0.0,
			"0.017": 0.0,
			"0.018": 0.0,
			"0.019": 0.0,
			"0.02": 0.0,
			"0.021": 0.0,
			"0.022": 0.0,
			"0.023": 0.0,
			"0.024": 0.0,
			"0.025": 0.0
		}
	}
}
