{
	 "smiles": "ClC1=C(Cl)C=C(Br)C=C1", 
	 "Tm": 297.65, 
	 "num_atms": 12, 
	 "gaussian": { 
		 "optdone": 1, 
		 "sigma_profile": "yes", 
		 "theory": "DFT", 
		 "functional": "B3LYP", 
		 "basiset": "6-31G**", 
		 "properties": { 
			 "R2extent": 4043.036, 
			 "electric_dipole_moment_norm": 1.458941846, 
			 "electric_quadrupole_moment_norm": 4.07948587447, 
			 "total_energy": -3722.22979942, 
			 "HOMO_LUMO_gap": 0.21365, 
			 "cosmo_polarized_energy": -3.87, 
			 "cosmo_cavitation_energy": 22.32, 
			 "cosmo_dispersion_energy": -17.34, 
			 "cosmo_repulsion_energy": 1.42, 
			 "cosmo_total_nonelectrostatic_energy": 6.41, 
			 "SMD_solvation_energy": 2.19 
		},
		"coords": [
			{
				"x": 0.528668423,
				"y": 2.7959931264,
				"z": -2.1788813103,
				"element": "Cl" 
			},
			{
				"x": -0.2778563854,
				"y": 1.3964392865,
				"z": -1.5210183898,
				"element": "C" 
			},
			{
				"x": -0.9802215176,
				"y": 0.5013070207,
				"z": -2.3403376817,
				"element": "C" 
			},
			{
				"x": -1.0878399616,
				"y": 0.7359317695,
				"z": -4.0652362585,
				"element": "Cl" 
			},
			{
				"x": -1.6151021849,
				"y": -0.6100905491,
				"z": -1.7802665624,
				"element": "C" 
			},
			{
				"x": -1.5435894192,
				"y": -0.8188721243,
				"z": -0.4062158846,
				"element": "C" 
			},
			{
				"x": -2.4129650963,
				"y": -2.3377214872,
				"z": 0.3496027233,
				"element": "Br" 
			},
			{
				"x": -0.8490842518,
				"y": 0.0622015325,
				"z": 0.4211151726,
				"element": "C" 
			},
			{
				"x": -0.2189597109,
				"y": 1.1674787795,
				"z": -0.1442631627,
				"element": "C" 
			},
			{
				"x": -2.1555205629,
				"y": -1.2967102575,
				"z": -2.4196127669,
				"element": "H" 
			},
			{
				"x": -0.7994396793,
				"y": -0.109401012,
				"z": 1.4897223945,
				"element": "H" 
			},
			{
				"x": 0.3262103468,
				"y": 1.8644439151,
				"z": 0.4824917265,
				"element": "H" 
			}
		],
		 "valence_orbital": [ 
			{
				"type": "occ",
				"energy": -0.31808,
				"method": "rhf"
			},
			{
				"type": "occ",
				"energy": -0.31061,
				"method": "rhf"
			},
			{
				"type": "occ",
				"energy": -0.30134,
				"method": "rhf"
			},
			{
				"type": "occ",
				"energy": -0.27332,
				"method": "rhf"
			},
			{
				"type": "occ",
				"energy": -0.25152,
				"method": "rhf"
			},
			{
				"type": "unocc",
				"energy": -0.03787,
				"method": "rhf"
			},
			{
				"type": "unocc",
				"energy": -0.03692,
				"method": "rhf"
			},
			{
				"type": "unocc",
				"energy": -0.02156,
				"method": "rhf"
			},
			{
				"type": "unocc",
				"energy": 0.01186,
				"method": "rhf"
			},
			{
				"type": "unocc",
				"energy": 0.05531,
				"method": "rhf"
			}
		],
		"cosmo_sigma_profile": { 
			"-0.025": 0.0,
			"-0.024": 0.0,
			"-0.023": 0.0,
			"-0.022": 0.0,
			"-0.021": 0.0,
			"-0.02": 0.0,
			"-0.019": 0.0,
			"-0.018": 0.0,
			"-0.017": 0.0,
			"-0.016": 0.0,
			"-0.015": 0.0,
			"-0.014": 0.0,
			"-0.013": 0.0,
			"-0.012": 0.0,
			"-0.011": 0.0,
			"-0.01": 0.0,
			"-0.009": 1.27648270591,
			"-0.008": 5.41585954201,
			"-0.007": 5.52455527827,
			"-0.006": 4.74271623093,
			"-0.005": 5.73393162983,
			"-0.004": 7.07470031343,
			"-0.003": 8.72396869683,
			"-0.002": 10.5569671673,
			"-0.001": 17.0365874384,
			"0.0": 27.7178360783,
			"0.001": 26.5206895375,
			"0.002": 18.1641593141,
			"0.003": 22.7710227379,
			"0.004": 23.0605868245,
			"0.005": 3.53625755381,
			"0.006": 0.0650235829535,
			"0.007": 0.0,
			"0.008": 0.0,
			"0.009": 0.0,
			"0.01": 0.0,
			"0.011": 0.0,
			"0.012": 0.0,
			"0.013": 0.0,
			"0.014": 0.0,
			"0.015": 0.0,
			"0.016": 0.0,
			"0.017": 0.0,
			"0.018": 0.0,
			"0.019": 0.0,
			"0.02": 0.0,
			"0.021": 0.0,
			"0.022": 0.0,
			"0.023": 0.0,
			"0.024": 0.0,
			"0.025": 0.0
		}
	}
}
