{
	 "smiles": "[O-][N+](=O)C1=C(C=O)C=C(F)C=C1", 
	 "Tm": 367.65, 
	 "num_atms": 16, 
	 "gaussian": { 
		 "optdone": 1, 
		 "sigma_profile": "yes", 
		 "theory": "DFT", 
		 "functional": "B3LYP", 
		 "basiset": "6-31G**", 
		 "properties": { 
			 "R2extent": 2072.807, 
			 "electric_dipole_moment_norm": 5.15443617382, 
			 "electric_quadrupole_moment_norm": 13.5484452466, 
			 "total_energy": -649.282669286, 
			 "HOMO_LUMO_gap": 0.17429, 
			 "cosmo_polarized_energy": -13.43, 
			 "cosmo_cavitation_energy": 22.65, 
			 "cosmo_dispersion_energy": -16.06, 
			 "cosmo_repulsion_energy": 1.25, 
			 "cosmo_total_nonelectrostatic_energy": 7.84, 
			 "SMD_solvation_energy": 7.8 
		},
		"coords": [
			{
				"x": -1.6629938313,
				"y": -0.9511844838,
				"z": -1.9875880967,
				"element": "O" 
			},
			{
				"x": -1.5115547316,
				"y": 0.2404471442,
				"z": -1.748602061,
				"element": "N" 
			},
			{
				"x": -1.9005817213,
				"y": 1.1728578707,
				"z": -2.4493164276,
				"element": "O" 
			},
			{
				"x": -0.8763874586,
				"y": 0.5977295325,
				"z": -0.4661349636,
				"element": "C" 
			},
			{
				"x": 0.2609145686,
				"y": -0.0754185051,
				"z": 0.0120230397,
				"element": "C" 
			},
			{
				"x": 1.1122142832,
				"y": -1.0026542384,
				"z": -0.7967315531,
				"element": "C" 
			},
			{
				"x": 1.1499542114,
				"y": -1.0325500968,
				"z": -2.0047352734,
				"element": "O" 
			},
			{
				"x": 0.7184494261,
				"y": 0.2369199404,
				"z": 1.2957944551,
				"element": "C" 
			},
			{
				"x": 0.0634169854,
				"y": 1.2044370401,
				"z": 2.0507493045,
				"element": "C" 
			},
			{
				"x": 0.5215256973,
				"y": 1.4891072504,
				"z": 3.2792955139,
				"element": "F" 
			},
			{
				"x": -1.0432497164,
				"y": 1.8894238424,
				"z": 1.5633514713,
				"element": "C" 
			},
			{
				"x": -1.5115630945,
				"y": 1.579543569,
				"z": 0.2867969696,
				"element": "C" 
			},
			{
				"x": 1.7771613687,
				"y": -1.6426111516,
				"z": -0.177180048,
				"element": "H" 
			},
			{
				"x": 1.5993333544,
				"y": -0.2515091461,
				"z": 1.7011161063,
				"element": "H" 
			},
			{
				"x": -1.5262997677,
				"y": 2.6415319848,
				"z": 2.1766934451,
				"element": "H" 
			},
			{
				"x": -2.3757395738,
				"y": 2.0850294472,
				"z": -0.1278318822,
				"element": "H" 
			}
		],
		 "valence_orbital": [ 
			{
				"type": "occ",
				"energy": -0.31381,
				"method": "rhf"
			},
			{
				"type": "occ",
				"energy": -0.31139,
				"method": "rhf"
			},
			{
				"type": "occ",
				"energy": -0.30194,
				"method": "rhf"
			},
			{
				"type": "occ",
				"energy": -0.28057,
				"method": "rhf"
			},
			{
				"type": "occ",
				"energy": -0.27597,
				"method": "rhf"
			},
			{
				"type": "unocc",
				"energy": -0.10168,
				"method": "rhf"
			},
			{
				"type": "unocc",
				"energy": -0.07203,
				"method": "rhf"
			},
			{
				"type": "unocc",
				"energy": -0.03436,
				"method": "rhf"
			},
			{
				"type": "unocc",
				"energy": 0.0075,
				"method": "rhf"
			},
			{
				"type": "unocc",
				"energy": 0.06188,
				"method": "rhf"
			}
		],
		"cosmo_sigma_profile": { 
			"-0.025": 0.0,
			"-0.024": 0.0,
			"-0.023": 0.0,
			"-0.022": 0.0,
			"-0.021": 0.0,
			"-0.02": 0.0,
			"-0.019": 0.0,
			"-0.018": 0.0,
			"-0.017": 0.0,
			"-0.016": 0.0,
			"-0.015": 0.0,
			"-0.014": 0.0,
			"-0.013": 0.0,
			"-0.012": 0.0,
			"-0.011": 0.330020884045,
			"-0.01": 3.27694160619,
			"-0.009": 7.53750595854,
			"-0.008": 9.67672267454,
			"-0.007": 8.52656331255,
			"-0.006": 7.12604796967,
			"-0.005": 6.45671507096,
			"-0.004": 7.55365236657,
			"-0.003": 10.1825737762,
			"-0.002": 20.8232356424,
			"-0.001": 14.5520207944,
			"0.0": 10.8568253144,
			"0.001": 5.35022698496,
			"0.002": 6.50670643842,
			"0.003": 12.9588571443,
			"0.004": 5.24553768268,
			"0.005": 4.39092691045,
			"0.006": 6.21897611604,
			"0.007": 12.413384458,
			"0.008": 9.74156278976,
			"0.009": 6.50671198519,
			"0.01": 4.44226532772,
			"0.011": 1.89114984188,
			"0.012": 0.393642957082,
			"0.013": 0.0,
			"0.014": 0.0,
			"0.015": 0.0,
			"0.016": 0.0,
			"0.017": 0.0,
			"0.018": 0.0,
			"0.019": 0.0,
			"0.02": 0.0,
			"0.021": 0.0,
			"0.022": 0.0,
			"0.023": 0.0,
			"0.024": 0.0,
			"0.025": 0.0
		}
	}
}
