{
	 "smiles": "COC1=CC=C(C=C1)P(C1=CC=C(OC)C=C1)C1=CC=C(OC)C=C1", 
	 "Tm": 405.15, 
	 "num_atms": 46, 
	 "gaussian": { 
		 "optdone": 1, 
		 "sigma_profile": "yes", 
		 "theory": "DFT", 
		 "functional": "B3LYP", 
		 "basiset": "6-31G**", 
		 "properties": { 
			 "R2extent": 12472.1152, 
			 "electric_dipole_moment_norm": 4.70127428364, 
			 "electric_quadrupole_moment_norm": 6.12765104587, 
			 "total_energy": -1379.87710479, 
			 "HOMO_LUMO_gap": 0.18766, 
			 "cosmo_polarized_energy": -14.25, 
			 "cosmo_cavitation_energy": 51.05, 
			 "cosmo_dispersion_energy": -35.69, 
			 "cosmo_repulsion_energy": 2.82, 
			 "cosmo_total_nonelectrostatic_energy": 18.18, 
			 "SMD_solvation_energy": 10.95 
		},
		"coords": [
			{
				"x": 4.7365170417,
				"y": -3.5589151972,
				"z": 2.3562690778,
				"element": "C" 
			},
			{
				"x": 4.3183809517,
				"y": -2.4472472932,
				"z": 3.1316239071,
				"element": "O" 
			},
			{
				"x": 3.5745561287,
				"y": -1.4782536874,
				"z": 2.5234469091,
				"element": "C" 
			},
			{
				"x": 3.2029046363,
				"y": -0.3959171078,
				"z": 3.3362088087,
				"element": "C" 
			},
			{
				"x": 2.4543292975,
				"y": 0.6455429224,
				"z": 2.8063254984,
				"element": "C" 
			},
			{
				"x": 2.0342478794,
				"y": 0.6389545465,
				"z": 1.46154283,
				"element": "C" 
			},
			{
				"x": 2.4174343118,
				"y": -0.4471426489,
				"z": 0.6659559693,
				"element": "C" 
			},
			{
				"x": 3.1817930239,
				"y": -1.499386244,
				"z": 1.1804023045,
				"element": "C" 
			},
			{
				"x": 1.0569239935,
				"y": 2.0930687911,
				"z": 0.8671999732,
				"element": "P" 
			},
			{
				"x": 1.1874544072,
				"y": 1.9435716353,
				"z": -0.9722801128,
				"element": "C" 
			},
			{
				"x": 0.282665473,
				"y": 1.2507111897,
				"z": -1.785135076,
				"element": "C" 
			},
			{
				"x": 0.4317402605,
				"y": 1.205186444,
				"z": -3.1750327342,
				"element": "C" 
			},
			{
				"x": 1.511005612,
				"y": 1.8610909036,
				"z": -3.7778814074,
				"element": "C" 
			},
			{
				"x": 1.7557403539,
				"y": 1.8840586141,
				"z": -5.1201656764,
				"element": "O" 
			},
			{
				"x": 0.8541132191,
				"y": 1.2048871519,
				"z": -5.9790035654,
				"element": "C" 
			},
			{
				"x": 2.4270006012,
				"y": 2.5639695283,
				"z": -2.9797089631,
				"element": "C" 
			},
			{
				"x": 2.2573313548,
				"y": 2.6086679697,
				"z": -1.6031173943,
				"element": "C" 
			},
			{
				"x": -0.6872072071,
				"y": 1.5682068335,
				"z": 1.1922495257,
				"element": "C" 
			},
			{
				"x": -1.6764582452,
				"y": 2.5713801517,
				"z": 1.1969630604,
				"element": "C" 
			},
			{
				"x": -3.0089416037,
				"y": 2.273212582,
				"z": 1.4446370882,
				"element": "C" 
			},
			{
				"x": -3.3939844207,
				"y": 0.9512311876,
				"z": 1.7171808121,
				"element": "C" 
			},
			{
				"x": -4.7233828467,
				"y": 0.7595071156,
				"z": 1.9582757277,
				"element": "O" 
			},
			{
				"x": -5.16965312,
				"y": -0.5538210192,
				"z": 2.2545748357,
				"element": "C" 
			},
			{
				"x": -2.4265579822,
				"y": -0.0598228573,
				"z": 1.7331022067,
				"element": "C" 
			},
			{
				"x": -1.0899335609,
				"y": 0.2566048246,
				"z": 1.469507083,
				"element": "C" 
			},
			{
				"x": 5.3743139627,
				"y": -3.2516730537,
				"z": 1.5173802391,
				"element": "H" 
			},
			{
				"x": 3.881626589,
				"y": -4.1261576872,
				"z": 1.9656755874,
				"element": "H" 
			},
			{
				"x": 5.3119492355,
				"y": -4.1967862647,
				"z": 3.0290630769,
				"element": "H" 
			},
			{
				"x": 3.5245155828,
				"y": -0.3915254051,
				"z": 4.3727563131,
				"element": "H" 
			},
			{
				"x": 2.1914777521,
				"y": 1.4852726577,
				"z": 3.4449714199,
				"element": "H" 
			},
			{
				"x": 2.1239751975,
				"y": -0.4782847618,
				"z": -0.3788439451,
				"element": "H" 
			},
			{
				"x": 3.4620048107,
				"y": -2.3191541588,
				"z": 0.5290323091,
				"element": "H" 
			},
			{
				"x": -0.5621420722,
				"y": 0.7389190866,
				"z": -1.3344737527,
				"element": "H" 
			},
			{
				"x": -0.2943448533,
				"y": 0.6619222188,
				"z": -3.7687339858,
				"element": "H" 
			},
			{
				"x": -0.1613548876,
				"y": 1.6155633359,
				"z": -5.9077330076,
				"element": "H" 
			},
			{
				"x": 0.8200545492,
				"y": 0.1290486533,
				"z": -5.7631700676,
				"element": "H" 
			},
			{
				"x": 1.2311454998,
				"y": 1.3549309905,
				"z": -6.9919138174,
				"element": "H" 
			},
			{
				"x": 3.2524328351,
				"y": 3.0747907346,
				"z": -3.4651026077,
				"element": "H" 
			},
			{
				"x": 2.9653071975,
				"y": 3.1737816738,
				"z": -1.0018479336,
				"element": "H" 
			},
			{
				"x": -1.3928506596,
				"y": 3.6035721231,
				"z": 1.0065452053,
				"element": "H" 
			},
			{
				"x": -3.7710312607,
				"y": 3.0459355741,
				"z": 1.4460022097,
				"element": "H" 
			},
			{
				"x": -4.9769591824,
				"y": -1.2452085792,
				"z": 1.4238962842,
				"element": "H" 
			},
			{
				"x": -6.246350402,
				"y": -0.4778198903,
				"z": 2.4145772839,
				"element": "H" 
			},
			{
				"x": -4.6969704811,
				"y": -0.9475475338,
				"z": 3.1636776837,
				"element": "H" 
			},
			{
				"x": -2.6957060637,
				"y": -1.0874312527,
				"z": 1.9485081804,
				"element": "H" 
			},
			{
				"x": -0.3522129091,
				"y": -0.5396947981,
				"z": 1.4888926368,
				"element": "H" 
			}
		],
		 "valence_orbital": [ 
			{
				"type": "occ",
				"energy": -0.24685,
				"method": "rhf"
			},
			{
				"type": "occ",
				"energy": -0.2423,
				"method": "rhf"
			},
			{
				"type": "occ",
				"energy": -0.22021,
				"method": "rhf"
			},
			{
				"type": "occ",
				"energy": -0.22017,
				"method": "rhf"
			},
			{
				"type": "occ",
				"energy": -0.19326,
				"method": "rhf"
			},
			{
				"type": "unocc",
				"energy": -0.0056,
				"method": "rhf"
			},
			{
				"type": "unocc",
				"energy": -0.00525,
				"method": "rhf"
			},
			{
				"type": "unocc",
				"energy": -0.00519,
				"method": "rhf"
			},
			{
				"type": "unocc",
				"energy": 0.00764,
				"method": "rhf"
			},
			{
				"type": "unocc",
				"energy": 0.00768,
				"method": "rhf"
			}
		],
		"cosmo_sigma_profile": { 
			"-0.025": 0.0,
			"-0.024": 0.0,
			"-0.023": 0.0,
			"-0.022": 0.0,
			"-0.021": 0.0,
			"-0.02": 0.0,
			"-0.019": 0.0,
			"-0.018": 0.0,
			"-0.017": 0.0,
			"-0.016": 0.0,
			"-0.015": 0.0,
			"-0.014": 0.0,
			"-0.013": 0.0,
			"-0.012": 0.0,
			"-0.011": 0.0,
			"-0.01": 0.0,
			"-0.009": 0.0,
			"-0.008": 0.0,
			"-0.007": 1.21609207168,
			"-0.006": 20.6006179765,
			"-0.005": 44.0600671853,
			"-0.004": 42.6865790642,
			"-0.003": 43.8774620795,
			"-0.002": 28.1161803844,
			"-0.001": 25.1710265612,
			"0.0": 21.6386138228,
			"0.001": 22.6118465823,
			"0.002": 25.9453096564,
			"0.003": 33.7040010148,
			"0.004": 36.2678301045,
			"0.005": 27.9812578056,
			"0.006": 10.2911827812,
			"0.007": 4.43512678287,
			"0.008": 5.05651126589,
			"0.009": 4.79920034288,
			"0.01": 5.38708228162,
			"0.011": 1.56526745251,
			"0.012": 0.482206707052,
			"0.013": 0.687109372755,
			"0.014": 0.531886488033,
			"0.015": 0.0822326370416,
			"0.016": 0.0,
			"0.017": 0.0,
			"0.018": 0.0,
			"0.019": 0.0,
			"0.02": 0.0,
			"0.021": 0.0,
			"0.022": 0.0,
			"0.023": 0.0,
			"0.024": 0.0,
			"0.025": 0.0
		}
	}
}
