{
	 "smiles": "CCCCCC(Cl)=O", 
	 "Tm": 186.15, 
	 "num_atms": 19, 
	 "gaussian": { 
		 "optdone": 1, 
		 "sigma_profile": "yes", 
		 "theory": "DFT", 
		 "functional": "B3LYP", 
		 "basiset": "6-31G**", 
		 "properties": { 
			 "R2extent": 2467.9637, 
			 "electric_dipole_moment_norm": 3.39892942116, 
			 "electric_quadrupole_moment_norm": 11.6152334049, 
			 "total_energy": -770.705930048, 
			 "HOMO_LUMO_gap": 0.25303, 
			 "cosmo_polarized_energy": -5.2, 
			 "cosmo_cavitation_energy": 23.82, 
			 "cosmo_dispersion_energy": -17.07, 
			 "cosmo_repulsion_energy": 1.47, 
			 "cosmo_total_nonelectrostatic_energy": 8.22, 
			 "SMD_solvation_energy": 4.44 
		},
		"coords": [
			{
				"x": 0.1795180823,
				"y": -2.0803940121,
				"z": 2.006183146,
				"element": "C" 
			},
			{
				"x": 0.9863243875,
				"y": -1.5082754109,
				"z": 0.8345122487,
				"element": "C" 
			},
			{
				"x": 0.655163759,
				"y": -0.0480095978,
				"z": 0.4841943095,
				"element": "C" 
			},
			{
				"x": -0.7699578844,
				"y": 0.15991044,
				"z": -0.047920517,
				"element": "C" 
			},
			{
				"x": -1.021510235,
				"y": 1.6311674431,
				"z": -0.4400666817,
				"element": "C" 
			},
			{
				"x": -2.4053203663,
				"y": 1.8523415523,
				"z": -0.9983802429,
				"element": "C" 
			},
			{
				"x": -3.703469496,
				"y": 1.7841982998,
				"z": 0.3085016087,
				"element": "Cl" 
			},
			{
				"x": -2.7174202794,
				"y": 2.0348325026,
				"z": -2.1295880678,
				"element": "O" 
			},
			{
				"x": 0.3116177127,
				"y": -1.4739361857,
				"z": 2.9097610116,
				"element": "H" 
			},
			{
				"x": -0.8924983083,
				"y": -2.1200340721,
				"z": 1.7876304474,
				"element": "H" 
			},
			{
				"x": 0.5014665031,
				"y": -3.0998301099,
				"z": 2.2415235325,
				"element": "H" 
			},
			{
				"x": 0.838043737,
				"y": -2.1349111411,
				"z": -0.0554039168,
				"element": "H" 
			},
			{
				"x": 2.0553724358,
				"y": -1.5706628767,
				"z": 1.0729788045,
				"element": "H" 
			},
			{
				"x": 1.3714610269,
				"y": 0.3081152241,
				"z": -0.2680700926,
				"element": "H" 
			},
			{
				"x": 0.8044961989,
				"y": 0.5816517419,
				"z": 1.3728169077,
				"element": "H" 
			},
			{
				"x": -0.9324071931,
				"y": -0.4781261696,
				"z": -0.9258521131,
				"element": "H" 
			},
			{
				"x": -1.5070569253,
				"y": -0.1379879072,
				"z": 0.7038353747,
				"element": "H" 
			},
			{
				"x": -0.3212162651,
				"y": 1.9447325061,
				"z": -1.2207930834,
				"element": "H" 
			},
			{
				"x": -0.8892068905,
				"y": 2.2768177732,
				"z": 0.433937324,
				"element": "H" 
			}
		],
		 "valence_orbital": [ 
			{
				"type": "occ",
				"energy": -0.33755,
				"method": "rhf"
			},
			{
				"type": "occ",
				"energy": -0.33507,
				"method": "rhf"
			},
			{
				"type": "occ",
				"energy": -0.31719,
				"method": "rhf"
			},
			{
				"type": "occ",
				"energy": -0.3142,
				"method": "rhf"
			},
			{
				"type": "occ",
				"energy": -0.29193,
				"method": "rhf"
			},
			{
				"type": "unocc",
				"energy": -0.0389,
				"method": "rhf"
			},
			{
				"type": "unocc",
				"energy": 0.01753,
				"method": "rhf"
			},
			{
				"type": "unocc",
				"energy": 0.0785,
				"method": "rhf"
			},
			{
				"type": "unocc",
				"energy": 0.10346,
				"method": "rhf"
			},
			{
				"type": "unocc",
				"energy": 0.10861,
				"method": "rhf"
			}
		],
		"cosmo_sigma_profile": { 
			"-0.025": 0.0,
			"-0.024": 0.0,
			"-0.023": 0.0,
			"-0.022": 0.0,
			"-0.021": 0.0,
			"-0.02": 0.0,
			"-0.019": 0.0,
			"-0.018": 0.0,
			"-0.017": 0.0,
			"-0.016": 0.0,
			"-0.015": 0.0,
			"-0.014": 0.0,
			"-0.013": 0.0,
			"-0.012": 0.0,
			"-0.011": 0.0,
			"-0.01": 0.0,
			"-0.009": 0.0,
			"-0.008": 0.0,
			"-0.007": 1.69155292129,
			"-0.006": 5.74891350727,
			"-0.005": 7.98129603608,
			"-0.004": 11.5398660476,
			"-0.003": 17.6628229636,
			"-0.002": 25.3281368903,
			"-0.001": 24.6493579459,
			"0.0": 23.0365488326,
			"0.001": 18.8131787026,
			"0.002": 10.9652538538,
			"0.003": 5.55840499573,
			"0.004": 9.72912811098,
			"0.005": 9.5731453937,
			"0.006": 4.70313407601,
			"0.007": 3.16218956062,
			"0.008": 5.20441353202,
			"0.009": 2.52642179077,
			"0.01": 0.0233824522119,
			"0.011": 0.0,
			"0.012": 0.0,
			"0.013": 0.0,
			"0.014": 0.0,
			"0.015": 0.0,
			"0.016": 0.0,
			"0.017": 0.0,
			"0.018": 0.0,
			"0.019": 0.0,
			"0.02": 0.0,
			"0.021": 0.0,
			"0.022": 0.0,
			"0.023": 0.0,
			"0.024": 0.0,
			"0.025": 0.0
		}
	}
}
