{
	 "smiles": "CC1=C(CCO)C(C)=NN1", 
	 "Tm": 396.15, 
	 "num_atms": 22, 
	 "gaussian": { 
		 "optdone": 1, 
		 "sigma_profile": "yes", 
		 "theory": "DFT", 
		 "functional": "B3LYP", 
		 "basiset": "6-31G**", 
		 "properties": { 
			 "R2extent": 2066.4676, 
			 "electric_dipole_moment_norm": 1.4024803635, 
			 "electric_quadrupole_moment_norm": 19.1845732371, 
			 "total_energy": -458.689747289, 
			 "HOMO_LUMO_gap": 0.25082, 
			 "cosmo_polarized_energy": -13.62, 
			 "cosmo_cavitation_energy": 25.23, 
			 "cosmo_dispersion_energy": -17.93, 
			 "cosmo_repulsion_energy": 1.5, 
			 "cosmo_total_nonelectrostatic_energy": 8.8, 
			 "SMD_solvation_energy": 3.43 
		},
		"coords": [
			{
				"x": 1.3068739556,
				"y": -3.2975340211,
				"z": 1.1919674364,
				"element": "C" 
			},
			{
				"x": 0.9323564424,
				"y": -2.1953592446,
				"z": 0.2519778468,
				"element": "C" 
			},
			{
				"x": 0.4241707318,
				"y": -0.9220270653,
				"z": 0.4726064514,
				"element": "C" 
			},
			{
				"x": 0.0613435094,
				"y": -0.2924893132,
				"z": 1.7867238796,
				"element": "C" 
			},
			{
				"x": -1.4091606049,
				"y": -0.5119739363,
				"z": 2.1824594816,
				"element": "C" 
			},
			{
				"x": -1.7279010444,
				"y": 0.0507130383,
				"z": 3.4478517193,
				"element": "O" 
			},
			{
				"x": 0.2870511297,
				"y": -0.3551462955,
				"z": -0.8290887753,
				"element": "C" 
			},
			{
				"x": -0.2077777535,
				"y": 1.0111918328,
				"z": -1.1968327284,
				"element": "C" 
			},
			{
				"x": 0.682741533,
				"y": -1.2030023626,
				"z": -1.7773407241,
				"element": "N" 
			},
			{
				"x": 1.0687760946,
				"y": -2.3081681365,
				"z": -1.0987500424,
				"element": "N" 
			},
			{
				"x": 2.3094887616,
				"y": -3.6863348121,
				"z": 0.9795583605,
				"element": "H" 
			},
			{
				"x": 1.3043390267,
				"y": -2.9344707292,
				"z": 2.2225171572,
				"element": "H" 
			},
			{
				"x": 0.607228576,
				"y": -4.140505079,
				"z": 1.1385953312,
				"element": "H" 
			},
			{
				"x": 0.6902363522,
				"y": -0.6819623398,
				"z": 2.5960986371,
				"element": "H" 
			},
			{
				"x": 0.2545339229,
				"y": 0.7888987144,
				"z": 1.7431027904,
				"element": "H" 
			},
			{
				"x": -1.6097878309,
				"y": -1.5843787317,
				"z": 2.2730077666,
				"element": "H" 
			},
			{
				"x": -2.0707642995,
				"y": -0.1283292867,
				"z": 1.3896272093,
				"element": "H" 
			},
			{
				"x": -1.6133956295,
				"y": 1.0075110897,
				"z": 3.3802912361,
				"element": "H" 
			},
			{
				"x": -0.1400548374,
				"y": 1.1475803446,
				"z": -2.2783963845,
				"element": "H" 
			},
			{
				"x": -1.2520935333,
				"y": 1.1617545862,
				"z": -0.8988741749,
				"element": "H" 
			},
			{
				"x": 0.3844684884,
				"y": 1.7981990631,
				"z": -0.7146892984,
				"element": "H" 
			},
			{
				"x": 1.4090270093,
				"y": -3.1034673155,
				"z": -1.6161131755,
				"element": "H" 
			}
		],
		 "valence_orbital": [ 
			{
				"type": "occ",
				"energy": -0.32288,
				"method": "rhf"
			},
			{
				"type": "occ",
				"energy": -0.27574,
				"method": "rhf"
			},
			{
				"type": "occ",
				"energy": -0.26818,
				"method": "rhf"
			},
			{
				"type": "occ",
				"energy": -0.23376,
				"method": "rhf"
			},
			{
				"type": "occ",
				"energy": -0.22327,
				"method": "rhf"
			},
			{
				"type": "unocc",
				"energy": 0.02755,
				"method": "rhf"
			},
			{
				"type": "unocc",
				"energy": 0.06609,
				"method": "rhf"
			},
			{
				"type": "unocc",
				"energy": 0.07839,
				"method": "rhf"
			},
			{
				"type": "unocc",
				"energy": 0.08137,
				"method": "rhf"
			},
			{
				"type": "unocc",
				"energy": 0.10245,
				"method": "rhf"
			}
		],
		"cosmo_sigma_profile": { 
			"-0.025": 0.0,
			"-0.024": 0.0,
			"-0.023": 0.0,
			"-0.022": 0.0,
			"-0.021": 0.0,
			"-0.02": 0.0,
			"-0.019": 0.0,
			"-0.018": 0.0,
			"-0.017": 0.0,
			"-0.016": 0.278507909584,
			"-0.015": 2.21576734232,
			"-0.014": 2.00765623866,
			"-0.013": 1.8170807073,
			"-0.012": 1.98119590225,
			"-0.011": 2.36699367122,
			"-0.01": 1.72672791802,
			"-0.009": 1.83411169544,
			"-0.008": 2.332548742,
			"-0.007": 1.87424336196,
			"-0.006": 2.16045166061,
			"-0.005": 7.88995151561,
			"-0.004": 16.1449483332,
			"-0.003": 22.3902633444,
			"-0.002": 21.829679126,
			"-0.001": 20.1971767785,
			"0.0": 18.0732826193,
			"0.001": 10.8595596323,
			"0.002": 6.78695487212,
			"0.003": 5.45892184657,
			"0.004": 5.6207116956,
			"0.005": 6.30609996876,
			"0.006": 6.81494587293,
			"0.007": 3.7720754263,
			"0.008": 3.07577682009,
			"0.009": 3.11216873035,
			"0.01": 2.54743915564,
			"0.011": 1.90681373207,
			"0.012": 2.32541318423,
			"0.013": 3.90796589805,
			"0.014": 2.98187358021,
			"0.015": 2.41700640258,
			"0.016": 1.07172995803,
			"0.017": 0.809021580961,
			"0.018": 0.0502076367829,
			"0.019": 0.0,
			"0.02": 0.0,
			"0.021": 0.0,
			"0.022": 0.0,
			"0.023": 0.0,
			"0.024": 0.0,
			"0.025": 0.0
		}
	}
}
