{
	 "smiles": "CC(C)CC(C)(O)C#CC(C)(O)CC(C)C", 
	 "Tm": 316.15, 
	 "num_atms": 42, 
	 "gaussian": { 
		 "optdone": 1, 
		 "sigma_profile": "yes", 
		 "theory": "DFT", 
		 "functional": "B3LYP", 
		 "basiset": "6-31G**", 
		 "properties": { 
			 "R2extent": 5610.4958, 
			 "electric_dipole_moment_norm": 1.83420409988, 
			 "electric_quadrupole_moment_norm": 4.7827730565, 
			 "total_energy": -699.558532447, 
			 "HOMO_LUMO_gap": 0.28655, 
			 "cosmo_polarized_energy": -11.73, 
			 "cosmo_cavitation_energy": 42.31, 
			 "cosmo_dispersion_energy": -27.13, 
			 "cosmo_repulsion_energy": 2.2, 
			 "cosmo_total_nonelectrostatic_energy": 17.39, 
			 "SMD_solvation_energy": 7.61 
		},
		"coords": [
			{
				"x": -0.4039075634,
				"y": -1.6882426448,
				"z": -3.237879722,
				"element": "C" 
			},
			{
				"x": -0.2630473533,
				"y": -1.8396104263,
				"z": -1.7149930866,
				"element": "C" 
			},
			{
				"x": 0.3007697121,
				"y": -3.2258816899,
				"z": -1.3633750404,
				"element": "C" 
			},
			{
				"x": -1.5834868113,
				"y": -1.6083675724,
				"z": -0.9525913696,
				"element": "C" 
			},
			{
				"x": -2.1630739482,
				"y": -0.1671655085,
				"z": -0.9211697884,
				"element": "C" 
			},
			{
				"x": -3.3902004417,
				"y": -0.1167717343,
				"z": 0.0137916951,
				"element": "C" 
			},
			{
				"x": -2.5606454273,
				"y": 0.2766288229,
				"z": -2.2323044161,
				"element": "O" 
			},
			{
				"x": -1.1468420601,
				"y": 0.789709398,
				"z": -0.4529166948,
				"element": "C" 
			},
			{
				"x": -0.3021585319,
				"y": 1.5503755721,
				"z": -0.0362425496,
				"element": "C" 
			},
			{
				"x": 0.7638848349,
				"y": 2.4824682067,
				"z": 0.3850643084,
				"element": "C" 
			},
			{
				"x": 0.4658912199,
				"y": 3.9001871259,
				"z": -0.1423279414,
				"element": "C" 
			},
			{
				"x": 2.0231238079,
				"y": 2.0492990661,
				"z": -0.1677081129,
				"element": "O" 
			},
			{
				"x": 1.0041116123,
				"y": 2.4369428102,
				"z": 1.9178136322,
				"element": "C" 
			},
			{
				"x": -0.2047548672,
				"y": 2.3087849826,
				"z": 2.8657730762,
				"element": "C" 
			},
			{
				"x": 0.3054556359,
				"y": 2.142964077,
				"z": 4.3069735357,
				"element": "C" 
			},
			{
				"x": -1.2061373282,
				"y": 3.4708926623,
				"z": 2.7857728277,
				"element": "C" 
			},
			{
				"x": -0.7622733874,
				"y": -0.6940335168,
				"z": -3.5097283451,
				"element": "H" 
			},
			{
				"x": -1.1135210514,
				"y": -2.425392395,
				"z": -3.6373766876,
				"element": "H" 
			},
			{
				"x": 0.5581035834,
				"y": -1.8623996519,
				"z": -3.7327326559,
				"element": "H" 
			},
			{
				"x": 0.4528474755,
				"y": -1.0860809124,
				"z": -1.3605001165,
				"element": "H" 
			},
			{
				"x": 0.4730865109,
				"y": -3.3309714537,
				"z": -0.2865203939,
				"element": "H" 
			},
			{
				"x": -0.388809284,
				"y": -4.0224188036,
				"z": -1.6705072092,
				"element": "H" 
			},
			{
				"x": 1.2538980528,
				"y": -3.4017615465,
				"z": -1.8734838583,
				"element": "H" 
			},
			{
				"x": -1.4430983482,
				"y": -1.9182573867,
				"z": 0.0903668889,
				"element": "H" 
			},
			{
				"x": -2.3656457743,
				"y": -2.2676065211,
				"z": -1.3615104734,
				"element": "H" 
			},
			{
				"x": -3.8275154925,
				"y": 0.8840518911,
				"z": -0.0067917571,
				"element": "H" 
			},
			{
				"x": -4.1458019012,
				"y": -0.8363558937,
				"z": -0.3236371234,
				"element": "H" 
			},
			{
				"x": -3.1198200982,
				"y": -0.3636773339,
				"z": 1.0442678552,
				"element": "H" 
			},
			{
				"x": -3.1809812711,
				"y": -0.3827648423,
				"z": -2.5736610115,
				"element": "H" 
			},
			{
				"x": 1.2995034004,
				"y": 4.5583761941,
				"z": 0.1191999258,
				"element": "H" 
			},
			{
				"x": 0.3631352301,
				"y": 3.8813197613,
				"z": -1.2325954401,
				"element": "H" 
			},
			{
				"x": -0.4561581979,
				"y": 4.3123800381,
				"z": 0.2708098435,
				"element": "H" 
			},
			{
				"x": 1.9196571082,
				"y": 2.0264752308,
				"z": -1.1292083027,
				"element": "H" 
			},
			{
				"x": 1.5940870576,
				"y": 3.3239387256,
				"z": 2.1836961029,
				"element": "H" 
			},
			{
				"x": 1.6555550291,
				"y": 1.5716285455,
				"z": 2.0795294008,
				"element": "H" 
			},
			{
				"x": -0.7397521642,
				"y": 1.3899124835,
				"z": 2.591187472,
				"element": "H" 
			},
			{
				"x": 0.8434601462,
				"y": 3.0390638903,
				"z": 4.6401304058,
				"element": "H" 
			},
			{
				"x": -0.5252961114,
				"y": 1.9790744638,
				"z": 5.0017443021,
				"element": "H" 
			},
			{
				"x": 0.9907255363,
				"y": 1.2929946258,
				"z": 4.395383794,
				"element": "H" 
			},
			{
				"x": -1.9785579559,
				"y": 3.3638327601,
				"z": 3.5554997352,
				"element": "H" 
			},
			{
				"x": -1.7153164327,
				"y": 3.5053984056,
				"z": 1.8188164623,
				"element": "H" 
			},
			{
				"x": -0.7112941502,
				"y": 4.4364600945,
				"z": 2.9479408329,
				"element": "H" 
			}
		],
		 "valence_orbital": [ 
			{
				"type": "occ",
				"energy": -0.31535,
				"method": "rhf"
			},
			{
				"type": "occ",
				"energy": -0.28014,
				"method": "rhf"
			},
			{
				"type": "occ",
				"energy": -0.2712,
				"method": "rhf"
			},
			{
				"type": "occ",
				"energy": -0.25716,
				"method": "rhf"
			},
			{
				"type": "occ",
				"energy": -0.24927,
				"method": "rhf"
			},
			{
				"type": "unocc",
				"energy": 0.03728,
				"method": "rhf"
			},
			{
				"type": "unocc",
				"energy": 0.04514,
				"method": "rhf"
			},
			{
				"type": "unocc",
				"energy": 0.06689,
				"method": "rhf"
			},
			{
				"type": "unocc",
				"energy": 0.08101,
				"method": "rhf"
			},
			{
				"type": "unocc",
				"energy": 0.0977,
				"method": "rhf"
			}
		],
		"cosmo_sigma_profile": { 
			"-0.025": 0.0,
			"-0.024": 0.0,
			"-0.023": 0.0,
			"-0.022": 0.0,
			"-0.021": 0.0,
			"-0.02": 0.0,
			"-0.019": 0.0,
			"-0.018": 0.0,
			"-0.017": 0.0,
			"-0.016": 0.040686406847,
			"-0.015": 0.836804996416,
			"-0.014": 2.07916913438,
			"-0.013": 1.46199491236,
			"-0.012": 1.19484957917,
			"-0.011": 2.41260868669,
			"-0.01": 2.00739755301,
			"-0.009": 1.7152883283,
			"-0.008": 1.96619470185,
			"-0.007": 2.55121817462,
			"-0.006": 3.01313514169,
			"-0.005": 2.79278219316,
			"-0.004": 10.1776047557,
			"-0.003": 25.4418058372,
			"-0.002": 47.9390536699,
			"-0.001": 45.4707372823,
			"0.0": 50.6171555787,
			"0.001": 44.5117554755,
			"0.002": 28.7297704336,
			"0.003": 9.27687121294,
			"0.004": 7.24311662798,
			"0.005": 5.65818633298,
			"0.006": 3.71275982716,
			"0.007": 4.53877213097,
			"0.008": 3.76981908163,
			"0.009": 2.12614861844,
			"0.01": 2.28401100814,
			"0.011": 3.18798054225,
			"0.012": 2.42841518554,
			"0.013": 3.79177156238,
			"0.014": 2.55719351816,
			"0.015": 0.0721795490966,
			"0.016": 0.0,
			"0.017": 0.0,
			"0.018": 0.0,
			"0.019": 0.0,
			"0.02": 0.0,
			"0.021": 0.0,
			"0.022": 0.0,
			"0.023": 0.0,
			"0.024": 0.0,
			"0.025": 0.0
		}
	}
}
