{
	 "smiles": "CC1=C(C=CC=C1F)[N+]([O-])=O", 
	 "Tm": 280.15, 
	 "num_atms": 17, 
	 "gaussian": { 
		 "optdone": 1, 
		 "sigma_profile": "yes", 
		 "theory": "DFT", 
		 "functional": "B3LYP", 
		 "basiset": "6-31G**", 
		 "properties": { 
			 "R2extent": 2047.4826, 
			 "electric_dipole_moment_norm": 3.49371616764, 
			 "electric_quadrupole_moment_norm": 12.048533319, 
			 "total_energy": -575.295685406, 
			 "HOMO_LUMO_gap": 0.1748, 
			 "cosmo_polarized_energy": -6.88, 
			 "cosmo_cavitation_energy": 21.82, 
			 "cosmo_dispersion_energy": -16.16, 
			 "cosmo_repulsion_energy": 1.26, 
			 "cosmo_total_nonelectrostatic_energy": 6.93, 
			 "SMD_solvation_energy": 6.42 
		},
		"coords": [
			{
				"x": 0.2362689646,
				"y": -0.9738090326,
				"z": -2.8767119022,
				"element": "C" 
			},
			{
				"x": 0.0638106861,
				"y": -0.8913202531,
				"z": -1.380485884,
				"element": "C" 
			},
			{
				"x": 1.0843377351,
				"y": -0.6949419386,
				"z": -0.4288050858,
				"element": "C" 
			},
			{
				"x": 0.8491295018,
				"y": -0.6550893438,
				"z": 0.947664289,
				"element": "C" 
			},
			{
				"x": -0.448108331,
				"y": -0.7986356261,
				"z": 1.4259033478,
				"element": "C" 
			},
			{
				"x": -1.4961697392,
				"y": -0.9947377251,
				"z": 0.5281801485,
				"element": "C" 
			},
			{
				"x": -1.2174300685,
				"y": -1.0392866284,
				"z": -0.8316340486,
				"element": "C" 
			},
			{
				"x": -2.2546005469,
				"y": -1.2408213702,
				"z": -1.6731139978,
				"element": "F" 
			},
			{
				"x": 2.487780145,
				"y": -0.5129926442,
				"z": -0.8484914926,
				"element": "N" 
			},
			{
				"x": 2.7118676905,
				"y": -0.2112926795,
				"z": -2.0205948116,
				"element": "O" 
			},
			{
				"x": 3.3599689163,
				"y": -0.6619233989,
				"z": 0.0068240542,
				"element": "O" 
			},
			{
				"x": 1.0551883656,
				"y": -1.6427987055,
				"z": -3.1474875399,
				"element": "H" 
			},
			{
				"x": -0.6877768543,
				"y": -1.3290438885,
				"z": -3.3324074071,
				"element": "H" 
			},
			{
				"x": 0.4854104927,
				"y": 0.0047770009,
				"z": -3.2951695444,
				"element": "H" 
			},
			{
				"x": 1.689539196,
				"y": -0.5109742776,
				"z": 1.6135384598,
				"element": "H" 
			},
			{
				"x": -0.6430013317,
				"y": -0.759323565,
				"z": 2.49227367,
				"element": "H" 
			},
			{
				"x": -2.5221148221,
				"y": -1.1159859238,
				"z": 0.8581177446,
				"element": "H" 
			}
		],
		 "valence_orbital": [ 
			{
				"type": "occ",
				"energy": -0.31172,
				"method": "rhf"
			},
			{
				"type": "occ",
				"energy": -0.30858,
				"method": "rhf"
			},
			{
				"type": "occ",
				"energy": -0.29543,
				"method": "rhf"
			},
			{
				"type": "occ",
				"energy": -0.28103,
				"method": "rhf"
			},
			{
				"type": "occ",
				"energy": -0.26561,
				"method": "rhf"
			},
			{
				"type": "unocc",
				"energy": -0.09081,
				"method": "rhf"
			},
			{
				"type": "unocc",
				"energy": -0.02578,
				"method": "rhf"
			},
			{
				"type": "unocc",
				"energy": -0.00523,
				"method": "rhf"
			},
			{
				"type": "unocc",
				"energy": 0.06908,
				"method": "rhf"
			},
			{
				"type": "unocc",
				"energy": 0.11848,
				"method": "rhf"
			}
		],
		"cosmo_sigma_profile": { 
			"-0.025": 0.0,
			"-0.024": 0.0,
			"-0.023": 0.0,
			"-0.022": 0.0,
			"-0.021": 0.0,
			"-0.02": 0.0,
			"-0.019": 0.0,
			"-0.018": 0.0,
			"-0.017": 0.0,
			"-0.016": 0.0,
			"-0.015": 0.0,
			"-0.014": 0.0,
			"-0.013": 0.0,
			"-0.012": 0.0,
			"-0.011": 0.0,
			"-0.01": 0.0,
			"-0.009": 0.404983640843,
			"-0.008": 3.37952295507,
			"-0.007": 6.14050569576,
			"-0.006": 8.84497119571,
			"-0.005": 8.78838081671,
			"-0.004": 10.4723903204,
			"-0.003": 12.2525300722,
			"-0.002": 15.4983623301,
			"-0.001": 22.5505367426,
			"0.0": 18.0674052124,
			"0.001": 12.9748304173,
			"0.002": 10.9301474093,
			"0.003": 8.88372080929,
			"0.004": 8.24244589592,
			"0.005": 2.7809267946,
			"0.006": 4.39640977232,
			"0.007": 6.40310007375,
			"0.008": 6.64527855099,
			"0.009": 4.60330984575,
			"0.01": 2.68443681353,
			"0.011": 0.124058707563,
			"0.012": 0.0,
			"0.013": 0.0,
			"0.014": 0.0,
			"0.015": 0.0,
			"0.016": 0.0,
			"0.017": 0.0,
			"0.018": 0.0,
			"0.019": 0.0,
			"0.02": 0.0,
			"0.021": 0.0,
			"0.022": 0.0,
			"0.023": 0.0,
			"0.024": 0.0,
			"0.025": 0.0
		}
	}
}
