{
	 "smiles": "ClS(=O)(=O)C1=CC(=CC=C1)N1C=NN=N1", 
	 "Tm": 399.15, 
	 "num_atms": 20, 
	 "gaussian": { 
		 "optdone": 1, 
		 "sigma_profile": "yes", 
		 "theory": "DFT", 
		 "functional": "B3LYP", 
		 "basiset": "6-31G**", 
		 "properties": { 
			 "R2extent": 4736.9336, 
			 "electric_dipole_moment_norm": 6.87365651309, 
			 "electric_quadrupole_moment_norm": 21.929276948, 
			 "total_energy": -1497.45326704, 
			 "HOMO_LUMO_gap": 0.18692, 
			 "cosmo_polarized_energy": -20.58, 
			 "cosmo_cavitation_energy": 29.4, 
			 "cosmo_dispersion_energy": -21.8, 
			 "cosmo_repulsion_energy": 1.64, 
			 "cosmo_total_nonelectrostatic_energy": 9.23, 
			 "SMD_solvation_energy": 2.45 
		},
		"coords": [
			{
				"x": -3.0023502201,
				"y": -2.0388752024,
				"z": 1.5668332472,
				"element": "Cl" 
			},
			{
				"x": -0.980627726,
				"y": -2.180234269,
				"z": 2.2036965435,
				"element": "S" 
			},
			{
				"x": -0.424738617,
				"y": -3.3646936725,
				"z": 1.5647349567,
				"element": "O" 
			},
			{
				"x": -0.9894359449,
				"y": -1.9980293808,
				"z": 3.6491427683,
				"element": "O" 
			},
			{
				"x": -0.279160177,
				"y": -0.7157172021,
				"z": 1.4406075794,
				"element": "C" 
			},
			{
				"x": 0.2643749445,
				"y": -0.8331792421,
				"z": 0.1649652555,
				"element": "C" 
			},
			{
				"x": 0.8226694559,
				"y": 0.3118521117,
				"z": -0.4084570519,
				"element": "C" 
			},
			{
				"x": 0.8276097546,
				"y": 1.5296349271,
				"z": 0.2801724537,
				"element": "C" 
			},
			{
				"x": 0.2908241901,
				"y": 1.6034950187,
				"z": 1.5651423515,
				"element": "C" 
			},
			{
				"x": -0.2728821874,
				"y": 0.4773223922,
				"z": 2.1633262593,
				"element": "C" 
			},
			{
				"x": 1.3899982874,
				"y": 0.2246574043,
				"z": -1.7058299933,
				"element": "N" 
			},
			{
				"x": 2.3666547048,
				"y": 0.9516947174,
				"z": -2.3027970716,
				"element": "C" 
			},
			{
				"x": 2.562113253,
				"y": 0.4919638851,
				"z": -3.5172043701,
				"element": "N" 
			},
			{
				"x": 1.6836976531,
				"y": -0.5423319312,
				"z": -3.6663716987,
				"element": "N" 
			},
			{
				"x": 0.9806711072,
				"y": -0.7184507358,
				"z": -2.6019709304,
				"element": "N" 
			},
			{
				"x": 0.2629143721,
				"y": -1.775822525,
				"z": -0.3683043476,
				"element": "H" 
			},
			{
				"x": 1.2335877883,
				"y": 2.4197149788,
				"z": -0.188377456,
				"element": "H" 
			},
			{
				"x": 0.3042862308,
				"y": 2.5484874429,
				"z": 2.0977907463,
				"element": "H" 
			},
			{
				"x": -0.6922869325,
				"y": 0.5152819984,
				"z": 3.1618740408,
				"element": "H" 
			},
			{
				"x": 2.9050800631,
				"y": 1.7595292843,
				"z": -1.8326732824,
				"element": "H" 
			}
		],
		 "valence_orbital": [ 
			{
				"type": "occ",
				"energy": -0.32512,
				"method": "rhf"
			},
			{
				"type": "occ",
				"energy": -0.31831,
				"method": "rhf"
			},
			{
				"type": "occ",
				"energy": -0.31206,
				"method": "rhf"
			},
			{
				"type": "occ",
				"energy": -0.30599,
				"method": "rhf"
			},
			{
				"type": "occ",
				"energy": -0.29103,
				"method": "rhf"
			},
			{
				"type": "unocc",
				"energy": -0.10411,
				"method": "rhf"
			},
			{
				"type": "unocc",
				"energy": -0.07897,
				"method": "rhf"
			},
			{
				"type": "unocc",
				"energy": -0.064,
				"method": "rhf"
			},
			{
				"type": "unocc",
				"energy": -0.01966,
				"method": "rhf"
			},
			{
				"type": "unocc",
				"energy": 0.00036,
				"method": "rhf"
			}
		],
		"cosmo_sigma_profile": { 
			"-0.025": 0.0,
			"-0.024": 0.0,
			"-0.023": 0.0,
			"-0.022": 0.0,
			"-0.021": 0.0,
			"-0.02": 0.0,
			"-0.019": 0.0,
			"-0.018": 0.0,
			"-0.017": 0.0,
			"-0.016": 0.0,
			"-0.015": 0.0,
			"-0.014": 0.544815426489,
			"-0.013": 3.14131930748,
			"-0.012": 2.53249521427,
			"-0.011": 2.43027965479,
			"-0.01": 2.97986504842,
			"-0.009": 5.5846544448,
			"-0.008": 8.82812108783,
			"-0.007": 9.64202068768,
			"-0.006": 11.994535484,
			"-0.005": 12.0252605227,
			"-0.004": 10.8376663112,
			"-0.003": 11.7261306244,
			"-0.002": 17.5614710444,
			"-0.001": 20.0932383475,
			"0.0": 15.4615668329,
			"0.001": 11.63311524,
			"0.002": 12.6192116047,
			"0.003": 15.4327724308,
			"0.004": 6.90404567402,
			"0.005": 6.38478547779,
			"0.006": 8.44721466051,
			"0.007": 11.3494115308,
			"0.008": 13.7377598969,
			"0.009": 6.64032778215,
			"0.01": 4.25307148723,
			"0.011": 2.55621424784,
			"0.012": 2.35844066283,
			"0.013": 2.33998054237,
			"0.014": 0.830181455971,
			"0.015": 0.123397344431,
			"0.016": 0.0,
			"0.017": 0.0,
			"0.018": 0.0,
			"0.019": 0.0,
			"0.02": 0.0,
			"0.021": 0.0,
			"0.022": 0.0,
			"0.023": 0.0,
			"0.024": 0.0,
			"0.025": 0.0
		}
	}
}
