{
	 "smiles": "CNC(=O)OC1=C(Cl)C(C)=C(C)C=C1", 
	 "Tm": 397.15, 
	 "num_atms": 26, 
	 "gaussian": { 
		 "optdone": 1, 
		 "sigma_profile": "yes", 
		 "theory": "DFT", 
		 "functional": "B3LYP", 
		 "basiset": "6-31G**", 
		 "properties": { 
			 "R2extent": 4393.8862, 
			 "electric_dipole_moment_norm": 1.23684325604, 
			 "electric_quadrupole_moment_norm": 18.9263227765, 
			 "total_energy": -1053.71720672, 
			 "HOMO_LUMO_gap": 0.22246, 
			 "cosmo_polarized_energy": -10.4, 
			 "cosmo_cavitation_energy": 31.32, 
			 "cosmo_dispersion_energy": -22.78, 
			 "cosmo_repulsion_energy": 1.81, 
			 "cosmo_total_nonelectrostatic_energy": 10.35, 
			 "SMD_solvation_energy": 6.11 
		},
		"coords": [
			{
				"x": 1.7108769338,
				"y": -1.5382251087,
				"z": -4.4243121807,
				"element": "C" 
			},
			{
				"x": 1.6367044661,
				"y": -0.4100739093,
				"z": -3.5161962451,
				"element": "N" 
			},
			{
				"x": 0.889533782,
				"y": -0.4455145759,
				"z": -2.383120392,
				"element": "C" 
			},
			{
				"x": 0.1652526698,
				"y": -1.3482242641,
				"z": -2.0195049167,
				"element": "O" 
			},
			{
				"x": 1.0809734963,
				"y": 0.7473315048,
				"z": -1.7082834692,
				"element": "O" 
			},
			{
				"x": 0.4598041084,
				"y": 0.9703845739,
				"z": -0.4947045339,
				"element": "C" 
			},
			{
				"x": 1.2265703461,
				"y": 1.5428146508,
				"z": 0.5277379333,
				"element": "C" 
			},
			{
				"x": 2.9346970392,
				"y": 1.8346733445,
				"z": 0.2244130419,
				"element": "Cl" 
			},
			{
				"x": 0.672964624,
				"y": 1.8880102692,
				"z": 1.7708123362,
				"element": "C" 
			},
			{
				"x": 1.54472351,
				"y": 2.5079343778,
				"z": 2.836787403,
				"element": "C" 
			},
			{
				"x": -0.69950342,
				"y": 1.6321056926,
				"z": 1.9815983089,
				"element": "C" 
			},
			{
				"x": -1.3757213027,
				"y": 1.9654614926,
				"z": 3.2938248011,
				"element": "C" 
			},
			{
				"x": -1.4522117452,
				"y": 1.0564020634,
				"z": 0.9519709186,
				"element": "C" 
			},
			{
				"x": -0.8940709547,
				"y": 0.728945619,
				"z": -0.2794441142,
				"element": "C" 
			},
			{
				"x": 1.5310958993,
				"y": -1.2181616188,
				"z": -5.4557708363,
				"element": "H" 
			},
			{
				"x": 0.9387064351,
				"y": -2.2506850041,
				"z": -4.1329232252,
				"element": "H" 
			},
			{
				"x": 2.6859344395,
				"y": -2.0374042694,
				"z": -4.3741871887,
				"element": "H" 
			},
			{
				"x": 2.2500681235,
				"y": 0.3815868975,
				"z": -3.6367453034,
				"element": "H" 
			},
			{
				"x": 0.9795325429,
				"y": 2.7364799809,
				"z": 3.7400228548,
				"element": "H" 
			},
			{
				"x": 2.0039642587,
				"y": 3.4357495412,
				"z": 2.4794903393,
				"element": "H" 
			},
			{
				"x": 2.3667808328,
				"y": 1.8381979364,
				"z": 3.1116191878,
				"element": "H" 
			},
			{
				"x": -0.9259303269,
				"y": 1.4280061259,
				"z": 4.1364074262,
				"element": "H" 
			},
			{
				"x": -2.4335370572,
				"y": 1.6926072141,
				"z": 3.2581473388,
				"element": "H" 
			},
			{
				"x": -1.3195588692,
				"y": 3.0351434488,
				"z": 3.5260880987,
				"element": "H" 
			},
			{
				"x": -2.5079041872,
				"y": 0.8604596715,
				"z": 1.117013035,
				"element": "H" 
			},
			{
				"x": -1.4876456442,
				"y": 0.2761943456,
				"z": -1.0623406182,
				"element": "H" 
			}
		],
		 "valence_orbital": [ 
			{
				"type": "occ",
				"energy": -0.30453,
				"method": "rhf"
			},
			{
				"type": "occ",
				"energy": -0.27833,
				"method": "rhf"
			},
			{
				"type": "occ",
				"energy": -0.26142,
				"method": "rhf"
			},
			{
				"type": "occ",
				"energy": -0.2385,
				"method": "rhf"
			},
			{
				"type": "occ",
				"energy": -0.22843,
				"method": "rhf"
			},
			{
				"type": "unocc",
				"energy": -0.00597,
				"method": "rhf"
			},
			{
				"type": "unocc",
				"energy": -0.00106,
				"method": "rhf"
			},
			{
				"type": "unocc",
				"energy": 0.03516,
				"method": "rhf"
			},
			{
				"type": "unocc",
				"energy": 0.05441,
				"method": "rhf"
			},
			{
				"type": "unocc",
				"energy": 0.08946,
				"method": "rhf"
			}
		],
		"cosmo_sigma_profile": { 
			"-0.025": 0.0,
			"-0.024": 0.0,
			"-0.023": 0.0,
			"-0.022": 0.0,
			"-0.021": 0.0,
			"-0.02": 0.0,
			"-0.019": 0.0,
			"-0.018": 0.0,
			"-0.017": 0.0,
			"-0.016": 0.0,
			"-0.015": 0.296174622757,
			"-0.014": 1.20058642879,
			"-0.013": 0.952849742996,
			"-0.012": 1.09555820244,
			"-0.011": 0.722874092217,
			"-0.01": 0.7665858515,
			"-0.009": 0.8405903795,
			"-0.008": 1.02929914409,
			"-0.007": 1.07507295106,
			"-0.006": 4.4638209516,
			"-0.005": 13.9194209784,
			"-0.004": 24.2784809003,
			"-0.003": 21.6888960397,
			"-0.002": 26.5455233468,
			"-0.001": 25.4518215451,
			"0.0": 24.6500248822,
			"0.001": 17.9259989155,
			"0.002": 17.0315653124,
			"0.003": 17.9883964458,
			"0.004": 15.7768096525,
			"0.005": 11.4522785393,
			"0.006": 4.30491464351,
			"0.007": 3.20947513118,
			"0.008": 1.32905941226,
			"0.009": 1.83449721944,
			"0.01": 1.95597677187,
			"0.011": 1.80834191285,
			"0.012": 3.96205949729,
			"0.013": 2.7029662396,
			"0.014": 0.0,
			"0.015": 0.0,
			"0.016": 0.0,
			"0.017": 0.0,
			"0.018": 0.0,
			"0.019": 0.0,
			"0.02": 0.0,
			"0.021": 0.0,
			"0.022": 0.0,
			"0.023": 0.0,
			"0.024": 0.0,
			"0.025": 0.0
		}
	}
}
