{
	 "smiles": "NC1=C(C=CC(=C1)S(=O)(=O)N1CCOCC1)N1CCCC1", 
	 "Tm": 453.15, 
	 "num_atms": 42, 
	 "gaussian": { 
		 "optdone": 1, 
		 "sigma_profile": "yes", 
		 "theory": "DFT", 
		 "functional": "B3LYP", 
		 "basiset": "6-31G**", 
		 "properties": { 
			 "R2extent": 9863.6108, 
			 "electric_dipole_moment_norm": 5.93477595702, 
			 "electric_quadrupole_moment_norm": 16.2569903878, 
			 "total_energy": -1334.17354035, 
			 "HOMO_LUMO_gap": 0.17976, 
			 "cosmo_polarized_energy": -17.79, 
			 "cosmo_cavitation_energy": 42.85, 
			 "cosmo_dispersion_energy": -31.34, 
			 "cosmo_repulsion_energy": 2.36, 
			 "cosmo_total_nonelectrostatic_energy": 13.88, 
			 "SMD_solvation_energy": 4.33 
		},
		"coords": [
			{
				"x": 0.6274667079,
				"y": -2.382789908,
				"z": 2.3025511448,
				"element": "N" 
			},
			{
				"x": 0.4484871326,
				"y": -1.1250312443,
				"z": 1.7223659806,
				"element": "C" 
			},
			{
				"x": -0.8681089798,
				"y": -0.609058224,
				"z": 1.5747538191,
				"element": "C" 
			},
			{
				"x": -1.0393003196,
				"y": 0.6738135054,
				"z": 1.0358080557,
				"element": "C" 
			},
			{
				"x": 0.0454962025,
				"y": 1.4353314301,
				"z": 0.605414732,
				"element": "C" 
			},
			{
				"x": 1.3242876833,
				"y": 0.8906930065,
				"z": 0.7111126684,
				"element": "C" 
			},
			{
				"x": 1.5352739046,
				"y": -0.3693196891,
				"z": 1.2712260865,
				"element": "C" 
			},
			{
				"x": 2.7452931781,
				"y": 1.8595348588,
				"z": 0.2145744955,
				"element": "S" 
			},
			{
				"x": 2.6429040844,
				"y": 3.211126259,
				"z": 0.778663194,
				"element": "O" 
			},
			{
				"x": 3.9435393392,
				"y": 1.0433775664,
				"z": 0.4783204421,
				"element": "O" 
			},
			{
				"x": 2.465778903,
				"y": 2.034649253,
				"z": -1.4504456319,
				"element": "N" 
			},
			{
				"x": 2.7407719988,
				"y": 0.848912298,
				"z": -2.2862705732,
				"element": "C" 
			},
			{
				"x": 4.1835856842,
				"y": 0.8376497397,
				"z": -2.7977085918,
				"element": "C" 
			},
			{
				"x": 4.4892241154,
				"y": 2.0542037232,
				"z": -3.4725209764,
				"element": "O" 
			},
			{
				"x": 4.35306183,
				"y": 3.1741376637,
				"z": -2.6039275267,
				"element": "C" 
			},
			{
				"x": 2.920141637,
				"y": 3.2901552861,
				"z": -2.0813372648,
				"element": "C" 
			},
			{
				"x": -1.9414074041,
				"y": -1.4056736843,
				"z": 2.0364205763,
				"element": "N" 
			},
			{
				"x": -3.2343976075,
				"y": -0.7797776045,
				"z": 2.3183270392,
				"element": "C" 
			},
			{
				"x": -4.1028593391,
				"y": -1.9697865873,
				"z": 2.7596692792,
				"element": "C" 
			},
			{
				"x": -3.5115645323,
				"y": -3.1861302964,
				"z": 1.989955431,
				"element": "C" 
			},
			{
				"x": -2.2662688003,
				"y": -2.6294792963,
				"z": 1.2700627643,
				"element": "C" 
			},
			{
				"x": 1.5576497787,
				"y": -2.538718248,
				"z": 2.6689901495,
				"element": "H" 
			},
			{
				"x": -0.0918096967,
				"y": -2.5887874386,
				"z": 2.9883193922,
				"element": "H" 
			},
			{
				"x": -2.0388414438,
				"y": 1.0844444139,
				"z": 0.9464777594,
				"element": "H" 
			},
			{
				"x": -0.1004697265,
				"y": 2.4248687366,
				"z": 0.1881192057,
				"element": "H" 
			},
			{
				"x": 2.5495246783,
				"y": -0.7392996602,
				"z": 1.3816277882,
				"element": "H" 
			},
			{
				"x": 2.0489127233,
				"y": 0.8932770137,
				"z": -3.1363470465,
				"element": "H" 
			},
			{
				"x": 2.5155443868,
				"y": -0.0585167566,
				"z": -1.7194087241,
				"element": "H" 
			},
			{
				"x": 4.3244181328,
				"y": 0.0340026671,
				"z": -3.5274742528,
				"element": "H" 
			},
			{
				"x": 4.8721149521,
				"y": 0.6802723316,
				"z": -1.9551037321,
				"element": "H" 
			},
			{
				"x": 5.0561888326,
				"y": 3.0916832798,
				"z": -1.7597624885,
				"element": "H" 
			},
			{
				"x": 4.6190003559,
				"y": 4.0582326232,
				"z": -3.1920421849,
				"element": "H" 
			},
			{
				"x": 2.2404956592,
				"y": 3.4820899323,
				"z": -2.9210099317,
				"element": "H" 
			},
			{
				"x": 2.8205618437,
				"y": 4.1023910249,
				"z": -1.3595995395,
				"element": "H" 
			},
			{
				"x": -3.1277296737,
				"y": -0.0035960849,
				"z": 3.0819402281,
				"element": "H" 
			},
			{
				"x": -3.6722436619,
				"y": -0.312014089,
				"z": 1.4180622965,
				"element": "H" 
			},
			{
				"x": -5.1600141874,
				"y": -1.8014946908,
				"z": 2.5376764855,
				"element": "H" 
			},
			{
				"x": -4.012864347,
				"y": -2.1204224262,
				"z": 3.8390225234,
				"element": "H" 
			},
			{
				"x": -3.2391639029,
				"y": -3.9869955608,
				"z": 2.683103662,
				"element": "H" 
			},
			{
				"x": -4.2205585689,
				"y": -3.6073475233,
				"z": 1.2721301942,
				"element": "H" 
			},
			{
				"x": -2.5053306537,
				"y": -2.3713059709,
				"z": 0.2246672392,
				"element": "H" 
			},
			{
				"x": -1.417490899,
				"y": -3.3161016297,
				"z": 1.2562958321,
				"element": "H" 
			}
		],
		 "valence_orbital": [ 
			{
				"type": "occ",
				"energy": -0.28076,
				"method": "rhf"
			},
			{
				"type": "occ",
				"energy": -0.27183,
				"method": "rhf"
			},
			{
				"type": "occ",
				"energy": -0.23441,
				"method": "rhf"
			},
			{
				"type": "occ",
				"energy": -0.22645,
				"method": "rhf"
			},
			{
				"type": "occ",
				"energy": -0.20301,
				"method": "rhf"
			},
			{
				"type": "unocc",
				"energy": -0.02325,
				"method": "rhf"
			},
			{
				"type": "unocc",
				"energy": -0.00017,
				"method": "rhf"
			},
			{
				"type": "unocc",
				"energy": 0.06833,
				"method": "rhf"
			},
			{
				"type": "unocc",
				"energy": 0.06986,
				"method": "rhf"
			},
			{
				"type": "unocc",
				"energy": 0.08476,
				"method": "rhf"
			}
		],
		"cosmo_sigma_profile": { 
			"-0.025": 0.0,
			"-0.024": 0.0,
			"-0.023": 0.0,
			"-0.022": 0.0,
			"-0.021": 0.0,
			"-0.02": 0.0,
			"-0.019": 0.0,
			"-0.018": 0.0,
			"-0.017": 0.0,
			"-0.016": 0.0,
			"-0.015": 0.0,
			"-0.014": 0.0,
			"-0.013": 0.438765004349,
			"-0.012": 1.60312303882,
			"-0.011": 2.14038349822,
			"-0.01": 2.1162558605,
			"-0.009": 2.65282765246,
			"-0.008": 2.43173683648,
			"-0.007": 3.56566673481,
			"-0.006": 10.321382974,
			"-0.005": 23.9615508851,
			"-0.004": 26.8161409805,
			"-0.003": 38.4491995372,
			"-0.002": 42.5292464948,
			"-0.001": 33.1130352292,
			"0.0": 25.2859062153,
			"0.001": 18.2192742976,
			"0.002": 11.6096276417,
			"0.003": 15.4091900259,
			"0.004": 16.2767102109,
			"0.005": 10.3175473831,
			"0.006": 6.39032799993,
			"0.007": 5.84005329771,
			"0.008": 4.75732126178,
			"0.009": 5.38104155506,
			"0.01": 7.40653577985,
			"0.011": 9.12145880505,
			"0.012": 7.26557891176,
			"0.013": 2.11680722638,
			"0.014": 0.154221779398,
			"0.015": 0.0,
			"0.016": 0.0,
			"0.017": 0.0,
			"0.018": 0.0,
			"0.019": 0.0,
			"0.02": 0.0,
			"0.021": 0.0,
			"0.022": 0.0,
			"0.023": 0.0,
			"0.024": 0.0,
			"0.025": 0.0
		}
	}
}
