{
	 "smiles": "CC(=O)OCC1=C(N2[C@H](SC1)[C@H](NC(=O)[C@H](N)C1=CC=CC=C1)C2=O)C(O)=O", 
	 "Tm": 510.15, 
	 "num_atms": 47, 
	 "gaussian": { 
		 "optdone": 1, 
		 "sigma_profile": "yes", 
		 "theory": "DFT", 
		 "functional": "B3LYP", 
		 "basiset": "6-31G**", 
		 "properties": { 
			 "R2extent": 14263.7875, 
			 "electric_dipole_moment_norm": 6.24645320962, 
			 "electric_quadrupole_moment_norm": 23.4305777699, 
			 "total_energy": -1711.13295603, 
			 "HOMO_LUMO_gap": 0.18352, 
			 "cosmo_polarized_energy": -40.14, 
			 "cosmo_cavitation_energy": 53.47, 
			 "cosmo_dispersion_energy": -35.46, 
			 "cosmo_repulsion_energy": 2.72, 
			 "cosmo_total_nonelectrostatic_energy": 20.73, 
			 "SMD_solvation_energy": 9.7 
		},
		"coords": [
			{
				"x": -2.7790914965,
				"y": -5.1920951679,
				"z": 0.6742744042,
				"element": "C" 
			},
			{
				"x": -1.5442443468,
				"y": -5.1700169947,
				"z": -0.1944096038,
				"element": "C" 
			},
			{
				"x": -1.0899350172,
				"y": -6.1123622254,
				"z": -0.8050898475,
				"element": "O" 
			},
			{
				"x": -0.9939067635,
				"y": -3.9317490592,
				"z": -0.2181910338,
				"element": "O" 
			},
			{
				"x": 0.1824807297,
				"y": -3.7943944066,
				"z": -1.0553166378,
				"element": "C" 
			},
			{
				"x": 0.6766699057,
				"y": -2.3812245785,
				"z": -0.9174008204,
				"element": "C" 
			},
			{
				"x": 0.7411564998,
				"y": -1.5159201064,
				"z": -1.9564043968,
				"element": "C" 
			},
			{
				"x": 1.3558679915,
				"y": -0.2727735511,
				"z": -1.813807181,
				"element": "N" 
			},
			{
				"x": 2.1077137275,
				"y": 0.1846613373,
				"z": -0.6540609585,
				"element": "C" 
			},
			{
				"x": 1.3107581311,
				"y": -0.2820617358,
				"z": 0.9241534786,
				"element": "S" 
			},
			{
				"x": 1.1870884206,
				"y": -2.0590479526,
				"z": 0.4737170887,
				"element": "C" 
			},
			{
				"x": 1.9483993865,
				"y": 1.6543399824,
				"z": -1.1922360663,
				"element": "C" 
			},
			{
				"x": 1.3564544659,
				"y": 2.6904074509,
				"z": -0.3984871545,
				"element": "N" 
			},
			{
				"x": 0.004765374,
				"y": 2.7768189401,
				"z": -0.1361182726,
				"element": "C" 
			},
			{
				"x": -0.7993557331,
				"y": 1.9546268676,
				"z": -0.5328819941,
				"element": "O" 
			},
			{
				"x": -0.4089394099,
				"y": 4.0414114997,
				"z": 0.6556597911,
				"element": "C" 
			},
			{
				"x": -0.5277741252,
				"y": 5.1348260735,
				"z": -0.3070529209,
				"element": "N" 
			},
			{
				"x": 0.4873047081,
				"y": 4.2704560484,
				"z": 1.8780911729,
				"element": "C" 
			},
			{
				"x": 0.4201536081,
				"y": 3.3728303116,
				"z": 2.9559333446,
				"element": "C" 
			},
			{
				"x": 1.2341797251,
				"y": 3.5393430778,
				"z": 4.0740248408,
				"element": "C" 
			},
			{
				"x": 2.1327556517,
				"y": 4.6092024272,
				"z": 4.1364837387,
				"element": "C" 
			},
			{
				"x": 2.2062256945,
				"y": 5.5084518513,
				"z": 3.0741252047,
				"element": "C" 
			},
			{
				"x": 1.3870656808,
				"y": 5.3393804633,
				"z": 1.9529673116,
				"element": "C" 
			},
			{
				"x": 1.0768371471,
				"y": 1.0098464594,
				"z": -2.3179884423,
				"element": "C" 
			},
			{
				"x": 0.4750500617,
				"y": 1.3950016553,
				"z": -3.2795779947,
				"element": "O" 
			},
			{
				"x": 0.3113538813,
				"y": -1.7993026599,
				"z": -3.3706905985,
				"element": "C" 
			},
			{
				"x": -0.9021750523,
				"y": -2.3871956718,
				"z": -3.4518760211,
				"element": "O" 
			},
			{
				"x": 0.9841289619,
				"y": -1.5232084058,
				"z": -4.336457095,
				"element": "O" 
			},
			{
				"x": -3.5389562184,
				"y": -4.5265166987,
				"z": 0.2536989278,
				"element": "H" 
			},
			{
				"x": -2.5451874702,
				"y": -4.8255846864,
				"z": 1.6777766416,
				"element": "H" 
			},
			{
				"x": -3.1663240211,
				"y": -6.2090779829,
				"z": 0.7267723227,
				"element": "H" 
			},
			{
				"x": -0.0735117969,
				"y": -4.0610918526,
				"z": -2.078596934,
				"element": "H" 
			},
			{
				"x": 0.9389050388,
				"y": -4.5055043843,
				"z": -0.700094388,
				"element": "H" 
			},
			{
				"x": 3.1373402715,
				"y": -0.1877831876,
				"z": -0.6588583871,
				"element": "H" 
			},
			{
				"x": 0.4889507124,
				"y": -2.4866649549,
				"z": 1.1996316574,
				"element": "H" 
			},
			{
				"x": 2.1564875199,
				"y": -2.5484213713,
				"z": 0.6371375032,
				"element": "H" 
			},
			{
				"x": 2.8990342578,
				"y": 2.0220292416,
				"z": -1.5894212479,
				"element": "H" 
			},
			{
				"x": 1.973594098,
				"y": 3.328599533,
				"z": 0.0838252428,
				"element": "H" 
			},
			{
				"x": -1.4184547774,
				"y": 3.8089958348,
				"z": 1.0083029557,
				"element": "H" 
			},
			{
				"x": 0.3607210526,
				"y": 5.3383602023,
				"z": -0.7554645913,
				"element": "H" 
			},
			{
				"x": -0.8486735788,
				"y": 5.983544443,
				"z": 0.1502389039,
				"element": "H" 
			},
			{
				"x": -0.2757897238,
				"y": 2.5381992896,
				"z": 2.9127707398,
				"element": "H" 
			},
			{
				"x": 1.1670673268,
				"y": 2.836399764,
				"z": 4.899461362,
				"element": "H" 
			},
			{
				"x": 2.7654109844,
				"y": 4.7408003991,
				"z": 5.0093709437,
				"element": "H" 
			},
			{
				"x": 2.8950393101,
				"y": 6.3476061404,
				"z": 3.1161344735,
				"element": "H" 
			},
			{
				"x": 1.4362510118,
				"y": 6.0575490958,
				"z": 1.1391151456,
				"element": "H" 
			},
			{
				"x": -1.0697918054,
				"y": -2.5226907548,
				"z": -4.4005846076,
				"element": "H" 
			}
		],
		 "valence_orbital": [ 
			{
				"type": "occ",
				"energy": -0.25718,
				"method": "rhf"
			},
			{
				"type": "occ",
				"energy": -0.24919,
				"method": "rhf"
			},
			{
				"type": "occ",
				"energy": -0.2438,
				"method": "rhf"
			},
			{
				"type": "occ",
				"energy": -0.23565,
				"method": "rhf"
			},
			{
				"type": "occ",
				"energy": -0.23094,
				"method": "rhf"
			},
			{
				"type": "unocc",
				"energy": -0.04742,
				"method": "rhf"
			},
			{
				"type": "unocc",
				"energy": -0.01909,
				"method": "rhf"
			},
			{
				"type": "unocc",
				"energy": -0.01701,
				"method": "rhf"
			},
			{
				"type": "unocc",
				"energy": 0.00685,
				"method": "rhf"
			},
			{
				"type": "unocc",
				"energy": 0.01112,
				"method": "rhf"
			}
		],
		"cosmo_sigma_profile": { 
			"-0.025": 0.0,
			"-0.024": 0.0,
			"-0.023": 0.0,
			"-0.022": 0.0,
			"-0.021": 0.0,
			"-0.02": 0.00262118870449,
			"-0.019": 0.549441015506,
			"-0.018": 1.21889603807,
			"-0.017": 0.598860650508,
			"-0.016": 1.37636462239,
			"-0.015": 0.793682693678,
			"-0.014": 1.11785577551,
			"-0.013": 1.61016911043,
			"-0.012": 2.34368158946,
			"-0.011": 3.94882004868,
			"-0.01": 6.71218823368,
			"-0.009": 9.48948703021,
			"-0.008": 11.8491646725,
			"-0.007": 20.7582185755,
			"-0.006": 26.5452122966,
			"-0.005": 33.5536312701,
			"-0.004": 29.2043287487,
			"-0.003": 27.0618963885,
			"-0.002": 24.412519564,
			"-0.001": 21.5779324693,
			"0.0": 17.1148117334,
			"0.001": 17.2903089973,
			"0.002": 19.893365498,
			"0.003": 18.1838190636,
			"0.004": 18.1501430354,
			"0.005": 16.8422951183,
			"0.006": 12.9094838554,
			"0.007": 9.33713099471,
			"0.008": 8.07037620753,
			"0.009": 8.59776160122,
			"0.01": 13.2750868474,
			"0.011": 20.3760350519,
			"0.012": 11.2606820153,
			"0.013": 5.32407634974,
			"0.014": 1.77005388499,
			"0.015": 0.896287356251,
			"0.016": 0.423100938141,
			"0.017": 0.546207839909,
			"0.018": 0.251405733469,
			"0.019": 0.0,
			"0.02": 0.0,
			"0.021": 0.0,
			"0.022": 0.0,
			"0.023": 0.0,
			"0.024": 0.0,
			"0.025": 0.0
		}
	}
}
