{
	 "smiles": "COC1=CC(C=CC)=CC=C1O", 
	 "Tm": 306.65, 
	 "num_atms": 24, 
	 "gaussian": { 
		 "optdone": 1, 
		 "sigma_profile": "yes", 
		 "theory": "DFT", 
		 "functional": "B3LYP", 
		 "basiset": "6-31G**", 
		 "properties": { 
			 "R2extent": 3054.4377, 
			 "electric_dipole_moment_norm": 2.75373481839, 
			 "electric_quadrupole_moment_norm": 11.642810753, 
			 "total_energy": -538.72025439, 
			 "HOMO_LUMO_gap": 0.17415, 
			 "cosmo_polarized_energy": -8.21, 
			 "cosmo_cavitation_energy": 27.59, 
			 "cosmo_dispersion_energy": -20.26, 
			 "cosmo_repulsion_energy": 1.63, 
			 "cosmo_total_nonelectrostatic_energy": 8.96, 
			 "SMD_solvation_energy": 6.0 
		},
		"coords": [
			{
				"x": 0.2269809076,
				"y": -2.6985968729,
				"z": -1.9626827747,
				"element": "C" 
			},
			{
				"x": 0.671910253,
				"y": -1.5062046817,
				"z": -2.5893193426,
				"element": "O" 
			},
			{
				"x": 0.896987615,
				"y": -0.4006294498,
				"z": -1.8013622815,
				"element": "C" 
			},
			{
				"x": 0.7286205525,
				"y": -0.3314707432,
				"z": -0.4267432819,
				"element": "C" 
			},
			{
				"x": 0.9952288038,
				"y": 0.8695117083,
				"z": 0.2684240652,
				"element": "C" 
			},
			{
				"x": 0.8353615682,
				"y": 1.0019389329,
				"z": 1.7227527074,
				"element": "C" 
			},
			{
				"x": 0.4371421693,
				"y": 0.0699156097,
				"z": 2.6021433173,
				"element": "C" 
			},
			{
				"x": 0.3026678779,
				"y": 0.2979720749,
				"z": 4.0791058544,
				"element": "C" 
			},
			{
				"x": 1.4309055391,
				"y": 1.9768338282,
				"z": -0.4727093232,
				"element": "C" 
			},
			{
				"x": 1.6013721514,
				"y": 1.9103026892,
				"z": -1.8570998266,
				"element": "C" 
			},
			{
				"x": 1.337126915,
				"y": 0.7255086737,
				"z": -2.532258856,
				"element": "C" 
			},
			{
				"x": 1.498385979,
				"y": 0.6447392294,
				"z": -3.8813007611,
				"element": "O" 
			},
			{
				"x": -0.7391446294,
				"y": -2.5513434091,
				"z": -1.4637890349,
				"element": "H" 
			},
			{
				"x": 0.1140557984,
				"y": -3.4377339994,
				"z": -2.7572730716,
				"element": "H" 
			},
			{
				"x": 0.9585300301,
				"y": -3.0619625898,
				"z": -1.2300384103,
				"element": "H" 
			},
			{
				"x": 0.3900028862,
				"y": -1.2039014198,
				"z": 0.1189562014,
				"element": "H" 
			},
			{
				"x": 1.0772610184,
				"y": 1.9917480905,
				"z": 2.1122257081,
				"element": "H" 
			},
			{
				"x": 0.186401605,
				"y": -0.9322904792,
				"z": 2.2544438778,
				"element": "H" 
			},
			{
				"x": 0.9464709099,
				"y": -0.3840625848,
				"z": 4.6503295486,
				"element": "H" 
			},
			{
				"x": 0.570613622,
				"y": 1.3230334401,
				"z": 4.353126082,
				"element": "H" 
			},
			{
				"x": -0.7244623343,
				"y": 0.1139525811,
				"z": 4.4213023271,
				"element": "H" 
			},
			{
				"x": 1.641258433,
				"y": 2.9098021633,
				"z": 0.042827452,
				"element": "H" 
			},
			{
				"x": 1.9388815953,
				"y": 2.7698848866,
				"z": -2.4267446564,
				"element": "H" 
			},
			{
				"x": 1.2614407337,
				"y": -0.259347678,
				"z": -4.1397155203,
				"element": "H" 
			}
		],
		 "valence_orbital": [ 
			{
				"type": "occ",
				"energy": -0.3343,
				"method": "rhf"
			},
			{
				"type": "occ",
				"energy": -0.33033,
				"method": "rhf"
			},
			{
				"type": "occ",
				"energy": -0.26196,
				"method": "rhf"
			},
			{
				"type": "occ",
				"energy": -0.23097,
				"method": "rhf"
			},
			{
				"type": "occ",
				"energy": -0.19037,
				"method": "rhf"
			},
			{
				"type": "unocc",
				"energy": -0.01622,
				"method": "rhf"
			},
			{
				"type": "unocc",
				"energy": 0.01416,
				"method": "rhf"
			},
			{
				"type": "unocc",
				"energy": 0.07695,
				"method": "rhf"
			},
			{
				"type": "unocc",
				"energy": 0.07965,
				"method": "rhf"
			},
			{
				"type": "unocc",
				"energy": 0.09142,
				"method": "rhf"
			}
		],
		"cosmo_sigma_profile": { 
			"-0.025": 0.0,
			"-0.024": 0.0,
			"-0.023": 0.0,
			"-0.022": 0.0,
			"-0.021": 0.0,
			"-0.02": 0.0,
			"-0.019": 0.0,
			"-0.018": 0.0,
			"-0.017": 0.0,
			"-0.016": 0.0,
			"-0.015": 0.0,
			"-0.014": 0.498790082748,
			"-0.013": 0.458089522826,
			"-0.012": 0.751569594106,
			"-0.011": 0.271170673188,
			"-0.01": 0.693062799119,
			"-0.009": 0.990525908516,
			"-0.008": 0.262663055152,
			"-0.007": 2.2208818851,
			"-0.006": 8.73513423966,
			"-0.005": 17.1662530891,
			"-0.004": 19.9024228266,
			"-0.003": 22.6389871217,
			"-0.002": 17.3063005294,
			"-0.001": 16.8801135205,
			"0.0": 15.8878751928,
			"0.001": 14.5763377834,
			"0.002": 12.1612363777,
			"0.003": 13.0263120901,
			"0.004": 14.6632491176,
			"0.005": 15.438374948,
			"0.006": 12.9607832715,
			"0.007": 3.51030081993,
			"0.008": 1.18275921381,
			"0.009": 1.87776324054,
			"0.01": 1.58585463493,
			"0.011": 1.94469291255,
			"0.012": 1.02823447055,
			"0.013": 0.0,
			"0.014": 0.0,
			"0.015": 0.0,
			"0.016": 0.0,
			"0.017": 0.0,
			"0.018": 0.0,
			"0.019": 0.0,
			"0.02": 0.0,
			"0.021": 0.0,
			"0.022": 0.0,
			"0.023": 0.0,
			"0.024": 0.0,
			"0.025": 0.0
		}
	}
}
