{
	 "smiles": "ClCC1=NN=C(O1)C1=CC2=C(CCCC2)S1", 
	 "Tm": 381.15, 
	 "num_atms": 27, 
	 "gaussian": { 
		 "optdone": 1, 
		 "sigma_profile": "yes", 
		 "theory": "DFT", 
		 "functional": "B3LYP", 
		 "basiset": "6-31G**", 
		 "properties": { 
			 "R2extent": 6820.1468, 
			 "electric_dipole_moment_norm": 4.56660071497, 
			 "electric_quadrupole_moment_norm": 13.4222378715, 
			 "total_energy": -1468.8851451, 
			 "HOMO_LUMO_gap": 0.16175, 
			 "cosmo_polarized_energy": -11.5, 
			 "cosmo_cavitation_energy": 34.04, 
			 "cosmo_dispersion_energy": -25.7, 
			 "cosmo_repulsion_energy": 1.99, 
			 "cosmo_total_nonelectrostatic_energy": 10.34, 
			 "SMD_solvation_energy": 2.55 
		},
		"coords": [
			{
				"x": 3.9034216845,
				"y": 1.5374602381,
				"z": -4.3207059521,
				"element": "Cl" 
			},
			{
				"x": 2.8642829467,
				"y": 0.047845773,
				"z": -4.4958008785,
				"element": "C" 
			},
			{
				"x": 1.5962116495,
				"y": 0.1542776939,
				"z": -3.7456459853,
				"element": "C" 
			},
			{
				"x": 0.3987904525,
				"y": 0.2862168247,
				"z": -4.2245646749,
				"element": "N" 
			},
			{
				"x": -0.4638946517,
				"y": 0.3281823231,
				"z": -3.1374845321,
				"element": "N" 
			},
			{
				"x": 0.2844315513,
				"y": 0.222770923,
				"z": -2.0708769517,
				"element": "C" 
			},
			{
				"x": 1.6094954841,
				"y": 0.1035832465,
				"z": -2.3822050881,
				"element": "O" 
			},
			{
				"x": -0.1214121031,
				"y": 0.2163881825,
				"z": -0.690149446,
				"element": "C" 
			},
			{
				"x": -1.4086744529,
				"y": 0.3229861718,
				"z": -0.2159919987,
				"element": "C" 
			},
			{
				"x": -1.4886371609,
				"y": 0.2871963855,
				"z": 1.2052668018,
				"element": "C" 
			},
			{
				"x": -0.2534213703,
				"y": 0.1492621378,
				"z": 1.7991507642,
				"element": "C" 
			},
			{
				"x": -0.0027485391,
				"y": 0.0963770509,
				"z": 3.2816435917,
				"element": "C" 
			},
			{
				"x": -1.3183738247,
				"y": -0.1856514523,
				"z": 4.0325635808,
				"element": "C" 
			},
			{
				"x": -2.4664427654,
				"y": 0.6819954555,
				"z": 3.4954019808,
				"element": "C" 
			},
			{
				"x": -2.7603493161,
				"y": 0.3720089439,
				"z": 2.0171536055,
				"element": "C" 
			},
			{
				"x": 1.0262497095,
				"y": 0.066477822,
				"z": 0.6210069671,
				"element": "S" 
			},
			{
				"x": 3.4717087376,
				"y": -0.7863725492,
				"z": -4.1436947205,
				"element": "H" 
			},
			{
				"x": 2.6360947888,
				"y": -0.0663455652,
				"z": -5.5538276812,
				"element": "H" 
			},
			{
				"x": -2.2607461098,
				"y": 0.4258023273,
				"z": -0.8784402506,
				"element": "H" 
			},
			{
				"x": 0.7459939224,
				"y": -0.6671570255,
				"z": 3.5237720809,
				"element": "H" 
			},
			{
				"x": 0.417812819,
				"y": 1.0547144804,
				"z": 3.6187776478,
				"element": "H" 
			},
			{
				"x": -1.5802804143,
				"y": -1.2455119981,
				"z": 3.9187775074,
				"element": "H" 
			},
			{
				"x": -1.1711677977,
				"y": -0.0082293628,
				"z": 5.1033442755,
				"element": "H" 
			},
			{
				"x": -2.1957325508,
				"y": 1.741102536,
				"z": 3.5986316664,
				"element": "H" 
			},
			{
				"x": -3.3712222795,
				"y": 0.5281597368,
				"z": 4.0932327428,
				"element": "H" 
			},
			{
				"x": -3.4258715431,
				"y": 1.1334210293,
				"z": 1.5932858905,
				"element": "H" 
			},
			{
				"x": -3.3033188666,
				"y": -0.5809613289,
				"z": 1.9406790567,
				"element": "H" 
			}
		],
		 "valence_orbital": [ 
			{
				"type": "occ",
				"energy": -0.30633,
				"method": "rhf"
			},
			{
				"type": "occ",
				"energy": -0.29664,
				"method": "rhf"
			},
			{
				"type": "occ",
				"energy": -0.2814,
				"method": "rhf"
			},
			{
				"type": "occ",
				"energy": -0.25668,
				"method": "rhf"
			},
			{
				"type": "occ",
				"energy": -0.22381,
				"method": "rhf"
			},
			{
				"type": "unocc",
				"energy": -0.06206,
				"method": "rhf"
			},
			{
				"type": "unocc",
				"energy": -0.02306,
				"method": "rhf"
			},
			{
				"type": "unocc",
				"energy": 0.01497,
				"method": "rhf"
			},
			{
				"type": "unocc",
				"energy": 0.02956,
				"method": "rhf"
			},
			{
				"type": "unocc",
				"energy": 0.04668,
				"method": "rhf"
			}
		],
		"cosmo_sigma_profile": { 
			"-0.025": 0.0,
			"-0.024": 0.0,
			"-0.023": 0.0,
			"-0.022": 0.0,
			"-0.021": 0.0,
			"-0.02": 0.0,
			"-0.019": 0.0,
			"-0.018": 0.0,
			"-0.017": 0.0,
			"-0.016": 0.0,
			"-0.015": 0.0,
			"-0.014": 0.0,
			"-0.013": 0.0,
			"-0.012": 0.0,
			"-0.011": 0.0278308657765,
			"-0.01": 3.27538796339,
			"-0.009": 3.97214148184,
			"-0.008": 4.14780778953,
			"-0.007": 5.79654870804,
			"-0.006": 5.71420332292,
			"-0.005": 9.44645258867,
			"-0.004": 16.5414168446,
			"-0.003": 28.9413881565,
			"-0.002": 32.7550657593,
			"-0.001": 30.542158782,
			"0.0": 22.7953595799,
			"0.001": 20.1333051448,
			"0.002": 21.8882176979,
			"0.003": 21.5380015078,
			"0.004": 11.7092320633,
			"0.005": 11.1410747536,
			"0.006": 4.98113215389,
			"0.007": 1.80905703806,
			"0.008": 2.38776861334,
			"0.009": 2.47683340513,
			"0.01": 2.46511576814,
			"0.011": 3.57305953207,
			"0.012": 2.20949337313,
			"0.013": 2.55153706633,
			"0.014": 1.95080693865,
			"0.015": 0.227459851422,
			"0.016": 0.0,
			"0.017": 0.0,
			"0.018": 0.0,
			"0.019": 0.0,
			"0.02": 0.0,
			"0.021": 0.0,
			"0.022": 0.0,
			"0.023": 0.0,
			"0.024": 0.0,
			"0.025": 0.0
		}
	}
}
