{
	 "smiles": "CC1=NN(C2=C1C=C(S2)C(O)=O)C1=CC=C(F)C=C1", 
	 "Tm": 481.15, 
	 "num_atms": 28, 
	 "gaussian": { 
		 "optdone": 1, 
		 "sigma_profile": "yes", 
		 "theory": "DFT", 
		 "functional": "B3LYP", 
		 "basiset": "6-31G**", 
		 "properties": { 
			 "R2extent": 7068.647, 
			 "electric_dipole_moment_norm": 4.68307751591, 
			 "electric_quadrupole_moment_norm": 24.5434800475, 
			 "total_energy": -1258.75838841, 
			 "HOMO_LUMO_gap": 0.16026, 
			 "cosmo_polarized_energy": -17.96, 
			 "cosmo_cavitation_energy": 35.3, 
			 "cosmo_dispersion_energy": -26.09, 
			 "cosmo_repulsion_energy": 1.92, 
			 "cosmo_total_nonelectrostatic_energy": 11.13, 
			 "SMD_solvation_energy": 6.66 
		},
		"coords": [
			{
				"x": -0.0018846772,
				"y": -3.1482010024,
				"z": 1.2986032426,
				"element": "C" 
			},
			{
				"x": -0.0670138987,
				"y": -1.8101895387,
				"z": 0.632866802,
				"element": "C" 
			},
			{
				"x": -0.8724022619,
				"y": -0.8645955607,
				"z": 1.0934879181,
				"element": "N" 
			},
			{
				"x": -0.714834333,
				"y": 0.2400358298,
				"z": 0.2811314827,
				"element": "N" 
			},
			{
				"x": 0.1981113684,
				"y": -0.025170417,
				"z": -0.6905572261,
				"element": "C" 
			},
			{
				"x": 0.646938182,
				"y": -1.3374415352,
				"z": -0.5114366562,
				"element": "C" 
			},
			{
				"x": 1.630123587,
				"y": -1.6990604732,
				"z": -1.4736310004,
				"element": "C" 
			},
			{
				"x": 1.903809668,
				"y": -0.6737857608,
				"z": -2.3468226524,
				"element": "C" 
			},
			{
				"x": 0.968569517,
				"y": 0.7987501719,
				"z": -2.0104063351,
				"element": "S" 
			},
			{
				"x": 2.8444317741,
				"y": -0.5846860031,
				"z": -3.478578212,
				"element": "C" 
			},
			{
				"x": 3.4921960473,
				"y": -1.7250534264,
				"z": -3.8355644805,
				"element": "O" 
			},
			{
				"x": 3.0494693778,
				"y": 0.4474083827,
				"z": -4.0787043876,
				"element": "O" 
			},
			{
				"x": -1.4464014435,
				"y": 1.4240649435,
				"z": 0.5484962425,
				"element": "C" 
			},
			{
				"x": -2.0163889117,
				"y": 1.6061159754,
				"z": 1.8154619782,
				"element": "C" 
			},
			{
				"x": -2.7310511215,
				"y": 2.7672161247,
				"z": 2.0927880502,
				"element": "C" 
			},
			{
				"x": -2.8620760043,
				"y": 3.737308465,
				"z": 1.1038989944,
				"element": "C" 
			},
			{
				"x": -3.5482919361,
				"y": 4.8649826777,
				"z": 1.3771759596,
				"element": "F" 
			},
			{
				"x": -2.3073129833,
				"y": 3.5714560571,
				"z": -0.158688045,
				"element": "C" 
			},
			{
				"x": -1.600747427,
				"y": 2.4028352198,
				"z": -0.4400418616,
				"element": "C" 
			},
			{
				"x": -0.6797762885,
				"y": -3.1694828074,
				"z": 2.1539728373,
				"element": "H" 
			},
			{
				"x": 1.012058575,
				"y": -3.3661214355,
				"z": 1.6524443032,
				"element": "H" 
			},
			{
				"x": -0.2882428635,
				"y": -3.9495482866,
				"z": 0.6082965883,
				"element": "H" 
			},
			{
				"x": 2.1218050142,
				"y": -2.6666480187,
				"z": -1.4985801393,
				"element": "H" 
			},
			{
				"x": 3.1595650883,
				"y": -2.482475405,
				"z": -3.3351581965,
				"element": "H" 
			},
			{
				"x": -1.8954586344,
				"y": 0.833189494,
				"z": 2.5635468082,
				"element": "H" 
			},
			{
				"x": -3.1802593764,
				"y": 2.9303720382,
				"z": 3.066214178,
				"element": "H" 
			},
			{
				"x": -2.4378785066,
				"y": 4.3420343105,
				"z": -0.9100773198,
				"element": "H" 
			},
			{
				"x": -1.1989575315,
				"y": 2.2564899804,
				"z": -1.4362388729,
				"element": "H" 
			}
		],
		 "valence_orbital": [ 
			{
				"type": "occ",
				"energy": -0.2818,
				"method": "rhf"
			},
			{
				"type": "occ",
				"energy": -0.27473,
				"method": "rhf"
			},
			{
				"type": "occ",
				"energy": -0.27119,
				"method": "rhf"
			},
			{
				"type": "occ",
				"energy": -0.25168,
				"method": "rhf"
			},
			{
				"type": "occ",
				"energy": -0.22341,
				"method": "rhf"
			},
			{
				"type": "unocc",
				"energy": -0.06315,
				"method": "rhf"
			},
			{
				"type": "unocc",
				"energy": -0.03162,
				"method": "rhf"
			},
			{
				"type": "unocc",
				"energy": -0.02616,
				"method": "rhf"
			},
			{
				"type": "unocc",
				"energy": 0.00558,
				"method": "rhf"
			},
			{
				"type": "unocc",
				"energy": 0.02791,
				"method": "rhf"
			}
		],
		"cosmo_sigma_profile": { 
			"-0.025": 0.0,
			"-0.024": 0.0,
			"-0.023": 0.0,
			"-0.022": 0.0,
			"-0.021": 0.0,
			"-0.02": 0.234270071702,
			"-0.019": 0.884797230192,
			"-0.018": 1.22234954344,
			"-0.017": 1.09484492747,
			"-0.016": 0.919533191689,
			"-0.015": 1.23555844672,
			"-0.014": 0.966430460897,
			"-0.013": 1.16260606345,
			"-0.012": 1.25529952662,
			"-0.011": 1.47066044186,
			"-0.01": 0.952875091529,
			"-0.009": 1.44672178306,
			"-0.008": 4.10645399885,
			"-0.007": 7.05759546927,
			"-0.006": 10.950651908,
			"-0.005": 16.1757472914,
			"-0.004": 15.4060776888,
			"-0.003": 16.9399593611,
			"-0.002": 17.8456320692,
			"-0.001": 20.413661869,
			"0.0": 28.6084248222,
			"0.001": 31.069674928,
			"0.002": 27.2695106828,
			"0.003": 20.9810340407,
			"0.004": 15.5953504164,
			"0.005": 6.15342975876,
			"0.006": 3.57069132867,
			"0.007": 4.57850067944,
			"0.008": 4.9003640681,
			"0.009": 4.59258118992,
			"0.01": 5.66947507043,
			"0.011": 5.92739286255,
			"0.012": 4.59556825409,
			"0.013": 1.34339472494,
			"0.014": 0.0225301475896,
			"0.015": 0.0,
			"0.016": 0.0,
			"0.017": 0.0,
			"0.018": 0.0,
			"0.019": 0.0,
			"0.02": 0.0,
			"0.021": 0.0,
			"0.022": 0.0,
			"0.023": 0.0,
			"0.024": 0.0,
			"0.0": 0.0
		}
	}
}
