{
	 "smiles": "CCC1=NN=C(S)N1N", 
	 "Tm": 417.15, 
	 "num_atms": 17, 
	 "gaussian": { 
		 "optdone": 1, 
		 "sigma_profile": "yes", 
		 "theory": "DFT", 
		 "functional": "B3LYP", 
		 "basiset": "6-31G**", 
		 "properties": { 
			 "R2extent": 1892.016, 
			 "electric_dipole_moment_norm": 4.44991611382, 
			 "electric_quadrupole_moment_norm": 9.32631403986, 
			 "total_energy": -774.384465217, 
			 "HOMO_LUMO_gap": 0.22874, 
			 "cosmo_polarized_energy": -17.96, 
			 "cosmo_cavitation_energy": 22.66, 
			 "cosmo_dispersion_energy": -17.19, 
			 "cosmo_repulsion_energy": 1.39, 
			 "cosmo_total_nonelectrostatic_energy": 6.85, 
			 "SMD_solvation_energy": 2.21 
		},
		"coords": [
			{
				"x": -1.4226620199,
				"y": 0.7930952555,
				"z": -2.6099196296,
				"element": "C" 
			},
			{
				"x": -0.934404001,
				"y": 1.0328051429,
				"z": -1.178650313,
				"element": "C" 
			},
			{
				"x": -0.7760702051,
				"y": -0.2379778528,
				"z": -0.4056056637,
				"element": "C" 
			},
			{
				"x": -1.0070362508,
				"y": -1.4556361229,
				"z": -0.8283649263,
				"element": "N" 
			},
			{
				"x": -0.7320403055,
				"y": -2.3427570164,
				"z": 0.2122838323,
				"element": "N" 
			},
			{
				"x": -0.3428230022,
				"y": -1.6213608826,
				"z": 1.2290128713,
				"element": "C" 
			},
			{
				"x": 0.144022583,
				"y": -2.1730814829,
				"z": 2.8355370136,
				"element": "S" 
			},
			{
				"x": -0.3474236643,
				"y": -0.2834677696,
				"z": 0.9073830887,
				"element": "N" 
			},
			{
				"x": -0.0054389498,
				"y": 0.8210722577,
				"z": 1.692654696,
				"element": "N" 
			},
			{
				"x": -1.5243280579,
				"y": 1.745939788,
				"z": -3.1373420182,
				"element": "H" 
			},
			{
				"x": -2.3910088486,
				"y": 0.2866624819,
				"z": -2.6142436594,
				"element": "H" 
			},
			{
				"x": -0.7227789314,
				"y": 0.1612825939,
				"z": -3.1623397633,
				"element": "H" 
			},
			{
				"x": 0.0248503651,
				"y": 1.5662311537,
				"z": -1.183427756,
				"element": "H" 
			},
			{
				"x": -1.6287103389,
				"y": 1.6906678472,
				"z": -0.6402187173,
				"element": "H" 
			},
			{
				"x": -0.0545045845,
				"y": -3.4690143568,
				"z": 2.5314709325,
				"element": "H" 
			},
			{
				"x": 0.9624279164,
				"y": 0.7358436819,
				"z": 1.9953886455,
				"element": "H" 
			},
			{
				"x": -0.6078717044,
				"y": 0.8545952814,
				"z": 2.5121813668,
				"element": "H" 
			}
		],
		 "valence_orbital": [ 
			{
				"type": "occ",
				"energy": -0.31059,
				"method": "rhf"
			},
			{
				"type": "occ",
				"energy": -0.30222,
				"method": "rhf"
			},
			{
				"type": "occ",
				"energy": -0.29176,
				"method": "rhf"
			},
			{
				"type": "occ",
				"energy": -0.24794,
				"method": "rhf"
			},
			{
				"type": "occ",
				"energy": -0.23032,
				"method": "rhf"
			},
			{
				"type": "unocc",
				"energy": -0.00158,
				"method": "rhf"
			},
			{
				"type": "unocc",
				"energy": 0.01835,
				"method": "rhf"
			},
			{
				"type": "unocc",
				"energy": 0.04681,
				"method": "rhf"
			},
			{
				"type": "unocc",
				"energy": 0.04867,
				"method": "rhf"
			},
			{
				"type": "unocc",
				"energy": 0.07245,
				"method": "rhf"
			}
		],
		"cosmo_sigma_profile": { 
			"-0.025": 0.0,
			"-0.024": 0.0,
			"-0.023": 0.0,
			"-0.022": 0.0,
			"-0.021": 0.0,
			"-0.02": 0.0,
			"-0.019": 0.0,
			"-0.018": 0.0,
			"-0.017": 0.0,
			"-0.016": 0.0,
			"-0.015": 0.0,
			"-0.014": 1.17809871086,
			"-0.013": 3.92921109458,
			"-0.012": 4.51478683309,
			"-0.011": 4.75153264551,
			"-0.01": 3.60512940476,
			"-0.009": 3.84927049726,
			"-0.008": 4.15037706852,
			"-0.007": 2.83751545763,
			"-0.006": 2.60901504238,
			"-0.005": 6.08770335484,
			"-0.004": 10.0540894338,
			"-0.003": 15.4047341268,
			"-0.002": 16.6824039998,
			"-0.001": 14.3505844326,
			"0.0": 13.0016842684,
			"0.001": 13.7311539542,
			"0.002": 8.47009857622,
			"0.003": 5.95306654457,
			"0.004": 4.98569907397,
			"0.005": 6.22996823177,
			"0.006": 4.66770661422,
			"0.007": 4.14027596829,
			"0.008": 3.0101711146,
			"0.009": 2.17711116395,
			"0.01": 2.50597786272,
			"0.011": 2.55696099847,
			"0.012": 2.60398829422,
			"0.013": 3.2627037895,
			"0.014": 3.74498399723,
			"0.015": 2.70744656677,
			"0.016": 2.34970666668,
			"0.017": 1.07630503284,
			"0.018": 0.0133755999355,
			"0.019": 0.0,
			"0.02": 0.0,
			"0.021": 0.0,
			"0.022": 0.0,
			"0.023": 0.0,
			"0.024": 0.0,
			"0.025": 0.0
		}
	}
}
