{
	 "smiles": "COC1=CC(OC)=C(NC(N)=S)C=C1", 
	 "Tm": 473.15, 
	 "num_atms": 26, 
	 "gaussian": { 
		 "optdone": 1, 
		 "sigma_profile": "yes", 
		 "theory": "DFT", 
		 "functional": "B3LYP", 
		 "basiset": "6-31G**", 
		 "properties": { 
			 "R2extent": 5040.6638, 
			 "electric_dipole_moment_norm": 7.49846530298, 
			 "electric_quadrupole_moment_norm": 28.4480510782, 
			 "total_energy": -1008.31569973, 
			 "HOMO_LUMO_gap": 0.17596, 
			 "cosmo_polarized_energy": -20.98, 
			 "cosmo_cavitation_energy": 31.19, 
			 "cosmo_dispersion_energy": -23.38, 
			 "cosmo_repulsion_energy": 1.82, 
			 "cosmo_total_nonelectrostatic_energy": 9.63, 
			 "SMD_solvation_energy": 6.01 
		},
		"coords": [
			{
				"x": -3.8606613479,
				"y": 0.2177577037,
				"z": 1.1150893568,
				"element": "C" 
			},
			{
				"x": -3.2105535779,
				"y": -0.9994691031,
				"z": 1.4329426429,
				"element": "O" 
			},
			{
				"x": -1.8878679383,
				"y": -1.1352146099,
				"z": 1.1164088555,
				"element": "C" 
			},
			{
				"x": -1.1242496147,
				"y": -0.1349514951,
				"z": 0.4974599549,
				"element": "C" 
			},
			{
				"x": 0.2201338878,
				"y": -0.3788483414,
				"z": 0.2152855564,
				"element": "C" 
			},
			{
				"x": 1.0534859205,
				"y": 0.5374669566,
				"z": -0.3827911431,
				"element": "O" 
			},
			{
				"x": 0.5267524386,
				"y": 1.7999722746,
				"z": -0.7591451081,
				"element": "C" 
			},
			{
				"x": 0.826962576,
				"y": -1.6125077872,
				"z": 0.5405037248,
				"element": "C" 
			},
			{
				"x": 2.1973460677,
				"y": -1.7157625035,
				"z": 0.2172922655,
				"element": "N" 
			},
			{
				"x": 3.0832780669,
				"y": -2.7488810755,
				"z": 0.2575110208,
				"element": "C" 
			},
			{
				"x": 4.3477782539,
				"y": -2.36518652,
				"z": -0.1397902028,
				"element": "N" 
			},
			{
				"x": 2.7848476058,
				"y": -4.3509427137,
				"z": 0.665549786,
				"element": "S" 
			},
			{
				"x": 0.0458071067,
				"y": -2.5925801157,
				"z": 1.1609203886,
				"element": "C" 
			},
			{
				"x": -1.2962490997,
				"y": -2.3567322669,
				"z": 1.4446178582,
				"element": "C" 
			},
			{
				"x": -3.4072235256,
				"y": 1.071079887,
				"z": 1.637439852,
				"element": "H" 
			},
			{
				"x": -4.8936323372,
				"y": 0.1053528801,
				"z": 1.4483160604,
				"element": "H" 
			},
			{
				"x": -3.8525870217,
				"y": 0.4143604524,
				"z": 0.0344712374,
				"element": "H" 
			},
			{
				"x": -1.5657602444,
				"y": 0.8165405291,
				"z": 0.2380373194,
				"element": "H" 
			},
			{
				"x": 0.1593189904,
				"y": 2.3573244124,
				"z": 0.1114823267,
				"element": "H" 
			},
			{
				"x": 1.351932112,
				"y": 2.3488666726,
				"z": -1.2153816719,
				"element": "H" 
			},
			{
				"x": -0.2842064054,
				"y": 1.6936482892,
				"z": -1.4900800613,
				"element": "H" 
			},
			{
				"x": 2.5391306118,
				"y": -0.859253297,
				"z": -0.2023282075,
				"element": "H" 
			},
			{
				"x": 5.0536434132,
				"y": -3.0712736543,
				"z": 0.0069501296,
				"element": "H" 
			},
			{
				"x": 4.6472513093,
				"y": -1.4131283253,
				"z": 0.0293476652,
				"element": "H" 
			},
			{
				"x": 0.4995089034,
				"y": -3.5423793175,
				"z": 1.4071083627,
				"element": "H" 
			},
			{
				"x": -1.9015861512,
				"y": -3.1190589315,
				"z": 1.9221820307,
				"element": "H" 
			}
		],
		 "valence_orbital": [ 
			{
				"type": "occ",
				"energy": -0.28033,
				"method": "rhf"
			},
			{
				"type": "occ",
				"energy": -0.23964,
				"method": "rhf"
			},
			{
				"type": "occ",
				"energy": -0.22119,
				"method": "rhf"
			},
			{
				"type": "occ",
				"energy": -0.19815,
				"method": "rhf"
			},
			{
				"type": "occ",
				"energy": -0.19122,
				"method": "rhf"
			},
			{
				"type": "unocc",
				"energy": -0.01526,
				"method": "rhf"
			},
			{
				"type": "unocc",
				"energy": 0.00742,
				"method": "rhf"
			},
			{
				"type": "unocc",
				"energy": 0.03905,
				"method": "rhf"
			},
			{
				"type": "unocc",
				"energy": 0.06579,
				"method": "rhf"
			},
			{
				"type": "unocc",
				"energy": 0.07794,
				"method": "rhf"
			}
		],
		"cosmo_sigma_profile": { 
			"-0.025": 0.0,
			"-0.024": 0.0,
			"-0.023": 0.0,
			"-0.022": 0.0,
			"-0.021": 0.0,
			"-0.02": 0.0,
			"-0.019": 0.0,
			"-0.018": 0.0370008530874,
			"-0.017": 0.811949282266,
			"-0.016": 0.957349646325,
			"-0.015": 1.32640728938,
			"-0.014": 2.14024494161,
			"-0.013": 2.42015412333,
			"-0.012": 2.68205544908,
			"-0.011": 2.56210611639,
			"-0.01": 1.97950413316,
			"-0.009": 2.39293903975,
			"-0.008": 1.42360618045,
			"-0.007": 4.65861069557,
			"-0.006": 13.8984229155,
			"-0.005": 22.0717476314,
			"-0.004": 19.8795001469,
			"-0.003": 20.2865716069,
			"-0.002": 10.8144366937,
			"-0.001": 9.74996733676,
			"0.0": 10.1886098282,
			"0.001": 11.9370534988,
			"0.002": 14.5268706701,
			"0.003": 15.5354093593,
			"0.004": 18.7669146453,
			"0.005": 14.9351098794,
			"0.006": 8.82564483744,
			"0.007": 7.14998500483,
			"0.008": 5.1995235152,
			"0.009": 7.18667487691,
			"0.01": 6.90180568089,
			"0.011": 6.69055908621,
			"0.012": 2.26725823338,
			"0.013": 0.0805721765275,
			"0.014": 0.0,
			"0.015": 0.0,
			"0.016": 0.0,
			"0.017": 0.0,
			"0.018": 0.0,
			"0.019": 0.0,
			"0.02": 0.0,
			"0.021": 0.0,
			"0.022": 0.0,
			"0.023": 0.0,
			"0.024": 0.0,
			"0.025": 0.0
		}
	}
}
