{
	 "smiles": "NC(=O)C1=NC2=C(C=CC=C2)N=C1", 
	 "Tm": 468.15, 
	 "num_atms": 20, 
	 "gaussian": { 
		 "optdone": 1, 
		 "sigma_profile": "yes", 
		 "theory": "DFT", 
		 "functional": "B3LYP", 
		 "basiset": "6-31G**", 
		 "properties": { 
			 "R2extent": 2817.7712, 
			 "electric_dipole_moment_norm": 4.33736275287, 
			 "electric_quadrupole_moment_norm": 15.0376286834, 
			 "total_energy": -586.675764948, 
			 "HOMO_LUMO_gap": 0.15915, 
			 "cosmo_polarized_energy": -12.47, 
			 "cosmo_cavitation_energy": 24.91, 
			 "cosmo_dispersion_energy": -18.79, 
			 "cosmo_repulsion_energy": 1.47, 
			 "cosmo_total_nonelectrostatic_energy": 7.59, 
			 "SMD_solvation_energy": 2.43 
		},
		"coords": [
			{
				"x": 1.1374530135,
				"y": 2.7952838246,
				"z": 2.407797444,
				"element": "N" 
			},
			{
				"x": 2.1473646233,
				"y": 2.2706819945,
				"z": 1.6704822454,
				"element": "C" 
			},
			{
				"x": 3.3127403799,
				"y": 2.6501250192,
				"z": 1.7119682448,
				"element": "O" 
			},
			{
				"x": 1.7242725119,
				"y": 1.1416456685,
				"z": 0.7598764173,
				"element": "C" 
			},
			{
				"x": 0.4583605066,
				"y": 0.7689281963,
				"z": 0.7513249953,
				"element": "N" 
			},
			{
				"x": 0.1212696809,
				"y": -0.2524950144,
				"z": -0.0845216868,
				"element": "C" 
			},
			{
				"x": 1.1117943956,
				"y": -0.8779772433,
				"z": -0.9067514894,
				"element": "C" 
			},
			{
				"x": 0.729468182,
				"y": -1.9388352345,
				"z": -1.7664397795,
				"element": "C" 
			},
			{
				"x": -0.5825329226,
				"y": -2.3559504993,
				"z": -1.8031636214,
				"element": "C" 
			},
			{
				"x": -1.5638242724,
				"y": -1.7348166362,
				"z": -0.9872618911,
				"element": "C" 
			},
			{
				"x": -1.223007153,
				"y": -0.7025598353,
				"z": -0.1426695697,
				"element": "C" 
			},
			{
				"x": 2.4150470826,
				"y": -0.4719552513,
				"z": -0.8777364603,
				"element": "N" 
			},
			{
				"x": 2.7072345417,
				"y": 0.5165006777,
				"z": -0.0600924387,
				"element": "C" 
			},
			{
				"x": 0.2053551412,
				"y": 2.4212791688,
				"z": 2.3116805176,
				"element": "H" 
			},
			{
				"x": 1.3376446237,
				"y": 3.5524364514,
				"z": 3.0410701416,
				"element": "H" 
			},
			{
				"x": 1.4986749509,
				"y": -2.3966640719,
				"z": -2.3797382326,
				"element": "H" 
			},
			{
				"x": -0.8755073849,
				"y": -3.1683872749,
				"z": -2.4614775222,
				"element": "H" 
			},
			{
				"x": -2.5918915694,
				"y": -2.0813982798,
				"z": -1.0338715259,
				"element": "H" 
			},
			{
				"x": -1.9546133181,
				"y": -0.2114334751,
				"z": 0.4909820492,
				"element": "H" 
			},
			{
				"x": 3.7339969867,
				"y": 0.8669918148,
				"z": -0.0096578375,
				"element": "H" 
			}
		],
		 "valence_orbital": [ 
			{
				"type": "occ",
				"energy": -0.27338,
				"method": "rhf"
			},
			{
				"type": "occ",
				"energy": -0.27111,
				"method": "rhf"
			},
			{
				"type": "occ",
				"energy": -0.2656,
				"method": "rhf"
			},
			{
				"type": "occ",
				"energy": -0.25414,
				"method": "rhf"
			},
			{
				"type": "occ",
				"energy": -0.24469,
				"method": "rhf"
			},
			{
				"type": "unocc",
				"energy": -0.08554,
				"method": "rhf"
			},
			{
				"type": "unocc",
				"energy": -0.0426,
				"method": "rhf"
			},
			{
				"type": "unocc",
				"energy": -0.00122,
				"method": "rhf"
			},
			{
				"type": "unocc",
				"energy": 0.0321,
				"method": "rhf"
			},
			{
				"type": "unocc",
				"energy": 0.08835,
				"method": "rhf"
			}
		],
		"cosmo_sigma_profile": { 
			"-0.025": 0.0,
			"-0.024": 0.0,
			"-0.023": 0.0,
			"-0.022": 0.0,
			"-0.021": 0.0,
			"-0.02": 0.0,
			"-0.019": 0.0,
			"-0.018": 0.0,
			"-0.017": 0.0,
			"-0.016": 0.0,
			"-0.015": 0.290908318299,
			"-0.014": 1.2971780559,
			"-0.013": 1.18953009046,
			"-0.012": 2.11457756562,
			"-0.011": 1.9475112447,
			"-0.01": 1.43841504976,
			"-0.009": 1.51793781143,
			"-0.008": 1.78382517086,
			"-0.007": 7.3686659589,
			"-0.006": 11.5815695274,
			"-0.005": 11.3978842159,
			"-0.004": 10.4643933729,
			"-0.003": 12.9433054788,
			"-0.002": 14.7214980839,
			"-0.001": 14.2895390743,
			"0.0": 15.4648392642,
			"0.001": 19.5390922887,
			"0.002": 19.0766472796,
			"0.003": 14.4145158093,
			"0.004": 6.03530897733,
			"0.005": 4.37283656438,
			"0.006": 3.76400010752,
			"0.007": 2.38732811778,
			"0.008": 2.27804966211,
			"0.009": 2.17060059695,
			"0.01": 1.59592108154,
			"0.011": 2.9560789179,
			"0.012": 3.59075280481,
			"0.013": 5.80699484945,
			"0.014": 2.44025960538,
			"0.015": 0.356995540964,
			"0.016": 0.0,
			"0.017": 0.0,
			"0.018": 0.0,
			"0.019": 0.0,
			"0.02": 0.0,
			"0.021": 0.0,
			"0.022": 0.0,
			"0.023": 0.0,
			"0.024": 0.0,
			"0.025": 0.0
		}
	}
}
