{
	 "smiles": "CC1=CC(C(=O)NC2=CC=NC=C2)=C(O)C=C1", 
	 "Tm": 523.15, 
	 "num_atms": 29, 
	 "gaussian": { 
		 "optdone": 1, 
		 "sigma_profile": "yes", 
		 "theory": "DFT", 
		 "functional": "B3LYP", 
		 "basiset": "6-31G**", 
		 "properties": { 
			 "R2extent": 5478.8977, 
			 "electric_dipole_moment_norm": 4.75233987211, 
			 "electric_quadrupole_moment_norm": 10.7874985863, 
			 "total_energy": -762.596928026, 
			 "HOMO_LUMO_gap": 0.16289, 
			 "cosmo_polarized_energy": -15.11, 
			 "cosmo_cavitation_energy": 33.0, 
			 "cosmo_dispersion_energy": -24.63, 
			 "cosmo_repulsion_energy": 1.87, 
			 "cosmo_total_nonelectrostatic_energy": 10.24, 
			 "SMD_solvation_energy": 4.8 
		},
		"coords": [
			{
				"x": 4.6260060409,
				"y": -1.1480093205,
				"z": 0.6488846192,
				"element": "C" 
			},
			{
				"x": 3.5304274805,
				"y": -0.1084877162,
				"z": 0.6321731438,
				"element": "C" 
			},
			{
				"x": 2.2040605003,
				"y": -0.4479658166,
				"z": 0.402166536,
				"element": "C" 
			},
			{
				"x": 1.1655549768,
				"y": 0.5088038043,
				"z": 0.3729417457,
				"element": "C" 
			},
			{
				"x": -0.2616512718,
				"y": 0.1674060552,
				"z": 0.1656345853,
				"element": "C" 
			},
			{
				"x": -1.1171673284,
				"y": 1.0470317983,
				"z": -0.039855864,
				"element": "O" 
			},
			{
				"x": -0.6050769067,
				"y": -1.1630971208,
				"z": 0.2315241154,
				"element": "N" 
			},
			{
				"x": -1.8609773362,
				"y": -1.7635334576,
				"z": 0.0497987982,
				"element": "C" 
			},
			{
				"x": -1.9494633925,
				"y": -3.1519329685,
				"z": 0.2397334725,
				"element": "C" 
			},
			{
				"x": -3.1760471248,
				"y": -3.7810596994,
				"z": 0.0589958781,
				"element": "C" 
			},
			{
				"x": -4.3009914103,
				"y": -3.1441785051,
				"z": -0.2917598395,
				"element": "N" 
			},
			{
				"x": -4.1988166404,
				"y": -1.8211058741,
				"z": -0.4697383363,
				"element": "C" 
			},
			{
				"x": -3.0280596128,
				"y": -1.0785550017,
				"z": -0.3175766426,
				"element": "C" 
			},
			{
				"x": 1.5018545132,
				"y": 1.8770486392,
				"z": 0.5497719094,
				"element": "C" 
			},
			{
				"x": 0.600059261,
				"y": 2.8666298514,
				"z": 0.4963281896,
				"element": "O" 
			},
			{
				"x": 2.8420148373,
				"y": 2.2250671829,
				"z": 0.7998176469,
				"element": "C" 
			},
			{
				"x": 3.8261162849,
				"y": 1.2543908435,
				"z": 0.8421772957,
				"element": "C" 
			},
			{
				"x": 5.3792608267,
				"y": -0.9505409152,
				"z": -0.1226422254,
				"element": "H" 
			},
			{
				"x": 5.1494578159,
				"y": -1.163189563,
				"z": 1.611974243,
				"element": "H" 
			},
			{
				"x": 4.228342174,
				"y": -2.1516207036,
				"z": 0.4727965791,
				"element": "H" 
			},
			{
				"x": 1.9830332563,
				"y": -1.4942595661,
				"z": 0.2035066729,
				"element": "H" 
			},
			{
				"x": 0.1267358701,
				"y": -1.7972008318,
				"z": 0.5138903074,
				"element": "H" 
			},
			{
				"x": -1.0753344025,
				"y": -3.7327721271,
				"z": 0.5239113147,
				"element": "H" 
			},
			{
				"x": -3.255662735,
				"y": -4.8570457467,
				"z": 0.2044815298,
				"element": "H" 
			},
			{
				"x": -5.1151773353,
				"y": -1.3067810061,
				"z": -0.7543888976,
				"element": "H" 
			},
			{
				"x": -3.0182702813,
				"y": -0.0102822921,
				"z": -0.4717237365,
				"element": "H" 
			},
			{
				"x": -0.2639389063,
				"y": 2.4433668142,
				"z": 0.2575606643,
				"element": "H" 
			},
			{
				"x": 3.073313091,
				"y": 3.2747791938,
				"z": 0.9463395412,
				"element": "H" 
			},
			{
				"x": 4.8552977551,
				"y": 1.5513940495,
				"z": 1.029876754,
				"element": "H" 
			}
		],
		 "valence_orbital": [ 
			{
				"type": "occ",
				"energy": -0.27168,
				"method": "rhf"
			},
			{
				"type": "occ",
				"energy": -0.26519,
				"method": "rhf"
			},
			{
				"type": "occ",
				"energy": -0.25367,
				"method": "rhf"
			},
			{
				"type": "occ",
				"energy": -0.25058,
				"method": "rhf"
			},
			{
				"type": "occ",
				"energy": -0.22434,
				"method": "rhf"
			},
			{
				"type": "unocc",
				"energy": -0.06145,
				"method": "rhf"
			},
			{
				"type": "unocc",
				"energy": -0.01432,
				"method": "rhf"
			},
			{
				"type": "unocc",
				"energy": -0.01262,
				"method": "rhf"
			},
			{
				"type": "unocc",
				"energy": 0.00132,
				"method": "rhf"
			},
			{
				"type": "unocc",
				"energy": 0.04777,
				"method": "rhf"
			}
		],
		"cosmo_sigma_profile": { 
			"-0.025": 0.0,
			"-0.024": 0.0,
			"-0.023": 0.0,
			"-0.022": 0.0,
			"-0.021": 0.0,
			"-0.02": 0.0,
			"-0.019": 0.0,
			"-0.018": 0.0,
			"-0.017": 0.134346837462,
			"-0.016": 1.15259106206,
			"-0.015": 0.928120889666,
			"-0.014": 1.56947918824,
			"-0.013": 1.18200624585,
			"-0.012": 1.22165401235,
			"-0.011": 1.50281534477,
			"-0.01": 1.79046601541,
			"-0.009": 1.62980531151,
			"-0.008": 2.38910061065,
			"-0.007": 4.60709980373,
			"-0.006": 11.7711910278,
			"-0.005": 13.8462493095,
			"-0.004": 18.2394167767,
			"-0.003": 17.6330252215,
			"-0.002": 20.7947660501,
			"-0.001": 22.3934670951,
			"0.0": 23.1906822446,
			"0.001": 19.6561017394,
			"0.002": 25.3271315862,
			"0.003": 22.2861609003,
			"0.004": 14.2789530741,
			"0.005": 7.7719763534,
			"0.006": 3.88262342835,
			"0.007": 4.31775554335,
			"0.008": 5.40809981806,
			"0.009": 3.76719962091,
			"0.01": 3.27626847384,
			"0.011": 2.85727245294,
			"0.012": 1.54565044046,
			"0.013": 0.70236895638,
			"0.014": 1.28190461402,
			"0.015": 0.970997746863,
			"0.016": 0.838942757384,
			"0.017": 0.566618624293,
			"0.018": 0.0211590687731,
			"0.019": 0.0,
			"0.02": 0.0,
			"0.021": 0.0,
			"0.022": 0.0,
			"0.023": 0.0,
			"0.024": 0.0,
			"0.025": 0.0
		}
	}
}
