{
	 "smiles": "CCN1C(=O)CCC1=O", 
	 "Tm": 299.15, 
	 "num_atms": 18, 
	 "gaussian": { 
		 "optdone": 1, 
		 "sigma_profile": "yes", 
		 "theory": "DFT", 
		 "functional": "B3LYP", 
		 "basiset": "6-31G**", 
		 "properties": { 
			 "R2extent": 1347.1696, 
			 "electric_dipole_moment_norm": 1.39089801927, 
			 "electric_quadrupole_moment_norm": 16.3970922053, 
			 "total_energy": -439.304000472, 
			 "HOMO_LUMO_gap": 0.23949, 
			 "cosmo_polarized_energy": -11.14, 
			 "cosmo_cavitation_energy": 21.43, 
			 "cosmo_dispersion_energy": -15.61, 
			 "cosmo_repulsion_energy": 1.31, 
			 "cosmo_total_nonelectrostatic_energy": 7.13, 
			 "SMD_solvation_energy": 5.02 
		},
		"coords": [
			{
				"x": 0.7691591771,
				"y": -1.5651668464,
				"z": 2.2181973154,
				"element": "C" 
			},
			{
				"x": -0.4580906569,
				"y": -1.4528019911,
				"z": 1.3120996307,
				"element": "C" 
			},
			{
				"x": -0.1247855176,
				"y": -0.9495426031,
				"z": -0.0194620718,
				"element": "N" 
			},
			{
				"x": 0.2308782345,
				"y": -1.782026526,
				"z": -1.0803591961,
				"element": "C" 
			},
			{
				"x": 0.289866963,
				"y": -2.9926381636,
				"z": -1.0166189364,
				"element": "O" 
			},
			{
				"x": 0.5146859207,
				"y": -0.8991486609,
				"z": -2.2935829337,
				"element": "C" 
			},
			{
				"x": 0.286087572,
				"y": 0.5402562145,
				"z": -1.8068692945,
				"element": "C" 
			},
			{
				"x": -0.1172818823,
				"y": 0.4077611164,
				"z": -0.3400012686,
				"element": "C" 
			},
			{
				"x": -0.3927466672,
				"y": 1.3004458363,
				"z": 0.4348194013,
				"element": "O" 
			},
			{
				"x": 0.4736867793,
				"y": -1.9445641063,
				"z": 3.201401096,
				"element": "H" 
			},
			{
				"x": 1.5032115213,
				"y": -2.255228142,
				"z": 1.7926886077,
				"element": "H" 
			},
			{
				"x": 1.2393544699,
				"y": -0.5875377547,
				"z": 2.3569090467,
				"element": "H" 
			},
			{
				"x": -0.9259366362,
				"y": -2.4301345117,
				"z": 1.1709647499,
				"element": "H" 
			},
			{
				"x": -1.1901127181,
				"y": -0.7609283405,
				"z": 1.7356813416,
				"element": "H" 
			},
			{
				"x": -0.15265236,
				"y": -1.1969949822,
				"z": -3.1072982677,
				"element": "H" 
			},
			{
				"x": 1.5365131649,
				"y": -1.0891753852,
				"z": -2.634117426,
				"element": "H" 
			},
			{
				"x": -0.5112370656,
				"y": 1.0621615579,
				"z": -2.343593532,
				"element": "H" 
			},
			{
				"x": 1.1776997012,
				"y": 1.1705632887,
				"z": -1.8697582624,
				"element": "H" 
			}
		],
		 "valence_orbital": [ 
			{
				"type": "occ",
				"energy": -0.36056,
				"method": "rhf"
			},
			{
				"type": "occ",
				"energy": -0.34717,
				"method": "rhf"
			},
			{
				"type": "occ",
				"energy": -0.28395,
				"method": "rhf"
			},
			{
				"type": "occ",
				"energy": -0.27531,
				"method": "rhf"
			},
			{
				"type": "occ",
				"energy": -0.25769,
				"method": "rhf"
			},
			{
				"type": "unocc",
				"energy": -0.0182,
				"method": "rhf"
			},
			{
				"type": "unocc",
				"energy": 0.02459,
				"method": "rhf"
			},
			{
				"type": "unocc",
				"energy": 0.08407,
				"method": "rhf"
			},
			{
				"type": "unocc",
				"energy": 0.10944,
				"method": "rhf"
			},
			{
				"type": "unocc",
				"energy": 0.13115,
				"method": "rhf"
			}
		],
		"cosmo_sigma_profile": { 
			"-0.025": 0.0,
			"-0.024": 0.0,
			"-0.023": 0.0,
			"-0.022": 0.0,
			"-0.021": 0.0,
			"-0.02": 0.0,
			"-0.019": 0.0,
			"-0.018": 0.0,
			"-0.017": 0.0,
			"-0.016": 0.0,
			"-0.015": 0.0,
			"-0.014": 0.0,
			"-0.013": 0.0,
			"-0.012": 0.0,
			"-0.011": 0.0,
			"-0.01": 0.0,
			"-0.009": 0.0,
			"-0.008": 0.13114025462,
			"-0.007": 9.97413446604,
			"-0.006": 15.8416373637,
			"-0.005": 11.5873862819,
			"-0.004": 16.1577985832,
			"-0.003": 21.5324686953,
			"-0.002": 17.672740276,
			"-0.001": 11.919598209,
			"0.0": 11.2851089997,
			"0.001": 5.87697688057,
			"0.002": 3.78397361089,
			"0.003": 3.11511873672,
			"0.004": 2.58567252053,
			"0.005": 2.66604402023,
			"0.006": 3.14399922673,
			"0.007": 2.67809175814,
			"0.008": 2.65352408499,
			"0.009": 2.55637375138,
			"0.01": 3.88627480016,
			"0.011": 5.43806134924,
			"0.012": 10.11687075,
			"0.013": 3.81741669801,
			"0.014": 0.179969805061,
			"0.015": 0.0,
			"0.016": 0.0,
			"0.017": 0.0,
			"0.018": 0.0,
			"0.019": 0.0,
			"0.02": 0.0,
			"0.021": 0.0,
			"0.022": 0.0,
			"0.023": 0.0,
			"0.024": 0.0,
			"0.025": 0.0
		}
	}
}
