{
	 "smiles": "CN(C)C(=O)CC1=C(N)C=CC=C1", 
	 "Tm": 343.15, 
	 "num_atms": 27, 
	 "gaussian": { 
		 "optdone": 1, 
		 "sigma_profile": "yes", 
		 "theory": "DFT", 
		 "functional": "B3LYP", 
		 "basiset": "6-31G**", 
		 "properties": { 
			 "R2extent": 2789.4403, 
			 "electric_dipole_moment_norm": 4.06274566888, 
			 "electric_quadrupole_moment_norm": 6.16551234449, 
			 "total_energy": -574.243819881, 
			 "HOMO_LUMO_gap": 0.20822, 
			 "cosmo_polarized_energy": -14.06, 
			 "cosmo_cavitation_energy": 29.11, 
			 "cosmo_dispersion_energy": -20.77, 
			 "cosmo_repulsion_energy": 1.65, 
			 "cosmo_total_nonelectrostatic_energy": 10.0, 
			 "SMD_solvation_energy": 5.52 
		},
		"coords": [
			{
				"x": 3.2863628538,
				"y": -2.0426467672,
				"z": -0.3540037718,
				"element": "C" 
			},
			{
				"x": 2.3146418068,
				"y": -0.9964266785,
				"z": -0.6399779362,
				"element": "N" 
			},
			{
				"x": 2.8616397866,
				"y": 0.3485470681,
				"z": -0.728344798,
				"element": "C" 
			},
			{
				"x": 0.9807746658,
				"y": -1.3226338898,
				"z": -0.6425569422,
				"element": "C" 
			},
			{
				"x": 0.5861582509,
				"y": -2.4693995351,
				"z": -0.4390674713,
				"element": "O" 
			},
			{
				"x": -0.0350446892,
				"y": -0.2026277678,
				"z": -0.9010491585,
				"element": "C" 
			},
			{
				"x": -0.3041288708,
				"y": 0.636512758,
				"z": 0.3407037914,
				"element": "C" 
			},
			{
				"x": -0.2895121875,
				"y": 2.0476215877,
				"z": 0.3020418537,
				"element": "C" 
			},
			{
				"x": 0.0134266386,
				"y": 2.732024049,
				"z": -0.895479915,
				"element": "N" 
			},
			{
				"x": -0.5118069331,
				"y": 2.7693340333,
				"z": 1.4857840147,
				"element": "C" 
			},
			{
				"x": -0.7547227728,
				"y": 2.1140509635,
				"z": 2.6898599425,
				"element": "C" 
			},
			{
				"x": -0.7950165378,
				"y": 0.7196149593,
				"z": 2.7298168818,
				"element": "C" 
			},
			{
				"x": -0.571308348,
				"y": -0.001741864,
				"z": 1.5581607059,
				"element": "C" 
			},
			{
				"x": 3.7668008627,
				"y": -1.8745537362,
				"z": 0.6193152301,
				"element": "H" 
			},
			{
				"x": 2.7686603862,
				"y": -2.9999931468,
				"z": -0.3382166382,
				"element": "H" 
			},
			{
				"x": 4.0670914784,
				"y": -2.0532665726,
				"z": -1.1242246892,
				"element": "H" 
			},
			{
				"x": 3.6317906736,
				"y": 0.3882473392,
				"z": -1.5095767133,
				"element": "H" 
			},
			{
				"x": 2.0986672916,
				"y": 1.0895279129,
				"z": -0.9596662541,
				"element": "H" 
			},
			{
				"x": 3.3323684377,
				"y": 0.636545567,
				"z": 0.2215341858,
				"element": "H" 
			},
			{
				"x": -0.9448144319,
				"y": -0.722497775,
				"z": -1.2152558916,
				"element": "H" 
			},
			{
				"x": 0.2904224809,
				"y": 0.4219287778,
				"z": -1.7359781134,
				"element": "H" 
			},
			{
				"x": -0.477582251,
				"y": 2.3799092238,
				"z": -1.7081990254,
				"element": "H" 
			},
			{
				"x": -0.1293529505,
				"y": 3.7318889779,
				"z": -0.820546956,
				"element": "H" 
			},
			{
				"x": -0.4960371348,
				"y": 3.8567553386,
				"z": 1.4523438587,
				"element": "H" 
			},
			{
				"x": -0.9247587508,
				"y": 2.6955769636,
				"z": 3.5916278842,
				"element": "H" 
			},
			{
				"x": -0.994935075,
				"y": 0.1988890169,
				"z": 3.6611535909,
				"element": "H" 
			},
			{
				"x": -0.5884846804,
				"y": -1.0881868034,
				"z": 1.5748023344,
				"element": "H" 
			}
		],
		 "valence_orbital": [ 
			{
				"type": "occ",
				"energy": -0.30571,
				"method": "rhf"
			},
			{
				"type": "occ",
				"energy": -0.24674,
				"method": "rhf"
			},
			{
				"type": "occ",
				"energy": -0.23278,
				"method": "rhf"
			},
			{
				"type": "occ",
				"energy": -0.23006,
				"method": "rhf"
			},
			{
				"type": "occ",
				"energy": -0.2082,
				"method": "rhf"
			},
			{
				"type": "unocc",
				"energy": 2e-05,
				"method": "rhf"
			},
			{
				"type": "unocc",
				"energy": 0.01295,
				"method": "rhf"
			},
			{
				"type": "unocc",
				"energy": 0.03776,
				"method": "rhf"
			},
			{
				"type": "unocc",
				"energy": 0.07452,
				"method": "rhf"
			},
			{
				"type": "unocc",
				"energy": 0.098,
				"method": "rhf"
			}
		],
		"cosmo_sigma_profile": { 
			"-0.025": 0.0,
			"-0.024": 0.0,
			"-0.023": 0.0,
			"-0.022": 0.0,
			"-0.021": 0.0,
			"-0.02": 0.0,
			"-0.019": 0.0,
			"-0.018": 0.0,
			"-0.017": 0.0,
			"-0.016": 0.0,
			"-0.015": 0.0,
			"-0.014": 0.0,
			"-0.013": 0.204730422671,
			"-0.012": 2.17425894063,
			"-0.011": 2.86640488091,
			"-0.01": 3.40654847351,
			"-0.009": 2.84585536843,
			"-0.008": 3.12271042424,
			"-0.007": 3.29256021805,
			"-0.006": 4.19865744808,
			"-0.005": 12.7075609512,
			"-0.004": 23.090838507,
			"-0.003": 24.1634442198,
			"-0.002": 24.5010384472,
			"-0.001": 19.663184036,
			"0.0": 14.1233328236,
			"0.001": 8.71722083676,
			"0.002": 13.0820234089,
			"0.003": 10.4461458585,
			"0.004": 10.1727646321,
			"0.005": 10.9434413416,
			"0.006": 9.65567275462,
			"0.007": 7.46798320696,
			"0.008": 2.67629272163,
			"0.009": 2.65356556782,
			"0.01": 1.18995621834,
			"0.011": 1.52102819978,
			"0.012": 2.2162448346,
			"0.013": 1.91593399377,
			"0.014": 4.47215558973,
			"0.015": 1.91678254416,
			"0.016": 0.0818846013089,
			"0.017": 0.0,
			"0.018": 0.0,
			"0.019": 0.0,
			"0.02": 0.0,
			"0.021": 0.0,
			"0.022": 0.0,
			"0.023": 0.0,
			"0.024": 0.0,
			"0.025": 0.0
		}
	}
}
