{
	 "smiles": "CC(C)(C)OC(=O)NC1CCN(CC1)C1CCNC1", 
	 "Tm": 382.15, 
	 "num_atms": 46, 
	 "gaussian": { 
		 "optdone": 1, 
		 "sigma_profile": "yes", 
		 "theory": "DFT", 
		 "functional": "B3LYP", 
		 "basiset": "6-31G**", 
		 "properties": { 
			 "R2extent": 8998.0023, 
			 "electric_dipole_moment_norm": 2.46922588882, 
			 "electric_quadrupole_moment_norm": 20.9360287763, 
			 "total_energy": -864.480381402, 
			 "HOMO_LUMO_gap": 0.26347, 
			 "cosmo_polarized_energy": -14.19, 
			 "cosmo_cavitation_energy": 44.21, 
			 "cosmo_dispersion_energy": -30.71, 
			 "cosmo_repulsion_energy": 2.37, 
			 "cosmo_total_nonelectrostatic_energy": 15.87, 
			 "SMD_solvation_energy": 2.06 
		},
		"coords": [
			{
				"x": 2.7027318136,
				"y": 3.3538280843,
				"z": -3.0076374094,
				"element": "C" 
			},
			{
				"x": 2.2068516993,
				"y": 3.2911149116,
				"z": -1.5588665804,
				"element": "C" 
			},
			{
				"x": 1.4866847759,
				"y": 4.5761405524,
				"z": -1.1358738877,
				"element": "C" 
			},
			{
				"x": 3.3617320547,
				"y": 2.9770703826,
				"z": -0.6038881626,
				"element": "C" 
			},
			{
				"x": 1.3184827583,
				"y": 2.1330192948,
				"z": -1.3787412734,
				"element": "O" 
			},
			{
				"x": 0.1652134156,
				"y": 2.0273124537,
				"z": -2.0856850849,
				"element": "C" 
			},
			{
				"x": -0.2718389919,
				"y": 2.8489029521,
				"z": -2.8770244053,
				"element": "O" 
			},
			{
				"x": -0.4627606897,
				"y": 0.8396472656,
				"z": -1.8182617789,
				"element": "N" 
			},
			{
				"x": -0.1200734566,
				"y": -0.1074289161,
				"z": -0.7573851244,
				"element": "C" 
			},
			{
				"x": -0.6607500948,
				"y": -1.5203652691,
				"z": -1.0945919941,
				"element": "C" 
			},
			{
				"x": -1.9715702005,
				"y": -1.8055916228,
				"z": -0.3456762978,
				"element": "C" 
			},
			{
				"x": -1.8269830179,
				"y": -1.782744613,
				"z": 1.1257349698,
				"element": "N" 
			},
			{
				"x": -0.7747968097,
				"y": -0.853400541,
				"z": 1.5741863677,
				"element": "C" 
			},
			{
				"x": -0.6516932127,
				"y": 0.3398452463,
				"z": 0.6264849123,
				"element": "C" 
			},
			{
				"x": -1.6854076816,
				"y": -3.0987288741,
				"z": 1.7463374997,
				"element": "C" 
			},
			{
				"x": -2.8741756184,
				"y": -4.0582392254,
				"z": 1.4720070473,
				"element": "C" 
			},
			{
				"x": -3.1071139417,
				"y": -4.8030844896,
				"z": 2.8226992053,
				"element": "C" 
			},
			{
				"x": -2.0465517492,
				"y": -4.3806271432,
				"z": 3.7578109692,
				"element": "N" 
			},
			{
				"x": -1.6657811886,
				"y": -3.0435828195,
				"z": 3.2963424415,
				"element": "C" 
			},
			{
				"x": 3.4496970355,
				"y": 4.1482932436,
				"z": -3.1065183217,
				"element": "H" 
			},
			{
				"x": 3.1750608074,
				"y": 2.4069602841,
				"z": -3.2884320625,
				"element": "H" 
			},
			{
				"x": 1.8788267597,
				"y": 3.555351568,
				"z": -3.6923435129,
				"element": "H" 
			},
			{
				"x": 2.1870828649,
				"y": 5.4172857907,
				"z": -1.1653967427,
				"element": "H" 
			},
			{
				"x": 0.6489471326,
				"y": 4.788507405,
				"z": -1.8000568813,
				"element": "H" 
			},
			{
				"x": 1.1129081438,
				"y": 4.4819264157,
				"z": -0.1111537296,
				"element": "H" 
			},
			{
				"x": 3.0000104783,
				"y": 2.8891571669,
				"z": 0.424920248,
				"element": "H" 
			},
			{
				"x": 3.8476663841,
				"y": 2.0367432146,
				"z": -0.8805560476,
				"element": "H" 
			},
			{
				"x": 4.1079817837,
				"y": 3.7762907926,
				"z": -0.6407069307,
				"element": "H" 
			},
			{
				"x": -1.386891511,
				"y": 0.7910357572,
				"z": -2.2243517129,
				"element": "H" 
			},
			{
				"x": 0.9709562214,
				"y": -0.141679883,
				"z": -0.7199395616,
				"element": "H" 
			},
			{
				"x": -0.8011764457,
				"y": -1.6177096335,
				"z": -2.1768844182,
				"element": "H" 
			},
			{
				"x": 0.0852549287,
				"y": -2.2710322939,
				"z": -0.8105370793,
				"element": "H" 
			},
			{
				"x": -2.371866729,
				"y": -2.7756336552,
				"z": -0.6474163755,
				"element": "H" 
			},
			{
				"x": -2.7268368624,
				"y": -1.0633094779,
				"z": -0.6426325616,
				"element": "H" 
			},
			{
				"x": -1.0105571565,
				"y": -0.5073724059,
				"z": 2.5865929664,
				"element": "H" 
			},
			{
				"x": 0.2117495469,
				"y": -1.3564653256,
				"z": 1.639322241,
				"element": "H" 
			},
			{
				"x": -1.6367355803,
				"y": 0.8066290153,
				"z": 0.5071136724,
				"element": "H" 
			},
			{
				"x": 0.0112129699,
				"y": 1.1001545717,
				"z": 1.0497218704,
				"element": "H" 
			},
			{
				"x": -0.7433945369,
				"y": -3.5947042619,
				"z": 1.4267849076,
				"element": "H" 
			},
			{
				"x": -2.6611343132,
				"y": -4.7534925165,
				"z": 0.6544775544,
				"element": "H" 
			},
			{
				"x": -3.7564510298,
				"y": -3.4744085465,
				"z": 1.191683544,
				"element": "H" 
			},
			{
				"x": -4.0791462647,
				"y": -4.5187704835,
				"z": 3.2429854474,
				"element": "H" 
			},
			{
				"x": -3.1094539058,
				"y": -5.8919050454,
				"z": 2.7193353283,
				"element": "H" 
			},
			{
				"x": -1.2453034426,
				"y": -4.9977593822,
				"z": 3.640001886,
				"element": "H" 
			},
			{
				"x": -0.7014639567,
				"y": -2.7511766502,
				"z": 3.7205461346,
				"element": "H" 
			},
			{
				"x": -2.420143186,
				"y": -2.3177032935,
				"z": 3.6298687239,
				"element": "H" 
			}
		],
		 "valence_orbital": [ 
			{
				"type": "occ",
				"energy": -0.28424,
				"method": "rhf"
			},
			{
				"type": "occ",
				"energy": -0.25607,
				"method": "rhf"
			},
			{
				"type": "occ",
				"energy": -0.2433,
				"method": "rhf"
			},
			{
				"type": "occ",
				"energy": -0.22417,
				"method": "rhf"
			},
			{
				"type": "occ",
				"energy": -0.20581,
				"method": "rhf"
			},
			{
				"type": "unocc",
				"energy": 0.05766,
				"method": "rhf"
			},
			{
				"type": "unocc",
				"energy": 0.06297,
				"method": "rhf"
			},
			{
				"type": "unocc",
				"energy": 0.07514,
				"method": "rhf"
			},
			{
				"type": "unocc",
				"energy": 0.08562,
				"method": "rhf"
			},
			{
				"type": "unocc",
				"energy": 0.08983,
				"method": "rhf"
			}
		],
		"cosmo_sigma_profile": { 
			"-0.025": 0.0,
			"-0.024": 0.0,
			"-0.023": 0.0,
			"-0.022": 0.0,
			"-0.021": 0.0,
			"-0.02": 0.0,
			"-0.019": 0.0,
			"-0.018": 0.0,
			"-0.017": 0.0,
			"-0.016": 0.0,
			"-0.015": 0.0,
			"-0.014": 0.0,
			"-0.013": 0.394782176552,
			"-0.012": 0.624015436037,
			"-0.011": 1.03847739692,
			"-0.01": 1.56586947278,
			"-0.009": 2.76934540695,
			"-0.008": 2.82597224806,
			"-0.007": 2.44198390687,
			"-0.006": 3.97981768396,
			"-0.005": 4.02171294084,
			"-0.004": 19.5168934914,
			"-0.003": 42.888454287,
			"-0.002": 54.009648995,
			"-0.001": 56.0599289673,
			"0.0": 45.6519042698,
			"0.001": 31.1278797283,
			"0.002": 11.9679117464,
			"0.003": 9.44119805752,
			"0.004": 7.51793720145,
			"0.005": 7.66882877163,
			"0.006": 4.8051626519,
			"0.007": 3.06547265941,
			"0.008": 3.10441180282,
			"0.009": 3.92237110883,
			"0.01": 2.16126843705,
			"0.011": 1.98543327682,
			"0.012": 3.15819258197,
			"0.013": 3.58550034224,
			"0.014": 4.08803331971,
			"0.015": 1.86322956673,
			"0.016": 0.725771815314,
			"0.017": 0.743281128209,
			"0.018": 0.454844673983,
			"0.019": 0.736155034232,
			"0.02": 0.0,
			"0.021": 0.0,
			"0.022": 0.0,
			"0.023": 0.0,
			"0.024": 0.0,
			"0.025": 0.0
		}
	}
}
