{
	 "smiles": "CC1=CC2=C(OCCC2=O)C(Br)=C1", 
	 "Tm": 358.15, 
	 "num_atms": 22, 
	 "gaussian": { 
		 "optdone": 1, 
		 "sigma_profile": "yes", 
		 "theory": "DFT", 
		 "functional": "B3LYP", 
		 "basiset": "6-31G**", 
		 "properties": { 
			 "R2extent": 3997.8602, 
			 "electric_dipole_moment_norm": 0.563650299388, 
			 "electric_quadrupole_moment_norm": 14.899247087, 
			 "total_energy": -3108.34247566, 
			 "HOMO_LUMO_gap": 0.16667, 
			 "cosmo_polarized_energy": -9.48, 
			 "cosmo_cavitation_energy": 27.71, 
			 "cosmo_dispersion_energy": -20.94, 
			 "cosmo_repulsion_energy": 1.67, 
			 "cosmo_total_nonelectrostatic_energy": 8.44, 
			 "SMD_solvation_energy": 4.25 
		},
		"coords": [
			{
				"x": 1.1595307141,
				"y": 1.7747560259,
				"z": -2.6885200646,
				"element": "C" 
			},
			{
				"x": 0.7654981689,
				"y": 1.277207094,
				"z": -1.3177248543,
				"element": "C" 
			},
			{
				"x": -0.3831098312,
				"y": 0.5222786393,
				"z": -1.1117851798,
				"element": "C" 
			},
			{
				"x": -0.7438557846,
				"y": 0.0635315203,
				"z": 0.1653697785,
				"element": "C" 
			},
			{
				"x": 0.0566743943,
				"y": 0.3797401629,
				"z": 1.2815012246,
				"element": "C" 
			},
			{
				"x": -0.2431726924,
				"y": -0.0189214807,
				"z": 2.5420140046,
				"element": "O" 
			},
			{
				"x": -1.6175192694,
				"y": -0.3705296144,
				"z": 2.7700548457,
				"element": "C" 
			},
			{
				"x": -2.1196193651,
				"y": -1.3691454955,
				"z": 1.7354437473,
				"element": "C" 
			},
			{
				"x": -1.9271616069,
				"y": -0.8188472975,
				"z": 0.3284038122,
				"element": "C" 
			},
			{
				"x": -2.6655594295,
				"y": -1.1160089253,
				"z": -0.5970865365,
				"element": "O" 
			},
			{
				"x": 1.2253570987,
				"y": 1.1320457345,
				"z": 1.0736402721,
				"element": "C" 
			},
			{
				"x": 2.342024829,
				"y": 1.5695508694,
				"z": 2.5545549222,
				"element": "Br" 
			},
			{
				"x": 1.5688589133,
				"y": 1.5675181166,
				"z": -0.1987639425,
				"element": "C" 
			},
			{
				"x": 2.154497354,
				"y": 1.4153341656,
				"z": -2.974342076,
				"element": "H" 
			},
			{
				"x": 1.1894609692,
				"y": 2.8699221837,
				"z": -2.7228817701,
				"element": "H" 
			},
			{
				"x": 0.4504458024,
				"y": 1.4365348049,
				"z": -3.448284397,
				"element": "H" 
			},
			{
				"x": -1.0329769304,
				"y": 0.2497242376,
				"z": -1.9377771177,
				"element": "H" 
			},
			{
				"x": -2.2201335739,
				"y": 0.5483276222,
				"z": 2.7422519612,
				"element": "H" 
			},
			{
				"x": -1.6472352642,
				"y": -0.775220952,
				"z": 3.7832194853,
				"element": "H" 
			},
			{
				"x": -1.5491665405,
				"y": -2.3047119143,
				"z": 1.8142406228,
				"element": "H" 
			},
			{
				"x": -3.1751253353,
				"y": -1.6095343534,
				"z": 1.8890143721,
				"element": "H" 
			},
			{
				"x": 2.4760873794,
				"y": 2.1510488562,
				"z": -0.3209431102,
				"element": "H" 
			}
		],
		 "valence_orbital": [ 
			{
				"type": "occ",
				"energy": -0.30998,
				"method": "rhf"
			},
			{
				"type": "occ",
				"energy": -0.28602,
				"method": "rhf"
			},
			{
				"type": "occ",
				"energy": -0.25435,
				"method": "rhf"
			},
			{
				"type": "occ",
				"energy": -0.25264,
				"method": "rhf"
			},
			{
				"type": "occ",
				"energy": -0.23046,
				"method": "rhf"
			},
			{
				"type": "unocc",
				"energy": -0.06379,
				"method": "rhf"
			},
			{
				"type": "unocc",
				"energy": -0.00814,
				"method": "rhf"
			},
			{
				"type": "unocc",
				"energy": 0.00593,
				"method": "rhf"
			},
			{
				"type": "unocc",
				"energy": 0.02843,
				"method": "rhf"
			},
			{
				"type": "unocc",
				"energy": 0.09578,
				"method": "rhf"
			}
		],
		"cosmo_sigma_profile": { 
			"-0.025": 0.0,
			"-0.024": 0.0,
			"-0.023": 0.0,
			"-0.022": 0.0,
			"-0.021": 0.0,
			"-0.02": 0.0,
			"-0.019": 0.0,
			"-0.018": 0.0,
			"-0.017": 0.0,
			"-0.016": 0.0,
			"-0.015": 0.0,
			"-0.014": 0.0,
			"-0.013": 0.0,
			"-0.012": 0.0,
			"-0.011": 0.0,
			"-0.01": 0.0,
			"-0.009": 0.0,
			"-0.008": 0.151032711958,
			"-0.007": 8.4041789581,
			"-0.006": 16.2896844268,
			"-0.005": 17.9335142676,
			"-0.004": 19.4121512384,
			"-0.003": 16.7114760837,
			"-0.002": 14.6974560809,
			"-0.001": 15.932728926,
			"0.0": 18.6472468019,
			"0.001": 18.0304075396,
			"0.002": 18.047443733,
			"0.003": 14.2863984138,
			"0.004": 11.4878216432,
			"0.005": 8.20282179979,
			"0.006": 4.41779046001,
			"0.007": 1.91172382648,
			"0.008": 3.50593932478,
			"0.009": 3.94550892502,
			"0.01": 3.25192344615,
			"0.011": 3.18548129306,
			"0.012": 4.14511234513,
			"0.013": 1.17306529606,
			"0.014": 0.0524992945005,
			"0.015": 0.0,
			"0.016": 0.0,
			"0.017": 0.0,
			"0.018": 0.0,
			"0.019": 0.0,
			"0.02": 0.0,
			"0.021": 0.0,
			"0.022": 0.0,
			"0.023": 0.0,
			"0.024": 0.0,
			"0.025": 0.0
		}
	}
}
