{
	 "smiles": "O=C1CCCC1", 
	 "Tm": 221.65, 
	 "num_atms": 14, 
	 "gaussian": { 
		 "optdone": 1, 
		 "sigma_profile": "yes", 
		 "theory": "DFT", 
		 "functional": "B3LYP", 
		 "basiset": "6-31G**", 
		 "properties": { 
			 "R2extent": 759.4214, 
			 "electric_dipole_moment_norm": 2.89626758778, 
			 "electric_quadrupole_moment_norm": 9.46930504472, 
			 "total_energy": -270.579177192, 
			 "HOMO_LUMO_gap": 0.22136, 
			 "cosmo_polarized_energy": -6.51, 
			 "cosmo_cavitation_energy": 16.33, 
			 "cosmo_dispersion_energy": -12.55, 
			 "cosmo_repulsion_energy": 1.11, 
			 "cosmo_total_nonelectrostatic_energy": 4.88, 
			 "SMD_solvation_energy": 3.11 
		},
		"coords": [
			{
				"x": 1.9425408066,
				"y": 0.8333692922,
				"z": 2.4059843142,
				"element": "O" 
			},
			{
				"x": 1.0959474435,
				"y": 0.488336254,
				"z": 1.6115125229,
				"element": "C" 
			},
			{
				"x": 1.2624188832,
				"y": -0.5914907792,
				"z": 0.5339414097,
				"element": "C" 
			},
			{
				"x": -0.1589931766,
				"y": -0.8498983028,
				"z": 0.0092576101,
				"element": "C" 
			},
			{
				"x": -0.8786312633,
				"y": 0.508792712,
				"z": 0.1855976084,
				"element": "C" 
			},
			{
				"x": -0.3264993966,
				"y": 1.0554381998,
				"z": 1.5118174279,
				"element": "C" 
			},
			{
				"x": 1.7827579038,
				"y": -1.4657969389,
				"z": 0.9342215099,
				"element": "H" 
			},
			{
				"x": 1.9043617747,
				"y": -0.1688498786,
				"z": -0.2516057275,
				"element": "H" 
			},
			{
				"x": -0.6512084769,
				"y": -1.6113733053,
				"z": 0.6266468048,
				"element": "H" 
			},
			{
				"x": -0.180091058,
				"y": -1.2073041359,
				"z": -1.0239790467,
				"element": "H" 
			},
			{
				"x": -0.6052297733,
				"y": 1.1810231634,
				"z": -0.6369832831,
				"element": "H" 
			},
			{
				"x": -1.9679238322,
				"y": 0.4132065881,
				"z": 0.1775041737,
				"element": "H" 
			},
			{
				"x": -0.3201305007,
				"y": 2.1446984318,
				"z": 1.6059322428,
				"element": "H" 
			},
			{
				"x": -0.8923193341,
				"y": 0.6634486993,
				"z": 2.3685524328,
				"element": "H" 
			}
		],
		 "valence_orbital": [ 
			{
				"type": "occ",
				"energy": -0.35801,
				"method": "rhf"
			},
			{
				"type": "occ",
				"energy": -0.34893,
				"method": "rhf"
			},
			{
				"type": "occ",
				"energy": -0.33629,
				"method": "rhf"
			},
			{
				"type": "occ",
				"energy": -0.33462,
				"method": "rhf"
			},
			{
				"type": "occ",
				"energy": -0.23574,
				"method": "rhf"
			},
			{
				"type": "unocc",
				"energy": -0.01438,
				"method": "rhf"
			},
			{
				"type": "unocc",
				"energy": 0.08119,
				"method": "rhf"
			},
			{
				"type": "unocc",
				"energy": 0.11716,
				"method": "rhf"
			},
			{
				"type": "unocc",
				"energy": 0.13658,
				"method": "rhf"
			},
			{
				"type": "unocc",
				"energy": 0.14619,
				"method": "rhf"
			}
		],
		"cosmo_sigma_profile": { 
			"-0.025": 0.0,
			"-0.024": 0.0,
			"-0.023": 0.0,
			"-0.022": 0.0,
			"-0.021": 0.0,
			"-0.02": 0.0,
			"-0.019": 0.0,
			"-0.018": 0.0,
			"-0.017": 0.0,
			"-0.016": 0.0,
			"-0.015": 0.0,
			"-0.014": 0.0,
			"-0.013": 0.0,
			"-0.012": 0.0,
			"-0.011": 0.0,
			"-0.01": 0.0,
			"-0.009": 0.0,
			"-0.008": 0.0,
			"-0.007": 0.0,
			"-0.006": 2.35306577324,
			"-0.005": 10.8043907686,
			"-0.004": 13.0454979903,
			"-0.003": 21.4755487333,
			"-0.002": 18.281321699,
			"-0.001": 15.6725232063,
			"0.0": 13.9436528909,
			"0.001": 5.94951472555,
			"0.002": 1.66003194665,
			"0.003": 1.59967056796,
			"0.004": 1.10790175789,
			"0.005": 1.04307680994,
			"0.006": 1.39606764567,
			"0.007": 2.02512685568,
			"0.008": 1.37814680117,
			"0.009": 1.28957125257,
			"0.01": 2.5502372637,
			"0.011": 2.96443316412,
			"0.012": 5.02686188565,
			"0.013": 3.17348660007,
			"0.014": 0.636604240847,
			"0.015": 0.0,
			"0.016": 0.0,
			"0.017": 0.0,
			"0.018": 0.0,
			"0.019": 0.0,
			"0.02": 0.0,
			"0.021": 0.0,
			"0.022": 0.0,
			"0.023": 0.0,
			"0.024": 0.0,
			"0.025": 0.0
		}
	}
}
