{
	 "smiles": "OC(=O)CCC(=O)OOC(=O)CCC(O)=O", 
	 "Tm": 400.15, 
	 "num_atms": 26, 
	 "gaussian": { 
		 "optdone": 1, 
		 "sigma_profile": "yes", 
		 "theory": "DFT", 
		 "functional": "B3LYP", 
		 "basiset": "6-31G**", 
		 "properties": { 
			 "R2extent": 3579.7988, 
			 "electric_dipole_moment_norm": 5.23040098367, 
			 "electric_quadrupole_moment_norm": 11.9392902314, 
			 "total_energy": -912.62597626, 
			 "HOMO_LUMO_gap": 0.21874, 
			 "cosmo_polarized_energy": -21.68, 
			 "cosmo_cavitation_energy": 31.07, 
			 "cosmo_dispersion_energy": -21.15, 
			 "cosmo_repulsion_energy": 1.63, 
			 "cosmo_total_nonelectrostatic_energy": 11.56, 
			 "SMD_solvation_energy": 7.96 
		},
		"coords": [
			{
				"x": -0.5217626211,
				"y": 0.8409311897,
				"z": 1.7306214908,
				"element": "O" 
			},
			{
				"x": -1.7038920822,
				"y": 0.2081340802,
				"z": 1.613636596,
				"element": "C" 
			},
			{
				"x": -2.7501272066,
				"y": 0.7539384356,
				"z": 1.3446392716,
				"element": "O" 
			},
			{
				"x": -1.5387685296,
				"y": -1.2929500896,
				"z": 1.8039389021,
				"element": "C" 
			},
			{
				"x": -1.6267308926,
				"y": -2.0279113533,
				"z": 0.4389970791,
				"element": "C" 
			},
			{
				"x": -0.5416835215,
				"y": -1.5262659624,
				"z": -0.483882332,
				"element": "C" 
			},
			{
				"x": -0.5777435943,
				"y": -0.5040987073,
				"z": -1.128307925,
				"element": "O" 
			},
			{
				"x": 0.536642065,
				"y": -2.3676591819,
				"z": -0.4338684569,
				"element": "O" 
			},
			{
				"x": 1.6318022947,
				"y": -1.8112809794,
				"z": -1.1930752128,
				"element": "O" 
			},
			{
				"x": 2.3446304459,
				"y": -0.9005614209,
				"z": -0.4090434945,
				"element": "C" 
			},
			{
				"x": 2.1640587015,
				"y": -0.742482242,
				"z": 0.7635734922,
				"element": "O" 
			},
			{
				"x": 3.2653003469,
				"y": -0.1296887292,
				"z": -1.3279748112,
				"element": "C" 
			},
			{
				"x": 2.4782856974,
				"y": 0.9728098331,
				"z": -2.0845566009,
				"element": "C" 
			},
			{
				"x": 1.9732231047,
				"y": 2.0687663296,
				"z": -1.1401821833,
				"element": "C" 
			},
			{
				"x": 0.6814728942,
				"y": 1.9917550762,
				"z": -0.7543430623,
				"element": "O" 
			},
			{
				"x": 2.6883485646,
				"y": 2.9576896322,
				"z": -0.7462580768,
				"element": "O" 
			},
			{
				"x": -0.6338349348,
				"y": 1.76954459,
				"z": 1.4612537919,
				"element": "H" 
			},
			{
				"x": -0.5845223919,
				"y": -1.5101041609,
				"z": 2.2877679046,
				"element": "H" 
			},
			{
				"x": -2.3566504308,
				"y": -1.6519688319,
				"z": 2.4335203351,
				"element": "H" 
			},
			{
				"x": -1.5357463447,
				"y": -3.1057013057,
				"z": 0.5917288049,
				"element": "H" 
			},
			{
				"x": -2.5853968684,
				"y": -1.8053872367,
				"z": -0.0360177289,
				"element": "H" 
			},
			{
				"x": 3.7243958952,
				"y": -0.8068698169,
				"z": -2.0538710256,
				"element": "H" 
			},
			{
				"x": 4.045623538,
				"y": 0.3200905533,
				"z": -0.710588105,
				"element": "H" 
			},
			{
				"x": 3.1638244406,
				"y": 1.4567014811,
				"z": -2.7839075816,
				"element": "H" 
			},
			{
				"x": 1.6641444774,
				"y": 0.5178540581,
				"z": -2.6554808702,
				"element": "H" 
			},
			{
				"x": 0.2490069523,
				"y": 1.1792147588,
				"z": -1.0771202013,
				"element": "H" 
			}
		],
		 "valence_orbital": [ 
			{
				"type": "occ",
				"energy": -0.31976,
				"method": "rhf"
			},
			{
				"type": "occ",
				"energy": -0.3108,
				"method": "rhf"
			},
			{
				"type": "occ",
				"energy": -0.30679,
				"method": "rhf"
			},
			{
				"type": "occ",
				"energy": -0.2796,
				"method": "rhf"
			},
			{
				"type": "occ",
				"energy": -0.26949,
				"method": "rhf"
			},
			{
				"type": "unocc",
				"energy": -0.05075,
				"method": "rhf"
			},
			{
				"type": "unocc",
				"energy": -0.03821,
				"method": "rhf"
			},
			{
				"type": "unocc",
				"energy": -0.02399,
				"method": "rhf"
			},
			{
				"type": "unocc",
				"energy": -0.00029,
				"method": "rhf"
			},
			{
				"type": "unocc",
				"energy": 0.00532,
				"method": "rhf"
			}
		],
		"cosmo_sigma_profile": { 
			"-0.025": 0.0,
			"-0.024": 0.0,
			"-0.023": 0.0,
			"-0.022": 0.0,
			"-0.021": 0.0,
			"-0.02": 0.0,
			"-0.019": 0.0,
			"-0.018": 0.0,
			"-0.017": 0.167175478677,
			"-0.016": 0.92658096454,
			"-0.015": 0.152661072784,
			"-0.014": 0.305960614414,
			"-0.013": 0.314681829591,
			"-0.012": 1.03730971364,
			"-0.011": 1.25019665185,
			"-0.01": 1.50888075117,
			"-0.009": 1.74139743103,
			"-0.008": 10.6003655701,
			"-0.007": 21.3907104593,
			"-0.006": 24.1160464271,
			"-0.005": 22.2228645116,
			"-0.004": 16.5802851269,
			"-0.003": 8.36790509507,
			"-0.002": 9.51258385457,
			"-0.001": 8.66419330004,
			"0.0": 6.48241376502,
			"0.001": 10.0950539216,
			"0.002": 10.5037550623,
			"0.003": 10.3081219594,
			"0.004": 11.1396155929,
			"0.005": 10.4597968845,
			"0.006": 6.53739249451,
			"0.007": 8.0953417286,
			"0.008": 6.51362240545,
			"0.009": 8.6708898097,
			"0.01": 7.98185124216,
			"0.011": 8.44225659851,
			"0.012": 9.1261247741,
			"0.013": 2.2606677692,
			"0.014": 0.0630566856682,
			"0.015": 0.0,
			"0.016": 0.0,
			"0.017": 0.0,
			"0.018": 0.0,
			"0.019": 0.0,
			"0.02": 0.0,
			"0.021": 0.0,
			"0.022": 0.0,
			"0.023": 0.0,
			"0.024": 0.0,
			"0.025": 0.0
		}
	}
}
