{
	 "smiles": "O=CC1=CC2=C(OCC2)C=C1", 
	 "Tm": 465.15, 
	 "num_atms": 19, 
	 "gaussian": { 
		 "optdone": 1, 
		 "sigma_profile": "yes", 
		 "theory": "DFT", 
		 "functional": "B3LYP", 
		 "basiset": "6-31G**", 
		 "properties": { 
			 "R2extent": 2122.0366, 
			 "electric_dipole_moment_norm": 4.90934379424, 
			 "electric_quadrupole_moment_norm": 11.8078726619, 
			 "total_energy": -498.21328229, 
			 "HOMO_LUMO_gap": 0.17631, 
			 "cosmo_polarized_energy": -10.03, 
			 "cosmo_cavitation_energy": 22.91, 
			 "cosmo_dispersion_energy": -17.24, 
			 "cosmo_repulsion_energy": 1.38, 
			 "cosmo_total_nonelectrostatic_energy": 7.05, 
			 "SMD_solvation_energy": 5.03 
		},
		"coords": [
			{
				"x": -1.1012391603,
				"y": -3.0351898695,
				"z": -2.4336484835,
				"element": "O" 
			},
			{
				"x": -0.3696717414,
				"y": -2.9949951256,
				"z": -1.4597386581,
				"element": "C" 
			},
			{
				"x": -0.1830149961,
				"y": -1.8223958547,
				"z": -0.5882916064,
				"element": "C" 
			},
			{
				"x": 0.6912211273,
				"y": -1.9005282693,
				"z": 0.5129591295,
				"element": "C" 
			},
			{
				"x": 0.8634213543,
				"y": -0.7891632306,
				"z": 1.3202115522,
				"element": "C" 
			},
			{
				"x": 0.1629366788,
				"y": 0.3892758223,
				"z": 1.031117387,
				"element": "C" 
			},
			{
				"x": 0.4200781102,
				"y": 1.3976900206,
				"z": 1.9009862091,
				"element": "O" 
			},
			{
				"x": 1.5063312066,
				"y": 0.97299487,
				"z": 2.7708478238,
				"element": "C" 
			},
			{
				"x": 1.6686818409,
				"y": -0.5555077353,
				"z": 2.5793434098,
				"element": "C" 
			},
			{
				"x": -0.7159670048,
				"y": 0.4951173964,
				"z": -0.0492770386,
				"element": "C" 
			},
			{
				"x": -0.8776054807,
				"y": -0.6277862311,
				"z": -0.8536703365,
				"element": "C" 
			},
			{
				"x": 0.2267276101,
				"y": -3.8877158641,
				"z": -1.161476805,
				"element": "H" 
			},
			{
				"x": 1.2195986385,
				"y": -2.8298611259,
				"z": 0.7162169244,
				"element": "H" 
			},
			{
				"x": 1.2433113954,
				"y": 1.2650535959,
				"z": 3.7894918165,
				"element": "H" 
			},
			{
				"x": 2.4056260479,
				"y": 1.5199232805,
				"z": 2.4666818674,
				"element": "H" 
			},
			{
				"x": 2.7203746091,
				"y": -0.8415571387,
				"z": 2.4819553076,
				"element": "H" 
			},
			{
				"x": 1.2537189782,
				"y": -1.1155445513,
				"z": 3.4261281598,
				"element": "H" 
			},
			{
				"x": -1.2412565887,
				"y": 1.4236146081,
				"z": -0.2440680735,
				"element": "H" 
			},
			{
				"x": -1.5425726251,
				"y": -0.6075245975,
				"z": -1.7113685854,
				"element": "H" 
			}
		],
		 "valence_orbital": [ 
			{
				"type": "occ",
				"energy": -0.3414,
				"method": "rhf"
			},
			{
				"type": "occ",
				"energy": -0.31909,
				"method": "rhf"
			},
			{
				"type": "occ",
				"energy": -0.2628,
				"method": "rhf"
			},
			{
				"type": "occ",
				"energy": -0.24551,
				"method": "rhf"
			},
			{
				"type": "occ",
				"energy": -0.22589,
				"method": "rhf"
			},
			{
				"type": "unocc",
				"energy": -0.04958,
				"method": "rhf"
			},
			{
				"type": "unocc",
				"energy": -0.01618,
				"method": "rhf"
			},
			{
				"type": "unocc",
				"energy": 0.0526,
				"method": "rhf"
			},
			{
				"type": "unocc",
				"energy": 0.08284,
				"method": "rhf"
			},
			{
				"type": "unocc",
				"energy": 0.10578,
				"method": "rhf"
			}
		],
		"cosmo_sigma_profile": { 
			"-0.025": 0.0,
			"-0.024": 0.0,
			"-0.023": 0.0,
			"-0.022": 0.0,
			"-0.021": 0.0,
			"-0.02": 0.0,
			"-0.019": 0.0,
			"-0.018": 0.0,
			"-0.017": 0.0,
			"-0.016": 0.0,
			"-0.015": 0.0,
			"-0.014": 0.0,
			"-0.013": 0.0,
			"-0.012": 0.0,
			"-0.011": 0.0,
			"-0.01": 0.0,
			"-0.009": 0.0,
			"-0.008": 0.203019326197,
			"-0.007": 4.71474321744,
			"-0.006": 13.7948768346,
			"-0.005": 21.1152132019,
			"-0.004": 19.8890697066,
			"-0.003": 15.4443897275,
			"-0.002": 13.1745972263,
			"-0.001": 9.32673893677,
			"0.0": 8.78063500607,
			"0.001": 10.2277000095,
			"0.002": 14.278404373,
			"0.003": 14.1789502431,
			"0.004": 8.75929147646,
			"0.005": 3.46797320088,
			"0.006": 2.54648952067,
			"0.007": 2.18978538854,
			"0.008": 3.56813519731,
			"0.009": 2.81109167618,
			"0.01": 3.77585868124,
			"0.011": 3.69213938333,
			"0.012": 4.51545592944,
			"0.013": 2.11071147889,
			"0.014": 0.401362516122,
			"0.015": 0.0,
			"0.016": 0.0,
			"0.017": 0.0,
			"0.018": 0.0,
			"0.019": 0.0,
			"0.02": 0.0,
			"0.021": 0.0,
			"0.022": 0.0,
			"0.023": 0.0,
			"0.024": 0.0,
			"0.025": 0.0
		}
	}
}
