{
	 "smiles": "CCC(CO)N1CCNCC1", 
	 "Tm": 352.15, 
	 "num_atms": 29, 
	 "gaussian": { 
		 "optdone": 1, 
		 "sigma_profile": "yes", 
		 "theory": "DFT", 
		 "functional": "B3LYP", 
		 "basiset": "6-31G**", 
		 "properties": { 
			 "R2extent": 2743.6705, 
			 "electric_dipole_moment_norm": 2.92650187083, 
			 "electric_quadrupole_moment_norm": 5.66468549877, 
			 "total_energy": -500.389022252, 
			 "HOMO_LUMO_gap": 0.25154, 
			 "cosmo_polarized_energy": -9.38, 
			 "cosmo_cavitation_energy": 28.01, 
			 "cosmo_dispersion_energy": -20.73, 
			 "cosmo_repulsion_energy": 1.68, 
			 "cosmo_total_nonelectrostatic_energy": 8.97, 
			 "SMD_solvation_energy": 0.52 
		},
		"coords": [
			{
				"x": -2.2453566123,
				"y": 0.2742641031,
				"z": 3.4788873094,
				"element": "C" 
			},
			{
				"x": -1.8987183651,
				"y": -0.846472437,
				"z": 2.4905174601,
				"element": "C" 
			},
			{
				"x": -1.1195234702,
				"y": -0.3836898554,
				"z": 1.2380392922,
				"element": "C" 
			},
			{
				"x": 0.3309205574,
				"y": -0.01824595,
				"z": 1.6018735576,
				"element": "C" 
			},
			{
				"x": 0.9450257085,
				"y": 0.607655602,
				"z": 0.4777784387,
				"element": "O" 
			},
			{
				"x": -1.2679173027,
				"y": -1.3546556623,
				"z": 0.1506166253,
				"element": "N" 
			},
			{
				"x": -0.709144768,
				"y": -2.6874207719,
				"z": 0.3723641108,
				"element": "C" 
			},
			{
				"x": -0.8360845351,
				"y": -3.5062815285,
				"z": -0.9174689472,
				"element": "C" 
			},
			{
				"x": -0.0801482634,
				"y": -2.9402286606,
				"z": -2.0458541519,
				"element": "N" 
			},
			{
				"x": 0.0871900343,
				"y": -1.4764354189,
				"z": -1.955981469,
				"element": "C" 
			},
			{
				"x": -1.1068338252,
				"y": -0.8560129888,
				"z": -1.2280022,
				"element": "C" 
			},
			{
				"x": -2.8230526059,
				"y": 1.0670402547,
				"z": 2.9902470329,
				"element": "H" 
			},
			{
				"x": -1.3549585335,
				"y": 0.7368414293,
				"z": 3.9173028883,
				"element": "H" 
			},
			{
				"x": -2.8493769264,
				"y": -0.1126981666,
				"z": 4.3060928632,
				"element": "H" 
			},
			{
				"x": -2.8225280955,
				"y": -1.3124261508,
				"z": 2.130982127,
				"element": "H" 
			},
			{
				"x": -1.3388257907,
				"y": -1.632367324,
				"z": 3.0152051848,
				"element": "H" 
			},
			{
				"x": -1.592474297,
				"y": 0.5413793078,
				"z": 0.8828527154,
				"element": "H" 
			},
			{
				"x": 0.3274532205,
				"y": 0.6605989867,
				"z": 2.4678126325,
				"element": "H" 
			},
			{
				"x": 0.8797681138,
				"y": -0.9244674413,
				"z": 1.9018187529,
				"element": "H" 
			},
			{
				"x": 1.8646008306,
				"y": 0.7946896003,
				"z": 0.7017519284,
				"element": "H" 
			},
			{
				"x": 0.3577162196,
				"y": -2.6744718557,
				"z": 0.6701173979,
				"element": "H" 
			},
			{
				"x": -1.2543404808,
				"y": -3.1883707679,
				"z": 1.1834719287,
				"element": "H" 
			},
			{
				"x": -1.9006185303,
				"y": -3.5666388567,
				"z": -1.1818656799,
				"element": "H" 
			},
			{
				"x": -0.4970233821,
				"y": -4.5326033554,
				"z": -0.743001556,
				"element": "H" 
			},
			{
				"x": 0.8347549621,
				"y": -3.3769526988,
				"z": -2.0896430527,
				"element": "H" 
			},
			{
				"x": 0.1547832022,
				"y": -1.0561577538,
				"z": -2.9686876385,
				"element": "H" 
			},
			{
				"x": 0.998560592,
				"y": -1.1787904198,
				"z": -1.4169737244,
				"element": "H" 
			},
			{
				"x": -2.0180571773,
				"y": -1.068853583,
				"z": -1.8084102746,
				"element": "H" 
			},
			{
				"x": -0.9796904793,
				"y": 0.2277723635,
				"z": -1.2067435521,
				"element": "H" 
			}
		],
		 "valence_orbital": [ 
			{
				"type": "occ",
				"energy": -0.31853,
				"method": "rhf"
			},
			{
				"type": "occ",
				"energy": -0.31279,
				"method": "rhf"
			},
			{
				"type": "occ",
				"energy": -0.26901,
				"method": "rhf"
			},
			{
				"type": "occ",
				"energy": -0.20089,
				"method": "rhf"
			},
			{
				"type": "occ",
				"energy": -0.18527,
				"method": "rhf"
			},
			{
				"type": "unocc",
				"energy": 0.06627,
				"method": "rhf"
			},
			{
				"type": "unocc",
				"energy": 0.09027,
				"method": "rhf"
			},
			{
				"type": "unocc",
				"energy": 0.09646,
				"method": "rhf"
			},
			{
				"type": "unocc",
				"energy": 0.11257,
				"method": "rhf"
			},
			{
				"type": "unocc",
				"energy": 0.12143,
				"method": "rhf"
			}
		],
		"cosmo_sigma_profile": { 
			"-0.025": 0.0,
			"-0.024": 0.0,
			"-0.023": 0.0,
			"-0.022": 0.0,
			"-0.021": 0.0,
			"-0.02": 0.0,
			"-0.019": 0.0,
			"-0.018": 0.0,
			"-0.017": 0.0,
			"-0.016": 0.198116254976,
			"-0.015": 0.837821551877,
			"-0.014": 1.05721440129,
			"-0.013": 0.994465482538,
			"-0.012": 0.643323531806,
			"-0.011": 1.09297300587,
			"-0.01": 1.16845344725,
			"-0.009": 1.69722530895,
			"-0.008": 2.02120458441,
			"-0.007": 2.21561002412,
			"-0.006": 2.23718068335,
			"-0.005": 3.26527179374,
			"-0.004": 6.30916264219,
			"-0.003": 19.2615620447,
			"-0.002": 34.7711597943,
			"-0.001": 35.5858122589,
			"0.0": 30.8274715267,
			"0.001": 22.4703814439,
			"0.002": 10.2036239667,
			"0.003": 4.8436037759,
			"0.004": 4.16346445512,
			"0.005": 4.87682153008,
			"0.006": 3.37265264695,
			"0.007": 3.22819648829,
			"0.008": 2.89365836522,
			"0.009": 2.44667995907,
			"0.01": 2.01106938671,
			"0.011": 1.82680098711,
			"0.012": 1.95169657211,
			"0.013": 2.04249460277,
			"0.014": 1.70946756567,
			"0.015": 0.409895597302,
			"0.016": 0.208151560237,
			"0.017": 0.63670548523,
			"0.018": 0.458168703658,
			"0.019": 0.501073038698,
			"0.02": 0.0670891753076,
			"0.021": 0.0,
			"0.022": 0.0,
			"0.023": 0.0,
			"0.024": 0.0,
			"0.025": 0.0
		}
	}
}
