{
	 "smiles": "NC1=C(C(O)=O)C(F)=CC=C1", 
	 "Tm": 444.15, 
	 "num_atms": 17, 
	 "gaussian": { 
		 "optdone": 1, 
		 "sigma_profile": "yes", 
		 "theory": "DFT", 
		 "functional": "B3LYP", 
		 "basiset": "6-31G**", 
		 "properties": { 
			 "R2extent": 1841.1782, 
			 "electric_dipole_moment_norm": 4.18352336315, 
			 "electric_quadrupole_moment_norm": 12.5342087249, 
			 "total_energy": -575.417537045, 
			 "HOMO_LUMO_gap": 0.16914, 
			 "cosmo_polarized_energy": -11.32, 
			 "cosmo_cavitation_energy": 21.17, 
			 "cosmo_dispersion_energy": -16.41, 
			 "cosmo_repulsion_energy": 1.28, 
			 "cosmo_total_nonelectrostatic_energy": 6.04, 
			 "SMD_solvation_energy": 5.01 
		},
		"coords": [
			{
				"x": 2.8936735539,
				"y": 0.4309652112,
				"z": 0.426454618,
				"element": "N" 
			},
			{
				"x": 2.0232371612,
				"y": 0.259857503,
				"z": -0.5970166542,
				"element": "C" 
			},
			{
				"x": 0.6060451708,
				"y": 0.3870913876,
				"z": -0.4025669539,
				"element": "C" 
			},
			{
				"x": 0.0714326477,
				"y": 0.713682518,
				"z": 0.949431022,
				"element": "C" 
			},
			{
				"x": -1.2593866241,
				"y": 0.8294448351,
				"z": 1.1124653905,
				"element": "O" 
			},
			{
				"x": 0.7891881468,
				"y": 0.8829387134,
				"z": 1.9255743155,
				"element": "O" 
			},
			{
				"x": -0.1956178595,
				"y": 0.1865581536,
				"z": -1.5424104462,
				"element": "C" 
			},
			{
				"x": -1.5585760023,
				"y": 0.2954136579,
				"z": -1.4170073501,
				"element": "F" 
			},
			{
				"x": 0.2719216242,
				"y": -0.1159728032,
				"z": -2.8021564296,
				"element": "C" 
			},
			{
				"x": 1.6602516821,
				"y": -0.2332729518,
				"z": -2.9594568702,
				"element": "C" 
			},
			{
				"x": 2.5149712262,
				"y": -0.0513283909,
				"z": -1.8901162567,
				"element": "C" 
			},
			{
				"x": 3.8818969815,
				"y": 0.33678249,
				"z": 0.2666477066,
				"element": "H" 
			},
			{
				"x": 2.5148195789,
				"y": 0.6525137433,
				"z": 1.340976835,
				"element": "H" 
			},
			{
				"x": -1.7194265092,
				"y": 0.6740164203,
				"z": 0.2726299708,
				"element": "H" 
			},
			{
				"x": -0.4252093255,
				"y": -0.2524082729,
				"z": -3.6193761433,
				"element": "H" 
			},
			{
				"x": 2.0684478164,
				"y": -0.4708075252,
				"z": -3.9372506182,
				"element": "H" 
			},
			{
				"x": 3.5885307309,
				"y": -0.1451746894,
				"z": -2.0260221361,
				"element": "H" 
			}
		],
		 "valence_orbital": [ 
			{
				"type": "occ",
				"energy": -0.32543,
				"method": "rhf"
			},
			{
				"type": "occ",
				"energy": -0.30862,
				"method": "rhf"
			},
			{
				"type": "occ",
				"energy": -0.2752,
				"method": "rhf"
			},
			{
				"type": "occ",
				"energy": -0.26743,
				"method": "rhf"
			},
			{
				"type": "occ",
				"energy": -0.21603,
				"method": "rhf"
			},
			{
				"type": "unocc",
				"energy": -0.04689,
				"method": "rhf"
			},
			{
				"type": "unocc",
				"energy": 0.00284,
				"method": "rhf"
			},
			{
				"type": "unocc",
				"energy": 0.05225,
				"method": "rhf"
			},
			{
				"type": "unocc",
				"energy": 0.07281,
				"method": "rhf"
			},
			{
				"type": "unocc",
				"energy": 0.08248,
				"method": "rhf"
			}
		],
		"cosmo_sigma_profile": { 
			"-0.025": 0.0,
			"-0.024": 0.0,
			"-0.023": 0.0,
			"-0.022": 0.0,
			"-0.021": 0.0,
			"-0.02": 0.0,
			"-0.019": 0.0,
			"-0.018": 0.0,
			"-0.017": 0.0,
			"-0.016": 0.0,
			"-0.015": 0.0438715581461,
			"-0.014": 0.892652136461,
			"-0.013": 1.46198393354,
			"-0.012": 1.72639849581,
			"-0.011": 2.34842271107,
			"-0.01": 1.9694665105,
			"-0.009": 3.33205158276,
			"-0.008": 3.96896935865,
			"-0.007": 8.12812988637,
			"-0.006": 8.03695722362,
			"-0.005": 8.926837517,
			"-0.004": 8.10418226208,
			"-0.003": 7.64586807539,
			"-0.002": 8.25297646074,
			"-0.001": 9.36209917056,
			"0.0": 11.4610567604,
			"0.001": 13.6941627034,
			"0.002": 16.0944976211,
			"0.003": 15.1343826541,
			"0.004": 11.6183668044,
			"0.005": 4.41021875671,
			"0.006": 2.70355816746,
			"0.007": 2.47815850944,
			"0.008": 2.00822040849,
			"0.009": 2.92625295121,
			"0.01": 3.63245891292,
			"0.011": 4.00207884803,
			"0.012": 3.09791702632,
			"0.013": 2.14915506563,
			"0.014": 0.41988189367,
			"0.015": 0.0,
			"0.016": 0.0,
			"0.017": 0.0,
			"0.018": 0.0,
			"0.019": 0.0,
			"0.02": 0.0,
			"0.021": 0.0,
			"0.022": 0.0,
			"0.023": 0.0,
			"0.024": 0.0,
			"0.025": 0.0
		}
	}
}
