{
	 "smiles": "CC1=C(C(Cl)=O)C(=NO1)C1=C(F)C=CC=C1Cl", 
	 "Tm": 324.15, 
	 "num_atms": 23, 
	 "gaussian": { 
		 "optdone": 1, 
		 "sigma_profile": "yes", 
		 "theory": "DFT", 
		 "functional": "B3LYP", 
		 "basiset": "6-31G**", 
		 "properties": { 
			 "R2extent": 5337.4342, 
			 "electric_dipole_moment_norm": 0.625447112073, 
			 "electric_quadrupole_moment_norm": 26.8579159517, 
			 "total_energy": -1648.16056743, 
			 "HOMO_LUMO_gap": 0.18496, 
			 "cosmo_polarized_energy": -10.22, 
			 "cosmo_cavitation_energy": 32.41, 
			 "cosmo_dispersion_energy": -22.81, 
			 "cosmo_repulsion_energy": 1.76, 
			 "cosmo_total_nonelectrostatic_energy": 11.35, 
			 "SMD_solvation_energy": 6.14 
		},
		"coords": [
			{
				"x": 2.3277613634,
				"y": -0.88230618,
				"z": -3.5048957922,
				"element": "C" 
			},
			{
				"x": 1.783148638,
				"y": -0.3286905139,
				"z": -2.2341121603,
				"element": "C" 
			},
			{
				"x": 1.7910345832,
				"y": -0.6946044297,
				"z": -0.9016027197,
				"element": "C" 
			},
			{
				"x": 2.3703647707,
				"y": -1.8356546239,
				"z": -0.2097035532,
				"element": "C" 
			},
			{
				"x": 3.2592442351,
				"y": -3.0187741847,
				"z": -1.2970311303,
				"element": "Cl" 
			},
			{
				"x": 2.3137143332,
				"y": -2.0629417161,
				"z": 0.9611619011,
				"element": "O" 
			},
			{
				"x": 1.0388552744,
				"y": 0.3522501399,
				"z": -0.2507379389,
				"element": "C" 
			},
			{
				"x": 0.6325403251,
				"y": 1.2523783367,
				"z": -1.1093715181,
				"element": "N" 
			},
			{
				"x": 1.1008252193,
				"y": 0.8148174305,
				"z": -2.3586481617,
				"element": "O" 
			},
			{
				"x": 0.7142610721,
				"y": 0.5105788819,
				"z": 1.1847460553,
				"element": "C" 
			},
			{
				"x": 1.7476386787,
				"y": 0.7552884144,
				"z": 2.0962272639,
				"element": "C" 
			},
			{
				"x": 3.0042041771,
				"y": 0.8128936848,
				"z": 1.6174420775,
				"element": "F" 
			},
			{
				"x": 1.5354843057,
				"y": 0.9449982793,
				"z": 3.4524952439,
				"element": "C" 
			},
			{
				"x": 0.2269210816,
				"y": 0.884982294,
				"z": 3.9306802262,
				"element": "C" 
			},
			{
				"x": -0.8369550208,
				"y": 0.6365034085,
				"z": 3.064942318,
				"element": "C" 
			},
			{
				"x": -0.5887610608,
				"y": 0.4517935349,
				"z": 1.7040622409,
				"element": "C" 
			},
			{
				"x": -1.9472494233,
				"y": 0.1045697257,
				"z": 0.6540268246,
				"element": "Cl" 
			},
			{
				"x": 2.061178221,
				"y": -0.2145802232,
				"z": -4.3262042413,
				"element": "H" 
			},
			{
				"x": 3.4150632868,
				"y": -0.9793082215,
				"z": -3.452875245,
				"element": "H" 
			},
			{
				"x": 1.9228500479,
				"y": -1.8784405502,
				"z": -3.7006980343,
				"element": "H" 
			},
			{
				"x": 2.3818669251,
				"y": 1.1322010435,
				"z": 4.1029529246,
				"element": "H" 
			},
			{
				"x": 0.0333035831,
				"y": 1.0291059315,
				"z": 4.9888553487,
				"element": "H" 
			},
			{
				"x": -1.8541946167,
				"y": 0.5805395375,
				"z": 3.4336880701,
				"element": "H" 
			}
		],
		 "valence_orbital": [ 
			{
				"type": "occ",
				"energy": -0.3176,
				"method": "rhf"
			},
			{
				"type": "occ",
				"energy": -0.30307,
				"method": "rhf"
			},
			{
				"type": "occ",
				"energy": -0.28713,
				"method": "rhf"
			},
			{
				"type": "occ",
				"energy": -0.26658,
				"method": "rhf"
			},
			{
				"type": "occ",
				"energy": -0.25711,
				"method": "rhf"
			},
			{
				"type": "unocc",
				"energy": -0.07215,
				"method": "rhf"
			},
			{
				"type": "unocc",
				"energy": -0.04572,
				"method": "rhf"
			},
			{
				"type": "unocc",
				"energy": -0.02311,
				"method": "rhf"
			},
			{
				"type": "unocc",
				"energy": -0.01396,
				"method": "rhf"
			},
			{
				"type": "unocc",
				"energy": 0.00805,
				"method": "rhf"
			}
		],
		"cosmo_sigma_profile": { 
			"-0.025": 0.0,
			"-0.024": 0.0,
			"-0.023": 0.0,
			"-0.022": 0.0,
			"-0.021": 0.0,
			"-0.02": 0.0,
			"-0.019": 0.0,
			"-0.018": 0.0,
			"-0.017": 0.0,
			"-0.016": 0.0,
			"-0.015": 0.0,
			"-0.014": 0.0,
			"-0.013": 0.0,
			"-0.012": 0.0,
			"-0.011": 0.0,
			"-0.01": 0.0,
			"-0.009": 0.253140032811,
			"-0.008": 5.04168274904,
			"-0.007": 11.9382643742,
			"-0.006": 13.4617314634,
			"-0.005": 16.6405233109,
			"-0.004": 17.7148074789,
			"-0.003": 18.3903732448,
			"-0.002": 15.9143932424,
			"-0.001": 17.2203307044,
			"0.0": 23.098051011,
			"0.001": 23.2430542499,
			"0.002": 23.6315401805,
			"0.003": 23.6589306672,
			"0.004": 20.3822822265,
			"0.005": 11.2032163354,
			"0.006": 7.58997535031,
			"0.007": 4.14501191309,
			"0.008": 4.88398591897,
			"0.009": 3.88624424541,
			"0.01": 1.03350656256,
			"0.011": 1.35507423583,
			"0.012": 0.963498805122,
			"0.013": 0.0599815532318,
			"0.014": 0.0,
			"0.015": 0.0,
			"0.016": 0.0,
			"0.017": 0.0,
			"0.018": 0.0,
			"0.019": 0.0,
			"0.02": 0.0,
			"0.021": 0.0,
			"0.022": 0.0,
			"0.023": 0.0,
			"0.024": 0.0,
			"0.025": 0.0
		}
	}
}
