{
	 "smiles": "CC1=CC=C(C=C1)C(=O)C1=C(N)SC2=C1CCC2", 
	 "Tm": 428.15, 
	 "num_atms": 33, 
	 "gaussian": { 
		 "optdone": 1, 
		 "sigma_profile": "yes", 
		 "theory": "DFT", 
		 "functional": "B3LYP", 
		 "basiset": "6-31G**", 
		 "properties": { 
			 "R2extent": 6128.3545, 
			 "electric_dipole_moment_norm": 1.76172446767, 
			 "electric_quadrupole_moment_norm": 10.8801182912, 
			 "total_energy": -1108.80575032, 
			 "HOMO_LUMO_gap": 0.14398, 
			 "cosmo_polarized_energy": -10.66, 
			 "cosmo_cavitation_energy": 36.63, 
			 "cosmo_dispersion_energy": -27.05, 
			 "cosmo_repulsion_energy": 2.06, 
			 "cosmo_total_nonelectrostatic_energy": 11.63, 
			 "SMD_solvation_energy": 5.35 
		},
		"coords": [
			{
				"x": 1.9862155653,
				"y": -2.1227579747,
				"z": 3.6252050759,
				"element": "C" 
			},
			{
				"x": 1.5708300782,
				"y": -1.3635788689,
				"z": 2.3876715743,
				"element": "C" 
			},
			{
				"x": 1.9443027224,
				"y": -0.0213109726,
				"z": 2.210853527,
				"element": "C" 
			},
			{
				"x": 1.5586448765,
				"y": 0.6875426322,
				"z": 1.0787884796,
				"element": "C" 
			},
			{
				"x": 0.752855017,
				"y": 0.0855307462,
				"z": 0.1001597002,
				"element": "C" 
			},
			{
				"x": 0.3885540914,
				"y": -1.2561812246,
				"z": 0.2629065679,
				"element": "C" 
			},
			{
				"x": 0.8004047834,
				"y": -1.9703612271,
				"z": 1.3888969433,
				"element": "C" 
			},
			{
				"x": 0.4311109729,
				"y": 0.8552224638,
				"z": -1.1458800365,
				"element": "C" 
			},
			{
				"x": 1.342399429,
				"y": 1.5406871508,
				"z": -1.6496886063,
				"element": "O" 
			},
			{
				"x": -0.8948950299,
				"y": 0.7841007416,
				"z": -1.7506637919,
				"element": "C" 
			},
			{
				"x": -1.0897946539,
				"y": 1.2954017916,
				"z": -3.0483133088,
				"element": "C" 
			},
			{
				"x": -0.136066556,
				"y": 1.8213673302,
				"z": -3.8500531594,
				"element": "N" 
			},
			{
				"x": -2.7581513024,
				"y": 1.154376485,
				"z": -3.5861289565,
				"element": "S" 
			},
			{
				"x": -3.2156381626,
				"y": 0.4786139806,
				"z": -2.0328556596,
				"element": "C" 
			},
			{
				"x": -2.1589174682,
				"y": 0.3397382197,
				"z": -1.193664948,
				"element": "C" 
			},
			{
				"x": -2.6356119551,
				"y": -0.2115555022,
				"z": 0.1339407758,
				"element": "C" 
			},
			{
				"x": -4.1819877345,
				"y": -0.0477699398,
				"z": 0.0435527076,
				"element": "C" 
			},
			{
				"x": -4.5360207473,
				"y": 0.0411449326,
				"z": -1.4713763385,
				"element": "C" 
			},
			{
				"x": 1.8546261479,
				"y": -3.2008406663,
				"z": 3.4972368679,
				"element": "H" 
			},
			{
				"x": 3.0360304387,
				"y": -1.9365984181,
				"z": 3.8750020501,
				"element": "H" 
			},
			{
				"x": 1.3902921951,
				"y": -1.8188032213,
				"z": 4.4948303042,
				"element": "H" 
			},
			{
				"x": 2.5557267658,
				"y": 0.4662377082,
				"z": 2.9666323076,
				"element": "H" 
			},
			{
				"x": 1.8796131331,
				"y": 1.7138480112,
				"z": 0.9319247176,
				"element": "H" 
			},
			{
				"x": -0.1887970791,
				"y": -1.7534149628,
				"z": -0.5102430387,
				"element": "H" 
			},
			{
				"x": 0.5240757028,
				"y": -3.0171019141,
				"z": 1.4893791711,
				"element": "H" 
			},
			{
				"x": -0.3913437057,
				"y": 2.3295168494,
				"z": -4.6811161354,
				"element": "H" 
			},
			{
				"x": 0.7334354345,
				"y": 2.0296476448,
				"z": -3.3595305319,
				"element": "H" 
			},
			{
				"x": -2.3551069742,
				"y": -1.2651723969,
				"z": 0.253210955,
				"element": "H" 
			},
			{
				"x": -2.2140934597,
				"y": 0.3161720656,
				"z": 0.9954804907,
				"element": "H" 
			},
			{
				"x": -4.7172709677,
				"y": -0.8563333971,
				"z": 0.54983687,
				"element": "H" 
			},
			{
				"x": -4.4718602928,
				"y": 0.8900712489,
				"z": 0.5281787566,
				"element": "H" 
			},
			{
				"x": -4.8506181891,
				"y": -0.9318750963,
				"z": -1.8760203056,
				"element": "H" 
			},
			{
				"x": -5.3556430758,
				"y": 0.7436357805,
				"z": -1.6614530255,
				"element": "H" 
			}
		],
		 "valence_orbital": [ 
			{
				"type": "occ",
				"energy": -0.2515,
				"method": "rhf"
			},
			{
				"type": "occ",
				"energy": -0.24681,
				"method": "rhf"
			},
			{
				"type": "occ",
				"energy": -0.24352,
				"method": "rhf"
			},
			{
				"type": "occ",
				"energy": -0.23278,
				"method": "rhf"
			},
			{
				"type": "occ",
				"energy": -0.1864,
				"method": "rhf"
			},
			{
				"type": "unocc",
				"energy": -0.04242,
				"method": "rhf"
			},
			{
				"type": "unocc",
				"energy": -0.00012,
				"method": "rhf"
			},
			{
				"type": "unocc",
				"energy": 0.0037,
				"method": "rhf"
			},
			{
				"type": "unocc",
				"energy": 0.01499,
				"method": "rhf"
			},
			{
				"type": "unocc",
				"energy": 0.02939,
				"method": "rhf"
			}
		],
		"cosmo_sigma_profile": { 
			"-0.025": 0.0,
			"-0.024": 0.0,
			"-0.023": 0.0,
			"-0.022": 0.0,
			"-0.021": 0.0,
			"-0.02": 0.0,
			"-0.019": 0.0,
			"-0.018": 0.0,
			"-0.017": 0.0,
			"-0.016": 0.0,
			"-0.015": 0.84113069258,
			"-0.014": 1.397992246,
			"-0.013": 0.963455038828,
			"-0.012": 1.36127566357,
			"-0.011": 1.39932509082,
			"-0.01": 1.23311517263,
			"-0.009": 2.15167664511,
			"-0.008": 1.77456597438,
			"-0.007": 1.49321240932,
			"-0.006": 3.19918716332,
			"-0.005": 11.3934161875,
			"-0.004": 20.7354382491,
			"-0.003": 26.9520225623,
			"-0.002": 34.8189116427,
			"-0.001": 31.1591583657,
			"0.0": 31.3096660465,
			"0.001": 22.7312606683,
			"0.002": 18.9873133028,
			"0.003": 21.0059233621,
			"0.004": 20.8879531477,
			"0.005": 17.619846437,
			"0.006": 3.91597247816,
			"0.007": 2.39891836,
			"0.008": 2.7333483718,
			"0.009": 2.01383418087,
			"0.01": 1.18079788817,
			"0.011": 2.06088884161,
			"0.012": 1.8478355283,
			"0.013": 1.70526813292,
			"0.014": 1.08969495307,
			"0.015": 0.0473822977281,
			"0.016": 0.0,
			"0.017": 0.0,
			"0.018": 0.0,
			"0.019": 0.0,
			"0.02": 0.0,
			"0.021": 0.0,
			"0.022": 0.0,
			"0.023": 0.0,
			"0.024": 0.0,
			"0.025": 0.0
		}
	}
}
