{
	 "smiles": "BrC1=C2CCC(=O)C2=CC=C1", 
	 "Tm": 370.15, 
	 "num_atms": 18, 
	 "gaussian": { 
		 "optdone": 1, 
		 "sigma_profile": "yes", 
		 "theory": "DFT", 
		 "functional": "B3LYP", 
		 "basiset": "6-31G**", 
		 "properties": { 
			 "R2extent": 3740.6499, 
			 "electric_dipole_moment_norm": 1.7800154269, 
			 "electric_quadrupole_moment_norm": 11.7660272922, 
			 "total_energy": -2993.81401526, 
			 "HOMO_LUMO_gap": 0.18507, 
			 "cosmo_polarized_energy": -7.9, 
			 "cosmo_cavitation_energy": 24.02, 
			 "cosmo_dispersion_energy": -18.24, 
			 "cosmo_repulsion_energy": 1.46, 
			 "cosmo_total_nonelectrostatic_energy": 7.24, 
			 "SMD_solvation_energy": 3.17 
		},
		"coords": [
			{
				"x": -3.3508146254,
				"y": 1.3733690591,
				"z": -2.1950730089,
				"element": "Br" 
			},
			{
				"x": -2.1270163267,
				"y": 1.4537916193,
				"z": -0.7273274925,
				"element": "C" 
			},
			{
				"x": -1.2772554976,
				"y": 0.3814828225,
				"z": -0.4676608193,
				"element": "C" 
			},
			{
				"x": -1.1388650492,
				"y": -0.9376684327,
				"z": -1.1958975708,
				"element": "C" 
			},
			{
				"x": -0.030828769,
				"y": -1.6930709693,
				"z": -0.4240049666,
				"element": "C" 
			},
			{
				"x": 0.4146866358,
				"y": -0.7632523707,
				"z": 0.7161618313,
				"element": "C" 
			},
			{
				"x": 1.2709255341,
				"y": -1.002748724,
				"z": 1.5449646252,
				"element": "O" 
			},
			{
				"x": -0.3961842456,
				"y": 0.4782898436,
				"z": 0.6155289191,
				"element": "C" 
			},
			{
				"x": -0.3414723545,
				"y": 1.60510619,
				"z": 1.4376663844,
				"element": "C" 
			},
			{
				"x": -1.2004345345,
				"y": 2.6649877232,
				"z": 1.1589849103,
				"element": "C" 
			},
			{
				"x": -2.0922114605,
				"y": 2.5917698995,
				"z": 0.0792846544,
				"element": "C" 
			},
			{
				"x": -0.8789088307,
				"y": -0.7733188361,
				"z": -2.2474078415,
				"element": "H" 
			},
			{
				"x": -2.091076753,
				"y": -1.479468766,
				"z": -1.1984628322,
				"element": "H" 
			},
			{
				"x": 0.8360543442,
				"y": -1.9318546959,
				"z": -1.0482733629,
				"element": "H" 
			},
			{
				"x": -0.3784507941,
				"y": -2.6391537134,
				"z": 0.0029709577,
				"element": "H" 
			},
			{
				"x": 0.3588970611,
				"y": 1.6342492903,
				"z": 2.2664866992,
				"element": "H" 
			},
			{
				"x": -1.1892334582,
				"y": 3.5594916638,
				"z": 1.7743225592,
				"element": "H" 
			},
			{
				"x": -2.7598108762,
				"y": 3.4191983969,
				"z": -0.1347636461,
				"element": "H" 
			}
		],
		 "valence_orbital": [ 
			{
				"type": "occ",
				"energy": -0.32027,
				"method": "rhf"
			},
			{
				"type": "occ",
				"energy": -0.29615,
				"method": "rhf"
			},
			{
				"type": "occ",
				"energy": -0.26713,
				"method": "rhf"
			},
			{
				"type": "occ",
				"energy": -0.2526,
				"method": "rhf"
			},
			{
				"type": "occ",
				"energy": -0.24812,
				"method": "rhf"
			},
			{
				"type": "unocc",
				"energy": -0.06305,
				"method": "rhf"
			},
			{
				"type": "unocc",
				"energy": -0.02317,
				"method": "rhf"
			},
			{
				"type": "unocc",
				"energy": 0.00106,
				"method": "rhf"
			},
			{
				"type": "unocc",
				"energy": 0.03543,
				"method": "rhf"
			},
			{
				"type": "unocc",
				"energy": 0.09541,
				"method": "rhf"
			}
		],
		"cosmo_sigma_profile": { 
			"-0.025": 0.0,
			"-0.024": 0.0,
			"-0.023": 0.0,
			"-0.022": 0.0,
			"-0.021": 0.0,
			"-0.02": 0.0,
			"-0.019": 0.0,
			"-0.018": 0.0,
			"-0.017": 0.0,
			"-0.016": 0.0,
			"-0.015": 0.0,
			"-0.014": 0.0,
			"-0.013": 0.0,
			"-0.012": 0.0,
			"-0.011": 0.0,
			"-0.01": 0.0,
			"-0.009": 0.0,
			"-0.008": 0.686242690598,
			"-0.007": 5.12092430032,
			"-0.006": 10.7339791882,
			"-0.005": 18.7811158631,
			"-0.004": 17.9076763602,
			"-0.003": 13.6428113498,
			"-0.002": 14.8876483079,
			"-0.001": 14.1294497995,
			"0.0": 12.5798441548,
			"0.001": 19.3925817459,
			"0.002": 18.5114108671,
			"0.003": 15.3959804242,
			"0.004": 10.7944656653,
			"0.005": 4.28577293651,
			"0.006": 1.32494471282,
			"0.007": 1.56002969707,
			"0.008": 1.71820615682,
			"0.009": 1.49459799731,
			"0.01": 2.22769953235,
			"0.011": 3.28306488224,
			"0.012": 4.82192802837,
			"0.013": 1.9196672275,
			"0.014": 0.139279044111,
			"0.015": 0.0,
			"0.016": 0.0,
			"0.017": 0.0,
			"0.018": 0.0,
			"0.019": 0.0,
			"0.02": 0.0,
			"0.021": 0.0,
			"0.022": 0.0,
			"0.023": 0.0,
			"0.024": 0.0,
			"0.025": 0.0
		}
	}
}
