{
	 "smiles": "COC1=C(CCl)C=C(C=C1)[N+]([O-])=O", 
	 "Tm": 352.15, 
	 "num_atms": 21, 
	 "gaussian": { 
		 "optdone": 1, 
		 "sigma_profile": "yes", 
		 "theory": "DFT", 
		 "functional": "B3LYP", 
		 "basiset": "6-31G**", 
		 "properties": { 
			 "R2extent": 3885.0538, 
			 "electric_dipole_moment_norm": 5.92775011703, 
			 "electric_quadrupole_moment_norm": 16.9873961095, 
			 "total_energy": -1050.18306056, 
			 "HOMO_LUMO_gap": 0.16924, 
			 "cosmo_polarized_energy": -13.02, 
			 "cosmo_cavitation_energy": 27.72, 
			 "cosmo_dispersion_energy": -20.01, 
			 "cosmo_repulsion_energy": 1.6, 
			 "cosmo_total_nonelectrostatic_energy": 9.3, 
			 "SMD_solvation_energy": 7.51 
		},
		"coords": [
			{
				"x": -2.0381636024,
				"y": -0.5851298734,
				"z": -1.5463279329,
				"element": "C" 
			},
			{
				"x": -0.6161449455,
				"y": -0.5089855101,
				"z": -1.4996730479,
				"element": "O" 
			},
			{
				"x": -0.024781032,
				"y": 0.1995994222,
				"z": -0.5120691859,
				"element": "C" 
			},
			{
				"x": 1.3913284564,
				"y": 0.2449892225,
				"z": -0.5576980985,
				"element": "C" 
			},
			{
				"x": 2.1344900692,
				"y": -0.4535057214,
				"z": -1.6534865742,
				"element": "C" 
			},
			{
				"x": 2.2047233631,
				"y": 0.5447663545,
				"z": -3.1916212072,
				"element": "Cl" 
			},
			{
				"x": 2.0720740139,
				"y": 0.9484390186,
				"z": 0.4288640337,
				"element": "C" 
			},
			{
				"x": 1.3628772145,
				"y": 1.5928195569,
				"z": 1.4433165677,
				"element": "C" 
			},
			{
				"x": -0.0273776528,
				"y": 1.5544426805,
				"z": 1.4932773266,
				"element": "C" 
			},
			{
				"x": -0.7237110058,
				"y": 0.8543604828,
				"z": 0.513288107,
				"element": "C" 
			},
			{
				"x": 2.0975821347,
				"y": 2.3217250722,
				"z": 2.4776676137,
				"element": "N" 
			},
			{
				"x": 3.3278098537,
				"y": 2.3234528818,
				"z": 2.4125376491,
				"element": "O" 
			},
			{
				"x": 1.4421610465,
				"y": 2.8890587239,
				"z": 3.3532767712,
				"element": "O" 
			},
			{
				"x": -2.4851232036,
				"y": 0.4095814174,
				"z": -1.6544212545,
				"element": "H" 
			},
			{
				"x": -2.2730977297,
				"y": -1.1852022921,
				"z": -2.4254486714,
				"element": "H" 
			},
			{
				"x": -2.4414318024,
				"y": -1.0742514234,
				"z": -0.6518491279,
				"element": "H" 
			},
			{
				"x": 1.6538979914,
				"y": -1.3874600864,
				"z": -1.9392068925,
				"element": "H" 
			},
			{
				"x": 3.1713684272,
				"y": -0.6361019641,
				"z": -1.374130014,
				"element": "H" 
			},
			{
				"x": 3.154071679,
				"y": 1.0077136427,
				"z": 0.4235963023,
				"element": "H" 
			},
			{
				"x": -0.5447375285,
				"y": 2.0669955661,
				"z": 2.2946162713,
				"element": "H" 
			},
			{
				"x": -1.805115747,
				"y": 0.8219928286,
				"z": 0.5532913644,
				"element": "H" 
			}
		],
		 "valence_orbital": [ 
			{
				"type": "occ",
				"energy": -0.30081,
				"method": "rhf"
			},
			{
				"type": "occ",
				"energy": -0.29678,
				"method": "rhf"
			},
			{
				"type": "occ",
				"energy": -0.2879,
				"method": "rhf"
			},
			{
				"type": "occ",
				"energy": -0.28147,
				"method": "rhf"
			},
			{
				"type": "occ",
				"energy": -0.25448,
				"method": "rhf"
			},
			{
				"type": "unocc",
				"energy": -0.08524,
				"method": "rhf"
			},
			{
				"type": "unocc",
				"energy": -0.04597,
				"method": "rhf"
			},
			{
				"type": "unocc",
				"energy": -0.0003,
				"method": "rhf"
			},
			{
				"type": "unocc",
				"energy": 0.03703,
				"method": "rhf"
			},
			{
				"type": "unocc",
				"energy": 0.07267,
				"method": "rhf"
			}
		],
		"cosmo_sigma_profile": { 
			"-0.025": 0.0,
			"-0.024": 0.0,
			"-0.023": 0.0,
			"-0.022": 0.0,
			"-0.021": 0.0,
			"-0.02": 0.0,
			"-0.019": 0.0,
			"-0.018": 0.0,
			"-0.017": 0.0,
			"-0.016": 0.0,
			"-0.015": 0.0,
			"-0.014": 0.0,
			"-0.013": 0.0,
			"-0.012": 0.0,
			"-0.011": 0.0,
			"-0.01": 0.0166654261161,
			"-0.009": 2.06896739843,
			"-0.008": 7.00473582478,
			"-0.007": 11.9424061963,
			"-0.006": 17.2098855844,
			"-0.005": 15.5419515122,
			"-0.004": 17.0080279679,
			"-0.003": 12.1811059471,
			"-0.002": 12.1698518369,
			"-0.001": 12.6723225282,
			"0.0": 18.2869492177,
			"0.001": 15.4832044414,
			"0.002": 10.2592054433,
			"0.003": 7.97661028598,
			"0.004": 8.93670350862,
			"0.005": 9.31556182135,
			"0.006": 13.9216372186,
			"0.007": 11.6928651148,
			"0.008": 10.3705248529,
			"0.009": 4.88701957335,
			"0.01": 3.8682233001,
			"0.011": 0.734091022835,
			"0.012": 0.0,
			"0.013": 0.0,
			"0.014": 0.0,
			"0.015": 0.0,
			"0.016": 0.0,
			"0.017": 0.0,
			"0.018": 0.0,
			"0.019": 0.0,
			"0.02": 0.0,
			"0.021": 0.0,
			"0.022": 0.0,
			"0.023": 0.0,
			"0.024": 0.0,
			"0.025": 0.0
		}
	}
}
