{
	 "smiles": "OC(C1CCNCC1)C1=CC=CC=C1", 
	 "Tm": 445.15, 
	 "num_atms": 31, 
	 "gaussian": { 
		 "optdone": 1, 
		 "sigma_profile": "yes", 
		 "theory": "DFT", 
		 "functional": "B3LYP", 
		 "basiset": "6-31G**", 
		 "properties": { 
			 "R2extent": 3019.772, 
			 "electric_dipole_moment_norm": 1.28319866739, 
			 "electric_quadrupole_moment_norm": 10.3380315839, 
			 "total_energy": -597.480287516, 
			 "HOMO_LUMO_gap": 0.20388, 
			 "cosmo_polarized_energy": -10.66, 
			 "cosmo_cavitation_energy": 30.84, 
			 "cosmo_dispersion_energy": -22.29, 
			 "cosmo_repulsion_energy": 1.76, 
			 "cosmo_total_nonelectrostatic_energy": 10.3, 
			 "SMD_solvation_energy": 2.13 
		},
		"coords": [
			{
				"x": 2.7222678192,
				"y": -0.0094002565,
				"z": -0.2163365756,
				"element": "O" 
			},
			{
				"x": 1.4160221686,
				"y": -0.1752131089,
				"z": 0.3353242023,
				"element": "C" 
			},
			{
				"x": 0.5866751431,
				"y": 1.1287692916,
				"z": 0.1481382242,
				"element": "C" 
			},
			{
				"x": 0.4024008826,
				"y": 1.5548598161,
				"z": -1.3357782835,
				"element": "C" 
			},
			{
				"x": -1.0224992254,
				"y": 1.3107911059,
				"z": -1.8360811633,
				"element": "C" 
			},
			{
				"x": -1.9729902355,
				"y": 2.1353809414,
				"z": -1.070012077,
				"element": "N" 
			},
			{
				"x": -1.6647319747,
				"y": 2.2390885775,
				"z": 0.3687451594,
				"element": "C" 
			},
			{
				"x": -0.7725780852,
				"y": 1.0987108606,
				"z": 0.8802723029,
				"element": "C" 
			},
			{
				"x": 0.818909677,
				"y": -1.4258538123,
				"z": -0.286426403,
				"element": "C" 
			},
			{
				"x": -0.0822679182,
				"y": -2.2154966734,
				"z": 0.4412288975,
				"element": "C" 
			},
			{
				"x": -0.6587939597,
				"y": -3.3534538711,
				"z": -0.1251146557,
				"element": "C" 
			},
			{
				"x": -0.3286741856,
				"y": -3.7295905092,
				"z": -1.4279718576,
				"element": "C" 
			},
			{
				"x": 0.5888517884,
				"y": -2.9658193207,
				"z": -2.1519157422,
				"element": "C" 
			},
			{
				"x": 1.1609759136,
				"y": -1.8257171938,
				"z": -1.5856191876,
				"element": "C" 
			},
			{
				"x": 3.0676331075,
				"y": 0.8359820084,
				"z": 0.0986095678,
				"element": "H" 
			},
			{
				"x": 1.4880566754,
				"y": -0.3486193977,
				"z": 1.4227947837,
				"element": "H" 
			},
			{
				"x": 1.1898637955,
				"y": 1.9077811005,
				"z": 0.6421210665,
				"element": "H" 
			},
			{
				"x": 0.6171048719,
				"y": 2.6252224459,
				"z": -1.4365741695,
				"element": "H" 
			},
			{
				"x": 1.1225442762,
				"y": 1.0330736993,
				"z": -1.9716298184,
				"element": "H" 
			},
			{
				"x": -1.0971934264,
				"y": 1.5860611185,
				"z": -2.8956419577,
				"element": "H" 
			},
			{
				"x": -1.2390944754,
				"y": 0.2313179566,
				"z": -1.7748695724,
				"element": "H" 
			},
			{
				"x": -2.9081377576,
				"y": 1.7610766557,
				"z": -1.1898738161,
				"element": "H" 
			},
			{
				"x": -2.6053277444,
				"y": 2.2725575105,
				"z": 0.9291399215,
				"element": "H" 
			},
			{
				"x": -1.1590552044,
				"y": 3.1969488831,
				"z": 0.5657865304,
				"element": "H" 
			},
			{
				"x": -0.6247423044,
				"y": 1.1821930309,
				"z": 1.9642828615,
				"element": "H" 
			},
			{
				"x": -1.2806931603,
				"y": 0.1444449049,
				"z": 0.7014382518,
				"element": "H" 
			},
			{
				"x": -0.3242116099,
				"y": -1.9465891749,
				"z": 1.4664496408,
				"element": "H" 
			},
			{
				"x": -1.3545588293,
				"y": -3.9518471301,
				"z": 0.4565169818,
				"element": "H" 
			},
			{
				"x": -0.7708047531,
				"y": -4.6182217027,
				"z": -1.8695127993,
				"element": "H" 
			},
			{
				"x": 0.8674980837,
				"y": -3.262436107,
				"z": -3.1594316188,
				"element": "H" 
			},
			{
				"x": 1.8976506468,
				"y": -1.2525016492,
				"z": -2.1366586947,
				"element": "H" 
			}
		],
		 "valence_orbital": [ 
			{
				"type": "occ",
				"energy": -0.30231,
				"method": "rhf"
			},
			{
				"type": "occ",
				"energy": -0.27058,
				"method": "rhf"
			},
			{
				"type": "occ",
				"energy": -0.24549,
				"method": "rhf"
			},
			{
				"type": "occ",
				"energy": -0.23799,
				"method": "rhf"
			},
			{
				"type": "occ",
				"energy": -0.20394,
				"method": "rhf"
			},
			{
				"type": "unocc",
				"energy": -6e-05,
				"method": "rhf"
			},
			{
				"type": "unocc",
				"energy": 0.00221,
				"method": "rhf"
			},
			{
				"type": "unocc",
				"energy": 0.06691,
				"method": "rhf"
			},
			{
				"type": "unocc",
				"energy": 0.0858,
				"method": "rhf"
			},
			{
				"type": "unocc",
				"energy": 0.09977,
				"method": "rhf"
			}
		],
		"cosmo_sigma_profile": { 
			"-0.025": 0.0,
			"-0.024": 0.0,
			"-0.023": 0.0,
			"-0.022": 0.0,
			"-0.021": 0.0,
			"-0.02": 0.0,
			"-0.019": 0.0,
			"-0.018": 0.0,
			"-0.017": 0.0,
			"-0.016": 0.0,
			"-0.015": 0.472833637354,
			"-0.014": 1.12237951353,
			"-0.013": 0.779957178065,
			"-0.012": 1.03613540162,
			"-0.011": 0.876277817304,
			"-0.01": 1.83484909328,
			"-0.009": 2.08318810188,
			"-0.008": 2.31607300218,
			"-0.007": 1.67329839889,
			"-0.006": 4.2260471382,
			"-0.005": 11.566008463,
			"-0.004": 17.4723555246,
			"-0.003": 24.3495109278,
			"-0.002": 28.5660499179,
			"-0.001": 28.8220970073,
			"0.0": 23.0866156128,
			"0.001": 17.629281135,
			"0.002": 12.4368438101,
			"0.003": 10.0599097156,
			"0.004": 10.3613642172,
			"0.005": 10.3063487726,
			"0.006": 8.83238788896,
			"0.007": 4.53180239859,
			"0.008": 2.24941115382,
			"0.009": 1.31141847054,
			"0.01": 2.2926146529,
			"0.011": 2.03462705333,
			"0.012": 1.70631317337,
			"0.013": 1.99689708107,
			"0.014": 1.16509131499,
			"0.015": 0.504963541568,
			"0.016": 0.56559184835,
			"0.017": 0.733653481385,
			"0.018": 0.546099865179,
			"0.019": 0.332179025903,
			"0.02": 0.0466100127896,
			"0.021": 0.0,
			"0.022": 0.0,
			"0.023": 0.0,
			"0.024": 0.0,
			"0.025": 0.0
		}
	}
}
