{
	 "smiles": "CC(C)(C)NS(=O)(=O)C1=CC(N)=C(F)C=C1", 
	 "Tm": 373.15, 
	 "num_atms": 31, 
	 "gaussian": { 
		 "optdone": 1, 
		 "sigma_profile": "yes", 
		 "theory": "DFT", 
		 "functional": "B3LYP", 
		 "basiset": "6-31G**", 
		 "properties": { 
			 "R2extent": 4713.1565, 
			 "electric_dipole_moment_norm": 6.23693905454, 
			 "electric_quadrupole_moment_norm": 15.0809035956, 
			 "total_energy": -1148.01941424, 
			 "HOMO_LUMO_gap": 0.19252, 
			 "cosmo_polarized_energy": -19.18, 
			 "cosmo_cavitation_energy": 34.85, 
			 "cosmo_dispersion_energy": -24.4, 
			 "cosmo_repulsion_energy": 1.83, 
			 "cosmo_total_nonelectrostatic_energy": 12.28, 
			 "SMD_solvation_energy": 5.42 
		},
		"coords": [
			{
				"x": 2.1670536884,
				"y": -0.7276938661,
				"z": -4.432706369,
				"element": "C" 
			},
			{
				"x": 2.0982279302,
				"y": -0.2912617489,
				"z": -2.9570895664,
				"element": "C" 
			},
			{
				"x": 3.2983037888,
				"y": 0.6123935186,
				"z": -2.6384624328,
				"element": "C" 
			},
			{
				"x": 2.0998676429,
				"y": -1.5371258238,
				"z": -2.0495086734,
				"element": "C" 
			},
			{
				"x": 0.8211591116,
				"y": 0.4712069025,
				"z": -2.8551240686,
				"element": "N" 
			},
			{
				"x": 0.2705866244,
				"y": 1.4828554142,
				"z": -1.6384363323,
				"element": "S" 
			},
			{
				"x": -1.0659835226,
				"y": 1.8694909083,
				"z": -2.1014989968,
				"element": "O" 
			},
			{
				"x": 1.3134604138,
				"y": 2.4695256211,
				"z": -1.3546360986,
				"element": "O" 
			},
			{
				"x": 0.0400518629,
				"y": 0.5278855233,
				"z": -0.1277544846,
				"element": "C" 
			},
			{
				"x": -1.1139975095,
				"y": -0.2490073123,
				"z": 0.0000718427,
				"element": "C" 
			},
			{
				"x": -1.3190293298,
				"y": -1.0159879638,
				"z": 1.1544461061,
				"element": "C" 
			},
			{
				"x": -2.466858866,
				"y": -1.7574079927,
				"z": 1.3808136159,
				"element": "N" 
			},
			{
				"x": -0.3194470475,
				"y": -0.9596142318,
				"z": 2.1428625193,
				"element": "C" 
			},
			{
				"x": -0.51181567,
				"y": -1.7163385204,
				"z": 3.2517156739,
				"element": "F" 
			},
			{
				"x": 0.816652357,
				"y": -0.1799144969,
				"z": 2.0288375862,
				"element": "C" 
			},
			{
				"x": 1.0079272263,
				"y": 0.5857038714,
				"z": 0.8748020162,
				"element": "C" 
			},
			{
				"x": 2.1672064769,
				"y": 0.1431317898,
				"z": -5.0935599681,
				"element": "H" 
			},
			{
				"x": 3.0789399553,
				"y": -1.305308456,
				"z": -4.6117743599,
				"element": "H" 
			},
			{
				"x": 1.3143797446,
				"y": -1.3637662368,
				"z": -4.6994652148,
				"element": "H" 
			},
			{
				"x": 3.275944798,
				"y": 1.5172332633,
				"z": -3.2497941117,
				"element": "H" 
			},
			{
				"x": 3.314448974,
				"y": 0.9198585995,
				"z": -1.5917207811,
				"element": "H" 
			},
			{
				"x": 4.2218093718,
				"y": 0.06400329,
				"z": -2.8497543948,
				"element": "H" 
			},
			{
				"x": 2.0628960344,
				"y": -1.263419277,
				"z": -0.9924448388,
				"element": "H" 
			},
			{
				"x": 1.2394548957,
				"y": -2.1801660412,
				"z": -2.2658629568,
				"element": "H" 
			},
			{
				"x": 3.0084381264,
				"y": -2.1258934109,
				"z": -2.214501849,
				"element": "H" 
			},
			{
				"x": 0.0234274882,
				"y": 0.0024170187,
				"z": -3.2723860886,
				"element": "H" 
			},
			{
				"x": -1.8702626613,
				"y": -0.2275703815,
				"z": -0.7782650652,
				"element": "H" 
			},
			{
				"x": -2.3901030309,
				"y": -2.464135502,
				"z": 2.0974898483,
				"element": "H" 
			},
			{
				"x": -2.9801316099,
				"y": -2.0533100537,
				"z": 0.5641361891,
				"element": "H" 
			},
			{
				"x": 1.5348826899,
				"y": -0.1747114038,
				"z": 2.8416769574,
				"element": "H" 
			},
			{
				"x": 1.871610046,
				"y": 1.2294269987,
				"z": 0.7629942959,
				"element": "H" 
			}
		],
		 "valence_orbital": [ 
			{
				"type": "occ",
				"energy": -0.29605,
				"method": "rhf"
			},
			{
				"type": "occ",
				"energy": -0.29364,
				"method": "rhf"
			},
			{
				"type": "occ",
				"energy": -0.27843,
				"method": "rhf"
			},
			{
				"type": "occ",
				"energy": -0.25389,
				"method": "rhf"
			},
			{
				"type": "occ",
				"energy": -0.22254,
				"method": "rhf"
			},
			{
				"type": "unocc",
				"energy": -0.03002,
				"method": "rhf"
			},
			{
				"type": "unocc",
				"energy": -0.01126,
				"method": "rhf"
			},
			{
				"type": "unocc",
				"energy": 0.05346,
				"method": "rhf"
			},
			{
				"type": "unocc",
				"energy": 0.06676,
				"method": "rhf"
			},
			{
				"type": "unocc",
				"energy": 0.07446,
				"method": "rhf"
			}
		],
		"cosmo_sigma_profile": { 
			"-0.025": 0.0,
			"-0.024": 0.0,
			"-0.023": 0.0,
			"-0.022": 0.0,
			"-0.021": 0.0,
			"-0.02": 0.0,
			"-0.019": 0.0,
			"-0.018": 0.0,
			"-0.017": 0.0,
			"-0.016": 0.0,
			"-0.015": 0.0,
			"-0.014": 0.594554217529,
			"-0.013": 2.57907410041,
			"-0.012": 3.92257632832,
			"-0.011": 2.46529792208,
			"-0.01": 5.02178283467,
			"-0.009": 4.42643876658,
			"-0.008": 4.92083808419,
			"-0.007": 6.66130184953,
			"-0.006": 7.72228818581,
			"-0.005": 8.18091649823,
			"-0.004": 17.334699788,
			"-0.003": 20.4496065152,
			"-0.002": 19.3619077103,
			"-0.001": 22.7875967817,
			"0.0": 30.9630930318,
			"0.001": 27.3515696583,
			"0.002": 17.3427035313,
			"0.003": 13.6134427755,
			"0.004": 10.9556777317,
			"0.005": 4.28899134045,
			"0.006": 5.2380672304,
			"0.007": 5.33335198869,
			"0.008": 5.89125544932,
			"0.009": 4.34757143352,
			"0.01": 5.32521934357,
			"0.011": 8.40740004942,
			"0.012": 7.98703042326,
			"0.013": 0.612385779151,
			"0.014": 0.0,
			"0.015": 0.0,
			"0.016": 0.0,
			"0.017": 0.0,
			"0.018": 0.0,
			"0.019": 0.0,
			"0.02": 0.0,
			"0.021": 0.0,
			"0.022": 0.0,
			"0.023": 0.0,
			"0.024": 0.0,
			"0.025": 0.0
		}
	}
}
