{
	 "smiles": "COC1=C(O)C=CC(CCN(CC2=CC(O)=CC=C2)C(=O)C(F)(F)F)=C1", 
	 "Tm": 324.15, 
	 "num_atms": 44, 
	 "gaussian": { 
		 "optdone": 1, 
		 "sigma_profile": "yes", 
		 "theory": "DFT", 
		 "functional": "B3LYP", 
		 "basiset": "6-31G**", 
		 "properties": { 
			 "R2extent": 8978.4943, 
			 "electric_dipole_moment_norm": 6.08655400042, 
			 "electric_quadrupole_moment_norm": 9.18251944076, 
			 "total_energy": -1351.92257846, 
			 "HOMO_LUMO_gap": 0.18447, 
			 "cosmo_polarized_energy": -19.78, 
			 "cosmo_cavitation_energy": 47.04, 
			 "cosmo_dispersion_energy": -29.83, 
			 "cosmo_repulsion_energy": 2.16, 
			 "cosmo_total_nonelectrostatic_energy": 19.37, 
			 "SMD_solvation_energy": 9.94 
		},
		"coords": [
			{
				"x": -3.3213224619,
				"y": -2.1348283618,
				"z": 1.3472317149,
				"element": "C" 
			},
			{
				"x": -2.3040600049,
				"y": -1.7678482285,
				"z": 2.2674841115,
				"element": "O" 
			},
			{
				"x": -1.6727593828,
				"y": -0.556637506,
				"z": 2.094909883,
				"element": "C" 
			},
			{
				"x": -0.6808527574,
				"y": -0.2958575187,
				"z": 3.0630761038,
				"element": "C" 
			},
			{
				"x": -0.4250963267,
				"y": -1.2100073769,
				"z": 4.0426279282,
				"element": "O" 
			},
			{
				"x": 0.0272754689,
				"y": 0.897717657,
				"z": 3.008930515,
				"element": "C" 
			},
			{
				"x": -0.242274873,
				"y": 1.8257941407,
				"z": 1.9972618141,
				"element": "C" 
			},
			{
				"x": -1.2195793267,
				"y": 1.578130966,
				"z": 1.031641902,
				"element": "C" 
			},
			{
				"x": -1.5164268039,
				"y": 2.5906812037,
				"z": -0.0519786032,
				"element": "C" 
			},
			{
				"x": -0.9992351961,
				"y": 2.2413610266,
				"z": -1.4632509647,
				"element": "C" 
			},
			{
				"x": 0.4647558507,
				"y": 2.1030040792,
				"z": -1.6011203102,
				"element": "N" 
			},
			{
				"x": 0.9517032428,
				"y": 0.8815750671,
				"z": -2.2745869033,
				"element": "C" 
			},
			{
				"x": 0.7836210449,
				"y": -0.3888610191,
				"z": -1.4621029442,
				"element": "C" 
			},
			{
				"x": -0.1263012902,
				"y": -1.362570403,
				"z": -1.8772658055,
				"element": "C" 
			},
			{
				"x": -0.2732152898,
				"y": -2.5477680155,
				"z": -1.1478598491,
				"element": "C" 
			},
			{
				"x": -1.2119968897,
				"y": -3.4431143407,
				"z": -1.5916881716,
				"element": "O" 
			},
			{
				"x": 0.5029529744,
				"y": -2.7704788626,
				"z": -0.0093635398,
				"element": "C" 
			},
			{
				"x": 1.4134358163,
				"y": -1.7942490272,
				"z": 0.4015867107,
				"element": "C" 
			},
			{
				"x": 1.5565569983,
				"y": -0.6083248689,
				"z": -0.313000543,
				"element": "C" 
			},
			{
				"x": 1.1974096003,
				"y": 3.2344025541,
				"z": -1.416288215,
				"element": "C" 
			},
			{
				"x": 0.7256473521,
				"y": 4.31458289,
				"z": -1.0898277646,
				"element": "O" 
			},
			{
				"x": 2.7366508041,
				"y": 3.158824263,
				"z": -1.6233096039,
				"element": "C" 
			},
			{
				"x": 3.3038311425,
				"y": 2.1397432773,
				"z": -0.9311749474,
				"element": "F" 
			},
			{
				"x": 3.0455996101,
				"y": 2.9782978151,
				"z": -2.9309045188,
				"element": "F" 
			},
			{
				"x": 3.3077802156,
				"y": 4.2903791371,
				"z": -1.2203441194,
				"element": "F" 
			},
			{
				"x": -1.9398734466,
				"y": 0.3708556475,
				"z": 1.0954128501,
				"element": "C" 
			},
			{
				"x": -3.7124331835,
				"y": -3.093247017,
				"z": 1.6938703003,
				"element": "H" 
			},
			{
				"x": -2.92202084,
				"y": -2.2500063383,
				"z": 0.3322142113,
				"element": "H" 
			},
			{
				"x": -4.1354877775,
				"y": -1.3994846721,
				"z": 1.3370492856,
				"element": "H" 
			},
			{
				"x": -1.0411422834,
				"y": -1.9457013266,
				"z": 3.9047696252,
				"element": "H" 
			},
			{
				"x": 0.7820267307,
				"y": 1.0893414516,
				"z": 3.7648241242,
				"element": "H" 
			},
			{
				"x": 0.3129136302,
				"y": 2.7591840732,
				"z": 1.967840226,
				"element": "H" 
			},
			{
				"x": -1.1174888913,
				"y": 3.5669180184,
				"z": 0.2274199586,
				"element": "H" 
			},
			{
				"x": -2.6029208823,
				"y": 2.7124710316,
				"z": -0.1574808668,
				"element": "H" 
			},
			{
				"x": -1.3368452864,
				"y": 3.0218562526,
				"z": -2.1562312487,
				"element": "H" 
			},
			{
				"x": -1.4294653618,
				"y": 1.2907971192,
				"z": -1.7864481164,
				"element": "H" 
			},
			{
				"x": 1.9988950127,
				"y": 1.01365851,
				"z": -2.5351016943,
				"element": "H" 
			},
			{
				"x": 0.4059096308,
				"y": 0.7834429486,
				"z": -3.2213899091,
				"element": "H" 
			},
			{
				"x": -0.7307266608,
				"y": -1.2230106281,
				"z": -2.7690689119,
				"element": "H" 
			},
			{
				"x": -1.1700121703,
				"y": -4.2379016252,
				"z": -1.0440002032,
				"element": "H" 
			},
			{
				"x": 0.3902904698,
				"y": -3.6917955068,
				"z": 0.5582040011,
				"element": "H" 
			},
			{
				"x": 2.0089760854,
				"y": -1.9640122978,
				"z": 1.2933200547,
				"element": "H" 
			},
			{
				"x": 2.257083355,
				"y": 0.1488581393,
				"z": 0.0190236267,
				"element": "H" 
			},
			{
				"x": -2.7071776488,
				"y": 0.1670276722,
				"z": 0.355588807,
				"element": "H" 
			}
		],
		 "valence_orbital": [ 
			{
				"type": "occ",
				"energy": -0.26121,
				"method": "rhf"
			},
			{
				"type": "occ",
				"energy": -0.25532,
				"method": "rhf"
			},
			{
				"type": "occ",
				"energy": -0.23274,
				"method": "rhf"
			},
			{
				"type": "occ",
				"energy": -0.22756,
				"method": "rhf"
			},
			{
				"type": "occ",
				"energy": -0.20038,
				"method": "rhf"
			},
			{
				"type": "unocc",
				"energy": -0.01591,
				"method": "rhf"
			},
			{
				"type": "unocc",
				"energy": -0.00591,
				"method": "rhf"
			},
			{
				"type": "unocc",
				"energy": 0.00182,
				"method": "rhf"
			},
			{
				"type": "unocc",
				"energy": 0.00881,
				"method": "rhf"
			},
			{
				"type": "unocc",
				"energy": 0.02035,
				"method": "rhf"
			}
		],
		"cosmo_sigma_profile": { 
			"-0.025": 0.0,
			"-0.024": 0.0,
			"-0.023": 0.0,
			"-0.022": 0.0,
			"-0.021": 0.0,
			"-0.02": 0.0,
			"-0.019": 0.0,
			"-0.018": 0.30049844694,
			"-0.017": 0.89235082748,
			"-0.016": 1.3952059353,
			"-0.015": 1.14439538919,
			"-0.014": 0.765694335685,
			"-0.013": 1.46167386702,
			"-0.012": 1.33409342992,
			"-0.011": 1.41579841005,
			"-0.01": 1.64587560756,
			"-0.009": 1.74599760086,
			"-0.008": 2.4394236845,
			"-0.007": 4.91033844675,
			"-0.006": 16.1020116268,
			"-0.005": 25.1232528323,
			"-0.004": 33.5316520623,
			"-0.003": 33.0036002365,
			"-0.002": 26.8520043198,
			"-0.001": 23.9045260341,
			"0.0": 23.5094422942,
			"0.001": 28.0720527275,
			"0.002": 37.3314422571,
			"0.003": 23.5663024744,
			"0.004": 20.6135479129,
			"0.005": 16.4310313837,
			"0.006": 11.0559494386,
			"0.007": 5.17094467026,
			"0.008": 5.10030164106,
			"0.009": 5.1193086881,
			"0.01": 3.83809562496,
			"0.011": 7.26886013096,
			"0.012": 6.66520206239,
			"0.013": 1.03998888852,
			"0.014": 0.0,
			"0.015": 0.0,
			"0.016": 0.0,
			"0.017": 0.0,
			"0.018": 0.0,
			"0.019": 0.0,
			"0.02": 0.0,
			"0.021": 0.0,
			"0.022": 0.0,
			"0.023": 0.0,
			"0.024": 0.0,
			"0.025": 0.0
		}
	}
}
