{
	 "smiles": "CC1=C2N=C(NC(=O)OCC(F)(F)F)SC2=CC=C1", 
	 "Tm": 494.15, 
	 "num_atms": 28, 
	 "gaussian": { 
		 "optdone": 1, 
		 "sigma_profile": "yes", 
		 "theory": "DFT", 
		 "functional": "B3LYP", 
		 "basiset": "6-31G**", 
		 "properties": { 
			 "R2extent": 7732.8951, 
			 "electric_dipole_moment_norm": 1.88174251958, 
			 "electric_quadrupole_moment_norm": 10.0979253691, 
			 "total_energy": -1382.29322061, 
			 "HOMO_LUMO_gap": 0.18813, 
			 "cosmo_polarized_energy": -11.03, 
			 "cosmo_cavitation_energy": 36.12, 
			 "cosmo_dispersion_energy": -25.84, 
			 "cosmo_repulsion_energy": 1.9, 
			 "cosmo_total_nonelectrostatic_energy": 12.18, 
			 "SMD_solvation_energy": 6.89 
		},
		"coords": [
			{
				"x": 2.6147869084,
				"y": 2.3224506537,
				"z": 2.4893299287,
				"element": "C" 
			},
			{
				"x": 1.6913423782,
				"y": 1.1334520765,
				"z": 2.3868905146,
				"element": "C" 
			},
			{
				"x": 1.1417242782,
				"y": 0.7424407457,
				"z": 1.1500610691,
				"element": "C" 
			},
			{
				"x": 1.3818367885,
				"y": 1.380467609,
				"z": -0.0593132514,
				"element": "N" 
			},
			{
				"x": 0.7444451903,
				"y": 0.7978003598,
				"z": -1.023673542,
				"element": "C" 
			},
			{
				"x": 0.8462396212,
				"y": 1.3111638468,
				"z": -2.3125668341,
				"element": "N" 
			},
			{
				"x": 0.3135108096,
				"y": 0.8999608893,
				"z": -3.5103283972,
				"element": "C" 
			},
			{
				"x": 0.4538270596,
				"y": 1.5050274995,
				"z": -4.5500865511,
				"element": "O" 
			},
			{
				"x": -0.3578632173,
				"y": -0.2756861348,
				"z": -3.3659085469,
				"element": "O" 
			},
			{
				"x": -1.0880355351,
				"y": -0.7359822219,
				"z": -4.4999745025,
				"element": "C" 
			},
			{
				"x": -2.5728848158,
				"y": -0.5430801083,
				"z": -4.242795262,
				"element": "C" 
			},
			{
				"x": -3.2711653838,
				"y": -0.9887912332,
				"z": -5.3069711399,
				"element": "F" 
			},
			{
				"x": -2.9817012622,
				"y": -1.2266910909,
				"z": -3.1578467007,
				"element": "F" 
			},
			{
				"x": -2.8720297194,
				"y": 0.7539549929,
				"z": -4.0501324759,
				"element": "F" 
			},
			{
				"x": -0.2419534789,
				"y": -0.6123488036,
				"z": -0.5913349976,
				"element": "S" 
			},
			{
				"x": 0.2766647448,
				"y": -0.3748384526,
				"z": 1.0741376584,
				"element": "C" 
			},
			{
				"x": -0.0612957935,
				"y": -1.12398187,
				"z": 2.1997056877,
				"element": "C" 
			},
			{
				"x": 0.4854466243,
				"y": -0.7319934525,
				"z": 3.4204989986,
				"element": "C" 
			},
			{
				"x": 1.3427546608,
				"y": 0.373732116,
				"z": 3.5061431826,
				"element": "C" 
			},
			{
				"x": 2.2036119064,
				"y": 3.0823982032,
				"z": 3.163496973,
				"element": "H" 
			},
			{
				"x": 2.7699320703,
				"y": 2.7800078004,
				"z": 1.5113640224,
				"element": "H" 
			},
			{
				"x": 3.5911330654,
				"y": 2.0283809614,
				"z": 2.8909308018,
				"element": "H" 
			},
			{
				"x": 1.3977933641,
				"y": 2.1580490447,
				"z": -2.3712337935,
				"element": "H" 
			},
			{
				"x": -0.7958323862,
				"y": -0.1804883663,
				"z": -5.3922382047,
				"element": "H" 
			},
			{
				"x": -0.8818825377,
				"y": -1.8006706631,
				"z": -4.621857411,
				"element": "H" 
			},
			{
				"x": -0.7253437939,
				"y": -1.9796171972,
				"z": 2.132767105,
				"element": "H" 
			},
			{
				"x": 0.242913257,
				"y": -1.2921082004,
				"z": 4.3186795066,
				"element": "H" 
			},
			{
				"x": 1.7513251966,
				"y": 0.6514909957,
				"z": 4.4745561623,
				"element": "H" 
			}
		],
		 "valence_orbital": [ 
			{
				"type": "occ",
				"energy": -0.30591,
				"method": "rhf"
			},
			{
				"type": "occ",
				"energy": -0.29996,
				"method": "rhf"
			},
			{
				"type": "occ",
				"energy": -0.28776,
				"method": "rhf"
			},
			{
				"type": "occ",
				"energy": -0.23295,
				"method": "rhf"
			},
			{
				"type": "occ",
				"energy": -0.22411,
				"method": "rhf"
			},
			{
				"type": "unocc",
				"energy": -0.03598,
				"method": "rhf"
			},
			{
				"type": "unocc",
				"energy": -0.00685,
				"method": "rhf"
			},
			{
				"type": "unocc",
				"energy": 0.00933,
				"method": "rhf"
			},
			{
				"type": "unocc",
				"energy": 0.02204,
				"method": "rhf"
			},
			{
				"type": "unocc",
				"energy": 0.05259,
				"method": "rhf"
			}
		],
		"cosmo_sigma_profile": { 
			"-0.025": 0.0,
			"-0.024": 0.0,
			"-0.023": 0.0,
			"-0.022": 0.0,
			"-0.021": 0.0,
			"-0.02": 0.0,
			"-0.019": 0.0,
			"-0.018": 0.0,
			"-0.017": 0.311178943686,
			"-0.016": 0.698682783659,
			"-0.015": 0.778492005334,
			"-0.014": 0.723245041126,
			"-0.013": 0.626699776143,
			"-0.012": 1.15651187163,
			"-0.011": 0.469324542903,
			"-0.01": 2.15057803562,
			"-0.009": 3.59312011978,
			"-0.008": 5.27619037033,
			"-0.007": 7.55800896187,
			"-0.006": 9.22200019289,
			"-0.005": 11.3549418821,
			"-0.004": 16.7643259647,
			"-0.003": 19.4401338465,
			"-0.002": 19.9742430607,
			"-0.001": 20.8786866362,
			"0.0": 22.4848714522,
			"0.001": 24.7403292445,
			"0.002": 43.3897091134,
			"0.003": 32.2479877421,
			"0.004": 15.4365949188,
			"0.005": 10.0694924296,
			"0.006": 4.74726985769,
			"0.007": 2.69646322484,
			"0.008": 2.13295243802,
			"0.009": 3.2973711076,
			"0.01": 3.99955729547,
			"0.011": 4.47286928983,
			"0.012": 0.670944265743,
			"0.013": 0.0,
			"0.014": 0.0,
			"0.015": 0.0,
			"0.016": 0.0,
			"0.017": 0.0,
			"0.018": 0.0,
			"0.019": 0.0,
			"0.02": 0.0,
			"0.021": 0.0,
			"0.022": 0.0,
			"0.023": 0.0,
			"0.024": 0.0,
			"0.025": 0.0
		}
	}
}
