{
	 "smiles": "CC(Cl)C(=O)C1=CC=C(C=C1)C(C)(C)C", 
	 "Tm": 292.15, 
	 "num_atms": 32, 
	 "gaussian": { 
		 "optdone": 1, 
		 "sigma_profile": "yes", 
		 "theory": "DFT", 
		 "functional": "B3LYP", 
		 "basiset": "6-31G**", 
		 "properties": { 
			 "R2extent": 6402.3147, 
			 "electric_dipole_moment_norm": 3.50284109545, 
			 "electric_quadrupole_moment_norm": 13.1350844166, 
			 "total_energy": -1041.06786622, 
			 "HOMO_LUMO_gap": 0.18522, 
			 "cosmo_polarized_energy": -8.67, 
			 "cosmo_cavitation_energy": 35.22, 
			 "cosmo_dispersion_energy": -24.88, 
			 "cosmo_repulsion_energy": 1.94, 
			 "cosmo_total_nonelectrostatic_energy": 12.28, 
			 "SMD_solvation_energy": 6.31 
		},
		"coords": [
			{
				"x": -5.2263877953,
				"y": -3.1624107723,
				"z": -1.3518194867,
				"element": "C" 
			},
			{
				"x": -3.7236898791,
				"y": -2.9528694311,
				"z": -1.3343386644,
				"element": "C" 
			},
			{
				"x": -2.865812531,
				"y": -4.5598484588,
				"z": -1.0777465793,
				"element": "Cl" 
			},
			{
				"x": -3.2684423916,
				"y": -1.9980131085,
				"z": -0.2115392285,
				"element": "C" 
			},
			{
				"x": -4.0471266024,
				"y": -1.737735957,
				"z": 0.6920727297,
				"element": "O" 
			},
			{
				"x": -1.9092743437,
				"y": -1.3874445096,
				"z": -0.2686333237,
				"element": "C" 
			},
			{
				"x": -0.9767225854,
				"y": -1.6470694818,
				"z": -1.281316906,
				"element": "C" 
			},
			{
				"x": 0.2688400939,
				"y": -1.0189628457,
				"z": -1.2798334091,
				"element": "C" 
			},
			{
				"x": 0.6316255037,
				"y": -0.1120350901,
				"z": -0.2740526515,
				"element": "C" 
			},
			{
				"x": -0.313733756,
				"y": 0.1385005603,
				"z": 0.7398991897,
				"element": "C" 
			},
			{
				"x": -1.554022588,
				"y": -0.482170204,
				"z": 0.7461487367,
				"element": "C" 
			},
			{
				"x": 1.9957155313,
				"y": 0.5978083134,
				"z": -0.2427673314,
				"element": "C" 
			},
			{
				"x": 1.7762019456,
				"y": 2.1291944962,
				"z": -0.294147956,
				"element": "C" 
			},
			{
				"x": 2.8927652511,
				"y": 0.1996053541,
				"z": -1.4300907562,
				"element": "C" 
			},
			{
				"x": 2.7335884543,
				"y": 0.2283335224,
				"z": 1.0668209181,
				"element": "C" 
			},
			{
				"x": -5.5027154466,
				"y": -3.8823194527,
				"z": -2.1250772738,
				"element": "H" 
			},
			{
				"x": -5.577015291,
				"y": -3.5128995519,
				"z": -0.3803060363,
				"element": "H" 
			},
			{
				"x": -5.7207643879,
				"y": -2.2086626128,
				"z": -1.5644957413,
				"element": "H" 
			},
			{
				"x": -3.3630082505,
				"y": -2.6015980218,
				"z": -2.3030611144,
				"element": "H" 
			},
			{
				"x": -1.1998658402,
				"y": -2.3559893602,
				"z": -2.0712847523,
				"element": "H" 
			},
			{
				"x": 0.9614545997,
				"y": -1.2511873411,
				"z": -2.0800086777,
				"element": "H" 
			},
			{
				"x": -0.0751050243,
				"y": 0.8327160176,
				"z": 1.5399088031,
				"element": "H" 
			},
			{
				"x": -2.2752540149,
				"y": -0.2808483955,
				"z": 1.5310870152,
				"element": "H" 
			},
			{
				"x": 1.1799120961,
				"y": 2.4853416288,
				"z": 0.5509008968,
				"element": "H" 
			},
			{
				"x": 2.7394998995,
				"y": 2.6503449116,
				"z": -0.2650889978,
				"element": "H" 
			},
			{
				"x": 1.2600835965,
				"y": 2.4211766634,
				"z": -1.2146054124,
				"element": "H" 
			},
			{
				"x": 3.1125823813,
				"y": -0.8729962445,
				"z": -1.4343921953,
				"element": "H" 
			},
			{
				"x": 3.8476189799,
				"y": 0.7305466708,
				"z": -1.3628868213,
				"element": "H" 
			},
			{
				"x": 2.4381355879,
				"y": 0.4609976816,
				"z": -2.3913240511,
				"element": "H" 
			},
			{
				"x": 2.1670417807,
				"y": 0.527190748,
				"z": 1.95348506,
				"element": "H" 
			},
			{
				"x": 2.9066526005,
				"y": -0.8509601703,
				"z": 1.1285496735,
				"element": "H" 
			},
			{
				"x": 3.706022426,
				"y": 0.7314644416,
				"z": 1.1076443435,
				"element": "H" 
			}
		],
		 "valence_orbital": [ 
			{
				"type": "occ",
				"energy": -0.30914,
				"method": "rhf"
			},
			{
				"type": "occ",
				"energy": -0.30016,
				"method": "rhf"
			},
			{
				"type": "occ",
				"energy": -0.25974,
				"method": "rhf"
			},
			{
				"type": "occ",
				"energy": -0.25635,
				"method": "rhf"
			},
			{
				"type": "occ",
				"energy": -0.2523,
				"method": "rhf"
			},
			{
				"type": "unocc",
				"energy": -0.06708,
				"method": "rhf"
			},
			{
				"type": "unocc",
				"energy": -0.01063,
				"method": "rhf"
			},
			{
				"type": "unocc",
				"energy": 0.00517,
				"method": "rhf"
			},
			{
				"type": "unocc",
				"energy": 0.05602,
				"method": "rhf"
			},
			{
				"type": "unocc",
				"energy": 0.0751,
				"method": "rhf"
			}
		],
		"cosmo_sigma_profile": { 
			"-0.025": 0.0,
			"-0.024": 0.0,
			"-0.023": 0.0,
			"-0.022": 0.0,
			"-0.021": 0.0,
			"-0.02": 0.0,
			"-0.019": 0.0,
			"-0.018": 0.0,
			"-0.017": 0.0,
			"-0.016": 0.0,
			"-0.015": 0.0,
			"-0.014": 0.0,
			"-0.013": 0.0,
			"-0.012": 0.0,
			"-0.011": 0.0,
			"-0.01": 0.0,
			"-0.009": 1.42518444434,
			"-0.008": 2.99678324097,
			"-0.007": 3.88101949663,
			"-0.006": 7.84655930318,
			"-0.005": 12.8187452576,
			"-0.004": 16.9857041848,
			"-0.003": 28.2214014407,
			"-0.002": 28.8222499698,
			"-0.001": 29.5659751302,
			"0.0": 28.1653188394,
			"0.001": 33.1519575024,
			"0.002": 18.3756074255,
			"0.003": 16.100713001,
			"0.004": 19.9130468347,
			"0.005": 10.2613772353,
			"0.006": 7.1780819241,
			"0.007": 1.95754186109,
			"0.008": 1.75709628547,
			"0.009": 1.69480138058,
			"0.01": 2.63982798052,
			"0.011": 3.72983606451,
			"0.012": 0.992179484432,
			"0.013": 0.0,
			"0.014": 0.0,
			"0.015": 0.0,
			"0.016": 0.0,
			"0.017": 0.0,
			"0.018": 0.0,
			"0.019": 0.0,
			"0.02": 0.0,
			"0.021": 0.0,
			"0.022": 0.0,
			"0.023": 0.0,
			"0.024": 0.0,
			"0.025": 0.0
		}
	}
}
