{
	 "smiles": "CCCCCCNC(=O)C1=CC(O)=C(O)C=C1", 
	 "Tm": 413.15, 
	 "num_atms": 36, 
	 "gaussian": { 
		 "optdone": 1, 
		 "sigma_profile": "yes", 
		 "theory": "DFT", 
		 "functional": "B3LYP", 
		 "basiset": "6-31G**", 
		 "properties": { 
			 "R2extent": 7614.7351, 
			 "electric_dipole_moment_norm": 2.45608568254, 
			 "electric_quadrupole_moment_norm": 16.4318044563, 
			 "total_energy": -787.28092326, 
			 "HOMO_LUMO_gap": 0.19319, 
			 "cosmo_polarized_energy": -16.55, 
			 "cosmo_cavitation_energy": 38.65, 
			 "cosmo_dispersion_energy": -27.27, 
			 "cosmo_repulsion_energy": 2.17, 
			 "cosmo_total_nonelectrostatic_energy": 13.55, 
			 "SMD_solvation_energy": 6.51 
		},
		"coords": [
			{
				"x": 5.4509546251,
				"y": 2.2122479927,
				"z": 0.5480567572,
				"element": "C" 
			},
			{
				"x": 4.4709525003,
				"y": 1.7449634973,
				"z": 1.6309300242,
				"element": "C" 
			},
			{
				"x": 3.4716297798,
				"y": 0.6702339396,
				"z": 1.1685049615,
				"element": "C" 
			},
			{
				"x": 2.4642749408,
				"y": 1.1532070421,
				"z": 0.11375383,
				"element": "C" 
			},
			{
				"x": 1.4777875575,
				"y": 0.0765407595,
				"z": -0.3700124401,
				"element": "C" 
			},
			{
				"x": 0.5101591951,
				"y": -0.4770776787,
				"z": 0.6925539056,
				"element": "C" 
			},
			{
				"x": -0.3615460091,
				"y": 0.5363306057,
				"z": 1.2924557746,
				"element": "N" 
			},
			{
				"x": -1.5602375915,
				"y": 1.0048528613,
				"z": 0.7873662907,
				"element": "C" 
			},
			{
				"x": -1.8881140347,
				"y": 2.1790204416,
				"z": 0.9466039565,
				"element": "O" 
			},
			{
				"x": -2.4789146812,
				"y": 0.0402835193,
				"z": 0.1010576352,
				"element": "C" 
			},
			{
				"x": -3.3081144054,
				"y": 0.5596087867,
				"z": -0.9071045851,
				"element": "C" 
			},
			{
				"x": -4.228873803,
				"y": -0.2561719411,
				"z": -1.5432363417,
				"element": "C" 
			},
			{
				"x": -5.0727159613,
				"y": 0.1500427717,
				"z": -2.5514665957,
				"element": "O" 
			},
			{
				"x": -4.36383631,
				"y": -1.6082610393,
				"z": -1.1708740772,
				"element": "C" 
			},
			{
				"x": -5.2728754177,
				"y": -2.40349412,
				"z": -1.7931260884,
				"element": "O" 
			},
			{
				"x": -3.5654477615,
				"y": -2.1182673824,
				"z": -0.1498067773,
				"element": "C" 
			},
			{
				"x": -2.6269976845,
				"y": -1.2995446949,
				"z": 0.481091767,
				"element": "C" 
			},
			{
				"x": 6.1682736652,
				"y": 2.9333477335,
				"z": 0.9533326742,
				"element": "H" 
			},
			{
				"x": 4.9385409793,
				"y": 2.6978274245,
				"z": -0.2886540755,
				"element": "H" 
			},
			{
				"x": 6.021899289,
				"y": 1.3685779738,
				"z": 0.1427340545,
				"element": "H" 
			},
			{
				"x": 3.9160128243,
				"y": 2.6097571551,
				"z": 2.0199980248,
				"element": "H" 
			},
			{
				"x": 5.0428324813,
				"y": 1.3473192942,
				"z": 2.4788934853,
				"element": "H" 
			},
			{
				"x": 4.0263277309,
				"y": -0.1916077478,
				"z": 0.7694588815,
				"element": "H" 
			},
			{
				"x": 2.9328213865,
				"y": 0.2987817478,
				"z": 2.0501693429,
				"element": "H" 
			},
			{
				"x": 1.9083481247,
				"y": 2.0164789635,
				"z": 0.5066192083,
				"element": "H" 
			},
			{
				"x": 3.005192849,
				"y": 1.5297016662,
				"z": -0.762257343,
				"element": "H" 
			},
			{
				"x": 0.8814098714,
				"y": 0.4816341847,
				"z": -1.1972714347,
				"element": "H" 
			},
			{
				"x": 2.0424320672,
				"y": -0.7724496777,
				"z": -0.7800184217,
				"element": "H" 
			},
			{
				"x": -0.1155468395,
				"y": -1.2422098328,
				"z": 0.2330768096,
				"element": "H" 
			},
			{
				"x": 1.0661370216,
				"y": -0.9672566013,
				"z": 1.5001924837,
				"element": "H" 
			},
			{
				"x": 0.1257937933,
				"y": 1.2931684623,
				"z": 1.7594060261,
				"element": "H" 
			},
			{
				"x": -3.2219561501,
				"y": 1.6123454759,
				"z": -1.1626534558,
				"element": "H" 
			},
			{
				"x": -4.9663143452,
				"y": 1.0969820005,
				"z": -2.7048982565,
				"element": "H" 
			},
			{
				"x": -5.7372975323,
				"y": -1.8592814439,
				"z": -2.4473076195,
				"element": "H" 
			},
			{
				"x": -3.7004294319,
				"y": -3.1534990718,
				"z": 0.1453666997,
				"element": "H" 
			},
			{
				"x": -2.0371627233,
				"y": -1.6994330678,
				"z": 1.2988649186,
				"element": "H" 
			}
		],
		 "valence_orbital": [ 
			{
				"type": "occ",
				"energy": -0.31407,
				"method": "rhf"
			},
			{
				"type": "occ",
				"energy": -0.25585,
				"method": "rhf"
			},
			{
				"type": "occ",
				"energy": -0.24587,
				"method": "rhf"
			},
			{
				"type": "occ",
				"energy": -0.23346,
				"method": "rhf"
			},
			{
				"type": "occ",
				"energy": -0.21499,
				"method": "rhf"
			},
			{
				"type": "unocc",
				"energy": -0.0218,
				"method": "rhf"
			},
			{
				"type": "unocc",
				"energy": 0.00159,
				"method": "rhf"
			},
			{
				"type": "unocc",
				"energy": 0.05166,
				"method": "rhf"
			},
			{
				"type": "unocc",
				"energy": 0.0623,
				"method": "rhf"
			},
			{
				"type": "unocc",
				"energy": 0.07223,
				"method": "rhf"
			}
		],
		"cosmo_sigma_profile": { 
			"-0.025": 0.0,
			"-0.024": 0.0,
			"-0.023": 0.0,
			"-0.022": 0.0,
			"-0.021": 0.0,
			"-0.02": 0.0,
			"-0.019": 0.120377598554,
			"-0.018": 0.931672513369,
			"-0.017": 1.20619102749,
			"-0.016": 0.919568418402,
			"-0.015": 1.40271731374,
			"-0.014": 1.89996027644,
			"-0.013": 1.52651644688,
			"-0.012": 0.881693383562,
			"-0.011": 2.32694420271,
			"-0.01": 3.19916154777,
			"-0.009": 2.40109603215,
			"-0.008": 2.81924329994,
			"-0.007": 3.56529871757,
			"-0.006": 6.44603368218,
			"-0.005": 8.4658516939,
			"-0.004": 12.0461301891,
			"-0.003": 20.6913208448,
			"-0.002": 35.0341818982,
			"-0.001": 37.2659900124,
			"0.0": 37.3546910171,
			"0.001": 30.889967525,
			"0.002": 19.8278712741,
			"0.003": 16.1677204689,
			"0.004": 12.72937825,
			"0.005": 7.69870994693,
			"0.006": 5.32907378717,
			"0.007": 4.04533881423,
			"0.008": 3.6395243662,
			"0.009": 2.8149936762,
			"0.01": 3.34979089709,
			"0.011": 3.15292402833,
			"0.012": 2.09934360009,
			"0.013": 3.21374935053,
			"0.014": 5.29267616811,
			"0.015": 1.30384293182,
			"0.016": 0.0,
			"0.017": 0.0,
			"0.018": 0.0,
			"0.019": 0.0,
			"0.02": 0.0,
			"0.021": 0.0,
			"0.022": 0.0,
			"0.023": 0.0,
			"0.024": 0.0,
			"0.025": 0.0
		}
	}
}
