{
	 "smiles": "OC(=O)C1CNCC2=C1C=CC=C2", 
	 "Tm": 507.15, 
	 "num_atms": 24, 
	 "gaussian": { 
		 "optdone": 1, 
		 "sigma_profile": "yes", 
		 "theory": "DFT", 
		 "functional": "B3LYP", 
		 "basiset": "6-31G**", 
		 "properties": { 
			 "R2extent": 2505.6834, 
			 "electric_dipole_moment_norm": 1.30631421947, 
			 "electric_quadrupole_moment_norm": 7.52835004965, 
			 "total_energy": -592.905346688, 
			 "HOMO_LUMO_gap": 0.21076, 
			 "cosmo_polarized_energy": -11.32, 
			 "cosmo_cavitation_energy": 26.49, 
			 "cosmo_dispersion_energy": -19.55, 
			 "cosmo_repulsion_energy": 1.54, 
			 "cosmo_total_nonelectrostatic_energy": 8.49, 
			 "SMD_solvation_energy": 2.36 
		},
		"coords": [
			{
				"x": -1.1685344184,
				"y": -2.206081587,
				"z": 0.5430103241,
				"element": "O" 
			},
			{
				"x": -0.3035700824,
				"y": -2.6320077153,
				"z": -0.417136354,
				"element": "C" 
			},
			{
				"x": -0.5574041546,
				"y": -3.5753682974,
				"z": -1.1329896172,
				"element": "O" 
			},
			{
				"x": 0.9621353911,
				"y": -1.7907226059,
				"z": -0.4850185745,
				"element": "C" 
			},
			{
				"x": 1.5971308697,
				"y": -1.5358009761,
				"z": 0.9078890389,
				"element": "C" 
			},
			{
				"x": 0.9849676165,
				"y": -0.4495671736,
				"z": 1.662054129,
				"element": "N" 
			},
			{
				"x": 1.0755687699,
				"y": 0.8147962109,
				"z": 0.9373726654,
				"element": "C" 
			},
			{
				"x": 0.7046509303,
				"y": 0.749022619,
				"z": -0.5386320227,
				"element": "C" 
			},
			{
				"x": 0.6648446022,
				"y": -0.4793847275,
				"z": -1.2158366146,
				"element": "C" 
			},
			{
				"x": 0.3434106847,
				"y": -0.5090301328,
				"z": -2.5803797367,
				"element": "C" 
			},
			{
				"x": 0.0715550508,
				"y": 0.6661787278,
				"z": -3.275875681,
				"element": "C" 
			},
			{
				"x": 0.1179125964,
				"y": 1.8918042092,
				"z": -2.6059517956,
				"element": "C" 
			},
			{
				"x": 0.4339106344,
				"y": 1.9254767364,
				"z": -1.249929959,
				"element": "C" 
			},
			{
				"x": -1.9386917862,
				"y": -2.7973489346,
				"z": 0.4922668651,
				"element": "H" 
			},
			{
				"x": 1.651336167,
				"y": -2.384263554,
				"z": -1.0946518403,
				"element": "H" 
			},
			{
				"x": 2.6546141936,
				"y": -1.2868673136,
				"z": 0.7538974229,
				"element": "H" 
			},
			{
				"x": 1.5704974726,
				"y": -2.4511624837,
				"z": 1.5079700475,
				"element": "H" 
			},
			{
				"x": 0.0075068892,
				"y": -0.6797261779,
				"z": 1.8219121882,
				"element": "H" 
			},
			{
				"x": 2.1089746618,
				"y": 1.184050711,
				"z": 1.0248063805,
				"element": "H" 
			},
			{
				"x": 0.4472628934,
				"y": 1.5544888273,
				"z": 1.4459423352,
				"element": "H" 
			},
			{
				"x": 0.3054969211,
				"y": -1.4672508596,
				"z": -3.0926573972,
				"element": "H" 
			},
			{
				"x": -0.1745260338,
				"y": 0.627391107,
				"z": -4.3330238947,
				"element": "H" 
			},
			{
				"x": -0.0952047457,
				"y": 2.8147877367,
				"z": -3.1378526325,
				"element": "H" 
			},
			{
				"x": 0.4680548762,
				"y": 2.8791856538,
				"z": -0.7269852767,
				"element": "H" 
			}
		],
		 "valence_orbital": [ 
			{
				"type": "occ",
				"energy": -0.32323,
				"method": "rhf"
			},
			{
				"type": "occ",
				"energy": -0.27955,
				"method": "rhf"
			},
			{
				"type": "occ",
				"energy": -0.24666,
				"method": "rhf"
			},
			{
				"type": "occ",
				"energy": -0.24137,
				"method": "rhf"
			},
			{
				"type": "occ",
				"energy": -0.223,
				"method": "rhf"
			},
			{
				"type": "unocc",
				"energy": -0.01224,
				"method": "rhf"
			},
			{
				"type": "unocc",
				"energy": -0.0061,
				"method": "rhf"
			},
			{
				"type": "unocc",
				"energy": 0.01893,
				"method": "rhf"
			},
			{
				"type": "unocc",
				"energy": 0.06813,
				"method": "rhf"
			},
			{
				"type": "unocc",
				"energy": 0.1004,
				"method": "rhf"
			}
		],
		"cosmo_sigma_profile": { 
			"-0.025": 0.0,
			"-0.024": 0.0,
			"-0.023": 0.0,
			"-0.022": 0.0,
			"-0.021": 0.0,
			"-0.02": 0.0,
			"-0.019": 0.0761983731706,
			"-0.018": 0.688116067507,
			"-0.017": 0.870319795081,
			"-0.016": 1.14436609026,
			"-0.015": 0.574012653954,
			"-0.014": 0.697724832726,
			"-0.013": 0.724284062068,
			"-0.012": 0.556791187725,
			"-0.011": 0.845929744737,
			"-0.01": 0.701293490794,
			"-0.009": 0.404438290117,
			"-0.008": 0.746001048973,
			"-0.007": 1.59920125636,
			"-0.006": 6.14700517193,
			"-0.005": 18.9124653656,
			"-0.004": 25.1957082257,
			"-0.003": 20.5106459371,
			"-0.002": 16.0995103118,
			"-0.001": 14.0702576969,
			"0.0": 13.266886589,
			"0.001": 11.3047780317,
			"0.002": 9.62282906415,
			"0.003": 11.5379460555,
			"0.004": 10.2030856775,
			"0.005": 10.1926421335,
			"0.006": 10.1171279442,
			"0.007": 2.8035623181,
			"0.008": 1.59003803177,
			"0.009": 2.05637442884,
			"0.01": 2.6357909564,
			"0.011": 4.58351533966,
			"0.012": 4.56994011697,
			"0.013": 1.23827380657,
			"0.014": 0.439777943124,
			"0.015": 0.640349722309,
			"0.016": 0.633798757478,
			"0.017": 0.639278397317,
			"0.018": 0.204574297277,
			"0.019": 0.0,
			"0.02": 0.0,
			"0.021": 0.0,
			"0.022": 0.0,
			"0.023": 0.0,
			"0.024": 0.0,
			"0.025": 0.0
		}
	}
}
