{
	 "smiles": "CC1=C(CC2=CC(=C(O)C(=C2)C(C)(C)C)C(C)(C)C)C(C)=C(CC2=CC(=C(O)C(=C2)C(C)(C)C)C(C)(C)C)C(C)=C1CC1=CC(=C(O)C(=C1)C(C)(C)C)C(C)(C)C", 
	 "Tm": 517.15, 
	 "num_atms": 135, 
	 "gaussian": { 
		 "optdone": 1, 
		 "sigma_profile": "yes", 
		 "theory": "DFT", 
		 "functional": "B3LYP", 
		 "basiset": "6-31G**", 
		 "properties": { 
			 "R2extent": 50188.7082, 
			 "electric_dipole_moment_norm": 3.40227308281, 
			 "electric_quadrupole_moment_norm": 23.3297832433, 
			 "total_energy": -2330.51133216, 
			 "HOMO_LUMO_gap": 0.20595, 
			 "cosmo_polarized_energy": -16.91, 
			 "cosmo_cavitation_energy": 117.83, 
			 "cosmo_dispersion_energy": -66.37, 
			 "cosmo_repulsion_energy": 4.88, 
			 "cosmo_total_nonelectrostatic_energy": 56.34, 
			 "SMD_solvation_energy": 19.12 
		},
		"coords": [
			{
				"x": -2.9042620947,
				"y": 3.0630170993,
				"z": 0.7178345657,
				"element": "C" 
			},
			{
				"x": -2.3521425678,
				"y": 1.917467426,
				"z": 1.5478866088,
				"element": "C" 
			},
			{
				"x": -2.9868427944,
				"y": 0.6568963757,
				"z": 1.501455399,
				"element": "C" 
			},
			{
				"x": -4.2950488324,
				"y": 0.5040879425,
				"z": 0.7364695512,
				"element": "C" 
			},
			{
				"x": -4.2167142081,
				"y": 0.1985655594,
				"z": -0.7568334782,
				"element": "C" 
			},
			{
				"x": -5.2915796675,
				"y": 0.5461075224,
				"z": -1.581067858,
				"element": "C" 
			},
			{
				"x": -5.3334164467,
				"y": 0.2437199808,
				"z": -2.9443677861,
				"element": "C" 
			},
			{
				"x": -4.2210220616,
				"y": -0.4494879592,
				"z": -3.4801799007,
				"element": "C" 
			},
			{
				"x": -4.2852688158,
				"y": -0.7450598619,
				"z": -4.8250093027,
				"element": "O" 
			},
			{
				"x": -3.1062710822,
				"y": -0.8164797289,
				"z": -2.6909722424,
				"element": "C" 
			},
			{
				"x": -3.1378412241,
				"y": -0.4699264519,
				"z": -1.3312380912,
				"element": "C" 
			},
			{
				"x": -1.8936033986,
				"y": -1.5781806341,
				"z": -3.2837086036,
				"element": "C" 
			},
			{
				"x": -0.8127271255,
				"y": -1.8595022011,
				"z": -2.218345762,
				"element": "C" 
			},
			{
				"x": -2.3300820195,
				"y": -2.9664329443,
				"z": -3.8275540892,
				"element": "C" 
			},
			{
				"x": -1.1956169825,
				"y": -0.7379503851,
				"z": -4.3884237565,
				"element": "C" 
			},
			{
				"x": -6.5417982384,
				"y": 0.652191996,
				"z": -3.8190600775,
				"element": "C" 
			},
			{
				"x": -6.088106871,
				"y": 1.6072993245,
				"z": -4.9512785898,
				"element": "C" 
			},
			{
				"x": -7.616699673,
				"y": 1.3981123573,
				"z": -3.0006029859,
				"element": "C" 
			},
			{
				"x": -7.2192738956,
				"y": -0.6040233018,
				"z": -4.4216050699,
				"element": "C" 
			},
			{
				"x": -2.464202594,
				"y": -0.4230401941,
				"z": 2.2379614269,
				"element": "C" 
			},
			{
				"x": -3.1139530695,
				"y": -1.7935522343,
				"z": 2.1646936706,
				"element": "C" 
			},
			{
				"x": -1.3416217409,
				"y": -0.2290681499,
				"z": 3.0721806065,
				"element": "C" 
			},
			{
				"x": -0.8876468053,
				"y": -1.3558224015,
				"z": 3.9909901518,
				"element": "C" 
			},
			{
				"x": 0.0761951129,
				"y": -2.3933074367,
				"z": 3.4215685019,
				"element": "C" 
			},
			{
				"x": 0.1094209509,
				"y": -3.6741820955,
				"z": 3.9815390376,
				"element": "C" 
			},
			{
				"x": 1.0084545283,
				"y": -4.6612709259,
				"z": 3.5697489718,
				"element": "C" 
			},
			{
				"x": 1.9137773097,
				"y": -4.3117632164,
				"z": 2.5386793312,
				"element": "C" 
			},
			{
				"x": 2.7976924552,
				"y": -5.2965877605,
				"z": 2.1525591364,
				"element": "O" 
			},
			{
				"x": 1.914112391,
				"y": -3.033804399,
				"z": 1.9326274899,
				"element": "C" 
			},
			{
				"x": 0.9752523805,
				"y": -2.1002419155,
				"z": 2.398316118,
				"element": "C" 
			},
			{
				"x": 2.907878538,
				"y": -2.6579707613,
				"z": 0.8040281292,
				"element": "C" 
			},
			{
				"x": 2.6995699169,
				"y": -1.2105857312,
				"z": 0.3103365599,
				"element": "C" 
			},
			{
				"x": 2.7056225066,
				"y": -3.5673343277,
				"z": -0.4391009266,
				"element": "C" 
			},
			{
				"x": 4.3730040498,
				"y": -2.7283620162,
				"z": 1.3160668076,
				"element": "C" 
			},
			{
				"x": 1.0068709055,
				"y": -6.0665359291,
				"z": 4.215784564,
				"element": "C" 
			},
			{
				"x": 0.7066486875,
				"y": -7.1490612545,
				"z": 3.1490212614,
				"element": "C" 
			},
			{
				"x": -0.0754834109,
				"y": -6.1947062676,
				"z": 5.3083779759,
				"element": "C" 
			},
			{
				"x": 2.3717048652,
				"y": -6.3496325246,
				"z": 4.8919789694,
				"element": "C" 
			},
			{
				"x": -0.7094790788,
				"y": 1.0278106175,
				"z": 3.1218027446,
				"element": "C" 
			},
			{
				"x": 0.5171842893,
				"y": 1.2408518105,
				"z": 3.9912571437,
				"element": "C" 
			},
			{
				"x": -1.2321588228,
				"y": 2.109072327,
				"z": 2.3791281385,
				"element": "C" 
			},
			{
				"x": -0.6424479375,
				"y": 3.5011109639,
				"z": 2.5671249318,
				"element": "C" 
			},
			{
				"x": 0.582382176,
				"y": 3.8735326507,
				"z": 1.7360440893,
				"element": "C" 
			},
			{
				"x": 1.4739370815,
				"y": 4.8296727163,
				"z": 2.2248068539,
				"element": "C" 
			},
			{
				"x": 2.579664555,
				"y": 5.2801214572,
				"z": 1.4933768163,
				"element": "C" 
			},
			{
				"x": 2.7669078844,
				"y": 4.7238924113,
				"z": 0.2049179675,
				"element": "C" 
			},
			{
				"x": 3.8192912123,
				"y": 5.1059144725,
				"z": -0.5996086648,
				"element": "O" 
			},
			{
				"x": 1.8978651089,
				"y": 3.7445847215,
				"z": -0.3300312372,
				"element": "C" 
			},
			{
				"x": 0.8200885676,
				"y": 3.3404250867,
				"z": 0.4679806937,
				"element": "C" 
			},
			{
				"x": 2.1161812218,
				"y": 3.1484033851,
				"z": -1.7404384796,
				"element": "C" 
			},
			{
				"x": 2.0281919529,
				"y": 4.2630397126,
				"z": -2.8129799739,
				"element": "C" 
			},
			{
				"x": 3.4904404929,
				"y": 2.4381834052,
				"z": -1.8238108979,
				"element": "C" 
			},
			{
				"x": 1.0413331358,
				"y": 2.0978579204,
				"z": -2.0897272862,
				"element": "C" 
			},
			{
				"x": 3.5434372654,
				"y": 6.3390328492,
				"z": 2.0867573208,
				"element": "C" 
			},
			{
				"x": 3.5354695107,
				"y": 7.6342643005,
				"z": 1.2289020782,
				"element": "C" 
			},
			{
				"x": 3.1251605818,
				"y": 6.7700711562,
				"z": 3.5089718967,
				"element": "C" 
			},
			{
				"x": 4.9800772404,
				"y": 5.7633461329,
				"z": 2.218971217,
				"element": "C" 
			},
			{
				"x": -3.3560172299,
				"y": 2.6997131809,
				"z": -0.2073063657,
				"element": "H" 
			},
			{
				"x": -3.6768355255,
				"y": 3.6281300635,
				"z": 1.2578269388,
				"element": "H" 
			},
			{
				"x": -2.1237702896,
				"y": 3.7712473316,
				"z": 0.4331516466,
				"element": "H" 
			},
			{
				"x": -4.8923667339,
				"y": -0.2796626296,
				"z": 1.2160727174,
				"element": "H" 
			},
			{
				"x": -4.886166222,
				"y": 1.4171807197,
				"z": 0.8641124699,
				"element": "H" 
			},
			{
				"x": -6.1254747051,
				"y": 1.0713113928,
				"z": -1.1296081802,
				"element": "H" 
			},
			{
				"x": -3.4849656792,
				"y": -1.2056570827,
				"z": -5.0927237944,
				"element": "H" 
			},
			{
				"x": -2.2989872643,
				"y": -0.7197397805,
				"z": -0.6946049309,
				"element": "H" 
			},
			{
				"x": -0.4124898226,
				"y": -0.9354256602,
				"z": -1.7910470774,
				"element": "H" 
			},
			{
				"x": -1.1930413315,
				"y": -2.4804977123,
				"z": -1.4019516917,
				"element": "H" 
			},
			{
				"x": 0.0199964091,
				"y": -2.3964729794,
				"z": -2.6844621075,
				"element": "H" 
			},
			{
				"x": -1.4694534158,
				"y": -3.4945189416,
				"z": -4.2526868216,
				"element": "H" 
			},
			{
				"x": -2.7350628612,
				"y": -3.576427568,
				"z": -3.0143157261,
				"element": "H" 
			},
			{
				"x": -3.1037041807,
				"y": -2.9278146726,
				"z": -4.600657399,
				"element": "H" 
			},
			{
				"x": -0.8179229178,
				"y": 0.1973235901,
				"z": -3.9645506336,
				"element": "H" 
			},
			{
				"x": -1.8422829532,
				"y": -0.4586572054,
				"z": -5.226165097,
				"element": "H" 
			},
			{
				"x": -0.346137139,
				"y": -1.2909503382,
				"z": -4.8041895598,
				"element": "H" 
			},
			{
				"x": -5.6434900179,
				"y": 2.516756535,
				"z": -4.5322613887,
				"element": "H" 
			},
			{
				"x": -6.9521616973,
				"y": 1.9052658038,
				"z": -5.5567359807,
				"element": "H" 
			},
			{
				"x": -5.3553623163,
				"y": 1.1379874328,
				"z": -5.6078082972,
				"element": "H" 
			},
			{
				"x": -8.4471419845,
				"y": 1.6666694684,
				"z": -3.6615269712,
				"element": "H" 
			},
			{
				"x": -8.0262361091,
				"y": 0.7799363338,
				"z": -2.1947957949,
				"element": "H" 
			},
			{
				"x": -7.2332607779,
				"y": 2.3256762092,
				"z": -2.5626610938,
				"element": "H" 
			},
			{
				"x": -7.5778122492,
				"y": -1.266602315,
				"z": -3.6261050141,
				"element": "H" 
			},
			{
				"x": -8.0846558971,
				"y": -0.3074596587,
				"z": -5.0258599695,
				"element": "H" 
			},
			{
				"x": -6.535589707,
				"y": -1.1681250609,
				"z": -5.0560086322,
				"element": "H" 
			},
			{
				"x": -2.3771296258,
				"y": -2.5883763104,
				"z": 2.2972006974,
				"element": "H" 
			},
			{
				"x": -3.5948861761,
				"y": -1.9628238437,
				"z": 1.1993834856,
				"element": "H" 
			},
			{
				"x": -3.8811969046,
				"y": -1.9280839964,
				"z": 2.9399299123,
				"element": "H" 
			},
			{
				"x": -1.7712589604,
				"y": -1.8840958182,
				"z": 4.3643781983,
				"element": "H" 
			},
			{
				"x": -0.4306104579,
				"y": -0.9172956924,
				"z": 4.8853846814,
				"element": "H" 
			},
			{
				"x": -0.5969160892,
				"y": -3.8983301592,
				"z": 4.7726512254,
				"element": "H" 
			},
			{
				"x": 3.372666789,
				"y": -4.9601521384,
				"z": 1.4593751677,
				"element": "H" 
			},
			{
				"x": 0.9327462565,
				"y": -1.1149368744,
				"z": 1.9524897219,
				"element": "H" 
			},
			{
				"x": 3.4198085671,
				"y": -0.9930053799,
				"z": -0.4849167321,
				"element": "H" 
			},
			{
				"x": 1.6974049421,
				"y": -1.0609203648,
				"z": -0.1019410133,
				"element": "H" 
			},
			{
				"x": 2.8557126657,
				"y": -0.4779421614,
				"z": 1.1074431059,
				"element": "H" 
			},
			{
				"x": 1.694090704,
				"y": -3.437965314,
				"z": -0.8357757479,
				"element": "H" 
			},
			{
				"x": 3.4174872013,
				"y": -3.2956667702,
				"z": -1.2263034399,
				"element": "H" 
			},
			{
				"x": 2.8272676437,
				"y": -4.6375387783,
				"z": -0.2453397112,
				"element": "H" 
			},
			{
				"x": 4.6734258005,
				"y": -3.7076024587,
				"z": 1.7020363808,
				"element": "H" 
			},
			{
				"x": 4.5180282174,
				"y": -2.0157568056,
				"z": 2.1337169448,
				"element": "H" 
			},
			{
				"x": 5.0685352483,
				"y": -2.4679978603,
				"z": 0.5107156821,
				"element": "H" 
			},
			{
				"x": 1.4558668761,
				"y": -7.1564516131,
				"z": 2.3573062251,
				"element": "H" 
			},
			{
				"x": -0.2750953096,
				"y": -6.9784159847,
				"z": 2.6935415357,
				"element": "H" 
			},
			{
				"x": 0.6907078167,
				"y": -8.1401560416,
				"z": 3.6174241324,
				"element": "H" 
			},
			{
				"x": -1.0844845273,
				"y": -6.0432748057,
				"z": 4.9106840496,
				"element": "H" 
			},
			{
				"x": 0.0806776288,
				"y": -5.4882603035,
				"z": 6.1303999042,
				"element": "H" 
			},
			{
				"x": -0.0383163751,
				"y": -7.2034708216,
				"z": 5.7321520153,
				"element": "H" 
			},
			{
				"x": 2.3564711009,
				"y": -7.3395808937,
				"z": 5.3628518579,
				"element": "H" 
			},
			{
				"x": 3.1921455779,
				"y": -6.3239576656,
				"z": 4.1747972119,
				"element": "H" 
			},
			{
				"x": 2.5741231347,
				"y": -5.6099101467,
				"z": 5.6744181414,
				"element": "H" 
			},
			{
				"x": 1.1818499482,
				"y": 1.9927817184,
				"z": 3.5612259856,
				"element": "H" 
			},
			{
				"x": 0.2511080457,
				"y": 1.5806479931,
				"z": 5.0020379421,
				"element": "H" 
			},
			{
				"x": 1.101122494,
				"y": 0.3249380832,
				"z": 4.1003715187,
				"element": "H" 
			},
			{
				"x": -1.4256556572,
				"y": 4.2429398036,
				"z": 2.3748546382,
				"element": "H" 
			},
			{
				"x": -0.38820219,
				"y": 3.6359561055,
				"z": 3.6239413733,
				"element": "H" 
			},
			{
				"x": 1.2887382264,
				"y": 5.2347726541,
				"z": 3.2128877432,
				"element": "H" 
			},
			{
				"x": 4.3286058865,
				"y": 5.7927650424,
				"z": -0.1602092923,
				"element": "H" 
			},
			{
				"x": 0.1390581244,
				"y": 2.5832954837,
				"z": 0.1010483638,
				"element": "H" 
			},
			{
				"x": 2.1654298724,
				"y": 3.8318492584,
				"z": -3.8116091082,
				"element": "H" 
			},
			{
				"x": 2.7889428313,
				"y": 5.0293834523,
				"z": -2.6636094141,
				"element": "H" 
			},
			{
				"x": 1.0440448018,
				"y": 4.7436456574,
				"z": -2.7882642627,
				"element": "H" 
			},
			{
				"x": 3.5484296546,
				"y": 1.6262825059,
				"z": -1.0904722217,
				"element": "H" 
			},
			{
				"x": 4.3150519436,
				"y": 3.1264896193,
				"z": -1.6390023793,
				"element": "H" 
			},
			{
				"x": 3.6239932954,
				"y": 2.0006561224,
				"z": -2.8202535931,
				"element": "H" 
			},
			{
				"x": 1.0535012552,
				"y": 1.2513116328,
				"z": -1.3952593027,
				"element": "H" 
			},
			{
				"x": 1.2402852228,
				"y": 1.7046804767,
				"z": -3.0921783745,
				"element": "H" 
			},
			{
				"x": 0.032390175,
				"y": 2.5227248752,
				"z": -2.0959128478,
				"element": "H" 
			},
			{
				"x": 2.5319268807,
				"y": 8.0704131405,
				"z": 1.2181576718,
				"element": "H" 
			},
			{
				"x": 3.8199957048,
				"y": 7.4899673547,
				"z": 0.1816878247,
				"element": "H" 
			},
			{
				"x": 4.2237103707,
				"y": 8.3736832788,
				"z": 1.6527663898,
				"element": "H" 
			},
			{
				"x": 3.1248738862,
				"y": 5.9281746528,
				"z": 4.2077675547,
				"element": "H" 
			},
			{
				"x": 3.8373058173,
				"y": 7.5113911857,
				"z": 3.8856490729,
				"element": "H" 
			},
			{
				"x": 2.1326431931,
				"y": 7.230387906,
				"z": 3.522586667,
				"element": "H" 
			},
			{
				"x": 4.9790688862,
				"y": 4.9086658932,
				"z": 2.9024241092,
				"element": "H" 
			},
			{
				"x": 5.4131534053,
				"y": 5.4083015826,
				"z": 1.2791252824,
				"element": "H" 
			},
			{
				"x": 5.6568433845,
				"y": 6.5227963959,
				"z": 2.6257021141,
				"element": "H" 
			}
		],
		 "valence_orbital": [ 
			{
				"type": "occ",
				"energy": -0.21634,
				"method": "rhf"
			},
			{
				"type": "occ",
				"energy": -0.21623,
				"method": "rhf"
			},
			{
				"type": "occ",
				"energy": -0.20537,
				"method": "rhf"
			},
			{
				"type": "occ",
				"energy": -0.20309,
				"method": "rhf"
			},
			{
				"type": "occ",
				"energy": -0.20214,
				"method": "rhf"
			},
			{
				"type": "unocc",
				"energy": 0.00381,
				"method": "rhf"
			},
			{
				"type": "unocc",
				"energy": 0.00526,
				"method": "rhf"
			},
			{
				"type": "unocc",
				"energy": 0.0068,
				"method": "rhf"
			},
			{
				"type": "unocc",
				"energy": 0.01067,
				"method": "rhf"
			},
			{
				"type": "unocc",
				"energy": 0.01158,
				"method": "rhf"
			}
		],
		"cosmo_sigma_profile": { 
			"-0.025": 0.0,
			"-0.024": 0.0,
			"-0.023": 0.0,
			"-0.022": 0.0,
			"-0.021": 0.0,
			"-0.02": 0.0,
			"-0.019": 0.0,
			"-0.018": 0.0,
			"-0.017": 0.0,
			"-0.016": 0.0,
			"-0.015": 0.00328911305575,
			"-0.014": 0.973525582973,
			"-0.013": 2.04521774536,
			"-0.012": 2.06742853121,
			"-0.011": 2.31466556826,
			"-0.01": 1.97021351334,
			"-0.009": 2.00003045828,
			"-0.008": 2.49142364026,
			"-0.007": 2.22162270877,
			"-0.006": 3.28642545096,
			"-0.005": 4.65349207548,
			"-0.004": 20.2958656957,
			"-0.003": 87.9848095876,
			"-0.002": 137.12663664,
			"-0.001": 144.351977753,
			"0.0": 149.123576401,
			"0.001": 121.942759591,
			"0.002": 80.0531364676,
			"0.003": 40.6203033972,
			"0.004": 37.7778892269,
			"0.005": 32.0635161966,
			"0.006": 24.5576113827,
			"0.007": 13.008329126,
			"0.008": 0.739290548791,
			"0.009": 0.0,
			"0.01": 0.0,
			"0.011": 0.0,
			"0.012": 0.0,
			"0.013": 0.0,
			"0.014": 0.0,
			"0.015": 0.0,
			"0.016": 0.0,
			"0.017": 0.0,
			"0.018": 0.0,
			"0.019": 0.0,
			"0.02": 0.0,
			"0.021": 0.0,
			"0.022": 0.0,
			"0.023": 0.0,
			"0.024": 0.0,
			"0.025": 0.0
		}
	}
}
