{
	 "smiles": "NS(=O)(=O)C1=CC=C(S1)[N+]([O-])=O", 
	 "Tm": 413.15, 
	 "num_atms": 16, 
	 "gaussian": { 
		 "optdone": 1, 
		 "sigma_profile": "yes", 
		 "theory": "DFT", 
		 "functional": "B3LYP", 
		 "basiset": "6-31G**", 
		 "properties": { 
			 "R2extent": 3003.7133, 
			 "electric_dipole_moment_norm": 4.34786153528, 
			 "electric_quadrupole_moment_norm": 22.6122503783, 
			 "total_energy": -1361.40448525, 
			 "HOMO_LUMO_gap": 0.16749, 
			 "cosmo_polarized_energy": -20.84, 
			 "cosmo_cavitation_energy": 25.01, 
			 "cosmo_dispersion_energy": -19.27, 
			 "cosmo_repulsion_energy": 1.45, 
			 "cosmo_total_nonelectrostatic_energy": 7.2, 
			 "SMD_solvation_energy": 6.21 
		},
		"coords": [
			{
				"x": -0.8376813577,
				"y": 0.7087794382,
				"z": 2.7320137099,
				"element": "N" 
			},
			{
				"x": -1.1496930564,
				"y": -0.4784304841,
				"z": 1.604082831,
				"element": "S" 
			},
			{
				"x": -0.6241740826,
				"y": -1.7160524908,
				"z": 2.1686506142,
				"element": "O" 
			},
			{
				"x": -2.5332197586,
				"y": -0.2889457503,
				"z": 1.1853428544,
				"element": "O" 
			},
			{
				"x": -0.1494400071,
				"y": -0.1107064639,
				"z": 0.1666979973,
				"element": "C" 
			},
			{
				"x": -0.5736010801,
				"y": 0.5938816948,
				"z": -0.9367735447,
				"element": "C" 
			},
			{
				"x": 0.4532280285,
				"y": 0.7417793655,
				"z": -1.9035328837,
				"element": "C" 
			},
			{
				"x": 1.6132973642,
				"y": 0.137854867,
				"z": -1.4893234967,
				"element": "C" 
			},
			{
				"x": 1.5015634566,
				"y": -0.6407971718,
				"z": 0.0562636885,
				"element": "S" 
			},
			{
				"x": 2.8532004503,
				"y": 0.0856276881,
				"z": -2.2222487422,
				"element": "N" 
			},
			{
				"x": 3.78942764,
				"y": -0.5149893454,
				"z": -1.6895854781,
				"element": "O" 
			},
			{
				"x": 2.8833763299,
				"y": 0.6454646297,
				"z": -3.3165402875,
				"element": "O" 
			},
			{
				"x": 0.0931001542,
				"y": 0.6717619749,
				"z": 3.1329884274,
				"element": "H" 
			},
			{
				"x": -1.1489734185,
				"y": 1.6357703454,
				"z": 2.4636453773,
				"element": "H" 
			},
			{
				"x": -1.5845726387,
				"y": 0.9679716885,
				"z": -1.0415089253,
				"element": "H" 
			},
			{
				"x": 0.362661976,
				"y": 1.2508300141,
				"z": -2.854072142,
				"element": "H" 
			}
		],
		 "valence_orbital": [ 
			{
				"type": "occ",
				"energy": -0.32961,
				"method": "rhf"
			},
			{
				"type": "occ",
				"energy": -0.3267,
				"method": "rhf"
			},
			{
				"type": "occ",
				"energy": -0.31128,
				"method": "rhf"
			},
			{
				"type": "occ",
				"energy": -0.30373,
				"method": "rhf"
			},
			{
				"type": "occ",
				"energy": -0.28762,
				"method": "rhf"
			},
			{
				"type": "unocc",
				"energy": -0.12013,
				"method": "rhf"
			},
			{
				"type": "unocc",
				"energy": -0.0452,
				"method": "rhf"
			},
			{
				"type": "unocc",
				"energy": -0.01512,
				"method": "rhf"
			},
			{
				"type": "unocc",
				"energy": 0.02161,
				"method": "rhf"
			},
			{
				"type": "unocc",
				"energy": 0.0282,
				"method": "rhf"
			}
		],
		"cosmo_sigma_profile": { 
			"-0.025": 0.0,
			"-0.024": 0.0,
			"-0.023": 0.0,
			"-0.022": 0.0,
			"-0.021": 0.0,
			"-0.02": 0.0,
			"-0.019": 0.0,
			"-0.018": 0.0,
			"-0.017": 0.093727242375,
			"-0.016": 2.04082415128,
			"-0.015": 3.2279005614,
			"-0.014": 2.3993345188,
			"-0.013": 3.54805660761,
			"-0.012": 3.02325662665,
			"-0.011": 2.31351383564,
			"-0.01": 3.61306555941,
			"-0.009": 4.92429210701,
			"-0.008": 5.10961042362,
			"-0.007": 7.31188351246,
			"-0.006": 6.84275585758,
			"-0.005": 6.05779747129,
			"-0.004": 7.49671913548,
			"-0.003": 12.3754622131,
			"-0.002": 14.6518941974,
			"-0.001": 16.0773847229,
			"0.0": 11.3172280337,
			"0.001": 7.3007524502,
			"0.002": 5.68942663287,
			"0.003": 4.93474012371,
			"0.004": 6.49710664894,
			"0.005": 6.81887825787,
			"0.006": 10.3087425708,
			"0.007": 14.2760181406,
			"0.008": 9.04671736594,
			"0.009": 10.2822800697,
			"0.01": 10.6967169585,
			"0.011": 4.6044411472,
			"0.012": 0.0,
			"0.013": 0.0,
			"0.014": 0.0,
			"0.015": 0.0,
			"0.016": 0.0,
			"0.017": 0.0,
			"0.018": 0.0,
			"0.019": 0.0,
			"0.02": 0.0,
			"0.021": 0.0,
			"0.022": 0.0,
			"0.023": 0.0,
			"0.024": 0.0,
			"0.025": 0.0
		}
	}
}
