{
	 "smiles": "ClC1=NC=NC(=C1)N1C=CN=C1", 
	 "Tm": 401.15, 
	 "num_atms": 17, 
	 "gaussian": { 
		 "optdone": 1, 
		 "sigma_profile": "yes", 
		 "theory": "DFT", 
		 "functional": "B3LYP", 
		 "basiset": "6-31G**", 
		 "properties": { 
			 "R2extent": 2955.8318, 
			 "electric_dipole_moment_norm": 1.67016803346, 
			 "electric_quadrupole_moment_norm": 16.100036272, 
			 "total_energy": -948.939714992, 
			 "HOMO_LUMO_gap": 0.17979, 
			 "cosmo_polarized_energy": -11.6, 
			 "cosmo_cavitation_energy": 23.99, 
			 "cosmo_dispersion_energy": -18.13, 
			 "cosmo_repulsion_energy": 1.41, 
			 "cosmo_total_nonelectrostatic_energy": 7.26, 
			 "SMD_solvation_energy": 0.77 
		},
		"coords": [
			{
				"x": 3.4601205775,
				"y": 0.6533770428,
				"z": -1.0418134921,
				"element": "Cl" 
			},
			{
				"x": 1.9109377124,
				"y": 1.1469560732,
				"z": -0.3928155208,
				"element": "C" 
			},
			{
				"x": 1.5162998636,
				"y": 2.3846456274,
				"z": -0.6520205853,
				"element": "N" 
			},
			{
				"x": 0.3272997774,
				"y": 2.7185121418,
				"z": -0.1368718013,
				"element": "C" 
			},
			{
				"x": -0.4781580326,
				"y": 1.9499925976,
				"z": 0.5919249214,
				"element": "N" 
			},
			{
				"x": -0.050566838,
				"y": 0.7037405683,
				"z": 0.8366185698,
				"element": "C" 
			},
			{
				"x": 1.1764919145,
				"y": 0.2311768406,
				"z": 0.3537885008,
				"element": "C" 
			},
			{
				"x": -0.9007967861,
				"y": -0.099930586,
				"z": 1.6030616138,
				"element": "N" 
			},
			{
				"x": -0.7138791221,
				"y": -1.4221691067,
				"z": 2.0071358473,
				"element": "C" 
			},
			{
				"x": -1.8255521982,
				"y": -1.7422877809,
				"z": 2.730031087,
				"element": "C" 
			},
			{
				"x": -2.7021367525,
				"y": -0.670933362,
				"z": 2.7945127224,
				"element": "N" 
			},
			{
				"x": -2.1303796769,
				"y": 0.2887940124,
				"z": 2.1191111987,
				"element": "C" 
			},
			{
				"x": -0.0173209214,
				"y": 3.7302749651,
				"z": -0.336741114,
				"element": "H" 
			},
			{
				"x": 1.5430351892,
				"y": -0.7686607414,
				"z": 0.5374011119,
				"element": "H" 
			},
			{
				"x": 0.1637203913,
				"y": -1.9915084489,
				"z": 1.7503875372,
				"element": "H" 
			},
			{
				"x": -2.0516725089,
				"y": -2.683315915,
				"z": 3.2116008396,
				"element": "H" 
			},
			{
				"x": -2.5134425892,
				"y": 1.2822360717,
				"z": 1.9466885637,
				"element": "H" 
			}
		],
		 "valence_orbital": [ 
			{
				"type": "occ",
				"energy": -0.30365,
				"method": "rhf"
			},
			{
				"type": "occ",
				"energy": -0.29348,
				"method": "rhf"
			},
			{
				"type": "occ",
				"energy": -0.27948,
				"method": "rhf"
			},
			{
				"type": "occ",
				"energy": -0.27921,
				"method": "rhf"
			},
			{
				"type": "occ",
				"energy": -0.24827,
				"method": "rhf"
			},
			{
				"type": "unocc",
				"energy": -0.06848,
				"method": "rhf"
			},
			{
				"type": "unocc",
				"energy": -0.05805,
				"method": "rhf"
			},
			{
				"type": "unocc",
				"energy": 0.0134,
				"method": "rhf"
			},
			{
				"type": "unocc",
				"energy": 0.02082,
				"method": "rhf"
			},
			{
				"type": "unocc",
				"energy": 0.05421,
				"method": "rhf"
			}
		],
		"cosmo_sigma_profile": { 
			"-0.025": 0.0,
			"-0.024": 0.0,
			"-0.023": 0.0,
			"-0.022": 0.0,
			"-0.021": 0.0,
			"-0.02": 0.0,
			"-0.019": 0.0,
			"-0.018": 0.0,
			"-0.017": 0.0,
			"-0.016": 0.0,
			"-0.015": 0.0,
			"-0.014": 0.0,
			"-0.013": 0.612531541002,
			"-0.012": 1.33051929792,
			"-0.011": 2.31403741627,
			"-0.01": 1.74464220388,
			"-0.009": 3.8198410773,
			"-0.008": 5.9978019203,
			"-0.007": 6.59715305849,
			"-0.006": 6.30279008655,
			"-0.005": 8.23519359151,
			"-0.004": 13.1315295276,
			"-0.003": 16.0634919705,
			"-0.002": 19.2312214533,
			"-0.001": 14.6275381092,
			"0.0": 11.0314072189,
			"0.001": 13.0234620445,
			"0.002": 12.5369231438,
			"0.003": 16.7718422291,
			"0.004": 10.941843316,
			"0.005": 6.26243422794,
			"0.006": 3.80460440266,
			"0.007": 3.94313044235,
			"0.008": 4.51301489364,
			"0.009": 2.44286326813,
			"0.01": 1.91012331632,
			"0.011": 2.04041766666,
			"0.012": 2.10719720497,
			"0.013": 2.07963541702,
			"0.014": 1.34553656192,
			"0.015": 0.647197530983,
			"0.016": 1.37094329362,
			"0.017": 0.519643938558,
			"0.018": 0.0,
			"0.019": 0.0,
			"0.02": 0.0,
			"0.021": 0.0,
			"0.022": 0.0,
			"0.023": 0.0,
			"0.024": 0.0,
			"0.025": 0.0
		}
	}
}
