{
	 "smiles": "COC1=CC=C(OC)C(C(C)=O)=C1O", 
	 "Tm": 323.15, 
	 "num_atms": 26, 
	 "gaussian": { 
		 "optdone": 1, 
		 "sigma_profile": "yes", 
		 "theory": "DFT", 
		 "functional": "B3LYP", 
		 "basiset": "6-31G**", 
		 "properties": { 
			 "R2extent": 3009.3463, 
			 "electric_dipole_moment_norm": 4.98046849302, 
			 "electric_quadrupole_moment_norm": 8.50879888292, 
			 "total_energy": -689.15551109, 
			 "HOMO_LUMO_gap": 0.18043, 
			 "cosmo_polarized_energy": -11.97, 
			 "cosmo_cavitation_energy": 29.44, 
			 "cosmo_dispersion_energy": -21.4, 
			 "cosmo_repulsion_energy": 1.7, 
			 "cosmo_total_nonelectrostatic_energy": 9.73, 
			 "SMD_solvation_energy": 7.56 
		},
		"coords": [
			{
				"x": 2.7928322301,
				"y": 2.8519035006,
				"z": 0.8738549538,
				"element": "C" 
			},
			{
				"x": 2.5622194115,
				"y": 1.5221265193,
				"z": 0.4341089065,
				"element": "O" 
			},
			{
				"x": 1.2633278447,
				"y": 1.1358471536,
				"z": 0.1909627104,
				"element": "C" 
			},
			{
				"x": 0.12972431,
				"y": 1.9266351129,
				"z": 0.3267460932,
				"element": "C" 
			},
			{
				"x": -1.1280450619,
				"y": 1.3818391456,
				"z": 0.0424408287,
				"element": "C" 
			},
			{
				"x": -1.2487752005,
				"y": 0.0558038362,
				"z": -0.3619786548,
				"element": "C" 
			},
			{
				"x": -2.4868592393,
				"y": -0.4331969628,
				"z": -0.7075480965,
				"element": "O" 
			},
			{
				"x": -3.2650731218,
				"y": -0.9404443465,
				"z": 0.3828563695,
				"element": "C" 
			},
			{
				"x": -0.1044582128,
				"y": -0.7609826649,
				"z": -0.5104955035,
				"element": "C" 
			},
			{
				"x": -0.2542214756,
				"y": -2.2023383122,
				"z": -0.9391490123,
				"element": "C" 
			},
			{
				"x": 0.5149002301,
				"y": -2.655795945,
				"z": -2.1620926638,
				"element": "C" 
			},
			{
				"x": -1.0062099693,
				"y": -2.9535802103,
				"z": -0.3431503215,
				"element": "O" 
			},
			{
				"x": 1.1488275382,
				"y": -0.2027872505,
				"z": -0.2377731824,
				"element": "C" 
			},
			{
				"x": 2.2801951976,
				"y": -0.9562001624,
				"z": -0.3507119766,
				"element": "O" 
			},
			{
				"x": 2.286816226,
				"y": 3.0498904295,
				"z": 1.8269978331,
				"element": "H" 
			},
			{
				"x": 3.871007305,
				"y": 2.945780137,
				"z": 1.0107875759,
				"element": "H" 
			},
			{
				"x": 2.4565675107,
				"y": 3.5827845546,
				"z": 0.1278424283,
				"element": "H" 
			},
			{
				"x": 0.2091540417,
				"y": 2.9598678767,
				"z": 0.6444928164,
				"element": "H" 
			},
			{
				"x": -2.0224019058,
				"y": 1.991205797,
				"z": 0.115466304,
				"element": "H" 
			},
			{
				"x": -3.428256366,
				"y": -0.1668004465,
				"z": 1.1448282858,
				"element": "H" 
			},
			{
				"x": -2.7741550364,
				"y": -1.8102365523,
				"z": 0.8282775822,
				"element": "H" 
			},
			{
				"x": -4.2272591073,
				"y": -1.2354029982,
				"z": -0.0411883597,
				"element": "H" 
			},
			{
				"x": 1.5793555641,
				"y": -2.4331832205,
				"z": -2.0579267492,
				"element": "H" 
			},
			{
				"x": 0.1488648813,
				"y": -2.1054017451,
				"z": -3.0376071659,
				"element": "H" 
			},
			{
				"x": 0.3576730851,
				"y": -3.7251311461,
				"z": -2.3126971692,
				"element": "H" 
			},
			{
				"x": 3.0232493205,
				"y": -0.3837020995,
				"z": -0.1022438325,
				"element": "H" 
			}
		],
		 "valence_orbital": [ 
			{
				"type": "occ",
				"energy": -0.31052,
				"method": "rhf"
			},
			{
				"type": "occ",
				"energy": -0.26281,
				"method": "rhf"
			},
			{
				"type": "occ",
				"energy": -0.24617,
				"method": "rhf"
			},
			{
				"type": "occ",
				"energy": -0.23526,
				"method": "rhf"
			},
			{
				"type": "occ",
				"energy": -0.2104,
				"method": "rhf"
			},
			{
				"type": "unocc",
				"energy": -0.02997,
				"method": "rhf"
			},
			{
				"type": "unocc",
				"energy": 0.01182,
				"method": "rhf"
			},
			{
				"type": "unocc",
				"energy": 0.02413,
				"method": "rhf"
			},
			{
				"type": "unocc",
				"energy": 0.06912,
				"method": "rhf"
			},
			{
				"type": "unocc",
				"energy": 0.08748,
				"method": "rhf"
			}
		],
		"cosmo_sigma_profile": { 
			"-0.025": 0.0,
			"-0.024": 0.0,
			"-0.023": 0.0,
			"-0.022": 0.0,
			"-0.021": 0.0,
			"-0.02": 0.0,
			"-0.019": 0.0,
			"-0.018": 0.0,
			"-0.017": 0.0,
			"-0.016": 0.0,
			"-0.015": 0.0328846389044,
			"-0.014": 0.423332815774,
			"-0.013": 0.869279303998,
			"-0.012": 0.556355047247,
			"-0.011": 0.39170885365,
			"-0.01": 0.605538628312,
			"-0.009": 0.881491751198,
			"-0.008": 0.605809404847,
			"-0.007": 3.00375577914,
			"-0.006": 12.9904965493,
			"-0.005": 17.9224853105,
			"-0.004": 22.3585584155,
			"-0.003": 22.6399987564,
			"-0.002": 20.2491159036,
			"-0.001": 17.5984662933,
			"0.0": 15.6760743711,
			"0.001": 15.1410931378,
			"0.002": 15.5852630318,
			"0.003": 14.1872242414,
			"0.004": 12.5560734994,
			"0.005": 8.95522062596,
			"0.006": 4.79038278322,
			"0.007": 4.45733197801,
			"0.008": 4.36708525259,
			"0.009": 4.52429117386,
			"0.01": 4.08484415742,
			"0.011": 3.57617274514,
			"0.012": 3.35423267971,
			"0.013": 0.870228954914,
			"0.014": 0.0,
			"0.015": 0.0,
			"0.016": 0.0,
			"0.017": 0.0,
			"0.018": 0.0,
			"0.019": 0.0,
			"0.02": 0.0,
			"0.021": 0.0,
			"0.022": 0.0,
			"0.023": 0.0,
			"0.024": 0.0,
			"0.025": 0.0
		}
	}
}
