{
	 "smiles": "OC1=C2C=CN=C(O)C2=CC=C1", 
	 "Tm": 545.15, 
	 "num_atms": 19, 
	 "gaussian": { 
		 "optdone": 1, 
		 "sigma_profile": "yes", 
		 "theory": "DFT", 
		 "functional": "B3LYP", 
		 "basiset": "6-31G**", 
		 "properties": { 
			 "R2extent": 2075.6373, 
			 "electric_dipole_moment_norm": 0.803862730819, 
			 "electric_quadrupole_moment_norm": 7.2627911976, 
			 "total_energy": -552.383767885, 
			 "HOMO_LUMO_gap": 0.16836, 
			 "cosmo_polarized_energy": -11.34, 
			 "cosmo_cavitation_energy": 22.88, 
			 "cosmo_dispersion_energy": -17.66, 
			 "cosmo_repulsion_energy": 1.37, 
			 "cosmo_total_nonelectrostatic_energy": 6.59, 
			 "SMD_solvation_energy": 3.11 
		},
		"coords": [
			{
				"x": 1.9108788849,
				"y": 0.4615470585,
				"z": 2.3996681239,
				"element": "O" 
			},
			{
				"x": 1.6659925404,
				"y": 0.5295778765,
				"z": 1.0589131844,
				"element": "C" 
			},
			{
				"x": 0.851326402,
				"y": -0.4282007081,
				"z": 0.38410208,
				"element": "C" 
			},
			{
				"x": 0.2195347504,
				"y": -1.5344377662,
				"z": 1.0229111408,
				"element": "C" 
			},
			{
				"x": -0.5432407131,
				"y": -2.3947423772,
				"z": 0.2746235365,
				"element": "C" 
			},
			{
				"x": -0.7407280889,
				"y": -2.2588955286,
				"z": -1.0652696539,
				"element": "N" 
			},
			{
				"x": -0.1649534665,
				"y": -1.245096083,
				"z": -1.6653788307,
				"element": "C" 
			},
			{
				"x": -0.3597976631,
				"y": -1.1083775301,
				"z": -2.9961106254,
				"element": "O" 
			},
			{
				"x": 0.6586697925,
				"y": -0.2650123548,
				"z": -1.0213153556,
				"element": "C" 
			},
			{
				"x": 1.2550381027,
				"y": 0.8090382685,
				"z": -1.7197157638,
				"element": "C" 
			},
			{
				"x": 2.0355140013,
				"y": 1.7122378927,
				"z": -1.0272389309,
				"element": "C" 
			},
			{
				"x": 2.2419681374,
				"y": 1.5747603945,
				"z": 0.3593812571,
				"element": "C" 
			},
			{
				"x": 1.4611232556,
				"y": -0.3028148139,
				"z": 2.7790769961,
				"element": "H" 
			},
			{
				"x": 0.3215691213,
				"y": -1.7214606573,
				"z": 2.0884434941,
				"element": "H" 
			},
			{
				"x": -1.0362643424,
				"y": -3.246458679,
				"z": 0.7361210684,
				"element": "H" 
			},
			{
				"x": -0.9321751759,
				"y": -1.8489675729,
				"z": -3.2538845771,
				"element": "H" 
			},
			{
				"x": 1.0896547227,
				"y": 0.905231733,
				"z": -2.7859423545,
				"element": "H" 
			},
			{
				"x": 2.500610195,
				"y": 2.5428535994,
				"z": -1.5494833797,
				"element": "H" 
			},
			{
				"x": 2.8552795437,
				"y": 2.2839172479,
				"z": 0.9054985902,
				"element": "H" 
			}
		],
		 "valence_orbital": [ 
			{
				"type": "occ",
				"energy": -0.33383,
				"method": "rhf"
			},
			{
				"type": "occ",
				"energy": -0.27434,
				"method": "rhf"
			},
			{
				"type": "occ",
				"energy": -0.27251,
				"method": "rhf"
			},
			{
				"type": "occ",
				"energy": -0.25195,
				"method": "rhf"
			},
			{
				"type": "occ",
				"energy": -0.20701,
				"method": "rhf"
			},
			{
				"type": "unocc",
				"energy": -0.03865,
				"method": "rhf"
			},
			{
				"type": "unocc",
				"energy": -0.02362,
				"method": "rhf"
			},
			{
				"type": "unocc",
				"energy": 0.041,
				"method": "rhf"
			},
			{
				"type": "unocc",
				"energy": 0.0561,
				"method": "rhf"
			},
			{
				"type": "unocc",
				"energy": 0.08644,
				"method": "rhf"
			}
		],
		"cosmo_sigma_profile": { 
			"-0.025": 0.0,
			"-0.024": 0.0,
			"-0.023": 0.0,
			"-0.022": 0.0,
			"-0.021": 0.0,
			"-0.02": 0.0,
			"-0.019": 0.134265919768,
			"-0.018": 0.81160827393,
			"-0.017": 1.30744950518,
			"-0.016": 1.72640593215,
			"-0.015": 2.02928157935,
			"-0.014": 1.56196080315,
			"-0.013": 1.20012985463,
			"-0.012": 1.47857234291,
			"-0.011": 1.09496980658,
			"-0.01": 2.3361084874,
			"-0.009": 1.82437567892,
			"-0.008": 1.48577355812,
			"-0.007": 2.57680690677,
			"-0.006": 9.23111565984,
			"-0.005": 10.1631009951,
			"-0.004": 10.0302682883,
			"-0.003": 7.936282801,
			"-0.002": 6.66167265234,
			"-0.001": 6.71034481246,
			"0.0": 12.2006373095,
			"0.001": 14.7137819151,
			"0.002": 19.4766212176,
			"0.003": 20.6099643725,
			"0.004": 15.2063952231,
			"0.005": 7.24460337954,
			"0.006": 3.46453379822,
			"0.007": 4.24234683043,
			"0.008": 5.16065513519,
			"0.009": 3.97698363839,
			"0.01": 2.45954444084,
			"0.011": 2.11910855841,
			"0.012": 0.988670666814,
			"0.013": 0.946455762451,
			"0.014": 0.590404674163,
			"0.015": 0.0,
			"0.016": 0.0,
			"0.017": 0.0,
			"0.018": 0.0,
			"0.019": 0.0,
			"0.02": 0.0,
			"0.021": 0.0,
			"0.022": 0.0,
			"0.023": 0.0,
			"0.024": 0.0,
			"0.025": 0.0
		}
	}
}
