{
	 "smiles": "OC(=O)C1=CC2=C(N=C1)N(CC1=CC=CC=C1)C(=O)NC2=O", 
	 "Tm": 552.15, 
	 "num_atms": 33, 
	 "gaussian": { 
		 "optdone": 1, 
		 "sigma_profile": "no", 
		 "theory": "DFT", 
		 "functional": "B3LYP", 
		 "basiset": "6-31G**", 
		 "properties": { 
			 "R2extent": 7625.7715, 
			 "electric_dipole_moment_norm": 4.59862885434, 
			 "electric_quadrupole_moment_norm": 32.0125759932, 
			 "total_energy": -1043.43777893, 
			 "HOMO_LUMO_gap": 0.16952, 
			 "cosmo_polarized_energy": -66.1, 
			 "cosmo_cavitation_energy": 38.33, 
			 "cosmo_dispersion_energy": -27.44, 
			 "cosmo_repulsion_energy": 2.05, 
			 "cosmo_total_nonelectrostatic_energy": 12.93, 
			 "SMD_solvation_energy": 8.14 
		},
		"coords": [
			{
				"x": -3.3150138909,
				"y": 4.8878288094,
				"z": 0.4607489434,
				"element": "O" 
			},
			{
				"x": -3.5407665228,
				"y": 3.5526681,
				"z": 0.5804702414,
				"element": "C" 
			},
			{
				"x": -4.5886894688,
				"y": 3.1511149248,
				"z": 1.0255155391,
				"element": "O" 
			},
			{
				"x": -2.4412112673,
				"y": 2.6349755127,
				"z": 0.1469577725,
				"element": "C" 
			},
			{
				"x": -2.7408989137,
				"y": 1.2900678754,
				"z": -0.0882205953,
				"element": "C" 
			},
			{
				"x": -1.7300682519,
				"y": 0.4207908034,
				"z": -0.4747633372,
				"element": "C" 
			},
			{
				"x": -0.4118289467,
				"y": 0.9230414546,
				"z": -0.5956989103,
				"element": "C" 
			},
			{
				"x": -0.1092013292,
				"y": 2.2053971182,
				"z": -0.345853991,
				"element": "N" 
			},
			{
				"x": -1.099704297,
				"y": 3.0205250545,
				"z": 0.0115351756,
				"element": "C" 
			},
			{
				"x": 0.6228062905,
				"y": 0.0881525305,
				"z": -0.9886357911,
				"element": "N" 
			},
			{
				"x": 2.0172188785,
				"y": 0.5947364594,
				"z": -1.0943229243,
				"element": "C" 
			},
			{
				"x": 2.793436885,
				"y": 0.5072548426,
				"z": 0.2057155374,
				"element": "C" 
			},
			{
				"x": 3.38124657,
				"y": -0.7033632719,
				"z": 0.6002976652,
				"element": "C" 
			},
			{
				"x": 4.1023972366,
				"y": -0.7810682504,
				"z": 1.7919391012,
				"element": "C" 
			},
			{
				"x": 4.2488916681,
				"y": 0.3489534104,
				"z": 2.599690429,
				"element": "C" 
			},
			{
				"x": 3.6704947565,
				"y": 1.5581986148,
				"z": 2.2107140438,
				"element": "C" 
			},
			{
				"x": 2.945642705,
				"y": 1.6361634897,
				"z": 1.0203492401,
				"element": "C" 
			},
			{
				"x": 0.4173016124,
				"y": -1.2642755475,
				"z": -1.274878387,
				"element": "C" 
			},
			{
				"x": 1.3123434185,
				"y": -2.0145000323,
				"z": -1.6242324826,
				"element": "O" 
			},
			{
				"x": -0.8922767121,
				"y": -1.7144633383,
				"z": -1.1423598515,
				"element": "N" 
			},
			{
				"x": -2.0211972643,
				"y": -0.9969670071,
				"z": -0.7561020005,
				"element": "C" 
			},
			{
				"x": -3.1186985209,
				"y": -1.5196683902,
				"z": -0.6751616973,
				"element": "O" 
			},
			{
				"x": -2.5234361285,
				"y": 5.0604246598,
				"z": -0.0670418114,
				"element": "H" 
			},
			{
				"x": -3.7547022325,
				"y": 0.9207432038,
				"z": 0.0246438501,
				"element": "H" 
			},
			{
				"x": -0.7886089471,
				"y": 4.0420583928,
				"z": 0.2314867324,
				"element": "H" 
			},
			{
				"x": 2.4901539473,
				"y": -0.012734565,
				"z": -1.8654865573,
				"element": "H" 
			},
			{
				"x": 1.9504927753,
				"y": 1.6264982892,
				"z": -1.4351713884,
				"element": "H" 
			},
			{
				"x": 3.2670968225,
				"y": -1.5795720352,
				"z": -0.0306122646,
				"element": "H" 
			},
			{
				"x": 4.5553602234,
				"y": -1.723353677,
				"z": 2.0869262476,
				"element": "H" 
			},
			{
				"x": 4.8139018955,
				"y": 0.2878105138,
				"z": 3.5254763902,
				"element": "H" 
			},
			{
				"x": 3.784197878,
				"y": 2.4415853436,
				"z": 2.8327483284,
				"element": "H" 
			},
			{
				"x": 2.4880283521,
				"y": 2.5736144467,
				"z": 0.7193423391,
				"element": "H" 
			},
			{
				"x": -1.0245092214,
				"y": -2.6971377353,
				"z": -1.3514155864,
				"element": "H" 
			}
		],
		 "valence_orbital": [ 
			{
				"type": "occ",
				"energy": -0.28837,
				"method": "rhf"
			},
			{
				"type": "occ",
				"energy": -0.27901,
				"method": "rhf"
			},
			{
				"type": "occ",
				"energy": -0.26267,
				"method": "rhf"
			},
			{
				"type": "occ",
				"energy": -0.25546,
				"method": "rhf"
			},
			{
				"type": "occ",
				"energy": -0.25298,
				"method": "rhf"
			},
			{
				"type": "unocc",
				"energy": -0.08346,
				"method": "rhf"
			},
			{
				"type": "unocc",
				"energy": -0.07291,
				"method": "rhf"
			},
			{
				"type": "unocc",
				"energy": -0.01569,
				"method": "rhf"
			},
			{
				"type": "unocc",
				"energy": -0.00716,
				"method": "rhf"
			},
			{
				"type": "unocc",
				"energy": -0.00413,
				"method": "rhf"
			}
		],
		"cosmo_sigma_profile": { 
			"0.0": 0.0,
			"0.0": 0.0,
			"0.0": 0.0,
			"0.0": 0.0,
			"0.0": 0.0,
			"0.0": 0.0,
			"0.0": 0.0,
			"0.0": 0.0,
			"0.0": 0.0,
			"0.0": 0.0,
			"0.0": 0.0,
			"0.0": 0.0,
			"0.0": 0.0,
			"0.0": 0.0,
			"0.0": 0.0,
			"0.0": 0.0,
			"0.0": 0.0,
			"0.0": 0.0,
			"0.0": 0.0,
			"0.0": 0.0,
			"0.0": 0.0,
			"0.0": 0.0,
			"0.0": 0.0,
			"0.0": 0.0,
			"0.0": 0.0,
			"0.0": 0.0,
			"0.0": 0.0,
			"0.0": 0.0,
			"0.0": 0.0,
			"0.0": 0.0,
			"0.0": 0.0,
			"0.0": 0.0,
			"0.0": 0.0,
			"0.0": 0.0,
			"0.0": 0.0,
			"0.0": 0.0,
			"0.0": 0.0,
			"0.0": 0.0,
			"0.0": 0.0,
			"0.0": 0.0,
			"0.0": 0.0,
			"0.0": 0.0,
			"0.0": 0.0,
			"0.0": 0.0,
			"0.0": 0.0,
			"0.0": 0.0,
			"0.0": 0.0,
			"0.0": 0.0,
			"0.0": 0.0,
			"0.0": 0.0,
			"0.0": 0.0
		}
	}
}
