{
	 "smiles": "CC1=C(C=O)C=NN1C1=CC=C(F)C=C1", 
	 "Tm": 387.15, 
	 "num_atms": 24, 
	 "gaussian": { 
		 "optdone": 1, 
		 "sigma_profile": "yes", 
		 "theory": "DFT", 
		 "functional": "B3LYP", 
		 "basiset": "6-31G**", 
		 "properties": { 
			 "R2extent": 4955.26, 
			 "electric_dipole_moment_norm": 1.83448853362, 
			 "electric_quadrupole_moment_norm": 14.1150449294, 
			 "total_energy": -709.132162531, 
			 "HOMO_LUMO_gap": 0.19273, 
			 "cosmo_polarized_energy": -10.89, 
			 "cosmo_cavitation_energy": 29.18, 
			 "cosmo_dispersion_energy": -20.87, 
			 "cosmo_repulsion_energy": 1.58, 
			 "cosmo_total_nonelectrostatic_energy": 9.9, 
			 "SMD_solvation_energy": 5.97 
		},
		"coords": [
			{
				"x": -0.596389795,
				"y": -2.2436649689,
				"z": 0.471220157,
				"element": "C" 
			},
			{
				"x": -0.5634443395,
				"y": -0.7873458173,
				"z": 0.1385485716,
				"element": "C" 
			},
			{
				"x": -0.9500837244,
				"y": 0.3038471442,
				"z": 0.9256882862,
				"element": "C" 
			},
			{
				"x": -1.4683636457,
				"y": 0.2943740657,
				"z": 2.2862117041,
				"element": "C" 
			},
			{
				"x": -1.6390043079,
				"y": -0.6998748852,
				"z": 2.9773782862,
				"element": "O" 
			},
			{
				"x": -0.7681020546,
				"y": 1.4374848968,
				"z": 0.0903133617,
				"element": "C" 
			},
			{
				"x": -0.3109242404,
				"y": 1.1078930717,
				"z": -1.1032950685,
				"element": "N" 
			},
			{
				"x": -0.1802057219,
				"y": -0.2596159232,
				"z": -1.0594696258,
				"element": "N" 
			},
			{
				"x": 0.2642022789,
				"y": -0.9277052911,
				"z": -2.2375726176,
				"element": "C" 
			},
			{
				"x": 1.1871684925,
				"y": -1.975710334,
				"z": -2.1669956455,
				"element": "C" 
			},
			{
				"x": 1.6067108823,
				"y": -2.6137992446,
				"z": -3.3338508847,
				"element": "C" 
			},
			{
				"x": 1.1100025169,
				"y": -2.1752177851,
				"z": -4.5553860975,
				"element": "C" 
			},
			{
				"x": 1.5179358508,
				"y": -2.7860182559,
				"z": -5.6844830472,
				"element": "F" 
			},
			{
				"x": 0.2089145569,
				"y": -1.118503073,
				"z": -4.6465550127,
				"element": "C" 
			},
			{
				"x": -0.2181672058,
				"y": -0.4944081687,
				"z": -3.4783636473,
				"element": "C" 
			},
			{
				"x": -1.2935114018,
				"y": -2.3930318411,
				"z": 1.2961711434,
				"element": "H" 
			},
			{
				"x": -0.8943528411,
				"y": -2.847352597,
				"z": -0.3906124446,
				"element": "H" 
			},
			{
				"x": 0.3823198907,
				"y": -2.6029156491,
				"z": 0.8107342153,
				"element": "H" 
			},
			{
				"x": -1.7200818537,
				"y": 1.3031200038,
				"z": 2.6820904631,
				"element": "H" 
			},
			{
				"x": -0.9552695793,
				"y": 2.4776339589,
				"z": 0.3263822056,
				"element": "H" 
			},
			{
				"x": 1.5960697664,
				"y": -2.2810500657,
				"z": -1.211356177,
				"element": "H" 
			},
			{
				"x": 2.3218699499,
				"y": -3.4282025301,
				"z": -3.3055256193,
				"element": "H" 
			},
			{
				"x": -0.1497844155,
				"y": -0.8019516294,
				"z": -5.6196333358,
				"element": "H" 
			},
			{
				"x": -0.9145090585,
				"y": 0.3347149184,
				"z": -3.5128391707,
				"element": "H" 
			}
		],
		 "valence_orbital": [ 
			{
				"type": "occ",
				"energy": -0.29342,
				"method": "rhf"
			},
			{
				"type": "occ",
				"energy": -0.27832,
				"method": "rhf"
			},
			{
				"type": "occ",
				"energy": -0.25603,
				"method": "rhf"
			},
			{
				"type": "occ",
				"energy": -0.24962,
				"method": "rhf"
			},
			{
				"type": "occ",
				"energy": -0.24251,
				"method": "rhf"
			},
			{
				"type": "unocc",
				"energy": -0.04978,
				"method": "rhf"
			},
			{
				"type": "unocc",
				"energy": -0.02865,
				"method": "rhf"
			},
			{
				"type": "unocc",
				"energy": -0.01969,
				"method": "rhf"
			},
			{
				"type": "unocc",
				"energy": 0.01832,
				"method": "rhf"
			},
			{
				"type": "unocc",
				"energy": 0.07102,
				"method": "rhf"
			}
		],
		"cosmo_sigma_profile": { 
			"-0.025": 0.0,
			"-0.024": 0.0,
			"-0.023": 0.0,
			"-0.022": 0.0,
			"-0.021": 0.0,
			"-0.02": 0.0,
			"-0.019": 0.0,
			"-0.018": 0.0,
			"-0.017": 0.0,
			"-0.016": 0.0,
			"-0.015": 0.0,
			"-0.014": 0.0,
			"-0.013": 0.0,
			"-0.012": 0.0,
			"-0.011": 0.0,
			"-0.01": 0.0,
			"-0.009": 0.849573010978,
			"-0.008": 7.07363297464,
			"-0.007": 11.0784333844,
			"-0.006": 15.4443183162,
			"-0.005": 13.9398992824,
			"-0.004": 13.6503154983,
			"-0.003": 14.7498542511,
			"-0.002": 17.3193170728,
			"-0.001": 18.0290067912,
			"0.0": 20.3750416488,
			"0.001": 20.0870264893,
			"0.002": 21.5133956182,
			"0.003": 14.0026753291,
			"0.004": 14.0834593265,
			"0.005": 4.963553176,
			"0.006": 3.78972624942,
			"0.007": 2.47690112299,
			"0.008": 2.73546097114,
			"0.009": 3.84357993412,
			"0.01": 2.89340380169,
			"0.011": 4.45510209258,
			"0.012": 3.50356206695,
			"0.013": 2.8828571914,
			"0.014": 1.02784033283,
			"0.015": 0.0,
			"0.016": 0.0,
			"0.017": 0.0,
			"0.018": 0.0,
			"0.019": 0.0,
			"0.02": 0.0,
			"0.021": 0.0,
			"0.022": 0.0,
			"0.023": 0.0,
			"0.024": 0.0,
			"0.025": 0.0
		}
	}
}
