{
	 "smiles": "CNC1=C2C(=O)C3=C(C=CC=C3)C(=O)C2=C(NCCO)C=C1", 
	 "Tm": 460.15, 
	 "num_atms": 38, 
	 "gaussian": { 
		 "optdone": 1, 
		 "sigma_profile": "yes", 
		 "theory": "DFT", 
		 "functional": "B3LYP", 
		 "basiset": "6-31G**", 
		 "properties": { 
			 "R2extent": 7789.363, 
			 "electric_dipole_moment_norm": 3.80925450056, 
			 "electric_quadrupole_moment_norm": 29.0557163854, 
			 "total_energy": -992.630716811, 
			 "HOMO_LUMO_gap": 0.09707, 
			 "cosmo_polarized_energy": -18.93, 
			 "cosmo_cavitation_energy": 40.28, 
			 "cosmo_dispersion_energy": -29.38, 
			 "cosmo_repulsion_energy": 2.19, 
			 "cosmo_total_nonelectrostatic_energy": 13.09, 
			 "SMD_solvation_energy": 5.92 
		},
		"coords": [
			{
				"x": -2.9385527464,
				"y": -1.5854543852,
				"z": -2.7640486707,
				"element": "C" 
			},
			{
				"x": -2.8645174574,
				"y": -2.3156883296,
				"z": -1.5061322063,
				"element": "N" 
			},
			{
				"x": -1.8098001818,
				"y": -2.2777627792,
				"z": -0.6166661144,
				"element": "C" 
			},
			{
				"x": -1.0175487117,
				"y": -1.1472898025,
				"z": -0.3025810807,
				"element": "C" 
			},
			{
				"x": -1.485355871,
				"y": 0.217772414,
				"z": -0.6335301177,
				"element": "C" 
			},
			{
				"x": -2.6420627318,
				"y": 0.4587790516,
				"z": -0.9903474274,
				"element": "O" 
			},
			{
				"x": -0.52535503,
				"y": 1.3447649462,
				"z": -0.4740043183,
				"element": "C" 
			},
			{
				"x": 0.717715623,
				"y": 1.1523322467,
				"z": 0.1459139698,
				"element": "C" 
			},
			{
				"x": 1.6037213024,
				"y": 2.2306891317,
				"z": 0.2832704518,
				"element": "C" 
			},
			{
				"x": 1.2522823676,
				"y": 3.486314454,
				"z": -0.2001556895,
				"element": "C" 
			},
			{
				"x": 0.0069264718,
				"y": 3.6801262872,
				"z": -0.8136299434,
				"element": "C" 
			},
			{
				"x": -0.8797651368,
				"y": 2.6163378397,
				"z": -0.944045371,
				"element": "C" 
			},
			{
				"x": 1.0886826615,
				"y": -0.1735879794,
				"z": 0.69743486,
				"element": "C" 
			},
			{
				"x": 2.1681066518,
				"y": -0.277665189,
				"z": 1.3178800582,
				"element": "O" 
			},
			{
				"x": 0.1792046777,
				"y": -1.3068515424,
				"z": 0.4899711911,
				"element": "C" 
			},
			{
				"x": 0.4972735107,
				"y": -2.5684834567,
				"z": 1.0730444838,
				"element": "C" 
			},
			{
				"x": 1.6076542157,
				"y": -2.7418259134,
				"z": 1.8503208865,
				"element": "N" 
			},
			{
				"x": 2.0700254234,
				"y": -4.0040850249,
				"z": 2.3984302286,
				"element": "C" 
			},
			{
				"x": 3.1074253246,
				"y": -3.7279371877,
				"z": 3.4874864003,
				"element": "C" 
			},
			{
				"x": 2.5561014058,
				"y": -3.0393837748,
				"z": 4.593247543,
				"element": "O" 
			},
			{
				"x": -0.3961697928,
				"y": -3.6501653072,
				"z": 0.8406846593,
				"element": "C" 
			},
			{
				"x": -1.4855309992,
				"y": -3.5050200784,
				"z": 0.0248946112,
				"element": "C" 
			},
			{
				"x": -3.4751804888,
				"y": -2.2049695187,
				"z": -3.4880772658,
				"element": "H" 
			},
			{
				"x": -1.9344784764,
				"y": -1.3840448934,
				"z": -3.1593429757,
				"element": "H" 
			},
			{
				"x": -3.448528001,
				"y": -0.6275624804,
				"z": -2.6461439979,
				"element": "H" 
			},
			{
				"x": -3.3011171888,
				"y": -3.2246454822,
				"z": -1.5440822674,
				"element": "H" 
			},
			{
				"x": 2.5538986391,
				"y": 2.0563243681,
				"z": 0.7757412475,
				"element": "H" 
			},
			{
				"x": 1.9416764255,
				"y": 4.3193418165,
				"z": -0.0965336375,
				"element": "H" 
			},
			{
				"x": -0.2672210698,
				"y": 4.6631716263,
				"z": -1.1858321419,
				"element": "H" 
			},
			{
				"x": -1.8536947411,
				"y": 2.7391743825,
				"z": -1.4051204723,
				"element": "H" 
			},
			{
				"x": 2.2458471428,
				"y": -1.9443612642,
				"z": 1.8097647247,
				"element": "H" 
			},
			{
				"x": 1.234165571,
				"y": -4.5432433303,
				"z": 2.8582671339,
				"element": "H" 
			},
			{
				"x": 2.5051821717,
				"y": -4.6579801978,
				"z": 1.6242176224,
				"element": "H" 
			},
			{
				"x": 3.4924289625,
				"y": -4.6787157929,
				"z": 3.8687317961,
				"element": "H" 
			},
			{
				"x": 3.9600520024,
				"y": -3.180493911,
				"z": 3.0501286022,
				"element": "H" 
			},
			{
				"x": 2.1147546682,
				"y": -2.2515401157,
				"z": 4.2456167793,
				"element": "H" 
			},
			{
				"x": -0.1926699779,
				"y": -4.6191834496,
				"z": 1.2798763161,
				"element": "H" 
			},
			{
				"x": -2.1145766168,
				"y": -4.3711873778,
				"z": -0.171249868,
				"element": "H" 
			}
		],
		 "valence_orbital": [ 
			{
				"type": "occ",
				"energy": -0.2551,
				"method": "rhf"
			},
			{
				"type": "occ",
				"energy": -0.25442,
				"method": "rhf"
			},
			{
				"type": "occ",
				"energy": -0.2508,
				"method": "rhf"
			},
			{
				"type": "occ",
				"energy": -0.24018,
				"method": "rhf"
			},
			{
				"type": "occ",
				"energy": -0.1859,
				"method": "rhf"
			},
			{
				"type": "unocc",
				"energy": -0.08883,
				"method": "rhf"
			},
			{
				"type": "unocc",
				"energy": -0.03848,
				"method": "rhf"
			},
			{
				"type": "unocc",
				"energy": -0.01536,
				"method": "rhf"
			},
			{
				"type": "unocc",
				"energy": 0.01039,
				"method": "rhf"
			},
			{
				"type": "unocc",
				"energy": 0.0616,
				"method": "rhf"
			}
		],
		"cosmo_sigma_profile": { 
			"-0.025": 0.0,
			"-0.024": 0.0,
			"-0.023": 0.0,
			"-0.022": 0.0,
			"-0.021": 0.0,
			"-0.02": 0.0,
			"-0.019": 0.0,
			"-0.018": 0.0,
			"-0.017": 0.0,
			"-0.016": 0.0,
			"-0.015": 0.0,
			"-0.014": 0.604214139127,
			"-0.013": 2.13450484957,
			"-0.012": 2.7134438658,
			"-0.011": 1.80009944891,
			"-0.01": 2.33172075839,
			"-0.009": 3.61669099029,
			"-0.008": 3.71426815372,
			"-0.007": 8.53412122212,
			"-0.006": 13.4040266192,
			"-0.005": 23.4785409,
			"-0.004": 27.3504914185,
			"-0.003": 21.8745740703,
			"-0.002": 20.3461089058,
			"-0.001": 25.8841050647,
			"0.0": 21.5689183302,
			"0.001": 22.1686574839,
			"0.002": 29.3610530579,
			"0.003": 29.8616667886,
			"0.004": 12.3184849839,
			"0.005": 5.12186658894,
			"0.006": 4.93385547664,
			"0.007": 4.78799813548,
			"0.008": 4.09870944825,
			"0.009": 4.87195214942,
			"0.01": 4.77826599046,
			"0.011": 4.83022897426,
			"0.012": 5.45092937493,
			"0.013": 4.80915911977,
			"0.014": 3.14075357287,
			"0.015": 0.794116841882,
			"0.016": 0.0,
			"0.017": 0.0,
			"0.018": 0.0,
			"0.019": 0.0,
			"0.02": 0.0,
			"0.021": 0.0,
			"0.022": 0.0,
			"0.023": 0.0,
			"0.024": 0.0,
			"0.025": 0.0
		}
	}
}
