{
	 "smiles": "C(C1CCNCC1)C1=CC=CC=C1", 
	 "Tm": 289.95, 
	 "num_atms": 30, 
	 "gaussian": { 
		 "optdone": 1, 
		 "sigma_profile": "yes", 
		 "theory": "DFT", 
		 "functional": "B3LYP", 
		 "basiset": "6-31G**", 
		 "properties": { 
			 "R2extent": 3125.3122, 
			 "electric_dipole_moment_norm": 1.18361002446, 
			 "electric_quadrupole_moment_norm": 7.17359460452, 
			 "total_energy": -522.269781072, 
			 "HOMO_LUMO_gap": 0.2027, 
			 "cosmo_polarized_energy": -6.5, 
			 "cosmo_cavitation_energy": 29.99, 
			 "cosmo_dispersion_energy": -21.64, 
			 "cosmo_repulsion_energy": 1.71, 
			 "cosmo_total_nonelectrostatic_energy": 10.06, 
			 "SMD_solvation_energy": 1.76 
		},
		"coords": [
			{
				"x": 0.9278824992,
				"y": -0.6939740249,
				"z": 1.7069416302,
				"element": "C" 
			},
			{
				"x": 1.2658204676,
				"y": 0.6386302192,
				"z": 0.9792426809,
				"element": "C" 
			},
			{
				"x": 0.878560251,
				"y": 0.651904292,
				"z": -0.5300636195,
				"element": "C" 
			},
			{
				"x": -0.3063163329,
				"y": 1.5931254031,
				"z": -0.7992209993,
				"element": "C" 
			},
			{
				"x": -0.0651917538,
				"y": 2.9840926598,
				"z": -0.3826756846,
				"element": "N" 
			},
			{
				"x": 0.7873622656,
				"y": 3.1229074841,
				"z": 0.8131149839,
				"element": "C" 
			},
			{
				"x": 0.6805301829,
				"y": 1.8761446146,
				"z": 1.6943446706,
				"element": "C" 
			},
			{
				"x": -0.5310830309,
				"y": -1.1038922613,
				"z": 1.7397847358,
				"element": "C" 
			},
			{
				"x": -1.0682665302,
				"y": -1.9462647904,
				"z": 0.754165308,
				"element": "C" 
			},
			{
				"x": -2.4136686715,
				"y": -2.3176897909,
				"z": 0.7748229967,
				"element": "C" 
			},
			{
				"x": -3.2521376462,
				"y": -1.8592118683,
				"z": 1.7919641703,
				"element": "C" 
			},
			{
				"x": -2.7308227158,
				"y": -1.0351970242,
				"z": 2.7908749851,
				"element": "C" 
			},
			{
				"x": -1.3850998485,
				"y": -0.6665269275,
				"z": 2.7646379599,
				"element": "C" 
			},
			{
				"x": 1.2996041629,
				"y": -0.6168407908,
				"z": 2.7369645478,
				"element": "H" 
			},
			{
				"x": 1.5091133118,
				"y": -1.4920940299,
				"z": 1.2289463589,
				"element": "H" 
			},
			{
				"x": 2.359261892,
				"y": 0.7270241973,
				"z": 1.039244914,
				"element": "H" 
			},
			{
				"x": 1.7369274906,
				"y": 0.9883509336,
				"z": -1.1254020206,
				"element": "H" 
			},
			{
				"x": 0.6377003557,
				"y": -0.357537715,
				"z": -0.8820801845,
				"element": "H" 
			},
			{
				"x": -0.5593490969,
				"y": 1.5982825468,
				"z": -1.8648905229,
				"element": "H" 
			},
			{
				"x": -1.1925894064,
				"y": 1.208575916,
				"z": -0.2788298538,
				"element": "H" 
			},
			{
				"x": 0.3510228831,
				"y": 3.498460326,
				"z": -1.1516900061,
				"element": "H" 
			},
			{
				"x": 1.8512063876,
				"y": 3.2748977683,
				"z": 0.5561419407,
				"element": "H" 
			},
			{
				"x": 0.4747408054,
				"y": 4.0116174269,
				"z": 1.377445,
				"element": "H" 
			},
			{
				"x": 1.2053782165,
				"y": 2.0445506484,
				"z": 2.6421371173,
				"element": "H" 
			},
			{
				"x": -0.3743469137,
				"y": 1.7142505947,
				"z": 1.9428124565,
				"element": "H" 
			},
			{
				"x": -0.4207623286,
				"y": -2.3283824905,
				"z": -0.0310596666,
				"element": "H" 
			},
			{
				"x": -2.8040335907,
				"y": -2.9724335456,
				"z": 0.0004724645,
				"element": "H" 
			},
			{
				"x": -4.2985425776,
				"y": -2.1499043256,
				"z": 1.8122383826,
				"element": "H" 
			},
			{
				"x": -3.3701217435,
				"y": -0.6839830757,
				"z": 3.5961971762,
				"element": "H" 
			},
			{
				"x": -0.9867789848,
				"y": -0.0393823699,
				"z": 3.5581180779,
				"element": "H" 
			}
		],
		 "valence_orbital": [ 
			{
				"type": "occ",
				"energy": -0.30256,
				"method": "rhf"
			},
			{
				"type": "occ",
				"energy": -0.3008,
				"method": "rhf"
			},
			{
				"type": "occ",
				"energy": -0.24544,
				"method": "rhf"
			},
			{
				"type": "occ",
				"energy": -0.23685,
				"method": "rhf"
			},
			{
				"type": "occ",
				"energy": -0.2014,
				"method": "rhf"
			},
			{
				"type": "unocc",
				"energy": 0.0013,
				"method": "rhf"
			},
			{
				"type": "unocc",
				"energy": 0.00234,
				"method": "rhf"
			},
			{
				"type": "unocc",
				"energy": 0.07616,
				"method": "rhf"
			},
			{
				"type": "unocc",
				"energy": 0.09321,
				"method": "rhf"
			},
			{
				"type": "unocc",
				"energy": 0.11251,
				"method": "rhf"
			}
		],
		"cosmo_sigma_profile": { 
			"-0.025": 0.0,
			"-0.024": 0.0,
			"-0.023": 0.0,
			"-0.022": 0.0,
			"-0.021": 0.0,
			"-0.02": 0.0,
			"-0.019": 0.0,
			"-0.018": 0.0,
			"-0.017": 0.0,
			"-0.016": 0.0,
			"-0.015": 0.0,
			"-0.014": 0.0,
			"-0.013": 0.0,
			"-0.012": 0.0,
			"-0.011": 0.0,
			"-0.01": 0.162602048974,
			"-0.009": 1.26497719013,
			"-0.008": 1.33159467544,
			"-0.007": 1.06011710594,
			"-0.006": 2.06401737259,
			"-0.005": 10.426405945,
			"-0.004": 14.1859014027,
			"-0.003": 24.4200141792,
			"-0.002": 31.9505871684,
			"-0.001": 36.9617286615,
			"0.0": 29.355727995,
			"0.001": 20.7198433111,
			"0.002": 12.1086170934,
			"0.003": 10.3124180818,
			"0.004": 9.28131139472,
			"0.005": 8.96275572206,
			"0.006": 8.48411496489,
			"0.007": 2.8859700167,
			"0.008": 1.17008353655,
			"0.009": 0.500002063314,
			"0.01": 0.570483664563,
			"0.011": 0.685638504609,
			"0.012": 0.832520716116,
			"0.013": 0.684887583284,
			"0.014": 0.164555588921,
			"0.015": 0.459192664864,
			"0.016": 0.791241199114,
			"0.017": 0.643606285306,
			"0.018": 0.471468337608,
			"0.019": 0.436349069004,
			"0.02": 0.087145789217,
			"0.021": 0.0,
			"0.022": 0.0,
			"0.023": 0.0,
			"0.024": 0.0,
			"0.025": 0.0
		}
	}
}
