{
	 "smiles": "NS(=O)(=O)C1=CC=C(C=C1)S(Cl)(=O)=O", 
	 "Tm": 418.15, 
	 "num_atms": 20, 
	 "gaussian": { 
		 "optdone": 1, 
		 "sigma_profile": "yes", 
		 "theory": "DFT", 
		 "functional": "B3LYP", 
		 "basiset": "6-31G**", 
		 "properties": { 
			 "R2extent": 5573.3768, 
			 "electric_dipole_moment_norm": 4.24850817229, 
			 "electric_quadrupole_moment_norm": 18.6697807285, 
			 "total_energy": -1844.32517991, 
			 "HOMO_LUMO_gap": 0.19383, 
			 "cosmo_polarized_energy": -18.48, 
			 "cosmo_cavitation_energy": 29.89, 
			 "cosmo_dispersion_energy": -22.89, 
			 "cosmo_repulsion_energy": 1.72, 
			 "cosmo_total_nonelectrostatic_energy": 8.71, 
			 "SMD_solvation_energy": 3.48 
		},
		"coords": [
			{
				"x": -0.0465675739,
				"y": 3.0204854962,
				"z": -1.3261869294,
				"element": "N" 
			},
			{
				"x": 1.4108654635,
				"y": 2.4893764125,
				"z": -0.6606399998,
				"element": "S" 
			},
			{
				"x": 2.3687973422,
				"y": 2.346507347,
				"z": -1.7585258994,
				"element": "O" 
			},
			{
				"x": 1.6748795292,
				"y": 3.3052582686,
				"z": 0.5259642504,
				"element": "O" 
			},
			{
				"x": 1.0076820631,
				"y": 0.830084656,
				"z": -0.086705332,
				"element": "C" 
			},
			{
				"x": 0.5332273868,
				"y": 0.6613761047,
				"z": 1.2151835643,
				"element": "C" 
			},
			{
				"x": 0.2187411842,
				"y": -0.6206529802,
				"z": 1.6621488423,
				"element": "C" 
			},
			{
				"x": 0.3964061619,
				"y": -1.6919559065,
				"z": 0.7861844602,
				"element": "C" 
			},
			{
				"x": 0.8805071345,
				"y": -1.5337859943,
				"z": -0.5127266729,
				"element": "C" 
			},
			{
				"x": 1.192887425,
				"y": -0.2488463786,
				"z": -0.9527791627,
				"element": "C" 
			},
			{
				"x": -0.031460791,
				"y": -3.3397486381,
				"z": 1.3477546571,
				"element": "S" 
			},
			{
				"x": 1.8183348934,
				"y": -3.9804880445,
				"z": 2.1809425003,
				"element": "Cl" 
			},
			{
				"x": -0.9691582193,
				"y": -3.236649593,
				"z": 2.458014132,
				"element": "O" 
			},
			{
				"x": -0.2776084653,
				"y": -4.1891367235,
				"z": 0.1899446418,
				"element": "O" 
			},
			{
				"x": -0.3808619177,
				"y": 3.8373518595,
				"z": -0.8218270278,
				"element": "H" 
			},
			{
				"x": 0.073308222,
				"y": 3.2089460472,
				"z": -2.3179098608,
				"element": "H" 
			},
			{
				"x": 0.4267427179,
				"y": 1.5197170638,
				"z": 1.8689278732,
				"element": "H" 
			},
			{
				"x": -0.1597738573,
				"y": -0.7885846482,
				"z": 2.664032406,
				"element": "H" 
			},
			{
				"x": 1.0038984226,
				"y": -2.3943202873,
				"z": -1.1604149102,
				"element": "H" 
			},
			{
				"x": 1.5883528782,
				"y": -0.0831340615,
				"z": -1.9485815326,
				"element": "H" 
			}
		],
		 "valence_orbital": [ 
			{
				"type": "occ",
				"energy": -0.3275,
				"method": "rhf"
			},
			{
				"type": "occ",
				"energy": -0.32555,
				"method": "rhf"
			},
			{
				"type": "occ",
				"energy": -0.3223,
				"method": "rhf"
			},
			{
				"type": "occ",
				"energy": -0.30428,
				"method": "rhf"
			},
			{
				"type": "occ",
				"energy": -0.29695,
				"method": "rhf"
			},
			{
				"type": "unocc",
				"energy": -0.10312,
				"method": "rhf"
			},
			{
				"type": "unocc",
				"energy": -0.06622,
				"method": "rhf"
			},
			{
				"type": "unocc",
				"energy": -0.05433,
				"method": "rhf"
			},
			{
				"type": "unocc",
				"energy": 0.03006,
				"method": "rhf"
			},
			{
				"type": "unocc",
				"energy": 0.03528,
				"method": "rhf"
			}
		],
		"cosmo_sigma_profile": { 
			"-0.025": 0.0,
			"-0.024": 0.0,
			"-0.023": 0.0,
			"-0.022": 0.0,
			"-0.021": 0.0,
			"-0.02": 0.0,
			"-0.019": 0.0,
			"-0.018": 0.0,
			"-0.017": 0.0,
			"-0.016": 0.239861410085,
			"-0.015": 2.02605910157,
			"-0.014": 2.49192121593,
			"-0.013": 3.07322977671,
			"-0.012": 2.10483346505,
			"-0.011": 1.67461937547,
			"-0.01": 2.4658041253,
			"-0.009": 7.33218065197,
			"-0.008": 8.91778476069,
			"-0.007": 8.81223571602,
			"-0.006": 10.7004813286,
			"-0.005": 8.68713316197,
			"-0.004": 9.54220400615,
			"-0.003": 10.6733358862,
			"-0.002": 16.33750361,
			"-0.001": 21.9282340424,
			"0.0": 15.0501578711,
			"0.001": 11.9053170781,
			"0.002": 13.9311612256,
			"0.003": 16.3574439411,
			"0.004": 7.66497807191,
			"0.005": 5.93208706484,
			"0.006": 8.12302864386,
			"0.007": 10.7954254147,
			"0.008": 11.6504200068,
			"0.009": 7.95518863846,
			"0.01": 8.90580782522,
			"0.011": 7.17368386811,
			"0.012": 0.119496635126,
			"0.013": 0.0,
			"0.014": 0.0,
			"0.015": 0.0,
			"0.016": 0.0,
			"0.017": 0.0,
			"0.018": 0.0,
			"0.019": 0.0,
			"0.02": 0.0,
			"0.021": 0.0,
			"0.022": 0.0,
			"0.023": 0.0,
			"0.024": 0.0,
			"0.025": 0.0
		}
	}
}
