{
	 "smiles": "OC(=O)CN1N=NC(COC2=CC=CC=C2)=N1", 
	 "Tm": 385.15, 
	 "num_atms": 27, 
	 "gaussian": { 
		 "optdone": 1, 
		 "sigma_profile": "yes", 
		 "theory": "DFT", 
		 "functional": "B3LYP", 
		 "basiset": "6-31G**", 
		 "properties": { 
			 "R2extent": 5214.9799, 
			 "electric_dipole_moment_norm": 0.813230533121, 
			 "electric_quadrupole_moment_norm": 11.4264711224, 
			 "total_energy": -831.711018746, 
			 "HOMO_LUMO_gap": 0.17773, 
			 "cosmo_polarized_energy": -17.54, 
			 "cosmo_cavitation_energy": 33.25, 
			 "cosmo_dispersion_energy": -23.25, 
			 "cosmo_repulsion_energy": 1.84, 
			 "cosmo_total_nonelectrostatic_energy": 11.83, 
			 "SMD_solvation_energy": 4.84 
		},
		"coords": [
			{
				"x": -2.699930425,
				"y": -0.3843929564,
				"z": -2.3470258256,
				"element": "O" 
			},
			{
				"x": -2.9989796263,
				"y": 0.7713420152,
				"z": -2.9586074616,
				"element": "C" 
			},
			{
				"x": -4.1145959959,
				"y": 1.139327683,
				"z": -3.2381377635,
				"element": "O" 
			},
			{
				"x": -1.7613929235,
				"y": 1.5918073501,
				"z": -3.3168057603,
				"element": "C" 
			},
			{
				"x": -0.5404265518,
				"y": 1.1727101608,
				"z": -2.6616953691,
				"element": "N" 
			},
			{
				"x": 0.3773238609,
				"y": 0.4183447011,
				"z": -3.2681025407,
				"element": "N" 
			},
			{
				"x": 1.2957188981,
				"y": 0.1851735741,
				"z": -2.3670521237,
				"element": "N" 
			},
			{
				"x": 0.8930123512,
				"y": 0.8107232213,
				"z": -1.2287829895,
				"element": "C" 
			},
			{
				"x": 1.6772490928,
				"y": 0.7969401407,
				"z": 0.0518525498,
				"element": "C" 
			},
			{
				"x": 1.0110483045,
				"y": 0.1451897146,
				"z": 1.1252858717,
				"element": "O" 
			},
			{
				"x": 0.9997787405,
				"y": -1.2279653479,
				"z": 1.1837665283,
				"element": "C" 
			},
			{
				"x": 0.4228905666,
				"y": -1.7629629348,
				"z": 2.3442413277,
				"element": "C" 
			},
			{
				"x": 0.3670231815,
				"y": -3.1413894316,
				"z": 2.5200309131,
				"element": "C" 
			},
			{
				"x": 0.883786457,
				"y": -4.0022839579,
				"z": 1.5458350397,
				"element": "C" 
			},
			{
				"x": 1.4508891045,
				"y": -3.4624149382,
				"z": 0.3937201451,
				"element": "C" 
			},
			{
				"x": 1.5136073658,
				"y": -2.0782311528,
				"z": 0.1986746476,
				"element": "C" 
			},
			{
				"x": -0.2655032361,
				"y": 1.4457626001,
				"z": -1.3903766895,
				"element": "N" 
			},
			{
				"x": -3.541343665,
				"y": -0.8375566631,
				"z": -2.1676642633,
				"element": "H" 
			},
			{
				"x": -1.9642696676,
				"y": 2.6347008572,
				"z": -3.0694570226,
				"element": "H" 
			},
			{
				"x": -1.595498855,
				"y": 1.510360614,
				"z": -4.3936068442,
				"element": "H" 
			},
			{
				"x": 2.6593252426,
				"y": 0.3526394702,
				"z": -0.1447033058,
				"element": "H" 
			},
			{
				"x": 1.8220646916,
				"y": 1.822894794,
				"z": 0.3990516842,
				"element": "H" 
			},
			{
				"x": 0.0322011166,
				"y": -1.0789406397,
				"z": 3.0906108492,
				"element": "H" 
			},
			{
				"x": -0.0795604192,
				"y": -3.5456803241,
				"z": 3.4241929241,
				"element": "H" 
			},
			{
				"x": 0.8405728724,
				"y": -5.0781143165,
				"z": 1.6848044893,
				"element": "H" 
			},
			{
				"x": 1.8496539991,
				"y": -4.1179758549,
				"z": -0.3754122158,
				"element": "H" 
			},
			{
				"x": 1.9374555198,
				"y": -1.6891083785,
				"z": -0.7193367946,
				"element": "H" 
			}
		],
		 "valence_orbital": [ 
			{
				"type": "occ",
				"energy": -0.31195,
				"method": "rhf"
			},
			{
				"type": "occ",
				"energy": -0.3022,
				"method": "rhf"
			},
			{
				"type": "occ",
				"energy": -0.28996,
				"method": "rhf"
			},
			{
				"type": "occ",
				"energy": -0.24678,
				"method": "rhf"
			},
			{
				"type": "occ",
				"energy": -0.21898,
				"method": "rhf"
			},
			{
				"type": "unocc",
				"energy": -0.04125,
				"method": "rhf"
			},
			{
				"type": "unocc",
				"energy": -0.01728,
				"method": "rhf"
			},
			{
				"type": "unocc",
				"energy": 0.00201,
				"method": "rhf"
			},
			{
				"type": "unocc",
				"energy": 0.00931,
				"method": "rhf"
			},
			{
				"type": "unocc",
				"energy": 0.0154,
				"method": "rhf"
			}
		],
		"cosmo_sigma_profile": { 
			"-0.025": 0.0,
			"-0.024": 0.0,
			"-0.023": 0.0,
			"-0.022": 0.0,
			"-0.021": 0.0,
			"-0.02": 0.165098916411,
			"-0.019": 1.13911963192,
			"-0.018": 1.02748221129,
			"-0.017": 0.737454038752,
			"-0.016": 0.772684535464,
			"-0.015": 0.711882070493,
			"-0.014": 0.58564388328,
			"-0.013": 0.690472769232,
			"-0.012": 0.909848988717,
			"-0.011": 3.17731541327,
			"-0.01": 4.12065603407,
			"-0.009": 5.21364765709,
			"-0.008": 6.72867038728,
			"-0.007": 9.15107107308,
			"-0.006": 14.0018868678,
			"-0.005": 17.3446758856,
			"-0.004": 17.297936275,
			"-0.003": 16.5367594638,
			"-0.002": 13.141739011,
			"-0.001": 11.9883602047,
			"0.0": 12.7483187023,
			"0.001": 12.332173133,
			"0.002": 13.5841851649,
			"0.003": 16.3237821702,
			"0.004": 15.8366479993,
			"0.005": 17.9253102366,
			"0.006": 15.8640551708,
			"0.007": 6.03273277015,
			"0.008": 6.54896376084,
			"0.009": 7.5604643754,
			"0.01": 7.02114843411,
			"0.011": 6.85502176094,
			"0.012": 1.53994591254,
			"0.013": 0.63913788162,
			"0.014": 0.0,
			"0.015": 0.0,
			"0.016": 0.0,
			"0.017": 0.0,
			"0.018": 0.0,
			"0.019": 0.0,
			"0.02": 0.0,
			"0.021": 0.0,
			"0.022": 0.0,
			"0.023": 0.0,
			"0.024": 0.0,
			"0.025": 0.0
		}
	}
}
