{
	 "smiles": "CC1=C(O)C=CC(=C1)C#N", 
	 "Tm": 363.15, 
	 "num_atms": 17, 
	 "gaussian": { 
		 "optdone": 1, 
		 "sigma_profile": "yes", 
		 "theory": "DFT", 
		 "functional": "B3LYP", 
		 "basiset": "6-31G**", 
		 "properties": { 
			 "R2extent": 1884.1831, 
			 "electric_dipole_moment_norm": 5.48294624723, 
			 "electric_quadrupole_moment_norm": 20.7767290217, 
			 "total_energy": -439.034446518, 
			 "HOMO_LUMO_gap": 0.2, 
			 "cosmo_polarized_energy": -13.46, 
			 "cosmo_cavitation_energy": 22.2, 
			 "cosmo_dispersion_energy": -15.84, 
			 "cosmo_repulsion_energy": 1.29, 
			 "cosmo_total_nonelectrostatic_energy": 7.65, 
			 "SMD_solvation_energy": 5.69 
		},
		"coords": [
			{
				"x": 0.6730788334,
				"y": -0.7111941713,
				"z": -1.3541429394,
				"element": "C" 
			},
			{
				"x": 0.3867968196,
				"y": -0.2243466031,
				"z": 0.0425130474,
				"element": "C" 
			},
			{
				"x": 1.2329694128,
				"y": -0.5992230353,
				"z": 1.1065423353,
				"element": "C" 
			},
			{
				"x": 2.2873089727,
				"y": -1.4025951877,
				"z": 0.7917040032,
				"element": "O" 
			},
			{
				"x": 0.9905508981,
				"y": -0.1616371784,
				"z": 2.4128854339,
				"element": "C" 
			},
			{
				"x": -0.0989493705,
				"y": 0.6576284877,
				"z": 2.685599102,
				"element": "C" 
			},
			{
				"x": -0.9551718776,
				"y": 1.0440975127,
				"z": 1.6439200793,
				"element": "C" 
			},
			{
				"x": -0.6984990988,
				"y": 0.5958829755,
				"z": 0.334272097,
				"element": "C" 
			},
			{
				"x": -2.0813181809,
				"y": 1.8874551795,
				"z": 1.9088255909,
				"element": "C" 
			},
			{
				"x": -2.9967387488,
				"y": 2.5731544881,
				"z": 2.1248589766,
				"element": "N" 
			},
			{
				"x": 1.6641917587,
				"y": -0.3874387559,
				"z": -1.689797098,
				"element": "H" 
			},
			{
				"x": 0.6699552024,
				"y": -1.805611808,
				"z": -1.3992430065,
				"element": "H" 
			},
			{
				"x": -0.0711205432,
				"y": -0.333969242,
				"z": -2.0594980591,
				"element": "H" 
			},
			{
				"x": 2.796427848,
				"y": -1.5958471724,
				"z": 1.589953448,
				"element": "H" 
			},
			{
				"x": 1.6577221344,
				"y": -0.4643746737,
				"z": 3.2168238127,
				"element": "H" 
			},
			{
				"x": -0.2890769684,
				"y": 0.9982160444,
				"z": 3.6976098539,
				"element": "H" 
			},
			{
				"x": -1.3652270919,
				"y": 0.8988031399,
				"z": -0.4672266771,
				"element": "H" 
			}
		],
		 "valence_orbital": [ 
			{
				"type": "occ",
				"energy": -0.34946,
				"method": "rhf"
			},
			{
				"type": "occ",
				"energy": -0.32271,
				"method": "rhf"
			},
			{
				"type": "occ",
				"energy": -0.32228,
				"method": "rhf"
			},
			{
				"type": "occ",
				"energy": -0.26858,
				"method": "rhf"
			},
			{
				"type": "occ",
				"energy": -0.23707,
				"method": "rhf"
			},
			{
				"type": "unocc",
				"energy": -0.03707,
				"method": "rhf"
			},
			{
				"type": "unocc",
				"energy": -0.02039,
				"method": "rhf"
			},
			{
				"type": "unocc",
				"energy": 0.04245,
				"method": "rhf"
			},
			{
				"type": "unocc",
				"energy": 0.0531,
				"method": "rhf"
			},
			{
				"type": "unocc",
				"energy": 0.08416,
				"method": "rhf"
			}
		],
		"cosmo_sigma_profile": { 
			"-0.025": 0.0,
			"-0.024": 0.0,
			"-0.023": 0.0,
			"-0.022": 0.0,
			"-0.021": 0.0,
			"-0.02": 0.0,
			"-0.019": 0.108694398267,
			"-0.018": 1.21154091222,
			"-0.017": 1.24921944834,
			"-0.016": 1.03834577588,
			"-0.015": 1.15426870709,
			"-0.014": 1.09374976255,
			"-0.013": 0.981232397023,
			"-0.012": 0.898495873166,
			"-0.011": 1.09783357396,
			"-0.01": 0.839145683736,
			"-0.009": 1.42030273223,
			"-0.008": 2.68630045361,
			"-0.007": 6.30990480057,
			"-0.006": 7.3372194557,
			"-0.005": 8.84614874473,
			"-0.004": 9.16046715981,
			"-0.003": 10.1422705896,
			"-0.002": 10.71395904,
			"-0.001": 12.8407005526,
			"0.0": 17.5181957903,
			"0.001": 14.1915262919,
			"0.002": 15.1259039436,
			"0.003": 13.4646178368,
			"0.004": 4.1264746872,
			"0.005": 3.65779126355,
			"0.006": 4.34726525244,
			"0.007": 3.61079431329,
			"0.008": 4.66736923553,
			"0.009": 5.20910839448,
			"0.01": 4.08621061275,
			"0.011": 3.38858908898,
			"0.012": 2.48473374601,
			"0.013": 2.39404924387,
			"0.014": 0.628103826293,
			"0.015": 0.0,
			"0.016": 0.0,
			"0.017": 0.0,
			"0.018": 0.0,
			"0.019": 0.0,
			"0.02": 0.0,
			"0.021": 0.0,
			"0.022": 0.0,
			"0.023": 0.0,
			"0.024": 0.0,
			"0.025": 0.0
		}
	}
}
