{
	 "smiles": "CC1CC(CC(C)O1)C1=CC(O)=C(C=C1)[N+]([O-])=O", 
	 "Tm": 403.15, 
	 "num_atms": 35, 
	 "gaussian": { 
		 "optdone": 1, 
		 "sigma_profile": "yes", 
		 "theory": "DFT", 
		 "functional": "B3LYP", 
		 "basiset": "6-31G**", 
		 "properties": { 
			 "R2extent": 7677.922, 
			 "electric_dipole_moment_norm": 3.64185488591, 
			 "electric_quadrupole_moment_norm": 24.3598666989, 
			 "total_energy": -861.191411475, 
			 "HOMO_LUMO_gap": 0.14985, 
			 "cosmo_polarized_energy": -10.51, 
			 "cosmo_cavitation_energy": 36.96, 
			 "cosmo_dispersion_energy": -26.53, 
			 "cosmo_repulsion_energy": 2.05, 
			 "cosmo_total_nonelectrostatic_energy": 12.48, 
			 "SMD_solvation_energy": 8.17 
		},
		"coords": [
			{
				"x": 0.1846776221,
				"y": 1.0686313634,
				"z": -3.246635795,
				"element": "C" 
			},
			{
				"x": 0.9706926038,
				"y": 0.8802173077,
				"z": -1.9573212894,
				"element": "C" 
			},
			{
				"x": 0.2912622375,
				"y": -0.1045749541,
				"z": -0.9729044143,
				"element": "C" 
			},
			{
				"x": 0.5087268518,
				"y": 0.3506718618,
				"z": 0.4923797437,
				"element": "C" 
			},
			{
				"x": 1.9271601547,
				"y": 0.9421873924,
				"z": 0.630578882,
				"element": "C" 
			},
			{
				"x": 2.0805302071,
				"y": 2.1783360566,
				"z": -0.2995472287,
				"element": "C" 
			},
			{
				"x": 1.9010543666,
				"y": 3.5011001926,
				"z": 0.4350738141,
				"element": "C" 
			},
			{
				"x": 1.1060799732,
				"y": 2.1628121145,
				"z": -1.3464595405,
				"element": "O" 
			},
			{
				"x": 0.2269576231,
				"y": -0.7482595132,
				"z": 1.4994760146,
				"element": "C" 
			},
			{
				"x": 0.989926145,
				"y": -1.9132156719,
				"z": 1.526794353,
				"element": "C" 
			},
			{
				"x": 0.7474268288,
				"y": -2.9369101879,
				"z": 2.4560677903,
				"element": "C" 
			},
			{
				"x": 1.5255371967,
				"y": -4.0227416479,
				"z": 2.4178976719,
				"element": "O" 
			},
			{
				"x": -0.3121742927,
				"y": -2.7550563677,
				"z": 3.3814849173,
				"element": "C" 
			},
			{
				"x": -1.0871148232,
				"y": -1.5858438565,
				"z": 3.3615892818,
				"element": "C" 
			},
			{
				"x": -0.8207496259,
				"y": -0.5965778996,
				"z": 2.4348693491,
				"element": "C" 
			},
			{
				"x": -0.6186497507,
				"y": -3.7656708567,
				"z": 4.3637276306,
				"element": "N" 
			},
			{
				"x": -1.5406181531,
				"y": -3.5805663766,
				"z": 5.1505606107,
				"element": "O" 
			},
			{
				"x": 0.0782043137,
				"y": -4.8097911783,
				"z": 4.377202373,
				"element": "O" 
			},
			{
				"x": -0.796001936,
				"y": 1.5033463793,
				"z": -3.027780131,
				"element": "H" 
			},
			{
				"x": 0.7143853022,
				"y": 1.7396818881,
				"z": -3.9282695664,
				"element": "H" 
			},
			{
				"x": 0.0325428535,
				"y": 0.1076207928,
				"z": -3.7485968431,
				"element": "H" 
			},
			{
				"x": 1.9778066788,
				"y": 0.5027916999,
				"z": -2.2054788156,
				"element": "H" 
			},
			{
				"x": -0.7845823812,
				"y": -0.1650582246,
				"z": -1.1748032908,
				"element": "H" 
			},
			{
				"x": 0.6971527233,
				"y": -1.1116232988,
				"z": -1.1240803611,
				"element": "H" 
			},
			{
				"x": -0.1999062358,
				"y": 1.1626954968,
				"z": 0.688091169,
				"element": "H" 
			},
			{
				"x": 2.1238305301,
				"y": 1.2282343761,
				"z": 1.6693038799,
				"element": "H" 
			},
			{
				"x": 2.6670078822,
				"y": 0.1750279742,
				"z": 0.3734387315,
				"element": "H" 
			},
			{
				"x": 3.0842115111,
				"y": 2.1539074158,
				"z": -0.7575277907,
				"element": "H" 
			},
			{
				"x": 1.9293484703,
				"y": 4.3331107704,
				"z": -0.2738479112,
				"element": "H" 
			},
			{
				"x": 0.937539392,
				"y": 3.529563948,
				"z": 0.9549200236,
				"element": "H" 
			},
			{
				"x": 2.6973555637,
				"y": 3.6425217762,
				"z": 1.1724451481,
				"element": "H" 
			},
			{
				"x": 1.8042918803,
				"y": -2.0731733458,
				"z": 0.8279180986,
				"element": "H" 
			},
			{
				"x": 1.2017903419,
				"y": -4.6170942569,
				"z": 3.1378660126,
				"element": "H" 
			},
			{
				"x": -1.88668135,
				"y": -1.4890351181,
				"z": 4.0856179749,
				"element": "H" 
			},
			{
				"x": -1.4229207048,
				"y": 0.3064339479,
				"z": 2.4236495077,
				"element": "H" 
			}
		],
		 "valence_orbital": [ 
			{
				"type": "occ",
				"energy": -0.30368,
				"method": "rhf"
			},
			{
				"type": "occ",
				"energy": -0.30104,
				"method": "rhf"
			},
			{
				"type": "occ",
				"energy": -0.27273,
				"method": "rhf"
			},
			{
				"type": "occ",
				"energy": -0.25345,
				"method": "rhf"
			},
			{
				"type": "occ",
				"energy": -0.24616,
				"method": "rhf"
			},
			{
				"type": "unocc",
				"energy": -0.09631,
				"method": "rhf"
			},
			{
				"type": "unocc",
				"energy": -0.01596,
				"method": "rhf"
			},
			{
				"type": "unocc",
				"energy": 0.00074,
				"method": "rhf"
			},
			{
				"type": "unocc",
				"energy": 0.07022,
				"method": "rhf"
			},
			{
				"type": "unocc",
				"energy": 0.08147,
				"method": "rhf"
			}
		],
		"cosmo_sigma_profile": { 
			"-0.025": 0.0,
			"-0.024": 0.0,
			"-0.023": 0.0,
			"-0.022": 0.0,
			"-0.021": 0.0,
			"-0.02": 0.0,
			"-0.019": 0.0,
			"-0.018": 0.0,
			"-0.017": 0.0,
			"-0.016": 0.0,
			"-0.015": 0.0,
			"-0.014": 0.0,
			"-0.013": 0.0,
			"-0.012": 0.0,
			"-0.011": 0.0,
			"-0.01": 0.203850021962,
			"-0.009": 0.695779023704,
			"-0.008": 0.60953254717,
			"-0.007": 4.61607491933,
			"-0.006": 11.4454913412,
			"-0.005": 11.9845758251,
			"-0.004": 17.9457894508,
			"-0.003": 40.123311015,
			"-0.002": 38.1441426658,
			"-0.001": 30.5534897582,
			"0.0": 29.4797890152,
			"0.001": 26.2762169743,
			"0.002": 17.2964993295,
			"0.003": 9.35271446996,
			"0.004": 6.10709008099,
			"0.005": 5.20276263712,
			"0.006": 6.22182647629,
			"0.007": 9.57727358097,
			"0.008": 7.28046431024,
			"0.009": 6.8481723149,
			"0.01": 5.33180630043,
			"0.011": 1.72318447782,
			"0.012": 1.42593106299,
			"0.013": 1.18748009237,
			"0.014": 0.214685349727,
			"0.015": 0.0,
			"0.016": 0.0,
			"0.017": 0.0,
			"0.018": 0.0,
			"0.019": 0.0,
			"0.02": 0.0,
			"0.021": 0.0,
			"0.022": 0.0,
			"0.023": 0.0,
			"0.024": 0.0,
			"0.025": 0.0
		}
	}
}
