{
	 "smiles": "FC(F)(F)C(Cl)=C(Cl)C(F)(F)F", 
	 "Tm": 205.85, 
	 "num_atms": 12, 
	 "gaussian": { 
		 "optdone": 1, 
		 "sigma_profile": "yes", 
		 "theory": "DFT", 
		 "functional": "B3LYP", 
		 "basiset": "6-31G**", 
		 "properties": { 
			 "R2extent": 2582.067, 
			 "electric_dipole_moment_norm": 0.0, 
			 "electric_quadrupole_moment_norm": 3.06502853657, 
			 "total_energy": -1671.80866734, 
			 "HOMO_LUMO_gap": 0.21326, 
			 "cosmo_polarized_energy": -1.96, 
			 "cosmo_cavitation_energy": 22.9, 
			 "cosmo_dispersion_energy": -16.16, 
			 "cosmo_repulsion_energy": 1.19, 
			 "cosmo_total_nonelectrostatic_energy": 7.93, 
			 "SMD_solvation_energy": 6.02 
		},
		"coords": [
			{
				"x": -1.5557772618,
				"y": -0.2909162545,
				"z": 2.6086907065,
				"element": "F" 
			},
			{
				"x": -1.6498663645,
				"y": -0.6062187577,
				"z": 1.3049148427,
				"element": "C" 
			},
			{
				"x": -2.8125533855,
				"y": -0.1258422777,
				"z": 0.8502416969,
				"element": "F" 
			},
			{
				"x": -1.6891259003,
				"y": -1.9462561712,
				"z": 1.2007125388,
				"element": "F" 
			},
			{
				"x": -0.4609439204,
				"y": -0.0373798397,
				"z": 0.5235518881,
				"element": "C" 
			},
			{
				"x": -0.874931144,
				"y": 1.073128417,
				"z": -0.7424370785,
				"element": "Cl" 
			},
			{
				"x": 0.8144455643,
				"y": -0.3645295271,
				"z": 0.7871400936,
				"element": "C" 
			},
			{
				"x": 1.2284341845,
				"y": -1.4750538443,
				"z": 2.05311434,
				"element": "Cl" 
			},
			{
				"x": 2.0033656107,
				"y": 0.2043037313,
				"z": 0.0057691252,
				"element": "C" 
			},
			{
				"x": 3.1660534591,
				"y": -0.2760826835,
				"z": 0.4604317862,
				"element": "F" 
			},
			{
				"x": 2.0426369186,
				"y": 1.544339686,
				"z": 0.1099770712,
				"element": "F" 
			},
			{
				"x": 1.9092622392,
				"y": -0.1109924786,
				"z": -1.2980070107,
				"element": "F" 
			}
		],
		 "valence_orbital": [ 
			{
				"type": "occ",
				"energy": -0.40431,
				"method": "rhf"
			},
			{
				"type": "occ",
				"energy": -0.37747,
				"method": "rhf"
			},
			{
				"type": "occ",
				"energy": -0.35457,
				"method": "rhf"
			},
			{
				"type": "occ",
				"energy": -0.3408,
				"method": "rhf"
			},
			{
				"type": "occ",
				"energy": -0.28888,
				"method": "rhf"
			},
			{
				"type": "unocc",
				"energy": -0.07562,
				"method": "rhf"
			},
			{
				"type": "unocc",
				"energy": -0.03469,
				"method": "rhf"
			},
			{
				"type": "unocc",
				"energy": 0.0215,
				"method": "rhf"
			},
			{
				"type": "unocc",
				"energy": 0.1214,
				"method": "rhf"
			},
			{
				"type": "unocc",
				"energy": 0.16644,
				"method": "rhf"
			}
		],
		"cosmo_sigma_profile": { 
			"-0.025": 0.0,
			"-0.024": 0.0,
			"-0.023": 0.0,
			"-0.022": 0.0,
			"-0.021": 0.0,
			"-0.02": 0.0,
			"-0.019": 0.0,
			"-0.018": 0.0,
			"-0.017": 0.0,
			"-0.016": 0.0,
			"-0.015": 0.0,
			"-0.014": 0.0,
			"-0.013": 0.0,
			"-0.012": 0.0,
			"-0.011": 0.0,
			"-0.01": 0.0,
			"-0.009": 0.0,
			"-0.008": 0.00912026427337,
			"-0.007": 1.4243736869,
			"-0.006": 3.58701126355,
			"-0.005": 6.7190782553,
			"-0.004": 9.78280165546,
			"-0.003": 11.7454510797,
			"-0.002": 10.9554124649,
			"-0.001": 12.8345371899,
			"0.0": 21.5091207099,
			"0.001": 48.6823989095,
			"0.002": 58.6024754865,
			"0.003": 3.1473054681,
			"0.004": 0.0,
			"0.005": 0.0,
			"0.006": 0.0,
			"0.007": 0.0,
			"0.008": 0.0,
			"0.009": 0.0,
			"0.01": 0.0,
			"0.011": 0.0,
			"0.012": 0.0,
			"0.013": 0.0,
			"0.014": 0.0,
			"0.015": 0.0,
			"0.016": 0.0,
			"0.017": 0.0,
			"0.018": 0.0,
			"0.019": 0.0,
			"0.02": 0.0,
			"0.021": 0.0,
			"0.022": 0.0,
			"0.023": 0.0,
			"0.024": 0.0,
			"0.025": 0.0
		}
	}
}
