{
	 "smiles": "CC(Cl)C(=O)C1=CC=C(CNC(C)=O)O1", 
	 "Tm": 338.15, 
	 "num_atms": 27, 
	 "gaussian": { 
		 "optdone": 1, 
		 "sigma_profile": "yes", 
		 "theory": "DFT", 
		 "functional": "B3LYP", 
		 "basiset": "6-31G**", 
		 "properties": { 
			 "R2extent": 4095.595, 
			 "electric_dipole_moment_norm": 3.31831929446, 
			 "electric_quadrupole_moment_norm": 20.8273019787, 
			 "total_energy": -1128.91458658, 
			 "HOMO_LUMO_gap": 0.16928, 
			 "cosmo_polarized_energy": -17.67, 
			 "cosmo_cavitation_energy": 34.07, 
			 "cosmo_dispersion_energy": -22.76, 
			 "cosmo_repulsion_energy": 1.82, 
			 "cosmo_total_nonelectrostatic_energy": 13.13, 
			 "SMD_solvation_energy": 6.86 
		},
		"coords": [
			{
				"x": -2.8055531643,
				"y": 2.5894974189,
				"z": 0.3419072525,
				"element": "C" 
			},
			{
				"x": -1.7613417194,
				"y": 1.4903376819,
				"z": 0.3483307464,
				"element": "C" 
			},
			{
				"x": -0.6672984982,
				"y": 1.6550639926,
				"z": 1.8214214989,
				"element": "Cl" 
			},
			{
				"x": -2.3815865513,
				"y": 0.0845352896,
				"z": 0.4176870771,
				"element": "C" 
			},
			{
				"x": -3.5306287143,
				"y": -0.0846421332,
				"z": 0.7975382536,
				"element": "O" 
			},
			{
				"x": -1.5497151837,
				"y": -1.0444589883,
				"z": 0.0067214942,
				"element": "C" 
			},
			{
				"x": -1.7834190659,
				"y": -2.3971832997,
				"z": 0.0244121776,
				"element": "C" 
			},
			{
				"x": -0.6036274036,
				"y": -3.0158468422,
				"z": -0.4723659603,
				"element": "C" 
			},
			{
				"x": 0.2727869162,
				"y": -2.0026460645,
				"z": -0.7723589074,
				"element": "C" 
			},
			{
				"x": 1.6583343671,
				"y": -1.9815132193,
				"z": -1.3354737407,
				"element": "C" 
			},
			{
				"x": 2.5905615558,
				"y": -1.2160518955,
				"z": -0.52329396,
				"element": "N" 
			},
			{
				"x": 3.0644773764,
				"y": 0.0054124897,
				"z": -0.9476532516,
				"element": "C" 
			},
			{
				"x": 3.8329399185,
				"y": 0.7909839476,
				"z": 0.1007851058,
				"element": "C" 
			},
			{
				"x": 2.8718141186,
				"y": 0.4259115693,
				"z": -2.0797634795,
				"element": "O" 
			},
			{
				"x": -0.2912201128,
				"y": -0.8016265529,
				"z": -0.4869772906,
				"element": "O" 
			},
			{
				"x": -3.4034960233,
				"y": 2.5113269135,
				"z": -0.5725700222,
				"element": "H" 
			},
			{
				"x": -2.3290396194,
				"y": 3.5715886704,
				"z": 0.3658122919,
				"element": "H" 
			},
			{
				"x": -3.477804328,
				"y": 2.4851902349,
				"z": 1.1947770443,
				"element": "H" 
			},
			{
				"x": -1.0779765295,
				"y": 1.5623081852,
				"z": -0.499127817,
				"element": "H" 
			},
			{
				"x": -2.692941954,
				"y": -2.8682210265,
				"z": 0.3666406814,
				"element": "H" 
			},
			{
				"x": -0.4184034873,
				"y": -4.0733895497,
				"z": -0.5958507402,
				"element": "H" 
			},
			{
				"x": 1.6692451685,
				"y": -1.5006801425,
				"z": -2.3197776361,
				"element": "H" 
			},
			{
				"x": 1.9996941034,
				"y": -3.0153438774,
				"z": -1.4574720745,
				"element": "H" 
			},
			{
				"x": 2.6755735506,
				"y": -1.4537448718,
				"z": 0.4543728555,
				"element": "H" 
			},
			{
				"x": 3.1393041219,
				"y": 1.4579481988,
				"z": 0.6245390093,
				"element": "H" 
			},
			{
				"x": 4.5821478868,
				"y": 1.4054222514,
				"z": -0.3998667434,
				"element": "H" 
			},
			{
				"x": 4.319373271,
				"y": 0.1501216195,
				"z": 0.8420061351,
				"element": "H" 
			}
		],
		 "valence_orbital": [ 
			{
				"type": "occ",
				"energy": -0.29823,
				"method": "rhf"
			},
			{
				"type": "occ",
				"energy": -0.27083,
				"method": "rhf"
			},
			{
				"type": "occ",
				"energy": -0.26164,
				"method": "rhf"
			},
			{
				"type": "occ",
				"energy": -0.25592,
				"method": "rhf"
			},
			{
				"type": "occ",
				"energy": -0.24135,
				"method": "rhf"
			},
			{
				"type": "unocc",
				"energy": -0.07207,
				"method": "rhf"
			},
			{
				"type": "unocc",
				"energy": 0.00163,
				"method": "rhf"
			},
			{
				"type": "unocc",
				"energy": 0.02249,
				"method": "rhf"
			},
			{
				"type": "unocc",
				"energy": 0.03834,
				"method": "rhf"
			},
			{
				"type": "unocc",
				"energy": 0.0729,
				"method": "rhf"
			}
		],
		"cosmo_sigma_profile": { 
			"-0.025": 0.0,
			"-0.024": 0.0,
			"-0.023": 0.0,
			"-0.022": 0.0,
			"-0.021": 0.0,
			"-0.02": 0.0,
			"-0.019": 0.0,
			"-0.018": 0.0,
			"-0.017": 0.0,
			"-0.016": 0.0,
			"-0.015": 0.2533991789,
			"-0.014": 1.08934563619,
			"-0.013": 1.29648397288,
			"-0.012": 1.57471177911,
			"-0.011": 1.07146960037,
			"-0.01": 1.05726913096,
			"-0.009": 2.81198165164,
			"-0.008": 7.23150105689,
			"-0.007": 10.3960180939,
			"-0.006": 13.4862599349,
			"-0.005": 16.6748238534,
			"-0.004": 20.5176023306,
			"-0.003": 20.0325581732,
			"-0.002": 19.3617049989,
			"-0.001": 22.0623200029,
			"0.0": 18.3142880996,
			"0.001": 17.2461255769,
			"0.002": 17.1156067799,
			"0.003": 15.9988396131,
			"0.004": 13.2328968509,
			"0.005": 11.7753990885,
			"0.006": 7.95164242415,
			"0.007": 3.07016600583,
			"0.008": 3.63541658376,
			"0.009": 2.65171757819,
			"0.01": 3.65845561796,
			"0.011": 6.15484710313,
			"0.012": 3.7612964003,
			"0.013": 4.10152592196,
			"0.014": 3.68932903985,
			"0.015": 0.953006023162,
			"0.016": 0.0,
			"0.017": 0.0,
			"0.018": 0.0,
			"0.019": 0.0,
			"0.02": 0.0,
			"0.021": 0.0,
			"0.022": 0.0,
			"0.023": 0.0,
			"0.024": 0.0,
			"0.025": 0.0
		}
	}
}
