{
	 "smiles": "NS(=O)(=O)C1=CC(Cl)=NC=C1", 
	 "Tm": 408.15, 
	 "num_atms": 16, 
	 "gaussian": { 
		 "optdone": 1, 
		 "sigma_profile": "yes", 
		 "theory": "DFT", 
		 "functional": "B3LYP", 
		 "basiset": "6-31G**", 
		 "properties": { 
			 "R2extent": 2650.2132, 
			 "electric_dipole_moment_norm": 4.12877627633, 
			 "electric_quadrupole_moment_norm": 20.4413210459, 
			 "total_energy": -1311.7938361, 
			 "HOMO_LUMO_gap": 0.20765, 
			 "cosmo_polarized_energy": -19.3, 
			 "cosmo_cavitation_energy": 24.17, 
			 "cosmo_dispersion_energy": -18.53, 
			 "cosmo_repulsion_energy": 1.45, 
			 "cosmo_total_nonelectrostatic_energy": 7.1, 
			 "SMD_solvation_energy": 2.28 
		},
		"coords": [
			{
				"x": -2.3122036989,
				"y": 2.526694028,
				"z": 0.860415625,
				"element": "N" 
			},
			{
				"x": -0.9718151885,
				"y": 1.8289439204,
				"z": 1.5747013943,
				"element": "S" 
			},
			{
				"x": 0.0153416531,
				"y": 2.895572893,
				"z": 1.7097332897,
				"element": "O" 
			},
			{
				"x": -1.4753234859,
				"y": 1.0442700094,
				"z": 2.6974904592,
				"element": "O" 
			},
			{
				"x": -0.307476862,
				"y": 0.654627339,
				"z": 0.3683729557,
				"element": "C" 
			},
			{
				"x": -0.7510481089,
				"y": -0.6636358598,
				"z": 0.3803804222,
				"element": "C" 
			},
			{
				"x": -0.2161081156,
				"y": -1.5085155748,
				"z": -0.5984827729,
				"element": "C" 
			},
			{
				"x": -0.7472092851,
				"y": -3.1822876073,
				"z": -0.6362794098,
				"element": "Cl" 
			},
			{
				"x": 0.6701981583,
				"y": -1.1429724662,
				"z": -1.5077629606,
				"element": "N" 
			},
			{
				"x": 1.0930665367,
				"y": 0.1291284253,
				"z": -1.4846596938,
				"element": "C" 
			},
			{
				"x": 0.6384598708,
				"y": 1.0751488818,
				"z": -0.5677718522,
				"element": "C" 
			},
			{
				"x": -2.1003067516,
				"y": 3.1155412267,
				"z": 0.0623954933,
				"element": "H" 
			},
			{
				"x": -3.0879228194,
				"y": 1.8887729324,
				"z": 0.7191567669,
				"element": "H" 
			},
			{
				"x": -1.455164531,
				"y": -1.0203155779,
				"z": 1.1219614268,
				"element": "H" 
			},
			{
				"x": 1.8334732995,
				"y": 0.3975816751,
				"z": -2.2343212423,
				"element": "H" 
			},
			{
				"x": 1.0195393284,
				"y": 2.0897457548,
				"z": -0.5619299014,
				"element": "H" 
			}
		],
		 "valence_orbital": [ 
			{
				"type": "occ",
				"energy": -0.32369,
				"method": "rhf"
			},
			{
				"type": "occ",
				"energy": -0.32179,
				"method": "rhf"
			},
			{
				"type": "occ",
				"energy": -0.30792,
				"method": "rhf"
			},
			{
				"type": "occ",
				"energy": -0.29507,
				"method": "rhf"
			},
			{
				"type": "occ",
				"energy": -0.28199,
				"method": "rhf"
			},
			{
				"type": "unocc",
				"energy": -0.07434,
				"method": "rhf"
			},
			{
				"type": "unocc",
				"energy": -0.04923,
				"method": "rhf"
			},
			{
				"type": "unocc",
				"energy": 0.01226,
				"method": "rhf"
			},
			{
				"type": "unocc",
				"energy": 0.03875,
				"method": "rhf"
			},
			{
				"type": "unocc",
				"energy": 0.06893,
				"method": "rhf"
			}
		],
		"cosmo_sigma_profile": { 
			"-0.025": 0.0,
			"-0.024": 0.0,
			"-0.023": 0.0,
			"-0.022": 0.0,
			"-0.021": 0.0,
			"-0.02": 0.0,
			"-0.019": 0.0,
			"-0.018": 0.0,
			"-0.017": 0.0,
			"-0.016": 1.32341279128,
			"-0.015": 3.0665686763,
			"-0.014": 3.06545833603,
			"-0.013": 2.93328000412,
			"-0.012": 2.77512388258,
			"-0.011": 2.83817402921,
			"-0.01": 2.67785100964,
			"-0.009": 3.42407928851,
			"-0.008": 7.21031349659,
			"-0.007": 8.33022891274,
			"-0.006": 5.88166024651,
			"-0.005": 5.40530773005,
			"-0.004": 5.66731195213,
			"-0.003": 9.60804918676,
			"-0.002": 15.7047089846,
			"-0.001": 15.4022369839,
			"0.0": 10.0349351414,
			"0.001": 8.40170672331,
			"0.002": 8.2941217814,
			"0.003": 11.1923782873,
			"0.004": 11.224798939,
			"0.005": 7.07054154235,
			"0.006": 5.59043159375,
			"0.007": 6.17240103048,
			"0.008": 5.38125430824,
			"0.009": 5.90735422192,
			"0.01": 11.0317718263,
			"0.011": 8.88755148743,
			"0.012": 0.611978210799,
			"0.013": 1.13707871807,
			"0.014": 0.154606117321,
			"0.015": 0.0,
			"0.016": 0.0,
			"0.017": 0.0,
			"0.018": 0.0,
			"0.019": 0.0,
			"0.02": 0.0,
			"0.021": 0.0,
			"0.022": 0.0,
			"0.023": 0.0,
			"0.024": 0.0,
			"0.025": 0.0
		}
	}
}
