{
	 "smiles": "OC(C1=NC2=C(N1)C=CC(Cl)=C2)C1=CC=CC=C1", 
	 "Tm": 458.15, 
	 "num_atms": 29, 
	 "gaussian": { 
		 "optdone": 1, 
		 "sigma_profile": "yes", 
		 "theory": "DFT", 
		 "functional": "B3LYP", 
		 "basiset": "6-31G**", 
		 "properties": { 
			 "R2extent": 6946.759, 
			 "electric_dipole_moment_norm": 5.52500775203, 
			 "electric_quadrupole_moment_norm": 13.049037955, 
			 "total_energy": -1185.04813006, 
			 "HOMO_LUMO_gap": 0.19456, 
			 "cosmo_polarized_energy": -15.43, 
			 "cosmo_cavitation_energy": 35.44, 
			 "cosmo_dispersion_energy": -25.76, 
			 "cosmo_repulsion_energy": 1.99, 
			 "cosmo_total_nonelectrostatic_energy": 11.67, 
			 "SMD_solvation_energy": 3.28 
		},
		"coords": [
			{
				"x": -1.8127942943,
				"y": 0.2342290762,
				"z": 1.6545843538,
				"element": "O" 
			},
			{
				"x": -0.7952023517,
				"y": -0.6900680199,
				"z": 1.2728291332,
				"element": "C" 
			},
			{
				"x": -0.3210531297,
				"y": -0.2480465454,
				"z": -0.0889517205,
				"element": "C" 
			},
			{
				"x": 0.3666751349,
				"y": -0.9848921537,
				"z": -0.9268911926,
				"element": "N" 
			},
			{
				"x": 0.5983542124,
				"y": -0.1533054875,
				"z": -2.0130650594,
				"element": "C" 
			},
			{
				"x": 0.0129200406,
				"y": 1.1199532645,
				"z": -1.7962955904,
				"element": "C" 
			},
			{
				"x": -0.5616948549,
				"y": 1.0254306739,
				"z": -0.5417552732,
				"element": "N" 
			},
			{
				"x": 0.0850606843,
				"y": 2.1449029467,
				"z": -2.7397951104,
				"element": "C" 
			},
			{
				"x": 0.7675510703,
				"y": 1.8743699466,
				"z": -3.9228844448,
				"element": "C" 
			},
			{
				"x": 1.351780132,
				"y": 0.611651943,
				"z": -4.136789472,
				"element": "C" 
			},
			{
				"x": 2.2039383058,
				"y": 0.3337730627,
				"z": -5.656286109,
				"element": "Cl" 
			},
			{
				"x": 1.283853975,
				"y": -0.4166700042,
				"z": -3.2056380952,
				"element": "C" 
			},
			{
				"x": 0.3512316177,
				"y": -0.7515437781,
				"z": 2.2791539282,
				"element": "C" 
			},
			{
				"x": 0.667939627,
				"y": 0.3579509032,
				"z": 3.0709592015,
				"element": "C" 
			},
			{
				"x": 1.7248020585,
				"y": 0.2950285111,
				"z": 3.980912587,
				"element": "C" 
			},
			{
				"x": 2.4777066883,
				"y": -0.8739649497,
				"z": 4.1004794576,
				"element": "C" 
			},
			{
				"x": 2.1692471117,
				"y": -1.9811734929,
				"z": 3.3063770234,
				"element": "C" 
			},
			{
				"x": 1.1098098203,
				"y": -1.9211462933,
				"z": 2.401641276,
				"element": "C" 
			},
			{
				"x": -2.0379084912,
				"y": 0.0569088604,
				"z": 2.5770694866,
				"element": "H" 
			},
			{
				"x": -1.2080722853,
				"y": -1.7019431148,
				"z": 1.1538267863,
				"element": "H" 
			},
			{
				"x": -1.1372632941,
				"y": 1.6955048806,
				"z": -0.0552629777,
				"element": "H" 
			},
			{
				"x": -0.3660681912,
				"y": 3.1177192308,
				"z": -2.5712446772,
				"element": "H" 
			},
			{
				"x": 0.8549872109,
				"y": 2.6358104437,
				"z": -4.6892963621,
				"element": "H" 
			},
			{
				"x": 1.7387162422,
				"y": -1.3828215125,
				"z": -3.3884372532,
				"element": "H" 
			},
			{
				"x": 0.0841105681,
				"y": 1.2682855882,
				"z": 2.9729924681,
				"element": "H" 
			},
			{
				"x": 1.9610240226,
				"y": 1.160559079,
				"z": 4.5934646747,
				"element": "H" 
			},
			{
				"x": 3.3000400828,
				"y": -0.9230177714,
				"z": 4.8083028884,
				"element": "H" 
			},
			{
				"x": 2.7516046054,
				"y": -2.8937665536,
				"z": 3.3945208621,
				"element": "H" 
			},
			{
				"x": 0.8747036813,
				"y": -2.7796187336,
				"z": 1.7786792108,
				"element": "H" 
			}
		],
		 "valence_orbital": [ 
			{
				"type": "occ",
				"energy": -0.27569,
				"method": "rhf"
			},
			{
				"type": "occ",
				"energy": -0.2584,
				"method": "rhf"
			},
			{
				"type": "occ",
				"energy": -0.2547,
				"method": "rhf"
			},
			{
				"type": "occ",
				"energy": -0.22736,
				"method": "rhf"
			},
			{
				"type": "occ",
				"energy": -0.22168,
				"method": "rhf"
			},
			{
				"type": "unocc",
				"energy": -0.02712,
				"method": "rhf"
			},
			{
				"type": "unocc",
				"energy": -0.01085,
				"method": "rhf"
			},
			{
				"type": "unocc",
				"energy": -0.00686,
				"method": "rhf"
			},
			{
				"type": "unocc",
				"energy": 0.01597,
				"method": "rhf"
			},
			{
				"type": "unocc",
				"energy": 0.03921,
				"method": "rhf"
			}
		],
		"cosmo_sigma_profile": { 
			"-0.025": 0.0,
			"-0.024": 0.0,
			"-0.023": 0.0,
			"-0.022": 0.0,
			"-0.021": 0.0,
			"-0.02": 0.0,
			"-0.019": 0.0,
			"-0.018": 0.0,
			"-0.017": 0.169091767915,
			"-0.016": 1.45181039874,
			"-0.015": 1.47623870752,
			"-0.014": 1.35491030743,
			"-0.013": 1.97691480324,
			"-0.012": 1.97480631514,
			"-0.011": 1.25532326463,
			"-0.01": 1.61126059169,
			"-0.009": 2.04840379865,
			"-0.008": 3.23362976544,
			"-0.007": 6.82130496267,
			"-0.006": 14.9760621299,
			"-0.005": 19.2649346801,
			"-0.004": 17.8091180545,
			"-0.003": 16.4799073113,
			"-0.002": 16.1288557713,
			"-0.001": 14.2667005737,
			"0.0": 16.8844177736,
			"0.001": 20.0432997577,
			"0.002": 23.9048040395,
			"0.003": 27.8572496815,
			"0.004": 27.6731870495,
			"0.005": 23.1288428329,
			"0.006": 8.27694567091,
			"0.007": 3.31573001014,
			"0.008": 2.67593504287,
			"0.009": 1.58739349406,
			"0.01": 2.29159716517,
			"0.011": 1.77170424159,
			"0.012": 0.994276381392,
			"0.013": 1.09202525786,
			"0.014": 0.639324213501,
			"0.015": 0.910011260717,
			"0.016": 0.77045579826,
			"0.017": 0.0633292420187,
			"0.018": 0.0,
			"0.019": 0.0,
			"0.02": 0.0,
			"0.021": 0.0,
			"0.022": 0.0,
			"0.023": 0.0,
			"0.024": 0.0,
			"0.025": 0.0
		}
	}
}
