{
	 "smiles": "ClC1=CC2=C(C=C1)C(=O)OC2=O", 
	 "Tm": 370.15, 
	 "num_atms": 15, 
	 "gaussian": { 
		 "optdone": 1, 
		 "sigma_profile": "yes", 
		 "theory": "DFT", 
		 "functional": "B3LYP", 
		 "basiset": "6-31G**", 
		 "properties": { 
			 "R2extent": 3102.9058, 
			 "electric_dipole_moment_norm": 4.32904081408, 
			 "electric_quadrupole_moment_norm": 4.8280224026, 
			 "total_energy": -992.536149603, 
			 "HOMO_LUMO_gap": 0.18227, 
			 "cosmo_polarized_energy": -10.59, 
			 "cosmo_cavitation_energy": 22.87, 
			 "cosmo_dispersion_energy": -17.05, 
			 "cosmo_repulsion_energy": 1.34, 
			 "cosmo_total_nonelectrostatic_energy": 7.17, 
			 "SMD_solvation_energy": 5.59 
		},
		"coords": [
			{
				"x": 3.8517943332,
				"y": 2.2613486425,
				"z": -2.1873222277,
				"element": "Cl" 
			},
			{
				"x": 2.4842717312,
				"y": 1.5891796237,
				"z": -1.3294759359,
				"element": "C" 
			},
			{
				"x": 1.5214964033,
				"y": 0.8697251605,
				"z": -2.0447919954,
				"element": "C" 
			},
			{
				"x": 0.4613021124,
				"y": 0.3622571966,
				"z": -1.3062738335,
				"element": "C" 
			},
			{
				"x": 0.3545571907,
				"y": 0.5536919119,
				"z": 0.0675969296,
				"element": "C" 
			},
			{
				"x": 1.3131292314,
				"y": 1.2693990463,
				"z": 0.7762084414,
				"element": "C" 
			},
			{
				"x": 2.3907092452,
				"y": 1.7910820994,
				"z": 0.0573283046,
				"element": "C" 
			},
			{
				"x": -0.8865616145,
				"y": -0.11661418,
				"z": 0.523717128,
				"element": "C" 
			},
			{
				"x": -1.3688287556,
				"y": -0.2060559202,
				"z": 1.6171249916,
				"element": "O" 
			},
			{
				"x": -1.48258964,
				"y": -0.690299463,
				"z": -0.6069718486,
				"element": "O" 
			},
			{
				"x": -0.7137318425,
				"y": -0.4349451632,
				"z": -1.7454743218,
				"element": "C" 
			},
			{
				"x": -1.0237781019,
				"y": -0.8268434963,
				"z": -2.8345004325,
				"element": "O" 
			},
			{
				"x": 1.6006569436,
				"y": 0.7181941706,
				"z": -3.115028072,
				"element": "H" 
			},
			{
				"x": 1.2276518257,
				"y": 1.4173585686,
				"z": 1.8475054186,
				"element": "H" 
			},
			{
				"x": 3.1662209378,
				"y": 2.3571218025,
				"z": 0.5610574538,
				"element": "H" 
			}
		],
		 "valence_orbital": [ 
			{
				"type": "occ",
				"energy": -0.33939,
				"method": "rhf"
			},
			{
				"type": "occ",
				"energy": -0.32032,
				"method": "rhf"
			},
			{
				"type": "occ",
				"energy": -0.30691,
				"method": "rhf"
			},
			{
				"type": "occ",
				"energy": -0.2975,
				"method": "rhf"
			},
			{
				"type": "occ",
				"energy": -0.28707,
				"method": "rhf"
			},
			{
				"type": "unocc",
				"energy": -0.1048,
				"method": "rhf"
			},
			{
				"type": "unocc",
				"energy": -0.07223,
				"method": "rhf"
			},
			{
				"type": "unocc",
				"energy": 0.00148,
				"method": "rhf"
			},
			{
				"type": "unocc",
				"energy": 0.00439,
				"method": "rhf"
			},
			{
				"type": "unocc",
				"energy": 0.04456,
				"method": "rhf"
			}
		],
		"cosmo_sigma_profile": { 
			"-0.025": 0.0,
			"-0.024": 0.0,
			"-0.023": 0.0,
			"-0.022": 0.0,
			"-0.021": 0.0,
			"-0.02": 0.0,
			"-0.019": 0.0,
			"-0.018": 0.0,
			"-0.017": 0.0,
			"-0.016": 0.0,
			"-0.015": 0.0,
			"-0.014": 0.0,
			"-0.013": 0.0,
			"-0.012": 0.0,
			"-0.011": 0.0,
			"-0.01": 1.01844159118,
			"-0.009": 6.75267393425,
			"-0.008": 7.79412998541,
			"-0.007": 6.47552994446,
			"-0.006": 8.02341213885,
			"-0.005": 8.71459004028,
			"-0.004": 9.06484597393,
			"-0.003": 14.2504877196,
			"-0.002": 18.5201617329,
			"-0.001": 20.1113320234,
			"0.0": 11.6304895864,
			"0.001": 7.41879203711,
			"0.002": 8.39680836789,
			"0.003": 13.7876311019,
			"0.004": 6.15153499359,
			"0.005": 3.90525720412,
			"0.006": 6.50678615978,
			"0.007": 6.56292052374,
			"0.008": 6.21938668585,
			"0.009": 9.84034912158,
			"0.01": 6.60076998019,
			"0.011": 0.467936485535,
			"0.012": 0.0,
			"0.013": 0.0,
			"0.014": 0.0,
			"0.015": 0.0,
			"0.016": 0.0,
			"0.017": 0.0,
			"0.018": 0.0,
			"0.019": 0.0,
			"0.02": 0.0,
			"0.021": 0.0,
			"0.022": 0.0,
			"0.023": 0.0,
			"0.024": 0.0,
			"0.025": 0.0
		}
	}
}
