{
	 "smiles": "COC1=CC=C(Br)C=C1", 
	 "Tm": 284.95, 
	 "num_atms": 16, 
	 "gaussian": { 
		 "optdone": 1, 
		 "sigma_profile": "yes", 
		 "theory": "DFT", 
		 "functional": "B3LYP", 
		 "basiset": "6-31G**", 
		 "properties": { 
			 "R2extent": 2650.5576, 
			 "electric_dipole_moment_norm": 2.83841030508, 
			 "electric_quadrupole_moment_norm": 6.142808676, 
			 "total_energy": -2917.57835574, 
			 "HOMO_LUMO_gap": 0.20607, 
			 "cosmo_polarized_energy": -5.66, 
			 "cosmo_cavitation_energy": 22.12, 
			 "cosmo_dispersion_energy": -17.01, 
			 "cosmo_repulsion_energy": 1.39, 
			 "cosmo_total_nonelectrostatic_energy": 6.5, 
			 "SMD_solvation_energy": 3.49 
		},
		"coords": [
			{
				"x": -0.454993493,
				"y": -2.6346598829,
				"z": -2.3139206868,
				"element": "C" 
			},
			{
				"x": -1.2673218097,
				"y": -1.8349795473,
				"z": -1.4684515248,
				"element": "O" 
			},
			{
				"x": -0.6979613894,
				"y": -0.759045825,
				"z": -0.8545101295,
				"element": "C" 
			},
			{
				"x": -1.5502978867,
				"y": -0.0072343538,
				"z": -0.031102599,
				"element": "C" 
			},
			{
				"x": -1.0732982186,
				"y": 1.1101587183,
				"z": 0.6427478071,
				"element": "C" 
			},
			{
				"x": 0.2648991574,
				"y": 1.4832559426,
				"z": 0.4959452269,
				"element": "C" 
			},
			{
				"x": 0.9244868497,
				"y": 3.021615039,
				"z": 1.4227938245,
				"element": "Br" 
			},
			{
				"x": 1.1200475997,
				"y": 0.7477799767,
				"z": -0.3163765344,
				"element": "C" 
			},
			{
				"x": 0.6415044804,
				"y": -0.3770951344,
				"z": -0.9952772679,
				"element": "C" 
			},
			{
				"x": 0.3810959137,
				"y": -3.0855345409,
				"z": -1.7639081443,
				"element": "H" 
			},
			{
				"x": -1.1028990678,
				"y": -3.426153334,
				"z": -2.6930758089,
				"element": "H" 
			},
			{
				"x": -0.0586515459,
				"y": -2.0572487684,
				"z": -3.1591191128,
				"element": "H" 
			},
			{
				"x": -2.5852823875,
				"y": -0.3178564675,
				"z": 0.0662242734,
				"element": "H" 
			},
			{
				"x": -1.7342501929,
				"y": 1.6887989375,
				"z": 1.2780609465,
				"element": "H" 
			},
			{
				"x": 2.157332593,
				"y": 1.0439161535,
				"z": -0.4251066902,
				"element": "H" 
			},
			{
				"x": 1.3215893977,
				"y": -0.9388169136,
				"z": -1.6242235796,
				"element": "H" 
			}
		],
		 "valence_orbital": [ 
			{
				"type": "occ",
				"energy": -0.33531,
				"method": "rhf"
			},
			{
				"type": "occ",
				"energy": -0.28808,
				"method": "rhf"
			},
			{
				"type": "occ",
				"energy": -0.282,
				"method": "rhf"
			},
			{
				"type": "occ",
				"energy": -0.2622,
				"method": "rhf"
			},
			{
				"type": "occ",
				"energy": -0.21876,
				"method": "rhf"
			},
			{
				"type": "unocc",
				"energy": -0.01269,
				"method": "rhf"
			},
			{
				"type": "unocc",
				"energy": 0.00152,
				"method": "rhf"
			},
			{
				"type": "unocc",
				"energy": 0.01223,
				"method": "rhf"
			},
			{
				"type": "unocc",
				"energy": 0.09481,
				"method": "rhf"
			},
			{
				"type": "unocc",
				"energy": 0.10414,
				"method": "rhf"
			}
		],
		"cosmo_sigma_profile": { 
			"-0.025": 0.0,
			"-0.024": 0.0,
			"-0.023": 0.0,
			"-0.022": 0.0,
			"-0.021": 0.0,
			"-0.02": 0.0,
			"-0.019": 0.0,
			"-0.018": 0.0,
			"-0.017": 0.0,
			"-0.016": 0.0,
			"-0.015": 0.0,
			"-0.014": 0.0,
			"-0.013": 0.0,
			"-0.012": 0.0,
			"-0.011": 0.0,
			"-0.01": 0.0,
			"-0.009": 0.0,
			"-0.008": 0.0,
			"-0.007": 4.67492911454,
			"-0.006": 13.0801311254,
			"-0.005": 14.967280796,
			"-0.004": 14.7812513122,
			"-0.003": 14.9418344264,
			"-0.002": 9.84031192936,
			"-0.001": 9.33385490059,
			"0.0": 9.5436357735,
			"0.001": 10.2308464876,
			"0.002": 15.2365629241,
			"0.003": 20.2057786212,
			"0.004": 22.5855403332,
			"0.005": 13.2267487815,
			"0.006": 1.76641314636,
			"0.007": 1.43244128481,
			"0.008": 1.29811654313,
			"0.009": 1.46546796124,
			"0.01": 1.35040405528,
			"0.011": 0.0933699765848,
			"0.012": 0.0,
			"0.013": 0.0,
			"0.014": 0.0,
			"0.015": 0.0,
			"0.016": 0.0,
			"0.017": 0.0,
			"0.018": 0.0,
			"0.019": 0.0,
			"0.02": 0.0,
			"0.021": 0.0,
			"0.022": 0.0,
			"0.023": 0.0,
			"0.024": 0.0,
			"0.025": 0.0
		}
	}
}
