{
	 "smiles": "SC1=NC2=C(C=CC=C2)C(=C1)C(=O)NC1CC1", 
	 "Tm": 575.15, 
	 "num_atms": 29, 
	 "gaussian": { 
		 "optdone": 1, 
		 "sigma_profile": "yes", 
		 "theory": "DFT", 
		 "functional": "B3LYP", 
		 "basiset": "6-31G**", 
		 "properties": { 
			 "R2extent": 6542.7235, 
			 "electric_dipole_moment_norm": 4.2478252989, 
			 "electric_quadrupole_moment_norm": 12.1119559102, 
			 "total_energy": -1085.51516319, 
			 "HOMO_LUMO_gap": 0.1582, 
			 "cosmo_polarized_energy": -16.39, 
			 "cosmo_cavitation_energy": 34.95, 
			 "cosmo_dispersion_energy": -25.38, 
			 "cosmo_repulsion_energy": 1.92, 
			 "cosmo_total_nonelectrostatic_energy": 11.49, 
			 "SMD_solvation_energy": 3.92 
		},
		"coords": [
			{
				"x": -3.2534280816,
				"y": -4.7721459456,
				"z": -1.3129796637,
				"element": "S" 
			},
			{
				"x": -2.4471308009,
				"y": -3.1797130443,
				"z": -1.384554585,
				"element": "C" 
			},
			{
				"x": -2.1166562729,
				"y": -2.7891360253,
				"z": -2.5937001326,
				"element": "N" 
			},
			{
				"x": -1.5174831121,
				"y": -1.57315947,
				"z": -2.7389426223,
				"element": "C" 
			},
			{
				"x": -1.2043391346,
				"y": -0.7159199075,
				"z": -1.630564346,
				"element": "C" 
			},
			{
				"x": -0.6428270255,
				"y": 0.5613113591,
				"z": -1.9052587972,
				"element": "C" 
			},
			{
				"x": -0.3667314823,
				"y": 0.9489177868,
				"z": -3.1994704986,
				"element": "C" 
			},
			{
				"x": -0.6399546454,
				"y": 0.0836887038,
				"z": -4.2840262078,
				"element": "C" 
			},
			{
				"x": -1.2088766819,
				"y": -1.1490641167,
				"z": -4.0581312983,
				"element": "C" 
			},
			{
				"x": -1.5331063067,
				"y": -1.2109567362,
				"z": -0.32508102,
				"element": "C" 
			},
			{
				"x": -2.1795877119,
				"y": -2.4213146768,
				"z": -0.213403554,
				"element": "C" 
			},
			{
				"x": -1.2331892493,
				"y": -0.5180267212,
				"z": 0.9880538683,
				"element": "C" 
			},
			{
				"x": -2.0119142046,
				"y": -0.5800703618,
				"z": 1.9305448727,
				"element": "O" 
			},
			{
				"x": -0.0208936977,
				"y": 0.1205648655,
				"z": 1.0742109381,
				"element": "N" 
			},
			{
				"x": 0.4494487746,
				"y": 0.6391640751,
				"z": 2.3305373932,
				"element": "C" 
			},
			{
				"x": 1.4173376314,
				"y": 1.7917867113,
				"z": 2.2922181309,
				"element": "C" 
			},
			{
				"x": 0.0014498254,
				"y": 2.0075199816,
				"z": 2.7696355243,
				"element": "C" 
			},
			{
				"x": -3.4373324002,
				"y": -4.7959471017,
				"z": 0.0214783237,
				"element": "H" 
			},
			{
				"x": -0.4550526943,
				"y": 1.2466829698,
				"z": -1.0870627758,
				"element": "H" 
			},
			{
				"x": 0.0548809669,
				"y": 1.9317984827,
				"z": -3.3881112152,
				"element": "H" 
			},
			{
				"x": -0.4129462696,
				"y": 0.4017287617,
				"z": -5.2973345494,
				"element": "H" 
			},
			{
				"x": -1.451681085,
				"y": -1.8280562342,
				"z": -4.8685943143,
				"element": "H" 
			},
			{
				"x": -2.4630251272,
				"y": -2.7759178494,
				"z": 0.7707096701,
				"element": "H" 
			},
			{
				"x": 0.6636758184,
				"y": -0.0675117357,
				"z": 0.3544048191,
				"element": "H" 
			},
			{
				"x": 0.5777034202,
				"y": -0.1089088621,
				"z": 3.1106101364,
				"element": "H" 
			},
			{
				"x": 1.6865287614,
				"y": 2.1918185164,
				"z": 1.3187457217,
				"element": "H" 
			},
			{
				"x": 2.2245863502,
				"y": 1.7995156351,
				"z": 3.0175478085,
				"element": "H" 
			},
			{
				"x": -0.1773040771,
				"y": 2.1617445569,
				"z": 3.828601357,
				"element": "H" 
			},
			{
				"x": -0.6789514878,
				"y": 2.5374063829,
				"z": 2.1118170162,
				"element": "H" 
			}
		],
		 "valence_orbital": [ 
			{
				"type": "occ",
				"energy": -0.27104,
				"method": "rhf"
			},
			{
				"type": "occ",
				"energy": -0.2642,
				"method": "rhf"
			},
			{
				"type": "occ",
				"energy": -0.2562,
				"method": "rhf"
			},
			{
				"type": "occ",
				"energy": -0.24442,
				"method": "rhf"
			},
			{
				"type": "occ",
				"energy": -0.22759,
				"method": "rhf"
			},
			{
				"type": "unocc",
				"energy": -0.06939,
				"method": "rhf"
			},
			{
				"type": "unocc",
				"energy": -0.02514,
				"method": "rhf"
			},
			{
				"type": "unocc",
				"energy": -0.00688,
				"method": "rhf"
			},
			{
				"type": "unocc",
				"energy": 0.01691,
				"method": "rhf"
			},
			{
				"type": "unocc",
				"energy": 0.04091,
				"method": "rhf"
			}
		],
		"cosmo_sigma_profile": { 
			"-0.025": 0.0,
			"-0.024": 0.0,
			"-0.023": 0.0,
			"-0.022": 0.0,
			"-0.021": 0.0,
			"-0.02": 0.0,
			"-0.019": 0.0,
			"-0.018": 0.0,
			"-0.017": 0.0,
			"-0.016": 0.0,
			"-0.015": 0.0,
			"-0.014": 0.164435974094,
			"-0.013": 1.40003723695,
			"-0.012": 0.788255629169,
			"-0.011": 3.92157415147,
			"-0.01": 3.86463376517,
			"-0.009": 3.40669148657,
			"-0.008": 3.53331601334,
			"-0.007": 4.67941565944,
			"-0.006": 11.479751721,
			"-0.005": 21.3934754261,
			"-0.004": 22.6195752149,
			"-0.003": 18.7418768152,
			"-0.002": 20.9077368893,
			"-0.001": 20.0728695314,
			"0.0": 21.743033026,
			"0.001": 18.8221069739,
			"0.002": 20.5231058731,
			"0.003": 20.2407234273,
			"0.004": 16.5612098546,
			"0.005": 9.79934152226,
			"0.006": 6.5003781015,
			"0.007": 6.98673095046,
			"0.008": 3.95259249488,
			"0.009": 2.63510423062,
			"0.01": 2.7767952319,
			"0.011": 3.02456828116,
			"0.012": 3.22044935772,
			"0.013": 6.18949612675,
			"0.014": 1.9814651008,
			"0.015": 0.0,
			"0.016": 0.0,
			"0.017": 0.0,
			"0.018": 0.0,
			"0.019": 0.0,
			"0.02": 0.0,
			"0.021": 0.0,
			"0.022": 0.0,
			"0.023": 0.0,
			"0.024": 0.0,
			"0.025": 0.0
		}
	}
}
