{
	 "smiles": "CC(=O)NC1=CC(=C(O)C=C1)S(Cl)(=O)=O", 
	 "Tm": 438.15, 
	 "num_atms": 23, 
	 "gaussian": { 
		 "optdone": 1, 
		 "sigma_profile": "yes", 
		 "theory": "DFT", 
		 "functional": "B3LYP", 
		 "basiset": "6-31G**", 
		 "properties": { 
			 "R2extent": 5776.7486, 
			 "electric_dipole_moment_norm": 9.88932952277, 
			 "electric_quadrupole_moment_norm": 21.8510322269, 
			 "total_energy": -1523.63938066, 
			 "HOMO_LUMO_gap": 0.15533, 
			 "cosmo_polarized_energy": -26.83, 
			 "cosmo_cavitation_energy": 31.2, 
			 "cosmo_dispersion_energy": -23.21, 
			 "cosmo_repulsion_energy": 1.78, 
			 "cosmo_total_nonelectrostatic_energy": 9.78, 
			 "SMD_solvation_energy": 5.28 
		},
		"coords": [
			{
				"x": -2.177265097,
				"y": -2.8836891211,
				"z": -2.286568321,
				"element": "C" 
			},
			{
				"x": -1.9603068784,
				"y": -1.5811924019,
				"z": -1.5321461607,
				"element": "C" 
			},
			{
				"x": -2.3191292092,
				"y": -0.5059815029,
				"z": -1.9857977712,
				"element": "O" 
			},
			{
				"x": -1.3334645339,
				"y": -1.7239356649,
				"z": -0.3085363905,
				"element": "N" 
			},
			{
				"x": -0.9962558476,
				"y": -0.720473141,
				"z": 0.6208817996,
				"element": "C" 
			},
			{
				"x": -1.2709736079,
				"y": 0.6387579244,
				"z": 0.4210404519,
				"element": "C" 
			},
			{
				"x": -0.9048239056,
				"y": 1.5608097962,
				"z": 1.4032578858,
				"element": "C" 
			},
			{
				"x": -0.255848997,
				"y": 1.1801858241,
				"z": 2.5903921375,
				"element": "C" 
			},
			{
				"x": 0.0928676752,
				"y": 2.1286840684,
				"z": 3.489334161,
				"element": "O" 
			},
			{
				"x": 0.0117984561,
				"y": -0.1812480252,
				"z": 2.770803558,
				"element": "C" 
			},
			{
				"x": -0.353301803,
				"y": -1.1112625813,
				"z": 1.8058216047,
				"element": "C" 
			},
			{
				"x": -1.3433040739,
				"y": 3.2707179849,
				"z": 1.1035536871,
				"element": "S" 
			},
			{
				"x": 0.5803123074,
				"y": 4.1559678625,
				"z": 0.8337554872,
				"element": "Cl" 
			},
			{
				"x": -2.0098648649,
				"y": 3.3608438967,
				"z": -0.1890734976,
				"element": "O" 
			},
			{
				"x": -1.9144216516,
				"y": 3.8714774795,
				"z": 2.3002450461,
				"element": "O" 
			},
			{
				"x": -3.2492746599,
				"y": -3.010630754,
				"z": -2.4602557215,
				"element": "H" 
			},
			{
				"x": -1.6969352734,
				"y": -2.8021521647,
				"z": -3.2651615804,
				"element": "H" 
			},
			{
				"x": -1.7933748972,
				"y": -3.7707168963,
				"z": -1.7750547408,
				"element": "H" 
			},
			{
				"x": -1.0826574129,
				"y": -2.663075154,
				"z": -0.0374526371,
				"element": "H" 
			},
			{
				"x": -1.7633876292,
				"y": 0.9681326458,
				"z": -0.4832015788,
				"element": "H" 
			},
			{
				"x": 0.5483932633,
				"y": 1.7208055669,
				"z": 4.2372336089,
				"element": "H" 
			},
			{
				"x": 0.5127181871,
				"y": -0.5119283639,
				"z": 3.6772583762,
				"element": "H" 
			},
			{
				"x": -0.1307995465,
				"y": -2.1615972782,
				"z": 1.9778705957,
				"element": "H" 
			}
		],
		 "valence_orbital": [ 
			{
				"type": "occ",
				"energy": -0.31022,
				"method": "rhf"
			},
			{
				"type": "occ",
				"energy": -0.29933,
				"method": "rhf"
			},
			{
				"type": "occ",
				"energy": -0.28802,
				"method": "rhf"
			},
			{
				"type": "occ",
				"energy": -0.26768,
				"method": "rhf"
			},
			{
				"type": "occ",
				"energy": -0.23231,
				"method": "rhf"
			},
			{
				"type": "unocc",
				"energy": -0.07698,
				"method": "rhf"
			},
			{
				"type": "unocc",
				"energy": -0.0413,
				"method": "rhf"
			},
			{
				"type": "unocc",
				"energy": -0.0293,
				"method": "rhf"
			},
			{
				"type": "unocc",
				"energy": 0.0242,
				"method": "rhf"
			},
			{
				"type": "unocc",
				"energy": 0.04381,
				"method": "rhf"
			}
		],
		"cosmo_sigma_profile": { 
			"-0.025": 0.0,
			"-0.024": 0.0,
			"-0.023": 0.0,
			"-0.022": 0.0,
			"-0.021": 0.0,
			"-0.02": 0.217346750594,
			"-0.019": 1.27367676938,
			"-0.018": 1.40225620746,
			"-0.017": 1.03692771393,
			"-0.016": 1.82690402034,
			"-0.015": 2.43877998213,
			"-0.014": 3.2950485303,
			"-0.013": 1.87079238422,
			"-0.012": 2.5084945734,
			"-0.011": 3.16920536131,
			"-0.01": 2.52328897454,
			"-0.009": 3.90287031826,
			"-0.008": 5.21492231317,
			"-0.007": 5.50000772771,
			"-0.006": 7.61467601415,
			"-0.005": 10.0014830993,
			"-0.004": 9.25529268224,
			"-0.003": 12.8230335108,
			"-0.002": 15.1057823154,
			"-0.001": 15.5204184521,
			"0.0": 20.23506265,
			"0.001": 23.9985251666,
			"0.002": 16.4540436141,
			"0.003": 13.3929130288,
			"0.004": 14.1821311918,
			"0.005": 6.5269097271,
			"0.006": 7.87068681716,
			"0.007": 7.72039089048,
			"0.008": 12.7040054691,
			"0.009": 9.58415817593,
			"0.01": 3.10287687463,
			"0.011": 3.30730054534,
			"0.012": 2.55321328835,
			"0.013": 2.54498779975,
			"0.014": 1.34059993301,
			"0.015": 0.0119838802112,
			"0.016": 0.0,
			"0.017": 0.0,
			"0.018": 0.0,
			"0.019": 0.0,
			"0.02": 0.0,
			"0.021": 0.0,
			"0.022": 0.0,
			"0.023": 0.0,
			"0.024": 0.0,
			"0.025": 0.0
		}
	}
}
