{
	 "smiles": "CC(=O)CC(=O)NCCC1=CC=CC=C1", 
	 "Tm": 331.15, 
	 "num_atms": 30, 
	 "gaussian": { 
		 "optdone": 1, 
		 "sigma_profile": "yes", 
		 "theory": "DFT", 
		 "functional": "B3LYP", 
		 "basiset": "6-31G**", 
		 "properties": { 
			 "R2extent": 5379.8064, 
			 "electric_dipole_moment_norm": 2.62772141979, 
			 "electric_quadrupole_moment_norm": 21.0274821705, 
			 "total_energy": -671.544733979, 
			 "HOMO_LUMO_gap": 0.19723, 
			 "cosmo_polarized_energy": -14.1, 
			 "cosmo_cavitation_energy": 34.18, 
			 "cosmo_dispersion_energy": -23.92, 
			 "cosmo_repulsion_energy": 1.91, 
			 "cosmo_total_nonelectrostatic_energy": 12.17, 
			 "SMD_solvation_energy": 6.1 
		},
		"coords": [
			{
				"x": 0.9301554524,
				"y": -4.966159939,
				"z": 1.5279396509,
				"element": "C" 
			},
			{
				"x": 0.1101558366,
				"y": -3.7756983587,
				"z": 1.0823838035,
				"element": "C" 
			},
			{
				"x": -0.499036195,
				"y": -3.0865841,
				"z": 1.8866904202,
				"element": "O" 
			},
			{
				"x": 0.0654848545,
				"y": -3.5045338826,
				"z": -0.4174773027,
				"element": "C" 
			},
			{
				"x": 0.0737899914,
				"y": -2.0373034083,
				"z": -0.8867681855,
				"element": "C" 
			},
			{
				"x": 0.6738691314,
				"y": -1.7244207555,
				"z": -1.9093955121,
				"element": "O" 
			},
			{
				"x": -0.6656203397,
				"y": -1.1758081297,
				"z": -0.1424001848,
				"element": "N" 
			},
			{
				"x": -0.713116259,
				"y": 0.2441597316,
				"z": -0.4597934763,
				"element": "C" 
			},
			{
				"x": 0.5147342888,
				"y": 1.028507619,
				"z": 0.0549331627,
				"element": "C" 
			},
			{
				"x": 0.4496564176,
				"y": 2.4924553664,
				"z": -0.3190341203,
				"element": "C" 
			},
			{
				"x": -0.0626372958,
				"y": 3.4453383636,
				"z": 0.5716737683,
				"element": "C" 
			},
			{
				"x": -0.1572265814,
				"y": 4.7898544931,
				"z": 0.2081472602,
				"element": "C" 
			},
			{
				"x": 0.2589881179,
				"y": 5.2033013768,
				"z": -1.0583818269,
				"element": "C" 
			},
			{
				"x": 0.7706577544,
				"y": 4.2638870064,
				"z": -1.9563133876,
				"element": "C" 
			},
			{
				"x": 0.8642086043,
				"y": 2.9213683692,
				"z": -1.5884814857,
				"element": "C" 
			},
			{
				"x": 0.7935119674,
				"y": -5.1368574851,
				"z": 2.5964490189,
				"element": "H" 
			},
			{
				"x": 1.9903506783,
				"y": -4.7805395773,
				"z": 1.3170708877,
				"element": "H" 
			},
			{
				"x": 0.6485045926,
				"y": -5.8623179602,
				"z": 0.963414034,
				"element": "H" 
			},
			{
				"x": -0.8671009783,
				"y": -3.9592654848,
				"z": -0.7831395844,
				"element": "H" 
			},
			{
				"x": 0.882892673,
				"y": -4.0081633368,
				"z": -0.9370289123,
				"element": "H" 
			},
			{
				"x": -0.9779318663,
				"y": -1.5111323116,
				"z": 0.763544774,
				"element": "H" 
			},
			{
				"x": -0.7735417676,
				"y": 0.3412778285,
				"z": -1.5467451801,
				"element": "H" 
			},
			{
				"x": -1.6316588207,
				"y": 0.6598540866,
				"z": -0.0335166282,
				"element": "H" 
			},
			{
				"x": 0.5792055477,
				"y": 0.9176505359,
				"z": 1.1437947023,
				"element": "H" 
			},
			{
				"x": 1.4089059091,
				"y": 0.5658008534,
				"z": -0.3753258112,
				"element": "H" 
			},
			{
				"x": -0.383792845,
				"y": 3.131074616,
				"z": 1.5623301432,
				"element": "H" 
			},
			{
				"x": -0.5521968054,
				"y": 5.5141142701,
				"z": 0.9153636188,
				"element": "H" 
			},
			{
				"x": 0.1891294435,
				"y": 6.2495076359,
				"z": -1.3423377717,
				"element": "H" 
			},
			{
				"x": 1.1013856552,
				"y": 4.5774564171,
				"z": -2.9426740525,
				"element": "H" 
			},
			{
				"x": 1.2676728379,
				"y": 2.19447616,
				"z": -2.2896218225,
				"element": "H" 
			}
		],
		 "valence_orbital": [ 
			{
				"type": "occ",
				"energy": -0.27249,
				"method": "rhf"
			},
			{
				"type": "occ",
				"energy": -0.25471,
				"method": "rhf"
			},
			{
				"type": "occ",
				"energy": -0.24476,
				"method": "rhf"
			},
			{
				"type": "occ",
				"energy": -0.24389,
				"method": "rhf"
			},
			{
				"type": "occ",
				"energy": -0.23209,
				"method": "rhf"
			},
			{
				"type": "unocc",
				"energy": -0.03486,
				"method": "rhf"
			},
			{
				"type": "unocc",
				"energy": 0.00317,
				"method": "rhf"
			},
			{
				"type": "unocc",
				"energy": 0.00455,
				"method": "rhf"
			},
			{
				"type": "unocc",
				"energy": 0.02979,
				"method": "rhf"
			},
			{
				"type": "unocc",
				"energy": 0.08558,
				"method": "rhf"
			}
		],
		"cosmo_sigma_profile": { 
			"-0.025": 0.0,
			"-0.024": 0.0,
			"-0.023": 0.0,
			"-0.022": 0.0,
			"-0.021": 0.0,
			"-0.02": 0.0,
			"-0.019": 0.0,
			"-0.018": 0.0,
			"-0.017": 0.0,
			"-0.016": 0.0,
			"-0.015": 0.0,
			"-0.014": 0.0,
			"-0.013": 0.0,
			"-0.012": 0.0,
			"-0.011": 0.0,
			"-0.01": 0.0566936774453,
			"-0.009": 1.40633252063,
			"-0.008": 4.31556512918,
			"-0.007": 9.07185806428,
			"-0.006": 13.6491605551,
			"-0.005": 22.9109218144,
			"-0.004": 26.0256889995,
			"-0.003": 28.0242560257,
			"-0.002": 24.567754719,
			"-0.001": 22.5246538607,
			"0.0": 14.9657712794,
			"0.001": 14.694843493,
			"0.002": 11.5167878969,
			"0.003": 11.947616723,
			"0.004": 10.5110619978,
			"0.005": 11.6531430633,
			"0.006": 11.7257931128,
			"0.007": 5.69193085366,
			"0.008": 2.90671692222,
			"0.009": 2.38469616222,
			"0.01": 4.03625140599,
			"0.011": 3.05214259541,
			"0.012": 2.90084078191,
			"0.013": 3.06029690856,
			"0.014": 4.92351763236,
			"0.015": 1.34223913622,
			"0.016": 0.00365226223989,
			"0.017": 0.0,
			"0.018": 0.0,
			"0.019": 0.0,
			"0.02": 0.0,
			"0.021": 0.0,
			"0.022": 0.0,
			"0.023": 0.0,
			"0.024": 0.0,
			"0.025": 0.0
		}
	}
}
