{
	 "smiles": "OC(=O)C1=C(CS(=O)(=O)C2=CC=C(Br)C=C2)C=CO1", 
	 "Tm": 485.15, 
	 "num_atms": 28, 
	 "gaussian": { 
		 "optdone": 1, 
		 "sigma_profile": "yes", 
		 "theory": "DFT", 
		 "functional": "B3LYP", 
		 "basiset": "6-31G**", 
		 "properties": { 
			 "R2extent": 8701.0041, 
			 "electric_dipole_moment_norm": 2.2633385076, 
			 "electric_quadrupole_moment_norm": 29.8803228716, 
			 "total_energy": -3808.31942833, 
			 "HOMO_LUMO_gap": 0.1974, 
			 "cosmo_polarized_energy": -25.26, 
			 "cosmo_cavitation_energy": 37.57, 
			 "cosmo_dispersion_energy": -25.82, 
			 "cosmo_repulsion_energy": 1.96, 
			 "cosmo_total_nonelectrostatic_energy": 13.71, 
			 "SMD_solvation_energy": 6.61 
		},
		"coords": [
			{
				"x": 1.8175809731,
				"y": -4.0150434406,
				"z": 1.4702303667,
				"element": "O" 
			},
			{
				"x": 2.6018847851,
				"y": -2.9441095298,
				"z": 1.794897852,
				"element": "C" 
			},
			{
				"x": 2.932359094,
				"y": -2.7413325287,
				"z": 2.9349631099,
				"element": "O" 
			},
			{
				"x": 2.9719905125,
				"y": -2.0687935538,
				"z": 0.659524048,
				"element": "C" 
			},
			{
				"x": 2.3668436362,
				"y": -1.7182076879,
				"z": -0.5316199999,
				"element": "C" 
			},
			{
				"x": 1.0466186651,
				"y": -2.1676665902,
				"z": -1.0615185343,
				"element": "C" 
			},
			{
				"x": -0.1997181859,
				"y": -0.8177410323,
				"z": -1.2595653496,
				"element": "S" 
			},
			{
				"x": -1.4164144924,
				"y": -1.4830053307,
				"z": -1.7495262224,
				"element": "O" 
			},
			{
				"x": 0.4382482139,
				"y": 0.2692284911,
				"z": -2.0196087279,
				"element": "O" 
			},
			{
				"x": -0.5108922248,
				"y": -0.2313404425,
				"z": 0.4084991695,
				"element": "C" 
			},
			{
				"x": -1.5168064533,
				"y": -0.838358748,
				"z": 1.1637358366,
				"element": "C" 
			},
			{
				"x": -1.7641983723,
				"y": -0.3865671032,
				"z": 2.4585012749,
				"element": "C" 
			},
			{
				"x": -1.002126703,
				"y": 0.6654411586,
				"z": 2.9701566177,
				"element": "C" 
			},
			{
				"x": -1.3418031551,
				"y": 1.285093901,
				"z": 4.7384567793,
				"element": "Br" 
			},
			{
				"x": -0.0029383637,
				"y": 1.2790991217,
				"z": 2.2127896592,
				"element": "C" 
			},
			{
				"x": 0.244288726,
				"y": 0.827135855,
				"z": 0.9177121452,
				"element": "C" 
			},
			{
				"x": 3.2380912793,
				"y": -0.7577598773,
				"z": -1.1443450687,
				"element": "C" 
			},
			{
				"x": 4.2848614508,
				"y": -0.5967046314,
				"z": -0.2882545349,
				"element": "C" 
			},
			{
				"x": 4.1361002191,
				"y": -1.3759634773,
				"z": 0.8101203479,
				"element": "O" 
			},
			{
				"x": 1.8937656046,
				"y": -4.2021872662,
				"z": 0.5238392975,
				"element": "H" 
			},
			{
				"x": 1.1142415423,
				"y": -2.5617457955,
				"z": -2.0813063927,
				"element": "H" 
			},
			{
				"x": 0.5567429513,
				"y": -2.9091845959,
				"z": -0.4283368061,
				"element": "H" 
			},
			{
				"x": -2.1104537796,
				"y": -1.6384036844,
				"z": 0.7345478016,
				"element": "H" 
			},
			{
				"x": -2.542079827,
				"y": -0.8402217491,
				"z": 3.0613085738,
				"element": "H" 
			},
			{
				"x": 0.5696103484,
				"y": 2.0998400279,
				"z": 2.6285384699,
				"element": "H" 
			},
			{
				"x": 1.0019529109,
				"y": 1.298652387,
				"z": 0.3020248644,
				"element": "H" 
			},
			{
				"x": 3.0679784471,
				"y": -0.2436817952,
				"z": -2.0781477606,
				"element": "H" 
			},
			{
				"x": 5.1806721974,
				"y": 0.0043279176,
				"z": -0.3198168169,
				"element": "H" 
			}
		],
		 "valence_orbital": [ 
			{
				"type": "occ",
				"energy": -0.294,
				"method": "rhf"
			},
			{
				"type": "occ",
				"energy": -0.2914,
				"method": "rhf"
			},
			{
				"type": "occ",
				"energy": -0.28749,
				"method": "rhf"
			},
			{
				"type": "occ",
				"energy": -0.26715,
				"method": "rhf"
			},
			{
				"type": "occ",
				"energy": -0.26094,
				"method": "rhf"
			},
			{
				"type": "unocc",
				"energy": -0.06354,
				"method": "rhf"
			},
			{
				"type": "unocc",
				"energy": -0.0556,
				"method": "rhf"
			},
			{
				"type": "unocc",
				"energy": -0.03822,
				"method": "rhf"
			},
			{
				"type": "unocc",
				"energy": -0.00843,
				"method": "rhf"
			},
			{
				"type": "unocc",
				"energy": 0.00661,
				"method": "rhf"
			}
		],
		"cosmo_sigma_profile": { 
			"-0.025": 0.0,
			"-0.024": 0.0,
			"-0.023": 0.0,
			"-0.022": 0.00494267577256,
			"-0.021": 6.73642274378e-05,
			"-0.02": 0.0613099802571,
			"-0.019": 0.727112413662,
			"-0.018": 1.60589385597,
			"-0.017": 1.10576479057,
			"-0.016": 0.658475750278,
			"-0.015": 1.14419115077,
			"-0.014": 1.14399468171,
			"-0.013": 1.00670806489,
			"-0.012": 1.26052604817,
			"-0.011": 1.35585729339,
			"-0.01": 4.43583194598,
			"-0.009": 7.07968783028,
			"-0.008": 12.1113872566,
			"-0.007": 15.2020183871,
			"-0.006": 13.6212353255,
			"-0.005": 13.6256861957,
			"-0.004": 12.0378327771,
			"-0.003": 13.6121396364,
			"-0.002": 15.5052112193,
			"-0.001": 17.2653981453,
			"0.0": 26.1947048138,
			"0.001": 31.9781127238,
			"0.002": 16.644581476,
			"0.003": 15.9472414142,
			"0.004": 14.3675423033,
			"0.005": 6.15092111508,
			"0.006": 4.88548922274,
			"0.007": 5.42381028061,
			"0.008": 7.1858627482,
			"0.009": 8.85060968105,
			"0.01": 11.7109866646,
			"0.011": 14.1197686466,
			"0.012": 7.1815142034,
			"0.013": 0.331399996873,
			"0.014": 0.0,
			"0.015": 0.0,
			"0.016": 0.0,
			"0.017": 0.0,
			"0.018": 0.0,
			"0.019": 0.0,
			"0.02": 0.0,
			"0.021": 0.0,
			"0.022": 0.0,
			"0.023": 0.0,
			"0.024": 0.0,
			"0.025": 0.0
		}
	}
}
