{
	 "smiles": "NC(=S)CN1C=NC(Cl)=C1Cl", 
	 "Tm": 479.15, 
	 "num_atms": 16, 
	 "gaussian": { 
		 "optdone": 1, 
		 "sigma_profile": "yes", 
		 "theory": "DFT", 
		 "functional": "B3LYP", 
		 "basiset": "6-31G**", 
		 "properties": { 
			 "R2extent": 4008.3193, 
			 "electric_dipole_moment_norm": 0.947420846298, 
			 "electric_quadrupole_moment_norm": 20.1646896425, 
			 "total_energy": -1676.35628802, 
			 "HOMO_LUMO_gap": 0.17755, 
			 "cosmo_polarized_energy": -19.1, 
			 "cosmo_cavitation_energy": 26.22, 
			 "cosmo_dispersion_energy": -19.32, 
			 "cosmo_repulsion_energy": 1.53, 
			 "cosmo_total_nonelectrostatic_energy": 8.42, 
			 "SMD_solvation_energy": 1.6 
		},
		"coords": [
			{
				"x": 1.3288325902,
				"y": -0.4118253783,
				"z": 1.8699707069,
				"element": "N" 
			},
			{
				"x": 1.1685715751,
				"y": -1.6885155349,
				"z": 1.496250347,
				"element": "C" 
			},
			{
				"x": 2.4109127756,
				"y": -2.7598438377,
				"z": 1.2512693036,
				"element": "S" 
			},
			{
				"x": -0.2776953427,
				"y": -2.1538900525,
				"z": 1.296004025,
				"element": "C" 
			},
			{
				"x": -1.3123086254,
				"y": -1.168194754,
				"z": 1.5876775558,
				"element": "N" 
			},
			{
				"x": -1.9486172452,
				"y": -0.9783325588,
				"z": 2.7880169453,
				"element": "C" 
			},
			{
				"x": -2.8149724167,
				"y": 0.0111318774,
				"z": 2.7515718637,
				"element": "N" 
			},
			{
				"x": -2.7533555205,
				"y": 0.4947332499,
				"z": 1.4787322499,
				"element": "C" 
			},
			{
				"x": -3.7283161449,
				"y": 1.8125408814,
				"z": 0.9419578984,
				"element": "Cl" 
			},
			{
				"x": -1.8367412477,
				"y": -0.2077324164,
				"z": 0.7307924672,
				"element": "C" 
			},
			{
				"x": -1.3578395138,
				"y": -0.0652795493,
				"z": -0.9110444135,
				"element": "Cl" 
			},
			{
				"x": 0.5472491197,
				"y": 0.2169572169,
				"z": 1.9909987772,
				"element": "H" 
			},
			{
				"x": 2.2661469957,
				"y": -0.058275114,
				"z": 1.9980125292,
				"element": "H" 
			},
			{
				"x": -0.4446637753,
				"y": -3.0228170279,
				"z": 1.9353808679,
				"element": "H" 
			},
			{
				"x": -0.3852995984,
				"y": -2.4884884692,
				"z": 0.2625532609,
				"element": "H" 
			},
			{
				"x": -1.7341036256,
				"y": -1.5975685326,
				"z": 3.6485556155,
				"element": "H" 
			}
		],
		 "valence_orbital": [ 
			{
				"type": "occ",
				"energy": -0.30557,
				"method": "rhf"
			},
			{
				"type": "occ",
				"energy": -0.30132,
				"method": "rhf"
			},
			{
				"type": "occ",
				"energy": -0.25036,
				"method": "rhf"
			},
			{
				"type": "occ",
				"energy": -0.24545,
				"method": "rhf"
			},
			{
				"type": "occ",
				"energy": -0.2282,
				"method": "rhf"
			},
			{
				"type": "unocc",
				"energy": -0.05065,
				"method": "rhf"
			},
			{
				"type": "unocc",
				"energy": -0.01688,
				"method": "rhf"
			},
			{
				"type": "unocc",
				"energy": 0.0076,
				"method": "rhf"
			},
			{
				"type": "unocc",
				"energy": 0.0315,
				"method": "rhf"
			},
			{
				"type": "unocc",
				"energy": 0.03926,
				"method": "rhf"
			}
		],
		"cosmo_sigma_profile": { 
			"-0.025": 0.0,
			"-0.024": 0.0,
			"-0.023": 0.0,
			"-0.022": 0.0,
			"-0.021": 0.0,
			"-0.02": 0.0,
			"-0.019": 0.0,
			"-0.018": 0.0,
			"-0.017": 0.000426293238515,
			"-0.016": 0.848461668535,
			"-0.015": 2.18829842127,
			"-0.014": 2.16596237416,
			"-0.013": 2.09954548295,
			"-0.012": 3.46781649739,
			"-0.011": 4.85127317044,
			"-0.01": 6.01549412009,
			"-0.009": 5.16730041406,
			"-0.008": 5.94999384822,
			"-0.007": 6.4199225381,
			"-0.006": 6.87859235282,
			"-0.005": 7.00169936271,
			"-0.004": 8.40059906373,
			"-0.003": 9.13419011829,
			"-0.002": 9.24004966421,
			"-0.001": 12.7091684355,
			"0.0": 13.5092745991,
			"0.001": 15.525071463,
			"0.002": 15.2439600685,
			"0.003": 18.4403661385,
			"0.004": 13.875089982,
			"0.005": 7.10907446425,
			"0.006": 4.93993291364,
			"0.007": 7.07074549017,
			"0.008": 7.95889822948,
			"0.009": 6.69841749206,
			"0.01": 5.39290913808,
			"0.011": 4.44390570844,
			"0.012": 1.71395395239,
			"0.013": 1.02839487339,
			"0.014": 1.16173433902,
			"0.015": 0.747643366401,
			"0.016": 0.22585459993,
			"0.017": 0.0,
			"0.018": 0.0,
			"0.019": 0.0,
			"0.02": 0.0,
			"0.021": 0.0,
			"0.022": 0.0,
			"0.023": 0.0,
			"0.024": 0.0,
			"0.025": 0.0
		}
	}
}
