{
	 "smiles": "CN(C1=CC=C(O)C=C1)S(=O)(=O)C1=CC=CC=C1", 
	 "Tm": 405.15, 
	 "num_atms": 31, 
	 "gaussian": { 
		 "optdone": 1, 
		 "sigma_profile": "yes", 
		 "theory": "DFT", 
		 "functional": "B3LYP", 
		 "basiset": "6-31G**", 
		 "properties": { 
			 "R2extent": 5563.8561, 
			 "electric_dipole_moment_norm": 6.53681918749, 
			 "electric_quadrupole_moment_norm": 12.9435066358, 
			 "total_energy": -1181.74819752, 
			 "HOMO_LUMO_gap": 0.17801, 
			 "cosmo_polarized_energy": -18.62, 
			 "cosmo_cavitation_energy": 35.76, 
			 "cosmo_dispersion_energy": -25.22, 
			 "cosmo_repulsion_energy": 1.91, 
			 "cosmo_total_nonelectrostatic_energy": 12.45, 
			 "SMD_solvation_energy": 5.3 
		},
		"coords": [
			{
				"x": 2.9018609316,
				"y": 1.5350131693,
				"z": 1.852037082,
				"element": "C" 
			},
			{
				"x": 1.5517561909,
				"y": 1.6829959802,
				"z": 1.292554768,
				"element": "N" 
			},
			{
				"x": 0.55373379,
				"y": 0.7226611923,
				"z": 1.6717942183,
				"element": "C" 
			},
			{
				"x": 0.8737193868,
				"y": -0.6239533538,
				"z": 1.8817974295,
				"element": "C" 
			},
			{
				"x": -0.101825767,
				"y": -1.5286234631,
				"z": 2.3013349738,
				"element": "C" 
			},
			{
				"x": -1.4182051123,
				"y": -1.0989042162,
				"z": 2.4925929562,
				"element": "C" 
			},
			{
				"x": -2.4193644344,
				"y": -1.9350113569,
				"z": 2.8962010289,
				"element": "O" 
			},
			{
				"x": -1.7479262262,
				"y": 0.2446748161,
				"z": 2.2735096026,
				"element": "C" 
			},
			{
				"x": -0.7682320853,
				"y": 1.14732807,
				"z": 1.8799737485,
				"element": "C" 
			},
			{
				"x": 1.4860407746,
				"y": 2.3102280805,
				"z": -0.2946677318,
				"element": "S" 
			},
			{
				"x": 2.5220901153,
				"y": 3.344102094,
				"z": -0.3562366748,
				"element": "O" 
			},
			{
				"x": 0.0815182843,
				"y": 2.6055127885,
				"z": -0.575762469,
				"element": "O" 
			},
			{
				"x": 1.9867300807,
				"y": 0.9695248593,
				"z": -1.38098083,
				"element": "C" 
			},
			{
				"x": 1.0313956298,
				"y": 0.0427686886,
				"z": -1.809142509,
				"element": "C" 
			},
			{
				"x": 1.435124448,
				"y": -1.0159510328,
				"z": -2.6224865076,
				"element": "C" 
			},
			{
				"x": 2.7747837459,
				"y": -1.141753127,
				"z": -2.9995580486,
				"element": "C" 
			},
			{
				"x": 3.718238858,
				"y": -0.2054799042,
				"z": -2.5703305996,
				"element": "C" 
			},
			{
				"x": 3.3285998592,
				"y": 0.8583536241,
				"z": -1.7554954171,
				"element": "C" 
			},
			{
				"x": 3.4737261742,
				"y": 0.7086541603,
				"z": 1.4058695063,
				"element": "H" 
			},
			{
				"x": 2.7984151212,
				"y": 1.3521720168,
				"z": 2.9235887719,
				"element": "H" 
			},
			{
				"x": 3.4476860097,
				"y": 2.4652975837,
				"z": 1.6996972828,
				"element": "H" 
			},
			{
				"x": 1.8878424627,
				"y": -0.9762457629,
				"z": 1.7251679432,
				"element": "H" 
			},
			{
				"x": 0.1632513456,
				"y": -2.5700754051,
				"z": 2.4713979601,
				"element": "H" 
			},
			{
				"x": -2.0622981786,
				"y": -2.824339862,
				"z": 3.0170213831,
				"element": "H" 
			},
			{
				"x": -2.7716500936,
				"y": 0.5658300436,
				"z": 2.4336322569,
				"element": "H" 
			},
			{
				"x": -1.0146703743,
				"y": 2.1897477301,
				"z": 1.7203497366,
				"element": "H" 
			},
			{
				"x": -0.0071700212,
				"y": 0.1682099258,
				"z": -1.5248337896,
				"element": "H" 
			},
			{
				"x": 0.7015308603,
				"y": -1.7381181279,
				"z": -2.9680268039,
				"element": "H" 
			},
			{
				"x": 3.0820357244,
				"y": -1.9661230872,
				"z": -3.6364945198,
				"element": "H" 
			},
			{
				"x": 4.7560779979,
				"y": -0.2969943004,
				"z": -2.8764164385,
				"element": "H" 
			},
			{
				"x": 4.0398845014,
				"y": 1.6105981764,
				"z": -1.4327883094,
				"element": "H" 
			}
		],
		 "valence_orbital": [ 
			{
				"type": "occ",
				"energy": -0.2837,
				"method": "rhf"
			},
			{
				"type": "occ",
				"energy": -0.27019,
				"method": "rhf"
			},
			{
				"type": "occ",
				"energy": -0.26431,
				"method": "rhf"
			},
			{
				"type": "occ",
				"energy": -0.25679,
				"method": "rhf"
			},
			{
				"type": "occ",
				"energy": -0.21628,
				"method": "rhf"
			},
			{
				"type": "unocc",
				"energy": -0.03827,
				"method": "rhf"
			},
			{
				"type": "unocc",
				"energy": -0.02124,
				"method": "rhf"
			},
			{
				"type": "unocc",
				"energy": -0.00885,
				"method": "rhf"
			},
			{
				"type": "unocc",
				"energy": 0.00033,
				"method": "rhf"
			},
			{
				"type": "unocc",
				"energy": 0.06285,
				"method": "rhf"
			}
		],
		"cosmo_sigma_profile": { 
			"-0.025": 0.0,
			"-0.024": 0.0,
			"-0.023": 0.0,
			"-0.022": 0.0,
			"-0.021": 0.0,
			"-0.02": 0.0,
			"-0.019": 0.0,
			"-0.018": 0.793873832752,
			"-0.017": 1.01630857493,
			"-0.016": 0.793176709843,
			"-0.015": 1.40949455271,
			"-0.014": 0.941356718958,
			"-0.013": 0.576751628885,
			"-0.012": 0.724157683457,
			"-0.011": 1.44427808452,
			"-0.01": 1.21267188932,
			"-0.009": 1.25713861535,
			"-0.008": 0.790549361627,
			"-0.007": 10.3566441632,
			"-0.006": 18.8630322684,
			"-0.005": 21.3408111702,
			"-0.004": 21.9144330653,
			"-0.003": 22.111072916,
			"-0.002": 15.5722129126,
			"-0.001": 14.9692830381,
			"0.0": 15.5803223839,
			"0.001": 15.3349024094,
			"0.002": 21.7119811584,
			"0.003": 27.6743569731,
			"0.004": 18.8654585078,
			"0.005": 9.3545868781,
			"0.006": 4.66990758572,
			"0.007": 6.06594547413,
			"0.008": 5.38355230445,
			"0.009": 4.91910711048,
			"0.01": 8.16332368523,
			"0.011": 9.12245834302,
			"0.012": 2.45331102619,
			"0.013": 0.0,
			"0.014": 0.0,
			"0.015": 0.0,
			"0.016": 0.0,
			"0.017": 0.0,
			"0.018": 0.0,
			"0.019": 0.0,
			"0.02": 0.0,
			"0.021": 0.0,
			"0.022": 0.0,
			"0.023": 0.0,
			"0.024": 0.0,
			"0.025": 0.0
		}
	}
}
