{
	 "smiles": "OC(=O)C1=C(O)C=C(NC(=O)C2=CC(Br)=CC=C2)C=C1", 
	 "Tm": 513.15, 
	 "num_atms": 30, 
	 "gaussian": { 
		 "optdone": 1, 
		 "sigma_profile": "yes", 
		 "theory": "DFT", 
		 "functional": "B3LYP", 
		 "basiset": "6-31G**", 
		 "properties": { 
			 "R2extent": 13467.4078, 
			 "electric_dipole_moment_norm": 3.70666586706, 
			 "electric_quadrupole_moment_norm": 32.6114358316, 
			 "total_energy": -3466.60787454, 
			 "HOMO_LUMO_gap": 0.16321, 
			 "cosmo_polarized_energy": -21.85, 
			 "cosmo_cavitation_energy": 37.74, 
			 "cosmo_dispersion_energy": -28.51, 
			 "cosmo_repulsion_energy": 2.14, 
			 "cosmo_total_nonelectrostatic_energy": 11.36, 
			 "SMD_solvation_energy": 6.96 
		},
		"coords": [
			{
				"x": 0.4391620808,
				"y": -5.3183429558,
				"z": -3.8810365763,
				"element": "O" 
			},
			{
				"x": 1.1814869776,
				"y": -5.0098926443,
				"z": -2.7985441662,
				"element": "C" 
			},
			{
				"x": 2.1164507727,
				"y": -5.7563371556,
				"z": -2.5154532088,
				"element": "O" 
			},
			{
				"x": 0.8492466592,
				"y": -3.8132148375,
				"z": -2.0062907921,
				"element": "C" 
			},
			{
				"x": 1.6105652518,
				"y": -3.5546236855,
				"z": -0.8308903344,
				"element": "C" 
			},
			{
				"x": 2.6131736901,
				"y": -4.3453462075,
				"z": -0.433838891,
				"element": "O" 
			},
			{
				"x": 1.3128066741,
				"y": -2.4347353735,
				"z": -0.0472007749,
				"element": "C" 
			},
			{
				"x": 0.2850768614,
				"y": -1.5584812764,
				"z": -0.4021326267,
				"element": "C" 
			},
			{
				"x": 0.069212572,
				"y": -0.4567684295,
				"z": 0.4399308312,
				"element": "N" 
			},
			{
				"x": -0.9059853958,
				"y": 0.5204910588,
				"z": 0.3579994944,
				"element": "C" 
			},
			{
				"x": -1.790907999,
				"y": 0.5308257358,
				"z": -0.4875127897,
				"element": "O" 
			},
			{
				"x": -0.8192398423,
				"y": 1.5881656347,
				"z": 1.4155347371,
				"element": "C" 
			},
			{
				"x": -2.0048254026,
				"y": 2.2771731134,
				"z": 1.7047584752,
				"element": "C" 
			},
			{
				"x": -1.9962799478,
				"y": 3.2793230883,
				"z": 2.6678808052,
				"element": "C" 
			},
			{
				"x": -3.6167869002,
				"y": 4.202919736,
				"z": 3.0752013515,
				"element": "Br" 
			},
			{
				"x": -0.824825466,
				"y": 3.626907266,
				"z": 3.3425839657,
				"element": "C" 
			},
			{
				"x": 0.3575604356,
				"y": 2.9543199586,
				"z": 3.0341992147,
				"element": "C" 
			},
			{
				"x": 0.3657992359,
				"y": 1.9394688524,
				"z": 2.0772431792,
				"element": "C" 
			},
			{
				"x": -0.4713103019,
				"y": -1.7926995911,
				"z": -1.5714436622,
				"element": "C" 
			},
			{
				"x": -0.1727760306,
				"y": -2.9040383625,
				"z": -2.3390509797,
				"element": "C" 
			},
			{
				"x": -0.2984843736,
				"y": -4.7022651143,
				"z": -3.9825979296,
				"element": "H" 
			},
			{
				"x": 2.6867540734,
				"y": -5.066431078,
				"z": -1.1135276539,
				"element": "H" 
			},
			{
				"x": 1.9122348826,
				"y": -2.2702827502,
				"z": 0.8433777739,
				"element": "H" 
			},
			{
				"x": 0.6597958237,
				"y": -0.4270645544,
				"z": 1.258168182,
				"element": "H" 
			},
			{
				"x": -2.9085834664,
				"y": 2.0162147273,
				"z": 1.1678531908,
				"element": "H" 
			},
			{
				"x": -0.8377027719,
				"y": 4.4139616717,
				"z": 4.087790872,
				"element": "H" 
			},
			{
				"x": 1.2782256835,
				"y": 3.2318164257,
				"z": 3.5381763518,
				"element": "H" 
			},
			{
				"x": 1.3075994331,
				"y": 1.4603303711,
				"z": 1.826014075,
				"element": "H" 
			},
			{
				"x": -1.2646134797,
				"y": -1.1140067056,
				"z": -1.8442141463,
				"element": "H" 
			},
			{
				"x": -0.7659297295,
				"y": -3.0477869182,
				"z": -3.2402779678,
				"element": "H" 
			}
		],
		 "valence_orbital": [ 
			{
				"type": "occ",
				"energy": -0.28494,
				"method": "rhf"
			},
			{
				"type": "occ",
				"energy": -0.27273,
				"method": "rhf"
			},
			{
				"type": "occ",
				"energy": -0.2609,
				"method": "rhf"
			},
			{
				"type": "occ",
				"energy": -0.24941,
				"method": "rhf"
			},
			{
				"type": "occ",
				"energy": -0.23557,
				"method": "rhf"
			},
			{
				"type": "unocc",
				"energy": -0.07236,
				"method": "rhf"
			},
			{
				"type": "unocc",
				"energy": -0.04536,
				"method": "rhf"
			},
			{
				"type": "unocc",
				"energy": -0.03405,
				"method": "rhf"
			},
			{
				"type": "unocc",
				"energy": -0.00787,
				"method": "rhf"
			},
			{
				"type": "unocc",
				"energy": -0.00427,
				"method": "rhf"
			}
		],
		"cosmo_sigma_profile": { 
			"-0.025": 0.0,
			"-0.024": 0.0,
			"-0.023": 0.0,
			"-0.022": 0.0,
			"-0.021": 0.0,
			"-0.02": 0.206905938973,
			"-0.019": 1.20929823024,
			"-0.018": 0.788970965556,
			"-0.017": 0.947496338266,
			"-0.016": 1.15942787124,
			"-0.015": 2.11399729671,
			"-0.014": 3.19987351121,
			"-0.013": 2.41344179208,
			"-0.012": 2.38974162011,
			"-0.011": 2.9919143184,
			"-0.01": 1.84642202135,
			"-0.009": 3.90254560888,
			"-0.008": 5.50857290694,
			"-0.007": 9.13953105463,
			"-0.006": 11.3263611032,
			"-0.005": 12.2821148409,
			"-0.004": 12.3013980469,
			"-0.003": 17.3416451204,
			"-0.002": 17.7463140193,
			"-0.001": 18.5228667449,
			"0.0": 20.9688278284,
			"0.001": 28.0181135878,
			"0.002": 37.330854142,
			"0.003": 24.5092026174,
			"0.004": 18.0355574198,
			"0.005": 7.42933655675,
			"0.006": 6.57042601544,
			"0.007": 5.42923723839,
			"0.008": 5.41901899967,
			"0.009": 6.10046771597,
			"0.01": 7.95139170454,
			"0.011": 6.65183579344,
			"0.012": 4.58837751974,
			"0.013": 1.10991673044,
			"0.014": 0.0,
			"0.015": 0.0,
			"0.016": 0.0,
			"0.017": 0.0,
			"0.018": 0.0,
			"0.019": 0.0,
			"0.02": 0.0,
			"0.021": 0.0,
			"0.022": 0.0,
			"0.023": 0.0,
			"0.024": 0.0,
			"0.025": 0.0
		}
	}
}
