{
	 "smiles": "ClC1=CC=C(C=C1)C1=CC=C(O1)C=O", 
	 "Tm": 403.15, 
	 "num_atms": 21, 
	 "gaussian": { 
		 "optdone": 1, 
		 "sigma_profile": "yes", 
		 "theory": "DFT", 
		 "functional": "B3LYP", 
		 "basiset": "6-31G**", 
		 "properties": { 
			 "R2extent": 4829.3089, 
			 "electric_dipole_moment_norm": 4.06666345915, 
			 "electric_quadrupole_moment_norm": 14.8294132905, 
			 "total_energy": -1034.00399049, 
			 "HOMO_LUMO_gap": 0.14961, 
			 "cosmo_polarized_energy": -11.57, 
			 "cosmo_cavitation_energy": 28.62, 
			 "cosmo_dispersion_energy": -20.87, 
			 "cosmo_repulsion_energy": 1.62, 
			 "cosmo_total_nonelectrostatic_energy": 9.38, 
			 "SMD_solvation_energy": 6.13 
		},
		"coords": [
			{
				"x": 0.9473595484,
				"y": -2.4688137158,
				"z": 4.7511775839,
				"element": "Cl" 
			},
			{
				"x": 0.7886443994,
				"y": -1.4475131673,
				"z": 3.3338040422,
				"element": "C" 
			},
			{
				"x": -0.0140897051,
				"y": -0.3068455119,
				"z": 3.3959821209,
				"element": "C" 
			},
			{
				"x": -0.1372437852,
				"y": 0.5000544059,
				"z": 2.2703960954,
				"element": "C" 
			},
			{
				"x": 0.5341480505,
				"y": 0.1816657954,
				"z": 1.0765176219,
				"element": "C" 
			},
			{
				"x": 1.3365924661,
				"y": -0.972670832,
				"z": 1.0397289493,
				"element": "C" 
			},
			{
				"x": 1.4653598048,
				"y": -1.7856849116,
				"z": 2.1615113771,
				"element": "C" 
			},
			{
				"x": 0.4009530603,
				"y": 1.0309132119,
				"z": -0.0990919388,
				"element": "C" 
			},
			{
				"x": -0.298552707,
				"y": 2.1953397594,
				"z": -0.3500787589,
				"element": "C" 
			},
			{
				"x": -0.0266598187,
				"y": 2.5451417834,
				"z": -1.6948260221,
				"element": "C" 
			},
			{
				"x": 0.8205120783,
				"y": 1.5798900157,
				"z": -2.190596538,
				"element": "C" 
			},
			{
				"x": 1.0803269773,
				"y": 0.656542127,
				"z": -1.2152721831,
				"element": "O" 
			},
			{
				"x": 1.4282915074,
				"y": 1.4184676119,
				"z": -3.5009090027,
				"element": "C" 
			},
			{
				"x": 2.1708255711,
				"y": 0.5082546674,
				"z": -3.824611209,
				"element": "O" 
			},
			{
				"x": -0.5336037449,
				"y": -0.057505614,
				"z": 4.314381512,
				"element": "H" 
			},
			{
				"x": -0.7624873348,
				"y": 1.3856576968,
				"z": 2.3237973165,
				"element": "H" 
			},
			{
				"x": 1.8597117678,
				"y": -1.2295442608,
				"z": 0.1253915863,
				"element": "H" 
			},
			{
				"x": 2.0849603402,
				"y": -2.6748988219,
				"z": 2.1292972774,
				"element": "H" 
			},
			{
				"x": -0.9278335463,
				"y": 2.7302137711,
				"z": 0.3456525547,
				"element": "H" 
			},
			{
				"x": -0.403079777,
				"y": 3.3997536193,
				"z": -2.2397082369,
				"element": "H" 
			},
			{
				"x": 1.1438648475,
				"y": 2.2267823701,
				"z": -4.2091441481,
				"element": "H" 
			}
		],
		 "valence_orbital": [ 
			{
				"type": "occ",
				"energy": -0.30483,
				"method": "rhf"
			},
			{
				"type": "occ",
				"energy": -0.28312,
				"method": "rhf"
			},
			{
				"type": "occ",
				"energy": -0.2758,
				"method": "rhf"
			},
			{
				"type": "occ",
				"energy": -0.25681,
				"method": "rhf"
			},
			{
				"type": "occ",
				"energy": -0.22582,
				"method": "rhf"
			},
			{
				"type": "unocc",
				"energy": -0.07621,
				"method": "rhf"
			},
			{
				"type": "unocc",
				"energy": -0.02823,
				"method": "rhf"
			},
			{
				"type": "unocc",
				"energy": -0.02226,
				"method": "rhf"
			},
			{
				"type": "unocc",
				"energy": 0.02253,
				"method": "rhf"
			},
			{
				"type": "unocc",
				"energy": 0.05143,
				"method": "rhf"
			}
		],
		"cosmo_sigma_profile": { 
			"-0.025": 0.0,
			"-0.024": 0.0,
			"-0.023": 0.0,
			"-0.022": 0.0,
			"-0.021": 0.0,
			"-0.02": 0.0,
			"-0.019": 0.0,
			"-0.018": 0.0,
			"-0.017": 0.0,
			"-0.016": 0.0,
			"-0.015": 0.0,
			"-0.014": 0.0,
			"-0.013": 0.0,
			"-0.012": 0.0,
			"-0.011": 0.0,
			"-0.01": 0.19889086415,
			"-0.009": 3.89490992996,
			"-0.008": 7.48750002649,
			"-0.007": 12.9524738957,
			"-0.006": 12.8018117724,
			"-0.005": 11.8526400061,
			"-0.004": 10.6341099328,
			"-0.003": 10.9139540503,
			"-0.002": 12.1827287629,
			"-0.001": 15.98153387,
			"0.0": 24.5899144581,
			"0.001": 24.5540598188,
			"0.002": 26.2691515889,
			"0.003": 18.7706969174,
			"0.004": 12.6514459681,
			"0.005": 5.69174333803,
			"0.006": 1.82591227654,
			"0.007": 1.34212367512,
			"0.008": 2.706855876,
			"0.009": 2.3020590916,
			"0.01": 2.20446148174,
			"0.011": 4.43767769955,
			"0.012": 4.76655017553,
			"0.013": 2.46548270052,
			"0.014": 0.113115104357,
			"0.015": 0.0,
			"0.016": 0.0,
			"0.017": 0.0,
			"0.018": 0.0,
			"0.019": 0.0,
			"0.02": 0.0,
			"0.021": 0.0,
			"0.022": 0.0,
			"0.023": 0.0,
			"0.024": 0.0,
			"0.025": 0.0
		}
	}
}
