{
	 "smiles": "FC1=C(Br)C=C(C=C1)C#N", 
	 "Tm": 329.15, 
	 "num_atms": 13, 
	 "gaussian": { 
		 "optdone": 1, 
		 "sigma_profile": "yes", 
		 "theory": "DFT", 
		 "functional": "B3LYP", 
		 "basiset": "6-31G**", 
		 "properties": { 
			 "R2extent": 2310.9183, 
			 "electric_dipole_moment_norm": 2.83955800434, 
			 "electric_quadrupole_moment_norm": 16.3345775287, 
			 "total_energy": -2994.51915611, 
			 "HOMO_LUMO_gap": 0.20313, 
			 "cosmo_polarized_energy": -8.36, 
			 "cosmo_cavitation_energy": 21.77, 
			 "cosmo_dispersion_energy": -15.79, 
			 "cosmo_repulsion_energy": 1.26, 
			 "cosmo_total_nonelectrostatic_energy": 7.25, 
			 "SMD_solvation_energy": 4.6 
		},
		"coords": [
			{
				"x": -1.4197290685,
				"y": -1.6867586959,
				"z": -1.6112751435,
				"element": "F" 
			},
			{
				"x": -0.4285401483,
				"y": -1.029908302,
				"z": -1.000116584,
				"element": "C" 
			},
			{
				"x": -0.6958692141,
				"y": 0.1717625998,
				"z": -0.3394266576,
				"element": "C" 
			},
			{
				"x": -2.4618481071,
				"y": 0.8601028811,
				"z": -0.3152460699,
				"element": "Br" 
			},
			{
				"x": 0.3400588742,
				"y": 0.8495915455,
				"z": 0.2942234126,
				"element": "C" 
			},
			{
				"x": 1.6412571316,
				"y": 0.3207752685,
				"z": 0.2637716017,
				"element": "C" 
			},
			{
				"x": 1.8960367531,
				"y": -0.8889300704,
				"z": -0.4044913697,
				"element": "C" 
			},
			{
				"x": 0.8567797884,
				"y": -1.5623279817,
				"z": -1.0362383093,
				"element": "C" 
			},
			{
				"x": 2.7076217855,
				"y": 1.0209279735,
				"z": 0.9175980692,
				"element": "C" 
			},
			{
				"x": 3.575808628,
				"y": 1.5857043606,
				"z": 1.4468058678,
				"element": "N" 
			},
			{
				"x": 0.1407288437,
				"y": 1.7818928836,
				"z": 0.8086313552,
				"element": "H" 
			},
			{
				"x": 2.9022318366,
				"y": -1.2919586452,
				"z": -0.4244722886,
				"element": "H" 
			},
			{
				"x": 1.0202628969,
				"y": -2.4974738176,
				"z": -1.560163884,
				"element": "H" 
			}
		],
		 "valence_orbital": [ 
			{
				"type": "occ",
				"energy": -0.34241,
				"method": "rhf"
			},
			{
				"type": "occ",
				"energy": -0.33394,
				"method": "rhf"
			},
			{
				"type": "occ",
				"energy": -0.30868,
				"method": "rhf"
			},
			{
				"type": "occ",
				"energy": -0.28385,
				"method": "rhf"
			},
			{
				"type": "occ",
				"energy": -0.26632,
				"method": "rhf"
			},
			{
				"type": "unocc",
				"energy": -0.06319,
				"method": "rhf"
			},
			{
				"type": "unocc",
				"energy": -0.04808,
				"method": "rhf"
			},
			{
				"type": "unocc",
				"energy": -0.01974,
				"method": "rhf"
			},
			{
				"type": "unocc",
				"energy": 0.02658,
				"method": "rhf"
			},
			{
				"type": "unocc",
				"energy": 0.06451,
				"method": "rhf"
			}
		],
		"cosmo_sigma_profile": { 
			"-0.025": 0.0,
			"-0.024": 0.0,
			"-0.023": 0.0,
			"-0.022": 0.0,
			"-0.021": 0.0,
			"-0.02": 0.0,
			"-0.019": 0.0,
			"-0.018": 0.0,
			"-0.017": 0.0,
			"-0.016": 0.0,
			"-0.015": 0.0,
			"-0.014": 0.0,
			"-0.013": 0.0,
			"-0.012": 0.0,
			"-0.011": 0.0,
			"-0.01": 0.800393345145,
			"-0.009": 5.39278037702,
			"-0.008": 6.95137046009,
			"-0.007": 5.57251114826,
			"-0.006": 5.93828516962,
			"-0.005": 7.06054839226,
			"-0.004": 6.54223811314,
			"-0.003": 11.1965668559,
			"-0.002": 17.6320320805,
			"-0.001": 21.2974203794,
			"0.0": 17.5081115398,
			"0.001": 9.30479756895,
			"0.002": 12.4887391967,
			"0.003": 20.0051012152,
			"0.004": 9.06584182203,
			"0.005": 2.66331758186,
			"0.006": 2.40336820523,
			"0.007": 3.56497360671,
			"0.008": 2.95303158791,
			"0.009": 3.84305701505,
			"0.01": 2.54534279682,
			"0.011": 2.76585568604,
			"0.012": 2.2654723382,
			"0.013": 0.900512415218,
			"0.014": 0.0,
			"0.015": 0.0,
			"0.016": 0.0,
			"0.017": 0.0,
			"0.018": 0.0,
			"0.019": 0.0,
			"0.02": 0.0,
			"0.021": 0.0,
			"0.022": 0.0,
			"0.023": 0.0,
			"0.024": 0.0,
			"0.025": 0.0
		}
	}
}
