{
	 "smiles": "COC(=O)C=CC(C)=CC=CC(C)=C/C=C/C=C(C)/C=C/C=C(C)/C=C/C(O)=O", 
	 "Tm": 471.15, 
	 "num_atms": 59, 
	 "gaussian": { 
		 "optdone": 1, 
		 "sigma_profile": "yes", 
		 "theory": "DFT", 
		 "functional": "B3LYP", 
		 "basiset": "6-31G**", 
		 "properties": { 
			 "R2extent": 31963.2001, 
			 "electric_dipole_moment_norm": 7.86595292002, 
			 "electric_quadrupole_moment_norm": 76.7029793736, 
			 "total_energy": -1271.54318817, 
			 "HOMO_LUMO_gap": 0.08812, 
			 "cosmo_polarized_energy": -25.57, 
			 "cosmo_cavitation_energy": 65.94, 
			 "cosmo_dispersion_energy": -44.14, 
			 "cosmo_repulsion_energy": 3.43, 
			 "cosmo_total_nonelectrostatic_energy": 25.23, 
			 "SMD_solvation_energy": 14.75 
		},
		"coords": [
			{
				"x": 5.0804402069,
				"y": 2.1103407346,
				"z": -5.7307091095,
				"element": "C" 
			},
			{
				"x": 3.9303630125,
				"y": 2.627390247,
				"z": -5.0490707519,
				"element": "O" 
			},
			{
				"x": 3.0089930515,
				"y": 1.6952624853,
				"z": -4.6894095561,
				"element": "C" 
			},
			{
				"x": 3.145415417,
				"y": 0.5072266326,
				"z": -4.9212603315,
				"element": "O" 
			},
			{
				"x": 1.8396693712,
				"y": 2.2642460469,
				"z": -3.9988376954,
				"element": "C" 
			},
			{
				"x": 1.6809242896,
				"y": 3.5765977872,
				"z": -3.7202468502,
				"element": "C" 
			},
			{
				"x": 0.5661919736,
				"y": 4.2066800607,
				"z": -3.0159528627,
				"element": "C" 
			},
			{
				"x": 0.4211328494,
				"y": 5.6932895315,
				"z": -3.2485121753,
				"element": "C" 
			},
			{
				"x": -0.2544306172,
				"y": 3.4831543058,
				"z": -2.1987328739,
				"element": "C" 
			},
			{
				"x": -1.3963803203,
				"y": 3.9515137177,
				"z": -1.4641271958,
				"element": "C" 
			},
			{
				"x": -2.1252781796,
				"y": 3.139539018,
				"z": -0.6461187888,
				"element": "C" 
			},
			{
				"x": -3.3213998513,
				"y": 3.5142021667,
				"z": 0.0746103788,
				"element": "C" 
			},
			{
				"x": -3.9686810177,
				"y": 4.8415687946,
				"z": -0.2515585207,
				"element": "C" 
			},
			{
				"x": -3.9212947357,
				"y": 2.6907076177,
				"z": 0.9937471349,
				"element": "C" 
			},
			{
				"x": -3.4667907806,
				"y": 1.4450084914,
				"z": 1.5644806578,
				"element": "C" 
			},
			{
				"x": -2.1841105852,
				"y": 1.028041421,
				"z": 1.7790673939,
				"element": "C" 
			},
			{
				"x": -1.8704851723,
				"y": -0.2399851674,
				"z": 2.3725335979,
				"element": "C" 
			},
			{
				"x": -0.628686705,
				"y": -0.748801571,
				"z": 2.6400782734,
				"element": "C" 
			},
			{
				"x": 0.6571798662,
				"y": -0.0427235411,
				"z": 2.2719834602,
				"element": "C" 
			},
			{
				"x": -0.4590035797,
				"y": -2.0407908027,
				"z": 3.2918708429,
				"element": "C" 
			},
			{
				"x": -1.3663370786,
				"y": -2.6746978776,
				"z": 4.0872880329,
				"element": "C" 
			},
			{
				"x": -1.2411527129,
				"y": -3.9615350276,
				"z": 4.7316408674,
				"element": "C" 
			},
			{
				"x": -0.4653428083,
				"y": -5.0377780118,
				"z": 4.4027654848,
				"element": "C" 
			},
			{
				"x": 0.3861944966,
				"y": -5.1174188127,
				"z": 3.1583511582,
				"element": "C" 
			},
			{
				"x": -0.4742967723,
				"y": -6.230468443,
				"z": 5.2487201334,
				"element": "C" 
			},
			{
				"x": -0.7211286148,
				"y": -6.286636727,
				"z": 6.5761229248,
				"element": "C" 
			},
			{
				"x": -0.7035317666,
				"y": -7.5225174794,
				"z": 7.3951294382,
				"element": "C" 
			},
			{
				"x": -0.8460309872,
				"y": -8.7139828118,
				"z": 6.7435459927,
				"element": "O" 
			},
			{
				"x": -0.5568169132,
				"y": -7.5068014971,
				"z": 8.5965296707,
				"element": "O" 
			},
			{
				"x": 4.7895304582,
				"y": 1.6086080743,
				"z": -6.6574937606,
				"element": "H" 
			},
			{
				"x": 5.7096273242,
				"y": 2.9743920392,
				"z": -5.9461364046,
				"element": "H" 
			},
			{
				"x": 5.6159084473,
				"y": 1.3949497486,
				"z": -5.1008576889,
				"element": "H" 
			},
			{
				"x": 1.0943683988,
				"y": 1.5208829427,
				"z": -3.7352894863,
				"element": "H" 
			},
			{
				"x": 2.4561426236,
				"y": 4.2518246706,
				"z": -4.0782550301,
				"element": "H" 
			},
			{
				"x": 1.3823889675,
				"y": 6.1983937887,
				"z": -3.0955044133,
				"element": "H" 
			},
			{
				"x": 0.117979701,
				"y": 5.9016788292,
				"z": -4.2823439152,
				"element": "H" 
			},
			{
				"x": -0.3077828063,
				"y": 6.1619468158,
				"z": -2.5861935547,
				"element": "H" 
			},
			{
				"x": -0.0196864328,
				"y": 2.4283388077,
				"z": -2.0638497529,
				"element": "H" 
			},
			{
				"x": -1.6825256441,
				"y": 4.9941117205,
				"z": -1.5664033751,
				"element": "H" 
			},
			{
				"x": -1.8111623721,
				"y": 2.1022825823,
				"z": -0.5562461805,
				"element": "H" 
			},
			{
				"x": -4.9091721448,
				"y": 4.968068894,
				"z": 0.2898663819,
				"element": "H" 
			},
			{
				"x": -3.314434669,
				"y": 5.6781169536,
				"z": 0.0249733561,
				"element": "H" 
			},
			{
				"x": -4.1719202973,
				"y": 4.9370714432,
				"z": -1.3243713674,
				"element": "H" 
			},
			{
				"x": -4.9029686768,
				"y": 3.0070225482,
				"z": 1.3460400696,
				"element": "H" 
			},
			{
				"x": -4.2619125406,
				"y": 0.7917632506,
				"z": 1.9274178387,
				"element": "H" 
			},
			{
				"x": -1.3683989678,
				"y": 1.7005468565,
				"z": 1.5338209392,
				"element": "H" 
			},
			{
				"x": -2.7295269541,
				"y": -0.8642286794,
				"z": 2.6139171161,
				"element": "H" 
			},
			{
				"x": 0.5034024658,
				"y": 0.8237014222,
				"z": 1.6278056451,
				"element": "H" 
			},
			{
				"x": 1.332025829,
				"y": -0.7295725573,
				"z": 1.7473580101,
				"element": "H" 
			},
			{
				"x": 1.1893002483,
				"y": 0.2965093239,
				"z": 3.1695612068,
				"element": "H" 
			},
			{
				"x": 0.5224134493,
				"y": -2.4920707714,
				"z": 3.1695487179,
				"element": "H" 
			},
			{
				"x": -2.2846957347,
				"y": -2.1406039127,
				"z": 4.3263057566,
				"element": "H" 
			},
			{
				"x": -1.9084681219,
				"y": -4.0985700919,
				"z": 5.5808029237,
				"element": "H" 
			},
			{
				"x": 0.4600267218,
				"y": -6.1520001074,
				"z": 2.8058082595,
				"element": "H" 
			},
			{
				"x": -0.0214093991,
				"y": -4.5043712664,
				"z": 2.3496719685,
				"element": "H" 
			},
			{
				"x": 1.4131017833,
				"y": -4.777017841,
				"z": 3.3447897782,
				"element": "H" 
			},
			{
				"x": -0.1971149259,
				"y": -7.153926303,
				"z": 4.7351867852,
				"element": "H" 
			},
			{
				"x": -0.8600395092,
				"y": -5.3830192262,
				"z": 7.1604392323,
				"element": "H" 
			},
			{
				"x": -1.1362225578,
				"y": -8.5571612437,
				"z": 5.8345022131,
				"element": "H" 
			}
		],
		 "valence_orbital": [ 
			{
				"type": "occ",
				"energy": -0.26567,
				"method": "rhf"
			},
			{
				"type": "occ",
				"energy": -0.26273,
				"method": "rhf"
			},
			{
				"type": "occ",
				"energy": -0.24602,
				"method": "rhf"
			},
			{
				"type": "occ",
				"energy": -0.21766,
				"method": "rhf"
			},
			{
				"type": "occ",
				"energy": -0.18735,
				"method": "rhf"
			},
			{
				"type": "unocc",
				"energy": -0.09923,
				"method": "rhf"
			},
			{
				"type": "unocc",
				"energy": -0.0761,
				"method": "rhf"
			},
			{
				"type": "unocc",
				"energy": -0.04516,
				"method": "rhf"
			},
			{
				"type": "unocc",
				"energy": -0.01417,
				"method": "rhf"
			},
			{
				"type": "unocc",
				"energy": 0.01273,
				"method": "rhf"
			}
		],
		"cosmo_sigma_profile": { 
			"-0.025": 0.0,
			"-0.024": 0.0,
			"-0.023": 0.0,
			"-0.022": 0.0,
			"-0.021": 0.0,
			"-0.02": 0.0,
			"-0.019": 0.0171988666349,
			"-0.018": 0.591951608034,
			"-0.017": 0.992402722641,
			"-0.016": 1.33833178194,
			"-0.015": 0.507708260511,
			"-0.014": 0.583133697124,
			"-0.013": 1.01425993894,
			"-0.012": 1.14847436272,
			"-0.011": 1.47964537788,
			"-0.01": 1.17188146522,
			"-0.009": 0.706096859676,
			"-0.008": 1.66679862037,
			"-0.007": 5.06892569501,
			"-0.006": 17.8299246115,
			"-0.005": 41.7526196552,
			"-0.004": 49.8138675079,
			"-0.003": 48.1104464528,
			"-0.002": 46.5201144525,
			"-0.001": 46.5437508016,
			"0.0": 48.9836433291,
			"0.001": 35.0864238466,
			"0.002": 31.3482885193,
			"0.003": 34.21974502,
			"0.004": 35.2125067562,
			"0.005": 18.7365531732,
			"0.006": 6.58005193134,
			"0.007": 4.45053210745,
			"0.008": 3.76245752592,
			"0.009": 4.64870651053,
			"0.01": 5.30133318013,
			"0.011": 7.46845362437,
			"0.012": 9.6014530695,
			"0.013": 8.73612279348,
			"0.014": 1.5687680166,
			"0.015": 0.0,
			"0.016": 0.0,
			"0.017": 0.0,
			"0.018": 0.0,
			"0.019": 0.0,
			"0.02": 0.0,
			"0.021": 0.0,
			"0.022": 0.0,
			"0.023": 0.0,
			"0.024": 0.0,
			"0.025": 0.0
		}
	}
}
