{
	 "smiles": "COC(=O)[C@H]1OC(O[C@@H]1C(=O)OC)([C@@H](C)Br)C1=CC(OC)=C(OC)C=C1", 
	 "Tm": 370.5, 
	 "num_atms": 47, 
	 "gaussian": { 
		 "optdone": 1, 
		 "sigma_profile": "yes", 
		 "theory": "DFT", 
		 "functional": "B3LYP", 
		 "basiset": "6-31G**", 
		 "properties": { 
			 "R2extent": 11220.6589, 
			 "electric_dipole_moment_norm": 4.15914914015, 
			 "electric_quadrupole_moment_norm": 20.86660154, 
			 "total_energy": -3833.62173085, 
			 "HOMO_LUMO_gap": 0.21088, 
			 "cosmo_polarized_energy": -18.78, 
			 "cosmo_cavitation_energy": 51.96, 
			 "cosmo_dispersion_energy": -33.49, 
			 "cosmo_repulsion_energy": 2.6, 
			 "cosmo_total_nonelectrostatic_energy": 21.07, 
			 "SMD_solvation_energy": 11.98 
		},
		"coords": [
			{
				"x": 0.4068409085,
				"y": 6.2917723153,
				"z": -1.4437608892,
				"element": "C" 
			},
			{
				"x": 0.6184460971,
				"y": 4.88959928,
				"z": -1.6943667822,
				"element": "O" 
			},
			{
				"x": 0.2703181441,
				"y": 4.0618471941,
				"z": -0.6892888755,
				"element": "C" 
			},
			{
				"x": -0.1849844008,
				"y": 4.4263724267,
				"z": 0.3703156099,
				"element": "O" 
			},
			{
				"x": 0.4982413829,
				"y": 2.6100401041,
				"z": -1.1150655643,
				"element": "C" 
			},
			{
				"x": 0.6063157817,
				"y": 1.7594760994,
				"z": 0.0069367728,
				"element": "O" 
			},
			{
				"x": -0.6050197194,
				"y": 1.0238896596,
				"z": 0.1875053175,
				"element": "C" 
			},
			{
				"x": -1.5038452871,
				"y": 1.4805351614,
				"z": -0.8367176943,
				"element": "O" 
			},
			{
				"x": -0.7271540741,
				"y": 2.0602197729,
				"z": -1.8696200654,
				"element": "C" 
			},
			{
				"x": -0.3230001611,
				"y": 1.0715877778,
				"z": -2.9789255676,
				"element": "C" 
			},
			{
				"x": 0.7684206347,
				"y": 1.0493424939,
				"z": -3.5043768835,
				"element": "O" 
			},
			{
				"x": -1.3561348502,
				"y": 0.29421426,
				"z": -3.3278855828,
				"element": "O" 
			},
			{
				"x": -1.0809934794,
				"y": -0.6731576285,
				"z": -4.3587860766,
				"element": "C" 
			},
			{
				"x": -1.2772305464,
				"y": 1.4655098296,
				"z": 1.5126810913,
				"element": "C" 
			},
			{
				"x": -2.6653492937,
				"y": 0.8923467103,
				"z": 1.7458628376,
				"element": "C" 
			},
			{
				"x": -0.1113645914,
				"y": 1.0223279645,
				"z": 3.0651383666,
				"element": "Br" 
			},
			{
				"x": -0.323995839,
				"y": -0.4673704912,
				"z": 0.0419834977,
				"element": "C" 
			},
			{
				"x": 0.92219673,
				"y": -0.9907078678,
				"z": 0.4055109227,
				"element": "C" 
			},
			{
				"x": 1.1798492605,
				"y": -2.3558396952,
				"z": 0.3004864638,
				"element": "C" 
			},
			{
				"x": 2.4252112536,
				"y": -2.8293285558,
				"z": 0.6550222937,
				"element": "O" 
			},
			{
				"x": 2.4450601039,
				"y": -3.5734058591,
				"z": 1.879434796,
				"element": "C" 
			},
			{
				"x": 0.1863085092,
				"y": -3.2219689323,
				"z": -0.1954330717,
				"element": "C" 
			},
			{
				"x": 0.3896487129,
				"y": -4.5789745495,
				"z": -0.2954960993,
				"element": "O" 
			},
			{
				"x": 1.3731570604,
				"y": -4.9805728405,
				"z": -1.2568098266,
				"element": "C" 
			},
			{
				"x": -1.0561822658,
				"y": -2.6987023811,
				"z": -0.555854182,
				"element": "C" 
			},
			{
				"x": -1.3154072632,
				"y": -1.3332942153,
				"z": -0.4344156463,
				"element": "C" 
			},
			{
				"x": 0.9979689471,
				"y": 6.6175230466,
				"z": -0.5848156053,
				"element": "H" 
			},
			{
				"x": -0.6487831507,
				"y": 6.490735553,
				"z": -1.243299952,
				"element": "H" 
			},
			{
				"x": 0.7301205654,
				"y": 6.8040287003,
				"z": -2.3493167547,
				"element": "H" 
			},
			{
				"x": 1.3998584715,
				"y": 2.5371981383,
				"z": -1.7272832067,
				"element": "H" 
			},
			{
				"x": -1.3300254156,
				"y": 2.8456849947,
				"z": -2.3382042007,
				"element": "H" 
			},
			{
				"x": -0.6884026758,
				"y": -0.1818008612,
				"z": -5.2517356128,
				"element": "H" 
			},
			{
				"x": -2.035114039,
				"y": -1.1550048438,
				"z": -4.5691905914,
				"element": "H" 
			},
			{
				"x": -0.3532248012,
				"y": -1.4051303733,
				"z": -4.0009951384,
				"element": "H" 
			},
			{
				"x": -1.2760971007,
				"y": 2.5546098544,
				"z": 1.4992081436,
				"element": "H" 
			},
			{
				"x": -3.3158374881,
				"y": 1.1696370305,
				"z": 0.9099618063,
				"element": "H" 
			},
			{
				"x": -2.6419904418,
				"y": -0.1966695507,
				"z": 1.8296272261,
				"element": "H" 
			},
			{
				"x": -3.0891189461,
				"y": 1.3000135925,
				"z": 2.666223293,
				"element": "H" 
			},
			{
				"x": 1.7071182467,
				"y": -0.3418734444,
				"z": 0.7739107938,
				"element": "H" 
			},
			{
				"x": 2.1188067126,
				"y": -2.9470565546,
				"z": 2.718695931,
				"element": "H" 
			},
			{
				"x": 3.4820590648,
				"y": -3.8772855613,
				"z": 2.0367248129,
				"element": "H" 
			},
			{
				"x": 1.805790603,
				"y": -4.460315534,
				"z": 1.8163866535,
				"element": "H" 
			},
			{
				"x": 1.4229149943,
				"y": -6.0700987477,
				"z": -1.2044304359,
				"element": "H" 
			},
			{
				"x": 2.3532424517,
				"y": -4.5517204524,
				"z": -1.0296925397,
				"element": "H" 
			},
			{
				"x": 1.0694320936,
				"y": -4.6818715376,
				"z": -2.2684497645,
				"element": "H" 
			},
			{
				"x": -1.8103564507,
				"y": -3.3820476108,
				"z": -0.9336150147,
				"element": "H" 
			},
			{
				"x": -2.2742144487,
				"y": -0.9346138715,
				"z": -0.744385006,
				"element": "H" 
			}
		],
		 "valence_orbital": [ 
			{
				"type": "occ",
				"energy": -0.26537,
				"method": "rhf"
			},
			{
				"type": "occ",
				"energy": -0.25857,
				"method": "rhf"
			},
			{
				"type": "occ",
				"energy": -0.25536,
				"method": "rhf"
			},
			{
				"type": "occ",
				"energy": -0.23988,
				"method": "rhf"
			},
			{
				"type": "occ",
				"energy": -0.22772,
				"method": "rhf"
			},
			{
				"type": "unocc",
				"energy": -0.01684,
				"method": "rhf"
			},
			{
				"type": "unocc",
				"energy": -0.00489,
				"method": "rhf"
			},
			{
				"type": "unocc",
				"energy": 0.00084,
				"method": "rhf"
			},
			{
				"type": "unocc",
				"energy": 0.00263,
				"method": "rhf"
			},
			{
				"type": "unocc",
				"energy": 0.01091,
				"method": "rhf"
			}
		],
		"cosmo_sigma_profile": { 
			"-0.025": 0.0,
			"-0.024": 0.0,
			"-0.023": 0.0,
			"-0.022": 0.0,
			"-0.021": 0.0,
			"-0.02": 0.0,
			"-0.019": 0.0,
			"-0.018": 0.0,
			"-0.017": 0.0,
			"-0.016": 0.0,
			"-0.015": 0.0,
			"-0.014": 0.0,
			"-0.013": 0.0,
			"-0.012": 0.0,
			"-0.011": 0.472011103068,
			"-0.01": 2.77428232335,
			"-0.009": 2.03513463391,
			"-0.008": 2.52816241053,
			"-0.007": 7.10036187709,
			"-0.006": 17.7713305919,
			"-0.005": 29.8262128862,
			"-0.004": 41.8754011431,
			"-0.003": 42.9924113058,
			"-0.002": 38.8025735864,
			"-0.001": 31.6068273479,
			"0.0": 30.2332516235,
			"0.001": 23.171532099,
			"0.002": 23.4340552673,
			"0.003": 22.6819825094,
			"0.004": 19.198866037,
			"0.005": 16.0183014996,
			"0.006": 16.1696076421,
			"0.007": 11.2192709837,
			"0.008": 8.40024381239,
			"0.009": 8.38716566571,
			"0.01": 7.68926135106,
			"0.011": 7.51309239523,
			"0.012": 1.21207698684,
			"0.013": 0.0,
			"0.014": 0.0,
			"0.015": 0.0,
			"0.016": 0.0,
			"0.017": 0.0,
			"0.018": 0.0,
			"0.019": 0.0,
			"0.02": 0.0,
			"0.021": 0.0,
			"0.022": 0.0,
			"0.023": 0.0,
			"0.024": 0.0,
			"0.025": 0.0
		}
	}
}
