{
	 "smiles": "CN1C=NC2=C1C=CC=C2Br", 
	 "Tm": 375.15, 
	 "num_atms": 18, 
	 "gaussian": { 
		 "optdone": 1, 
		 "sigma_profile": "yes", 
		 "theory": "DFT", 
		 "functional": "B3LYP", 
		 "basiset": "6-31G**", 
		 "properties": { 
			 "R2extent": 4216.049, 
			 "electric_dipole_moment_norm": 5.50410323486, 
			 "electric_quadrupole_moment_norm": 9.48000072152, 
			 "total_energy": -2989.98309917, 
			 "HOMO_LUMO_gap": 0.19629, 
			 "cosmo_polarized_energy": -12.95, 
			 "cosmo_cavitation_energy": 24.22, 
			 "cosmo_dispersion_energy": -18.39, 
			 "cosmo_repulsion_energy": 1.45, 
			 "cosmo_total_nonelectrostatic_energy": 7.28, 
			 "SMD_solvation_energy": 1.63 
		},
		"coords": [
			{
				"x": 0.1752311052,
				"y": -1.5540907431,
				"z": 1.2202987361,
				"element": "C" 
			},
			{
				"x": 0.6176120392,
				"y": -0.4525555724,
				"z": 0.386998776,
				"element": "N" 
			},
			{
				"x": 1.7433286401,
				"y": 0.3218716105,
				"z": 0.5567510123,
				"element": "C" 
			},
			{
				"x": 1.8989781766,
				"y": 1.2531210652,
				"z": -0.3497337452,
				"element": "N" 
			},
			{
				"x": 0.8095060331,
				"y": 1.100675578,
				"z": -1.187750837,
				"element": "C" 
			},
			{
				"x": -0.0137513266,
				"y": 0.0327894132,
				"z": -0.7460217526,
				"element": "C" 
			},
			{
				"x": -1.1863575305,
				"y": -0.3494595615,
				"z": -1.4018030903,
				"element": "C" 
			},
			{
				"x": -1.5280660668,
				"y": 0.3771949895,
				"z": -2.5385218752,
				"element": "C" 
			},
			{
				"x": -0.7337909526,
				"y": 1.44273031,
				"z": -3.0044032693,
				"element": "C" 
			},
			{
				"x": 0.4293594911,
				"y": 1.8068986709,
				"z": -2.3369629704,
				"element": "C" 
			},
			{
				"x": 1.4955969198,
				"y": 3.2471845264,
				"z": -2.9731268482,
				"element": "Br" 
			},
			{
				"x": 0.1219546276,
				"y": -2.4821507207,
				"z": 0.6419019789,
				"element": "H" 
			},
			{
				"x": 0.8884048342,
				"y": -1.690617152,
				"z": 2.0353382879,
				"element": "H" 
			},
			{
				"x": -0.8107825197,
				"y": -1.3461406292,
				"z": 1.6483319582,
				"element": "H" 
			},
			{
				"x": 2.4184271517,
				"y": 0.1427466668,
				"z": 1.3847970211,
				"element": "H" 
			},
			{
				"x": -1.8040973893,
				"y": -1.1692122375,
				"z": -1.0494974731,
				"element": "H" 
			},
			{
				"x": -2.4301461784,
				"y": 0.1209593213,
				"z": -3.0856662913,
				"element": "H" 
			},
			{
				"x": -1.0301070547,
				"y": 1.9873544646,
				"z": -3.8935296178,
				"element": "H" 
			}
		],
		 "valence_orbital": [ 
			{
				"type": "occ",
				"energy": -0.27844,
				"method": "rhf"
			},
			{
				"type": "occ",
				"energy": -0.27701,
				"method": "rhf"
			},
			{
				"type": "occ",
				"energy": -0.26952,
				"method": "rhf"
			},
			{
				"type": "occ",
				"energy": -0.23614,
				"method": "rhf"
			},
			{
				"type": "occ",
				"energy": -0.22013,
				"method": "rhf"
			},
			{
				"type": "unocc",
				"energy": -0.02384,
				"method": "rhf"
			},
			{
				"type": "unocc",
				"energy": 0.01087,
				"method": "rhf"
			},
			{
				"type": "unocc",
				"energy": 0.0222,
				"method": "rhf"
			},
			{
				"type": "unocc",
				"energy": 0.05013,
				"method": "rhf"
			},
			{
				"type": "unocc",
				"energy": 0.07688,
				"method": "rhf"
			}
		],
		"cosmo_sigma_profile": { 
			"-0.025": 0.0,
			"-0.024": 0.0,
			"-0.023": 0.0,
			"-0.022": 0.0,
			"-0.021": 0.0,
			"-0.02": 0.0,
			"-0.019": 0.0,
			"-0.018": 0.0,
			"-0.017": 0.0,
			"-0.016": 0.0,
			"-0.015": 0.0,
			"-0.014": 0.0,
			"-0.013": 0.0,
			"-0.012": 0.0,
			"-0.011": 0.0,
			"-0.01": 1.92639517452,
			"-0.009": 3.17385033757,
			"-0.008": 2.56666290549,
			"-0.007": 7.07533505907,
			"-0.006": 15.4699401726,
			"-0.005": 15.6739789033,
			"-0.004": 16.3811950097,
			"-0.003": 14.6406828907,
			"-0.002": 9.54474389165,
			"-0.001": 7.76133953815,
			"0.0": 10.8513372565,
			"0.001": 10.1123781828,
			"0.002": 12.8235629754,
			"0.003": 19.3659785614,
			"0.004": 18.017273193,
			"0.005": 13.9388462475,
			"0.006": 2.92204508882,
			"0.007": 1.93459021628,
			"0.008": 2.7167177925,
			"0.009": 1.28891058818,
			"0.01": 1.32166692111,
			"0.011": 1.62302141683,
			"0.012": 1.71255164107,
			"0.013": 1.38036129461,
			"0.014": 1.09680560482,
			"0.015": 0.930480241409,
			"0.016": 1.09724700453,
			"0.017": 0.456176383496,
			"0.018": 0.0,
			"0.019": 0.0,
			"0.02": 0.0,
			"0.021": 0.0,
			"0.022": 0.0,
			"0.023": 0.0,
			"0.024": 0.0,
			"0.025": 0.0
		}
	}
}
