{
	 "smiles": "CCOCOC1=CC=C(C=C1)C(=O)NC1=CC=CC(Cl)=C1Cl", 
	 "Tm": 365.65, 
	 "num_atms": 37, 
	 "gaussian": { 
		 "optdone": 1, 
		 "sigma_profile": "yes", 
		 "theory": "DFT", 
		 "functional": "B3LYP", 
		 "basiset": "6-31G**", 
		 "properties": { 
			 "R2extent": 11198.4704, 
			 "electric_dipole_moment_norm": 5.89884220081, 
			 "electric_quadrupole_moment_norm": 18.2205274397, 
			 "total_energy": -1819.5388887, 
			 "HOMO_LUMO_gap": 0.18789, 
			 "cosmo_polarized_energy": -17.17, 
			 "cosmo_cavitation_energy": 44.92, 
			 "cosmo_dispersion_energy": -31.03, 
			 "cosmo_repulsion_energy": 2.44, 
			 "cosmo_total_nonelectrostatic_energy": 16.32, 
			 "SMD_solvation_energy": 8.24 
		},
		"coords": [
			{
				"x": -1.0676384402,
				"y": 4.6773348257,
				"z": -1.2165700691,
				"element": "C" 
			},
			{
				"x": 0.2891487117,
				"y": 4.2393777013,
				"z": -0.6923544549,
				"element": "C" 
			},
			{
				"x": 0.0809942525,
				"y": 3.3218346241,
				"z": 0.375681757,
				"element": "O" 
			},
			{
				"x": 1.2838934922,
				"y": 2.8698530101,
				"z": 0.9464074128,
				"element": "C" 
			},
			{
				"x": 1.0124512375,
				"y": 2.1017788076,
				"z": 2.0848643272,
				"element": "O" 
			},
			{
				"x": 0.5925074647,
				"y": 0.8059526637,
				"z": 1.9282736506,
				"element": "C" 
			},
			{
				"x": 0.0803092569,
				"y": 0.2831428327,
				"z": 0.7360111706,
				"element": "C" 
			},
			{
				"x": -0.2913802597,
				"y": -1.0602298034,
				"z": 0.6814966754,
				"element": "C" 
			},
			{
				"x": -0.1755769426,
				"y": -1.8888207465,
				"z": 1.8045657892,
				"element": "C" 
			},
			{
				"x": 0.2981895758,
				"y": -1.3323265798,
				"z": 3.0052273708,
				"element": "C" 
			},
			{
				"x": 0.6910732148,
				"y": -0.0048503314,
				"z": 3.0677553559,
				"element": "C" 
			},
			{
				"x": -0.6160362732,
				"y": -3.3147941256,
				"z": 1.8497167551,
				"element": "C" 
			},
			{
				"x": -0.9978392112,
				"y": -3.8380453382,
				"z": 2.8891657988,
				"element": "O" 
			},
			{
				"x": -0.6549879482,
				"y": -4.0602116687,
				"z": 0.672026789,
				"element": "N" 
			},
			{
				"x": 0.0534909762,
				"y": -3.8993550402,
				"z": -0.5466870872,
				"element": "C" 
			},
			{
				"x": -0.6777141706,
				"y": -3.8652674751,
				"z": -1.7405498681,
				"element": "C" 
			},
			{
				"x": -0.0376794282,
				"y": -3.7591564645,
				"z": -2.9719580434,
				"element": "C" 
			},
			{
				"x": 1.3504156789,
				"y": -3.6680718118,
				"z": -3.0300881484,
				"element": "C" 
			},
			{
				"x": 2.0966784866,
				"y": -3.7117400538,
				"z": -1.8516251302,
				"element": "C" 
			},
			{
				"x": 3.8380399972,
				"y": -3.6193485176,
				"z": -1.9722955618,
				"element": "Cl" 
			},
			{
				"x": 1.4634219571,
				"y": -3.8492216335,
				"z": -0.6060772464,
				"element": "C" 
			},
			{
				"x": 2.4029201103,
				"y": -4.0000441734,
				"z": 0.8502076207,
				"element": "Cl" 
			},
			{
				"x": -1.6487818089,
				"y": 5.1535417824,
				"z": -0.4221547785,
				"element": "H" 
			},
			{
				"x": -0.9455502869,
				"y": 5.392097645,
				"z": -2.0362086721,
				"element": "H" 
			},
			{
				"x": -1.6332790289,
				"y": 3.8175898634,
				"z": -1.5868379307,
				"element": "H" 
			},
			{
				"x": 0.8657060867,
				"y": 5.1080824714,
				"z": -0.3335972084,
				"element": "H" 
			},
			{
				"x": 0.8807965026,
				"y": 3.7660592139,
				"z": -1.4937760306,
				"element": "H" 
			},
			{
				"x": 1.8888635813,
				"y": 3.7171681884,
				"z": 1.2997130039,
				"element": "H" 
			},
			{
				"x": 1.8656593721,
				"y": 2.2826056085,
				"z": 0.2140241849,
				"element": "H" 
			},
			{
				"x": -0.0714821383,
				"y": 0.9274905356,
				"z": -0.1206557668,
				"element": "H" 
			},
			{
				"x": -0.7047622405,
				"y": -1.4450856547,
				"z": -0.243504614,
				"element": "H" 
			},
			{
				"x": 0.3529203809,
				"y": -1.9679347274,
				"z": 3.8821778292,
				"element": "H" 
			},
			{
				"x": 1.0786843888,
				"y": 0.4286531587,
				"z": 3.9836146552,
				"element": "H" 
			},
			{
				"x": -1.0565121707,
				"y": -4.9758487531,
				"z": 0.8404914758,
				"element": "H" 
			},
			{
				"x": -1.7599907585,
				"y": -3.9128019955,
				"z": -1.6765678295,
				"element": "H" 
			},
			{
				"x": -0.6188270539,
				"y": -3.7332014214,
				"z": -3.8880990811,
				"element": "H" 
			},
			{
				"x": 1.8666734356,
				"y": -3.5686066168,
				"z": -3.9780141011,
				"element": "H" 
			}
		],
		 "valence_orbital": [ 
			{
				"type": "occ",
				"energy": -0.25888,
				"method": "rhf"
			},
			{
				"type": "occ",
				"energy": -0.25661,
				"method": "rhf"
			},
			{
				"type": "occ",
				"energy": -0.25323,
				"method": "rhf"
			},
			{
				"type": "occ",
				"energy": -0.24717,
				"method": "rhf"
			},
			{
				"type": "occ",
				"energy": -0.22789,
				"method": "rhf"
			},
			{
				"type": "unocc",
				"energy": -0.04,
				"method": "rhf"
			},
			{
				"type": "unocc",
				"energy": -0.03316,
				"method": "rhf"
			},
			{
				"type": "unocc",
				"energy": -0.02365,
				"method": "rhf"
			},
			{
				"type": "unocc",
				"energy": -0.00289,
				"method": "rhf"
			},
			{
				"type": "unocc",
				"energy": -0.00189,
				"method": "rhf"
			}
		],
		"cosmo_sigma_profile": { 
			"-0.025": 0.0,
			"-0.024": 0.0,
			"-0.023": 0.0,
			"-0.022": 0.0,
			"-0.021": 0.0,
			"-0.02": 0.0,
			"-0.019": 0.0,
			"-0.018": 0.0,
			"-0.017": 0.0,
			"-0.016": 0.0,
			"-0.015": 0.166805390356,
			"-0.014": 0.999493133235,
			"-0.013": 0.915529760404,
			"-0.012": 1.31273949827,
			"-0.011": 0.555232451335,
			"-0.01": 0.810885094953,
			"-0.009": 1.07457139549,
			"-0.008": 3.30472154601,
			"-0.007": 8.92738776274,
			"-0.006": 17.260099355,
			"-0.005": 23.5949101805,
			"-0.004": 27.9351217862,
			"-0.003": 29.291479503,
			"-0.002": 25.0601339832,
			"-0.001": 27.6576064923,
			"0.0": 32.3367785106,
			"0.001": 31.7850207368,
			"0.002": 29.5644441791,
			"0.003": 29.6745193956,
			"0.004": 27.3680375448,
			"0.005": 8.63700028527,
			"0.006": 4.39026665846,
			"0.007": 4.65548965513,
			"0.008": 4.21549933752,
			"0.009": 4.24775912861,
			"0.01": 2.65537663888,
			"0.011": 3.06647300942,
			"0.012": 3.78209106493,
			"0.013": 5.31594327929,
			"0.014": 1.3014928287,
			"0.015": 0.0,
			"0.016": 0.0,
			"0.017": 0.0,
			"0.018": 0.0,
			"0.019": 0.0,
			"0.02": 0.0,
			"0.021": 0.0,
			"0.022": 0.0,
			"0.023": 0.0,
			"0.024": 0.0,
			"0.025": 0.0
		}
	}
}
