{
	 "smiles": "CC1=NOC(N)=C1[N+]([O-])=O", 
	 "Tm": 428.15, 
	 "num_atms": 15, 
	 "gaussian": { 
		 "optdone": 1, 
		 "sigma_profile": "yes", 
		 "theory": "DFT", 
		 "functional": "B3LYP", 
		 "basiset": "6-31G**", 
		 "properties": { 
			 "R2extent": 1692.6408, 
			 "electric_dipole_moment_norm": 2.77614204788, 
			 "electric_quadrupole_moment_norm": 21.6117695157, 
			 "total_energy": -545.226195574, 
			 "HOMO_LUMO_gap": 0.17566, 
			 "cosmo_polarized_energy": -13.79, 
			 "cosmo_cavitation_energy": 20.11, 
			 "cosmo_dispersion_energy": -15.21, 
			 "cosmo_repulsion_energy": 1.25, 
			 "cosmo_total_nonelectrostatic_energy": 6.15, 
			 "SMD_solvation_energy": 5.73 
		},
		"coords": [
			{
				"x": 0.1812172483,
				"y": 0.6691384829,
				"z": 2.6180132971,
				"element": "C" 
			},
			{
				"x": 0.310581071,
				"y": 0.2702895057,
				"z": 1.184147988,
				"element": "C" 
			},
			{
				"x": -0.1691239041,
				"y": -0.8763971847,
				"z": 0.7776636859,
				"element": "N" 
			},
			{
				"x": 0.1230176921,
				"y": -0.942631887,
				"z": -0.6419759543,
				"element": "O" 
			},
			{
				"x": 0.7599658405,
				"y": 0.1649590355,
				"z": -1.007549189,
				"element": "C" 
			},
			{
				"x": 1.1347565746,
				"y": 0.3329243196,
				"z": -2.2764538202,
				"element": "N" 
			},
			{
				"x": 0.9163895525,
				"y": 0.9882302754,
				"z": 0.1051043101,
				"element": "C" 
			},
			{
				"x": 1.5449199753,
				"y": 2.2438051897,
				"z": 0.0961881367,
				"element": "N" 
			},
			{
				"x": 1.620128319,
				"y": 2.8799682254,
				"z": 1.1515431489,
				"element": "O" 
			},
			{
				"x": 1.9976058842,
				"y": 2.6483446105,
				"z": -0.9970176677,
				"element": "O" 
			},
			{
				"x": 1.1681155374,
				"y": 0.8408310093,
				"z": 3.0555752718,
				"element": "H" 
			},
			{
				"x": -0.3724733133,
				"y": 1.6078206364,
				"z": 2.7031405472,
				"element": "H" 
			},
			{
				"x": -0.336418482,
				"y": -0.115981745,
				"z": 3.1718307509,
				"element": "H" 
			},
			{
				"x": 1.6147958363,
				"y": 1.1976516018,
				"z": -2.4908764036,
				"element": "H" 
			},
			{
				"x": 0.939822168,
				"y": -0.3702520757,
				"z": -2.9703341018,
				"element": "H" 
			}
		],
		 "valence_orbital": [ 
			{
				"type": "occ",
				"energy": -0.31264,
				"method": "rhf"
			},
			{
				"type": "occ",
				"energy": -0.30638,
				"method": "rhf"
			},
			{
				"type": "occ",
				"energy": -0.30616,
				"method": "rhf"
			},
			{
				"type": "occ",
				"energy": -0.29063,
				"method": "rhf"
			},
			{
				"type": "occ",
				"energy": -0.25039,
				"method": "rhf"
			},
			{
				"type": "unocc",
				"energy": -0.07473,
				"method": "rhf"
			},
			{
				"type": "unocc",
				"energy": -0.00991,
				"method": "rhf"
			},
			{
				"type": "unocc",
				"energy": 0.046,
				"method": "rhf"
			},
			{
				"type": "unocc",
				"energy": 0.06921,
				"method": "rhf"
			},
			{
				"type": "unocc",
				"energy": 0.07365,
				"method": "rhf"
			}
		],
		"cosmo_sigma_profile": { 
			"-0.025": 0.0,
			"-0.024": 0.0,
			"-0.023": 0.0,
			"-0.022": 0.0,
			"-0.021": 0.0,
			"-0.02": 0.0,
			"-0.019": 0.0,
			"-0.018": 0.0,
			"-0.017": 0.953083058149,
			"-0.016": 1.5235106162,
			"-0.015": 1.22980202928,
			"-0.014": 1.97166160381,
			"-0.013": 1.72050553752,
			"-0.012": 2.16432760864,
			"-0.011": 2.28236792055,
			"-0.01": 1.07941605344,
			"-0.009": 1.26041581452,
			"-0.008": 1.70772914964,
			"-0.007": 1.80678087523,
			"-0.006": 4.84742662617,
			"-0.005": 8.66547460494,
			"-0.004": 14.2911882852,
			"-0.003": 16.7640452075,
			"-0.002": 16.7880552052,
			"-0.001": 9.74762648536,
			"0.0": 6.33584874068,
			"0.001": 5.91319409819,
			"0.002": 4.66925552982,
			"0.003": 3.72122376086,
			"0.004": 3.72619220942,
			"0.005": 5.03156201857,
			"0.006": 6.68600443874,
			"0.007": 8.33911285799,
			"0.008": 6.68369010313,
			"0.009": 7.30724215143,
			"0.01": 5.93516934162,
			"0.011": 4.59362019119,
			"0.012": 1.44455996915,
			"0.013": 1.23347337596,
			"0.014": 0.0973114839334,
			"0.015": 0.0,
			"0.016": 0.0,
			"0.017": 0.0,
			"0.018": 0.0,
			"0.019": 0.0,
			"0.02": 0.0,
			"0.021": 0.0,
			"0.022": 0.0,
			"0.023": 0.0,
			"0.024": 0.0,
			"0.025": 0.0
		}
	}
}
