{
	 "smiles": "OC(=O)C1CCCS1", 
	 "Tm": 322.15, 
	 "num_atms": 16, 
	 "gaussian": { 
		 "optdone": 1, 
		 "sigma_profile": "yes", 
		 "theory": "DFT", 
		 "functional": "B3LYP", 
		 "basiset": "6-31G**", 
		 "properties": { 
			 "R2extent": 1183.935, 
			 "electric_dipole_moment_norm": 1.2418821643, 
			 "electric_quadrupole_moment_norm": 8.91691518127, 
			 "total_energy": -744.008671683, 
			 "HOMO_LUMO_gap": 0.21397, 
			 "cosmo_polarized_energy": -9.72, 
			 "cosmo_cavitation_energy": 20.16, 
			 "cosmo_dispersion_energy": -15.73, 
			 "cosmo_repulsion_energy": 1.27, 
			 "cosmo_total_nonelectrostatic_energy": 5.71, 
			 "SMD_solvation_energy": 3.75 
		},
		"coords": [
			{
				"x": 1.0985767231,
				"y": -0.9577730307,
				"z": 2.5158749241,
				"element": "O" 
			},
			{
				"x": 0.0235684655,
				"y": -0.8623573586,
				"z": 1.7010562639,
				"element": "C" 
			},
			{
				"x": -0.6259477875,
				"y": -1.8260389064,
				"z": 1.3548404745,
				"element": "O" 
			},
			{
				"x": -0.2347093863,
				"y": 0.5768890627,
				"z": 1.2947366664,
				"element": "C" 
			},
			{
				"x": -1.6347238995,
				"y": 0.7883830639,
				"z": 0.701912351,
				"element": "C" 
			},
			{
				"x": -1.5674635494,
				"y": 0.4182766238,
				"z": -0.7851420884,
				"element": "C" 
			},
			{
				"x": -0.3324364032,
				"y": 1.1182758788,
				"z": -1.3623208654,
				"element": "C" 
			},
			{
				"x": 0.9739364959,
				"y": 1.0382739489,
				"z": -0.052247323,
				"element": "S" 
			},
			{
				"x": 1.2294564362,
				"y": -1.905656069,
				"z": 2.6864937075,
				"element": "H" 
			},
			{
				"x": -0.0367742278,
				"y": 1.224636926,
				"z": 2.151717543,
				"element": "H" 
			},
			{
				"x": -2.3717542495,
				"y": 0.1822232796,
				"z": 1.2363669089,
				"element": "H" 
			},
			{
				"x": -1.9090455459,
				"y": 1.8427395499,
				"z": 0.8171625049,
				"element": "H" 
			},
			{
				"x": -2.4738244584,
				"y": 0.7220200989,
				"z": -1.32041917,
				"element": "H" 
			},
			{
				"x": -1.4633737135,
				"y": -0.6660670991,
				"z": -0.8784975676,
				"element": "H" 
			},
			{
				"x": -0.5339576648,
				"y": 2.1687623068,
				"z": -1.5906683675,
				"element": "H" 
			},
			{
				"x": 0.0466727653,
				"y": 0.6302117244,
				"z": -2.2628659623,
				"element": "H" 
			}
		],
		 "valence_orbital": [ 
			{
				"type": "occ",
				"energy": -0.3451,
				"method": "rhf"
			},
			{
				"type": "occ",
				"energy": -0.32218,
				"method": "rhf"
			},
			{
				"type": "occ",
				"energy": -0.30939,
				"method": "rhf"
			},
			{
				"type": "occ",
				"energy": -0.2826,
				"method": "rhf"
			},
			{
				"type": "occ",
				"energy": -0.22477,
				"method": "rhf"
			},
			{
				"type": "unocc",
				"energy": -0.0108,
				"method": "rhf"
			},
			{
				"type": "unocc",
				"energy": 0.03604,
				"method": "rhf"
			},
			{
				"type": "unocc",
				"energy": 0.071,
				"method": "rhf"
			},
			{
				"type": "unocc",
				"energy": 0.07751,
				"method": "rhf"
			},
			{
				"type": "unocc",
				"energy": 0.09929,
				"method": "rhf"
			}
		],
		"cosmo_sigma_profile": { 
			"-0.025": 0.0,
			"-0.024": 0.0,
			"-0.023": 0.0,
			"-0.022": 0.0,
			"-0.021": 0.0,
			"-0.02": 0.0,
			"-0.019": 0.0427044468901,
			"-0.018": 0.729092091173,
			"-0.017": 1.12512539373,
			"-0.016": 0.676553000476,
			"-0.015": 0.868258519878,
			"-0.014": 0.933456346625,
			"-0.013": 0.851967851945,
			"-0.012": 0.253876367278,
			"-0.011": 0.675215171405,
			"-0.01": 1.23859707397,
			"-0.009": 0.382339070516,
			"-0.008": 0.452315619179,
			"-0.007": 2.8788195016,
			"-0.006": 4.34285954515,
			"-0.005": 8.88173025393,
			"-0.004": 16.9206001346,
			"-0.003": 17.8663801489,
			"-0.002": 16.9616381181,
			"-0.001": 13.4554223959,
			"0.0": 8.31945378371,
			"0.001": 5.33708129048,
			"0.002": 4.96368308162,
			"0.003": 5.40600139406,
			"0.004": 6.47496811075,
			"0.005": 8.15272447722,
			"0.006": 6.08620973957,
			"0.007": 5.26800824243,
			"0.008": 5.34431344263,
			"0.009": 4.57698901016,
			"0.01": 3.83828344982,
			"0.011": 3.88259246318,
			"0.012": 2.67681424117,
			"0.013": 0.00769309694191,
			"0.014": 0.0,
			"0.015": 0.0,
			"0.016": 0.0,
			"0.017": 0.0,
			"0.018": 0.0,
			"0.019": 0.0,
			"0.02": 0.0,
			"0.021": 0.0,
			"0.022": 0.0,
			"0.023": 0.0,
			"0.024": 0.0,
			"0.025": 0.0
		}
	}
}
