{
	 "smiles": "CSC1=NC2=C(C(=O)N1)C(C)=CC(C)=N2", 
	 "Tm": 516.15, 
	 "num_atms": 26, 
	 "gaussian": { 
		 "optdone": 1, 
		 "sigma_profile": "yes", 
		 "theory": "DFT", 
		 "functional": "B3LYP", 
		 "basiset": "6-31G**", 
		 "properties": { 
			 "R2extent": 4805.7932, 
			 "electric_dipole_moment_norm": 1.02824521394, 
			 "electric_quadrupole_moment_norm": 16.7677904442, 
			 "total_energy": -1025.4047846, 
			 "HOMO_LUMO_gap": 0.18215, 
			 "cosmo_polarized_energy": -14.52, 
			 "cosmo_cavitation_energy": 31.37, 
			 "cosmo_dispersion_energy": -23.66, 
			 "cosmo_repulsion_energy": 1.8, 
			 "cosmo_total_nonelectrostatic_energy": 9.51, 
			 "SMD_solvation_energy": 3.5 
		},
		"coords": [
			{
				"x": -1.2680077416,
				"y": 4.6985530144,
				"z": 2.7391321964,
				"element": "C" 
			},
			{
				"x": 0.1001098915,
				"y": 4.7397791682,
				"z": 1.5331710593,
				"element": "S" 
			},
			{
				"x": 0.1529746345,
				"y": 3.0259861328,
				"z": 1.0685024467,
				"element": "C" 
			},
			{
				"x": -0.657858238,
				"y": 2.1622691462,
				"z": 1.5785419386,
				"element": "N" 
			},
			{
				"x": -0.5486558411,
				"y": 0.8441199184,
				"z": 1.1603004229,
				"element": "C" 
			},
			{
				"x": 0.4153189212,
				"y": 0.4271765629,
				"z": 0.2022707535,
				"element": "C" 
			},
			{
				"x": 1.3282992566,
				"y": 1.4238938176,
				"z": -0.3663733786,
				"element": "C" 
			},
			{
				"x": 2.2117399271,
				"y": 1.2423797668,
				"z": -1.1951526837,
				"element": "O" 
			},
			{
				"x": 1.1148639797,
				"y": 2.7181609813,
				"z": 0.1386970222,
				"element": "N" 
			},
			{
				"x": 0.4602123884,
				"y": -0.94057376,
				"z": -0.1706449813,
				"element": "C" 
			},
			{
				"x": 1.4407809181,
				"y": -1.4875889416,
				"z": -1.1750226333,
				"element": "C" 
			},
			{
				"x": -0.4583026317,
				"y": -1.7843346512,
				"z": 0.439851235,
				"element": "C" 
			},
			{
				"x": -1.3802933359,
				"y": -1.2855576643,
				"z": 1.3804339334,
				"element": "C" 
			},
			{
				"x": -2.3744219705,
				"y": -2.2097398739,
				"z": 2.0384224547,
				"element": "C" 
			},
			{
				"x": -1.425399523,
				"y": -0.0019623006,
				"z": 1.7332064513,
				"element": "N" 
			},
			{
				"x": -1.3812485429,
				"y": 5.7263097222,
				"z": 3.0895353517,
				"element": "H" 
			},
			{
				"x": -1.0184261184,
				"y": 4.0366253245,
				"z": 3.5676228091,
				"element": "H" 
			},
			{
				"x": -2.1828048861,
				"y": 4.3549716764,
				"z": 2.2575421463,
				"element": "H" 
			},
			{
				"x": 1.7315534246,
				"y": 3.4300333481,
				"z": -0.2358002598,
				"element": "H" 
			},
			{
				"x": 2.4718487395,
				"y": -1.3025890629,
				"z": -0.8624383207,
				"element": "H" 
			},
			{
				"x": 1.2909932824,
				"y": -2.5628316937,
				"z": -1.3032042129,
				"element": "H" 
			},
			{
				"x": 1.3335434555,
				"y": -0.9913791389,
				"z": -2.1431762645,
				"element": "H" 
			},
			{
				"x": -0.467310768,
				"y": -2.8416060191,
				"z": 0.1903594504,
				"element": "H" 
			},
			{
				"x": -3.0156291598,
				"y": -2.6922872099,
				"z": 1.2918771694,
				"element": "H" 
			},
			{
				"x": -2.9995468723,
				"y": -1.6453237787,
				"z": 2.7312953838,
				"element": "H" 
			},
			{
				"x": -1.8636331896,
				"y": -3.0082844852,
				"z": 2.58865051,
				"element": "H" 
			}
		],
		 "valence_orbital": [ 
			{
				"type": "occ",
				"energy": -0.27412,
				"method": "rhf"
			},
			{
				"type": "occ",
				"energy": -0.26948,
				"method": "rhf"
			},
			{
				"type": "occ",
				"energy": -0.26561,
				"method": "rhf"
			},
			{
				"type": "occ",
				"energy": -0.25087,
				"method": "rhf"
			},
			{
				"type": "occ",
				"energy": -0.22876,
				"method": "rhf"
			},
			{
				"type": "unocc",
				"energy": -0.04661,
				"method": "rhf"
			},
			{
				"type": "unocc",
				"energy": -0.03852,
				"method": "rhf"
			},
			{
				"type": "unocc",
				"energy": 0.00778,
				"method": "rhf"
			},
			{
				"type": "unocc",
				"energy": 0.02079,
				"method": "rhf"
			},
			{
				"type": "unocc",
				"energy": 0.06459,
				"method": "rhf"
			}
		],
		"cosmo_sigma_profile": { 
			"-0.025": 0.0,
			"-0.024": 0.0,
			"-0.023": 0.0,
			"-0.022": 0.0,
			"-0.021": 0.0,
			"-0.02": 0.0,
			"-0.019": 0.0,
			"-0.018": 0.0,
			"-0.017": 0.281458177613,
			"-0.016": 1.15535913976,
			"-0.015": 0.893146710636,
			"-0.014": 0.786900631611,
			"-0.013": 0.96199530096,
			"-0.012": 1.20399598363,
			"-0.011": 0.510656789131,
			"-0.01": 0.732778152791,
			"-0.009": 1.31861624056,
			"-0.008": 1.76791124379,
			"-0.007": 3.52692134474,
			"-0.006": 9.02450850715,
			"-0.005": 14.7978514116,
			"-0.004": 21.0367157912,
			"-0.003": 23.8424903186,
			"-0.002": 27.3245086098,
			"-0.001": 26.7550679115,
			"0.0": 27.6613158303,
			"0.001": 16.6754282196,
			"0.002": 12.8460387143,
			"0.003": 8.66813067512,
			"0.004": 6.94499203042,
			"0.005": 6.24377947089,
			"0.006": 5.59060405325,
			"0.007": 4.90982502083,
			"0.008": 2.900851536,
			"0.009": 3.0493404054,
			"0.01": 3.51748652562,
			"0.011": 3.01334975731,
			"0.012": 4.75217605425,
			"0.013": 4.01401245127,
			"0.014": 0.828020527838,
			"0.015": 1.19849110952,
			"0.016": 1.45965170197,
			"0.017": 1.01338834139,
			"0.018": 0.466373026544,
			"0.019": 0.0,
			"0.02": 0.0,
			"0.021": 0.0,
			"0.022": 0.0,
			"0.023": 0.0,
			"0.024": 0.0,
			"0.025": 0.0
		}
	}
}
