{
	 "smiles": "NC1=CC(=CC=C1)C(=O)CCC(O)=O", 
	 "Tm": 400.15, 
	 "num_atms": 25, 
	 "gaussian": { 
		 "optdone": 1, 
		 "sigma_profile": "yes", 
		 "theory": "DFT", 
		 "functional": "B3LYP", 
		 "basiset": "6-31G**", 
		 "properties": { 
			 "R2extent": 3850.0838, 
			 "electric_dipole_moment_norm": 4.26340908898, 
			 "electric_quadrupole_moment_norm": 17.1492459525, 
			 "total_energy": -668.141451046, 
			 "HOMO_LUMO_gap": 0.15986, 
			 "cosmo_polarized_energy": -19.45, 
			 "cosmo_cavitation_energy": 29.73, 
			 "cosmo_dispersion_energy": -21.38, 
			 "cosmo_repulsion_energy": 1.71, 
			 "cosmo_total_nonelectrostatic_energy": 10.05, 
			 "SMD_solvation_energy": 6.41 
		},
		"coords": [
			{
				"x": 0.4080967454,
				"y": -1.9788619508,
				"z": 3.3924683889,
				"element": "N" 
			},
			{
				"x": 0.5270305038,
				"y": -0.751713904,
				"z": 2.7379481388,
				"element": "C" 
			},
			{
				"x": 0.1651375568,
				"y": -0.6211842657,
				"z": 1.3876098877,
				"element": "C" 
			},
			{
				"x": 0.3388730714,
				"y": 0.5929411682,
				"z": 0.7106598374,
				"element": "C" 
			},
			{
				"x": 0.8798343786,
				"y": 1.6979835353,
				"z": 1.3849056562,
				"element": "C" 
			},
			{
				"x": 1.2391919838,
				"y": 1.5728008706,
				"z": 2.7235846136,
				"element": "C" 
			},
			{
				"x": 1.0670332394,
				"y": 0.3653531933,
				"z": 3.3988017273,
				"element": "C" 
			},
			{
				"x": -0.0415098171,
				"y": 0.7654407027,
				"z": -0.7279097708,
				"element": "C" 
			},
			{
				"x": 0.1189830368,
				"y": 1.8366658535,
				"z": -1.2954684283,
				"element": "O" 
			},
			{
				"x": -0.6498904477,
				"y": -0.4163096177,
				"z": -1.4821330023,
				"element": "C" 
			},
			{
				"x": -0.9537752017,
				"y": -0.0686805536,
				"z": -2.9359535786,
				"element": "C" 
			},
			{
				"x": 0.3104403853,
				"y": 0.0685580996,
				"z": -3.7585595264,
				"element": "C" 
			},
			{
				"x": 0.0905188691,
				"y": 0.7502056498,
				"z": -4.9060325661,
				"element": "O" 
			},
			{
				"x": 1.3907796544,
				"y": -0.4009444855,
				"z": -3.4735296483,
				"element": "O" 
			},
			{
				"x": 0.3452744824,
				"y": -1.9268212845,
				"z": 4.3996896419,
				"element": "H" 
			},
			{
				"x": -0.2762109644,
				"y": -2.6127374961,
				"z": 3.0038060166,
				"element": "H" 
			},
			{
				"x": -0.2445736869,
				"y": -1.4850613828,
				"z": 0.8727566425,
				"element": "H" 
			},
			{
				"x": 1.0056405609,
				"y": 2.6280111639,
				"z": 0.8431731317,
				"element": "H" 
			},
			{
				"x": 1.6580444801,
				"y": 2.4228757517,
				"z": 3.254713167,
				"element": "H" 
			},
			{
				"x": 1.356192135,
				"y": 0.2787705795,
				"z": 4.4434919654,
				"element": "H" 
			},
			{
				"x": -1.5646680877,
				"y": -0.7328699077,
				"z": -0.9660591055,
				"element": "H" 
			},
			{
				"x": 0.0484363131,
				"y": -1.2594179919,
				"z": -1.4396812272,
				"element": "H" 
			},
			{
				"x": -1.5233172575,
				"y": 0.8597962804,
				"z": -3.0142530581,
				"element": "H" 
			},
			{
				"x": -1.5562603636,
				"y": -0.8605560152,
				"z": -3.3984449662,
				"element": "H" 
			},
			{
				"x": 0.9427984303,
				"y": 0.7714560071,
				"z": -5.3728839373,
				"element": "H" 
			}
		],
		 "valence_orbital": [ 
			{
				"type": "occ",
				"energy": -0.30886,
				"method": "rhf"
			},
			{
				"type": "occ",
				"energy": -0.26956,
				"method": "rhf"
			},
			{
				"type": "occ",
				"energy": -0.25571,
				"method": "rhf"
			},
			{
				"type": "occ",
				"energy": -0.24761,
				"method": "rhf"
			},
			{
				"type": "occ",
				"energy": -0.21022,
				"method": "rhf"
			},
			{
				"type": "unocc",
				"energy": -0.05036,
				"method": "rhf"
			},
			{
				"type": "unocc",
				"energy": 0.00712,
				"method": "rhf"
			},
			{
				"type": "unocc",
				"energy": 0.01913,
				"method": "rhf"
			},
			{
				"type": "unocc",
				"energy": 0.04799,
				"method": "rhf"
			},
			{
				"type": "unocc",
				"energy": 0.07452,
				"method": "rhf"
			}
		],
		"cosmo_sigma_profile": { 
			"-0.025": 0.0,
			"-0.024": 0.0,
			"-0.023": 0.0,
			"-0.022": 0.0,
			"-0.021": 0.0,
			"-0.02": 0.0,
			"-0.019": 0.0,
			"-0.018": 0.46933640615,
			"-0.017": 1.25949098177,
			"-0.016": 0.52711593576,
			"-0.015": 0.925849324679,
			"-0.014": 0.705103918499,
			"-0.013": 1.30350531893,
			"-0.012": 4.02162754531,
			"-0.011": 3.17042486149,
			"-0.01": 3.84098554748,
			"-0.009": 4.20461121677,
			"-0.008": 3.5704590512,
			"-0.007": 7.376232321,
			"-0.006": 15.0607178352,
			"-0.005": 16.4403262405,
			"-0.004": 17.0362956888,
			"-0.003": 16.073990419,
			"-0.002": 10.3205805654,
			"-0.001": 8.43418368777,
			"0.0": 10.0519622562,
			"0.001": 10.156964533,
			"0.002": 9.61914396268,
			"0.003": 11.742969197,
			"0.004": 15.9513685056,
			"0.005": 16.4555869749,
			"0.006": 8.20226685252,
			"0.007": 6.10830537923,
			"0.008": 5.13750945077,
			"0.009": 6.23230351982,
			"0.01": 4.87516149838,
			"0.011": 6.76463433041,
			"0.012": 7.49205585053,
			"0.013": 0.896002809597,
			"0.014": 0.435531486884,
			"0.015": 0.107923890745,
			"0.016": 0.0,
			"0.017": 0.0,
			"0.018": 0.0,
			"0.019": 0.0,
			"0.02": 0.0,
			"0.021": 0.0,
			"0.022": 0.0,
			"0.023": 0.0,
			"0.024": 0.0,
			"0.025": 0.0
		}
	}
}
