{
	 "smiles": "OCC1=C(Cl)C=C(Cl)C=C1", 
	 "Tm": 332.35, 
	 "num_atms": 16, 
	 "gaussian": { 
		 "optdone": 1, 
		 "sigma_profile": "yes", 
		 "theory": "DFT", 
		 "functional": "B3LYP", 
		 "basiset": "6-31G**", 
		 "properties": { 
			 "R2extent": 3592.4331, 
			 "electric_dipole_moment_norm": 1.53084083431, 
			 "electric_quadrupole_moment_norm": 5.10692266341, 
			 "total_energy": -1265.96018649, 
			 "HOMO_LUMO_gap": 0.22265, 
			 "cosmo_polarized_energy": -7.49, 
			 "cosmo_cavitation_energy": 23.51, 
			 "cosmo_dispersion_energy": -17.76, 
			 "cosmo_repulsion_energy": 1.45, 
			 "cosmo_total_nonelectrostatic_energy": 7.21, 
			 "SMD_solvation_energy": 3.5 
		},
		"coords": [
			{
				"x": 1.6699106661,
				"y": 0.102440163,
				"z": -1.0979039825,
				"element": "O" 
			},
			{
				"x": 1.6868887159,
				"y": 0.7437987771,
				"z": 0.1657226821,
				"element": "C" 
			},
			{
				"x": 0.3062267817,
				"y": 0.9047417081,
				"z": 0.7813977903,
				"element": "C" 
			},
			{
				"x": 0.1208864139,
				"y": 1.2929762739,
				"z": 2.1144128378,
				"element": "C" 
			},
			{
				"x": 1.5191654186,
				"y": 1.6170020893,
				"z": 3.1378956315,
				"element": "Cl" 
			},
			{
				"x": -1.1446500954,
				"y": 1.4454610685,
				"z": 2.6781721993,
				"element": "C" 
			},
			{
				"x": -2.2610414434,
				"y": 1.2053937937,
				"z": 1.8791161215,
				"element": "C" 
			},
			{
				"x": -3.8630562515,
				"y": 1.3884746153,
				"z": 2.5737128614,
				"element": "Cl" 
			},
			{
				"x": -2.1235059184,
				"y": 0.8269790148,
				"z": 0.5453315639,
				"element": "C" 
			},
			{
				"x": -0.8428777699,
				"y": 0.6841379187,
				"z": 0.0141196791,
				"element": "C" 
			},
			{
				"x": 1.4512704891,
				"y": -0.8279123815,
				"z": -0.9546630127,
				"element": "H" 
			},
			{
				"x": 2.3489463864,
				"y": 0.2261245398,
				"z": 0.8735233341,
				"element": "H" 
			},
			{
				"x": 2.129266005,
				"y": 1.732150872,
				"z": -0.0050514154,
				"element": "H" 
			},
			{
				"x": -1.2543593604,
				"y": 1.7436246389,
				"z": 3.7135162698,
				"element": "H" 
			},
			{
				"x": -3.0016493792,
				"y": 0.6509579333,
				"z": -0.065509414,
				"element": "H" 
			},
			{
				"x": -0.7123206587,
				"y": 0.400148975,
				"z": -1.0246931461,
				"element": "H" 
			}
		],
		 "valence_orbital": [ 
			{
				"type": "occ",
				"energy": -0.32542,
				"method": "rhf"
			},
			{
				"type": "occ",
				"energy": -0.31948,
				"method": "rhf"
			},
			{
				"type": "occ",
				"energy": -0.29044,
				"method": "rhf"
			},
			{
				"type": "occ",
				"energy": -0.26499,
				"method": "rhf"
			},
			{
				"type": "occ",
				"energy": -0.24963,
				"method": "rhf"
			},
			{
				"type": "unocc",
				"energy": -0.02698,
				"method": "rhf"
			},
			{
				"type": "unocc",
				"energy": -0.02398,
				"method": "rhf"
			},
			{
				"type": "unocc",
				"energy": 0.00469,
				"method": "rhf"
			},
			{
				"type": "unocc",
				"energy": 0.0468,
				"method": "rhf"
			},
			{
				"type": "unocc",
				"energy": 0.06716,
				"method": "rhf"
			}
		],
		"cosmo_sigma_profile": { 
			"-0.025": 0.0,
			"-0.024": 0.0,
			"-0.023": 0.0,
			"-0.022": 0.0,
			"-0.021": 0.0,
			"-0.02": 0.0,
			"-0.019": 0.0,
			"-0.018": 0.0,
			"-0.017": 0.109831740875,
			"-0.016": 0.784758195786,
			"-0.015": 0.910720956976,
			"-0.014": 1.12968631384,
			"-0.013": 1.0867688052,
			"-0.012": 0.537578656284,
			"-0.011": 1.16991258723,
			"-0.01": 0.794010178527,
			"-0.009": 0.587848599733,
			"-0.008": 3.00281875773,
			"-0.007": 5.29335465335,
			"-0.006": 6.4048272264,
			"-0.005": 10.3000255329,
			"-0.004": 9.00492741135,
			"-0.003": 10.8661557943,
			"-0.002": 10.9284807904,
			"-0.001": 12.3608819987,
			"0.0": 15.3268595165,
			"0.001": 21.784578912,
			"0.002": 26.0527180521,
			"0.003": 18.5585169289,
			"0.004": 17.7962155025,
			"0.005": 6.56740501533,
			"0.006": 1.513477695,
			"0.007": 0.980805782705,
			"0.008": 0.774849706917,
			"0.009": 1.09240060426,
			"0.01": 1.46031502881,
			"0.011": 0.801329109442,
			"0.012": 1.61335022557,
			"0.013": 1.78953364964,
			"0.014": 0.740457178701,
			"0.015": 0.0,
			"0.016": 0.0,
			"0.017": 0.0,
			"0.018": 0.0,
			"0.019": 0.0,
			"0.02": 0.0,
			"0.021": 0.0,
			"0.022": 0.0,
			"0.023": 0.0,
			"0.024": 0.0,
			"0.025": 0.0
		}
	}
}
