{
	 "smiles": "ClC1=CC=CC2=CC=CC(Cl)=C12", 
	 "Tm": 362.15, 
	 "num_atms": 18, 
	 "gaussian": { 
		 "optdone": 1, 
		 "sigma_profile": "yes", 
		 "theory": "DFT", 
		 "functional": "B3LYP", 
		 "basiset": "6-31G**", 
		 "properties": { 
			 "R2extent": 3976.1068, 
			 "electric_dipole_moment_norm": 3.29977891835, 
			 "electric_quadrupole_moment_norm": 11.4500057856, 
			 "total_energy": -1305.06210964, 
			 "HOMO_LUMO_gap": 0.1632, 
			 "cosmo_polarized_energy": -5.8, 
			 "cosmo_cavitation_energy": 24.92, 
			 "cosmo_dispersion_energy": -19.12, 
			 "cosmo_repulsion_energy": 1.48, 
			 "cosmo_total_nonelectrostatic_energy": 7.28, 
			 "SMD_solvation_energy": 3.5 
		},
		"coords": [
			{
				"x": 4.3666155589,
				"y": -0.9114327633,
				"z": -0.0779379048,
				"element": "Cl" 
			},
			{
				"x": 3.0841696535,
				"y": -0.2610954923,
				"z": 0.9371830488,
				"element": "C" 
			},
			{
				"x": 3.3089966115,
				"y": -0.4015480353,
				"z": 2.2920798015,
				"element": "C" 
			},
			{
				"x": 2.3804167037,
				"y": 0.0658190241,
				"z": 3.2411253352,
				"element": "C" 
			},
			{
				"x": 1.2287669076,
				"y": 0.6731263263,
				"z": 2.8120977052,
				"element": "C" 
			},
			{
				"x": 0.9584600276,
				"y": 0.8377228743,
				"z": 1.4284219186,
				"element": "C" 
			},
			{
				"x": -0.2515296559,
				"y": 1.4745416214,
				"z": 1.0475078863,
				"element": "C" 
			},
			{
				"x": -0.5676768056,
				"y": 1.6618951632,
				"z": -0.2731515453,
				"element": "C" 
			},
			{
				"x": 0.3238227603,
				"y": 1.2145671465,
				"z": -1.2663736891,
				"element": "C" 
			},
			{
				"x": 1.5108531181,
				"y": 0.5906132826,
				"z": -0.9382491418,
				"element": "C" 
			},
			{
				"x": 2.4803490903,
				"y": 0.1093085081,
				"z": -2.3262068498,
				"element": "Cl" 
			},
			{
				"x": 1.8970236523,
				"y": 0.366032634,
				"z": 0.4268469362,
				"element": "C" 
			},
			{
				"x": 4.2234766895,
				"y": -0.8834885738,
				"z": 2.6182160713,
				"element": "H" 
			},
			{
				"x": 2.5859345947,
				"y": -0.0594475986,
				"z": 4.2994972628,
				"element": "H" 
			},
			{
				"x": 0.4963132915,
				"y": 1.0424252896,
				"z": 3.523897307,
				"element": "H" 
			},
			{
				"x": -0.9221615681,
				"y": 1.8103788602,
				"z": 1.8329984421,
				"element": "H" 
			},
			{
				"x": -1.4932743135,
				"y": 2.1489971383,
				"z": -0.5631179973,
				"element": "H" 
			},
			{
				"x": 0.0856436837,
				"y": 1.3565845945,
				"z": -2.3142345871,
				"element": "H" 
			}
		],
		 "valence_orbital": [ 
			{
				"type": "occ",
				"energy": -0.31582,
				"method": "rhf"
			},
			{
				"type": "occ",
				"energy": -0.28257,
				"method": "rhf"
			},
			{
				"type": "occ",
				"energy": -0.27601,
				"method": "rhf"
			},
			{
				"type": "occ",
				"energy": -0.26234,
				"method": "rhf"
			},
			{
				"type": "occ",
				"energy": -0.22042,
				"method": "rhf"
			},
			{
				"type": "unocc",
				"energy": -0.05722,
				"method": "rhf"
			},
			{
				"type": "unocc",
				"energy": -0.02833,
				"method": "rhf"
			},
			{
				"type": "unocc",
				"energy": 0.01594,
				"method": "rhf"
			},
			{
				"type": "unocc",
				"energy": 0.02545,
				"method": "rhf"
			},
			{
				"type": "unocc",
				"energy": 0.03446,
				"method": "rhf"
			}
		],
		"cosmo_sigma_profile": { 
			"-0.025": 0.0,
			"-0.024": 0.0,
			"-0.023": 0.0,
			"-0.022": 0.0,
			"-0.021": 0.0,
			"-0.02": 0.0,
			"-0.019": 0.0,
			"-0.018": 0.0,
			"-0.017": 0.0,
			"-0.016": 0.0,
			"-0.015": 0.0,
			"-0.014": 0.0,
			"-0.013": 0.0,
			"-0.012": 0.0,
			"-0.011": 0.0,
			"-0.01": 0.0,
			"-0.009": 0.0,
			"-0.008": 0.894894048672,
			"-0.007": 11.0559009302,
			"-0.006": 12.1181269475,
			"-0.005": 12.5969845134,
			"-0.004": 8.93743804735,
			"-0.003": 9.19571840327,
			"-0.002": 9.19659821859,
			"-0.001": 11.0197044314,
			"0.0": 15.6982849953,
			"0.001": 23.9516457546,
			"0.002": 32.3762978491,
			"0.003": 26.1966982968,
			"0.004": 16.5592480467,
			"0.005": 12.3774510407,
			"0.006": 2.9368351124,
			"0.007": 0.0,
			"0.008": 0.0,
			"0.009": 0.0,
			"0.01": 0.0,
			"0.011": 0.0,
			"0.012": 0.0,
			"0.013": 0.0,
			"0.014": 0.0,
			"0.015": 0.0,
			"0.016": 0.0,
			"0.017": 0.0,
			"0.018": 0.0,
			"0.019": 0.0,
			"0.02": 0.0,
			"0.021": 0.0,
			"0.022": 0.0,
			"0.023": 0.0,
			"0.024": 0.0,
			"0.025": 0.0
		}
	}
}
