{
	 "smiles": "ClC1=CC=C(C=C1)C1=NN=C(CNC2CC2)O1", 
	 "Tm": 378.15, 
	 "num_atms": 29, 
	 "gaussian": { 
		 "optdone": 1, 
		 "sigma_profile": "yes", 
		 "theory": "DFT", 
		 "functional": "B3LYP", 
		 "basiset": "6-31G**", 
		 "properties": { 
			 "R2extent": 8215.6595, 
			 "electric_dipole_moment_norm": 3.06152258525, 
			 "electric_quadrupole_moment_norm": 10.9828560744, 
			 "total_energy": -1164.11733333, 
			 "HOMO_LUMO_gap": 0.1827, 
			 "cosmo_polarized_energy": -12.17, 
			 "cosmo_cavitation_energy": 36.08, 
			 "cosmo_dispersion_energy": -26.06, 
			 "cosmo_repulsion_energy": 2.05, 
			 "cosmo_total_nonelectrostatic_energy": 12.07, 
			 "SMD_solvation_energy": 2.23 
		},
		"coords": [
			{
				"x": 3.4157500081,
				"y": -5.7452560992,
				"z": 0.9010867884,
				"element": "Cl" 
			},
			{
				"x": 2.1663254671,
				"y": -4.5146198453,
				"z": 0.8473336687,
				"element": "C" 
			},
			{
				"x": 2.522865746,
				"y": -3.171135447,
				"z": 0.9654908006,
				"element": "C" 
			},
			{
				"x": 1.5285420246,
				"y": -2.1971075716,
				"z": 0.9226587854,
				"element": "C" 
			},
			{
				"x": 0.183971949,
				"y": -2.5631136598,
				"z": 0.7628133863,
				"element": "C" 
			},
			{
				"x": -0.1551859393,
				"y": -3.9209021228,
				"z": 0.6450350594,
				"element": "C" 
			},
			{
				"x": 0.8327258925,
				"y": -4.8982110836,
				"z": 0.6868727867,
				"element": "C" 
			},
			{
				"x": -0.8718875478,
				"y": -1.5591923066,
				"z": 0.7152345539,
				"element": "C" 
			},
			{
				"x": -2.1515922972,
				"y": -1.7385358535,
				"z": 0.5573492548,
				"element": "N" 
			},
			{
				"x": -2.7327980332,
				"y": -0.4732011539,
				"z": 0.5800680404,
				"element": "N" 
			},
			{
				"x": -1.7674097294,
				"y": 0.3753246565,
				"z": 0.7521153343,
				"element": "C" 
			},
			{
				"x": -1.8490674958,
				"y": 1.8616435658,
				"z": 0.8359579735,
				"element": "C" 
			},
			{
				"x": -1.2026259545,
				"y": 2.4936364717,
				"z": -0.3166722764,
				"element": "N" 
			},
			{
				"x": -1.1481127122,
				"y": 3.9307057692,
				"z": -0.2200056342,
				"element": "C" 
			},
			{
				"x": -0.0852555319,
				"y": 4.6328365829,
				"z": -1.0210474742,
				"element": "C" 
			},
			{
				"x": 0.0475658613,
				"y": 4.5295378789,
				"z": 0.4796584596,
				"element": "C" 
			},
			{
				"x": -0.5517605762,
				"y": -0.2385738966,
				"z": 0.8461847022,
				"element": "O" 
			},
			{
				"x": 3.5636011846,
				"y": -2.8936097462,
				"z": 1.088535138,
				"element": "H" 
			},
			{
				"x": 1.795652749,
				"y": -1.1497200078,
				"z": 1.0118655197,
				"element": "H" 
			},
			{
				"x": -1.1969993572,
				"y": -4.1960663557,
				"z": 0.5213875237,
				"element": "H" 
			},
			{
				"x": 0.5765073224,
				"y": -5.947767135,
				"z": 0.5966974676,
				"element": "H" 
			},
			{
				"x": -2.914332419,
				"y": 2.1145259537,
				"z": 0.9575302757,
				"element": "H" 
			},
			{
				"x": -1.3266036957,
				"y": 2.2015346879,
				"z": 1.7377773547,
				"element": "H" 
			},
			{
				"x": -1.6895187057,
				"y": 2.2207940855,
				"z": -1.1678861963,
				"element": "H" 
			},
			{
				"x": -2.0971631325,
				"y": 4.4625200356,
				"z": -0.0931644948,
				"element": "H" 
			},
			{
				"x": -0.3255053832,
				"y": 5.5967569932,
				"z": -1.4586098213,
				"element": "H" 
			},
			{
				"x": 0.5655884178,
				"y": 4.0054637166,
				"z": -1.6213672629,
				"element": "H" 
			},
			{
				"x": -0.0991845351,
				"y": 5.4227677216,
				"z": 1.0788442203,
				"element": "H" 
			},
			{
				"x": 0.7864064235,
				"y": 3.8333641655,
				"z": 0.8637560661,
				"element": "H" 
			}
		],
		 "valence_orbital": [ 
			{
				"type": "occ",
				"energy": -0.29185,
				"method": "rhf"
			},
			{
				"type": "occ",
				"energy": -0.27881,
				"method": "rhf"
			},
			{
				"type": "occ",
				"energy": -0.27554,
				"method": "rhf"
			},
			{
				"type": "occ",
				"energy": -0.24128,
				"method": "rhf"
			},
			{
				"type": "occ",
				"energy": -0.24038,
				"method": "rhf"
			},
			{
				"type": "unocc",
				"energy": -0.05768,
				"method": "rhf"
			},
			{
				"type": "unocc",
				"energy": -0.02449,
				"method": "rhf"
			},
			{
				"type": "unocc",
				"energy": 0.00577,
				"method": "rhf"
			},
			{
				"type": "unocc",
				"energy": 0.02297,
				"method": "rhf"
			},
			{
				"type": "unocc",
				"energy": 0.05139,
				"method": "rhf"
			}
		],
		"cosmo_sigma_profile": { 
			"-0.025": 0.0,
			"-0.024": 0.0,
			"-0.023": 0.0,
			"-0.022": 0.0,
			"-0.021": 0.0,
			"-0.02": 0.0,
			"-0.019": 0.0,
			"-0.018": 0.0,
			"-0.017": 0.0,
			"-0.016": 0.0,
			"-0.015": 0.0,
			"-0.014": 0.0,
			"-0.013": 0.0,
			"-0.012": 0.000306058001285,
			"-0.011": 0.910851134449,
			"-0.01": 1.47135304113,
			"-0.009": 1.12295756043,
			"-0.008": 3.7123036388,
			"-0.007": 9.12521557872,
			"-0.006": 11.0449368413,
			"-0.005": 15.4368832485,
			"-0.004": 23.9722601038,
			"-0.003": 25.8004984417,
			"-0.002": 25.4079704608,
			"-0.001": 22.2299859925,
			"0.0": 26.4917870859,
			"0.001": 30.0288867836,
			"0.002": 26.5737993119,
			"0.003": 15.7330377669,
			"0.004": 15.5113913194,
			"0.005": 6.47592614952,
			"0.006": 4.03675493336,
			"0.007": 2.51743333117,
			"0.008": 3.38468187528,
			"0.009": 2.68663266901,
			"0.01": 3.10192299142,
			"0.011": 4.23237361513,
			"0.012": 2.90262086533,
			"0.013": 3.25315441298,
			"0.014": 2.15286610224,
			"0.015": 0.913750546473,
			"0.016": 0.0263398603731,
			"0.017": 0.0,
			"0.018": 0.0,
			"0.019": 0.0,
			"0.02": 0.0,
			"0.021": 0.0,
			"0.022": 0.0,
			"0.023": 0.0,
			"0.024": 0.0,
			"0.025": 0.0
		}
	}
}
