{
	 "smiles": "ClCC(=O)NC1=CC(=CC=C1)C#C", 
	 "Tm": 394.15, 
	 "num_atms": 21, 
	 "gaussian": { 
		 "optdone": 1, 
		 "sigma_profile": "yes", 
		 "theory": "DFT", 
		 "functional": "B3LYP", 
		 "basiset": "6-31G**", 
		 "properties": { 
			 "R2extent": 5205.9677, 
			 "electric_dipole_moment_norm": 4.83748400824, 
			 "electric_quadrupole_moment_norm": 24.5797317953, 
			 "total_energy": -975.989869129, 
			 "HOMO_LUMO_gap": 0.19266, 
			 "cosmo_polarized_energy": -16.13, 
			 "cosmo_cavitation_energy": 28.73, 
			 "cosmo_dispersion_energy": -20.23, 
			 "cosmo_repulsion_energy": 1.61, 
			 "cosmo_total_nonelectrostatic_energy": 10.11, 
			 "SMD_solvation_energy": 6.63 
		},
		"coords": [
			{
				"x": -2.5884765889,
				"y": -4.1260586183,
				"z": -3.1208311408,
				"element": "Cl" 
			},
			{
				"x": -2.1098921565,
				"y": -2.6862308304,
				"z": -2.165505718,
				"element": "C" 
			},
			{
				"x": -2.7863204106,
				"y": -2.668648822,
				"z": -0.7899557244,
				"element": "C" 
			},
			{
				"x": -3.8364479801,
				"y": -3.2360520121,
				"z": -0.5576832645,
				"element": "O" 
			},
			{
				"x": -2.1395581849,
				"y": -1.9567115879,
				"z": 0.2058889328,
				"element": "N" 
			},
			{
				"x": -0.9045261673,
				"y": -1.2623768548,
				"z": 0.2142020516,
				"element": "C" 
			},
			{
				"x": -0.0342661587,
				"y": -1.4641206091,
				"z": 1.2914523579,
				"element": "C" 
			},
			{
				"x": 1.1826289207,
				"y": -0.767440783,
				"z": 1.3695556891,
				"element": "C" 
			},
			{
				"x": 1.532859115,
				"y": 0.1264971719,
				"z": 0.3395743339,
				"element": "C" 
			},
			{
				"x": 0.6624634003,
				"y": 0.3259505491,
				"z": -0.7273253049,
				"element": "C" 
			},
			{
				"x": -0.559602001,
				"y": -0.3452829209,
				"z": -0.7887138967,
				"element": "C" 
			},
			{
				"x": 2.0601954433,
				"y": -0.9787925304,
				"z": 2.477999142,
				"element": "C" 
			},
			{
				"x": 2.8045565467,
				"y": -1.1550018543,
				"z": 3.4152487503,
				"element": "C" 
			},
			{
				"x": -1.0230315114,
				"y": -2.684052887,
				"z": -2.0837469235,
				"element": "H" 
			},
			{
				"x": -2.4185292684,
				"y": -1.8082426278,
				"z": -2.7374758695,
				"element": "H" 
			},
			{
				"x": -2.5997622475,
				"y": -2.0804513816,
				"z": 1.100111575,
				"element": "H" 
			},
			{
				"x": -0.2956317096,
				"y": -2.172497601,
				"z": 2.071087388,
				"element": "H" 
			},
			{
				"x": 2.4763989249,
				"y": 0.6582178341,
				"z": 0.3932144087,
				"element": "H" 
			},
			{
				"x": 0.9237201813,
				"y": 1.0295069667,
				"z": -1.5119033574,
				"element": "H" 
			},
			{
				"x": -1.2532186153,
				"y": -0.1349934032,
				"z": -1.5950912274,
				"element": "H" 
			},
			{
				"x": 3.459740468,
				"y": -1.311517198,
				"z": 4.2407977976,
				"element": "H" 
			}
		],
		 "valence_orbital": [ 
			{
				"type": "occ",
				"energy": -0.29812,
				"method": "rhf"
			},
			{
				"type": "occ",
				"energy": -0.28716,
				"method": "rhf"
			},
			{
				"type": "occ",
				"energy": -0.27061,
				"method": "rhf"
			},
			{
				"type": "occ",
				"energy": -0.25591,
				"method": "rhf"
			},
			{
				"type": "occ",
				"energy": -0.24194,
				"method": "rhf"
			},
			{
				"type": "unocc",
				"energy": -0.04928,
				"method": "rhf"
			},
			{
				"type": "unocc",
				"energy": -0.03419,
				"method": "rhf"
			},
			{
				"type": "unocc",
				"energy": 0.00595,
				"method": "rhf"
			},
			{
				"type": "unocc",
				"energy": 0.03179,
				"method": "rhf"
			},
			{
				"type": "unocc",
				"energy": 0.04097,
				"method": "rhf"
			}
		],
		"cosmo_sigma_profile": { 
			"-0.025": 0.0,
			"-0.024": 0.0,
			"-0.023": 0.0,
			"-0.022": 0.0,
			"-0.021": 0.0,
			"-0.02": 0.0,
			"-0.019": 0.0,
			"-0.018": 0.0,
			"-0.017": 0.0,
			"-0.016": 0.0,
			"-0.015": 0.724971128667,
			"-0.014": 0.887503136289,
			"-0.013": 1.23700950618,
			"-0.012": 1.94175832184,
			"-0.011": 3.75000608193,
			"-0.01": 5.07450999328,
			"-0.009": 5.31971627793,
			"-0.008": 6.66415447969,
			"-0.007": 9.74134889402,
			"-0.006": 11.7934062261,
			"-0.005": 12.6268429474,
			"-0.004": 10.7812982614,
			"-0.003": 10.3958405845,
			"-0.002": 8.8007662534,
			"-0.001": 12.9117350247,
			"0.0": 11.8629373566,
			"0.001": 14.8426100862,
			"0.002": 20.5347555379,
			"0.003": 19.1517922743,
			"0.004": 13.5547029399,
			"0.005": 14.2681121758,
			"0.006": 15.0122701166,
			"0.007": 2.83899487085,
			"0.008": 2.68448775492,
			"0.009": 1.68896540773,
			"0.01": 1.31727283658,
			"0.011": 2.50153374706,
			"0.012": 5.68842162319,
			"0.013": 4.16564835561,
			"0.014": 0.851950924269,
			"0.015": 0.0,
			"0.016": 0.0,
			"0.017": 0.0,
			"0.018": 0.0,
			"0.019": 0.0,
			"0.02": 0.0,
			"0.021": 0.0,
			"0.022": 0.0,
			"0.023": 0.0,
			"0.024": 0.0,
			"0.025": 0.0
		}
	}
}
