{
	 "smiles": "NC1=CC(Cl)=C(OCC2=CC(=CC=C2)C#N)C=C1", 
	 "Tm": 386.15, 
	 "num_atms": 29, 
	 "gaussian": { 
		 "optdone": 1, 
		 "sigma_profile": "yes", 
		 "theory": "DFT", 
		 "functional": "B3LYP", 
		 "basiset": "6-31G**", 
		 "properties": { 
			 "R2extent": 6826.4891, 
			 "electric_dipole_moment_norm": 3.59814650619, 
			 "electric_quadrupole_moment_norm": 35.9523568444, 
			 "total_energy": -1185.01205164, 
			 "HOMO_LUMO_gap": 0.14461, 
			 "cosmo_polarized_energy": -17.51, 
			 "cosmo_cavitation_energy": 36.67, 
			 "cosmo_dispersion_energy": -25.44, 
			 "cosmo_repulsion_energy": 2.0, 
			 "cosmo_total_nonelectrostatic_energy": 13.23, 
			 "SMD_solvation_energy": 7.37 
		},
		"coords": [
			{
				"x": -2.8910713841,
				"y": 1.3516456026,
				"z": 2.8018307759,
				"element": "N" 
			},
			{
				"x": -1.6379283048,
				"y": 1.0480032851,
				"z": 2.2578637993,
				"element": "C" 
			},
			{
				"x": -0.5471234025,
				"y": 0.7595914646,
				"z": 3.0944493713,
				"element": "C" 
			},
			{
				"x": 0.7120991547,
				"y": 0.5210595513,
				"z": 2.5568065072,
				"element": "C" 
			},
			{
				"x": 2.0441527238,
				"y": 0.1635486687,
				"z": 3.6399146435,
				"element": "Cl" 
			},
			{
				"x": 0.9387426882,
				"y": 0.5591846223,
				"z": 1.1709036393,
				"element": "C" 
			},
			{
				"x": 2.2189231505,
				"y": 0.316426976,
				"z": 0.7425999973,
				"element": "O" 
			},
			{
				"x": 2.5343767485,
				"y": 0.5112575379,
				"z": -0.6278949444,
				"element": "C" 
			},
			{
				"x": 2.1255468049,
				"y": -0.6463779864,
				"z": -1.522539322,
				"element": "C" 
			},
			{
				"x": 1.8569493023,
				"y": -0.4247336225,
				"z": -2.8738301205,
				"element": "C" 
			},
			{
				"x": 1.5371452751,
				"y": -1.5006261795,
				"z": -3.7188357293,
				"element": "C" 
			},
			{
				"x": 1.4788375251,
				"y": -2.806434379,
				"z": -3.2056259682,
				"element": "C" 
			},
			{
				"x": 1.7428270131,
				"y": -3.0208998095,
				"z": -1.8549188958,
				"element": "C" 
			},
			{
				"x": 2.0669625588,
				"y": -1.951879812,
				"z": -1.0188252465,
				"element": "C" 
			},
			{
				"x": 1.2600807285,
				"y": -1.2596306409,
				"z": -5.1057534588,
				"element": "C" 
			},
			{
				"x": 1.0346267791,
				"y": -1.0621218432,
				"z": -6.2297812843,
				"element": "N" 
			},
			{
				"x": -0.1522004847,
				"y": 0.8367460398,
				"z": 0.3417990786,
				"element": "C" 
			},
			{
				"x": -1.4178524252,
				"y": 1.0801749363,
				"z": 0.8743839773,
				"element": "C" 
			},
			{
				"x": -3.0641657103,
				"y": 0.9552367765,
				"z": 3.7157142533,
				"element": "H" 
			},
			{
				"x": -3.6706807195,
				"y": 1.1908673624,
				"z": 2.1783932277,
				"element": "H" 
			},
			{
				"x": -0.6740042333,
				"y": 0.7287370477,
				"z": 4.1718119507,
				"element": "H" 
			},
			{
				"x": 3.6248596081,
				"y": 0.6159359262,
				"z": -0.6409121352,
				"element": "H" 
			},
			{
				"x": 2.1103258127,
				"y": 1.454352779,
				"z": -0.9973423745,
				"element": "H" 
			},
			{
				"x": 1.8913335051,
				"y": 0.5804119017,
				"z": -3.284710245,
				"element": "H" 
			},
			{
				"x": 1.2264230207,
				"y": -3.6317048783,
				"z": -3.8626585833,
				"element": "H" 
			},
			{
				"x": 1.6966703234,
				"y": -4.0276953771,
				"z": -1.451367355,
				"element": "H" 
			},
			{
				"x": 2.2696939401,
				"y": -2.1188349554,
				"z": 0.0340961725,
				"element": "H" 
			},
			{
				"x": -0.028912338,
				"y": 0.8462511844,
				"z": -0.7344097204,
				"element": "H" 
			},
			{
				"x": -2.2435376602,
				"y": 1.2961078214,
				"z": 0.2018379893,
				"element": "H" 
			}
		],
		 "valence_orbital": [ 
			{
				"type": "occ",
				"energy": -0.28779,
				"method": "rhf"
			},
			{
				"type": "occ",
				"energy": -0.27545,
				"method": "rhf"
			},
			{
				"type": "occ",
				"energy": -0.26714,
				"method": "rhf"
			},
			{
				"type": "occ",
				"energy": -0.24842,
				"method": "rhf"
			},
			{
				"type": "occ",
				"energy": -0.20012,
				"method": "rhf"
			},
			{
				"type": "unocc",
				"energy": -0.05551,
				"method": "rhf"
			},
			{
				"type": "unocc",
				"energy": -0.03104,
				"method": "rhf"
			},
			{
				"type": "unocc",
				"energy": -0.01249,
				"method": "rhf"
			},
			{
				"type": "unocc",
				"energy": 0.01435,
				"method": "rhf"
			},
			{
				"type": "unocc",
				"energy": 0.03164,
				"method": "rhf"
			}
		],
		"cosmo_sigma_profile": { 
			"-0.025": 0.0,
			"-0.024": 0.0,
			"-0.023": 0.0,
			"-0.022": 0.0,
			"-0.021": 0.0,
			"-0.02": 0.0,
			"-0.019": 0.0,
			"-0.018": 0.0,
			"-0.017": 0.0,
			"-0.016": 0.0,
			"-0.015": 0.0,
			"-0.014": 0.0,
			"-0.013": 0.414448319518,
			"-0.012": 2.98315369986,
			"-0.011": 2.765111311,
			"-0.01": 2.72021677178,
			"-0.009": 4.41845497328,
			"-0.008": 9.33646969799,
			"-0.007": 14.5197579743,
			"-0.006": 19.3882784255,
			"-0.005": 17.829212231,
			"-0.004": 14.9459463474,
			"-0.003": 13.6122518276,
			"-0.002": 15.7101692733,
			"-0.001": 16.8107052444,
			"0.0": 17.9322514657,
			"0.001": 18.1788226358,
			"0.002": 23.8799637162,
			"0.003": 22.6346862963,
			"0.004": 18.9666278506,
			"0.005": 19.1254520301,
			"0.006": 8.03012046696,
			"0.007": 5.15909620083,
			"0.008": 6.22489326352,
			"0.009": 5.40475790205,
			"0.01": 5.18266354246,
			"0.011": 4.43749112823,
			"0.012": 2.83114873408,
			"0.013": 1.93342325847,
			"0.014": 0.930753154415,
			"0.015": 0.310648075472,
			"0.016": 0.0,
			"0.017": 0.0,
			"0.018": 0.0,
			"0.019": 0.0,
			"0.02": 0.0,
			"0.021": 0.0,
			"0.022": 0.0,
			"0.023": 0.0,
			"0.024": 0.0,
			"0.025": 0.0
		}
	}
}
