{
	 "smiles": "OC(=O)C1=C(O)C=C(O)N=C1", 
	 "Tm": 567.15, 
	 "num_atms": 16, 
	 "gaussian": { 
		 "optdone": 1, 
		 "sigma_profile": "yes", 
		 "theory": "DFT", 
		 "functional": "B3LYP", 
		 "basiset": "6-31G**", 
		 "properties": { 
			 "R2extent": 1870.616, 
			 "electric_dipole_moment_norm": 1.49398892232, 
			 "electric_quadrupole_moment_norm": 11.6609227234, 
			 "total_energy": -587.324654248, 
			 "HOMO_LUMO_gap": 0.20012, 
			 "cosmo_polarized_energy": -12.98, 
			 "cosmo_cavitation_energy": 21.03, 
			 "cosmo_dispersion_energy": -16.24, 
			 "cosmo_repulsion_energy": 1.3, 
			 "cosmo_total_nonelectrostatic_energy": 6.1, 
			 "SMD_solvation_energy": 4.33 
		},
		"coords": [
			{
				"x": 1.5444502269,
				"y": -1.6811774942,
				"z": -1.0536838979,
				"element": "O" 
			},
			{
				"x": 0.6592160925,
				"y": -1.4387253108,
				"z": -0.0251297693,
				"element": "C" 
			},
			{
				"x": 0.594903177,
				"y": -2.1937594695,
				"z": 0.9214418985,
				"element": "O" 
			},
			{
				"x": -0.1364103549,
				"y": -0.2212803173,
				"z": -0.2284905918,
				"element": "C" 
			},
			{
				"x": -0.0430423553,
				"y": 0.6515009436,
				"z": -1.3509244642,
				"element": "C" 
			},
			{
				"x": 0.7969544886,
				"y": 0.4691560736,
				"z": -2.3809013839,
				"element": "O" 
			},
			{
				"x": -0.8734274936,
				"y": 1.7708646768,
				"z": -1.3926428917,
				"element": "C" 
			},
			{
				"x": -1.753143379,
				"y": 1.9777903343,
				"z": -0.3316678693,
				"element": "C" 
			},
			{
				"x": -2.5593749307,
				"y": 3.054180018,
				"z": -0.3602091161,
				"element": "O" 
			},
			{
				"x": -1.863596782,
				"y": 1.1740064333,
				"z": 0.7381800578,
				"element": "N" 
			},
			{
				"x": -1.067924774,
				"y": 0.1105423449,
				"z": 0.767683442,
				"element": "C" 
			},
			{
				"x": 2.0168882604,
				"y": -2.4988089646,
				"z": -0.8261164645,
				"element": "H" 
			},
			{
				"x": 1.3152762793,
				"y": -0.3418250234,
				"z": -2.2277440356,
				"element": "H" 
			},
			{
				"x": -0.8304103509,
				"y": 2.45617114,
				"z": -2.2294377102,
				"element": "H" 
			},
			{
				"x": -3.084199149,
				"y": 3.0153000774,
				"z": 0.4560586827,
				"element": "H" 
			},
			{
				"x": -1.1504589553,
				"y": -0.5459354621,
				"z": 1.6300841134,
				"element": "H" 
			}
		],
		 "valence_orbital": [ 
			{
				"type": "occ",
				"energy": -0.33569,
				"method": "rhf"
			},
			{
				"type": "occ",
				"energy": -0.29751,
				"method": "rhf"
			},
			{
				"type": "occ",
				"energy": -0.28118,
				"method": "rhf"
			},
			{
				"type": "occ",
				"energy": -0.26255,
				"method": "rhf"
			},
			{
				"type": "occ",
				"energy": -0.25065,
				"method": "rhf"
			},
			{
				"type": "unocc",
				"energy": -0.05053,
				"method": "rhf"
			},
			{
				"type": "unocc",
				"energy": -0.01878,
				"method": "rhf"
			},
			{
				"type": "unocc",
				"energy": 0.04958,
				"method": "rhf"
			},
			{
				"type": "unocc",
				"energy": 0.05764,
				"method": "rhf"
			},
			{
				"type": "unocc",
				"energy": 0.08513,
				"method": "rhf"
			}
		],
		"cosmo_sigma_profile": { 
			"-0.025": 0.0,
			"-0.024": 0.0,
			"-0.023": 0.0,
			"-0.022": 0.0,
			"-0.021": 0.0,
			"-0.02": 0.0,
			"-0.019": 0.5894053126,
			"-0.018": 1.15119690053,
			"-0.017": 1.42756770577,
			"-0.016": 1.66291794773,
			"-0.015": 1.97088320672,
			"-0.014": 1.07419424048,
			"-0.013": 1.26261326471,
			"-0.012": 1.00504834233,
			"-0.011": 2.01897257746,
			"-0.01": 1.80093969301,
			"-0.009": 2.10725118704,
			"-0.008": 2.96808909683,
			"-0.007": 4.47623099617,
			"-0.006": 5.47944851105,
			"-0.005": 6.31754057024,
			"-0.004": 7.42799476887,
			"-0.003": 8.73532777853,
			"-0.002": 9.69912776118,
			"-0.001": 14.5775029748,
			"0.0": 16.6838105977,
			"0.001": 12.6701121431,
			"0.002": 11.0740847189,
			"0.003": 6.40227147952,
			"0.004": 4.86366025238,
			"0.005": 4.98646685025,
			"0.006": 4.74709818204,
			"0.007": 5.2110050411,
			"0.008": 5.49657571867,
			"0.009": 6.05156952595,
			"0.01": 5.56949102473,
			"0.011": 5.96819854158,
			"0.012": 2.27219397553,
			"0.013": 0.657963748196,
			"0.014": 0.101205450388,
			"0.015": 0.0,
			"0.016": 0.0,
			"0.017": 0.0,
			"0.018": 0.0,
			"0.019": 0.0,
			"0.02": 0.0,
			"0.021": 0.0,
			"0.022": 0.0,
			"0.023": 0.0,
			"0.024": 0.0,
			"0.025": 0.0
		}
	}
}
