{
	 "smiles": "CC1=CC(=CC(C)=C1O)C1=CC(C)=C(O)C(C)=C1", 
	 "Tm": 495.15, 
	 "num_atms": 36, 
	 "gaussian": { 
		 "optdone": 1, 
		 "sigma_profile": "yes", 
		 "theory": "DFT", 
		 "functional": "B3LYP", 
		 "basiset": "6-31G**", 
		 "properties": { 
			 "R2extent": 6516.2283, 
			 "electric_dipole_moment_norm": 2.62957480023, 
			 "electric_quadrupole_moment_norm": 11.3284501689, 
			 "total_energy": -771.030401249, 
			 "HOMO_LUMO_gap": 0.18287, 
			 "cosmo_polarized_energy": -13.31, 
			 "cosmo_cavitation_energy": 38.34, 
			 "cosmo_dispersion_energy": -27.59, 
			 "cosmo_repulsion_energy": 2.13, 
			 "cosmo_total_nonelectrostatic_energy": 12.88, 
			 "SMD_solvation_energy": 6.67 
		},
		"coords": [
			{
				"x": -2.8133922443,
				"y": 0.9767348687,
				"z": 3.8369782256,
				"element": "C" 
			},
			{
				"x": -2.1889320638,
				"y": 0.2636715627,
				"z": 2.6597961121,
				"element": "C" 
			},
			{
				"x": -1.1644784673,
				"y": 0.852291591,
				"z": 1.9136272474,
				"element": "C" 
			},
			{
				"x": -0.5670596842,
				"y": 0.2013121347,
				"z": 0.8250512726,
				"element": "C" 
			},
			{
				"x": -1.032764339,
				"y": -1.0838868139,
				"z": 0.5006082406,
				"element": "C" 
			},
			{
				"x": -2.0498182174,
				"y": -1.7125121977,
				"z": 1.2185820387,
				"element": "C" 
			},
			{
				"x": -2.5502818041,
				"y": -3.0881604341,
				"z": 0.8578008404,
				"element": "C" 
			},
			{
				"x": -2.6217751681,
				"y": -1.0227065436,
				"z": 2.3001118811,
				"element": "C" 
			},
			{
				"x": -3.6204243003,
				"y": -1.6730803734,
				"z": 2.9813636904,
				"element": "O" 
			},
			{
				"x": 0.5183129031,
				"y": 0.8456349657,
				"z": 0.0443463178,
				"element": "C" 
			},
			{
				"x": 1.6021190939,
				"y": 0.0996434334,
				"z": -0.4483234185,
				"element": "C" 
			},
			{
				"x": 2.633933144,
				"y": 0.6799721308,
				"z": -1.1856560943,
				"element": "C" 
			},
			{
				"x": 3.7983331123,
				"y": -0.1262146088,
				"z": -1.7026220112,
				"element": "C" 
			},
			{
				"x": 2.575728745,
				"y": 2.0611463154,
				"z": -1.4339651983,
				"element": "C" 
			},
			{
				"x": 3.6095291194,
				"y": 2.5961312052,
				"z": -2.1615893089,
				"element": "O" 
			},
			{
				"x": 1.5124575821,
				"y": 2.8463718722,
				"z": -0.960278949,
				"element": "C" 
			},
			{
				"x": 1.4690174108,
				"y": 4.3281860479,
				"z": -1.254402062,
				"element": "C" 
			},
			{
				"x": 0.499246617,
				"y": 2.2205867555,
				"z": -0.2291693037,
				"element": "C" 
			},
			{
				"x": -2.6889124006,
				"y": 0.4171600718,
				"z": 4.7745988291,
				"element": "H" 
			},
			{
				"x": -2.3533596192,
				"y": 1.9562757395,
				"z": 3.9867441626,
				"element": "H" 
			},
			{
				"x": -3.8900346729,
				"y": 1.1467605687,
				"z": 3.6953451531,
				"element": "H" 
			},
			{
				"x": -0.806514728,
				"y": 1.835232953,
				"z": 2.2083240832,
				"element": "H" 
			},
			{
				"x": -0.6070366674,
				"y": -1.6021929526,
				"z": -0.3544274578,
				"element": "H" 
			},
			{
				"x": -2.0133258271,
				"y": -3.4843856743,
				"z": -0.0080327855,
				"element": "H" 
			},
			{
				"x": -3.6205786305,
				"y": -3.0740326131,
				"z": 0.6235297246,
				"element": "H" 
			},
			{
				"x": -2.4248334372,
				"y": -3.7881785682,
				"z": 1.6914738375,
				"element": "H" 
			},
			{
				"x": -3.9447533855,
				"y": -1.1059412644,
				"z": 3.6914859036,
				"element": "H" 
			},
			{
				"x": 1.6575026125,
				"y": -0.963368395,
				"z": -0.2294470243,
				"element": "H" 
			},
			{
				"x": 3.8681933215,
				"y": -0.0685703604,
				"z": -2.7946726739,
				"element": "H" 
			},
			{
				"x": 3.7019788427,
				"y": -1.1775233821,
				"z": -1.4189796122,
				"element": "H" 
			},
			{
				"x": 4.7494958868,
				"y": 0.25130739,
				"z": -1.3109849304,
				"element": "H" 
			},
			{
				"x": 3.4722097491,
				"y": 3.5460315286,
				"z": -2.26131035,
				"element": "H" 
			},
			{
				"x": 0.5724966957,
				"y": 4.7832437849,
				"z": -0.8269377404,
				"element": "H" 
			},
			{
				"x": 1.4513007699,
				"y": 4.5366321929,
				"z": -2.3332843184,
				"element": "H" 
			},
			{
				"x": 2.3319207642,
				"y": 4.8607043816,
				"z": -0.8301880783,
				"element": "H" 
			},
			{
				"x": -0.340300713,
				"y": 2.8201226875,
				"z": 0.1127037566,
				"element": "H" 
			}
		],
		 "valence_orbital": [ 
			{
				"type": "occ",
				"energy": -0.30826,
				"method": "rhf"
			},
			{
				"type": "occ",
				"energy": -0.23308,
				"method": "rhf"
			},
			{
				"type": "occ",
				"energy": -0.23144,
				"method": "rhf"
			},
			{
				"type": "occ",
				"energy": -0.22704,
				"method": "rhf"
			},
			{
				"type": "occ",
				"energy": -0.18735,
				"method": "rhf"
			},
			{
				"type": "unocc",
				"energy": -0.00448,
				"method": "rhf"
			},
			{
				"type": "unocc",
				"energy": 0.00785,
				"method": "rhf"
			},
			{
				"type": "unocc",
				"energy": 0.01192,
				"method": "rhf"
			},
			{
				"type": "unocc",
				"energy": 0.04708,
				"method": "rhf"
			},
			{
				"type": "unocc",
				"energy": 0.06638,
				"method": "rhf"
			}
		],
		"cosmo_sigma_profile": { 
			"-0.025": 0.0,
			"-0.024": 0.0,
			"-0.023": 0.0,
			"-0.022": 0.0,
			"-0.021": 0.0,
			"-0.02": 0.0,
			"-0.019": 0.0,
			"-0.018": 0.0,
			"-0.017": 0.0,
			"-0.016": 0.41741580454,
			"-0.015": 1.29528673294,
			"-0.014": 1.82531063896,
			"-0.013": 1.76490715772,
			"-0.012": 1.97410531382,
			"-0.011": 1.69426718627,
			"-0.01": 3.15628757756,
			"-0.009": 2.42855282455,
			"-0.008": 2.39150903167,
			"-0.007": 2.70836920992,
			"-0.006": 3.76831057552,
			"-0.005": 12.8456809145,
			"-0.004": 27.7446360256,
			"-0.003": 25.2871921338,
			"-0.002": 24.7956422044,
			"-0.001": 27.1232437094,
			"0.0": 29.7653667183,
			"0.001": 24.6632878051,
			"0.002": 14.9427443496,
			"0.003": 14.3384483845,
			"0.004": 19.7893893572,
			"0.005": 18.4516265029,
			"0.006": 19.1449698051,
			"0.007": 7.03540121262,
			"0.008": 3.04763051632,
			"0.009": 3.41167897897,
			"0.01": 3.49960113096,
			"0.011": 2.64449357016,
			"0.012": 0.00375043604306,
			"0.013": 0.0,
			"0.014": 0.0,
			"0.015": 0.0,
			"0.016": 0.0,
			"0.017": 0.0,
			"0.018": 0.0,
			"0.019": 0.0,
			"0.02": 0.0,
			"0.021": 0.0,
			"0.022": 0.0,
			"0.023": 0.0,
			"0.024": 0.0,
			"0.025": 0.0
		}
	}
}
