{
	 "smiles": "OC(=O)C1=CC2=C(N1)C=C(C=C2)C1=CC=CC=C1", 
	 "Tm": 524.15, 
	 "num_atms": 29, 
	 "gaussian": { 
		 "optdone": 1, 
		 "sigma_profile": "yes", 
		 "theory": "DFT", 
		 "functional": "B3LYP", 
		 "basiset": "6-31G**", 
		 "properties": { 
			 "R2extent": 7184.5183, 
			 "electric_dipole_moment_norm": 4.87394336139, 
			 "electric_quadrupole_moment_norm": 34.8698513268, 
			 "total_energy": -783.443527645, 
			 "HOMO_LUMO_gap": 0.15826, 
			 "cosmo_polarized_energy": -19.56, 
			 "cosmo_cavitation_energy": 34.01, 
			 "cosmo_dispersion_energy": -24.91, 
			 "cosmo_repulsion_energy": 1.89, 
			 "cosmo_total_nonelectrostatic_energy": 10.99, 
			 "SMD_solvation_energy": 6.36 
		},
		"coords": [
			{
				"x": -4.6263787525,
				"y": 2.7368334114,
				"z": -3.0350227642,
				"element": "O" 
			},
			{
				"x": -5.0295781701,
				"y": 1.5404190772,
				"z": -2.5045074666,
				"element": "C" 
			},
			{
				"x": -6.188398038,
				"y": 1.2044897127,
				"z": -2.5533056613,
				"element": "O" 
			},
			{
				"x": -3.9626541757,
				"y": 0.7371681448,
				"z": -1.8808725733,
				"element": "C" 
			},
			{
				"x": -3.9495246329,
				"y": -0.6180305109,
				"z": -1.6574642019,
				"element": "C" 
			},
			{
				"x": -2.6826195244,
				"y": -0.9439171745,
				"z": -1.0772918137,
				"element": "C" 
			},
			{
				"x": -1.954658133,
				"y": 0.271440866,
				"z": -0.9565661407,
				"element": "C" 
			},
			{
				"x": -2.7317044796,
				"y": 1.2843026456,
				"z": -1.4951955147,
				"element": "N" 
			},
			{
				"x": -0.6849689893,
				"y": 0.3314918921,
				"z": -0.3783455884,
				"element": "C" 
			},
			{
				"x": -0.1060438998,
				"y": -0.8570521226,
				"z": 0.0761941021,
				"element": "C" 
			},
			{
				"x": -0.8192535773,
				"y": -2.0794510329,
				"z": -0.063130255,
				"element": "C" 
			},
			{
				"x": -2.0814358355,
				"y": -2.1348488904,
				"z": -0.6286040148,
				"element": "C" 
			},
			{
				"x": 1.2442488993,
				"y": -0.8462090753,
				"z": 0.6947983781,
				"element": "C" 
			},
			{
				"x": 2.2604708946,
				"y": -0.0106763967,
				"z": 0.1994951596,
				"element": "C" 
			},
			{
				"x": 3.5255004443,
				"y": 0.0047387763,
				"z": 0.7850544191,
				"element": "C" 
			},
			{
				"x": 3.8045147733,
				"y": -0.8177867477,
				"z": 1.8781798393,
				"element": "C" 
			},
			{
				"x": 2.806420402,
				"y": -1.6553599961,
				"z": 2.3797763964,
				"element": "C" 
			},
			{
				"x": 1.540975655,
				"y": -1.6695115127,
				"z": 1.7949736721,
				"element": "C" 
			},
			{
				"x": -3.6672811172,
				"y": 2.7251303196,
				"z": -3.1705416211,
				"element": "H" 
			},
			{
				"x": -4.752836614,
				"y": -1.291842048,
				"z": -1.9179008256,
				"element": "H" 
			},
			{
				"x": -2.6235707088,
				"y": 2.2527791522,
				"z": -1.2287173543,
				"element": "H" 
			},
			{
				"x": -0.1658841276,
				"y": 1.2779220107,
				"z": -0.2613495036,
				"element": "H" 
			},
			{
				"x": -0.3422346256,
				"y": -2.9976348589,
				"z": 0.2641137198,
				"element": "H" 
			},
			{
				"x": -2.6002073912,
				"y": -3.0840194716,
				"z": -0.7253910566,
				"element": "H" 
			},
			{
				"x": 2.0634341831,
				"y": 0.6104251587,
				"z": -0.6694795904,
				"element": "H" 
			},
			{
				"x": 4.2977757955,
				"y": 0.6524562027,
				"z": 0.379661708,
				"element": "H" 
			},
			{
				"x": 4.7904583228,
				"y": -0.8073890236,
				"z": 2.3335512442,
				"element": "H" 
			},
			{
				"x": 3.0102512712,
				"y": -2.293984943,
				"z": 3.2346503715,
				"element": "H" 
			},
			{
				"x": 0.7647821514,
				"y": -2.305383565,
				"z": 2.2102369361,
				"element": "H" 
			}
		],
		 "valence_orbital": [ 
			{
				"type": "occ",
				"energy": -0.27753,
				"method": "rhf"
			},
			{
				"type": "occ",
				"energy": -0.26244,
				"method": "rhf"
			},
			{
				"type": "occ",
				"energy": -0.25582,
				"method": "rhf"
			},
			{
				"type": "occ",
				"energy": -0.2373,
				"method": "rhf"
			},
			{
				"type": "occ",
				"energy": -0.21692,
				"method": "rhf"
			},
			{
				"type": "unocc",
				"energy": -0.05866,
				"method": "rhf"
			},
			{
				"type": "unocc",
				"energy": -0.01551,
				"method": "rhf"
			},
			{
				"type": "unocc",
				"energy": -0.00759,
				"method": "rhf"
			},
			{
				"type": "unocc",
				"energy": 0.00101,
				"method": "rhf"
			},
			{
				"type": "unocc",
				"energy": 0.03541,
				"method": "rhf"
			}
		],
		"cosmo_sigma_profile": { 
			"-0.025": 0.0,
			"-0.024": 0.0,
			"-0.023": 0.0,
			"-0.022": 0.0,
			"-0.021": 0.0,
			"-0.02": 0.0,
			"-0.019": 0.04460673482,
			"-0.018": 1.05127849278,
			"-0.017": 2.70493375539,
			"-0.016": 1.94714633237,
			"-0.015": 2.35920057555,
			"-0.014": 2.00538754568,
			"-0.013": 1.63176622286,
			"-0.012": 1.86749006663,
			"-0.011": 1.92963648968,
			"-0.01": 1.71225040503,
			"-0.009": 1.64197339983,
			"-0.008": 1.99106652206,
			"-0.007": 4.52563407411,
			"-0.006": 10.4669596466,
			"-0.005": 20.6080203934,
			"-0.004": 19.4875349799,
			"-0.003": 18.1722458594,
			"-0.002": 14.7434187571,
			"-0.001": 13.775905158,
			"0.0": 13.6400033925,
			"0.001": 15.1512974395,
			"0.002": 18.3604991346,
			"0.003": 23.8306216658,
			"0.004": 24.838003794,
			"0.005": 19.3880010636,
			"0.006": 9.31587325952,
			"0.007": 2.25005553701,
			"0.008": 2.45033727768,
			"0.009": 3.78390980747,
			"0.01": 4.27676932987,
			"0.011": 6.04321691816,
			"0.012": 5.46873483818,
			"0.013": 1.65518007436,
			"0.014": 0.0349507377825,
			"0.015": 0.0,
			"0.016": 0.0,
			"0.017": 0.0,
			"0.018": 0.0,
			"0.019": 0.0,
			"0.02": 0.0,
			"0.021": 0.0,
			"0.022": 0.0,
			"0.023": 0.0,
			"0.024": 0.0,
			"0.025": 0.0
		}
	}
}
