{
	 "smiles": "O=C(C1CCCNC1)N1CCCC1", 
	 "Tm": 333.65, 
	 "num_atms": 31, 
	 "gaussian": { 
		 "optdone": 1, 
		 "sigma_profile": "yes", 
		 "theory": "DFT", 
		 "functional": "B3LYP", 
		 "basiset": "6-31G**", 
		 "properties": { 
			 "R2extent": 3044.8766, 
			 "electric_dipole_moment_norm": 4.74604846583, 
			 "electric_quadrupole_moment_norm": 8.79760488315, 
			 "total_energy": -576.659524274, 
			 "HOMO_LUMO_gap": 0.22386, 
			 "cosmo_polarized_energy": -10.91, 
			 "cosmo_cavitation_energy": 29.97, 
			 "cosmo_dispersion_energy": -22.36, 
			 "cosmo_repulsion_energy": 1.78, 
			 "cosmo_total_nonelectrostatic_energy": 9.4, 
			 "SMD_solvation_energy": 0.84 
		},
		"coords": [
			{
				"x": -1.4229377912,
				"y": 0.3234534358,
				"z": -1.6767061736,
				"element": "O" 
			},
			{
				"x": -1.0179152184,
				"y": 0.1762787227,
				"z": -0.5177086405,
				"element": "C" 
			},
			{
				"x": -0.7258528432,
				"y": -1.2035244987,
				"z": 0.0746875547,
				"element": "C" 
			},
			{
				"x": 0.7459286553,
				"y": -1.6225909897,
				"z": -0.1891335592,
				"element": "C" 
			},
			{
				"x": 0.9851739415,
				"y": -1.9683095925,
				"z": -1.6668948489,
				"element": "C" 
			},
			{
				"x": -0.0417178828,
				"y": -3.0089808066,
				"z": -2.1502295323,
				"element": "C" 
			},
			{
				"x": -1.4341391279,
				"y": -2.618584983,
				"z": -1.9179997133,
				"element": "N" 
			},
			{
				"x": -1.6782553891,
				"y": -2.2751233715,
				"z": -0.5195559653,
				"element": "C" 
			},
			{
				"x": -0.7980648543,
				"y": 1.2643731609,
				"z": 0.2760565277,
				"element": "N" 
			},
			{
				"x": -1.0766740835,
				"y": 2.6157116076,
				"z": -0.2380038083,
				"element": "C" 
			},
			{
				"x": -1.0216469079,
				"y": 3.4968213128,
				"z": 1.0171852729,
				"element": "C" 
			},
			{
				"x": -0.0133927365,
				"y": 2.7647871388,
				"z": 1.9184795402,
				"element": "C" 
			},
			{
				"x": -0.332642171,
				"y": 1.2817247166,
				"z": 1.6709692177,
				"element": "C" 
			},
			{
				"x": -0.8859712831,
				"y": -1.1678044564,
				"z": 1.1593021478,
				"element": "H" 
			},
			{
				"x": 0.9576208151,
				"y": -2.507777971,
				"z": 0.4268433771,
				"element": "H" 
			},
			{
				"x": 1.438193831,
				"y": -0.8385617882,
				"z": 0.1424229317,
				"element": "H" 
			},
			{
				"x": 0.8936381446,
				"y": -1.0626177091,
				"z": -2.2784516787,
				"element": "H" 
			},
			{
				"x": 2.0062285212,
				"y": -2.3479787585,
				"z": -1.8007008447,
				"element": "H" 
			},
			{
				"x": 0.1350681449,
				"y": -3.9619024241,
				"z": -1.6286821044,
				"element": "H" 
			},
			{
				"x": 0.0888970537,
				"y": -3.2071482182,
				"z": -3.2200794758,
				"element": "H" 
			},
			{
				"x": -1.6313977491,
				"y": -1.7795294822,
				"z": -2.4607877851,
				"element": "H" 
			},
			{
				"x": -2.7180787837,
				"y": -1.9464814486,
				"z": -0.420266964,
				"element": "H" 
			},
			{
				"x": -1.5706436563,
				"y": -3.1881002269,
				"z": 0.0837750176,
				"element": "H" 
			},
			{
				"x": -2.0419384929,
				"y": 2.630683824,
				"z": -0.749847818,
				"element": "H" 
			},
			{
				"x": -0.3153487216,
				"y": 2.9037110293,
				"z": -0.9747367799,
				"element": "H" 
			},
			{
				"x": -2.0051220674,
				"y": 3.5261596359,
				"z": 1.5003433726,
				"element": "H" 
			},
			{
				"x": -0.7299449347,
				"y": 4.5262052817,
				"z": 0.7931506533,
				"element": "H" 
			},
			{
				"x": 1.0099747147,
				"y": 2.9829748988,
				"z": 1.5925274806,
				"element": "H" 
			},
			{
				"x": -0.0933729878,
				"y": 3.0355219405,
				"z": 2.9747245307,
				"element": "H" 
			},
			{
				"x": -1.1200409339,
				"y": 0.9318122933,
				"z": 2.3541551512,
				"element": "H" 
			},
			{
				"x": 0.5417747942,
				"y": 0.6398977264,
				"z": 1.812262916,
				"element": "H" 
			}
		],
		 "valence_orbital": [ 
			{
				"type": "occ",
				"energy": -0.32317,
				"method": "rhf"
			},
			{
				"type": "occ",
				"energy": -0.30725,
				"method": "rhf"
			},
			{
				"type": "occ",
				"energy": -0.23974,
				"method": "rhf"
			},
			{
				"type": "occ",
				"energy": -0.23509,
				"method": "rhf"
			},
			{
				"type": "occ",
				"energy": -0.19789,
				"method": "rhf"
			},
			{
				"type": "unocc",
				"energy": 0.02597,
				"method": "rhf"
			},
			{
				"type": "unocc",
				"energy": 0.06907,
				"method": "rhf"
			},
			{
				"type": "unocc",
				"energy": 0.09339,
				"method": "rhf"
			},
			{
				"type": "unocc",
				"energy": 0.10451,
				"method": "rhf"
			},
			{
				"type": "unocc",
				"energy": 0.12112,
				"method": "rhf"
			}
		],
		"cosmo_sigma_profile": { 
			"-0.025": 0.0,
			"-0.024": 0.0,
			"-0.023": 0.0,
			"-0.022": 0.0,
			"-0.021": 0.0,
			"-0.02": 0.0,
			"-0.019": 0.0,
			"-0.018": 0.0,
			"-0.017": 0.0,
			"-0.016": 0.0,
			"-0.015": 0.0,
			"-0.014": 0.0,
			"-0.013": 0.0,
			"-0.012": 0.0,
			"-0.011": 0.0,
			"-0.01": 0.0,
			"-0.009": 0.0,
			"-0.008": 0.0,
			"-0.007": 0.0,
			"-0.006": 0.0,
			"-0.005": 2.73689525539,
			"-0.004": 22.440029354,
			"-0.003": 42.4593626264,
			"-0.002": 44.7095609791,
			"-0.001": 34.783677185,
			"0.0": 28.8118149389,
			"0.001": 13.1773959767,
			"0.002": 6.16052671749,
			"0.003": 3.62355704207,
			"0.004": 3.45652246174,
			"0.005": 2.55186179123,
			"0.006": 3.17304000817,
			"0.007": 2.46508336638,
			"0.008": 1.9637739792,
			"0.009": 2.3023424612,
			"0.01": 1.65703003797,
			"0.011": 2.58093194094,
			"0.012": 2.01586076811,
			"0.013": 2.52403782778,
			"0.014": 3.2073096727,
			"0.015": 2.60687104673,
			"0.016": 0.248511790731,
			"0.017": 0.0800228722435,
			"0.018": 0.767768899942,
			"0.019": 0.653596701762,
			"0.02": 0.0914872599894,
			"0.021": 0.0,
			"0.022": 0.0,
			"0.023": 0.0,
			"0.024": 0.0,
			"0.025": 0.0
		}
	}
}
