{
	 "smiles": "OC(=O)C1=C(N=CC=N1)C1=NC2=C(S1)C=CC=C2", 
	 "Tm": 462.15, 
	 "num_atms": 25, 
	 "gaussian": { 
		 "optdone": 1, 
		 "sigma_profile": "yes", 
		 "theory": "DFT", 
		 "functional": "B3LYP", 
		 "basiset": "6-31G**", 
		 "properties": { 
			 "R2extent": 5470.6912, 
			 "electric_dipole_moment_norm": 4.22568982416, 
			 "electric_quadrupole_moment_norm": 25.948216857, 
			 "total_energy": -1174.38496628, 
			 "HOMO_LUMO_gap": 0.1474, 
			 "cosmo_polarized_energy": -16.76, 
			 "cosmo_cavitation_energy": 32.32, 
			 "cosmo_dispersion_energy": -24.24, 
			 "cosmo_repulsion_energy": 1.81, 
			 "cosmo_total_nonelectrostatic_energy": 9.89, 
			 "SMD_solvation_energy": 3.16 
		},
		"coords": [
			{
				"x": -4.6363188144,
				"y": -0.9050337911,
				"z": 1.2003880262,
				"element": "O" 
			},
			{
				"x": -3.3716403517,
				"y": -0.9227372553,
				"z": 0.7425159664,
				"element": "C" 
			},
			{
				"x": -2.68941639,
				"y": -1.9159326335,
				"z": 0.7462714445,
				"element": "O" 
			},
			{
				"x": -2.939911965,
				"y": 0.4069518556,
				"z": 0.146034237,
				"element": "C" 
			},
			{
				"x": -1.6107839158,
				"y": 0.7791672452,
				"z": -0.1736408995,
				"element": "C" 
			},
			{
				"x": -1.386748939,
				"y": 1.8256131907,
				"z": -0.9868940638,
				"element": "N" 
			},
			{
				"x": -2.4261802795,
				"y": 2.5572606058,
				"z": -1.381004527,
				"element": "C" 
			},
			{
				"x": -3.7185149632,
				"y": 2.2919338503,
				"z": -0.9223027922,
				"element": "C" 
			},
			{
				"x": -3.9623614727,
				"y": 1.2051819153,
				"z": -0.189759782,
				"element": "N" 
			},
			{
				"x": -0.4068630489,
				"y": 0.1394000557,
				"z": 0.3760018356,
				"element": "C" 
			},
			{
				"x": -0.3417020743,
				"y": -0.4289588274,
				"z": 1.5385288824,
				"element": "N" 
			},
			{
				"x": 0.9333965336,
				"y": -0.8849139358,
				"z": 1.7963398556,
				"element": "C" 
			},
			{
				"x": 1.8834793783,
				"y": -0.6375519504,
				"z": 0.7704700068,
				"element": "C" 
			},
			{
				"x": 1.1154097666,
				"y": 0.2228995919,
				"z": -0.5421386443,
				"element": "S" 
			},
			{
				"x": 3.2125711446,
				"y": -1.0529054963,
				"z": 0.8999612052,
				"element": "C" 
			},
			{
				"x": 3.5799908646,
				"y": -1.7166819109,
				"z": 2.0662164887,
				"element": "C" 
			},
			{
				"x": 2.6462729097,
				"y": -1.9655121351,
				"z": 3.0908883331,
				"element": "C" 
			},
			{
				"x": 1.3272620615,
				"y": -1.5547321477,
				"z": 2.9669309087,
				"element": "C" 
			},
			{
				"x": -5.0163879686,
				"y": -0.0377741523,
				"z": 0.9584438125,
				"element": "H" 
			},
			{
				"x": -2.2249371225,
				"y": 3.3816304828,
				"z": -2.0608444232,
				"element": "H" 
			},
			{
				"x": -4.558583724,
				"y": 2.93753534,
				"z": -1.1630980654,
				"element": "H" 
			},
			{
				"x": 3.9386552316,
				"y": -0.8650421691,
				"z": 0.1156614375,
				"element": "H" 
			},
			{
				"x": 4.606739806,
				"y": -2.0491433521,
				"z": 2.1868959434,
				"element": "H" 
			},
			{
				"x": 2.9655896136,
				"y": -2.4882573432,
				"z": 3.9872183351,
				"element": "H" 
			},
			{
				"x": 0.5919837196,
				"y": -1.741497033,
				"z": 3.7422164784,
				"element": "H" 
			}
		],
		 "valence_orbital": [ 
			{
				"type": "occ",
				"energy": -0.29682,
				"method": "rhf"
			},
			{
				"type": "occ",
				"energy": -0.27796,
				"method": "rhf"
			},
			{
				"type": "occ",
				"energy": -0.26684,
				"method": "rhf"
			},
			{
				"type": "occ",
				"energy": -0.23996,
				"method": "rhf"
			},
			{
				"type": "occ",
				"energy": -0.23693,
				"method": "rhf"
			},
			{
				"type": "unocc",
				"energy": -0.08953,
				"method": "rhf"
			},
			{
				"type": "unocc",
				"energy": -0.08488,
				"method": "rhf"
			},
			{
				"type": "unocc",
				"energy": -0.01686,
				"method": "rhf"
			},
			{
				"type": "unocc",
				"energy": -0.00903,
				"method": "rhf"
			},
			{
				"type": "unocc",
				"energy": 0.01371,
				"method": "rhf"
			}
		],
		"cosmo_sigma_profile": { 
			"-0.025": 0.0,
			"-0.024": 0.0,
			"-0.023": 0.0,
			"-0.022": 0.0,
			"-0.021": 0.0,
			"-0.02": 0.0,
			"-0.019": 0.0,
			"-0.018": 0.0,
			"-0.017": 0.0,
			"-0.016": 0.0,
			"-0.015": 0.0,
			"-0.014": 0.14886321728,
			"-0.013": 0.875028189919,
			"-0.012": 0.571105747576,
			"-0.011": 0.637761283753,
			"-0.01": 1.19725983673,
			"-0.009": 6.72768330507,
			"-0.008": 6.14857731595,
			"-0.007": 10.4709903673,
			"-0.006": 13.9785960038,
			"-0.005": 18.3283335121,
			"-0.004": 17.0651284382,
			"-0.003": 19.0036289729,
			"-0.002": 17.4685653617,
			"-0.001": 14.5607774017,
			"0.0": 15.8334891029,
			"0.001": 20.1169900082,
			"0.002": 20.5104474232,
			"0.003": 19.7789276616,
			"0.004": 15.4070997036,
			"0.005": 6.48826608416,
			"0.006": 5.04996826092,
			"0.007": 3.91703836956,
			"0.008": 4.80145060409,
			"0.009": 6.40070523557,
			"0.01": 6.15921844257,
			"0.011": 7.49853922312,
			"0.012": 4.64269381481,
			"0.013": 0.423418484699,
			"0.014": 0.0,
			"0.015": 0.0,
			"0.016": 0.0,
			"0.017": 0.0,
			"0.018": 0.0,
			"0.019": 0.0,
			"0.02": 0.0,
			"0.021": 0.0,
			"0.022": 0.0,
			"0.023": 0.0,
			"0.024": 0.0,
			"0.025": 0.0
		}
	}
}
