{
	 "smiles": "OC(=O)CN1C2=CC=CC=C2N=C1C(F)(F)F", 
	 "Tm": 521.15, 
	 "num_atms": 24, 
	 "gaussian": { 
		 "optdone": 1, 
		 "sigma_profile": "yes", 
		 "theory": "DFT", 
		 "functional": "B3LYP", 
		 "basiset": "6-31G**", 
		 "properties": { 
			 "R2extent": 4006.8635, 
			 "electric_dipole_moment_norm": 2.97443417308, 
			 "electric_quadrupole_moment_norm": 8.53468219033, 
			 "total_energy": -944.772350287, 
			 "HOMO_LUMO_gap": 0.19867, 
			 "cosmo_polarized_energy": -15.0, 
			 "cosmo_cavitation_energy": 30.28, 
			 "cosmo_dispersion_energy": -21.15, 
			 "cosmo_repulsion_energy": 1.58, 
			 "cosmo_total_nonelectrostatic_energy": 10.71, 
			 "SMD_solvation_energy": 5.47 
		},
		"coords": [
			{
				"x": 1.6479337406,
				"y": -0.686138477,
				"z": 1.6645573797,
				"element": "O" 
			},
			{
				"x": 0.6429652484,
				"y": -0.8964957816,
				"z": 2.5312067126,
				"element": "C" 
			},
			{
				"x": 0.7920709743,
				"y": -1.1496874443,
				"z": 3.7033810307,
				"element": "O" 
			},
			{
				"x": -0.7408618853,
				"y": -0.7673996387,
				"z": 1.8954552623,
				"element": "C" 
			},
			{
				"x": -0.7688409536,
				"y": -0.5446980156,
				"z": 0.4654307452,
				"element": "N" 
			},
			{
				"x": -0.723007899,
				"y": 0.681306673,
				"z": -0.1836289759,
				"element": "C" 
			},
			{
				"x": -0.7063496399,
				"y": 1.996647572,
				"z": 0.2883161515,
				"element": "C" 
			},
			{
				"x": -0.6757545121,
				"y": 3.0021139496,
				"z": -0.6731533316,
				"element": "C" 
			},
			{
				"x": -0.658793204,
				"y": 2.7093680842,
				"z": -2.053544915,
				"element": "C" 
			},
			{
				"x": -0.6708303659,
				"y": 1.3989748063,
				"z": -2.5150101247,
				"element": "C" 
			},
			{
				"x": -0.7016674354,
				"y": 0.3704913313,
				"z": -1.5636503103,
				"element": "C" 
			},
			{
				"x": -0.7179899301,
				"y": -1.0034563352,
				"z": -1.7485993061,
				"element": "N" 
			},
			{
				"x": -0.7491738813,
				"y": -1.4949994576,
				"z": -0.5395254499,
				"element": "C" 
			},
			{
				"x": -0.7788089303,
				"y": -2.9629348061,
				"z": -0.2259177362,
				"element": "C" 
			},
			{
				"x": -0.6958245285,
				"y": -3.7063942826,
				"z": -1.3256409741,
				"element": "F" 
			},
			{
				"x": 0.2438806348,
				"y": -3.3011069684,
				"z": 0.6006842986,
				"element": "F" 
			},
			{
				"x": -1.9217728562,
				"y": -3.294897736,
				"z": 0.4298738094,
				"element": "F" 
			},
			{
				"x": 2.4741886852,
				"y": -0.7972894796,
				"z": 2.1649702189,
				"element": "H" 
			},
			{
				"x": -1.2540867148,
				"y": 0.0588460473,
				"z": 2.3959794816,
				"element": "H" 
			},
			{
				"x": -1.2966346456,
				"y": -1.6739025411,
				"z": 2.1415614739,
				"element": "H" 
			},
			{
				"x": -0.7104806372,
				"y": 2.2337003326,
				"z": 1.3476246111,
				"element": "H" 
			},
			{
				"x": -0.6614173979,
				"y": 4.0393294906,
				"z": -0.3521415823,
				"element": "H" 
			},
			{
				"x": -0.6339714993,
				"y": 3.5287397042,
				"z": -2.7653628707,
				"element": "H" 
			},
			{
				"x": -0.6562723667,
				"y": 1.162782973,
				"z": -3.5737655987,
				"element": "H" 
			}
		],
		 "valence_orbital": [ 
			{
				"type": "occ",
				"energy": -0.32531,
				"method": "rhf"
			},
			{
				"type": "occ",
				"energy": -0.29371,
				"method": "rhf"
			},
			{
				"type": "occ",
				"energy": -0.29013,
				"method": "rhf"
			},
			{
				"type": "occ",
				"energy": -0.24338,
				"method": "rhf"
			},
			{
				"type": "occ",
				"energy": -0.23873,
				"method": "rhf"
			},
			{
				"type": "unocc",
				"energy": -0.04006,
				"method": "rhf"
			},
			{
				"type": "unocc",
				"energy": -0.0115,
				"method": "rhf"
			},
			{
				"type": "unocc",
				"energy": 0.00552,
				"method": "rhf"
			},
			{
				"type": "unocc",
				"energy": 0.02853,
				"method": "rhf"
			},
			{
				"type": "unocc",
				"energy": 0.05794,
				"method": "rhf"
			}
		],
		"cosmo_sigma_profile": { 
			"-0.025": 0.0,
			"-0.024": 0.0,
			"-0.023": 0.0,
			"-0.022": 0.0,
			"-0.021": 0.0,
			"-0.02": 0.014261584498,
			"-0.019": 0.683962191989,
			"-0.018": 0.948400952504,
			"-0.017": 1.16919512662,
			"-0.016": 0.76369079126,
			"-0.015": 0.578201854782,
			"-0.014": 0.510842055832,
			"-0.013": 0.709918024259,
			"-0.012": 1.36436115106,
			"-0.011": 1.13879384396,
			"-0.01": 3.33568109123,
			"-0.009": 4.42438600175,
			"-0.008": 5.64456918497,
			"-0.007": 7.18599035322,
			"-0.006": 11.6407650422,
			"-0.005": 11.2520727107,
			"-0.004": 12.2685519708,
			"-0.003": 11.8991790599,
			"-0.002": 13.174737718,
			"-0.001": 12.1545970919,
			"0.0": 14.5603548093,
			"0.001": 23.105576665,
			"0.002": 31.1870116277,
			"0.003": 17.1446356061,
			"0.004": 15.1217234421,
			"0.005": 11.2256102174,
			"0.006": 5.79629249242,
			"0.007": 3.21791421521,
			"0.008": 2.69668398883,
			"0.009": 2.76101611053,
			"0.01": 3.9584122271,
			"0.011": 6.45271572463,
			"0.012": 2.28195592013,
			"0.013": 1.16707080476,
			"0.014": 0.9422342592,
			"0.015": 0.553453837556,
			"0.016": 0.086754355679,
			"0.017": 0.0,
			"0.018": 0.0,
			"0.019": 0.0,
			"0.02": 0.0,
			"0.021": 0.0,
			"0.022": 0.0,
			"0.023": 0.0,
			"0.024": 0.0,
			"0.025": 0.0
		}
	}
}
