{
	 "smiles": "CC(C1=CC=CC=C1)C1=CC=C(O)C=C1", 
	 "Tm": 331.15, 
	 "num_atms": 29, 
	 "gaussian": { 
		 "optdone": 1, 
		 "sigma_profile": "yes", 
		 "theory": "DFT", 
		 "functional": "B3LYP", 
		 "basiset": "6-31G**", 
		 "properties": { 
			 "R2extent": 4055.5999, 
			 "electric_dipole_moment_norm": 1.26972983741, 
			 "electric_quadrupole_moment_norm": 4.99636025423, 
			 "total_energy": -617.155786529, 
			 "HOMO_LUMO_gap": 0.20837, 
			 "cosmo_polarized_energy": -9.88, 
			 "cosmo_cavitation_energy": 32.13, 
			 "cosmo_dispersion_energy": -22.66, 
			 "cosmo_repulsion_energy": 1.78, 
			 "cosmo_total_nonelectrostatic_energy": 11.25, 
			 "SMD_solvation_energy": 5.67 
		},
		"coords": [
			{
				"x": -2.208285905,
				"y": -1.5615327943,
				"z": -1.7857615724,
				"element": "C" 
			},
			{
				"x": -1.60804628,
				"y": -0.1837214944,
				"z": -1.4459201985,
				"element": "C" 
			},
			{
				"x": -2.4222241456,
				"y": 0.4857448097,
				"z": -0.3374041369,
				"element": "C" 
			},
			{
				"x": -3.3984347778,
				"y": 1.4387347528,
				"z": -0.6537471746,
				"element": "C" 
			},
			{
				"x": -4.1832811863,
				"y": 2.0237024587,
				"z": 0.3426009293,
				"element": "C" 
			},
			{
				"x": -4.0022663157,
				"y": 1.6613342215,
				"z": 1.6774661578,
				"element": "C" 
			},
			{
				"x": -3.0303615733,
				"y": 0.7130747266,
				"z": 2.0064499688,
				"element": "C" 
			},
			{
				"x": -2.2473730585,
				"y": 0.1334401241,
				"z": 1.0085879458,
				"element": "C" 
			},
			{
				"x": -0.1128318901,
				"y": -0.2165968269,
				"z": -1.1302709496,
				"element": "C" 
			},
			{
				"x": 0.595334039,
				"y": -1.3953652865,
				"z": -0.8621114726,
				"element": "C" 
			},
			{
				"x": 1.960148487,
				"y": -1.3796431497,
				"z": -0.5729217868,
				"element": "C" 
			},
			{
				"x": 2.6527291104,
				"y": -0.1676690361,
				"z": -0.5483121345,
				"element": "C" 
			},
			{
				"x": 3.9899274645,
				"y": -0.2032812588,
				"z": -0.2629693487,
				"element": "O" 
			},
			{
				"x": 1.9662205498,
				"y": 1.0228615425,
				"z": -0.8152758216,
				"element": "C" 
			},
			{
				"x": 0.6038887261,
				"y": 0.9887267756,
				"z": -1.0995543883,
				"element": "C" 
			},
			{
				"x": -3.2530922321,
				"y": -1.448723128,
				"z": -2.0888335243,
				"element": "H" 
			},
			{
				"x": -1.6626355886,
				"y": -2.0418161197,
				"z": -2.6046664695,
				"element": "H" 
			},
			{
				"x": -2.1915143366,
				"y": -2.2318729824,
				"z": -0.9203619186,
				"element": "H" 
			},
			{
				"x": -1.7264181147,
				"y": 0.4418880397,
				"z": -2.3410196677,
				"element": "H" 
			},
			{
				"x": -3.5460000754,
				"y": 1.726149522,
				"z": -1.6925930992,
				"element": "H" 
			},
			{
				"x": -4.9323577896,
				"y": 2.7638864914,
				"z": 0.0746086318,
				"element": "H" 
			},
			{
				"x": -4.6088441636,
				"y": 2.1159051876,
				"z": 2.4555974005,
				"element": "H" 
			},
			{
				"x": -2.8782042982,
				"y": 0.4280856289,
				"z": 3.0439859708,
				"element": "H" 
			},
			{
				"x": -1.4823181738,
				"y": -0.5905806847,
				"z": 1.2754318034,
				"element": "H" 
			},
			{
				"x": 0.0848419752,
				"y": -2.3526637086,
				"z": -0.881431174,
				"element": "H" 
			},
			{
				"x": 2.5008875342,
				"y": -2.2978631381,
				"z": -0.3678205618,
				"element": "H" 
			},
			{
				"x": 4.3386816033,
				"y": 0.6972738094,
				"z": -0.2773030773,
				"element": "H" 
			},
			{
				"x": 2.4972064008,
				"y": 1.972962865,
				"z": -0.8016055379,
				"element": "H" 
			},
			{
				"x": 0.0830240147,
				"y": 1.9224586527,
				"z": -1.2973447933,
				"element": "H" 
			}
		],
		 "valence_orbital": [ 
			{
				"type": "occ",
				"energy": -0.31648,
				"method": "rhf"
			},
			{
				"type": "occ",
				"energy": -0.24877,
				"method": "rhf"
			},
			{
				"type": "occ",
				"energy": -0.24415,
				"method": "rhf"
			},
			{
				"type": "occ",
				"energy": -0.23882,
				"method": "rhf"
			},
			{
				"type": "occ",
				"energy": -0.21148,
				"method": "rhf"
			},
			{
				"type": "unocc",
				"energy": -0.00311,
				"method": "rhf"
			},
			{
				"type": "unocc",
				"energy": 0.00328,
				"method": "rhf"
			},
			{
				"type": "unocc",
				"energy": 0.00526,
				"method": "rhf"
			},
			{
				"type": "unocc",
				"energy": 0.01944,
				"method": "rhf"
			},
			{
				"type": "unocc",
				"energy": 0.07289,
				"method": "rhf"
			}
		],
		"cosmo_sigma_profile": { 
			"-0.025": 0.0,
			"-0.024": 0.0,
			"-0.023": 0.0,
			"-0.022": 0.0,
			"-0.021": 0.0,
			"-0.02": 0.0,
			"-0.019": 0.0,
			"-0.018": 0.171473646396,
			"-0.017": 0.876402452736,
			"-0.016": 1.18068654582,
			"-0.015": 1.52068424791,
			"-0.014": 0.337105983974,
			"-0.013": 1.20351851751,
			"-0.012": 1.02442845163,
			"-0.011": 0.751217208807,
			"-0.01": 0.959447215762,
			"-0.009": 1.22181168703,
			"-0.008": 1.12171874288,
			"-0.007": 1.54747408594,
			"-0.006": 3.45540001694,
			"-0.005": 15.546086704,
			"-0.004": 20.5131139021,
			"-0.003": 27.9191004618,
			"-0.002": 23.4728383523,
			"-0.001": 21.4387026429,
			"0.0": 19.0819729774,
			"0.001": 16.2872504496,
			"0.002": 13.8946078273,
			"0.003": 14.4369876088,
			"0.004": 16.9204971454,
			"0.005": 18.9300847558,
			"0.006": 17.6490296538,
			"0.007": 5.34810802174,
			"0.008": 2.0031433431,
			"0.009": 1.05936965371,
			"0.01": 1.51287991323,
			"0.011": 2.02102677236,
			"0.012": 1.25094937953,
			"0.013": 0.0,
			"0.014": 0.0,
			"0.015": 0.0,
			"0.016": 0.0,
			"0.017": 0.0,
			"0.018": 0.0,
			"0.019": 0.0,
			"0.02": 0.0,
			"0.021": 0.0,
			"0.022": 0.0,
			"0.023": 0.0,
			"0.024": 0.0,
			"0.025": 0.0
		}
	}
}
