{
	 "smiles": "CC1=CC=C(C=C1)C1=C2C=CC=CC2=C(O)N=N1", 
	 "Tm": 525.15, 
	 "num_atms": 30, 
	 "gaussian": { 
		 "optdone": 1, 
		 "sigma_profile": "yes", 
		 "theory": "DFT", 
		 "functional": "B3LYP", 
		 "basiset": "6-31G**", 
		 "properties": { 
			 "R2extent": 5877.1162, 
			 "electric_dipole_moment_norm": 3.26145534079, 
			 "electric_quadrupole_moment_norm": 13.5702478894, 
			 "total_energy": -763.545899011, 
			 "HOMO_LUMO_gap": 0.1641, 
			 "cosmo_polarized_energy": -13.39, 
			 "cosmo_cavitation_energy": 33.92, 
			 "cosmo_dispersion_energy": -24.98, 
			 "cosmo_repulsion_energy": 1.9, 
			 "cosmo_total_nonelectrostatic_energy": 10.84, 
			 "SMD_solvation_energy": 4.22 
		},
		"coords": [
			{
				"x": -4.3430025282,
				"y": 1.006362353,
				"z": 1.3491194675,
				"element": "C" 
			},
			{
				"x": -2.9340570478,
				"y": 1.0442180414,
				"z": 0.8070132052,
				"element": "C" 
			},
			{
				"x": -2.5414510233,
				"y": 0.216734856,
				"z": -0.2514805419,
				"element": "C" 
			},
			{
				"x": -1.2316887617,
				"y": 0.2294977277,
				"z": -0.7312823371,
				"element": "C" 
			},
			{
				"x": -0.2679119714,
				"y": 1.0765489966,
				"z": -0.1637125623,
				"element": "C" 
			},
			{
				"x": -0.6651386602,
				"y": 1.9243931417,
				"z": 0.8826621793,
				"element": "C" 
			},
			{
				"x": -1.9719012268,
				"y": 1.9028535175,
				"z": 1.3592833233,
				"element": "C" 
			},
			{
				"x": 1.125422536,
				"y": 1.1529089473,
				"z": -0.6815847874,
				"element": "C" 
			},
			{
				"x": 1.9197225558,
				"y": -0.018125041,
				"z": -0.9776503948,
				"element": "C" 
			},
			{
				"x": 1.5303262207,
				"y": -1.3550169563,
				"z": -0.7137429885,
				"element": "C" 
			},
			{
				"x": 2.3716319368,
				"y": -2.4034059784,
				"z": -1.0329997085,
				"element": "C" 
			},
			{
				"x": 3.6335690666,
				"y": -2.1678436455,
				"z": -1.6206725869,
				"element": "C" 
			},
			{
				"x": 4.0548310954,
				"y": -0.8758242251,
				"z": -1.8614721772,
				"element": "C" 
			},
			{
				"x": 3.2074316504,
				"y": 0.2052222655,
				"z": -1.532772063,
				"element": "C" 
			},
			{
				"x": 3.5850117052,
				"y": 1.5737237167,
				"z": -1.6858230544,
				"element": "C" 
			},
			{
				"x": 4.7986433159,
				"y": 1.8458550813,
				"z": -2.2106263097,
				"element": "O" 
			},
			{
				"x": 2.8405547208,
				"y": 2.5904789661,
				"z": -1.3289945242,
				"element": "N" 
			},
			{
				"x": 1.5944828263,
				"y": 2.3786575708,
				"z": -0.837139931,
				"element": "N" 
			},
			{
				"x": -5.0421591441,
				"y": 0.5883489354,
				"z": 0.6190629397,
				"element": "H" 
			},
			{
				"x": -4.6941523081,
				"y": 2.0069536372,
				"z": 1.6207991972,
				"element": "H" 
			},
			{
				"x": -4.4038806614,
				"y": 0.3868387869,
				"z": 2.2528733556,
				"element": "H" 
			},
			{
				"x": -3.2727742438,
				"y": -0.4395342063,
				"z": -0.7169876053,
				"element": "H" 
			},
			{
				"x": -0.9687882866,
				"y": -0.3997216637,
				"z": -1.576248641,
				"element": "H" 
			},
			{
				"x": 0.0644738699,
				"y": 2.6054626484,
				"z": 1.3075346162,
				"element": "H" 
			},
			{
				"x": -2.2533392183,
				"y": 2.5664798541,
				"z": 2.1735291298,
				"element": "H" 
			},
			{
				"x": 0.5736635426,
				"y": -1.5496427467,
				"z": -0.2445985283,
				"element": "H" 
			},
			{
				"x": 2.0616067239,
				"y": -3.4228321612,
				"z": -0.8222227905,
				"element": "H" 
			},
			{
				"x": 4.2778826892,
				"y": -3.0061432846,
				"z": -1.8681736646,
				"element": "H" 
			},
			{
				"x": 5.0296367168,
				"y": -0.6705282996,
				"z": -2.2892997487,
				"element": "H" 
			},
			{
				"x": 4.8678539095,
				"y": 2.8156791649,
				"z": -2.2166924684,
				"element": "H" 
			}
		],
		 "valence_orbital": [ 
			{
				"type": "occ",
				"energy": -0.27493,
				"method": "rhf"
			},
			{
				"type": "occ",
				"energy": -0.25233,
				"method": "rhf"
			},
			{
				"type": "occ",
				"energy": -0.24857,
				"method": "rhf"
			},
			{
				"type": "occ",
				"energy": -0.23107,
				"method": "rhf"
			},
			{
				"type": "occ",
				"energy": -0.21968,
				"method": "rhf"
			},
			{
				"type": "unocc",
				"energy": -0.05558,
				"method": "rhf"
			},
			{
				"type": "unocc",
				"energy": -0.04101,
				"method": "rhf"
			},
			{
				"type": "unocc",
				"energy": -0.00991,
				"method": "rhf"
			},
			{
				"type": "unocc",
				"energy": 0.00021,
				"method": "rhf"
			},
			{
				"type": "unocc",
				"energy": 0.04047,
				"method": "rhf"
			}
		],
		"cosmo_sigma_profile": { 
			"-0.025": 0.0,
			"-0.024": 0.0,
			"-0.023": 0.0,
			"-0.022": 0.0,
			"-0.021": 0.0,
			"-0.02": 0.0,
			"-0.019": 0.0,
			"-0.018": 0.272469349364,
			"-0.017": 0.51562803861,
			"-0.016": 1.11965879456,
			"-0.015": 0.381771533762,
			"-0.014": 1.24272002902,
			"-0.013": 0.608199549466,
			"-0.012": 0.192656863586,
			"-0.011": 0.338972305138,
			"-0.01": 0.619711025256,
			"-0.009": 0.484973104078,
			"-0.008": 0.756970560806,
			"-0.007": 5.53032946651,
			"-0.006": 10.5882566858,
			"-0.005": 17.8336814553,
			"-0.004": 23.0239396419,
			"-0.003": 20.9765895131,
			"-0.002": 21.6720476175,
			"-0.001": 25.7195311013,
			"0.0": 28.0693219926,
			"0.001": 23.5394645953,
			"0.002": 20.6502724642,
			"0.003": 16.3534115779,
			"0.004": 10.0428914519,
			"0.005": 12.2314763505,
			"0.006": 6.27473024921,
			"0.007": 3.67354174038,
			"0.008": 3.13996145765,
			"0.009": 2.69924459567,
			"0.01": 2.26243256346,
			"0.011": 1.34768020434,
			"0.012": 2.34010601072,
			"0.013": 2.17271607662,
			"0.014": 2.47705206489,
			"0.015": 2.18831193656,
			"0.016": 0.589412828622,
			"0.017": 0.0199983803672,
			"0.018": 0.0,
			"0.019": 0.0,
			"0.02": 0.0,
			"0.021": 0.0,
			"0.022": 0.0,
			"0.023": 0.0,
			"0.024": 0.0,
			"0.025": 0.0
		}
	}
}
