{
	 "smiles": "COC1=C(Br)C=NC(=N1)N1CCNCC1", 
	 "Tm": 363.15, 
	 "num_atms": 28, 
	 "gaussian": { 
		 "optdone": 1, 
		 "sigma_profile": "yes", 
		 "theory": "DFT", 
		 "functional": "B3LYP", 
		 "basiset": "6-31G**", 
		 "properties": { 
			 "R2extent": 7517.4761, 
			 "electric_dipole_moment_norm": 2.6682023424, 
			 "electric_quadrupole_moment_norm": 17.0259816231, 
			 "total_energy": -3216.41404875, 
			 "HOMO_LUMO_gap": 0.18341, 
			 "cosmo_polarized_energy": -10.06, 
			 "cosmo_cavitation_energy": 32.61, 
			 "cosmo_dispersion_energy": -24.36, 
			 "cosmo_repulsion_energy": 1.93, 
			 "cosmo_total_nonelectrostatic_energy": 10.18, 
			 "SMD_solvation_energy": 0.45 
		},
		"coords": [
			{
				"x": -1.8512210697,
				"y": -3.5124259112,
				"z": -2.1646251783,
				"element": "C" 
			},
			{
				"x": -2.9083629175,
				"y": -2.5825195144,
				"z": -1.9010464902,
				"element": "O" 
			},
			{
				"x": -2.6012361694,
				"y": -1.4784204263,
				"z": -1.2089013518,
				"element": "C" 
			},
			{
				"x": -3.6242394978,
				"y": -0.5464522005,
				"z": -0.9436621678,
				"element": "C" 
			},
			{
				"x": -5.4097318375,
				"y": -0.8019663204,
				"z": -1.5333729621,
				"element": "Br" 
			},
			{
				"x": -3.2500199032,
				"y": 0.5820342316,
				"z": -0.2290718465,
				"element": "C" 
			},
			{
				"x": -2.0058125162,
				"y": 0.8020836706,
				"z": 0.2002999126,
				"element": "N" 
			},
			{
				"x": -1.1002092126,
				"y": -0.1515608362,
				"z": -0.0996606358,
				"element": "C" 
			},
			{
				"x": -1.3566332311,
				"y": -1.283951304,
				"z": -0.7971602987,
				"element": "N" 
			},
			{
				"x": 0.1831079382,
				"y": 0.0187736148,
				"z": 0.3321448822,
				"element": "N" 
			},
			{
				"x": 1.2167674342,
				"y": -0.9690717707,
				"z": 0.0113994469,
				"element": "C" 
			},
			{
				"x": 2.466215544,
				"y": -0.7069877654,
				"z": 0.8766399384,
				"element": "C" 
			},
			{
				"x": 2.1372230271,
				"y": -0.3529212935,
				"z": 2.2546837151,
				"element": "N" 
			},
			{
				"x": 1.349387273,
				"y": 0.8917651365,
				"z": 2.3259727313,
				"element": "C" 
			},
			{
				"x": 0.6238821209,
				"y": 1.236570526,
				"z": 1.004750345,
				"element": "C" 
			},
			{
				"x": -1.431902161,
				"y": -3.9022413213,
				"z": -1.2331929311,
				"element": "H" 
			},
			{
				"x": -1.0509795506,
				"y": -3.0420657648,
				"z": -2.7419056401,
				"element": "H" 
			},
			{
				"x": -2.314927412,
				"y": -4.3151800115,
				"z": -2.7383227736,
				"element": "H" 
			},
			{
				"x": -3.991385994,
				"y": 1.3427303288,
				"z": 0.005837425,
				"element": "H" 
			},
			{
				"x": 0.8181914221,
				"y": -1.9672018522,
				"z": 0.2198307842,
				"element": "H" 
			},
			{
				"x": 1.4661223091,
				"y": -0.9485244478,
				"z": -1.0608577396,
				"element": "H" 
			},
			{
				"x": 3.0989796949,
				"y": -1.6004936959,
				"z": 0.8690190162,
				"element": "H" 
			},
			{
				"x": 3.0698236392,
				"y": 0.1026106535,
				"z": 0.4493581064,
				"element": "H" 
			},
			{
				"x": 1.5967973693,
				"y": -1.110878827,
				"z": 2.6621778438,
				"element": "H" 
			},
			{
				"x": 2.006342262,
				"y": 1.732949473,
				"z": 2.5880939727,
				"element": "H" 
			},
			{
				"x": 0.620864429,
				"y": 0.7919680038,
				"z": 3.136848449,
				"element": "H" 
			},
			{
				"x": 1.297588903,
				"y": 1.7946442654,
				"z": 0.3386946914,
				"element": "H" 
			},
			{
				"x": -0.2491318933,
				"y": 1.8618333589,
				"z": 1.1841287554,
				"element": "H" 
			}
		],
		 "valence_orbital": [ 
			{
				"type": "occ",
				"energy": -0.28688,
				"method": "rhf"
			},
			{
				"type": "occ",
				"energy": -0.26487,
				"method": "rhf"
			},
			{
				"type": "occ",
				"energy": -0.25019,
				"method": "rhf"
			},
			{
				"type": "occ",
				"energy": -0.22588,
				"method": "rhf"
			},
			{
				"type": "occ",
				"energy": -0.20467,
				"method": "rhf"
			},
			{
				"type": "unocc",
				"energy": -0.02126,
				"method": "rhf"
			},
			{
				"type": "unocc",
				"energy": 0.00157,
				"method": "rhf"
			},
			{
				"type": "unocc",
				"energy": 0.01597,
				"method": "rhf"
			},
			{
				"type": "unocc",
				"energy": 0.07299,
				"method": "rhf"
			},
			{
				"type": "unocc",
				"energy": 0.10166,
				"method": "rhf"
			}
		],
		"cosmo_sigma_profile": { 
			"-0.025": 0.0,
			"-0.024": 0.0,
			"-0.023": 0.0,
			"-0.022": 0.0,
			"-0.021": 0.0,
			"-0.02": 0.0,
			"-0.019": 0.0,
			"-0.018": 0.0,
			"-0.017": 0.0,
			"-0.016": 0.0,
			"-0.015": 0.0,
			"-0.014": 0.0,
			"-0.013": 0.0,
			"-0.012": 0.0,
			"-0.011": 0.0,
			"-0.01": 1.12399651369,
			"-0.009": 1.26058675952,
			"-0.008": 2.16915185681,
			"-0.007": 3.82000625777,
			"-0.006": 6.40232440118,
			"-0.005": 15.0072031976,
			"-0.004": 28.3602418251,
			"-0.003": 32.0500984971,
			"-0.002": 24.2933506289,
			"-0.001": 23.9584728913,
			"0.0": 18.7644184495,
			"0.001": 18.2898115554,
			"0.002": 14.7655386152,
			"0.003": 13.269697418,
			"0.004": 15.9254452287,
			"0.005": 13.2930276676,
			"0.006": 5.17070558772,
			"0.007": 5.83647610661,
			"0.008": 4.74246656808,
			"0.009": 3.74774748729,
			"0.01": 2.0284885923,
			"0.011": 2.02081591934,
			"0.012": 0.75678715666,
			"0.013": 0.777099429743,
			"0.014": 0.654974078992,
			"0.015": 0.580049150838,
			"0.016": 0.284326754872,
			"0.017": 0.504543627203,
			"0.018": 0.734921123179,
			"0.019": 0.000639599501231,
			"0.02": 0.0,
			"0.021": 0.0,
			"0.022": 0.0,
			"0.023": 0.0,
			"0.024": 0.0,
			"0.025": 0.0
		}
	}
}
