{
	 "smiles": "CN(C)C1=CC=C(C=C1)C(C1=CC=C(C=C1)N(C)C)C1=CC=C(C=C1)N(C)C", 
	 "Tm": 452.65, 
	 "num_atms": 59, 
	 "gaussian": { 
		 "optdone": 1, 
		 "sigma_profile": "yes", 
		 "theory": "DFT", 
		 "functional": "B3LYP", 
		 "basiset": "6-31G**", 
		 "properties": { 
			 "R2extent": 16151.9491, 
			 "electric_dipole_moment_norm": 1.15274040009, 
			 "electric_quadrupole_moment_norm": 17.711378212, 
			 "total_energy": -1135.58128295, 
			 "HOMO_LUMO_gap": 0.17692, 
			 "cosmo_polarized_energy": -13.86, 
			 "cosmo_cavitation_energy": 58.51, 
			 "cosmo_dispersion_energy": -40.34, 
			 "cosmo_repulsion_energy": 3.05, 
			 "cosmo_total_nonelectrostatic_energy": 21.22, 
			 "SMD_solvation_energy": 7.96 
		},
		"coords": [
			{
				"x": 3.073845293,
				"y": -5.8987556936,
				"z": -1.4139072401,
				"element": "C" 
			},
			{
				"x": 3.102815361,
				"y": -4.7707859961,
				"z": -0.499050878,
				"element": "N" 
			},
			{
				"x": 4.2257196819,
				"y": -4.6852364791,
				"z": 0.4184330163,
				"element": "C" 
			},
			{
				"x": 2.4330233726,
				"y": -3.597812333,
				"z": -0.853643167,
				"element": "C" 
			},
			{
				"x": 1.5127152867,
				"y": -3.5690546451,
				"z": -1.9257844941,
				"element": "C" 
			},
			{
				"x": 0.8242738308,
				"y": -2.4038028184,
				"z": -2.2460757329,
				"element": "C" 
			},
			{
				"x": 1.0133676698,
				"y": -1.2077828207,
				"z": -1.5415487467,
				"element": "C" 
			},
			{
				"x": 1.9387983159,
				"y": -1.2315592177,
				"z": -0.4934718373,
				"element": "C" 
			},
			{
				"x": 2.6362866357,
				"y": -2.3897849616,
				"z": -0.1534037983,
				"element": "C" 
			},
			{
				"x": 0.2087982394,
				"y": 0.0375937877,
				"z": -1.9234411988,
				"element": "C" 
			},
			{
				"x": -1.2209904746,
				"y": 0.0120144419,
				"z": -1.3761618127,
				"element": "C" 
			},
			{
				"x": -2.2397837141,
				"y": 0.6946163695,
				"z": -2.0533549666,
				"element": "C" 
			},
			{
				"x": -3.5489502835,
				"y": 0.7256866504,
				"z": -1.5849250519,
				"element": "C" 
			},
			{
				"x": -3.9106354508,
				"y": 0.0555893996,
				"z": -0.3943518468,
				"element": "C" 
			},
			{
				"x": -2.8824780434,
				"y": -0.6202654576,
				"z": 0.2964027654,
				"element": "C" 
			},
			{
				"x": -1.5773035178,
				"y": -0.642919461,
				"z": -0.1931743159,
				"element": "C" 
			},
			{
				"x": -5.2291415755,
				"y": 0.0473884459,
				"z": 0.0654457724,
				"element": "N" 
			},
			{
				"x": -6.1815457534,
				"y": 0.9749108977,
				"z": -0.5199470114,
				"element": "C" 
			},
			{
				"x": -5.4972721576,
				"y": -0.4233505566,
				"z": 1.4131235835,
				"element": "C" 
			},
			{
				"x": 0.9442099209,
				"y": 1.3419110836,
				"z": -1.6048332964,
				"element": "C" 
			},
			{
				"x": 0.6879454296,
				"y": 2.1065798941,
				"z": -0.4623180193,
				"element": "C" 
			},
			{
				"x": 1.3942233323,
				"y": 3.2761613538,
				"z": -0.1854406419,
				"element": "C" 
			},
			{
				"x": 2.4088432152,
				"y": 3.7394575508,
				"z": -1.0498166085,
				"element": "C" 
			},
			{
				"x": 2.6542010728,
				"y": 2.97796697,
				"z": -2.2147217074,
				"element": "C" 
			},
			{
				"x": 1.9408969669,
				"y": 1.8114663586,
				"z": -2.469923658,
				"element": "C" 
			},
			{
				"x": 3.1436365628,
				"y": 4.8921708572,
				"z": -0.7640615323,
				"element": "N" 
			},
			{
				"x": 2.6747485817,
				"y": 5.7780907271,
				"z": 0.2872673007,
				"element": "C" 
			},
			{
				"x": 3.9681672645,
				"y": 5.4748948278,
				"z": -1.8084475523,
				"element": "C" 
			},
			{
				"x": 3.626814858,
				"y": -6.730348356,
				"z": -0.972810879,
				"element": "H" 
			},
			{
				"x": 2.0469147894,
				"y": -6.2421613305,
				"z": -1.5795509515,
				"element": "H" 
			},
			{
				"x": 3.5175222341,
				"y": -5.6734131448,
				"z": -2.3977289925,
				"element": "H" 
			},
			{
				"x": 5.0501306689,
				"y": -4.0584326723,
				"z": 0.040392366,
				"element": "H" 
			},
			{
				"x": 3.9105721962,
				"y": -4.2774754005,
				"z": 1.3850623582,
				"element": "H" 
			},
			{
				"x": 4.6153448837,
				"y": -5.6886965408,
				"z": 0.600515848,
				"element": "H" 
			},
			{
				"x": 1.3317550429,
				"y": -4.4572002283,
				"z": -2.5189837557,
				"element": "H" 
			},
			{
				"x": 0.1183360385,
				"y": -2.4271621096,
				"z": -3.0737404078,
				"element": "H" 
			},
			{
				"x": 2.1372606545,
				"y": -0.3212632621,
				"z": 0.0642212598,
				"element": "H" 
			},
			{
				"x": 3.3489603027,
				"y": -2.3407679096,
				"z": 0.6609141405,
				"element": "H" 
			},
			{
				"x": 0.1114025823,
				"y": 0.0078577371,
				"z": -3.0174974686,
				"element": "H" 
			},
			{
				"x": -2.0029689072,
				"y": 1.2268836375,
				"z": -2.9723612455,
				"element": "H" 
			},
			{
				"x": -4.2901760516,
				"y": 1.2729477309,
				"z": -2.1546549489,
				"element": "H" 
			},
			{
				"x": -3.0942595606,
				"y": -1.1426597561,
				"z": 1.2214548928,
				"element": "H" 
			},
			{
				"x": -0.8220935909,
				"y": -1.1918524641,
				"z": 0.361322256,
				"element": "H" 
			},
			{
				"x": -5.89715876,
				"y": 2.0318742867,
				"z": -0.3881981365,
				"element": "H" 
			},
			{
				"x": -6.2992064478,
				"y": 0.7904863835,
				"z": -1.5934048315,
				"element": "H" 
			},
			{
				"x": -7.1581758548,
				"y": 0.8240061499,
				"z": -0.0560114204,
				"element": "H" 
			},
			{
				"x": -6.5720422531,
				"y": -0.3794810176,
				"z": 1.59966242,
				"element": "H" 
			},
			{
				"x": -5.1880451166,
				"y": -1.4675957848,
				"z": 1.5314034367,
				"element": "H" 
			},
			{
				"x": -4.9879369726,
				"y": 0.1694551835,
				"z": 2.1907376125,
				"element": "H" 
			},
			{
				"x": -0.09399236,
				"y": 1.7950807332,
				"z": 0.2237606018,
				"element": "H" 
			},
			{
				"x": 1.1408565562,
				"y": 3.830618221,
				"z": 0.7100029115,
				"element": "H" 
			},
			{
				"x": 3.4022282038,
				"y": 3.2949247025,
				"z": -2.9312493086,
				"element": "H" 
			},
			{
				"x": 2.1669559133,
				"y": 1.2505219217,
				"z": -3.3744645202,
				"element": "H" 
			},
			{
				"x": 3.3725151614,
				"y": 6.6114785606,
				"z": 0.3896146551,
				"element": "H" 
			},
			{
				"x": 1.6708583964,
				"y": 6.1905647341,
				"z": 0.0935227198,
				"element": "H" 
			},
			{
				"x": 2.6436295877,
				"y": 5.2586952208,
				"z": 1.2512267021,
				"element": "H" 
			},
			{
				"x": 4.7370778517,
				"y": 4.7685974531,
				"z": -2.1399290184,
				"element": "H" 
			},
			{
				"x": 3.3920458284,
				"y": 5.7876453917,
				"z": -2.6949023511,
				"element": "H" 
			},
			{
				"x": 4.4828590624,
				"y": 6.3511827542,
				"z": -1.4095932685,
				"element": "H" 
			}
		],
		 "valence_orbital": [ 
			{
				"type": "occ",
				"energy": -0.22868,
				"method": "rhf"
			},
			{
				"type": "occ",
				"energy": -0.22832,
				"method": "rhf"
			},
			{
				"type": "occ",
				"energy": -0.18049,
				"method": "rhf"
			},
			{
				"type": "occ",
				"energy": -0.18002,
				"method": "rhf"
			},
			{
				"type": "occ",
				"energy": -0.16924,
				"method": "rhf"
			},
			{
				"type": "unocc",
				"energy": 0.00768,
				"method": "rhf"
			},
			{
				"type": "unocc",
				"energy": 0.01906,
				"method": "rhf"
			},
			{
				"type": "unocc",
				"energy": 0.01926,
				"method": "rhf"
			},
			{
				"type": "unocc",
				"energy": 0.03109,
				"method": "rhf"
			},
			{
				"type": "unocc",
				"energy": 0.03113,
				"method": "rhf"
			}
		],
		"cosmo_sigma_profile": { 
			"-0.025": 0.0,
			"-0.024": 0.0,
			"-0.023": 0.0,
			"-0.022": 0.0,
			"-0.021": 0.0,
			"-0.02": 0.0,
			"-0.019": 0.0,
			"-0.018": 0.0,
			"-0.017": 0.0,
			"-0.016": 0.0,
			"-0.015": 0.0,
			"-0.014": 0.0,
			"-0.013": 0.0,
			"-0.012": 0.0,
			"-0.011": 0.0,
			"-0.01": 0.0,
			"-0.009": 0.0,
			"-0.008": 0.0,
			"-0.007": 0.560272106455,
			"-0.006": 8.19363032488,
			"-0.005": 28.2080022936,
			"-0.004": 39.997101808,
			"-0.003": 58.8871348537,
			"-0.002": 65.5135428396,
			"-0.001": 62.4008671383,
			"0.0": 33.5337255984,
			"0.001": 24.042429923,
			"0.002": 19.0832113679,
			"0.003": 17.4543545665,
			"0.004": 19.0794571269,
			"0.005": 23.5810921793,
			"0.006": 27.6714853739,
			"0.007": 23.5263248872,
			"0.008": 7.73912174248,
			"0.009": 1.50005208271,
			"0.01": 0.202245347043,
			"0.011": 0.0,
			"0.012": 0.0,
			"0.013": 0.0,
			"0.014": 0.0,
			"0.015": 0.0,
			"0.016": 0.0,
			"0.017": 0.0,
			"0.018": 0.0,
			"0.019": 0.0,
			"0.02": 0.0,
			"0.021": 0.0,
			"0.022": 0.0,
			"0.023": 0.0,
			"0.024": 0.0,
			"0.025": 0.0
		}
	}
}
