{
	 "smiles": "CC(=O)NS(=O)(=O)C1=CC=C(NC(=O)C2=C(C=CC=C2)C(O)=O)C=C1", 
	 "Tm": 469.15, 
	 "num_atms": 39, 
	 "gaussian": { 
		 "optdone": 1, 
		 "sigma_profile": "yes", 
		 "theory": "DFT", 
		 "functional": "B3LYP", 
		 "basiset": "6-31G**", 
		 "properties": { 
			 "R2extent": 10479.1591, 
			 "electric_dipole_moment_norm": 4.61025487473, 
			 "electric_quadrupole_moment_norm": 40.9716369719, 
			 "total_energy": -1577.14004257, 
			 "HOMO_LUMO_gap": 0.1773, 
			 "cosmo_polarized_energy": -28.6, 
			 "cosmo_cavitation_energy": 45.7, 
			 "cosmo_dispersion_energy": -30.16, 
			 "cosmo_repulsion_energy": 2.23, 
			 "cosmo_total_nonelectrostatic_energy": 17.76, 
			 "SMD_solvation_energy": 9.54 
		},
		"coords": [
			{
				"x": 1.3218511156,
				"y": -2.3029418121,
				"z": 3.5875328963,
				"element": "C" 
			},
			{
				"x": 2.4946272744,
				"y": -1.4942092184,
				"z": 4.082365643,
				"element": "C" 
			},
			{
				"x": 3.471271953,
				"y": -1.9688126405,
				"z": 4.6276105852,
				"element": "O" 
			},
			{
				"x": 2.4834540776,
				"y": -0.1030899909,
				"z": 3.8484440948,
				"element": "N" 
			},
			{
				"x": 1.234537262,
				"y": 0.9667781991,
				"z": 3.4034254194,
				"element": "S" 
			},
			{
				"x": -0.0197691352,
				"y": 0.5573477082,
				"z": 4.0357008233,
				"element": "O" 
			},
			{
				"x": 1.8301005824,
				"y": 2.2810862306,
				"z": 3.6441231559,
				"element": "O" 
			},
			{
				"x": 1.0586960785,
				"y": 0.7119125642,
				"z": 1.6446639661,
				"element": "C" 
			},
			{
				"x": 2.1032565193,
				"y": 1.0675065378,
				"z": 0.7859167728,
				"element": "C" 
			},
			{
				"x": 1.9712396374,
				"y": 0.8345756734,
				"z": -0.5757766266,
				"element": "C" 
			},
			{
				"x": 0.7935237269,
				"y": 0.2642373518,
				"z": -1.0947006264,
				"element": "C" 
			},
			{
				"x": 0.7204368607,
				"y": 0.0370542534,
				"z": -2.4787296311,
				"element": "N" 
			},
			{
				"x": 0.1742624122,
				"y": -1.0022027719,
				"z": -3.2189305408,
				"element": "C" 
			},
			{
				"x": 0.2614106182,
				"y": -0.9789163228,
				"z": -4.4366672298,
				"element": "O" 
			},
			{
				"x": -0.5948963787,
				"y": -2.1041483483,
				"z": -2.5307066475,
				"element": "C" 
			},
			{
				"x": -0.0938470258,
				"y": -2.98596461,
				"z": -1.5489245675,
				"element": "C" 
			},
			{
				"x": -0.9414840751,
				"y": -3.9554861643,
				"z": -0.9945545096,
				"element": "C" 
			},
			{
				"x": -2.2618092586,
				"y": -4.0791863333,
				"z": -1.4168152689,
				"element": "C" 
			},
			{
				"x": -2.7494216318,
				"y": -3.2305588624,
				"z": -2.4116241838,
				"element": "C" 
			},
			{
				"x": -1.9182499099,
				"y": -2.2575136892,
				"z": -2.964705165,
				"element": "C" 
			},
			{
				"x": 1.3096035919,
				"y": -2.9937852302,
				"z": -1.0416616286,
				"element": "C" 
			},
			{
				"x": 2.2017281293,
				"y": -2.4766513185,
				"z": -1.9150986516,
				"element": "O" 
			},
			{
				"x": 1.6463355999,
				"y": -3.4535057567,
				"z": 0.0322501596,
				"element": "O" 
			},
			{
				"x": -0.2724426635,
				"y": -0.019599014,
				"z": -0.227143187,
				"element": "C" 
			},
			{
				"x": -0.1319992746,
				"y": 0.1875648232,
				"z": 1.1425227013,
				"element": "C" 
			},
			{
				"x": 0.3714415744,
				"y": -1.8524607885,
				"z": 3.8815863699,
				"element": "H" 
			},
			{
				"x": 1.4111023289,
				"y": -3.3058899535,
				"z": 4.0043410829,
				"element": "H" 
			},
			{
				"x": 1.3502104099,
				"y": -2.3775390365,
				"z": 2.4942055939,
				"element": "H" 
			},
			{
				"x": 3.2797438416,
				"y": 0.3889836229,
				"z": 4.2441989786,
				"element": "H" 
			},
			{
				"x": 3.0129886715,
				"y": 1.5070933639,
				"z": 1.1807228115,
				"element": "H" 
			},
			{
				"x": 2.7883127696,
				"y": 1.078095683,
				"z": -1.2489762427,
				"element": "H" 
			},
			{
				"x": 1.3097040039,
				"y": 0.6187823548,
				"z": -3.0629921094,
				"element": "H" 
			},
			{
				"x": -0.5340321042,
				"y": -4.6129722668,
				"z": -0.2343972822,
				"element": "H" 
			},
			{
				"x": -2.9022869412,
				"y": -4.8386504809,
				"z": -0.9793838165,
				"element": "H" 
			},
			{
				"x": -3.7733491665,
				"y": -3.325480978,
				"z": -2.7602496018,
				"element": "H" 
			},
			{
				"x": -2.2883872084,
				"y": -1.5985422867,
				"z": -3.7430603611,
				"element": "H" 
			},
			{
				"x": 3.070663771,
				"y": -2.5415452304,
				"z": -1.4841003921,
				"element": "H" 
			},
			{
				"x": -1.2077148363,
				"y": -0.3974952606,
				"z": -0.6197100033,
				"element": "H" 
			},
			{
				"x": -0.9454132003,
				"y": -0.0391700009,
				"z": 1.8221972188,
				"element": "H" 
			}
		],
		 "valence_orbital": [ 
			{
				"type": "occ",
				"energy": -0.28895,
				"method": "rhf"
			},
			{
				"type": "occ",
				"energy": -0.28002,
				"method": "rhf"
			},
			{
				"type": "occ",
				"energy": -0.26939,
				"method": "rhf"
			},
			{
				"type": "occ",
				"energy": -0.26662,
				"method": "rhf"
			},
			{
				"type": "occ",
				"energy": -0.25182,
				"method": "rhf"
			},
			{
				"type": "unocc",
				"energy": -0.07452,
				"method": "rhf"
			},
			{
				"type": "unocc",
				"energy": -0.0591,
				"method": "rhf"
			},
			{
				"type": "unocc",
				"energy": -0.04379,
				"method": "rhf"
			},
			{
				"type": "unocc",
				"energy": -0.0322,
				"method": "rhf"
			},
			{
				"type": "unocc",
				"energy": -0.00137,
				"method": "rhf"
			}
		],
		"cosmo_sigma_profile": { 
			"-0.025": 0.0,
			"-0.024": 0.0,
			"-0.023": 0.0,
			"-0.022": 0.0,
			"-0.021": 0.0,
			"-0.02": 0.0,
			"-0.019": 0.350109451319,
			"-0.018": 0.994656782086,
			"-0.017": 0.588577156247,
			"-0.016": 0.851058384755,
			"-0.015": 2.85078973583,
			"-0.014": 2.3536136289,
			"-0.013": 2.59582752324,
			"-0.012": 2.82771260784,
			"-0.011": 2.27599981979,
			"-0.01": 3.23673912594,
			"-0.009": 2.63126736556,
			"-0.008": 6.70331452966,
			"-0.007": 15.6523014798,
			"-0.006": 20.5985837855,
			"-0.005": 19.7437054584,
			"-0.004": 21.1780252012,
			"-0.003": 24.352344504,
			"-0.002": 26.08152262,
			"-0.001": 24.4138216597,
			"0.0": 26.0568964895,
			"0.001": 29.87263605,
			"0.002": 25.5561060876,
			"0.003": 11.994341833,
			"0.004": 8.18098684808,
			"0.005": 7.76204404029,
			"0.006": 10.6978492615,
			"0.007": 7.5225710908,
			"0.008": 7.49519326016,
			"0.009": 10.4772380014,
			"0.01": 14.7332316865,
			"0.011": 11.4829168198,
			"0.012": 9.86029718757,
			"0.013": 3.17442074957,
			"0.014": 0.118416833513,
			"0.015": 0.0,
			"0.016": 0.0,
			"0.017": 0.0,
			"0.018": 0.0,
			"0.019": 0.0,
			"0.02": 0.0,
			"0.021": 0.0,
			"0.022": 0.0,
			"0.023": 0.0,
			"0.024": 0.0,
			"0.025": 0.0
		}
	}
}
