{
	 "smiles": "CC1=C(C)C=C(OCCC(O)=O)C=C1", 
	 "Tm": 429.15, 
	 "num_atms": 28, 
	 "gaussian": { 
		 "optdone": 1, 
		 "sigma_profile": "yes", 
		 "theory": "DFT", 
		 "functional": "B3LYP", 
		 "basiset": "6-31G**", 
		 "properties": { 
			 "R2extent": 4413.4093, 
			 "electric_dipole_moment_norm": 1.62979113079, 
			 "electric_quadrupole_moment_norm": 9.02841245624, 
			 "total_energy": -653.297710172, 
			 "HOMO_LUMO_gap": 0.22667, 
			 "cosmo_polarized_energy": -11.86, 
			 "cosmo_cavitation_energy": 31.4, 
			 "cosmo_dispersion_energy": -22.03, 
			 "cosmo_repulsion_energy": 1.75, 
			 "cosmo_total_nonelectrostatic_energy": 11.12, 
			 "SMD_solvation_energy": 6.52 
		},
		"coords": [
			{
				"x": 2.1920725362,
				"y": -0.0531349728,
				"z": 3.6376787007,
				"element": "C" 
			},
			{
				"x": 1.207562449,
				"y": -0.1952007744,
				"z": 2.5010644313,
				"element": "C" 
			},
			{
				"x": -0.1733655154,
				"y": -0.3521157952,
				"z": 2.7523051353,
				"element": "C" 
			},
			{
				"x": -0.7046828936,
				"y": -0.3785179733,
				"z": 4.1660536922,
				"element": "C" 
			},
			{
				"x": -1.056847285,
				"y": -0.4805487913,
				"z": 1.6751016087,
				"element": "C" 
			},
			{
				"x": -0.5894438493,
				"y": -0.4630966321,
				"z": 0.3593229031,
				"element": "C" 
			},
			{
				"x": -1.4843256098,
				"y": -0.6552369395,
				"z": -0.6823007437,
				"element": "O" 
			},
			{
				"x": -1.8450320279,
				"y": 0.5107985189,
				"z": -1.420613458,
				"element": "C" 
			},
			{
				"x": -2.8522671842,
				"y": 1.3896712058,
				"z": -0.6625243744,
				"element": "C" 
			},
			{
				"x": -4.1020372551,
				"y": 0.6241077608,
				"z": -0.2873746891,
				"element": "C" 
			},
			{
				"x": -4.7999722019,
				"y": 0.2388408888,
				"z": -1.3840583329,
				"element": "O" 
			},
			{
				"x": -4.4638970537,
				"y": 0.3614099875,
				"z": 0.8384776377,
				"element": "O" 
			},
			{
				"x": 0.7723452218,
				"y": -0.3120019121,
				"z": 0.1015436783,
				"element": "C" 
			},
			{
				"x": 1.6535196664,
				"y": -0.1772829466,
				"z": 1.1746248834,
				"element": "C" 
			},
			{
				"x": 2.1729785769,
				"y": -0.9243753244,
				"z": 4.3039923114,
				"element": "H" 
			},
			{
				"x": 3.2133608835,
				"y": 0.0553672412,
				"z": 3.2628031192,
				"element": "H" 
			},
			{
				"x": 1.9714975288,
				"y": 0.8224418777,
				"z": 4.2607935341,
				"element": "H" 
			},
			{
				"x": -1.7910359102,
				"y": -0.4955089184,
				"z": 4.1765128867,
				"element": "H" 
			},
			{
				"x": -0.4613167887,
				"y": 0.5440163228,
				"z": 4.7072942431,
				"element": "H" 
			},
			{
				"x": -0.2722808611,
				"y": -1.2045239647,
				"z": 4.7441178172,
				"element": "H" 
			},
			{
				"x": -2.1238197003,
				"y": -0.5895262782,
				"z": 1.8453772598,
				"element": "H" 
			},
			{
				"x": -2.2906183908,
				"y": 0.1462764723,
				"z": -2.3494392559,
				"element": "H" 
			},
			{
				"x": -0.9555618469,
				"y": 1.105577132,
				"z": -1.667444071,
				"element": "H" 
			},
			{
				"x": -3.1301970462,
				"y": 2.2336736422,
				"z": -1.304743445,
				"element": "H" 
			},
			{
				"x": -2.4109174862,
				"y": 1.7778699373,
				"z": 0.2572004145,
				"element": "H" 
			},
			{
				"x": -5.5586746979,
				"y": -0.2722902317,
				"z": -1.0557200297,
				"element": "H" 
			},
			{
				"x": 1.1339841996,
				"y": -0.3206349043,
				"z": -0.9222838959,
				"element": "H" 
			},
			{
				"x": 2.7168725421,
				"y": -0.0650546282,
				"z": 0.977038039,
				"element": "H" 
			}
		],
		 "valence_orbital": [ 
			{
				"type": "occ",
				"energy": -0.31618,
				"method": "rhf"
			},
			{
				"type": "occ",
				"energy": -0.28013,
				"method": "rhf"
			},
			{
				"type": "occ",
				"energy": -0.26756,
				"method": "rhf"
			},
			{
				"type": "occ",
				"energy": -0.23894,
				"method": "rhf"
			},
			{
				"type": "occ",
				"energy": -0.22222,
				"method": "rhf"
			},
			{
				"type": "unocc",
				"energy": 0.00445,
				"method": "rhf"
			},
			{
				"type": "unocc",
				"energy": 0.0061,
				"method": "rhf"
			},
			{
				"type": "unocc",
				"energy": 0.01076,
				"method": "rhf"
			},
			{
				"type": "unocc",
				"energy": 0.07572,
				"method": "rhf"
			},
			{
				"type": "unocc",
				"energy": 0.09641,
				"method": "rhf"
			}
		],
		"cosmo_sigma_profile": { 
			"-0.025": 0.0,
			"-0.024": 0.0,
			"-0.023": 0.0,
			"-0.022": 0.0,
			"-0.021": 0.0,
			"-0.02": 0.0,
			"-0.019": 0.0124105318634,
			"-0.018": 0.682829689455,
			"-0.017": 0.857844193561,
			"-0.016": 0.898328627145,
			"-0.015": 0.701340096524,
			"-0.014": 1.14496885777,
			"-0.013": 0.619163214089,
			"-0.012": 0.610151888078,
			"-0.011": 0.588802214883,
			"-0.01": 0.958515386133,
			"-0.009": 0.290712789359,
			"-0.008": 0.511042466051,
			"-0.007": 3.12644981148,
			"-0.006": 6.60733395535,
			"-0.005": 14.9756027271,
			"-0.004": 25.792833428,
			"-0.003": 26.7720578633,
			"-0.002": 21.138831167,
			"-0.001": 18.6455197933,
			"0.0": 21.3004986075,
			"0.001": 17.900333043,
			"0.002": 11.6376732731,
			"0.003": 10.8339463573,
			"0.004": 12.6890987832,
			"0.005": 13.2079735184,
			"0.006": 10.5227243255,
			"0.007": 4.04232972647,
			"0.008": 4.09766836396,
			"0.009": 3.32179255625,
			"0.01": 3.10562024882,
			"0.011": 4.79213866822,
			"0.012": 4.28488166853,
			"0.013": 0.246811938181,
			"0.014": 0.0,
			"0.015": 0.0,
			"0.016": 0.0,
			"0.017": 0.0,
			"0.018": 0.0,
			"0.019": 0.0,
			"0.02": 0.0,
			"0.021": 0.0,
			"0.022": 0.0,
			"0.023": 0.0,
			"0.024": 0.0,
			"0.025": 0.0
		}
	}
}
