{
	 "smiles": "CCOC(=O)C(NC(=O)C1=CC=CC=C1)C(=O)OCC", 
	 "Tm": 336.15, 
	 "num_atms": 37, 
	 "gaussian": { 
		 "optdone": 1, 
		 "sigma_profile": "yes", 
		 "theory": "DFT", 
		 "functional": "B3LYP", 
		 "basiset": "6-31G**", 
		 "properties": { 
			 "R2extent": 6860.5121, 
			 "electric_dipole_moment_norm": 6.31280130291, 
			 "electric_quadrupole_moment_norm": 12.2656940493, 
			 "total_energy": -974.645064983, 
			 "HOMO_LUMO_gap": 0.21214, 
			 "cosmo_polarized_energy": -20.14, 
			 "cosmo_cavitation_energy": 42.28, 
			 "cosmo_dispersion_energy": -28.06, 
			 "cosmo_repulsion_energy": 2.23, 
			 "cosmo_total_nonelectrostatic_energy": 16.45, 
			 "SMD_solvation_energy": 9.17 
		},
		"coords": [
			{
				"x": 3.9711695359,
				"y": -1.0296666681,
				"z": 0.7135562885,
				"element": "C" 
			},
			{
				"x": 3.4670608436,
				"y": 0.3820592953,
				"z": 0.4578953513,
				"element": "C" 
			},
			{
				"x": 2.0571731015,
				"y": 0.372015783,
				"z": 0.1139916671,
				"element": "O" 
			},
			{
				"x": 1.768047334,
				"y": 0.1586619484,
				"z": -1.1811644692,
				"element": "C" 
			},
			{
				"x": 2.5690982546,
				"y": 0.0615969699,
				"z": -2.0776063149,
				"element": "O" 
			},
			{
				"x": 0.2421554633,
				"y": 0.11082432,
				"z": -1.4050359163,
				"element": "C" 
			},
			{
				"x": -0.4730899255,
				"y": -0.6139947253,
				"z": -0.378470592,
				"element": "N" 
			},
			{
				"x": -0.1709780314,
				"y": -1.9230942551,
				"z": -0.1275484767,
				"element": "C" 
			},
			{
				"x": 0.7221027548,
				"y": -2.498718809,
				"z": -0.746635761,
				"element": "O" 
			},
			{
				"x": -0.9860364451,
				"y": -2.6132229943,
				"z": 0.9274722361,
				"element": "C" 
			},
			{
				"x": -0.9911498071,
				"y": -4.0144681804,
				"z": 0.9170133781,
				"element": "C" 
			},
			{
				"x": -1.7276042959,
				"y": -4.7230354228,
				"z": 1.8633314138,
				"element": "C" 
			},
			{
				"x": -2.4564091038,
				"y": -4.0384537775,
				"z": 2.8394245037,
				"element": "C" 
			},
			{
				"x": -2.4408015884,
				"y": -2.6425804114,
				"z": 2.8683715971,
				"element": "C" 
			},
			{
				"x": -1.7094956342,
				"y": -1.9317703014,
				"z": 1.9166397776,
				"element": "C" 
			},
			{
				"x": -0.2730343865,
				"y": 1.5471783245,
				"z": -1.5523740591,
				"element": "C" 
			},
			{
				"x": 0.3127932965,
				"y": 2.4088436543,
				"z": -2.1629420353,
				"element": "O" 
			},
			{
				"x": -1.4673689734,
				"y": 1.7237020652,
				"z": -0.949496618,
				"element": "O" 
			},
			{
				"x": -2.0448205629,
				"y": 3.051708179,
				"z": -1.0668494426,
				"element": "C" 
			},
			{
				"x": -3.3678942046,
				"y": 3.0416667898,
				"z": -0.327391607,
				"element": "C" 
			},
			{
				"x": 3.3952069267,
				"y": -1.5116738804,
				"z": 1.5084144502,
				"element": "H" 
			},
			{
				"x": 5.0230497952,
				"y": -0.9974392609,
				"z": 1.0171129677,
				"element": "H" 
			},
			{
				"x": 3.8887883613,
				"y": -1.6360837934,
				"z": -0.1912034108,
				"element": "H" 
			},
			{
				"x": 4.0205136321,
				"y": 0.8640349608,
				"z": -0.3511901137,
				"element": "H" 
			},
			{
				"x": 3.521595131,
				"y": 1.0014275953,
				"z": 1.3563268832,
				"element": "H" 
			},
			{
				"x": 0.1278562344,
				"y": -0.3722564885,
				"z": -2.3842312443,
				"element": "H" 
			},
			{
				"x": -1.2872485721,
				"y": -0.1736995878,
				"z": 0.0193900183,
				"element": "H" 
			},
			{
				"x": -0.4072837851,
				"y": -4.52314626,
				"z": 0.1574376101,
				"element": "H" 
			},
			{
				"x": -1.7319462737,
				"y": -5.8089341523,
				"z": 1.8427998067,
				"element": "H" 
			},
			{
				"x": -3.0280818479,
				"y": -4.5905447158,
				"z": 3.5799023577,
				"element": "H" 
			},
			{
				"x": -2.9909095668,
				"y": -2.1070753139,
				"z": 3.6366408336,
				"element": "H" 
			},
			{
				"x": -1.6787153182,
				"y": -0.8473510011,
				"z": 1.9755942889,
				"element": "H" 
			},
			{
				"x": -2.1640102245,
				"y": 3.2820302747,
				"z": -2.1293574313,
				"element": "H" 
			},
			{
				"x": -1.3382048185,
				"y": 3.7733228406,
				"z": -0.6470520106,
				"element": "H" 
			},
			{
				"x": -3.2254494979,
				"y": 2.807273147,
				"z": 0.7316095838,
				"element": "H" 
			},
			{
				"x": -3.8356076007,
				"y": 4.02833133,
				"z": -0.3985627943,
				"element": "H" 
			},
			{
				"x": -4.0533702008,
				"y": 2.3059325217,
				"z": -0.7576127161,
				"element": "H" 
			}
		],
		 "valence_orbital": [ 
			{
				"type": "occ",
				"energy": -0.27668,
				"method": "rhf"
			},
			{
				"type": "occ",
				"energy": -0.2648,
				"method": "rhf"
			},
			{
				"type": "occ",
				"energy": -0.26209,
				"method": "rhf"
			},
			{
				"type": "occ",
				"energy": -0.25365,
				"method": "rhf"
			},
			{
				"type": "occ",
				"energy": -0.25165,
				"method": "rhf"
			},
			{
				"type": "unocc",
				"energy": -0.03951,
				"method": "rhf"
			},
			{
				"type": "unocc",
				"energy": -0.0119,
				"method": "rhf"
			},
			{
				"type": "unocc",
				"energy": -0.00774,
				"method": "rhf"
			},
			{
				"type": "unocc",
				"energy": 0.01724,
				"method": "rhf"
			},
			{
				"type": "unocc",
				"energy": 0.05758,
				"method": "rhf"
			}
		],
		"cosmo_sigma_profile": { 
			"-0.025": 0.0,
			"-0.024": 0.0,
			"-0.023": 0.0,
			"-0.022": 0.0,
			"-0.021": 0.0,
			"-0.02": 0.0,
			"-0.019": 0.0,
			"-0.018": 0.0,
			"-0.017": 0.0,
			"-0.016": 0.0,
			"-0.015": 0.0,
			"-0.014": 0.0,
			"-0.013": 0.012389911001,
			"-0.012": 0.434509716107,
			"-0.011": 1.26576093313,
			"-0.01": 1.22371365971,
			"-0.009": 2.82407111308,
			"-0.008": 3.48872530558,
			"-0.007": 4.16372559903,
			"-0.006": 17.0710823786,
			"-0.005": 27.9783880612,
			"-0.004": 37.217168405,
			"-0.003": 30.5219570465,
			"-0.002": 28.7515134431,
			"-0.001": 26.8883651352,
			"0.0": 26.8311473154,
			"0.001": 16.9397470475,
			"0.002": 15.4167263564,
			"0.003": 16.4374109051,
			"0.004": 18.9358848275,
			"0.005": 9.33620878096,
			"0.006": 5.74207952916,
			"0.007": 4.95721194212,
			"0.008": 5.70235824485,
			"0.009": 6.74757862607,
			"0.01": 8.19736347902,
			"0.011": 10.3336985462,
			"0.012": 4.10307483258,
			"0.013": 2.9050880128,
			"0.014": 0.24358464708,
			"0.015": 0.0,
			"0.016": 0.0,
			"0.017": 0.0,
			"0.018": 0.0,
			"0.019": 0.0,
			"0.02": 0.0,
			"0.021": 0.0,
			"0.022": 0.0,
			"0.023": 0.0,
			"0.024": 0.0,
			"0.025": 0.0
		}
	}
}
