{
	 "smiles": "CCCCC(CC)COP(=O)(OCC(CC)CCCC)OCC(CC)CCCC", 
	 "Tm": 201.15, 
	 "num_atms": 80, 
	 "gaussian": { 
		 "optdone": 1, 
		 "sigma_profile": "yes", 
		 "theory": "DFT", 
		 "functional": "B3LYP", 
		 "basiset": "6-31G**", 
		 "properties": { 
			 "R2extent": 17031.0976, 
			 "electric_dipole_moment_norm": 3.30202714859, 
			 "electric_quadrupole_moment_norm": 16.3795210131, 
			 "total_energy": -1587.68440217, 
			 "HOMO_LUMO_gap": 0.32767, 
			 "cosmo_polarized_energy": -11.99, 
			 "cosmo_cavitation_energy": 76.99, 
			 "cosmo_dispersion_energy": -44.75, 
			 "cosmo_repulsion_energy": 3.57, 
			 "cosmo_total_nonelectrostatic_energy": 35.81, 
			 "SMD_solvation_energy": 12.68 
		},
		"coords": [
			{
				"x": -1.3648730962,
				"y": -2.0775414431,
				"z": -5.4756357628,
				"element": "C" 
			},
			{
				"x": 0.0187587673,
				"y": -2.265937905,
				"z": -4.8449795602,
				"element": "C" 
			},
			{
				"x": 0.4334357909,
				"y": -1.084487526,
				"z": -3.9531916465,
				"element": "C" 
			},
			{
				"x": 1.8496945918,
				"y": -1.1744848976,
				"z": -3.3384122627,
				"element": "C" 
			},
			{
				"x": 1.980610417,
				"y": -1.7919500871,
				"z": -1.9247275889,
				"element": "C" 
			},
			{
				"x": 1.5070361123,
				"y": -3.2545014399,
				"z": -1.7918820993,
				"element": "C" 
			},
			{
				"x": 2.3293072989,
				"y": -4.2591198465,
				"z": -2.6068432662,
				"element": "C" 
			},
			{
				"x": 1.2823431622,
				"y": -0.9482487716,
				"z": -0.8563099718,
				"element": "C" 
			},
			{
				"x": 1.8302984294,
				"y": 0.3928929233,
				"z": -0.8852289474,
				"element": "O" 
			},
			{
				"x": 1.2142105361,
				"y": 1.5753937182,
				"z": 0.0028415855,
				"element": "P" 
			},
			{
				"x": 1.9133656113,
				"y": 2.8662569499,
				"z": -0.1834303948,
				"element": "O" 
			},
			{
				"x": -0.3728490682,
				"y": 1.6071157857,
				"z": -0.3069312068,
				"element": "O" 
			},
			{
				"x": -0.8673274838,
				"y": 2.3992269536,
				"z": -1.4224831214,
				"element": "C" 
			},
			{
				"x": -2.2072251311,
				"y": 3.0362491916,
				"z": -1.0500727907,
				"element": "C" 
			},
			{
				"x": -2.0779106532,
				"y": 4.0283392368,
				"z": 0.1249759047,
				"element": "C" 
			},
			{
				"x": -1.0730712905,
				"y": 5.1668093782,
				"z": -0.0960043237,
				"element": "C" 
			},
			{
				"x": -3.279753491,
				"y": 1.9518670705,
				"z": -0.8058738897,
				"element": "C" 
			},
			{
				"x": -4.7215523184,
				"y": 2.4734737092,
				"z": -0.7170378219,
				"element": "C" 
			},
			{
				"x": -5.7792217165,
				"y": 1.3732639262,
				"z": -0.5188330097,
				"element": "C" 
			},
			{
				"x": -5.9419531238,
				"y": 0.4187696116,
				"z": -1.7080592093,
				"element": "C" 
			},
			{
				"x": 1.2277777397,
				"y": 0.9282395562,
				"z": 1.4725190745,
				"element": "O" 
			},
			{
				"x": 0.8801193866,
				"y": 1.7543349026,
				"z": 2.6167984298,
				"element": "C" 
			},
			{
				"x": 1.6633861127,
				"y": 1.2832765102,
				"z": 3.8400447533,
				"element": "C" 
			},
			{
				"x": 3.1874033234,
				"y": 1.4472979278,
				"z": 3.6601353725,
				"element": "C" 
			},
			{
				"x": 3.6572800023,
				"y": 2.8653496985,
				"z": 3.3130659628,
				"element": "C" 
			},
			{
				"x": 1.3221979224,
				"y": -0.1604137206,
				"z": 4.2722575143,
				"element": "C" 
			},
			{
				"x": -0.1661599903,
				"y": -0.4486859215,
				"z": 4.5729935363,
				"element": "C" 
			},
			{
				"x": -0.9517660742,
				"y": -1.0780683092,
				"z": 3.4106763063,
				"element": "C" 
			},
			{
				"x": -2.4277895534,
				"y": -1.3133972317,
				"z": 3.7461860268,
				"element": "C" 
			},
			{
				"x": -1.6317171754,
				"y": -2.9230721567,
				"z": -6.1180816752,
				"element": "H" 
			},
			{
				"x": -1.400238964,
				"y": -1.1696546882,
				"z": -6.0888845261,
				"element": "H" 
			},
			{
				"x": -2.1421285114,
				"y": -1.9862374558,
				"z": -4.7079392213,
				"element": "H" 
			},
			{
				"x": 0.0295662771,
				"y": -3.1996097773,
				"z": -4.2704549907,
				"element": "H" 
			},
			{
				"x": 0.7676818993,
				"y": -2.3904045254,
				"z": -5.6390223251,
				"element": "H" 
			},
			{
				"x": -0.3207968939,
				"y": -0.9493904197,
				"z": -3.165292528,
				"element": "H" 
			},
			{
				"x": 0.3795010764,
				"y": -0.1729081828,
				"z": -4.5630422145,
				"element": "H" 
			},
			{
				"x": 2.2712014418,
				"y": -0.1666793158,
				"z": -3.2739446186,
				"element": "H" 
			},
			{
				"x": 2.5038676469,
				"y": -1.7254766303,
				"z": -4.0254019881,
				"element": "H" 
			},
			{
				"x": 3.0517259056,
				"y": -1.7712220192,
				"z": -1.6763329134,
				"element": "H" 
			},
			{
				"x": 0.4473123993,
				"y": -3.3296011303,
				"z": -2.0680407418,
				"element": "H" 
			},
			{
				"x": 1.5589967745,
				"y": -3.5415542953,
				"z": -0.7328453364,
				"element": "H" 
			},
			{
				"x": 1.9810642009,
				"y": -5.2818997827,
				"z": -2.4299974602,
				"element": "H" 
			},
			{
				"x": 3.3883446104,
				"y": -4.2161068827,
				"z": -2.3284740843,
				"element": "H" 
			},
			{
				"x": 2.2618772665,
				"y": -4.070274001,
				"z": -3.6822506426,
				"element": "H" 
			},
			{
				"x": 0.200523838,
				"y": -0.8950963421,
				"z": -1.0225213523,
				"element": "H" 
			},
			{
				"x": 1.4547210354,
				"y": -1.3706529405,
				"z": 0.1387086608,
				"element": "H" 
			},
			{
				"x": -0.1226123562,
				"y": 3.1567449814,
				"z": -1.6780428977,
				"element": "H" 
			},
			{
				"x": -0.9891928323,
				"y": 1.7246678969,
				"z": -2.2781430564,
				"element": "H" 
			},
			{
				"x": -2.5033895782,
				"y": 3.608280799,
				"z": -1.944740792,
				"element": "H" 
			},
			{
				"x": -3.0645256351,
				"y": 4.4616431436,
				"z": 0.3226546592,
				"element": "H" 
			},
			{
				"x": -1.8049246018,
				"y": 3.4670810049,
				"z": 1.0275743487,
				"element": "H" 
			},
			{
				"x": -0.0423181144,
				"y": 4.8033635818,
				"z": -0.1460975955,
				"element": "H" 
			},
			{
				"x": -1.2868319159,
				"y": 5.711101656,
				"z": -1.0239052094,
				"element": "H" 
			},
			{
				"x": -1.1261611118,
				"y": 5.8893160574,
				"z": 0.7252085474,
				"element": "H" 
			},
			{
				"x": -3.0305523526,
				"y": 1.4038066202,
				"z": 0.1123027635,
				"element": "H" 
			},
			{
				"x": -3.2141548664,
				"y": 1.2202859005,
				"z": -1.6218706448,
				"element": "H" 
			},
			{
				"x": -4.9594616936,
				"y": 3.0413644865,
				"z": -1.6287013862,
				"element": "H" 
			},
			{
				"x": -4.8061221198,
				"y": 3.1836442183,
				"z": 0.1139779631,
				"element": "H" 
			},
			{
				"x": -6.7455040547,
				"y": 1.8523605343,
				"z": -0.3158382845,
				"element": "H" 
			},
			{
				"x": -5.5332764832,
				"y": 0.7958068365,
				"z": 0.382965832,
				"element": "H" 
			},
			{
				"x": -5.0293386981,
				"y": -0.1531600393,
				"z": -1.9046085684,
				"element": "H" 
			},
			{
				"x": -6.1917138571,
				"y": 0.9685732546,
				"z": -2.6231899798,
				"element": "H" 
			},
			{
				"x": -6.7454408268,
				"y": -0.3024726796,
				"z": -1.5255881939,
				"element": "H" 
			},
			{
				"x": 1.1142743228,
				"y": 2.7969742261,
				"z": 2.3865259898,
				"element": "H" 
			},
			{
				"x": -0.1989260857,
				"y": 1.6696802515,
				"z": 2.777258208,
				"element": "H" 
			},
			{
				"x": 1.3426752785,
				"y": 1.9572496823,
				"z": 4.6510481494,
				"element": "H" 
			},
			{
				"x": 3.6699124635,
				"y": 1.1223784151,
				"z": 4.5908776522,
				"element": "H" 
			},
			{
				"x": 3.5254281159,
				"y": 0.7524260935,
				"z": 2.881795673,
				"element": "H" 
			},
			{
				"x": 3.278519771,
				"y": 3.6009831873,
				"z": 4.0332430482,
				"element": "H" 
			},
			{
				"x": 4.7505132441,
				"y": 2.9213642519,
				"z": 3.3323406929,
				"element": "H" 
			},
			{
				"x": 3.3355647845,
				"y": 3.1699363284,
				"z": 2.3124453766,
				"element": "H" 
			},
			{
				"x": 1.6814326736,
				"y": -0.8555687198,
				"z": 3.502649474,
				"element": "H" 
			},
			{
				"x": 1.9184942283,
				"y": -0.3726348293,
				"z": 5.1678537039,
				"element": "H" 
			},
			{
				"x": -0.6664039638,
				"y": 0.4760476972,
				"z": 4.8963733706,
				"element": "H" 
			},
			{
				"x": -0.2330169018,
				"y": -1.1294067151,
				"z": 5.431689055,
				"element": "H" 
			},
			{
				"x": -0.4796386533,
				"y": -2.0348338522,
				"z": 3.1484104079,
				"element": "H" 
			},
			{
				"x": -0.8723337796,
				"y": -0.4533226396,
				"z": 2.5133965918,
				"element": "H" 
			},
			{
				"x": -2.5374397944,
				"y": -1.9652152579,
				"z": 4.6207949036,
				"element": "H" 
			},
			{
				"x": -2.9385486455,
				"y": -0.3704823985,
				"z": 3.9740433816,
				"element": "H" 
			},
			{
				"x": -2.9587610011,
				"y": -1.7844633782,
				"z": 2.9123571812,
				"element": "H" 
			}
		],
		 "valence_orbital": [ 
			{
				"type": "occ",
				"energy": -0.30381,
				"method": "rhf"
			},
			{
				"type": "occ",
				"energy": -0.29796,
				"method": "rhf"
			},
			{
				"type": "occ",
				"energy": -0.29286,
				"method": "rhf"
			},
			{
				"type": "occ",
				"energy": -0.28564,
				"method": "rhf"
			},
			{
				"type": "occ",
				"energy": -0.27939,
				"method": "rhf"
			},
			{
				"type": "unocc",
				"energy": 0.04828,
				"method": "rhf"
			},
			{
				"type": "unocc",
				"energy": 0.07027,
				"method": "rhf"
			},
			{
				"type": "unocc",
				"energy": 0.07691,
				"method": "rhf"
			},
			{
				"type": "unocc",
				"energy": 0.08056,
				"method": "rhf"
			},
			{
				"type": "unocc",
				"energy": 0.0912,
				"method": "rhf"
			}
		],
		"cosmo_sigma_profile": { 
			"-0.025": 0.0,
			"-0.024": 0.0,
			"-0.023": 0.0,
			"-0.022": 0.0,
			"-0.021": 0.0,
			"-0.02": 0.0,
			"-0.019": 0.0,
			"-0.018": 0.0,
			"-0.017": 0.0,
			"-0.016": 0.0,
			"-0.015": 0.0,
			"-0.014": 0.0,
			"-0.013": 0.0,
			"-0.012": 0.0,
			"-0.011": 0.0,
			"-0.01": 0.0,
			"-0.009": 0.0,
			"-0.008": 0.0,
			"-0.007": 0.0,
			"-0.006": 0.0,
			"-0.005": 3.11542800298,
			"-0.004": 16.8218287426,
			"-0.003": 50.4609386797,
			"-0.002": 98.2891432653,
			"-0.001": 107.800532335,
			"0.0": 108.39193189,
			"0.001": 101.380485473,
			"0.002": 50.0671504458,
			"0.003": 11.41280835,
			"0.004": 9.64640707808,
			"0.005": 6.91472867803,
			"0.006": 4.44862385939,
			"0.007": 3.04808151875,
			"0.008": 2.55919457451,
			"0.009": 2.60813279648,
			"0.01": 2.17256663966,
			"0.011": 1.56779401535,
			"0.012": 1.64615805915,
			"0.013": 1.6294996706,
			"0.014": 3.04497882115,
			"0.015": 1.42140044319,
			"0.016": 0.0,
			"0.017": 0.0,
			"0.018": 0.0,
			"0.019": 0.0,
			"0.02": 0.0,
			"0.021": 0.0,
			"0.022": 0.0,
			"0.023": 0.0,
			"0.024": 0.0,
			"0.025": 0.0
		}
	}
}
