{
	 "smiles": "NC(=S)C1=C(Cl)C=C(Cl)C=C1", 
	 "Tm": 409.15, 
	 "num_atms": 16, 
	 "gaussian": { 
		 "optdone": 1, 
		 "sigma_profile": "yes", 
		 "theory": "DFT", 
		 "functional": "B3LYP", 
		 "basiset": "6-31G**", 
		 "properties": { 
			 "R2extent": 3764.5904, 
			 "electric_dipole_moment_norm": 3.30865227245, 
			 "electric_quadrupole_moment_norm": 16.1080159799, 
			 "total_energy": -1643.08557786, 
			 "HOMO_LUMO_gap": 0.14714, 
			 "cosmo_polarized_energy": -12.76, 
			 "cosmo_cavitation_energy": 25.67, 
			 "cosmo_dispersion_energy": -19.57, 
			 "cosmo_repulsion_energy": 1.54, 
			 "cosmo_total_nonelectrostatic_energy": 7.64, 
			 "SMD_solvation_energy": 2.94 
		},
		"coords": [
			{
				"x": 2.6564868457,
				"y": -0.1412301056,
				"z": 2.5040958937,
				"element": "N" 
			},
			{
				"x": 2.3206861061,
				"y": -0.8319681042,
				"z": 1.3990515484,
				"element": "C" 
			},
			{
				"x": 2.7534179326,
				"y": -2.4288848142,
				"z": 1.1899811421,
				"element": "S" 
			},
			{
				"x": 1.495566611,
				"y": -0.1010995831,
				"z": 0.3840456689,
				"element": "C" 
			},
			{
				"x": 1.7429896828,
				"y": 1.2036793454,
				"z": -0.0833906276,
				"element": "C" 
			},
			{
				"x": 3.1297387713,
				"y": 2.1506375259,
				"z": 0.4568646346,
				"element": "Cl" 
			},
			{
				"x": 0.9305057345,
				"y": 1.8087086087,
				"z": -1.0435554171,
				"element": "C" 
			},
			{
				"x": -0.1650211993,
				"y": 1.1098071111,
				"z": -1.5412931236,
				"element": "C" 
			},
			{
				"x": -1.1943403531,
				"y": 1.873178868,
				"z": -2.7341660468,
				"element": "Cl" 
			},
			{
				"x": -0.4449981716,
				"y": -0.1864734797,
				"z": -1.1088175751,
				"element": "C" 
			},
			{
				"x": 0.3898491338,
				"y": -0.7736582136,
				"z": -0.1675158541,
				"element": "C" 
			},
			{
				"x": 2.4488912428,
				"y": 0.8405830891,
				"z": 2.6096147816,
				"element": "H" 
			},
			{
				"x": 3.2583419204,
				"y": -0.5871342885,
				"z": 3.18152458,
				"element": "H" 
			},
			{
				"x": 1.1579647296,
				"y": 2.8064111937,
				"z": -1.3975102842,
				"element": "H" 
			},
			{
				"x": -1.296468325,
				"y": -0.7258061506,
				"z": -1.5070468758,
				"element": "H" 
			},
			{
				"x": 0.2023893386,
				"y": -1.7884510024,
				"z": 0.1646175549,
				"element": "H" 
			}
		],
		 "valence_orbital": [ 
			{
				"type": "occ",
				"energy": -0.328,
				"method": "rhf"
			},
			{
				"type": "occ",
				"energy": -0.27781,
				"method": "rhf"
			},
			{
				"type": "occ",
				"energy": -0.26802,
				"method": "rhf"
			},
			{
				"type": "occ",
				"energy": -0.2385,
				"method": "rhf"
			},
			{
				"type": "occ",
				"energy": -0.21665,
				"method": "rhf"
			},
			{
				"type": "unocc",
				"energy": -0.06951,
				"method": "rhf"
			},
			{
				"type": "unocc",
				"energy": -0.0367,
				"method": "rhf"
			},
			{
				"type": "unocc",
				"energy": -0.01015,
				"method": "rhf"
			},
			{
				"type": "unocc",
				"energy": -0.00425,
				"method": "rhf"
			},
			{
				"type": "unocc",
				"energy": 0.03518,
				"method": "rhf"
			}
		],
		"cosmo_sigma_profile": { 
			"-0.025": 0.0,
			"-0.024": 0.0,
			"-0.023": 0.0,
			"-0.022": 0.0,
			"-0.021": 0.0,
			"-0.02": 0.0,
			"-0.019": 0.0,
			"-0.018": 0.0,
			"-0.017": 0.0,
			"-0.016": 0.188161796631,
			"-0.015": 1.64439457405,
			"-0.014": 2.50375212136,
			"-0.013": 2.50294762003,
			"-0.012": 1.94944035854,
			"-0.011": 2.30959395876,
			"-0.01": 2.01624571409,
			"-0.009": 2.0443485167,
			"-0.008": 5.16794999549,
			"-0.007": 6.88285750662,
			"-0.006": 5.46140352975,
			"-0.005": 5.94000480736,
			"-0.004": 6.62854768448,
			"-0.003": 9.55650403742,
			"-0.002": 12.6640078147,
			"-0.001": 16.5581978174,
			"0.0": 24.9172691899,
			"0.001": 21.5177433447,
			"0.002": 16.4946231228,
			"0.003": 19.3934505848,
			"0.004": 15.0457094545,
			"0.005": 3.36788387879,
			"0.006": 4.36647153183,
			"0.007": 5.83128498298,
			"0.008": 6.337769658,
			"0.009": 5.08812078967,
			"0.01": 3.71623487155,
			"0.011": 2.97971682509,
			"0.012": 0.407255331078,
			"0.013": 0.0,
			"0.014": 0.0,
			"0.015": 0.0,
			"0.016": 0.0,
			"0.017": 0.0,
			"0.018": 0.0,
			"0.019": 0.0,
			"0.02": 0.0,
			"0.021": 0.0,
			"0.022": 0.0,
			"0.023": 0.0,
			"0.024": 0.0,
			"0.025": 0.0
		}
	}
}
