{
	 "smiles": "FC(F)(F)C1=NN(C(=O)C1=NNC1=CC(=CC=C1)C(F)(F)F)C1=CC=CC=C1", 
	 "Tm": 433.15, 
	 "num_atms": 38, 
	 "gaussian": { 
		 "optdone": 1, 
		 "sigma_profile": "yes", 
		 "theory": "DFT", 
		 "functional": "B3LYP", 
		 "basiset": "6-31G**", 
		 "properties": { 
			 "R2extent": 15702.7643, 
			 "electric_dipole_moment_norm": 4.15292500053, 
			 "electric_quadrupole_moment_norm": 28.8660722229, 
			 "total_energy": -1547.06091943, 
			 "HOMO_LUMO_gap": 0.11208, 
			 "cosmo_polarized_energy": -14.88, 
			 "cosmo_cavitation_energy": 47.28, 
			 "cosmo_dispersion_energy": -32.54, 
			 "cosmo_repulsion_energy": 2.29, 
			 "cosmo_total_nonelectrostatic_energy": 17.03, 
			 "SMD_solvation_energy": 9.56 
		},
		"coords": [
			{
				"x": 0.620172545,
				"y": -2.1638579636,
				"z": -2.2430367327,
				"element": "F" 
			},
			{
				"x": -0.6435306504,
				"y": -1.7119294782,
				"z": -2.0463659245,
				"element": "C" 
			},
			{
				"x": -1.2375853789,
				"y": -2.6446448994,
				"z": -1.234627453,
				"element": "F" 
			},
			{
				"x": -1.2825821926,
				"y": -1.7175981595,
				"z": -3.2122727318,
				"element": "F" 
			},
			{
				"x": -0.6368446197,
				"y": -0.3739140671,
				"z": -1.382531536,
				"element": "C" 
			},
			{
				"x": -1.0707002438,
				"y": 0.6664724529,
				"z": -2.0357996864,
				"element": "N" 
			},
			{
				"x": -0.9105146681,
				"y": 1.7770459249,
				"z": -1.2598079072,
				"element": "N" 
			},
			{
				"x": -0.3123396763,
				"y": 1.4746361034,
				"z": -0.011682457,
				"element": "C" 
			},
			{
				"x": -0.0389223838,
				"y": 2.2521640586,
				"z": 0.8828352354,
				"element": "O" 
			},
			{
				"x": -0.1223791852,
				"y": -0.0032546388,
				"z": -0.0760447062,
				"element": "C" 
			},
			{
				"x": 0.4085607989,
				"y": -0.6193338533,
				"z": 0.9438926699,
				"element": "N" 
			},
			{
				"x": 0.5697880786,
				"y": -1.917951718,
				"z": 0.9763344962,
				"element": "N" 
			},
			{
				"x": 1.1548424501,
				"y": -2.5480760654,
				"z": 2.0893100766,
				"element": "C" 
			},
			{
				"x": 1.6255122457,
				"y": -1.8068324253,
				"z": 3.1793533969,
				"element": "C" 
			},
			{
				"x": 2.2012961859,
				"y": -2.4822673371,
				"z": 4.2521934131,
				"element": "C" 
			},
			{
				"x": 2.3167953977,
				"y": -3.8768642492,
				"z": 4.2524504692,
				"element": "C" 
			},
			{
				"x": 1.8447126988,
				"y": -4.6004279861,
				"z": 3.1589601695,
				"element": "C" 
			},
			{
				"x": 1.263323059,
				"y": -3.9441105553,
				"z": 2.0764680294,
				"element": "C" 
			},
			{
				"x": 2.6598090468,
				"y": -1.704157032,
				"z": 5.4600924151,
				"element": "C" 
			},
			{
				"x": 1.7035019649,
				"y": -1.6737379924,
				"z": 6.4157140385,
				"element": "F" 
			},
			{
				"x": 3.756567497,
				"y": -2.2610912153,
				"z": 6.0201953528,
				"element": "F" 
			},
			{
				"x": 2.9600352941,
				"y": -0.4256443868,
				"z": 5.15543182,
				"element": "F" 
			},
			{
				"x": -1.3314251134,
				"y": 3.0414879755,
				"z": -1.765989922,
				"element": "C" 
			},
			{
				"x": -1.937215227,
				"y": 3.1035046564,
				"z": -3.0286144493,
				"element": "C" 
			},
			{
				"x": -2.3515857773,
				"y": 4.3340501602,
				"z": -3.532284114,
				"element": "C" 
			},
			{
				"x": -2.1709726992,
				"y": 5.5044469107,
				"z": -2.792653511,
				"element": "C" 
			},
			{
				"x": -1.5679316612,
				"y": 5.4306322697,
				"z": -1.5373647657,
				"element": "C" 
			},
			{
				"x": -1.1440333556,
				"y": 4.2090257349,
				"z": -1.0131932907,
				"element": "C" 
			},
			{
				"x": 0.2226241903,
				"y": -2.5144269165,
				"z": 0.2282087728,
				"element": "H" 
			},
			{
				"x": 1.5422961029,
				"y": -0.7276037615,
				"z": 3.1731917846,
				"element": "H" 
			},
			{
				"x": 2.7781687003,
				"y": -4.3825078251,
				"z": 5.0929934354,
				"element": "H" 
			},
			{
				"x": 1.931575692,
				"y": -5.6820940625,
				"z": 3.1449692182,
				"element": "H" 
			},
			{
				"x": 0.8982317816,
				"y": -4.5108588368,
				"z": 1.2238245473,
				"element": "H" 
			},
			{
				"x": -2.0764950067,
				"y": 2.195030176,
				"z": -3.6004064705,
				"element": "H" 
			},
			{
				"x": -2.8198656983,
				"y": 4.3735129441,
				"z": -4.5115373743,
				"element": "H" 
			},
			{
				"x": -2.4966068383,
				"y": 6.4607669891,
				"z": -3.1904802924,
				"element": "H" 
			},
			{
				"x": -1.4204380492,
				"y": 6.3321430848,
				"z": -0.9498266679,
				"element": "H" 
			},
			{
				"x": -0.6775453046,
				"y": 4.1543659839,
				"z": -0.0397993483,
				"element": "H" 
			}
		],
		 "valence_orbital": [ 
			{
				"type": "occ",
				"energy": -0.28517,
				"method": "rhf"
			},
			{
				"type": "occ",
				"energy": -0.26791,
				"method": "rhf"
			},
			{
				"type": "occ",
				"energy": -0.25246,
				"method": "rhf"
			},
			{
				"type": "occ",
				"energy": -0.24191,
				"method": "rhf"
			},
			{
				"type": "occ",
				"energy": -0.22179,
				"method": "rhf"
			},
			{
				"type": "unocc",
				"energy": -0.10971,
				"method": "rhf"
			},
			{
				"type": "unocc",
				"energy": -0.04206,
				"method": "rhf"
			},
			{
				"type": "unocc",
				"energy": -0.02892,
				"method": "rhf"
			},
			{
				"type": "unocc",
				"energy": -0.01442,
				"method": "rhf"
			},
			{
				"type": "unocc",
				"energy": -0.00228,
				"method": "rhf"
			}
		],
		"cosmo_sigma_profile": { 
			"-0.025": 0.0,
			"-0.024": 0.0,
			"-0.023": 0.0,
			"-0.022": 0.0,
			"-0.021": 0.0,
			"-0.02": 0.0,
			"-0.019": 0.0,
			"-0.018": 0.0,
			"-0.017": 0.0,
			"-0.016": 0.0497238366019,
			"-0.015": 0.474711170371,
			"-0.014": 0.461973705104,
			"-0.013": 0.674514156249,
			"-0.012": 1.4324830162,
			"-0.011": 1.51255038881,
			"-0.01": 0.927391885768,
			"-0.009": 2.4468426784,
			"-0.008": 3.32153515822,
			"-0.007": 7.84614815333,
			"-0.006": 15.5362066146,
			"-0.005": 20.9161633938,
			"-0.004": 23.4900782895,
			"-0.003": 24.3569986237,
			"-0.002": 23.6749243229,
			"-0.001": 28.9427158043,
			"0.0": 31.6028479505,
			"0.001": 46.06112677,
			"0.002": 57.6363457428,
			"0.003": 42.1718985633,
			"0.004": 14.1187743357,
			"0.005": 13.0954847397,
			"0.006": 4.54913071129,
			"0.007": 3.0490057163,
			"0.008": 2.01876437305,
			"0.009": 1.97571435798,
			"0.01": 2.76225151609,
			"0.011": 3.43441156467,
			"0.012": 2.92936947521,
			"0.013": 1.21769354857,
			"0.014": 0.0,
			"0.015": 0.0,
			"0.016": 0.0,
			"0.017": 0.0,
			"0.018": 0.0,
			"0.019": 0.0,
			"0.02": 0.0,
			"0.021": 0.0,
			"0.022": 0.0,
			"0.023": 0.0,
			"0.024": 0.0,
			"0.025": 0.0
		}
	}
}
