{
	 "smiles": "OCC1=CC=C(F)C=C1", 
	 "Tm": 296.15, 
	 "num_atms": 16, 
	 "gaussian": { 
		 "optdone": 1, 
		 "sigma_profile": "yes", 
		 "theory": "DFT", 
		 "functional": "B3LYP", 
		 "basiset": "6-31G**", 
		 "properties": { 
			 "R2extent": 1444.0325, 
			 "electric_dipole_moment_norm": 0.783649468832, 
			 "electric_quadrupole_moment_norm": 11.180413572, 
			 "total_energy": -446.007418111, 
			 "HOMO_LUMO_gap": 0.23023, 
			 "cosmo_polarized_energy": -7.15, 
			 "cosmo_cavitation_energy": 20.39, 
			 "cosmo_dispersion_energy": -14.89, 
			 "cosmo_repulsion_energy": 1.21, 
			 "cosmo_total_nonelectrostatic_energy": 6.71, 
			 "SMD_solvation_energy": 4.07 
		},
		"coords": [
			{
				"x": 1.0085752484,
				"y": -2.5305753573,
				"z": -0.6416109851,
				"element": "O" 
			},
			{
				"x": -0.2450125137,
				"y": -2.3219977435,
				"z": 0.0172033641,
				"element": "C" 
			},
			{
				"x": -0.6215597664,
				"y": -0.8636367528,
				"z": 0.1213536382,
				"element": "C" 
			},
			{
				"x": -1.3396517267,
				"y": -0.2341228413,
				"z": -0.9060921212,
				"element": "C" 
			},
			{
				"x": -1.642006647,
				"y": 1.1258787894,
				"z": -0.8476195559,
				"element": "C" 
			},
			{
				"x": -1.210953479,
				"y": 1.8556263221,
				"z": 0.2550665518,
				"element": "C" 
			},
			{
				"x": -1.5015506052,
				"y": 3.1707040854,
				"z": 0.3227191082,
				"element": "F" 
			},
			{
				"x": -0.4941932341,
				"y": 1.2694047046,
				"z": 1.2927844316,
				"element": "C" 
			},
			{
				"x": -0.2021547139,
				"y": -0.0918837764,
				"z": 1.2150027462,
				"element": "C" 
			},
			{
				"x": 1.3567378603,
				"y": -1.6650630799,
				"z": -0.8866792921,
				"element": "H" 
			},
			{
				"x": -0.1870632924,
				"y": -2.7635169953,
				"z": 1.0214051745,
				"element": "H" 
			},
			{
				"x": -1.0222131087,
				"y": -2.868034995,
				"z": -0.5346352545,
				"element": "H" 
			},
			{
				"x": -1.6725021177,
				"y": -0.8179608101,
				"z": -1.7603662496,
				"element": "H" 
			},
			{
				"x": -2.2028932418,
				"y": 1.6215650159,
				"z": -1.6325075905,
				"element": "H" 
			},
			{
				"x": -0.1814873574,
				"y": 1.8743450019,
				"z": 2.1369461639,
				"element": "H" 
			},
			{
				"x": 0.3548286951,
				"y": -0.5644315676,
				"z": 2.0199298706,
				"element": "H" 
			}
		],
		 "valence_orbital": [ 
			{
				"type": "occ",
				"energy": -0.35022,
				"method": "rhf"
			},
			{
				"type": "occ",
				"energy": -0.32898,
				"method": "rhf"
			},
			{
				"type": "occ",
				"energy": -0.27119,
				"method": "rhf"
			},
			{
				"type": "occ",
				"energy": -0.26232,
				"method": "rhf"
			},
			{
				"type": "occ",
				"energy": -0.24938,
				"method": "rhf"
			},
			{
				"type": "unocc",
				"energy": -0.01915,
				"method": "rhf"
			},
			{
				"type": "unocc",
				"energy": -0.013,
				"method": "rhf"
			},
			{
				"type": "unocc",
				"energy": 0.08018,
				"method": "rhf"
			},
			{
				"type": "unocc",
				"energy": 0.10221,
				"method": "rhf"
			},
			{
				"type": "unocc",
				"energy": 0.12252,
				"method": "rhf"
			}
		],
		"cosmo_sigma_profile": { 
			"-0.025": 0.0,
			"-0.024": 0.0,
			"-0.023": 0.0,
			"-0.022": 0.0,
			"-0.021": 0.0,
			"-0.02": 0.0,
			"-0.019": 0.0,
			"-0.018": 0.0,
			"-0.017": 0.0,
			"-0.016": 0.0,
			"-0.015": 0.120863199907,
			"-0.014": 0.604402518558,
			"-0.013": 0.807884573783,
			"-0.012": 0.905483081709,
			"-0.011": 0.363432631201,
			"-0.01": 0.557348233244,
			"-0.009": 0.973131411965,
			"-0.008": 0.698387071252,
			"-0.007": 4.98484081252,
			"-0.006": 9.04306791248,
			"-0.005": 11.9463449484,
			"-0.004": 13.4499000815,
			"-0.003": 10.9579372019,
			"-0.002": 11.7278107911,
			"-0.001": 9.84249664681,
			"0.0": 10.5494769683,
			"0.001": 13.0929223495,
			"0.002": 12.400357494,
			"0.003": 12.6739147376,
			"0.004": 17.4126754526,
			"0.005": 5.77750047741,
			"0.006": 0.923068792085,
			"0.007": 0.597238159237,
			"0.008": 1.30840238414,
			"0.009": 1.67589441247,
			"0.01": 1.1486069092,
			"0.011": 1.08000171264,
			"0.012": 1.0549938401,
			"0.013": 1.90301576927,
			"0.014": 2.3782895995,
			"0.015": 1.18610119566,
			"0.016": 0.0,
			"0.017": 0.0,
			"0.018": 0.0,
			"0.019": 0.0,
			"0.02": 0.0,
			"0.021": 0.0,
			"0.022": 0.0,
			"0.023": 0.0,
			"0.024": 0.0,
			"0.025": 0.0
		}
	}
}
