{
	 "smiles": "O=C1OC2=C(C3=CC=CC=C3)S(=O)(=O)C(=C2O1)C1=CC=CC=C1", 
	 "Tm": 500.15, 
	 "num_atms": 33, 
	 "gaussian": { 
		 "optdone": 1, 
		 "sigma_profile": "yes", 
		 "theory": "DFT", 
		 "functional": "B3LYP", 
		 "basiset": "6-31G**", 
		 "properties": { 
			 "R2extent": 8261.3128, 
			 "electric_dipole_moment_norm": 0.0276298751354, 
			 "electric_quadrupole_moment_norm": 27.9235574524, 
			 "total_energy": -1428.03534481, 
			 "HOMO_LUMO_gap": 0.12406, 
			 "cosmo_polarized_energy": -14.31, 
			 "cosmo_cavitation_energy": 39.93, 
			 "cosmo_dispersion_energy": -29.12, 
			 "cosmo_repulsion_energy": 2.11, 
			 "cosmo_total_nonelectrostatic_energy": 12.92, 
			 "SMD_solvation_energy": 7.87 
		},
		"coords": [
			{
				"x": 2.7196745808,
				"y": -3.4227910944,
				"z": 1.3383077822,
				"element": "O" 
			},
			{
				"x": 2.0746161184,
				"y": -2.4627614283,
				"z": 1.0764055184,
				"element": "C" 
			},
			{
				"x": 0.70966132,
				"y": -2.4573904932,
				"z": 0.839973627,
				"element": "O" 
			},
			{
				"x": 0.3341609689,
				"y": -1.1644885037,
				"z": 0.5686749603,
				"element": "C" 
			},
			{
				"x": -0.8337163364,
				"y": -0.5773747724,
				"z": 0.2619865595,
				"element": "C" 
			},
			{
				"x": -2.1958377147,
				"y": -1.0625456054,
				"z": 0.1176552619,
				"element": "C" 
			},
			{
				"x": -3.1962521713,
				"y": -0.259926789,
				"z": -0.4639544559,
				"element": "C" 
			},
			{
				"x": -4.4958194162,
				"y": -0.7434576241,
				"z": -0.5915040002,
				"element": "C" 
			},
			{
				"x": -4.8190369748,
				"y": -2.0276710943,
				"z": -0.1502886517,
				"element": "C" 
			},
			{
				"x": -3.830419765,
				"y": -2.8338000875,
				"z": 0.4220018165,
				"element": "C" 
			},
			{
				"x": -2.5302656443,
				"y": -2.3603039061,
				"z": 0.5587740915,
				"element": "C" 
			},
			{
				"x": -0.3864676502,
				"y": 1.2000980816,
				"z": 0.077288777,
				"element": "S" 
			},
			{
				"x": -0.5615240255,
				"y": 1.6181668487,
				"z": -1.3197879854,
				"element": "O" 
			},
			{
				"x": -1.0188788637,
				"y": 1.9837964859,
				"z": 1.1464611203,
				"element": "O" 
			},
			{
				"x": 1.4058537702,
				"y": 0.9756201824,
				"z": 0.4387963855,
				"element": "C" 
			},
			{
				"x": 1.5197706335,
				"y": -0.345001521,
				"z": 0.6524992374,
				"element": "C" 
			},
			{
				"x": 2.5703103463,
				"y": -1.1744345359,
				"z": 0.9600695789,
				"element": "O" 
			},
			{
				"x": 2.3546216057,
				"y": 2.0760331483,
				"z": 0.4153632865,
				"element": "C" 
			},
			{
				"x": 1.9165383582,
				"y": 3.4144526772,
				"z": 0.4127028412,
				"element": "C" 
			},
			{
				"x": 2.842364077,
				"y": 4.454262409,
				"z": 0.3886643295,
				"element": "C" 
			},
			{
				"x": 4.2112985183,
				"y": 4.1820332231,
				"z": 0.3724138898,
				"element": "C" 
			},
			{
				"x": 4.6550460283,
				"y": 2.8562440198,
				"z": 0.3818891143,
				"element": "C" 
			},
			{
				"x": 3.7400350153,
				"y": 1.8095000218,
				"z": 0.4013353162,
				"element": "C" 
			},
			{
				"x": -2.953752246,
				"y": 0.7300538022,
				"z": -0.8339089991,
				"element": "H" 
			},
			{
				"x": -5.257005944,
				"y": -0.1139844056,
				"z": -1.0421672257,
				"element": "H" 
			},
			{
				"x": -5.8339541183,
				"y": -2.4000908667,
				"z": -0.2518890524,
				"element": "H" 
			},
			{
				"x": -4.07469074,
				"y": -3.8338387107,
				"z": 0.7674851605,
				"element": "H" 
			},
			{
				"x": -1.7709661921,
				"y": -2.989588909,
				"z": 1.0110977351,
				"element": "H" 
			},
			{
				"x": 0.8567981053,
				"y": 3.6408358464,
				"z": 0.4505431182,
				"element": "H" 
			},
			{
				"x": 2.4905581991,
				"y": 5.4813799884,
				"z": 0.3872490339,
				"element": "H" 
			},
			{
				"x": 4.9292761623,
				"y": 4.9964228227,
				"z": 0.3535842318,
				"element": "H" 
			},
			{
				"x": 5.7184828698,
				"y": 2.6370480502,
				"z": 0.3692979598,
				"element": "H" 
			},
			{
				"x": 4.0928211252,
				"y": 0.7835027394,
				"z": 0.4007796372,
				"element": "H" 
			}
		],
		 "valence_orbital": [ 
			{
				"type": "occ",
				"energy": -0.30399,
				"method": "rhf"
			},
			{
				"type": "occ",
				"energy": -0.2681,
				"method": "rhf"
			},
			{
				"type": "occ",
				"energy": -0.26763,
				"method": "rhf"
			},
			{
				"type": "occ",
				"energy": -0.26748,
				"method": "rhf"
			},
			{
				"type": "occ",
				"energy": -0.22617,
				"method": "rhf"
			},
			{
				"type": "unocc",
				"energy": -0.10211,
				"method": "rhf"
			},
			{
				"type": "unocc",
				"energy": -0.02812,
				"method": "rhf"
			},
			{
				"type": "unocc",
				"energy": -0.01841,
				"method": "rhf"
			},
			{
				"type": "unocc",
				"energy": -0.01667,
				"method": "rhf"
			},
			{
				"type": "unocc",
				"energy": -0.01089,
				"method": "rhf"
			}
		],
		"cosmo_sigma_profile": { 
			"-0.025": 0.0,
			"-0.024": 0.0,
			"-0.023": 0.0,
			"-0.022": 0.0,
			"-0.021": 0.0,
			"-0.02": 0.0,
			"-0.019": 0.0,
			"-0.018": 0.0,
			"-0.017": 0.0,
			"-0.016": 0.0,
			"-0.015": 0.0,
			"-0.014": 0.0,
			"-0.013": 0.149762543709,
			"-0.012": 1.13824205225,
			"-0.011": 1.5244225774,
			"-0.01": 1.41920216561,
			"-0.009": 1.66720308918,
			"-0.008": 1.765533375,
			"-0.007": 8.23320511322,
			"-0.006": 23.4163299646,
			"-0.005": 28.0055321232,
			"-0.004": 24.5228350303,
			"-0.003": 20.6260280472,
			"-0.002": 19.9943273771,
			"-0.001": 18.755122159,
			"0.0": 20.4556640832,
			"0.001": 24.953662273,
			"0.002": 28.1645836223,
			"0.003": 32.317058247,
			"0.004": 21.3549448953,
			"0.005": 4.08808494265,
			"0.006": 4.282179,
			"0.007": 6.45187295354,
			"0.008": 9.5470121835,
			"0.009": 11.5440074588,
			"0.01": 9.05980841305,
			"0.011": 0.501501561894,
			"0.012": 0.0,
			"0.013": 0.0,
			"0.014": 0.0,
			"0.015": 0.0,
			"0.016": 0.0,
			"0.017": 0.0,
			"0.018": 0.0,
			"0.019": 0.0,
			"0.02": 0.0,
			"0.021": 0.0,
			"0.022": 0.0,
			"0.023": 0.0,
			"0.024": 0.0,
			"0.025": 0.0
		}
	}
}
