{
	 "smiles": "CCOC(=O)CN(C)C(=O)COC(=O)C1=CC=CC=C1", 
	 "Tm": 312.65, 
	 "num_atms": 37, 
	 "gaussian": { 
		 "optdone": 1, 
		 "sigma_profile": "yes", 
		 "theory": "DFT", 
		 "functional": "B3LYP", 
		 "basiset": "6-31G**", 
		 "properties": { 
			 "R2extent": 6513.058, 
			 "electric_dipole_moment_norm": 5.91591637703, 
			 "electric_quadrupole_moment_norm": 20.1776374687, 
			 "total_energy": -974.63581059, 
			 "HOMO_LUMO_gap": 0.18516, 
			 "cosmo_polarized_energy": -19.22, 
			 "cosmo_cavitation_energy": 41.54, 
			 "cosmo_dispersion_energy": -26.45, 
			 "cosmo_repulsion_energy": 2.03, 
			 "cosmo_total_nonelectrostatic_energy": 17.11, 
			 "SMD_solvation_energy": 9.13 
		},
		"coords": [
			{
				"x": -0.5782116143,
				"y": -2.5535905511,
				"z": 2.5066289015,
				"element": "C" 
			},
			{
				"x": 0.003148668,
				"y": -1.1506856053,
				"z": 2.5801253982,
				"element": "C" 
			},
			{
				"x": -1.013682794,
				"y": -0.1708221799,
				"z": 2.2454618635,
				"element": "O" 
			},
			{
				"x": -1.7432409251,
				"y": 0.3289988139,
				"z": 3.2592511627,
				"element": "C" 
			},
			{
				"x": -1.555885929,
				"y": 0.1030780564,
				"z": 4.4344801181,
				"element": "O" 
			},
			{
				"x": -2.8789297046,
				"y": 1.2286423375,
				"z": 2.7656612423,
				"element": "C" 
			},
			{
				"x": -2.9093736988,
				"y": 1.4634974204,
				"z": 1.334045213,
				"element": "N" 
			},
			{
				"x": -1.9803071935,
				"y": 2.4572884719,
				"z": 0.8097559551,
				"element": "C" 
			},
			{
				"x": -3.6633202193,
				"y": 0.5941411356,
				"z": 0.5813150338,
				"element": "C" 
			},
			{
				"x": -4.474654718,
				"y": -0.1743203878,
				"z": 1.0818386181,
				"element": "O" 
			},
			{
				"x": -3.5227221933,
				"y": 0.6213694952,
				"z": -0.9481104296,
				"element": "C" 
			},
			{
				"x": -2.1711982654,
				"y": 0.6720386878,
				"z": -1.4396102572,
				"element": "O" 
			},
			{
				"x": -1.4513578943,
				"y": -0.4773697012,
				"z": -1.3253708019,
				"element": "C" 
			},
			{
				"x": -1.9061206326,
				"y": -1.4981377151,
				"z": -0.8516309382,
				"element": "O" 
			},
			{
				"x": -0.064507411,
				"y": -0.3296307883,
				"z": -1.8488266955,
				"element": "C" 
			},
			{
				"x": 0.7785005654,
				"y": -1.4481962873,
				"z": -1.7805960985,
				"element": "C" 
			},
			{
				"x": 2.0860571035,
				"y": -1.3672222888,
				"z": -2.2527834178,
				"element": "C" 
			},
			{
				"x": 2.5589636288,
				"y": -0.1700421441,
				"z": -2.7974234367,
				"element": "C" 
			},
			{
				"x": 1.721040901,
				"y": 0.9454002475,
				"z": -2.8706304174,
				"element": "C" 
			},
			{
				"x": 0.411500863,
				"y": 0.8692425844,
				"z": -2.3988167276,
				"element": "C" 
			},
			{
				"x": -1.0330182882,
				"y": -2.7254369334,
				"z": 1.5273771263,
				"element": "H" 
			},
			{
				"x": -1.3387828874,
				"y": -2.6962507037,
				"z": 3.2790559682,
				"element": "H" 
			},
			{
				"x": 0.213762395,
				"y": -3.2933652552,
				"z": 2.6657083436,
				"element": "H" 
			},
			{
				"x": 0.3968805135,
				"y": -0.9229161117,
				"z": 3.5731505529,
				"element": "H" 
			},
			{
				"x": 0.7838287876,
				"y": -1.0000299748,
				"z": 1.8307228227,
				"element": "H" 
			},
			{
				"x": -2.8109622101,
				"y": 2.1770774367,
				"z": 3.3079564388,
				"element": "H" 
			},
			{
				"x": -3.8129640432,
				"y": 0.740756435,
				"z": 3.0530769424,
				"element": "H" 
			},
			{
				"x": -2.031023363,
				"y": 3.3511582583,
				"z": 1.440747778,
				"element": "H" 
			},
			{
				"x": -2.249753313,
				"y": 2.7457561569,
				"z": -0.2046574232,
				"element": "H" 
			},
			{
				"x": -0.9478425299,
				"y": 2.0899303532,
				"z": 0.8041362606,
				"element": "H" 
			},
			{
				"x": -4.0074715456,
				"y": 1.5077433118,
				"z": -1.3669669804,
				"element": "H" 
			},
			{
				"x": -4.0223407577,
				"y": -0.2788988116,
				"z": -1.3046375084,
				"element": "H" 
			},
			{
				"x": 0.387095355,
				"y": -2.367874526,
				"z": -1.3591436004,
				"element": "H" 
			},
			{
				"x": 2.7361069647,
				"y": -2.2354404343,
				"z": -2.1991412788,
				"element": "H" 
			},
			{
				"x": 3.5787174673,
				"y": -0.1071252812,
				"z": -3.1664164315,
				"element": "H" 
			},
			{
				"x": 2.0880444347,
				"y": 1.8742933478,
				"z": -3.297025041,
				"element": "H" 
			},
			{
				"x": -0.244875516,
				"y": 1.7296431307,
				"z": -2.4572082556,
				"element": "H" 
			}
		],
		 "valence_orbital": [ 
			{
				"type": "occ",
				"energy": -0.28134,
				"method": "rhf"
			},
			{
				"type": "occ",
				"energy": -0.2691,
				"method": "rhf"
			},
			{
				"type": "occ",
				"energy": -0.2671,
				"method": "rhf"
			},
			{
				"type": "occ",
				"energy": -0.25082,
				"method": "rhf"
			},
			{
				"type": "occ",
				"energy": -0.24009,
				"method": "rhf"
			},
			{
				"type": "unocc",
				"energy": -0.05493,
				"method": "rhf"
			},
			{
				"type": "unocc",
				"energy": -0.01716,
				"method": "rhf"
			},
			{
				"type": "unocc",
				"energy": 0.01127,
				"method": "rhf"
			},
			{
				"type": "unocc",
				"energy": 0.01444,
				"method": "rhf"
			},
			{
				"type": "unocc",
				"energy": 0.04826,
				"method": "rhf"
			}
		],
		"cosmo_sigma_profile": { 
			"-0.025": 0.0,
			"-0.024": 0.0,
			"-0.023": 0.0,
			"-0.022": 0.0,
			"-0.021": 0.0,
			"-0.02": 0.0,
			"-0.019": 0.0,
			"-0.018": 0.0,
			"-0.017": 0.0,
			"-0.016": 0.0,
			"-0.015": 0.0,
			"-0.014": 0.0,
			"-0.013": 0.0,
			"-0.012": 0.0,
			"-0.011": 0.0,
			"-0.01": 0.0,
			"-0.009": 2.38963346843,
			"-0.008": 6.24228435418,
			"-0.007": 8.27565929095,
			"-0.006": 18.0203905225,
			"-0.005": 25.6304097855,
			"-0.004": 29.4900165169,
			"-0.003": 30.8261164871,
			"-0.002": 28.7765341271,
			"-0.001": 25.7319079323,
			"0.0": 27.2940560946,
			"0.001": 22.6920033536,
			"0.002": 18.4375380572,
			"0.003": 17.3816727934,
			"0.004": 15.5656368409,
			"0.005": 6.82925868916,
			"0.006": 4.77414794638,
			"0.007": 4.46811267919,
			"0.008": 4.82286255675,
			"0.009": 4.77816186406,
			"0.01": 4.26990077136,
			"0.011": 8.60367440215,
			"0.012": 7.74356686291,
			"0.013": 4.80892077097,
			"0.014": 1.30337023535,
			"0.015": 0.0,
			"0.016": 0.0,
			"0.017": 0.0,
			"0.018": 0.0,
			"0.019": 0.0,
			"0.02": 0.0,
			"0.021": 0.0,
			"0.022": 0.0,
			"0.023": 0.0,
			"0.024": 0.0,
			"0.025": 0.0
		}
	}
}
