{
	 "smiles": "OC(=O)C1=CC2=C(C=C1)N(CC1=CC=CC=C1)C=N2", 
	 "Tm": 376.15, 
	 "num_atms": 31, 
	 "gaussian": { 
		 "optdone": 1, 
		 "sigma_profile": "yes", 
		 "theory": "DFT", 
		 "functional": "B3LYP", 
		 "basiset": "6-31G**", 
		 "properties": { 
			 "R2extent": 6285.0906, 
			 "electric_dipole_moment_norm": 4.68677046376, 
			 "electric_quadrupole_moment_norm": 10.0014388805, 
			 "total_energy": -838.809718934, 
			 "HOMO_LUMO_gap": 0.19501, 
			 "cosmo_polarized_energy": -17.91, 
			 "cosmo_cavitation_energy": 36.06, 
			 "cosmo_dispersion_energy": -25.43, 
			 "cosmo_repulsion_energy": 1.93, 
			 "cosmo_total_nonelectrostatic_energy": 12.57, 
			 "SMD_solvation_energy": 5.43 
		},
		"coords": [
			{
				"x": 0.9336203673,
				"y": 5.6519875548,
				"z": -0.8588773945,
				"element": "O" 
			},
			{
				"x": 1.5521119253,
				"y": 4.5199226939,
				"z": -1.2855992499,
				"element": "C" 
			},
			{
				"x": 2.6569057999,
				"y": 4.5501815392,
				"z": -1.79515271,
				"element": "O" 
			},
			{
				"x": 0.7478242395,
				"y": 3.2934728347,
				"z": -1.0632533071,
				"element": "C" 
			},
			{
				"x": -0.5173437491,
				"y": 3.3433260543,
				"z": -0.4706170185,
				"element": "C" 
			},
			{
				"x": -1.2066476636,
				"y": 2.1409918211,
				"z": -0.2998136214,
				"element": "C" 
			},
			{
				"x": -0.6200613796,
				"y": 0.9207732645,
				"z": -0.7215838616,
				"element": "C" 
			},
			{
				"x": 0.6477624608,
				"y": 0.8606214708,
				"z": -1.3119762098,
				"element": "C" 
			},
			{
				"x": 1.3170178305,
				"y": 2.0642100864,
				"z": -1.4759070493,
				"element": "C" 
			},
			{
				"x": -1.5567625795,
				"y": -0.0506726645,
				"z": -0.4176013094,
				"element": "N" 
			},
			{
				"x": -1.4644152596,
				"y": -1.481413473,
				"z": -0.677632312,
				"element": "C" 
			},
			{
				"x": -0.3919301231,
				"y": -2.1973634952,
				"z": 0.1269901538,
				"element": "C" 
			},
			{
				"x": -0.2094294894,
				"y": -1.9293484083,
				"z": 1.4892711843,
				"element": "C" 
			},
			{
				"x": 0.7503922729,
				"y": -2.6257307551,
				"z": 2.2227153859,
				"element": "C" 
			},
			{
				"x": 1.5366202654,
				"y": -3.6013843102,
				"z": 1.604695087,
				"element": "C" 
			},
			{
				"x": 1.3603968881,
				"y": -3.8738390868,
				"z": 0.2479737276,
				"element": "C" 
			},
			{
				"x": 0.4026129226,
				"y": -3.1716732743,
				"z": -0.4866481418,
				"element": "C" 
			},
			{
				"x": -2.6242671162,
				"y": 0.6178675391,
				"z": 0.1533513271,
				"element": "C" 
			},
			{
				"x": -2.4638224827,
				"y": 1.9105897878,
				"z": 0.2462139921,
				"element": "N" 
			},
			{
				"x": 1.5514051053,
				"y": 6.3743057465,
				"z": -1.0570729843,
				"element": "H" 
			},
			{
				"x": -0.9537481288,
				"y": 4.2827670699,
				"z": -0.1538542758,
				"element": "H" 
			},
			{
				"x": 1.0959984031,
				"y": -0.0788181124,
				"z": -1.6170035126,
				"element": "H" 
			},
			{
				"x": 2.3034470348,
				"y": 2.0913514451,
				"z": -1.9251998183,
				"element": "H" 
			},
			{
				"x": -1.2911327617,
				"y": -1.6385018497,
				"z": -1.7484411979,
				"element": "H" 
			},
			{
				"x": -2.4518004383,
				"y": -1.9017898348,
				"z": -0.4539238271,
				"element": "H" 
			},
			{
				"x": -0.8121239695,
				"y": -1.1661907395,
				"z": 1.9738829098,
				"element": "H" 
			},
			{
				"x": 0.8860072236,
				"y": -2.4054343981,
				"z": 3.2775743644,
				"element": "H" 
			},
			{
				"x": 2.2848915461,
				"y": -4.1415866036,
				"z": 2.1771205534,
				"element": "H" 
			},
			{
				"x": 1.9718462276,
				"y": -4.6258563279,
				"z": -0.2421827324,
				"element": "H" 
			},
			{
				"x": 0.2725353366,
				"y": -3.3835085776,
				"z": -1.5455209306,
				"element": "H" 
			},
			{
				"x": -3.5023107084,
				"y": 0.0720430029,
				"z": 0.4781727787,
				"element": "H" 
			}
		],
		 "valence_orbital": [ 
			{
				"type": "occ",
				"energy": -0.26699,
				"method": "rhf"
			},
			{
				"type": "occ",
				"energy": -0.26386,
				"method": "rhf"
			},
			{
				"type": "occ",
				"energy": -0.25944,
				"method": "rhf"
			},
			{
				"type": "occ",
				"energy": -0.23646,
				"method": "rhf"
			},
			{
				"type": "occ",
				"energy": -0.23096,
				"method": "rhf"
			},
			{
				"type": "unocc",
				"energy": -0.03595,
				"method": "rhf"
			},
			{
				"type": "unocc",
				"energy": -0.01978,
				"method": "rhf"
			},
			{
				"type": "unocc",
				"energy": -0.01558,
				"method": "rhf"
			},
			{
				"type": "unocc",
				"energy": -0.0153,
				"method": "rhf"
			},
			{
				"type": "unocc",
				"energy": 0.04578,
				"method": "rhf"
			}
		],
		"cosmo_sigma_profile": { 
			"-0.025": 0.0,
			"-0.024": 0.0,
			"-0.023": 0.0,
			"-0.022": 0.0,
			"-0.021": 0.0,
			"-0.02": 0.0,
			"-0.019": 0.0,
			"-0.018": 0.479109649336,
			"-0.017": 0.846438635576,
			"-0.016": 1.13579802455,
			"-0.015": 0.524662212522,
			"-0.014": 0.79829367774,
			"-0.013": 0.838801901114,
			"-0.012": 0.465904703912,
			"-0.011": 0.861306436213,
			"-0.01": 4.22981761384,
			"-0.009": 3.26346794356,
			"-0.008": 3.3670492872,
			"-0.007": 8.34061203993,
			"-0.006": 16.147456252,
			"-0.005": 23.7735996015,
			"-0.004": 22.1249092399,
			"-0.003": 16.9215403506,
			"-0.002": 15.6525843492,
			"-0.001": 18.6235955386,
			"0.0": 15.068863108,
			"0.001": 17.7796571129,
			"0.002": 22.5854120105,
			"0.003": 25.7308757447,
			"0.004": 17.7017153983,
			"0.005": 13.4247242723,
			"0.006": 9.00432648621,
			"0.007": 4.2840350588,
			"0.008": 4.41259885413,
			"0.009": 1.74390532455,
			"0.01": 3.00682560843,
			"0.011": 4.43111941553,
			"0.012": 6.36198341399,
			"0.013": 1.41438362287,
			"0.014": 1.26186970122,
			"0.015": 0.941282394346,
			"0.016": 0.818468684409,
			"0.017": 0.859682270671,
			"0.018": 0.0,
			"0.019": 0.0,
			"0.02": 0.0,
			"0.021": 0.0,
			"0.022": 0.0,
			"0.023": 0.0,
			"0.024": 0.0,
			"0.025": 0.0
		}
	}
}
