{
	 "smiles": "COC1=CC=C(C=C1)C(O)(C1=CC=C(OC)C=C1)C1=CC=C(OC)C=C1", 
	 "Tm": 352.15, 
	 "num_atms": 48, 
	 "gaussian": { 
		 "optdone": 1, 
		 "sigma_profile": "yes", 
		 "theory": "DFT", 
		 "functional": "B3LYP", 
		 "basiset": "6-31G**", 
		 "properties": { 
			 "R2extent": 12147.7465, 
			 "electric_dipole_moment_norm": 0.952668861672, 
			 "electric_quadrupole_moment_norm": 19.7938973762, 
			 "total_energy": -1152.45046827, 
			 "HOMO_LUMO_gap": 0.19512, 
			 "cosmo_polarized_energy": -15.95, 
			 "cosmo_cavitation_energy": 50.48, 
			 "cosmo_dispersion_energy": -35.02, 
			 "cosmo_repulsion_energy": 2.67, 
			 "cosmo_total_nonelectrostatic_energy": 18.12, 
			 "SMD_solvation_energy": 10.81 
		},
		"coords": [
			{
				"x": -1.8795351508,
				"y": -4.7702763658,
				"z": -3.5936893662,
				"element": "C" 
			},
			{
				"x": -1.3010088738,
				"y": -3.4809659998,
				"z": -3.7164397141,
				"element": "O" 
			},
			{
				"x": -0.7285090112,
				"y": -2.9214683108,
				"z": -2.6109246731,
				"element": "C" 
			},
			{
				"x": -0.6639502634,
				"y": -3.531439917,
				"z": -1.3504020713,
				"element": "C" 
			},
			{
				"x": -0.0532173751,
				"y": -2.8601383266,
				"z": -0.2920967331,
				"element": "C" 
			},
			{
				"x": 0.5005072393,
				"y": -1.5809280394,
				"z": -0.447878429,
				"element": "C" 
			},
			{
				"x": 0.433491285,
				"y": -0.9918424379,
				"z": -1.7183737987,
				"element": "C" 
			},
			{
				"x": -0.1733128339,
				"y": -1.6481037812,
				"z": -2.7855982516,
				"element": "C" 
			},
			{
				"x": 1.1979872039,
				"y": -0.9432921951,
				"z": 0.767919059,
				"element": "C" 
			},
			{
				"x": 2.1753894777,
				"y": -1.8908146128,
				"z": 1.2474174938,
				"element": "O" 
			},
			{
				"x": 1.8901857757,
				"y": 0.3951967186,
				"z": 0.4314490757,
				"element": "C" 
			},
			{
				"x": 3.2868084592,
				"y": 0.4856430976,
				"z": 0.3517979478,
				"element": "C" 
			},
			{
				"x": 3.9191856151,
				"y": 1.6845307882,
				"z": 0.0405292738,
				"element": "C" 
			},
			{
				"x": 3.1644484989,
				"y": 2.8391102487,
				"z": -0.2011630152,
				"element": "C" 
			},
			{
				"x": 3.8748202092,
				"y": 3.9673861141,
				"z": -0.5003424702,
				"element": "O" 
			},
			{
				"x": 3.1567492264,
				"y": 5.1659038663,
				"z": -0.7404810786,
				"element": "C" 
			},
			{
				"x": 1.7685513709,
				"y": 2.7732301804,
				"z": -0.1162026638,
				"element": "C" 
			},
			{
				"x": 1.1516603367,
				"y": 1.5613247319,
				"z": 0.2026163205,
				"element": "C" 
			},
			{
				"x": 0.229524027,
				"y": -0.7332646619,
				"z": 1.9429556129,
				"element": "C" 
			},
			{
				"x": -1.1364698777,
				"y": -0.4788036876,
				"z": 1.7539731589,
				"element": "C" 
			},
			{
				"x": -1.9802426163,
				"y": -0.2376628403,
				"z": 2.8333648776,
				"element": "C" 
			},
			{
				"x": -1.4753488478,
				"y": -0.2533836753,
				"z": 4.139646049,
				"element": "C" 
			},
			{
				"x": -2.382622196,
				"y": -0.0118380562,
				"z": 5.1333976789,
				"element": "O" 
			},
			{
				"x": -1.9229319252,
				"y": -0.018594735,
				"z": 6.4742208938,
				"element": "C" 
			},
			{
				"x": -0.1148024509,
				"y": -0.5116701522,
				"z": 4.3463036482,
				"element": "C" 
			},
			{
				"x": 0.7205097308,
				"y": -0.7429429079,
				"z": 3.2518280024,
				"element": "C" 
			},
			{
				"x": -1.1356621096,
				"y": -5.5234583007,
				"z": -3.3030238929,
				"element": "H" 
			},
			{
				"x": -2.7004511821,
				"y": -4.7794499176,
				"z": -2.8649986745,
				"element": "H" 
			},
			{
				"x": -2.2738584667,
				"y": -5.0191730701,
				"z": -4.5802103669,
				"element": "H" 
			},
			{
				"x": -1.0811991525,
				"y": -4.5176508754,
				"z": -1.1838022474,
				"element": "H" 
			},
			{
				"x": -0.0020678995,
				"y": -3.3396426061,
				"z": 0.680474071,
				"element": "H" 
			},
			{
				"x": 0.8617519259,
				"y": -0.009647698,
				"z": -1.8822466242,
				"element": "H" 
			},
			{
				"x": -0.2238780141,
				"y": -1.1909030483,
				"z": -3.768528625,
				"element": "H" 
			},
			{
				"x": 2.6036727401,
				"y": -2.2682820999,
				"z": 0.4675664066,
				"element": "H" 
			},
			{
				"x": 3.8894219776,
				"y": -0.3904617097,
				"z": 0.5623250393,
				"element": "H" 
			},
			{
				"x": 5.0011324353,
				"y": 1.751061397,
				"z": -0.0140857434,
				"element": "H" 
			},
			{
				"x": 3.9060671088,
				"y": 5.9294442001,
				"z": -0.9560158884,
				"element": "H" 
			},
			{
				"x": 2.5724855419,
				"y": 5.4727631215,
				"z": 0.1369408578,
				"element": "H" 
			},
			{
				"x": 2.4824892339,
				"y": 5.0706802887,
				"z": -1.6018187896,
				"element": "H" 
			},
			{
				"x": 1.1553636318,
				"y": 3.6509791175,
				"z": -0.2834603613,
				"element": "H" 
			},
			{
				"x": 0.0692675606,
				"y": 1.5376426847,
				"z": 0.2832778871,
				"element": "H" 
			},
			{
				"x": -1.5523923389,
				"y": -0.4816471489,
				"z": 0.7513203525,
				"element": "H" 
			},
			{
				"x": -3.0380902119,
				"y": -0.0441026154,
				"z": 2.6874086178,
				"element": "H" 
			},
			{
				"x": -1.1619329461,
				"y": 0.7536270116,
				"z": 6.6475687746,
				"element": "H" 
			},
			{
				"x": -2.7955483117,
				"y": 0.1938620794,
				"z": 7.0943163549,
				"element": "H" 
			},
			{
				"x": -1.5094760724,
				"y": -0.9953958722,
				"z": 6.7579059738,
				"element": "H" 
			},
			{
				"x": 0.3039869084,
				"y": -0.5352973856,
				"z": 5.3456318443,
				"element": "H" 
			},
			{
				"x": 1.7727506078,
				"y": -0.9433425955,
				"z": 3.4198282066,
				"element": "H" 
			}
		],
		 "valence_orbital": [ 
			{
				"type": "occ",
				"energy": -0.24414,
				"method": "rhf"
			},
			{
				"type": "occ",
				"energy": -0.24041,
				"method": "rhf"
			},
			{
				"type": "occ",
				"energy": -0.21784,
				"method": "rhf"
			},
			{
				"type": "occ",
				"energy": -0.21311,
				"method": "rhf"
			},
			{
				"type": "occ",
				"energy": -0.20183,
				"method": "rhf"
			},
			{
				"type": "unocc",
				"energy": -0.00671,
				"method": "rhf"
			},
			{
				"type": "unocc",
				"energy": 0.00244,
				"method": "rhf"
			},
			{
				"type": "unocc",
				"energy": 0.00823,
				"method": "rhf"
			},
			{
				"type": "unocc",
				"energy": 0.00863,
				"method": "rhf"
			},
			{
				"type": "unocc",
				"energy": 0.01669,
				"method": "rhf"
			}
		],
		"cosmo_sigma_profile": { 
			"-0.025": 0.0,
			"-0.024": 0.0,
			"-0.023": 0.0,
			"-0.022": 0.0,
			"-0.021": 0.0,
			"-0.02": 0.0,
			"-0.019": 0.0,
			"-0.018": 0.0,
			"-0.017": 0.0,
			"-0.016": 0.0,
			"-0.015": 0.375822444519,
			"-0.014": 0.525455673736,
			"-0.013": 0.727338413509,
			"-0.012": 0.873034817258,
			"-0.011": 1.12904942533,
			"-0.01": 0.42983290621,
			"-0.009": 1.20047683754,
			"-0.008": 1.41545015682,
			"-0.007": 1.29137647715,
			"-0.006": 17.4004264813,
			"-0.005": 40.8895359357,
			"-0.004": 44.0868483233,
			"-0.003": 45.1594126744,
			"-0.002": 27.4141799398,
			"-0.001": 20.158286329,
			"0.0": 21.2989564079,
			"0.001": 20.4749031609,
			"0.002": 21.275204787,
			"0.003": 26.4827396047,
			"0.004": 32.574234311,
			"0.005": 31.4699701429,
			"0.006": 17.6692802059,
			"0.007": 5.92953326986,
			"0.008": 4.65550927107,
			"0.009": 5.11784130176,
			"0.01": 6.72648661092,
			"0.011": 3.08042431228,
			"0.012": 0.71971186237,
			"0.013": 0.224881704816,
			"0.014": 0.0,
			"0.015": 0.0,
			"0.016": 0.0,
			"0.017": 0.0,
			"0.018": 0.0,
			"0.019": 0.0,
			"0.02": 0.0,
			"0.021": 0.0,
			"0.022": 0.0,
			"0.023": 0.0,
			"0.024": 0.0,
			"0.025": 0.0
		}
	}
}
