{
	 "smiles": "BrC1=CC=C(C=C1)C1=CC=CO1", 
	 "Tm": 356.65, 
	 "num_atms": 19, 
	 "gaussian": { 
		 "optdone": 1, 
		 "sigma_profile": "yes", 
		 "theory": "DFT", 
		 "functional": "B3LYP", 
		 "basiset": "6-31G**", 
		 "properties": { 
			 "R2extent": 4183.1649, 
			 "electric_dipole_moment_norm": 2.46536846333, 
			 "electric_quadrupole_moment_norm": 7.05404065979, 
			 "total_energy": -3031.8908606, 
			 "HOMO_LUMO_gap": 0.16826, 
			 "cosmo_polarized_energy": -5.33, 
			 "cosmo_cavitation_energy": 25.93, 
			 "cosmo_dispersion_energy": -19.7, 
			 "cosmo_repulsion_energy": 1.54, 
			 "cosmo_total_nonelectrostatic_energy": 7.77, 
			 "SMD_solvation_energy": 4.12 
		},
		"coords": [
			{
				"x": 2.6920048027,
				"y": 2.4532699001,
				"z": 1.1486708341,
				"element": "Br" 
			},
			{
				"x": 1.3597934559,
				"y": 1.168871787,
				"z": 0.67261364,
				"element": "C" 
			},
			{
				"x": 1.007750121,
				"y": 0.1731666725,
				"z": 1.5839814147,
				"element": "C" 
			},
			{
				"x": 0.0376121372,
				"y": -0.7600137975,
				"z": 1.2333440116,
				"element": "C" 
			},
			{
				"x": -0.5927227059,
				"y": -0.7153096416,
				"z": -0.0235315293,
				"element": "C" 
			},
			{
				"x": -0.2179839074,
				"y": 0.2994602515,
				"z": -0.922139143,
				"element": "C" 
			},
			{
				"x": 0.7520998321,
				"y": 1.2377512873,
				"z": -0.5796800283,
				"element": "C" 
			},
			{
				"x": -1.6077577537,
				"y": -1.6971840571,
				"z": -0.3819056779,
				"element": "C" 
			},
			{
				"x": -2.1621103518,
				"y": -2.7702041869,
				"z": 0.2700331427,
				"element": "C" 
			},
			{
				"x": -3.1197070817,
				"y": -3.346494756,
				"z": -0.6208320168,
				"element": "C" 
			},
			{
				"x": -3.0861881769,
				"y": -2.5897131831,
				"z": -1.7526458671,
				"element": "C" 
			},
			{
				"x": -2.1756180054,
				"y": -1.5856511661,
				"z": -1.6258591562,
				"element": "O" 
			},
			{
				"x": 1.4868714702,
				"y": 0.1290244507,
				"z": 2.5553729115,
				"element": "H" 
			},
			{
				"x": -0.2311458702,
				"y": -1.5319176136,
				"z": 1.9476594139,
				"element": "H" 
			},
			{
				"x": -0.6924422176,
				"y": 0.3504935604,
				"z": -1.89564166,
				"element": "H" 
			},
			{
				"x": 1.0336996094,
				"y": 2.0160424871,
				"z": -1.2798731731,
				"element": "H" 
			},
			{
				"x": -1.9193362113,
				"y": -3.1116093005,
				"z": 1.2656303542,
				"element": "H" 
			},
			{
				"x": -3.7468764646,
				"y": -4.207555804,
				"z": -0.4406963965,
				"element": "H" 
			},
			{
				"x": -3.6173426819,
				"y": -2.6280268902,
				"z": -2.6909010747,
				"element": "H" 
			}
		],
		 "valence_orbital": [ 
			{
				"type": "occ",
				"energy": -0.2859,
				"method": "rhf"
			},
			{
				"type": "occ",
				"energy": -0.28444,
				"method": "rhf"
			},
			{
				"type": "occ",
				"energy": -0.26483,
				"method": "rhf"
			},
			{
				"type": "occ",
				"energy": -0.26412,
				"method": "rhf"
			},
			{
				"type": "occ",
				"energy": -0.20815,
				"method": "rhf"
			},
			{
				"type": "unocc",
				"energy": -0.03989,
				"method": "rhf"
			},
			{
				"type": "unocc",
				"energy": -0.0136,
				"method": "rhf"
			},
			{
				"type": "unocc",
				"energy": 0.00895,
				"method": "rhf"
			},
			{
				"type": "unocc",
				"energy": 0.03497,
				"method": "rhf"
			},
			{
				"type": "unocc",
				"energy": 0.07711,
				"method": "rhf"
			}
		],
		"cosmo_sigma_profile": { 
			"-0.025": 0.0,
			"-0.024": 0.0,
			"-0.023": 0.0,
			"-0.022": 0.0,
			"-0.021": 0.0,
			"-0.02": 0.0,
			"-0.019": 0.0,
			"-0.018": 0.0,
			"-0.017": 0.0,
			"-0.016": 0.0,
			"-0.015": 0.0,
			"-0.014": 0.0,
			"-0.013": 0.0,
			"-0.012": 0.0,
			"-0.011": 0.0,
			"-0.01": 0.0251761791066,
			"-0.009": 1.29670141456,
			"-0.008": 4.63602942465,
			"-0.007": 9.36416775985,
			"-0.006": 10.1679449167,
			"-0.005": 12.3350179975,
			"-0.004": 10.2425500394,
			"-0.003": 10.9065226489,
			"-0.002": 12.0329948732,
			"-0.001": 11.7771862278,
			"0.0": 12.9273430909,
			"0.001": 18.2843565754,
			"0.002": 28.0509650861,
			"0.003": 29.684531622,
			"0.004": 23.9247479846,
			"0.005": 15.0130237946,
			"0.006": 1.96813520451,
			"0.007": 0.0494852041745,
			"0.008": 0.0,
			"0.009": 0.0,
			"0.01": 0.0,
			"0.011": 0.0,
			"0.012": 0.0,
			"0.013": 0.0,
			"0.014": 0.0,
			"0.015": 0.0,
			"0.016": 0.0,
			"0.017": 0.0,
			"0.018": 0.0,
			"0.019": 0.0,
			"0.02": 0.0,
			"0.021": 0.0,
			"0.022": 0.0,
			"0.023": 0.0,
			"0.024": 0.0,
			"0.025": 0.0
		}
	}
}
