{
	 "smiles": "CC(C)C(=O)NC1=CC=C(N)C=C1", 
	 "Tm": 348.15, 
	 "num_atms": 27, 
	 "gaussian": { 
		 "optdone": 1, 
		 "sigma_profile": "yes", 
		 "theory": "DFT", 
		 "functional": "B3LYP", 
		 "basiset": "6-31G**", 
		 "properties": { 
			 "R2extent": 3611.0471, 
			 "electric_dipole_moment_norm": 3.39328791145, 
			 "electric_quadrupole_moment_norm": 13.7492048661, 
			 "total_energy": -574.260858307, 
			 "HOMO_LUMO_gap": 0.18974, 
			 "cosmo_polarized_energy": -16.39, 
			 "cosmo_cavitation_energy": 30.15, 
			 "cosmo_dispersion_energy": -21.93, 
			 "cosmo_repulsion_energy": 1.76, 
			 "cosmo_total_nonelectrostatic_energy": 9.97, 
			 "SMD_solvation_energy": 5.55 
		},
		"coords": [
			{
				"x": -3.7835686558,
				"y": -1.3534035681,
				"z": 0.8378281216,
				"element": "C" 
			},
			{
				"x": -2.3665000913,
				"y": -1.7859915551,
				"z": 1.2492209092,
				"element": "C" 
			},
			{
				"x": -2.2730505682,
				"y": -2.0237497122,
				"z": 2.7656100761,
				"element": "C" 
			},
			{
				"x": -1.3692580645,
				"y": -0.6895836256,
				"z": 0.8494545247,
				"element": "C" 
			},
			{
				"x": -1.4567941877,
				"y": 0.4445891984,
				"z": 1.3090380772,
				"element": "O" 
			},
			{
				"x": -0.4027641828,
				"y": -1.0873717288,
				"z": -0.0408836157,
				"element": "N" 
			},
			{
				"x": 0.6554420898,
				"y": -0.334113923,
				"z": -0.6048652361,
				"element": "C" 
			},
			{
				"x": 1.5017518573,
				"y": -0.9789931437,
				"z": -1.5176698235,
				"element": "C" 
			},
			{
				"x": 2.5624886871,
				"y": -0.3059533972,
				"z": -2.1134814463,
				"element": "C" 
			},
			{
				"x": 2.8127349112,
				"y": 1.042897679,
				"z": -1.8144113228,
				"element": "C" 
			},
			{
				"x": 3.914380858,
				"y": 1.7105974777,
				"z": -2.364424356,
				"element": "N" 
			},
			{
				"x": 1.9608359909,
				"y": 1.6817829551,
				"z": -0.8997009552,
				"element": "C" 
			},
			{
				"x": 0.8974111183,
				"y": 1.0134159689,
				"z": -0.2991435897,
				"element": "C" 
			},
			{
				"x": -4.0268696257,
				"y": -0.393913463,
				"z": 1.3024292146,
				"element": "H" 
			},
			{
				"x": -3.8684071343,
				"y": -1.2352474676,
				"z": -0.2475075422,
				"element": "H" 
			},
			{
				"x": -4.5216445822,
				"y": -2.0956189217,
				"z": 1.1584888394,
				"element": "H" 
			},
			{
				"x": -2.1183978532,
				"y": -2.7221437907,
				"z": 0.7294372281,
				"element": "H" 
			},
			{
				"x": -1.2799945712,
				"y": -2.3827061256,
				"z": 3.055491685,
				"element": "H" 
			},
			{
				"x": -2.4635711197,
				"y": -1.0884609954,
				"z": 3.2991061764,
				"element": "H" 
			},
			{
				"x": -3.0107733398,
				"y": -2.7666288906,
				"z": 3.0855631305,
				"element": "H" 
			},
			{
				"x": -0.446302402,
				"y": -2.0502625193,
				"z": -0.3407470936,
				"element": "H" 
			},
			{
				"x": 1.3290108992,
				"y": -2.0235691338,
				"z": -1.7696949338,
				"element": "H" 
			},
			{
				"x": 3.2062773136,
				"y": -0.832101205,
				"z": -2.8139389417,
				"element": "H" 
			},
			{
				"x": 3.821589941,
				"y": 2.7171415437,
				"z": -2.3952666885,
				"element": "H" 
			},
			{
				"x": 4.227783964,
				"y": 1.3451089334,
				"z": -3.253746017,
				"element": "H" 
			},
			{
				"x": 2.1357104884,
				"y": 2.72524946,
				"z": -0.648188884,
				"element": "H" 
			},
			{
				"x": 0.2486782595,
				"y": 1.5209299502,
				"z": 0.4007024632,
				"element": "H" 
			}
		],
		 "valence_orbital": [ 
			{
				"type": "occ",
				"energy": -0.3173,
				"method": "rhf"
			},
			{
				"type": "occ",
				"energy": -0.26684,
				"method": "rhf"
			},
			{
				"type": "occ",
				"energy": -0.24524,
				"method": "rhf"
			},
			{
				"type": "occ",
				"energy": -0.24155,
				"method": "rhf"
			},
			{
				"type": "occ",
				"energy": -0.18601,
				"method": "rhf"
			},
			{
				"type": "unocc",
				"energy": 0.00373,
				"method": "rhf"
			},
			{
				"type": "unocc",
				"energy": 0.00424,
				"method": "rhf"
			},
			{
				"type": "unocc",
				"energy": 0.05822,
				"method": "rhf"
			},
			{
				"type": "unocc",
				"energy": 0.06657,
				"method": "rhf"
			},
			{
				"type": "unocc",
				"energy": 0.08429,
				"method": "rhf"
			}
		],
		"cosmo_sigma_profile": { 
			"-0.025": 0.0,
			"-0.024": 0.0,
			"-0.023": 0.0,
			"-0.022": 0.0,
			"-0.021": 0.0,
			"-0.02": 0.0,
			"-0.019": 0.0,
			"-0.018": 0.0,
			"-0.017": 0.0,
			"-0.016": 0.0,
			"-0.015": 0.345932730361,
			"-0.014": 1.01011227617,
			"-0.013": 1.54533667247,
			"-0.012": 3.70716963533,
			"-0.011": 3.61959399532,
			"-0.01": 4.19011417311,
			"-0.009": 5.46534424939,
			"-0.008": 4.72476965974,
			"-0.007": 4.57757463212,
			"-0.006": 7.1552999051,
			"-0.005": 8.47789805725,
			"-0.004": 10.0690925757,
			"-0.003": 20.8976426667,
			"-0.002": 20.5033666231,
			"-0.001": 18.4601751422,
			"0.0": 19.2770756596,
			"0.001": 19.7243954418,
			"0.002": 9.01462671955,
			"0.003": 10.7979892363,
			"0.004": 11.2151992684,
			"0.005": 10.7593413299,
			"0.006": 14.6707082325,
			"0.007": 7.37667122579,
			"0.008": 2.60169430422,
			"0.009": 1.96724124005,
			"0.01": 2.75683255698,
			"0.011": 2.35202714659,
			"0.012": 2.49244143776,
			"0.013": 3.52272638167,
			"0.014": 2.873341087,
			"0.015": 0.694508132755,
			"0.016": 0.116803775935,
			"0.017": 0.0,
			"0.018": 0.0,
			"0.019": 0.0,
			"0.02": 0.0,
			"0.021": 0.0,
			"0.022": 0.0,
			"0.023": 0.0,
			"0.024": 0.0,
			"0.025": 0.0
		}
	}
}
