{
	 "smiles": "COC1=CC(C(O)=O)=C(C=C1OC)[N+]([O-])=O", 
	 "Tm": 469.15, 
	 "num_atms": 25, 
	 "gaussian": { 
		 "optdone": 1, 
		 "sigma_profile": "yes", 
		 "theory": "DFT", 
		 "functional": "B3LYP", 
		 "basiset": "6-31G**", 
		 "properties": { 
			 "R2extent": 5271.2173, 
			 "electric_dipole_moment_norm": 6.60206639621, 
			 "electric_quadrupole_moment_norm": 15.1389336599, 
			 "total_energy": -854.349338494, 
			 "HOMO_LUMO_gap": 0.14231, 
			 "cosmo_polarized_energy": -14.94, 
			 "cosmo_cavitation_energy": 29.98, 
			 "cosmo_dispersion_energy": -21.93, 
			 "cosmo_repulsion_energy": 1.69, 
			 "cosmo_total_nonelectrostatic_energy": 9.74, 
			 "SMD_solvation_energy": 10.1 
		},
		"coords": [
			{
				"x": 2.0045624552,
				"y": -0.4079623338,
				"z": -2.0411749566,
				"element": "C" 
			},
			{
				"x": 1.5765488074,
				"y": -1.0981994282,
				"z": -0.8652704249,
				"element": "O" 
			},
			{
				"x": 1.2705985622,
				"y": -0.3782972389,
				"z": 0.2363303951,
				"element": "C" 
			},
			{
				"x": 1.325323114,
				"y": 1.0135076225,
				"z": 0.3038976155,
				"element": "C" 
			},
			{
				"x": 1.0290686051,
				"y": 1.7517421178,
				"z": 1.4582780847,
				"element": "C" 
			},
			{
				"x": 1.233470612,
				"y": 3.2596923657,
				"z": 1.2267729818,
				"element": "C" 
			},
			{
				"x": 0.7422180918,
				"y": 4.1329273792,
				"z": 2.091231486,
				"element": "O" 
			},
			{
				"x": 1.8209901876,
				"y": 3.6264104789,
				"z": 0.2289129068,
				"element": "O" 
			},
			{
				"x": 0.6832694292,
				"y": 0.9961470292,
				"z": 2.6061650049,
				"element": "C" 
			},
			{
				"x": 0.6282044845,
				"y": -0.4040093393,
				"z": 2.5541010124,
				"element": "C" 
			},
			{
				"x": 0.8973878397,
				"y": -1.1077231453,
				"z": 1.3918861646,
				"element": "C" 
			},
			{
				"x": 0.8679470713,
				"y": -2.4666278614,
				"z": 1.4450949919,
				"element": "O" 
			},
			{
				"x": -0.0028697398,
				"y": -3.1545783532,
				"z": 0.5342901034,
				"element": "C" 
			},
			{
				"x": 0.347806997,
				"y": 1.5366350235,
				"z": 3.9297183799,
				"element": "N" 
			},
			{
				"x": 0.4588455172,
				"y": 0.7977513086,
				"z": 4.8987222247,
				"element": "O" 
			},
			{
				"x": -0.0782475904,
				"y": 2.7033192344,
				"z": 4.0384318464,
				"element": "O" 
			},
			{
				"x": 1.2233123311,
				"y": 0.2627600865,
				"z": -2.41521469,
				"element": "H" 
			},
			{
				"x": 2.204941153,
				"y": -1.1842710084,
				"z": -2.7794936205,
				"element": "H" 
			},
			{
				"x": 2.9190136588,
				"y": 0.1642083417,
				"z": -1.8521420575,
				"element": "H" 
			},
			{
				"x": 1.64288381,
				"y": 1.5970219871,
				"z": -0.5497033546,
				"element": "H" 
			},
			{
				"x": 0.3033069198,
				"y": 3.6662950744,
				"z": 2.8446936839,
				"element": "H" 
			},
			{
				"x": 0.3715058269,
				"y": -0.9606689542,
				"z": 3.4450448978,
				"element": "H" 
			},
			{
				"x": -1.0340635344,
				"y": -2.798142692,
				"z": 0.6439590298,
				"element": "H" 
			},
			{
				"x": 0.321592378,
				"y": -3.0353584182,
				"z": -0.5012416049,
				"element": "H" 
			},
			{
				"x": 0.0468830128,
				"y": -4.2059792765,
				"z": 0.8205098994,
				"element": "H" 
			}
		],
		 "valence_orbital": [ 
			{
				"type": "occ",
				"energy": -0.31331,
				"method": "rhf"
			},
			{
				"type": "occ",
				"energy": -0.30593,
				"method": "rhf"
			},
			{
				"type": "occ",
				"energy": -0.28033,
				"method": "rhf"
			},
			{
				"type": "occ",
				"energy": -0.27142,
				"method": "rhf"
			},
			{
				"type": "occ",
				"energy": -0.25523,
				"method": "rhf"
			},
			{
				"type": "unocc",
				"energy": -0.11292,
				"method": "rhf"
			},
			{
				"type": "unocc",
				"energy": -0.05345,
				"method": "rhf"
			},
			{
				"type": "unocc",
				"energy": -0.01629,
				"method": "rhf"
			},
			{
				"type": "unocc",
				"energy": 0.04419,
				"method": "rhf"
			},
			{
				"type": "unocc",
				"energy": 0.06586,
				"method": "rhf"
			}
		],
		"cosmo_sigma_profile": { 
			"-0.025": 0.0,
			"-0.024": 0.0,
			"-0.023": 0.0,
			"-0.022": 0.0,
			"-0.021": 0.0,
			"-0.02": 0.0,
			"-0.019": 0.0,
			"-0.018": 0.0,
			"-0.017": 0.0,
			"-0.016": 0.0,
			"-0.015": 0.0,
			"-0.014": 0.00420972057877,
			"-0.013": 0.199303397751,
			"-0.012": 0.383457803056,
			"-0.011": 0.696239839602,
			"-0.01": 0.469505706405,
			"-0.009": 0.942021853223,
			"-0.008": 3.06474537535,
			"-0.007": 11.3138761448,
			"-0.006": 16.9062264661,
			"-0.005": 20.8728209326,
			"-0.004": 21.5635876954,
			"-0.003": 20.9486073106,
			"-0.002": 18.9094428212,
			"-0.001": 19.0306184365,
			"0.0": 15.4450563101,
			"0.001": 10.3685041104,
			"0.002": 7.8878001318,
			"0.003": 6.51662370803,
			"0.004": 6.23788134939,
			"0.005": 9.0202598656,
			"0.006": 10.304009307,
			"0.007": 8.81563196511,
			"0.008": 7.04995074487,
			"0.009": 6.58980836839,
			"0.01": 5.34408919748,
			"0.011": 5.60702337201,
			"0.012": 3.89002412666,
			"0.013": 1.70691363741,
			"0.014": 0.0733022635926,
			"0.015": 0.0,
			"0.016": 0.0,
			"0.017": 0.0,
			"0.018": 0.0,
			"0.019": 0.0,
			"0.02": 0.0,
			"0.021": 0.0,
			"0.022": 0.0,
			"0.023": 0.0,
			"0.024": 0.0,
			"0.025": 0.0
		}
	}
}
