{
	 "smiles": "CNC1=CC(C)=NC=C1", 
	 "Tm": 333.15, 
	 "num_atms": 19, 
	 "gaussian": { 
		 "optdone": 1, 
		 "sigma_profile": "yes", 
		 "theory": "DFT", 
		 "functional": "B3LYP", 
		 "basiset": "6-31G**", 
		 "properties": { 
			 "R2extent": 1764.0831, 
			 "electric_dipole_moment_norm": 3.92794556225, 
			 "electric_quadrupole_moment_norm": 6.22475958974, 
			 "total_energy": -382.280156096, 
			 "HOMO_LUMO_gap": 0.21675, 
			 "cosmo_polarized_energy": -10.13, 
			 "cosmo_cavitation_energy": 22.11, 
			 "cosmo_dispersion_energy": -16.56, 
			 "cosmo_repulsion_energy": 1.36, 
			 "cosmo_total_nonelectrostatic_energy": 6.91, 
			 "SMD_solvation_energy": 1.98 
		},
		"coords": [
			{
				"x": 0.740990896,
				"y": -0.5623830058,
				"z": 2.7997183903,
				"element": "C" 
			},
			{
				"x": 0.9599450382,
				"y": 0.5764690209,
				"z": 1.9310071675,
				"element": "N" 
			},
			{
				"x": 0.0988083151,
				"y": 0.9196704927,
				"z": 0.9133529141,
				"element": "C" 
			},
			{
				"x": 0.4691767022,
				"y": 1.8962221434,
				"z": -0.0345346691,
				"element": "C" 
			},
			{
				"x": -0.4167948814,
				"y": 2.2603611618,
				"z": -1.0438169543,
				"element": "C" 
			},
			{
				"x": -0.0456995389,
				"y": 3.3020374132,
				"z": -2.0709651905,
				"element": "C" 
			},
			{
				"x": -1.6452149224,
				"y": 1.7170464258,
				"z": -1.1716647885,
				"element": "N" 
			},
			{
				"x": -1.988111753,
				"y": 0.7918405441,
				"z": -0.2711893981,
				"element": "C" 
			},
			{
				"x": -1.1804319891,
				"y": 0.3516930092,
				"z": 0.7746547888,
				"element": "C" 
			},
			{
				"x": 0.6538815539,
				"y": -1.5126209025,
				"z": 2.251569762,
				"element": "H" 
			},
			{
				"x": 1.5799435398,
				"y": -0.641081667,
				"z": 3.4943224337,
				"element": "H" 
			},
			{
				"x": -0.169806767,
				"y": -0.4297512673,
				"z": 3.3945600976,
				"element": "H" 
			},
			{
				"x": 1.9164661247,
				"y": 0.8725006722,
				"z": 1.811751801,
				"element": "H" 
			},
			{
				"x": 1.4475356569,
				"y": 2.3668052893,
				"z": 0.0279448796,
				"element": "H" 
			},
			{
				"x": -0.756200627,
				"y": 4.134628173,
				"z": -2.0391010966,
				"element": "H" 
			},
			{
				"x": 0.9618098166,
				"y": 3.6956114511,
				"z": -1.9111756712,
				"element": "H" 
			},
			{
				"x": -0.1003795765,
				"y": 2.8767284347,
				"z": -3.0785331407,
				"element": "H" 
			},
			{
				"x": -2.9820226191,
				"y": 0.3602204882,
				"z": -0.3886896433,
				"element": "H" 
			},
			{
				"x": -1.541994969,
				"y": -0.4093978769,
				"z": 1.4561883177,
				"element": "H" 
			}
		],
		 "valence_orbital": [ 
			{
				"type": "occ",
				"energy": -0.34112,
				"method": "rhf"
			},
			{
				"type": "occ",
				"energy": -0.3118,
				"method": "rhf"
			},
			{
				"type": "occ",
				"energy": -0.23972,
				"method": "rhf"
			},
			{
				"type": "occ",
				"energy": -0.23581,
				"method": "rhf"
			},
			{
				"type": "occ",
				"energy": -0.21013,
				"method": "rhf"
			},
			{
				"type": "unocc",
				"energy": 0.00662,
				"method": "rhf"
			},
			{
				"type": "unocc",
				"energy": 0.01027,
				"method": "rhf"
			},
			{
				"type": "unocc",
				"energy": 0.07622,
				"method": "rhf"
			},
			{
				"type": "unocc",
				"energy": 0.10163,
				"method": "rhf"
			},
			{
				"type": "unocc",
				"energy": 0.11679,
				"method": "rhf"
			}
		],
		"cosmo_sigma_profile": { 
			"-0.025": 0.0,
			"-0.024": 0.0,
			"-0.023": 0.0,
			"-0.022": 0.0,
			"-0.021": 0.0,
			"-0.02": 0.0,
			"-0.019": 0.0,
			"-0.018": 0.0,
			"-0.017": 0.0,
			"-0.016": 0.0,
			"-0.015": 0.0,
			"-0.014": 0.104368701438,
			"-0.013": 1.24764842184,
			"-0.012": 1.28108715118,
			"-0.011": 1.20629532395,
			"-0.01": 1.80926131669,
			"-0.009": 1.18248478576,
			"-0.008": 1.79553066706,
			"-0.007": 1.96637636918,
			"-0.006": 4.245645609,
			"-0.005": 11.1606352508,
			"-0.004": 16.1813632413,
			"-0.003": 17.5775382572,
			"-0.002": 17.7476138103,
			"-0.001": 14.8819083213,
			"0.0": 13.2102192237,
			"0.001": 11.1247924949,
			"0.002": 7.93765419278,
			"0.003": 7.84659791279,
			"0.004": 10.0921298454,
			"0.005": 13.2025416754,
			"0.006": 3.33937766921,
			"0.007": 2.58563201186,
			"0.008": 1.95213106554,
			"0.009": 2.06279102967,
			"0.01": 1.43926963403,
			"0.011": 1.09171578042,
			"0.012": 0.628519365996,
			"0.013": 1.53281062891,
			"0.014": 0.967871615416,
			"0.015": 0.597784888841,
			"0.016": 0.876814500683,
			"0.017": 0.828261169677,
			"0.018": 0.763537816721,
			"0.019": 0.114920564157,
			"0.02": 0.0,
			"0.021": 0.0,
			"0.022": 0.0,
			"0.023": 0.0,
			"0.024": 0.0,
			"0.025": 0.0
		}
	}
}
