{
	 "smiles": "OC(=O)C1=C(N=C(S1)C1=CC=CC=C1)C(F)F", 
	 "Tm": 453.15, 
	 "num_atms": 24, 
	 "gaussian": { 
		 "optdone": 1, 
		 "sigma_profile": "yes", 
		 "theory": "DFT", 
		 "functional": "B3LYP", 
		 "basiset": "6-31G**", 
		 "properties": { 
			 "R2extent": 5437.5194, 
			 "electric_dipole_moment_norm": 6.34916653664, 
			 "electric_quadrupole_moment_norm": 8.44541230906, 
			 "total_energy": -1226.44944724, 
			 "HOMO_LUMO_gap": 0.15588, 
			 "cosmo_polarized_energy": -15.58, 
			 "cosmo_cavitation_energy": 31.84, 
			 "cosmo_dispersion_energy": -23.38, 
			 "cosmo_repulsion_energy": 1.73, 
			 "cosmo_total_nonelectrostatic_energy": 10.19, 
			 "SMD_solvation_energy": 6.09 
		},
		"coords": [
			{
				"x": -3.1833440203,
				"y": 0.0728114829,
				"z": -2.0598230268,
				"element": "O" 
			},
			{
				"x": -2.9356793828,
				"y": -0.6692935227,
				"z": -0.9515957079,
				"element": "C" 
			},
			{
				"x": -3.6872884987,
				"y": -1.5689854822,
				"z": -0.6504710121,
				"element": "O" 
			},
			{
				"x": -1.7338803241,
				"y": -0.3143586658,
				"z": -0.1567155434,
				"element": "C" 
			},
			{
				"x": -1.1263038721,
				"y": -1.0612308493,
				"z": 0.8316226663,
				"element": "C" 
			},
			{
				"x": -0.0203274132,
				"y": -0.5087475805,
				"z": 1.4056154498,
				"element": "N" 
			},
			{
				"x": 0.2699776209,
				"y": 0.6649153306,
				"z": 0.9076403123,
				"element": "C" 
			},
			{
				"x": -0.8578132145,
				"y": 1.1878870403,
				"z": -0.3495138857,
				"element": "S" 
			},
			{
				"x": 1.3976641264,
				"y": 1.4912767678,
				"z": 1.3476945393,
				"element": "C" 
			},
			{
				"x": 2.2136684545,
				"y": 1.0167512829,
				"z": 2.3908821279,
				"element": "C" 
			},
			{
				"x": 3.2934385707,
				"y": 1.7751936063,
				"z": 2.832329261,
				"element": "C" 
			},
			{
				"x": 3.5743673024,
				"y": 3.0115945367,
				"z": 2.2444641277,
				"element": "C" 
			},
			{
				"x": 2.7682407117,
				"y": 3.4883867816,
				"z": 1.2079191615,
				"element": "C" 
			},
			{
				"x": 1.6870524163,
				"y": 2.7339146977,
				"z": 0.7606893062,
				"element": "C" 
			},
			{
				"x": -1.5536588082,
				"y": -2.426325364,
				"z": 1.3136617199,
				"element": "C" 
			},
			{
				"x": -1.7848179985,
				"y": -2.3641949311,
				"z": 2.6581689839,
				"element": "F" 
			},
			{
				"x": -0.5246640773,
				"y": -3.3038120337,
				"z": 1.1121195079,
				"element": "F" 
			},
			{
				"x": -2.4455008378,
				"y": 0.6629195293,
				"z": -2.2713275733,
				"element": "H" 
			},
			{
				"x": 1.9830371166,
				"y": 0.056338506,
				"z": 2.8378256962,
				"element": "H" 
			},
			{
				"x": 3.9176801598,
				"y": 1.4012228437,
				"z": 3.6381906459,
				"element": "H" 
			},
			{
				"x": 4.4175880303,
				"y": 3.6011172357,
				"z": 2.591816069,
				"element": "H" 
			},
			{
				"x": 2.9823184953,
				"y": 4.4477199014,
				"z": 0.7469415974,
				"element": "H" 
			},
			{
				"x": 1.0701155172,
				"y": 3.1156725076,
				"z": -0.0485012054,
				"element": "H" 
			},
			{
				"x": -2.4483700746,
				"y": -2.7926736212,
				"z": 0.8107667822,
				"element": "H" 
			}
		],
		 "valence_orbital": [ 
			{
				"type": "occ",
				"energy": -0.30381,
				"method": "rhf"
			},
			{
				"type": "occ",
				"energy": -0.30083,
				"method": "rhf"
			},
			{
				"type": "occ",
				"energy": -0.29171,
				"method": "rhf"
			},
			{
				"type": "occ",
				"energy": -0.27414,
				"method": "rhf"
			},
			{
				"type": "occ",
				"energy": -0.24966,
				"method": "rhf"
			},
			{
				"type": "unocc",
				"energy": -0.09378,
				"method": "rhf"
			},
			{
				"type": "unocc",
				"energy": -0.03891,
				"method": "rhf"
			},
			{
				"type": "unocc",
				"energy": -0.02504,
				"method": "rhf"
			},
			{
				"type": "unocc",
				"energy": -0.02225,
				"method": "rhf"
			},
			{
				"type": "unocc",
				"energy": 0.02594,
				"method": "rhf"
			}
		],
		"cosmo_sigma_profile": { 
			"-0.025": 0.0,
			"-0.024": 0.0,
			"-0.023": 0.0,
			"-0.022": 0.0,
			"-0.021": 0.0,
			"-0.02": 0.0,
			"-0.019": 0.352686717995,
			"-0.018": 0.668253259024,
			"-0.017": 0.680937849857,
			"-0.016": 1.41904533346,
			"-0.015": 0.745960900622,
			"-0.014": 0.79237337463,
			"-0.013": 1.66829566896,
			"-0.012": 1.2362991847,
			"-0.011": 0.578720266668,
			"-0.01": 0.412356276,
			"-0.009": 1.36900693512,
			"-0.008": 3.31556496008,
			"-0.007": 7.28595329294,
			"-0.006": 13.358009396,
			"-0.005": 17.7699751932,
			"-0.004": 15.4877551626,
			"-0.003": 15.7515652828,
			"-0.002": 19.6285098078,
			"-0.001": 18.709501065,
			"0.0": 14.2880238897,
			"0.001": 16.189692615,
			"0.002": 15.7970681222,
			"0.003": 19.6633881855,
			"0.004": 28.2625152336,
			"0.005": 12.459031957,
			"0.006": 5.54661841576,
			"0.007": 4.95980063937,
			"0.008": 5.72624039574,
			"0.009": 5.76474411437,
			"0.01": 4.67246487064,
			"0.011": 3.09356245662,
			"0.012": 1.3758752392,
			"0.013": 0.0221157196952,
			"0.014": 0.0,
			"0.015": 0.0,
			"0.016": 0.0,
			"0.017": 0.0,
			"0.018": 0.0,
			"0.019": 0.0,
			"0.02": 0.0,
			"0.021": 0.0,
			"0.022": 0.0,
			"0.023": 0.0,
			"0.024": 0.0,
			"0.025": 0.0
		}
	}
}
