{
	 "smiles": "CCOC(=O)NC1=CC2=NN(N=C2C=C1)C1CCCC1", 
	 "Tm": 395.15, 
	 "num_atms": 38, 
	 "gaussian": { 
		 "optdone": 1, 
		 "sigma_profile": "yes", 
		 "theory": "DFT", 
		 "functional": "B3LYP", 
		 "basiset": "6-31G**", 
		 "properties": { 
			 "R2extent": 8956.56, 
			 "electric_dipole_moment_norm": 2.42405656081, 
			 "electric_quadrupole_moment_norm": 10.4410208759, 
			 "total_energy": -913.798700315, 
			 "HOMO_LUMO_gap": 0.16543, 
			 "cosmo_polarized_energy": -13.74, 
			 "cosmo_cavitation_energy": 41.0, 
			 "cosmo_dispersion_energy": -29.66, 
			 "cosmo_repulsion_energy": 2.3, 
			 "cosmo_total_nonelectrostatic_energy": 13.64, 
			 "SMD_solvation_energy": 5.38 
		},
		"coords": [
			{
				"x": -0.9441522251,
				"y": 3.5893493509,
				"z": -3.7385641427,
				"element": "C" 
			},
			{
				"x": -0.9591109806,
				"y": 4.5361111939,
				"z": -2.5539272521,
				"element": "C" 
			},
			{
				"x": -0.590179928,
				"y": 3.7694754121,
				"z": -1.3825530357,
				"element": "O" 
			},
			{
				"x": -0.558037803,
				"y": 4.4718003853,
				"z": -0.2314110943,
				"element": "C" 
			},
			{
				"x": -0.8118210413,
				"y": 5.6598354664,
				"z": -0.1397179739,
				"element": "O" 
			},
			{
				"x": -0.2047430487,
				"y": 3.7149399944,
				"z": 0.8650303831,
				"element": "N" 
			},
			{
				"x": 0.1327728248,
				"y": 2.3576972082,
				"z": 1.0481993397,
				"element": "C" 
			},
			{
				"x": 0.1845724497,
				"y": 1.4123058059,
				"z": 0.0379763612,
				"element": "C" 
			},
			{
				"x": 0.5438923154,
				"y": 0.0986322739,
				"z": 0.4133313743,
				"element": "C" 
			},
			{
				"x": 0.673406978,
				"y": -1.0123645885,
				"z": -0.3504028808,
				"element": "N" 
			},
			{
				"x": 1.0241389096,
				"y": -1.9427093569,
				"z": 0.5363906918,
				"element": "N" 
			},
			{
				"x": 1.1456522801,
				"y": -1.5705085467,
				"z": 1.8042643798,
				"element": "N" 
			},
			{
				"x": 0.8406389951,
				"y": -0.2529859213,
				"z": 1.7600729445,
				"element": "C" 
			},
			{
				"x": 0.7831679958,
				"y": 0.7229644378,
				"z": 2.7796417435,
				"element": "C" 
			},
			{
				"x": 0.4337680764,
				"y": 1.998326405,
				"z": 2.4077803193,
				"element": "C" 
			},
			{
				"x": 1.2957762445,
				"y": -3.3214980894,
				"z": 0.112332014,
				"element": "C" 
			},
			{
				"x": 0.3831863334,
				"y": -4.3447182234,
				"z": 0.8494118709,
				"element": "C" 
			},
			{
				"x": 1.322278249,
				"y": -5.4822645135,
				"z": 1.294009587,
				"element": "C" 
			},
			{
				"x": 2.646291157,
				"y": -4.7580535787,
				"z": 1.5854553278,
				"element": "C" 
			},
			{
				"x": 2.7580339062,
				"y": -3.7562475127,
				"z": 0.4236197769,
				"element": "C" 
			},
			{
				"x": -1.2190117103,
				"y": 4.1332620571,
				"z": -4.647614967,
				"element": "H" 
			},
			{
				"x": 0.0504293621,
				"y": 3.1580153783,
				"z": -3.8843754223,
				"element": "H" 
			},
			{
				"x": -1.6583857298,
				"y": 2.7728801374,
				"z": -3.5980707218,
				"element": "H" 
			},
			{
				"x": -1.9475295007,
				"y": 4.9752490613,
				"z": -2.3898254102,
				"element": "H" 
			},
			{
				"x": -0.2475745566,
				"y": 5.3582805641,
				"z": -2.6745294859,
				"element": "H" 
			},
			{
				"x": -0.1970843775,
				"y": 4.2877994308,
				"z": 1.6966000067,
				"element": "H" 
			},
			{
				"x": -0.036897463,
				"y": 1.6584711174,
				"z": -0.988628271,
				"element": "H" 
			},
			{
				"x": 1.0056097074,
				"y": 0.4751778783,
				"z": 3.8118466343,
				"element": "H" 
			},
			{
				"x": 0.3794489489,
				"y": 2.7757270551,
				"z": 3.1661683639,
				"element": "H" 
			},
			{
				"x": 1.1063415967,
				"y": -3.2996195577,
				"z": -0.960730714,
				"element": "H" 
			},
			{
				"x": -0.0462788036,
				"y": -3.8545393158,
				"z": 1.7274419321,
				"element": "H" 
			},
			{
				"x": -0.4431816301,
				"y": -4.6823004193,
				"z": 0.2177793345,
				"element": "H" 
			},
			{
				"x": 1.4625712183,
				"y": -6.2041720653,
				"z": 0.4790904518,
				"element": "H" 
			},
			{
				"x": 0.9297007865,
				"y": -6.0339196372,
				"z": 2.1536189508,
				"element": "H" 
			},
			{
				"x": 2.5727344525,
				"y": -4.2165317355,
				"z": 2.5352191048,
				"element": "H" 
			},
			{
				"x": 3.5061052166,
				"y": -5.4322106347,
				"z": 1.6476054781,
				"element": "H" 
			},
			{
				"x": 3.1671822055,
				"y": -4.2545272761,
				"z": -0.462626927,
				"element": "H" 
			},
			{
				"x": 3.3966885889,
				"y": -2.8975296408,
				"z": 0.6425919279,
				"element": "H" 
			}
		],
		 "valence_orbital": [ 
			{
				"type": "occ",
				"energy": -0.29074,
				"method": "rhf"
			},
			{
				"type": "occ",
				"energy": -0.28961,
				"method": "rhf"
			},
			{
				"type": "occ",
				"energy": -0.27649,
				"method": "rhf"
			},
			{
				"type": "occ",
				"energy": -0.23687,
				"method": "rhf"
			},
			{
				"type": "occ",
				"energy": -0.20933,
				"method": "rhf"
			},
			{
				"type": "unocc",
				"energy": -0.0439,
				"method": "rhf"
			},
			{
				"type": "unocc",
				"energy": 0.01601,
				"method": "rhf"
			},
			{
				"type": "unocc",
				"energy": 0.03346,
				"method": "rhf"
			},
			{
				"type": "unocc",
				"energy": 0.07121,
				"method": "rhf"
			},
			{
				"type": "unocc",
				"energy": 0.07557,
				"method": "rhf"
			}
		],
		"cosmo_sigma_profile": { 
			"-0.025": 0.0,
			"-0.024": 0.0,
			"-0.023": 0.0,
			"-0.022": 0.0,
			"-0.021": 0.0,
			"-0.02": 0.0,
			"-0.019": 0.0,
			"-0.018": 0.0,
			"-0.017": 0.0,
			"-0.016": 0.0553027473044,
			"-0.015": 0.756325578003,
			"-0.014": 1.57689217836,
			"-0.013": 1.13420299731,
			"-0.012": 0.555210397973,
			"-0.011": 1.3330397654,
			"-0.01": 1.08417115525,
			"-0.009": 1.23293398889,
			"-0.008": 1.70963358939,
			"-0.007": 3.64706285828,
			"-0.006": 6.06454650085,
			"-0.005": 13.3068281994,
			"-0.004": 26.3500760372,
			"-0.003": 33.7716981883,
			"-0.002": 35.9562728909,
			"-0.001": 37.3845061481,
			"0.0": 37.5932443223,
			"0.001": 25.5055355297,
			"0.002": 19.3956616865,
			"0.003": 22.400616697,
			"0.004": 12.6659015968,
			"0.005": 5.54620171334,
			"0.006": 5.30329766159,
			"0.007": 2.61755841983,
			"0.008": 4.39390657266,
			"0.009": 3.43355304348,
			"0.01": 3.35995199733,
			"0.011": 3.50141120823,
			"0.012": 5.03868605222,
			"0.013": 5.82940971465,
			"0.014": 1.04439705288,
			"0.015": 0.0466187026006,
			"0.016": 0.0,
			"0.017": 0.0,
			"0.018": 0.0,
			"0.019": 0.0,
			"0.02": 0.0,
			"0.021": 0.0,
			"0.022": 0.0,
			"0.023": 0.0,
			"0.024": 0.0,
			"0.025": 0.0
		}
	}
}
