{
	 "smiles": "CCOC(=O)C1=CC=C(O1)[N+]([O-])=O", 
	 "Tm": 373.15, 
	 "num_atms": 20, 
	 "gaussian": { 
		 "optdone": 1, 
		 "sigma_profile": "yes", 
		 "theory": "DFT", 
		 "functional": "B3LYP", 
		 "basiset": "6-31G**", 
		 "properties": { 
			 "R2extent": 4957.18, 
			 "electric_dipole_moment_norm": 3.38160766204, 
			 "electric_quadrupole_moment_norm": 26.9375581933, 
			 "total_energy": -701.708890226, 
			 "HOMO_LUMO_gap": 0.16951, 
			 "cosmo_polarized_energy": -11.76, 
			 "cosmo_cavitation_energy": 26.65, 
			 "cosmo_dispersion_energy": -19.12, 
			 "cosmo_repulsion_energy": 1.55, 
			 "cosmo_total_nonelectrostatic_energy": 9.08, 
			 "SMD_solvation_energy": 9.08 
		},
		"coords": [
			{
				"x": -3.0030707247,
				"y": -0.0119085135,
				"z": -0.0416777163,
				"element": "C" 
			},
			{
				"x": -2.6137090202,
				"y": 1.3080386613,
				"z": 0.6049097987,
				"element": "C" 
			},
			{
				"x": -1.3404728244,
				"y": 1.7859598083,
				"z": 0.0939072888,
				"element": "O" 
			},
			{
				"x": -0.2411930606,
				"y": 1.3172625917,
				"z": 0.6988878063,
				"element": "C" 
			},
			{
				"x": -0.2132387552,
				"y": 0.5400302538,
				"z": 1.6334285843,
				"element": "O" 
			},
			{
				"x": 0.9971543681,
				"y": 1.8578675098,
				"z": 0.1060932981,
				"element": "C" 
			},
			{
				"x": 2.3047497251,
				"y": 1.618441473,
				"z": 0.4542234126,
				"element": "C" 
			},
			{
				"x": 3.1035636343,
				"y": 2.3869232545,
				"z": -0.4319495701,
				"element": "C" 
			},
			{
				"x": 2.2088554953,
				"y": 3.0289577152,
				"z": -1.2457906041,
				"element": "C" 
			},
			{
				"x": 0.9320191966,
				"y": 2.7272501864,
				"z": -0.9422908867,
				"element": "O" 
			},
			{
				"x": 2.4348505407,
				"y": 3.9393916591,
				"z": -2.3313751253,
				"element": "N" 
			},
			{
				"x": 3.6178080458,
				"y": 4.1899107968,
				"z": -2.5763763787,
				"element": "O" 
			},
			{
				"x": 1.4558293652,
				"y": 4.3891775494,
				"z": -2.920235977,
				"element": "O" 
			},
			{
				"x": -3.999706093,
				"y": -0.3087352958,
				"z": 0.3010817192,
				"element": "H" 
			},
			{
				"x": -3.0273850447,
				"y": 0.0800631582,
				"z": -1.1311448292,
				"element": "H" 
			},
			{
				"x": -2.2982810647,
				"y": -0.8003105879,
				"z": 0.2337863702,
				"element": "H" 
			},
			{
				"x": -2.5411178847,
				"y": 1.2143702253,
				"z": 1.6908045144,
				"element": "H" 
			},
			{
				"x": -3.3156654575,
				"y": 2.1050296901,
				"z": 0.3520083522,
				"element": "H" 
			},
			{
				"x": 2.6287200512,
				"y": 0.9672790556,
				"z": 1.2520545613,
				"element": "H" 
			},
			{
				"x": 4.1778895073,
				"y": 2.4691008088,
				"z": -0.4807446189,
				"element": "H" 
			}
		],
		 "valence_orbital": [ 
			{
				"type": "occ",
				"energy": -0.31694,
				"method": "rhf"
			},
			{
				"type": "occ",
				"energy": -0.31429,
				"method": "rhf"
			},
			{
				"type": "occ",
				"energy": -0.30301,
				"method": "rhf"
			},
			{
				"type": "occ",
				"energy": -0.29753,
				"method": "rhf"
			},
			{
				"type": "occ",
				"energy": -0.27629,
				"method": "rhf"
			},
			{
				"type": "unocc",
				"energy": -0.10678,
				"method": "rhf"
			},
			{
				"type": "unocc",
				"energy": -0.04517,
				"method": "rhf"
			},
			{
				"type": "unocc",
				"energy": 0.0371,
				"method": "rhf"
			},
			{
				"type": "unocc",
				"energy": 0.08099,
				"method": "rhf"
			},
			{
				"type": "unocc",
				"energy": 0.08841,
				"method": "rhf"
			}
		],
		"cosmo_sigma_profile": { 
			"-0.025": 0.0,
			"-0.024": 0.0,
			"-0.023": 0.0,
			"-0.022": 0.0,
			"-0.021": 0.0,
			"-0.02": 0.0,
			"-0.019": 0.0,
			"-0.018": 0.0,
			"-0.017": 0.0,
			"-0.016": 0.0,
			"-0.015": 0.0,
			"-0.014": 0.0,
			"-0.013": 0.0,
			"-0.012": 0.0,
			"-0.011": 0.557626056201,
			"-0.01": 2.07763623774,
			"-0.009": 3.04134571555,
			"-0.008": 4.78409624436,
			"-0.007": 5.48134746171,
			"-0.006": 7.86215031997,
			"-0.005": 14.6120708058,
			"-0.004": 23.7536943863,
			"-0.003": 20.6358269378,
			"-0.002": 19.8291330405,
			"-0.001": 19.7661131008,
			"0.0": 13.2698735124,
			"0.001": 6.99611123665,
			"0.002": 5.6012866589,
			"0.003": 5.66334082355,
			"0.004": 5.27606738621,
			"0.005": 5.79742985265,
			"0.006": 7.40179617735,
			"0.007": 14.9514060408,
			"0.008": 11.4805150013,
			"0.009": 6.53740126088,
			"0.01": 3.19020760565,
			"0.011": 4.3218544097,
			"0.012": 0.34558952016,
			"0.013": 0.0,
			"0.014": 0.0,
			"0.015": 0.0,
			"0.016": 0.0,
			"0.017": 0.0,
			"0.018": 0.0,
			"0.019": 0.0,
			"0.02": 0.0,
			"0.021": 0.0,
			"0.022": 0.0,
			"0.023": 0.0,
			"0.024": 0.0,
			"0.025": 0.0
		}
	}
}
