{
	 "smiles": "CC1=C(C)C2=C(S1)N=C(CCl)N=C2Cl", 
	 "Tm": 416.15, 
	 "num_atms": 22, 
	 "gaussian": { 
		 "optdone": 1, 
		 "sigma_profile": "yes", 
		 "theory": "DFT", 
		 "functional": "B3LYP", 
		 "basiset": "6-31G**", 
		 "properties": { 
			 "R2extent": 4716.3716, 
			 "electric_dipole_moment_norm": 4.95122159169, 
			 "electric_quadrupole_moment_norm": 7.70329290434, 
			 "total_energy": -1775.86823825, 
			 "HOMO_LUMO_gap": 0.17262, 
			 "cosmo_polarized_energy": -8.87, 
			 "cosmo_cavitation_energy": 30.97, 
			 "cosmo_dispersion_energy": -23.35, 
			 "cosmo_repulsion_energy": 1.81, 
			 "cosmo_total_nonelectrostatic_energy": 9.43, 
			 "SMD_solvation_energy": 1.19 
		},
		"coords": [
			{
				"x": -0.1819632982,
				"y": 3.5922077694,
				"z": 0.6675549655,
				"element": "C" 
			},
			{
				"x": -0.1730555845,
				"y": 2.1844919257,
				"z": 0.1380251389,
				"element": "C" 
			},
			{
				"x": 0.9099910032,
				"y": 1.3691106358,
				"z": -0.0616091526,
				"element": "C" 
			},
			{
				"x": 2.3236324531,
				"y": 1.7933729539,
				"z": 0.2386865753,
				"element": "C" 
			},
			{
				"x": 0.511343636,
				"y": 0.0794887788,
				"z": -0.5831905794,
				"element": "C" 
			},
			{
				"x": -0.8951321032,
				"y": -0.0330117209,
				"z": -0.7592670876,
				"element": "C" 
			},
			{
				"x": -1.7090221504,
				"y": 1.4375625325,
				"z": -0.29131715,
				"element": "S" 
			},
			{
				"x": -1.5398424454,
				"y": -1.1016067583,
				"z": -1.2198698179,
				"element": "N" 
			},
			{
				"x": -0.7588653329,
				"y": -2.1361399428,
				"z": -1.5284908059,
				"element": "C" 
			},
			{
				"x": -1.4266877048,
				"y": -3.3824419386,
				"z": -2.0330847074,
				"element": "C" 
			},
			{
				"x": -1.7670964641,
				"y": -4.5416419332,
				"z": -0.6661730865,
				"element": "Cl" 
			},
			{
				"x": 0.584531351,
				"y": -2.165664555,
				"z": -1.4237523712,
				"element": "N" 
			},
			{
				"x": 1.1925404424,
				"y": -1.0928581753,
				"z": -0.9672773939,
				"element": "C" 
			},
			{
				"x": 2.9463332088,
				"y": -1.2011209707,
				"z": -0.8699593651,
				"element": "Cl" 
			},
			{
				"x": 0.4119916288,
				"y": 4.2581041878,
				"z": 0.0322165049,
				"element": "H" 
			},
			{
				"x": 0.2356414406,
				"y": 3.6372607252,
				"z": 1.6792852766,
				"element": "H" 
			},
			{
				"x": -1.1958409025,
				"y": 3.9970956701,
				"z": 0.7117588751,
				"element": "H" 
			},
			{
				"x": 2.9500771686,
				"y": 1.7681437824,
				"z": -0.6580672054,
				"element": "H" 
			},
			{
				"x": 2.7927193078,
				"y": 1.1332407892,
				"z": 0.9743628226,
				"element": "H" 
			},
			{
				"x": 2.3462927945,
				"y": 2.810026656,
				"z": 0.6363581237,
				"element": "H" 
			},
			{
				"x": -2.3889576964,
				"y": -3.144980307,
				"z": -2.4826722263,
				"element": "H" 
			},
			{
				"x": -0.7795307524,
				"y": -3.913540105,
				"z": -2.7289173334,
				"element": "H" 
			}
		],
		 "valence_orbital": [ 
			{
				"type": "occ",
				"energy": -0.29585,
				"method": "rhf"
			},
			{
				"type": "occ",
				"energy": -0.29332,
				"method": "rhf"
			},
			{
				"type": "occ",
				"energy": -0.27549,
				"method": "rhf"
			},
			{
				"type": "occ",
				"energy": -0.27411,
				"method": "rhf"
			},
			{
				"type": "occ",
				"energy": -0.23771,
				"method": "rhf"
			},
			{
				"type": "unocc",
				"energy": -0.06509,
				"method": "rhf"
			},
			{
				"type": "unocc",
				"energy": -0.04767,
				"method": "rhf"
			},
			{
				"type": "unocc",
				"energy": -0.0043,
				"method": "rhf"
			},
			{
				"type": "unocc",
				"energy": 0.00461,
				"method": "rhf"
			},
			{
				"type": "unocc",
				"energy": 0.03135,
				"method": "rhf"
			}
		],
		"cosmo_sigma_profile": { 
			"-0.025": 0.0,
			"-0.024": 0.0,
			"-0.023": 0.0,
			"-0.022": 0.0,
			"-0.021": 0.0,
			"-0.02": 0.0,
			"-0.019": 0.0,
			"-0.018": 0.0,
			"-0.017": 0.0,
			"-0.016": 0.0,
			"-0.015": 0.0,
			"-0.014": 0.0,
			"-0.013": 0.0,
			"-0.012": 0.0,
			"-0.011": 0.0,
			"-0.01": 0.0,
			"-0.009": 0.327562982055,
			"-0.008": 2.91746642626,
			"-0.007": 4.26554958535,
			"-0.006": 7.85925046574,
			"-0.005": 15.3944175246,
			"-0.004": 18.8220567671,
			"-0.003": 21.5098578354,
			"-0.002": 25.6998320579,
			"-0.001": 28.6554316575,
			"0.0": 24.0928256579,
			"0.001": 22.9601820577,
			"0.002": 16.8301744876,
			"0.003": 15.2148670839,
			"0.004": 13.5231687235,
			"0.005": 11.7336262397,
			"0.006": 13.0006852266,
			"0.007": 3.13587766743,
			"0.008": 2.36446629107,
			"0.009": 1.60635185856,
			"0.01": 1.25523216167,
			"0.011": 1.77566205373,
			"0.012": 1.21902042936,
			"0.013": 0.140330531645,
			"0.014": 0.0,
			"0.015": 0.0,
			"0.016": 0.0,
			"0.017": 0.0,
			"0.018": 0.0,
			"0.019": 0.0,
			"0.02": 0.0,
			"0.021": 0.0,
			"0.022": 0.0,
			"0.023": 0.0,
			"0.024": 0.0,
			"0.025": 0.0
		}
	}
}
