{
	 "smiles": "OCC1CCN(CC2=CC=C(C=C2)C(O)=O)CC1", 
	 "Tm": 493.15, 
	 "num_atms": 37, 
	 "gaussian": { 
		 "optdone": 1, 
		 "sigma_profile": "yes", 
		 "theory": "DFT", 
		 "functional": "B3LYP", 
		 "basiset": "6-31G**", 
		 "properties": { 
			 "R2extent": 7671.0569, 
			 "electric_dipole_moment_norm": 6.43869532825, 
			 "electric_quadrupole_moment_norm": 26.1245681924, 
			 "total_energy": -825.366236915, 
			 "HOMO_LUMO_gap": 0.17771, 
			 "cosmo_polarized_energy": -19.16, 
			 "cosmo_cavitation_energy": 38.33, 
			 "cosmo_dispersion_energy": -27.28, 
			 "cosmo_repulsion_energy": 2.11, 
			 "cosmo_total_nonelectrostatic_energy": 13.16, 
			 "SMD_solvation_energy": 5.73 
		},
		"coords": [
			{
				"x": 1.711342198,
				"y": 4.8777406653,
				"z": -0.7352454125,
				"element": "O" 
			},
			{
				"x": 0.6821671759,
				"y": 4.2133656533,
				"z": -1.4578945302,
				"element": "C" 
			},
			{
				"x": -0.3218162957,
				"y": 3.4873598216,
				"z": -0.5454663742,
				"element": "C" 
			},
			{
				"x": -1.4492947054,
				"y": 2.8059151223,
				"z": -1.3461914525,
				"element": "C" 
			},
			{
				"x": -0.9964838922,
				"y": 1.5023637,
				"z": -2.0150062113,
				"element": "C" 
			},
			{
				"x": -0.436468424,
				"y": 0.5775807756,
				"z": -1.0267699844,
				"element": "N" 
			},
			{
				"x": -0.1340240637,
				"y": -0.7273506282,
				"z": -1.6065638299,
				"element": "C" 
			},
			{
				"x": 0.0472925137,
				"y": -1.8200689955,
				"z": -0.5681098251,
				"element": "C" 
			},
			{
				"x": 0.9996543619,
				"y": -2.831216448,
				"z": -0.7512976433,
				"element": "C" 
			},
			{
				"x": 1.1308118203,
				"y": -3.8653809652,
				"z": 0.1706987937,
				"element": "C" 
			},
			{
				"x": 0.3013291685,
				"y": -3.9174704127,
				"z": 1.2982515152,
				"element": "C" 
			},
			{
				"x": -0.6396223701,
				"y": -2.8953580072,
				"z": 1.4958095213,
				"element": "C" 
			},
			{
				"x": -0.7649593883,
				"y": -1.8603589131,
				"z": 0.5728202748,
				"element": "C" 
			},
			{
				"x": 0.4967898238,
				"y": -5.0524647216,
				"z": 2.2561569199,
				"element": "C" 
			},
			{
				"x": -0.5312668984,
				"y": -5.3192485484,
				"z": 3.1080135794,
				"element": "O" 
			},
			{
				"x": 1.5016932464,
				"y": -5.7232665952,
				"z": 2.2986550792,
				"element": "O" 
			},
			{
				"x": 0.7320397028,
				"y": 1.1674421935,
				"z": -0.3604989842,
				"element": "C" 
			},
			{
				"x": 0.3567968715,
				"y": 2.4562851745,
				"z": 0.3767256118,
				"element": "C" 
			},
			{
				"x": 1.2923135378,
				"y": 5.5402238222,
				"z": -0.1700477929,
				"element": "H" 
			},
			{
				"x": 0.1356485739,
				"y": 4.9154489039,
				"z": -2.1091088761,
				"element": "H" 
			},
			{
				"x": 1.2016633524,
				"y": 3.5093866852,
				"z": -2.1151933102,
				"element": "H" 
			},
			{
				"x": -0.7804227217,
				"y": 4.2632617099,
				"z": 0.0873017405,
				"element": "H" 
			},
			{
				"x": -1.8488503696,
				"y": 3.4862080571,
				"z": -2.1091432035,
				"element": "H" 
			},
			{
				"x": -2.2737423044,
				"y": 2.5678977153,
				"z": -0.6640346878,
				"element": "H" 
			},
			{
				"x": -1.8579592867,
				"y": 1.0196048459,
				"z": -2.4910592695,
				"element": "H" 
			},
			{
				"x": -0.2697042669,
				"y": 1.7186198231,
				"z": -2.8238169425,
				"element": "H" 
			},
			{
				"x": 0.7568427958,
				"y": -0.6986829027,
				"z": -2.263994462,
				"element": "H" 
			},
			{
				"x": -0.9783589712,
				"y": -1.004460646,
				"z": -2.2526015708,
				"element": "H" 
			},
			{
				"x": 1.6482585558,
				"y": -2.8035612622,
				"z": -1.6233475617,
				"element": "H" 
			},
			{
				"x": 1.8749341834,
				"y": -4.6438637432,
				"z": 0.0407765818,
				"element": "H" 
			},
			{
				"x": -1.2575320647,
				"y": -2.8729659363,
				"z": 2.3911044804,
				"element": "H" 
			},
			{
				"x": -1.4776705047,
				"y": -1.0578271063,
				"z": 0.7326713907,
				"element": "H" 
			},
			{
				"x": -1.3147924016,
				"y": -4.8140922718,
				"z": 2.8509846479,
				"element": "H" 
			},
			{
				"x": 1.5416656792,
				"y": 1.3633959614,
				"z": -1.0915441757,
				"element": "H" 
			},
			{
				"x": 1.1271234766,
				"y": 0.439173253,
				"z": 0.3543779281,
				"element": "H" 
			},
			{
				"x": -0.3281279989,
				"y": 2.1994860543,
				"z": 1.1936116005,
				"element": "H" 
			},
			{
				"x": 1.2544298906,
				"y": 2.8977781662,
				"z": 0.8210764349,
				"element": "H" 
			}
		],
		 "valence_orbital": [ 
			{
				"type": "occ",
				"energy": -0.27115,
				"method": "rhf"
			},
			{
				"type": "occ",
				"energy": -0.26947,
				"method": "rhf"
			},
			{
				"type": "occ",
				"energy": -0.26679,
				"method": "rhf"
			},
			{
				"type": "occ",
				"energy": -0.25592,
				"method": "rhf"
			},
			{
				"type": "occ",
				"energy": -0.22484,
				"method": "rhf"
			},
			{
				"type": "unocc",
				"energy": -0.04713,
				"method": "rhf"
			},
			{
				"type": "unocc",
				"energy": -0.01833,
				"method": "rhf"
			},
			{
				"type": "unocc",
				"energy": 0.04814,
				"method": "rhf"
			},
			{
				"type": "unocc",
				"energy": 0.06468,
				"method": "rhf"
			},
			{
				"type": "unocc",
				"energy": 0.06705,
				"method": "rhf"
			}
		],
		"cosmo_sigma_profile": { 
			"-0.025": 0.0,
			"-0.024": 0.0,
			"-0.023": 0.0,
			"-0.022": 0.0,
			"-0.021": 0.0,
			"-0.02": 0.0,
			"-0.019": 0.0124262682327,
			"-0.018": 0.584259056399,
			"-0.017": 1.00474319443,
			"-0.016": 0.773356895894,
			"-0.015": 2.06967077281,
			"-0.014": 1.76575450857,
			"-0.013": 2.11041592857,
			"-0.012": 2.08624809567,
			"-0.011": 1.94592123955,
			"-0.01": 1.79489703813,
			"-0.009": 2.22371786001,
			"-0.008": 2.11794580691,
			"-0.007": 3.41386079574,
			"-0.006": 6.18146435632,
			"-0.005": 12.5033430605,
			"-0.004": 14.8403039583,
			"-0.003": 29.11537213,
			"-0.002": 37.4419289759,
			"-0.001": 39.4738256335,
			"0.0": 29.7893672234,
			"0.001": 18.8359793915,
			"0.002": 13.0103188048,
			"0.003": 15.6857084548,
			"0.004": 10.7840311131,
			"0.005": 4.21849311831,
			"0.006": 4.70715860233,
			"0.007": 5.10675597675,
			"0.008": 4.69253079829,
			"0.009": 4.33970573417,
			"0.01": 6.63869144882,
			"0.011": 6.53053937461,
			"0.012": 6.9131640513,
			"0.013": 3.23900030032,
			"0.014": 2.14165969759,
			"0.015": 1.1497340664,
			"0.016": 0.0,
			"0.017": 0.0,
			"0.018": 0.0,
			"0.019": 0.0,
			"0.02": 0.0,
			"0.021": 0.0,
			"0.022": 0.0,
			"0.023": 0.0,
			"0.024": 0.0,
			"0.025": 0.0
		}
	}
}
