{
	 "smiles": "CCOC(=O)C1=C(N)C=CC(=C1)N1CCNC(=O)C1", 
	 "Tm": 400.15, 
	 "num_atms": 36, 
	 "gaussian": { 
		 "optdone": 1, 
		 "sigma_profile": "yes", 
		 "theory": "DFT", 
		 "functional": "B3LYP", 
		 "basiset": "6-31G**", 
		 "properties": { 
			 "R2extent": 7396.8248, 
			 "electric_dipole_moment_norm": 4.34939107117, 
			 "electric_quadrupole_moment_norm": 21.2732823365, 
			 "total_energy": -895.581290697, 
			 "HOMO_LUMO_gap": 0.14376, 
			 "cosmo_polarized_energy": -19.92, 
			 "cosmo_cavitation_energy": 38.18, 
			 "cosmo_dispersion_energy": -27.55, 
			 "cosmo_repulsion_energy": 2.14, 
			 "cosmo_total_nonelectrostatic_energy": 12.77, 
			 "SMD_solvation_energy": 5.24 
		},
		"coords": [
			{
				"x": -0.914537537,
				"y": -4.5433745255,
				"z": 2.0029633173,
				"element": "C" 
			},
			{
				"x": -0.5527265957,
				"y": -3.2717412346,
				"z": 2.7550369158,
				"element": "C" 
			},
			{
				"x": -0.6882348311,
				"y": -2.1013888587,
				"z": 1.911220883,
				"element": "O" 
			},
			{
				"x": 0.3785103675,
				"y": -1.8018195992,
				"z": 1.1120363094,
				"element": "C" 
			},
			{
				"x": 1.3962198823,
				"y": -2.4705258234,
				"z": 1.1275371578,
				"element": "O" 
			},
			{
				"x": 0.1795936752,
				"y": -0.5987267346,
				"z": 0.2639976735,
				"element": "C" 
			},
			{
				"x": -1.0104060278,
				"y": 0.1786472093,
				"z": 0.1838602712,
				"element": "C" 
			},
			{
				"x": -2.1827176302,
				"y": -0.130894874,
				"z": 0.8428025417,
				"element": "N" 
			},
			{
				"x": -0.9856850465,
				"y": 1.3014979845,
				"z": -0.6684457096,
				"element": "C" 
			},
			{
				"x": 0.1374926474,
				"y": 1.6539085181,
				"z": -1.4010903252,
				"element": "C" 
			},
			{
				"x": 1.3106450613,
				"y": 0.8745790997,
				"z": -1.3484672835,
				"element": "C" 
			},
			{
				"x": 1.29303156,
				"y": -0.2437363138,
				"z": -0.5175395685,
				"element": "C" 
			},
			{
				"x": 2.4788879793,
				"y": 1.1534349205,
				"z": -2.1199512182,
				"element": "N" 
			},
			{
				"x": 3.7057965376,
				"y": 1.4134565756,
				"z": -1.3598909076,
				"element": "C" 
			},
			{
				"x": 3.6639545988,
				"y": 2.7867623399,
				"z": -0.6797106952,
				"element": "C" 
			},
			{
				"x": 3.245295374,
				"y": 3.81068986,
				"z": -1.6370573889,
				"element": "N" 
			},
			{
				"x": 2.5020030535,
				"y": 3.599738275,
				"z": -2.7676621852,
				"element": "C" 
			},
			{
				"x": 2.0389869764,
				"y": 4.5182393,
				"z": -3.4322660443,
				"element": "O" 
			},
			{
				"x": 2.3559209773,
				"y": 2.1333987731,
				"z": -3.1933066848,
				"element": "C" 
			},
			{
				"x": -0.2080253637,
				"y": -4.7193943235,
				"z": 1.1887424887,
				"element": "H" 
			},
			{
				"x": -1.9250939431,
				"y": -4.4789296222,
				"z": 1.5887900584,
				"element": "H" 
			},
			{
				"x": -0.8757383073,
				"y": -5.4001317999,
				"z": 2.6841012783,
				"element": "H" 
			},
			{
				"x": -1.2391552904,
				"y": -3.0870766435,
				"z": 3.5852691621,
				"element": "H" 
			},
			{
				"x": 0.4711406195,
				"y": -3.3132218441,
				"z": 3.1319761465,
				"element": "H" 
			},
			{
				"x": -2.1175986383,
				"y": -0.7845059359,
				"z": 1.6072370631,
				"element": "H" 
			},
			{
				"x": -2.8487604338,
				"y": 0.6185858821,
				"z": 0.9485667057,
				"element": "H" 
			},
			{
				"x": -1.8811530026,
				"y": 1.9134025446,
				"z": -0.7456565084,
				"element": "H" 
			},
			{
				"x": 0.0913019146,
				"y": 2.5461610805,
				"z": -2.0167822423,
				"element": "H" 
			},
			{
				"x": 2.1592630551,
				"y": -0.8927805175,
				"z": -0.4551195514,
				"element": "H" 
			},
			{
				"x": 4.5503818191,
				"y": 1.3659341943,
				"z": -2.0578201948,
				"element": "H" 
			},
			{
				"x": 3.8566751327,
				"y": 0.6373187653,
				"z": -0.607146748,
				"element": "H" 
			},
			{
				"x": 4.6547480911,
				"y": 3.0431546634,
				"z": -0.2857375867,
				"element": "H" 
			},
			{
				"x": 2.9675936165,
				"y": 2.7499145706,
				"z": 0.170277185,
				"element": "H" 
			},
			{
				"x": 3.2883458756,
				"y": 4.7820245505,
				"z": -1.3543713322,
				"element": "H" 
			},
			{
				"x": 3.1462512756,
				"y": 1.9382389732,
				"z": -3.9315880691,
				"element": "H" 
			},
			{
				"x": 1.405492557,
				"y": 2.0228605704,
				"z": -3.7165049138,
				"element": "H" 
			}
		],
		 "valence_orbital": [ 
			{
				"type": "occ",
				"energy": -0.26809,
				"method": "rhf"
			},
			{
				"type": "occ",
				"energy": -0.25345,
				"method": "rhf"
			},
			{
				"type": "occ",
				"energy": -0.24844,
				"method": "rhf"
			},
			{
				"type": "occ",
				"energy": -0.23057,
				"method": "rhf"
			},
			{
				"type": "occ",
				"energy": -0.182,
				"method": "rhf"
			},
			{
				"type": "unocc",
				"energy": -0.03824,
				"method": "rhf"
			},
			{
				"type": "unocc",
				"energy": 0.01204,
				"method": "rhf"
			},
			{
				"type": "unocc",
				"energy": 0.0297,
				"method": "rhf"
			},
			{
				"type": "unocc",
				"energy": 0.06254,
				"method": "rhf"
			},
			{
				"type": "unocc",
				"energy": 0.08153,
				"method": "rhf"
			}
		],
		"cosmo_sigma_profile": { 
			"-0.025": 0.0,
			"-0.024": 0.0,
			"-0.023": 0.0,
			"-0.022": 0.0,
			"-0.021": 0.0,
			"-0.02": 0.0,
			"-0.019": 0.0,
			"-0.018": 0.0,
			"-0.017": 0.0,
			"-0.016": 0.0,
			"-0.015": 0.0,
			"-0.014": 0.386553245884,
			"-0.013": 1.87050199272,
			"-0.012": 2.44448927259,
			"-0.011": 2.29117698583,
			"-0.01": 2.5215470165,
			"-0.009": 3.57744803852,
			"-0.008": 3.13810550841,
			"-0.007": 4.80298854471,
			"-0.006": 14.9002763685,
			"-0.005": 25.0598892702,
			"-0.004": 28.3056710772,
			"-0.003": 31.0328626926,
			"-0.002": 22.3387947958,
			"-0.001": 19.6294837494,
			"0.0": 23.4088015372,
			"0.001": 15.4368153609,
			"0.002": 13.4141842539,
			"0.003": 11.7932462287,
			"0.004": 15.248330646,
			"0.005": 13.1721493721,
			"0.006": 5.53290687701,
			"0.007": 4.40217745059,
			"0.008": 4.49128260376,
			"0.009": 3.30520681971,
			"0.01": 4.68135297114,
			"0.011": 5.01175842277,
			"0.012": 5.52177303124,
			"0.013": 4.50280843673,
			"0.014": 6.11360991253,
			"0.015": 2.27203284384,
			"0.016": 0.0737900068414,
			"0.017": 0.0,
			"0.018": 0.0,
			"0.019": 0.0,
			"0.02": 0.0,
			"0.021": 0.0,
			"0.022": 0.0,
			"0.023": 0.0,
			"0.024": 0.0,
			"0.025": 0.0
		}
	}
}
