{
	 "smiles": "CC1=CC=C(Br)C=C1Br", 
	 "Tm": 263.45, 
	 "num_atms": 15, 
	 "gaussian": { 
		 "optdone": 1, 
		 "sigma_profile": "yes", 
		 "theory": "DFT", 
		 "functional": "B3LYP", 
		 "basiset": "6-31G**", 
		 "properties": { 
			 "R2extent": 4592.6361, 
			 "electric_dipole_moment_norm": 1.98851800847, 
			 "electric_quadrupole_moment_norm": 3.00897807902, 
			 "total_energy": -5413.17637136, 
			 "HOMO_LUMO_gap": 0.21755, 
			 "cosmo_polarized_energy": -3.72, 
			 "cosmo_cavitation_energy": 23.32, 
			 "cosmo_dispersion_energy": -18.06, 
			 "cosmo_repulsion_energy": 1.47, 
			 "cosmo_total_nonelectrostatic_energy": 6.73, 
			 "SMD_solvation_energy": 1.82 
		},
		"coords": [
			{
				"x": 1.576430794,
				"y": 0.1605208496,
				"z": 0.4903166902,
				"element": "C" 
			},
			{
				"x": 0.2991943547,
				"y": -0.186549435,
				"z": -0.228590414,
				"element": "C" 
			},
			{
				"x": -0.0873338976,
				"y": 0.507449961,
				"z": -1.3837724519,
				"element": "C" 
			},
			{
				"x": -1.2618565113,
				"y": 0.2138711281,
				"z": -2.074631652,
				"element": "C" 
			},
			{
				"x": -2.082494986,
				"y": -0.8061129718,
				"z": -1.6010699042,
				"element": "C" 
			},
			{
				"x": -3.6984906815,
				"y": -1.2317643979,
				"z": -2.5257234031,
				"element": "Br" 
			},
			{
				"x": -1.7435478677,
				"y": -1.5256833048,
				"z": -0.457933826,
				"element": "C" 
			},
			{
				"x": -0.5615729222,
				"y": -1.2050132604,
				"z": 0.2077069607,
				"element": "C" 
			},
			{
				"x": -0.1296227099,
				"y": -2.2165482292,
				"z": 1.7754987696,
				"element": "Br" 
			},
			{
				"x": 1.3806145573,
				"y": 0.4622068834,
				"z": 1.5247303216,
				"element": "H" 
			},
			{
				"x": 2.253116511,
				"y": -0.6993749718,
				"z": 0.5354502889,
				"element": "H" 
			},
			{
				"x": 2.0938220806,
				"y": 0.9795473742,
				"z": -0.0150149702,
				"element": "H" 
			},
			{
				"x": 0.5546295889,
				"y": 1.3032147658,
				"z": -1.7516437036,
				"element": "H" 
			},
			{
				"x": -1.5337966024,
				"y": 0.7684089595,
				"z": -2.9650645364,
				"element": "H" 
			},
			{
				"x": -2.3827917079,
				"y": -2.3183733506,
				"z": -0.0912581694,
				"element": "H" 
			}
		],
		 "valence_orbital": [ 
			{
				"type": "occ",
				"energy": -0.30378,
				"method": "rhf"
			},
			{
				"type": "occ",
				"energy": -0.29449,
				"method": "rhf"
			},
			{
				"type": "occ",
				"energy": -0.29003,
				"method": "rhf"
			},
			{
				"type": "occ",
				"energy": -0.25747,
				"method": "rhf"
			},
			{
				"type": "occ",
				"energy": -0.2424,
				"method": "rhf"
			},
			{
				"type": "unocc",
				"energy": -0.02485,
				"method": "rhf"
			},
			{
				"type": "unocc",
				"energy": -0.02111,
				"method": "rhf"
			},
			{
				"type": "unocc",
				"energy": -0.01511,
				"method": "rhf"
			},
			{
				"type": "unocc",
				"energy": 0.02597,
				"method": "rhf"
			},
			{
				"type": "unocc",
				"energy": 0.10503,
				"method": "rhf"
			}
		],
		"cosmo_sigma_profile": { 
			"-0.025": 0.0,
			"-0.024": 0.0,
			"-0.023": 0.0,
			"-0.022": 0.0,
			"-0.021": 0.0,
			"-0.02": 0.0,
			"-0.019": 0.0,
			"-0.018": 0.0,
			"-0.017": 0.0,
			"-0.016": 0.0,
			"-0.015": 0.0,
			"-0.014": 0.0,
			"-0.013": 0.0,
			"-0.012": 0.0,
			"-0.011": 0.0,
			"-0.01": 0.0,
			"-0.009": 0.0,
			"-0.008": 0.814324236667,
			"-0.007": 4.7810209492,
			"-0.006": 7.35875826765,
			"-0.005": 8.21858853183,
			"-0.004": 11.947570035,
			"-0.003": 13.2241515382,
			"-0.002": 14.4107569204,
			"-0.001": 17.5190496434,
			"0.0": 18.3961241092,
			"0.001": 19.799332175,
			"0.002": 27.3049721882,
			"0.003": 21.5435192212,
			"0.004": 20.7030761063,
			"0.005": 6.97360418972,
			"0.006": 0.0,
			"0.007": 0.0,
			"0.008": 0.0,
			"0.009": 0.0,
			"0.01": 0.0,
			"0.011": 0.0,
			"0.012": 0.0,
			"0.013": 0.0,
			"0.014": 0.0,
			"0.015": 0.0,
			"0.016": 0.0,
			"0.017": 0.0,
			"0.018": 0.0,
			"0.019": 0.0,
			"0.02": 0.0,
			"0.021": 0.0,
			"0.022": 0.0,
			"0.023": 0.0,
			"0.024": 0.0,
			"0.025": 0.0
		}
	}
}
