{
	 "smiles": "OC(=O)C1=CC(=CC=C1)S(=O)(=O)NC1=CC=C(F)C=C1", 
	 "Tm": 414.15, 
	 "num_atms": 30, 
	 "gaussian": { 
		 "optdone": 1, 
		 "sigma_profile": "yes", 
		 "theory": "DFT", 
		 "functional": "B3LYP", 
		 "basiset": "6-31G**", 
		 "properties": { 
			 "R2extent": 6923.9846, 
			 "electric_dipole_moment_norm": 4.72423045691, 
			 "electric_quadrupole_moment_norm": 17.4447554827, 
			 "total_energy": -1355.0114418, 
			 "HOMO_LUMO_gap": 0.18457, 
			 "cosmo_polarized_energy": -23.11, 
			 "cosmo_cavitation_energy": 37.84, 
			 "cosmo_dispersion_energy": -25.99, 
			 "cosmo_repulsion_energy": 1.94, 
			 "cosmo_total_nonelectrostatic_energy": 13.78, 
			 "SMD_solvation_energy": 7.28 
		},
		"coords": [
			{
				"x": 2.9527948163,
				"y": 0.7790616096,
				"z": 3.4183865386,
				"element": "O" 
			},
			{
				"x": 2.1361289198,
				"y": -0.1746056916,
				"z": 3.9294242474,
				"element": "C" 
			},
			{
				"x": 2.0708785757,
				"y": -0.3401824812,
				"z": 5.1244802868,
				"element": "O" 
			},
			{
				"x": 1.3334739718,
				"y": -0.990972675,
				"z": 2.9542651067,
				"element": "C" 
			},
			{
				"x": 1.6188345807,
				"y": -1.0509567459,
				"z": 1.5843566807,
				"element": "C" 
			},
			{
				"x": 0.8239724325,
				"y": -1.8406988488,
				"z": 0.7567649559,
				"element": "C" 
			},
			{
				"x": -0.2412973818,
				"y": -2.5892310893,
				"z": 1.2613057086,
				"element": "C" 
			},
			{
				"x": -0.5129462078,
				"y": -2.5357191,
				"z": 2.6285517393,
				"element": "C" 
			},
			{
				"x": 0.2709661819,
				"y": -1.746355582,
				"z": 3.4687961104,
				"element": "C" 
			},
			{
				"x": 1.2173752636,
				"y": -1.9273941838,
				"z": -0.9923047087,
				"element": "S" 
			},
			{
				"x": 1.0413632121,
				"y": -3.3037582014,
				"z": -1.4618884973,
				"element": "O" 
			},
			{
				"x": 2.481333777,
				"y": -1.2080915806,
				"z": -1.1827261106,
				"element": "O" 
			},
			{
				"x": -0.0885726582,
				"y": -1.0806705253,
				"z": -1.699145531,
				"element": "N" 
			},
			{
				"x": -0.022123633,
				"y": 0.3518582088,
				"z": -1.7887910484,
				"element": "C" 
			},
			{
				"x": -0.6888286834,
				"y": 1.1115874591,
				"z": -0.8212371355,
				"element": "C" 
			},
			{
				"x": -0.6602057511,
				"y": 2.5044422418,
				"z": -0.875609263,
				"element": "C" 
			},
			{
				"x": 0.0313296305,
				"y": 3.1168688495,
				"z": -1.9153674945,
				"element": "C" 
			},
			{
				"x": 0.0540810865,
				"y": 4.4616583336,
				"z": -1.980329107,
				"element": "F" 
			},
			{
				"x": 0.6984727929,
				"y": 2.3845399819,
				"z": -2.8928807491,
				"element": "C" 
			},
			{
				"x": 0.6777220863,
				"y": 0.9936813264,
				"z": -2.8187241039,
				"element": "C" 
			},
			{
				"x": 2.8107895502,
				"y": 0.8892812265,
				"z": 2.4682638669,
				"element": "H" 
			},
			{
				"x": 2.463503768,
				"y": -0.5368002889,
				"z": 1.1355278912,
				"element": "H" 
			},
			{
				"x": -0.8329635427,
				"y": -3.2080322336,
				"z": 0.5953698617,
				"element": "H" 
			},
			{
				"x": -1.3324513848,
				"y": -3.1169587412,
				"z": 3.03917762,
				"element": "H" 
			},
			{
				"x": 0.0825454791,
				"y": -1.7014301526,
				"z": 4.5359219323,
				"element": "H" 
			},
			{
				"x": -0.2890495971,
				"y": -1.5570997126,
				"z": -2.5763359096,
				"element": "H" 
			},
			{
				"x": -1.2397813565,
				"y": 0.6020240879,
				"z": -0.0379804566,
				"element": "H" 
			},
			{
				"x": -1.1730693086,
				"y": 3.1141468581,
				"z": -0.1399828065,
				"element": "H" 
			},
			{
				"x": 1.2285297983,
				"y": 2.9039202798,
				"z": -3.6834936179,
				"element": "H" 
			},
			{
				"x": 1.2120935818,
				"y": 0.4023873709,
				"z": -3.5553960069,
				"element": "H" 
			}
		],
		 "valence_orbital": [ 
			{
				"type": "occ",
				"energy": -0.29473,
				"method": "rhf"
			},
			{
				"type": "occ",
				"energy": -0.28825,
				"method": "rhf"
			},
			{
				"type": "occ",
				"energy": -0.28207,
				"method": "rhf"
			},
			{
				"type": "occ",
				"energy": -0.27887,
				"method": "rhf"
			},
			{
				"type": "occ",
				"energy": -0.25807,
				"method": "rhf"
			},
			{
				"type": "unocc",
				"energy": -0.0735,
				"method": "rhf"
			},
			{
				"type": "unocc",
				"energy": -0.05488,
				"method": "rhf"
			},
			{
				"type": "unocc",
				"energy": -0.03185,
				"method": "rhf"
			},
			{
				"type": "unocc",
				"energy": -0.02797,
				"method": "rhf"
			},
			{
				"type": "unocc",
				"energy": 0.02419,
				"method": "rhf"
			}
		],
		"cosmo_sigma_profile": { 
			"-0.025": 0.0,
			"-0.024": 0.0,
			"-0.023": 0.0,
			"-0.022": 0.0,
			"-0.021": 0.0,
			"-0.02": 0.373475371819,
			"-0.019": 0.698596208512,
			"-0.018": 1.10276035527,
			"-0.017": 1.08221993138,
			"-0.016": 0.895260065817,
			"-0.015": 2.00118190296,
			"-0.014": 1.72945821753,
			"-0.013": 1.52051209893,
			"-0.012": 2.6849125558,
			"-0.011": 2.58753355089,
			"-0.01": 2.13107706288,
			"-0.009": 2.64714329119,
			"-0.008": 7.77067578751,
			"-0.007": 15.282944136,
			"-0.006": 14.7403190639,
			"-0.005": 15.2274009763,
			"-0.004": 13.1271695185,
			"-0.003": 14.5257115266,
			"-0.002": 17.2050767352,
			"-0.001": 19.8620240389,
			"0.0": 26.7639946173,
			"0.001": 24.899674932,
			"0.002": 20.1564791311,
			"0.003": 15.287697841,
			"0.004": 15.6620116076,
			"0.005": 7.73084249963,
			"0.006": 5.36541562023,
			"0.007": 6.01409924243,
			"0.008": 6.7153101662,
			"0.009": 8.57223522895,
			"0.01": 14.3041795361,
			"0.011": 11.3463530582,
			"0.012": 3.6196756271,
			"0.013": 0.627569578107,
			"0.014": 0.0,
			"0.015": 0.0,
			"0.016": 0.0,
			"0.017": 0.0,
			"0.018": 0.0,
			"0.019": 0.0,
			"0.02": 0.0,
			"0.021": 0.0,
			"0.022": 0.0,
			"0.023": 0.0,
			"0.024": 0.0,
			"0.0": 0.0
		}
	}
}
