{
	 "smiles": "CCCC=CC", 
	 "Tm": 132.15, 
	 "num_atms": 18, 
	 "gaussian": { 
		 "optdone": 1, 
		 "sigma_profile": "yes", 
		 "theory": "DFT", 
		 "functional": "B3LYP", 
		 "basiset": "6-31G**", 
		 "properties": { 
			 "R2extent": 1219.4306, 
			 "electric_dipole_moment_norm": 0.0768938228989, 
			 "electric_quadrupole_moment_norm": 1.68774356761, 
			 "total_energy": -235.865503448, 
			 "HOMO_LUMO_gap": 0.26565, 
			 "cosmo_polarized_energy": -1.39, 
			 "cosmo_cavitation_energy": 20.31, 
			 "cosmo_dispersion_energy": -14.73, 
			 "cosmo_repulsion_energy": 1.3, 
			 "cosmo_total_nonelectrostatic_energy": 6.89, 
			 "SMD_solvation_energy": 3.75 
		},
		"coords": [
			{
				"x": 0.1935890664,
				"y": 0.4974464927,
				"z": 2.6058866103,
				"element": "C" 
			},
			{
				"x": 0.243372632,
				"y": -0.3055555674,
				"z": 1.3014212942,
				"element": "C" 
			},
			{
				"x": 1.0799368246,
				"y": 0.3515884558,
				"z": 0.1812387594,
				"element": "C" 
			},
			{
				"x": 0.5393871337,
				"y": 1.670132232,
				"z": -0.3047124217,
				"element": "C" 
			},
			{
				"x": 0.0717765252,
				"y": 1.8985260471,
				"z": -1.5352987563,
				"element": "C" 
			},
			{
				"x": -0.4762707242,
				"y": 3.2075710112,
				"z": -2.0273144995,
				"element": "C" 
			},
			{
				"x": 1.2013898431,
				"y": 0.6784857859,
				"z": 2.9981643613,
				"element": "H" 
			},
			{
				"x": -0.3703415022,
				"y": -0.0382923649,
				"z": 3.3765818858,
				"element": "H" 
			},
			{
				"x": -0.2875165475,
				"y": 1.4708025081,
				"z": 2.4651606479,
				"element": "H" 
			},
			{
				"x": -0.7765444134,
				"y": -0.4701797782,
				"z": 0.9314734415,
				"element": "H" 
			},
			{
				"x": 0.6628883652,
				"y": -1.2988036052,
				"z": 1.5072930955,
				"element": "H" 
			},
			{
				"x": 2.1060908499,
				"y": 0.4919145109,
				"z": 0.5540225205,
				"element": "H" 
			},
			{
				"x": 1.1495716238,
				"y": -0.3425145176,
				"z": -0.6653395894,
				"element": "H" 
			},
			{
				"x": 0.5312809584,
				"y": 2.4909224014,
				"z": 0.414342206,
				"element": "H" 
			},
			{
				"x": 0.0833951487,
				"y": 1.0808925925,
				"z": -2.2587858962,
				"element": "H" 
			},
			{
				"x": -0.4526568311,
				"y": 3.9728591952,
				"z": -1.2452452606,
				"element": "H" 
			},
			{
				"x": 0.0960041571,
				"y": 3.5829048948,
				"z": -2.8856132279,
				"element": "H" 
			},
			{
				"x": -1.5147531097,
				"y": 3.1028997057,
				"z": -2.3673751709,
				"element": "H" 
			}
		],
		 "valence_orbital": [ 
			{
				"type": "occ",
				"energy": -0.35024,
				"method": "rhf"
			},
			{
				"type": "occ",
				"energy": -0.33481,
				"method": "rhf"
			},
			{
				"type": "occ",
				"energy": -0.32686,
				"method": "rhf"
			},
			{
				"type": "occ",
				"energy": -0.31484,
				"method": "rhf"
			},
			{
				"type": "occ",
				"energy": -0.2351,
				"method": "rhf"
			},
			{
				"type": "unocc",
				"energy": 0.03055,
				"method": "rhf"
			},
			{
				"type": "unocc",
				"energy": 0.10727,
				"method": "rhf"
			},
			{
				"type": "unocc",
				"energy": 0.11383,
				"method": "rhf"
			},
			{
				"type": "unocc",
				"energy": 0.12342,
				"method": "rhf"
			},
			{
				"type": "unocc",
				"energy": 0.14698,
				"method": "rhf"
			}
		],
		"cosmo_sigma_profile": { 
			"-0.025": 0.0,
			"-0.024": 0.0,
			"-0.023": 0.0,
			"-0.022": 0.0,
			"-0.021": 0.0,
			"-0.02": 0.0,
			"-0.019": 0.0,
			"-0.018": 0.0,
			"-0.017": 0.0,
			"-0.016": 0.0,
			"-0.015": 0.0,
			"-0.014": 0.0,
			"-0.013": 0.0,
			"-0.012": 0.0,
			"-0.011": 0.0,
			"-0.01": 0.0,
			"-0.009": 0.0,
			"-0.008": 0.0,
			"-0.007": 0.0,
			"-0.006": 0.0,
			"-0.005": 0.0,
			"-0.004": 2.38505362287,
			"-0.003": 14.7221995254,
			"-0.002": 26.5276242948,
			"-0.001": 26.5580446412,
			"0.0": 30.7404671214,
			"0.001": 27.2738266807,
			"0.002": 11.5579773229,
			"0.003": 5.03236995075,
			"0.004": 4.35316491946,
			"0.005": 2.91228660123,
			"0.006": 2.49349913665,
			"0.007": 2.31344709862,
			"0.008": 0.524370399081,
			"0.009": 0.0,
			"0.01": 0.0,
			"0.011": 0.0,
			"0.012": 0.0,
			"0.013": 0.0,
			"0.014": 0.0,
			"0.015": 0.0,
			"0.016": 0.0,
			"0.017": 0.0,
			"0.018": 0.0,
			"0.019": 0.0,
			"0.02": 0.0,
			"0.021": 0.0,
			"0.022": 0.0,
			"0.023": 0.0,
			"0.024": 0.0,
			"0.025": 0.0
		}
	}
}
