{
	 "smiles": "CC1=C2C(=O)CC2=C2CC(=O)C2=C1C", 
	 "Tm": 480.15, 
	 "num_atms": 24, 
	 "gaussian": { 
		 "optdone": 1, 
		 "sigma_profile": "yes", 
		 "theory": "DFT", 
		 "functional": "B3LYP", 
		 "basiset": "6-31G**", 
		 "properties": { 
			 "R2extent": 3764.26, 
			 "electric_dipole_moment_norm": 0.108304155045, 
			 "electric_quadrupole_moment_norm": 22.807425568, 
			 "total_energy": -613.685344276, 
			 "HOMO_LUMO_gap": 0.17181, 
			 "cosmo_polarized_energy": -10.23, 
			 "cosmo_cavitation_energy": 28.45, 
			 "cosmo_dispersion_energy": -20.27, 
			 "cosmo_repulsion_energy": 1.62, 
			 "cosmo_total_nonelectrostatic_energy": 9.8, 
			 "SMD_solvation_energy": 5.55 
		},
		"coords": [
			{
				"x": 2.2225841206,
				"y": -1.9369796388,
				"z": 0.0017943915,
				"element": "C" 
			},
			{
				"x": 0.8159656619,
				"y": -1.6624213281,
				"z": -0.4635257651,
				"element": "C" 
			},
			{
				"x": -0.0060766886,
				"y": -0.745809589,
				"z": 0.2059718589,
				"element": "C" 
			},
			{
				"x": -0.02392539,
				"y": 0.1972345856,
				"z": 1.3716444256,
				"element": "C" 
			},
			{
				"x": 0.7510848439,
				"y": 0.530791071,
				"z": 2.2329619228,
				"element": "O" 
			},
			{
				"x": -1.5080298778,
				"y": 0.596193564,
				"z": 1.0170880016,
				"element": "C" 
			},
			{
				"x": -1.3324746173,
				"y": -0.4002924087,
				"z": -0.1249696723,
				"element": "C" 
			},
			{
				"x": -1.8858265764,
				"y": -1.0266031867,
				"z": -1.2218355944,
				"element": "C" 
			},
			{
				"x": -3.0961057361,
				"y": -1.2000943267,
				"z": -2.1346187056,
				"element": "C" 
			},
			{
				"x": -2.1708621447,
				"y": -2.2314909329,
				"z": -2.8880102382,
				"element": "C" 
			},
			{
				"x": -2.3161800085,
				"y": -2.9387267181,
				"z": -3.8536508076,
				"element": "O" 
			},
			{
				"x": -1.071799225,
				"y": -1.9518878899,
				"z": -1.9070016435,
				"element": "C" 
			},
			{
				"x": 0.2469783533,
				"y": -2.3063218404,
				"z": -1.5917586818,
				"element": "C" 
			},
			{
				"x": 1.0038784237,
				"y": -3.3161688715,
				"z": -2.4150529733,
				"element": "C" 
			},
			{
				"x": 2.3577634456,
				"y": -2.9950141022,
				"z": 0.2561324519,
				"element": "H" 
			},
			{
				"x": 2.95311578,
				"y": -1.7044384875,
				"z": -0.7822042136,
				"element": "H" 
			},
			{
				"x": 2.4618580845,
				"y": -1.3384837203,
				"z": 0.8828858517,
				"element": "H" 
			},
			{
				"x": -2.2432650637,
				"y": 0.3374544537,
				"z": 1.7866429139,
				"element": "H" 
			},
			{
				"x": -1.6408217987,
				"y": 1.6468054003,
				"z": 0.7372909643,
				"element": "H" 
			},
			{
				"x": -3.9927983709,
				"y": -1.6395296014,
				"z": -1.6845687061,
				"element": "H" 
			},
			{
				"x": -3.3883654343,
				"y": -0.3311505986,
				"z": -2.7339923789,
				"element": "H" 
			},
			{
				"x": 1.9140481257,
				"y": -2.8787094959,
				"z": -2.8423924077,
				"element": "H" 
			},
			{
				"x": 1.3202470971,
				"y": -4.1700980222,
				"z": -1.8042153474,
				"element": "H" 
			},
			{
				"x": 0.3851069956,
				"y": -3.6894583159,
				"z": -3.2333156467,
				"element": "H" 
			}
		],
		 "valence_orbital": [ 
			{
				"type": "occ",
				"energy": -0.33092,
				"method": "rhf"
			},
			{
				"type": "occ",
				"energy": -0.26634,
				"method": "rhf"
			},
			{
				"type": "occ",
				"energy": -0.25753,
				"method": "rhf"
			},
			{
				"type": "occ",
				"energy": -0.25634,
				"method": "rhf"
			},
			{
				"type": "occ",
				"energy": -0.25458,
				"method": "rhf"
			},
			{
				"type": "unocc",
				"energy": -0.08277,
				"method": "rhf"
			},
			{
				"type": "unocc",
				"energy": -0.03811,
				"method": "rhf"
			},
			{
				"type": "unocc",
				"energy": 0.00917,
				"method": "rhf"
			},
			{
				"type": "unocc",
				"energy": 0.05897,
				"method": "rhf"
			},
			{
				"type": "unocc",
				"energy": 0.08396,
				"method": "rhf"
			}
		],
		"cosmo_sigma_profile": { 
			"-0.025": 0.0,
			"-0.024": 0.0,
			"-0.023": 0.0,
			"-0.022": 0.0,
			"-0.021": 0.0,
			"-0.02": 0.0,
			"-0.019": 0.0,
			"-0.018": 0.0,
			"-0.017": 0.0,
			"-0.016": 0.0,
			"-0.015": 0.0,
			"-0.014": 0.0,
			"-0.013": 0.0,
			"-0.012": 0.0,
			"-0.011": 0.0,
			"-0.01": 0.0,
			"-0.009": 0.0,
			"-0.008": 0.0,
			"-0.007": 1.81834405542,
			"-0.006": 9.99256739265,
			"-0.005": 20.1353802488,
			"-0.004": 20.0789247248,
			"-0.003": 21.8432488283,
			"-0.002": 26.500715787,
			"-0.001": 34.4136798741,
			"0.0": 21.9710707684,
			"0.001": 14.0053613402,
			"0.002": 10.9764039188,
			"0.003": 3.78734731697,
			"0.004": 3.32653850431,
			"0.005": 3.8506520879,
			"0.006": 2.48086358077,
			"0.007": 4.02037771086,
			"0.008": 3.47946899864,
			"0.009": 4.63605910277,
			"0.01": 6.78720303226,
			"0.011": 9.82361625974,
			"0.012": 3.00019790641,
			"0.013": 0.196526975703,
			"0.014": 0.0,
			"0.015": 0.0,
			"0.016": 0.0,
			"0.017": 0.0,
			"0.018": 0.0,
			"0.019": 0.0,
			"0.02": 0.0,
			"0.021": 0.0,
			"0.022": 0.0,
			"0.023": 0.0,
			"0.024": 0.0,
			"0.025": 0.0
		}
	}
}
