{
	 "smiles": "OC(=O)CCCN1C(=O)C2=CC=CC3=CC=CC(C1=O)=C23", 
	 "Tm": 360.15, 
	 "num_atms": 34, 
	 "gaussian": { 
		 "optdone": 1, 
		 "sigma_profile": "yes", 
		 "theory": "DFT", 
		 "functional": "B3LYP", 
		 "basiset": "6-31G**", 
		 "properties": { 
			 "R2extent": 6863.9562, 
			 "electric_dipole_moment_norm": 10.1406483466, 
			 "electric_quadrupole_moment_norm": 29.4675385317, 
			 "total_energy": -973.262544468, 
			 "HOMO_LUMO_gap": 0.13562, 
			 "cosmo_polarized_energy": -18.69, 
			 "cosmo_cavitation_energy": 36.72, 
			 "cosmo_dispersion_energy": -26.89, 
			 "cosmo_repulsion_energy": 1.97, 
			 "cosmo_total_nonelectrostatic_energy": 11.79, 
			 "SMD_solvation_energy": 7.22 
		},
		"coords": [
			{
				"x": -0.6793275865,
				"y": -2.2038965535,
				"z": -4.4027610124,
				"element": "O" 
			},
			{
				"x": 0.6102954028,
				"y": -1.996485932,
				"z": -4.7336019937,
				"element": "C" 
			},
			{
				"x": 0.982839258,
				"y": -2.1000887158,
				"z": -5.8802998832,
				"element": "O" 
			},
			{
				"x": 1.5482941598,
				"y": -1.5713384206,
				"z": -3.6028649487,
				"element": "C" 
			},
			{
				"x": 1.4957850048,
				"y": -0.0486370706,
				"z": -3.3491721891,
				"element": "C" 
			},
			{
				"x": 0.2151954912,
				"y": 0.4834647191,
				"z": -2.6895934518,
				"element": "C" 
			},
			{
				"x": 0.0958303505,
				"y": 0.1356654903,
				"z": -1.2543552406,
				"element": "N" 
			},
			{
				"x": -0.6396378587,
				"y": -0.9867055466,
				"z": -0.8865486239,
				"element": "C" 
			},
			{
				"x": -1.1358205712,
				"y": -1.7346202361,
				"z": -1.734601669,
				"element": "O" 
			},
			{
				"x": -0.8072739961,
				"y": -1.2526040142,
				"z": 0.5589986944,
				"element": "C" 
			},
			{
				"x": -1.5561151297,
				"y": -2.3422735954,
				"z": 0.9728688516,
				"element": "C" 
			},
			{
				"x": -1.7202437737,
				"y": -2.6114794836,
				"z": 2.3472801739,
				"element": "C" 
			},
			{
				"x": -1.1330609416,
				"y": -1.7964068247,
				"z": 3.2944834082,
				"element": "C" 
			},
			{
				"x": -0.3555467376,
				"y": -0.6731743596,
				"z": 2.9074639507,
				"element": "C" 
			},
			{
				"x": 0.2715094603,
				"y": 0.1928108962,
				"z": 3.8416065953,
				"element": "C" 
			},
			{
				"x": 1.0191048134,
				"y": 1.2723952386,
				"z": 3.4147070921,
				"element": "C" 
			},
			{
				"x": 1.1725431947,
				"y": 1.5347912917,
				"z": 2.0377475837,
				"element": "C" 
			},
			{
				"x": 0.5736763123,
				"y": 0.7112567757,
				"z": 1.098923669,
				"element": "C" 
			},
			{
				"x": 0.7381927894,
				"y": 1.0066830223,
				"z": -0.3424077392,
				"element": "C" 
			},
			{
				"x": 1.3881698823,
				"y": 1.9551844735,
				"z": -0.7562416076,
				"element": "O" 
			},
			{
				"x": -0.1964954817,
				"y": -0.4023476343,
				"z": 1.5147862741,
				"element": "C" 
			},
			{
				"x": -0.8284698109,
				"y": -2.0818287341,
				"z": -3.4403841122,
				"element": "H" 
			},
			{
				"x": 2.5571490051,
				"y": -1.8390500929,
				"z": -3.9244598653,
				"element": "H" 
			},
			{
				"x": 1.3288026219,
				"y": -2.1246658302,
				"z": -2.6833555374,
				"element": "H" 
			},
			{
				"x": 2.3497847595,
				"y": 0.2493568184,
				"z": -2.7329118028,
				"element": "H" 
			},
			{
				"x": 1.6125194797,
				"y": 0.4666490229,
				"z": -4.3098985767,
				"element": "H" 
			},
			{
				"x": -0.6792006919,
				"y": 0.1121297732,
				"z": -3.1897071654,
				"element": "H" 
			},
			{
				"x": 0.2177711225,
				"y": 1.5724977202,
				"z": -2.7348908752,
				"element": "H" 
			},
			{
				"x": -2.0100826041,
				"y": -2.9779707103,
				"z": 0.2205285548,
				"element": "H" 
			},
			{
				"x": -2.3117588,
				"y": -3.467084567,
				"z": 2.6569527325,
				"element": "H" 
			},
			{
				"x": -1.2595327596,
				"y": -2.0070499304,
				"z": 4.353065887,
				"element": "H" 
			},
			{
				"x": 0.154306573,
				"y": -0.0077044151,
				"z": 4.9031917685,
				"element": "H" 
			},
			{
				"x": 1.4934569281,
				"y": 1.9261622314,
				"z": 4.139660089,
				"element": "H" 
			},
			{
				"x": 1.7561401341,
				"y": 2.3801651935,
				"z": 1.6891909692,
				"element": "H" 
			}
		],
		 "valence_orbital": [ 
			{
				"type": "occ",
				"energy": -0.28547,
				"method": "rhf"
			},
			{
				"type": "occ",
				"energy": -0.28346,
				"method": "rhf"
			},
			{
				"type": "occ",
				"energy": -0.27909,
				"method": "rhf"
			},
			{
				"type": "occ",
				"energy": -0.25456,
				"method": "rhf"
			},
			{
				"type": "occ",
				"energy": -0.24296,
				"method": "rhf"
			},
			{
				"type": "unocc",
				"energy": -0.10734,
				"method": "rhf"
			},
			{
				"type": "unocc",
				"energy": -0.04384,
				"method": "rhf"
			},
			{
				"type": "unocc",
				"energy": -0.04274,
				"method": "rhf"
			},
			{
				"type": "unocc",
				"energy": -0.00941,
				"method": "rhf"
			},
			{
				"type": "unocc",
				"energy": 0.03139,
				"method": "rhf"
			}
		],
		"cosmo_sigma_profile": { 
			"-0.025": 0.0,
			"-0.024": 0.0,
			"-0.023": 0.0,
			"-0.022": 0.0,
			"-0.021": 0.0,
			"-0.02": 0.0,
			"-0.019": 0.0,
			"-0.018": 0.0,
			"-0.017": 0.0,
			"-0.016": 0.0,
			"-0.015": 0.0,
			"-0.014": 0.0,
			"-0.013": 0.0,
			"-0.012": 0.0,
			"-0.011": 0.0,
			"-0.01": 0.0,
			"-0.009": 0.0493875290003,
			"-0.008": 3.88814110487,
			"-0.007": 11.2776203491,
			"-0.006": 19.301565472,
			"-0.005": 27.5169260173,
			"-0.004": 28.6801950288,
			"-0.003": 25.4313017885,
			"-0.002": 21.0363957088,
			"-0.001": 18.5752006596,
			"0.0": 22.8805799606,
			"0.001": 30.1595768856,
			"0.002": 19.8267308642,
			"0.003": 7.0512362524,
			"0.004": 5.49415056513,
			"0.005": 5.74167770015,
			"0.006": 4.39484734458,
			"0.007": 4.72793267589,
			"0.008": 4.71776111253,
			"0.009": 4.82570564288,
			"0.01": 5.18680223231,
			"0.011": 8.06127154765,
			"0.012": 8.4770103518,
			"0.013": 5.07511759573,
			"0.014": 1.70893570766,
			"0.015": 0.0,
			"0.016": 0.0,
			"0.017": 0.0,
			"0.018": 0.0,
			"0.019": 0.0,
			"0.02": 0.0,
			"0.021": 0.0,
			"0.022": 0.0,
			"0.023": 0.0,
			"0.024": 0.0,
			"0.0": 0.0
		}
	}
}
