{
	 "smiles": "CC1=C(C=NN1C1CCCC1)C(O)=O", 
	 "Tm": 373.15, 
	 "num_atms": 28, 
	 "gaussian": { 
		 "optdone": 1, 
		 "sigma_profile": "yes", 
		 "theory": "DFT", 
		 "functional": "B3LYP", 
		 "basiset": "6-31G**", 
		 "properties": { 
			 "R2extent": 3979.1434, 
			 "electric_dipole_moment_norm": 4.22976768275, 
			 "electric_quadrupole_moment_norm": 9.95718446199, 
			 "total_energy": -649.468130978, 
			 "HOMO_LUMO_gap": 0.22784, 
			 "cosmo_polarized_energy": -12.34, 
			 "cosmo_cavitation_energy": 30.25, 
			 "cosmo_dispersion_energy": -21.9, 
			 "cosmo_repulsion_energy": 1.74, 
			 "cosmo_total_nonelectrostatic_energy": 10.09, 
			 "SMD_solvation_energy": 5.35 
		},
		"coords": [
			{
				"x": 2.3134641889,
				"y": 0.7064354447,
				"z": -1.0313194286,
				"element": "C" 
			},
			{
				"x": 0.8457208713,
				"y": 0.691267022,
				"z": -1.3260582179,
				"element": "C" 
			},
			{
				"x": -0.0118961231,
				"y": 1.6862292365,
				"z": -1.8148880035,
				"element": "C" 
			},
			{
				"x": -1.285127514,
				"y": 1.0671180062,
				"z": -1.8796780847,
				"element": "C" 
			},
			{
				"x": -1.2412905912,
				"y": -0.1901422314,
				"z": -1.473137571,
				"element": "N" 
			},
			{
				"x": 0.0634254174,
				"y": -0.4039274488,
				"z": -1.139824265,
				"element": "N" 
			},
			{
				"x": 0.4476633471,
				"y": -1.7282240029,
				"z": -0.6442711501,
				"element": "C" 
			},
			{
				"x": 0.0711234761,
				"y": -2.8722564688,
				"z": -1.6363284199,
				"element": "C" 
			},
			{
				"x": -1.0232289215,
				"y": -3.6901421234,
				"z": -0.9264704622,
				"element": "C" 
			},
			{
				"x": -0.6600611483,
				"y": -3.5587387744,
				"z": 0.5616173508,
				"element": "C" 
			},
			{
				"x": -0.2647472227,
				"y": -2.0781297002,
				"z": 0.6939036179,
				"element": "C" 
			},
			{
				"x": 0.2298156709,
				"y": 3.072997935,
				"z": -2.2034335101,
				"element": "C" 
			},
			{
				"x": 1.5267181445,
				"y": 3.4751638475,
				"z": -2.0648824245,
				"element": "O" 
			},
			{
				"x": -0.6251612921,
				"y": 3.8333629226,
				"z": -2.6188674451,
				"element": "O" 
			},
			{
				"x": 2.7183817109,
				"y": 1.6925945139,
				"z": -1.2509790879,
				"element": "H" 
			},
			{
				"x": 2.8524429041,
				"y": -0.0296605449,
				"z": -1.6388404342,
				"element": "H" 
			},
			{
				"x": 2.5138697202,
				"y": 0.4780970399,
				"z": 0.0216245775,
				"element": "H" 
			},
			{
				"x": -2.2122344726,
				"y": 1.5137667903,
				"z": -2.210741033,
				"element": "H" 
			},
			{
				"x": 1.5294209366,
				"y": -1.6895850447,
				"z": -0.507501543,
				"element": "H" 
			},
			{
				"x": -0.2489852273,
				"y": -2.4715716926,
				"z": -2.6002514563,
				"element": "H" 
			},
			{
				"x": 0.9548195565,
				"y": -3.4964780171,
				"z": -1.8114686199,
				"element": "H" 
			},
			{
				"x": -2.0012063061,
				"y": -3.2313562759,
				"z": -1.1089664436,
				"element": "H" 
			},
			{
				"x": -1.0682821039,
				"y": -4.7272995124,
				"z": -1.2727198331,
				"element": "H" 
			},
			{
				"x": 0.1929268879,
				"y": -4.2077689559,
				"z": 0.8000630837,
				"element": "H" 
			},
			{
				"x": -1.4776882895,
				"y": -3.8350399949,
				"z": 1.2344851016,
				"element": "H" 
			},
			{
				"x": 0.3626159193,
				"y": -1.8662640963,
				"z": 1.5651132186,
				"element": "H" 
			},
			{
				"x": -1.1650670586,
				"y": -1.4616195385,
				"z": 0.7701432377,
				"element": "H" 
			},
			{
				"x": 1.5363675189,
				"y": 4.4020716646,
				"z": -2.3556227542,
				"element": "H" 
			}
		],
		 "valence_orbital": [ 
			{
				"type": "occ",
				"energy": -0.3105,
				"method": "rhf"
			},
			{
				"type": "occ",
				"energy": -0.28898,
				"method": "rhf"
			},
			{
				"type": "occ",
				"energy": -0.26813,
				"method": "rhf"
			},
			{
				"type": "occ",
				"energy": -0.25107,
				"method": "rhf"
			},
			{
				"type": "occ",
				"energy": -0.2445,
				"method": "rhf"
			},
			{
				"type": "unocc",
				"energy": -0.01666,
				"method": "rhf"
			},
			{
				"type": "unocc",
				"energy": 0.01836,
				"method": "rhf"
			},
			{
				"type": "unocc",
				"energy": 0.06913,
				"method": "rhf"
			},
			{
				"type": "unocc",
				"energy": 0.08571,
				"method": "rhf"
			},
			{
				"type": "unocc",
				"energy": 0.09269,
				"method": "rhf"
			}
		],
		"cosmo_sigma_profile": { 
			"-0.025": 0.0,
			"-0.024": 0.0,
			"-0.023": 0.0,
			"-0.022": 0.0,
			"-0.021": 0.0,
			"-0.02": 0.0,
			"-0.019": 0.0,
			"-0.018": 0.376137332464,
			"-0.017": 0.959184627481,
			"-0.016": 0.799493876007,
			"-0.015": 0.614907125693,
			"-0.014": 0.346887564056,
			"-0.013": 1.25639401971,
			"-0.012": 0.426558431325,
			"-0.011": 0.807918019132,
			"-0.01": 0.591510591409,
			"-0.009": 0.57991372129,
			"-0.008": 0.582759080703,
			"-0.007": 2.40198670096,
			"-0.006": 9.82154871403,
			"-0.005": 11.2176492122,
			"-0.004": 11.0235354372,
			"-0.003": 21.3876469543,
			"-0.002": 26.1248483496,
			"-0.001": 31.1362383457,
			"0.0": 28.7763086797,
			"0.001": 22.8820968788,
			"0.002": 11.5436162449,
			"0.003": 10.8971581294,
			"0.004": 7.82745657465,
			"0.005": 4.66712402488,
			"0.006": 4.77715992114,
			"0.007": 4.45488133748,
			"0.008": 3.61005628351,
			"0.009": 2.02625207125,
			"0.01": 2.82589963483,
			"0.011": 3.67711042241,
			"0.012": 6.16576882605,
			"0.013": 2.87611341712,
			"0.014": 0.0991817156272,
			"0.015": 0.0,
			"0.016": 0.0,
			"0.017": 0.0,
			"0.018": 0.0,
			"0.019": 0.0,
			"0.02": 0.0,
			"0.021": 0.0,
			"0.022": 0.0,
			"0.023": 0.0,
			"0.024": 0.0,
			"0.025": 0.0
		}
	}
}
