{
	 "smiles": "CCN(CC)S(=O)(=O)C1=CC=C(C=C1)C(C)=O", 
	 "Tm": 355.15, 
	 "num_atms": 34, 
	 "gaussian": { 
		 "optdone": 1, 
		 "sigma_profile": "yes", 
		 "theory": "DFT", 
		 "functional": "B3LYP", 
		 "basiset": "6-31G**", 
		 "properties": { 
			 "R2extent": 6129.7602, 
			 "electric_dipole_moment_norm": 4.69233057872, 
			 "electric_quadrupole_moment_norm": 27.9607782621, 
			 "total_energy": -1146.06891757, 
			 "HOMO_LUMO_gap": 0.17128, 
			 "cosmo_polarized_energy": -15.88, 
			 "cosmo_cavitation_energy": 37.52, 
			 "cosmo_dispersion_energy": -26.21, 
			 "cosmo_repulsion_energy": 1.99, 
			 "cosmo_total_nonelectrostatic_energy": 13.3, 
			 "SMD_solvation_energy": 6.27 
		},
		"coords": [
			{
				"x": -2.4120799008,
				"y": 2.7407020241,
				"z": 0.514821119,
				"element": "C" 
			},
			{
				"x": -1.9005525948,
				"y": 2.9638477859,
				"z": 1.9414920233,
				"element": "C" 
			},
			{
				"x": -0.4415198989,
				"y": 2.857281226,
				"z": 2.0984763602,
				"element": "N" 
			},
			{
				"x": 0.4258800012,
				"y": 3.9723749386,
				"z": 1.6791433242,
				"element": "C" 
			},
			{
				"x": 0.9966841714,
				"y": 3.8648310809,
				"z": 0.2611879713,
				"element": "C" 
			},
			{
				"x": 0.2173928526,
				"y": 1.5601839126,
				"z": 2.9218172362,
				"element": "S" 
			},
			{
				"x": -0.8363551541,
				"y": 0.9934042687,
				"z": 3.7697476147,
				"element": "O" 
			},
			{
				"x": 1.501813098,
				"y": 2.0023761406,
				"z": 3.4724158667,
				"element": "O" 
			},
			{
				"x": 0.5985651981,
				"y": 0.298883631,
				"z": 1.6877895327,
				"element": "C" 
			},
			{
				"x": 1.8850425867,
				"y": 0.2327320347,
				"z": 1.144555198,
				"element": "C" 
			},
			{
				"x": 2.165424553,
				"y": -0.7303319844,
				"z": 0.1810176721,
				"element": "C" 
			},
			{
				"x": 1.1757796746,
				"y": -1.6324596607,
				"z": -0.2393224176,
				"element": "C" 
			},
			{
				"x": -0.1032820269,
				"y": -1.5625274542,
				"z": 0.3331059962,
				"element": "C" 
			},
			{
				"x": -0.3956343494,
				"y": -0.601166396,
				"z": 1.299105581,
				"element": "C" 
			},
			{
				"x": 1.5449870573,
				"y": -2.6475387043,
				"z": -1.2855467841,
				"element": "C" 
			},
			{
				"x": 0.4987032895,
				"y": -3.6506260383,
				"z": -1.7370069444,
				"element": "C" 
			},
			{
				"x": 2.6693363177,
				"y": -2.6598288847,
				"z": -1.7609477453,
				"element": "O" 
			},
			{
				"x": -2.0389367388,
				"y": 3.5011715608,
				"z": -0.1771333704,
				"element": "H" 
			},
			{
				"x": -3.5064515703,
				"y": 2.7902885345,
				"z": 0.5029053978,
				"element": "H" 
			},
			{
				"x": -2.1100506116,
				"y": 1.7594673025,
				"z": 0.1367852845,
				"element": "H" 
			},
			{
				"x": -2.3563510229,
				"y": 2.2464421079,
				"z": 2.6253501628,
				"element": "H" 
			},
			{
				"x": -2.1953016712,
				"y": 3.9611250167,
				"z": 2.2936342315,
				"element": "H" 
			},
			{
				"x": 1.2387851426,
				"y": 4.0570267732,
				"z": 2.4029421203,
				"element": "H" 
			},
			{
				"x": -0.1802761462,
				"y": 4.8810743638,
				"z": 1.7728119609,
				"element": "H" 
			},
			{
				"x": 1.6265485502,
				"y": 2.9775467697,
				"z": 0.15406444,
				"element": "H" 
			},
			{
				"x": 1.6152393527,
				"y": 4.7430060563,
				"z": 0.0458302308,
				"element": "H" 
			},
			{
				"x": 0.2089677218,
				"y": 3.8119288975,
				"z": -0.4950262202,
				"element": "H" 
			},
			{
				"x": 2.6512278662,
				"y": 0.914952747,
				"z": 1.4960377621,
				"element": "H" 
			},
			{
				"x": 3.1531702997,
				"y": -0.811545992,
				"z": -0.2598986017,
				"element": "H" 
			},
			{
				"x": -0.8773171238,
				"y": -2.2626341313,
				"z": 0.0368109496,
				"element": "H" 
			},
			{
				"x": -1.3730244293,
				"y": -0.5622229758,
				"z": 1.7672322778,
				"element": "H" 
			},
			{
				"x": 0.1489124072,
				"y": -4.258937467,
				"z": -0.8955317612,
				"element": "H" 
			},
			{
				"x": 0.9413309588,
				"y": -4.2995099072,
				"z": -2.492957807,
				"element": "H" 
			},
			{
				"x": -0.3759578603,
				"y": -3.1441175772,
				"z": -2.1600086614,
				"element": "H" 
			}
		],
		 "valence_orbital": [ 
			{
				"type": "occ",
				"energy": -0.30189,
				"method": "rhf"
			},
			{
				"type": "occ",
				"energy": -0.28391,
				"method": "rhf"
			},
			{
				"type": "occ",
				"energy": -0.27702,
				"method": "rhf"
			},
			{
				"type": "occ",
				"energy": -0.25973,
				"method": "rhf"
			},
			{
				"type": "occ",
				"energy": -0.24693,
				"method": "rhf"
			},
			{
				"type": "unocc",
				"energy": -0.07565,
				"method": "rhf"
			},
			{
				"type": "unocc",
				"energy": -0.02856,
				"method": "rhf"
			},
			{
				"type": "unocc",
				"energy": 0.01073,
				"method": "rhf"
			},
			{
				"type": "unocc",
				"energy": 0.05531,
				"method": "rhf"
			},
			{
				"type": "unocc",
				"energy": 0.07374,
				"method": "rhf"
			}
		],
		"cosmo_sigma_profile": { 
			"-0.025": 0.0,
			"-0.024": 0.0,
			"-0.023": 0.0,
			"-0.022": 0.0,
			"-0.021": 0.0,
			"-0.02": 0.0,
			"-0.019": 0.0,
			"-0.018": 0.0,
			"-0.017": 0.0,
			"-0.016": 0.0,
			"-0.015": 0.0,
			"-0.014": 0.0,
			"-0.013": 0.0,
			"-0.012": 0.0,
			"-0.011": 0.0,
			"-0.01": 0.0,
			"-0.009": 0.0,
			"-0.008": 1.04565541065,
			"-0.007": 8.4779293371,
			"-0.006": 16.5056545477,
			"-0.005": 19.3177348925,
			"-0.004": 25.8665216669,
			"-0.003": 31.0158922555,
			"-0.002": 31.0667586692,
			"-0.001": 28.8276238117,
			"0.0": 27.3727979916,
			"0.001": 29.7407201289,
			"0.002": 17.4938751034,
			"0.003": 5.0260938446,
			"0.004": 5.09183616679,
			"0.005": 4.58784249506,
			"0.006": 4.04513682382,
			"0.007": 4.76812469835,
			"0.008": 5.20538978448,
			"0.009": 5.28083010807,
			"0.01": 8.40872947758,
			"0.011": 11.1324502121,
			"0.012": 5.64124632372,
			"0.013": 0.746532359311,
			"0.014": 0.0,
			"0.015": 0.0,
			"0.016": 0.0,
			"0.017": 0.0,
			"0.018": 0.0,
			"0.019": 0.0,
			"0.02": 0.0,
			"0.021": 0.0,
			"0.022": 0.0,
			"0.023": 0.0,
			"0.024": 0.0,
			"0.025": 0.0
		}
	}
}
