{
	 "smiles": "CCOC(=O)C1=C(C)NC(C(C)=O)=C1C", 
	 "Tm": 389.15, 
	 "num_atms": 30, 
	 "gaussian": { 
		 "optdone": 1, 
		 "sigma_profile": "yes", 
		 "theory": "DFT", 
		 "functional": "B3LYP", 
		 "basiset": "6-31G**", 
		 "properties": { 
			 "R2extent": 4321.7128, 
			 "electric_dipole_moment_norm": 2.17218012605, 
			 "electric_quadrupole_moment_norm": 13.7539455245, 
			 "total_energy": -708.674956594, 
			 "HOMO_LUMO_gap": 0.18359, 
			 "cosmo_polarized_energy": -12.33, 
			 "cosmo_cavitation_energy": 33.13, 
			 "cosmo_dispersion_energy": -23.5, 
			 "cosmo_repulsion_energy": 1.85, 
			 "cosmo_total_nonelectrostatic_energy": 11.48, 
			 "SMD_solvation_energy": 7.3 
		},
		"coords": [
			{
				"x": -1.3406891171,
				"y": -4.4063668471,
				"z": 1.7715098709,
				"element": "C" 
			},
			{
				"x": -0.9530157749,
				"y": -3.0982218372,
				"z": 2.4455826831,
				"element": "C" 
			},
			{
				"x": -0.1065499843,
				"y": -2.2929578886,
				"z": 1.5941533524,
				"element": "O" 
			},
			{
				"x": -0.7414520129,
				"y": -1.4993229309,
				"z": 0.6861853029,
				"element": "C" 
			},
			{
				"x": -1.9577667592,
				"y": -1.4616041262,
				"z": 0.5935414572,
				"element": "O" 
			},
			{
				"x": 0.2072475513,
				"y": -0.7277680974,
				"z": -0.125145679,
				"element": "C" 
			},
			{
				"x": 1.6132332527,
				"y": -0.7592318507,
				"z": -0.0151292124,
				"element": "C" 
			},
			{
				"x": 2.5366050696,
				"y": -1.5180973204,
				"z": 0.8840416287,
				"element": "C" 
			},
			{
				"x": 2.092206816,
				"y": 0.0924458035,
				"z": -0.9421948231,
				"element": "N" 
			},
			{
				"x": 1.071121498,
				"y": 0.6894630466,
				"z": -1.6639175528,
				"element": "C" 
			},
			{
				"x": 1.483656361,
				"y": 1.6366168917,
				"z": -2.6988252153,
				"element": "C" 
			},
			{
				"x": 0.4380055783,
				"y": 2.3400848982,
				"z": -3.5385156776,
				"element": "C" 
			},
			{
				"x": 2.6855855302,
				"y": 1.8481246518,
				"z": -2.8713796681,
				"element": "O" 
			},
			{
				"x": -0.1350692018,
				"y": 0.1914151704,
				"z": -1.1713732873,
				"element": "C" 
			},
			{
				"x": -1.5196510526,
				"y": 0.5433151362,
				"z": -1.6383791474,
				"element": "C" 
			},
			{
				"x": -1.9160876017,
				"y": -5.0272736532,
				"z": 2.4665022122,
				"element": "H" 
			},
			{
				"x": -0.4518723935,
				"y": -4.9669646908,
				"z": 1.4663437429,
				"element": "H" 
			},
			{
				"x": -1.9581469833,
				"y": -4.2139622069,
				"z": 0.8910657962,
				"element": "H" 
			},
			{
				"x": -1.8391040418,
				"y": -2.5184289356,
				"z": 2.7139018764,
				"element": "H" 
			},
			{
				"x": -0.3497935944,
				"y": -3.2738146908,
				"z": 3.3401024185,
				"element": "H" 
			},
			{
				"x": 3.5782533729,
				"y": -1.2704582179,
				"z": 0.6590329732,
				"element": "H" 
			},
			{
				"x": 2.4000529116,
				"y": -2.5966935477,
				"z": 0.7697107639,
				"element": "H" 
			},
			{
				"x": 2.3411563677,
				"y": -1.2875553491,
				"z": 1.9347755489,
				"element": "H" 
			},
			{
				"x": 3.0589240353,
				"y": 0.3165165064,
				"z": -1.1404300909,
				"element": "H" 
			},
			{
				"x": 0.9447519658,
				"y": 3.0048358709,
				"z": -4.239173708,
				"element": "H" 
			},
			{
				"x": -0.1701142673,
				"y": 1.6182079389,
				"z": -4.0940892809,
				"element": "H" 
			},
			{
				"x": -0.2456968801,
				"y": 2.9211646984,
				"z": -2.9106948668,
				"element": "H" 
			},
			{
				"x": -2.2594474095,
				"y": -0.0214373358,
				"z": -1.074209567,
				"element": "H" 
			},
			{
				"x": -1.6504316694,
				"y": 0.3217099856,
				"z": -2.7034306021,
				"element": "H" 
			},
			{
				"x": -1.7261115667,
				"y": 1.6113589276,
				"z": -1.5046612488,
				"element": "H" 
			}
		],
		 "valence_orbital": [ 
			{
				"type": "occ",
				"energy": -0.29297,
				"method": "rhf"
			},
			{
				"type": "occ",
				"energy": -0.2665,
				"method": "rhf"
			},
			{
				"type": "occ",
				"energy": -0.25267,
				"method": "rhf"
			},
			{
				"type": "occ",
				"energy": -0.24863,
				"method": "rhf"
			},
			{
				"type": "occ",
				"energy": -0.22199,
				"method": "rhf"
			},
			{
				"type": "unocc",
				"energy": -0.0384,
				"method": "rhf"
			},
			{
				"type": "unocc",
				"energy": -0.0145,
				"method": "rhf"
			},
			{
				"type": "unocc",
				"energy": 0.07252,
				"method": "rhf"
			},
			{
				"type": "unocc",
				"energy": 0.08748,
				"method": "rhf"
			},
			{
				"type": "unocc",
				"energy": 0.09474,
				"method": "rhf"
			}
		],
		"cosmo_sigma_profile": { 
			"-0.025": 0.0,
			"-0.024": 0.0,
			"-0.023": 0.0,
			"-0.022": 0.0,
			"-0.021": 0.0,
			"-0.02": 0.0,
			"-0.019": 0.0,
			"-0.018": 0.0,
			"-0.017": 0.0,
			"-0.016": 0.0,
			"-0.015": 0.0,
			"-0.014": 0.871223454653,
			"-0.013": 0.46958768655,
			"-0.012": 1.29783345836,
			"-0.011": 1.53333360449,
			"-0.01": 0.918927801497,
			"-0.009": 1.18930295162,
			"-0.008": 1.55690042523,
			"-0.007": 0.83347532456,
			"-0.006": 6.62759787077,
			"-0.005": 15.4005162074,
			"-0.004": 21.2760656751,
			"-0.003": 27.5674453305,
			"-0.002": 27.538908646,
			"-0.001": 29.6845256567,
			"0.0": 29.3837174021,
			"0.001": 20.8713328504,
			"0.002": 16.089758294,
			"0.003": 13.9791626965,
			"0.004": 8.81598854296,
			"0.005": 3.82115515941,
			"0.006": 3.82497924111,
			"0.007": 3.1763947771,
			"0.008": 2.47917226032,
			"0.009": 3.33967167839,
			"0.01": 3.8364533034,
			"0.011": 3.60448028815,
			"0.012": 6.11878187317,
			"0.013": 3.49020205285,
			"0.014": 1.26583992866,
			"0.015": 0.0695571149658,
			"0.016": 0.0,
			"0.017": 0.0,
			"0.018": 0.0,
			"0.019": 0.0,
			"0.02": 0.0,
			"0.021": 0.0,
			"0.022": 0.0,
			"0.023": 0.0,
			"0.024": 0.0,
			"0.025": 0.0
		}
	}
}
