{
	 "smiles": "OC1=C(I)C=C(F)C=N1", 
	 "Tm": 393.15, 
	 "num_atms": 12, 
	 "gaussian": { 
		 "optdone": 1, 
		 "sigma_profile": "yes", 
		 "theory": "DFT", 
		 "functional": "B3LYP", 
		 "basiset": "6-31G**", 
		 "properties": { 
			 "R2extent": 1319.8112, 
			 "electric_dipole_moment_norm": 0.788900684497, 
			 "electric_quadrupole_moment_norm": 5.24073508775, 
			 "total_energy": -433.527118463, 
			 "HOMO_LUMO_gap": 0.18996, 
			 "cosmo_polarized_energy": -7.06, 
			 "cosmo_cavitation_energy": 20.41, 
			 "cosmo_dispersion_energy": -16.65, 
			 "cosmo_repulsion_energy": 1.31, 
			 "cosmo_total_nonelectrostatic_energy": 5.06, 
			 "SMD_solvation_energy": 2.45 
		},
		"coords": [
			{
				"x": 1.4222080257,
				"y": -1.5006544701,
				"z": 0.8763122674,
				"element": "O" 
			},
			{
				"x": 0.6808980809,
				"y": -0.8753759985,
				"z": -0.0588348086,
				"element": "C" 
			},
			{
				"x": 0.3447401362,
				"y": 0.4828504328,
				"z": 0.1062981233,
				"element": "C" 
			},
			{
				"x": 0.9815613823,
				"y": 1.56576094,
				"z": 1.7978373454,
				"element": "I" 
			},
			{
				"x": -0.4213107547,
				"y": 1.0962796203,
				"z": -0.8780385248,
				"element": "C" 
			},
			{
				"x": -0.8152093412,
				"y": 0.3335679795,
				"z": -1.9752370736,
				"element": "C" 
			},
			{
				"x": -1.558005251,
				"y": 0.8955485192,
				"z": -2.9476673335,
				"element": "F" 
			},
			{
				"x": -0.4440432179,
				"y": -0.9992682507,
				"z": -2.0660906956,
				"element": "C" 
			},
			{
				"x": 0.293702678,
				"y": -1.5847212698,
				"z": -1.1152339872,
				"element": "N" 
			},
			{
				"x": 1.5327681965,
				"y": -2.4134100634,
				"z": 0.5664997921,
				"element": "H" 
			},
			{
				"x": -0.7122372778,
				"y": 2.1378218357,
				"z": -0.8085983626,
				"element": "H" 
			},
			{
				"x": -0.7463726571,
				"y": -1.6021992748,
				"z": -2.9178467423,
				"element": "H" 
			}
		],
		 "valence_orbital": [ 
			{
				"type": "occ",
				"energy": -0.32826,
				"method": "rhf"
			},
			{
				"type": "occ",
				"energy": -0.29229,
				"method": "rhf"
			},
			{
				"type": "occ",
				"energy": -0.27237,
				"method": "rhf"
			},
			{
				"type": "occ",
				"energy": -0.27124,
				"method": "rhf"
			},
			{
				"type": "occ",
				"energy": -0.23888,
				"method": "rhf"
			},
			{
				"type": "unocc",
				"energy": -0.04892,
				"method": "rhf"
			},
			{
				"type": "unocc",
				"energy": -0.04612,
				"method": "rhf"
			},
			{
				"type": "unocc",
				"energy": -0.00954,
				"method": "rhf"
			},
			{
				"type": "unocc",
				"energy": 0.04024,
				"method": "rhf"
			},
			{
				"type": "unocc",
				"energy": 0.04783,
				"method": "rhf"
			}
		],
		"cosmo_sigma_profile": { 
			"-0.025": 0.0,
			"-0.024": 0.0,
			"-0.023": 0.0,
			"-0.022": 0.0,
			"-0.021": 0.0,
			"-0.02": 0.0,
			"-0.019": 0.0,
			"-0.018": 0.485208098555,
			"-0.017": 0.684021223733,
			"-0.016": 0.70030990285,
			"-0.015": 0.831999339216,
			"-0.014": 0.66609157403,
			"-0.013": 0.773032049813,
			"-0.012": 0.674308384185,
			"-0.011": 0.245619132842,
			"-0.01": 1.12717368394,
			"-0.009": 1.70787612763,
			"-0.008": 5.00946262868,
			"-0.007": 4.67725168246,
			"-0.006": 5.9510433118,
			"-0.005": 5.57979534045,
			"-0.004": 6.07647396656,
			"-0.003": 5.00778631008,
			"-0.002": 10.587790342,
			"-0.001": 20.7122676777,
			"0.0": 18.6642653745,
			"0.001": 11.0996033951,
			"0.002": 11.6768463602,
			"0.003": 16.5158604568,
			"0.004": 19.8583611495,
			"0.005": 4.51588334317,
			"0.006": 3.71789323358,
			"0.007": 2.39115044265,
			"0.008": 2.08813042186,
			"0.009": 3.01432329891,
			"0.01": 3.13293829751,
			"0.011": 0.826394254084,
			"0.012": 0.523032526994,
			"0.013": 0.0429494315742,
			"0.014": 0.0,
			"0.015": 0.0,
			"0.016": 0.0,
			"0.017": 0.0,
			"0.018": 0.0,
			"0.019": 0.0,
			"0.02": 0.0,
			"0.021": 0.0,
			"0.022": 0.0,
			"0.023": 0.0,
			"0.024": 0.0,
			"0.025": 0.0
		}
	}
}
