{
	 "smiles": "CC1=C(C#N)C2=CC=CC=C2C(C#N)=C1C", 
	 "Tm": 535.15, 
	 "num_atms": 26, 
	 "gaussian": { 
		 "optdone": 1, 
		 "sigma_profile": "yes", 
		 "theory": "DFT", 
		 "functional": "B3LYP", 
		 "basiset": "6-31G**", 
		 "properties": { 
			 "R2extent": 3662.8656, 
			 "electric_dipole_moment_norm": 0.41182979494, 
			 "electric_quadrupole_moment_norm": 34.9863105678, 
			 "total_energy": -649.012857938, 
			 "HOMO_LUMO_gap": 0.14978, 
			 "cosmo_polarized_energy": -11.64, 
			 "cosmo_cavitation_energy": 30.9, 
			 "cosmo_dispersion_energy": -21.51, 
			 "cosmo_repulsion_energy": 1.62, 
			 "cosmo_total_nonelectrostatic_energy": 11.0, 
			 "SMD_solvation_energy": 7.16 
		},
		"coords": [
			{
				"x": 3.1241691484,
				"y": -1.8597133049,
				"z": -1.2882683639,
				"element": "C" 
			},
			{
				"x": 1.7934598878,
				"y": -1.2446165396,
				"z": -0.9347070818,
				"element": "C" 
			},
			{
				"x": 0.7851793845,
				"y": -1.9955201515,
				"z": -0.3341941387,
				"element": "C" 
			},
			{
				"x": 1.0102096551,
				"y": -3.3822743536,
				"z": -0.0434745057,
				"element": "C" 
			},
			{
				"x": 1.1741849889,
				"y": -4.5087040329,
				"z": 0.1998952277,
				"element": "N" 
			},
			{
				"x": -0.4890299346,
				"y": -1.4339666516,
				"z": 0.0121955861,
				"element": "C" 
			},
			{
				"x": -1.5173715737,
				"y": -2.1965670956,
				"z": 0.623792597,
				"element": "C" 
			},
			{
				"x": -2.7254879038,
				"y": -1.615158909,
				"z": 0.9389138509,
				"element": "C" 
			},
			{
				"x": -2.956782172,
				"y": -0.2493732655,
				"z": 0.6567607706,
				"element": "C" 
			},
			{
				"x": -1.9765822544,
				"y": 0.5149609184,
				"z": 0.0635621767,
				"element": "C" 
			},
			{
				"x": -0.722265683,
				"y": -0.0568400172,
				"z": -0.272339077,
				"element": "C" 
			},
			{
				"x": 0.3287465978,
				"y": 0.6990667206,
				"z": -0.8911374663,
				"element": "C" 
			},
			{
				"x": 0.0841091109,
				"y": 2.0841645912,
				"z": -1.173796932,
				"element": "C" 
			},
			{
				"x": -0.1325274606,
				"y": 3.2062201269,
				"z": -1.3952037118,
				"element": "N" 
			},
			{
				"x": 1.5596437162,
				"y": 0.1353364413,
				"z": -1.2200688319,
				"element": "C" 
			},
			{
				"x": 2.6474195814,
				"y": 0.9526041722,
				"z": -1.8703865344,
				"element": "C" 
			},
			{
				"x": 3.9439232808,
				"y": -1.3446745907,
				"z": -0.7748890347,
				"element": "H" 
			},
			{
				"x": 3.3218469115,
				"y": -1.7779084923,
				"z": -2.3629984667,
				"element": "H" 
			},
			{
				"x": 3.1669503261,
				"y": -2.9149861902,
				"z": -1.0172207887,
				"element": "H" 
			},
			{
				"x": -1.3384367648,
				"y": -3.2447842687,
				"z": 0.8398047607,
				"element": "H" 
			},
			{
				"x": -3.5049052799,
				"y": -2.2087785693,
				"z": 1.4066479196,
				"element": "H" 
			},
			{
				"x": -3.9126461638,
				"y": 0.1991913337,
				"z": 0.9092805461,
				"element": "H" 
			},
			{
				"x": -2.152695932,
				"y": 1.5634161492,
				"z": -0.153615455,
				"element": "H" 
			},
			{
				"x": 2.3366899573,
				"y": 1.9854182021,
				"z": -2.0304963446,
				"element": "H" 
			},
			{
				"x": 3.5530794636,
				"y": 0.9632696897,
				"z": -1.253545146,
				"element": "H" 
			},
			{
				"x": 2.929719112,
				"y": 0.5295180874,
				"z": -2.8410115562,
				"element": "H" 
			}
		],
		 "valence_orbital": [ 
			{
				"type": "occ",
				"energy": -0.33697,
				"method": "rhf"
			},
			{
				"type": "occ",
				"energy": -0.32644,
				"method": "rhf"
			},
			{
				"type": "occ",
				"energy": -0.29622,
				"method": "rhf"
			},
			{
				"type": "occ",
				"energy": -0.26652,
				"method": "rhf"
			},
			{
				"type": "occ",
				"energy": -0.24214,
				"method": "rhf"
			},
			{
				"type": "unocc",
				"energy": -0.09236,
				"method": "rhf"
			},
			{
				"type": "unocc",
				"energy": -0.03817,
				"method": "rhf"
			},
			{
				"type": "unocc",
				"energy": -0.02003,
				"method": "rhf"
			},
			{
				"type": "unocc",
				"energy": 0.02083,
				"method": "rhf"
			},
			{
				"type": "unocc",
				"energy": 0.02275,
				"method": "rhf"
			}
		],
		"cosmo_sigma_profile": { 
			"-0.025": 0.0,
			"-0.024": 0.0,
			"-0.023": 0.0,
			"-0.022": 0.0,
			"-0.021": 0.0,
			"-0.02": 0.0,
			"-0.019": 0.0,
			"-0.018": 0.0,
			"-0.017": 0.0,
			"-0.016": 0.0,
			"-0.015": 0.0,
			"-0.014": 0.0,
			"-0.013": 0.0,
			"-0.012": 0.0,
			"-0.011": 0.0,
			"-0.01": 0.0,
			"-0.009": 0.0,
			"-0.008": 0.00204499611387,
			"-0.007": 5.0636578507,
			"-0.006": 16.087871344,
			"-0.005": 16.4510488648,
			"-0.004": 16.8236705841,
			"-0.003": 26.3760881122,
			"-0.002": 38.4741559621,
			"-0.001": 28.7670217717,
			"0.0": 16.6919443772,
			"0.001": 11.975812206,
			"0.002": 12.5377796493,
			"0.003": 13.3599891626,
			"0.004": 6.15389520602,
			"0.005": 4.10827143666,
			"0.006": 4.7700453688,
			"0.007": 3.59983962931,
			"0.008": 6.14307751736,
			"0.009": 5.75876736254,
			"0.01": 5.34613632708,
			"0.011": 5.3571172813,
			"0.012": 4.83700902596,
			"0.013": 1.14013690209,
			"0.014": 0.0,
			"0.015": 0.0,
			"0.016": 0.0,
			"0.017": 0.0,
			"0.018": 0.0,
			"0.019": 0.0,
			"0.02": 0.0,
			"0.021": 0.0,
			"0.022": 0.0,
			"0.023": 0.0,
			"0.024": 0.0,
			"0.025": 0.0
		}
	}
}
