{
	 "smiles": "O=C1SS(=O)(=O)C2=CC=CC=C12", 
	 "Tm": 378.15, 
	 "num_atms": 16, 
	 "gaussian": { 
		 "optdone": 1, 
		 "sigma_profile": "yes", 
		 "theory": "DFT", 
		 "functional": "B3LYP", 
		 "basiset": "6-31G**", 
		 "properties": { 
			 "R2extent": 2882.0876, 
			 "electric_dipole_moment_norm": 5.44938740502, 
			 "electric_quadrupole_moment_norm": 6.16688281955, 
			 "total_energy": -1291.12372523, 
			 "HOMO_LUMO_gap": 0.18596, 
			 "cosmo_polarized_energy": -12.51, 
			 "cosmo_cavitation_energy": 24.04, 
			 "cosmo_dispersion_energy": -18.8, 
			 "cosmo_repulsion_energy": 1.38, 
			 "cosmo_total_nonelectrostatic_energy": 6.62, 
			 "SMD_solvation_energy": 3.21 
		},
		"coords": [
			{
				"x": -2.3666776675,
				"y": 2.8888299177,
				"z": 0.8358878577,
				"element": "O" 
			},
			{
				"x": -1.287943922,
				"y": 2.3508559291,
				"z": 0.8141916524,
				"element": "C" 
			},
			{
				"x": 0.0410947461,
				"y": 2.8636726995,
				"z": 1.9558478828,
				"element": "S" 
			},
			{
				"x": 1.4775866844,
				"y": 1.4210616855,
				"z": 1.2060570133,
				"element": "S" 
			},
			{
				"x": 1.7625485643,
				"y": 0.4249498708,
				"z": 2.2404586872,
				"element": "O" 
			},
			{
				"x": 2.5747411516,
				"y": 2.1202321587,
				"z": 0.534612176,
				"element": "O" 
			},
			{
				"x": 0.3803380079,
				"y": 0.7066866374,
				"z": -0.026381017,
				"element": "C" 
			},
			{
				"x": 0.7983797662,
				"y": -0.3282947272,
				"z": -0.8564760347,
				"element": "C" 
			},
			{
				"x": -0.1132736627,
				"y": -0.8294568989,
				"z": -1.7887521176,
				"element": "C" 
			},
			{
				"x": -1.4067800211,
				"y": -0.3016960877,
				"z": -1.8796867166,
				"element": "C" 
			},
			{
				"x": -1.8084541557,
				"y": 0.7350682408,
				"z": -1.039975406,
				"element": "C" 
			},
			{
				"x": -0.902639346,
				"y": 1.2440241733,
				"z": -0.1027674788,
				"element": "C" 
			},
			{
				"x": 1.8018819664,
				"y": -0.7330663304,
				"z": -0.7812880057,
				"element": "H" 
			},
			{
				"x": 0.1888065549,
				"y": -1.6371481377,
				"z": -2.4481254808,
				"element": "H" 
			},
			{
				"x": -2.1019355064,
				"y": -0.703375254,
				"z": -2.6100539079,
				"element": "H" 
			},
			{
				"x": -2.8048731607,
				"y": 1.160156123,
				"z": -1.0916491045,
				"element": "H" 
			}
		],
		 "valence_orbital": [ 
			{
				"type": "occ",
				"energy": -0.32131,
				"method": "rhf"
			},
			{
				"type": "occ",
				"energy": -0.30296,
				"method": "rhf"
			},
			{
				"type": "occ",
				"energy": -0.29691,
				"method": "rhf"
			},
			{
				"type": "occ",
				"energy": -0.29358,
				"method": "rhf"
			},
			{
				"type": "occ",
				"energy": -0.28337,
				"method": "rhf"
			},
			{
				"type": "unocc",
				"energy": -0.09741,
				"method": "rhf"
			},
			{
				"type": "unocc",
				"energy": -0.07013,
				"method": "rhf"
			},
			{
				"type": "unocc",
				"energy": -0.06032,
				"method": "rhf"
			},
			{
				"type": "unocc",
				"energy": -0.00309,
				"method": "rhf"
			},
			{
				"type": "unocc",
				"energy": 0.00553,
				"method": "rhf"
			}
		],
		"cosmo_sigma_profile": { 
			"-0.025": 0.0,
			"-0.024": 0.0,
			"-0.023": 0.0,
			"-0.022": 0.0,
			"-0.021": 0.0,
			"-0.02": 0.0,
			"-0.019": 0.0,
			"-0.018": 0.0,
			"-0.017": 0.0,
			"-0.016": 0.0,
			"-0.015": 0.0,
			"-0.014": 0.0,
			"-0.013": 0.0,
			"-0.012": 0.0,
			"-0.011": 0.0317658643145,
			"-0.01": 1.50537466544,
			"-0.009": 4.34509969863,
			"-0.008": 10.9876163533,
			"-0.007": 11.7812143995,
			"-0.006": 8.78363711837,
			"-0.005": 8.33101435567,
			"-0.004": 7.97817366015,
			"-0.003": 11.1267266538,
			"-0.002": 15.6946217049,
			"-0.001": 18.4245382957,
			"0.0": 21.3558179154,
			"0.001": 11.9535298813,
			"0.002": 8.42742439054,
			"0.003": 6.69605201763,
			"0.004": 3.82091128112,
			"0.005": 4.51201934756,
			"0.006": 4.14147927703,
			"0.007": 5.61199220385,
			"0.008": 9.20000957438,
			"0.009": 17.269688008,
			"0.01": 5.16756435741,
			"0.011": 0.0,
			"0.012": 0.0,
			"0.013": 0.0,
			"0.014": 0.0,
			"0.015": 0.0,
			"0.016": 0.0,
			"0.017": 0.0,
			"0.018": 0.0,
			"0.019": 0.0,
			"0.02": 0.0,
			"0.021": 0.0,
			"0.022": 0.0,
			"0.023": 0.0,
			"0.024": 0.0,
			"0.025": 0.0
		}
	}
}
