{
	 "smiles": "OC(=O)CNS(=O)(=O)C1=CC2=C(C=CC=C2)C=C1", 
	 "Tm": 454.15, 
	 "num_atms": 29, 
	 "gaussian": { 
		 "optdone": 1, 
		 "sigma_profile": "yes", 
		 "theory": "DFT", 
		 "functional": "B3LYP", 
		 "basiset": "6-31G**", 
		 "properties": { 
			 "R2extent": 6721.8125, 
			 "electric_dipole_moment_norm": 3.96224456211, 
			 "electric_quadrupole_moment_norm": 20.5056841498, 
			 "total_energy": -1217.69225845, 
			 "HOMO_LUMO_gap": 0.17502, 
			 "cosmo_polarized_energy": -20.19, 
			 "cosmo_cavitation_energy": 35.26, 
			 "cosmo_dispersion_energy": -25.45, 
			 "cosmo_repulsion_energy": 1.92, 
			 "cosmo_total_nonelectrostatic_energy": 11.73, 
			 "SMD_solvation_energy": 5.53 
		},
		"coords": [
			{
				"x": -0.9706901261,
				"y": 5.6455621673,
				"z": -1.2921166182,
				"element": "O" 
			},
			{
				"x": -0.8065534691,
				"y": 4.7028438861,
				"z": -2.2465654912,
				"element": "C" 
			},
			{
				"x": -0.2067404126,
				"y": 4.8865865655,
				"z": -3.2786076158,
				"element": "O" 
			},
			{
				"x": -1.5487854106,
				"y": 3.4141872587,
				"z": -1.9049423265,
				"element": "C" 
			},
			{
				"x": -1.783597676,
				"y": 3.1403726747,
				"z": -0.4897626147,
				"element": "N" 
			},
			{
				"x": -0.4314826013,
				"y": 2.667944041,
				"z": 0.4308838995,
				"element": "S" 
			},
			{
				"x": -0.7799544754,
				"y": 3.0302647079,
				"z": 1.8069906645,
				"element": "O" 
			},
			{
				"x": 0.8050718431,
				"y": 3.1446614446,
				"z": -0.2022833422,
				"element": "O" 
			},
			{
				"x": -0.472959561,
				"y": 0.8869796243,
				"z": 0.2557608816,
				"element": "C" 
			},
			{
				"x": 0.5447856851,
				"y": 0.2594864224,
				"z": -0.4245028563,
				"element": "C" 
			},
			{
				"x": 0.5406476009,
				"y": -1.1554454694,
				"z": -0.5532379562,
				"element": "C" 
			},
			{
				"x": -0.5309957266,
				"y": -1.9030753328,
				"z": 0.0357127589,
				"element": "C" 
			},
			{
				"x": -0.531399721,
				"y": -3.3164535748,
				"z": -0.0966293317,
				"element": "C" 
			},
			{
				"x": 0.47879926,
				"y": -3.9594372176,
				"z": -0.7777215045,
				"element": "C" 
			},
			{
				"x": 1.537898316,
				"y": -3.2197980076,
				"z": -1.3582971226,
				"element": "C" 
			},
			{
				"x": 1.5681831408,
				"y": -1.8476491845,
				"z": -1.2479782936,
				"element": "C" 
			},
			{
				"x": -1.5566290291,
				"y": -1.206636011,
				"z": 0.7362300023,
				"element": "C" 
			},
			{
				"x": -1.5360206534,
				"y": 0.1614657932,
				"z": 0.851921607,
				"element": "C" 
			},
			{
				"x": -0.4674261607,
				"y": 6.4254971376,
				"z": -1.5796999607,
				"element": "H" 
			},
			{
				"x": -2.5245463535,
				"y": 3.4577691863,
				"z": -2.4037879561,
				"element": "H" 
			},
			{
				"x": -1.0008254299,
				"y": 2.586592005,
				"z": -2.3587462755,
				"element": "H" 
			},
			{
				"x": -2.2149058003,
				"y": 3.9195731965,
				"z": 0.0041733775,
				"element": "H" 
			},
			{
				"x": 1.3508351429,
				"y": 0.8462746134,
				"z": -0.8530752286,
				"element": "H" 
			},
			{
				"x": -1.3430466687,
				"y": -3.8845946195,
				"z": 0.3499190403,
				"element": "H" 
			},
			{
				"x": 0.4670769974,
				"y": -5.0413693145,
				"z": -0.8715772015,
				"element": "H" 
			},
			{
				"x": 2.3275642096,
				"y": -3.7408876604,
				"z": -1.8911921414,
				"element": "H" 
			},
			{
				"x": 2.3786418496,
				"y": -1.2749225372,
				"z": -1.6904840406,
				"element": "H" 
			},
			{
				"x": -2.3630242988,
				"y": -1.7786476527,
				"z": 1.1870598102,
				"element": "H" 
			},
			{
				"x": -2.3119204715,
				"y": 0.6912558574,
				"z": 1.3929558362,
				"element": "H" 
			}
		],
		 "valence_orbital": [ 
			{
				"type": "occ",
				"energy": -0.30347,
				"method": "rhf"
			},
			{
				"type": "occ",
				"energy": -0.29837,
				"method": "rhf"
			},
			{
				"type": "occ",
				"energy": -0.27027,
				"method": "rhf"
			},
			{
				"type": "occ",
				"energy": -0.25629,
				"method": "rhf"
			},
			{
				"type": "occ",
				"energy": -0.23492,
				"method": "rhf"
			},
			{
				"type": "unocc",
				"energy": -0.0599,
				"method": "rhf"
			},
			{
				"type": "unocc",
				"energy": -0.03592,
				"method": "rhf"
			},
			{
				"type": "unocc",
				"energy": 0.0026,
				"method": "rhf"
			},
			{
				"type": "unocc",
				"energy": 0.01362,
				"method": "rhf"
			},
			{
				"type": "unocc",
				"energy": 0.05237,
				"method": "rhf"
			}
		],
		"cosmo_sigma_profile": { 
			"-0.025": 0.0,
			"-0.024": 0.0,
			"-0.023": 0.0,
			"-0.022": 0.0,
			"-0.021": 0.0,
			"-0.02": 0.0,
			"-0.019": 0.292133823567,
			"-0.018": 1.18553158324,
			"-0.017": 0.862046621882,
			"-0.016": 0.667738120208,
			"-0.015": 1.14697715155,
			"-0.014": 0.89681664306,
			"-0.013": 1.2934432884,
			"-0.012": 1.3700111328,
			"-0.011": 1.98210178732,
			"-0.01": 2.25314424571,
			"-0.009": 4.52964369819,
			"-0.008": 4.96874122365,
			"-0.007": 14.3454603914,
			"-0.006": 19.3229903791,
			"-0.005": 18.7358769458,
			"-0.004": 16.0908222522,
			"-0.003": 13.6048297022,
			"-0.002": 13.8598702844,
			"-0.001": 13.1160488448,
			"0.0": 13.7366714272,
			"0.001": 17.236900028,
			"0.002": 24.828543454,
			"0.003": 21.8230059331,
			"0.004": 15.3760503632,
			"0.005": 8.69526661585,
			"0.006": 5.72893968455,
			"0.007": 5.29431905392,
			"0.008": 6.21742842578,
			"0.009": 6.66482097667,
			"0.01": 9.47300893365,
			"0.011": 12.228347026,
			"0.012": 3.74901628727,
			"0.013": 0.111007507338,
			"0.014": 0.0,
			"0.015": 0.0,
			"0.016": 0.0,
			"0.017": 0.0,
			"0.018": 0.0,
			"0.019": 0.0,
			"0.02": 0.0,
			"0.021": 0.0,
			"0.022": 0.0,
			"0.023": 0.0,
			"0.024": 0.0,
			"0.025": 0.0
		}
	}
}
