{
	 "smiles": "CSC1=NC(C)=C(CCC(O)=O)C(C)=N1", 
	 "Tm": 290.15, 
	 "num_atms": 29, 
	 "gaussian": { 
		 "optdone": 1, 
		 "sigma_profile": "yes", 
		 "theory": "DFT", 
		 "functional": "B3LYP", 
		 "basiset": "6-31G**", 
		 "properties": { 
			 "R2extent": 4883.3038, 
			 "electric_dipole_moment_norm": 3.37307934979, 
			 "electric_quadrupole_moment_norm": 12.2861264384, 
			 "total_energy": -1047.67830655, 
			 "HOMO_LUMO_gap": 0.18899, 
			 "cosmo_polarized_energy": -14.87, 
			 "cosmo_cavitation_energy": 33.47, 
			 "cosmo_dispersion_energy": -24.27, 
			 "cosmo_repulsion_energy": 1.89, 
			 "cosmo_total_nonelectrostatic_energy": 11.09, 
			 "SMD_solvation_energy": 4.6 
		},
		"coords": [
			{
				"x": -2.6458150945,
				"y": -4.6945447809,
				"z": 1.35725509,
				"element": "C" 
			},
			{
				"x": -1.1452008185,
				"y": -4.6640233923,
				"z": 0.3210741806,
				"element": "S" 
			},
			{
				"x": -0.6955944271,
				"y": -2.9470488555,
				"z": 0.4009847483,
				"element": "C" 
			},
			{
				"x": 0.4087126507,
				"y": -2.6458855165,
				"z": -0.2879269655,
				"element": "N" 
			},
			{
				"x": 0.78126043,
				"y": -1.3593793607,
				"z": -0.2927839461,
				"element": "C" 
			},
			{
				"x": 2.04299504,
				"y": -1.0689435369,
				"z": -1.0697478009,
				"element": "C" 
			},
			{
				"x": 0.0464802436,
				"y": -0.3642597306,
				"z": 0.3879626464,
				"element": "C" 
			},
			{
				"x": 0.46559531,
				"y": 1.0937882729,
				"z": 0.3679196073,
				"element": "C" 
			},
			{
				"x": 0.2822176921,
				"y": 1.8096059251,
				"z": -0.9842596497,
				"element": "C" 
			},
			{
				"x": -1.1625679027,
				"y": 2.0692229107,
				"z": -1.3557726535,
				"element": "C" 
			},
			{
				"x": -1.3058346975,
				"y": 2.2465841705,
				"z": -2.6890501004,
				"element": "O" 
			},
			{
				"x": -2.0960973778,
				"y": 2.1580131929,
				"z": -0.5865754353,
				"element": "O" 
			},
			{
				"x": -1.068561622,
				"y": -0.8151175834,
				"z": 1.1233665377,
				"element": "C" 
			},
			{
				"x": -1.9104469462,
				"y": 0.0958560958,
				"z": 1.981445476,
				"element": "C" 
			},
			{
				"x": -1.4398574349,
				"y": -2.1079326745,
				"z": 1.1192103162,
				"element": "N" 
			},
			{
				"x": -2.9876735526,
				"y": -5.732098515,
				"z": 1.3549147218,
				"element": "H" 
			},
			{
				"x": -2.4199881588,
				"y": -4.3788993625,
				"z": 2.3761984379,
				"element": "H" 
			},
			{
				"x": -3.4183641298,
				"y": -4.0472446978,
				"z": 0.9411287832,
				"element": "H" 
			},
			{
				"x": 2.619356125,
				"y": -1.990646089,
				"z": -1.1625833195,
				"element": "H" 
			},
			{
				"x": 2.6605797161,
				"y": -0.3011254557,
				"z": -0.5950028392,
				"element": "H" 
			},
			{
				"x": 1.8096088303,
				"y": -0.7244641774,
				"z": -2.0843203605,
				"element": "H" 
			},
			{
				"x": -0.088761803,
				"y": 1.6514082997,
				"z": 1.1247627332,
				"element": "H" 
			},
			{
				"x": 1.52478479,
				"y": 1.1735309891,
				"z": 0.6407601509,
				"element": "H" 
			},
			{
				"x": 0.7682047262,
				"y": 2.7942025574,
				"z": -0.945022343,
				"element": "H" 
			},
			{
				"x": 0.7608422149,
				"y": 1.2724997615,
				"z": -1.80601075,
				"element": "H" 
			},
			{
				"x": -2.2455411938,
				"y": 2.4470696768,
				"z": -2.8386301527,
				"element": "H" 
			},
			{
				"x": -2.3145041595,
				"y": 0.9266253284,
				"z": 1.3972108162,
				"element": "H" 
			},
			{
				"x": -1.3180266121,
				"y": 0.5230513031,
				"z": 2.7996576611,
				"element": "H" 
			},
			{
				"x": -2.7275018382,
				"y": -0.4826447555,
				"z": 2.4139344096,
				"element": "H" 
			}
		],
		 "valence_orbital": [ 
			{
				"type": "occ",
				"energy": -0.29151,
				"method": "rhf"
			},
			{
				"type": "occ",
				"energy": -0.28599,
				"method": "rhf"
			},
			{
				"type": "occ",
				"energy": -0.27973,
				"method": "rhf"
			},
			{
				"type": "occ",
				"energy": -0.24242,
				"method": "rhf"
			},
			{
				"type": "occ",
				"energy": -0.21555,
				"method": "rhf"
			},
			{
				"type": "unocc",
				"energy": -0.02656,
				"method": "rhf"
			},
			{
				"type": "unocc",
				"energy": -0.0163,
				"method": "rhf"
			},
			{
				"type": "unocc",
				"energy": -0.00192,
				"method": "rhf"
			},
			{
				"type": "unocc",
				"energy": 0.04853,
				"method": "rhf"
			},
			{
				"type": "unocc",
				"energy": 0.07158,
				"method": "rhf"
			}
		],
		"cosmo_sigma_profile": { 
			"-0.025": 0.0,
			"-0.024": 0.0,
			"-0.023": 0.0,
			"-0.022": 0.0,
			"-0.021": 0.0,
			"-0.02": 0.0,
			"-0.019": 0.0268761189687,
			"-0.018": 0.682541048854,
			"-0.017": 1.09535869902,
			"-0.016": 0.372862558444,
			"-0.015": 1.19587622084,
			"-0.014": 0.974157872019,
			"-0.013": 0.304067732168,
			"-0.012": 0.118345671744,
			"-0.011": 1.03233150188,
			"-0.01": 0.983476872675,
			"-0.009": 0.653576889118,
			"-0.008": 0.371144282885,
			"-0.007": 6.70955651701,
			"-0.006": 12.822959537,
			"-0.005": 18.4037902553,
			"-0.004": 21.8360275416,
			"-0.003": 21.6235905036,
			"-0.002": 23.153760462,
			"-0.001": 25.856156981,
			"0.0": 23.7834213227,
			"0.001": 14.8012555215,
			"0.002": 12.5095630069,
			"0.003": 9.38971243622,
			"0.004": 11.5016229543,
			"0.005": 10.6586731042,
			"0.006": 9.90723308147,
			"0.007": 9.16814826258,
			"0.008": 8.32210495117,
			"0.009": 6.65432781204,
			"0.01": 4.68792995873,
			"0.011": 3.05294027783,
			"0.012": 1.94309097995,
			"0.013": 1.1050801692,
			"0.014": 0.498446169903,
			"0.015": 0.0459871002268,
			"0.016": 0.0,
			"0.017": 0.0,
			"0.018": 0.0,
			"0.019": 0.0,
			"0.02": 0.0,
			"0.021": 0.0,
			"0.022": 0.0,
			"0.023": 0.0,
			"0.024": 0.0,
			"0.025": 0.0
		}
	}
}
