{
	 "smiles": "NC(=O)CCCCC1CCSS1", 
	 "Tm": 401.15, 
	 "num_atms": 27, 
	 "gaussian": { 
		 "optdone": 1, 
		 "sigma_profile": "yes", 
		 "theory": "DFT", 
		 "functional": "B3LYP", 
		 "basiset": "6-31G**", 
		 "properties": { 
			 "R2extent": 3318.9376, 
			 "electric_dipole_moment_norm": 4.45658800541, 
			 "electric_quadrupole_moment_norm": 19.1599975329, 
			 "total_energy": -1240.26899518, 
			 "HOMO_LUMO_gap": 0.16774, 
			 "cosmo_polarized_energy": -15.05, 
			 "cosmo_cavitation_energy": 30.7, 
			 "cosmo_dispersion_energy": -22.62, 
			 "cosmo_repulsion_energy": 1.72, 
			 "cosmo_total_nonelectrostatic_energy": 9.8, 
			 "SMD_solvation_energy": 3.72 
		},
		"coords": [
			{
				"x": -0.4950824114,
				"y": -2.6487452367,
				"z": -0.4219401863,
				"element": "N" 
			},
			{
				"x": 0.0517713981,
				"y": -2.5693706058,
				"z": -1.6750620211,
				"element": "C" 
			},
			{
				"x": -0.5485377222,
				"y": -2.9322054634,
				"z": -2.677887083,
				"element": "O" 
			},
			{
				"x": 1.4662100682,
				"y": -1.9945591726,
				"z": -1.7502596084,
				"element": "C" 
			},
			{
				"x": 1.4529044969,
				"y": -0.5452790497,
				"z": -2.2820211868,
				"element": "C" 
			},
			{
				"x": 0.885750868,
				"y": 0.474772009,
				"z": -1.2775581984,
				"element": "C" 
			},
			{
				"x": 1.8725494323,
				"y": 0.8208254767,
				"z": -0.1489109712,
				"element": "C" 
			},
			{
				"x": 1.2767261426,
				"y": 1.4566744155,
				"z": 1.1213013375,
				"element": "C" 
			},
			{
				"x": 0.3287180159,
				"y": 2.6622318452,
				"z": 0.8953439042,
				"element": "C" 
			},
			{
				"x": -1.151525288,
				"y": 2.2657638387,
				"z": 0.9629775476,
				"element": "C" 
			},
			{
				"x": -1.3720515777,
				"y": 1.2829725494,
				"z": 2.4971047151,
				"element": "S" 
			},
			{
				"x": 0.3610444126,
				"y": 0.1348751751,
				"z": 2.0955130594,
				"element": "S" 
			},
			{
				"x": -0.1074140044,
				"y": -2.1364505157,
				"z": 0.358899764,
				"element": "H" 
			},
			{
				"x": -1.4711475908,
				"y": -2.9045880026,
				"z": -0.3717194065,
				"element": "H" 
			},
			{
				"x": 2.0203885611,
				"y": -2.6295371752,
				"z": -2.447375387,
				"element": "H" 
			},
			{
				"x": 1.9705372866,
				"y": -2.0536792973,
				"z": -0.7789034361,
				"element": "H" 
			},
			{
				"x": 2.4728209161,
				"y": -0.2561756632,
				"z": -2.566432627,
				"element": "H" 
			},
			{
				"x": 0.8556569438,
				"y": -0.5337216568,
				"z": -3.2000203906,
				"element": "H" 
			},
			{
				"x": -0.0408953094,
				"y": 0.0736513144,
				"z": -0.8528870263,
				"element": "H" 
			},
			{
				"x": 0.6088283408,
				"y": 1.3917346366,
				"z": -1.8117934268,
				"element": "H" 
			},
			{
				"x": 2.6331571194,
				"y": 1.5126660541,
				"z": -0.5371874997,
				"element": "H" 
			},
			{
				"x": 2.4266804701,
				"y": -0.0766404334,
				"z": 0.1535262795,
				"element": "H" 
			},
			{
				"x": 2.1031339957,
				"y": 1.7761932932,
				"z": 1.7615659059,
				"element": "H" 
			},
			{
				"x": 0.5186641967,
				"y": 3.4119223584,
				"z": 1.6683181495,
				"element": "H" 
			},
			{
				"x": 0.5498709282,
				"y": 3.1250156331,
				"z": -0.0738213491,
				"element": "H" 
			},
			{
				"x": -1.4624922031,
				"y": 1.6743142156,
				"z": 0.0990410537,
				"element": "H" 
			},
			{
				"x": -1.8016674861,
				"y": 3.1415394575,
				"z": 1.046888088,
				"element": "H" 
			}
		],
		 "valence_orbital": [ 
			{
				"type": "occ",
				"energy": -0.32615,
				"method": "rhf"
			},
			{
				"type": "occ",
				"energy": -0.28691,
				"method": "rhf"
			},
			{
				"type": "occ",
				"energy": -0.25915,
				"method": "rhf"
			},
			{
				"type": "occ",
				"energy": -0.23678,
				"method": "rhf"
			},
			{
				"type": "occ",
				"energy": -0.21484,
				"method": "rhf"
			},
			{
				"type": "unocc",
				"energy": -0.0471,
				"method": "rhf"
			},
			{
				"type": "unocc",
				"energy": 0.00961,
				"method": "rhf"
			},
			{
				"type": "unocc",
				"energy": 0.03311,
				"method": "rhf"
			},
			{
				"type": "unocc",
				"energy": 0.05305,
				"method": "rhf"
			},
			{
				"type": "unocc",
				"energy": 0.06788,
				"method": "rhf"
			}
		],
		"cosmo_sigma_profile": { 
			"-0.025": 0.0,
			"-0.024": 0.0,
			"-0.023": 0.0,
			"-0.022": 0.0,
			"-0.021": 0.0,
			"-0.02": 0.0,
			"-0.019": 0.0,
			"-0.018": 0.0,
			"-0.017": 0.0,
			"-0.016": 0.0,
			"-0.015": 0.0,
			"-0.014": 0.124312861687,
			"-0.013": 0.848014176665,
			"-0.012": 0.995424376986,
			"-0.011": 1.36687036316,
			"-0.01": 0.780219915293,
			"-0.009": 0.823912602591,
			"-0.008": 1.4352003626,
			"-0.007": 5.03116782602,
			"-0.006": 7.69227616105,
			"-0.005": 16.369758174,
			"-0.004": 27.5217514231,
			"-0.003": 29.6923627887,
			"-0.002": 27.2480156329,
			"-0.001": 24.9723842974,
			"0.0": 18.2113065407,
			"0.001": 9.1299752152,
			"0.002": 8.26915549364,
			"0.003": 7.62177277533,
			"0.004": 7.91813518074,
			"0.005": 7.50858709508,
			"0.006": 5.98743053993,
			"0.007": 6.28815526938,
			"0.008": 5.61330505108,
			"0.009": 4.29018571876,
			"0.01": 3.03679307917,
			"0.011": 0.825339405028,
			"0.012": 1.9291998972,
			"0.013": 1.88730076918,
			"0.014": 5.86437770664,
			"0.015": 3.33485238169,
			"0.016": 0.341212486094,
			"0.017": 0.0,
			"0.018": 0.0,
			"0.019": 0.0,
			"0.02": 0.0,
			"0.021": 0.0,
			"0.022": 0.0,
			"0.023": 0.0,
			"0.024": 0.0,
			"0.025": 0.0
		}
	}
}
