{
	 "smiles": "CC(C)N1N=CC2=C1N=C(C)C(CCC(O)=O)=C2C", 
	 "Tm": 290.15, 
	 "num_atms": 38, 
	 "gaussian": { 
		 "optdone": 1, 
		 "sigma_profile": "yes", 
		 "theory": "DFT", 
		 "functional": "B3LYP", 
		 "basiset": "6-31G**", 
		 "properties": { 
			 "R2extent": 6176.602, 
			 "electric_dipole_moment_norm": 2.63707217194, 
			 "electric_quadrupole_moment_norm": 16.022590544, 
			 "total_energy": -859.676637165, 
			 "HOMO_LUMO_gap": 0.18466, 
			 "cosmo_polarized_energy": -15.15, 
			 "cosmo_cavitation_energy": 39.79, 
			 "cosmo_dispersion_energy": -27.39, 
			 "cosmo_repulsion_energy": 2.13, 
			 "cosmo_total_nonelectrostatic_energy": 14.53, 
			 "SMD_solvation_energy": 6.05 
		},
		"coords": [
			{
				"x": -3.1568346474,
				"y": 1.8677726919,
				"z": 2.8901464835,
				"element": "C" 
			},
			{
				"x": -1.706616089,
				"y": 1.4612902787,
				"z": 2.6047243101,
				"element": "C" 
			},
			{
				"x": -0.6966264489,
				"y": 2.2822412792,
				"z": 3.4146014781,
				"element": "C" 
			},
			{
				"x": -1.4185715089,
				"y": 1.5650813147,
				"z": 1.1711673111,
				"element": "N" 
			},
			{
				"x": -1.4867058161,
				"y": 2.7598619026,
				"z": 0.5242426519,
				"element": "N" 
			},
			{
				"x": -1.1740536843,
				"y": 2.5284221575,
				"z": -0.7414745705,
				"element": "C" 
			},
			{
				"x": -0.8828946498,
				"y": 1.1488182778,
				"z": -0.9572709738,
				"element": "C" 
			},
			{
				"x": -1.0568420914,
				"y": 0.5619501113,
				"z": 0.3158662089,
				"element": "C" 
			},
			{
				"x": -0.9161498689,
				"y": -0.7310877793,
				"z": 0.6200447858,
				"element": "N" 
			},
			{
				"x": -0.5516327043,
				"y": -1.5175187745,
				"z": -0.3953611089,
				"element": "C" 
			},
			{
				"x": -0.4116068296,
				"y": -2.9786010317,
				"z": -0.0306742051,
				"element": "C" 
			},
			{
				"x": -0.3193474123,
				"y": -1.0460253021,
				"z": -1.7313650603,
				"element": "C" 
			},
			{
				"x": 0.0865860824,
				"y": -2.0249639671,
				"z": -2.8214948104,
				"element": "C" 
			},
			{
				"x": 1.5467276581,
				"y": -2.5438295264,
				"z": -2.7502653183,
				"element": "C" 
			},
			{
				"x": 2.6077533628,
				"y": -1.4720590952,
				"z": -2.8633127199,
				"element": "C" 
			},
			{
				"x": 2.5548420226,
				"y": -0.8238586173,
				"z": -4.0605741742,
				"element": "O" 
			},
			{
				"x": 3.438565385,
				"y": -1.2036824595,
				"z": -2.0261140583,
				"element": "O" 
			},
			{
				"x": -0.5058176261,
				"y": 0.3134523276,
				"z": -2.0267064543,
				"element": "C" 
			},
			{
				"x": -0.3615838595,
				"y": 0.8969698127,
				"z": -3.4134455034,
				"element": "C" 
			},
			{
				"x": -3.3223220136,
				"y": 2.9119770011,
				"z": 2.6107052489,
				"element": "H" 
			},
			{
				"x": -3.8553182459,
				"y": 1.24429576,
				"z": 2.324353382,
				"element": "H" 
			},
			{
				"x": -3.3779316162,
				"y": 1.7528683371,
				"z": 3.9559519772,
				"element": "H" 
			},
			{
				"x": -1.5745233169,
				"y": 0.3976076433,
				"z": 2.8255426272,
				"element": "H" 
			},
			{
				"x": 0.3259490255,
				"y": 1.9487757896,
				"z": 3.215358481,
				"element": "H" 
			},
			{
				"x": -0.7708787807,
				"y": 3.3418613112,
				"z": 3.1545960589,
				"element": "H" 
			},
			{
				"x": -0.8927726956,
				"y": 2.1714983078,
				"z": 4.4857347374,
				"element": "H" 
			},
			{
				"x": -1.1663835419,
				"y": 3.3496734955,
				"z": -1.4458202127,
				"element": "H" 
			},
			{
				"x": -0.8813073739,
				"y": -3.141617339,
				"z": 0.9402618404,
				"element": "H" 
			},
			{
				"x": -0.8789101778,
				"y": -3.6422331721,
				"z": -0.7654656856,
				"element": "H" 
			},
			{
				"x": 0.6401218363,
				"y": -3.2752661768,
				"z": 0.0551911558,
				"element": "H" 
			},
			{
				"x": -0.5642669639,
				"y": -2.9063257532,
				"z": -2.7915080701,
				"element": "H" 
			},
			{
				"x": -0.0681247802,
				"y": -1.5740803442,
				"z": -3.8036835576,
				"element": "H" 
			},
			{
				"x": 1.7011921788,
				"y": -3.2516931657,
				"z": -3.5737820979,
				"element": "H" 
			},
			{
				"x": 1.7364450235,
				"y": -3.0698975686,
				"z": -1.8147357806,
				"element": "H" 
			},
			{
				"x": 3.2722285105,
				"y": -0.1679670045,
				"z": -4.0379812248,
				"element": "H" 
			},
			{
				"x": -1.181878649,
				"y": 0.5685773449,
				"z": -4.0636941349,
				"element": "H" 
			},
			{
				"x": -0.3913886143,
				"y": 1.9882524775,
				"z": -3.3785921027,
				"element": "H" 
			},
			{
				"x": 0.5728789209,
				"y": 0.5967594551,
				"z": -3.892666914,
				"element": "H" 
			}
		],
		 "valence_orbital": [ 
			{
				"type": "occ",
				"energy": -0.28536,
				"method": "rhf"
			},
			{
				"type": "occ",
				"energy": -0.27541,
				"method": "rhf"
			},
			{
				"type": "occ",
				"energy": -0.25706,
				"method": "rhf"
			},
			{
				"type": "occ",
				"energy": -0.23286,
				"method": "rhf"
			},
			{
				"type": "occ",
				"energy": -0.21856,
				"method": "rhf"
			},
			{
				"type": "unocc",
				"energy": -0.0339,
				"method": "rhf"
			},
			{
				"type": "unocc",
				"energy": 0.00272,
				"method": "rhf"
			},
			{
				"type": "unocc",
				"energy": 0.01143,
				"method": "rhf"
			},
			{
				"type": "unocc",
				"energy": 0.05362,
				"method": "rhf"
			},
			{
				"type": "unocc",
				"energy": 0.06678,
				"method": "rhf"
			}
		],
		"cosmo_sigma_profile": { 
			"-0.025": 0.0,
			"-0.024": 0.0,
			"-0.023": 0.0,
			"-0.022": 0.0,
			"-0.021": 0.0,
			"-0.02": 0.0,
			"-0.019": 0.0,
			"-0.018": 0.4884139694,
			"-0.017": 0.830956023469,
			"-0.016": 1.13184798401,
			"-0.015": 0.594495235216,
			"-0.014": 0.965298255927,
			"-0.013": 0.312639114829,
			"-0.012": 0.269894734937,
			"-0.011": 0.936005264638,
			"-0.01": 1.22331752961,
			"-0.009": 0.377434769932,
			"-0.008": 0.955504178471,
			"-0.007": 3.8115170422,
			"-0.006": 9.90529915112,
			"-0.005": 14.935463523,
			"-0.004": 26.1641307269,
			"-0.003": 33.6603241377,
			"-0.002": 32.3758313499,
			"-0.001": 34.3672912758,
			"0.0": 34.0524902212,
			"0.001": 23.4771890537,
			"0.002": 19.4972436805,
			"0.003": 15.0584630661,
			"0.004": 7.34891390948,
			"0.005": 8.35947855158,
			"0.006": 6.31006224317,
			"0.007": 5.63650344551,
			"0.008": 5.06501516174,
			"0.009": 5.34227092363,
			"0.01": 4.63385249303,
			"0.011": 5.61303704573,
			"0.012": 6.65677084628,
			"0.013": 2.0304180463,
			"0.014": 0.580237681164,
			"0.015": 0.092135192778,
			"0.016": 0.0,
			"0.017": 0.0,
			"0.018": 0.0,
			"0.019": 0.0,
			"0.02": 0.0,
			"0.021": 0.0,
			"0.022": 0.0,
			"0.023": 0.0,
			"0.024": 0.0,
			"0.025": 0.0
		}
	}
}
