{
	 "smiles": "CC(=O)N1C2=CC(=CC=C2C(O)=C1C1=CC=CC=C1)[N+]([O-])=O", 
	 "Tm": 452.15, 
	 "num_atms": 34, 
	 "gaussian": { 
		 "optdone": 1, 
		 "sigma_profile": "yes", 
		 "theory": "DFT", 
		 "functional": "B3LYP", 
		 "basiset": "6-31G**", 
		 "properties": { 
			 "R2extent": 7975.8257, 
			 "electric_dipole_moment_norm": 7.75496394447, 
			 "electric_quadrupole_moment_norm": 27.5231367609, 
			 "total_energy": -1027.23861368, 
			 "HOMO_LUMO_gap": 0.12943, 
			 "cosmo_polarized_energy": -18.89, 
			 "cosmo_cavitation_energy": 38.84, 
			 "cosmo_dispersion_energy": -27.5, 
			 "cosmo_repulsion_energy": 2.06, 
			 "cosmo_total_nonelectrostatic_energy": 13.4, 
			 "SMD_solvation_energy": 9.59 
		},
		"coords": [
			{
				"x": 2.8966501305,
				"y": -1.1900153239,
				"z": 0.5539041516,
				"element": "C" 
			},
			{
				"x": 2.3888586684,
				"y": -0.1731165849,
				"z": -0.4472606471,
				"element": "C" 
			},
			{
				"x": 3.1065333847,
				"y": 0.2734329614,
				"z": -1.3212457769,
				"element": "O" 
			},
			{
				"x": 1.0598316597,
				"y": 0.3108117335,
				"z": -0.3136892989,
				"element": "N" 
			},
			{
				"x": 0.7076070907,
				"y": 1.6172114281,
				"z": -0.7045638508,
				"element": "C" 
			},
			{
				"x": 1.3812541026,
				"y": 2.5365200896,
				"z": -1.5047347734,
				"element": "C" 
			},
			{
				"x": 0.767132759,
				"y": 3.7762211449,
				"z": -1.673542095,
				"element": "C" 
			},
			{
				"x": -0.4577680983,
				"y": 4.1269206972,
				"z": -1.0826679556,
				"element": "C" 
			},
			{
				"x": -1.1081712585,
				"y": 3.2053933246,
				"z": -0.2782660936,
				"element": "C" 
			},
			{
				"x": -0.5258380832,
				"y": 1.9423924517,
				"z": -0.0844953118,
				"element": "C" 
			},
			{
				"x": -0.9327546904,
				"y": 0.7843209983,
				"z": 0.6552195932,
				"element": "C" 
			},
			{
				"x": -2.0843440678,
				"y": 0.6299899131,
				"z": 1.3633458201,
				"element": "O" 
			},
			{
				"x": 0.0106758013,
				"y": -0.2044346993,
				"z": 0.497117134,
				"element": "C" 
			},
			{
				"x": -0.1404189004,
				"y": -1.6180879087,
				"z": 0.868200602,
				"element": "C" 
			},
			{
				"x": 0.0932748037,
				"y": -2.6407955086,
				"z": -0.0704847807,
				"element": "C" 
			},
			{
				"x": -0.1128670648,
				"y": -3.9755419169,
				"z": 0.2700719352,
				"element": "C" 
			},
			{
				"x": -0.5655722694,
				"y": -4.3137633547,
				"z": 1.5482480694,
				"element": "C" 
			},
			{
				"x": -0.8164044929,
				"y": -3.3060039773,
				"z": 2.4808161906,
				"element": "C" 
			},
			{
				"x": -0.6065740926,
				"y": -1.9685152247,
				"z": 2.1466064393,
				"element": "C" 
			},
			{
				"x": 1.4378025069,
				"y": 4.7689716426,
				"z": -2.5237772278,
				"element": "N" 
			},
			{
				"x": 0.8880431015,
				"y": 5.8631631621,
				"z": -2.6665699964,
				"element": "O" 
			},
			{
				"x": 2.5084589203,
				"y": 4.4538235443,
				"z": -3.0427557241,
				"element": "O" 
			},
			{
				"x": 3.9770175415,
				"y": -1.0498970618,
				"z": 0.6130525522,
				"element": "H" 
			},
			{
				"x": 2.7022725055,
				"y": -2.2080585296,
				"z": 0.2075152698,
				"element": "H" 
			},
			{
				"x": 2.4441709446,
				"y": -1.0809688721,
				"z": 1.5403569667,
				"element": "H" 
			},
			{
				"x": 2.3192766796,
				"y": 2.3103265587,
				"z": -1.9874586675,
				"element": "H" 
			},
			{
				"x": -0.8635567268,
				"y": 5.1130226105,
				"z": -1.2663344033,
				"element": "H" 
			},
			{
				"x": -2.0465008723,
				"y": 3.4701536386,
				"z": 0.201333479,
				"element": "H" 
			},
			{
				"x": -2.7385164936,
				"y": 1.2671712178,
				"z": 1.0480532198,
				"element": "H" 
			},
			{
				"x": 0.4159280585,
				"y": -2.3825269406,
				"z": -1.0750952913,
				"element": "H" 
			},
			{
				"x": 0.068319604,
				"y": -4.7522077235,
				"z": -0.467294011,
				"element": "H" 
			},
			{
				"x": -0.7272038222,
				"y": -5.3547738083,
				"z": 1.8117441759,
				"element": "H" 
			},
			{
				"x": -1.173154949,
				"y": -3.5603553806,
				"z": 3.4746161599,
				"element": "H" 
			},
			{
				"x": -0.8017623808,
				"y": -1.1879843019,
				"z": 2.8740341465,
				"element": "H" 
			}
		],
		 "valence_orbital": [ 
			{
				"type": "occ",
				"energy": -0.27962,
				"method": "rhf"
			},
			{
				"type": "occ",
				"energy": -0.27762,
				"method": "rhf"
			},
			{
				"type": "occ",
				"energy": -0.26665,
				"method": "rhf"
			},
			{
				"type": "occ",
				"energy": -0.2525,
				"method": "rhf"
			},
			{
				"type": "occ",
				"energy": -0.21656,
				"method": "rhf"
			},
			{
				"type": "unocc",
				"energy": -0.08713,
				"method": "rhf"
			},
			{
				"type": "unocc",
				"energy": -0.04231,
				"method": "rhf"
			},
			{
				"type": "unocc",
				"energy": -0.03142,
				"method": "rhf"
			},
			{
				"type": "unocc",
				"energy": -0.01795,
				"method": "rhf"
			},
			{
				"type": "unocc",
				"energy": -0.00894,
				"method": "rhf"
			}
		],
		"cosmo_sigma_profile": { 
			"-0.025": 0.0,
			"-0.024": 0.0,
			"-0.023": 0.0,
			"-0.022": 0.0,
			"-0.021": 0.0,
			"-0.02": 0.0,
			"-0.019": 0.0,
			"-0.018": 0.762320932523,
			"-0.017": 1.32311888037,
			"-0.016": 0.837775826785,
			"-0.015": 1.23701155061,
			"-0.014": 1.65249905848,
			"-0.013": 1.16040892073,
			"-0.012": 1.10389937145,
			"-0.011": 1.08760955302,
			"-0.01": 1.29696651527,
			"-0.009": 1.35896445257,
			"-0.008": 1.80200191301,
			"-0.007": 5.53421876777,
			"-0.006": 17.343988182,
			"-0.005": 20.4801039131,
			"-0.004": 24.0068116615,
			"-0.003": 21.6523523268,
			"-0.002": 20.9512715264,
			"-0.001": 23.206994446,
			"0.0": 26.8195105434,
			"0.001": 28.0053018379,
			"0.002": 20.1339148995,
			"0.003": 14.3556612459,
			"0.004": 13.1164520914,
			"0.005": 13.6568496643,
			"0.006": 6.46923209715,
			"0.007": 8.98928823044,
			"0.008": 13.0420714741,
			"0.009": 9.30368707402,
			"0.01": 6.04322529476,
			"0.011": 3.10296430088,
			"0.012": 1.66293200156,
			"0.013": 0.23226220022,
			"0.014": 0.0,
			"0.015": 0.0,
			"0.016": 0.0,
			"0.017": 0.0,
			"0.018": 0.0,
			"0.019": 0.0,
			"0.02": 0.0,
			"0.021": 0.0,
			"0.022": 0.0,
			"0.023": 0.0,
			"0.024": 0.0,
			"0.025": 0.0
		}
	}
}
