{
	 "smiles": "FC(F)(F)COC(=O)NC1=NC(=CS1)C(F)(F)F", 
	 "Tm": 352.15, 
	 "num_atms": 22, 
	 "gaussian": { 
		 "optdone": 1, 
		 "sigma_profile": "yes", 
		 "theory": "DFT", 
		 "functional": "B3LYP", 
		 "basiset": "6-31G**", 
		 "properties": { 
			 "R2extent": 5971.0274, 
			 "electric_dipole_moment_norm": 3.80950849717, 
			 "electric_quadrupole_moment_norm": 10.4485313269, 
			 "total_energy": -1526.34055131, 
			 "HOMO_LUMO_gap": 0.20157, 
			 "cosmo_polarized_energy": -15.07, 
			 "cosmo_cavitation_energy": 33.44, 
			 "cosmo_dispersion_energy": -22.56, 
			 "cosmo_repulsion_energy": 1.61, 
			 "cosmo_total_nonelectrostatic_energy": 12.49, 
			 "SMD_solvation_energy": 8.23 
		},
		"coords": [
			{
				"x": 0.2443918017,
				"y": -0.884922414,
				"z": 4.6210295843,
				"element": "F" 
			},
			{
				"x": 0.1047153457,
				"y": -0.7875511896,
				"z": 3.2801256685,
				"element": "C" 
			},
			{
				"x": 0.6196325386,
				"y": -1.8959448311,
				"z": 2.7249446193,
				"element": "F" 
			},
			{
				"x": 0.8224122437,
				"y": 0.2665093392,
				"z": 2.8608310413,
				"element": "F" 
			},
			{
				"x": -1.3706476938,
				"y": -0.6293334163,
				"z": 2.9651973141,
				"element": "C" 
			},
			{
				"x": -1.4886487071,
				"y": -0.5289463531,
				"z": 1.5449825929,
				"element": "O" 
			},
			{
				"x": -2.7474216891,
				"y": -0.3808472722,
				"z": 1.1072869117,
				"element": "C" 
			},
			{
				"x": -3.7364583252,
				"y": -0.3295077845,
				"z": 1.8089546786,
				"element": "O" 
			},
			{
				"x": -2.8340664772,
				"y": -0.285041948,
				"z": -0.2768254118,
				"element": "N" 
			},
			{
				"x": -1.85132567,
				"y": -0.3183928719,
				"z": -1.2546407648,
				"element": "C" 
			},
			{
				"x": -0.5762770598,
				"y": -0.453697497,
				"z": -1.0750324449,
				"element": "N" 
			},
			{
				"x": 0.0763779543,
				"y": -0.4403786977,
				"z": -2.2861426007,
				"element": "C" 
			},
			{
				"x": -0.6860236521,
				"y": -0.2954749884,
				"z": -3.4037207567,
				"element": "C" 
			},
			{
				"x": -2.3581117984,
				"y": -0.1615688286,
				"z": -2.9503505317,
				"element": "S" 
			},
			{
				"x": 1.5710104364,
				"y": -0.5851338959,
				"z": -2.2956760846,
				"element": "C" 
			},
			{
				"x": 2.1685078851,
				"y": 0.4057713353,
				"z": -1.607705943,
				"element": "F" 
			},
			{
				"x": 2.0419631494,
				"y": -0.5508703763,
				"z": -3.5625858762,
				"element": "F" 
			},
			{
				"x": 1.9588039537,
				"y": -1.750227794,
				"z": -1.7439665551,
				"element": "F" 
			},
			{
				"x": -1.7516849155,
				"y": 0.2704640058,
				"z": 3.4537582128,
				"element": "H" 
			},
			{
				"x": -1.9174997574,
				"y": -1.4965449666,
				"z": 3.3426186058,
				"element": "H" 
			},
			{
				"x": -3.7918898842,
				"y": -0.1735360356,
				"z": -0.5780997523,
				"element": "H" 
			},
			{
				"x": -0.3729596786,
				"y": -0.2605235194,
				"z": -4.4357825075,
				"element": "H" 
			}
		],
		 "valence_orbital": [ 
			{
				"type": "occ",
				"energy": -0.33028,
				"method": "rhf"
			},
			{
				"type": "occ",
				"energy": -0.31021,
				"method": "rhf"
			},
			{
				"type": "occ",
				"energy": -0.308,
				"method": "rhf"
			},
			{
				"type": "occ",
				"energy": -0.30148,
				"method": "rhf"
			},
			{
				"type": "occ",
				"energy": -0.24996,
				"method": "rhf"
			},
			{
				"type": "unocc",
				"energy": -0.04839,
				"method": "rhf"
			},
			{
				"type": "unocc",
				"energy": -0.02434,
				"method": "rhf"
			},
			{
				"type": "unocc",
				"energy": 0.00262,
				"method": "rhf"
			},
			{
				"type": "unocc",
				"energy": 0.04871,
				"method": "rhf"
			},
			{
				"type": "unocc",
				"energy": 0.05921,
				"method": "rhf"
			}
		],
		"cosmo_sigma_profile": { 
			"-0.025": 0.0,
			"-0.024": 0.0,
			"-0.023": 0.0,
			"-0.022": 0.0,
			"-0.021": 0.0,
			"-0.02": 0.0,
			"-0.019": 0.0239126854386,
			"-0.018": 0.598597399856,
			"-0.017": 1.42682718728,
			"-0.016": 0.896776893398,
			"-0.015": 1.01801705179,
			"-0.014": 0.992620146469,
			"-0.013": 0.8341807047,
			"-0.012": 0.814031501342,
			"-0.011": 1.9637867863,
			"-0.01": 4.80754071895,
			"-0.009": 6.11757261635,
			"-0.008": 6.73897846777,
			"-0.007": 6.53802605141,
			"-0.006": 6.39468410704,
			"-0.005": 8.82074997159,
			"-0.004": 7.47645951403,
			"-0.003": 11.9525838418,
			"-0.002": 16.9506679253,
			"-0.001": 14.9575545544,
			"0.0": 21.2992234939,
			"0.001": 20.9094312239,
			"0.002": 53.2944181133,
			"0.003": 39.6879336261,
			"0.004": 7.003582886,
			"0.005": 5.1956578792,
			"0.006": 4.3040381072,
			"0.007": 2.11418986262,
			"0.008": 2.82082009912,
			"0.009": 3.5139337632,
			"0.01": 4.39713678077,
			"0.011": 5.99906984632,
			"0.012": 1.28704988313,
			"0.013": 0.0,
			"0.014": 0.0,
			"0.015": 0.0,
			"0.016": 0.0,
			"0.017": 0.0,
			"0.018": 0.0,
			"0.019": 0.0,
			"0.02": 0.0,
			"0.021": 0.0,
			"0.022": 0.0,
			"0.023": 0.0,
			"0.024": 0.0,
			"0.025": 0.0
		}
	}
}
