{
	 "smiles": "CCCCOC(=O)CC(=O)OCCCC", 
	 "Tm": 190.15, 
	 "num_atms": 35, 
	 "gaussian": { 
		 "optdone": 1, 
		 "sigma_profile": "yes", 
		 "theory": "DFT", 
		 "functional": "B3LYP", 
		 "basiset": "6-31G**", 
		 "properties": { 
			 "R2extent": 5528.0661, 
			 "electric_dipole_moment_norm": 2.64467931137, 
			 "electric_quadrupole_moment_norm": 14.3807791559, 
			 "total_energy": -732.162051722, 
			 "HOMO_LUMO_gap": 0.27515, 
			 "cosmo_polarized_energy": -10.61, 
			 "cosmo_cavitation_energy": 37.83, 
			 "cosmo_dispersion_energy": -25.06, 
			 "cosmo_repulsion_energy": 2.04, 
			 "cosmo_total_nonelectrostatic_energy": 14.82, 
			 "SMD_solvation_energy": 7.8 
		},
		"coords": [
			{
				"x": 0.9292340608,
				"y": 2.6948802766,
				"z": 2.547298585,
				"element": "C" 
			},
			{
				"x": -0.4033804376,
				"y": 2.5661315328,
				"z": 1.8034025866,
				"element": "C" 
			},
			{
				"x": -1.2282240322,
				"y": 1.3584109411,
				"z": 2.2661255426,
				"element": "C" 
			},
			{
				"x": -2.5592729608,
				"y": 1.1970475579,
				"z": 1.5400125597,
				"element": "C" 
			},
			{
				"x": -2.3736439019,
				"y": 1.0127393073,
				"z": 0.1108822246,
				"element": "O" 
			},
			{
				"x": -2.1916883163,
				"y": -0.2513911698,
				"z": -0.3177249487,
				"element": "C" 
			},
			{
				"x": -2.1754866555,
				"y": -1.2284526859,
				"z": 0.3987837893,
				"element": "O" 
			},
			{
				"x": -2.0243342397,
				"y": -0.2669933877,
				"z": -1.8314231782,
				"element": "C" 
			},
			{
				"x": -1.8384045825,
				"y": -1.6811835927,
				"z": -2.3474615096,
				"element": "C" 
			},
			{
				"x": -2.7380484287,
				"y": -2.3804098712,
				"z": -2.755507709,
				"element": "O" 
			},
			{
				"x": -0.5411355811,
				"y": -2.0428824027,
				"z": -2.2890436992,
				"element": "O" 
			},
			{
				"x": -0.236235348,
				"y": -3.4155362166,
				"z": -2.6509704446,
				"element": "C" 
			},
			{
				"x": -0.3032286857,
				"y": -4.3550378899,
				"z": -1.4476558514,
				"element": "C" 
			},
			{
				"x": 0.8657956763,
				"y": -4.2560941329,
				"z": -0.4537193598,
				"element": "C" 
			},
			{
				"x": 0.9877318993,
				"y": -2.9190577657,
				"z": 0.2877863655,
				"element": "C" 
			},
			{
				"x": 1.4976381774,
				"y": 3.563159901,
				"z": 2.1989598432,
				"element": "H" 
			},
			{
				"x": 0.7732853163,
				"y": 2.8104364056,
				"z": 3.6260532056,
				"element": "H" 
			},
			{
				"x": 1.5535064264,
				"y": 1.8067135192,
				"z": 2.3979583847,
				"element": "H" 
			},
			{
				"x": -0.2193247783,
				"y": 2.4843815705,
				"z": 0.7256196451,
				"element": "H" 
			},
			{
				"x": -0.9938013794,
				"y": 3.482119144,
				"z": 1.9433845662,
				"element": "H" 
			},
			{
				"x": -0.6497392506,
				"y": 0.4341814218,
				"z": 2.1495006945,
				"element": "H" 
			},
			{
				"x": -1.4508685311,
				"y": 1.4496177454,
				"z": 3.3384020594,
				"element": "H" 
			},
			{
				"x": -3.1197714195,
				"y": 0.3451764008,
				"z": 1.9310569794,
				"element": "H" 
			},
			{
				"x": -3.1674543505,
				"y": 2.1025607864,
				"z": 1.6162200598,
				"element": "H" 
			},
			{
				"x": -1.1692807286,
				"y": 0.3625151577,
				"z": -2.0941076185,
				"element": "H" 
			},
			{
				"x": -2.9203882254,
				"y": 0.1618455588,
				"z": -2.2870743267,
				"element": "H" 
			},
			{
				"x": 0.7724919893,
				"y": -3.3727483714,
				"z": -3.0719800805,
				"element": "H" 
			},
			{
				"x": -0.9412858287,
				"y": -3.7271989739,
				"z": -3.4244074325,
				"element": "H" 
			},
			{
				"x": -1.2581150679,
				"y": -4.1909892337,
				"z": -0.9347043924,
				"element": "H" 
			},
			{
				"x": -0.3394173479,
				"y": -5.3774244264,
				"z": -1.8473816442,
				"element": "H" 
			},
			{
				"x": 0.7497908087,
				"y": -5.0629382091,
				"z": 0.2812266475,
				"element": "H" 
			},
			{
				"x": 1.8041726494,
				"y": -4.4685695783,
				"z": -0.985818211,
				"element": "H" 
			},
			{
				"x": 1.7836910593,
				"y": -2.9669365122,
				"z": 1.0390296213,
				"element": "H" 
			},
			{
				"x": 1.2203999471,
				"y": -2.0990537928,
				"z": -0.3974574422,
				"element": "H" 
			},
			{
				"x": 0.0519920677,
				"y": -2.6617190139,
				"z": 0.7938344885,
				"element": "H" 
			}
		],
		 "valence_orbital": [ 
			{
				"type": "occ",
				"energy": -0.31683,
				"method": "rhf"
			},
			{
				"type": "occ",
				"energy": -0.30317,
				"method": "rhf"
			},
			{
				"type": "occ",
				"energy": -0.28966,
				"method": "rhf"
			},
			{
				"type": "occ",
				"energy": -0.28192,
				"method": "rhf"
			},
			{
				"type": "occ",
				"energy": -0.27184,
				"method": "rhf"
			},
			{
				"type": "unocc",
				"energy": 0.00331,
				"method": "rhf"
			},
			{
				"type": "unocc",
				"energy": 0.00867,
				"method": "rhf"
			},
			{
				"type": "unocc",
				"energy": 0.08643,
				"method": "rhf"
			},
			{
				"type": "unocc",
				"energy": 0.09794,
				"method": "rhf"
			},
			{
				"type": "unocc",
				"energy": 0.11135,
				"method": "rhf"
			}
		],
		"cosmo_sigma_profile": { 
			"-0.025": 0.0,
			"-0.024": 0.0,
			"-0.023": 0.0,
			"-0.022": 0.0,
			"-0.021": 0.0,
			"-0.02": 0.0,
			"-0.019": 0.0,
			"-0.018": 0.0,
			"-0.017": 0.0,
			"-0.016": 0.0,
			"-0.015": 0.0,
			"-0.014": 0.0,
			"-0.013": 0.0,
			"-0.012": 0.0,
			"-0.011": 0.0,
			"-0.01": 0.0,
			"-0.009": 0.224270443556,
			"-0.008": 3.30685064232,
			"-0.007": 3.75215030215,
			"-0.006": 6.18059385326,
			"-0.005": 13.6826251121,
			"-0.004": 20.8782701626,
			"-0.003": 29.4529538034,
			"-0.002": 38.1277951695,
			"-0.001": 35.8762893243,
			"0.0": 37.451674296,
			"0.001": 30.4407239562,
			"0.002": 18.0021084146,
			"0.003": 8.8207580428,
			"0.004": 8.5410156844,
			"0.005": 6.51625765434,
			"0.006": 6.90918542432,
			"0.007": 5.29578792278,
			"0.008": 3.36998865263,
			"0.009": 3.59552563735,
			"0.01": 4.00040203564,
			"0.011": 5.5744912756,
			"0.012": 3.67575059842,
			"0.013": 0.358784343932,
			"0.014": 0.0,
			"0.015": 0.0,
			"0.016": 0.0,
			"0.017": 0.0,
			"0.018": 0.0,
			"0.019": 0.0,
			"0.02": 0.0,
			"0.021": 0.0,
			"0.022": 0.0,
			"0.023": 0.0,
			"0.024": 0.0,
			"0.025": 0.0
		}
	}
}
