{
	 "smiles": "CC1=NC(=C(Br)N1)[N+]([O-])=O", 
	 "Tm": 529.15, 
	 "num_atms": 14, 
	 "gaussian": { 
		 "optdone": 1, 
		 "sigma_profile": "yes", 
		 "theory": "DFT", 
		 "functional": "B3LYP", 
		 "basiset": "6-31G**", 
		 "properties": { 
			 "R2extent": 4977.2922, 
			 "electric_dipole_moment_norm": 7.47526038209, 
			 "electric_quadrupole_moment_norm": 22.6003850042, 
			 "total_energy": -3040.82956482, 
			 "HOMO_LUMO_gap": 0.17889, 
			 "cosmo_polarized_energy": -19.67, 
			 "cosmo_cavitation_energy": 21.91, 
			 "cosmo_dispersion_energy": -16.68, 
			 "cosmo_repulsion_energy": 1.38, 
			 "cosmo_total_nonelectrostatic_energy": 6.61, 
			 "SMD_solvation_energy": 3.65 
		},
		"coords": [
			{
				"x": 0.1387343617,
				"y": -1.3811654701,
				"z": 0.6648895431,
				"element": "C" 
			},
			{
				"x": 0.899776138,
				"y": -0.559613191,
				"z": -0.321192362,
				"element": "C" 
			},
			{
				"x": 0.5846887482,
				"y": -0.3775669823,
				"z": -1.5832590442,
				"element": "N" 
			},
			{
				"x": 1.5532482894,
				"y": 0.4359862785,
				"z": -2.0963592922,
				"element": "C" 
			},
			{
				"x": 2.4887386285,
				"y": 0.7666122064,
				"z": -1.136465843,
				"element": "C" 
			},
			{
				"x": 4.0365415071,
				"y": 1.8012073146,
				"z": -1.1096839729,
				"element": "Br" 
			},
			{
				"x": 2.0566946229,
				"y": 0.1216892737,
				"z": -0.0051220007,
				"element": "N" 
			},
			{
				"x": 1.5334664968,
				"y": 0.8541956117,
				"z": -3.4768321046,
				"element": "N" 
			},
			{
				"x": 0.6139110046,
				"y": 0.4543764181,
				"z": -4.182589384,
				"element": "O" 
			},
			{
				"x": 2.4554631801,
				"y": 1.5904476415,
				"z": -3.8435694423,
				"element": "O" 
			},
			{
				"x": 0.7472370705,
				"y": -2.1999725682,
				"z": 1.0646951342,
				"element": "H" 
			},
			{
				"x": -0.2122066826,
				"y": -0.7775949956,
				"z": 1.5093439414,
				"element": "H" 
			},
			{
				"x": -0.7279877997,
				"y": -1.8076005927,
				"z": 0.1588133701,
				"element": "H" 
			},
			{
				"x": 2.5250944345,
				"y": 0.1577990553,
				"z": 0.8895314571,
				"element": "H" 
			}
		],
		 "valence_orbital": [ 
			{
				"type": "occ",
				"energy": -0.30654,
				"method": "rhf"
			},
			{
				"type": "occ",
				"energy": -0.29676,
				"method": "rhf"
			},
			{
				"type": "occ",
				"energy": -0.29389,
				"method": "rhf"
			},
			{
				"type": "occ",
				"energy": -0.27667,
				"method": "rhf"
			},
			{
				"type": "occ",
				"energy": -0.25304,
				"method": "rhf"
			},
			{
				"type": "unocc",
				"energy": -0.07415,
				"method": "rhf"
			},
			{
				"type": "unocc",
				"energy": -0.01584,
				"method": "rhf"
			},
			{
				"type": "unocc",
				"energy": -0.00693,
				"method": "rhf"
			},
			{
				"type": "unocc",
				"energy": 0.05344,
				"method": "rhf"
			},
			{
				"type": "unocc",
				"energy": 0.06207,
				"method": "rhf"
			}
		],
		"cosmo_sigma_profile": { 
			"-0.025": 0.0,
			"-0.024": 0.0,
			"-0.023": 0.0,
			"-0.022": 0.0,
			"-0.021": 0.0,
			"-0.02": 0.0,
			"-0.019": 0.157146788759,
			"-0.018": 1.10955135819,
			"-0.017": 1.53627012908,
			"-0.016": 1.40696148219,
			"-0.015": 0.754861620817,
			"-0.014": 1.42116657219,
			"-0.013": 1.39870698754,
			"-0.012": 1.13979413994,
			"-0.011": 1.5494810283,
			"-0.01": 1.4669153897,
			"-0.009": 0.947053344656,
			"-0.008": 1.85855732833,
			"-0.007": 5.03942238172,
			"-0.006": 9.72790137844,
			"-0.005": 9.98797390039,
			"-0.004": 10.9911919251,
			"-0.003": 14.7186955226,
			"-0.002": 19.4685195001,
			"-0.001": 11.0432561878,
			"0.0": 7.42625609776,
			"0.001": 9.516425662,
			"0.002": 10.4954304928,
			"0.003": 4.07053669085,
			"0.004": 4.26901825711,
			"0.005": 4.67361712829,
			"0.006": 4.31019500301,
			"0.007": 4.71993490022,
			"0.008": 12.2451045101,
			"0.009": 7.68831783102,
			"0.01": 5.51254341141,
			"0.011": 2.40886220952,
			"0.012": 1.06771606911,
			"0.013": 1.79168293213,
			"0.014": 1.01660419556,
			"0.015": 1.13512590477,
			"0.016": 0.770451388581,
			"0.017": 0.0,
			"0.018": 0.0,
			"0.019": 0.0,
			"0.02": 0.0,
			"0.021": 0.0,
			"0.022": 0.0,
			"0.023": 0.0,
			"0.024": 0.0,
			"0.025": 0.0
		}
	}
}
