{
	 "smiles": "OC(=O)CC1(CC(O)=O)CCCCC1", 
	 "Tm": 456.15, 
	 "num_atms": 30, 
	 "gaussian": { 
		 "optdone": 1, 
		 "sigma_profile": "yes", 
		 "theory": "DFT", 
		 "functional": "B3LYP", 
		 "basiset": "6-31G**", 
		 "properties": { 
			 "R2extent": 3123.8728, 
			 "electric_dipole_moment_norm": 7.65155970113, 
			 "electric_quadrupole_moment_norm": 11.8238012686, 
			 "total_energy": -691.64034415, 
			 "HOMO_LUMO_gap": 0.22466, 
			 "cosmo_polarized_energy": -22.04, 
			 "cosmo_cavitation_energy": 29.48, 
			 "cosmo_dispersion_energy": -21.65, 
			 "cosmo_repulsion_energy": 1.68, 
			 "cosmo_total_nonelectrostatic_energy": 9.5, 
			 "SMD_solvation_energy": 6.05 
		},
		"coords": [
			{
				"x": 1.4646681635,
				"y": 4.5165261407,
				"z": -0.0607561636,
				"element": "O" 
			},
			{
				"x": 0.8339551225,
				"y": 3.3557630178,
				"z": 0.2166383508,
				"element": "C" 
			},
			{
				"x": -0.16788104,
				"y": 3.3976756792,
				"z": 0.901614795,
				"element": "O" 
			},
			{
				"x": 1.4944093393,
				"y": 2.1059395237,
				"z": -0.3448666354,
				"element": "C" 
			},
			{
				"x": 0.6896621521,
				"y": 0.7825372517,
				"z": -0.3160544335,
				"element": "C" 
			},
			{
				"x": 0.3806161327,
				"y": 0.3810836915,
				"z": 1.1806179696,
				"element": "C" 
			},
			{
				"x": -1.0829961642,
				"y": 0.2305322673,
				"z": 1.605051482,
				"element": "C" 
			},
			{
				"x": -1.7937714027,
				"y": 1.3641986262,
				"z": 1.71756292,
				"element": "O" 
			},
			{
				"x": -1.5808310852,
				"y": -0.8476125419,
				"z": 1.8471961181,
				"element": "O" 
			},
			{
				"x": 1.6201878754,
				"y": -0.3017703883,
				"z": -0.931112506,
				"element": "C" 
			},
			{
				"x": 0.9089024454,
				"y": -1.6346666176,
				"z": -1.2028644118,
				"element": "C" 
			},
			{
				"x": -0.2836676205,
				"y": -1.4354210791,
				"z": -2.147064676,
				"element": "C" 
			},
			{
				"x": -1.2611350571,
				"y": -0.404650914,
				"z": -1.5681007091,
				"element": "C" 
			},
			{
				"x": -0.5604267943,
				"y": 0.9244726701,
				"z": -1.2318609406,
				"element": "C" 
			},
			{
				"x": 2.2418280082,
				"y": 4.3580733085,
				"z": -0.6159011792,
				"element": "H" 
			},
			{
				"x": 1.7904178769,
				"y": 2.322602292,
				"z": -1.3804129958,
				"element": "H" 
			},
			{
				"x": 2.4334346634,
				"y": 1.975705875,
				"z": 0.2143921697,
				"element": "H" 
			},
			{
				"x": 0.8438899241,
				"y": 1.1116938656,
				"z": 1.8530889372,
				"element": "H" 
			},
			{
				"x": 0.8383010055,
				"y": -0.5838322534,
				"z": 1.4015030813,
				"element": "H" 
			},
			{
				"x": -1.2385074985,
				"y": 2.1388480826,
				"z": 1.482021506,
				"element": "H" 
			},
			{
				"x": 2.0181906781,
				"y": 0.0777845181,
				"z": -1.8836257477,
				"element": "H" 
			},
			{
				"x": 2.4855256342,
				"y": -0.4540358366,
				"z": -0.2722905965,
				"element": "H" 
			},
			{
				"x": 1.6257543131,
				"y": -2.3471865801,
				"z": -1.6274562594,
				"element": "H" 
			},
			{
				"x": 0.5534311232,
				"y": -2.0723264722,
				"z": -0.2610339441,
				"element": "H" 
			},
			{
				"x": -0.7966376312,
				"y": -2.3883962243,
				"z": -2.3191081685,
				"element": "H" 
			},
			{
				"x": 0.0815056486,
				"y": -1.0927661538,
				"z": -3.1264976082,
				"element": "H" 
			},
			{
				"x": -2.0705626318,
				"y": -0.2032080681,
				"z": -2.2794618106,
				"element": "H" 
			},
			{
				"x": -1.7327098114,
				"y": -0.8208198341,
				"z": -0.672614699,
				"element": "H" 
			},
			{
				"x": -0.2199492897,
				"y": 1.3798907348,
				"z": -2.1736796766,
				"element": "H" 
			},
			{
				"x": -1.2782040795,
				"y": 1.6221654188,
				"z": -0.7929241679,
				"element": "H" 
			}
		],
		 "valence_orbital": [ 
			{
				"type": "occ",
				"energy": -0.31552,
				"method": "rhf"
			},
			{
				"type": "occ",
				"energy": -0.30774,
				"method": "rhf"
			},
			{
				"type": "occ",
				"energy": -0.29965,
				"method": "rhf"
			},
			{
				"type": "occ",
				"energy": -0.28771,
				"method": "rhf"
			},
			{
				"type": "occ",
				"energy": -0.24989,
				"method": "rhf"
			},
			{
				"type": "unocc",
				"energy": -0.02523,
				"method": "rhf"
			},
			{
				"type": "unocc",
				"energy": 0.02122,
				"method": "rhf"
			},
			{
				"type": "unocc",
				"energy": 0.03205,
				"method": "rhf"
			},
			{
				"type": "unocc",
				"energy": 0.06267,
				"method": "rhf"
			},
			{
				"type": "unocc",
				"energy": 0.09658,
				"method": "rhf"
			}
		],
		"cosmo_sigma_profile": { 
			"-0.025": 0.0,
			"-0.024": 0.0,
			"-0.023": 0.0,
			"-0.022": 0.0,
			"-0.021": 0.0,
			"-0.02": 0.355655639243,
			"-0.019": 1.13972824789,
			"-0.018": 0.791794687284,
			"-0.017": 1.38346077184,
			"-0.016": 1.19122834136,
			"-0.015": 0.94634074307,
			"-0.014": 0.960873679469,
			"-0.013": 1.57697339054,
			"-0.012": 1.09937990305,
			"-0.011": 1.18703326078,
			"-0.01": 0.965286857906,
			"-0.009": 2.32357340365,
			"-0.008": 4.2679915617,
			"-0.007": 5.47569240852,
			"-0.006": 8.57059756829,
			"-0.005": 7.65963726945,
			"-0.004": 11.8139305785,
			"-0.003": 16.475663914,
			"-0.002": 25.4516701481,
			"-0.001": 25.0052694875,
			"0.0": 26.5914141432,
			"0.001": 18.5492610284,
			"0.002": 6.62352456215,
			"0.003": 4.63924315305,
			"0.004": 4.67124371602,
			"0.005": 4.34325295987,
			"0.006": 4.20229528707,
			"0.007": 4.05826836357,
			"0.008": 5.85324729698,
			"0.009": 5.3563912676,
			"0.01": 6.61430295652,
			"0.011": 5.62862575235,
			"0.012": 6.50553438811,
			"0.013": 4.36916358465,
			"0.014": 1.71125007126,
			"0.015": 0.0696123000623,
			"0.016": 0.0,
			"0.017": 0.0,
			"0.018": 0.0,
			"0.019": 0.0,
			"0.02": 0.0,
			"0.021": 0.0,
			"0.022": 0.0,
			"0.023": 0.0,
			"0.024": 0.0,
			"0.025": 0.0
		}
	}
}
