{
	 "smiles": "CC1=C(F)C=CC(C(O)=O)=C1Cl", 
	 "Tm": 460.65, 
	 "num_atms": 18, 
	 "gaussian": { 
		 "optdone": 1, 
		 "sigma_profile": "yes", 
		 "theory": "DFT", 
		 "functional": "B3LYP", 
		 "basiset": "6-31G**", 
		 "properties": { 
			 "R2extent": 2951.9518, 
			 "electric_dipole_moment_norm": 4.20384279678, 
			 "electric_quadrupole_moment_norm": 12.9003788762, 
			 "total_energy": -1018.95390437, 
			 "HOMO_LUMO_gap": 0.20906, 
			 "cosmo_polarized_energy": -9.79, 
			 "cosmo_cavitation_energy": 24.08, 
			 "cosmo_dispersion_energy": -18.11, 
			 "cosmo_repulsion_energy": 1.39, 
			 "cosmo_total_nonelectrostatic_energy": 7.36, 
			 "SMD_solvation_energy": 5.61 
		},
		"coords": [
			{
				"x": 2.8396691692,
				"y": -1.7724548197,
				"z": 1.6223684319,
				"element": "C" 
			},
			{
				"x": 1.5890566508,
				"y": -1.181536168,
				"z": 1.0240961371,
				"element": "C" 
			},
			{
				"x": 1.0886905617,
				"y": -1.6613976437,
				"z": -0.1897727008,
				"element": "C" 
			},
			{
				"x": 1.7475367436,
				"y": -2.6640798965,
				"z": -0.8024067083,
				"element": "F" 
			},
			{
				"x": -0.0515603818,
				"y": -1.1551015553,
				"z": -0.798452403,
				"element": "C" 
			},
			{
				"x": -0.7300877666,
				"y": -0.1228854237,
				"z": -0.171346527,
				"element": "C" 
			},
			{
				"x": -0.3026432438,
				"y": 0.4149422158,
				"z": 1.0553742531,
				"element": "C" 
			},
			{
				"x": -1.1885794124,
				"y": 1.5359486649,
				"z": 1.5708055635,
				"element": "C" 
			},
			{
				"x": -1.0164055001,
				"y": 2.0074563496,
				"z": 2.8171832877,
				"element": "O" 
			},
			{
				"x": -2.0658916582,
				"y": 1.9945645199,
				"z": 0.873317452,
				"element": "O" 
			},
			{
				"x": 0.861559333,
				"y": -0.1391857298,
				"z": 1.6211125148,
				"element": "C" 
			},
			{
				"x": 1.5266525757,
				"y": 0.4626947103,
				"z": 3.1541730054,
				"element": "Cl" 
			},
			{
				"x": 2.6443023517,
				"y": -2.1855699253,
				"z": 2.6169165152,
				"element": "H" 
			},
			{
				"x": 3.6204372141,
				"y": -1.013352421,
				"z": 1.733785642,
				"element": "H" 
			},
			{
				"x": 3.2214974397,
				"y": -2.5696729648,
				"z": 0.9853334519,
				"element": "H" 
			},
			{
				"x": -0.3850100834,
				"y": -1.5705108566,
				"z": -1.7425069245,
				"element": "H" 
			},
			{
				"x": -1.6197461435,
				"y": 0.3106481008,
				"z": -0.6121106157,
				"element": "H" 
			},
			{
				"x": -0.2786778498,
				"y": 1.5665928432,
				"z": 3.2688296247,
				"element": "H" 
			}
		],
		 "valence_orbital": [ 
			{
				"type": "occ",
				"energy": -0.34407,
				"method": "rhf"
			},
			{
				"type": "occ",
				"energy": -0.31464,
				"method": "rhf"
			},
			{
				"type": "occ",
				"energy": -0.27936,
				"method": "rhf"
			},
			{
				"type": "occ",
				"energy": -0.27464,
				"method": "rhf"
			},
			{
				"type": "occ",
				"energy": -0.26788,
				"method": "rhf"
			},
			{
				"type": "unocc",
				"energy": -0.05882,
				"method": "rhf"
			},
			{
				"type": "unocc",
				"energy": -0.03688,
				"method": "rhf"
			},
			{
				"type": "unocc",
				"energy": -0.00597,
				"method": "rhf"
			},
			{
				"type": "unocc",
				"energy": 0.04673,
				"method": "rhf"
			},
			{
				"type": "unocc",
				"energy": 0.0915,
				"method": "rhf"
			}
		],
		"cosmo_sigma_profile": { 
			"-0.025": 0.0,
			"-0.024": 0.0,
			"-0.023": 0.0,
			"-0.022": 0.0,
			"-0.021": 0.0,
			"-0.02": 0.0,
			"-0.019": 0.0,
			"-0.018": 0.0,
			"-0.017": 0.0,
			"-0.016": 0.0,
			"-0.015": 0.0,
			"-0.014": 0.0,
			"-0.013": 0.0125030873962,
			"-0.012": 0.389178076811,
			"-0.011": 1.1101625969,
			"-0.01": 1.79829924134,
			"-0.009": 1.23974440324,
			"-0.008": 2.75760083891,
			"-0.007": 4.06262185664,
			"-0.006": 7.07330936253,
			"-0.005": 9.46719347032,
			"-0.004": 12.5188641026,
			"-0.003": 16.3198146422,
			"-0.002": 20.769480404,
			"-0.001": 25.1095588658,
			"0.0": 21.1781955369,
			"0.001": 16.7362013195,
			"0.002": 11.6165944588,
			"0.003": 10.9506654656,
			"0.004": 5.14879681498,
			"0.005": 2.1990186269,
			"0.006": 1.45011063676,
			"0.007": 2.87325931813,
			"0.008": 2.69864900842,
			"0.009": 3.05896413811,
			"0.01": 4.29650583425,
			"0.011": 5.60943754592,
			"0.012": 3.67373582705,
			"0.013": 1.41198491104,
			"0.014": 0.0448382858951,
			"0.015": 0.0,
			"0.016": 0.0,
			"0.017": 0.0,
			"0.018": 0.0,
			"0.019": 0.0,
			"0.02": 0.0,
			"0.021": 0.0,
			"0.022": 0.0,
			"0.023": 0.0,
			"0.024": 0.0,
			"0.025": 0.0
		}
	}
}
