{
	 "smiles": "NC(=O)NN=CC(=O)C1=CC(=CC(=C1)C(=O)C=NNC(N)=O)C(=O)C=NNC(N)=O", 
	 "Tm": 573.15, 
	 "num_atms": 45, 
	 "gaussian": { 
		 "optdone": 1, 
		 "sigma_profile": "yes", 
		 "theory": "DFT", 
		 "functional": "B3LYP", 
		 "basiset": "6-31G**", 
		 "properties": { 
			 "R2extent": 18825.4348, 
			 "electric_dipole_moment_norm": 6.78051699946, 
			 "electric_quadrupole_moment_norm": 60.9080863183, 
			 "total_energy": -1524.69022204, 
			 "HOMO_LUMO_gap": 0.15253, 
			 "cosmo_polarized_energy": -49.5, 
			 "cosmo_cavitation_energy": 54.39, 
			 "cosmo_dispersion_energy": -35.96, 
			 "cosmo_repulsion_energy": 2.69, 
			 "cosmo_total_nonelectrostatic_energy": 21.11, 
			 "SMD_solvation_energy": 12.89 
		},
		"coords": [
			{
				"x": -4.9497393863,
				"y": -0.8147123841,
				"z": 0.2385817476,
				"element": "N" 
			},
			{
				"x": -5.2093728527,
				"y": -2.0133630738,
				"z": -0.3551896738,
				"element": "C" 
			},
			{
				"x": -6.2586512042,
				"y": -2.6335091887,
				"z": -0.2687375674,
				"element": "O" 
			},
			{
				"x": -4.1483339975,
				"y": -2.528211953,
				"z": -1.1191337151,
				"element": "N" 
			},
			{
				"x": -2.9301494552,
				"y": -1.9743356122,
				"z": -1.0642440252,
				"element": "N" 
			},
			{
				"x": -1.9427637824,
				"y": -2.5673438887,
				"z": -1.6382401029,
				"element": "C" 
			},
			{
				"x": -0.5831104352,
				"y": -1.9683715061,
				"z": -1.663069083,
				"element": "C" 
			},
			{
				"x": 0.18753356,
				"y": -2.3147227986,
				"z": -2.5511344388,
				"element": "O" 
			},
			{
				"x": -0.1627744511,
				"y": -0.9727534753,
				"z": -0.6210362661,
				"element": "C" 
			},
			{
				"x": -0.7048463699,
				"y": -0.9724067595,
				"z": 0.6728018429,
				"element": "C" 
			},
			{
				"x": -0.2401824574,
				"y": -0.0630518044,
				"z": 1.6351457405,
				"element": "C" 
			},
			{
				"x": 0.7793310836,
				"y": 0.8372442778,
				"z": 1.2889946516,
				"element": "C" 
			},
			{
				"x": 1.3385507586,
				"y": 0.8364076269,
				"z": 0.0055839615,
				"element": "C" 
			},
			{
				"x": 0.8613774308,
				"y": -0.0795884901,
				"z": -0.943509836,
				"element": "C" 
			},
			{
				"x": 2.4210870305,
				"y": 1.7790408227,
				"z": -0.4232764753,
				"element": "C" 
			},
			{
				"x": 2.7116067008,
				"y": 1.8627038246,
				"z": -1.6295575279,
				"element": "O" 
			},
			{
				"x": 3.1313020869,
				"y": 2.577020007,
				"z": 0.584411572,
				"element": "C" 
			},
			{
				"x": 4.0772332157,
				"y": 3.4433439751,
				"z": 0.3502535414,
				"element": "N" 
			},
			{
				"x": 4.4743072629,
				"y": 3.6614918531,
				"z": -0.8950664458,
				"element": "N" 
			},
			{
				"x": 5.4728395213,
				"y": 4.6335440737,
				"z": -1.1366783839,
				"element": "C" 
			},
			{
				"x": 5.7992160607,
				"y": 4.6916287739,
				"z": -2.4753226764,
				"element": "N" 
			},
			{
				"x": 5.9465806712,
				"y": 5.3505644777,
				"z": -0.2824483472,
				"element": "O" 
			},
			{
				"x": -0.7612171998,
				"y": 0.041872636,
				"z": 3.043647979,
				"element": "C" 
			},
			{
				"x": -0.2720053684,
				"y": 0.8540551692,
				"z": 3.8248571019,
				"element": "O" 
			},
			{
				"x": -1.8898390053,
				"y": -0.7738814781,
				"z": 3.5676898355,
				"element": "C" 
			},
			{
				"x": -2.4835324363,
				"y": -1.6723897887,
				"z": 2.8698020941,
				"element": "N" 
			},
			{
				"x": -3.5208077283,
				"y": -2.3407497475,
				"z": 3.3756522342,
				"element": "N" 
			},
			{
				"x": -4.1098314619,
				"y": -3.3547987201,
				"z": 2.5884690058,
				"element": "C" 
			},
			{
				"x": -5.3037688002,
				"y": -3.8017079248,
				"z": 3.1106555332,
				"element": "N" 
			},
			{
				"x": -3.5822395383,
				"y": -3.7988381498,
				"z": 1.588929837,
				"element": "O" 
			},
			{
				"x": -5.7438071851,
				"y": -0.3088585827,
				"z": 0.593939399,
				"element": "H" 
			},
			{
				"x": -4.0928983243,
				"y": -0.327389927,
				"z": 0.0253134882,
				"element": "H" 
			},
			{
				"x": -4.2734838714,
				"y": -3.4941454545,
				"z": -1.4147349302,
				"element": "H" 
			},
			{
				"x": -2.0527812541,
				"y": -3.4980777562,
				"z": -2.2035952152,
				"element": "H" 
			},
			{
				"x": -1.4717003032,
				"y": -1.6850929658,
				"z": 0.9349533733,
				"element": "H" 
			},
			{
				"x": 1.0998471997,
				"y": 1.5333156718,
				"z": 2.0546845134,
				"element": "H" 
			},
			{
				"x": 1.2953089978,
				"y": -0.0919459727,
				"z": -1.9368956727,
				"element": "H" 
			},
			{
				"x": 2.8945062417,
				"y": 2.4574581944,
				"z": 1.634967934,
				"element": "H" 
			},
			{
				"x": 4.0037346795,
				"y": 3.1386724159,
				"z": -1.640754107,
				"element": "H" 
			},
			{
				"x": 5.6545903959,
				"y": 3.889637657,
				"z": -3.0712689443,
				"element": "H" 
			},
			{
				"x": 6.6082000218,
				"y": 5.2584124009,
				"z": -2.6798794781,
				"element": "H" 
			},
			{
				"x": -2.1689391946,
				"y": -0.5239985727,
				"z": 4.5983909766,
				"element": "H" 
			},
			{
				"x": -3.8457139754,
				"y": -2.1561987988,
				"z": 4.3233082156,
				"element": "H" 
			},
			{
				"x": -5.8847308181,
				"y": -3.1428369445,
				"z": 3.6111543684,
				"element": "H" 
			},
			{
				"x": -5.8130320629,
				"y": -4.3845321391,
				"z": 2.4595839658,
				"element": "H" 
			}
		],
		 "valence_orbital": [ 
			{
				"type": "occ",
				"energy": -0.26633,
				"method": "rhf"
			},
			{
				"type": "occ",
				"energy": -0.26183,
				"method": "rhf"
			},
			{
				"type": "occ",
				"energy": -0.25431,
				"method": "rhf"
			},
			{
				"type": "occ",
				"energy": -0.25191,
				"method": "rhf"
			},
			{
				"type": "occ",
				"energy": -0.24874,
				"method": "rhf"
			},
			{
				"type": "unocc",
				"energy": -0.09621,
				"method": "rhf"
			},
			{
				"type": "unocc",
				"energy": -0.08836,
				"method": "rhf"
			},
			{
				"type": "unocc",
				"energy": -0.07902,
				"method": "rhf"
			},
			{
				"type": "unocc",
				"energy": -0.0325,
				"method": "rhf"
			},
			{
				"type": "unocc",
				"energy": -0.02423,
				"method": "rhf"
			}
		],
		"cosmo_sigma_profile": { 
			"-0.025": 0.0,
			"-0.024": 0.0,
			"-0.023": 0.0,
			"-0.022": 0.0,
			"-0.021": 0.0,
			"-0.02": 0.0,
			"-0.019": 0.0,
			"-0.018": 0.0993287646189,
			"-0.017": 1.84478180639,
			"-0.016": 3.96853055107,
			"-0.015": 6.65251957247,
			"-0.014": 8.37357642229,
			"-0.013": 8.968700191,
			"-0.012": 8.20597474336,
			"-0.011": 7.30388410822,
			"-0.01": 10.2253255799,
			"-0.009": 10.6941937585,
			"-0.008": 6.9910833754,
			"-0.007": 10.7070354633,
			"-0.006": 10.5283436424,
			"-0.005": 9.90165646076,
			"-0.004": 16.7017428235,
			"-0.003": 25.4618757844,
			"-0.002": 27.7579596678,
			"-0.001": 32.3239976697,
			"0.0": 34.7033339533,
			"0.001": 25.0758127169,
			"0.002": 20.7079729812,
			"0.003": 15.6906246382,
			"0.004": 13.1091761067,
			"0.005": 14.0500405484,
			"0.006": 11.6674343756,
			"0.007": 11.906622766,
			"0.008": 11.2063461578,
			"0.009": 10.7008449013,
			"0.01": 11.7098079557,
			"0.011": 14.7661721357,
			"0.012": 11.8443663292,
			"0.013": 12.79402243,
			"0.014": 4.94513345774,
			"0.015": 1.56000317729,
			"0.016": 1.08628272217,
			"0.017": 0.437453681755,
			"0.018": 0.0,
			"0.019": 0.0,
			"0.02": 0.0,
			"0.021": 0.0,
			"0.022": 0.0,
			"0.023": 0.0,
			"0.024": 0.0,
			"0.025": 0.0
		}
	}
}
