{
	 "smiles": "O=C(C1=CC=CC=C1)C1=CN=C2C=CC=CN2C1=O", 
	 "Tm": 425.15, 
	 "num_atms": 29, 
	 "gaussian": { 
		 "optdone": 1, 
		 "sigma_profile": "yes", 
		 "theory": "DFT", 
		 "functional": "B3LYP", 
		 "basiset": "6-31G**", 
		 "properties": { 
			 "R2extent": 5768.1868, 
			 "electric_dipole_moment_norm": 5.61658808442, 
			 "electric_quadrupole_moment_norm": 20.2212789237, 
			 "total_energy": -837.574870615, 
			 "HOMO_LUMO_gap": 0.1455, 
			 "cosmo_polarized_energy": -16.55, 
			 "cosmo_cavitation_energy": 33.81, 
			 "cosmo_dispersion_energy": -24.79, 
			 "cosmo_repulsion_energy": 1.85, 
			 "cosmo_total_nonelectrostatic_energy": 10.87, 
			 "SMD_solvation_energy": 5.39 
		},
		"coords": [
			{
				"x": 3.0092038121,
				"y": -0.3421841541,
				"z": -1.1151892018,
				"element": "O" 
			},
			{
				"x": 2.1223267457,
				"y": -0.3350517263,
				"z": -0.2648270902,
				"element": "C" 
			},
			{
				"x": 2.4111604275,
				"y": 0.197322496,
				"z": 1.1028379229,
				"element": "C" 
			},
			{
				"x": 3.5010264065,
				"y": 1.0717930413,
				"z": 1.2404134266,
				"element": "C" 
			},
			{
				"x": 3.8682306765,
				"y": 1.5506226199,
				"z": 2.4944051562,
				"element": "C" 
			},
			{
				"x": 3.1658603784,
				"y": 1.1395060616,
				"z": 3.6309543879,
				"element": "C" 
			},
			{
				"x": 2.0942935595,
				"y": 0.2529687659,
				"z": 3.5058740365,
				"element": "C" 
			},
			{
				"x": 1.7123006825,
				"y": -0.2099849497,
				"z": 2.2478692916,
				"element": "C" 
			},
			{
				"x": 0.791418796,
				"y": -0.9252177591,
				"z": -0.6250071918,
				"element": "C" 
			},
			{
				"x": 0.7928661655,
				"y": -1.9381487335,
				"z": -1.5810417707,
				"element": "C" 
			},
			{
				"x": -0.2802098347,
				"y": -2.5654302738,
				"z": -2.0757388967,
				"element": "N" 
			},
			{
				"x": -1.4724659341,
				"y": -2.1528170475,
				"z": -1.6465401042,
				"element": "C" 
			},
			{
				"x": -2.6616058196,
				"y": -2.7675705746,
				"z": -2.1326359852,
				"element": "C" 
			},
			{
				"x": -3.8966186284,
				"y": -2.349267779,
				"z": -1.7138392113,
				"element": "C" 
			},
			{
				"x": -3.9993439494,
				"y": -1.284623329,
				"z": -0.7797667846,
				"element": "C" 
			},
			{
				"x": -2.861252335,
				"y": -0.6962959781,
				"z": -0.3124946832,
				"element": "C" 
			},
			{
				"x": -1.6194621187,
				"y": -1.1188063785,
				"z": -0.7274046728,
				"element": "N" 
			},
			{
				"x": -0.4585027436,
				"y": -0.4141260518,
				"z": -0.144880979,
				"element": "C" 
			},
			{
				"x": -0.6864460847,
				"y": 0.5016905358,
				"z": 0.6321230777,
				"element": "O" 
			},
			{
				"x": 4.0467547282,
				"y": 1.358990112,
				"z": 0.348042613,
				"element": "H" 
			},
			{
				"x": 4.7040584439,
				"y": 2.2377916218,
				"z": 2.5892814863,
				"element": "H" 
			},
			{
				"x": 3.4547623755,
				"y": 1.5072447745,
				"z": 4.6116692069,
				"element": "H" 
			},
			{
				"x": 1.5533250427,
				"y": -0.0754133928,
				"z": 4.3885451983,
				"element": "H" 
			},
			{
				"x": 0.8774007544,
				"y": -0.8951457178,
				"z": 2.1607150355,
				"element": "H" 
			},
			{
				"x": 1.7572062361,
				"y": -2.263111456,
				"z": -1.9638717763,
				"element": "H" 
			},
			{
				"x": -2.5236865663,
				"y": -3.5711721973,
				"z": -2.8457457393,
				"element": "H" 
			},
			{
				"x": -4.7944023287,
				"y": -2.8261422339,
				"z": -2.0943623292,
				"element": "H" 
			},
			{
				"x": -4.9634013964,
				"y": -0.9314998578,
				"z": -0.4334196977,
				"element": "H" 
			},
			{
				"x": -2.8259974916,
				"y": 0.120279562,
				"z": 0.3966352746,
				"element": "H" 
			}
		],
		 "valence_orbital": [ 
			{
				"type": "occ",
				"energy": -0.27694,
				"method": "rhf"
			},
			{
				"type": "occ",
				"energy": -0.25104,
				"method": "rhf"
			},
			{
				"type": "occ",
				"energy": -0.24655,
				"method": "rhf"
			},
			{
				"type": "occ",
				"energy": -0.24218,
				"method": "rhf"
			},
			{
				"type": "occ",
				"energy": -0.22705,
				"method": "rhf"
			},
			{
				"type": "unocc",
				"energy": -0.08155,
				"method": "rhf"
			},
			{
				"type": "unocc",
				"energy": -0.05941,
				"method": "rhf"
			},
			{
				"type": "unocc",
				"energy": -0.03852,
				"method": "rhf"
			},
			{
				"type": "unocc",
				"energy": 0.00318,
				"method": "rhf"
			},
			{
				"type": "unocc",
				"energy": 0.00455,
				"method": "rhf"
			}
		],
		"cosmo_sigma_profile": { 
			"-0.025": 0.0,
			"-0.024": 0.0,
			"-0.023": 0.0,
			"-0.022": 0.0,
			"-0.021": 0.0,
			"-0.02": 0.0,
			"-0.019": 0.0,
			"-0.018": 0.0,
			"-0.017": 0.0,
			"-0.016": 0.0,
			"-0.015": 0.0,
			"-0.014": 0.0,
			"-0.013": 0.0,
			"-0.012": 0.0,
			"-0.011": 0.0,
			"-0.01": 0.0,
			"-0.009": 2.38327365075,
			"-0.008": 8.35545063111,
			"-0.007": 10.3445272213,
			"-0.006": 17.2262020651,
			"-0.005": 20.8834460995,
			"-0.004": 22.302937535,
			"-0.003": 19.8413664342,
			"-0.002": 20.6789178062,
			"-0.001": 20.5507096685,
			"0.0": 25.1413343901,
			"0.001": 16.4083139957,
			"0.002": 10.7541423593,
			"0.003": 13.3109411493,
			"0.004": 14.7066878933,
			"0.005": 9.96727738769,
			"0.006": 5.28073025403,
			"0.007": 4.05255269132,
			"0.008": 3.80150991761,
			"0.009": 3.91366773014,
			"0.01": 6.15896951527,
			"0.011": 6.14794904563,
			"0.012": 8.39708408249,
			"0.013": 1.70179992274,
			"0.014": 0.555197274988,
			"0.015": 0.594378228792,
			"0.016": 0.0,
			"0.017": 0.0,
			"0.018": 0.0,
			"0.019": 0.0,
			"0.02": 0.0,
			"0.021": 0.0,
			"0.022": 0.0,
			"0.023": 0.0,
			"0.024": 0.0,
			"0.025": 0.0
		}
	}
}
