{
	 "smiles": "C=CC1CO1", 
	 "Tm": 138.15, 
	 "num_atms": 11, 
	 "gaussian": { 
		 "optdone": 1, 
		 "sigma_profile": "yes", 
		 "theory": "DFT", 
		 "functional": "B3LYP", 
		 "basiset": "6-31G**", 
		 "properties": { 
			 "R2extent": 818.0353, 
			 "electric_dipole_moment_norm": 1.89253295612, 
			 "electric_quadrupole_moment_norm": 8.91862266384, 
			 "total_energy": -231.19079149, 
			 "HOMO_LUMO_gap": 0.25513, 
			 "cosmo_polarized_energy": -5.33, 
			 "cosmo_cavitation_energy": 14.81, 
			 "cosmo_dispersion_energy": -10.79, 
			 "cosmo_repulsion_energy": 0.96, 
			 "cosmo_total_nonelectrostatic_energy": 4.98, 
			 "SMD_solvation_energy": 3.48 
		},
		"coords": [
			{
				"x": -0.6131741734,
				"y": -2.2978453373,
				"z": -0.0691039818,
				"element": "C" 
			},
			{
				"x": -1.3111620046,
				"y": -1.173599324,
				"z": 0.100552968,
				"element": "C" 
			},
			{
				"x": -1.1637851083,
				"y": -0.2817536656,
				"z": 1.2707669683,
				"element": "C" 
			},
			{
				"x": -1.3670337847,
				"y": 1.1774023133,
				"z": 1.1623364945,
				"element": "C" 
			},
			{
				"x": -2.3680316935,
				"y": 0.3508926243,
				"z": 1.7506353636,
				"element": "O" 
			},
			{
				"x": -0.7367327194,
				"y": -2.9186630234,
				"z": -0.9505274006,
				"element": "H" 
			},
			{
				"x": 0.1100184969,
				"y": -2.6362711359,
				"z": 0.6690264889,
				"element": "H" 
			},
			{
				"x": -2.0388172575,
				"y": -0.8535075278,
				"z": -0.6438584623,
				"element": "H" 
			},
			{
				"x": -0.5028290933,
				"y": -0.6420741158,
				"z": 2.0613181185,
				"element": "H" 
			},
			{
				"x": -1.621841355,
				"y": 1.6127690993,
				"z": 0.1952867394,
				"element": "H" 
			},
			{
				"x": -0.8370113072,
				"y": 1.8427500929,
				"z": 1.8449667035,
				"element": "H" 
			}
		],
		 "valence_orbital": [ 
			{
				"type": "occ",
				"energy": -0.38972,
				"method": "rhf"
			},
			{
				"type": "occ",
				"energy": -0.35995,
				"method": "rhf"
			},
			{
				"type": "occ",
				"energy": -0.33402,
				"method": "rhf"
			},
			{
				"type": "occ",
				"energy": -0.27364,
				"method": "rhf"
			},
			{
				"type": "occ",
				"energy": -0.25393,
				"method": "rhf"
			},
			{
				"type": "unocc",
				"energy": 0.0012,
				"method": "rhf"
			},
			{
				"type": "unocc",
				"energy": 0.1088,
				"method": "rhf"
			},
			{
				"type": "unocc",
				"energy": 0.11269,
				"method": "rhf"
			},
			{
				"type": "unocc",
				"energy": 0.11817,
				"method": "rhf"
			},
			{
				"type": "unocc",
				"energy": 0.12633,
				"method": "rhf"
			}
		],
		"cosmo_sigma_profile": { 
			"-0.025": 0.0,
			"-0.024": 0.0,
			"-0.023": 0.0,
			"-0.022": 0.0,
			"-0.021": 0.0,
			"-0.02": 0.0,
			"-0.019": 0.0,
			"-0.018": 0.0,
			"-0.017": 0.0,
			"-0.016": 0.0,
			"-0.015": 0.0,
			"-0.014": 0.0,
			"-0.013": 0.0,
			"-0.012": 0.0,
			"-0.011": 0.0,
			"-0.01": 0.0,
			"-0.009": 0.0,
			"-0.008": 0.0,
			"-0.007": 0.898042716552,
			"-0.006": 10.0675532199,
			"-0.005": 14.3739180421,
			"-0.004": 11.4547471738,
			"-0.003": 10.9427640872,
			"-0.002": 8.70346435436,
			"-0.001": 9.11839951017,
			"0.0": 6.90500489651,
			"0.001": 6.25714718644,
			"0.002": 5.43764905704,
			"0.003": 4.72708889376,
			"0.004": 5.74905357918,
			"0.005": 5.05019894029,
			"0.006": 3.89107623384,
			"0.007": 1.91063852263,
			"0.008": 1.36585604371,
			"0.009": 1.31243426957,
			"0.01": 2.55398302231,
			"0.011": 3.28669211833,
			"0.012": 2.80030484224,
			"0.013": 0.632243846006,
			"0.014": 0.0,
			"0.015": 0.0,
			"0.016": 0.0,
			"0.017": 0.0,
			"0.018": 0.0,
			"0.019": 0.0,
			"0.02": 0.0,
			"0.021": 0.0,
			"0.022": 0.0,
			"0.023": 0.0,
			"0.024": 0.0,
			"0.025": 0.0
		}
	}
}
