{
	 "smiles": "NC1=NC(=CS1)C1=CC=C(N)C=C1", 
	 "Tm": 452.15, 
	 "num_atms": 22, 
	 "gaussian": { 
		 "optdone": 1, 
		 "sigma_profile": "yes", 
		 "theory": "DFT", 
		 "functional": "B3LYP", 
		 "basiset": "6-31G**", 
		 "properties": { 
			 "R2extent": 4054.6137, 
			 "electric_dipole_moment_norm": 2.21143833963, 
			 "electric_quadrupole_moment_norm": 21.0681629019, 
			 "total_energy": -910.828254235, 
			 "HOMO_LUMO_gap": 0.16454, 
			 "cosmo_polarized_energy": -16.25, 
			 "cosmo_cavitation_energy": 27.84, 
			 "cosmo_dispersion_energy": -21.48, 
			 "cosmo_repulsion_energy": 1.65, 
			 "cosmo_total_nonelectrostatic_energy": 8.02, 
			 "SMD_solvation_energy": 3.28 
		},
		"coords": [
			{
				"x": -5.1139728179,
				"y": -0.7076725314,
				"z": 0.9435797139,
				"element": "N" 
			},
			{
				"x": -3.7439209968,
				"y": -0.8647097903,
				"z": 0.9329796013,
				"element": "C" 
			},
			{
				"x": -2.9169989678,
				"y": 0.0046637964,
				"z": 0.4389810657,
				"element": "N" 
			},
			{
				"x": -1.603104574,
				"y": -0.4503333508,
				"z": 0.4923704164,
				"element": "C" 
			},
			{
				"x": -1.4480941601,
				"y": -1.6910725345,
				"z": 1.051233459,
				"element": "C" 
			},
			{
				"x": -2.993579192,
				"y": -2.3543684601,
				"z": 1.5222740911,
				"element": "S" 
			},
			{
				"x": -0.5347187354,
				"y": 0.4184728196,
				"z": -0.0305029706,
				"element": "C" 
			},
			{
				"x": 0.8221676477,
				"y": 0.0559498293,
				"z": 0.0200618507,
				"element": "C" 
			},
			{
				"x": 1.8149409781,
				"y": 0.8894061604,
				"z": -0.4778615538,
				"element": "C" 
			},
			{
				"x": 1.4891785763,
				"y": 2.1316958584,
				"z": -1.0519299775,
				"element": "C" 
			},
			{
				"x": 2.479515814,
				"y": 2.9460549933,
				"z": -1.6034414424,
				"element": "N" 
			},
			{
				"x": 0.1348106924,
				"y": 2.5011184626,
				"z": -1.1055488647,
				"element": "C" 
			},
			{
				"x": -0.8523535013,
				"y": 1.6605351179,
				"z": -0.6050859366,
				"element": "C" 
			},
			{
				"x": -5.6113655841,
				"y": -1.1381468888,
				"z": 1.7103361861,
				"element": "H" 
			},
			{
				"x": -5.3953121475,
				"y": 0.2477305956,
				"z": 0.7642567084,
				"element": "H" 
			},
			{
				"x": -0.5452150151,
				"y": -2.2577834432,
				"z": 1.2192294121,
				"element": "H" 
			},
			{
				"x": 1.1156904743,
				"y": -0.893126463,
				"z": 0.4592246842,
				"element": "H" 
			},
			{
				"x": 2.856056436,
				"y": 0.5792499087,
				"z": -0.4279251195,
				"element": "H" 
			},
			{
				"x": 2.2403149193,
				"y": 3.9256317271,
				"z": -1.6728892348,
				"element": "H" 
			},
			{
				"x": 3.4076359894,
				"y": 2.8104848861,
				"z": -1.2268701108,
				"element": "H" 
			},
			{
				"x": -0.1421553659,
				"y": 3.4551637277,
				"z": -1.5483402421,
				"element": "H" 
			},
			{
				"x": -1.8938204696,
				"y": 1.9582555789,
				"z": -0.650631736,
				"element": "H" 
			}
		],
		 "valence_orbital": [ 
			{
				"type": "occ",
				"energy": -0.26717,
				"method": "rhf"
			},
			{
				"type": "occ",
				"energy": -0.26533,
				"method": "rhf"
			},
			{
				"type": "occ",
				"energy": -0.24062,
				"method": "rhf"
			},
			{
				"type": "occ",
				"energy": -0.21973,
				"method": "rhf"
			},
			{
				"type": "occ",
				"energy": -0.17904,
				"method": "rhf"
			},
			{
				"type": "unocc",
				"energy": -0.0145,
				"method": "rhf"
			},
			{
				"type": "unocc",
				"energy": 0.01003,
				"method": "rhf"
			},
			{
				"type": "unocc",
				"energy": 0.0169,
				"method": "rhf"
			},
			{
				"type": "unocc",
				"energy": 0.02804,
				"method": "rhf"
			},
			{
				"type": "unocc",
				"energy": 0.07549,
				"method": "rhf"
			}
		],
		"cosmo_sigma_profile": { 
			"-0.025": 0.0,
			"-0.024": 0.0,
			"-0.023": 0.0,
			"-0.022": 0.0,
			"-0.021": 0.0,
			"-0.02": 0.0,
			"-0.019": 0.0,
			"-0.018": 0.0,
			"-0.017": 0.0,
			"-0.016": 0.0,
			"-0.015": 0.141304175018,
			"-0.014": 1.85397289615,
			"-0.013": 2.81287826879,
			"-0.012": 5.37366447832,
			"-0.011": 5.43650741038,
			"-0.01": 4.74594017776,
			"-0.009": 5.76074788667,
			"-0.008": 6.72944814491,
			"-0.007": 7.76996567004,
			"-0.006": 7.7368309952,
			"-0.005": 9.31828210072,
			"-0.004": 9.29966875623,
			"-0.003": 9.97701350469,
			"-0.002": 8.8594062225,
			"-0.001": 9.12862433539,
			"0.0": 10.207883646,
			"0.001": 9.56161423433,
			"0.002": 13.4096673904,
			"0.003": 15.3725710941,
			"0.004": 19.0109481808,
			"0.005": 21.8623093319,
			"0.006": 16.7849405212,
			"0.007": 8.00435419019,
			"0.008": 2.95187495844,
			"0.009": 2.89653419484,
			"0.01": 3.1178805019,
			"0.011": 3.35578382889,
			"0.012": 1.41285218604,
			"0.013": 0.680329961553,
			"0.014": 0.65790148489,
			"0.015": 0.0686671187486,
			"0.016": 0.0,
			"0.017": 0.0,
			"0.018": 0.0,
			"0.019": 0.0,
			"0.02": 0.0,
			"0.021": 0.0,
			"0.022": 0.0,
			"0.023": 0.0,
			"0.024": 0.0,
			"0.025": 0.0
		}
	}
}
