{
	 "smiles": "CC1=C(O)C(=CC(Br)=C1)[N+]([O-])=O", 
	 "Tm": 363.15, 
	 "num_atms": 18, 
	 "gaussian": { 
		 "optdone": 1, 
		 "sigma_profile": "yes", 
		 "theory": "DFT", 
		 "functional": "B3LYP", 
		 "basiset": "6-31G**", 
		 "properties": { 
			 "R2extent": 3586.5158, 
			 "electric_dipole_moment_norm": 5.95425755153, 
			 "electric_quadrupole_moment_norm": 22.3863519768, 
			 "total_energy": -3122.07846666, 
			 "HOMO_LUMO_gap": 0.15864, 
			 "cosmo_polarized_energy": -14.61, 
			 "cosmo_cavitation_energy": 25.28, 
			 "cosmo_dispersion_energy": -19.09, 
			 "cosmo_repulsion_energy": 1.52, 
			 "cosmo_total_nonelectrostatic_energy": 7.71, 
			 "SMD_solvation_energy": 5.76 
		},
		"coords": [
			{
				"x": 1.0086112536,
				"y": 1.2107296652,
				"z": 3.2813566256,
				"element": "C" 
			},
			{
				"x": 0.5557286099,
				"y": 1.1408505715,
				"z": 1.8416414316,
				"element": "C" 
			},
			{
				"x": 0.9314644063,
				"y": 2.1659254213,
				"z": 0.941627646,
				"element": "C" 
			},
			{
				"x": 1.7057539592,
				"y": 3.1972943578,
				"z": 1.342915544,
				"element": "O" 
			},
			{
				"x": 0.503042176,
				"y": 2.0748610809,
				"z": -0.39721893,
				"element": "C" 
			},
			{
				"x": -0.2679478047,
				"y": 0.9980449106,
				"z": -0.8431953402,
				"element": "C" 
			},
			{
				"x": -0.6343408472,
				"y": 0.0107773754,
				"z": 0.0543643752,
				"element": "C" 
			},
			{
				"x": -1.7030841663,
				"y": -1.4576527348,
				"z": -0.5270688061,
				"element": "Br" 
			},
			{
				"x": -0.2260790178,
				"y": 0.0813007553,
				"z": 1.387917805,
				"element": "C" 
			},
			{
				"x": 0.8370231435,
				"y": 3.0998005306,
				"z": -1.3972340954,
				"element": "N" 
			},
			{
				"x": 0.7413907967,
				"y": 2.7739977516,
				"z": -2.5828631394,
				"element": "O" 
			},
			{
				"x": 1.1692423459,
				"y": 4.2130008232,
				"z": -1.0025932194,
				"element": "O" 
			},
			{
				"x": 0.6513654809,
				"y": 2.1215017162,
				"z": 3.7798234798,
				"element": "H" 
			},
			{
				"x": 2.1032969421,
				"y": 1.1853073715,
				"z": 3.370436938,
				"element": "H" 
			},
			{
				"x": 0.6239323985,
				"y": 0.3616392292,
				"z": 3.8495439726,
				"element": "H" 
			},
			{
				"x": 1.9553600545,
				"y": 3.0667456103,
				"z": 2.2673189834,
				"element": "H" 
			},
			{
				"x": -0.5573185567,
				"y": 0.9657258752,
				"z": -1.8846914327,
				"element": "H" 
			},
			{
				"x": -0.5184411745,
				"y": -0.7002503111,
				"z": 2.080918162,
				"element": "H" 
			}
		],
		 "valence_orbital": [ 
			{
				"type": "occ",
				"energy": -0.30349,
				"method": "rhf"
			},
			{
				"type": "occ",
				"energy": -0.29803,
				"method": "rhf"
			},
			{
				"type": "occ",
				"energy": -0.2908,
				"method": "rhf"
			},
			{
				"type": "occ",
				"energy": -0.27834,
				"method": "rhf"
			},
			{
				"type": "occ",
				"energy": -0.24353,
				"method": "rhf"
			},
			{
				"type": "unocc",
				"energy": -0.08489,
				"method": "rhf"
			},
			{
				"type": "unocc",
				"energy": -0.02763,
				"method": "rhf"
			},
			{
				"type": "unocc",
				"energy": -0.00946,
				"method": "rhf"
			},
			{
				"type": "unocc",
				"energy": -0.00391,
				"method": "rhf"
			},
			{
				"type": "unocc",
				"energy": 0.03938,
				"method": "rhf"
			}
		],
		"cosmo_sigma_profile": { 
			"-0.025": 0.0,
			"-0.024": 0.0,
			"-0.023": 0.0,
			"-0.022": 0.0,
			"-0.021": 0.0,
			"-0.02": 0.0,
			"-0.019": 0.0,
			"-0.018": 0.107654841889,
			"-0.017": 0.752658039071,
			"-0.016": 1.24190040592,
			"-0.015": 0.617224789447,
			"-0.014": 0.966711896676,
			"-0.013": 1.19669137982,
			"-0.012": 1.80922843001,
			"-0.011": 1.11483845929,
			"-0.01": 1.06108869225,
			"-0.009": 1.69194250154,
			"-0.008": 3.60812085813,
			"-0.007": 6.16000190816,
			"-0.006": 9.5415249298,
			"-0.005": 9.88084206427,
			"-0.004": 11.8383540702,
			"-0.003": 12.8089156963,
			"-0.002": 15.8221941845,
			"-0.001": 17.6361021368,
			"0.0": 15.7450084548,
			"0.001": 18.6684903698,
			"0.002": 9.35781766248,
			"0.003": 10.4541994313,
			"0.004": 13.3766967703,
			"0.005": 4.88921272058,
			"0.006": 4.20229289298,
			"0.007": 6.28658746419,
			"0.008": 9.25753310346,
			"0.009": 6.83466610291,
			"0.01": 4.85289220321,
			"0.011": 1.7008615567,
			"0.012": 1.40666561702,
			"0.013": 0.592411377197,
			"0.014": 0.0,
			"0.015": 0.0,
			"0.016": 0.0,
			"0.017": 0.0,
			"0.018": 0.0,
			"0.019": 0.0,
			"0.02": 0.0,
			"0.021": 0.0,
			"0.022": 0.0,
			"0.023": 0.0,
			"0.024": 0.0,
			"0.025": 0.0
		}
	}
}
