{
	 "smiles": "FC1=CC=C(C=C2C(=O)NN(C2=O)C2=CC=CC=C2)C=C1", 
	 "Tm": 573.15, 
	 "num_atms": 32, 
	 "gaussian": { 
		 "optdone": 1, 
		 "sigma_profile": "yes", 
		 "theory": "DFT", 
		 "functional": "B3LYP", 
		 "basiset": "6-31G**", 
		 "properties": { 
			 "R2extent": 9711.4349, 
			 "electric_dipole_moment_norm": 0.638575751184, 
			 "electric_quadrupole_moment_norm": 18.9785550717, 
			 "total_energy": -976.097562553, 
			 "HOMO_LUMO_gap": 0.12047, 
			 "cosmo_polarized_energy": -14.35, 
			 "cosmo_cavitation_energy": 37.74, 
			 "cosmo_dispersion_energy": -27.47, 
			 "cosmo_repulsion_energy": 2.01, 
			 "cosmo_total_nonelectrostatic_energy": 12.29, 
			 "SMD_solvation_energy": 8.07 
		},
		"coords": [
			{
				"x": -5.6549621148,
				"y": 1.8173341527,
				"z": -0.3075811127,
				"element": "F" 
			},
			{
				"x": -4.7136863704,
				"y": 0.9161516449,
				"z": -0.6345339738,
				"element": "C" 
			},
			{
				"x": -5.0238850587,
				"y": -0.0703229262,
				"z": -1.5672797743,
				"element": "C" 
			},
			{
				"x": -4.0420298758,
				"y": -0.9947317088,
				"z": -1.8962438858,
				"element": "C" 
			},
			{
				"x": -2.7568188036,
				"y": -0.9487930511,
				"z": -1.3068933939,
				"element": "C" 
			},
			{
				"x": -1.8117170222,
				"y": -1.9642598135,
				"z": -1.7236179683,
				"element": "C" 
			},
			{
				"x": -0.5223723559,
				"y": -2.2552090028,
				"z": -1.3993650727,
				"element": "C" 
			},
			{
				"x": 0.1313174477,
				"y": -3.424194944,
				"z": -2.0328953053,
				"element": "C" 
			},
			{
				"x": -0.3432925306,
				"y": -4.2789132171,
				"z": -2.7604377082,
				"element": "O" 
			},
			{
				"x": 1.4697776092,
				"y": -3.4045036064,
				"z": -1.6168883467,
				"element": "N" 
			},
			{
				"x": 1.6152392963,
				"y": -2.4357182198,
				"z": -0.5860109112,
				"element": "N" 
			},
			{
				"x": 0.4626187811,
				"y": -1.6539557522,
				"z": -0.472845486,
				"element": "C" 
			},
			{
				"x": 0.3707551922,
				"y": -0.6736381545,
				"z": 0.2601889496,
				"element": "O" 
			},
			{
				"x": 2.9247937316,
				"y": -2.0956068236,
				"z": -0.1670327899,
				"element": "C" 
			},
			{
				"x": 4.0323944522,
				"y": -2.541122098,
				"z": -0.9041885021,
				"element": "C" 
			},
			{
				"x": 5.3217458719,
				"y": -2.2354707242,
				"z": -0.4699040621,
				"element": "C" 
			},
			{
				"x": 5.5222991866,
				"y": -1.4874691756,
				"z": 0.6899589143,
				"element": "C" 
			},
			{
				"x": 4.4146960622,
				"y": -1.0452739228,
				"z": 1.4168704622,
				"element": "C" 
			},
			{
				"x": 3.118501175,
				"y": -1.3471093863,
				"z": 1.0058249221,
				"element": "C" 
			},
			{
				"x": -2.4843201342,
				"y": 0.0703577131,
				"z": -0.3643784409,
				"element": "C" 
			},
			{
				"x": -3.4609071413,
				"y": 0.9996495836,
				"z": -0.0303051331,
				"element": "C" 
			},
			{
				"x": -6.0115942532,
				"y": -0.098178947,
				"z": -2.0135803643,
				"element": "H" 
			},
			{
				"x": -4.2647184587,
				"y": -1.7715806099,
				"z": -2.6221758925,
				"element": "H" 
			},
			{
				"x": -2.2067767874,
				"y": -2.6627567799,
				"z": -2.463787028,
				"element": "H" 
			},
			{
				"x": 1.8660918433,
				"y": -4.3098850681,
				"z": -1.3787301825,
				"element": "H" 
			},
			{
				"x": 3.8846465606,
				"y": -3.0990676236,
				"z": -1.8213804543,
				"element": "H" 
			},
			{
				"x": 6.1714295219,
				"y": -2.5821733625,
				"z": -1.050901109,
				"element": "H" 
			},
			{
				"x": 6.5280327624,
				"y": -1.2521735735,
				"z": 1.0242463466,
				"element": "H" 
			},
			{
				"x": 4.5562692869,
				"y": -0.4623876701,
				"z": 2.3223737998,
				"element": "H" 
			},
			{
				"x": 2.2623616726,
				"y": -1.0014450115,
				"z": 1.5676743351,
				"element": "H" 
			},
			{
				"x": -1.5021933421,
				"y": 0.1173147122,
				"z": 0.0924489046,
				"element": "H" 
			},
			{
				"x": -3.2685962047,
				"y": 1.7877333664,
				"z": 0.6895702632,
				"element": "H" 
			}
		],
		 "valence_orbital": [ 
			{
				"type": "occ",
				"energy": -0.27649,
				"method": "rhf"
			},
			{
				"type": "occ",
				"energy": -0.26081,
				"method": "rhf"
			},
			{
				"type": "occ",
				"energy": -0.25524,
				"method": "rhf"
			},
			{
				"type": "occ",
				"energy": -0.24682,
				"method": "rhf"
			},
			{
				"type": "occ",
				"energy": -0.2163,
				"method": "rhf"
			},
			{
				"type": "unocc",
				"energy": -0.09583,
				"method": "rhf"
			},
			{
				"type": "unocc",
				"energy": -0.02403,
				"method": "rhf"
			},
			{
				"type": "unocc",
				"energy": -0.01323,
				"method": "rhf"
			},
			{
				"type": "unocc",
				"energy": -0.00705,
				"method": "rhf"
			},
			{
				"type": "unocc",
				"energy": 0.00981,
				"method": "rhf"
			}
		],
		"cosmo_sigma_profile": { 
			"-0.025": 0.0,
			"-0.024": 0.0,
			"-0.023": 0.0,
			"-0.022": 0.0,
			"-0.021": 0.0,
			"-0.02": 0.0,
			"-0.019": 0.0,
			"-0.018": 0.0,
			"-0.017": 0.0,
			"-0.016": 0.856570096016,
			"-0.015": 1.14224475177,
			"-0.014": 1.05421619546,
			"-0.013": 1.09789858538,
			"-0.012": 1.36449536007,
			"-0.011": 1.08114465219,
			"-0.01": 1.14898937678,
			"-0.009": 2.80856949278,
			"-0.008": 6.68930859487,
			"-0.007": 8.7409213777,
			"-0.006": 13.7192092433,
			"-0.005": 16.2544571219,
			"-0.004": 18.8108631399,
			"-0.003": 17.3377632163,
			"-0.002": 17.248490416,
			"-0.001": 26.5662816204,
			"0.0": 27.4601668243,
			"0.001": 29.2636195719,
			"0.002": 27.1026933021,
			"0.003": 19.9793979611,
			"0.004": 19.1160017577,
			"0.005": 14.5646954116,
			"0.006": 5.07196651355,
			"0.007": 3.85486267343,
			"0.008": 2.8799977297,
			"0.009": 3.35887290868,
			"0.01": 3.89395675375,
			"0.011": 4.29094002525,
			"0.012": 6.01652027455,
			"0.013": 2.13786436965,
			"0.014": 0.0,
			"0.015": 0.0,
			"0.016": 0.0,
			"0.017": 0.0,
			"0.018": 0.0,
			"0.019": 0.0,
			"0.02": 0.0,
			"0.021": 0.0,
			"0.022": 0.0,
			"0.023": 0.0,
			"0.024": 0.0,
			"0.025": 0.0
		}
	}
}
