{
	 "smiles": "OC(=O)C1CCC(CC1)NC(=O)CCC1CCCO1", 
	 "Tm": 473.15, 
	 "num_atms": 42, 
	 "gaussian": { 
		 "optdone": 1, 
		 "sigma_profile": "yes", 
		 "theory": "DFT", 
		 "functional": "B3LYP", 
		 "basiset": "6-31G**", 
		 "properties": { 
			 "R2extent": 11250.2007, 
			 "electric_dipole_moment_norm": 3.98400031501, 
			 "electric_quadrupole_moment_norm": 20.6964738057, 
			 "total_energy": -903.039385378, 
			 "HOMO_LUMO_gap": 0.24351, 
			 "cosmo_polarized_energy": -20.69, 
			 "cosmo_cavitation_energy": 42.7, 
			 "cosmo_dispersion_energy": -30.55, 
			 "cosmo_repulsion_energy": 2.42, 
			 "cosmo_total_nonelectrostatic_energy": 14.56, 
			 "SMD_solvation_energy": 7.0 
		},
		"coords": [
			{
				"x": 6.3446695022,
				"y": -2.3451620154,
				"z": -1.356062791,
				"element": "O" 
			},
			{
				"x": 5.8199939635,
				"y": -1.1206583228,
				"z": -1.6146664177,
				"element": "C" 
			},
			{
				"x": 6.1232633715,
				"y": -0.4871993684,
				"z": -2.6035631573,
				"element": "O" 
			},
			{
				"x": 4.8121030891,
				"y": -0.7104422005,
				"z": -0.5550728637,
				"element": "C" 
			},
			{
				"x": 4.6508817887,
				"y": 0.8273421267,
				"z": -0.5135623642,
				"element": "C" 
			},
			{
				"x": 3.2499116739,
				"y": 1.2360552832,
				"z": -0.043848395,
				"element": "C" 
			},
			{
				"x": 2.1627684425,
				"y": 0.7717814735,
				"z": -1.0382475128,
				"element": "C" 
			},
			{
				"x": 2.5680245751,
				"y": -0.5508211823,
				"z": -1.7431713279,
				"element": "C" 
			},
			{
				"x": 3.4485865478,
				"y": -1.4189825973,
				"z": -0.8409440842,
				"element": "C" 
			},
			{
				"x": 0.8845567352,
				"y": 0.6609201741,
				"z": -0.3346711313,
				"element": "N" 
			},
			{
				"x": -0.3160738547,
				"y": 0.7780864734,
				"z": -0.9789064586,
				"element": "C" 
			},
			{
				"x": -0.3908847262,
				"y": 0.9282316866,
				"z": -2.1948225315,
				"element": "O" 
			},
			{
				"x": -1.5454794341,
				"y": 0.7435760559,
				"z": -0.0733031623,
				"element": "C" 
			},
			{
				"x": -2.7914236102,
				"y": 0.2378645024,
				"z": -0.8046178599,
				"element": "C" 
			},
			{
				"x": -4.0618940102,
				"y": 0.3567941616,
				"z": 0.0333708057,
				"element": "C" 
			},
			{
				"x": -5.3503931436,
				"y": -0.0589437339,
				"z": -0.6967379253,
				"element": "C" 
			},
			{
				"x": -6.4039479966,
				"y": 0.8601762137,
				"z": -0.063224802,
				"element": "C" 
			},
			{
				"x": -5.596837623,
				"y": 2.1454635516,
				"z": 0.1447087985,
				"element": "C" 
			},
			{
				"x": -4.2590628122,
				"y": 1.7285656312,
				"z": 0.430072484,
				"element": "O" 
			},
			{
				"x": 6.9363474533,
				"y": -2.5466360159,
				"z": -2.1006764723,
				"element": "H" 
			},
			{
				"x": 5.1921158178,
				"y": -1.0830123621,
				"z": 0.4022866184,
				"element": "H" 
			},
			{
				"x": 4.8377124319,
				"y": 1.2266286961,
				"z": -1.5155305956,
				"element": "H" 
			},
			{
				"x": 5.4136718069,
				"y": 1.2633881641,
				"z": 0.1399891213,
				"element": "H" 
			},
			{
				"x": 3.0612217228,
				"y": 0.7864806387,
				"z": 0.942829602,
				"element": "H" 
			},
			{
				"x": 3.1895951762,
				"y": 2.3198584653,
				"z": 0.0983526071,
				"element": "H" 
			},
			{
				"x": 2.0197603086,
				"y": 1.5311619241,
				"z": -1.81295036,
				"element": "H" 
			},
			{
				"x": 1.6625563279,
				"y": -1.0799173695,
				"z": -2.0506731056,
				"element": "H" 
			},
			{
				"x": 3.1174877075,
				"y": -0.313212628,
				"z": -2.6617089884,
				"element": "H" 
			},
			{
				"x": 3.6225368928,
				"y": -2.4065456841,
				"z": -1.2793251897,
				"element": "H" 
			},
			{
				"x": 2.9374771131,
				"y": -1.5967918424,
				"z": 0.1130555767,
				"element": "H" 
			},
			{
				"x": 0.8904722661,
				"y": 0.5450282964,
				"z": 0.667745475,
				"element": "H" 
			},
			{
				"x": -1.7382089992,
				"y": 1.7657774006,
				"z": 0.2755374182,
				"element": "H" 
			},
			{
				"x": -1.3445457958,
				"y": 0.1404182672,
				"z": 0.8222479022,
				"element": "H" 
			},
			{
				"x": -2.9060718494,
				"y": 0.8095144665,
				"z": -1.7308365066,
				"element": "H" 
			},
			{
				"x": -2.6559910077,
				"y": -0.812045761,
				"z": -1.0957549087,
				"element": "H" 
			},
			{
				"x": -3.948372142,
				"y": -0.2419398138,
				"z": 0.9531416092,
				"element": "H" 
			},
			{
				"x": -5.2571426142,
				"y": 0.1502047562,
				"z": -1.7693684339,
				"element": "H" 
			},
			{
				"x": -5.5713915061,
				"y": -1.1236494827,
				"z": -0.5803631578,
				"element": "H" 
			},
			{
				"x": -6.7344793395,
				"y": 0.4571838343,
				"z": 0.9008367278,
				"element": "H" 
			},
			{
				"x": -7.2881306023,
				"y": 1.0085719373,
				"z": -0.689788437,
				"element": "H" 
			},
			{
				"x": -5.6111440233,
				"y": 2.7692787376,
				"z": -0.7624770291,
				"element": "H" 
			},
			{
				"x": -5.9575396241,
				"y": 2.7561074619,
				"z": 0.9800012233,
				"element": "H" 
			}
		],
		 "valence_orbital": [ 
			{
				"type": "occ",
				"energy": -0.30287,
				"method": "rhf"
			},
			{
				"type": "occ",
				"energy": -0.27301,
				"method": "rhf"
			},
			{
				"type": "occ",
				"energy": -0.24419,
				"method": "rhf"
			},
			{
				"type": "occ",
				"energy": -0.23977,
				"method": "rhf"
			},
			{
				"type": "occ",
				"energy": -0.23696,
				"method": "rhf"
			},
			{
				"type": "unocc",
				"energy": 0.00655,
				"method": "rhf"
			},
			{
				"type": "unocc",
				"energy": 0.03645,
				"method": "rhf"
			},
			{
				"type": "unocc",
				"energy": 0.07015,
				"method": "rhf"
			},
			{
				"type": "unocc",
				"energy": 0.07567,
				"method": "rhf"
			},
			{
				"type": "unocc",
				"energy": 0.08679,
				"method": "rhf"
			}
		],
		"cosmo_sigma_profile": { 
			"-0.025": 0.0,
			"-0.024": 0.0,
			"-0.023": 0.0,
			"-0.022": 0.0,
			"-0.021": 0.0,
			"-0.02": 0.0,
			"-0.019": 0.0,
			"-0.018": 0.527366369066,
			"-0.017": 0.975574702679,
			"-0.016": 0.993263171929,
			"-0.015": 0.470137466809,
			"-0.014": 0.88736334494,
			"-0.013": 1.52442235797,
			"-0.012": 1.7627325386,
			"-0.011": 1.64299571685,
			"-0.01": 2.28845632692,
			"-0.009": 1.86233585597,
			"-0.008": 2.80025041879,
			"-0.007": 2.9054777686,
			"-0.006": 3.51775551003,
			"-0.005": 6.79182862301,
			"-0.004": 23.9575572771,
			"-0.003": 50.4475413871,
			"-0.002": 54.6062335396,
			"-0.001": 40.4499870932,
			"0.0": 31.2364333717,
			"0.001": 14.902702834,
			"0.002": 10.4708521819,
			"0.003": 9.08548811598,
			"0.004": 6.44288996601,
			"0.005": 5.82508145167,
			"0.006": 6.07687830882,
			"0.007": 5.83520708625,
			"0.008": 6.28041381641,
			"0.009": 5.61778249336,
			"0.01": 5.60605959928,
			"0.011": 6.46952279301,
			"0.012": 7.20678272678,
			"0.013": 3.46747399172,
			"0.014": 4.89471882571,
			"0.015": 2.25877569338,
			"0.016": 0.0,
			"0.017": 0.0,
			"0.018": 0.0,
			"0.019": 0.0,
			"0.02": 0.0,
			"0.021": 0.0,
			"0.022": 0.0,
			"0.023": 0.0,
			"0.024": 0.0,
			"0.025": 0.0
		}
	}
}
