{
	 "smiles": "OC(=O)C(=O)NCC(F)F", 
	 "Tm": 379.15, 
	 "num_atms": 15, 
	 "gaussian": { 
		 "optdone": 1, 
		 "sigma_profile": "yes", 
		 "theory": "DFT", 
		 "functional": "B3LYP", 
		 "basiset": "6-31G**", 
		 "properties": { 
			 "R2extent": 2019.4288, 
			 "electric_dipole_moment_norm": 2.46319491921, 
			 "electric_quadrupole_moment_norm": 7.33664953095, 
			 "total_energy": -635.553190729, 
			 "HOMO_LUMO_gap": 0.20854, 
			 "cosmo_polarized_energy": -12.72, 
			 "cosmo_cavitation_energy": 20.83, 
			 "cosmo_dispersion_energy": -15.16, 
			 "cosmo_repulsion_energy": 1.22, 
			 "cosmo_total_nonelectrostatic_energy": 6.89, 
			 "SMD_solvation_energy": 6.02 
		},
		"coords": [
			{
				"x": -1.5239422569,
				"y": 2.9526051559,
				"z": 1.8031052105,
				"element": "O" 
			},
			{
				"x": -0.9701772743,
				"y": 2.0033080452,
				"z": 1.0537895527,
				"element": "C" 
			},
			{
				"x": -0.767137163,
				"y": 2.0962461805,
				"z": -0.1352442579,
				"element": "O" 
			},
			{
				"x": -0.6268040433,
				"y": 0.7716488762,
				"z": 1.9231514552,
				"element": "C" 
			},
			{
				"x": -0.8975249736,
				"y": 0.8330809496,
				"z": 3.1252106064,
				"element": "O" 
			},
			{
				"x": -0.0554213597,
				"y": -0.2973858773,
				"z": 1.3366073737,
				"element": "N" 
			},
			{
				"x": 0.3109876035,
				"y": -0.4890933258,
				"z": -0.0638647985,
				"element": "C" 
			},
			{
				"x": 0.9257849362,
				"y": -1.8644319802,
				"z": -0.2299486404,
				"element": "C" 
			},
			{
				"x": 2.0269759201,
				"y": -1.9826378886,
				"z": 0.5734950074,
				"element": "F" 
			},
			{
				"x": 0.0350715168,
				"y": -2.8240517413,
				"z": 0.1673676344,
				"element": "F" 
			},
			{
				"x": -1.5498141687,
				"y": 2.5752785538,
				"z": 2.712292216,
				"element": "H" 
			},
			{
				"x": 0.1372896384,
				"y": -1.0606756362,
				"z": 1.974349185,
				"element": "H" 
			},
			{
				"x": 1.0319028623,
				"y": 0.2646550473,
				"z": -0.3909329483,
				"element": "H" 
			},
			{
				"x": -0.5626297487,
				"y": -0.4088249257,
				"z": -0.7159103035,
				"element": "H" 
			},
			{
				"x": 1.2214385108,
				"y": -2.0644214334,
				"z": -1.2656672927,
				"element": "H" 
			}
		],
		 "valence_orbital": [ 
			{
				"type": "occ",
				"energy": -0.36367,
				"method": "rhf"
			},
			{
				"type": "occ",
				"energy": -0.33606,
				"method": "rhf"
			},
			{
				"type": "occ",
				"energy": -0.33159,
				"method": "rhf"
			},
			{
				"type": "occ",
				"energy": -0.28896,
				"method": "rhf"
			},
			{
				"type": "occ",
				"energy": -0.27171,
				"method": "rhf"
			},
			{
				"type": "unocc",
				"energy": -0.06317,
				"method": "rhf"
			},
			{
				"type": "unocc",
				"energy": 0.06851,
				"method": "rhf"
			},
			{
				"type": "unocc",
				"energy": 0.07819,
				"method": "rhf"
			},
			{
				"type": "unocc",
				"energy": 0.08188,
				"method": "rhf"
			},
			{
				"type": "unocc",
				"energy": 0.10758,
				"method": "rhf"
			}
		],
		"cosmo_sigma_profile": { 
			"-0.025": 0.0,
			"-0.024": 0.0,
			"-0.023": 0.0,
			"-0.022": 0.0,
			"-0.021": 0.0,
			"-0.02": 0.0,
			"-0.019": 0.0,
			"-0.018": 0.0,
			"-0.017": 0.0,
			"-0.016": 0.0,
			"-0.015": 0.192048425684,
			"-0.014": 1.08738309104,
			"-0.013": 1.42439356054,
			"-0.012": 1.05795553726,
			"-0.011": 1.1141197095,
			"-0.01": 5.57228916654,
			"-0.009": 5.91672362512,
			"-0.008": 8.8791212911,
			"-0.007": 10.1348555918,
			"-0.006": 8.03356727808,
			"-0.005": 7.80588118061,
			"-0.004": 5.99493024303,
			"-0.003": 4.93672583543,
			"-0.002": 7.14961192353,
			"-0.001": 8.358490106,
			"0.0": 5.99555477045,
			"0.001": 6.20194278372,
			"0.002": 6.9077128337,
			"0.003": 9.51987011892,
			"0.004": 19.6285342462,
			"0.005": 6.19317222608,
			"0.006": 3.88708860556,
			"0.007": 4.59663046451,
			"0.008": 5.50973518205,
			"0.009": 6.00490319163,
			"0.01": 5.33990587874,
			"0.011": 5.16609766338,
			"0.012": 2.80921670883,
			"0.013": 0.231762600992,
			"0.014": 0.0,
			"0.015": 0.0,
			"0.016": 0.0,
			"0.017": 0.0,
			"0.018": 0.0,
			"0.019": 0.0,
			"0.02": 0.0,
			"0.021": 0.0,
			"0.022": 0.0,
			"0.023": 0.0,
			"0.024": 0.0,
			"0.025": 0.0
		}
	}
}
