{
	 "smiles": "CC1=CC=C(C=C1)S(=O)(=O)C1=CC=C(CBr)C=C1", 
	 "Tm": 411.15, 
	 "num_atms": 31, 
	 "gaussian": { 
		 "optdone": 1, 
		 "sigma_profile": "yes", 
		 "theory": "DFT", 
		 "functional": "B3LYP", 
		 "basiset": "6-31G**", 
		 "properties": { 
			 "R2extent": 9415.3863, 
			 "electric_dipole_moment_norm": 3.72496179443, 
			 "electric_quadrupole_moment_norm": 29.2407730112, 
			 "total_energy": -3661.31009116, 
			 "HOMO_LUMO_gap": 0.19113, 
			 "cosmo_polarized_energy": -16.5, 
			 "cosmo_cavitation_energy": 39.14, 
			 "cosmo_dispersion_energy": -28.07, 
			 "cosmo_repulsion_energy": 2.15, 
			 "cosmo_total_nonelectrostatic_energy": 13.22, 
			 "SMD_solvation_energy": 4.7 
		},
		"coords": [
			{
				"x": 2.2454224331,
				"y": 2.8853365549,
				"z": -3.224205019,
				"element": "C" 
			},
			{
				"x": 1.9131586879,
				"y": 1.6746668005,
				"z": -2.3860643398,
				"element": "C" 
			},
			{
				"x": 2.5359324081,
				"y": 1.4670131815,
				"z": -1.1465407934,
				"element": "C" 
			},
			{
				"x": 2.2138777677,
				"y": 0.3679482786,
				"z": -0.3531937085,
				"element": "C" 
			},
			{
				"x": 1.2539577093,
				"y": -0.5384182584,
				"z": -0.8064305555,
				"element": "C" 
			},
			{
				"x": 0.6288077043,
				"y": -0.3656940042,
				"z": -2.042577653,
				"element": "C" 
			},
			{
				"x": 0.9633736102,
				"y": 0.739114708,
				"z": -2.8224460178,
				"element": "C" 
			},
			{
				"x": 0.8352926762,
				"y": -1.9636044709,
				"z": 0.2056623058,
				"element": "S" 
			},
			{
				"x": 1.9756839778,
				"y": -2.2220262675,
				"z": 1.1001546688,
				"element": "O" 
			},
			{
				"x": 0.29813615,
				"y": -3.0009849786,
				"z": -0.6902788753,
				"element": "O" 
			},
			{
				"x": -0.5309689416,
				"y": -1.40120458,
				"z": 1.2409881126,
				"element": "C" 
			},
			{
				"x": -1.8427690448,
				"y": -1.5687240267,
				"z": 0.7940861919,
				"element": "C" 
			},
			{
				"x": -2.8933032768,
				"y": -1.1405428976,
				"z": 1.6017189986,
				"element": "C" 
			},
			{
				"x": -2.6428704943,
				"y": -0.5525489452,
				"z": 2.8499620109,
				"element": "C" 
			},
			{
				"x": -3.7761108916,
				"y": -0.109572007,
				"z": 3.7188345968,
				"element": "C" 
			},
			{
				"x": -4.2894244896,
				"y": 1.7937796832,
				"z": 3.3632524906,
				"element": "Br" 
			},
			{
				"x": -1.3170768478,
				"y": -0.4042970931,
				"z": 3.2822530592,
				"element": "C" 
			},
			{
				"x": -0.2575535942,
				"y": -0.8283979971,
				"z": 2.484263782,
				"element": "C" 
			},
			{
				"x": 3.2701743774,
				"y": 3.2250140669,
				"z": -3.0489489798,
				"element": "H" 
			},
			{
				"x": 1.5782407323,
				"y": 3.7223015992,
				"z": -2.98309567,
				"element": "H" 
			},
			{
				"x": 2.1322775946,
				"y": 2.6766179582,
				"z": -4.2919324655,
				"element": "H" 
			},
			{
				"x": 3.289247433,
				"y": 2.1706739994,
				"z": -0.8023214285,
				"element": "H" 
			},
			{
				"x": 2.7153494618,
				"y": 0.1953810561,
				"z": 0.5929371728,
				"element": "H" 
			},
			{
				"x": -0.0865999191,
				"y": -1.1015360495,
				"z": -2.3935067688,
				"element": "H" 
			},
			{
				"x": 0.4862367026,
				"y": 0.8732578795,
				"z": -3.7896552625,
				"element": "H" 
			},
			{
				"x": -2.0302084773,
				"y": -2.049767401,
				"z": -0.1596035841,
				"element": "H" 
			},
			{
				"x": -3.9181364499,
				"y": -1.2672344862,
				"z": 1.2639047504,
				"element": "H" 
			},
			{
				"x": -4.6890389496,
				"y": -0.6742518499,
				"z": 3.5393697893,
				"element": "H" 
			},
			{
				"x": -3.5263935608,
				"y": -0.1294208289,
				"z": 4.7779658315,
				"element": "H" 
			},
			{
				"x": -1.1154290888,
				"y": 0.0419400366,
				"z": 4.2521298473,
				"element": "H" 
			},
			{
				"x": 0.7685145996,
				"y": -0.7427196607,
				"z": 2.8247175128,
				"element": "H" 
			}
		],
		 "valence_orbital": [ 
			{
				"type": "occ",
				"energy": -0.28155,
				"method": "rhf"
			},
			{
				"type": "occ",
				"energy": -0.27405,
				"method": "rhf"
			},
			{
				"type": "occ",
				"energy": -0.27385,
				"method": "rhf"
			},
			{
				"type": "occ",
				"energy": -0.26861,
				"method": "rhf"
			},
			{
				"type": "occ",
				"energy": -0.25581,
				"method": "rhf"
			},
			{
				"type": "unocc",
				"energy": -0.06468,
				"method": "rhf"
			},
			{
				"type": "unocc",
				"energy": -0.03059,
				"method": "rhf"
			},
			{
				"type": "unocc",
				"energy": -0.02926,
				"method": "rhf"
			},
			{
				"type": "unocc",
				"energy": -0.01736,
				"method": "rhf"
			},
			{
				"type": "unocc",
				"energy": 0.01078,
				"method": "rhf"
			}
		],
		"cosmo_sigma_profile": { 
			"-0.025": 0.0,
			"-0.024": 0.0,
			"-0.023": 0.0,
			"-0.022": 0.0,
			"-0.021": 0.0,
			"-0.02": 0.0,
			"-0.019": 0.0,
			"-0.018": 0.0,
			"-0.017": 0.0,
			"-0.016": 0.0,
			"-0.015": 0.0,
			"-0.014": 0.0,
			"-0.013": 0.0,
			"-0.012": 0.0,
			"-0.011": 0.0,
			"-0.01": 0.0,
			"-0.009": 0.758130622399,
			"-0.008": 7.95038769235,
			"-0.007": 14.0163030339,
			"-0.006": 19.2151791167,
			"-0.005": 27.2449099884,
			"-0.004": 21.580650467,
			"-0.003": 19.8549402061,
			"-0.002": 18.742520235,
			"-0.001": 24.0355662872,
			"0.0": 22.3204985291,
			"0.001": 22.8683317542,
			"0.002": 27.9484680704,
			"0.003": 23.9248542964,
			"0.004": 11.6939346697,
			"0.005": 10.5760352798,
			"0.006": 13.2887303275,
			"0.007": 4.45044531893,
			"0.008": 3.70873583222,
			"0.009": 3.03949384963,
			"0.01": 5.40523343848,
			"0.011": 7.31072387624,
			"0.012": 6.14346707084,
			"0.013": 0.09193943463,
			"0.014": 0.0,
			"0.015": 0.0,
			"0.016": 0.0,
			"0.017": 0.0,
			"0.018": 0.0,
			"0.019": 0.0,
			"0.02": 0.0,
			"0.021": 0.0,
			"0.022": 0.0,
			"0.023": 0.0,
			"0.024": 0.0,
			"0.025": 0.0
		}
	}
}
