{
	 "smiles": "N#CC1=NC=C(C=C1)N1CCCC1", 
	 "Tm": 380.15, 
	 "num_atms": 24, 
	 "gaussian": { 
		 "optdone": 1, 
		 "sigma_profile": "yes", 
		 "theory": "DFT", 
		 "functional": "B3LYP", 
		 "basiset": "6-31G**", 
		 "properties": { 
			 "R2extent": 3911.3783, 
			 "electric_dipole_moment_norm": 9.27119023697, 
			 "electric_quadrupole_moment_norm": 35.7126063543, 
			 "total_energy": -551.926759375, 
			 "HOMO_LUMO_gap": 0.17364, 
			 "cosmo_polarized_energy": -14.76, 
			 "cosmo_cavitation_energy": 27.69, 
			 "cosmo_dispersion_energy": -20.19, 
			 "cosmo_repulsion_energy": 1.59, 
			 "cosmo_total_nonelectrostatic_energy": 9.09, 
			 "SMD_solvation_energy": 3.44 
		},
		"coords": [
			{
				"x": 4.2035734372,
				"y": 0.145710517,
				"z": -4.8365164638,
				"element": "N" 
			},
			{
				"x": 3.4374373125,
				"y": 0.308093702,
				"z": -3.976095955,
				"element": "C" 
			},
			{
				"x": 2.4979562864,
				"y": 0.4647560648,
				"z": -2.8982655323,
				"element": "C" 
			},
			{
				"x": 1.874314683,
				"y": 1.652770273,
				"z": -2.7867563979,
				"element": "N" 
			},
			{
				"x": 1.0066268245,
				"y": 1.8174906672,
				"z": -1.7996643199,
				"element": "C" 
			},
			{
				"x": 0.6821218103,
				"y": 0.8163459019,
				"z": -0.8412358156,
				"element": "C" 
			},
			{
				"x": 1.349925008,
				"y": -0.4215114884,
				"z": -0.978748835,
				"element": "C" 
			},
			{
				"x": 2.2597618597,
				"y": -0.5941562784,
				"z": -2.0098748196,
				"element": "C" 
			},
			{
				"x": -0.2248744125,
				"y": 1.0487801984,
				"z": 0.1535553014,
				"element": "N" 
			},
			{
				"x": -0.5153081787,
				"y": 0.091605396,
				"z": 1.2236900739,
				"element": "C" 
			},
			{
				"x": -1.3460377719,
				"y": 0.9081883193,
				"z": 2.2244938753,
				"element": "C" 
			},
			{
				"x": -2.0640796483,
				"y": 1.9352558682,
				"z": 1.3345080202,
				"element": "C" 
			},
			{
				"x": -1.0115576675,
				"y": 2.2804473431,
				"z": 0.2708460341,
				"element": "C" 
			},
			{
				"x": 0.5351463932,
				"y": 2.7949625462,
				"z": -1.74404438,
				"element": "H" 
			},
			{
				"x": 1.1507735529,
				"y": -1.237134633,
				"z": -0.2933918129,
				"element": "H" 
			},
			{
				"x": 2.7816367667,
				"y": -1.5370475483,
				"z": -2.1354047262,
				"element": "H" 
			},
			{
				"x": 0.4104384006,
				"y": -0.2922704038,
				"z": 1.6688826588,
				"element": "H" 
			},
			{
				"x": -1.0806157777,
				"y": -0.7713647525,
				"z": 0.8390108554,
				"element": "H" 
			},
			{
				"x": -0.6813216613,
				"y": 1.4188512703,
				"z": 2.9298770562,
				"element": "H" 
			},
			{
				"x": -2.0315084063,
				"y": 0.2834660933,
				"z": 2.8026000507,
				"element": "H" 
			},
			{
				"x": -2.4055907008,
				"y": 2.8172055015,
				"z": 1.8820915377,
				"element": "H" 
			},
			{
				"x": -2.9376824828,
				"y": 1.4768967807,
				"z": 0.858074965,
				"element": "H" 
			},
			{
				"x": -1.4657139935,
				"y": 2.5497191577,
				"z": -0.6896565931,
				"element": "H" 
			},
			{
				"x": -0.3798216338,
				"y": 3.124339504,
				"z": 0.5871252227,
				"element": "H" 
			}
		],
		 "valence_orbital": [ 
			{
				"type": "occ",
				"energy": -0.31768,
				"method": "rhf"
			},
			{
				"type": "occ",
				"energy": -0.30697,
				"method": "rhf"
			},
			{
				"type": "occ",
				"energy": -0.28511,
				"method": "rhf"
			},
			{
				"type": "occ",
				"energy": -0.26618,
				"method": "rhf"
			},
			{
				"type": "occ",
				"energy": -0.21176,
				"method": "rhf"
			},
			{
				"type": "unocc",
				"energy": -0.03812,
				"method": "rhf"
			},
			{
				"type": "unocc",
				"energy": -0.02583,
				"method": "rhf"
			},
			{
				"type": "unocc",
				"energy": 0.05024,
				"method": "rhf"
			},
			{
				"type": "unocc",
				"energy": 0.06212,
				"method": "rhf"
			},
			{
				"type": "unocc",
				"energy": 0.08361,
				"method": "rhf"
			}
		],
		"cosmo_sigma_profile": { 
			"-0.025": 0.0,
			"-0.024": 0.0,
			"-0.023": 0.0,
			"-0.022": 0.0,
			"-0.021": 0.0,
			"-0.02": 0.0,
			"-0.019": 0.0,
			"-0.018": 0.0,
			"-0.017": 0.0,
			"-0.016": 0.0,
			"-0.015": 0.0,
			"-0.014": 0.0,
			"-0.013": 0.0,
			"-0.012": 0.0,
			"-0.011": 0.0,
			"-0.01": 0.0,
			"-0.009": 0.046164366308,
			"-0.008": 2.08469306929,
			"-0.007": 5.33206134911,
			"-0.006": 9.29552506991,
			"-0.005": 13.1648351771,
			"-0.004": 25.6435745894,
			"-0.003": 30.6489485303,
			"-0.002": 21.9888598246,
			"-0.001": 17.0799245263,
			"0.0": 16.8717077834,
			"0.001": 17.0136749679,
			"0.002": 11.6573179602,
			"0.003": 5.23047807225,
			"0.004": 5.4893921493,
			"0.005": 4.73539489718,
			"0.006": 4.21561157424,
			"0.007": 4.12457688226,
			"0.008": 5.01073233508,
			"0.009": 4.71553496543,
			"0.01": 4.19463180721,
			"0.011": 3.87861807751,
			"0.012": 3.29969337027,
			"0.013": 3.4411317014,
			"0.014": 0.971308780062,
			"0.015": 0.54554221592,
			"0.016": 0.0,
			"0.017": 0.0,
			"0.018": 0.0,
			"0.019": 0.0,
			"0.02": 0.0,
			"0.021": 0.0,
			"0.022": 0.0,
			"0.023": 0.0,
			"0.024": 0.0,
			"0.025": 0.0
		}
	}
}
