{
	 "smiles": "CCOC1=C(C=CC(O)=O)C=C2OC(C)CC2=C1", 
	 "Tm": 443.15, 
	 "num_atms": 34, 
	 "gaussian": { 
		 "optdone": 1, 
		 "sigma_profile": "yes", 
		 "theory": "DFT", 
		 "functional": "B3LYP", 
		 "basiset": "6-31G**", 
		 "properties": { 
			 "R2extent": 7550.5458, 
			 "electric_dipole_moment_norm": 7.42311034877, 
			 "electric_quadrupole_moment_norm": 32.1593145431, 
			 "total_energy": -844.014092816, 
			 "HOMO_LUMO_gap": 0.15121, 
			 "cosmo_polarized_energy": -18.47, 
			 "cosmo_cavitation_energy": 37.95, 
			 "cosmo_dispersion_energy": -26.65, 
			 "cosmo_repulsion_energy": 2.09, 
			 "cosmo_total_nonelectrostatic_energy": 13.39, 
			 "SMD_solvation_energy": 7.8 
		},
		"coords": [
			{
				"x": 0.3874441803,
				"y": -3.8546443548,
				"z": 1.8878142912,
				"element": "C" 
			},
			{
				"x": 0.5603771539,
				"y": -2.41604463,
				"z": 1.4368935158,
				"element": "C" 
			},
			{
				"x": -0.7486874627,
				"y": -1.8285564287,
				"z": 1.3028308124,
				"element": "O" 
			},
			{
				"x": -0.7604660008,
				"y": -0.5265646104,
				"z": 0.848739906,
				"element": "C" 
			},
			{
				"x": -0.9937211512,
				"y": 0.5461252637,
				"z": 1.743750058,
				"element": "C" 
			},
			{
				"x": -1.2260812327,
				"y": 0.3977077653,
				"z": 3.1832518113,
				"element": "C" 
			},
			{
				"x": -1.4469027262,
				"y": -0.7182144838,
				"z": 3.906882143,
				"element": "C" 
			},
			{
				"x": -1.6075579856,
				"y": -0.734426173,
				"z": 5.3827662967,
				"element": "C" 
			},
			{
				"x": -2.0395204647,
				"y": 0.4110793842,
				"z": 5.9873645371,
				"element": "O" 
			},
			{
				"x": -1.3589309452,
				"y": -1.7115475633,
				"z": 6.0522873847,
				"element": "O" 
			},
			{
				"x": -1.0086988571,
				"y": 1.8633222704,
				"z": 1.2284356619,
				"element": "C" 
			},
			{
				"x": -0.809245292,
				"y": 2.068557817,
				"z": -0.1261504203,
				"element": "C" 
			},
			{
				"x": -0.8177020901,
				"y": 3.2866449262,
				"z": -0.7397705527,
				"element": "O" 
			},
			{
				"x": -0.3580938707,
				"y": 3.0963282574,
				"z": -2.1135939682,
				"element": "C" 
			},
			{
				"x": -1.1612762019,
				"y": 4.0043543734,
				"z": -3.0260614503,
				"element": "C" 
			},
			{
				"x": -0.4832260046,
				"y": 1.5754614904,
				"z": -2.3999357143,
				"element": "C" 
			},
			{
				"x": -0.5908911042,
				"y": 1.0051767288,
				"z": -1.0068205992,
				"element": "C" 
			},
			{
				"x": -0.5680958131,
				"y": -0.2933037915,
				"z": -0.5200372849,
				"element": "C" 
			},
			{
				"x": -0.1036292322,
				"y": -3.9031062496,
				"z": 2.8638510772,
				"element": "H" 
			},
			{
				"x": -0.2171738242,
				"y": -4.41358146,
				"z": 1.1678303645,
				"element": "H" 
			},
			{
				"x": 1.3648897895,
				"y": -4.3397420264,
				"z": 1.9723454652,
				"element": "H" 
			},
			{
				"x": 1.0837510282,
				"y": -2.3659113472,
				"z": 0.4721630804,
				"element": "H" 
			},
			{
				"x": 1.14530177,
				"y": -1.8385993521,
				"z": 2.1656988375,
				"element": "H" 
			},
			{
				"x": -1.2009254876,
				"y": 1.3521288261,
				"z": 3.7124457106,
				"element": "H" 
			},
			{
				"x": -1.443104854,
				"y": -1.6951527101,
				"z": 3.444236154,
				"element": "H" 
			},
			{
				"x": -2.3679388062,
				"y": 1.0265756357,
				"z": 5.3175344315,
				"element": "H" 
			},
			{
				"x": -1.1796628297,
				"y": 2.7075982587,
				"z": 1.88867046,
				"element": "H" 
			},
			{
				"x": 0.7011179507,
				"y": 3.3874199757,
				"z": -2.1279334719,
				"element": "H" 
			},
			{
				"x": -0.8002693465,
				"y": 3.9203685048,
				"z": -4.0563459469,
				"element": "H" 
			},
			{
				"x": -1.067819668,
				"y": 5.0480120745,
				"z": -2.7136247281,
				"element": "H" 
			},
			{
				"x": -2.2204619031,
				"y": 3.7297898649,
				"z": -3.0047516032,
				"element": "H" 
			},
			{
				"x": -1.385974126,
				"y": 1.3557280983,
				"z": -2.9863970785,
				"element": "H" 
			},
			{
				"x": 0.3736832469,
				"y": 1.1978223197,
				"z": -2.9661278862,
				"element": "H" 
			},
			{
				"x": -0.4181078392,
				"y": -1.1452066545,
				"z": -1.1766412944,
				"element": "H" 
			}
		],
		 "valence_orbital": [ 
			{
				"type": "occ",
				"energy": -0.29255,
				"method": "rhf"
			},
			{
				"type": "occ",
				"energy": -0.27673,
				"method": "rhf"
			},
			{
				"type": "occ",
				"energy": -0.2608,
				"method": "rhf"
			},
			{
				"type": "occ",
				"energy": -0.24499,
				"method": "rhf"
			},
			{
				"type": "occ",
				"energy": -0.21417,
				"method": "rhf"
			},
			{
				"type": "unocc",
				"energy": -0.06296,
				"method": "rhf"
			},
			{
				"type": "unocc",
				"energy": -0.00782,
				"method": "rhf"
			},
			{
				"type": "unocc",
				"energy": 0.0228,
				"method": "rhf"
			},
			{
				"type": "unocc",
				"energy": 0.06679,
				"method": "rhf"
			},
			{
				"type": "unocc",
				"energy": 0.08071,
				"method": "rhf"
			}
		],
		"cosmo_sigma_profile": { 
			"-0.025": 0.0,
			"-0.024": 0.0,
			"-0.023": 0.0,
			"-0.022": 0.0,
			"-0.021": 0.0,
			"-0.02": 0.0,
			"-0.019": 0.0,
			"-0.018": 0.57840851689,
			"-0.017": 1.1123073342,
			"-0.016": 0.896062011032,
			"-0.015": 0.850543942582,
			"-0.014": 1.16182642896,
			"-0.013": 1.15506300363,
			"-0.012": 0.709470251854,
			"-0.011": 1.15202271935,
			"-0.01": 1.20887170777,
			"-0.009": 1.72804698882,
			"-0.008": 2.63089385074,
			"-0.007": 3.98265263505,
			"-0.006": 5.51413982935,
			"-0.005": 15.3756243992,
			"-0.004": 31.4880263218,
			"-0.003": 34.4683713713,
			"-0.002": 32.7732586098,
			"-0.001": 26.4704577805,
			"0.0": 24.0056210791,
			"0.001": 15.3125155555,
			"0.002": 16.9147101151,
			"0.003": 20.4260978244,
			"0.004": 10.2734118725,
			"0.005": 4.80175113989,
			"0.006": 5.69699058772,
			"0.007": 4.71959663921,
			"0.008": 4.52886155979,
			"0.009": 4.72083641825,
			"0.01": 6.4818302949,
			"0.011": 7.22770916003,
			"0.012": 6.2679548914,
			"0.013": 4.55889711068,
			"0.014": 0.766413126708,
			"0.015": 0.0,
			"0.016": 0.0,
			"0.017": 0.0,
			"0.018": 0.0,
			"0.019": 0.0,
			"0.02": 0.0,
			"0.021": 0.0,
			"0.022": 0.0,
			"0.023": 0.0,
			"0.024": 0.0,
			"0.025": 0.0
		}
	}
}
