{
	 "smiles": "CC(=C(/C)C1=CC=CC=C1)C1=CC=CC=C1", 
	 "Tm": 338.15, 
	 "num_atms": 32, 
	 "gaussian": { 
		 "optdone": 1, 
		 "sigma_profile": "yes", 
		 "theory": "DFT", 
		 "functional": "B3LYP", 
		 "basiset": "6-31G**", 
		 "properties": { 
			 "R2extent": 4149.2461, 
			 "electric_dipole_moment_norm": 0.278702027262, 
			 "electric_quadrupole_moment_norm": 6.44563598491, 
			 "total_energy": -619.339911023, 
			 "HOMO_LUMO_gap": 0.19189, 
			 "cosmo_polarized_energy": -5.93, 
			 "cosmo_cavitation_energy": 34.37, 
			 "cosmo_dispersion_energy": -23.56, 
			 "cosmo_repulsion_energy": 1.87, 
			 "cosmo_total_nonelectrostatic_energy": 12.68, 
			 "SMD_solvation_energy": 5.99 
		},
		"coords": [
			{
				"x": 0.2201946621,
				"y": -1.5092389921,
				"z": -3.1370794338,
				"element": "C" 
			},
			{
				"x": 0.5030316495,
				"y": -0.7012691708,
				"z": -1.8867625212,
				"element": "C" 
			},
			{
				"x": -0.1574727009,
				"y": 0.4312349934,
				"z": -1.5466302392,
				"element": "C" 
			},
			{
				"x": -1.3026641951,
				"y": 1.0213171616,
				"z": -2.3444318922,
				"element": "C" 
			},
			{
				"x": 0.2215625585,
				"y": 1.2566361253,
				"z": -0.3550702567,
				"element": "C" 
			},
			{
				"x": -0.727092383,
				"y": 1.5831369403,
				"z": 0.6288429164,
				"element": "C" 
			},
			{
				"x": -0.3875352507,
				"y": 2.3857838479,
				"z": 1.7180695071,
				"element": "C" 
			},
			{
				"x": 0.9066633291,
				"y": 2.8949364836,
				"z": 1.8385487176,
				"element": "C" 
			},
			{
				"x": 1.8569896831,
				"y": 2.5906924924,
				"z": 0.8622168306,
				"element": "C" 
			},
			{
				"x": 1.5173128815,
				"y": 1.7817731941,
				"z": -0.2217144798,
				"element": "C" 
			},
			{
				"x": 1.5613271394,
				"y": -1.3076673586,
				"z": -1.0166675433,
				"element": "C" 
			},
			{
				"x": 1.2829005256,
				"y": -1.6779792162,
				"z": 0.309171126,
				"element": "C" 
			},
			{
				"x": 2.2530255131,
				"y": -2.2877427409,
				"z": 1.1039500893,
				"element": "C" 
			},
			{
				"x": 3.5255485963,
				"y": -2.5430956153,
				"z": 0.5897552309,
				"element": "C" 
			},
			{
				"x": 3.8170218988,
				"y": -2.1864918153,
				"z": -0.7280394086,
				"element": "C" 
			},
			{
				"x": 2.842537324,
				"y": -1.5836755807,
				"z": -1.5236023811,
				"element": "C" 
			},
			{
				"x": -0.1599358768,
				"y": -2.5043219005,
				"z": -2.8735711205,
				"element": "H" 
			},
			{
				"x": 1.14273279,
				"y": -1.6761704839,
				"z": -3.7048182959,
				"element": "H" 
			},
			{
				"x": -0.4963653645,
				"y": -1.0384192431,
				"z": -3.8100937475,
				"element": "H" 
			},
			{
				"x": -1.6303012918,
				"y": 0.3915533166,
				"z": -3.1715444635,
				"element": "H" 
			},
			{
				"x": -1.0231431373,
				"y": 2.0018277733,
				"z": -2.7501206139,
				"element": "H" 
			},
			{
				"x": -2.1720487175,
				"y": 1.1949720349,
				"z": -1.6999802093,
				"element": "H" 
			},
			{
				"x": -1.7376137493,
				"y": 1.1907617693,
				"z": 0.5513233135,
				"element": "H" 
			},
			{
				"x": -1.135380198,
				"y": 2.6137118421,
				"z": 2.4727775028,
				"element": "H" 
			},
			{
				"x": 1.1709918698,
				"y": 3.5244536392,
				"z": 2.6834603034,
				"element": "H" 
			},
			{
				"x": 2.8658918243,
				"y": 2.9860995944,
				"z": 0.9421765578,
				"element": "H" 
			},
			{
				"x": 2.2608355111,
				"y": 1.5495068412,
				"z": -0.9774519065,
				"element": "H" 
			},
			{
				"x": 0.2953908572,
				"y": -1.4827452356,
				"z": 0.7148878536,
				"element": "H" 
			},
			{
				"x": 2.0126948824,
				"y": -2.5662676583,
				"z": 2.1263414415,
				"element": "H" 
			},
			{
				"x": 4.2818004483,
				"y": -3.0174872816,
				"z": 1.2086861698,
				"element": "H" 
			},
			{
				"x": 4.8046153433,
				"y": -2.3780855167,
				"z": -1.1388418636,
				"element": "H" 
			},
			{
				"x": 3.0859835775,
				"y": -1.3080402398,
				"z": -2.5462871834,
				"element": "H" 
			}
		],
		 "valence_orbital": [ 
			{
				"type": "occ",
				"energy": -0.25873,
				"method": "rhf"
			},
			{
				"type": "occ",
				"energy": -0.25009,
				"method": "rhf"
			},
			{
				"type": "occ",
				"energy": -0.24196,
				"method": "rhf"
			},
			{
				"type": "occ",
				"energy": -0.24134,
				"method": "rhf"
			},
			{
				"type": "occ",
				"energy": -0.20885,
				"method": "rhf"
			},
			{
				"type": "unocc",
				"energy": -0.01696,
				"method": "rhf"
			},
			{
				"type": "unocc",
				"energy": 0.00313,
				"method": "rhf"
			},
			{
				"type": "unocc",
				"energy": 0.00476,
				"method": "rhf"
			},
			{
				"type": "unocc",
				"energy": 0.01262,
				"method": "rhf"
			},
			{
				"type": "unocc",
				"energy": 0.04743,
				"method": "rhf"
			}
		],
		"cosmo_sigma_profile": { 
			"-0.025": 0.0,
			"-0.024": 0.0,
			"-0.023": 0.0,
			"-0.022": 0.0,
			"-0.021": 0.0,
			"-0.02": 0.0,
			"-0.019": 0.0,
			"-0.018": 0.0,
			"-0.017": 0.0,
			"-0.016": 0.0,
			"-0.015": 0.0,
			"-0.014": 0.0,
			"-0.013": 0.0,
			"-0.012": 0.0,
			"-0.011": 0.0,
			"-0.01": 0.0,
			"-0.009": 0.0,
			"-0.008": 0.0,
			"-0.007": 0.0,
			"-0.006": 4.3807158984,
			"-0.005": 20.3491085281,
			"-0.004": 25.4085002663,
			"-0.003": 30.8189783189,
			"-0.002": 23.4670815212,
			"-0.001": 25.0938919857,
			"0.0": 29.4547828773,
			"0.001": 25.8130895102,
			"0.002": 17.9353537655,
			"0.003": 17.0298121516,
			"0.004": 16.2897406599,
			"0.005": 14.9412317543,
			"0.006": 15.7175680774,
			"0.007": 6.50644635179,
			"0.008": 0.00584007440507,
			"0.009": 0.0,
			"0.01": 0.0,
			"0.011": 0.0,
			"0.012": 0.0,
			"0.013": 0.0,
			"0.014": 0.0,
			"0.015": 0.0,
			"0.016": 0.0,
			"0.017": 0.0,
			"0.018": 0.0,
			"0.019": 0.0,
			"0.02": 0.0,
			"0.021": 0.0,
			"0.022": 0.0,
			"0.023": 0.0,
			"0.024": 0.0,
			"0.025": 0.0
		}
	}
}
