{
	 "smiles": "NC(=O)C1=C(N)C=CC(F)=C1", 
	 "Tm": 417.15, 
	 "num_atms": 18, 
	 "gaussian": { 
		 "optdone": 1, 
		 "sigma_profile": "yes", 
		 "theory": "DFT", 
		 "functional": "B3LYP", 
		 "basiset": "6-31G**", 
		 "properties": { 
			 "R2extent": 1845.2527, 
			 "electric_dipole_moment_norm": 5.06415613207, 
			 "electric_quadrupole_moment_norm": 5.94858233952, 
			 "total_energy": -555.545681612, 
			 "HOMO_LUMO_gap": 0.17836, 
			 "cosmo_polarized_energy": -14.93, 
			 "cosmo_cavitation_energy": 22.46, 
			 "cosmo_dispersion_energy": -16.84, 
			 "cosmo_repulsion_energy": 1.33, 
			 "cosmo_total_nonelectrostatic_energy": 6.95, 
			 "SMD_solvation_energy": 5.29 
		},
		"coords": [
			{
				"x": -2.3170383913,
				"y": -0.4747379673,
				"z": 1.5461782657,
				"element": "N" 
			},
			{
				"x": -0.9471585907,
				"y": -0.6353148656,
				"z": 1.5333871714,
				"element": "C" 
			},
			{
				"x": -0.3280775595,
				"y": -0.8868615586,
				"z": 2.5600285432,
				"element": "O" 
			},
			{
				"x": -0.2508468878,
				"y": -0.485685143,
				"z": 0.2074671647,
				"element": "C" 
			},
			{
				"x": -0.7924404909,
				"y": 0.1348612675,
				"z": -0.9451898719,
				"element": "C" 
			},
			{
				"x": -2.0827695703,
				"y": 0.6996601111,
				"z": -0.9588978349,
				"element": "N" 
			},
			{
				"x": -0.0271139784,
				"y": 0.1461643583,
				"z": -2.1244094408,
				"element": "C" 
			},
			{
				"x": 1.2397820271,
				"y": -0.4240489803,
				"z": -2.1768229726,
				"element": "C" 
			},
			{
				"x": 1.7640507389,
				"y": -0.9993121913,
				"z": -1.0237504609,
				"element": "C" 
			},
			{
				"x": 3.0021024036,
				"y": -1.5402263011,
				"z": -1.0619541379,
				"element": "F" 
			},
			{
				"x": 1.0422511871,
				"y": -1.0271810887,
				"z": 0.1546905691,
				"element": "C" 
			},
			{
				"x": -2.839001999,
				"y": -0.6129453095,
				"z": 0.6899981258,
				"element": "H" 
			},
			{
				"x": -2.7559885809,
				"y": -0.766927323,
				"z": 2.4088550326,
				"element": "H" 
			},
			{
				"x": -2.3131057478,
				"y": 1.2195438245,
				"z": -0.1194740995,
				"element": "H" 
			},
			{
				"x": -2.2567991874,
				"y": 1.2592650657,
				"z": -1.7846110648,
				"element": "H" 
			},
			{
				"x": -0.4359034589,
				"y": 0.6199061995,
				"z": -3.0135122236,
				"element": "H" 
			},
			{
				"x": 1.8249156225,
				"y": -0.4137892112,
				"z": -3.0901600942,
				"element": "H" 
			},
			{
				"x": 1.4553424636,
				"y": -1.471770887,
				"z": 1.0524773287,
				"element": "H" 
			}
		],
		 "valence_orbital": [ 
			{
				"type": "occ",
				"energy": -0.3119,
				"method": "rhf"
			},
			{
				"type": "occ",
				"energy": -0.27444,
				"method": "rhf"
			},
			{
				"type": "occ",
				"energy": -0.26399,
				"method": "rhf"
			},
			{
				"type": "occ",
				"energy": -0.25043,
				"method": "rhf"
			},
			{
				"type": "occ",
				"energy": -0.217,
				"method": "rhf"
			},
			{
				"type": "unocc",
				"energy": -0.03864,
				"method": "rhf"
			},
			{
				"type": "unocc",
				"energy": 0.00497,
				"method": "rhf"
			},
			{
				"type": "unocc",
				"energy": 0.05805,
				"method": "rhf"
			},
			{
				"type": "unocc",
				"energy": 0.07178,
				"method": "rhf"
			},
			{
				"type": "unocc",
				"energy": 0.09411,
				"method": "rhf"
			}
		],
		"cosmo_sigma_profile": { 
			"-0.025": 0.0,
			"-0.024": 0.0,
			"-0.023": 0.0,
			"-0.022": 0.0,
			"-0.021": 0.0,
			"-0.02": 0.0,
			"-0.019": 0.0,
			"-0.018": 0.0,
			"-0.017": 0.0,
			"-0.016": 0.0,
			"-0.015": 0.0,
			"-0.014": 0.392177774721,
			"-0.013": 2.0217142422,
			"-0.012": 3.66541566104,
			"-0.011": 3.59704365691,
			"-0.01": 4.52629123076,
			"-0.009": 5.41537539863,
			"-0.008": 5.64871602935,
			"-0.007": 7.11423684196,
			"-0.006": 7.06627482229,
			"-0.005": 7.49248264467,
			"-0.004": 5.87097152048,
			"-0.003": 8.05478252914,
			"-0.002": 7.02690502067,
			"-0.001": 7.93564171993,
			"0.0": 9.675360842,
			"0.001": 12.3073007159,
			"0.002": 14.1533010455,
			"0.003": 16.8164349083,
			"0.004": 16.4827506973,
			"0.005": 10.8838672204,
			"0.006": 2.36021341858,
			"0.007": 2.64824874937,
			"0.008": 1.52780897495,
			"0.009": 2.22241330757,
			"0.01": 1.8149332765,
			"0.011": 1.84900638582,
			"0.012": 2.14948589387,
			"0.013": 4.29692666163,
			"0.014": 3.71146307304,
			"0.015": 0.200517693529,
			"0.016": 0.0,
			"0.017": 0.0,
			"0.018": 0.0,
			"0.019": 0.0,
			"0.02": 0.0,
			"0.021": 0.0,
			"0.022": 0.0,
			"0.023": 0.0,
			"0.024": 0.0,
			"0.025": 0.0
		}
	}
}
