{
	 "smiles": "CC1=NC(C2=CC=CC=C2)=C2C=CC=CC2=C1", 
	 "Tm": 360.15, 
	 "num_atms": 30, 
	 "gaussian": { 
		 "optdone": 1, 
		 "sigma_profile": "yes", 
		 "theory": "DFT", 
		 "functional": "B3LYP", 
		 "basiset": "6-31G**", 
		 "properties": { 
			 "R2extent": 4477.0678, 
			 "electric_dipole_moment_norm": 1.53898821633, 
			 "electric_quadrupole_moment_norm": 10.4811620525, 
			 "total_energy": -672.30945418, 
			 "HOMO_LUMO_gap": 0.15928, 
			 "cosmo_polarized_energy": -7.86, 
			 "cosmo_cavitation_energy": 33.27, 
			 "cosmo_dispersion_energy": -24.23, 
			 "cosmo_repulsion_energy": 1.86, 
			 "cosmo_total_nonelectrostatic_energy": 10.9, 
			 "SMD_solvation_energy": 4.24 
		},
		"coords": [
			{
				"x": 0.206331675,
				"y": 3.3088339764,
				"z": -0.630592143,
				"element": "C" 
			},
			{
				"x": -0.4902242737,
				"y": 1.9860551105,
				"z": -0.4159379659,
				"element": "C" 
			},
			{
				"x": 0.3166862623,
				"y": 0.9012370173,
				"z": -0.2666618971,
				"element": "N" 
			},
			{
				"x": -0.2086928461,
				"y": -0.3022632544,
				"z": -0.0783657798,
				"element": "C" 
			},
			{
				"x": 0.7829480126,
				"y": -1.3962566447,
				"z": 0.1369276784,
				"element": "C" 
			},
			{
				"x": 1.9345026202,
				"y": -1.4443473767,
				"z": -0.665483568,
				"element": "C" 
			},
			{
				"x": 2.8983917365,
				"y": -2.4304434272,
				"z": -0.4688870308,
				"element": "C" 
			},
			{
				"x": 2.7389943403,
				"y": -3.3773385708,
				"z": 0.5463219608,
				"element": "C" 
			},
			{
				"x": 1.6112555539,
				"y": -3.3254366084,
				"z": 1.3663835332,
				"element": "C" 
			},
			{
				"x": 0.6398426511,
				"y": -2.3440852077,
				"z": 1.1632512887,
				"element": "C" 
			},
			{
				"x": -1.6278151328,
				"y": -0.5325047799,
				"z": -0.089066648,
				"element": "C" 
			},
			{
				"x": -2.2345885613,
				"y": -1.8185283377,
				"z": -0.0376757273,
				"element": "C" 
			},
			{
				"x": -3.6050907486,
				"y": -1.9530881033,
				"z": -0.0486544655,
				"element": "C" 
			},
			{
				"x": -4.4384992836,
				"y": -0.8097024227,
				"z": -0.1152228167,
				"element": "C" 
			},
			{
				"x": -3.8852652211,
				"y": 0.4463016091,
				"z": -0.2006156697,
				"element": "C" 
			},
			{
				"x": -2.473358668,
				"y": 0.6173003641,
				"z": -0.207717702,
				"element": "C" 
			},
			{
				"x": -1.8652874881,
				"y": 1.885543472,
				"z": -0.3567911124,
				"element": "C" 
			},
			{
				"x": 1.28643995,
				"y": 3.1548334731,
				"z": -0.6444749641,
				"element": "H" 
			},
			{
				"x": -0.0336661676,
				"y": 4.0205186473,
				"z": 0.1676314463,
				"element": "H" 
			},
			{
				"x": -0.0951331094,
				"y": 3.7702351929,
				"z": -1.5778199768,
				"element": "H" 
			},
			{
				"x": 2.0604643339,
				"y": -0.6937586313,
				"z": -1.4384607846,
				"element": "H" 
			},
			{
				"x": 3.7777766,
				"y": -2.4590092662,
				"z": -1.1062295271,
				"element": "H" 
			},
			{
				"x": 3.4925226587,
				"y": -4.1442025599,
				"z": 0.7018102869,
				"element": "H" 
			},
			{
				"x": 1.4894156892,
				"y": -4.0435137935,
				"z": 2.1724606125,
				"element": "H" 
			},
			{
				"x": -0.2192899064,
				"y": -2.2950552493,
				"z": 1.8248794895,
				"element": "H" 
			},
			{
				"x": -1.6067158906,
				"y": -2.7009761293,
				"z": -0.0095294637,
				"element": "H" 
			},
			{
				"x": -4.0519722476,
				"y": -2.9423272718,
				"z": -0.0147826315,
				"element": "H" 
			},
			{
				"x": -5.5180904382,
				"y": -0.930749919,
				"z": -0.1159021381,
				"element": "H" 
			},
			{
				"x": -4.518001609,
				"y": 1.3265117829,
				"z": -0.2778486491,
				"element": "H" 
			},
			{
				"x": -2.4887804914,
				"y": 2.771616908,
				"z": -0.4456456354,
				"element": "H" 
			}
		],
		 "valence_orbital": [ 
			{
				"type": "occ",
				"energy": -0.25779,
				"method": "rhf"
			},
			{
				"type": "occ",
				"energy": -0.25123,
				"method": "rhf"
			},
			{
				"type": "occ",
				"energy": -0.25019,
				"method": "rhf"
			},
			{
				"type": "occ",
				"energy": -0.24319,
				"method": "rhf"
			},
			{
				"type": "occ",
				"energy": -0.21191,
				"method": "rhf"
			},
			{
				"type": "unocc",
				"energy": -0.05263,
				"method": "rhf"
			},
			{
				"type": "unocc",
				"energy": -0.01647,
				"method": "rhf"
			},
			{
				"type": "unocc",
				"energy": -0.00495,
				"method": "rhf"
			},
			{
				"type": "unocc",
				"energy": 0.0022,
				"method": "rhf"
			},
			{
				"type": "unocc",
				"energy": 0.03895,
				"method": "rhf"
			}
		],
		"cosmo_sigma_profile": { 
			"-0.025": 0.0,
			"-0.024": 0.0,
			"-0.023": 0.0,
			"-0.022": 0.0,
			"-0.021": 0.0,
			"-0.02": 0.0,
			"-0.019": 0.0,
			"-0.018": 0.0,
			"-0.017": 0.0,
			"-0.016": 0.0,
			"-0.015": 0.0,
			"-0.014": 0.0,
			"-0.013": 0.0,
			"-0.012": 0.0,
			"-0.011": 0.0,
			"-0.01": 0.0,
			"-0.009": 0.0,
			"-0.008": 0.0,
			"-0.007": 0.821159251074,
			"-0.006": 12.6342357389,
			"-0.005": 20.6884610423,
			"-0.004": 25.8561705289,
			"-0.003": 23.8436649258,
			"-0.002": 22.3240917224,
			"-0.001": 19.3021697001,
			"0.0": 19.9945649582,
			"0.001": 23.5096947075,
			"0.002": 21.8986898663,
			"0.003": 25.5246926266,
			"0.004": 21.256104634,
			"0.005": 14.4157794763,
			"0.006": 5.70415005202,
			"0.007": 1.52772797351,
			"0.008": 1.49210149733,
			"0.009": 1.49198283862,
			"0.01": 0.843527977464,
			"0.011": 1.41007233534,
			"0.012": 0.64163067119,
			"0.013": 0.734495307146,
			"0.014": 0.520911177422,
			"0.015": 0.336048051407,
			"0.016": 0.0,
			"0.017": 0.0,
			"0.018": 0.0,
			"0.019": 0.0,
			"0.02": 0.0,
			"0.021": 0.0,
			"0.022": 0.0,
			"0.023": 0.0,
			"0.024": 0.0,
			"0.025": 0.0
		}
	}
}
