{
	 "smiles": "CNC1=C(C=CC(Cl)=C1)[N+]([O-])=O", 
	 "Tm": 379.15, 
	 "num_atms": 19, 
	 "gaussian": { 
		 "optdone": 1, 
		 "sigma_profile": "yes", 
		 "theory": "DFT", 
		 "functional": "B3LYP", 
		 "basiset": "6-31G**", 
		 "properties": { 
			 "R2extent": 2800.2371, 
			 "electric_dipole_moment_norm": 3.60306742096, 
			 "electric_quadrupole_moment_norm": 15.6758427652, 
			 "total_energy": -990.996264306, 
			 "HOMO_LUMO_gap": 0.14817, 
			 "cosmo_polarized_energy": -11.99, 
			 "cosmo_cavitation_energy": 25.14, 
			 "cosmo_dispersion_energy": -18.73, 
			 "cosmo_repulsion_energy": 1.48, 
			 "cosmo_total_nonelectrostatic_energy": 7.89, 
			 "SMD_solvation_energy": 5.69 
		},
		"coords": [
			{
				"x": -3.2761227653,
				"y": 0.8864041169,
				"z": -1.4827513919,
				"element": "C" 
			},
			{
				"x": -1.9185242432,
				"y": 1.4181807114,
				"z": -1.5198839594,
				"element": "N" 
			},
			{
				"x": -0.7868802802,
				"y": 0.8078628279,
				"z": -1.0443771771,
				"element": "C" 
			},
			{
				"x": -0.7134949526,
				"y": -0.1131595929,
				"z": 0.0344088159,
				"element": "C" 
			},
			{
				"x": 0.481502435,
				"y": -0.7801729303,
				"z": 0.3423667746,
				"element": "C" 
			},
			{
				"x": 1.6550297614,
				"y": -0.5121473698,
				"z": -0.3371436866,
				"element": "C" 
			},
			{
				"x": 1.6096985036,
				"y": 0.4499321181,
				"z": -1.3559350627,
				"element": "C" 
			},
			{
				"x": 3.0799867785,
				"y": 0.8361145165,
				"z": -2.2309308608,
				"element": "Cl" 
			},
			{
				"x": 0.4344323362,
				"y": 1.0835053967,
				"z": -1.7119795563,
				"element": "C" 
			},
			{
				"x": -1.8127590901,
				"y": -0.3340014675,
				"z": 0.9663638577,
				"element": "N" 
			},
			{
				"x": -1.8653812116,
				"y": -1.4194635289,
				"z": 1.5505416042,
				"element": "O" 
			},
			{
				"x": -2.5935375668,
				"y": 0.6009662406,
				"z": 1.1704182458,
				"element": "O" 
			},
			{
				"x": -3.2692203585,
				"y": -0.2096553373,
				"z": -1.4912984467,
				"element": "H" 
			},
			{
				"x": -3.8246599698,
				"y": 1.2158856236,
				"z": -0.5982220958,
				"element": "H" 
			},
			{
				"x": -3.7971550459,
				"y": 1.2276606509,
				"z": -2.3807266451,
				"element": "H" 
			},
			{
				"x": -1.7363477073,
				"y": 2.0372699138,
				"z": -2.2950940052,
				"element": "H" 
			},
			{
				"x": 0.4605206129,
				"y": -1.4912384595,
				"z": 1.159093187,
				"element": "H" 
			},
			{
				"x": 2.5826610224,
				"y": -1.008534495,
				"z": -0.0817523573,
				"element": "H" 
			},
			{
				"x": 0.4329517415,
				"y": 1.7836910648,
				"z": -2.5411972402,
				"element": "H" 
			}
		],
		 "valence_orbital": [ 
			{
				"type": "occ",
				"energy": -0.30297,
				"method": "rhf"
			},
			{
				"type": "occ",
				"energy": -0.29939,
				"method": "rhf"
			},
			{
				"type": "occ",
				"energy": -0.28855,
				"method": "rhf"
			},
			{
				"type": "occ",
				"energy": -0.26451,
				"method": "rhf"
			},
			{
				"type": "occ",
				"energy": -0.22777,
				"method": "rhf"
			},
			{
				"type": "unocc",
				"energy": -0.0796,
				"method": "rhf"
			},
			{
				"type": "unocc",
				"energy": -0.0221,
				"method": "rhf"
			},
			{
				"type": "unocc",
				"energy": -0.00642,
				"method": "rhf"
			},
			{
				"type": "unocc",
				"energy": 0.01656,
				"method": "rhf"
			},
			{
				"type": "unocc",
				"energy": 0.05989,
				"method": "rhf"
			}
		],
		"cosmo_sigma_profile": { 
			"-0.025": 0.0,
			"-0.024": 0.0,
			"-0.023": 0.0,
			"-0.022": 0.0,
			"-0.021": 0.0,
			"-0.02": 0.0,
			"-0.019": 0.0,
			"-0.018": 0.0,
			"-0.017": 0.0,
			"-0.016": 0.0,
			"-0.015": 0.586315828097,
			"-0.014": 1.98140703735,
			"-0.013": 1.86450755434,
			"-0.012": 1.5023656879,
			"-0.011": 1.3216034555,
			"-0.01": 1.91362846085,
			"-0.009": 1.74531564205,
			"-0.008": 3.10502323758,
			"-0.007": 6.8727022336,
			"-0.006": 8.30108909132,
			"-0.005": 10.1381168992,
			"-0.004": 10.2589808861,
			"-0.003": 12.2322611508,
			"-0.002": 15.1637864293,
			"-0.001": 13.1329562048,
			"0.0": 14.7884458725,
			"0.001": 20.6643884758,
			"0.002": 17.0377322378,
			"0.003": 12.7779326517,
			"0.004": 13.4753575693,
			"0.005": 3.89207118517,
			"0.006": 3.93867420029,
			"0.007": 4.20016452311,
			"0.008": 8.8476849638,
			"0.009": 7.0591283906,
			"0.01": 4.45183576555,
			"0.011": 1.8396063993,
			"0.012": 0.0230607903264,
			"0.013": 0.0,
			"0.014": 0.0,
			"0.015": 0.0,
			"0.016": 0.0,
			"0.017": 0.0,
			"0.018": 0.0,
			"0.019": 0.0,
			"0.02": 0.0,
			"0.021": 0.0,
			"0.022": 0.0,
			"0.023": 0.0,
			"0.024": 0.0,
			"0.025": 0.0
		}
	}
}
