{
	 "smiles": "CC(=O)NC1=CC=CN=C1", 
	 "Tm": 405.15, 
	 "num_atms": 18, 
	 "gaussian": { 
		 "optdone": 1, 
		 "sigma_profile": "yes", 
		 "theory": "DFT", 
		 "functional": "B3LYP", 
		 "basiset": "6-31G**", 
		 "properties": { 
			 "R2extent": 1950.3171, 
			 "electric_dipole_moment_norm": 2.96716931435, 
			 "electric_quadrupole_moment_norm": 9.15206053302, 
			 "total_energy": -456.298977284, 
			 "HOMO_LUMO_gap": 0.19865, 
			 "cosmo_polarized_energy": -13.28, 
			 "cosmo_cavitation_energy": 22.05, 
			 "cosmo_dispersion_energy": -16.44, 
			 "cosmo_repulsion_energy": 1.32, 
			 "cosmo_total_nonelectrostatic_energy": 6.93, 
			 "SMD_solvation_energy": 3.39 
		},
		"coords": [
			{
				"x": 0.8787788979,
				"y": 0.7342409016,
				"z": -1.8673609699,
				"element": "C" 
			},
			{
				"x": 1.834450536,
				"y": -0.182304787,
				"z": -1.1338965197,
				"element": "C" 
			},
			{
				"x": 2.7927911567,
				"y": -0.6953324145,
				"z": -1.6913970149,
				"element": "O" 
			},
			{
				"x": 1.6294580366,
				"y": -0.4588117648,
				"z": 0.2134581343,
				"element": "N" 
			},
			{
				"x": 0.6894191901,
				"y": -0.0891590873,
				"z": 1.1853459174,
				"element": "C" 
			},
			{
				"x": -0.4135550795,
				"y": 0.7586315106,
				"z": 1.0103675532,
				"element": "C" 
			},
			{
				"x": -1.2427176828,
				"y": 1.0107111019,
				"z": 2.1028283754,
				"element": "C" 
			},
			{
				"x": -0.9624668281,
				"y": 0.4221214286,
				"z": 3.3329937278,
				"element": "C" 
			},
			{
				"x": 0.0872106355,
				"y": -0.3904648289,
				"z": 3.5178704315,
				"element": "N" 
			},
			{
				"x": 0.8761356341,
				"y": -0.6297887663,
				"z": 2.4767375293,
				"element": "C" 
			},
			{
				"x": -0.1412596875,
				"y": 0.3373168334,
				"z": -1.8602814755,
				"element": "H" 
			},
			{
				"x": 1.2270856893,
				"y": 0.8076096788,
				"z": -2.8969922959,
				"element": "H" 
			},
			{
				"x": 0.8612313616,
				"y": 1.7337914743,
				"z": -1.4216513811,
				"element": "H" 
			},
			{
				"x": 2.3555181269,
				"y": -1.0844891217,
				"z": 0.5446518826,
				"element": "H" 
			},
			{
				"x": -0.635624917,
				"y": 1.2179361003,
				"z": 0.0582806622,
				"element": "H" 
			},
			{
				"x": -2.1026665919,
				"y": 1.6639371759,
				"z": 1.9910243225,
				"element": "H" 
			},
			{
				"x": -1.5951581767,
				"y": 0.6044605824,
				"z": 4.1983618802,
				"element": "H" 
			},
			{
				"x": 1.7234696986,
				"y": -1.294406017,
				"z": 2.6535592405,
				"element": "H" 
			}
		],
		 "valence_orbital": [ 
			{
				"type": "occ",
				"energy": -0.32944,
				"method": "rhf"
			},
			{
				"type": "occ",
				"energy": -0.28932,
				"method": "rhf"
			},
			{
				"type": "occ",
				"energy": -0.26917,
				"method": "rhf"
			},
			{
				"type": "occ",
				"energy": -0.25888,
				"method": "rhf"
			},
			{
				"type": "occ",
				"energy": -0.23259,
				"method": "rhf"
			},
			{
				"type": "unocc",
				"energy": -0.03394,
				"method": "rhf"
			},
			{
				"type": "unocc",
				"energy": -0.02408,
				"method": "rhf"
			},
			{
				"type": "unocc",
				"energy": 0.0282,
				"method": "rhf"
			},
			{
				"type": "unocc",
				"energy": 0.07985,
				"method": "rhf"
			},
			{
				"type": "unocc",
				"energy": 0.08781,
				"method": "rhf"
			}
		],
		"cosmo_sigma_profile": { 
			"-0.025": 0.0,
			"-0.024": 0.0,
			"-0.023": 0.0,
			"-0.022": 0.0,
			"-0.021": 0.0,
			"-0.02": 0.0,
			"-0.019": 0.0,
			"-0.018": 0.0,
			"-0.017": 0.0,
			"-0.016": 0.0,
			"-0.015": 0.0332798576977,
			"-0.014": 1.09373890652,
			"-0.013": 1.16591892708,
			"-0.012": 1.57428072641,
			"-0.011": 1.16673946511,
			"-0.01": 0.898584609078,
			"-0.009": 1.26795000458,
			"-0.008": 2.80213662423,
			"-0.007": 10.4141502676,
			"-0.006": 14.3432888714,
			"-0.005": 11.5337568077,
			"-0.004": 12.0624221707,
			"-0.003": 10.9768615515,
			"-0.002": 12.0007206684,
			"-0.001": 10.3953459458,
			"0.0": 10.4566669289,
			"0.001": 13.4514371539,
			"0.002": 12.1607451556,
			"0.003": 10.024487745,
			"0.004": 3.80368687361,
			"0.005": 3.7541146283,
			"0.006": 2.53312393974,
			"0.007": 2.35541810632,
			"0.008": 2.75823958752,
			"0.009": 3.09133391189,
			"0.01": 2.36853683518,
			"0.011": 2.50937028505,
			"0.012": 4.30972876321,
			"0.013": 6.45782642204,
			"0.014": 2.37563710801,
			"0.015": 1.13461710476,
			"0.016": 0.689827886703,
			"0.017": 0.171596589697,
			"0.018": 0.0,
			"0.019": 0.0,
			"0.02": 0.0,
			"0.021": 0.0,
			"0.022": 0.0,
			"0.023": 0.0,
			"0.024": 0.0,
			"0.025": 0.0
		}
	}
}
