{
	 "smiles": "CC1=C(C)C2=C(NC(=C2)C(O)=O)C=C1", 
	 "Tm": 517.15, 
	 "num_atms": 25, 
	 "gaussian": { 
		 "optdone": 1, 
		 "sigma_profile": "yes", 
		 "theory": "DFT", 
		 "functional": "B3LYP", 
		 "basiset": "6-31G**", 
		 "properties": { 
			 "R2extent": 3506.7606, 
			 "electric_dipole_moment_norm": 4.83484755189, 
			 "electric_quadrupole_moment_norm": 22.06718505, 
			 "total_energy": -631.022918966, 
			 "HOMO_LUMO_gap": 0.16678, 
			 "cosmo_polarized_energy": -17.5, 
			 "cosmo_cavitation_energy": 28.83, 
			 "cosmo_dispersion_energy": -21.1, 
			 "cosmo_repulsion_energy": 1.64, 
			 "cosmo_total_nonelectrostatic_energy": 9.37, 
			 "SMD_solvation_energy": 5.81 
		},
		"coords": [
			{
				"x": -1.7810476364,
				"y": -2.8859935466,
				"z": 1.3146995622,
				"element": "C" 
			},
			{
				"x": -1.2573191309,
				"y": -1.7639462405,
				"z": 0.4468630702,
				"element": "C" 
			},
			{
				"x": 0.0454432785,
				"y": -1.2776520928,
				"z": 0.6218016508,
				"element": "C" 
			},
			{
				"x": 0.9584097435,
				"y": -1.8519698165,
				"z": 1.6769407602,
				"element": "C" 
			},
			{
				"x": 0.477425007,
				"y": -0.2227634216,
				"z": -0.2144645767,
				"element": "C" 
			},
			{
				"x": -0.3892681178,
				"y": 0.2975804656,
				"z": -1.214666472,
				"element": "C" 
			},
			{
				"x": 0.2988600153,
				"y": 1.2789056236,
				"z": -1.9123956103,
				"element": "N" 
			},
			{
				"x": 1.5538775809,
				"y": 1.4427865627,
				"z": -1.3122156448,
				"element": "C" 
			},
			{
				"x": 1.696316156,
				"y": 0.5303233796,
				"z": -0.2972214365,
				"element": "C" 
			},
			{
				"x": 2.5532256881,
				"y": 2.4045903396,
				"z": -1.8087825848,
				"element": "C" 
			},
			{
				"x": 2.3491694198,
				"y": 2.8494983961,
				"z": -3.0881700463,
				"element": "O" 
			},
			{
				"x": 3.4921040315,
				"y": 2.8027444517,
				"z": -1.1615208889,
				"element": "O" 
			},
			{
				"x": -1.6897528933,
				"y": -0.1789270455,
				"z": -1.3860244476,
				"element": "C" 
			},
			{
				"x": -2.0976360334,
				"y": -1.2050556984,
				"z": -0.5444139729,
				"element": "C" 
			},
			{
				"x": -2.8098315469,
				"y": -3.1428880976,
				"z": 1.0491587564,
				"element": "H" 
			},
			{
				"x": -1.770604335,
				"y": -2.6177304989,
				"z": 2.3782648241,
				"element": "H" 
			},
			{
				"x": -1.1760495059,
				"y": -3.7954767386,
				"z": 1.2141207884,
				"element": "H" 
			},
			{
				"x": 1.9361934672,
				"y": -1.3665414188,
				"z": 1.6757104829,
				"element": "H" 
			},
			{
				"x": 0.5324711702,
				"y": -1.7374791103,
				"z": 2.6810601909,
				"element": "H" 
			},
			{
				"x": 1.1207985881,
				"y": -2.9258174825,
				"z": 1.524736252,
				"element": "H" 
			},
			{
				"x": -0.1753704075,
				"y": 2.0300581245,
				"z": -2.3939008542,
				"element": "H" 
			},
			{
				"x": 2.5979643928,
				"y": 0.409156789,
				"z": 0.2846845289,
				"element": "H" 
			},
			{
				"x": 1.7476736985,
				"y": 2.2448773227,
				"z": -3.5477631884,
				"element": "H" 
			},
			{
				"x": -2.3534855889,
				"y": 0.2256543894,
				"z": -2.1442542113,
				"element": "H" 
			},
			{
				"x": -3.1032670413,
				"y": -1.6029346359,
				"z": -0.6516469324,
				"element": "H" 
			}
		],
		 "valence_orbital": [ 
			{
				"type": "occ",
				"energy": -0.31521,
				"method": "rhf"
			},
			{
				"type": "occ",
				"energy": -0.28715,
				"method": "rhf"
			},
			{
				"type": "occ",
				"energy": -0.27382,
				"method": "rhf"
			},
			{
				"type": "occ",
				"energy": -0.22978,
				"method": "rhf"
			},
			{
				"type": "occ",
				"energy": -0.21626,
				"method": "rhf"
			},
			{
				"type": "unocc",
				"energy": -0.04948,
				"method": "rhf"
			},
			{
				"type": "unocc",
				"energy": 0.00609,
				"method": "rhf"
			},
			{
				"type": "unocc",
				"energy": 0.02482,
				"method": "rhf"
			},
			{
				"type": "unocc",
				"energy": 0.04742,
				"method": "rhf"
			},
			{
				"type": "unocc",
				"energy": 0.08837,
				"method": "rhf"
			}
		],
		"cosmo_sigma_profile": { 
			"-0.025": 0.0,
			"-0.024": 0.0,
			"-0.023": 0.0,
			"-0.022": 0.0,
			"-0.021": 0.0,
			"-0.02": 0.0,
			"-0.019": 0.0,
			"-0.018": 0.840841962288,
			"-0.017": 1.65782126701,
			"-0.016": 3.08116040033,
			"-0.015": 1.99949484455,
			"-0.014": 1.62194448471,
			"-0.013": 1.55685173336,
			"-0.012": 2.48146858408,
			"-0.011": 1.73721959418,
			"-0.01": 1.61621916458,
			"-0.009": 1.43137682504,
			"-0.008": 1.9804424437,
			"-0.007": 3.48378089913,
			"-0.006": 5.72348357069,
			"-0.005": 8.32381589377,
			"-0.004": 16.1569128827,
			"-0.003": 17.6363712678,
			"-0.002": 17.3259624034,
			"-0.001": 16.6184692618,
			"0.0": 21.5489937857,
			"0.001": 15.5183187928,
			"0.002": 11.556269798,
			"0.003": 12.6186403087,
			"0.004": 14.5801242532,
			"0.005": 12.6736441616,
			"0.006": 8.16504185412,
			"0.007": 2.60811578127,
			"0.008": 2.93297767141,
			"0.009": 3.12784451904,
			"0.01": 4.31231728961,
			"0.011": 5.99221515088,
			"0.012": 5.65562311089,
			"0.013": 2.15341633416,
			"0.014": 0.111155899587,
			"0.015": 0.0,
			"0.016": 0.0,
			"0.017": 0.0,
			"0.018": 0.0,
			"0.019": 0.0,
			"0.02": 0.0,
			"0.021": 0.0,
			"0.022": 0.0,
			"0.023": 0.0,
			"0.024": 0.0,
			"0.025": 0.0
		}
	}
}
