{
	 "smiles": "O=CC1=CNC=N1", 
	 "Tm": 448.65, 
	 "num_atms": 11, 
	 "gaussian": { 
		 "optdone": 1, 
		 "sigma_profile": "yes", 
		 "theory": "DFT", 
		 "functional": "B3LYP", 
		 "basiset": "6-31G**", 
		 "properties": { 
			 "R2extent": 920.42, 
			 "electric_dipole_moment_norm": 6.99832909272, 
			 "electric_quadrupole_moment_norm": 7.87123789693, 
			 "total_energy": -339.538476029, 
			 "HOMO_LUMO_gap": 0.20395, 
			 "cosmo_polarized_energy": -21.39, 
			 "cosmo_cavitation_energy": 15.96, 
			 "cosmo_dispersion_energy": -11.89, 
			 "cosmo_repulsion_energy": 1.01, 
			 "cosmo_total_nonelectrostatic_energy": 5.08, 
			 "SMD_solvation_energy": 3.0 
		},
		"coords": [
			{
				"x": 2.9601052129,
				"y": 1.1035459065,
				"z": 0.1615477144,
				"element": "O" 
			},
			{
				"x": 2.0615773603,
				"y": 1.3255698157,
				"z": 0.9478503941,
				"element": "C" 
			},
			{
				"x": 0.6449163499,
				"y": 1.0076416821,
				"z": 0.7400735867,
				"element": "C" 
			},
			{
				"x": -0.3727781031,
				"y": 1.2643055263,
				"z": 1.6414431735,
				"element": "C" 
			},
			{
				"x": -1.513455712,
				"y": 0.8074212565,
				"z": 1.0390233342,
				"element": "N" 
			},
			{
				"x": -1.1478130246,
				"y": 0.2986186264,
				"z": -0.1871950755,
				"element": "C" 
			},
			{
				"x": 0.1382539873,
				"y": 0.4032816369,
				"z": -0.3970839363,
				"element": "N" 
			},
			{
				"x": 2.2637364627,
				"y": 1.8113747736,
				"z": 1.9311971381,
				"element": "H" 
			},
			{
				"x": -0.3749713241,
				"y": 1.7165172936,
				"z": 2.6216908442,
				"element": "H" 
			},
			{
				"x": -2.4459599689,
				"y": 0.8391071624,
				"z": 1.4241673289,
				"element": "H" 
			},
			{
				"x": -1.8715112404,
				"y": -0.1290836802,
				"z": -0.8680145022,
				"element": "H" 
			}
		],
		 "valence_orbital": [ 
			{
				"type": "occ",
				"energy": -0.37752,
				"method": "rhf"
			},
			{
				"type": "occ",
				"energy": -0.29839,
				"method": "rhf"
			},
			{
				"type": "occ",
				"energy": -0.28313,
				"method": "rhf"
			},
			{
				"type": "occ",
				"energy": -0.2507,
				"method": "rhf"
			},
			{
				"type": "occ",
				"energy": -0.24261,
				"method": "rhf"
			},
			{
				"type": "unocc",
				"energy": -0.03866,
				"method": "rhf"
			},
			{
				"type": "unocc",
				"energy": 0.01366,
				"method": "rhf"
			},
			{
				"type": "unocc",
				"energy": 0.0561,
				"method": "rhf"
			},
			{
				"type": "unocc",
				"energy": 0.10599,
				"method": "rhf"
			},
			{
				"type": "unocc",
				"energy": 0.11025,
				"method": "rhf"
			}
		],
		"cosmo_sigma_profile": { 
			"-0.025": 0.0,
			"-0.024": 0.0,
			"-0.023": 0.0,
			"-0.022": 0.0,
			"-0.021": 0.0,
			"-0.02": 0.0,
			"-0.019": 0.0,
			"-0.018": 0.548234919277,
			"-0.017": 2.21924472789,
			"-0.016": 1.6085695938,
			"-0.015": 1.20375905025,
			"-0.014": 0.840676943199,
			"-0.013": 2.11183978073,
			"-0.012": 1.08606296419,
			"-0.011": 1.43489786127,
			"-0.01": 4.78332365588,
			"-0.009": 6.10591220469,
			"-0.008": 4.70068350995,
			"-0.007": 4.83515894526,
			"-0.006": 5.03860758009,
			"-0.005": 5.9042138178,
			"-0.004": 4.77343604236,
			"-0.003": 5.37306697744,
			"-0.002": 5.596091464,
			"-0.001": 6.10755291598,
			"0.0": 6.9550708911,
			"0.001": 7.30906856363,
			"0.002": 5.55375857015,
			"0.003": 3.70726594635,
			"0.004": 3.3595261867,
			"0.005": 2.2368246021,
			"0.006": 2.35107996404,
			"0.007": 2.12914067208,
			"0.008": 3.44979982791,
			"0.009": 2.74400644021,
			"0.01": 2.76382951655,
			"0.011": 4.26174920905,
			"0.012": 5.69709769119,
			"0.013": 4.4029082086,
			"0.014": 2.52872237783,
			"0.015": 2.04966177981,
			"0.016": 1.43526006524,
			"0.017": 1.04347204712,
			"0.018": 0.172677823299,
			"0.019": 0.0,
			"0.02": 0.0,
			"0.021": 0.0,
			"0.022": 0.0,
			"0.023": 0.0,
			"0.024": 0.0,
			"0.025": 0.0
		}
	}
}
