{
	 "smiles": "CCCCCCCCCCCCC#CC#CCO", 
	 "Tm": 331.15, 
	 "num_atms": 46, 
	 "gaussian": { 
		 "optdone": 1, 
		 "sigma_profile": "yes", 
		 "theory": "DFT", 
		 "functional": "B3LYP", 
		 "basiset": "6-31G**", 
		 "properties": { 
			 "R2extent": 12290.4213, 
			 "electric_dipole_moment_norm": 2.118948678, 
			 "electric_quadrupole_moment_norm": 15.2826272067, 
			 "total_energy": -739.811222978, 
			 "HOMO_LUMO_gap": 0.21563, 
			 "cosmo_polarized_energy": -8.94, 
			 "cosmo_cavitation_energy": 49.35, 
			 "cosmo_dispersion_energy": -33.35, 
			 "cosmo_repulsion_energy": 2.77, 
			 "cosmo_total_nonelectrostatic_energy": 18.77, 
			 "SMD_solvation_energy": 7.58 
		},
		"coords": [
			{
				"x": 2.7133560573,
				"y": 6.4390774503,
				"z": -1.0710817251,
				"element": "C" 
			},
			{
				"x": 2.4221552841,
				"y": 5.0453312477,
				"z": -0.5054832613,
				"element": "C" 
			},
			{
				"x": 2.423900567,
				"y": 3.9447723471,
				"z": -1.574124746,
				"element": "C" 
			},
			{
				"x": 2.1349219374,
				"y": 2.544951832,
				"z": -1.0166760356,
				"element": "C" 
			},
			{
				"x": 2.1386367906,
				"y": 1.4508270753,
				"z": -2.0933302002,
				"element": "C" 
			},
			{
				"x": 1.9448316055,
				"y": 0.0209483841,
				"z": -1.5575970597,
				"element": "C" 
			},
			{
				"x": 0.5979945284,
				"y": -0.2682818065,
				"z": -0.871094557,
				"element": "C" 
			},
			{
				"x": -0.6273774942,
				"y": -0.1469501621,
				"z": -1.7875925696,
				"element": "C" 
			},
			{
				"x": -1.9403551982,
				"y": -0.5344671877,
				"z": -1.0935109926,
				"element": "C" 
			},
			{
				"x": -3.1610843726,
				"y": -0.4056353625,
				"z": -2.0152582544,
				"element": "C" 
			},
			{
				"x": -4.5270364695,
				"y": -0.6901683145,
				"z": -1.3701452666,
				"element": "C" 
			},
			{
				"x": -4.8011188806,
				"y": -2.169474679,
				"z": -0.9966842912,
				"element": "C" 
			},
			{
				"x": -4.1363570402,
				"y": -2.6540259083,
				"z": 0.2100064775,
				"element": "C" 
			},
			{
				"x": -3.6186929277,
				"y": -3.0631302306,
				"z": 1.2327326128,
				"element": "C" 
			},
			{
				"x": -3.0342938265,
				"y": -3.5223101808,
				"z": 2.3792762144,
				"element": "C" 
			},
			{
				"x": -2.4950174005,
				"y": -3.9275405988,
				"z": 3.3923996795,
				"element": "C" 
			},
			{
				"x": -1.9284023197,
				"y": -4.4514166852,
				"z": 4.6377392436,
				"element": "C" 
			},
			{
				"x": -2.7985026858,
				"y": -4.3287720848,
				"z": 5.7567234824,
				"element": "O" 
			},
			{
				"x": 3.6957127343,
				"y": 6.4725854557,
				"z": -1.5561884549,
				"element": "H" 
			},
			{
				"x": 2.7052227571,
				"y": 7.2012456146,
				"z": -0.2848678466,
				"element": "H" 
			},
			{
				"x": 1.9668044273,
				"y": 6.7266606923,
				"z": -1.8204043195,
				"element": "H" 
			},
			{
				"x": 1.4488471915,
				"y": 5.053002638,
				"z": 0.0040557871,
				"element": "H" 
			},
			{
				"x": 3.1649664436,
				"y": 4.8007772795,
				"z": 0.2661228615,
				"element": "H" 
			},
			{
				"x": 1.6799532094,
				"y": 4.1894974462,
				"z": -2.3461827132,
				"element": "H" 
			},
			{
				"x": 3.3973782836,
				"y": 3.938558407,
				"z": -2.0855435286,
				"element": "H" 
			},
			{
				"x": 2.8827096822,
				"y": 2.2986783613,
				"z": -0.2487216286,
				"element": "H" 
			},
			{
				"x": 1.1657367951,
				"y": 2.5601919265,
				"z": -0.5002687393,
				"element": "H" 
			},
			{
				"x": 3.0960584753,
				"y": 1.4897401857,
				"z": -2.6307739545,
				"element": "H" 
			},
			{
				"x": 1.3689099739,
				"y": 1.6778094693,
				"z": -2.8432524387,
				"element": "H" 
			},
			{
				"x": 2.0729288057,
				"y": -0.6854249805,
				"z": -2.3894370386,
				"element": "H" 
			},
			{
				"x": 2.7540403344,
				"y": -0.1995512458,
				"z": -0.8478677959,
				"element": "H" 
			},
			{
				"x": 0.6315378869,
				"y": -1.2872895013,
				"z": -0.462587681,
				"element": "H" 
			},
			{
				"x": 0.4688367895,
				"y": 0.3936615718,
				"z": -0.0044364319,
				"element": "H" 
			},
			{
				"x": -0.4812377427,
				"y": -0.784896796,
				"z": -2.6717780022,
				"element": "H" 
			},
			{
				"x": -0.7124026581,
				"y": 0.8802992658,
				"z": -2.1674139184,
				"element": "H" 
			},
			{
				"x": -2.0870613286,
				"y": 0.1021834099,
				"z": -0.2095134089,
				"element": "H" 
			},
			{
				"x": -1.8614271178,
				"y": -1.5596278886,
				"z": -0.7139211469,
				"element": "H" 
			},
			{
				"x": -3.1880255785,
				"y": 0.6156913196,
				"z": -2.4195416483,
				"element": "H" 
			},
			{
				"x": -3.0328589819,
				"y": -1.0666259039,
				"z": -2.8849736994,
				"element": "H" 
			},
			{
				"x": -4.6612428763,
				"y": -0.0661607464,
				"z": -0.4783435939,
				"element": "H" 
			},
			{
				"x": -5.3105037457,
				"y": -0.393197211,
				"z": -2.0780641445,
				"element": "H" 
			},
			{
				"x": -4.5285310115,
				"y": -2.8131862649,
				"z": -1.8452594527,
				"element": "H" 
			},
			{
				"x": -5.8831473308,
				"y": -2.3009538713,
				"z": -0.8583618114,
				"element": "H" 
			},
			{
				"x": -1.0227752553,
				"y": -3.8932945416,
				"z": 4.901570281,
				"element": "H" 
			},
			{
				"x": -1.6195968013,
				"y": -5.4980498972,
				"z": 4.4785545874,
				"element": "H" 
			},
			{
				"x": -3.6420915161,
				"y": -4.7322593306,
				"z": 5.5127011298,
				"element": "H" 
			}
		],
		 "valence_orbital": [ 
			{
				"type": "occ",
				"energy": -0.29926,
				"method": "rhf"
			},
			{
				"type": "occ",
				"energy": -0.29749,
				"method": "rhf"
			},
			{
				"type": "occ",
				"energy": -0.28379,
				"method": "rhf"
			},
			{
				"type": "occ",
				"energy": -0.2361,
				"method": "rhf"
			},
			{
				"type": "occ",
				"energy": -0.23169,
				"method": "rhf"
			},
			{
				"type": "unocc",
				"energy": -0.01606,
				"method": "rhf"
			},
			{
				"type": "unocc",
				"energy": -0.00692,
				"method": "rhf"
			},
			{
				"type": "unocc",
				"energy": 0.08187,
				"method": "rhf"
			},
			{
				"type": "unocc",
				"energy": 0.08496,
				"method": "rhf"
			},
			{
				"type": "unocc",
				"energy": 0.0905,
				"method": "rhf"
			}
		],
		"cosmo_sigma_profile": { 
			"-0.025": 0.0,
			"-0.024": 0.0,
			"-0.023": 0.0,
			"-0.022": 0.0,
			"-0.021": 0.0,
			"-0.02": 0.0,
			"-0.019": 0.0,
			"-0.018": 0.0,
			"-0.017": 0.0245808153888,
			"-0.016": 0.678437508728,
			"-0.015": 0.828784577442,
			"-0.014": 1.29915234847,
			"-0.013": 0.560771613704,
			"-0.012": 0.854861412344,
			"-0.011": 0.932579901898,
			"-0.01": 0.529417814684,
			"-0.009": 0.560393135443,
			"-0.008": 0.961038586983,
			"-0.007": 3.2936657288,
			"-0.006": 9.00761957198,
			"-0.005": 10.0073886328,
			"-0.004": 11.2399033163,
			"-0.003": 16.694729895,
			"-0.002": 40.3353735703,
			"-0.001": 70.9074375836,
			"0.0": 69.2245371063,
			"0.001": 51.8938117228,
			"0.002": 28.2412144661,
			"0.003": 9.99918923366,
			"0.004": 20.0542139602,
			"0.005": 19.8393634018,
			"0.006": 3.54069337817,
			"0.007": 1.31051166906,
			"0.008": 1.74435190841,
			"0.009": 0.791210493591,
			"0.01": 0.7487574026,
			"0.011": 1.96876928315,
			"0.012": 1.70480427653,
			"0.013": 2.28319558726,
			"0.014": 0.848383253611,
			"0.015": 0.0,
			"0.016": 0.0,
			"0.017": 0.0,
			"0.018": 0.0,
			"0.019": 0.0,
			"0.02": 0.0,
			"0.021": 0.0,
			"0.022": 0.0,
			"0.023": 0.0,
			"0.024": 0.0,
			"0.025": 0.0
		}
	}
}
