{
	 "smiles": "OC(=O)C1=CC=C(C=C1)C1=NOC(=O)N1", 
	 "Tm": 628.15, 
	 "num_atms": 21, 
	 "gaussian": { 
		 "optdone": 1, 
		 "sigma_profile": "yes", 
		 "theory": "DFT", 
		 "functional": "B3LYP", 
		 "basiset": "6-31G**", 
		 "properties": { 
			 "R2extent": 4946.5364, 
			 "electric_dipole_moment_norm": 1.83095002936, 
			 "electric_quadrupole_moment_norm": 42.9642099418, 
			 "total_energy": -756.951133206, 
			 "HOMO_LUMO_gap": 0.16891, 
			 "cosmo_polarized_energy": -26.29, 
			 "cosmo_cavitation_energy": 27.36, 
			 "cosmo_dispersion_energy": -20.4, 
			 "cosmo_repulsion_energy": 1.57, 
			 "cosmo_total_nonelectrostatic_energy": 8.53, 
			 "SMD_solvation_energy": 6.86 
		},
		"coords": [
			{
				"x": 2.1128360052,
				"y": -3.0687587425,
				"z": 2.8447770663,
				"element": "O" 
			},
			{
				"x": 1.9490665701,
				"y": -1.7669823658,
				"z": 2.4968278016,
				"element": "C" 
			},
			{
				"x": 2.3968525101,
				"y": -0.8892531496,
				"z": 3.1954431711,
				"element": "O" 
			},
			{
				"x": 1.1988749562,
				"y": -1.4917434201,
				"z": 1.2248211498,
				"element": "C" 
			},
			{
				"x": 1.0534362276,
				"y": -2.4353108917,
				"z": 0.1961879703,
				"element": "C" 
			},
			{
				"x": 0.3670293407,
				"y": -2.1125216415,
				"z": -0.9682223242,
				"element": "C" 
			},
			{
				"x": -0.1948919879,
				"y": -0.8350956339,
				"z": -1.121205302,
				"element": "C" 
			},
			{
				"x": -0.0434160166,
				"y": 0.1122002048,
				"z": -0.0968948192,
				"element": "C" 
			},
			{
				"x": 0.656724468,
				"y": -0.2114486005,
				"z": 1.0596815729,
				"element": "C" 
			},
			{
				"x": -0.9288777684,
				"y": -0.5195108224,
				"z": -2.3513169677,
				"element": "C" 
			},
			{
				"x": -1.3211326238,
				"y": -1.4226850828,
				"z": -3.201857759,
				"element": "N" 
			},
			{
				"x": -1.9746435998,
				"y": -0.7153340565,
				"z": -4.2353899056,
				"element": "O" 
			},
			{
				"x": -1.961645199,
				"y": 0.6375227624,
				"z": -3.9743917394,
				"element": "C" 
			},
			{
				"x": -2.4301846784,
				"y": 1.4948719683,
				"z": -4.6745194298,
				"element": "O" 
			},
			{
				"x": -1.3000555653,
				"y": 0.7411826309,
				"z": -2.7564310853,
				"element": "N" 
			},
			{
				"x": 1.5672273729,
				"y": -3.6425209519,
				"z": 2.2893753483,
				"element": "H" 
			},
			{
				"x": 1.5113085872,
				"y": -3.4182069104,
				"z": 0.2728542187,
				"element": "H" 
			},
			{
				"x": 0.2664635618,
				"y": -2.8346991487,
				"z": -1.7707187088,
				"element": "H" 
			},
			{
				"x": -0.4832217786,
				"y": 1.1009787751,
				"z": -0.1873976091,
				"element": "H" 
			},
			{
				"x": 0.7923597599,
				"y": 0.5143890961,
				"z": 1.8537073484,
				"element": "H" 
			},
			{
				"x": -1.0658101418,
				"y": 1.6258259808,
				"z": -2.3360299974,
				"element": "H" 
			}
		],
		 "valence_orbital": [ 
			{
				"type": "occ",
				"energy": -0.30407,
				"method": "rhf"
			},
			{
				"type": "occ",
				"energy": -0.29848,
				"method": "rhf"
			},
			{
				"type": "occ",
				"energy": -0.29599,
				"method": "rhf"
			},
			{
				"type": "occ",
				"energy": -0.28926,
				"method": "rhf"
			},
			{
				"type": "occ",
				"energy": -0.26068,
				"method": "rhf"
			},
			{
				"type": "unocc",
				"energy": -0.09177,
				"method": "rhf"
			},
			{
				"type": "unocc",
				"energy": -0.04776,
				"method": "rhf"
			},
			{
				"type": "unocc",
				"energy": -0.01166,
				"method": "rhf"
			},
			{
				"type": "unocc",
				"energy": 0.02687,
				"method": "rhf"
			},
			{
				"type": "unocc",
				"energy": 0.03793,
				"method": "rhf"
			}
		],
		"cosmo_sigma_profile": { 
			"-0.025": 0.0,
			"-0.024": 0.0,
			"-0.023": 0.0,
			"-0.022": 0.0,
			"-0.021": 0.0,
			"-0.02": 0.0,
			"-0.019": 0.855237074918,
			"-0.018": 2.61418244348,
			"-0.017": 2.43191201447,
			"-0.016": 2.59855573739,
			"-0.015": 2.10155441921,
			"-0.014": 2.06464236409,
			"-0.013": 3.05226574309,
			"-0.012": 2.42822813025,
			"-0.011": 1.99779503944,
			"-0.01": 2.87848678379,
			"-0.009": 3.38369859688,
			"-0.008": 4.56235538416,
			"-0.007": 7.64814837491,
			"-0.006": 8.98996452918,
			"-0.005": 11.5043408359,
			"-0.004": 11.8104588467,
			"-0.003": 10.5936742008,
			"-0.002": 11.3438544838,
			"-0.001": 10.3945661731,
			"0.0": 12.8369668116,
			"0.001": 18.5178013057,
			"0.002": 8.7644723826,
			"0.003": 4.83578193601,
			"0.004": 5.21963066868,
			"0.005": 5.44448165084,
			"0.006": 8.51246620253,
			"0.007": 9.20721499436,
			"0.008": 7.61308355552,
			"0.009": 6.91061088567,
			"0.01": 8.55087297793,
			"0.011": 13.7768458778,
			"0.012": 6.50971278344,
			"0.013": 0.874058025879,
			"0.014": 0.0,
			"0.015": 0.0,
			"0.016": 0.0,
			"0.017": 0.0,
			"0.018": 0.0,
			"0.019": 0.0,
			"0.02": 0.0,
			"0.021": 0.0,
			"0.022": 0.0,
			"0.023": 0.0,
			"0.024": 0.0,
			"0.025": 0.0
		}
	}
}
