{
	 "smiles": "[O-][N+](=O)C1=CC(OCC2CO2)=CC=C1", 
	 "Tm": 337.15, 
	 "num_atms": 23, 
	 "gaussian": { 
		 "optdone": 1, 
		 "sigma_profile": "yes", 
		 "theory": "DFT", 
		 "functional": "B3LYP", 
		 "basiset": "6-31G**", 
		 "properties": { 
			 "R2extent": 3138.0791, 
			 "electric_dipole_moment_norm": 5.72299589114, 
			 "electric_quadrupole_moment_norm": 15.5969822062, 
			 "total_energy": -703.867229798, 
			 "HOMO_LUMO_gap": 0.15946, 
			 "cosmo_polarized_energy": -12.65, 
			 "cosmo_cavitation_energy": 27.93, 
			 "cosmo_dispersion_energy": -20.19, 
			 "cosmo_repulsion_energy": 1.59, 
			 "cosmo_total_nonelectrostatic_energy": 9.34, 
			 "SMD_solvation_energy": 7.42 
		},
		"coords": [
			{
				"x": -1.6876862054,
				"y": -0.6979844147,
				"z": -2.5479541235,
				"element": "O" 
			},
			{
				"x": -0.6046114042,
				"y": -0.2963313974,
				"z": -2.9706487611,
				"element": "N" 
			},
			{
				"x": -0.3207899345,
				"y": -0.1746125472,
				"z": -4.1623351167,
				"element": "O" 
			},
			{
				"x": 0.4309192144,
				"y": 0.0584791853,
				"z": -1.9818188137,
				"element": "C" 
			},
			{
				"x": 0.0981274104,
				"y": -0.0155197094,
				"z": -0.6284592875,
				"element": "C" 
			},
			{
				"x": 1.086917858,
				"y": 0.3082786411,
				"z": 0.3038893157,
				"element": "C" 
			},
			{
				"x": 0.9241431815,
				"y": 0.2684275041,
				"z": 1.6600393683,
				"element": "O" 
			},
			{
				"x": -0.2122139039,
				"y": -0.3840441171,
				"z": 2.2289721682,
				"element": "C" 
			},
			{
				"x": -1.4197432502,
				"y": 0.5136266017,
				"z": 2.35174458,
				"element": "C" 
			},
			{
				"x": -2.7634813021,
				"y": -0.0634117692,
				"z": 2.5116483047,
				"element": "C" 
			},
			{
				"x": -2.3584393692,
				"y": 0.5199920324,
				"z": 1.2688918919,
				"element": "O" 
			},
			{
				"x": 2.3602476608,
				"y": 0.7110666462,
				"z": -0.131754204,
				"element": "C" 
			},
			{
				"x": 2.6483619335,
				"y": 0.7851726799,
				"z": -1.4906168703,
				"element": "C" 
			},
			{
				"x": 1.6824299705,
				"y": 0.4524282722,
				"z": -2.441979407,
				"element": "C" 
			},
			{
				"x": -0.9123095881,
				"y": -0.2769544769,
				"z": -0.3429409885,
				"element": "H" 
			},
			{
				"x": 0.1164489013,
				"y": -0.6783883935,
				"z": 3.2314535559,
				"element": "H" 
			},
			{
				"x": -0.4690180532,
				"y": -1.290298235,
				"z": 1.6665465017,
				"element": "H" 
			},
			{
				"x": -1.2163306101,
				"y": 1.4969754799,
				"z": 2.7788179112,
				"element": "H" 
			},
			{
				"x": -3.5226341282,
				"y": 0.4877003662,
				"z": 3.0650956134,
				"element": "H" 
			},
			{
				"x": -2.8925093211,
				"y": -1.1459081506,
				"z": 2.4992775539,
				"element": "H" 
			},
			{
				"x": 3.1061041389,
				"y": 0.9571909834,
				"z": 0.6167228622,
				"element": "H" 
			},
			{
				"x": 3.6368326619,
				"y": 1.096755561,
				"z": -1.8130912888,
				"element": "H" 
			},
			{
				"x": 1.8771341392,
				"y": 0.4935592575,
				"z": -3.5053007658,
				"element": "H" 
			}
		],
		 "valence_orbital": [ 
			{
				"type": "occ",
				"energy": -0.29907,
				"method": "rhf"
			},
			{
				"type": "occ",
				"energy": -0.28707,
				"method": "rhf"
			},
			{
				"type": "occ",
				"energy": -0.28272,
				"method": "rhf"
			},
			{
				"type": "occ",
				"energy": -0.27438,
				"method": "rhf"
			},
			{
				"type": "occ",
				"energy": -0.24067,
				"method": "rhf"
			},
			{
				"type": "unocc",
				"energy": -0.08121,
				"method": "rhf"
			},
			{
				"type": "unocc",
				"energy": -0.01156,
				"method": "rhf"
			},
			{
				"type": "unocc",
				"energy": 0.0108,
				"method": "rhf"
			},
			{
				"type": "unocc",
				"energy": 0.06775,
				"method": "rhf"
			},
			{
				"type": "unocc",
				"energy": 0.08723,
				"method": "rhf"
			}
		],
		"cosmo_sigma_profile": { 
			"-0.025": 0.0,
			"-0.024": 0.0,
			"-0.023": 0.0,
			"-0.022": 0.0,
			"-0.021": 0.0,
			"-0.02": 0.0,
			"-0.019": 0.0,
			"-0.018": 0.0,
			"-0.017": 0.0,
			"-0.016": 0.0,
			"-0.015": 0.0,
			"-0.014": 0.0,
			"-0.013": 0.0,
			"-0.012": 0.0,
			"-0.011": 0.0,
			"-0.01": 0.0,
			"-0.009": 0.0,
			"-0.008": 1.13440564646,
			"-0.007": 15.9877077482,
			"-0.006": 19.6607414621,
			"-0.005": 19.116445006,
			"-0.004": 16.054377293,
			"-0.003": 13.9498229742,
			"-0.002": 12.1835773187,
			"-0.001": 12.5870163694,
			"0.0": 13.8531476068,
			"0.001": 18.2414133476,
			"0.002": 15.4603061504,
			"0.003": 10.805921204,
			"0.004": 5.82293347561,
			"0.005": 5.51426368751,
			"0.006": 6.67556940705,
			"0.007": 10.3721238114,
			"0.008": 11.8600150401,
			"0.009": 7.0177260519,
			"0.01": 4.60292007093,
			"0.011": 1.50082410179,
			"0.012": 0.813671961326,
			"0.013": 0.0405739855071,
			"0.014": 0.0,
			"0.015": 0.0,
			"0.016": 0.0,
			"0.017": 0.0,
			"0.018": 0.0,
			"0.019": 0.0,
			"0.02": 0.0,
			"0.021": 0.0,
			"0.022": 0.0,
			"0.023": 0.0,
			"0.024": 0.0,
			"0.025": 0.0
		}
	}
}
