{
	 "smiles": "OC(=O)C1=C(O)C2=CC=CC=C2C=C1", 
	 "Tm": 475.15, 
	 "num_atms": 22, 
	 "gaussian": { 
		 "optdone": 1, 
		 "sigma_profile": "yes", 
		 "theory": "DFT", 
		 "functional": "B3LYP", 
		 "basiset": "6-31G**", 
		 "properties": { 
			 "R2extent": 3467.2131, 
			 "electric_dipole_moment_norm": 4.18312554677, 
			 "electric_quadrupole_moment_norm": 11.5162794665, 
			 "total_energy": -649.695222686, 
			 "HOMO_LUMO_gap": 0.15706, 
			 "cosmo_polarized_energy": -13.0, 
			 "cosmo_cavitation_energy": 25.75, 
			 "cosmo_dispersion_energy": -19.85, 
			 "cosmo_repulsion_energy": 1.5, 
			 "cosmo_total_nonelectrostatic_energy": 7.4, 
			 "SMD_solvation_energy": 5.51 
		},
		"coords": [
			{
				"x": -0.2901210553,
				"y": -3.486205275,
				"z": 0.9581351772,
				"element": "O" 
			},
			{
				"x": 0.4072447397,
				"y": -2.492094588,
				"z": 1.5437151117,
				"element": "C" 
			},
			{
				"x": 1.2513537422,
				"y": -2.8085465247,
				"z": 2.383079742,
				"element": "O" 
			},
			{
				"x": 0.1368194252,
				"y": -1.0954631155,
				"z": 1.1680983693,
				"element": "C" 
			},
			{
				"x": 0.8558346889,
				"y": -0.0878156388,
				"z": 1.8388230972,
				"element": "C" 
			},
			{
				"x": 1.7629522517,
				"y": -0.3590695916,
				"z": 2.7768574292,
				"element": "O" 
			},
			{
				"x": 0.6275848138,
				"y": 1.2947865973,
				"z": 1.5279303767,
				"element": "C" 
			},
			{
				"x": 1.3375290758,
				"y": 2.3206329195,
				"z": 2.1986722151,
				"element": "C" 
			},
			{
				"x": 1.1066644481,
				"y": 3.6446877919,
				"z": 1.8884531908,
				"element": "C" 
			},
			{
				"x": 0.1595254108,
				"y": 3.9873727304,
				"z": 0.8972388783,
				"element": "C" 
			},
			{
				"x": -0.5425890777,
				"y": 3.0042996208,
				"z": 0.2309623869,
				"element": "C" 
			},
			{
				"x": -0.3301541876,
				"y": 1.6342957504,
				"z": 0.5257782668,
				"element": "C" 
			},
			{
				"x": -1.038907662,
				"y": 0.5949136696,
				"z": -0.1483202756,
				"element": "C" 
			},
			{
				"x": -0.8076460282,
				"y": -0.715228262,
				"z": 0.1667450195,
				"element": "C" 
			},
			{
				"x": -0.9493731443,
				"y": -3.1315600968,
				"z": 0.3470510616,
				"element": "H" 
			},
			{
				"x": 1.7956549128,
				"y": -1.3549776558,
				"z": 2.8531760234,
				"element": "H" 
			},
			{
				"x": 2.0609035951,
				"y": 2.0413375123,
				"z": 2.9560773749,
				"element": "H" 
			},
			{
				"x": 1.6530419558,
				"y": 4.4275933335,
				"z": 2.4056085307,
				"element": "H" 
			},
			{
				"x": -0.0152498151,
				"y": 5.0328144584,
				"z": 0.6595236603,
				"element": "H" 
			},
			{
				"x": -1.2703446075,
				"y": 3.2685240751,
				"z": -0.5315398122,
				"element": "H" 
			},
			{
				"x": -1.760421498,
				"y": 0.8590173179,
				"z": -0.9152338396,
				"element": "H" 
			},
			{
				"x": -1.3622019843,
				"y": -1.4749150286,
				"z": -0.3809319842,
				"element": "H" 
			}
		],
		 "valence_orbital": [ 
			{
				"type": "occ",
				"energy": -0.32633,
				"method": "rhf"
			},
			{
				"type": "occ",
				"energy": -0.2874,
				"method": "rhf"
			},
			{
				"type": "occ",
				"energy": -0.27463,
				"method": "rhf"
			},
			{
				"type": "occ",
				"energy": -0.26036,
				"method": "rhf"
			},
			{
				"type": "occ",
				"energy": -0.21705,
				"method": "rhf"
			},
			{
				"type": "unocc",
				"energy": -0.05999,
				"method": "rhf"
			},
			{
				"type": "unocc",
				"energy": -0.03818,
				"method": "rhf"
			},
			{
				"type": "unocc",
				"energy": 0.01906,
				"method": "rhf"
			},
			{
				"type": "unocc",
				"energy": 0.03482,
				"method": "rhf"
			},
			{
				"type": "unocc",
				"energy": 0.04488,
				"method": "rhf"
			}
		],
		"cosmo_sigma_profile": { 
			"-0.025": 0.0,
			"-0.024": 0.0,
			"-0.023": 0.0,
			"-0.022": 0.0,
			"-0.021": 0.0,
			"-0.02": 0.075931490397,
			"-0.019": 1.11665835938,
			"-0.018": 0.621979688742,
			"-0.017": 0.946458150513,
			"-0.016": 1.05127342644,
			"-0.015": 0.561329239515,
			"-0.014": 1.42461465769,
			"-0.013": 1.35052523601,
			"-0.012": 0.763969698994,
			"-0.011": 1.16789362121,
			"-0.01": 0.87236936037,
			"-0.009": 1.34408116486,
			"-0.008": 1.15143179243,
			"-0.007": 3.14792278263,
			"-0.006": 12.9509272334,
			"-0.005": 12.0292008576,
			"-0.004": 14.0954727299,
			"-0.003": 12.9007824018,
			"-0.002": 11.8642162955,
			"-0.001": 10.3620041514,
			"0.0": 13.0477415335,
			"0.001": 14.1538021797,
			"0.002": 18.0563401952,
			"0.003": 21.5655577069,
			"0.004": 17.9100148722,
			"0.005": 6.35962904217,
			"0.006": 4.40255410508,
			"0.007": 2.79665487155,
			"0.008": 5.17806280017,
			"0.009": 4.66923515568,
			"0.01": 4.17308209115,
			"0.011": 2.62481344628,
			"0.012": 2.12561190532,
			"0.013": 0.472796367201,
			"0.014": 0.0,
			"0.015": 0.0,
			"0.016": 0.0,
			"0.017": 0.0,
			"0.018": 0.0,
			"0.019": 0.0,
			"0.02": 0.0,
			"0.021": 0.0,
			"0.022": 0.0,
			"0.023": 0.0,
			"0.024": 0.0,
			"0.025": 0.0
		}
	}
}
