{
	 "smiles": "CC1=CC=C(C=C1)S(=O)(=O)N1CCCN(CC(=O)NCCCNC(=O)C1)S(=O)(=O)C1=CC=C(C)C=C1", 
	 "Tm": 432.15, 
	 "num_atms": 68, 
	 "gaussian": { 
		 "optdone": 1, 
		 "sigma_profile": "yes", 
		 "theory": "DFT", 
		 "functional": "B3LYP", 
		 "basiset": "6-31G**", 
		 "properties": { 
			 "R2extent": 17233.5867, 
			 "electric_dipole_moment_norm": 4.03236557618, 
			 "electric_quadrupole_moment_norm": 56.407502945, 
			 "total_energy": -2400.44706323, 
			 "HOMO_LUMO_gap": 0.20632, 
			 "cosmo_polarized_energy": -34.37, 
			 "cosmo_cavitation_energy": 66.29, 
			 "cosmo_dispersion_energy": -41.16, 
			 "cosmo_repulsion_energy": 2.89, 
			 "cosmo_total_nonelectrostatic_energy": 28.02, 
			 "SMD_solvation_energy": 8.95 
		},
		"coords": [
			{
				"x": -5.6888971808,
				"y": 2.2050655132,
				"z": -2.3540229389,
				"element": "C" 
			},
			{
				"x": -4.3741083527,
				"y": 2.7225160776,
				"z": -1.8245979496,
				"element": "C" 
			},
			{
				"x": -4.3236000541,
				"y": 3.5587710829,
				"z": -0.7015370425,
				"element": "C" 
			},
			{
				"x": -3.1083379174,
				"y": 4.0363183282,
				"z": -0.2094827447,
				"element": "C" 
			},
			{
				"x": -1.9275336054,
				"y": 3.6723519288,
				"z": -0.857382372,
				"element": "C" 
			},
			{
				"x": -1.9517972264,
				"y": 2.8635951125,
				"z": -1.9975725644,
				"element": "C" 
			},
			{
				"x": -3.1706231119,
				"y": 2.3825100692,
				"z": -2.4653063928,
				"element": "C" 
			},
			{
				"x": -0.3676270702,
				"y": 4.2954429719,
				"z": -0.2419254175,
				"element": "S" 
			},
			{
				"x": -0.6552605942,
				"y": 5.2860555037,
				"z": 0.8054348803,
				"element": "O" 
			},
			{
				"x": 0.4901927173,
				"y": 4.6512378666,
				"z": -1.3803664555,
				"element": "O" 
			},
			{
				"x": 0.3666618881,
				"y": 2.8828620481,
				"z": 0.443199945,
				"element": "N" 
			},
			{
				"x": -0.3792366574,
				"y": 2.3094034461,
				"z": 1.5965439652,
				"element": "C" 
			},
			{
				"x": -0.3699970009,
				"y": 0.7726495335,
				"z": 1.5942262809,
				"element": "C" 
			},
			{
				"x": -1.1756511646,
				"y": 0.1571914804,
				"z": 0.4426550867,
				"element": "C" 
			},
			{
				"x": -0.6728141492,
				"y": -1.1565585728,
				"z": -0.0392336748,
				"element": "N" 
			},
			{
				"x": -1.3430498901,
				"y": -1.5957779342,
				"z": -1.2777985538,
				"element": "C" 
			},
			{
				"x": -1.1014581825,
				"y": -0.768235089,
				"z": -2.5498271198,
				"element": "C" 
			},
			{
				"x": -2.0458077116,
				"y": -0.635265921,
				"z": -3.3258839939,
				"element": "O" 
			},
			{
				"x": 0.1278130185,
				"y": -0.2723236789,
				"z": -2.8794745914,
				"element": "N" 
			},
			{
				"x": 1.3957758122,
				"y": -0.2052539214,
				"z": -2.1595601888,
				"element": "C" 
			},
			{
				"x": 1.9303589094,
				"y": 1.2329986853,
				"z": -2.1731178451,
				"element": "C" 
			},
			{
				"x": 3.2133403151,
				"y": 1.4384166632,
				"z": -1.3585292873,
				"element": "C" 
			},
			{
				"x": 3.094665344,
				"y": 1.1361080355,
				"z": 0.068091634,
				"element": "N" 
			},
			{
				"x": 2.5803656707,
				"y": 1.8972825078,
				"z": 1.0810137801,
				"element": "C" 
			},
			{
				"x": 2.7191405851,
				"y": 1.5657287658,
				"z": 2.2550737389,
				"element": "O" 
			},
			{
				"x": 1.8001632165,
				"y": 3.1676976992,
				"z": 0.7233549281,
				"element": "C" 
			},
			{
				"x": -0.5718926115,
				"y": -2.4075347485,
				"z": 1.1485268592,
				"element": "S" 
			},
			{
				"x": -0.6653380122,
				"y": -3.6762996339,
				"z": 0.4157268557,
				"element": "O" 
			},
			{
				"x": -1.4840336873,
				"y": -2.1075501156,
				"z": 2.2600868465,
				"element": "O" 
			},
			{
				"x": 1.1090288078,
				"y": -2.2697943936,
				"z": 1.761305179,
				"element": "C" 
			},
			{
				"x": 1.3315302409,
				"y": -1.8690602218,
				"z": 3.0787269882,
				"element": "C" 
			},
			{
				"x": 2.6390825469,
				"y": -1.7687168356,
				"z": 3.5469207618,
				"element": "C" 
			},
			{
				"x": 3.7309622137,
				"y": -2.0692034397,
				"z": 2.7213427857,
				"element": "C" 
			},
			{
				"x": 5.1418503974,
				"y": -1.9049798957,
				"z": 3.2300007443,
				"element": "C" 
			},
			{
				"x": 3.4772117521,
				"y": -2.505145933,
				"z": 1.411099932,
				"element": "C" 
			},
			{
				"x": 2.1744047636,
				"y": -2.6114295088,
				"z": 0.9258660516,
				"element": "C" 
			},
			{
				"x": -5.9831715896,
				"y": 2.7448316051,
				"z": -3.2622439913,
				"element": "H" 
			},
			{
				"x": -6.4925086038,
				"y": 2.3246564223,
				"z": -1.6226122198,
				"element": "H" 
			},
			{
				"x": -5.6172231493,
				"y": 1.1455218667,
				"z": -2.6183405292,
				"element": "H" 
			},
			{
				"x": -5.2461189838,
				"y": 3.8370193862,
				"z": -0.199337998,
				"element": "H" 
			},
			{
				"x": -3.06734088,
				"y": 4.6859139551,
				"z": 0.6580176644,
				"element": "H" 
			},
			{
				"x": -1.0298273023,
				"y": 2.6100714422,
				"z": -2.5076233153,
				"element": "H" 
			},
			{
				"x": -3.1804638015,
				"y": 1.7135253401,
				"z": -3.3202698401,
				"element": "H" 
			},
			{
				"x": 0.0524997711,
				"y": 2.6753609204,
				"z": 2.5349923961,
				"element": "H" 
			},
			{
				"x": -1.4110857488,
				"y": 2.6684498027,
				"z": 1.5571329302,
				"element": "H" 
			},
			{
				"x": -0.7746404739,
				"y": 0.4375266374,
				"z": 2.553812651,
				"element": "H" 
			},
			{
				"x": 0.6603002951,
				"y": 0.4240138166,
				"z": 1.5584751349,
				"element": "H" 
			},
			{
				"x": -2.2392172236,
				"y": 0.0850063029,
				"z": 0.7091662861,
				"element": "H" 
			},
			{
				"x": -1.1008069442,
				"y": 0.8143682868,
				"z": -0.426709036,
				"element": "H" 
			},
			{
				"x": -2.4340799161,
				"y": -1.6065579467,
				"z": -1.169527514,
				"element": "H" 
			},
			{
				"x": -1.0292147917,
				"y": -2.6200618001,
				"z": -1.4929067102,
				"element": "H" 
			},
			{
				"x": 0.1056416712,
				"y": 0.1605442901,
				"z": -3.7961633058,
				"element": "H" 
			},
			{
				"x": 1.227854077,
				"y": -0.542008388,
				"z": -1.1376386804,
				"element": "H" 
			},
			{
				"x": 2.1272531843,
				"y": -0.8849135876,
				"z": -2.6230042707,
				"element": "H" 
			},
			{
				"x": 1.1573204245,
				"y": 1.9023175172,
				"z": -1.7890470807,
				"element": "H" 
			},
			{
				"x": 2.1385571523,
				"y": 1.5412932425,
				"z": -3.2070945054,
				"element": "H" 
			},
			{
				"x": 4.0128375359,
				"y": 0.7961888441,
				"z": -1.7438856189,
				"element": "H" 
			},
			{
				"x": 3.5580163406,
				"y": 2.4696077005,
				"z": -1.4926047217,
				"element": "H" 
			},
			{
				"x": 3.5457221605,
				"y": 0.2979441647,
				"z": 0.4133419845,
				"element": "H" 
			},
			{
				"x": 2.2132499174,
				"y": 3.6601177941,
				"z": -0.1583600964,
				"element": "H" 
			},
			{
				"x": 1.9082480705,
				"y": 3.8348302222,
				"z": 1.586984161,
				"element": "H" 
			},
			{
				"x": 0.4878818679,
				"y": -1.6356288087,
				"z": 3.7180588472,
				"element": "H" 
			},
			{
				"x": 2.8144704285,
				"y": -1.4418149854,
				"z": 4.5678191952,
				"element": "H" 
			},
			{
				"x": 5.406138595,
				"y": -0.8422020357,
				"z": 3.2855258529,
				"element": "H" 
			},
			{
				"x": 5.8671931499,
				"y": -2.3985138147,
				"z": 2.577465471,
				"element": "H" 
			},
			{
				"x": 5.2533425194,
				"y": -2.3182483515,
				"z": 4.2373604749,
				"element": "H" 
			},
			{
				"x": 4.3100529209,
				"y": -2.7791358343,
				"z": 0.7681453882,
				"element": "H" 
			},
			{
				"x": 1.9867353077,
				"y": -2.9696974832,
				"z": -0.0808071143,
				"element": "H" 
			}
		],
		 "valence_orbital": [ 
			{
				"type": "occ",
				"energy": -0.26086,
				"method": "rhf"
			},
			{
				"type": "occ",
				"energy": -0.25744,
				"method": "rhf"
			},
			{
				"type": "occ",
				"energy": -0.25689,
				"method": "rhf"
			},
			{
				"type": "occ",
				"energy": -0.25349,
				"method": "rhf"
			},
			{
				"type": "occ",
				"energy": -0.24981,
				"method": "rhf"
			},
			{
				"type": "unocc",
				"energy": -0.04349,
				"method": "rhf"
			},
			{
				"type": "unocc",
				"energy": -0.04237,
				"method": "rhf"
			},
			{
				"type": "unocc",
				"energy": -0.02548,
				"method": "rhf"
			},
			{
				"type": "unocc",
				"energy": -0.02348,
				"method": "rhf"
			},
			{
				"type": "unocc",
				"energy": -0.00231,
				"method": "rhf"
			}
		],
		"cosmo_sigma_profile": { 
			"-0.025": 0.0,
			"-0.024": 0.0,
			"-0.023": 0.0,
			"-0.022": 0.0,
			"-0.021": 0.0,
			"-0.02": 0.0,
			"-0.019": 0.0,
			"-0.018": 0.0,
			"-0.017": 0.0,
			"-0.016": 0.0,
			"-0.015": 0.0,
			"-0.014": 0.0,
			"-0.013": 0.446482521924,
			"-0.012": 1.24702238571,
			"-0.011": 0.916797488236,
			"-0.01": 2.03470265415,
			"-0.009": 2.59122029702,
			"-0.008": 3.45881837788,
			"-0.007": 11.3798378982,
			"-0.006": 28.1215386953,
			"-0.005": 47.3177783806,
			"-0.004": 59.7557721378,
			"-0.003": 52.7712165311,
			"-0.002": 43.3653622591,
			"-0.001": 44.6873606146,
			"0.0": 35.0280075208,
			"0.001": 25.6627512953,
			"0.002": 27.1665000337,
			"0.003": 24.3932484019,
			"0.004": 10.6576994416,
			"0.005": 9.36714199493,
			"0.006": 9.42659156722,
			"0.007": 10.4511152039,
			"0.008": 10.1536427662,
			"0.009": 11.9035624567,
			"0.01": 15.9425570251,
			"0.011": 17.5132267901,
			"0.012": 7.03439583859,
			"0.013": 4.67811812152,
			"0.014": 4.35162533089,
			"0.015": 0.642085963923,
			"0.016": 0.0,
			"0.017": 0.0,
			"0.018": 0.0,
			"0.019": 0.0,
			"0.02": 0.0,
			"0.021": 0.0,
			"0.022": 0.0,
			"0.023": 0.0,
			"0.024": 0.0,
			"0.025": 0.0
		}
	}
}
