{
	 "smiles": "CC1=NC2=C(NC3=C1C(=O)N(C1=CC=CC=C1)C1=CC=CC=C31)C=CC=C2", 
	 "Tm": 571.15, 
	 "num_atms": 44, 
	 "gaussian": { 
		 "optdone": 1, 
		 "sigma_profile": "yes", 
		 "theory": "DFT", 
		 "functional": "B3LYP", 
		 "basiset": "6-31G**", 
		 "properties": { 
			 "R2extent": 10149.0739, 
			 "electric_dipole_moment_norm": 5.63170727489, 
			 "electric_quadrupole_moment_norm": 12.7083261164, 
			 "total_energy": -1126.18297818, 
			 "HOMO_LUMO_gap": 0.13479, 
			 "cosmo_polarized_energy": -19.86, 
			 "cosmo_cavitation_energy": 46.86, 
			 "cosmo_dispersion_energy": -32.8, 
			 "cosmo_repulsion_energy": 2.43, 
			 "cosmo_total_nonelectrostatic_energy": 16.49, 
			 "SMD_solvation_energy": 6.35 
		},
		"coords": [
			{
				"x": 1.6867213601,
				"y": 3.3247115429,
				"z": 1.4865066269,
				"element": "C" 
			},
			{
				"x": 0.4595841139,
				"y": 2.8749375536,
				"z": 0.7265974736,
				"element": "C" 
			},
			{
				"x": -0.4871501299,
				"y": 3.7364342346,
				"z": 0.6147879654,
				"element": "N" 
			},
			{
				"x": -1.6745745057,
				"y": 3.5210105034,
				"z": -0.0950129514,
				"element": "C" 
			},
			{
				"x": -1.7312909367,
				"y": 2.8651500417,
				"z": -1.3396758907,
				"element": "C" 
			},
			{
				"x": -0.5468477606,
				"y": 2.2791155442,
				"z": -1.8825763317,
				"element": "N" 
			},
			{
				"x": 0.0918546003,
				"y": 1.2671316364,
				"z": -1.1620623063,
				"element": "C" 
			},
			{
				"x": 0.4889613273,
				"y": 1.4987822212,
				"z": 0.1359334935,
				"element": "C" 
			},
			{
				"x": 1.0609514798,
				"y": 0.4208604003,
				"z": 0.9453370191,
				"element": "C" 
			},
			{
				"x": 1.3198163975,
				"y": 0.5099452405,
				"z": 2.1420198435,
				"element": "O" 
			},
			{
				"x": 1.3309312445,
				"y": -0.7946653623,
				"z": 0.2726306968,
				"element": "N" 
			},
			{
				"x": 1.9385341028,
				"y": -1.8369578747,
				"z": 1.0676942173,
				"element": "C" 
			},
			{
				"x": 1.1307938969,
				"y": -2.7456736801,
				"z": 1.7529273702,
				"element": "C" 
			},
			{
				"x": 1.7207582462,
				"y": -3.7551715648,
				"z": 2.5139450127,
				"element": "C" 
			},
			{
				"x": 3.1116591316,
				"y": -3.8543242381,
				"z": 2.5895865346,
				"element": "C" 
			},
			{
				"x": 3.9143255037,
				"y": -2.9400978521,
				"z": 1.9043626624,
				"element": "C" 
			},
			{
				"x": 3.3290933174,
				"y": -1.9283585895,
				"z": 1.1421563265,
				"element": "C" 
			},
			{
				"x": 1.0189500535,
				"y": -1.022996419,
				"z": -1.0627113461,
				"element": "C" 
			},
			{
				"x": 1.3265173707,
				"y": -2.2521420993,
				"z": -1.6801951093,
				"element": "C" 
			},
			{
				"x": 0.9777734013,
				"y": -2.4819147125,
				"z": -3.0017605649,
				"element": "C" 
			},
			{
				"x": 0.3037122781,
				"y": -1.5020120566,
				"z": -3.7422053337,
				"element": "C" 
			},
			{
				"x": -0.0005415207,
				"y": -0.2909236922,
				"z": -3.1433311274,
				"element": "C" 
			},
			{
				"x": 0.3597749178,
				"y": -0.0101719742,
				"z": -1.8087283523,
				"element": "C" 
			},
			{
				"x": -2.9292975877,
				"y": 2.8148680955,
				"z": -2.0559562838,
				"element": "C" 
			},
			{
				"x": -4.086891047,
				"y": 3.4029971366,
				"z": -1.5449224815,
				"element": "C" 
			},
			{
				"x": -4.0485126113,
				"y": 4.0367287588,
				"z": -0.3018052095,
				"element": "C" 
			},
			{
				"x": -2.8494611537,
				"y": 4.1047765754,
				"z": 0.4035101284,
				"element": "C" 
			},
			{
				"x": 1.7949152228,
				"y": 2.7528927362,
				"z": 2.4100645731,
				"element": "H" 
			},
			{
				"x": 2.5925799892,
				"y": 3.1523565851,
				"z": 0.8930585546,
				"element": "H" 
			},
			{
				"x": 1.5904576508,
				"y": 4.3887477707,
				"z": 1.7059649606,
				"element": "H" 
			},
			{
				"x": -0.6304956658,
				"y": 2.0946641774,
				"z": -2.8711775007,
				"element": "H" 
			},
			{
				"x": 0.0512898101,
				"y": -2.6521723832,
				"z": 1.6916212612,
				"element": "H" 
			},
			{
				"x": 1.0934663788,
				"y": -4.4608103117,
				"z": 3.0503734075,
				"element": "H" 
			},
			{
				"x": 3.5687996488,
				"y": -4.6400072304,
				"z": 3.1838403652,
				"element": "H" 
			},
			{
				"x": 4.9962289421,
				"y": -3.010846894,
				"z": 1.9650065988,
				"element": "H" 
			},
			{
				"x": 3.9408455325,
				"y": -1.2067143838,
				"z": 0.6100959306,
				"element": "H" 
			},
			{
				"x": 1.8347724545,
				"y": -3.0195945152,
				"z": -1.1109786786,
				"element": "H" 
			},
			{
				"x": 1.2247757623,
				"y": -3.4358995725,
				"z": -3.4580378203,
				"element": "H" 
			},
			{
				"x": 0.0155114155,
				"y": -1.6889391976,
				"z": -4.7713881355,
				"element": "H" 
			},
			{
				"x": -0.5426564672,
				"y": 0.4454197807,
				"z": -3.7273566254,
				"element": "H" 
			},
			{
				"x": -2.9539008757,
				"y": 2.3062684261,
				"z": -3.0173135244,
				"element": "H" 
			},
			{
				"x": -5.0093668216,
				"y": 3.3625314291,
				"z": -2.1161490356,
				"element": "H" 
			},
			{
				"x": -4.9436879605,
				"y": 4.4957536113,
				"z": 0.1067617063,
				"element": "H" 
			},
			{
				"x": -2.784380507,
				"y": 4.628710602,
				"z": 1.3516618804,
				"element": "H" 
			}
		],
		 "valence_orbital": [ 
			{
				"type": "occ",
				"energy": -0.2496,
				"method": "rhf"
			},
			{
				"type": "occ",
				"energy": -0.24474,
				"method": "rhf"
			},
			{
				"type": "occ",
				"energy": -0.23075,
				"method": "rhf"
			},
			{
				"type": "occ",
				"energy": -0.22335,
				"method": "rhf"
			},
			{
				"type": "occ",
				"energy": -0.19901,
				"method": "rhf"
			},
			{
				"type": "unocc",
				"energy": -0.06422,
				"method": "rhf"
			},
			{
				"type": "unocc",
				"energy": -0.02195,
				"method": "rhf"
			},
			{
				"type": "unocc",
				"energy": -0.01425,
				"method": "rhf"
			},
			{
				"type": "unocc",
				"energy": -0.0126,
				"method": "rhf"
			},
			{
				"type": "unocc",
				"energy": -0.00795,
				"method": "rhf"
			}
		],
		"cosmo_sigma_profile": { 
			"-0.025": 0.0,
			"-0.024": 0.0,
			"-0.023": 0.0,
			"-0.022": 0.0,
			"-0.021": 0.0,
			"-0.02": 0.0,
			"-0.019": 0.0,
			"-0.018": 0.0,
			"-0.017": 0.0,
			"-0.016": 0.0611765556908,
			"-0.015": 0.744914651167,
			"-0.014": 1.25832374792,
			"-0.013": 1.05987055404,
			"-0.012": 0.959404482383,
			"-0.011": 1.5166272435,
			"-0.01": 2.00124958107,
			"-0.009": 1.46058360103,
			"-0.008": 2.2407643771,
			"-0.007": 6.96481649304,
			"-0.006": 20.9554044467,
			"-0.005": 28.5029050914,
			"-0.004": 30.4960274149,
			"-0.003": 25.716672667,
			"-0.002": 27.7846453118,
			"-0.001": 27.96240664,
			"0.0": 29.376818857,
			"0.001": 29.3950426221,
			"0.002": 26.0543524058,
			"0.003": 29.3214277094,
			"0.004": 26.3230998389,
			"0.005": 18.2060993895,
			"0.006": 9.73733661536,
			"0.007": 4.86286552966,
			"0.008": 3.25854736769,
			"0.009": 4.19741880697,
			"0.01": 3.00937441395,
			"0.011": 2.24547078992,
			"0.012": 3.66383882427,
			"0.013": 4.16559120885,
			"0.014": 2.93306990486,
			"0.015": 0.388053827971,
			"0.016": 0.0,
			"0.017": 0.0,
			"0.018": 0.0,
			"0.019": 0.0,
			"0.02": 0.0,
			"0.021": 0.0,
			"0.022": 0.0,
			"0.023": 0.0,
			"0.024": 0.0,
			"0.025": 0.0
		}
	}
}
