{
	 "smiles": "FC1=CC(=CC=C1)C(=O)C1=CC(Cl)=CC=C1", 
	 "Tm": 336.15, 
	 "num_atms": 24, 
	 "gaussian": { 
		 "optdone": 1, 
		 "sigma_profile": "yes", 
		 "theory": "DFT", 
		 "functional": "B3LYP", 
		 "basiset": "6-31G**", 
		 "properties": { 
			 "R2extent": 5769.6573, 
			 "electric_dipole_moment_norm": 4.36283115076, 
			 "electric_quadrupole_moment_norm": 6.86532553853, 
			 "total_energy": -1135.45645104, 
			 "HOMO_LUMO_gap": 0.17966, 
			 "cosmo_polarized_energy": -9.09, 
			 "cosmo_cavitation_energy": 31.37, 
			 "cosmo_dispersion_energy": -22.68, 
			 "cosmo_repulsion_energy": 1.73, 
			 "cosmo_total_nonelectrostatic_energy": 10.43, 
			 "SMD_solvation_energy": 5.96 
		},
		"coords": [
			{
				"x": 6.1298028748,
				"y": 0.4905064932,
				"z": -0.1257039458,
				"element": "F" 
			},
			{
				"x": 4.9013638253,
				"y": 0.208567314,
				"z": -0.603487799,
				"element": "C" 
			},
			{
				"x": 3.8337295692,
				"y": 0.1467934743,
				"z": 0.2773493469,
				"element": "C" 
			},
			{
				"x": 2.5522658408,
				"y": -0.1261993138,
				"z": -0.2247716257,
				"element": "C" 
			},
			{
				"x": 2.3809373765,
				"y": -0.3643601786,
				"z": -1.5975630592,
				"element": "C" 
			},
			{
				"x": 3.4786101286,
				"y": -0.3153855206,
				"z": -2.4590453015,
				"element": "C" 
			},
			{
				"x": 4.7500610684,
				"y": -0.0176738423,
				"z": -1.9697121553,
				"element": "C" 
			},
			{
				"x": 1.4357724268,
				"y": -0.2383051279,
				"z": 0.7734571174,
				"element": "C" 
			},
			{
				"x": 1.6828320012,
				"y": -0.559855202,
				"z": 1.9290105996,
				"element": "O" 
			},
			{
				"x": 0.016234173,
				"y": 0.0420000911,
				"z": 0.3669947065,
				"element": "C" 
			},
			{
				"x": -0.995997356,
				"y": -0.5861215132,
				"z": 1.1090997444,
				"element": "C" 
			},
			{
				"x": -2.3270761311,
				"y": -0.3240479996,
				"z": 0.8092595154,
				"element": "C" 
			},
			{
				"x": -3.5939109996,
				"y": -1.1315301727,
				"z": 1.7202409998,
				"element": "Cl" 
			},
			{
				"x": -2.6802801827,
				"y": 0.5757926602,
				"z": -0.19958013,
				"element": "C" 
			},
			{
				"x": -1.6707329102,
				"y": 1.2186872945,
				"z": -0.9151217152,
				"element": "C" 
			},
			{
				"x": -0.3283166218,
				"y": 0.9525812468,
				"z": -0.6426649823,
				"element": "C" 
			},
			{
				"x": 3.9811868315,
				"y": 0.3006385961,
				"z": 1.3399332766,
				"element": "H" 
			},
			{
				"x": 1.4012474492,
				"y": -0.615137568,
				"z": -1.9879145584,
				"element": "H" 
			},
			{
				"x": 3.3445636381,
				"y": -0.5128745043,
				"z": -3.5181722253,
				"element": "H" 
			},
			{
				"x": 5.6167410764,
				"y": 0.0351138681,
				"z": -2.6197615489,
				"element": "H" 
			},
			{
				"x": -0.7229782902,
				"y": -1.2635681037,
				"z": 1.9095860453,
				"element": "H" 
			},
			{
				"x": -3.7258934597,
				"y": 0.7698445554,
				"z": -0.4117478453,
				"element": "H" 
			},
			{
				"x": -1.9358419088,
				"y": 1.9334079768,
				"z": -1.6883153068,
				"element": "H" 
			},
			{
				"x": 0.4472795801,
				"y": 1.4708254764,
				"z": -1.1951691529,
				"element": "H" 
			}
		],
		 "valence_orbital": [ 
			{
				"type": "occ",
				"energy": -0.27751,
				"method": "rhf"
			},
			{
				"type": "occ",
				"energy": -0.2748,
				"method": "rhf"
			},
			{
				"type": "occ",
				"energy": -0.2602,
				"method": "rhf"
			},
			{
				"type": "occ",
				"energy": -0.25811,
				"method": "rhf"
			},
			{
				"type": "occ",
				"energy": -0.25747,
				"method": "rhf"
			},
			{
				"type": "unocc",
				"energy": -0.07781,
				"method": "rhf"
			},
			{
				"type": "unocc",
				"energy": -0.02842,
				"method": "rhf"
			},
			{
				"type": "unocc",
				"energy": -0.02533,
				"method": "rhf"
			},
			{
				"type": "unocc",
				"energy": -0.01356,
				"method": "rhf"
			},
			{
				"type": "unocc",
				"energy": 0.02414,
				"method": "rhf"
			}
		],
		"cosmo_sigma_profile": { 
			"-0.025": 0.0,
			"-0.024": 0.0,
			"-0.023": 0.0,
			"-0.022": 0.0,
			"-0.021": 0.0,
			"-0.02": 0.0,
			"-0.019": 0.0,
			"-0.018": 0.0,
			"-0.017": 0.0,
			"-0.016": 0.0,
			"-0.015": 0.0,
			"-0.014": 0.0,
			"-0.013": 0.0,
			"-0.012": 0.0,
			"-0.011": 0.0,
			"-0.01": 0.0,
			"-0.009": 0.0,
			"-0.008": 2.74050232976,
			"-0.007": 10.2658360187,
			"-0.006": 15.8458271561,
			"-0.005": 14.9783484152,
			"-0.004": 15.9344718716,
			"-0.003": 14.58649966,
			"-0.002": 15.333807428,
			"-0.001": 17.2477142548,
			"0.0": 24.3168898674,
			"0.001": 28.1381524085,
			"0.002": 31.3216928473,
			"0.003": 20.8586102807,
			"0.004": 22.0517169941,
			"0.005": 6.61628513083,
			"0.006": 2.16842670316,
			"0.007": 1.55735614624,
			"0.008": 1.59833779089,
			"0.009": 2.02486762212,
			"0.01": 1.87584822727,
			"0.011": 3.97769057071,
			"0.012": 2.12951262077,
			"0.013": 0.0,
			"0.014": 0.0,
			"0.015": 0.0,
			"0.016": 0.0,
			"0.017": 0.0,
			"0.018": 0.0,
			"0.019": 0.0,
			"0.02": 0.0,
			"0.021": 0.0,
			"0.022": 0.0,
			"0.023": 0.0,
			"0.024": 0.0,
			"0.025": 0.0
		}
	}
}
