{
	 "smiles": "FC(F)(F)COC(=O)NCC1=CC=CC=C1", 
	 "Tm": 337.15, 
	 "num_atms": 26, 
	 "gaussian": { 
		 "optdone": 1, 
		 "sigma_profile": "yes", 
		 "theory": "DFT", 
		 "functional": "B3LYP", 
		 "basiset": "6-31G**", 
		 "properties": { 
			 "R2extent": 5081.6562, 
			 "electric_dipole_moment_norm": 2.57470585116, 
			 "electric_quadrupole_moment_norm": 10.4488714324, 
			 "total_energy": -891.839473093, 
			 "HOMO_LUMO_gap": 0.23602, 
			 "cosmo_polarized_energy": -10.74, 
			 "cosmo_cavitation_energy": 32.36, 
			 "cosmo_dispersion_energy": -22.2, 
			 "cosmo_repulsion_energy": 1.69, 
			 "cosmo_total_nonelectrostatic_energy": 11.86, 
			 "SMD_solvation_energy": 6.85 
		},
		"coords": [
			{
				"x": 0.9535603927,
				"y": 0.0789305858,
				"z": 2.7217096345,
				"element": "F" 
			},
			{
				"x": 0.0768491715,
				"y": 0.2541895423,
				"z": 3.7286217516,
				"element": "C" 
			},
			{
				"x": -0.5691926526,
				"y": -0.9130971982,
				"z": 3.9151236046,
				"element": "F" 
			},
			{
				"x": 0.7728370144,
				"y": 0.5267417464,
				"z": 4.8529797649,
				"element": "F" 
			},
			{
				"x": -0.8851019681,
				"y": 1.3940520519,
				"z": 3.4389638122,
				"element": "C" 
			},
			{
				"x": -1.6036765435,
				"y": 1.1233438827,
				"z": 2.2445196554,
				"element": "O" 
			},
			{
				"x": -1.1681120632,
				"y": 1.7947657713,
				"z": 1.1228560687,
				"element": "C" 
			},
			{
				"x": -0.3166744865,
				"y": 2.6642062283,
				"z": 1.1330474802,
				"element": "O" 
			},
			{
				"x": -1.8604170916,
				"y": 1.3558242458,
				"z": 0.0418741063,
				"element": "N" 
			},
			{
				"x": -1.5305859814,
				"y": 1.7960679832,
				"z": -1.3111385809,
				"element": "C" 
			},
			{
				"x": -0.6811769997,
				"y": 0.8037843935,
				"z": -2.0848484145,
				"element": "C" 
			},
			{
				"x": -1.1717251453,
				"y": 0.1933969428,
				"z": -3.2433265015,
				"element": "C" 
			},
			{
				"x": -0.3889939266,
				"y": -0.7204941495,
				"z": -3.9538830396,
				"element": "C" 
			},
			{
				"x": 0.8939263013,
				"y": -1.0343698439,
				"z": -3.5064610835,
				"element": "C" 
			},
			{
				"x": 1.3921879333,
				"y": -0.4292057006,
				"z": -2.3486133737,
				"element": "C" 
			},
			{
				"x": 0.6116220308,
				"y": 0.4846171566,
				"z": -1.6431076249,
				"element": "C" 
			},
			{
				"x": -0.3181566515,
				"y": 2.3221410567,
				"z": 3.3458690001,
				"element": "H" 
			},
			{
				"x": -1.6041467253,
				"y": 1.4628935115,
				"z": 4.2579260546,
				"element": "H" 
			},
			{
				"x": -2.4224568875,
				"y": 0.5259709425,
				"z": 0.1662176725,
				"element": "H" 
			},
			{
				"x": -1.0048367933,
				"y": 2.7473080778,
				"z": -1.1965139,
				"element": "H" 
			},
			{
				"x": -2.4623894452,
				"y": 1.9936254043,
				"z": -1.8516029321,
				"element": "H" 
			},
			{
				"x": -2.1723360875,
				"y": 0.4354475117,
				"z": -3.5947708747,
				"element": "H" 
			},
			{
				"x": -0.7832961168,
				"y": -1.1864480154,
				"z": -4.8525334489,
				"element": "H" 
			},
			{
				"x": 1.5046378977,
				"y": -1.7451321573,
				"z": -4.0557817569,
				"element": "H" 
			},
			{
				"x": 2.3924732913,
				"y": -0.6673225766,
				"z": -1.9981820221,
				"element": "H" 
			},
			{
				"x": 1.0019815325,
				"y": 0.9583626063,
				"z": -0.7463450524,
				"element": "H" 
			}
		],
		 "valence_orbital": [ 
			{
				"type": "occ",
				"energy": -0.30986,
				"method": "rhf"
			},
			{
				"type": "occ",
				"energy": -0.28977,
				"method": "rhf"
			},
			{
				"type": "occ",
				"energy": -0.26993,
				"method": "rhf"
			},
			{
				"type": "occ",
				"energy": -0.25345,
				"method": "rhf"
			},
			{
				"type": "occ",
				"energy": -0.24621,
				"method": "rhf"
			},
			{
				"type": "unocc",
				"energy": -0.01019,
				"method": "rhf"
			},
			{
				"type": "unocc",
				"energy": -0.00362,
				"method": "rhf"
			},
			{
				"type": "unocc",
				"energy": 0.0442,
				"method": "rhf"
			},
			{
				"type": "unocc",
				"energy": 0.08508,
				"method": "rhf"
			},
			{
				"type": "unocc",
				"energy": 0.09282,
				"method": "rhf"
			}
		],
		"cosmo_sigma_profile": { 
			"-0.025": 0.0,
			"-0.024": 0.0,
			"-0.023": 0.0,
			"-0.022": 0.0,
			"-0.021": 0.0,
			"-0.02": 0.0,
			"-0.019": 0.0,
			"-0.018": 0.0,
			"-0.017": 0.0,
			"-0.016": 0.0,
			"-0.015": 0.298997069897,
			"-0.014": 1.11688153746,
			"-0.013": 0.738220019354,
			"-0.012": 1.11713253747,
			"-0.011": 0.855499399729,
			"-0.01": 1.11218964213,
			"-0.009": 3.54343519643,
			"-0.008": 3.9117304557,
			"-0.007": 4.65808150061,
			"-0.006": 12.1090153729,
			"-0.005": 17.8528887976,
			"-0.004": 16.2183130067,
			"-0.003": 16.9501476957,
			"-0.002": 14.5419532095,
			"-0.001": 16.6267548279,
			"0.0": 15.478454963,
			"0.001": 17.7918756361,
			"0.002": 31.8770999552,
			"0.003": 34.3371779438,
			"0.004": 12.5407859495,
			"0.005": 11.6596484711,
			"0.006": 9.59554440074,
			"0.007": 2.26967614911,
			"0.008": 1.52417512277,
			"0.009": 0.890507684842,
			"0.01": 1.75489808579,
			"0.011": 1.68120575093,
			"0.012": 3.78707714228,
			"0.013": 0.980643538742,
			"0.014": 0.0,
			"0.015": 0.0,
			"0.016": 0.0,
			"0.017": 0.0,
			"0.018": 0.0,
			"0.019": 0.0,
			"0.02": 0.0,
			"0.021": 0.0,
			"0.022": 0.0,
			"0.023": 0.0,
			"0.024": 0.0,
			"0.025": 0.0
		}
	}
}
