{
	 "smiles": "CC1=C(OCC(O)=O)C(Cl)=CC=C1", 
	 "Tm": 373.15, 
	 "num_atms": 22, 
	 "gaussian": { 
		 "optdone": 1, 
		 "sigma_profile": "yes", 
		 "theory": "DFT", 
		 "functional": "B3LYP", 
		 "basiset": "6-31G**", 
		 "properties": { 
			 "R2extent": 3454.1435, 
			 "electric_dipole_moment_norm": 1.5674546692, 
			 "electric_quadrupole_moment_norm": 13.0762434525, 
			 "total_energy": -1034.24562046, 
			 "HOMO_LUMO_gap": 0.22639, 
			 "cosmo_polarized_energy": -10.69, 
			 "cosmo_cavitation_energy": 27.71, 
			 "cosmo_dispersion_energy": -20.25, 
			 "cosmo_repulsion_energy": 1.61, 
			 "cosmo_total_nonelectrostatic_energy": 9.07, 
			 "SMD_solvation_energy": 5.97 
		},
		"coords": [
			{
				"x": -0.3496311071,
				"y": -0.6395629081,
				"z": -2.4735598011,
				"element": "C" 
			},
			{
				"x": 0.6394412576,
				"y": -0.7995421933,
				"z": -1.3468630609,
				"element": "C" 
			},
			{
				"x": 1.2334896626,
				"y": 0.3345431978,
				"z": -0.7582293365,
				"element": "C" 
			},
			{
				"x": 0.8938609873,
				"y": 1.5728809917,
				"z": -1.2557155594,
				"element": "O" 
			},
			{
				"x": 0.3252765172,
				"y": 2.5265762031,
				"z": -0.3783214638,
				"element": "C" 
			},
			{
				"x": -1.1465857554,
				"y": 2.7746953212,
				"z": -0.6849884523,
				"element": "C" 
			},
			{
				"x": -1.5732602247,
				"y": 3.8523158361,
				"z": 0.0143117481,
				"element": "O" 
			},
			{
				"x": -1.8637681317,
				"y": 2.1316233148,
				"z": -1.4136004515,
				"element": "O" 
			},
			{
				"x": 2.2151915853,
				"y": 0.1677379073,
				"z": 0.2316225293,
				"element": "C" 
			},
			{
				"x": 3.0764445532,
				"y": 1.5618262109,
				"z": 0.877971971,
				"element": "Cl" 
			},
			{
				"x": 2.5683898402,
				"y": -1.0999902508,
				"z": 0.6931567099,
				"element": "C" 
			},
			{
				"x": 1.9544294445,
				"y": -2.218972692,
				"z": 0.1377197029,
				"element": "C" 
			},
			{
				"x": 1.0129692143,
				"y": -2.0638917236,
				"z": -0.8795691567,
				"element": "C" 
			},
			{
				"x": -1.1298034206,
				"y": 0.0815565129,
				"z": -2.2213906453,
				"element": "H" 
			},
			{
				"x": -0.8069052079,
				"y": -1.6012407106,
				"z": -2.7206819363,
				"element": "H" 
			},
			{
				"x": 0.1477614755,
				"y": -0.2595150769,
				"z": -3.3735521163,
				"element": "H" 
			},
			{
				"x": 0.3990096901,
				"y": 2.2266518655,
				"z": 0.6722069085,
				"element": "H" 
			},
			{
				"x": 0.8650854906,
				"y": 3.4732412878,
				"z": -0.4807201621,
				"element": "H" 
			},
			{
				"x": -2.5176709555,
				"y": 3.9579570443,
				"z": -0.1896080849,
				"element": "H" 
			},
			{
				"x": 3.3248687117,
				"y": -1.1951844532,
				"z": 1.4640261555,
				"element": "H" 
			},
			{
				"x": 2.2230507406,
				"y": -3.210546827,
				"z": 0.4887225425,
				"element": "H" 
			},
			{
				"x": 0.5506556322,
				"y": -2.9405588578,
				"z": -1.3245380404,
				"element": "H" 
			}
		],
		 "valence_orbital": [ 
			{
				"type": "occ",
				"energy": -0.31515,
				"method": "rhf"
			},
			{
				"type": "occ",
				"energy": -0.30935,
				"method": "rhf"
			},
			{
				"type": "occ",
				"energy": -0.28337,
				"method": "rhf"
			},
			{
				"type": "occ",
				"energy": -0.24325,
				"method": "rhf"
			},
			{
				"type": "occ",
				"energy": -0.23687,
				"method": "rhf"
			},
			{
				"type": "unocc",
				"energy": -0.01048,
				"method": "rhf"
			},
			{
				"type": "unocc",
				"energy": -0.00658,
				"method": "rhf"
			},
			{
				"type": "unocc",
				"energy": -0.0006,
				"method": "rhf"
			},
			{
				"type": "unocc",
				"energy": 0.02598,
				"method": "rhf"
			},
			{
				"type": "unocc",
				"energy": 0.06664,
				"method": "rhf"
			}
		],
		"cosmo_sigma_profile": { 
			"-0.025": 0.0,
			"-0.024": 0.0,
			"-0.023": 0.0,
			"-0.022": 0.0,
			"-0.021": 0.0,
			"-0.02": 0.0,
			"-0.019": 0.304220555834,
			"-0.018": 0.906516929879,
			"-0.017": 1.12488898408,
			"-0.016": 0.6133430987,
			"-0.015": 0.96818313416,
			"-0.014": 0.702970287794,
			"-0.013": 0.465293866064,
			"-0.012": 0.565010535907,
			"-0.011": 1.24460262295,
			"-0.01": 0.326026661871,
			"-0.009": 1.52180829525,
			"-0.008": 3.7521261168,
			"-0.007": 6.8697717616,
			"-0.006": 9.11158782509,
			"-0.005": 12.3822184714,
			"-0.004": 14.6935110699,
			"-0.003": 12.6842596349,
			"-0.002": 13.9054763742,
			"-0.001": 12.9744573568,
			"0.0": 16.7465316457,
			"0.001": 19.6136985543,
			"0.002": 19.6942191623,
			"0.003": 17.25346516,
			"0.004": 18.2818539254,
			"0.005": 10.5055979201,
			"0.006": 5.50988067615,
			"0.007": 3.56572240245,
			"0.008": 4.60685685437,
			"0.009": 5.25274138413,
			"0.01": 3.84494418709,
			"0.011": 2.35996406084,
			"0.012": 0.391465298874,
			"0.013": 0.0,
			"0.014": 0.0,
			"0.015": 0.0,
			"0.016": 0.0,
			"0.017": 0.0,
			"0.018": 0.0,
			"0.019": 0.0,
			"0.02": 0.0,
			"0.021": 0.0,
			"0.022": 0.0,
			"0.023": 0.0,
			"0.024": 0.0,
			"0.025": 0.0
		}
	}
}
