{
	 "smiles": "NC(CC1=CC=CO1)C(O)=O", 
	 "Tm": 453.15, 
	 "num_atms": 20, 
	 "gaussian": { 
		 "optdone": 1, 
		 "sigma_profile": "yes", 
		 "theory": "DFT", 
		 "functional": "B3LYP", 
		 "basiset": "6-31G**", 
		 "properties": { 
			 "R2extent": 2850.9868, 
			 "electric_dipole_moment_norm": 2.18097201495, 
			 "electric_quadrupole_moment_norm": 10.9711838842, 
			 "total_energy": -552.574607365, 
			 "HOMO_LUMO_gap": 0.22708, 
			 "cosmo_polarized_energy": -12.15, 
			 "cosmo_cavitation_energy": 24.21, 
			 "cosmo_dispersion_energy": -17.77, 
			 "cosmo_repulsion_energy": 1.45, 
			 "cosmo_total_nonelectrostatic_energy": 7.9, 
			 "SMD_solvation_energy": 5.11 
		},
		"coords": [
			{
				"x": 2.6822486981,
				"y": 0.5034842012,
				"z": 0.7611100769,
				"element": "N" 
			},
			{
				"x": 1.502510726,
				"y": 1.0309608475,
				"z": 0.0746199902,
				"element": "C" 
			},
			{
				"x": 1.48424986,
				"y": 0.5804141855,
				"z": -1.3991287222,
				"element": "C" 
			},
			{
				"x": 1.0751604987,
				"y": -0.840944384,
				"z": -1.5907526419,
				"element": "C" 
			},
			{
				"x": 0.0140597066,
				"y": -1.4340639982,
				"z": -2.2098774249,
				"element": "C" 
			},
			{
				"x": 0.175986752,
				"y": -2.8512729275,
				"z": -2.0508474253,
				"element": "C" 
			},
			{
				"x": 1.3232364204,
				"y": -3.0229219868,
				"z": -1.3428212009,
				"element": "C" 
			},
			{
				"x": 1.8874116821,
				"y": -1.8116225898,
				"z": -1.0531295837,
				"element": "O" 
			},
			{
				"x": 1.5014755406,
				"y": 2.5559095609,
				"z": 0.1595461306,
				"element": "C" 
			},
			{
				"x": 1.8141483138,
				"y": 2.9823404022,
				"z": 1.4064938638,
				"element": "O" 
			},
			{
				"x": 1.2144657425,
				"y": 3.3199013219,
				"z": -0.7350101635,
				"element": "O" 
			},
			{
				"x": 2.6555862604,
				"y": 0.7549944027,
				"z": 1.744675159,
				"element": "H" 
			},
			{
				"x": 2.6811373612,
				"y": -0.510420295,
				"z": 0.6934530395,
				"element": "H" 
			},
			{
				"x": 0.5419143358,
				"y": 0.7222578802,
				"z": 0.5332945238,
				"element": "H" 
			},
			{
				"x": 2.485516275,
				"y": 0.7539606805,
				"z": -1.8120192731,
				"element": "H" 
			},
			{
				"x": 0.7900742338,
				"y": 1.2169330262,
				"z": -1.9517842862,
				"element": "H" 
			},
			{
				"x": -0.7872037715,
				"y": -0.9216632535,
				"z": -2.7231736401,
				"element": "H" 
			},
			{
				"x": -0.4752966166,
				"y": -3.6310240058,
				"z": -2.4188313075,
				"element": "H" 
			},
			{
				"x": 1.8577375952,
				"y": -3.888484175,
				"z": -0.9835969746,
				"element": "H" 
			},
			{
				"x": 1.776880386,
				"y": 3.9531611068,
				"z": 1.3791798601,
				"element": "H" 
			}
		],
		 "valence_orbital": [ 
			{
				"type": "occ",
				"energy": -0.32297,
				"method": "rhf"
			},
			{
				"type": "occ",
				"energy": -0.28227,
				"method": "rhf"
			},
			{
				"type": "occ",
				"energy": -0.27728,
				"method": "rhf"
			},
			{
				"type": "occ",
				"energy": -0.2383,
				"method": "rhf"
			},
			{
				"type": "occ",
				"energy": -0.22151,
				"method": "rhf"
			},
			{
				"type": "unocc",
				"energy": 0.00557,
				"method": "rhf"
			},
			{
				"type": "unocc",
				"energy": 0.0133,
				"method": "rhf"
			},
			{
				"type": "unocc",
				"energy": 0.06739,
				"method": "rhf"
			},
			{
				"type": "unocc",
				"energy": 0.07838,
				"method": "rhf"
			},
			{
				"type": "unocc",
				"energy": 0.10506,
				"method": "rhf"
			}
		],
		"cosmo_sigma_profile": { 
			"-0.025": 0.0,
			"-0.024": 0.0,
			"-0.023": 0.0,
			"-0.022": 0.0,
			"-0.021": 0.0,
			"-0.02": 0.0,
			"-0.019": 0.167045472185,
			"-0.018": 0.940743502076,
			"-0.017": 0.617633338987,
			"-0.016": 1.06700725962,
			"-0.015": 0.838532096107,
			"-0.014": 0.419480329654,
			"-0.013": 0.525596605127,
			"-0.012": 1.01024095586,
			"-0.011": 0.726044104473,
			"-0.01": 1.22416363803,
			"-0.009": 1.83073135809,
			"-0.008": 3.89074708392,
			"-0.007": 7.25560099712,
			"-0.006": 10.2724009779,
			"-0.005": 12.3912083367,
			"-0.004": 14.2752740274,
			"-0.003": 14.4536755862,
			"-0.002": 11.3410957885,
			"-0.001": 11.776949078,
			"0.0": 9.54588779797,
			"0.001": 11.1708600885,
			"0.002": 10.2965222139,
			"0.003": 10.4945820654,
			"0.004": 10.9755409793,
			"0.005": 9.85750658689,
			"0.006": 10.0259866568,
			"0.007": 4.87461433318,
			"0.008": 2.98480601705,
			"0.009": 2.70184265287,
			"0.01": 2.19016778042,
			"0.011": 5.06233020071,
			"0.012": 3.29596053071,
			"0.013": 0.71166234429,
			"0.014": 0.538508281364,
			"0.015": 0.253513526704,
			"0.016": 0.590353068583,
			"0.017": 0.587365116706,
			"0.018": 0.317970338593,
			"0.019": 0.0,
			"0.02": 0.0,
			"0.021": 0.0,
			"0.022": 0.0,
			"0.023": 0.0,
			"0.024": 0.0,
			"0.025": 0.0
		}
	}
}
