{
	 "smiles": "COC1=C(C=C2C(CC2=C1)C(O)=O)C(C)C", 
	 "Tm": 359.15, 
	 "num_atms": 32, 
	 "gaussian": { 
		 "optdone": 1, 
		 "sigma_profile": "yes", 
		 "theory": "DFT", 
		 "functional": "B3LYP", 
		 "basiset": "6-31G**", 
		 "properties": { 
			 "R2extent": 4966.9759, 
			 "electric_dipole_moment_norm": 2.56583479203, 
			 "electric_quadrupole_moment_norm": 7.96102384056, 
			 "total_energy": -730.673973493, 
			 "HOMO_LUMO_gap": 0.20761, 
			 "cosmo_polarized_energy": -11.9, 
			 "cosmo_cavitation_energy": 34.79, 
			 "cosmo_dispersion_energy": -24.42, 
			 "cosmo_repulsion_energy": 1.95, 
			 "cosmo_total_nonelectrostatic_energy": 12.33, 
			 "SMD_solvation_energy": 7.49 
		},
		"coords": [
			{
				"x": -0.1776305415,
				"y": 0.9783394885,
				"z": -2.9290647355,
				"element": "C" 
			},
			{
				"x": -0.6407744712,
				"y": 1.4811010673,
				"z": -1.6883609851,
				"element": "O" 
			},
			{
				"x": -0.142021379,
				"y": 0.940371341,
				"z": -0.5300268383,
				"element": "C" 
			},
			{
				"x": -0.6414308264,
				"y": 1.5325568817,
				"z": 0.6658320983,
				"element": "C" 
			},
			{
				"x": -0.1962051461,
				"y": 1.050639362,
				"z": 1.9050876392,
				"element": "C" 
			},
			{
				"x": 0.7190595632,
				"y": 0.0060872139,
				"z": 1.900309131,
				"element": "C" 
			},
			{
				"x": 1.566506929,
				"y": -0.8907873807,
				"z": 2.7854049712,
				"element": "C" 
			},
			{
				"x": 2.0696882276,
				"y": -1.5745081065,
				"z": 1.440759945,
				"element": "C" 
			},
			{
				"x": 1.1878517943,
				"y": -0.5611668537,
				"z": 0.7263960545,
				"element": "C" 
			},
			{
				"x": 0.7852341237,
				"y": -0.1161771717,
				"z": -0.5264240285,
				"element": "C" 
			},
			{
				"x": 0.8519363901,
				"y": -1.7710461243,
				"z": 3.7837002182,
				"element": "C" 
			},
			{
				"x": 1.6414470779,
				"y": -2.7983480142,
				"z": 4.1915604159,
				"element": "O" 
			},
			{
				"x": -0.2698095735,
				"y": -1.6047705518,
				"z": 4.207838561,
				"element": "O" 
			},
			{
				"x": -1.6692708074,
				"y": 2.6554172811,
				"z": 0.5561014236,
				"element": "C" 
			},
			{
				"x": -3.0765614858,
				"y": 2.0838907833,
				"z": 0.2811216512,
				"element": "C" 
			},
			{
				"x": -1.6958340948,
				"y": 3.5906701117,
				"z": 1.774051226,
				"element": "C" 
			},
			{
				"x": -0.6885505059,
				"y": 1.5587643863,
				"z": -3.6992176038,
				"element": "H" 
			},
			{
				"x": -0.4252516404,
				"y": -0.0837075636,
				"z": -3.0557827553,
				"element": "H" 
			},
			{
				"x": 0.9069271398,
				"y": 1.1073064152,
				"z": -3.0406189414,
				"element": "H" 
			},
			{
				"x": -0.5664915676,
				"y": 1.4836985668,
				"z": 2.8275397583,
				"element": "H" 
			},
			{
				"x": 2.3830835493,
				"y": -0.3860149681,
				"z": 3.3186373077,
				"element": "H" 
			},
			{
				"x": 3.1485500579,
				"y": -1.4995513307,
				"z": 1.2700279986,
				"element": "H" 
			},
			{
				"x": 1.7728580412,
				"y": -2.6228183223,
				"z": 1.3361972859,
				"element": "H" 
			},
			{
				"x": 1.1518431654,
				"y": -0.5542145319,
				"z": -1.4471258274,
				"element": "H" 
			},
			{
				"x": 1.1158873008,
				"y": -3.2983471423,
				"z": 4.8387481843,
				"element": "H" 
			},
			{
				"x": -1.3894658063,
				"y": 3.256767452,
				"z": -0.3164843385,
				"element": "H" 
			},
			{
				"x": -3.4118094969,
				"y": 1.4616077417,
				"z": 1.1184482855,
				"element": "H" 
			},
			{
				"x": -3.8035868575,
				"y": 2.8932899269,
				"z": 0.1481523806,
				"element": "H" 
			},
			{
				"x": -3.0809749202,
				"y": 1.4708919492,
				"z": -0.6237030754,
				"element": "H" 
			},
			{
				"x": -2.3583944671,
				"y": 4.43980107,
				"z": 1.5765950803,
				"element": "H" 
			},
			{
				"x": -2.0768937075,
				"y": 3.0877883152,
				"z": 2.6698429446,
				"element": "H" 
			},
			{
				"x": -0.700816065,
				"y": 3.9849687079,
				"z": 2.0046565682,
				"element": "H" 
			}
		],
		 "valence_orbital": [ 
			{
				"type": "occ",
				"energy": -0.30775,
				"method": "rhf"
			},
			{
				"type": "occ",
				"energy": -0.3037,
				"method": "rhf"
			},
			{
				"type": "occ",
				"energy": -0.26927,
				"method": "rhf"
			},
			{
				"type": "occ",
				"energy": -0.23979,
				"method": "rhf"
			},
			{
				"type": "occ",
				"energy": -0.20757,
				"method": "rhf"
			},
			{
				"type": "unocc",
				"energy": 4e-05,
				"method": "rhf"
			},
			{
				"type": "unocc",
				"energy": 0.01013,
				"method": "rhf"
			},
			{
				"type": "unocc",
				"energy": 0.01733,
				"method": "rhf"
			},
			{
				"type": "unocc",
				"energy": 0.07901,
				"method": "rhf"
			},
			{
				"type": "unocc",
				"energy": 0.09915,
				"method": "rhf"
			}
		],
		"cosmo_sigma_profile": { 
			"-0.025": 0.0,
			"-0.024": 0.0,
			"-0.023": 0.0,
			"-0.022": 0.0,
			"-0.021": 0.0,
			"-0.02": 0.0,
			"-0.019": 0.00907738070332,
			"-0.018": 0.60209726528,
			"-0.017": 0.937611074583,
			"-0.016": 1.26460823939,
			"-0.015": 0.376071722726,
			"-0.014": 0.413110063573,
			"-0.013": 0.572588333454,
			"-0.012": 0.446741170823,
			"-0.011": 1.19923914312,
			"-0.01": 1.20278394561,
			"-0.009": 0.152793773202,
			"-0.008": 0.697300304687,
			"-0.007": 2.68406633505,
			"-0.006": 8.2378947433,
			"-0.005": 18.7551995132,
			"-0.004": 18.5522143527,
			"-0.003": 24.5555824424,
			"-0.002": 26.3044044799,
			"-0.001": 29.1642567586,
			"0.0": 24.7611114473,
			"0.001": 23.9253853817,
			"0.002": 18.055211179,
			"0.003": 12.5570668516,
			"0.004": 11.6489959765,
			"0.005": 11.7129812515,
			"0.006": 8.57610371621,
			"0.007": 6.36163282215,
			"0.008": 4.99236931796,
			"0.009": 2.58939272738,
			"0.01": 3.60176591063,
			"0.011": 3.7810610967,
			"0.012": 4.60548417508,
			"0.013": 0.150672017088,
			"0.014": 0.0,
			"0.015": 0.0,
			"0.016": 0.0,
			"0.017": 0.0,
			"0.018": 0.0,
			"0.019": 0.0,
			"0.02": 0.0,
			"0.021": 0.0,
			"0.022": 0.0,
			"0.023": 0.0,
			"0.024": 0.0,
			"0.025": 0.0
		}
	}
}
