{
	 "smiles": "CC(C)COC(Cl)=O", 
	 "Tm": 193.15, 
	 "num_atms": 17, 
	 "gaussian": { 
		 "optdone": 1, 
		 "sigma_profile": "yes", 
		 "theory": "DFT", 
		 "functional": "B3LYP", 
		 "basiset": "6-31G**", 
		 "properties": { 
			 "R2extent": 2049.209, 
			 "electric_dipole_moment_norm": 3.28739168339, 
			 "electric_quadrupole_moment_norm": 7.14120884585, 
			 "total_energy": -806.614376236, 
			 "HOMO_LUMO_gap": 0.29633, 
			 "cosmo_polarized_energy": -5.29, 
			 "cosmo_cavitation_energy": 22.42, 
			 "cosmo_dispersion_energy": -16.03, 
			 "cosmo_repulsion_energy": 1.38, 
			 "cosmo_total_nonelectrostatic_energy": 7.76, 
			 "SMD_solvation_energy": 5.23 
		},
		"coords": [
			{
				"x": -0.669319905,
				"y": 1.0816637184,
				"z": 1.0675965472,
				"element": "C" 
			},
			{
				"x": 0.5432269221,
				"y": 0.338162597,
				"z": 1.6479225597,
				"element": "C" 
			},
			{
				"x": 0.1491387174,
				"y": -0.5771867037,
				"z": 2.8169834551,
				"element": "C" 
			},
			{
				"x": 1.3122252904,
				"y": -0.4190211511,
				"z": 0.5701032848,
				"element": "C" 
			},
			{
				"x": 0.4266935569,
				"y": -1.4425160586,
				"z": 0.0151070831,
				"element": "O" 
			},
			{
				"x": 0.9583168362,
				"y": -2.1877132855,
				"z": -0.9433153037,
				"element": "C" 
			},
			{
				"x": -0.2630353709,
				"y": -3.3683534006,
				"z": -1.4904114884,
				"element": "Cl" 
			},
			{
				"x": 2.05946756,
				"y": -2.1284757884,
				"z": -1.4053563222,
				"element": "O" 
			},
			{
				"x": -0.3729419095,
				"y": 1.7645731606,
				"z": 0.2639014262,
				"element": "H" 
			},
			{
				"x": -1.1663366945,
				"y": 1.6724456473,
				"z": 1.8431647793,
				"element": "H" 
			},
			{
				"x": -1.4005534607,
				"y": 0.3774337532,
				"z": 0.6593962377,
				"element": "H" 
			},
			{
				"x": 1.25729358,
				"y": 1.0860717215,
				"z": 2.0230012283,
				"element": "H" 
			},
			{
				"x": -0.5442837937,
				"y": -1.356363975,
				"z": 2.4863302578,
				"element": "H" 
			},
			{
				"x": -0.3418721626,
				"y": -0.0021566248,
				"z": 3.6080586366,
				"element": "H" 
			},
			{
				"x": 1.0256254777,
				"y": -1.0681574991,
				"z": 3.2538381524,
				"element": "H" 
			},
			{
				"x": 1.6261670771,
				"y": 0.236213937,
				"z": -0.2479168951,
				"element": "H" 
			},
			{
				"x": 2.1977882791,
				"y": -0.9201200483,
				"z": 0.9722963611,
				"element": "H" 
			}
		],
		 "valence_orbital": [ 
			{
				"type": "occ",
				"energy": -0.34725,
				"method": "rhf"
			},
			{
				"type": "occ",
				"energy": -0.33489,
				"method": "rhf"
			},
			{
				"type": "occ",
				"energy": -0.32829,
				"method": "rhf"
			},
			{
				"type": "occ",
				"energy": -0.32512,
				"method": "rhf"
			},
			{
				"type": "occ",
				"energy": -0.30126,
				"method": "rhf"
			},
			{
				"type": "unocc",
				"energy": -0.00493,
				"method": "rhf"
			},
			{
				"type": "unocc",
				"energy": 0.01501,
				"method": "rhf"
			},
			{
				"type": "unocc",
				"energy": 0.07285,
				"method": "rhf"
			},
			{
				"type": "unocc",
				"energy": 0.10963,
				"method": "rhf"
			},
			{
				"type": "unocc",
				"energy": 0.13399,
				"method": "rhf"
			}
		],
		"cosmo_sigma_profile": { 
			"-0.025": 0.0,
			"-0.024": 0.0,
			"-0.023": 0.0,
			"-0.022": 0.0,
			"-0.021": 0.0,
			"-0.02": 0.0,
			"-0.019": 0.0,
			"-0.018": 0.0,
			"-0.017": 0.0,
			"-0.016": 0.0,
			"-0.015": 0.0,
			"-0.014": 0.0,
			"-0.013": 0.0,
			"-0.012": 0.0,
			"-0.011": 0.0,
			"-0.01": 0.0,
			"-0.009": 0.0,
			"-0.008": 0.0,
			"-0.007": 1.06688158229,
			"-0.006": 7.13830353168,
			"-0.005": 10.3894370496,
			"-0.004": 11.7924155602,
			"-0.003": 18.3741326304,
			"-0.002": 17.7742807901,
			"-0.001": 18.9193816996,
			"0.0": 19.0005558832,
			"0.001": 20.673391427,
			"0.002": 10.9993312683,
			"0.003": 12.9085405972,
			"0.004": 10.4139471665,
			"0.005": 4.53730279021,
			"0.006": 2.03510964555,
			"0.007": 2.28839628729,
			"0.008": 2.6157105348,
			"0.009": 5.01825659566,
			"0.01": 2.02029294016,
			"0.011": 0.0399063223048,
			"0.012": 0.0,
			"0.013": 0.0,
			"0.014": 0.0,
			"0.015": 0.0,
			"0.016": 0.0,
			"0.017": 0.0,
			"0.018": 0.0,
			"0.019": 0.0,
			"0.02": 0.0,
			"0.021": 0.0,
			"0.022": 0.0,
			"0.023": 0.0,
			"0.024": 0.0,
			"0.025": 0.0
		}
	}
}
