{
	 "smiles": "CCOP(=S)(OCC)SCCSCC", 
	 "Tm": 248.15, 
	 "num_atms": 33, 
	 "gaussian": { 
		 "optdone": 1, 
		 "sigma_profile": "yes", 
		 "theory": "DFT", 
		 "functional": "B3LYP", 
		 "basiset": "6-31G**", 
		 "properties": { 
			 "R2extent": 6774.0051, 
			 "electric_dipole_moment_norm": 2.80868203078, 
			 "electric_quadrupole_moment_norm": 12.6022575466, 
			 "total_energy": -2002.74287526, 
			 "HOMO_LUMO_gap": 0.20396, 
			 "cosmo_polarized_energy": -11.37, 
			 "cosmo_cavitation_energy": 41.63, 
			 "cosmo_dispersion_energy": -29.07, 
			 "cosmo_repulsion_energy": 2.26, 
			 "cosmo_total_nonelectrostatic_energy": 14.82, 
			 "SMD_solvation_energy": 6.18 
		},
		"coords": [
			{
				"x": -4.7562059298,
				"y": -2.839296225,
				"z": 0.4926189215,
				"element": "C" 
			},
			{
				"x": -3.3493827574,
				"y": -2.655231625,
				"z": 1.0273547544,
				"element": "C" 
			},
			{
				"x": -2.9879385871,
				"y": -1.2587016759,
				"z": 0.8339771526,
				"element": "O" 
			},
			{
				"x": -1.506806778,
				"y": -0.7446931914,
				"z": 1.2210330806,
				"element": "P" 
			},
			{
				"x": -0.0052866815,
				"y": -1.6667660628,
				"z": 0.3871472967,
				"element": "S" 
			},
			{
				"x": -1.6027811484,
				"y": -0.8386362072,
				"z": 2.8402433074,
				"element": "O" 
			},
			{
				"x": -0.4375009425,
				"y": -0.616307359,
				"z": 3.673153206,
				"element": "C" 
			},
			{
				"x": -0.8558564295,
				"y": -0.8300965486,
				"z": 5.1154984879,
				"element": "C" 
			},
			{
				"x": -1.6960594528,
				"y": 1.3348805588,
				"z": 0.8888167667,
				"element": "S" 
			},
			{
				"x": -0.7154930847,
				"y": 1.6084520591,
				"z": -0.6562717581,
				"element": "C" 
			},
			{
				"x": 0.7296343366,
				"y": 2.0003431925,
				"z": -0.3658777045,
				"element": "C" 
			},
			{
				"x": 1.5513523129,
				"y": 2.4503788237,
				"z": -1.9514485688,
				"element": "S" 
			},
			{
				"x": 3.2584375721,
				"y": 2.7853193697,
				"z": -1.3566292626,
				"element": "C" 
			},
			{
				"x": 4.0631354357,
				"y": 1.5442503328,
				"z": -0.9722996145,
				"element": "C" 
			},
			{
				"x": -5.0667260928,
				"y": -3.8808413719,
				"z": 0.6241932768,
				"element": "H" 
			},
			{
				"x": -4.7999597335,
				"y": -2.5966007998,
				"z": -0.5725625502,
				"element": "H" 
			},
			{
				"x": -5.4626390765,
				"y": -2.1965728154,
				"z": 1.0249700841,
				"element": "H" 
			},
			{
				"x": -2.6284949499,
				"y": -3.2816902774,
				"z": 0.49213543,
				"element": "H" 
			},
			{
				"x": -3.289874557,
				"y": -2.8829992821,
				"z": 2.0964826533,
				"element": "H" 
			},
			{
				"x": -0.0781740148,
				"y": 0.4063843149,
				"z": 3.5097328424,
				"element": "H" 
			},
			{
				"x": 0.3496525554,
				"y": -1.3141602895,
				"z": 3.3703238662,
				"element": "H" 
			},
			{
				"x": -1.6473008577,
				"y": -0.1312304016,
				"z": 5.3998017323,
				"element": "H" 
			},
			{
				"x": -1.2216565775,
				"y": -1.8496443027,
				"z": 5.2661193791,
				"element": "H" 
			},
			{
				"x": 0.0022778462,
				"y": -0.6697717788,
				"z": 5.7758964791,
				"element": "H" 
			},
			{
				"x": -0.7643164263,
				"y": 0.7077202492,
				"z": -1.2711020458,
				"element": "H" 
			},
			{
				"x": -1.2490422937,
				"y": 2.4092597016,
				"z": -1.1756155178,
				"element": "H" 
			},
			{
				"x": 1.2489125853,
				"y": 1.1578190023,
				"z": 0.0963603813,
				"element": "H" 
			},
			{
				"x": 0.7645522847,
				"y": 2.8592135833,
				"z": 0.3119487499,
				"element": "H" 
			},
			{
				"x": 3.201365985,
				"y": 3.497425653,
				"z": -0.5261210488,
				"element": "H" 
			},
			{
				"x": 3.7336352646,
				"y": 3.3085181676,
				"z": -2.1923156844,
				"element": "H" 
			},
			{
				"x": 3.6031572851,
				"y": 1.0038301637,
				"z": -0.1398005765,
				"element": "H" 
			},
			{
				"x": 4.1438486495,
				"y": 0.853826116,
				"z": -1.8161535841,
				"element": "H" 
			},
			{
				"x": 5.0750342581,
				"y": 1.8315189258,
				"z": -0.6627099321,
				"element": "H" 
			}
		],
		 "valence_orbital": [ 
			{
				"type": "occ",
				"energy": -0.30309,
				"method": "rhf"
			},
			{
				"type": "occ",
				"energy": -0.26534,
				"method": "rhf"
			},
			{
				"type": "occ",
				"energy": -0.24477,
				"method": "rhf"
			},
			{
				"type": "occ",
				"energy": -0.23981,
				"method": "rhf"
			},
			{
				"type": "occ",
				"energy": -0.21842,
				"method": "rhf"
			},
			{
				"type": "unocc",
				"energy": -0.01446,
				"method": "rhf"
			},
			{
				"type": "unocc",
				"energy": 0.01737,
				"method": "rhf"
			},
			{
				"type": "unocc",
				"energy": 0.03667,
				"method": "rhf"
			},
			{
				"type": "unocc",
				"energy": 0.04204,
				"method": "rhf"
			},
			{
				"type": "unocc",
				"energy": 0.0566,
				"method": "rhf"
			}
		],
		"cosmo_sigma_profile": { 
			"-0.025": 0.0,
			"-0.024": 0.0,
			"-0.023": 0.0,
			"-0.022": 0.0,
			"-0.021": 0.0,
			"-0.02": 0.0,
			"-0.019": 0.0,
			"-0.018": 0.0,
			"-0.017": 0.0,
			"-0.016": 0.0,
			"-0.015": 0.0,
			"-0.014": 0.0,
			"-0.013": 0.0,
			"-0.012": 0.0,
			"-0.011": 0.0,
			"-0.01": 0.0,
			"-0.009": 0.0,
			"-0.008": 0.0912525407391,
			"-0.007": 1.95515910197,
			"-0.006": 5.39434458961,
			"-0.005": 24.0859247113,
			"-0.004": 39.0192654388,
			"-0.003": 39.2266449953,
			"-0.002": 37.5817814505,
			"-0.001": 32.4110529287,
			"0.0": 29.5574668875,
			"0.001": 20.4483138275,
			"0.002": 15.2527202346,
			"0.003": 14.5117884397,
			"0.004": 12.8896091347,
			"0.005": 13.2285079423,
			"0.006": 13.7067131508,
			"0.007": 11.3251905349,
			"0.008": 10.0262325465,
			"0.009": 5.20154004324,
			"0.01": 2.8409252898,
			"0.011": 1.56450722798,
			"0.012": 0.252972282457,
			"0.013": 0.0,
			"0.014": 0.0,
			"0.015": 0.0,
			"0.016": 0.0,
			"0.017": 0.0,
			"0.018": 0.0,
			"0.019": 0.0,
			"0.02": 0.0,
			"0.021": 0.0,
			"0.022": 0.0,
			"0.023": 0.0,
			"0.024": 0.0,
			"0.025": 0.0
		}
	}
}
