{
	 "smiles": "ClC1=NC=NC2=C1C(=CS2)C1=CC=CS1", 
	 "Tm": 384.15, 
	 "num_atms": 20, 
	 "gaussian": { 
		 "optdone": 1, 
		 "sigma_profile": "yes", 
		 "theory": "DFT", 
		 "functional": "B3LYP", 
		 "basiset": "6-31G**", 
		 "properties": { 
			 "R2extent": 4952.0803, 
			 "electric_dipole_moment_norm": 2.72136088015, 
			 "electric_quadrupole_moment_norm": 6.23905119549, 
			 "total_energy": -1750.12171341, 
			 "HOMO_LUMO_gap": 0.16259, 
			 "cosmo_polarized_energy": -8.05, 
			 "cosmo_cavitation_energy": 29.9, 
			 "cosmo_dispersion_energy": -22.76, 
			 "cosmo_repulsion_energy": 1.66, 
			 "cosmo_total_nonelectrostatic_energy": 8.8, 
			 "SMD_solvation_energy": 1.4 
		},
		"coords": [
			{
				"x": 0.114217985,
				"y": -0.8417239259,
				"z": 2.6593004905,
				"element": "Cl" 
			},
			{
				"x": -1.19123088,
				"y": 0.2536292141,
				"z": 2.251452031,
				"element": "C" 
			},
			{
				"x": -1.6190895658,
				"y": 1.0132790859,
				"z": 3.239825465,
				"element": "N" 
			},
			{
				"x": -2.6590337967,
				"y": 1.8297426152,
				"z": 2.9992272122,
				"element": "C" 
			},
			{
				"x": -3.333051862,
				"y": 1.9372781783,
				"z": 1.8587550003,
				"element": "N" 
			},
			{
				"x": -2.8713756014,
				"y": 1.1659009372,
				"z": 0.8761875968,
				"element": "C" 
			},
			{
				"x": -1.756993339,
				"y": 0.2855256667,
				"z": 0.9586003197,
				"element": "C" 
			},
			{
				"x": -1.5098149042,
				"y": -0.401211963,
				"z": -0.2997468675,
				"element": "C" 
			},
			{
				"x": -2.4432018138,
				"y": -0.043925957,
				"z": -1.2364851969,
				"element": "C" 
			},
			{
				"x": -3.6270589104,
				"y": 1.1139566188,
				"z": -0.7017058888,
				"element": "S" 
			},
			{
				"x": -0.4268824969,
				"y": -1.3441674041,
				"z": -0.6210435251,
				"element": "C" 
			},
			{
				"x": 0.9337367698,
				"y": -1.1685058893,
				"z": -0.5518174397,
				"element": "C" 
			},
			{
				"x": 1.6741634408,
				"y": -2.2899664908,
				"z": -1.0266447349,
				"element": "C" 
			},
			{
				"x": 0.873074687,
				"y": -3.3117540524,
				"z": -1.4589904265,
				"element": "C" 
			},
			{
				"x": -0.804481075,
				"y": -2.921067766,
				"z": -1.2845560181,
				"element": "S" 
			},
			{
				"x": -2.9837406088,
				"y": 2.4530010606,
				"z": 3.8280848864,
				"element": "H" 
			},
			{
				"x": -2.474854621,
				"y": -0.3979704954,
				"z": -2.2580649931,
				"element": "H" 
			},
			{
				"x": 1.3898049853,
				"y": -0.2590850792,
				"z": -0.1793569946,
				"element": "H" 
			},
			{
				"x": 2.7571729143,
				"y": -2.3306005826,
				"z": -1.0487467605,
				"element": "H" 
			},
			{
				"x": 1.1670386926,
				"y": -4.2708337711,
				"z": -1.8623741564,
				"element": "H" 
			}
		],
		 "valence_orbital": [ 
			{
				"type": "occ",
				"energy": -0.284,
				"method": "rhf"
			},
			{
				"type": "occ",
				"energy": -0.27526,
				"method": "rhf"
			},
			{
				"type": "occ",
				"energy": -0.26158,
				"method": "rhf"
			},
			{
				"type": "occ",
				"energy": -0.25823,
				"method": "rhf"
			},
			{
				"type": "occ",
				"energy": -0.22781,
				"method": "rhf"
			},
			{
				"type": "unocc",
				"energy": -0.06522,
				"method": "rhf"
			},
			{
				"type": "unocc",
				"energy": -0.0453,
				"method": "rhf"
			},
			{
				"type": "unocc",
				"energy": -0.03059,
				"method": "rhf"
			},
			{
				"type": "unocc",
				"energy": -0.00064,
				"method": "rhf"
			},
			{
				"type": "unocc",
				"energy": 0.01092,
				"method": "rhf"
			}
		],
		"cosmo_sigma_profile": { 
			"-0.025": 0.0,
			"-0.024": 0.0,
			"-0.023": 0.0,
			"-0.022": 0.0,
			"-0.021": 0.0,
			"-0.02": 0.0,
			"-0.019": 0.0,
			"-0.018": 0.0,
			"-0.017": 0.0,
			"-0.016": 0.0,
			"-0.015": 0.0,
			"-0.014": 0.0,
			"-0.013": 0.0,
			"-0.012": 0.0,
			"-0.011": 0.0,
			"-0.01": 0.719738213801,
			"-0.009": 2.93275971283,
			"-0.008": 6.23717558516,
			"-0.007": 6.54084261556,
			"-0.006": 8.83157190545,
			"-0.005": 11.3932244694,
			"-0.004": 13.360467884,
			"-0.003": 16.6061949701,
			"-0.002": 24.4529220909,
			"-0.001": 22.5259012067,
			"0.0": 23.7040552232,
			"0.001": 23.1175705073,
			"0.002": 21.8244523326,
			"0.003": 19.8147204108,
			"0.004": 18.4476105563,
			"0.005": 11.3534414683,
			"0.006": 3.57038490331,
			"0.007": 2.54631007578,
			"0.008": 2.55518923971,
			"0.009": 1.87481411441,
			"0.01": 1.87246283195,
			"0.011": 1.57261430012,
			"0.012": 2.07034722178,
			"0.013": 1.19320800193,
			"0.014": 0.12851382349,
			"0.015": 0.0,
			"0.016": 0.0,
			"0.017": 0.0,
			"0.018": 0.0,
			"0.019": 0.0,
			"0.02": 0.0,
			"0.021": 0.0,
			"0.022": 0.0,
			"0.023": 0.0,
			"0.024": 0.0,
			"0.025": 0.0
		}
	}
}
