{
	 "smiles": "CCC1=CC(=O)NC(=N1)C1=CC(Cl)=NC=C1", 
	 "Tm": 491.15, 
	 "num_atms": 26, 
	 "gaussian": { 
		 "optdone": 1, 
		 "sigma_profile": "yes", 
		 "theory": "DFT", 
		 "functional": "B3LYP", 
		 "basiset": "6-31G**", 
		 "properties": { 
			 "R2extent": 7675.3535, 
			 "electric_dipole_moment_norm": 1.04856695065, 
			 "electric_quadrupole_moment_norm": 30.2005872579, 
			 "total_energy": -1124.89009023, 
			 "HOMO_LUMO_gap": 0.15865, 
			 "cosmo_polarized_energy": -16.25, 
			 "cosmo_cavitation_energy": 32.56, 
			 "cosmo_dispersion_energy": -24.02, 
			 "cosmo_repulsion_energy": 1.88, 
			 "cosmo_total_nonelectrostatic_energy": 10.42, 
			 "SMD_solvation_energy": 3.42 
		},
		"coords": [
			{
				"x": 0.8207739921,
				"y": 1.6163607851,
				"z": 3.0567350083,
				"element": "C" 
			},
			{
				"x": -0.4738062349,
				"y": 1.2347697226,
				"z": 2.3398529797,
				"element": "C" 
			},
			{
				"x": -0.3648288559,
				"y": 0.9417991051,
				"z": 0.8622681422,
				"element": "C" 
			},
			{
				"x": 0.8039131224,
				"y": 1.0087545455,
				"z": 0.1547611108,
				"element": "C" 
			},
			{
				"x": 0.8390624163,
				"y": 0.6977586844,
				"z": -1.2584055571,
				"element": "C" 
			},
			{
				"x": 1.8046158086,
				"y": 0.6949486928,
				"z": -2.0081173897,
				"element": "O" 
			},
			{
				"x": -0.4437629204,
				"y": 0.3544397766,
				"z": -1.7577532738,
				"element": "N" 
			},
			{
				"x": -1.5753350042,
				"y": 0.3244167186,
				"z": -0.9976419856,
				"element": "C" 
			},
			{
				"x": -1.5697808432,
				"y": 0.5995565818,
				"z": 0.2775201605,
				"element": "N" 
			},
			{
				"x": -2.8600114567,
				"y": -0.0374131009,
				"z": -1.6542009529,
				"element": "C" 
			},
			{
				"x": -3.9366907101,
				"y": -0.4308663759,
				"z": -0.8534565978,
				"element": "C" 
			},
			{
				"x": -5.1293937652,
				"y": -0.769831787,
				"z": -1.4916627365,
				"element": "C" 
			},
			{
				"x": -6.4914920459,
				"y": -1.2781990076,
				"z": -0.5021397296,
				"element": "Cl" 
			},
			{
				"x": -5.3250889684,
				"y": -0.7430011021,
				"z": -2.7998653669,
				"element": "N" 
			},
			{
				"x": -4.292345727,
				"y": -0.3529063502,
				"z": -3.558364167,
				"element": "C" 
			},
			{
				"x": -3.0496794026,
				"y": 0.0068893864,
				"z": -3.043475768,
				"element": "C" 
			},
			{
				"x": 1.262410069,
				"y": 2.5258343144,
				"z": 2.6366079098,
				"element": "H" 
			},
			{
				"x": 0.6238270545,
				"y": 1.8032515871,
				"z": 4.1161055372,
				"element": "H" 
			},
			{
				"x": 1.5678515754,
				"y": 0.8184576962,
				"z": 2.994238512,
				"element": "H" 
			},
			{
				"x": -0.9250857709,
				"y": 0.3509557064,
				"z": 2.8098410996,
				"element": "H" 
			},
			{
				"x": -1.2235796508,
				"y": 2.0284275772,
				"z": 2.4555419157,
				"element": "H" 
			},
			{
				"x": 1.7446485476,
				"y": 1.2802350861,
				"z": 0.6153040111,
				"element": "H" 
			},
			{
				"x": -0.4561497271,
				"y": 0.0838885807,
				"z": -2.733399309,
				"element": "H" 
			},
			{
				"x": -3.8315105151,
				"y": -0.4641148969,
				"z": 0.2227332789,
				"element": "H" 
			},
			{
				"x": -4.4732118192,
				"y": -0.3242085,
				"z": -4.6302173011,
				"element": "H" 
			},
			{
				"x": -2.2737491682,
				"y": 0.3412965735,
				"z": -3.7241095307,
				"element": "H" 
			}
		],
		 "valence_orbital": [ 
			{
				"type": "occ",
				"energy": -0.2938,
				"method": "rhf"
			},
			{
				"type": "occ",
				"energy": -0.28931,
				"method": "rhf"
			},
			{
				"type": "occ",
				"energy": -0.27396,
				"method": "rhf"
			},
			{
				"type": "occ",
				"energy": -0.2653,
				"method": "rhf"
			},
			{
				"type": "occ",
				"energy": -0.24589,
				"method": "rhf"
			},
			{
				"type": "unocc",
				"energy": -0.08724,
				"method": "rhf"
			},
			{
				"type": "unocc",
				"energy": -0.04164,
				"method": "rhf"
			},
			{
				"type": "unocc",
				"energy": -0.02719,
				"method": "rhf"
			},
			{
				"type": "unocc",
				"energy": 0.00883,
				"method": "rhf"
			},
			{
				"type": "unocc",
				"energy": 0.02762,
				"method": "rhf"
			}
		],
		"cosmo_sigma_profile": { 
			"-0.025": 0.0,
			"-0.024": 0.0,
			"-0.023": 0.0,
			"-0.022": 0.0,
			"-0.021": 0.0,
			"-0.02": 0.0,
			"-0.019": 0.0,
			"-0.018": 0.0,
			"-0.017": 0.69830713495,
			"-0.016": 0.907312811104,
			"-0.015": 1.16933673554,
			"-0.014": 1.42749835846,
			"-0.013": 0.75999034521,
			"-0.012": 1.21723326053,
			"-0.011": 2.03980395164,
			"-0.01": 1.73377214476,
			"-0.009": 1.79708797196,
			"-0.008": 3.76473393114,
			"-0.007": 5.87356575278,
			"-0.006": 5.62277613134,
			"-0.005": 9.12175525933,
			"-0.004": 17.9822958931,
			"-0.003": 22.103953477,
			"-0.002": 29.6945484235,
			"-0.001": 33.1942852632,
			"0.0": 27.53690598,
			"0.001": 18.2581703964,
			"0.002": 11.8167454579,
			"0.003": 10.353436154,
			"0.004": 13.6649291817,
			"0.005": 7.16985051078,
			"0.006": 4.2205477775,
			"0.007": 4.25831070879,
			"0.008": 3.64805127649,
			"0.009": 2.74592467754,
			"0.01": 2.75829069426,
			"0.011": 3.13783771259,
			"0.012": 3.10946651256,
			"0.013": 6.37841412483,
			"0.014": 4.34136272478,
			"0.015": 0.501821902485,
			"0.016": 0.0,
			"0.017": 0.0,
			"0.018": 0.0,
			"0.019": 0.0,
			"0.02": 0.0,
			"0.021": 0.0,
			"0.022": 0.0,
			"0.023": 0.0,
			"0.024": 0.0,
			"0.025": 0.0
		}
	}
}
