{
	 "smiles": "CCOC(=O)C1CCN(CC1)C(=O)C1=CC=CC=C1", 
	 "Tm": 358.15, 
	 "num_atms": 38, 
	 "gaussian": { 
		 "optdone": 1, 
		 "sigma_profile": "yes", 
		 "theory": "DFT", 
		 "functional": "B3LYP", 
		 "basiset": "6-31G**", 
		 "properties": { 
			 "R2extent": 7647.075, 
			 "electric_dipole_moment_norm": 3.04551135279, 
			 "electric_quadrupole_moment_norm": 19.7040111663, 
			 "total_energy": -863.508078441, 
			 "HOMO_LUMO_gap": 0.20322, 
			 "cosmo_polarized_energy": -13.62, 
			 "cosmo_cavitation_energy": 39.73, 
			 "cosmo_dispersion_energy": -27.91, 
			 "cosmo_repulsion_energy": 2.17, 
			 "cosmo_total_nonelectrostatic_energy": 13.99, 
			 "SMD_solvation_energy": 7.02 
		},
		"coords": [
			{
				"x": -4.6705434899,
				"y": -1.6491390824,
				"z": 3.2535492826,
				"element": "C" 
			},
			{
				"x": -3.1647796917,
				"y": -1.4643956562,
				"z": 3.3636774099,
				"element": "C" 
			},
			{
				"x": -2.5081064614,
				"y": -1.734396448,
				"z": 2.1004086459,
				"element": "O" 
			},
			{
				"x": -2.4264017181,
				"y": -0.7087938004,
				"z": 1.2234639041,
				"element": "C" 
			},
			{
				"x": -2.8736041563,
				"y": 0.3996070289,
				"z": 1.4429049076,
				"element": "O" 
			},
			{
				"x": -1.7115608791,
				"y": -1.1430220771,
				"z": -0.0525542711,
				"element": "C" 
			},
			{
				"x": -1.7598389777,
				"y": -0.0463945233,
				"z": -1.1311927108,
				"element": "C" 
			},
			{
				"x": -0.8004210646,
				"y": 1.1223279573,
				"z": -0.8406471111,
				"element": "C" 
			},
			{
				"x": 0.5619366635,
				"y": 0.6414426598,
				"z": -0.5788875385,
				"element": "N" 
			},
			{
				"x": 0.6385811422,
				"y": -0.3367257932,
				"z": 0.5105809461,
				"element": "C" 
			},
			{
				"x": -0.2463406348,
				"y": -1.5579391211,
				"z": 0.2318590871,
				"element": "C" 
			},
			{
				"x": 1.5982117038,
				"y": 0.6669619347,
				"z": -1.4896015942,
				"element": "C" 
			},
			{
				"x": 2.5375016215,
				"y": -0.126569933,
				"z": -1.4318316492,
				"element": "O" 
			},
			{
				"x": 1.6011212328,
				"y": 1.7432328201,
				"z": -2.5437351866,
				"element": "C" 
			},
			{
				"x": 1.2942080393,
				"y": 3.0822600884,
				"z": -2.2629393105,
				"element": "C" 
			},
			{
				"x": 1.4132352829,
				"y": 4.055709006,
				"z": -3.2559123511,
				"element": "C" 
			},
			{
				"x": 1.8313171558,
				"y": 3.6991813679,
				"z": -4.5393020076,
				"element": "C" 
			},
			{
				"x": 2.1511924017,
				"y": 2.3685485461,
				"z": -4.8218316854,
				"element": "C" 
			},
			{
				"x": 2.0513677418,
				"y": 1.3994449021,
				"z": -3.8256326171,
				"element": "C" 
			},
			{
				"x": -5.0991744671,
				"y": -0.9113552515,
				"z": 2.5708734936,
				"element": "H" 
			},
			{
				"x": -4.9149963876,
				"y": -2.6522997565,
				"z": 2.8920205899,
				"element": "H" 
			},
			{
				"x": -5.1338745543,
				"y": -1.5160857965,
				"z": 4.2368406901,
				"element": "H" 
			},
			{
				"x": -2.914419921,
				"y": -0.449342572,
				"z": 3.6808146975,
				"element": "H" 
			},
			{
				"x": -2.7225233581,
				"y": -2.1825389922,
				"z": 4.0582894054,
				"element": "H" 
			},
			{
				"x": -2.2515752117,
				"y": -2.0305063761,
				"z": -0.4062140799,
				"element": "H" 
			},
			{
				"x": -1.485784044,
				"y": -0.4974248981,
				"z": -2.0925732261,
				"element": "H" 
			},
			{
				"x": -2.7768915646,
				"y": 0.3463798562,
				"z": -1.2272388625,
				"element": "H" 
			},
			{
				"x": -0.7888665268,
				"y": 1.8046596209,
				"z": -1.6889481716,
				"element": "H" 
			},
			{
				"x": -1.1559751501,
				"y": 1.6750159101,
				"z": 0.0354766383,
				"element": "H" 
			},
			{
				"x": 1.6812036449,
				"y": -0.6345274288,
				"z": 0.6163992265,
				"element": "H" 
			},
			{
				"x": 0.3188046407,
				"y": 0.1634122214,
				"z": 1.4352062735,
				"element": "H" 
			},
			{
				"x": 0.1491915919,
				"y": -2.0795694691,
				"z": -0.6466817362,
				"element": "H" 
			},
			{
				"x": -0.2082742457,
				"y": -2.2547319012,
				"z": 1.0743703958,
				"element": "H" 
			},
			{
				"x": 0.9848356703,
				"y": 3.3654858362,
				"z": -1.2612462093,
				"element": "H" 
			},
			{
				"x": 1.1845321148,
				"y": 5.092269113,
				"z": -3.0252543787,
				"element": "H" 
			},
			{
				"x": 1.9174605886,
				"y": 4.4564105324,
				"z": -5.3134205475,
				"element": "H" 
			},
			{
				"x": 2.4885754974,
				"y": 2.0892812663,
				"z": -5.8158811804,
				"element": "H" 
			},
			{
				"x": 2.3299757704,
				"y": 0.3690282089,
				"z": -4.0208091684,
				"element": "H" 
			}
		],
		 "valence_orbital": [ 
			{
				"type": "occ",
				"energy": -0.27379,
				"method": "rhf"
			},
			{
				"type": "occ",
				"energy": -0.26009,
				"method": "rhf"
			},
			{
				"type": "occ",
				"energy": -0.25292,
				"method": "rhf"
			},
			{
				"type": "occ",
				"energy": -0.23846,
				"method": "rhf"
			},
			{
				"type": "occ",
				"energy": -0.22811,
				"method": "rhf"
			},
			{
				"type": "unocc",
				"energy": -0.02489,
				"method": "rhf"
			},
			{
				"type": "unocc",
				"energy": -0.00383,
				"method": "rhf"
			},
			{
				"type": "unocc",
				"energy": 0.00409,
				"method": "rhf"
			},
			{
				"type": "unocc",
				"energy": 0.05305,
				"method": "rhf"
			},
			{
				"type": "unocc",
				"energy": 0.0885,
				"method": "rhf"
			}
		],
		"cosmo_sigma_profile": { 
			"-0.025": 0.0,
			"-0.024": 0.0,
			"-0.023": 0.0,
			"-0.022": 0.0,
			"-0.021": 0.0,
			"-0.02": 0.0,
			"-0.019": 0.0,
			"-0.018": 0.0,
			"-0.017": 0.0,
			"-0.016": 0.0,
			"-0.015": 0.0,
			"-0.014": 0.0,
			"-0.013": 0.0,
			"-0.012": 0.0,
			"-0.011": 0.0,
			"-0.01": 0.0,
			"-0.009": 0.0,
			"-0.008": 0.0,
			"-0.007": 0.351577135543,
			"-0.006": 9.63929497178,
			"-0.005": 20.0891862382,
			"-0.004": 38.6951417826,
			"-0.003": 45.8454423672,
			"-0.002": 36.7713839607,
			"-0.001": 30.7889388197,
			"0.0": 24.00878775,
			"0.001": 16.2189551712,
			"0.002": 14.740635014,
			"0.003": 14.0604557343,
			"0.004": 13.5651895394,
			"0.005": 12.4230463271,
			"0.006": 4.95449062197,
			"0.007": 3.1875718559,
			"0.008": 3.98754909223,
			"0.009": 3.84219330947,
			"0.01": 3.06622365846,
			"0.011": 3.18691463096,
			"0.012": 4.72050329296,
			"0.013": 3.36261293118,
			"0.014": 4.28952517298,
			"0.015": 0.716134401236,
			"0.016": 0.0,
			"0.017": 0.0,
			"0.018": 0.0,
			"0.019": 0.0,
			"0.02": 0.0,
			"0.021": 0.0,
			"0.022": 0.0,
			"0.023": 0.0,
			"0.024": 0.0,
			"0.025": 0.0
		}
	}
}
