{
	 "smiles": "ClC1=C(Cl)C=C(CS(Cl)(=O)=O)C=C1", 
	 "Tm": 339.65, 
	 "num_atms": 18, 
	 "gaussian": { 
		 "optdone": 1, 
		 "sigma_profile": "yes", 
		 "theory": "DFT", 
		 "functional": "B3LYP", 
		 "basiset": "6-31G**", 
		 "properties": { 
			 "R2extent": 5481.3553, 
			 "electric_dipole_moment_norm": 3.84497191277, 
			 "electric_quadrupole_moment_norm": 14.7487381148, 
			 "total_energy": -2198.90378826, 
			 "HOMO_LUMO_gap": 0.17068, 
			 "cosmo_polarized_energy": -12.51, 
			 "cosmo_cavitation_energy": 29.94, 
			 "cosmo_dispersion_energy": -22.14, 
			 "cosmo_repulsion_energy": 1.72, 
			 "cosmo_total_nonelectrostatic_energy": 9.52, 
			 "SMD_solvation_energy": 3.07 
		},
		"coords": [
			{
				"x": 0.1373518891,
				"y": -1.8789497296,
				"z": -3.2186715457,
				"element": "Cl" 
			},
			{
				"x": -0.1143971302,
				"y": -0.5897860966,
				"z": -2.0753880123,
				"element": "C" 
			},
			{
				"x": -1.116465623,
				"y": -0.6644104337,
				"z": -1.0963342424,
				"element": "C" 
			},
			{
				"x": -2.1627602537,
				"y": -2.0521676462,
				"z": -0.9665727424,
				"element": "Cl" 
			},
			{
				"x": -1.2894986696,
				"y": 0.3914494868,
				"z": -0.201217457,
				"element": "C" 
			},
			{
				"x": -0.4810682116,
				"y": 1.529925611,
				"z": -0.2785234138,
				"element": "C" 
			},
			{
				"x": -0.6749095614,
				"y": 2.6560830706,
				"z": 0.6936511794,
				"element": "C" 
			},
			{
				"x": 0.4143957203,
				"y": 2.4329422286,
				"z": 2.1633992584,
				"element": "S" 
			},
			{
				"x": -0.1514766384,
				"y": 4.1830796841,
				"z": 3.2537647899,
				"element": "Cl" 
			},
			{
				"x": 1.8068722226,
				"y": 2.6054924352,
				"z": 1.7688677184,
				"element": "O" 
			},
			{
				"x": -0.0338012901,
				"y": 1.2813964642,
				"z": 2.9354685589,
				"element": "O" 
			},
			{
				"x": 0.5255360269,
				"y": 1.5924204998,
				"z": -1.2509798714,
				"element": "C" 
			},
			{
				"x": 0.7036526808,
				"y": 0.5415551215,
				"z": -2.1433919029,
				"element": "C" 
			},
			{
				"x": -2.0618828813,
				"y": 0.3145303112,
				"z": 0.5562848119,
				"element": "H" 
			},
			{
				"x": -0.3927481467,
				"y": 3.6288272196,
				"z": 0.2864040807,
				"element": "H" 
			},
			{
				"x": -1.6861619682,
				"y": 2.7059372967,
				"z": 1.1012443007,
				"element": "H" 
			},
			{
				"x": 1.1732231719,
				"y": 2.4613388227,
				"z": -1.3094303087,
				"element": "H" 
			},
			{
				"x": 1.4773386625,
				"y": 0.5862356542,
				"z": -2.9013752018,
				"element": "H" 
			}
		],
		 "valence_orbital": [ 
			{
				"type": "occ",
				"energy": -0.33661,
				"method": "rhf"
			},
			{
				"type": "occ",
				"energy": -0.32379,
				"method": "rhf"
			},
			{
				"type": "occ",
				"energy": -0.32219,
				"method": "rhf"
			},
			{
				"type": "occ",
				"energy": -0.28268,
				"method": "rhf"
			},
			{
				"type": "occ",
				"energy": -0.26837,
				"method": "rhf"
			},
			{
				"type": "unocc",
				"energy": -0.09769,
				"method": "rhf"
			},
			{
				"type": "unocc",
				"energy": -0.04526,
				"method": "rhf"
			},
			{
				"type": "unocc",
				"energy": -0.04312,
				"method": "rhf"
			},
			{
				"type": "unocc",
				"energy": -0.01273,
				"method": "rhf"
			},
			{
				"type": "unocc",
				"energy": 0.02819,
				"method": "rhf"
			}
		],
		"cosmo_sigma_profile": { 
			"-0.025": 0.0,
			"-0.024": 0.0,
			"-0.023": 0.0,
			"-0.022": 0.0,
			"-0.021": 0.0,
			"-0.02": 0.0,
			"-0.019": 0.0,
			"-0.018": 0.0,
			"-0.017": 0.0,
			"-0.016": 0.0,
			"-0.015": 0.0,
			"-0.014": 0.0,
			"-0.013": 0.0,
			"-0.012": 0.154585279255,
			"-0.011": 3.90373594716,
			"-0.01": 6.09600708687,
			"-0.009": 5.40012380266,
			"-0.008": 8.24143887911,
			"-0.007": 9.52543244187,
			"-0.006": 7.00396990853,
			"-0.005": 5.8948244444,
			"-0.004": 6.48206684772,
			"-0.003": 9.89293936041,
			"-0.002": 11.9937926267,
			"-0.001": 20.5371296844,
			"0.0": 27.3420889272,
			"0.001": 22.4778205529,
			"0.002": 22.2738734838,
			"0.003": 29.0592896063,
			"0.004": 21.0218945379,
			"0.005": 4.92225201657,
			"0.006": 3.90542053422,
			"0.007": 5.18925457498,
			"0.008": 10.0626519083,
			"0.009": 5.9104491975,
			"0.01": 0.0580331892598,
			"0.011": 0.0,
			"0.012": 0.0,
			"0.013": 0.0,
			"0.014": 0.0,
			"0.015": 0.0,
			"0.016": 0.0,
			"0.017": 0.0,
			"0.018": 0.0,
			"0.019": 0.0,
			"0.02": 0.0,
			"0.021": 0.0,
			"0.022": 0.0,
			"0.023": 0.0,
			"0.024": 0.0,
			"0.025": 0.0
		}
	}
}
