{
	 "smiles": "CCC1=CC(=C(O)C(=C1)C(C)(C)C)C(C)(C)C", 
	 "Tm": 316.65, 
	 "num_atms": 43, 
	 "gaussian": { 
		 "optdone": 1, 
		 "sigma_profile": "yes", 
		 "theory": "DFT", 
		 "functional": "B3LYP", 
		 "basiset": "6-31G**", 
		 "properties": { 
			 "R2extent": 5048.5799, 
			 "electric_dipole_moment_norm": 1.88328472622, 
			 "electric_quadrupole_moment_norm": 7.47100454223, 
			 "total_energy": -700.624657375, 
			 "HOMO_LUMO_gap": 0.21229, 
			 "cosmo_polarized_energy": -5.57, 
			 "cosmo_cavitation_energy": 40.52, 
			 "cosmo_dispersion_energy": -27.67, 
			 "cosmo_repulsion_energy": 2.16, 
			 "cosmo_total_nonelectrostatic_energy": 15.02, 
			 "SMD_solvation_energy": 7.21 
		},
		"coords": [
			{
				"x": 2.8145831925,
				"y": -0.1667137119,
				"z": 3.4737805124,
				"element": "C" 
			},
			{
				"x": 2.6448558969,
				"y": 0.6548317752,
				"z": 2.1832050109,
				"element": "C" 
			},
			{
				"x": 1.5727760013,
				"y": 0.1054364751,
				"z": 1.26457146,
				"element": "C" 
			},
			{
				"x": 1.8727661651,
				"y": -0.8791090436,
				"z": 0.3201700838,
				"element": "C" 
			},
			{
				"x": 0.9081292308,
				"y": -1.4428678132,
				"z": -0.5209033562,
				"element": "C" 
			},
			{
				"x": -0.4190645275,
				"y": -0.9706179351,
				"z": -0.3812960951,
				"element": "C" 
			},
			{
				"x": -1.3537658476,
				"y": -1.5378943265,
				"z": -1.2213188624,
				"element": "O" 
			},
			{
				"x": -0.7745342562,
				"y": 0.0278096672,
				"z": 0.5569860392,
				"element": "C" 
			},
			{
				"x": 0.2519689725,
				"y": 0.5404457023,
				"z": 1.3620160785,
				"element": "C" 
			},
			{
				"x": -2.2274366112,
				"y": 0.5484995958,
				"z": 0.7003271512,
				"element": "C" 
			},
			{
				"x": -2.3478884582,
				"y": 1.6353334441,
				"z": 1.7902197321,
				"element": "C" 
			},
			{
				"x": -2.7085880211,
				"y": 1.2116884316,
				"z": -0.6194894439,
				"element": "C" 
			},
			{
				"x": -3.1833332065,
				"y": -0.5972739616,
				"z": 1.1327667144,
				"element": "C" 
			},
			{
				"x": 1.2845502192,
				"y": -2.5287513611,
				"z": -1.5561602949,
				"element": "C" 
			},
			{
				"x": 0.9727517402,
				"y": -2.0363659362,
				"z": -2.9915610913,
				"element": "C" 
			},
			{
				"x": 0.5141354507,
				"y": -3.840757851,
				"z": -1.264150373,
				"element": "C" 
			},
			{
				"x": 2.7894741327,
				"y": -2.8677668611,
				"z": -1.5105237899,
				"element": "C" 
			},
			{
				"x": 1.8827799082,
				"y": -0.1892212662,
				"z": 4.0486260505,
				"element": "H" 
			},
			{
				"x": 3.5977382274,
				"y": 0.256528149,
				"z": 4.1123445099,
				"element": "H" 
			},
			{
				"x": 3.0859030223,
				"y": -1.2026773166,
				"z": 3.2453369452,
				"element": "H" 
			},
			{
				"x": 3.6030283264,
				"y": 0.6861949523,
				"z": 1.6499015803,
				"element": "H" 
			},
			{
				"x": 2.4051461437,
				"y": 1.6923227382,
				"z": 2.4470114067,
				"element": "H" 
			},
			{
				"x": 2.9020698326,
				"y": -1.2098006138,
				"z": 0.2429341153,
				"element": "H" 
			},
			{
				"x": -2.2183366939,
				"y": -1.1550957256,
				"z": -1.0475581115,
				"element": "H" 
			},
			{
				"x": 0.0241814409,
				"y": 1.3088716966,
				"z": 2.0914994077,
				"element": "H" 
			},
			{
				"x": -1.7334383942,
				"y": 2.5118410916,
				"z": 1.5637191855,
				"element": "H" 
			},
			{
				"x": -3.3885754848,
				"y": 1.9695016189,
				"z": 1.8535368522,
				"element": "H" 
			},
			{
				"x": -2.0617752136,
				"y": 1.2589306665,
				"z": 2.7769356458,
				"element": "H" 
			},
			{
				"x": -2.6778698131,
				"y": 0.5553574059,
				"z": -1.4946044336,
				"element": "H" 
			},
			{
				"x": -2.0769952097,
				"y": 2.0731828199,
				"z": -0.8570063867,
				"element": "H" 
			},
			{
				"x": -3.7400057512,
				"y": 1.5651808294,
				"z": -0.5122858724,
				"element": "H" 
			},
			{
				"x": -3.2079793537,
				"y": -1.4513866687,
				"z": 0.4488860979,
				"element": "H" 
			},
			{
				"x": -2.8788153371,
				"y": -0.9909220203,
				"z": 2.1073484326,
				"element": "H" 
			},
			{
				"x": -4.2087116012,
				"y": -0.2220886955,
				"z": 1.2224996519,
				"element": "H" 
			},
			{
				"x": 1.2584334191,
				"y": -2.8044824169,
				"z": -3.7198138426,
				"element": "H" 
			},
			{
				"x": -0.0867443726,
				"y": -1.8166973088,
				"z": -3.1233533909,
				"element": "H" 
			},
			{
				"x": 1.5441054485,
				"y": -1.1298069772,
				"z": -3.2197197632,
				"element": "H" 
			},
			{
				"x": 0.7601090202,
				"y": -4.2168929931,
				"z": -0.2649576284,
				"element": "H" 
			},
			{
				"x": 0.7989381251,
				"y": -4.6103381654,
				"z": -1.9912040207,
				"element": "H" 
			},
			{
				"x": -0.5650318535,
				"y": -3.6983486014,
				"z": -1.3212707621,
				"element": "H" 
			},
			{
				"x": 3.0052659634,
				"y": -3.6386344943,
				"z": -2.2573826938,
				"element": "H" 
			},
			{
				"x": 3.0954100119,
				"y": -3.2613873675,
				"z": -0.5355160805,
				"element": "H" 
			},
			{
				"x": 3.4160901152,
				"y": -2.0006576264,
				"z": -1.7442463712,
				"element": "H" 
			}
		],
		 "valence_orbital": [ 
			{
				"type": "occ",
				"energy": -0.30709,
				"method": "rhf"
			},
			{
				"type": "occ",
				"energy": -0.30368,
				"method": "rhf"
			},
			{
				"type": "occ",
				"energy": -0.29687,
				"method": "rhf"
			},
			{
				"type": "occ",
				"energy": -0.23187,
				"method": "rhf"
			},
			{
				"type": "occ",
				"energy": -0.20341,
				"method": "rhf"
			},
			{
				"type": "unocc",
				"energy": 0.00888,
				"method": "rhf"
			},
			{
				"type": "unocc",
				"energy": 0.01794,
				"method": "rhf"
			},
			{
				"type": "unocc",
				"energy": 0.06478,
				"method": "rhf"
			},
			{
				"type": "unocc",
				"energy": 0.09584,
				"method": "rhf"
			},
			{
				"type": "unocc",
				"energy": 0.10226,
				"method": "rhf"
			}
		],
		"cosmo_sigma_profile": { 
			"-0.025": 0.0,
			"-0.024": 0.0,
			"-0.023": 0.0,
			"-0.022": 0.0,
			"-0.021": 0.0,
			"-0.02": 0.0,
			"-0.019": 0.0,
			"-0.018": 0.0,
			"-0.017": 0.0,
			"-0.016": 0.0,
			"-0.015": 0.0,
			"-0.014": 0.366657181207,
			"-0.013": 0.513685601427,
			"-0.012": 0.738858070403,
			"-0.011": 0.378841720223,
			"-0.01": 1.00286437481,
			"-0.009": 0.688522593158,
			"-0.008": 1.04312385402,
			"-0.007": 0.766019100034,
			"-0.006": 0.744970943739,
			"-0.005": 1.74410588996,
			"-0.004": 5.26133027031,
			"-0.003": 33.8051622206,
			"-0.002": 48.7822789282,
			"-0.001": 44.5742768804,
			"0.0": 48.1479513137,
			"0.001": 46.5080064404,
			"0.002": 31.723682877,
			"0.003": 11.6494104383,
			"0.004": 10.1391880681,
			"0.005": 10.3579386421,
			"0.006": 7.95478691545,
			"0.007": 6.00094821646,
			"0.008": 0.635822377874,
			"0.009": 0.0,
			"0.01": 0.0,
			"0.011": 0.0,
			"0.012": 0.0,
			"0.013": 0.0,
			"0.014": 0.0,
			"0.015": 0.0,
			"0.016": 0.0,
			"0.017": 0.0,
			"0.018": 0.0,
			"0.019": 0.0,
			"0.02": 0.0,
			"0.021": 0.0,
			"0.022": 0.0,
			"0.023": 0.0,
			"0.024": 0.0,
			"0.025": 0.0
		}
	}
}
