{
	 "smiles": "BrC1=NC=CC=N1", 
	 "Tm": 328.65, 
	 "num_atms": 10, 
	 "gaussian": { 
		 "optdone": 1, 
		 "sigma_profile": "yes", 
		 "theory": "DFT", 
		 "functional": "B3LYP", 
		 "basiset": "6-31G**", 
		 "properties": { 
			 "R2extent": 2781.1532, 
			 "electric_dipole_moment_norm": 3.78925095632, 
			 "electric_quadrupole_moment_norm": 5.33108958375, 
			 "total_energy": -2835.12365318, 
			 "HOMO_LUMO_gap": 0.20734, 
			 "cosmo_polarized_energy": -8.36, 
			 "cosmo_cavitation_energy": 16.9, 
			 "cosmo_dispersion_energy": -13.35, 
			 "cosmo_repulsion_energy": 1.13, 
			 "cosmo_total_nonelectrostatic_energy": 4.68, 
			 "SMD_solvation_energy": -0.91 
		},
		"coords": [
			{
				"x": 2.2605570951,
				"y": -1.5139843037,
				"z": 3.1106012216,
				"element": "Br" 
			},
			{
				"x": 0.9644992374,
				"y": -0.6540103092,
				"z": 1.9963595099,
				"element": "C" 
			},
			{
				"x": 1.2226435192,
				"y": -0.6681124833,
				"z": 0.6940774162,
				"element": "N" 
			},
			{
				"x": 0.3085930244,
				"y": -0.0626501914,
				"z": -0.07587546,
				"element": "C" 
			},
			{
				"x": -0.8319088205,
				"y": 0.539285516,
				"z": 0.4515395347,
				"element": "C" 
			},
			{
				"x": -0.9756174524,
				"y": 0.4792680226,
				"z": 1.8360952277,
				"element": "C" 
			},
			{
				"x": -0.0752493828,
				"y": -0.1204168767,
				"z": 2.6264204911,
				"element": "N" 
			},
			{
				"x": 0.506002761,
				"y": -0.0659300032,
				"z": -1.1458508841,
				"element": "H" 
			},
			{
				"x": -1.5659539467,
				"y": 1.0267896405,
				"z": -0.1796645559,
				"element": "H" 
			},
			{
				"x": -1.8338660347,
				"y": 0.9214609884,
				"z": 2.3377974988,
				"element": "H" 
			}
		],
		 "valence_orbital": [ 
			{
				"type": "occ",
				"energy": -0.33054,
				"method": "rhf"
			},
			{
				"type": "occ",
				"energy": -0.32128,
				"method": "rhf"
			},
			{
				"type": "occ",
				"energy": -0.29173,
				"method": "rhf"
			},
			{
				"type": "occ",
				"energy": -0.27071,
				"method": "rhf"
			},
			{
				"type": "occ",
				"energy": -0.26604,
				"method": "rhf"
			},
			{
				"type": "unocc",
				"energy": -0.0587,
				"method": "rhf"
			},
			{
				"type": "unocc",
				"energy": -0.04355,
				"method": "rhf"
			},
			{
				"type": "unocc",
				"energy": 0.01098,
				"method": "rhf"
			},
			{
				"type": "unocc",
				"energy": 0.09143,
				"method": "rhf"
			},
			{
				"type": "unocc",
				"energy": 0.11109,
				"method": "rhf"
			}
		],
		"cosmo_sigma_profile": { 
			"-0.025": 0.0,
			"-0.024": 0.0,
			"-0.023": 0.0,
			"-0.022": 0.0,
			"-0.021": 0.0,
			"-0.02": 0.0,
			"-0.019": 0.0,
			"-0.018": 0.0,
			"-0.017": 0.0,
			"-0.016": 0.0,
			"-0.015": 0.0,
			"-0.014": 0.0,
			"-0.013": 0.0,
			"-0.012": 0.0,
			"-0.011": 0.0,
			"-0.01": 0.0,
			"-0.009": 3.60720579038,
			"-0.008": 8.80499756699,
			"-0.007": 7.53900023975,
			"-0.006": 4.99532156755,
			"-0.005": 5.85350789073,
			"-0.004": 6.2149019171,
			"-0.003": 8.83124741398,
			"-0.002": 12.2285681458,
			"-0.001": 14.1728575972,
			"0.0": 7.80437568688,
			"0.001": 6.42217735667,
			"0.002": 7.30726569028,
			"0.003": 8.29251352899,
			"0.004": 12.0441812676,
			"0.005": 6.21666193979,
			"0.006": 3.86974603071,
			"0.007": 3.20664612702,
			"0.008": 3.05298396289,
			"0.009": 2.32433715873,
			"0.01": 1.81708630831,
			"0.011": 1.68643126831,
			"0.012": 1.94000609388,
			"0.013": 1.67752673273,
			"0.014": 0.398174118631,
			"0.015": 0.0,
			"0.016": 0.0,
			"0.017": 0.0,
			"0.018": 0.0,
			"0.019": 0.0,
			"0.02": 0.0,
			"0.021": 0.0,
			"0.022": 0.0,
			"0.023": 0.0,
			"0.024": 0.0,
			"0.025": 0.0
		}
	}
}
