{
	 "smiles": "ClC1=CC=C(C=NNC2=NC=NC3=C2C=NN3C2=CC=CC=C2)C=C1", 
	 "Tm": 554.15, 
	 "num_atms": 38, 
	 "gaussian": { 
		 "optdone": 1, 
		 "sigma_profile": "yes", 
		 "theory": "DFT", 
		 "functional": "B3LYP", 
		 "basiset": "6-31G**", 
		 "properties": { 
			 "R2extent": 19131.8915, 
			 "electric_dipole_moment_norm": 1.49295201865, 
			 "electric_quadrupole_moment_norm": 16.6865272388, 
			 "total_energy": -1482.41136323, 
			 "HOMO_LUMO_gap": 0.14956, 
			 "cosmo_polarized_energy": -13.63, 
			 "cosmo_cavitation_energy": 45.59, 
			 "cosmo_dispersion_energy": -33.86, 
			 "cosmo_repulsion_energy": 2.5, 
			 "cosmo_total_nonelectrostatic_energy": 14.23, 
			 "SMD_solvation_energy": 4.8 
		},
		"coords": [
			{
				"x": 4.5116336047,
				"y": -7.555149453,
				"z": -0.552292305,
				"element": "Cl" 
			},
			{
				"x": 3.551463606,
				"y": -6.0915165961,
				"z": -0.700007058,
				"element": "C" 
			},
			{
				"x": 2.6135627558,
				"y": -5.9878191867,
				"z": -1.7319814681,
				"element": "C" 
			},
			{
				"x": 1.8547053584,
				"y": -4.82991624,
				"z": -1.8478595101,
				"element": "C" 
			},
			{
				"x": 2.0196496541,
				"y": -3.7662513863,
				"z": -0.9420006685,
				"element": "C" 
			},
			{
				"x": 1.2397027857,
				"y": -2.5269480436,
				"z": -1.0278642129,
				"element": "C" 
			},
			{
				"x": 0.3635382316,
				"y": -2.3949586325,
				"z": -1.9659311323,
				"element": "N" 
			},
			{
				"x": -0.3943984793,
				"y": -1.2664638664,
				"z": -2.0995884695,
				"element": "N" 
			},
			{
				"x": -0.4657678171,
				"y": -0.0894957747,
				"z": -1.3991555427,
				"element": "C" 
			},
			{
				"x": 0.3175993172,
				"y": 0.1316021693,
				"z": -0.3373300888,
				"element": "N" 
			},
			{
				"x": 0.1926962319,
				"y": 1.3118658458,
				"z": 0.3023795694,
				"element": "C" 
			},
			{
				"x": -0.6196799484,
				"y": 2.3241813854,
				"z": 0.0275745035,
				"element": "N" 
			},
			{
				"x": -1.4027748828,
				"y": 2.0889877737,
				"z": -1.0430306107,
				"element": "C" 
			},
			{
				"x": -1.3889293414,
				"y": 0.9081927812,
				"z": -1.8126137284,
				"element": "C" 
			},
			{
				"x": -2.3713028178,
				"y": 1.1215061024,
				"z": -2.8171258505,
				"element": "C" 
			},
			{
				"x": -2.9332334213,
				"y": 2.3065300594,
				"z": -2.6843548139,
				"element": "N" 
			},
			{
				"x": -2.3512181972,
				"y": 2.9124497328,
				"z": -1.6019076532,
				"element": "N" 
			},
			{
				"x": -2.7786319097,
				"y": 4.2228370748,
				"z": -1.2279957779,
				"element": "C" 
			},
			{
				"x": -3.7848153234,
				"y": 4.8421911757,
				"z": -1.9813004977,
				"element": "C" 
			},
			{
				"x": -4.2151816983,
				"y": 6.1199788921,
				"z": -1.6327169294,
				"element": "C" 
			},
			{
				"x": -3.6547128022,
				"y": 6.7879163672,
				"z": -0.5421215649,
				"element": "C" 
			},
			{
				"x": -2.6539314549,
				"y": 6.1614668218,
				"z": 0.2003022162,
				"element": "C" 
			},
			{
				"x": -2.2079067954,
				"y": 4.8817993419,
				"z": -0.1316077115,
				"element": "C" 
			},
			{
				"x": 2.9686972878,
				"y": -3.8982492504,
				"z": 0.0839715842,
				"element": "C" 
			},
			{
				"x": 3.7366602492,
				"y": -5.0541335257,
				"z": 0.2119614107,
				"element": "C" 
			},
			{
				"x": 2.485854766,
				"y": -6.8073523326,
				"z": -2.430683787,
				"element": "H" 
			},
			{
				"x": 1.1228340499,
				"y": -4.7329221148,
				"z": -2.642369119,
				"element": "H" 
			},
			{
				"x": 1.4283230157,
				"y": -1.7526880515,
				"z": -0.2895584862,
				"element": "H" 
			},
			{
				"x": -1.0195865988,
				"y": -1.3495682339,
				"z": -2.8863352815,
				"element": "H" 
			},
			{
				"x": 0.8505695783,
				"y": 1.4445861008,
				"z": 1.1586255606,
				"element": "H" 
			},
			{
				"x": -2.6926190228,
				"y": 0.4741467432,
				"z": -3.6229297118,
				"element": "H" 
			},
			{
				"x": -4.2142678256,
				"y": 4.3182181002,
				"z": -2.8250167071,
				"element": "H" 
			},
			{
				"x": -4.9954742965,
				"y": 6.5939211031,
				"z": -2.2211163429,
				"element": "H" 
			},
			{
				"x": -3.9944375777,
				"y": 7.7840651684,
				"z": -0.275148944,
				"element": "H" 
			},
			{
				"x": -2.2083879409,
				"y": 6.668409502,
				"z": 1.0513105452,
				"element": "H" 
			},
			{
				"x": -1.4318169331,
				"y": 4.3969992112,
				"z": 0.4450194081,
				"element": "H" 
			},
			{
				"x": 3.1079129456,
				"y": -3.0853256371,
				"z": 0.7916869372,
				"element": "H" 
			},
			{
				"x": 4.4682716467,
				"y": -5.1508931271,
				"z": 1.0063122386,
				"element": "H" 
			}
		],
		 "valence_orbital": [ 
			{
				"type": "occ",
				"energy": -0.26229,
				"method": "rhf"
			},
			{
				"type": "occ",
				"energy": -0.26215,
				"method": "rhf"
			},
			{
				"type": "occ",
				"energy": -0.25293,
				"method": "rhf"
			},
			{
				"type": "occ",
				"energy": -0.22803,
				"method": "rhf"
			},
			{
				"type": "occ",
				"energy": -0.21829,
				"method": "rhf"
			},
			{
				"type": "unocc",
				"energy": -0.06873,
				"method": "rhf"
			},
			{
				"type": "unocc",
				"energy": -0.04138,
				"method": "rhf"
			},
			{
				"type": "unocc",
				"energy": -0.01834,
				"method": "rhf"
			},
			{
				"type": "unocc",
				"energy": -0.0146,
				"method": "rhf"
			},
			{
				"type": "unocc",
				"energy": -0.00499,
				"method": "rhf"
			}
		],
		"cosmo_sigma_profile": { 
			"-0.025": 0.0,
			"-0.024": 0.0,
			"-0.023": 0.0,
			"-0.022": 0.0,
			"-0.021": 0.0,
			"-0.02": 0.0,
			"-0.019": 0.0,
			"-0.018": 0.0,
			"-0.017": 0.0107586153756,
			"-0.016": 0.921406512264,
			"-0.015": 1.46996109958,
			"-0.014": 1.74757253144,
			"-0.013": 1.20937296836,
			"-0.012": 0.778753894356,
			"-0.011": 1.80282488746,
			"-0.01": 1.83750870288,
			"-0.009": 1.95494966201,
			"-0.008": 3.62190738208,
			"-0.007": 10.4474613976,
			"-0.006": 15.0161645523,
			"-0.005": 19.3045367178,
			"-0.004": 19.4646998957,
			"-0.003": 18.9365991633,
			"-0.002": 21.6539144431,
			"-0.001": 30.0025707814,
			"0.0": 32.675825613,
			"0.001": 33.9536140733,
			"0.002": 35.9962759026,
			"0.003": 41.8227779515,
			"0.004": 30.0962208374,
			"0.005": 23.1031838482,
			"0.006": 8.6073774201,
			"0.007": 5.8214335056,
			"0.008": 4.3296295755,
			"0.009": 3.035569022,
			"0.01": 1.44370210378,
			"0.011": 0.213991622983,
			"0.012": 0.0,
			"0.013": 0.0,
			"0.014": 0.0,
			"0.015": 0.0,
			"0.016": 0.0,
			"0.017": 0.0,
			"0.018": 0.0,
			"0.019": 0.0,
			"0.02": 0.0,
			"0.021": 0.0,
			"0.022": 0.0,
			"0.023": 0.0,
			"0.024": 0.0,
			"0.025": 0.0
		}
	}
}
