{
	 "smiles": "CC1=CC=C(C=C1)S(=O)(=O)N1CCCC1C(O)=O", 
	 "Tm": 370.15, 
	 "num_atms": 33, 
	 "gaussian": { 
		 "optdone": 1, 
		 "sigma_profile": "yes", 
		 "theory": "DFT", 
		 "functional": "B3LYP", 
		 "basiset": "6-31G**", 
		 "properties": { 
			 "R2extent": 5479.0305, 
			 "electric_dipole_moment_norm": 4.3726835456, 
			 "electric_quadrupole_moment_norm": 22.9106393824, 
			 "total_energy": -1220.10333929, 
			 "HOMO_LUMO_gap": 0.21647, 
			 "cosmo_polarized_energy": -17.97, 
			 "cosmo_cavitation_energy": 36.96, 
			 "cosmo_dispersion_energy": -26.2, 
			 "cosmo_repulsion_energy": 1.99, 
			 "cosmo_total_nonelectrostatic_energy": 12.75, 
			 "SMD_solvation_energy": 6.16 
		},
		"coords": [
			{
				"x": -5.1638595526,
				"y": 0.8384523596,
				"z": 1.012097394,
				"element": "C" 
			},
			{
				"x": -3.6660154961,
				"y": 1.0285887068,
				"z": 1.0122685964,
				"element": "C" 
			},
			{
				"x": -3.0276149357,
				"y": 1.7311405078,
				"z": 2.0418507716,
				"element": "C" 
			},
			{
				"x": -1.6415896038,
				"y": 1.8892266828,
				"z": 2.0550161013,
				"element": "C" 
			},
			{
				"x": -0.8874483763,
				"y": 1.337712151,
				"z": 1.0197409825,
				"element": "C" 
			},
			{
				"x": -1.4945780912,
				"y": 0.6326009754,
				"z": -0.0245578878,
				"element": "C" 
			},
			{
				"x": -2.878367123,
				"y": 0.483388959,
				"z": -0.0149281071,
				"element": "C" 
			},
			{
				"x": 0.8807771569,
				"y": 1.6230991377,
				"z": 1.0001626534,
				"element": "S" 
			},
			{
				"x": 1.2471571987,
				"y": 2.4441957404,
				"z": -0.1605822767,
				"element": "O" 
			},
			{
				"x": 1.2659353563,
				"y": 2.04616174,
				"z": 2.3545556675,
				"element": "O" 
			},
			{
				"x": 1.4926275428,
				"y": 0.0916597857,
				"z": 0.6703706808,
				"element": "N" 
			},
			{
				"x": 1.5863421866,
				"y": -0.8963828577,
				"z": 1.7649174854,
				"element": "C" 
			},
			{
				"x": 2.4525598859,
				"y": -1.9941946297,
				"z": 1.1396327191,
				"element": "C" 
			},
			{
				"x": 3.4483774933,
				"y": -1.1972725421,
				"z": 0.2822703907,
				"element": "C" 
			},
			{
				"x": 2.5901932701,
				"y": -0.0410915389,
				"z": -0.2969975324,
				"element": "C" 
			},
			{
				"x": 2.0606417561,
				"y": -0.369351741,
				"z": -1.6929071754,
				"element": "C" 
			},
			{
				"x": 3.0626423157,
				"y": -0.2970629762,
				"z": -2.5989745181,
				"element": "O" 
			},
			{
				"x": 0.9289787592,
				"y": -0.6781565007,
				"z": -1.9913965437,
				"element": "O" 
			},
			{
				"x": -5.654428957,
				"y": 1.5166263042,
				"z": 1.7154444526,
				"element": "H" 
			},
			{
				"x": -5.4306856623,
				"y": -0.1860659523,
				"z": 1.2991729514,
				"element": "H" 
			},
			{
				"x": -5.5874872981,
				"y": 1.0144323871,
				"z": 0.0180204552,
				"element": "H" 
			},
			{
				"x": -3.6203466542,
				"y": 2.1600005985,
				"z": 2.8454593368,
				"element": "H" 
			},
			{
				"x": -1.1440911138,
				"y": 2.426986254,
				"z": 2.8544243863,
				"element": "H" 
			},
			{
				"x": -0.8888288698,
				"y": 0.1960840472,
				"z": -0.8126337342,
				"element": "H" 
			},
			{
				"x": -3.3578963678,
				"y": -0.0666217682,
				"z": -0.8207611985,
				"element": "H" 
			},
			{
				"x": 2.0644565983,
				"y": -0.4581404562,
				"z": 2.6500332479,
				"element": "H" 
			},
			{
				"x": 0.5882047375,
				"y": -1.2450167059,
				"z": 2.046404372,
				"element": "H" 
			},
			{
				"x": 2.9410834244,
				"y": -2.6165081563,
				"z": 1.8939639324,
				"element": "H" 
			},
			{
				"x": 1.8369461069,
				"y": -2.641864631,
				"z": 0.5066774719,
				"element": "H" 
			},
			{
				"x": 4.2350956536,
				"y": -0.7702934124,
				"z": 0.9121462713,
				"element": "H" 
			},
			{
				"x": 3.9296194042,
				"y": -1.7870915988,
				"z": -0.5008837839,
				"element": "H" 
			},
			{
				"x": 3.1746910419,
				"y": 0.8776013164,
				"z": -0.3907598972,
				"element": "H" 
			},
			{
				"x": 2.6715082134,
				"y": -0.5174421863,
				"z": -3.4609476653,
				"element": "H" 
			}
		],
		 "valence_orbital": [ 
			{
				"type": "occ",
				"energy": -0.29117,
				"method": "rhf"
			},
			{
				"type": "occ",
				"energy": -0.28421,
				"method": "rhf"
			},
			{
				"type": "occ",
				"energy": -0.2611,
				"method": "rhf"
			},
			{
				"type": "occ",
				"energy": -0.25829,
				"method": "rhf"
			},
			{
				"type": "occ",
				"energy": -0.24427,
				"method": "rhf"
			},
			{
				"type": "unocc",
				"energy": -0.0278,
				"method": "rhf"
			},
			{
				"type": "unocc",
				"energy": -0.01046,
				"method": "rhf"
			},
			{
				"type": "unocc",
				"energy": -0.00131,
				"method": "rhf"
			},
			{
				"type": "unocc",
				"energy": 0.06596,
				"method": "rhf"
			},
			{
				"type": "unocc",
				"energy": 0.06729,
				"method": "rhf"
			}
		],
		"cosmo_sigma_profile": { 
			"-0.025": 0.0,
			"-0.024": 0.0,
			"-0.023": 0.0,
			"-0.022": 0.0,
			"-0.021": 0.0,
			"-0.02": 0.0,
			"-0.019": 0.26048987158,
			"-0.018": 1.02457554946,
			"-0.017": 0.532807517779,
			"-0.016": 0.908901419462,
			"-0.015": 1.32327008004,
			"-0.014": 0.327293216417,
			"-0.013": 0.149903386905,
			"-0.012": 0.965443021604,
			"-0.011": 0.762393703914,
			"-0.01": 0.790275460652,
			"-0.009": 0.498193362854,
			"-0.008": 0.915076760012,
			"-0.007": 3.28627633298,
			"-0.006": 11.3492366502,
			"-0.005": 25.2617416438,
			"-0.004": 31.4203664002,
			"-0.003": 28.0423779032,
			"-0.002": 27.3016130709,
			"-0.001": 24.8713509859,
			"0.0": 18.3371534068,
			"0.001": 14.2282924644,
			"0.002": 15.4963839798,
			"0.003": 19.1501236912,
			"0.004": 11.1235588812,
			"0.005": 4.60322347201,
			"0.006": 6.3734639751,
			"0.007": 6.4984807452,
			"0.008": 5.11080789315,
			"0.009": 7.79571988764,
			"0.01": 8.07598128966,
			"0.011": 10.3951627885,
			"0.012": 4.88083990455,
			"0.013": 0.0405107420507,
			"0.014": 0.0,
			"0.015": 0.0,
			"0.016": 0.0,
			"0.017": 0.0,
			"0.018": 0.0,
			"0.019": 0.0,
			"0.02": 0.0,
			"0.021": 0.0,
			"0.022": 0.0,
			"0.023": 0.0,
			"0.024": 0.0,
			"0.0": 0.0
		}
	}
}
