{
	 "smiles": "O=CN1CCOCC1", 
	 "Tm": 294.65, 
	 "num_atms": 17, 
	 "gaussian": { 
		 "optdone": 1, 
		 "sigma_profile": "yes", 
		 "theory": "DFT", 
		 "functional": "B3LYP", 
		 "basiset": "6-31G**", 
		 "properties": { 
			 "R2extent": 1129.3157, 
			 "electric_dipole_moment_norm": 2.96415118373, 
			 "electric_quadrupole_moment_norm": 15.579350774, 
			 "total_energy": -401.136277548, 
			 "HOMO_LUMO_gap": 0.26714, 
			 "cosmo_polarized_energy": -11.84, 
			 "cosmo_cavitation_energy": 19.36, 
			 "cosmo_dispersion_energy": -14.75, 
			 "cosmo_repulsion_energy": 1.23, 
			 "cosmo_total_nonelectrostatic_energy": 5.84, 
			 "SMD_solvation_energy": 4.09 
		},
		"coords": [
			{
				"x": 0.9357571104,
				"y": -0.4741364252,
				"z": 2.4034331985,
				"element": "O" 
			},
			{
				"x": 1.5865162701,
				"y": -0.1341510095,
				"z": 1.4281129283,
				"element": "C" 
			},
			{
				"x": 1.0962994671,
				"y": -0.0628854873,
				"z": 0.1594970764,
				"element": "N" 
			},
			{
				"x": -0.3146296189,
				"y": -0.3769513262,
				"z": -0.0878430384,
				"element": "C" 
			},
			{
				"x": -0.5216976341,
				"y": -0.6037417958,
				"z": -1.5812785776,
				"element": "C" 
			},
			{
				"x": -0.127602266,
				"y": 0.5135906324,
				"z": -2.3737919658,
				"element": "O" 
			},
			{
				"x": 1.0381151997,
				"y": 1.2021584239,
				"z": -1.9213423586,
				"element": "C" 
			},
			{
				"x": 1.8994959832,
				"y": 0.3569119786,
				"z": -0.9849112747,
				"element": "C" 
			},
			{
				"x": 2.6561685025,
				"y": 0.1531828549,
				"z": 1.4840138135,
				"element": "H" 
			},
			{
				"x": -0.5884826721,
				"y": -1.2680652579,
				"z": 0.4854765316,
				"element": "H" 
			},
			{
				"x": -0.9518354616,
				"y": 0.4448051359,
				"z": 0.2643880478,
				"element": "H" 
			},
			{
				"x": 0.0213375597,
				"y": -1.5087955091,
				"z": -1.8958746046,
				"element": "H" 
			},
			{
				"x": -1.5830079495,
				"y": -0.7681535355,
				"z": -1.7884459153,
				"element": "H" 
			},
			{
				"x": 0.7418643423,
				"y": 2.1252192604,
				"z": -1.4009071359,
				"element": "H" 
			},
			{
				"x": 1.616634793,
				"y": 1.4856291235,
				"z": -2.8081029948,
				"element": "H" 
			},
			{
				"x": 2.2997882825,
				"y": -0.5095630565,
				"z": -1.5306265035,
				"element": "H" 
			},
			{
				"x": 2.7531780917,
				"y": 0.9445459936,
				"z": -0.632097227,
				"element": "H" 
			}
		],
		 "valence_orbital": [ 
			{
				"type": "occ",
				"energy": -0.36695,
				"method": "rhf"
			},
			{
				"type": "occ",
				"energy": -0.31681,
				"method": "rhf"
			},
			{
				"type": "occ",
				"energy": -0.26175,
				"method": "rhf"
			},
			{
				"type": "occ",
				"energy": -0.25272,
				"method": "rhf"
			},
			{
				"type": "occ",
				"energy": -0.24391,
				"method": "rhf"
			},
			{
				"type": "unocc",
				"energy": 0.02323,
				"method": "rhf"
			},
			{
				"type": "unocc",
				"energy": 0.07479,
				"method": "rhf"
			},
			{
				"type": "unocc",
				"energy": 0.10297,
				"method": "rhf"
			},
			{
				"type": "unocc",
				"energy": 0.10945,
				"method": "rhf"
			},
			{
				"type": "unocc",
				"energy": 0.11779,
				"method": "rhf"
			}
		],
		"cosmo_sigma_profile": { 
			"-0.025": 0.0,
			"-0.024": 0.0,
			"-0.023": 0.0,
			"-0.022": 0.0,
			"-0.021": 0.0,
			"-0.02": 0.0,
			"-0.019": 0.0,
			"-0.018": 0.0,
			"-0.017": 0.0,
			"-0.016": 0.0,
			"-0.015": 0.0,
			"-0.014": 0.0,
			"-0.013": 0.0,
			"-0.012": 0.0,
			"-0.011": 0.0,
			"-0.01": 0.0,
			"-0.009": 0.0,
			"-0.008": 1.27059341421,
			"-0.007": 5.43749244762,
			"-0.006": 8.5434847868,
			"-0.005": 22.6044109785,
			"-0.004": 24.7494810288,
			"-0.003": 16.8775314165,
			"-0.002": 10.6142036278,
			"-0.001": 7.52584851597,
			"0.0": 5.82842459224,
			"0.001": 5.11611395244,
			"0.002": 3.49000052536,
			"0.003": 1.70370176357,
			"0.004": 2.67726877633,
			"0.005": 3.08240152257,
			"0.006": 2.7528969012,
			"0.007": 2.95584457447,
			"0.008": 3.02265019493,
			"0.009": 1.18892667926,
			"0.01": 2.3675702737,
			"0.011": 3.46367001326,
			"0.012": 3.94852873713,
			"0.013": 5.4230557897,
			"0.014": 5.44346024714,
			"0.015": 1.22190360683,
			"0.016": 0.0172010046591,
			"0.017": 0.0,
			"0.018": 0.0,
			"0.019": 0.0,
			"0.02": 0.0,
			"0.021": 0.0,
			"0.022": 0.0,
			"0.023": 0.0,
			"0.024": 0.0,
			"0.025": 0.0
		}
	}
}
