{
	 "smiles": "NC1=CC2=C(OC(=N2)C2=C(Br)C=CC(F)=C2)C=C1", 
	 "Tm": 433.15, 
	 "num_atms": 26, 
	 "gaussian": { 
		 "optdone": 1, 
		 "sigma_profile": "yes", 
		 "theory": "DFT", 
		 "functional": "B3LYP", 
		 "basiset": "6-31G**", 
		 "properties": { 
			 "R2extent": 8766.7599, 
			 "electric_dipole_moment_norm": 2.20868220892, 
			 "electric_quadrupole_moment_norm": 18.7369078997, 
			 "total_energy": -3356.16908307, 
			 "HOMO_LUMO_gap": 0.14032, 
			 "cosmo_polarized_energy": -11.58, 
			 "cosmo_cavitation_energy": 33.83, 
			 "cosmo_dispersion_energy": -25.29, 
			 "cosmo_repulsion_energy": 1.9, 
			 "cosmo_total_nonelectrostatic_energy": 10.44, 
			 "SMD_solvation_energy": 3.74 
		},
		"coords": [
			{
				"x": 2.9629102105,
				"y": 2.738036954,
				"z": -3.0183347553,
				"element": "N" 
			},
			{
				"x": 2.7393780098,
				"y": 1.9094563003,
				"z": -1.9125882716,
				"element": "C" 
			},
			{
				"x": 1.5624797943,
				"y": 1.154834254,
				"z": -1.8143213625,
				"element": "C" 
			},
			{
				"x": 1.3701262778,
				"y": 0.3971358924,
				"z": -0.6562378028,
				"element": "C" 
			},
			{
				"x": 2.3313197929,
				"y": 0.3982830313,
				"z": 0.361690933,
				"element": "C" 
			},
			{
				"x": 1.8795096551,
				"y": -0.431852498,
				"z": 1.3597753991,
				"element": "O" 
			},
			{
				"x": 0.6761408044,
				"y": -0.8910319931,
				"z": 0.8979063516,
				"element": "C" 
			},
			{
				"x": 0.3284152731,
				"y": -0.4383420601,
				"z": -0.2765975767,
				"element": "N" 
			},
			{
				"x": -0.1304121357,
				"y": -1.8100134942,
				"z": 1.7093760342,
				"element": "C" 
			},
			{
				"x": 0.228309376,
				"y": -2.4087482042,
				"z": 2.9347770597,
				"element": "C" 
			},
			{
				"x": 1.9067792599,
				"y": -2.1472037402,
				"z": 3.8098301295,
				"element": "Br" 
			},
			{
				"x": -0.6589828161,
				"y": -3.2677549288,
				"z": 3.5910113433,
				"element": "C" 
			},
			{
				"x": -1.9099095841,
				"y": -3.555259899,
				"z": 3.0565103552,
				"element": "C" 
			},
			{
				"x": -2.2577303597,
				"y": -2.9656483112,
				"z": 1.8453152615,
				"element": "C" 
			},
			{
				"x": -3.4648687096,
				"y": -3.2321200318,
				"z": 1.3101510486,
				"element": "F" 
			},
			{
				"x": -1.4013075463,
				"y": -2.1125272712,
				"z": 1.177325495,
				"element": "C" 
			},
			{
				"x": 3.5061648849,
				"y": 1.131175493,
				"z": 0.2951407344,
				"element": "C" 
			},
			{
				"x": 3.6915849233,
				"y": 1.8875140707,
				"z": -0.8599454203,
				"element": "C" 
			},
			{
				"x": 3.9356302176,
				"y": 2.9255513414,
				"z": -3.2195432084,
				"element": "H" 
			},
			{
				"x": 2.45686056,
				"y": 2.4755282473,
				"z": -3.853142802,
				"element": "H" 
			},
			{
				"x": 0.8198762035,
				"y": 1.158623987,
				"z": -2.6059171505,
				"element": "H" 
			},
			{
				"x": -0.3567792856,
				"y": -3.7140323678,
				"z": 4.5308982105,
				"element": "H" 
			},
			{
				"x": -2.6027334059,
				"y": -4.2198554428,
				"z": 3.5603396783,
				"element": "H" 
			},
			{
				"x": -1.6950900052,
				"y": -1.6647940434,
				"z": 0.2360107479,
				"element": "H" 
			},
			{
				"x": 4.241199809,
				"y": 1.119720818,
				"z": 1.0919607475,
				"element": "H" 
			},
			{
				"x": 4.591228796,
				"y": 2.488623896,
				"z": -0.9602911793,
				"element": "H" 
			}
		],
		 "valence_orbital": [ 
			{
				"type": "occ",
				"energy": -0.28124,
				"method": "rhf"
			},
			{
				"type": "occ",
				"energy": -0.2788,
				"method": "rhf"
			},
			{
				"type": "occ",
				"energy": -0.24547,
				"method": "rhf"
			},
			{
				"type": "occ",
				"energy": -0.22852,
				"method": "rhf"
			},
			{
				"type": "occ",
				"energy": -0.20295,
				"method": "rhf"
			},
			{
				"type": "unocc",
				"energy": -0.06263,
				"method": "rhf"
			},
			{
				"type": "unocc",
				"energy": -0.01723,
				"method": "rhf"
			},
			{
				"type": "unocc",
				"energy": 0.00206,
				"method": "rhf"
			},
			{
				"type": "unocc",
				"energy": 0.0032,
				"method": "rhf"
			},
			{
				"type": "unocc",
				"energy": 0.02375,
				"method": "rhf"
			}
		],
		"cosmo_sigma_profile": { 
			"-0.025": 0.0,
			"-0.024": 0.0,
			"-0.023": 0.0,
			"-0.022": 0.0,
			"-0.021": 0.0,
			"-0.02": 0.0,
			"-0.019": 0.0,
			"-0.018": 0.0,
			"-0.017": 0.0,
			"-0.016": 0.0,
			"-0.015": 0.0,
			"-0.014": 0.0,
			"-0.013": 0.343477785831,
			"-0.012": 2.60577493716,
			"-0.011": 2.75435186616,
			"-0.01": 2.76601093344,
			"-0.009": 3.73137780215,
			"-0.008": 7.43437168438,
			"-0.007": 10.1788781298,
			"-0.006": 11.3671278681,
			"-0.005": 10.8865427996,
			"-0.004": 10.6612566059,
			"-0.003": 12.108561681,
			"-0.002": 14.5337756199,
			"-0.001": 20.2860562499,
			"0.0": 26.1495727104,
			"0.001": 32.4399776299,
			"0.002": 21.274538774,
			"0.003": 21.5807843528,
			"0.004": 31.3132687518,
			"0.005": 13.0067050745,
			"0.006": 5.44641166846,
			"0.007": 4.2815591916,
			"0.008": 1.8350910028,
			"0.009": 1.71542492149,
			"0.01": 2.32001729301,
			"0.011": 1.62129622112,
			"0.012": 1.31003143488,
			"0.013": 1.23450792343,
			"0.014": 0.512229180086,
			"0.015": 0.285034751533,
			"0.016": 0.0,
			"0.017": 0.0,
			"0.018": 0.0,
			"0.019": 0.0,
			"0.02": 0.0,
			"0.021": 0.0,
			"0.022": 0.0,
			"0.023": 0.0,
			"0.024": 0.0,
			"0.025": 0.0
		}
	}
}
