{
	 "smiles": "CC1=NC2=C(C(Br)=CC=C2)C(=C1)C(O)=O", 
	 "Tm": 506.15, 
	 "num_atms": 23, 
	 "gaussian": { 
		 "optdone": 1, 
		 "sigma_profile": "yes", 
		 "theory": "DFT", 
		 "functional": "B3LYP", 
		 "basiset": "6-31G**", 
		 "properties": { 
			 "R2extent": 4927.1079, 
			 "electric_dipole_moment_norm": 1.5439874708, 
			 "electric_quadrupole_moment_norm": 12.3935663806, 
			 "total_energy": -3200.61065413, 
			 "HOMO_LUMO_gap": 0.16404, 
			 "cosmo_polarized_energy": -11.85, 
			 "cosmo_cavitation_energy": 29.73, 
			 "cosmo_dispersion_energy": -21.94, 
			 "cosmo_repulsion_energy": 1.7, 
			 "cosmo_total_nonelectrostatic_energy": 9.5, 
			 "SMD_solvation_energy": 3.65 
		},
		"coords": [
			{
				"x": 2.3966764782,
				"y": 2.4383974868,
				"z": -0.4128780359,
				"element": "C" 
			},
			{
				"x": 1.1823804034,
				"y": 1.5747054603,
				"z": -0.1889381794,
				"element": "C" 
			},
			{
				"x": 1.216231136,
				"y": 0.7019466166,
				"z": 0.796893283,
				"element": "N" 
			},
			{
				"x": 0.112238417,
				"y": -0.0611962633,
				"z": 1.0486503431,
				"element": "C" 
			},
			{
				"x": -1.1026902352,
				"y": 0.0247239018,
				"z": 0.2787735612,
				"element": "C" 
			},
			{
				"x": -2.211551777,
				"y": -0.7418855771,
				"z": 0.7443287716,
				"element": "C" 
			},
			{
				"x": -3.974046795,
				"y": -0.5443009738,
				"z": 0.0166460072,
				"element": "Br" 
			},
			{
				"x": -2.0970500385,
				"y": -1.6045505454,
				"z": 1.8136987334,
				"element": "C" 
			},
			{
				"x": -0.8726375492,
				"y": -1.7325760309,
				"z": 2.5028294118,
				"element": "C" 
			},
			{
				"x": 0.2050637967,
				"y": -0.9615291928,
				"z": 2.1403491163,
				"element": "C" 
			},
			{
				"x": -1.06005662,
				"y": 0.9061070931,
				"z": -0.8489034588,
				"element": "C" 
			},
			{
				"x": 0.0527877079,
				"y": 1.6923204809,
				"z": -1.0433254325,
				"element": "C" 
			},
			{
				"x": -2.0924420612,
				"y": 1.0051541552,
				"z": -1.9387305257,
				"element": "C" 
			},
			{
				"x": -2.2222655167,
				"y": -0.16458233,
				"z": -2.6016836556,
				"element": "O" 
			},
			{
				"x": -2.6441750788,
				"y": 2.028582488,
				"z": -2.2743075974,
				"element": "O" 
			},
			{
				"x": 2.1471859932,
				"y": 3.4996576445,
				"z": -0.298034916,
				"element": "H" 
			},
			{
				"x": 3.172382417,
				"y": 2.1774522002,
				"z": 0.3081219598,
				"element": "H" 
			},
			{
				"x": 2.7927298563,
				"y": 2.3083229149,
				"z": -1.4264783986,
				"element": "H" 
			},
			{
				"x": -2.9641675108,
				"y": -2.1678510809,
				"z": 2.1379800593,
				"element": "H" 
			},
			{
				"x": -0.8047798898,
				"y": -2.4215534707,
				"z": 3.3390326723,
				"element": "H" 
			},
			{
				"x": 1.1487079764,
				"y": -0.997462617,
				"z": 2.6731763796,
				"element": "H" 
			},
			{
				"x": 0.0797591621,
				"y": 2.3799032352,
				"z": -1.882614157,
				"element": "H" 
			},
			{
				"x": -2.8874802721,
				"y": -0.0125855955,
				"z": -3.2946859419,
				"element": "H" 
			}
		],
		 "valence_orbital": [ 
			{
				"type": "occ",
				"energy": -0.2917,
				"method": "rhf"
			},
			{
				"type": "occ",
				"energy": -0.28055,
				"method": "rhf"
			},
			{
				"type": "occ",
				"energy": -0.26418,
				"method": "rhf"
			},
			{
				"type": "occ",
				"energy": -0.26088,
				"method": "rhf"
			},
			{
				"type": "occ",
				"energy": -0.2348,
				"method": "rhf"
			},
			{
				"type": "unocc",
				"energy": -0.07076,
				"method": "rhf"
			},
			{
				"type": "unocc",
				"energy": -0.03305,
				"method": "rhf"
			},
			{
				"type": "unocc",
				"energy": -0.01414,
				"method": "rhf"
			},
			{
				"type": "unocc",
				"energy": 0.00696,
				"method": "rhf"
			},
			{
				"type": "unocc",
				"energy": 0.0223,
				"method": "rhf"
			}
		],
		"cosmo_sigma_profile": { 
			"-0.025": 0.0,
			"-0.024": 0.0,
			"-0.023": 0.0,
			"-0.022": 0.0,
			"-0.021": 0.0,
			"-0.02": 0.0,
			"-0.019": 0.181210491078,
			"-0.018": 1.14028770908,
			"-0.017": 0.524487790071,
			"-0.016": 0.957374692421,
			"-0.015": 0.77073694802,
			"-0.014": 0.55645631882,
			"-0.013": 0.702830723759,
			"-0.012": 0.788926342894,
			"-0.011": 0.565266664314,
			"-0.01": 0.822109761626,
			"-0.009": 0.67576568044,
			"-0.008": 1.84825125188,
			"-0.007": 7.77864278222,
			"-0.006": 11.3278146117,
			"-0.005": 14.0750904585,
			"-0.004": 14.6924397837,
			"-0.003": 14.7847062223,
			"-0.002": 15.7433627478,
			"-0.001": 21.3145994364,
			"0.0": 24.261310076,
			"0.001": 20.5242402832,
			"0.002": 21.7611051447,
			"0.003": 16.8281368636,
			"0.004": 11.2459133909,
			"0.005": 6.42146104357,
			"0.006": 5.22803904497,
			"0.007": 4.59721021308,
			"0.008": 4.50660052563,
			"0.009": 2.78683179396,
			"0.01": 3.90281793843,
			"0.011": 5.7645709102,
			"0.012": 2.57476123515,
			"0.013": 0.900070814077,
			"0.014": 0.567734591477,
			"0.015": 0.0,
			"0.016": 0.0,
			"0.017": 0.0,
			"0.018": 0.0,
			"0.019": 0.0,
			"0.02": 0.0,
			"0.021": 0.0,
			"0.022": 0.0,
			"0.023": 0.0,
			"0.024": 0.0,
			"0.025": 0.0
		}
	}
}
