{
	 "smiles": "CC(C)(C)C1=CC=C(C=C1)C1(N)CCCC1", 
	 "Tm": 394.15, 
	 "num_atms": 39, 
	 "gaussian": { 
		 "optdone": 1, 
		 "sigma_profile": "yes", 
		 "theory": "DFT", 
		 "functional": "B3LYP", 
		 "basiset": "6-31G**", 
		 "properties": { 
			 "R2extent": 5297.4293, 
			 "electric_dipole_moment_norm": 1.09677449824, 
			 "electric_quadrupole_moment_norm": 5.9759770197, 
			 "total_energy": -640.229432713, 
			 "HOMO_LUMO_gap": 0.22735, 
			 "cosmo_polarized_energy": -6.69, 
			 "cosmo_cavitation_energy": 37.43, 
			 "cosmo_dispersion_energy": -26.67, 
			 "cosmo_repulsion_energy": 2.06, 
			 "cosmo_total_nonelectrostatic_energy": 12.83, 
			 "SMD_solvation_energy": 5.34 
		},
		"coords": [
			{
				"x": -3.842459315,
				"y": -1.2222264407,
				"z": -1.4099312668,
				"element": "C" 
			},
			{
				"x": -3.265461337,
				"y": 0.1596119287,
				"z": -1.0483746148,
				"element": "C" 
			},
			{
				"x": -3.4789849691,
				"y": 1.1021725308,
				"z": -2.2567841181,
				"element": "C" 
			},
			{
				"x": -4.0486423185,
				"y": 0.7049825495,
				"z": 0.1696205876,
				"element": "C" 
			},
			{
				"x": -1.7658709101,
				"y": 0.0954616247,
				"z": -0.7068633478,
				"element": "C" 
			},
			{
				"x": -1.0710451234,
				"y": 1.2606184887,
				"z": -0.3514540177,
				"element": "C" 
			},
			{
				"x": 0.287266908,
				"y": 1.2399610173,
				"z": -0.0358596127,
				"element": "C" 
			},
			{
				"x": 1.0285211336,
				"y": 0.0523046137,
				"z": -0.0577664496,
				"element": "C" 
			},
			{
				"x": 0.3349174869,
				"y": -1.11365517,
				"z": -0.4130995367,
				"element": "C" 
			},
			{
				"x": -1.0235625329,
				"y": -1.094060546,
				"z": -0.7288457302,
				"element": "C" 
			},
			{
				"x": 2.5261347005,
				"y": 0.0154704424,
				"z": 0.2876030547,
				"element": "C" 
			},
			{
				"x": 3.1135565898,
				"y": 1.3171118972,
				"z": 0.6415670549,
				"element": "N" 
			},
			{
				"x": 3.3979062189,
				"y": -0.5710541831,
				"z": -0.8532406206,
				"element": "C" 
			},
			{
				"x": 4.7207251077,
				"y": -0.9906501151,
				"z": -0.1750390164,
				"element": "C" 
			},
			{
				"x": 4.3695010134,
				"y": -1.2393108307,
				"z": 1.3220063527,
				"element": "C" 
			},
			{
				"x": 2.8570324484,
				"y": -0.9539208768,
				"z": 1.4521818318,
				"element": "C" 
			},
			{
				"x": -3.3487855464,
				"y": -1.6532930806,
				"z": -2.2871622846,
				"element": "H" 
			},
			{
				"x": -4.9077888248,
				"y": -1.1276248228,
				"z": -1.6445050302,
				"element": "H" 
			},
			{
				"x": -3.7491010956,
				"y": -1.9322553428,
				"z": -0.5815625379,
				"element": "H" 
			},
			{
				"x": -2.9413687093,
				"y": 0.7365943687,
				"z": -3.1378858824,
				"element": "H" 
			},
			{
				"x": -4.5436317405,
				"y": 1.1649779903,
				"z": -2.5096966927,
				"element": "H" 
			},
			{
				"x": -3.1260633195,
				"y": 2.1165748094,
				"z": -2.0483719272,
				"element": "H" 
			},
			{
				"x": -3.7130532591,
				"y": 1.7069559609,
				"z": 0.4532591505,
				"element": "H" 
			},
			{
				"x": -5.1189695052,
				"y": 0.7642571421,
				"z": -0.0590117322,
				"element": "H" 
			},
			{
				"x": -3.9226980335,
				"y": 0.0523837618,
				"z": 1.0398375111,
				"element": "H" 
			},
			{
				"x": -1.5936372619,
				"y": 2.2126929012,
				"z": -0.3170985051,
				"element": "H" 
			},
			{
				"x": 0.7735994991,
				"y": 2.1726660748,
				"z": 0.2322209676,
				"element": "H" 
			},
			{
				"x": 0.8576455112,
				"y": -2.0658678568,
				"z": -0.4475626727,
				"element": "H" 
			},
			{
				"x": -1.500991469,
				"y": -2.0304235971,
				"z": -0.9954538913,
				"element": "H" 
			},
			{
				"x": 2.6387709995,
				"y": 1.7170177664,
				"z": 1.4474954388,
				"element": "H" 
			},
			{
				"x": 3.0077491074,
				"y": 1.9779466386,
				"z": -0.1245670863,
				"element": "H" 
			},
			{
				"x": 3.5384209174,
				"y": 0.1510250288,
				"z": -1.6656686343,
				"element": "H" 
			},
			{
				"x": 2.890769117,
				"y": -1.4395498949,
				"z": -1.2857325689,
				"element": "H" 
			},
			{
				"x": 5.1480052372,
				"y": -1.8777956491,
				"z": -0.6536473441,
				"element": "H" 
			},
			{
				"x": 5.4602887276,
				"y": -0.1908741254,
				"z": -0.2589330132,
				"element": "H" 
			},
			{
				"x": 4.9399861738,
				"y": -0.5593106936,
				"z": 1.9590139813,
				"element": "H" 
			},
			{
				"x": 4.6097423162,
				"y": -2.2588667411,
				"z": 1.6405244453,
				"element": "H" 
			},
			{
				"x": 2.2766009613,
				"y": -1.8743653115,
				"z": 1.332314419,
				"element": "H" 
			},
			{
				"x": 2.5791750958,
				"y": -0.5280822579,
				"z": 2.4230733389,
				"element": "H" 
			}
		],
		 "valence_orbital": [ 
			{
				"type": "occ",
				"energy": -0.30819,
				"method": "rhf"
			},
			{
				"type": "occ",
				"energy": -0.30498,
				"method": "rhf"
			},
			{
				"type": "occ",
				"energy": -0.24272,
				"method": "rhf"
			},
			{
				"type": "occ",
				"energy": -0.23585,
				"method": "rhf"
			},
			{
				"type": "occ",
				"energy": -0.2267,
				"method": "rhf"
			},
			{
				"type": "unocc",
				"energy": 0.00065,
				"method": "rhf"
			},
			{
				"type": "unocc",
				"energy": 0.00835,
				"method": "rhf"
			},
			{
				"type": "unocc",
				"energy": 0.07558,
				"method": "rhf"
			},
			{
				"type": "unocc",
				"energy": 0.08449,
				"method": "rhf"
			},
			{
				"type": "unocc",
				"energy": 0.10948,
				"method": "rhf"
			}
		],
		"cosmo_sigma_profile": { 
			"-0.025": 0.0,
			"-0.024": 0.0,
			"-0.023": 0.0,
			"-0.022": 0.0,
			"-0.021": 0.0,
			"-0.02": 0.0,
			"-0.019": 0.0,
			"-0.018": 0.0,
			"-0.017": 0.0,
			"-0.016": 0.0,
			"-0.015": 0.0,
			"-0.014": 0.0,
			"-0.013": 0.0,
			"-0.012": 0.0,
			"-0.011": 0.0,
			"-0.01": 0.0216355548253,
			"-0.009": 1.97100444515,
			"-0.008": 2.40981031037,
			"-0.007": 3.81550741454,
			"-0.006": 4.30923920643,
			"-0.005": 7.49941784491,
			"-0.004": 13.9334165075,
			"-0.003": 24.3835840911,
			"-0.002": 39.4453605344,
			"-0.001": 38.0443821365,
			"0.0": 36.7835596126,
			"0.001": 43.5012254929,
			"0.002": 27.787287756,
			"0.003": 8.61218388782,
			"0.004": 7.22336555999,
			"0.005": 7.49930037355,
			"0.006": 7.40115306122,
			"0.007": 7.82345822559,
			"0.008": 1.45066661275,
			"0.009": 0.923786777936,
			"0.01": 0.990245230159,
			"0.011": 0.472774183897,
			"0.012": 0.303030939214,
			"0.013": 0.824002799744,
			"0.014": 1.03250824303,
			"0.015": 0.33113646224,
			"0.016": 0.409606601183,
			"0.017": 0.330087181701,
			"0.018": 0.0580753197717,
			"0.019": 0.0,
			"0.02": 0.0,
			"0.021": 0.0,
			"0.022": 0.0,
			"0.023": 0.0,
			"0.024": 0.0,
			"0.025": 0.0
		}
	}
}
