{
	 "smiles": "BrC1=CC=C(OC2=C(Br)C(Br)=C(Br)C(Br)=C2Br)C(Br)=C1", 
	 "Tm": 429.15, 
	 "num_atms": 23, 
	 "gaussian": { 
		 "optdone": 1, 
		 "sigma_profile": "yes", 
		 "theory": "DFT", 
		 "functional": "B3LYP", 
		 "basiset": "6-31G**", 
		 "properties": { 
			 "R2extent": 23213.7568, 
			 "electric_dipole_moment_norm": 1.09921123084, 
			 "electric_quadrupole_moment_norm": 4.52553700681, 
			 "total_energy": -18534.081246, 
			 "HOMO_LUMO_gap": 0.17023, 
			 "cosmo_polarized_energy": -5.89, 
			 "cosmo_cavitation_energy": 43.29, 
			 "cosmo_dispersion_energy": -32.09, 
			 "cosmo_repulsion_energy": 2.46, 
			 "cosmo_total_nonelectrostatic_energy": 13.65, 
			 "SMD_solvation_energy": 0.43 
		},
		"coords": [
			{
				"x": 0.5005063818,
				"y": 3.3154735516,
				"z": 5.6639828941,
				"element": "Br" 
			},
			{
				"x": 0.4127571749,
				"y": 2.4293900582,
				"z": 3.9778453436,
				"element": "C" 
			},
			{
				"x": -0.0624791004,
				"y": 1.1201039051,
				"z": 3.9053291476,
				"element": "C" 
			},
			{
				"x": -0.1293194843,
				"y": 0.4970388974,
				"z": 2.6660000354,
				"element": "C" 
			},
			{
				"x": 0.2764537838,
				"y": 1.1528447136,
				"z": 1.4991401901,
				"element": "C" 
			},
			{
				"x": 0.2288619393,
				"y": 0.3725844322,
				"z": 0.3596525997,
				"element": "O" 
			},
			{
				"x": -0.1238264212,
				"y": 0.7986429978,
				"z": -0.8916970305,
				"element": "C" 
			},
			{
				"x": 0.7866909422,
				"y": 0.5465314241,
				"z": -1.9297481042,
				"element": "C" 
			},
			{
				"x": 2.4547606974,
				"y": -0.2174064752,
				"z": -1.4706732766,
				"element": "Br" 
			},
			{
				"x": 0.4571533953,
				"y": 0.8637986012,
				"z": -3.2523336845,
				"element": "C" 
			},
			{
				"x": 1.7008769412,
				"y": 0.5224348299,
				"z": -4.6373811738,
				"element": "Br" 
			},
			{
				"x": -0.7904954572,
				"y": 1.4443540327,
				"z": -3.5420338338,
				"element": "C" 
			},
			{
				"x": -1.2295754765,
				"y": 1.9055387793,
				"z": -5.3261279908,
				"element": "Br" 
			},
			{
				"x": -1.713673931,
				"y": 1.671588391,
				"z": -2.5083718901,
				"element": "C" 
			},
			{
				"x": -3.4095728502,
				"y": 2.422807989,
				"z": -2.889865529,
				"element": "Br" 
			},
			{
				"x": -1.3864202644,
				"y": 1.32960271,
				"z": -1.18717505,
				"element": "C" 
			},
			{
				"x": -2.6436274537,
				"y": 1.5309993234,
				"z": 0.2153054404,
				"element": "Br" 
			},
			{
				"x": 0.7778050891,
				"y": 2.4572749075,
				"z": 1.5920530846,
				"element": "C" 
			},
			{
				"x": 1.4350379305,
				"y": 3.4222217312,
				"z": 0.0876398514,
				"element": "Br" 
			},
			{
				"x": 0.8323127932,
				"y": 3.0978915526,
				"z": 2.8334219013,
				"element": "C" 
			},
			{
				"x": -0.3821957909,
				"y": 0.5997588642,
				"z": 4.8002222045,
				"element": "H" 
			},
			{
				"x": -0.5051306276,
				"y": -0.5157708357,
				"z": 2.5709536107,
				"element": "H" 
			},
			{
				"x": 1.2146997888,
				"y": 4.1086956188,
				"z": 2.8941612597,
				"element": "H" 
			}
		],
		 "valence_orbital": [ 
			{
				"type": "occ",
				"energy": -0.26859,
				"method": "rhf"
			},
			{
				"type": "occ",
				"energy": -0.26667,
				"method": "rhf"
			},
			{
				"type": "occ",
				"energy": -0.25482,
				"method": "rhf"
			},
			{
				"type": "occ",
				"energy": -0.25361,
				"method": "rhf"
			},
			{
				"type": "occ",
				"energy": -0.24352,
				"method": "rhf"
			},
			{
				"type": "unocc",
				"energy": -0.07329,
				"method": "rhf"
			},
			{
				"type": "unocc",
				"energy": -0.0544,
				"method": "rhf"
			},
			{
				"type": "unocc",
				"energy": -0.05108,
				"method": "rhf"
			},
			{
				"type": "unocc",
				"energy": -0.03655,
				"method": "rhf"
			},
			{
				"type": "unocc",
				"energy": -0.02793,
				"method": "rhf"
			}
		],
		"cosmo_sigma_profile": { 
			"-0.025": 0.0,
			"-0.024": 0.0,
			"-0.023": 0.0,
			"-0.022": 0.0,
			"-0.021": 0.0,
			"-0.02": 0.0,
			"-0.019": 0.0,
			"-0.018": 0.0,
			"-0.017": 0.0,
			"-0.016": 0.0,
			"-0.015": 0.0,
			"-0.014": 0.0,
			"-0.013": 0.0,
			"-0.012": 0.0,
			"-0.011": 0.0,
			"-0.01": 0.0,
			"-0.009": 0.368725148103,
			"-0.008": 4.07054041002,
			"-0.007": 7.14973729008,
			"-0.006": 11.1092766087,
			"-0.005": 13.4799257362,
			"-0.004": 16.0187351318,
			"-0.003": 19.3693885397,
			"-0.002": 35.9151712588,
			"-0.001": 34.7076402657,
			"0.0": 40.220333316,
			"0.001": 50.723670537,
			"0.002": 46.487698084,
			"0.003": 57.8050701647,
			"0.004": 29.4253101269,
			"0.005": 2.95724737826,
			"0.006": 1.17759131643,
			"0.007": 0.103832001417,
			"0.008": 0.0,
			"0.009": 0.0,
			"0.01": 0.0,
			"0.011": 0.0,
			"0.012": 0.0,
			"0.013": 0.0,
			"0.014": 0.0,
			"0.015": 0.0,
			"0.016": 0.0,
			"0.017": 0.0,
			"0.018": 0.0,
			"0.019": 0.0,
			"0.02": 0.0,
			"0.021": 0.0,
			"0.022": 0.0,
			"0.023": 0.0,
			"0.024": 0.0,
			"0.025": 0.0
		}
	}
}
