{
	 "smiles": "BrC1=C(Br)C2=C(OC3=C(O2)C(Br)=C(Br)C(Br)=C3Br)C(Br)=C1Br", 
	 "Tm": 649.15, 
	 "num_atms": 22, 
	 "gaussian": { 
		 "optdone": 1, 
		 "sigma_profile": "yes", 
		 "theory": "DFT", 
		 "functional": "B3LYP", 
		 "basiset": "6-31G**", 
		 "properties": { 
			 "R2extent": 28108.097, 
			 "electric_dipole_moment_norm": 0.0, 
			 "electric_quadrupole_moment_norm": 3.95647332229, 
			 "total_energy": -21178.882109, 
			 "HOMO_LUMO_gap": 0.16312, 
			 "cosmo_polarized_energy": -6.53, 
			 "cosmo_cavitation_energy": 44.96, 
			 "cosmo_dispersion_energy": -34.93, 
			 "cosmo_repulsion_energy": 2.6, 
			 "cosmo_total_nonelectrostatic_energy": 12.63, 
			 "SMD_solvation_energy": -0.05 
		},
		"coords": [
			{
				"x": 5.1330851603,
				"y": 0.599239152,
				"z": 4.2169392012,
				"element": "Br" 
			},
			{
				"x": 3.764675961,
				"y": -0.1245336819,
				"z": 3.1294852428,
				"element": "C" 
			},
			{
				"x": 3.2055805315,
				"y": 0.6594082727,
				"z": 2.1056227432,
				"element": "C" 
			},
			{
				"x": 3.7670308529,
				"y": 2.4307525406,
				"z": 1.7589661287,
				"element": "Br" 
			},
			{
				"x": 2.1962118295,
				"y": 0.1297050665,
				"z": 1.3020861658,
				"element": "C" 
			},
			{
				"x": 1.7398199637,
				"y": -1.1708665092,
				"z": 1.5085313792,
				"element": "C" 
			},
			{
				"x": 0.7471364135,
				"y": -1.7087320626,
				"z": 0.7271594424,
				"element": "O" 
			},
			{
				"x": 0.2203566937,
				"y": -0.9190187945,
				"z": -0.2647917009,
				"element": "C" 
			},
			{
				"x": 0.6767494096,
				"y": 0.381554452,
				"z": -0.4712397456,
				"element": "C" 
			},
			{
				"x": 1.6694399809,
				"y": 0.9194173889,
				"z": 0.3101301358,
				"element": "O" 
			},
			{
				"x": 0.1294389533,
				"y": 1.1690610318,
				"z": -1.4838898242,
				"element": "C" 
			},
			{
				"x": 0.8041137853,
				"y": 2.9218474997,
				"z": -1.6972317563,
				"element": "Br" 
			},
			{
				"x": -0.8882715534,
				"y": 0.6461649062,
				"z": -2.3001754403,
				"element": "C" 
			},
			{
				"x": -1.627351894,
				"y": 1.7188860578,
				"z": -3.6720230838,
				"element": "Br" 
			},
			{
				"x": -1.3481128337,
				"y": -0.6647724734,
				"z": -2.0921833086,
				"element": "C" 
			},
			{
				"x": -2.7165344737,
				"y": -1.3885337338,
				"z": -3.1796341987,
				"element": "Br" 
			},
			{
				"x": -0.7890145283,
				"y": -1.4487208328,
				"z": -1.0683209879,
				"element": "C" 
			},
			{
				"x": -1.3504621378,
				"y": -3.2200641162,
				"z": -0.7216593324,
				"element": "Br" 
			},
			{
				"x": 2.2871262014,
				"y": -1.9583697443,
				"z": 2.5211907092,
				"element": "C" 
			},
			{
				"x": 1.6124485341,
				"y": -3.7111575825,
				"z": 2.7345254379,
				"element": "Br" 
			},
			{
				"x": 3.3048281445,
				"y": -1.4354735,
				"z": 3.33747965,
				"element": "C" 
			},
			{
				"x": 4.0439050056,
				"y": -2.5081933371,
				"z": 4.7093331425,
				"element": "Br" 
			}
		],
		 "valence_orbital": [ 
			{
				"type": "occ",
				"energy": -0.27399,
				"method": "rhf"
			},
			{
				"type": "occ",
				"energy": -0.27132,
				"method": "rhf"
			},
			{
				"type": "occ",
				"energy": -0.26312,
				"method": "rhf"
			},
			{
				"type": "occ",
				"energy": -0.25077,
				"method": "rhf"
			},
			{
				"type": "occ",
				"energy": -0.23291,
				"method": "rhf"
			},
			{
				"type": "unocc",
				"energy": -0.06979,
				"method": "rhf"
			},
			{
				"type": "unocc",
				"energy": -0.06473,
				"method": "rhf"
			},
			{
				"type": "unocc",
				"energy": -0.0645,
				"method": "rhf"
			},
			{
				"type": "unocc",
				"energy": -0.05454,
				"method": "rhf"
			},
			{
				"type": "unocc",
				"energy": -0.05116,
				"method": "rhf"
			}
		],
		"cosmo_sigma_profile": { 
			"-0.025": 0.0,
			"-0.024": 0.0,
			"-0.023": 0.0,
			"-0.022": 0.0,
			"-0.021": 0.0,
			"-0.02": 0.0,
			"-0.019": 0.0,
			"-0.018": 0.0,
			"-0.017": 0.0,
			"-0.016": 0.0,
			"-0.015": 0.0,
			"-0.014": 0.0,
			"-0.013": 0.0,
			"-0.012": 0.0,
			"-0.011": 0.0,
			"-0.01": 0.217008575789,
			"-0.009": 1.12862884327,
			"-0.008": 1.40681373637,
			"-0.007": 3.83799429311,
			"-0.006": 12.2497282304,
			"-0.005": 16.2913977189,
			"-0.004": 21.1386827605,
			"-0.003": 28.108308819,
			"-0.002": 45.7720871452,
			"-0.001": 37.2000979942,
			"0.0": 28.9013927837,
			"0.001": 35.899741154,
			"0.002": 46.1413685844,
			"0.003": 73.4245690712,
			"0.004": 28.340019439,
			"0.005": 5.35687247299,
			"0.006": 3.97053477204,
			"0.007": 0.498419104951,
			"0.008": 0.0,
			"0.009": 0.0,
			"0.01": 0.0,
			"0.011": 0.0,
			"0.012": 0.0,
			"0.013": 0.0,
			"0.014": 0.0,
			"0.015": 0.0,
			"0.016": 0.0,
			"0.017": 0.0,
			"0.018": 0.0,
			"0.019": 0.0,
			"0.02": 0.0,
			"0.021": 0.0,
			"0.022": 0.0,
			"0.023": 0.0,
			"0.024": 0.0,
			"0.025": 0.0
		}
	}
}
