{
	 "smiles": "COC1=CC=C(C=C1)C1=NNC(=O)C2=C1C=CC=C2", 
	 "Tm": 512.15, 
	 "num_atms": 31, 
	 "gaussian": { 
		 "optdone": 1, 
		 "sigma_profile": "yes", 
		 "theory": "DFT", 
		 "functional": "B3LYP", 
		 "basiset": "6-31G**", 
		 "properties": { 
			 "R2extent": 6803.0887, 
			 "electric_dipole_moment_norm": 4.88759479192, 
			 "electric_quadrupole_moment_norm": 17.1749699828, 
			 "total_energy": -838.769943441, 
			 "HOMO_LUMO_gap": 0.15986, 
			 "cosmo_polarized_energy": -14.68, 
			 "cosmo_cavitation_energy": 35.24, 
			 "cosmo_dispersion_energy": -25.96, 
			 "cosmo_repulsion_energy": 1.97, 
			 "cosmo_total_nonelectrostatic_energy": 11.25, 
			 "SMD_solvation_energy": 6.41 
		},
		"coords": [
			{
				"x": 4.227796346,
				"y": 0.4028799671,
				"z": -2.1867497972,
				"element": "C" 
			},
			{
				"x": 3.1679162657,
				"y": 1.3362506648,
				"z": -2.0465482078,
				"element": "O" 
			},
			{
				"x": 2.1215854736,
				"y": 1.0100335709,
				"z": -1.2366332069,
				"element": "C" 
			},
			{
				"x": 2.0054322985,
				"y": -0.1914892541,
				"z": -0.5282229287,
				"element": "C" 
			},
			{
				"x": 0.8799278542,
				"y": -0.4180819101,
				"z": 0.2678531455,
				"element": "C" 
			},
			{
				"x": -0.1443406615,
				"y": 0.530951505,
				"z": 0.3749929691,
				"element": "C" 
			},
			{
				"x": -0.0013874259,
				"y": 1.7382963188,
				"z": -0.3336069806,
				"element": "C" 
			},
			{
				"x": 1.1084071045,
				"y": 1.9761093937,
				"z": -1.129516375,
				"element": "C" 
			},
			{
				"x": -1.3222110666,
				"y": 0.3263804159,
				"z": 1.2604361991,
				"element": "C" 
			},
			{
				"x": -1.6213379225,
				"y": 1.3396498875,
				"z": 2.0287127021,
				"element": "N" 
			},
			{
				"x": -2.6760063581,
				"y": 1.218384514,
				"z": 2.8669246798,
				"element": "N" 
			},
			{
				"x": -3.484400215,
				"y": 0.1138620764,
				"z": 3.0905265529,
				"element": "C" 
			},
			{
				"x": -4.3671515281,
				"y": 0.1360243728,
				"z": 3.942591542,
				"element": "O" 
			},
			{
				"x": -3.1725776556,
				"y": -1.0130096925,
				"z": 2.1974350809,
				"element": "C" 
			},
			{
				"x": -2.1112591234,
				"y": -0.9059398325,
				"z": 1.2670262764,
				"element": "C" 
			},
			{
				"x": -1.9038848364,
				"y": -1.9760289338,
				"z": 0.3706604501,
				"element": "C" 
			},
			{
				"x": -2.6973233351,
				"y": -3.1129238046,
				"z": 0.435668986,
				"element": "C" 
			},
			{
				"x": -3.7240380932,
				"y": -3.2191850295,
				"z": 1.3876672282,
				"element": "C" 
			},
			{
				"x": -3.9647240166,
				"y": -2.1679329006,
				"z": 2.2592766611,
				"element": "C" 
			},
			{
				"x": 3.8782745801,
				"y": -0.5454895535,
				"z": -2.6148341266,
				"element": "H" 
			},
			{
				"x": 4.9447498997,
				"y": 0.8615381281,
				"z": -2.8692577178,
				"element": "H" 
			},
			{
				"x": 4.7209391981,
				"y": 0.2029051357,
				"z": -1.2268501355,
				"element": "H" 
			},
			{
				"x": 2.7806639758,
				"y": -0.9468181086,
				"z": -0.5764930505,
				"element": "H" 
			},
			{
				"x": 0.8200054039,
				"y": -1.3428654875,
				"z": 0.8335203663,
				"element": "H" 
			},
			{
				"x": -0.7777134458,
				"y": 2.4913930822,
				"z": -0.2483881657,
				"element": "H" 
			},
			{
				"x": 1.2167444323,
				"y": 2.9030084391,
				"z": -1.6831362061,
				"element": "H" 
			},
			{
				"x": -2.8487016272,
				"y": 2.0272782578,
				"z": 3.4507128034,
				"element": "H" 
			},
			{
				"x": -1.1288063665,
				"y": -1.9010257992,
				"z": -0.3823717016,
				"element": "H" 
			},
			{
				"x": -2.5242067301,
				"y": -3.925664362,
				"z": -0.2639094873,
				"element": "H" 
			},
			{
				"x": -4.3353447299,
				"y": -4.1156437418,
				"z": 1.4297390951,
				"element": "H" 
			},
			{
				"x": -4.7629276947,
				"y": -2.199347319,
				"z": 2.9931733493,
				"element": "H" 
			}
		],
		 "valence_orbital": [ 
			{
				"type": "occ",
				"energy": -0.26487,
				"method": "rhf"
			},
			{
				"type": "occ",
				"energy": -0.25755,
				"method": "rhf"
			},
			{
				"type": "occ",
				"energy": -0.24781,
				"method": "rhf"
			},
			{
				"type": "occ",
				"energy": -0.24076,
				"method": "rhf"
			},
			{
				"type": "occ",
				"energy": -0.21234,
				"method": "rhf"
			},
			{
				"type": "unocc",
				"energy": -0.05248,
				"method": "rhf"
			},
			{
				"type": "unocc",
				"energy": -0.04214,
				"method": "rhf"
			},
			{
				"type": "unocc",
				"energy": -0.00998,
				"method": "rhf"
			},
			{
				"type": "unocc",
				"energy": -0.00355,
				"method": "rhf"
			},
			{
				"type": "unocc",
				"energy": 0.04468,
				"method": "rhf"
			}
		],
		"cosmo_sigma_profile": { 
			"-0.025": 0.0,
			"-0.024": 0.0,
			"-0.023": 0.0,
			"-0.022": 0.0,
			"-0.021": 0.0,
			"-0.02": 0.0,
			"-0.019": 0.0,
			"-0.018": 0.0,
			"-0.017": 0.0,
			"-0.016": 0.278264509628,
			"-0.015": 1.08094789628,
			"-0.014": 1.26132831185,
			"-0.013": 0.707472186039,
			"-0.012": 0.497165521328,
			"-0.011": 0.962351017216,
			"-0.01": 0.929076852571,
			"-0.009": 0.775534371104,
			"-0.008": 0.491528559538,
			"-0.007": 4.98218540186,
			"-0.006": 18.7127719311,
			"-0.005": 25.3420506429,
			"-0.004": 24.0148121696,
			"-0.003": 22.6188120662,
			"-0.002": 17.6996208523,
			"-0.001": 19.3127885635,
			"0.0": 21.2318477828,
			"0.001": 19.0789633277,
			"0.002": 21.3591885028,
			"0.003": 21.5000466388,
			"0.004": 15.0789390804,
			"0.005": 11.0370447387,
			"0.006": 4.54761983211,
			"0.007": 4.32884150899,
			"0.008": 3.75519919006,
			"0.009": 3.18634002003,
			"0.01": 3.94109347275,
			"0.011": 2.42817479017,
			"0.012": 2.67950369043,
			"0.013": 6.09999195594,
			"0.014": 2.77726613574,
			"0.015": 0.0260474244927,
			"0.016": 0.0,
			"0.017": 0.0,
			"0.018": 0.0,
			"0.019": 0.0,
			"0.02": 0.0,
			"0.021": 0.0,
			"0.022": 0.0,
			"0.023": 0.0,
			"0.024": 0.0,
			"0.025": 0.0
		}
	}
}
