{
	 "smiles": "NC1=CC(C(O)=O)=C(Cl)C=C1", 
	 "Tm": 461.15, 
	 "num_atms": 17, 
	 "gaussian": { 
		 "optdone": 1, 
		 "sigma_profile": "yes", 
		 "theory": "DFT", 
		 "functional": "B3LYP", 
		 "basiset": "6-31G**", 
		 "properties": { 
			 "R2extent": 2171.2861, 
			 "electric_dipole_moment_norm": 5.51069780881, 
			 "electric_quadrupole_moment_norm": 19.3997921762, 
			 "total_energy": -935.76251432, 
			 "HOMO_LUMO_gap": 0.16944, 
			 "cosmo_polarized_energy": -14.64, 
			 "cosmo_cavitation_energy": 23.03, 
			 "cosmo_dispersion_energy": -17.59, 
			 "cosmo_repulsion_energy": 1.4, 
			 "cosmo_total_nonelectrostatic_energy": 6.85, 
			 "SMD_solvation_energy": 4.86 
		},
		"coords": [
			{
				"x": -3.2127996623,
				"y": 1.5816184612,
				"z": -0.1114400286,
				"element": "N" 
			},
			{
				"x": -2.0096159297,
				"y": 0.9118106161,
				"z": 0.0613959134,
				"element": "C" 
			},
			{
				"x": -1.5182093037,
				"y": 0.0531213615,
				"z": -0.9298928301,
				"element": "C" 
			},
			{
				"x": -0.2828222019,
				"y": -0.5997713481,
				"z": -0.8247967287,
				"element": "C" 
			},
			{
				"x": 0.0441482053,
				"y": -1.4840001332,
				"z": -2.0167788233,
				"element": "C" 
			},
			{
				"x": 1.2487324684,
				"y": -2.0741802175,
				"z": -2.0918717866,
				"element": "O" 
			},
			{
				"x": -0.7627620418,
				"y": -1.6539258347,
				"z": -2.9041555832,
				"element": "O" 
			},
			{
				"x": 0.4745285255,
				"y": -0.36876494,
				"z": 0.338029894,
				"element": "C" 
			},
			{
				"x": 2.0531319559,
				"y": -1.1236046395,
				"z": 0.6469571972,
				"element": "Cl" 
			},
			{
				"x": 0.0033673894,
				"y": 0.4789094543,
				"z": 1.3399453997,
				"element": "C" 
			},
			{
				"x": -1.2229886568,
				"y": 1.1164396175,
				"z": 1.2087232236,
				"element": "C" 
			},
			{
				"x": -3.675824635,
				"y": 1.8969171632,
				"z": 0.7285120229,
				"element": "H" 
			},
			{
				"x": -3.8490031538,
				"y": 1.1843197367,
				"z": -0.7875126107,
				"element": "H" 
			},
			{
				"x": -2.0920263902,
				"y": -0.1385322797,
				"z": -1.8303870545,
				"element": "H" 
			},
			{
				"x": 1.8002000923,
				"y": -1.866618863,
				"z": -1.3189327755,
				"element": "H" 
			},
			{
				"x": 0.6042921442,
				"y": 0.6366546277,
				"z": 2.2287153642,
				"element": "H" 
			},
			{
				"x": -1.5701488058,
				"y": 1.7785072175,
				"z": 1.9972892062,
				"element": "H" 
			}
		],
		 "valence_orbital": [ 
			{
				"type": "occ",
				"energy": -0.31987,
				"method": "rhf"
			},
			{
				"type": "occ",
				"energy": -0.30563,
				"method": "rhf"
			},
			{
				"type": "occ",
				"energy": -0.27448,
				"method": "rhf"
			},
			{
				"type": "occ",
				"energy": -0.27097,
				"method": "rhf"
			},
			{
				"type": "occ",
				"energy": -0.22292,
				"method": "rhf"
			},
			{
				"type": "unocc",
				"energy": -0.05348,
				"method": "rhf"
			},
			{
				"type": "unocc",
				"energy": -0.01368,
				"method": "rhf"
			},
			{
				"type": "unocc",
				"energy": 0.00552,
				"method": "rhf"
			},
			{
				"type": "unocc",
				"energy": 0.05354,
				"method": "rhf"
			},
			{
				"type": "unocc",
				"energy": 0.07191,
				"method": "rhf"
			}
		],
		"cosmo_sigma_profile": { 
			"-0.025": 0.0,
			"-0.024": 0.0,
			"-0.023": 0.0,
			"-0.022": 0.0,
			"-0.021": 0.0,
			"-0.02": 0.0,
			"-0.019": 0.0,
			"-0.018": 0.0,
			"-0.017": 0.0,
			"-0.016": 0.0,
			"-0.015": 0.0,
			"-0.014": 0.131811073361,
			"-0.013": 2.48161943021,
			"-0.012": 3.17025175035,
			"-0.011": 3.03866627029,
			"-0.01": 4.7235188069,
			"-0.009": 4.33024958992,
			"-0.008": 5.83517867029,
			"-0.007": 8.13972611123,
			"-0.006": 7.66841077606,
			"-0.005": 7.74962197261,
			"-0.004": 6.90901532344,
			"-0.003": 9.95999382841,
			"-0.002": 8.07731419668,
			"-0.001": 10.1960238693,
			"0.0": 10.5657809105,
			"0.001": 14.0040759856,
			"0.002": 18.0179205923,
			"0.003": 19.9765574211,
			"0.004": 6.67750289436,
			"0.005": 3.2251971294,
			"0.006": 3.54583233948,
			"0.007": 2.43865647342,
			"0.008": 3.82168907885,
			"0.009": 3.70736369082,
			"0.01": 4.96042913087,
			"0.011": 6.25474980493,
			"0.012": 4.59614161336,
			"0.013": 2.23789938828,
			"0.014": 0.116072908751,
			"0.015": 0.0,
			"0.016": 0.0,
			"0.017": 0.0,
			"0.018": 0.0,
			"0.019": 0.0,
			"0.02": 0.0,
			"0.021": 0.0,
			"0.022": 0.0,
			"0.023": 0.0,
			"0.024": 0.0,
			"0.025": 0.0
		}
	}
}
