{
	 "smiles": "NC1=NC(=NN1)C1=NC2=C(C=CC=C2)C=C1", 
	 "Tm": 571.15, 
	 "num_atms": 25, 
	 "gaussian": { 
		 "optdone": 1, 
		 "sigma_profile": "yes", 
		 "theory": "DFT", 
		 "functional": "B3LYP", 
		 "basiset": "6-31G**", 
		 "properties": { 
			 "R2extent": 4620.3882, 
			 "electric_dipole_moment_norm": 3.64535832807, 
			 "electric_quadrupole_moment_norm": 26.5558605492, 
			 "total_energy": -698.355063287, 
			 "HOMO_LUMO_gap": 0.16424, 
			 "cosmo_polarized_energy": -23.0, 
			 "cosmo_cavitation_energy": 30.08, 
			 "cosmo_dispersion_energy": -22.76, 
			 "cosmo_repulsion_energy": 1.76, 
			 "cosmo_total_nonelectrostatic_energy": 9.08, 
			 "SMD_solvation_energy": 1.05 
		},
		"coords": [
			{
				"x": 2.1371969195,
				"y": -2.9924400064,
				"z": 3.810028306,
				"element": "N" 
			},
			{
				"x": 1.5462743357,
				"y": -2.5570394542,
				"z": 2.6382459049,
				"element": "C" 
			},
			{
				"x": 1.6876196269,
				"y": -1.3667009676,
				"z": 2.0874209833,
				"element": "N" 
			},
			{
				"x": 0.8417325992,
				"y": -1.4227287164,
				"z": 1.0023962188,
				"element": "C" 
			},
			{
				"x": 0.2011847278,
				"y": -2.5736464577,
				"z": 0.8509718679,
				"element": "N" 
			},
			{
				"x": 0.6648412851,
				"y": -3.2938566315,
				"z": 1.9152850897,
				"element": "N" 
			},
			{
				"x": 0.6833457087,
				"y": -0.2766163253,
				"z": 0.0859930535,
				"element": "C" 
			},
			{
				"x": -0.1261875092,
				"y": -0.4155788255,
				"z": -0.9508640224,
				"element": "N" 
			},
			{
				"x": -0.2764656809,
				"y": 0.6394187358,
				"z": -1.7970406105,
				"element": "C" 
			},
			{
				"x": 0.4039056136,
				"y": 1.8863288161,
				"z": -1.6103986966,
				"element": "C" 
			},
			{
				"x": 0.1932998802,
				"y": 2.9384713809,
				"z": -2.5386197622,
				"element": "C" 
			},
			{
				"x": -0.6561453193,
				"y": 2.7653884496,
				"z": -3.609026923,
				"element": "C" 
			},
			{
				"x": -1.3304618961,
				"y": 1.5321251714,
				"z": -3.7955398448,
				"element": "C" 
			},
			{
				"x": -1.1464682139,
				"y": 0.4926481325,
				"z": -2.9119572587,
				"element": "C" 
			},
			{
				"x": 1.2626207385,
				"y": 1.9908425339,
				"z": -0.485814884,
				"element": "C" 
			},
			{
				"x": 1.4065756117,
				"y": 0.9211383771,
				"z": 0.360754035,
				"element": "C" 
			},
			{
				"x": 2.8602501294,
				"y": -2.3530981736,
				"z": 4.1141218937,
				"element": "H" 
			},
			{
				"x": 2.4629456808,
				"y": -3.9507272075,
				"z": 3.7996510603,
				"element": "H" 
			},
			{
				"x": 0.2934597783,
				"y": -4.2134060355,
				"z": 2.097808375,
				"element": "H" 
			},
			{
				"x": 0.7128933199,
				"y": 3.8821213772,
				"z": -2.3906591351,
				"element": "H" 
			},
			{
				"x": -0.8131000476,
				"y": 3.5749574061,
				"z": -4.315959377,
				"element": "H" 
			},
			{
				"x": -1.9971641285,
				"y": 1.4115163192,
				"z": -4.6446964969,
				"element": "H" 
			},
			{
				"x": -1.6505837979,
				"y": -0.4607188919,
				"z": -3.0321234691,
				"element": "H" 
			},
			{
				"x": 1.7985563011,
				"y": 2.9198780275,
				"z": -0.3064431861,
				"element": "H" 
			},
			{
				"x": 2.0508743375,
				"y": 0.9562229659,
				"z": 1.2309668781,
				"element": "H" 
			}
		],
		 "valence_orbital": [ 
			{
				"type": "occ",
				"energy": -0.27271,
				"method": "rhf"
			},
			{
				"type": "occ",
				"energy": -0.24582,
				"method": "rhf"
			},
			{
				"type": "occ",
				"energy": -0.24145,
				"method": "rhf"
			},
			{
				"type": "occ",
				"energy": -0.22792,
				"method": "rhf"
			},
			{
				"type": "occ",
				"energy": -0.21351,
				"method": "rhf"
			},
			{
				"type": "unocc",
				"energy": -0.04927,
				"method": "rhf"
			},
			{
				"type": "unocc",
				"energy": -0.01576,
				"method": "rhf"
			},
			{
				"type": "unocc",
				"energy": 0.02312,
				"method": "rhf"
			},
			{
				"type": "unocc",
				"energy": 0.03879,
				"method": "rhf"
			},
			{
				"type": "unocc",
				"energy": 0.05891,
				"method": "rhf"
			}
		],
		"cosmo_sigma_profile": { 
			"-0.025": 0.0,
			"-0.024": 0.0,
			"-0.023": 0.0,
			"-0.022": 0.0,
			"-0.021": 0.0,
			"-0.02": 0.0,
			"-0.019": 0.0,
			"-0.018": 0.138349660222,
			"-0.017": 1.63041786676,
			"-0.016": 2.01362172097,
			"-0.015": 2.99068537292,
			"-0.014": 3.08334151023,
			"-0.013": 4.16807999047,
			"-0.012": 2.67018353792,
			"-0.011": 2.89715976516,
			"-0.01": 3.26571960068,
			"-0.009": 2.24112661808,
			"-0.008": 1.91423411324,
			"-0.007": 6.04129550183,
			"-0.006": 11.4955059041,
			"-0.005": 13.696296773,
			"-0.004": 13.7974497019,
			"-0.003": 10.0947452666,
			"-0.002": 9.7879517555,
			"-0.001": 9.60725004875,
			"0.0": 11.7561686939,
			"0.001": 21.9887443708,
			"0.002": 24.9244445851,
			"0.003": 20.0857443162,
			"0.004": 16.5297172598,
			"0.005": 7.38089150267,
			"0.006": 4.81158603605,
			"0.007": 4.11670167588,
			"0.008": 4.60407245282,
			"0.009": 3.21410404403,
			"0.01": 3.30775366589,
			"0.011": 3.65868852572,
			"0.012": 3.58628673351,
			"0.013": 2.71916211351,
			"0.014": 1.40574465416,
			"0.015": 1.47366441969,
			"0.016": 1.74343617449,
			"0.017": 1.21512333681,
			"0.018": 1.32042103609,
			"0.019": 0.292157699621,
			"0.02": 0.0,
			"0.021": 0.0,
			"0.022": 0.0,
			"0.023": 0.0,
			"0.024": 0.0,
			"0.025": 0.0
		}
	}
}
