{
	 "smiles": "CC1=NC2=NC(Br)=NN2C(C)=C1", 
	 "Tm": 459.15, 
	 "num_atms": 19, 
	 "gaussian": { 
		 "optdone": 1, 
		 "sigma_profile": "yes", 
		 "theory": "DFT", 
		 "functional": "B3LYP", 
		 "basiset": "6-31G**", 
		 "properties": { 
			 "R2extent": 5693.5525, 
			 "electric_dipole_moment_norm": 5.82191344061, 
			 "electric_quadrupole_moment_norm": 13.4194641696, 
			 "total_energy": -3061.36552607, 
			 "HOMO_LUMO_gap": 0.19108, 
			 "cosmo_polarized_energy": -13.55, 
			 "cosmo_cavitation_energy": 25.87, 
			 "cosmo_dispersion_energy": -19.8, 
			 "cosmo_repulsion_energy": 1.58, 
			 "cosmo_total_nonelectrostatic_energy": 7.65, 
			 "SMD_solvation_energy": -1.05 
		},
		"coords": [
			{
				"x": -2.9698354148,
				"y": -2.2994280222,
				"z": 0.2056063248,
				"element": "C" 
			},
			{
				"x": -1.5237654782,
				"y": -1.9001765104,
				"z": 0.0645625098,
				"element": "C" 
			},
			{
				"x": -0.6236019838,
				"y": -2.7308714575,
				"z": 0.5779981226,
				"element": "N" 
			},
			{
				"x": 0.6622082731,
				"y": -2.3808482599,
				"z": 0.4553797255,
				"element": "C" 
			},
			{
				"x": 1.7605517405,
				"y": -3.0194304365,
				"z": 0.8727422755,
				"element": "N" 
			},
			{
				"x": 2.7418707157,
				"y": -2.1973061434,
				"z": 0.4701406624,
				"element": "C" 
			},
			{
				"x": 4.5540332576,
				"y": -2.5798857848,
				"z": 0.7845226766,
				"element": "Br" 
			},
			{
				"x": 2.4065346466,
				"y": -1.0763663921,
				"z": -0.1733176591,
				"element": "N" 
			},
			{
				"x": 1.050582135,
				"y": -1.1959328509,
				"z": -0.1828328624,
				"element": "N" 
			},
			{
				"x": 0.153937845,
				"y": -0.3217303322,
				"z": -0.7203297673,
				"element": "C" 
			},
			{
				"x": 0.6807678168,
				"y": 0.9111089358,
				"z": -1.3775554123,
				"element": "C" 
			},
			{
				"x": -1.1683158464,
				"y": -0.6874890673,
				"z": -0.5910083009,
				"element": "C" 
			},
			{
				"x": -3.1381215865,
				"y": -3.2701048115,
				"z": -0.2710740947,
				"element": "H" 
			},
			{
				"x": -3.224699452,
				"y": -2.4143935637,
				"z": 1.2637161419,
				"element": "H" 
			},
			{
				"x": -3.6431313211,
				"y": -1.5648983107,
				"z": -0.2419016889,
				"element": "H" 
			},
			{
				"x": 1.3554642468,
				"y": 0.6471069276,
				"z": -2.1984093334,
				"element": "H" 
			},
			{
				"x": 1.2690049305,
				"y": 1.500590034,
				"z": -0.6667789697,
				"element": "H" 
			},
			{
				"x": -0.1391719847,
				"y": 1.5191504632,
				"z": -1.7626508682,
				"element": "H" 
			},
			{
				"x": -1.93671254,
				"y": -0.0394944173,
				"z": -0.9953094821,
				"element": "H" 
			}
		],
		 "valence_orbital": [ 
			{
				"type": "occ",
				"energy": -0.29606,
				"method": "rhf"
			},
			{
				"type": "occ",
				"energy": -0.28736,
				"method": "rhf"
			},
			{
				"type": "occ",
				"energy": -0.2808,
				"method": "rhf"
			},
			{
				"type": "occ",
				"energy": -0.25926,
				"method": "rhf"
			},
			{
				"type": "occ",
				"energy": -0.2543,
				"method": "rhf"
			},
			{
				"type": "unocc",
				"energy": -0.06322,
				"method": "rhf"
			},
			{
				"type": "unocc",
				"energy": -0.0242,
				"method": "rhf"
			},
			{
				"type": "unocc",
				"energy": 0.01596,
				"method": "rhf"
			},
			{
				"type": "unocc",
				"energy": 0.04108,
				"method": "rhf"
			},
			{
				"type": "unocc",
				"energy": 0.08253,
				"method": "rhf"
			}
		],
		"cosmo_sigma_profile": { 
			"-0.025": 0.0,
			"-0.024": 0.0,
			"-0.023": 0.0,
			"-0.022": 0.0,
			"-0.021": 0.0,
			"-0.02": 0.0,
			"-0.019": 0.0,
			"-0.018": 0.0,
			"-0.017": 0.0,
			"-0.016": 0.0,
			"-0.015": 0.0,
			"-0.014": 0.0,
			"-0.013": 0.0,
			"-0.012": 0.0,
			"-0.011": 0.0,
			"-0.01": 0.0,
			"-0.009": 0.532981518787,
			"-0.008": 4.09055860135,
			"-0.007": 5.50704097801,
			"-0.006": 13.2732964114,
			"-0.005": 17.3460925923,
			"-0.004": 17.5593958752,
			"-0.003": 20.9078796411,
			"-0.002": 23.4193462448,
			"-0.001": 17.5681726821,
			"0.0": 11.6792272036,
			"0.001": 8.77831976563,
			"0.002": 10.0595451312,
			"0.003": 14.6217217605,
			"0.004": 9.12882406295,
			"0.005": 5.91790897503,
			"0.006": 4.28075073052,
			"0.007": 3.79122530562,
			"0.008": 3.59721374322,
			"0.009": 2.2672451885,
			"0.01": 3.51676007464,
			"0.011": 4.35958814515,
			"0.012": 3.27262217081,
			"0.013": 2.32916262043,
			"0.014": 2.06320525295,
			"0.015": 1.0249955803,
			"0.016": 0.0,
			"0.017": 0.0,
			"0.018": 0.0,
			"0.019": 0.0,
			"0.02": 0.0,
			"0.021": 0.0,
			"0.022": 0.0,
			"0.023": 0.0,
			"0.024": 0.0,
			"0.025": 0.0
		}
	}
}
