{
	 "smiles": "CC1=CC=C(C(O)=O)C(=C1O)N(=O)=O", 
	 "Tm": 459.15, 
	 "num_atms": 21, 
	 "gaussian": { 
		 "optdone": 1, 
		 "sigma_profile": "yes", 
		 "theory": "DFT", 
		 "functional": "B3LYP", 
		 "basiset": "6-31G**", 
		 "properties": { 
			 "R2extent": 3679.5384, 
			 "electric_dipole_moment_norm": 3.58631795858, 
			 "electric_quadrupole_moment_norm": 9.47087754065, 
			 "total_energy": -739.857205828, 
			 "HOMO_LUMO_gap": 0.14479, 
			 "cosmo_polarized_energy": -13.13, 
			 "cosmo_cavitation_energy": 26.14, 
			 "cosmo_dispersion_energy": -19.27, 
			 "cosmo_repulsion_energy": 1.51, 
			 "cosmo_total_nonelectrostatic_energy": 8.38, 
			 "SMD_solvation_energy": 7.91 
		},
		"coords": [
			{
				"x": 0.6090709272,
				"y": 2.3858232689,
				"z": 1.0481174699,
				"element": "C" 
			},
			{
				"x": -0.1476871264,
				"y": 1.3508134043,
				"z": 0.2601532841,
				"element": "C" 
			},
			{
				"x": -1.1514174523,
				"y": 0.5703746315,
				"z": 0.8134827836,
				"element": "C" 
			},
			{
				"x": -1.8560022578,
				"y": -0.3821821001,
				"z": 0.060875892,
				"element": "C" 
			},
			{
				"x": -1.5552191514,
				"y": -0.5815446138,
				"z": -1.2765463257,
				"element": "C" 
			},
			{
				"x": -2.4416115942,
				"y": -1.5320433982,
				"z": -2.0299723087,
				"element": "C" 
			},
			{
				"x": -3.015935294,
				"y": -0.9491241702,
				"z": -3.1031735601,
				"element": "O" 
			},
			{
				"x": -2.7055890448,
				"y": -2.6508360212,
				"z": -1.6526169504,
				"element": "O" 
			},
			{
				"x": -0.503986316,
				"y": 0.1683128349,
				"z": -1.8527415865,
				"element": "C" 
			},
			{
				"x": 0.1838857286,
				"y": 1.1544238043,
				"z": -1.104361069,
				"element": "C" 
			},
			{
				"x": 1.1664003984,
				"y": 1.9102994923,
				"z": -1.6038440449,
				"element": "O" 
			},
			{
				"x": -0.034434797,
				"y": -0.1590567054,
				"z": -3.182304592,
				"element": "N" 
			},
			{
				"x": 0.7127922761,
				"y": 0.6615150793,
				"z": -3.7672722991,
				"element": "O" 
			},
			{
				"x": -0.349888751,
				"y": -1.2315232626,
				"z": -3.6805087685,
				"element": "O" 
			},
			{
				"x": 0.4947566365,
				"y": 3.3797274213,
				"z": 0.6027512359,
				"element": "H" 
			},
			{
				"x": 1.6825191643,
				"y": 2.1689932522,
				"z": 1.0527820161,
				"element": "H" 
			},
			{
				"x": 0.2559602964,
				"y": 2.4229631996,
				"z": 2.0811872914,
				"element": "H" 
			},
			{
				"x": -1.4075569187,
				"y": 0.7117389863,
				"z": 1.859826511,
				"element": "H" 
			},
			{
				"x": -2.6563117974,
				"y": -0.95846669,
				"z": 0.510693199,
				"element": "H" 
			},
			{
				"x": -3.560833224,
				"y": -1.6335332281,
				"z": -3.5272887825,
				"element": "H" 
			},
			{
				"x": 1.2323882976,
				"y": 1.6847248146,
				"z": -2.5646393957,
				"element": "H" 
			}
		],
		 "valence_orbital": [ 
			{
				"type": "occ",
				"energy": -0.32017,
				"method": "rhf"
			},
			{
				"type": "occ",
				"energy": -0.31245,
				"method": "rhf"
			},
			{
				"type": "occ",
				"energy": -0.29306,
				"method": "rhf"
			},
			{
				"type": "occ",
				"energy": -0.27987,
				"method": "rhf"
			},
			{
				"type": "occ",
				"energy": -0.25041,
				"method": "rhf"
			},
			{
				"type": "unocc",
				"energy": -0.10562,
				"method": "rhf"
			},
			{
				"type": "unocc",
				"energy": -0.03895,
				"method": "rhf"
			},
			{
				"type": "unocc",
				"energy": -0.01173,
				"method": "rhf"
			},
			{
				"type": "unocc",
				"energy": 0.02117,
				"method": "rhf"
			},
			{
				"type": "unocc",
				"energy": 0.07259,
				"method": "rhf"
			}
		],
		"cosmo_sigma_profile": { 
			"-0.025": 0.0,
			"-0.024": 0.0,
			"-0.023": 0.0,
			"-0.022": 0.0,
			"-0.021": 0.0,
			"-0.02": 0.0,
			"-0.019": 0.203156693328,
			"-0.018": 1.15885863466,
			"-0.017": 0.658949399101,
			"-0.016": 1.30686206812,
			"-0.015": 0.806568627332,
			"-0.014": 0.306092156301,
			"-0.013": 0.553071364109,
			"-0.012": 0.472806580262,
			"-0.011": 1.27180075218,
			"-0.01": 1.2073359645,
			"-0.009": 2.18553101395,
			"-0.008": 3.81376064973,
			"-0.007": 7.82804947494,
			"-0.006": 9.45397357963,
			"-0.005": 12.3729354175,
			"-0.004": 11.1455638078,
			"-0.003": 12.7392993631,
			"-0.002": 17.4174331954,
			"-0.001": 20.6480412372,
			"0.0": 16.4169517895,
			"0.001": 12.2437890595,
			"0.002": 8.87195332797,
			"0.003": 7.30571908398,
			"0.004": 7.33672596814,
			"0.005": 8.19970638069,
			"0.006": 9.66999083814,
			"0.007": 8.73062774656,
			"0.008": 8.07252841498,
			"0.009": 6.43212610726,
			"0.01": 2.83386941223,
			"0.011": 5.35751012362,
			"0.012": 1.67585007903,
			"0.013": 0.00209922124298,
			"0.014": 0.0,
			"0.015": 0.0,
			"0.016": 0.0,
			"0.017": 0.0,
			"0.018": 0.0,
			"0.019": 0.0,
			"0.02": 0.0,
			"0.021": 0.0,
			"0.022": 0.0,
			"0.023": 0.0,
			"0.024": 0.0,
			"0.025": 0.0
		}
	}
}
