{
	 "smiles": "CC1=CC=C(C=C1)S(=O)(=O)N1C=CC(=C1)C(O)=O", 
	 "Tm": 477.15, 
	 "num_atms": 29, 
	 "gaussian": { 
		 "optdone": 1, 
		 "sigma_profile": "yes", 
		 "theory": "DFT", 
		 "functional": "B3LYP", 
		 "basiset": "6-31G**", 
		 "properties": { 
			 "R2extent": 5975.8264, 
			 "electric_dipole_moment_norm": 6.98998200999, 
			 "electric_quadrupole_moment_norm": 24.7437850084, 
			 "total_energy": -1217.66622854, 
			 "HOMO_LUMO_gap": 0.18309, 
			 "cosmo_polarized_energy": -21.46, 
			 "cosmo_cavitation_energy": 35.89, 
			 "cosmo_dispersion_energy": -25.56, 
			 "cosmo_repulsion_energy": 1.93, 
			 "cosmo_total_nonelectrostatic_energy": 12.26, 
			 "SMD_solvation_energy": 7.21 
		},
		"coords": [
			{
				"x": 0.9133274646,
				"y": 4.2248431685,
				"z": 3.2454393606,
				"element": "C" 
			},
			{
				"x": 1.0918622482,
				"y": 3.3010603135,
				"z": 2.065848597,
				"element": "C" 
			},
			{
				"x": 1.4908924392,
				"y": 1.9689425481,
				"z": 2.254932018,
				"element": "C" 
			},
			{
				"x": 1.6863479749,
				"y": 1.1140129118,
				"z": 1.1738590275,
				"element": "C" 
			},
			{
				"x": 1.4725826651,
				"y": 1.6022493783,
				"z": -0.1173597224,
				"element": "C" 
			},
			{
				"x": 1.0813618329,
				"y": 2.9237631728,
				"z": -0.3403231072,
				"element": "C" 
			},
			{
				"x": 0.8927875124,
				"y": 3.7618336973,
				"z": 0.7560216943,
				"element": "C" 
			},
			{
				"x": 1.7103470076,
				"y": 0.5148044778,
				"z": -1.5113263076,
				"element": "S" 
			},
			{
				"x": 1.9077828633,
				"y": 1.3172499226,
				"z": -2.7139967151,
				"element": "O" 
			},
			{
				"x": 2.5940681277,
				"y": -0.5758983552,
				"z": -1.1168864619,
				"element": "O" 
			},
			{
				"x": 0.154960411,
				"y": -0.2235717372,
				"z": -1.7276369792,
				"element": "N" 
			},
			{
				"x": -0.8645471998,
				"y": 0.2882501957,
				"z": -2.524914391,
				"element": "C" 
			},
			{
				"x": -1.9587327034,
				"y": -0.5154768137,
				"z": -2.3547513155,
				"element": "C" 
			},
			{
				"x": -1.6043545938,
				"y": -1.5463394444,
				"z": -1.4157560449,
				"element": "C" 
			},
			{
				"x": -0.294267055,
				"y": -1.3303333118,
				"z": -1.0445363968,
				"element": "C" 
			},
			{
				"x": -2.3994323104,
				"y": -2.6717135058,
				"z": -0.8775602407,
				"element": "C" 
			},
			{
				"x": -3.6213091174,
				"y": -2.8768801211,
				"z": -1.4438128712,
				"element": "O" 
			},
			{
				"x": -2.0217351863,
				"y": -3.390229113,
				"z": 0.0196424799,
				"element": "O" 
			},
			{
				"x": 0.5395770802,
				"y": 3.6868740672,
				"z": 4.1213207172,
				"element": "H" 
			},
			{
				"x": 0.2162587435,
				"y": 5.0357908532,
				"z": 3.0176722555,
				"element": "H" 
			},
			{
				"x": 1.8691325264,
				"y": 4.6831364813,
				"z": 3.5278914181,
				"element": "H" 
			},
			{
				"x": 1.653982702,
				"y": 1.5967628485,
				"z": 3.2625071203,
				"element": "H" 
			},
			{
				"x": 2.0115871261,
				"y": 0.090479714,
				"z": 1.323710847,
				"element": "H" 
			},
			{
				"x": 0.9434847649,
				"y": 3.2877715673,
				"z": -1.3524032317,
				"element": "H" 
			},
			{
				"x": 0.5895221736,
				"y": 4.7920497375,
				"z": 0.5916197774,
				"element": "H" 
			},
			{
				"x": -0.6922675041,
				"y": 1.1522391828,
				"z": -3.1464792724,
				"element": "H" 
			},
			{
				"x": -2.9099910164,
				"y": -0.3670355848,
				"z": -2.8498801301,
				"element": "H" 
			},
			{
				"x": 0.3423855424,
				"y": -1.8924353942,
				"z": -0.3805884049,
				"element": "H" 
			},
			{
				"x": -3.7478145191,
				"y": -2.2830008572,
				"z": -2.1961537202,
				"element": "H" 
			}
		],
		 "valence_orbital": [ 
			{
				"type": "occ",
				"energy": -0.2899,
				"method": "rhf"
			},
			{
				"type": "occ",
				"energy": -0.2852,
				"method": "rhf"
			},
			{
				"type": "occ",
				"energy": -0.2698,
				"method": "rhf"
			},
			{
				"type": "occ",
				"energy": -0.26678,
				"method": "rhf"
			},
			{
				"type": "occ",
				"energy": -0.24368,
				"method": "rhf"
			},
			{
				"type": "unocc",
				"energy": -0.06059,
				"method": "rhf"
			},
			{
				"type": "unocc",
				"energy": -0.03643,
				"method": "rhf"
			},
			{
				"type": "unocc",
				"energy": -0.02408,
				"method": "rhf"
			},
			{
				"type": "unocc",
				"energy": 0.00975,
				"method": "rhf"
			},
			{
				"type": "unocc",
				"energy": 0.02886,
				"method": "rhf"
			}
		],
		"cosmo_sigma_profile": { 
			"-0.025": 0.0,
			"-0.024": 0.0,
			"-0.023": 0.0,
			"-0.022": 0.0,
			"-0.021": 0.0,
			"-0.02": 0.0,
			"-0.019": 0.0578018916681,
			"-0.018": 1.13961326008,
			"-0.017": 0.841998845914,
			"-0.016": 1.41492182192,
			"-0.015": 0.627436006921,
			"-0.014": 0.901713422947,
			"-0.013": 0.884445385076,
			"-0.012": 1.61673933864,
			"-0.011": 1.37182891192,
			"-0.01": 1.05362352601,
			"-0.009": 2.15208830616,
			"-0.008": 6.47149042294,
			"-0.007": 11.2799803534,
			"-0.006": 15.3927054594,
			"-0.005": 19.1591617667,
			"-0.004": 16.3227908135,
			"-0.003": 18.5402771158,
			"-0.002": 19.8546100636,
			"-0.001": 22.9335328724,
			"0.0": 21.7238544119,
			"0.001": 20.157098229,
			"0.002": 22.8609163337,
			"0.003": 15.9118794489,
			"0.004": 7.58079690258,
			"0.005": 5.24790949283,
			"0.006": 5.254910008,
			"0.007": 4.97594813109,
			"0.008": 7.51583711118,
			"0.009": 11.2670602903,
			"0.01": 9.1480937888,
			"0.011": 4.98217449988,
			"0.012": 6.1157664206,
			"0.013": 2.59641871293,
			"0.014": 0.38854088844,
			"0.015": 0.0,
			"0.016": 0.0,
			"0.017": 0.0,
			"0.018": 0.0,
			"0.019": 0.0,
			"0.02": 0.0,
			"0.021": 0.0,
			"0.022": 0.0,
			"0.023": 0.0,
			"0.024": 0.0,
			"0.025": 0.0
		}
	}
}
