{
	 "smiles": "OCC1=NC2=C(C=CC=C2)C(=O)N1", 
	 "Tm": 495.15, 
	 "num_atms": 21, 
	 "gaussian": { 
		 "optdone": 1, 
		 "sigma_profile": "yes", 
		 "theory": "DFT", 
		 "functional": "B3LYP", 
		 "basiset": "6-31G**", 
		 "properties": { 
			 "R2extent": 2763.0178, 
			 "electric_dipole_moment_norm": 2.6585252867, 
			 "electric_quadrupole_moment_norm": 10.4938911101, 
			 "total_energy": -607.753539034, 
			 "HOMO_LUMO_gap": 0.1892, 
			 "cosmo_polarized_energy": -15.25, 
			 "cosmo_cavitation_energy": 25.37, 
			 "cosmo_dispersion_energy": -19.14, 
			 "cosmo_repulsion_energy": 1.51, 
			 "cosmo_total_nonelectrostatic_energy": 7.74, 
			 "SMD_solvation_energy": 3.44 
		},
		"coords": [
			{
				"x": 0.6959696559,
				"y": 3.4618081724,
				"z": -0.9680883134,
				"element": "O" 
			},
			{
				"x": 0.6372713707,
				"y": 3.1113077836,
				"z": 0.4075601597,
				"element": "C" 
			},
			{
				"x": 0.5348495693,
				"y": 1.6126714922,
				"z": 0.6274340364,
				"element": "C" 
			},
			{
				"x": 0.0584620452,
				"y": 1.1511213945,
				"z": 1.7378485922,
				"element": "N" 
			},
			{
				"x": 0.0539995377,
				"y": -0.2322742715,
				"z": 1.8914167989,
				"element": "C" 
			},
			{
				"x": 0.5266208241,
				"y": -1.1150549494,
				"z": 0.8882240125,
				"element": "C" 
			},
			{
				"x": 0.4955029296,
				"y": -2.5036981297,
				"z": 1.0895827279,
				"element": "C" 
			},
			{
				"x": 0.0015284878,
				"y": -3.0211023326,
				"z": 2.2773483854,
				"element": "C" 
			},
			{
				"x": -0.4687900898,
				"y": -2.1510081997,
				"z": 3.277417404,
				"element": "C" 
			},
			{
				"x": -0.4452801889,
				"y": -0.7770606666,
				"z": 3.0905561022,
				"element": "C" 
			},
			{
				"x": 1.0474839627,
				"y": -0.5665902095,
				"z": -0.3709821481,
				"element": "C" 
			},
			{
				"x": 1.4752127019,
				"y": -1.2023431375,
				"z": -1.3239620783,
				"element": "O" 
			},
			{
				"x": 1.0116364374,
				"y": 0.8348684789,
				"z": -0.3949660527,
				"element": "N" 
			},
			{
				"x": -0.1959107074,
				"y": 3.3976598684,
				"z": -1.334805787,
				"element": "H" 
			},
			{
				"x": 1.5736881853,
				"y": 3.468306887,
				"z": 0.85108321,
				"element": "H" 
			},
			{
				"x": -0.1863437219,
				"y": 3.5951378248,
				"z": 0.9442790536,
				"element": "H" 
			},
			{
				"x": 0.865680805,
				"y": -3.1448898779,
				"z": 0.2962790624,
				"element": "H" 
			},
			{
				"x": -0.0232601555,
				"y": -4.0947163111,
				"z": 2.4369448872,
				"element": "H" 
			},
			{
				"x": -0.8550142253,
				"y": -2.5595776218,
				"z": 4.2070495283,
				"element": "H" 
			},
			{
				"x": -0.8045132787,
				"y": -0.0925091291,
				"z": 3.8518736075,
				"element": "H" 
			},
			{
				"x": 1.3426058549,
				"y": 1.3016429347,
				"z": -1.2333931885,
				"element": "H" 
			}
		],
		 "valence_orbital": [ 
			{
				"type": "occ",
				"energy": -0.29439,
				"method": "rhf"
			},
			{
				"type": "occ",
				"energy": -0.27624,
				"method": "rhf"
			},
			{
				"type": "occ",
				"energy": -0.26124,
				"method": "rhf"
			},
			{
				"type": "occ",
				"energy": -0.2598,
				"method": "rhf"
			},
			{
				"type": "occ",
				"energy": -0.22924,
				"method": "rhf"
			},
			{
				"type": "unocc",
				"energy": -0.04004,
				"method": "rhf"
			},
			{
				"type": "unocc",
				"energy": -0.03653,
				"method": "rhf"
			},
			{
				"type": "unocc",
				"energy": 0.0257,
				"method": "rhf"
			},
			{
				"type": "unocc",
				"energy": 0.05133,
				"method": "rhf"
			},
			{
				"type": "unocc",
				"energy": 0.07474,
				"method": "rhf"
			}
		],
		"cosmo_sigma_profile": { 
			"-0.025": 0.0,
			"-0.024": 0.0,
			"-0.023": 0.0,
			"-0.022": 0.0,
			"-0.021": 0.0,
			"-0.02": 0.0,
			"-0.019": 0.0,
			"-0.018": 0.0205835562247,
			"-0.017": 1.0485110196,
			"-0.016": 0.917553691413,
			"-0.015": 1.11164387524,
			"-0.014": 1.37527872103,
			"-0.013": 0.909013943954,
			"-0.012": 2.35502066524,
			"-0.011": 1.49228801783,
			"-0.01": 1.78455170483,
			"-0.009": 2.29533190547,
			"-0.008": 2.68579828426,
			"-0.007": 7.81228073673,
			"-0.006": 12.4468544618,
			"-0.005": 14.0415786465,
			"-0.004": 14.9179975491,
			"-0.003": 12.7060867795,
			"-0.002": 12.1773443093,
			"-0.001": 10.5595266596,
			"0.0": 8.9593546515,
			"0.001": 11.8661667087,
			"0.002": 14.2052320887,
			"0.003": 15.7324859225,
			"0.004": 12.3908335631,
			"0.005": 3.71926841495,
			"0.006": 3.36252170424,
			"0.007": 3.45060450898,
			"0.008": 4.01830402821,
			"0.009": 2.89356253896,
			"0.01": 3.82432152504,
			"0.011": 2.81102088038,
			"0.012": 6.25649669531,
			"0.013": 6.95950177026,
			"0.014": 1.2673346435,
			"0.015": 0.378769090021,
			"0.016": 0.0,
			"0.017": 0.0,
			"0.018": 0.0,
			"0.019": 0.0,
			"0.02": 0.0,
			"0.021": 0.0,
			"0.022": 0.0,
			"0.023": 0.0,
			"0.024": 0.0,
			"0.025": 0.0
		}
	}
}
