{
	 "smiles": "COC1=C(OC)C=C(CC(O)=O)C(Br)=C1", 
	 "Tm": 368.15, 
	 "num_atms": 26, 
	 "gaussian": { 
		 "optdone": 1, 
		 "sigma_profile": "yes", 
		 "theory": "DFT", 
		 "functional": "B3LYP", 
		 "basiset": "6-31G**", 
		 "properties": { 
			 "R2extent": 5002.8295, 
			 "electric_dipole_moment_norm": 4.39086451738, 
			 "electric_quadrupole_moment_norm": 10.9358184751, 
			 "total_energy": -3259.97600517, 
			 "HOMO_LUMO_gap": 0.20516, 
			 "cosmo_polarized_energy": -14.85, 
			 "cosmo_cavitation_energy": 32.74, 
			 "cosmo_dispersion_energy": -23.23, 
			 "cosmo_repulsion_energy": 1.86, 
			 "cosmo_total_nonelectrostatic_energy": 11.38, 
			 "SMD_solvation_energy": 7.29 
		},
		"coords": [
			{
				"x": 0.5666425141,
				"y": -0.5803772084,
				"z": -3.9781063967,
				"element": "C" 
			},
			{
				"x": 1.4685302157,
				"y": 0.0101545938,
				"z": -3.036379997,
				"element": "O" 
			},
			{
				"x": 1.0004005821,
				"y": 0.1469804449,
				"z": -1.7565103916,
				"element": "C" 
			},
			{
				"x": 0.7545826369,
				"y": -0.9682919052,
				"z": -0.9239416362,
				"element": "C" 
			},
			{
				"x": 0.9648218461,
				"y": -2.1949561976,
				"z": -1.482364875,
				"element": "O" 
			},
			{
				"x": 0.7664558435,
				"y": -3.345505981,
				"z": -0.6743043442,
				"element": "C" 
			},
			{
				"x": 0.3368586866,
				"y": -0.7555737431,
				"z": 0.3904326343,
				"element": "C" 
			},
			{
				"x": 0.1626522505,
				"y": 0.5335521304,
				"z": 0.9194990964,
				"element": "C" 
			},
			{
				"x": -0.2730570053,
				"y": 0.7041199622,
				"z": 2.3546944489,
				"element": "C" 
			},
			{
				"x": -1.714650325,
				"y": 1.1450261406,
				"z": 2.5814628297,
				"element": "C" 
			},
			{
				"x": -2.5429251545,
				"y": 0.7705796611,
				"z": 1.5800183378,
				"element": "O" 
			},
			{
				"x": -2.1012372248,
				"y": 1.7221211282,
				"z": 3.5718949288,
				"element": "O" 
			},
			{
				"x": 0.4236061336,
				"y": 1.6156567526,
				"z": 0.0764689861,
				"element": "C" 
			},
			{
				"x": 0.2099377752,
				"y": 3.4122970441,
				"z": 0.706916973,
				"element": "Br" 
			},
			{
				"x": 0.8312524394,
				"y": 1.428908585,
				"z": -1.2440739063,
				"element": "C" 
			},
			{
				"x": 1.0831698145,
				"y": -0.5644322092,
				"z": -4.9397379542,
				"element": "H" 
			},
			{
				"x": -0.3569758574,
				"y": 0.0075393881,
				"z": -4.054277063,
				"element": "H" 
			},
			{
				"x": 0.3238576051,
				"y": -1.6120516821,
				"z": -3.7091182454,
				"element": "H" 
			},
			{
				"x": 1.4343743731,
				"y": -3.3454336972,
				"z": 0.1962439605,
				"element": "H" 
			},
			{
				"x": -0.2729793511,
				"y": -3.4258325798,
				"z": -0.3312767779,
				"element": "H" 
			},
			{
				"x": 1.0031307004,
				"y": -4.2011738714,
				"z": -1.3080985362,
				"element": "H" 
			},
			{
				"x": 0.1437637708,
				"y": -1.6027406643,
				"z": 1.0381781214,
				"element": "H" 
			},
			{
				"x": -0.1625500484,
				"y": -0.2485632355,
				"z": 2.88669942,
				"element": "H" 
			},
			{
				"x": 0.3493117706,
				"y": 1.431726555,
				"z": 2.8810155159,
				"element": "H" 
			},
			{
				"x": -3.4267227281,
				"y": 1.0838676337,
				"z": 1.8367478391,
				"element": "H" 
			},
			{
				"x": 1.0330487365,
				"y": 2.2736029548,
				"z": -1.8915829683,
				"element": "H" 
			}
		],
		 "valence_orbital": [ 
			{
				"type": "occ",
				"energy": -0.28886,
				"method": "rhf"
			},
			{
				"type": "occ",
				"energy": -0.28093,
				"method": "rhf"
			},
			{
				"type": "occ",
				"energy": -0.27377,
				"method": "rhf"
			},
			{
				"type": "occ",
				"energy": -0.24636,
				"method": "rhf"
			},
			{
				"type": "occ",
				"energy": -0.21758,
				"method": "rhf"
			},
			{
				"type": "unocc",
				"energy": -0.01242,
				"method": "rhf"
			},
			{
				"type": "unocc",
				"energy": -0.00469,
				"method": "rhf"
			},
			{
				"type": "unocc",
				"energy": 0.0045,
				"method": "rhf"
			},
			{
				"type": "unocc",
				"energy": 0.01768,
				"method": "rhf"
			},
			{
				"type": "unocc",
				"energy": 0.07749,
				"method": "rhf"
			}
		],
		"cosmo_sigma_profile": { 
			"-0.025": 0.0,
			"-0.024": 0.0,
			"-0.023": 0.0,
			"-0.022": 0.0,
			"-0.021": 0.0,
			"-0.02": 0.0,
			"-0.019": 0.0449198025093,
			"-0.018": 0.847960857074,
			"-0.017": 0.836478372381,
			"-0.016": 0.752194141225,
			"-0.015": 0.772795615955,
			"-0.014": 0.943413927522,
			"-0.013": 0.731310286144,
			"-0.012": 0.526448144797,
			"-0.011": 0.578685762938,
			"-0.01": 0.836268747876,
			"-0.009": 1.07338517354,
			"-0.008": 4.93180508058,
			"-0.007": 6.62419770823,
			"-0.006": 13.423136901,
			"-0.005": 18.1846419868,
			"-0.004": 21.6808831515,
			"-0.003": 22.5087583609,
			"-0.002": 19.0247348558,
			"-0.001": 14.4470746556,
			"0.0": 13.0373997169,
			"0.001": 14.9508758904,
			"0.002": 20.9947694811,
			"0.003": 22.3283191586,
			"0.004": 16.1940463164,
			"0.005": 10.1269175587,
			"0.006": 3.99162859749,
			"0.007": 5.35660751898,
			"0.008": 6.05289914071,
			"0.009": 4.87266156946,
			"0.01": 4.67122848719,
			"0.011": 5.81015491133,
			"0.012": 4.90940458295,
			"0.013": 0.722799388509,
			"0.014": 0.0,
			"0.015": 0.0,
			"0.016": 0.0,
			"0.017": 0.0,
			"0.018": 0.0,
			"0.019": 0.0,
			"0.02": 0.0,
			"0.021": 0.0,
			"0.022": 0.0,
			"0.023": 0.0,
			"0.024": 0.0,
			"0.025": 0.0
		}
	}
}
