{
	 "smiles": "NCCCOCCCCOCCCN", 
	 "Tm": 277.65, 
	 "num_atms": 38, 
	 "gaussian": { 
		 "optdone": 1, 
		 "sigma_profile": "yes", 
		 "theory": "DFT", 
		 "functional": "B3LYP", 
		 "basiset": "6-31G**", 
		 "properties": { 
			 "R2extent": 8221.9271, 
			 "electric_dipole_moment_norm": 3.0148527974, 
			 "electric_quadrupole_moment_norm": 11.5289150938, 
			 "total_energy": -655.454295773, 
			 "HOMO_LUMO_gap": 0.30498, 
			 "cosmo_polarized_energy": -14.71, 
			 "cosmo_cavitation_energy": 39.73, 
			 "cosmo_dispersion_energy": -28.14, 
			 "cosmo_repulsion_energy": 2.38, 
			 "cosmo_total_nonelectrostatic_energy": 13.97, 
			 "SMD_solvation_energy": 3.68 
		},
		"coords": [
			{
				"x": -4.9535660311,
				"y": 1.5298709026,
				"z": -3.4263645644,
				"element": "N" 
			},
			{
				"x": -5.1026255037,
				"y": 0.1979502652,
				"z": -4.0289019196,
				"element": "C" 
			},
			{
				"x": -3.7463751476,
				"y": -0.5054560681,
				"z": -4.1445336836,
				"element": "C" 
			},
			{
				"x": -3.0940875076,
				"y": -0.7833786593,
				"z": -2.7869895523,
				"element": "C" 
			},
			{
				"x": -1.841601692,
				"y": -1.4466579797,
				"z": -2.9280291024,
				"element": "O" 
			},
			{
				"x": -0.7149936403,
				"y": -0.5841393055,
				"z": -3.006092115,
				"element": "C" 
			},
			{
				"x": -0.1715282791,
				"y": -0.1993652924,
				"z": -1.627863224,
				"element": "C" 
			},
			{
				"x": 1.0701305067,
				"y": 0.6963186888,
				"z": -1.7151312716,
				"element": "C" 
			},
			{
				"x": 1.656892584,
				"y": 1.052829339,
				"z": -0.3539201594,
				"element": "C" 
			},
			{
				"x": 2.0948087301,
				"y": -0.1354439649,
				"z": 0.2812933549,
				"element": "O" 
			},
			{
				"x": 2.6245082235,
				"y": 0.0804334457,
				"z": 1.5760419751,
				"element": "C" 
			},
			{
				"x": 3.0592233405,
				"y": -1.2594629076,
				"z": 2.1575750166,
				"element": "C" 
			},
			{
				"x": 3.6521625251,
				"y": -1.1388846809,
				"z": 3.5708441313,
				"element": "C" 
			},
			{
				"x": 4.0904522934,
				"y": -2.3924843188,
				"z": 4.1899144163,
				"element": "N" 
			},
			{
				"x": -4.4643182735,
				"y": 2.1436863501,
				"z": -4.0746969622,
				"element": "H" 
			},
			{
				"x": -5.8674684902,
				"y": 1.949110959,
				"z": -3.2747814972,
				"element": "H" 
			},
			{
				"x": -5.7598318486,
				"y": -0.3893727618,
				"z": -3.3741337039,
				"element": "H" 
			},
			{
				"x": -5.5849062513,
				"y": 0.2090447881,
				"z": -5.0220244664,
				"element": "H" 
			},
			{
				"x": -3.8707573359,
				"y": -1.4547889545,
				"z": -4.6787409426,
				"element": "H" 
			},
			{
				"x": -3.0700405581,
				"y": 0.1077965252,
				"z": -4.7570194292,
				"element": "H" 
			},
			{
				"x": -3.7365104093,
				"y": -1.452659629,
				"z": -2.2010498473,
				"element": "H" 
			},
			{
				"x": -2.9967413915,
				"y": 0.1506866624,
				"z": -2.2204695615,
				"element": "H" 
			},
			{
				"x": 0.0518233685,
				"y": -1.1329817273,
				"z": -3.5665679487,
				"element": "H" 
			},
			{
				"x": -0.9520784812,
				"y": 0.321221757,
				"z": -3.5887832526,
				"element": "H" 
			},
			{
				"x": 0.0719895321,
				"y": -1.1124038355,
				"z": -1.0759132676,
				"element": "H" 
			},
			{
				"x": -0.9553908375,
				"y": 0.3170597692,
				"z": -1.0574676714,
				"element": "H" 
			},
			{
				"x": 1.8498019074,
				"y": 0.199346662,
				"z": -2.3070582194,
				"element": "H" 
			},
			{
				"x": 0.8269566411,
				"y": 1.6320817088,
				"z": -2.236715241,
				"element": "H" 
			},
			{
				"x": 2.5005968179,
				"y": 1.7542984545,
				"z": -0.4730591302,
				"element": "H" 
			},
			{
				"x": 0.8985241376,
				"y": 1.5609741368,
				"z": 0.267890149,
				"element": "H" 
			},
			{
				"x": 1.8672884403,
				"y": 0.5537305994,
				"z": 2.2260266947,
				"element": "H" 
			},
			{
				"x": 3.4823289549,
				"y": 0.7748255825,
				"z": 1.5284585324,
				"element": "H" 
			},
			{
				"x": 3.7970140291,
				"y": -1.7125479015,
				"z": 1.4826211415,
				"element": "H" 
			},
			{
				"x": 2.1921006811,
				"y": -1.9324534511,
				"z": 2.1745716446,
				"element": "H" 
			},
			{
				"x": 2.915316511,
				"y": -0.6764642685,
				"z": 4.2405533503,
				"element": "H" 
			},
			{
				"x": 4.513124053,
				"y": -0.4579053698,
				"z": 3.5516436708,
				"element": "H" 
			},
			{
				"x": 3.3075146533,
				"y": -3.0416181879,
				"z": 4.2371998027,
				"element": "H" 
			},
			{
				"x": 4.786863748,
				"y": -2.8403973322,
				"z": 3.5974728533,
				"element": "H" 
			}
		],
		 "valence_orbital": [ 
			{
				"type": "occ",
				"energy": -0.28948,
				"method": "rhf"
			},
			{
				"type": "occ",
				"energy": -0.25035,
				"method": "rhf"
			},
			{
				"type": "occ",
				"energy": -0.24388,
				"method": "rhf"
			},
			{
				"type": "occ",
				"energy": -0.23035,
				"method": "rhf"
			},
			{
				"type": "occ",
				"energy": -0.22678,
				"method": "rhf"
			},
			{
				"type": "unocc",
				"energy": 0.0782,
				"method": "rhf"
			},
			{
				"type": "unocc",
				"energy": 0.08391,
				"method": "rhf"
			},
			{
				"type": "unocc",
				"energy": 0.0907,
				"method": "rhf"
			},
			{
				"type": "unocc",
				"energy": 0.10094,
				"method": "rhf"
			},
			{
				"type": "unocc",
				"energy": 0.11439,
				"method": "rhf"
			}
		],
		"cosmo_sigma_profile": { 
			"-0.025": 0.0,
			"-0.024": 0.0,
			"-0.023": 0.0,
			"-0.022": 0.0,
			"-0.021": 0.0,
			"-0.02": 0.0,
			"-0.019": 0.0,
			"-0.018": 0.0,
			"-0.017": 0.0,
			"-0.016": 0.0,
			"-0.015": 0.0,
			"-0.014": 0.0,
			"-0.013": 0.0,
			"-0.012": 0.0,
			"-0.011": 0.0,
			"-0.01": 0.502521410718,
			"-0.009": 4.75295378208,
			"-0.008": 5.47520952719,
			"-0.007": 5.69584090036,
			"-0.006": 6.71281977802,
			"-0.005": 5.21789451758,
			"-0.004": 10.6447211453,
			"-0.003": 53.8813295075,
			"-0.002": 57.6992503208,
			"-0.001": 43.2551012693,
			"0.0": 24.6787374216,
			"0.001": 15.2027992339,
			"0.002": 9.10596795309,
			"0.003": 6.25209404903,
			"0.004": 6.26875943492,
			"0.005": 5.85877800929,
			"0.006": 4.79160119965,
			"0.007": 5.17541244827,
			"0.008": 5.18161204451,
			"0.009": 4.11025286071,
			"0.01": 3.81215576358,
			"0.011": 3.80866750102,
			"0.012": 3.57574644048,
			"0.013": 3.42747264343,
			"0.014": 3.07137789437,
			"0.015": 1.60891680295,
			"0.016": 0.866419833053,
			"0.017": 1.38356552142,
			"0.018": 1.01598773118,
			"0.019": 0.576603048935,
			"0.02": 0.465005147607,
			"0.021": 0.0429487001108,
			"0.022": 0.0,
			"0.023": 0.0,
			"0.024": 0.0,
			"0.025": 0.0
		}
	}
}
