{
	 "smiles": "[O-][N+](=O)C1=CC=C(C=C1)C1=NOC=N1", 
	 "Tm": 440.15, 
	 "num_atms": 19, 
	 "gaussian": { 
		 "optdone": 1, 
		 "sigma_profile": "yes", 
		 "theory": "DFT", 
		 "functional": "B3LYP", 
		 "basiset": "6-31G**", 
		 "properties": { 
			 "R2extent": 3575.2548, 
			 "electric_dipole_moment_norm": 4.71530347168, 
			 "electric_quadrupole_moment_norm": 9.43766633443, 
			 "total_energy": -697.644465946, 
			 "HOMO_LUMO_gap": 0.17316, 
			 "cosmo_polarized_energy": -11.02, 
			 "cosmo_cavitation_energy": 25.43, 
			 "cosmo_dispersion_energy": -18.92, 
			 "cosmo_repulsion_energy": 1.45, 
			 "cosmo_total_nonelectrostatic_energy": 7.95, 
			 "SMD_solvation_energy": 5.97 
		},
		"coords": [
			{
				"x": 3.2398784566,
				"y": 1.8438528359,
				"z": -0.7451099548,
				"element": "O" 
			},
			{
				"x": 2.1226895287,
				"y": 1.8382242504,
				"z": -1.260195662,
				"element": "N" 
			},
			{
				"x": 1.7955000923,
				"y": 2.5098598276,
				"z": -2.2375742095,
				"element": "O" 
			},
			{
				"x": 1.1007521487,
				"y": 0.9620285799,
				"z": -0.6619115047,
				"element": "C" 
			},
			{
				"x": 1.4422443441,
				"y": 0.1883471438,
				"z": 0.4474863456,
				"element": "C" 
			},
			{
				"x": 0.4761189911,
				"y": -0.6367885056,
				"z": 1.0091592629,
				"element": "C" 
			},
			{
				"x": -0.8173676156,
				"y": -0.683403524,
				"z": 0.4621112409,
				"element": "C" 
			},
			{
				"x": -1.1357586652,
				"y": 0.1046809878,
				"z": -0.6541132306,
				"element": "C" 
			},
			{
				"x": -0.1741506463,
				"y": 0.933717144,
				"z": -1.2227003085,
				"element": "C" 
			},
			{
				"x": -1.8457494921,
				"y": -1.5530508724,
				"z": 1.0492636682,
				"element": "C" 
			},
			{
				"x": -1.620369652,
				"y": -2.3189206525,
				"z": 2.0946205696,
				"element": "N" 
			},
			{
				"x": -2.8476975593,
				"y": -2.9561355098,
				"z": 2.3037840777,
				"element": "O" 
			},
			{
				"x": -3.6741921231,
				"y": -2.4976560065,
				"z": 1.354665762,
				"element": "C" 
			},
			{
				"x": -3.1351373898,
				"y": -1.6378211838,
				"z": 0.5511959998,
				"element": "N" 
			},
			{
				"x": 2.4466852828,
				"y": 0.244877407,
				"z": 0.8473367665,
				"element": "H" 
			},
			{
				"x": 0.7143917303,
				"y": -1.2489070885,
				"z": 1.8719568812,
				"element": "H" 
			},
			{
				"x": -2.1374388761,
				"y": 0.058982144,
				"z": -1.0659031918,
				"element": "H" 
			},
			{
				"x": -0.3914919356,
				"y": 1.552594969,
				"z": -2.0839770772,
				"element": "H" 
			},
			{
				"x": -4.6855066195,
				"y": -2.8803819462,
				"z": 1.3522045647,
				"element": "H" 
			}
		],
		 "valence_orbital": [ 
			{
				"type": "occ",
				"energy": -0.31446,
				"method": "rhf"
			},
			{
				"type": "occ",
				"energy": -0.31171,
				"method": "rhf"
			},
			{
				"type": "occ",
				"energy": -0.29571,
				"method": "rhf"
			},
			{
				"type": "occ",
				"energy": -0.28645,
				"method": "rhf"
			},
			{
				"type": "occ",
				"energy": -0.27557,
				"method": "rhf"
			},
			{
				"type": "unocc",
				"energy": -0.10241,
				"method": "rhf"
			},
			{
				"type": "unocc",
				"energy": -0.05165,
				"method": "rhf"
			},
			{
				"type": "unocc",
				"energy": -0.03402,
				"method": "rhf"
			},
			{
				"type": "unocc",
				"energy": -0.01849,
				"method": "rhf"
			},
			{
				"type": "unocc",
				"energy": 0.05384,
				"method": "rhf"
			}
		],
		"cosmo_sigma_profile": { 
			"-0.025": 0.0,
			"-0.024": 0.0,
			"-0.023": 0.0,
			"-0.022": 0.0,
			"-0.021": 0.0,
			"-0.02": 0.0,
			"-0.019": 0.0,
			"-0.018": 0.0,
			"-0.017": 0.0,
			"-0.016": 0.0,
			"-0.015": 0.0,
			"-0.014": 0.0133656271657,
			"-0.013": 2.07726020786,
			"-0.012": 2.28180198445,
			"-0.011": 1.45823087882,
			"-0.01": 1.64931709644,
			"-0.009": 1.20489719492,
			"-0.008": 4.64922532001,
			"-0.007": 8.67031163724,
			"-0.006": 9.73153382929,
			"-0.005": 9.62569796339,
			"-0.004": 12.0833865933,
			"-0.003": 11.2985917337,
			"-0.002": 17.0558572991,
			"-0.001": 20.004383683,
			"0.0": 20.9441376793,
			"0.001": 14.9388128593,
			"0.002": 5.88434392267,
			"0.003": 5.84250385799,
			"0.004": 6.89940278984,
			"0.005": 8.54559595427,
			"0.006": 9.8693005801,
			"0.007": 10.5301999747,
			"0.008": 8.73561090868,
			"0.009": 6.48526394383,
			"0.01": 3.91805919323,
			"0.011": 1.79043572402,
			"0.012": 0.216205480427,
			"0.013": 0.0,
			"0.014": 0.0,
			"0.015": 0.0,
			"0.016": 0.0,
			"0.017": 0.0,
			"0.018": 0.0,
			"0.019": 0.0,
			"0.02": 0.0,
			"0.021": 0.0,
			"0.022": 0.0,
			"0.023": 0.0,
			"0.024": 0.0,
			"0.025": 0.0
		}
	}
}
