{
	 "smiles": "OC(=O)CCC(=O)NCC(=O)C1=C(Cl)C=CC=C1", 
	 "Tm": 425.15, 
	 "num_atms": 30, 
	 "gaussian": { 
		 "optdone": 1, 
		 "sigma_profile": "yes", 
		 "theory": "DFT", 
		 "functional": "B3LYP", 
		 "basiset": "6-31G**", 
		 "properties": { 
			 "R2extent": 4705.6789, 
			 "electric_dipole_moment_norm": 4.78687424109, 
			 "electric_quadrupole_moment_norm": 10.0088488629, 
			 "total_energy": -1280.37276795, 
			 "HOMO_LUMO_gap": 0.19578, 
			 "cosmo_polarized_energy": -23.52, 
			 "cosmo_cavitation_energy": 36.65, 
			 "cosmo_dispersion_energy": -23.89, 
			 "cosmo_repulsion_energy": 1.86, 
			 "cosmo_total_nonelectrostatic_energy": 14.62, 
			 "SMD_solvation_energy": 7.04 
		},
		"coords": [
			{
				"x": -2.4511174644,
				"y": -3.3382085694,
				"z": -1.7486720995,
				"element": "O" 
			},
			{
				"x": -2.3853122321,
				"y": -2.2843357914,
				"z": -0.9004205021,
				"element": "C" 
			},
			{
				"x": -3.1571506879,
				"y": -1.3536183098,
				"z": -0.9470997909,
				"element": "O" 
			},
			{
				"x": -1.3003742886,
				"y": -2.4698239957,
				"z": 0.1439658395,
				"element": "C" 
			},
			{
				"x": 0.0831911254,
				"y": -2.8328825056,
				"z": -0.4277161857,
				"element": "C" 
			},
			{
				"x": 0.6064158043,
				"y": -1.7239607652,
				"z": -1.3309468829,
				"element": "C" 
			},
			{
				"x": -0.0557724561,
				"y": -1.2837523537,
				"z": -2.2661836399,
				"element": "O" 
			},
			{
				"x": 1.8471911224,
				"y": -1.2309424425,
				"z": -1.0416027166,
				"element": "N" 
			},
			{
				"x": 2.3601116741,
				"y": -0.0985406816,
				"z": -1.7890838117,
				"element": "C" 
			},
			{
				"x": 1.50384005,
				"y": 1.1773066931,
				"z": -1.6866037957,
				"element": "C" 
			},
			{
				"x": 1.5067614721,
				"y": 1.976657058,
				"z": -2.6002598913,
				"element": "O" 
			},
			{
				"x": 0.6144712209,
				"y": 1.3933925176,
				"z": -0.4854005533,
				"element": "C" 
			},
			{
				"x": 1.0243386502,
				"y": 1.3451474245,
				"z": 0.8524849593,
				"element": "C" 
			},
			{
				"x": 2.720458444,
				"y": 1.0580821654,
				"z": 1.2747196328,
				"element": "Cl" 
			},
			{
				"x": 0.1314292047,
				"y": 1.5623735995,
				"z": 1.9009384751,
				"element": "C" 
			},
			{
				"x": -1.2109306781,
				"y": 1.8121365492,
				"z": 1.6135580267,
				"element": "C" 
			},
			{
				"x": -1.6469554963,
				"y": 1.8644259865,
				"z": 0.2883825167,
				"element": "C" 
			},
			{
				"x": -0.736268451,
				"y": 1.6724912496,
				"z": -0.7464991846,
				"element": "C" 
			},
			{
				"x": -3.1487148003,
				"y": -3.1239697087,
				"z": -2.3898671036,
				"element": "H" 
			},
			{
				"x": -1.6268262662,
				"y": -3.2771356224,
				"z": 0.8108727347,
				"element": "H" 
			},
			{
				"x": -1.2586364639,
				"y": -1.5488389539,
				"z": 0.7293438178,
				"element": "H" 
			},
			{
				"x": -0.0021087813,
				"y": -3.7411665169,
				"z": -1.0325358653,
				"element": "H" 
			},
			{
				"x": 0.7757407271,
				"y": -3.0455638248,
				"z": 0.3937927577,
				"element": "H" 
			},
			{
				"x": 2.306664378,
				"y": -1.4985994644,
				"z": -0.1846496289,
				"element": "H" 
			},
			{
				"x": 3.3714000317,
				"y": 0.122698118,
				"z": -1.4391454602,
				"element": "H" 
			},
			{
				"x": 2.4105192525,
				"y": -0.3325855515,
				"z": -2.8555542545,
				"element": "H" 
			},
			{
				"x": 0.488657752,
				"y": 1.5387131263,
				"z": 2.9245407261,
				"element": "H" 
			},
			{
				"x": -1.9108508088,
				"y": 1.9680138711,
				"z": 2.4289506289,
				"element": "H" 
			},
			{
				"x": -2.6917819218,
				"y": 2.0464031542,
				"z": 0.0608189572,
				"element": "H" 
			},
			{
				"x": -1.0590901128,
				"y": 1.7037835447,
				"z": -1.7810277055,
				"element": "H" 
			}
		],
		 "valence_orbital": [ 
			{
				"type": "occ",
				"energy": -0.26855,
				"method": "rhf"
			},
			{
				"type": "occ",
				"energy": -0.2678,
				"method": "rhf"
			},
			{
				"type": "occ",
				"energy": -0.2596,
				"method": "rhf"
			},
			{
				"type": "occ",
				"energy": -0.25676,
				"method": "rhf"
			},
			{
				"type": "occ",
				"energy": -0.2465,
				"method": "rhf"
			},
			{
				"type": "unocc",
				"energy": -0.05072,
				"method": "rhf"
			},
			{
				"type": "unocc",
				"energy": -0.01924,
				"method": "rhf"
			},
			{
				"type": "unocc",
				"energy": 0.00158,
				"method": "rhf"
			},
			{
				"type": "unocc",
				"energy": 0.00773,
				"method": "rhf"
			},
			{
				"type": "unocc",
				"energy": 0.0175,
				"method": "rhf"
			}
		],
		"cosmo_sigma_profile": { 
			"-0.025": 0.0,
			"-0.024": 0.0,
			"-0.023": 0.0,
			"-0.022": 0.0,
			"-0.021": 0.0,
			"-0.02": 0.0,
			"-0.019": 0.0,
			"-0.018": 0.495672097204,
			"-0.017": 1.02007711802,
			"-0.016": 0.517114453726,
			"-0.015": 1.03515758216,
			"-0.014": 1.59539458087,
			"-0.013": 2.02521261344,
			"-0.012": 1.22332245079,
			"-0.011": 1.82550291398,
			"-0.01": 3.00121423386,
			"-0.009": 2.50042570784,
			"-0.008": 5.06688977879,
			"-0.007": 13.4266241768,
			"-0.006": 18.5596453156,
			"-0.005": 18.7944531243,
			"-0.004": 18.8849079152,
			"-0.003": 22.2016707697,
			"-0.002": 16.9452290141,
			"-0.001": 16.6347910482,
			"0.0": 18.3077102639,
			"0.001": 18.5556578975,
			"0.002": 15.8398883528,
			"0.003": 16.5996782334,
			"0.004": 12.2327478008,
			"0.005": 7.04174107899,
			"0.006": 8.4436939612,
			"0.007": 8.33495962971,
			"0.008": 7.16726419363,
			"0.009": 7.00721802664,
			"0.01": 7.98304786633,
			"0.011": 9.03055296308,
			"0.012": 6.75029457666,
			"0.013": 3.2152094735,
			"0.014": 0.216851265332,
			"0.015": 0.0,
			"0.016": 0.0,
			"0.017": 0.0,
			"0.018": 0.0,
			"0.019": 0.0,
			"0.02": 0.0,
			"0.021": 0.0,
			"0.022": 0.0,
			"0.023": 0.0,
			"0.024": 0.0,
			"0.025": 0.0
		}
	}
}
