{
	 "smiles": "CCOC(=O)C1CN(CC2=CC=CC=C2)CCC1=O", 
	 "Tm": 435.15, 
	 "num_atms": 38, 
	 "gaussian": { 
		 "optdone": 1, 
		 "sigma_profile": "yes", 
		 "theory": "DFT", 
		 "functional": "B3LYP", 
		 "basiset": "6-31G**", 
		 "properties": { 
			 "R2extent": 6417.4364, 
			 "electric_dipole_moment_norm": 3.16891675025, 
			 "electric_quadrupole_moment_norm": 15.6476904698, 
			 "total_energy": -863.473959888, 
			 "HOMO_LUMO_gap": 0.20118, 
			 "cosmo_polarized_energy": -15.52, 
			 "cosmo_cavitation_energy": 40.53, 
			 "cosmo_dispersion_energy": -27.6, 
			 "cosmo_repulsion_energy": 2.18, 
			 "cosmo_total_nonelectrostatic_energy": 15.11, 
			 "SMD_solvation_energy": 6.65 
		},
		"coords": [
			{
				"x": -3.2034063773,
				"y": 3.2500115016,
				"z": -1.8681440692,
				"element": "C" 
			},
			{
				"x": -2.9504435901,
				"y": 2.8109291113,
				"z": -0.4387525205,
				"element": "C" 
			},
			{
				"x": -2.2981643741,
				"y": 1.5203966982,
				"z": -0.4891632074,
				"element": "O" 
			},
			{
				"x": -2.0151731805,
				"y": 0.9578147911,
				"z": 0.7022857112,
				"element": "C" 
			},
			{
				"x": -2.2176631075,
				"y": 1.4915428477,
				"z": 1.7709103015,
				"element": "O" 
			},
			{
				"x": -1.4005139637,
				"y": -0.419289553,
				"z": 0.5290854594,
				"element": "C" 
			},
			{
				"x": -0.2207181688,
				"y": -0.4500288694,
				"z": -0.5032158421,
				"element": "C" 
			},
			{
				"x": 0.3443012582,
				"y": -1.7783579781,
				"z": -0.7021440827,
				"element": "N" 
			},
			{
				"x": 1.2001865622,
				"y": -2.2566653978,
				"z": 0.3880681986,
				"element": "C" 
			},
			{
				"x": 2.4852558,
				"y": -1.4585873842,
				"z": 0.5181303299,
				"element": "C" 
			},
			{
				"x": 3.2555824719,
				"y": -1.1616963622,
				"z": -0.6151423382,
				"element": "C" 
			},
			{
				"x": 4.4578488813,
				"y": -0.4669247954,
				"z": -0.4924232843,
				"element": "C" 
			},
			{
				"x": 4.9096902454,
				"y": -0.0593589234,
				"z": 0.7660678718,
				"element": "C" 
			},
			{
				"x": 4.1484887444,
				"y": -0.3472650306,
				"z": 1.8988238974,
				"element": "C" 
			},
			{
				"x": 2.9418256985,
				"y": -1.0400238638,
				"z": 1.7725062609,
				"element": "C" 
			},
			{
				"x": -0.6774436681,
				"y": -2.7237885563,
				"z": -1.1376326305,
				"element": "C" 
			},
			{
				"x": -1.8854068512,
				"y": -2.8318664092,
				"z": -0.1658207028,
				"element": "C" 
			},
			{
				"x": -2.457075817,
				"y": -1.4573278613,
				"z": 0.132696871,
				"element": "C" 
			},
			{
				"x": -3.641122871,
				"y": -1.1961326599,
				"z": 0.0480597295,
				"element": "O" 
			},
			{
				"x": -3.7004236477,
				"y": 4.2251331194,
				"z": -1.8739190518,
				"element": "H" 
			},
			{
				"x": -3.8451992583,
				"y": 2.5330539449,
				"z": -2.3878351734,
				"element": "H" 
			},
			{
				"x": -2.2649426619,
				"y": 3.3398521704,
				"z": -2.4232262052,
				"element": "H" 
			},
			{
				"x": -3.8784466183,
				"y": 2.708564805,
				"z": 0.131614459,
				"element": "H" 
			},
			{
				"x": -2.3053734076,
				"y": 3.5113961608,
				"z": 0.1011474764,
				"element": "H" 
			},
			{
				"x": -1.0148988171,
				"y": -0.7067977867,
				"z": 1.5145413048,
				"element": "H" 
			},
			{
				"x": -0.5954222679,
				"y": -0.07873613,
				"z": -1.4621986383,
				"element": "H" 
			},
			{
				"x": 0.5691712049,
				"y": 0.230330335,
				"z": -0.1747007837,
				"element": "H" 
			},
			{
				"x": 1.4491007754,
				"y": -3.3003483621,
				"z": 0.1554165902,
				"element": "H" 
			},
			{
				"x": 0.6957126485,
				"y": -2.2771561861,
				"z": 1.371006849,
				"element": "H" 
			},
			{
				"x": 2.8935259057,
				"y": -1.4705073152,
				"z": -1.5912482636,
				"element": "H" 
			},
			{
				"x": 5.0447017383,
				"y": -0.2429897023,
				"z": -1.3790227446,
				"element": "H" 
			},
			{
				"x": 5.8464924861,
				"y": 0.4823203541,
				"z": 0.8607279817,
				"element": "H" 
			},
			{
				"x": 4.4876252762,
				"y": -0.0280630572,
				"z": 2.8802526941,
				"element": "H" 
			},
			{
				"x": 2.3492296443,
				"y": -1.2571458584,
				"z": 2.6583161733,
				"element": "H" 
			},
			{
				"x": -0.2206836152,
				"y": -3.708930427,
				"z": -1.2768437155,
				"element": "H" 
			},
			{
				"x": -1.0450928365,
				"y": -2.3979641081,
				"z": -2.1189050636,
				"element": "H" 
			},
			{
				"x": -1.5510556942,
				"y": -3.281590846,
				"z": 0.7789807644,
				"element": "H" 
			},
			{
				"x": -2.6800685475,
				"y": -3.4605024157,
				"z": -0.5768006064,
				"element": "H" 
			}
		],
		 "valence_orbital": [ 
			{
				"type": "occ",
				"energy": -0.27061,
				"method": "rhf"
			},
			{
				"type": "occ",
				"energy": -0.25253,
				"method": "rhf"
			},
			{
				"type": "occ",
				"energy": -0.24868,
				"method": "rhf"
			},
			{
				"type": "occ",
				"energy": -0.24512,
				"method": "rhf"
			},
			{
				"type": "occ",
				"energy": -0.22347,
				"method": "rhf"
			},
			{
				"type": "unocc",
				"energy": -0.02229,
				"method": "rhf"
			},
			{
				"type": "unocc",
				"energy": -0.00644,
				"method": "rhf"
			},
			{
				"type": "unocc",
				"energy": -0.00328,
				"method": "rhf"
			},
			{
				"type": "unocc",
				"energy": 0.0127,
				"method": "rhf"
			},
			{
				"type": "unocc",
				"energy": 0.07593,
				"method": "rhf"
			}
		],
		"cosmo_sigma_profile": { 
			"-0.025": 0.0,
			"-0.024": 0.0,
			"-0.023": 0.0,
			"-0.022": 0.0,
			"-0.021": 0.0,
			"-0.02": 0.0,
			"-0.019": 0.0,
			"-0.018": 0.0,
			"-0.017": 0.0,
			"-0.016": 0.0,
			"-0.015": 0.0,
			"-0.014": 0.0,
			"-0.013": 0.0,
			"-0.012": 0.0,
			"-0.011": 0.0,
			"-0.01": 0.0,
			"-0.009": 0.528542209986,
			"-0.008": 2.08776004963,
			"-0.007": 4.3653679383,
			"-0.006": 11.8806253442,
			"-0.005": 33.2644302619,
			"-0.004": 37.4468949218,
			"-0.003": 37.4894409781,
			"-0.002": 30.1478744863,
			"-0.001": 23.1632969029,
			"0.0": 20.0703024266,
			"0.001": 15.4023286986,
			"0.002": 14.0136714995,
			"0.003": 13.3225180138,
			"0.004": 12.0349122026,
			"0.005": 13.4399512585,
			"0.006": 13.3174129694,
			"0.007": 5.75463533552,
			"0.008": 4.49485842426,
			"0.009": 4.84089607378,
			"0.01": 4.65628216576,
			"0.011": 7.54262970538,
			"0.012": 7.49156491118,
			"0.013": 1.66780538506,
			"0.014": 0.0,
			"0.015": 0.0,
			"0.016": 0.0,
			"0.017": 0.0,
			"0.018": 0.0,
			"0.019": 0.0,
			"0.02": 0.0,
			"0.021": 0.0,
			"0.022": 0.0,
			"0.023": 0.0,
			"0.024": 0.0,
			"0.025": 0.0
		}
	}
}
