{
	 "smiles": "O=C1C=C(N2CC2)C(=O)C(N2CC2)=C1N1CC1", 
	 "Tm": 436.15, 
	 "num_atms": 30, 
	 "gaussian": { 
		 "optdone": 1, 
		 "sigma_profile": "yes", 
		 "theory": "DFT", 
		 "functional": "B3LYP", 
		 "basiset": "6-31G**", 
		 "properties": { 
			 "R2extent": 4889.7251, 
			 "electric_dipole_moment_norm": 2.42606357295, 
			 "electric_quadrupole_moment_norm": 21.5197813044, 
			 "total_energy": -779.638903274, 
			 "HOMO_LUMO_gap": 0.10982, 
			 "cosmo_polarized_energy": -12.96, 
			 "cosmo_cavitation_energy": 33.55, 
			 "cosmo_dispersion_energy": -23.67, 
			 "cosmo_repulsion_energy": 1.83, 
			 "cosmo_total_nonelectrostatic_energy": 11.7, 
			 "SMD_solvation_energy": 0.18 
		},
		"coords": [
			{
				"x": -3.3430707672,
				"y": 0.7453728882,
				"z": -1.8717130168,
				"element": "O" 
			},
			{
				"x": -2.1489220889,
				"y": 0.4546518345,
				"z": -1.8456648776,
				"element": "C" 
			},
			{
				"x": -1.4144768531,
				"y": 0.1049759297,
				"z": -3.0498256064,
				"element": "C" 
			},
			{
				"x": -0.0875312911,
				"y": -0.1744052572,
				"z": -3.0117008584,
				"element": "C" 
			},
			{
				"x": 0.626924514,
				"y": -0.6172513394,
				"z": -4.0997856358,
				"element": "N" 
			},
			{
				"x": 0.545522749,
				"y": -0.0628650323,
				"z": -5.4370573409,
				"element": "C" 
			},
			{
				"x": 1.8202594039,
				"y": -0.0034341498,
				"z": -4.6430617381,
				"element": "C" 
			},
			{
				"x": 0.6879680356,
				"y": -0.1097135602,
				"z": -1.7083896811,
				"element": "C" 
			},
			{
				"x": 1.9031176409,
				"y": -0.322955725,
				"z": -1.7321389114,
				"element": "O" 
			},
			{
				"x": -0.0388194082,
				"y": 0.2133581682,
				"z": -0.4786827014,
				"element": "C" 
			},
			{
				"x": 0.5867737074,
				"y": 0.2481782065,
				"z": 0.8008174301,
				"element": "N" 
			},
			{
				"x": 1.9703594638,
				"y": 0.7025444022,
				"z": 1.0018633665,
				"element": "C" 
			},
			{
				"x": 1.6104234793,
				"y": -0.7289384325,
				"z": 1.1947033049,
				"element": "C" 
			},
			{
				"x": -1.3896203825,
				"y": 0.4757219517,
				"z": -0.531142609,
				"element": "C" 
			},
			{
				"x": -2.1639510117,
				"y": 0.6682456696,
				"z": 0.5772772615,
				"element": "N" 
			},
			{
				"x": -3.1414551622,
				"y": 1.7098255335,
				"z": 0.8124869026,
				"element": "C" 
			},
			{
				"x": -1.9364553725,
				"y": 1.5524625664,
				"z": 1.6977848536,
				"element": "C" 
			},
			{
				"x": -1.9845427294,
				"y": 0.0706200894,
				"z": -3.9723260318,
				"element": "H" 
			},
			{
				"x": 0.4383125383,
				"y": -0.7832763435,
				"z": -6.2441406671,
				"element": "H" 
			},
			{
				"x": -0.0179573981,
				"y": 0.8611026712,
				"z": -5.5620897235,
				"element": "H" 
			},
			{
				"x": 2.1218006279,
				"y": 0.9601965358,
				"z": -4.2403391166,
				"element": "H" 
			},
			{
				"x": 2.6376265109,
				"y": -0.6829411569,
				"z": -4.8675601101,
				"element": "H" 
			},
			{
				"x": 2.5716143221,
				"y": 0.9386051033,
				"z": 0.1307193524,
				"element": "H" 
			},
			{
				"x": 2.1029722082,
				"y": 1.3552319456,
				"z": 1.8632745904,
				"element": "H" 
			},
			{
				"x": 1.9738638431,
				"y": -1.4245387898,
				"z": 0.4445678791,
				"element": "H" 
			},
			{
				"x": 1.4808905844,
				"y": -1.1373896371,
				"z": 2.1950664434,
				"element": "H" 
			},
			{
				"x": -4.1171603445,
				"y": 1.36969086,
				"z": 1.1494614462,
				"element": "H" 
			},
			{
				"x": -3.1658688508,
				"y": 2.5459108348,
				"z": 0.1187408672,
				"element": "H" 
			},
			{
				"x": -2.0344543271,
				"y": 1.1003508637,
				"z": 2.6814155378,
				"element": "H" 
			},
			{
				"x": -1.1325436416,
				"y": 2.2775633692,
				"z": 1.6053393902,
				"element": "H" 
			}
		],
		 "valence_orbital": [ 
			{
				"type": "occ",
				"energy": -0.26997,
				"method": "rhf"
			},
			{
				"type": "occ",
				"energy": -0.25071,
				"method": "rhf"
			},
			{
				"type": "occ",
				"energy": -0.23731,
				"method": "rhf"
			},
			{
				"type": "occ",
				"energy": -0.22565,
				"method": "rhf"
			},
			{
				"type": "occ",
				"energy": -0.20934,
				"method": "rhf"
			},
			{
				"type": "unocc",
				"energy": -0.09952,
				"method": "rhf"
			},
			{
				"type": "unocc",
				"energy": 0.00807,
				"method": "rhf"
			},
			{
				"type": "unocc",
				"energy": 0.02876,
				"method": "rhf"
			},
			{
				"type": "unocc",
				"energy": 0.09501,
				"method": "rhf"
			},
			{
				"type": "unocc",
				"energy": 0.10008,
				"method": "rhf"
			}
		],
		"cosmo_sigma_profile": { 
			"-0.025": 0.0,
			"-0.024": 0.0,
			"-0.023": 0.0,
			"-0.022": 0.0,
			"-0.021": 0.0,
			"-0.02": 0.0,
			"-0.019": 0.0,
			"-0.018": 0.0,
			"-0.017": 0.0,
			"-0.016": 0.0,
			"-0.015": 0.0,
			"-0.014": 0.0,
			"-0.013": 0.0,
			"-0.012": 0.0,
			"-0.011": 0.0,
			"-0.01": 0.0,
			"-0.009": 0.0,
			"-0.008": 0.0,
			"-0.007": 7.14223979052,
			"-0.006": 19.7898647916,
			"-0.005": 21.6868442561,
			"-0.004": 23.579673653,
			"-0.003": 27.0772957787,
			"-0.002": 24.8305831711,
			"-0.001": 23.6850194722,
			"0.0": 20.479449676,
			"0.001": 19.0797930712,
			"0.002": 13.1653456451,
			"0.003": 9.44004164504,
			"0.004": 6.39272500114,
			"0.005": 6.26842090533,
			"0.006": 6.06858521214,
			"0.007": 6.64855467816,
			"0.008": 6.7467681128,
			"0.009": 6.49476265181,
			"0.01": 7.15691374851,
			"0.011": 5.31435050825,
			"0.012": 4.49227857724,
			"0.013": 1.43628251271,
			"0.014": 0.147517950437,
			"0.015": 0.0,
			"0.016": 0.0,
			"0.017": 0.0,
			"0.018": 0.0,
			"0.019": 0.0,
			"0.02": 0.0,
			"0.021": 0.0,
			"0.022": 0.0,
			"0.023": 0.0,
			"0.024": 0.0,
			"0.025": 0.0
		}
	}
}
