{
	 "smiles": "NC(=O)OC1=CC=CC=C1", 
	 "Tm": 423.15, 
	 "num_atms": 17, 
	 "gaussian": { 
		 "optdone": 1, 
		 "sigma_profile": "yes", 
		 "theory": "DFT", 
		 "functional": "B3LYP", 
		 "basiset": "6-31G**", 
		 "properties": { 
			 "R2extent": 1692.829, 
			 "electric_dipole_moment_norm": 2.47021034529, 
			 "electric_quadrupole_moment_norm": 14.6764147901, 
			 "total_energy": -476.180903891, 
			 "HOMO_LUMO_gap": 0.23447, 
			 "cosmo_polarized_energy": -11.51, 
			 "cosmo_cavitation_energy": 21.65, 
			 "cosmo_dispersion_energy": -16.23, 
			 "cosmo_repulsion_energy": 1.34, 
			 "cosmo_total_nonelectrostatic_energy": 6.77, 
			 "SMD_solvation_energy": 5.19 
		},
		"coords": [
			{
				"x": -3.0376091434,
				"y": -1.8624194039,
				"z": 1.2959418107,
				"element": "N" 
			},
			{
				"x": -2.4635699635,
				"y": -0.9598796863,
				"z": 0.4492408275,
				"element": "C" 
			},
			{
				"x": -3.0550667719,
				"y": -0.2627113016,
				"z": -0.3449786231,
				"element": "O" 
			},
			{
				"x": -1.1055150307,
				"y": -0.9596103453,
				"z": 0.669375984,
				"element": "O" 
			},
			{
				"x": -0.2707791994,
				"y": -0.0884165426,
				"z": -0.0270571546,
				"element": "C" 
			},
			{
				"x": -0.5832772586,
				"y": 1.2530389993,
				"z": -0.2522259018,
				"element": "C" 
			},
			{
				"x": 0.3572056967,
				"y": 2.061847473,
				"z": -0.8924353524,
				"element": "C" 
			},
			{
				"x": 1.5913816334,
				"y": 1.5467490358,
				"z": -1.2935175057,
				"element": "C" 
			},
			{
				"x": 1.8894429786,
				"y": 0.2041461001,
				"z": -1.0531316442,
				"element": "C" 
			},
			{
				"x": 0.9574373334,
				"y": -0.618664901,
				"z": -0.4212141777,
				"element": "C" 
			},
			{
				"x": -4.0058095452,
				"y": -2.0838072323,
				"z": 1.1326415856,
				"element": "H" 
			},
			{
				"x": -2.4596244633,
				"y": -2.5228634835,
				"z": 1.7900254426,
				"element": "H" 
			},
			{
				"x": -1.5438886596,
				"y": 1.6472600524,
				"z": 0.0507496349,
				"element": "H" 
			},
			{
				"x": 0.1186774698,
				"y": 3.1055876944,
				"z": -1.0754003113,
				"element": "H" 
			},
			{
				"x": 2.3151685696,
				"y": 2.1869535323,
				"z": -1.7887487671,
				"element": "H" 
			},
			{
				"x": 2.8469455974,
				"y": -0.2075513348,
				"z": -1.3585911038,
				"element": "H" 
			},
			{
				"x": 1.1672807567,
				"y": -1.6648586561,
				"z": -0.2239747436,
				"element": "H" 
			}
		],
		 "valence_orbital": [ 
			{
				"type": "occ",
				"energy": -0.31957,
				"method": "rhf"
			},
			{
				"type": "occ",
				"energy": -0.28241,
				"method": "rhf"
			},
			{
				"type": "occ",
				"energy": -0.27651,
				"method": "rhf"
			},
			{
				"type": "occ",
				"energy": -0.24901,
				"method": "rhf"
			},
			{
				"type": "occ",
				"energy": -0.23454,
				"method": "rhf"
			},
			{
				"type": "unocc",
				"energy": -7e-05,
				"method": "rhf"
			},
			{
				"type": "unocc",
				"energy": 0.00176,
				"method": "rhf"
			},
			{
				"type": "unocc",
				"energy": 0.05237,
				"method": "rhf"
			},
			{
				"type": "unocc",
				"energy": 0.07831,
				"method": "rhf"
			},
			{
				"type": "unocc",
				"energy": 0.09316,
				"method": "rhf"
			}
		],
		"cosmo_sigma_profile": { 
			"-0.025": 0.0,
			"-0.024": 0.0,
			"-0.023": 0.0,
			"-0.022": 0.0,
			"-0.021": 0.0,
			"-0.02": 0.0,
			"-0.019": 0.0,
			"-0.018": 0.0,
			"-0.017": 0.0,
			"-0.016": 0.0,
			"-0.015": 0.984755939379,
			"-0.014": 2.2874921307,
			"-0.013": 2.57649429261,
			"-0.012": 2.20989829555,
			"-0.011": 1.56860200793,
			"-0.01": 2.05795095812,
			"-0.009": 1.79270204349,
			"-0.008": 2.09771620992,
			"-0.007": 1.54530664152,
			"-0.006": 8.15394468821,
			"-0.005": 11.9080334797,
			"-0.004": 11.292028323,
			"-0.003": 11.3751136371,
			"-0.002": 10.2140131316,
			"-0.001": 10.1235847303,
			"0.0": 10.4707403812,
			"0.001": 8.58662978346,
			"0.002": 11.5123014599,
			"0.003": 13.784340874,
			"0.004": 12.062434554,
			"0.005": 13.1902223996,
			"0.006": 5.31770206741,
			"0.007": 2.61241262796,
			"0.008": 1.6490639941,
			"0.009": 1.79590632462,
			"0.01": 2.04870064446,
			"0.011": 1.66877601204,
			"0.012": 4.38925034193,
			"0.013": 3.5842622644,
			"0.014": 0.0837410497565,
			"0.015": 0.0,
			"0.016": 0.0,
			"0.017": 0.0,
			"0.018": 0.0,
			"0.019": 0.0,
			"0.02": 0.0,
			"0.021": 0.0,
			"0.022": 0.0,
			"0.023": 0.0,
			"0.024": 0.0,
			"0.025": 0.0
		}
	}
}
