{
	 "smiles": "NC1=NN(C=C1C#N)C1=CC=C(N)C=C1", 
	 "Tm": 469.15, 
	 "num_atms": 24, 
	 "gaussian": { 
		 "optdone": 1, 
		 "sigma_profile": "yes", 
		 "theory": "DFT", 
		 "functional": "B3LYP", 
		 "basiset": "6-31G**", 
		 "properties": { 
			 "R2extent": 4324.4108, 
			 "electric_dipole_moment_norm": 6.15832960631, 
			 "electric_quadrupole_moment_norm": 20.6130080393, 
			 "total_energy": -660.216694032, 
			 "HOMO_LUMO_gap": 0.16747, 
			 "cosmo_polarized_energy": -20.05, 
			 "cosmo_cavitation_energy": 30.09, 
			 "cosmo_dispersion_energy": -21.63, 
			 "cosmo_repulsion_energy": 1.7, 
			 "cosmo_total_nonelectrostatic_energy": 10.15, 
			 "SMD_solvation_energy": 5.94 
		},
		"coords": [
			{
				"x": -1.479058012,
				"y": 0.5879156706,
				"z": -4.0604723292,
				"element": "N" 
			},
			{
				"x": -0.9754923778,
				"y": 0.1566942109,
				"z": -2.8520509477,
				"element": "C" 
			},
			{
				"x": -0.7725038851,
				"y": 0.9882537984,
				"z": -1.8374904976,
				"element": "N" 
			},
			{
				"x": -0.2108391117,
				"y": 0.2174099756,
				"z": -0.84999668,
				"element": "N" 
			},
			{
				"x": -0.0633167298,
				"y": -1.0694802454,
				"z": -1.2281270235,
				"element": "C" 
			},
			{
				"x": -0.5540142496,
				"y": -1.1733457987,
				"z": -2.5262469229,
				"element": "C" 
			},
			{
				"x": -0.6275809436,
				"y": -2.3163350604,
				"z": -3.3537755423,
				"element": "C" 
			},
			{
				"x": -0.7147567866,
				"y": -3.2354871426,
				"z": -4.0656183133,
				"element": "N" 
			},
			{
				"x": 0.1523878023,
				"y": 0.8117629001,
				"z": 0.3882370702,
				"element": "C" 
			},
			{
				"x": 0.2218724453,
				"y": 0.0461510391,
				"z": 1.5561919712,
				"element": "C" 
			},
			{
				"x": 0.6087421268,
				"y": 0.6333271662,
				"z": 2.7560007612,
				"element": "C" 
			},
			{
				"x": 0.9135556858,
				"y": 2.0041023471,
				"z": 2.8236536421,
				"element": "C" 
			},
			{
				"x": 1.2380400959,
				"y": 2.6051633849,
				"z": 4.0379156087,
				"element": "N" 
			},
			{
				"x": 0.816746663,
				"y": 2.7648161377,
				"z": 1.6442529112,
				"element": "C" 
			},
			{
				"x": 0.4456149227,
				"y": 2.1782371259,
				"z": 0.4410384325,
				"element": "C" 
			},
			{
				"x": -1.9690524549,
				"y": 1.4706087964,
				"z": -4.0127322817,
				"element": "H" 
			},
			{
				"x": -1.9618956494,
				"y": -0.1149149909,
				"z": -4.6025355493,
				"element": "H" 
			},
			{
				"x": 0.3886709814,
				"y": -1.8159412807,
				"z": -0.5942185617,
				"element": "H" 
			},
			{
				"x": -0.0425245514,
				"y": -1.0063088524,
				"z": 1.5408838575,
				"element": "H" 
			},
			{
				"x": 0.6528427322,
				"y": 0.0280396074,
				"z": 3.6574852078,
				"element": "H" 
			},
			{
				"x": 1.6210689298,
				"y": 1.9897114988,
				"z": 4.741651442,
				"element": "H" 
			},
			{
				"x": 1.7499797468,
				"y": 3.4736222461,
				"z": 3.9708568776,
				"element": "H" 
			},
			{
				"x": 1.038529401,
				"y": 3.8284837419,
				"z": 1.6737136302,
				"element": "H" 
			},
			{
				"x": 0.3772832192,
				"y": 2.766113724,
				"z": -0.4662167631,
				"element": "H" 
			}
		],
		 "valence_orbital": [ 
			{
				"type": "occ",
				"energy": -0.29714,
				"method": "rhf"
			},
			{
				"type": "occ",
				"energy": -0.26301,
				"method": "rhf"
			},
			{
				"type": "occ",
				"energy": -0.25363,
				"method": "rhf"
			},
			{
				"type": "occ",
				"energy": -0.23532,
				"method": "rhf"
			},
			{
				"type": "occ",
				"energy": -0.19726,
				"method": "rhf"
			},
			{
				"type": "unocc",
				"energy": -0.02979,
				"method": "rhf"
			},
			{
				"type": "unocc",
				"energy": -0.01284,
				"method": "rhf"
			},
			{
				"type": "unocc",
				"energy": 0.01864,
				"method": "rhf"
			},
			{
				"type": "unocc",
				"energy": 0.03263,
				"method": "rhf"
			},
			{
				"type": "unocc",
				"energy": 0.04317,
				"method": "rhf"
			}
		],
		"cosmo_sigma_profile": { 
			"-0.025": 0.0,
			"-0.024": 0.0,
			"-0.023": 0.0,
			"-0.022": 0.0,
			"-0.021": 0.0,
			"-0.02": 0.0,
			"-0.019": 0.0,
			"-0.018": 0.0,
			"-0.017": 0.0,
			"-0.016": 0.0,
			"-0.015": 0.0,
			"-0.014": 0.352203994277,
			"-0.013": 3.01591172154,
			"-0.012": 5.11894331924,
			"-0.011": 6.71256978623,
			"-0.01": 7.84314374008,
			"-0.009": 7.636203636,
			"-0.008": 8.73662102423,
			"-0.007": 7.18345930164,
			"-0.006": 9.49892657829,
			"-0.005": 10.9880095143,
			"-0.004": 11.195207334,
			"-0.003": 9.25965775069,
			"-0.002": 9.75624866965,
			"-0.001": 10.2459156625,
			"0.0": 13.5353308632,
			"0.001": 17.3450843496,
			"0.002": 14.4742639408,
			"0.003": 11.2185355065,
			"0.004": 12.4746079434,
			"0.005": 18.2380298176,
			"0.006": 7.57494121144,
			"0.007": 5.98907542236,
			"0.008": 5.74410221064,
			"0.009": 6.31413831907,
			"0.01": 6.31881480796,
			"0.011": 5.47971413795,
			"0.012": 4.37074655471,
			"0.013": 3.86854870279,
			"0.014": 1.14595119931,
			"0.015": 0.0,
			"0.016": 0.0,
			"0.017": 0.0,
			"0.018": 0.0,
			"0.019": 0.0,
			"0.02": 0.0,
			"0.021": 0.0,
			"0.022": 0.0,
			"0.023": 0.0,
			"0.024": 0.0,
			"0.025": 0.0
		}
	}
}
