{
	 "smiles": "NCC1=NN=NN1", 
	 "Tm": 543.15, 
	 "num_atms": 12, 
	 "gaussian": { 
		 "optdone": 1, 
		 "sigma_profile": "yes", 
		 "theory": "DFT", 
		 "functional": "B3LYP", 
		 "basiset": "6-31G**", 
		 "properties": { 
			 "R2extent": 1071.7161, 
			 "electric_dipole_moment_norm": 4.37847976928, 
			 "electric_quadrupole_moment_norm": 15.9998718845, 
			 "total_energy": -352.919705172, 
			 "HOMO_LUMO_gap": 0.24127, 
			 "cosmo_polarized_energy": -19.66, 
			 "cosmo_cavitation_energy": 16.44, 
			 "cosmo_dispersion_energy": -12.47, 
			 "cosmo_repulsion_energy": 1.08, 
			 "cosmo_total_nonelectrostatic_energy": 5.05, 
			 "SMD_solvation_energy": -0.08 
		},
		"coords": [
			{
				"x": -1.547317148,
				"y": 1.042912117,
				"z": -1.4050749436,
				"element": "N" 
			},
			{
				"x": -0.7396179205,
				"y": 0.4011429167,
				"z": -0.38108801,
				"element": "C" 
			},
			{
				"x": 0.7328519855,
				"y": 0.7341816191,
				"z": -0.4245927554,
				"element": "C" 
			},
			{
				"x": 1.3216184399,
				"y": 1.5356694389,
				"z": -1.291490952,
				"element": "N" 
			},
			{
				"x": 2.6478777441,
				"y": 1.5479333868,
				"z": -0.9659105561,
				"element": "N" 
			},
			{
				"x": 2.886229238,
				"y": 0.7957809892,
				"z": 0.0535211643,
				"element": "N" 
			},
			{
				"x": 1.6874221274,
				"y": 0.2694368122,
				"z": 0.4125735587,
				"element": "N" 
			},
			{
				"x": -1.4360599484,
				"y": 2.051908583,
				"z": -1.3363196921,
				"element": "H" 
			},
			{
				"x": -1.1816421892,
				"y": 0.7985216901,
				"z": -2.3225357166,
				"element": "H" 
			},
			{
				"x": -1.1356384518,
				"y": 0.6733812761,
				"z": 0.6058218083,
				"element": "H" 
			},
			{
				"x": -0.8596254199,
				"y": -0.6867921992,
				"z": -0.4643701032,
				"element": "H" 
			},
			{
				"x": 1.6271015431,
				"y": -0.3612766299,
				"z": 1.1989661977,
				"element": "H" 
			}
		],
		 "valence_orbital": [ 
			{
				"type": "occ",
				"energy": -0.32779,
				"method": "rhf"
			},
			{
				"type": "occ",
				"energy": -0.30171,
				"method": "rhf"
			},
			{
				"type": "occ",
				"energy": -0.29817,
				"method": "rhf"
			},
			{
				"type": "occ",
				"energy": -0.28844,
				"method": "rhf"
			},
			{
				"type": "occ",
				"energy": -0.26064,
				"method": "rhf"
			},
			{
				"type": "unocc",
				"energy": -0.01937,
				"method": "rhf"
			},
			{
				"type": "unocc",
				"energy": 0.02162,
				"method": "rhf"
			},
			{
				"type": "unocc",
				"energy": 0.0556,
				"method": "rhf"
			},
			{
				"type": "unocc",
				"energy": 0.07399,
				"method": "rhf"
			},
			{
				"type": "unocc",
				"energy": 0.12029,
				"method": "rhf"
			}
		],
		"cosmo_sigma_profile": { 
			"-0.025": 0.0,
			"-0.024": 0.0,
			"-0.023": 0.0,
			"-0.022": 0.0,
			"-0.021": 0.0,
			"-0.02": 0.0,
			"-0.019": 1.16593210212,
			"-0.018": 1.96642782057,
			"-0.017": 1.62785150808,
			"-0.016": 0.931702782043,
			"-0.015": 0.867752917692,
			"-0.014": 1.63434585247,
			"-0.013": 1.20044991675,
			"-0.012": 0.540706252947,
			"-0.011": 1.43826799075,
			"-0.01": 3.52811777421,
			"-0.009": 4.16219674635,
			"-0.008": 5.04730929183,
			"-0.007": 9.19290165925,
			"-0.006": 7.82601419709,
			"-0.005": 6.95225719753,
			"-0.004": 4.49515409537,
			"-0.003": 6.87465610811,
			"-0.002": 5.44499102573,
			"-0.001": 4.01040339121,
			"0.0": 3.30677494355,
			"0.001": 2.834304822,
			"0.002": 3.61666733038,
			"0.003": 3.31313439231,
			"0.004": 2.46324841617,
			"0.005": 3.46099261361,
			"0.006": 2.94069890785,
			"0.007": 4.10240855049,
			"0.008": 5.77715328888,
			"0.009": 5.67545682885,
			"0.01": 5.21658469489,
			"0.011": 5.09966473404,
			"0.012": 4.07322560696,
			"0.013": 3.63391871012,
			"0.014": 2.31975469617,
			"0.015": 1.55794685939,
			"0.016": 0.561690481011,
			"0.017": 0.506602679573,
			"0.018": 0.811851032268,
			"0.019": 0.0269712034108,
			"0.02": 0.0,
			"0.021": 0.0,
			"0.022": 0.0,
			"0.023": 0.0,
			"0.024": 0.0,
			"0.025": 0.0
		}
	}
}
