{
	 "smiles": "NC1=C(C#N)N2CCSC2=N1", 
	 "Tm": 490.15, 
	 "num_atms": 17, 
	 "gaussian": { 
		 "optdone": 1, 
		 "sigma_profile": "yes", 
		 "theory": "DFT", 
		 "functional": "B3LYP", 
		 "basiset": "6-31G**", 
		 "properties": { 
			 "R2extent": 2210.3616, 
			 "electric_dipole_moment_norm": 3.06734436606, 
			 "electric_quadrupole_moment_norm": 20.6583293148, 
			 "total_energy": -849.423865205, 
			 "HOMO_LUMO_gap": 0.18191, 
			 "cosmo_polarized_energy": -17.12, 
			 "cosmo_cavitation_energy": 23.69, 
			 "cosmo_dispersion_energy": -17.72, 
			 "cosmo_repulsion_energy": 1.39, 
			 "cosmo_total_nonelectrostatic_energy": 7.36, 
			 "SMD_solvation_energy": 2.52 
		},
		"coords": [
			{
				"x": -1.2868112752,
				"y": 1.4725985156,
				"z": -2.306199982,
				"element": "N" 
			},
			{
				"x": -0.550881119,
				"y": 0.5145823158,
				"z": -1.656958062,
				"element": "C" 
			},
			{
				"x": -0.2430581165,
				"y": 0.4386504008,
				"z": -0.2922646799,
				"element": "C" 
			},
			{
				"x": -0.6116964787,
				"y": 1.2568637697,
				"z": 0.7847149339,
				"element": "C" 
			},
			{
				"x": -0.9442578632,
				"y": 1.9442855943,
				"z": 1.6696777754,
				"element": "N" 
			},
			{
				"x": 0.6330920039,
				"y": -0.6591717752,
				"z": -0.2005512668,
				"element": "N" 
			},
			{
				"x": 1.1217273137,
				"y": -1.4816286248,
				"z": 0.8929043179,
				"element": "C" 
			},
			{
				"x": 2.1912760655,
				"y": -2.3788328569,
				"z": 0.2372996079,
				"element": "C" 
			},
			{
				"x": 1.6538495906,
				"y": -2.6685966485,
				"z": -1.5187171209,
				"element": "S" 
			},
			{
				"x": 0.7298810602,
				"y": -1.1693176071,
				"z": -1.449057655,
				"element": "C" 
			},
			{
				"x": 0.0577616755,
				"y": -0.4942423176,
				"z": -2.360910302,
				"element": "N" 
			},
			{
				"x": -1.9576061353,
				"y": 1.9850985769,
				"z": -1.752368317,
				"element": "H" 
			},
			{
				"x": -1.6137099244,
				"y": 1.1965830687,
				"z": -3.22106789,
				"element": "H" 
			},
			{
				"x": 1.553631973,
				"y": -0.8642530677,
				"z": 1.6851714866,
				"element": "H" 
			},
			{
				"x": 0.3017664782,
				"y": -2.0750416088,
				"z": 1.3180679742,
				"element": "H" 
			},
			{
				"x": 3.1629394715,
				"y": -1.8805693253,
				"z": 0.2201204135,
				"element": "H" 
			},
			{
				"x": 2.2856952803,
				"y": -3.3407084098,
				"z": 0.7417387663,
				"element": "H" 
			}
		],
		 "valence_orbital": [ 
			{
				"type": "occ",
				"energy": -0.33425,
				"method": "rhf"
			},
			{
				"type": "occ",
				"energy": -0.29316,
				"method": "rhf"
			},
			{
				"type": "occ",
				"energy": -0.28566,
				"method": "rhf"
			},
			{
				"type": "occ",
				"energy": -0.25966,
				"method": "rhf"
			},
			{
				"type": "occ",
				"energy": -0.20077,
				"method": "rhf"
			},
			{
				"type": "unocc",
				"energy": -0.01886,
				"method": "rhf"
			},
			{
				"type": "unocc",
				"energy": -0.00778,
				"method": "rhf"
			},
			{
				"type": "unocc",
				"energy": 0.01569,
				"method": "rhf"
			},
			{
				"type": "unocc",
				"energy": 0.04136,
				"method": "rhf"
			},
			{
				"type": "unocc",
				"energy": 0.06092,
				"method": "rhf"
			}
		],
		"cosmo_sigma_profile": { 
			"-0.025": 0.0,
			"-0.024": 0.0,
			"-0.023": 0.0,
			"-0.022": 0.0,
			"-0.021": 0.0,
			"-0.02": 0.0,
			"-0.019": 0.0,
			"-0.018": 0.0,
			"-0.017": 0.0,
			"-0.016": 0.0,
			"-0.015": 0.0,
			"-0.014": 0.933156981254,
			"-0.013": 2.45388365207,
			"-0.012": 2.29342669285,
			"-0.011": 2.2953236221,
			"-0.01": 2.57755114697,
			"-0.009": 2.64291104385,
			"-0.008": 7.49344577982,
			"-0.007": 16.1360506672,
			"-0.006": 14.5126791475,
			"-0.005": 11.7793886957,
			"-0.004": 9.72749991825,
			"-0.003": 5.19751441133,
			"-0.002": 6.69201415329,
			"-0.001": 7.5456876637,
			"0.0": 9.66374087083,
			"0.001": 13.1590452035,
			"0.002": 10.9795184621,
			"0.003": 9.27559134751,
			"0.004": 7.37104377258,
			"0.005": 6.84839468775,
			"0.006": 6.08838337903,
			"0.007": 5.8195676484,
			"0.008": 4.90925423494,
			"0.009": 4.81830717773,
			"0.01": 5.62961515569,
			"0.011": 4.92040054974,
			"0.012": 3.90307800058,
			"0.013": 3.40678475274,
			"0.014": 2.33443654731,
			"0.015": 0.85616621304,
			"0.016": 0.0785088826111,
			"0.017": 0.0,
			"0.018": 0.0,
			"0.019": 0.0,
			"0.02": 0.0,
			"0.021": 0.0,
			"0.022": 0.0,
			"0.023": 0.0,
			"0.024": 0.0,
			"0.025": 0.0
		}
	}
}
