{
	 "smiles": "ClCC1=NC=C(O1)C1=CC=C(C=C1)C#N", 
	 "Tm": 398.15, 
	 "num_atms": 22, 
	 "gaussian": { 
		 "optdone": 1, 
		 "sigma_profile": "yes", 
		 "theory": "DFT", 
		 "functional": "B3LYP", 
		 "basiset": "6-31G**", 
		 "properties": { 
			 "R2extent": 5633.1596, 
			 "electric_dipole_moment_norm": 3.41127223921, 
			 "electric_quadrupole_moment_norm": 24.7163281735, 
			 "total_energy": -1068.28515029, 
			 "HOMO_LUMO_gap": 0.15884, 
			 "cosmo_polarized_energy": -14.19, 
			 "cosmo_cavitation_energy": 30.69, 
			 "cosmo_dispersion_energy": -21.75, 
			 "cosmo_repulsion_energy": 1.71, 
			 "cosmo_total_nonelectrostatic_energy": 10.65, 
			 "SMD_solvation_energy": 4.87 
		},
		"coords": [
			{
				"x": -4.4454850472,
				"y": -1.0083126622,
				"z": 3.2132895731,
				"element": "Cl" 
			},
			{
				"x": -2.990730385,
				"y": -2.101421728,
				"z": 3.0477422142,
				"element": "C" 
			},
			{
				"x": -2.3620127332,
				"y": -1.9995630361,
				"z": 1.7123796507,
				"element": "C" 
			},
			{
				"x": -2.41230501,
				"y": -2.863715182,
				"z": 0.7409648303,
				"element": "N" 
			},
			{
				"x": -1.6702728786,
				"y": -2.2907491679,
				"z": -0.2716207071,
				"element": "C" 
			},
			{
				"x": -1.1927012142,
				"y": -1.0723369416,
				"z": 0.134422639,
				"element": "C" 
			},
			{
				"x": -1.6382756797,
				"y": -0.8858824835,
				"z": 1.421954334,
				"element": "O" 
			},
			{
				"x": -0.3796604698,
				"y": -0.0314814806,
				"z": -0.4717394381,
				"element": "C" 
			},
			{
				"x": -0.0965806889,
				"y": 1.1589946594,
				"z": 0.2225172244,
				"element": "C" 
			},
			{
				"x": 0.6800094351,
				"y": 2.1505461186,
				"z": -0.3625005737,
				"element": "C" 
			},
			{
				"x": 1.1917823461,
				"y": 1.9735288567,
				"z": -1.659152069,
				"element": "C" 
			},
			{
				"x": 0.9117921339,
				"y": 0.7860934794,
				"z": -2.3594057716,
				"element": "C" 
			},
			{
				"x": 0.1364845686,
				"y": -0.2017796702,
				"z": -1.7705489153,
				"element": "C" 
			},
			{
				"x": 1.9940157955,
				"y": 2.9944172732,
				"z": -2.2647089859,
				"element": "C" 
			},
			{
				"x": 2.646241913,
				"y": 3.8227262094,
				"z": -2.7569949747,
				"element": "N" 
			},
			{
				"x": -2.3034949085,
				"y": -1.8071681924,
				"z": 3.8411519205,
				"element": "H" 
			},
			{
				"x": -3.3372919411,
				"y": -3.1215822976,
				"z": 3.1991936298,
				"element": "H" 
			},
			{
				"x": -1.5325060941,
				"y": -2.7889629363,
				"z": -1.219865821,
				"element": "H" 
			},
			{
				"x": -0.4920817071,
				"y": 1.301328352,
				"z": 1.2216727645,
				"element": "H" 
			},
			{
				"x": 0.8941880988,
				"y": 3.0665067163,
				"z": 0.1775932201,
				"element": "H" 
			},
			{
				"x": 1.3065827993,
				"y": 0.6482809153,
				"z": -3.3601879908,
				"element": "H" 
			},
			{
				"x": -0.0691983329,
				"y": -1.113966802,
				"z": -2.321156753,
				"element": "H" 
			}
		],
		 "valence_orbital": [ 
			{
				"type": "occ",
				"energy": -0.3124,
				"method": "rhf"
			},
			{
				"type": "occ",
				"energy": -0.30906,
				"method": "rhf"
			},
			{
				"type": "occ",
				"energy": -0.30207,
				"method": "rhf"
			},
			{
				"type": "occ",
				"energy": -0.28715,
				"method": "rhf"
			},
			{
				"type": "occ",
				"energy": -0.24182,
				"method": "rhf"
			},
			{
				"type": "unocc",
				"energy": -0.08298,
				"method": "rhf"
			},
			{
				"type": "unocc",
				"energy": -0.03684,
				"method": "rhf"
			},
			{
				"type": "unocc",
				"energy": -0.03105,
				"method": "rhf"
			},
			{
				"type": "unocc",
				"energy": 0.01976,
				"method": "rhf"
			},
			{
				"type": "unocc",
				"energy": 0.0305,
				"method": "rhf"
			}
		],
		"cosmo_sigma_profile": { 
			"-0.025": 0.0,
			"-0.024": 0.0,
			"-0.023": 0.0,
			"-0.022": 0.0,
			"-0.021": 0.0,
			"-0.02": 0.0,
			"-0.019": 0.0,
			"-0.018": 0.0,
			"-0.017": 0.0,
			"-0.016": 0.0,
			"-0.015": 0.0,
			"-0.014": 0.0,
			"-0.013": 0.0,
			"-0.012": 0.0,
			"-0.011": 0.0,
			"-0.01": 2.01316857975,
			"-0.009": 8.01556195656,
			"-0.008": 11.3111545718,
			"-0.007": 12.2740891875,
			"-0.006": 14.6199126329,
			"-0.005": 9.92651252326,
			"-0.004": 9.56765430497,
			"-0.003": 12.151110594,
			"-0.002": 15.2653950506,
			"-0.001": 20.148624309,
			"0.0": 23.7687251248,
			"0.001": 23.8906519351,
			"0.002": 17.4799529737,
			"0.003": 11.4353048202,
			"0.004": 9.3517207929,
			"0.005": 11.9146593901,
			"0.006": 10.1299699195,
			"0.007": 4.10786110813,
			"0.008": 3.86091726458,
			"0.009": 4.66254588405,
			"0.01": 4.45409717638,
			"0.011": 3.63683969197,
			"0.012": 3.18524530581,
			"0.013": 2.42912402929,
			"0.014": 0.971054756179,
			"0.015": 0.460335317991,
			"0.016": 0.0,
			"0.017": 0.0,
			"0.018": 0.0,
			"0.019": 0.0,
			"0.02": 0.0,
			"0.021": 0.0,
			"0.022": 0.0,
			"0.023": 0.0,
			"0.024": 0.0,
			"0.025": 0.0
		}
	}
}
