{
	 "smiles": "O=C1NC2=CC=CC=C2C11NC(=S)C(C#N)C2=C1CCCC2", 
	 "Tm": 495.15, 
	 "num_atms": 37, 
	 "gaussian": { 
		 "optdone": 1, 
		 "sigma_profile": "yes", 
		 "theory": "DFT", 
		 "functional": "B3LYP", 
		 "basiset": "6-31G**", 
		 "properties": { 
			 "R2extent": 6666.0141, 
			 "electric_dipole_moment_norm": 9.80633627049, 
			 "electric_quadrupole_moment_norm": 30.8371147253, 
			 "total_energy": -1294.50894682, 
			 "HOMO_LUMO_gap": 0.16783, 
			 "cosmo_polarized_energy": -27.04, 
			 "cosmo_cavitation_energy": 41.5, 
			 "cosmo_dispersion_energy": -28.08, 
			 "cosmo_repulsion_energy": 2.12, 
			 "cosmo_total_nonelectrostatic_energy": 15.54, 
			 "SMD_solvation_energy": 6.47 
		},
		"coords": [
			{
				"x": 1.0607589101,
				"y": -0.3074858787,
				"z": -2.3808223413,
				"element": "O" 
			},
			{
				"x": 0.0937340018,
				"y": -0.7463547737,
				"z": -1.8032375495,
				"element": "C" 
			},
			{
				"x": -1.1303012584,
				"y": -1.0689476743,
				"z": -2.3575725133,
				"element": "N" 
			},
			{
				"x": -2.017625946,
				"y": -1.6212450135,
				"z": -1.4222752367,
				"element": "C" 
			},
			{
				"x": -3.307298379,
				"y": -2.0993945983,
				"z": -1.6250362577,
				"element": "C" 
			},
			{
				"x": -3.988470544,
				"y": -2.6196580939,
				"z": -0.517314611,
				"element": "C" 
			},
			{
				"x": -3.3963661832,
				"y": -2.6599735036,
				"z": 0.7472703603,
				"element": "C" 
			},
			{
				"x": -2.0960150437,
				"y": -2.1708924798,
				"z": 0.9330901022,
				"element": "C" 
			},
			{
				"x": -1.4135599371,
				"y": -1.6478100929,
				"z": -0.1559443986,
				"element": "C" 
			},
			{
				"x": -0.0084999889,
				"y": -1.0712279437,
				"z": -0.2559682712,
				"element": "C" 
			},
			{
				"x": 0.9741705953,
				"y": -2.0980464512,
				"z": 0.0819874955,
				"element": "N" 
			},
			{
				"x": 2.1849255646,
				"y": -1.9439830118,
				"z": 0.6429726207,
				"element": "C" 
			},
			{
				"x": 3.1980223499,
				"y": -3.2211394281,
				"z": 0.9582992843,
				"element": "S" 
			},
			{
				"x": 2.558398023,
				"y": -0.5075241625,
				"z": 1.0211022916,
				"element": "C" 
			},
			{
				"x": 3.5782719833,
				"y": 0.0255959362,
				"z": 0.0973191264,
				"element": "C" 
			},
			{
				"x": 4.3774243479,
				"y": 0.5011577571,
				"z": -0.5966492417,
				"element": "N" 
			},
			{
				"x": 1.3886017555,
				"y": 0.46351836,
				"z": 1.1176782383,
				"element": "C" 
			},
			{
				"x": 0.2123516851,
				"y": 0.2100447333,
				"z": 0.5279928813,
				"element": "C" 
			},
			{
				"x": -0.9309521729,
				"y": 1.2063903603,
				"z": 0.529912889,
				"element": "C" 
			},
			{
				"x": -0.4772657854,
				"y": 2.6193279598,
				"z": 0.9169287241,
				"element": "C" 
			},
			{
				"x": 0.4180956186,
				"y": 2.5715420468,
				"z": 2.15803924,
				"element": "C" 
			},
			{
				"x": 1.6757096203,
				"y": 1.7390381212,
				"z": 1.8790834768,
				"element": "C" 
			},
			{
				"x": -1.3004158893,
				"y": -0.9926797016,
				"z": -3.3504192015,
				"element": "H" 
			},
			{
				"x": -3.7709804734,
				"y": -2.0762177089,
				"z": -2.6062866738,
				"element": "H" 
			},
			{
				"x": -4.9963899428,
				"y": -3.0012832892,
				"z": -0.6501810475,
				"element": "H" 
			},
			{
				"x": -3.9439034043,
				"y": -3.0728189956,
				"z": 1.5882710103,
				"element": "H" 
			},
			{
				"x": -1.6261604933,
				"y": -2.2026352937,
				"z": 1.9120998461,
				"element": "H" 
			},
			{
				"x": 0.7369286946,
				"y": -3.0508110447,
				"z": -0.1698508084,
				"element": "H" 
			},
			{
				"x": 3.0486266426,
				"y": -0.5795377078,
				"z": 1.9999176275,
				"element": "H" 
			},
			{
				"x": -1.4016839371,
				"y": 1.2230367765,
				"z": -0.4613082581,
				"element": "H" 
			},
			{
				"x": -1.7141432278,
				"y": 0.8598541633,
				"z": 1.2181324289,
				"element": "H" 
			},
			{
				"x": 0.0798108317,
				"y": 3.0645260222,
				"z": 0.0827741765,
				"element": "H" 
			},
			{
				"x": -1.3527785532,
				"y": 3.2540171545,
				"z": 1.0913409051,
				"element": "H" 
			},
			{
				"x": -0.1408911895,
				"y": 2.124972667,
				"z": 2.9909603547,
				"element": "H" 
			},
			{
				"x": 0.7035382271,
				"y": 3.5803611086,
				"z": 2.4742618313,
				"element": "H" 
			},
			{
				"x": 2.1837006667,
				"y": 1.4890552952,
				"z": 2.8205526529,
				"element": "H" 
			},
			{
				"x": 2.401932831,
				"y": 2.3292283854,
				"z": 1.3015788463,
				"element": "H" 
			}
		],
		 "valence_orbital": [ 
			{
				"type": "occ",
				"energy": -0.28092,
				"method": "rhf"
			},
			{
				"type": "occ",
				"energy": -0.25878,
				"method": "rhf"
			},
			{
				"type": "occ",
				"energy": -0.24413,
				"method": "rhf"
			},
			{
				"type": "occ",
				"energy": -0.23066,
				"method": "rhf"
			},
			{
				"type": "occ",
				"energy": -0.21534,
				"method": "rhf"
			},
			{
				"type": "unocc",
				"energy": -0.04751,
				"method": "rhf"
			},
			{
				"type": "unocc",
				"energy": -0.04302,
				"method": "rhf"
			},
			{
				"type": "unocc",
				"energy": -0.02935,
				"method": "rhf"
			},
			{
				"type": "unocc",
				"energy": -0.01551,
				"method": "rhf"
			},
			{
				"type": "unocc",
				"energy": 0.02071,
				"method": "rhf"
			}
		],
		"cosmo_sigma_profile": { 
			"-0.025": 0.0,
			"-0.024": 0.0,
			"-0.023": 0.0,
			"-0.022": 0.0,
			"-0.021": 0.0,
			"-0.02": 0.0,
			"-0.019": 0.0,
			"-0.018": 0.0,
			"-0.017": 0.332281569559,
			"-0.016": 1.53319776473,
			"-0.015": 2.44260535908,
			"-0.014": 2.54720755383,
			"-0.013": 1.46862285334,
			"-0.012": 1.92399948721,
			"-0.011": 3.11984131956,
			"-0.01": 2.09329543399,
			"-0.009": 4.83974700763,
			"-0.008": 4.53452104303,
			"-0.007": 7.91334632766,
			"-0.006": 12.0120331409,
			"-0.005": 14.1560478875,
			"-0.004": 22.3799961433,
			"-0.003": 33.4806825876,
			"-0.002": 35.1234413581,
			"-0.001": 30.5506922274,
			"0.0": 20.7659899491,
			"0.001": 13.9724046054,
			"0.002": 12.867505362,
			"0.003": 12.1854356622,
			"0.004": 14.4387096929,
			"0.005": 12.6801276243,
			"0.006": 8.97473616506,
			"0.007": 9.72760194764,
			"0.008": 13.3028436195,
			"0.009": 10.2335659674,
			"0.01": 8.8407466678,
			"0.011": 8.09355590613,
			"0.012": 4.9144350009,
			"0.013": 1.12764196205,
			"0.014": 0.0,
			"0.015": 0.0,
			"0.016": 0.0,
			"0.017": 0.0,
			"0.018": 0.0,
			"0.019": 0.0,
			"0.02": 0.0,
			"0.021": 0.0,
			"0.022": 0.0,
			"0.023": 0.0,
			"0.024": 0.0,
			"0.025": 0.0
		}
	}
}
