{
	 "smiles": "ClS(=O)(=O)C1=CC=C(OCC2CCCCC2)C=C1", 
	 "Tm": 356.15, 
	 "num_atms": 35, 
	 "gaussian": { 
		 "optdone": 1, 
		 "sigma_profile": "yes", 
		 "theory": "DFT", 
		 "functional": "B3LYP", 
		 "basiset": "6-31G**", 
		 "properties": { 
			 "R2extent": 12140.6257, 
			 "electric_dipole_moment_norm": 7.38453803159, 
			 "electric_quadrupole_moment_norm": 40.7716531806, 
			 "total_energy": -1589.61943926, 
			 "HOMO_LUMO_gap": 0.17215, 
			 "cosmo_polarized_energy": -10.72, 
			 "cosmo_cavitation_energy": 39.93, 
			 "cosmo_dispersion_energy": -29.13, 
			 "cosmo_repulsion_energy": 2.22, 
			 "cosmo_total_nonelectrostatic_energy": 13.01, 
			 "SMD_solvation_energy": 4.64 
		},
		"coords": [
			{
				"x": -4.5765215409,
				"y": 1.3254661152,
				"z": -4.714638018,
				"element": "Cl" 
			},
			{
				"x": -5.3731234767,
				"y": 0.0006188108,
				"z": -3.2276549066,
				"element": "S" 
			},
			{
				"x": -6.3131254821,
				"y": 0.8009643094,
				"z": -2.451684584,
				"element": "O" 
			},
			{
				"x": -5.7807338978,
				"y": -1.2000771575,
				"z": -3.9480297258,
				"element": "O" 
			},
			{
				"x": -3.9397742881,
				"y": -0.3518801589,
				"z": -2.2451050207,
				"element": "C" 
			},
			{
				"x": -3.6270162027,
				"y": 0.4834172429,
				"z": -1.164791642,
				"element": "C" 
			},
			{
				"x": -2.5113077061,
				"y": 0.1958435288,
				"z": -0.3973911598,
				"element": "C" 
			},
			{
				"x": -1.7032292876,
				"y": -0.9162313336,
				"z": -0.7042166275,
				"element": "C" 
			},
			{
				"x": -0.6390182151,
				"y": -1.1050243298,
				"z": 0.1065987092,
				"element": "O" 
			},
			{
				"x": 0.2414161296,
				"y": -2.215695238,
				"z": -0.1269859343,
				"element": "C" 
			},
			{
				"x": 1.3537875505,
				"y": -2.1932125014,
				"z": 0.9186622302,
				"element": "C" 
			},
			{
				"x": 0.8152387066,
				"y": -2.3209384072,
				"z": 2.3749319019,
				"element": "C" 
			},
			{
				"x": 0.8125522728,
				"y": -0.9753785145,
				"z": 3.1143453875,
				"element": "C" 
			},
			{
				"x": 2.2385293193,
				"y": -0.3915906486,
				"z": 3.2369773129,
				"element": "C" 
			},
			{
				"x": 3.1201109034,
				"y": -0.7333715823,
				"z": 2.0095745264,
				"element": "C" 
			},
			{
				"x": 2.268915087,
				"y": -0.9565504579,
				"z": 0.75288864,
				"element": "C" 
			},
			{
				"x": -2.030203957,
				"y": -1.7439918468,
				"z": -1.7915399502,
				"element": "C" 
			},
			{
				"x": -3.1516234064,
				"y": -1.4563648592,
				"z": -2.5654979589,
				"element": "C" 
			},
			{
				"x": -4.2592539605,
				"y": 1.3326405252,
				"z": -0.931337776,
				"element": "H" 
			},
			{
				"x": -2.2401968233,
				"y": 0.8136675687,
				"z": 0.4516341906,
				"element": "H" 
			},
			{
				"x": 0.6614353026,
				"y": -2.138966705,
				"z": -1.1396896278,
				"element": "H" 
			},
			{
				"x": -0.3325862757,
				"y": -3.1498554043,
				"z": -0.0590998096,
				"element": "H" 
			},
			{
				"x": 1.9560240951,
				"y": -3.0866474186,
				"z": 0.7017539476,
				"element": "H" 
			},
			{
				"x": -0.1935982362,
				"y": -2.7497525955,
				"z": 2.3670383171,
				"element": "H" 
			},
			{
				"x": 1.4435665645,
				"y": -3.0293664401,
				"z": 2.9289886552,
				"element": "H" 
			},
			{
				"x": 0.1678178234,
				"y": -0.2783291848,
				"z": 2.5683040392,
				"element": "H" 
			},
			{
				"x": 0.3671607576,
				"y": -1.0927396107,
				"z": 4.1086193018,
				"element": "H" 
			},
			{
				"x": 2.1717571657,
				"y": 0.6959065469,
				"z": 3.3582860088,
				"element": "H" 
			},
			{
				"x": 2.7202722287,
				"y": -0.7712649964,
				"z": 4.1457974392,
				"element": "H" 
			},
			{
				"x": 3.8556057648,
				"y": 0.0597672786,
				"z": 1.8370259407,
				"element": "H" 
			},
			{
				"x": 3.6988687876,
				"y": -1.6454921832,
				"z": 2.2073028903,
				"element": "H" 
			},
			{
				"x": 2.9061663734,
				"y": -1.0875759211,
				"z": -0.1299249876,
				"element": "H" 
			},
			{
				"x": 1.6544196797,
				"y": -0.0680793008,
				"z": 0.56448771,
				"element": "H" 
			},
			{
				"x": -1.4249927983,
				"y": -2.6070759836,
				"z": -2.0375395934,
				"element": "H" 
			},
			{
				"x": -3.4193389581,
				"y": -2.0899391469,
				"z": -3.4036898263,
				"element": "H" 
			}
		],
		 "valence_orbital": [ 
			{
				"type": "occ",
				"energy": -0.30801,
				"method": "rhf"
			},
			{
				"type": "occ",
				"energy": -0.30502,
				"method": "rhf"
			},
			{
				"type": "occ",
				"energy": -0.30495,
				"method": "rhf"
			},
			{
				"type": "occ",
				"energy": -0.28601,
				"method": "rhf"
			},
			{
				"type": "occ",
				"energy": -0.25421,
				"method": "rhf"
			},
			{
				"type": "unocc",
				"energy": -0.08206,
				"method": "rhf"
			},
			{
				"type": "unocc",
				"energy": -0.03448,
				"method": "rhf"
			},
			{
				"type": "unocc",
				"energy": -0.02907,
				"method": "rhf"
			},
			{
				"type": "unocc",
				"energy": 0.05917,
				"method": "rhf"
			},
			{
				"type": "unocc",
				"energy": 0.06341,
				"method": "rhf"
			}
		],
		"cosmo_sigma_profile": { 
			"-0.025": 0.0,
			"-0.024": 0.0,
			"-0.023": 0.0,
			"-0.022": 0.0,
			"-0.021": 0.0,
			"-0.02": 0.0,
			"-0.019": 0.0,
			"-0.018": 0.0,
			"-0.017": 0.0,
			"-0.016": 0.0,
			"-0.015": 0.0,
			"-0.014": 0.0,
			"-0.013": 0.0,
			"-0.012": 0.0,
			"-0.011": 0.0,
			"-0.01": 0.0,
			"-0.009": 0.377709497379,
			"-0.008": 4.86485799272,
			"-0.007": 8.62122967968,
			"-0.006": 10.138772609,
			"-0.005": 12.7718535841,
			"-0.004": 13.3509125291,
			"-0.003": 20.0237949523,
			"-0.002": 30.7907109596,
			"-0.001": 38.1763348727,
			"0.0": 42.889356001,
			"0.001": 44.2857235309,
			"0.002": 25.9065275914,
			"0.003": 14.2511247302,
			"0.004": 18.6764428289,
			"0.005": 6.14337478065,
			"0.006": 3.52310375998,
			"0.007": 4.82815537785,
			"0.008": 9.72373673598,
			"0.009": 6.72880660361,
			"0.01": 0.481750391985,
			"0.011": 0.0,
			"0.012": 0.0,
			"0.013": 0.0,
			"0.014": 0.0,
			"0.015": 0.0,
			"0.016": 0.0,
			"0.017": 0.0,
			"0.018": 0.0,
			"0.019": 0.0,
			"0.02": 0.0,
			"0.021": 0.0,
			"0.022": 0.0,
			"0.023": 0.0,
			"0.024": 0.0,
			"0.025": 0.0
		}
	}
}
