{
	 "smiles": "NNC(=S)NC1=CC(F)=CC=C1", 
	 "Tm": 438.15, 
	 "num_atms": 20, 
	 "gaussian": { 
		 "optdone": 1, 
		 "sigma_profile": "yes", 
		 "theory": "DFT", 
		 "functional": "B3LYP", 
		 "basiset": "6-31G**", 
		 "properties": { 
			 "R2extent": 3531.2134, 
			 "electric_dipole_moment_norm": 3.54645343125, 
			 "electric_quadrupole_moment_norm": 9.25419970338, 
			 "total_energy": -933.822876601, 
			 "HOMO_LUMO_gap": 0.1759, 
			 "cosmo_polarized_energy": -14.9, 
			 "cosmo_cavitation_energy": 26.48, 
			 "cosmo_dispersion_energy": -19.78, 
			 "cosmo_repulsion_energy": 1.52, 
			 "cosmo_total_nonelectrostatic_energy": 8.22, 
			 "SMD_solvation_energy": 4.61 
		},
		"coords": [
			{
				"x": 2.9298118945,
				"y": -0.2340661816,
				"z": -0.0454152028,
				"element": "N" 
			},
			{
				"x": 1.6295980161,
				"y": -0.0831394768,
				"z": 0.4697609768,
				"element": "N" 
			},
			{
				"x": 0.7570710998,
				"y": -1.1181031868,
				"z": 0.6010649788,
				"element": "C" 
			},
			{
				"x": 1.1787875151,
				"y": -2.7191810131,
				"z": 0.3069573404,
				"element": "S" 
			},
			{
				"x": -0.5265507695,
				"y": -0.7968128599,
				"z": 0.9759165543,
				"element": "N" 
			},
			{
				"x": -1.0940342897,
				"y": 0.4425704079,
				"z": 1.3473472859,
				"element": "C" 
			},
			{
				"x": -2.4167713959,
				"y": 0.6985128255,
				"z": 0.9545681414,
				"element": "C" 
			},
			{
				"x": -3.0184435165,
				"y": 1.8847723102,
				"z": 1.3500779304,
				"element": "C" 
			},
			{
				"x": -4.2888659593,
				"y": 2.1169025526,
				"z": 0.9681595902,
				"element": "F" 
			},
			{
				"x": -2.3554270589,
				"y": 2.8443145767,
				"z": 2.1084007699,
				"element": "C" 
			},
			{
				"x": -1.0425583768,
				"y": 2.5761194712,
				"z": 2.4934466091,
				"element": "C" 
			},
			{
				"x": -0.4099064512,
				"y": 1.3850444023,
				"z": 2.1338303826,
				"element": "C" 
			},
			{
				"x": 3.4932930207,
				"y": -0.6772189057,
				"z": 0.6799837669,
				"element": "H" 
			},
			{
				"x": 2.8785508322,
				"y": -0.9244075428,
				"z": -0.7977591798,
				"element": "H" 
			},
			{
				"x": 1.2704768347,
				"y": 0.8596484558,
				"z": 0.3996208122,
				"element": "H" 
			},
			{
				"x": -1.1533819624,
				"y": -1.5867077099,
				"z": 0.9067321267,
				"element": "H" 
			},
			{
				"x": -2.968849028,
				"y": -0.0055633546,
				"z": 0.3412127768,
				"element": "H" 
			},
			{
				"x": -2.8641728314,
				"y": 3.7599048889,
				"z": 2.3868394401,
				"element": "H" 
			},
			{
				"x": -0.5064036131,
				"y": 3.2975701003,
				"z": 3.1022959404,
				"element": "H" 
			},
			{
				"x": 0.5901760395,
				"y": 1.1720402399,
				"z": 2.4919589596,
				"element": "H" 
			}
		],
		 "valence_orbital": [ 
			{
				"type": "occ",
				"energy": -0.28721,
				"method": "rhf"
			},
			{
				"type": "occ",
				"energy": -0.26863,
				"method": "rhf"
			},
			{
				"type": "occ",
				"energy": -0.25123,
				"method": "rhf"
			},
			{
				"type": "occ",
				"energy": -0.22176,
				"method": "rhf"
			},
			{
				"type": "occ",
				"energy": -0.21596,
				"method": "rhf"
			},
			{
				"type": "unocc",
				"energy": -0.04006,
				"method": "rhf"
			},
			{
				"type": "unocc",
				"energy": -0.02326,
				"method": "rhf"
			},
			{
				"type": "unocc",
				"energy": 0.01007,
				"method": "rhf"
			},
			{
				"type": "unocc",
				"energy": 0.0649,
				"method": "rhf"
			},
			{
				"type": "unocc",
				"energy": 0.07729,
				"method": "rhf"
			}
		],
		"cosmo_sigma_profile": { 
			"-0.025": 0.0,
			"-0.024": 0.0,
			"-0.023": 0.0,
			"-0.022": 0.0,
			"-0.021": 0.0,
			"-0.02": 0.0,
			"-0.019": 0.0,
			"-0.018": 0.0,
			"-0.017": 0.0,
			"-0.016": 0.0,
			"-0.015": 0.368585519171,
			"-0.014": 1.0136701886,
			"-0.013": 2.03206577143,
			"-0.012": 2.09330916972,
			"-0.011": 3.08077967627,
			"-0.01": 3.88399576142,
			"-0.009": 5.0782776223,
			"-0.008": 6.6119154366,
			"-0.007": 8.83256979534,
			"-0.006": 9.93269837074,
			"-0.005": 11.0119592323,
			"-0.004": 10.061131113,
			"-0.003": 10.7137607068,
			"-0.002": 9.20854805903,
			"-0.001": 11.8406327011,
			"0.0": 14.7407496552,
			"0.001": 15.6637090691,
			"0.002": 15.6498601815,
			"0.003": 14.0239438615,
			"0.004": 16.6497702219,
			"0.005": 5.46506223288,
			"0.006": 4.22809975664,
			"0.007": 4.11054213636,
			"0.008": 4.74831482512,
			"0.009": 6.01751733538,
			"0.01": 7.30062893047,
			"0.011": 5.52108493305,
			"0.012": 1.88208371661,
			"0.013": 0.558661640877,
			"0.014": 0.671474996459,
			"0.015": 0.50976044705,
			"0.016": 0.433682368167,
			"0.017": 0.0,
			"0.018": 0.0,
			"0.019": 0.0,
			"0.02": 0.0,
			"0.021": 0.0,
			"0.022": 0.0,
			"0.023": 0.0,
			"0.024": 0.0,
			"0.025": 0.0
		}
	}
}
