{
	 "smiles": "COC1=C(CNC2=CC3=C(NC(=O)N3)C=C2)C=CC=C1", 
	 "Tm": 490.15, 
	 "num_atms": 35, 
	 "gaussian": { 
		 "optdone": 1, 
		 "sigma_profile": "yes", 
		 "theory": "DFT", 
		 "functional": "B3LYP", 
		 "basiset": "6-31G**", 
		 "properties": { 
			 "R2extent": 7141.7036, 
			 "electric_dipole_moment_norm": 4.3002982164, 
			 "electric_quadrupole_moment_norm": 29.9317203034, 
			 "total_energy": -895.358165859, 
			 "HOMO_LUMO_gap": 0.16422, 
			 "cosmo_polarized_energy": -20.63, 
			 "cosmo_cavitation_energy": 38.61, 
			 "cosmo_dispersion_energy": -27.21, 
			 "cosmo_repulsion_energy": 2.1, 
			 "cosmo_total_nonelectrostatic_energy": 13.5, 
			 "SMD_solvation_energy": 6.65 
		},
		"coords": [
			{
				"x": 1.9099617938,
				"y": -0.0194622002,
				"z": -2.7123508189,
				"element": "C" 
			},
			{
				"x": 1.5002847343,
				"y": 0.7626605586,
				"z": -1.6014317164,
				"element": "O" 
			},
			{
				"x": 0.1585124157,
				"y": 0.9869204946,
				"z": -1.4148239636,
				"element": "C" 
			},
			{
				"x": -0.1866984889,
				"y": 1.8000596215,
				"z": -0.3162230149,
				"element": "C" 
			},
			{
				"x": 0.878558382,
				"y": 2.4121204009,
				"z": 0.5913527151,
				"element": "C" 
			},
			{
				"x": 0.7518190836,
				"y": 2.1275203403,
				"z": 2.014634204,
				"element": "N" 
			},
			{
				"x": 0.9005530915,
				"y": 0.8406175742,
				"z": 2.5423155589,
				"element": "C" 
			},
			{
				"x": 1.5283895342,
				"y": -0.1904296676,
				"z": 1.8138239229,
				"element": "C" 
			},
			{
				"x": 1.6970161512,
				"y": -1.4174978518,
				"z": 2.4432281821,
				"element": "C" 
			},
			{
				"x": 1.2568121241,
				"y": -1.655933375,
				"z": 3.7585133857,
				"element": "C" 
			},
			{
				"x": 1.5804983774,
				"y": -2.9831708957,
				"z": 4.0546183859,
				"element": "N" 
			},
			{
				"x": 2.2108421437,
				"y": -3.6009983037,
				"z": 2.9792931047,
				"element": "C" 
			},
			{
				"x": 2.6230445299,
				"y": -4.7461558522,
				"z": 2.9026381211,
				"element": "O" 
			},
			{
				"x": 2.2657174846,
				"y": -2.6065324608,
				"z": 1.9981018683,
				"element": "N" 
			},
			{
				"x": 0.6288832599,
				"y": -0.6479801873,
				"z": 4.4765856945,
				"element": "C" 
			},
			{
				"x": 0.4576420558,
				"y": 0.593261703,
				"z": 3.8591387494,
				"element": "C" 
			},
			{
				"x": -1.5401295199,
				"y": 2.0532622153,
				"z": -0.08661919,
				"element": "C" 
			},
			{
				"x": -2.539779177,
				"y": 1.524879907,
				"z": -0.9048245732,
				"element": "C" 
			},
			{
				"x": -2.1788581114,
				"y": 0.7232497784,
				"z": -1.9851042902,
				"element": "C" 
			},
			{
				"x": -0.8340651835,
				"y": 0.4512538584,
				"z": -2.2443719929,
				"element": "C" 
			},
			{
				"x": 1.5183529013,
				"y": -1.0432058674,
				"z": -2.6558211801,
				"element": "H" 
			},
			{
				"x": 1.5949507613,
				"y": 0.4319894143,
				"z": -3.6614549965,
				"element": "H" 
			},
			{
				"x": 3.0000844046,
				"y": -0.04898412,
				"z": -2.6739923213,
				"element": "H" 
			},
			{
				"x": 0.8484283422,
				"y": 3.5031873291,
				"z": 0.4902842283,
				"element": "H" 
			},
			{
				"x": 1.8695430397,
				"y": 2.1042326051,
				"z": 0.2537887087,
				"element": "H" 
			},
			{
				"x": 0.0468980209,
				"y": 2.6755473107,
				"z": 2.4869453497,
				"element": "H" 
			},
			{
				"x": 1.8615633952,
				"y": -0.0412493227,
				"z": 0.7936402981,
				"element": "H" 
			},
			{
				"x": 1.405691872,
				"y": -3.4759063282,
				"z": 4.9145702642,
				"element": "H" 
			},
			{
				"x": 2.6850998719,
				"y": -2.7803029482,
				"z": 1.0997127816,
				"element": "H" 
			},
			{
				"x": 0.2769630741,
				"y": -0.8102810913,
				"z": 5.4907691651,
				"element": "H" 
			},
			{
				"x": -0.0226370724,
				"y": 1.3968098382,
				"z": 4.4113172216,
				"element": "H" 
			},
			{
				"x": -1.8173503769,
				"y": 2.6788348499,
				"z": 0.7592461674,
				"element": "H" 
			},
			{
				"x": -3.5843044907,
				"y": 1.7393287932,
				"z": -0.7014769509,
				"element": "H" 
			},
			{
				"x": -2.9405924262,
				"y": 0.3025144521,
				"z": -2.6351616321,
				"element": "H" 
			},
			{
				"x": -0.571095998,
				"y": -0.1773605727,
				"z": -3.0866614364,
				"element": "H" 
			}
		],
		 "valence_orbital": [ 
			{
				"type": "occ",
				"energy": -0.25508,
				"method": "rhf"
			},
			{
				"type": "occ",
				"energy": -0.24789,
				"method": "rhf"
			},
			{
				"type": "occ",
				"energy": -0.22432,
				"method": "rhf"
			},
			{
				"type": "occ",
				"energy": -0.21852,
				"method": "rhf"
			},
			{
				"type": "occ",
				"energy": -0.17399,
				"method": "rhf"
			},
			{
				"type": "unocc",
				"energy": -0.00977,
				"method": "rhf"
			},
			{
				"type": "unocc",
				"energy": 0.00793,
				"method": "rhf"
			},
			{
				"type": "unocc",
				"energy": 0.00906,
				"method": "rhf"
			},
			{
				"type": "unocc",
				"energy": 0.03438,
				"method": "rhf"
			},
			{
				"type": "unocc",
				"energy": 0.07657,
				"method": "rhf"
			}
		],
		"cosmo_sigma_profile": { 
			"-0.025": 0.0,
			"-0.024": 0.0,
			"-0.023": 0.0,
			"-0.022": 0.0,
			"-0.021": 0.0,
			"-0.02": 0.0,
			"-0.019": 0.0,
			"-0.018": 0.0,
			"-0.017": 0.0,
			"-0.016": 0.77304286874,
			"-0.015": 2.45774534403,
			"-0.014": 2.57868922853,
			"-0.013": 2.05827640751,
			"-0.012": 2.5037082042,
			"-0.011": 3.49445524429,
			"-0.01": 2.97268073446,
			"-0.009": 4.68702613127,
			"-0.008": 4.31266514744,
			"-0.007": 4.76310419888,
			"-0.006": 13.8574863497,
			"-0.005": 24.2657302679,
			"-0.004": 21.5869539023,
			"-0.003": 24.6734157733,
			"-0.002": 18.0638641491,
			"-0.001": 15.1908729949,
			"0.0": 14.6372004476,
			"0.001": 19.3160792707,
			"0.002": 20.6784326385,
			"0.003": 16.9248635092,
			"0.004": 17.6077296242,
			"0.005": 17.7931175408,
			"0.006": 21.3462822875,
			"0.007": 7.44451888797,
			"0.008": 2.85410292632,
			"0.009": 2.17485789006,
			"0.01": 1.18772503447,
			"0.011": 2.7120524322,
			"0.012": 2.0374432204,
			"0.013": 2.37827592737,
			"0.014": 7.7707569455,
			"0.015": 2.27782663882,
			"0.016": 0.0,
			"0.017": 0.0,
			"0.018": 0.0,
			"0.019": 0.0,
			"0.02": 0.0,
			"0.021": 0.0,
			"0.022": 0.0,
			"0.023": 0.0,
			"0.024": 0.0,
			"0.025": 0.0
		}
	}
}
