{
	 "smiles": "CC1=CC=CC(CNCC2=CC=CC(C)=N2)=N1", 
	 "Tm": 318.15, 
	 "num_atms": 34, 
	 "gaussian": { 
		 "optdone": 1, 
		 "sigma_profile": "yes", 
		 "theory": "DFT", 
		 "functional": "B3LYP", 
		 "basiset": "6-31G**", 
		 "properties": { 
			 "R2extent": 5518.478, 
			 "electric_dipole_moment_norm": 2.84496170273, 
			 "electric_quadrupole_moment_norm": 14.4740784411, 
			 "total_energy": -707.994773532, 
			 "HOMO_LUMO_gap": 0.18381, 
			 "cosmo_polarized_energy": -12.32, 
			 "cosmo_cavitation_energy": 36.93, 
			 "cosmo_dispersion_energy": -25.8, 
			 "cosmo_repulsion_energy": 2.02, 
			 "cosmo_total_nonelectrostatic_energy": 13.15, 
			 "SMD_solvation_energy": 2.12 
		},
		"coords": [
			{
				"x": -0.8170070394,
				"y": -0.7279180043,
				"z": 5.0180678211,
				"element": "C" 
			},
			{
				"x": -0.5559738347,
				"y": -0.129594591,
				"z": 3.6569949813,
				"element": "C" 
			},
			{
				"x": -0.1667824151,
				"y": 1.2076192072,
				"z": 3.503783596,
				"element": "C" 
			},
			{
				"x": 0.0517078819,
				"y": 1.7025441923,
				"z": 2.2199845097,
				"element": "C" 
			},
			{
				"x": -0.1234327819,
				"y": 0.8530652521,
				"z": 1.1296229132,
				"element": "C" 
			},
			{
				"x": -0.5079688659,
				"y": -0.4726468857,
				"z": 1.3717537808,
				"element": "C" 
			},
			{
				"x": -0.7047848366,
				"y": -1.4495636775,
				"z": 0.2272466693,
				"element": "C" 
			},
			{
				"x": 0.5098410153,
				"y": -2.2404733185,
				"z": -0.0319128024,
				"element": "N" 
			},
			{
				"x": 1.6109499772,
				"y": -1.5398497695,
				"z": -0.7062258689,
				"element": "C" 
			},
			{
				"x": 1.3180757708,
				"y": -1.0741485614,
				"z": -2.1235188823,
				"element": "C" 
			},
			{
				"x": 1.5764110195,
				"y": -1.9064206351,
				"z": -3.2223276451,
				"element": "C" 
			},
			{
				"x": 1.2502556701,
				"y": -1.4568372115,
				"z": -4.4979421189,
				"element": "C" 
			},
			{
				"x": 0.6729390007,
				"y": -0.1958319501,
				"z": -4.6413217443,
				"element": "C" 
			},
			{
				"x": 0.442856753,
				"y": 0.5772133077,
				"z": -3.4978515972,
				"element": "C" 
			},
			{
				"x": -0.1786918459,
				"y": 1.9493842587,
				"z": -3.5803081824,
				"element": "C" 
			},
			{
				"x": 0.7647026515,
				"y": 0.1426053697,
				"z": -2.2662772561,
				"element": "N" 
			},
			{
				"x": -0.7223185866,
				"y": -0.9495048055,
				"z": 2.6071280631,
				"element": "N" 
			},
			{
				"x": -0.6588074778,
				"y": -0.0010071344,
				"z": 5.8193146837,
				"element": "H" 
			},
			{
				"x": -1.8454733814,
				"y": -1.0987214749,
				"z": 5.0809719671,
				"element": "H" 
			},
			{
				"x": -0.1586192,
				"y": -1.5859697457,
				"z": 5.1888456321,
				"element": "H" 
			},
			{
				"x": -0.0434583557,
				"y": 1.8430408458,
				"z": 4.3757763219,
				"element": "H" 
			},
			{
				"x": 0.3520634154,
				"y": 2.7365676163,
				"z": 2.0720617423,
				"element": "H" 
			},
			{
				"x": 0.0421501134,
				"y": 1.1855021769,
				"z": 0.1093491854,
				"element": "H" 
			},
			{
				"x": -1.481888205,
				"y": -2.1569094338,
				"z": 0.5297705265,
				"element": "H" 
			},
			{
				"x": -1.0624215345,
				"y": -0.9005764015,
				"z": -0.6578826296,
				"element": "H" 
			},
			{
				"x": 0.2559520166,
				"y": -3.0647037632,
				"z": -0.5701743606,
				"element": "H" 
			},
			{
				"x": 1.8862606089,
				"y": -0.6717592656,
				"z": -0.1008383561,
				"element": "H" 
			},
			{
				"x": 2.4702589665,
				"y": -2.2203486391,
				"z": -0.7177406753,
				"element": "H" 
			},
			{
				"x": 2.033552435,
				"y": -2.8803958014,
				"z": -3.0723155864,
				"element": "H" 
			},
			{
				"x": 1.4475041056,
				"y": -2.0744271073,
				"z": -5.3699944151,
				"element": "H" 
			},
			{
				"x": 0.4086421859,
				"y": 0.1883359019,
				"z": -5.621661764,
				"element": "H" 
			},
			{
				"x": 0.4765673739,
				"y": 2.6928171986,
				"z": -3.11508154,
				"element": "H" 
			},
			{
				"x": -0.367944678,
				"y": 2.2480986638,
				"z": -4.6145431319,
				"element": "H" 
			},
			{
				"x": -1.1275179225,
				"y": 1.9722141858,
				"z": -3.0334538368,
				"element": "H" 
			}
		],
		 "valence_orbital": [ 
			{
				"type": "occ",
				"energy": -0.26084,
				"method": "rhf"
			},
			{
				"type": "occ",
				"energy": -0.2519,
				"method": "rhf"
			},
			{
				"type": "occ",
				"energy": -0.23628,
				"method": "rhf"
			},
			{
				"type": "occ",
				"energy": -0.23539,
				"method": "rhf"
			},
			{
				"type": "occ",
				"energy": -0.20954,
				"method": "rhf"
			},
			{
				"type": "unocc",
				"energy": -0.02573,
				"method": "rhf"
			},
			{
				"type": "unocc",
				"energy": -0.01198,
				"method": "rhf"
			},
			{
				"type": "unocc",
				"energy": -0.00778,
				"method": "rhf"
			},
			{
				"type": "unocc",
				"energy": 0.00604,
				"method": "rhf"
			},
			{
				"type": "unocc",
				"energy": 0.08787,
				"method": "rhf"
			}
		],
		"cosmo_sigma_profile": { 
			"-0.025": 0.0,
			"-0.024": 0.0,
			"-0.023": 0.0,
			"-0.022": 0.0,
			"-0.021": 0.0,
			"-0.02": 0.0,
			"-0.019": 0.0,
			"-0.018": 0.0,
			"-0.017": 0.0,
			"-0.016": 0.0,
			"-0.015": 0.0,
			"-0.014": 0.0,
			"-0.013": 0.0,
			"-0.012": 0.0,
			"-0.011": 0.00916958508754,
			"-0.01": 0.896023437739,
			"-0.009": 1.08143615162,
			"-0.008": 1.77637510346,
			"-0.007": 3.63198714056,
			"-0.006": 13.2722936243,
			"-0.005": 19.5674685047,
			"-0.004": 26.7925641123,
			"-0.003": 22.6210856715,
			"-0.002": 24.5700844103,
			"-0.001": 31.8468235364,
			"0.0": 32.4733612569,
			"0.001": 22.4631682484,
			"0.002": 18.6442736002,
			"0.003": 23.6972069384,
			"0.004": 18.5557852106,
			"0.005": 5.23888794068,
			"0.006": 4.29641242723,
			"0.007": 2.3263768843,
			"0.008": 2.66055321341,
			"0.009": 2.98423725414,
			"0.01": 1.90302884604,
			"0.011": 1.1746162171,
			"0.012": 2.02009934656,
			"0.013": 1.81671798619,
			"0.014": 1.17143129229,
			"0.015": 2.20144338895,
			"0.016": 1.0368975174,
			"0.017": 1.2771274616,
			"0.018": 0.18487864379,
			"0.019": 0.0,
			"0.02": 0.0,
			"0.021": 0.0,
			"0.022": 0.0,
			"0.023": 0.0,
			"0.024": 0.0,
			"0.025": 0.0
		}
	}
}
