{
	 "smiles": "CCN1C=C(C=N1)C(F)(F)C(O)=O", 
	 "Tm": 373.15, 
	 "num_atms": 21, 
	 "gaussian": { 
		 "optdone": 1, 
		 "sigma_profile": "yes", 
		 "theory": "DFT", 
		 "functional": "B3LYP", 
		 "basiset": "6-31G**", 
		 "properties": { 
			 "R2extent": 5155.7969, 
			 "electric_dipole_moment_norm": 5.48740402285, 
			 "electric_quadrupole_moment_norm": 16.0235686184, 
			 "total_energy": -731.178793528, 
			 "HOMO_LUMO_gap": 0.23592, 
			 "cosmo_polarized_energy": -14.14, 
			 "cosmo_cavitation_energy": 26.66, 
			 "cosmo_dispersion_energy": -18.91, 
			 "cosmo_repulsion_energy": 1.49, 
			 "cosmo_total_nonelectrostatic_energy": 9.24, 
			 "SMD_solvation_energy": 6.13 
		},
		"coords": [
			{
				"x": -0.710120881,
				"y": -0.6631307496,
				"z": 1.5141102554,
				"element": "C" 
			},
			{
				"x": -0.3665991253,
				"y": -1.3336654933,
				"z": 0.1841206263,
				"element": "C" 
			},
			{
				"x": -0.4561425404,
				"y": -0.4109529269,
				"z": -0.9444160304,
				"element": "N" 
			},
			{
				"x": 0.5550151035,
				"y": 0.1523552776,
				"z": -1.6449672237,
				"element": "C" 
			},
			{
				"x": -0.0311524212,
				"y": 1.0020047436,
				"z": -2.5706897537,
				"element": "C" 
			},
			{
				"x": -1.422556111,
				"y": 0.8753477566,
				"z": -2.3405999473,
				"element": "C" 
			},
			{
				"x": -1.6729639306,
				"y": 0.0213095239,
				"z": -1.3536196824,
				"element": "N" 
			},
			{
				"x": 0.6690346305,
				"y": 1.7997044473,
				"z": -3.6047898719,
				"element": "C" 
			},
			{
				"x": 0.5679180009,
				"y": 1.2330355989,
				"z": -4.8494731738,
				"element": "F" 
			},
			{
				"x": 2.0322745464,
				"y": 1.8369381744,
				"z": -3.3143019637,
				"element": "F" 
			},
			{
				"x": 0.1625464908,
				"y": 3.2572433558,
				"z": -3.7502315029,
				"element": "C" 
			},
			{
				"x": 1.1183645427,
				"y": 4.1969777244,
				"z": -3.6983874211,
				"element": "O" 
			},
			{
				"x": -1.0025822387,
				"y": 3.5064858419,
				"z": -3.9191940105,
				"element": "O" 
			},
			{
				"x": -0.0091594909,
				"y": 0.146294417,
				"z": 1.739269649,
				"element": "H" 
			},
			{
				"x": -1.7196563647,
				"y": -0.2472323374,
				"z": 1.476191373,
				"element": "H" 
			},
			{
				"x": -0.6640888409,
				"y": -1.3960269375,
				"z": 2.3254864994,
				"element": "H" 
			},
			{
				"x": 0.6513132341,
				"y": -1.7336770687,
				"z": 0.1917651009,
				"element": "H" 
			},
			{
				"x": -1.0514182175,
				"y": -2.1617919428,
				"z": -0.0187926698,
				"element": "H" 
			},
			{
				"x": 1.5913691874,
				"y": -0.0776194045,
				"z": -1.4486539237,
				"element": "H" 
			},
			{
				"x": -2.2271821097,
				"y": 1.3788637078,
				"z": -2.8559688477,
				"element": "H" 
			},
			{
				"x": 1.9735865354,
				"y": 3.7596362915,
				"z": -3.5514574813,
				"element": "H" 
			}
		],
		 "valence_orbital": [ 
			{
				"type": "occ",
				"energy": -0.33089,
				"method": "rhf"
			},
			{
				"type": "occ",
				"energy": -0.2986,
				"method": "rhf"
			},
			{
				"type": "occ",
				"energy": -0.28836,
				"method": "rhf"
			},
			{
				"type": "occ",
				"energy": -0.26603,
				"method": "rhf"
			},
			{
				"type": "occ",
				"energy": -0.25992,
				"method": "rhf"
			},
			{
				"type": "unocc",
				"energy": -0.024,
				"method": "rhf"
			},
			{
				"type": "unocc",
				"energy": 0.00657,
				"method": "rhf"
			},
			{
				"type": "unocc",
				"energy": 0.04904,
				"method": "rhf"
			},
			{
				"type": "unocc",
				"energy": 0.07291,
				"method": "rhf"
			},
			{
				"type": "unocc",
				"energy": 0.08209,
				"method": "rhf"
			}
		],
		"cosmo_sigma_profile": { 
			"-0.025": 0.0,
			"-0.024": 0.0,
			"-0.023": 0.0,
			"-0.022": 0.0,
			"-0.021": 0.0,
			"-0.02": 0.0,
			"-0.019": 0.0,
			"-0.018": 0.18151251082,
			"-0.017": 0.735709615855,
			"-0.016": 0.83612541895,
			"-0.015": 0.10106217701,
			"-0.014": 0.942195720979,
			"-0.013": 1.24173245049,
			"-0.012": 1.20117780261,
			"-0.011": 1.08159389683,
			"-0.01": 2.92511008436,
			"-0.009": 3.61930684813,
			"-0.008": 4.21146077557,
			"-0.007": 5.18469517161,
			"-0.006": 7.42322502201,
			"-0.005": 10.0173289925,
			"-0.004": 15.7753066816,
			"-0.003": 16.414099344,
			"-0.002": 12.9689291217,
			"-0.001": 13.7669994719,
			"0.0": 16.1508404225,
			"0.001": 13.3763763213,
			"0.002": 15.254180742,
			"0.003": 21.0357733911,
			"0.004": 10.565671454,
			"0.005": 4.04348326714,
			"0.006": 4.94746303231,
			"0.007": 5.45892343955,
			"0.008": 5.51066422576,
			"0.009": 5.63179373281,
			"0.01": 4.67512960507,
			"0.011": 3.55293290664,
			"0.012": 0.977858274426,
			"0.013": 1.09713718497,
			"0.014": 0.759954102649,
			"0.015": 0.572182345704,
			"0.016": 0.0,
			"0.017": 0.0,
			"0.018": 0.0,
			"0.019": 0.0,
			"0.02": 0.0,
			"0.021": 0.0,
			"0.022": 0.0,
			"0.023": 0.0,
			"0.024": 0.0,
			"0.025": 0.0
		}
	}
}
