{
	 "smiles": "CC1=CC=C(C=C1)S(=O)(=O)N1CCC(N)CC1", 
	 "Tm": 380.15, 
	 "num_atms": 35, 
	 "gaussian": { 
		 "optdone": 1, 
		 "sigma_profile": "yes", 
		 "theory": "DFT", 
		 "functional": "B3LYP", 
		 "basiset": "6-31G**", 
		 "properties": { 
			 "R2extent": 5277.89, 
			 "electric_dipole_moment_norm": 7.18031834252, 
			 "electric_quadrupole_moment_norm": 24.597901706, 
			 "total_energy": -1126.2027392, 
			 "HOMO_LUMO_gap": 0.19734, 
			 "cosmo_polarized_energy": -17.0, 
			 "cosmo_cavitation_energy": 36.56, 
			 "cosmo_dispersion_energy": -26.25, 
			 "cosmo_repulsion_energy": 2.0, 
			 "cosmo_total_nonelectrostatic_energy": 12.31, 
			 "SMD_solvation_energy": 3.52 
		},
		"coords": [
			{
				"x": -0.0632157977,
				"y": -1.3163750969,
				"z": 4.7540613173,
				"element": "C" 
			},
			{
				"x": 0.1681321479,
				"y": -0.3435010221,
				"z": 3.6228008506,
				"element": "C" 
			},
			{
				"x": -0.6096576289,
				"y": 0.8172268139,
				"z": 3.5021906988,
				"element": "C" 
			},
			{
				"x": -0.4195297262,
				"y": 1.707833254,
				"z": 2.4467985643,
				"element": "C" 
			},
			{
				"x": 0.5618099313,
				"y": 1.4367132381,
				"z": 1.4903670751,
				"element": "C" 
			},
			{
				"x": 1.363514847,
				"y": 0.2979470909,
				"z": 1.5989960237,
				"element": "C" 
			},
			{
				"x": 1.1601730914,
				"y": -0.5821832871,
				"z": 2.6606763743,
				"element": "C" 
			},
			{
				"x": 0.793023029,
				"y": 2.5631486357,
				"z": 0.1028335042,
				"element": "S" 
			},
			{
				"x": 0.284300991,
				"y": 3.866973804,
				"z": 0.5394289192,
				"element": "O" 
			},
			{
				"x": 2.1718683209,
				"y": 2.3740588307,
				"z": -0.3580457558,
				"element": "O" 
			},
			{
				"x": -0.1893295455,
				"y": 2.080016301,
				"z": -1.1596191151,
				"element": "N" 
			},
			{
				"x": 0.1927018071,
				"y": 0.9410458497,
				"z": -2.0095611931,
				"element": "C" 
			},
			{
				"x": -0.6209438372,
				"y": -0.3196773588,
				"z": -1.6830444036,
				"element": "C" 
			},
			{
				"x": -2.1378786745,
				"y": -0.0506953431,
				"z": -1.7141639925,
				"element": "C" 
			},
			{
				"x": -2.5468769199,
				"y": 0.2597708997,
				"z": -3.0916904877,
				"element": "N" 
			},
			{
				"x": -2.4736757609,
				"y": 1.1454532343,
				"z": -0.8026300518,
				"element": "C" 
			},
			{
				"x": -1.6294815627,
				"y": 2.3821681546,
				"z": -1.1430764413,
				"element": "C" 
			},
			{
				"x": 0.8577638002,
				"y": -1.8397684102,
				"z": 5.0268179505,
				"element": "H" 
			},
			{
				"x": -0.4443194767,
				"y": -0.8103478789,
				"z": 5.6458202892,
				"element": "H" 
			},
			{
				"x": -0.800111728,
				"y": -2.0790250058,
				"z": 4.4722693189,
				"element": "H" 
			},
			{
				"x": -1.3657954186,
				"y": 1.0340514947,
				"z": 4.2524330379,
				"element": "H" 
			},
			{
				"x": -1.0010935933,
				"y": 2.6206226873,
				"z": 2.3763387099,
				"element": "H" 
			},
			{
				"x": 2.1536802285,
				"y": 0.1260797112,
				"z": 0.8761841319,
				"element": "H" 
			},
			{
				"x": 1.7915255476,
				"y": -1.4624267199,
				"z": 2.751180981,
				"element": "H" 
			},
			{
				"x": 1.2652390617,
				"y": 0.7739777031,
				"z": -1.90290949,
				"element": "H" 
			},
			{
				"x": 0.0044923427,
				"y": 1.240530468,
				"z": -3.0464198028,
				"element": "H" 
			},
			{
				"x": -0.3666232607,
				"y": -1.1111463981,
				"z": -2.4006890902,
				"element": "H" 
			},
			{
				"x": -0.3481813504,
				"y": -0.6920441525,
				"z": -0.6889287918,
				"element": "H" 
			},
			{
				"x": -2.6500925329,
				"y": -0.9415089221,
				"z": -1.309541954,
				"element": "H" 
			},
			{
				"x": -3.5514686972,
				"y": 0.4156916344,
				"z": -3.1313408924,
				"element": "H" 
			},
			{
				"x": -2.3530459055,
				"y": -0.5318380778,
				"z": -3.7006845423,
				"element": "H" 
			},
			{
				"x": -3.5387225236,
				"y": 1.3975216623,
				"z": -0.8934791893,
				"element": "H" 
			},
			{
				"x": -2.3037308087,
				"y": 0.8538738275,
				"z": 0.2401551192,
				"element": "H" 
			},
			{
				"x": -1.8910231005,
				"y": 2.7403293684,
				"z": -2.1448333029,
				"element": "H" 
			},
			{
				"x": -1.8034272966,
				"y": 3.2005030099,
				"z": -0.4432943692,
				"element": "H" 
			}
		],
		 "valence_orbital": [ 
			{
				"type": "occ",
				"energy": -0.28891,
				"method": "rhf"
			},
			{
				"type": "occ",
				"energy": -0.26788,
				"method": "rhf"
			},
			{
				"type": "occ",
				"energy": -0.26534,
				"method": "rhf"
			},
			{
				"type": "occ",
				"energy": -0.24855,
				"method": "rhf"
			},
			{
				"type": "occ",
				"energy": -0.22766,
				"method": "rhf"
			},
			{
				"type": "unocc",
				"energy": -0.03032,
				"method": "rhf"
			},
			{
				"type": "unocc",
				"energy": -0.01781,
				"method": "rhf"
			},
			{
				"type": "unocc",
				"energy": 0.06137,
				"method": "rhf"
			},
			{
				"type": "unocc",
				"energy": 0.06587,
				"method": "rhf"
			},
			{
				"type": "unocc",
				"energy": 0.09255,
				"method": "rhf"
			}
		],
		"cosmo_sigma_profile": { 
			"-0.025": 0.0,
			"-0.024": 0.0,
			"-0.023": 0.0,
			"-0.022": 0.0,
			"-0.021": 0.0,
			"-0.02": 0.0,
			"-0.019": 0.0,
			"-0.018": 0.0,
			"-0.017": 0.0,
			"-0.016": 0.0,
			"-0.015": 0.0,
			"-0.014": 0.0,
			"-0.013": 0.0,
			"-0.012": 0.0,
			"-0.011": 0.521561837291,
			"-0.01": 1.35190075931,
			"-0.009": 2.4811485156,
			"-0.008": 2.66647422894,
			"-0.007": 4.08673860722,
			"-0.006": 10.8160197667,
			"-0.005": 18.2706662824,
			"-0.004": 27.6729542515,
			"-0.003": 26.2387790475,
			"-0.002": 37.2772925373,
			"-0.001": 35.5748399896,
			"0.0": 23.8119258743,
			"0.001": 12.2858884367,
			"0.002": 12.885966997,
			"0.003": 14.3248782205,
			"0.004": 8.48877641118,
			"0.005": 5.03683734698,
			"0.006": 5.34821284358,
			"0.007": 4.78814349303,
			"0.008": 4.62670396103,
			"0.009": 4.56855445047,
			"0.01": 5.84225978477,
			"0.011": 7.67667002506,
			"0.012": 7.34238648356,
			"0.013": 0.864802977399,
			"0.014": 0.596280188052,
			"0.015": 0.354402444811,
			"0.016": 0.421989130519,
			"0.017": 0.0285687696383,
			"0.018": 0.0,
			"0.019": 0.0,
			"0.02": 0.0,
			"0.021": 0.0,
			"0.022": 0.0,
			"0.023": 0.0,
			"0.024": 0.0,
			"0.025": 0.0
		}
	}
}
