{
	 "smiles": "CC1=NOC(=N1)C1=CC(C)=C(C=C1)[N+]([O-])=O", 
	 "Tm": 406.15, 
	 "num_atms": 25, 
	 "gaussian": { 
		 "optdone": 1, 
		 "sigma_profile": "yes", 
		 "theory": "DFT", 
		 "functional": "B3LYP", 
		 "basiset": "6-31G**", 
		 "properties": { 
			 "R2extent": 5575.8682, 
			 "electric_dipole_moment_norm": 3.49417311248, 
			 "electric_quadrupole_moment_norm": 14.9690365445, 
			 "total_energy": -776.288750491, 
			 "HOMO_LUMO_gap": 0.16344, 
			 "cosmo_polarized_energy": -10.65, 
			 "cosmo_cavitation_energy": 30.62, 
			 "cosmo_dispersion_energy": -22.55, 
			 "cosmo_repulsion_energy": 1.73, 
			 "cosmo_total_nonelectrostatic_energy": 9.81, 
			 "SMD_solvation_energy": 5.7 
		},
		"coords": [
			{
				"x": -2.407106235,
				"y": 1.9723815368,
				"z": 3.4650961983,
				"element": "C" 
			},
			{
				"x": -1.4385733708,
				"y": 1.0128271033,
				"z": 2.8486403024,
				"element": "C" 
			},
			{
				"x": -0.3487338011,
				"y": 0.616468873,
				"z": 3.4657319339,
				"element": "N" 
			},
			{
				"x": 0.247778628,
				"y": -0.257999502,
				"z": 2.5424811219,
				"element": "O" 
			},
			{
				"x": -0.5567008278,
				"y": -0.2893524758,
				"z": 1.465641778,
				"element": "C" 
			},
			{
				"x": -1.6106333088,
				"y": 0.4721550952,
				"z": 1.594336922,
				"element": "N" 
			},
			{
				"x": -0.183739936,
				"y": -1.1281686748,
				"z": 0.3279856689,
				"element": "C" 
			},
			{
				"x": -1.021541558,
				"y": -1.160518532,
				"z": -0.7934563563,
				"element": "C" 
			},
			{
				"x": -0.7394408132,
				"y": -1.9432889329,
				"z": -1.9192853987,
				"element": "C" 
			},
			{
				"x": -1.7038318362,
				"y": -1.9088307653,
				"z": -3.0797404853,
				"element": "C" 
			},
			{
				"x": 0.4533223778,
				"y": -2.6948760002,
				"z": -1.8654758033,
				"element": "C" 
			},
			{
				"x": 1.3083000879,
				"y": -2.6668726458,
				"z": -0.7598722632,
				"element": "C" 
			},
			{
				"x": 0.9934328341,
				"y": -1.8904535663,
				"z": 0.3443518237,
				"element": "C" 
			},
			{
				"x": 0.8748697955,
				"y": -3.5630803333,
				"z": -2.9818209087,
				"element": "N" 
			},
			{
				"x": 0.0494962365,
				"y": -3.8334484586,
				"z": -3.8543753615,
				"element": "O" 
			},
			{
				"x": 2.0335037334,
				"y": -3.978298337,
				"z": -2.9736297935,
				"element": "O" 
			},
			{
				"x": -2.8110699992,
				"y": 1.5707568686,
				"z": 4.3985417055,
				"element": "H" 
			},
			{
				"x": -3.2284001716,
				"y": 2.1531370547,
				"z": 2.770880512,
				"element": "H" 
			},
			{
				"x": -1.9187213107,
				"y": 2.9233438988,
				"z": 3.6951752545,
				"element": "H" 
			},
			{
				"x": -1.9207644255,
				"y": -0.5539811063,
				"z": -0.7816118568,
				"element": "H" 
			},
			{
				"x": -2.4653481234,
				"y": -1.146194338,
				"z": -2.8995875926,
				"element": "H" 
			},
			{
				"x": -2.1951986262,
				"y": -2.8753698332,
				"z": -3.2159312286,
				"element": "H" 
			},
			{
				"x": -1.1977631865,
				"y": -1.6889714999,
				"z": -4.0226428597,
				"element": "H" 
			},
			{
				"x": 2.2121808636,
				"y": -3.2611612621,
				"z": -0.7909809591,
				"element": "H" 
			},
			{
				"x": 1.6480829736,
				"y": -1.8703041669,
				"z": 1.2079476463,
				"element": "H" 
			}
		],
		 "valence_orbital": [ 
			{
				"type": "occ",
				"energy": -0.31157,
				"method": "rhf"
			},
			{
				"type": "occ",
				"energy": -0.30669,
				"method": "rhf"
			},
			{
				"type": "occ",
				"energy": -0.29453,
				"method": "rhf"
			},
			{
				"type": "occ",
				"energy": -0.28023,
				"method": "rhf"
			},
			{
				"type": "occ",
				"energy": -0.26791,
				"method": "rhf"
			},
			{
				"type": "unocc",
				"energy": -0.10447,
				"method": "rhf"
			},
			{
				"type": "unocc",
				"energy": -0.04957,
				"method": "rhf"
			},
			{
				"type": "unocc",
				"energy": -0.03367,
				"method": "rhf"
			},
			{
				"type": "unocc",
				"energy": 0.00481,
				"method": "rhf"
			},
			{
				"type": "unocc",
				"energy": 0.04972,
				"method": "rhf"
			}
		],
		"cosmo_sigma_profile": { 
			"-0.025": 0.0,
			"-0.024": 0.0,
			"-0.023": 0.0,
			"-0.022": 0.0,
			"-0.021": 0.0,
			"-0.02": 0.0,
			"-0.019": 0.0,
			"-0.018": 0.0,
			"-0.017": 0.0,
			"-0.016": 0.0,
			"-0.015": 0.0,
			"-0.014": 0.0,
			"-0.013": 0.0,
			"-0.012": 0.0,
			"-0.011": 0.0,
			"-0.01": 0.0,
			"-0.009": 0.0106517616281,
			"-0.008": 2.59109684457,
			"-0.007": 7.67921158501,
			"-0.006": 12.4155044674,
			"-0.005": 14.3244495498,
			"-0.004": 21.3134658208,
			"-0.003": 25.868086971,
			"-0.002": 27.4804435114,
			"-0.001": 27.7198710444,
			"0.0": 23.4586174758,
			"0.001": 12.3333648977,
			"0.002": 6.96942209703,
			"0.003": 6.16389307743,
			"0.004": 6.15872988702,
			"0.005": 7.62295265098,
			"0.006": 8.77595309332,
			"0.007": 9.70082412236,
			"0.008": 8.09383924683,
			"0.009": 7.22186655773,
			"0.01": 4.97354678047,
			"0.011": 1.78835310306,
			"0.012": 2.20059349936,
			"0.013": 0.768521045965,
			"0.014": 0.0417804219455,
			"0.015": 0.0,
			"0.016": 0.0,
			"0.017": 0.0,
			"0.018": 0.0,
			"0.019": 0.0,
			"0.02": 0.0,
			"0.021": 0.0,
			"0.022": 0.0,
			"0.023": 0.0,
			"0.024": 0.0,
			"0.025": 0.0
		}
	}
}
