{
	 "smiles": "[O-][N+](=O)C=CC1=CC=C2OCOC2=C1", 
	 "Tm": 434.15, 
	 "num_atms": 21, 
	 "gaussian": { 
		 "optdone": 1, 
		 "sigma_profile": "yes", 
		 "theory": "DFT", 
		 "functional": "B3LYP", 
		 "basiset": "6-31G**", 
		 "properties": { 
			 "R2extent": 4124.3848, 
			 "electric_dipole_moment_norm": 5.94528553646, 
			 "electric_quadrupole_moment_norm": 17.6262553173, 
			 "total_energy": -702.669685491, 
			 "HOMO_LUMO_gap": 0.12958, 
			 "cosmo_polarized_energy": -12.34, 
			 "cosmo_cavitation_energy": 26.26, 
			 "cosmo_dispersion_energy": -19.93, 
			 "cosmo_repulsion_energy": 1.55, 
			 "cosmo_total_nonelectrostatic_energy": 7.88, 
			 "SMD_solvation_energy": 7.78 
		},
		"coords": [
			{
				"x": -1.7890101927,
				"y": -3.8002873008,
				"z": 0.3164263804,
				"element": "O" 
			},
			{
				"x": -1.1766827897,
				"y": -4.5499992027,
				"z": -0.4534052375,
				"element": "N" 
			},
			{
				"x": -1.4203111226,
				"y": -5.7557128348,
				"z": -0.5745716327,
				"element": "O" 
			},
			{
				"x": -0.10875777,
				"y": -4.0545807781,
				"z": -1.2839977668,
				"element": "C" 
			},
			{
				"x": 0.417348332,
				"y": -2.8128900505,
				"z": -1.4061700644,
				"element": "C" 
			},
			{
				"x": 0.2424523289,
				"y": -1.4726880641,
				"z": -0.8611414596,
				"element": "C" 
			},
			{
				"x": -0.7038792937,
				"y": -1.087003164,
				"z": 0.1118164215,
				"element": "C" 
			},
			{
				"x": -0.7934938141,
				"y": 0.2317318732,
				"z": 0.573283493,
				"element": "C" 
			},
			{
				"x": 0.0861281838,
				"y": 1.1556504889,
				"z": 0.0381686986,
				"element": "C" 
			},
			{
				"x": 0.1960323091,
				"y": 2.4850652873,
				"z": 0.3210844142,
				"element": "O" 
			},
			{
				"x": 1.2597169151,
				"y": 2.9873567177,
				"z": -0.504963025,
				"element": "C" 
			},
			{
				"x": 1.7689824108,
				"y": 1.8974175675,
				"z": -1.280693354,
				"element": "O" 
			},
			{
				"x": 1.0298817466,
				"y": 0.7960531455,
				"z": -0.9249720849,
				"element": "C" 
			},
			{
				"x": 1.134132846,
				"y": -0.4909654732,
				"z": -1.3905691448,
				"element": "C" 
			},
			{
				"x": 0.286535751,
				"y": -4.8674219902,
				"z": -1.8772978999,
				"element": "H" 
			},
			{
				"x": 1.2194650404,
				"y": -2.8375222036,
				"z": -2.1437902361,
				"element": "H" 
			},
			{
				"x": -1.3731515756,
				"y": -1.8359103007,
				"z": 0.5055264895,
				"element": "H" 
			},
			{
				"x": -1.5237847954,
				"y": 0.5185696659,
				"z": 1.3210294489,
				"element": "H" 
			},
			{
				"x": 0.8640985093,
				"y": 3.7625193768,
				"z": -1.171600572,
				"element": "H" 
			},
			{
				"x": 2.0544525099,
				"y": 3.3892599229,
				"z": 0.1342259567,
				"element": "H" 
			},
			{
				"x": 1.8743444707,
				"y": -0.750742683,
				"z": -2.139488825,
				"element": "H" 
			}
		],
		 "valence_orbital": [ 
			{
				"type": "occ",
				"energy": -0.29706,
				"method": "rhf"
			},
			{
				"type": "occ",
				"energy": -0.29684,
				"method": "rhf"
			},
			{
				"type": "occ",
				"energy": -0.27559,
				"method": "rhf"
			},
			{
				"type": "occ",
				"energy": -0.26114,
				"method": "rhf"
			},
			{
				"type": "occ",
				"energy": -0.2224,
				"method": "rhf"
			},
			{
				"type": "unocc",
				"energy": -0.09282,
				"method": "rhf"
			},
			{
				"type": "unocc",
				"energy": -0.01935,
				"method": "rhf"
			},
			{
				"type": "unocc",
				"energy": -0.01339,
				"method": "rhf"
			},
			{
				"type": "unocc",
				"energy": 0.06189,
				"method": "rhf"
			},
			{
				"type": "unocc",
				"energy": 0.06723,
				"method": "rhf"
			}
		],
		"cosmo_sigma_profile": { 
			"-0.025": 0.0,
			"-0.024": 0.0,
			"-0.023": 0.0,
			"-0.022": 0.0,
			"-0.021": 0.0,
			"-0.02": 0.0,
			"-0.019": 0.0,
			"-0.018": 0.0,
			"-0.017": 0.0,
			"-0.016": 0.0,
			"-0.015": 0.0,
			"-0.014": 0.0,
			"-0.013": 0.0,
			"-0.012": 0.0,
			"-0.011": 0.0,
			"-0.01": 0.617184424425,
			"-0.009": 5.17501425058,
			"-0.008": 13.6456493339,
			"-0.007": 11.6093398258,
			"-0.006": 11.7080041557,
			"-0.005": 8.84879809756,
			"-0.004": 9.985739154,
			"-0.003": 8.92887811503,
			"-0.002": 11.3064137874,
			"-0.001": 13.3049638226,
			"0.0": 15.8180590543,
			"0.001": 21.3411823963,
			"0.002": 18.3750475097,
			"0.003": 12.7252153581,
			"0.004": 5.87385740303,
			"0.005": 4.80898682093,
			"0.006": 5.58034860522,
			"0.007": 5.54128528322,
			"0.008": 8.48862505494,
			"0.009": 9.49277178586,
			"0.01": 5.16189366757,
			"0.011": 3.03161288283,
			"0.012": 0.212201633947,
			"0.013": 0.0,
			"0.014": 0.0,
			"0.015": 0.0,
			"0.016": 0.0,
			"0.017": 0.0,
			"0.018": 0.0,
			"0.019": 0.0,
			"0.02": 0.0,
			"0.021": 0.0,
			"0.022": 0.0,
			"0.023": 0.0,
			"0.024": 0.0,
			"0.025": 0.0
		}
	}
}
