{
	 "smiles": "COC1=C(OCC(F)(F)F)C=CC(CCC(O)=O)=C1", 
	 "Tm": 377.15, 
	 "num_atms": 32, 
	 "gaussian": { 
		 "optdone": 1, 
		 "sigma_profile": "yes", 
		 "theory": "DFT", 
		 "functional": "B3LYP", 
		 "basiset": "6-31G**", 
		 "properties": { 
			 "R2extent": 7392.4098, 
			 "electric_dipole_moment_norm": 2.92864669429, 
			 "electric_quadrupole_moment_norm": 10.0666426345, 
			 "total_energy": -1065.52599145, 
			 "HOMO_LUMO_gap": 0.22453, 
			 "cosmo_polarized_energy": -12.6, 
			 "cosmo_cavitation_energy": 37.64, 
			 "cosmo_dispersion_energy": -25.75, 
			 "cosmo_repulsion_energy": 1.97, 
			 "cosmo_total_nonelectrostatic_energy": 13.86, 
			 "SMD_solvation_energy": 9.25 
		},
		"coords": [
			{
				"x": 0.6236827829,
				"y": 2.5904252029,
				"z": 1.653964828,
				"element": "C" 
			},
			{
				"x": -0.1169776902,
				"y": 2.0414554466,
				"z": 0.5529896136,
				"element": "O" 
			},
			{
				"x": -0.2247312061,
				"y": 0.6675920955,
				"z": 0.5462476526,
				"element": "C" 
			},
			{
				"x": 0.882695191,
				"y": -0.158691863,
				"z": 0.2859293567,
				"element": "C" 
			},
			{
				"x": 2.1475791301,
				"y": 0.3689301513,
				"z": 0.0933197912,
				"element": "O" 
			},
			{
				"x": 2.3029208722,
				"y": 1.1398360292,
				"z": -1.0887969229,
				"element": "C" 
			},
			{
				"x": 3.6504443746,
				"y": 1.8296774419,
				"z": -1.0111625501,
				"element": "C" 
			},
			{
				"x": 4.6649074857,
				"y": 0.9540855617,
				"z": -0.907026329,
				"element": "F" 
			},
			{
				"x": 3.8419136569,
				"y": 2.5590772351,
				"z": -2.1323736574,
				"element": "F" 
			},
			{
				"x": 3.7225719541,
				"y": 2.668764995,
				"z": 0.0431610436,
				"element": "F" 
			},
			{
				"x": 0.7216954581,
				"y": -1.542786239,
				"z": 0.2743723669,
				"element": "C" 
			},
			{
				"x": -0.5314828498,
				"y": -2.1121504527,
				"z": 0.5015629887,
				"element": "C" 
			},
			{
				"x": -1.6511037058,
				"y": -1.3021949256,
				"z": 0.7346544336,
				"element": "C" 
			},
			{
				"x": -3.0279741466,
				"y": -1.900488026,
				"z": 0.9471860838,
				"element": "C" 
			},
			{
				"x": -3.8320011179,
				"y": -2.078403534,
				"z": -0.3534677957,
				"element": "C" 
			},
			{
				"x": -3.3535259176,
				"y": -3.2395948655,
				"z": -1.2003520842,
				"element": "C" 
			},
			{
				"x": -3.7937415855,
				"y": -3.1395566254,
				"z": -2.4764706046,
				"element": "O" 
			},
			{
				"x": -2.6909730124,
				"y": -4.1789193184,
				"z": -0.8138240188,
				"element": "O" 
			},
			{
				"x": -1.475562011,
				"y": 0.0877966566,
				"z": 0.7580281004,
				"element": "C" 
			},
			{
				"x": 0.184847275,
				"y": 2.2756536126,
				"z": 2.6083350585,
				"element": "H" 
			},
			{
				"x": 0.5446131927,
				"y": 3.6752379376,
				"z": 1.5598726974,
				"element": "H" 
			},
			{
				"x": 1.6755023889,
				"y": 2.2945349146,
				"z": 1.6168328778,
				"element": "H" 
			},
			{
				"x": 1.5283508486,
				"y": 1.9075212661,
				"z": -1.1786503035,
				"element": "H" 
			},
			{
				"x": 2.2927373295,
				"y": 0.5037082078,
				"z": -1.9829925855,
				"element": "H" 
			},
			{
				"x": 1.5942430685,
				"y": -2.1607845655,
				"z": 0.0870134637,
				"element": "H" 
			},
			{
				"x": -0.6492038356,
				"y": -3.1903471065,
				"z": 0.4782699542,
				"element": "H" 
			},
			{
				"x": -3.6044538559,
				"y": -1.2531510996,
				"z": 1.6166171545,
				"element": "H" 
			},
			{
				"x": -2.9409316153,
				"y": -2.8758538773,
				"z": 1.4349109365,
				"element": "H" 
			},
			{
				"x": -3.8233335817,
				"y": -1.1689102452,
				"z": -0.9620848162,
				"element": "H" 
			},
			{
				"x": -4.8863336341,
				"y": -2.2816591399,
				"z": -0.1212386843,
				"element": "H" 
			},
			{
				"x": -3.4771537557,
				"y": -3.9360435264,
				"z": -2.9355071983,
				"element": "H" 
			},
			{
				"x": -2.3123214878,
				"y": 0.7534386558,
				"z": 0.9526791489,
				"element": "H" 
			}
		],
		 "valence_orbital": [ 
			{
				"type": "occ",
				"energy": -0.3057,
				"method": "rhf"
			},
			{
				"type": "occ",
				"energy": -0.28145,
				"method": "rhf"
			},
			{
				"type": "occ",
				"energy": -0.27366,
				"method": "rhf"
			},
			{
				"type": "occ",
				"energy": -0.24732,
				"method": "rhf"
			},
			{
				"type": "occ",
				"energy": -0.23172,
				"method": "rhf"
			},
			{
				"type": "unocc",
				"energy": -0.00719,
				"method": "rhf"
			},
			{
				"type": "unocc",
				"energy": -0.00278,
				"method": "rhf"
			},
			{
				"type": "unocc",
				"energy": 0.00501,
				"method": "rhf"
			},
			{
				"type": "unocc",
				"energy": 0.07306,
				"method": "rhf"
			},
			{
				"type": "unocc",
				"energy": 0.07535,
				"method": "rhf"
			}
		],
		"cosmo_sigma_profile": { 
			"-0.025": 0.0,
			"-0.024": 0.0,
			"-0.023": 0.0,
			"-0.022": 0.0,
			"-0.021": 0.0,
			"-0.02": 0.0,
			"-0.019": 0.00552211561661,
			"-0.018": 0.612682305537,
			"-0.017": 0.996207751926,
			"-0.016": 0.74873980458,
			"-0.015": 0.766028080994,
			"-0.014": 0.784206646171,
			"-0.013": 0.744720961351,
			"-0.012": 0.592940168506,
			"-0.011": 1.09814454482,
			"-0.01": 0.46184100306,
			"-0.009": 0.475845902372,
			"-0.008": 2.91719467751,
			"-0.007": 6.37775576608,
			"-0.006": 12.9022504887,
			"-0.005": 17.1137363186,
			"-0.004": 22.0680845214,
			"-0.003": 27.9788581922,
			"-0.002": 22.4101410227,
			"-0.001": 20.73027561,
			"0.0": 17.2044367763,
			"0.001": 17.5030097967,
			"0.002": 30.0390897106,
			"0.003": 38.3030973986,
			"0.004": 14.4708524307,
			"0.005": 10.2914172627,
			"0.006": 5.64572224529,
			"0.007": 4.3910363255,
			"0.008": 4.62750872276,
			"0.009": 5.27102556803,
			"0.01": 3.81283859259,
			"0.011": 3.57081105464,
			"0.012": 3.0608857771,
			"0.013": 0.130197973458,
			"0.014": 0.0,
			"0.015": 0.0,
			"0.016": 0.0,
			"0.017": 0.0,
			"0.018": 0.0,
			"0.019": 0.0,
			"0.02": 0.0,
			"0.021": 0.0,
			"0.022": 0.0,
			"0.023": 0.0,
			"0.024": 0.0,
			"0.025": 0.0
		}
	}
}
