{
	 "smiles": "N#CC1=CC=C(C=C1)N1CCCCC1", 
	 "Tm": 325.15, 
	 "num_atms": 28, 
	 "gaussian": { 
		 "optdone": 1, 
		 "sigma_profile": "yes", 
		 "theory": "DFT", 
		 "functional": "B3LYP", 
		 "basiset": "6-31G**", 
		 "properties": { 
			 "R2extent": 4132.6383, 
			 "electric_dipole_moment_norm": 8.08677781258, 
			 "electric_quadrupole_moment_norm": 29.13510355, 
			 "total_energy": -575.205706805, 
			 "HOMO_LUMO_gap": 0.17807, 
			 "cosmo_polarized_energy": -11.56, 
			 "cosmo_cavitation_energy": 30.36, 
			 "cosmo_dispersion_energy": -22.07, 
			 "cosmo_repulsion_energy": 1.73, 
			 "cosmo_total_nonelectrostatic_energy": 10.02, 
			 "SMD_solvation_energy": 5.09 
		},
		"coords": [
			{
				"x": 4.9839339056,
				"y": 2.1245260014,
				"z": -3.1263936476,
				"element": "N" 
			},
			{
				"x": 4.0725107228,
				"y": 1.8265252424,
				"z": -2.4650198433,
				"element": "C" 
			},
			{
				"x": 2.9545614967,
				"y": 1.4609753579,
				"z": -1.6537745392,
				"element": "C" 
			},
			{
				"x": 1.8135722973,
				"y": 0.8683642496,
				"z": -2.2234282514,
				"element": "C" 
			},
			{
				"x": 0.7287969996,
				"y": 0.5098211028,
				"z": -1.4395135631,
				"element": "C" 
			},
			{
				"x": 0.7289178772,
				"y": 0.7331089001,
				"z": -0.0386942195,
				"element": "C" 
			},
			{
				"x": 1.8840158504,
				"y": 1.3342338247,
				"z": 0.5239385848,
				"element": "C" 
			},
			{
				"x": 2.9674108214,
				"y": 1.6847239539,
				"z": -0.265490696,
				"element": "C" 
			},
			{
				"x": -0.3493877991,
				"y": 0.3803837635,
				"z": 0.743852949,
				"element": "N" 
			},
			{
				"x": -1.651147891,
				"y": 0.0680502679,
				"z": 0.146711339,
				"element": "C" 
			},
			{
				"x": -2.7860266843,
				"y": 0.4079020147,
				"z": 1.1188030866,
				"element": "C" 
			},
			{
				"x": -2.6840746634,
				"y": -0.3864933018,
				"z": 2.4382746716,
				"element": "C" 
			},
			{
				"x": -1.2158640532,
				"y": -0.7317313095,
				"z": 2.7664630444,
				"element": "C" 
			},
			{
				"x": -0.2357232934,
				"y": 0.3029554742,
				"z": 2.2032613017,
				"element": "C" 
			},
			{
				"x": 1.7889759095,
				"y": 0.6774145596,
				"z": -3.2915786238,
				"element": "H" 
			},
			{
				"x": -0.1143632142,
				"y": 0.0229077106,
				"z": -1.9137062512,
				"element": "H" 
			},
			{
				"x": 1.9211246494,
				"y": 1.5576466147,
				"z": 1.5829799626,
				"element": "H" 
			},
			{
				"x": 3.8344353573,
				"y": 2.1512007124,
				"z": 0.1913250705,
				"element": "H" 
			},
			{
				"x": -1.7697725266,
				"y": 0.6660225278,
				"z": -0.761697635,
				"element": "H" 
			},
			{
				"x": -1.7127471082,
				"y": -0.9905619234,
				"z": -0.1553653933,
				"element": "H" 
			},
			{
				"x": -3.7457759686,
				"y": 0.2229832818,
				"z": 0.6251812145,
				"element": "H" 
			},
			{
				"x": -2.7431438592,
				"y": 1.4838745167,
				"z": 1.3241578026,
				"element": "H" 
			},
			{
				"x": -3.2672016281,
				"y": -1.3115604196,
				"z": 2.372258676,
				"element": "H" 
			},
			{
				"x": -3.1280220333,
				"y": 0.200898968,
				"z": 3.2494619151,
				"element": "H" 
			},
			{
				"x": -1.0664657719,
				"y": -0.8126702636,
				"z": 3.8481796512,
				"element": "H" 
			},
			{
				"x": -0.9559311277,
				"y": -1.7083659949,
				"z": 2.3417762269,
				"element": "H" 
			},
			{
				"x": 0.7847646908,
				"y": 0.0014975379,
				"z": 2.4573226166,
				"element": "H" 
			},
			{
				"x": -0.4069729558,
				"y": 1.2852666302,
				"z": 2.6738145506,
				"element": "H" 
			}
		],
		 "valence_orbital": [ 
			{
				"type": "occ",
				"energy": -0.33002,
				"method": "rhf"
			},
			{
				"type": "occ",
				"energy": -0.3101,
				"method": "rhf"
			},
			{
				"type": "occ",
				"energy": -0.28109,
				"method": "rhf"
			},
			{
				"type": "occ",
				"energy": -0.26222,
				"method": "rhf"
			},
			{
				"type": "occ",
				"energy": -0.2014,
				"method": "rhf"
			},
			{
				"type": "unocc",
				"energy": -0.02333,
				"method": "rhf"
			},
			{
				"type": "unocc",
				"energy": -0.01072,
				"method": "rhf"
			},
			{
				"type": "unocc",
				"energy": 0.05425,
				"method": "rhf"
			},
			{
				"type": "unocc",
				"energy": 0.06052,
				"method": "rhf"
			},
			{
				"type": "unocc",
				"energy": 0.08997,
				"method": "rhf"
			}
		],
		"cosmo_sigma_profile": { 
			"-0.025": 0.0,
			"-0.024": 0.0,
			"-0.023": 0.0,
			"-0.022": 0.0,
			"-0.021": 0.0,
			"-0.02": 0.0,
			"-0.019": 0.0,
			"-0.018": 0.0,
			"-0.017": 0.0,
			"-0.016": 0.0,
			"-0.015": 0.0,
			"-0.014": 0.0,
			"-0.013": 0.0,
			"-0.012": 0.0,
			"-0.011": 0.0,
			"-0.01": 0.0,
			"-0.009": 0.0,
			"-0.008": 0.0282335284066,
			"-0.007": 3.67240622371,
			"-0.006": 8.6111441545,
			"-0.005": 12.4717197207,
			"-0.004": 17.1452545989,
			"-0.003": 34.7784624844,
			"-0.002": 38.5396005377,
			"-0.001": 21.8855632279,
			"0.0": 19.7037924446,
			"0.001": 15.9262002369,
			"0.002": 10.5436406693,
			"0.003": 11.5502243623,
			"0.004": 13.3711907842,
			"0.005": 6.78376738579,
			"0.006": 2.05808486231,
			"0.007": 2.42024925751,
			"0.008": 3.08295160659,
			"0.009": 3.27632038327,
			"0.01": 3.90381791668,
			"0.011": 3.24506288069,
			"0.012": 2.95269104664,
			"0.013": 2.49782346256,
			"0.014": 1.66442495755,
			"0.015": 0.0781312909731,
			"0.016": 0.0,
			"0.017": 0.0,
			"0.018": 0.0,
			"0.019": 0.0,
			"0.02": 0.0,
			"0.021": 0.0,
			"0.022": 0.0,
			"0.023": 0.0,
			"0.024": 0.0,
			"0.025": 0.0
		}
	}
}
