{
	 "smiles": "O=S(=O)(CCC#N)C1=CC=CC=C1", 
	 "Tm": 368.15, 
	 "num_atms": 22, 
	 "gaussian": { 
		 "optdone": 1, 
		 "sigma_profile": "yes", 
		 "theory": "DFT", 
		 "functional": "B3LYP", 
		 "basiset": "6-31G**", 
		 "properties": { 
			 "R2extent": 2895.9052, 
			 "electric_dipole_moment_norm": 2.46291978351, 
			 "electric_quadrupole_moment_norm": 24.9529053054, 
			 "total_energy": -951.682918305, 
			 "HOMO_LUMO_gap": 0.2274, 
			 "cosmo_polarized_energy": -19.09, 
			 "cosmo_cavitation_energy": 28.08, 
			 "cosmo_dispersion_energy": -19.73, 
			 "cosmo_repulsion_energy": 1.52, 
			 "cosmo_total_nonelectrostatic_energy": 9.87, 
			 "SMD_solvation_energy": 5.28 
		},
		"coords": [
			{
				"x": 1.2915873662,
				"y": 0.9038248917,
				"z": -1.4163408959,
				"element": "O" 
			},
			{
				"x": 0.42662686,
				"y": 0.6350043908,
				"z": -0.2537985282,
				"element": "S" 
			},
			{
				"x": 0.9395582213,
				"y": 0.714898314,
				"z": 1.1228804747,
				"element": "O" 
			},
			{
				"x": -0.9452466926,
				"y": 1.8518277583,
				"z": -0.322888413,
				"element": "C" 
			},
			{
				"x": -1.3858591543,
				"y": 2.242384888,
				"z": -1.7406684622,
				"element": "C" 
			},
			{
				"x": -2.2798230092,
				"y": 1.2799118588,
				"z": -2.3908717048,
				"element": "C" 
			},
			{
				"x": -2.998705645,
				"y": 0.5305215777,
				"z": -2.9086339263,
				"element": "N" 
			},
			{
				"x": -0.3242554069,
				"y": -0.9818837043,
				"z": -0.4710706387,
				"element": "C" 
			},
			{
				"x": -0.3340942143,
				"y": -1.567595306,
				"z": -1.7377574613,
				"element": "C" 
			},
			{
				"x": -0.9135562124,
				"y": -2.8273603736,
				"z": -1.8905742249,
				"element": "C" 
			},
			{
				"x": -1.4682286822,
				"y": -3.4814283676,
				"z": -0.7887322765,
				"element": "C" 
			},
			{
				"x": -1.4400957166,
				"y": -2.8873786042,
				"z": 0.4761991633,
				"element": "C" 
			},
			{
				"x": -0.8620794185,
				"y": -1.6300175584,
				"z": 0.6442415768,
				"element": "C" 
			},
			{
				"x": -0.5087750734,
				"y": 2.7191581402,
				"z": 0.1802883139,
				"element": "H" 
			},
			{
				"x": -1.7628942438,
				"y": 1.4690950713,
				"z": 0.2917181258,
				"element": "H" 
			},
			{
				"x": -0.4972351305,
				"y": 2.3840402754,
				"z": -2.3657966546,
				"element": "H" 
			},
			{
				"x": -1.9078283466,
				"y": 3.2050550271,
				"z": -1.6932616788,
				"element": "H" 
			},
			{
				"x": 0.1138432395,
				"y": -1.0483784569,
				"z": -2.5773083199,
				"element": "H" 
			},
			{
				"x": -0.9311722866,
				"y": -3.2957709031,
				"z": -2.869490774,
				"element": "H" 
			},
			{
				"x": -1.9195479549,
				"y": -4.4611893136,
				"z": -0.9141272353,
				"element": "H" 
			},
			{
				"x": -1.8602111951,
				"y": -3.4063793878,
				"z": 1.3322439915,
				"element": "H" 
			},
			{
				"x": -0.8038073041,
				"y": -1.1647402178,
				"z": 1.6225495482,
				"element": "H" 
			}
		],
		 "valence_orbital": [ 
			{
				"type": "occ",
				"energy": -0.32152,
				"method": "rhf"
			},
			{
				"type": "occ",
				"energy": -0.30713,
				"method": "rhf"
			},
			{
				"type": "occ",
				"energy": -0.29493,
				"method": "rhf"
			},
			{
				"type": "occ",
				"energy": -0.2784,
				"method": "rhf"
			},
			{
				"type": "occ",
				"energy": -0.27333,
				"method": "rhf"
			},
			{
				"type": "unocc",
				"energy": -0.04593,
				"method": "rhf"
			},
			{
				"type": "unocc",
				"energy": -0.0249,
				"method": "rhf"
			},
			{
				"type": "unocc",
				"energy": 0.01809,
				"method": "rhf"
			},
			{
				"type": "unocc",
				"energy": 0.02474,
				"method": "rhf"
			},
			{
				"type": "unocc",
				"energy": 0.05194,
				"method": "rhf"
			}
		],
		"cosmo_sigma_profile": { 
			"-0.025": 0.0,
			"-0.024": 0.0,
			"-0.023": 0.0,
			"-0.022": 0.0,
			"-0.021": 0.0,
			"-0.02": 0.0,
			"-0.019": 0.0,
			"-0.018": 0.0,
			"-0.017": 0.0,
			"-0.016": 0.0,
			"-0.015": 0.0,
			"-0.014": 0.0,
			"-0.013": 0.0,
			"-0.012": 0.0,
			"-0.011": 0.0,
			"-0.01": 4.42638301222,
			"-0.009": 10.5074948739,
			"-0.008": 9.91062697039,
			"-0.007": 15.8469563611,
			"-0.006": 18.7601205018,
			"-0.005": 15.1431732809,
			"-0.004": 12.1376970055,
			"-0.003": 8.50926183977,
			"-0.002": 8.95821554129,
			"-0.001": 9.63335010878,
			"0.0": 9.07895713494,
			"0.001": 11.2180365988,
			"0.002": 13.6518586817,
			"0.003": 14.4744558812,
			"0.004": 6.16604389264,
			"0.005": 5.34494649887,
			"0.006": 5.06235688709,
			"0.007": 6.17146911221,
			"0.008": 5.83516375632,
			"0.009": 6.68959198035,
			"0.01": 7.89457111886,
			"0.011": 10.8336320489,
			"0.012": 7.42935924512,
			"0.013": 1.4395630865,
			"0.014": 0.0256205878944,
			"0.015": 0.0,
			"0.016": 0.0,
			"0.017": 0.0,
			"0.018": 0.0,
			"0.019": 0.0,
			"0.02": 0.0,
			"0.021": 0.0,
			"0.022": 0.0,
			"0.023": 0.0,
			"0.024": 0.0,
			"0.025": 0.0
		}
	}
}
