{
	 "smiles": "ClC1=C(C2=C(C=CC=C2)C=C1)S(Cl)(=O)=O", 
	 "Tm": 339.15, 
	 "num_atms": 21, 
	 "gaussian": { 
		 "optdone": 1, 
		 "sigma_profile": "yes", 
		 "theory": "DFT", 
		 "functional": "B3LYP", 
		 "basiset": "6-31G**", 
		 "properties": { 
			 "R2extent": 4946.5624, 
			 "electric_dipole_moment_norm": 6.16753455929, 
			 "electric_quadrupole_moment_norm": 12.5024388545, 
			 "total_energy": -1853.62219545, 
			 "HOMO_LUMO_gap": 0.15294, 
			 "cosmo_polarized_energy": -9.96, 
			 "cosmo_cavitation_energy": 29.59, 
			 "cosmo_dispersion_energy": -22.54, 
			 "cosmo_repulsion_energy": 1.69, 
			 "cosmo_total_nonelectrostatic_energy": 8.73, 
			 "SMD_solvation_energy": 3.35 
		},
		"coords": [
			{
				"x": -3.3653783585,
				"y": 1.6027029352,
				"z": 2.4304806408,
				"element": "Cl" 
			},
			{
				"x": -2.079448747,
				"y": 0.6829908716,
				"z": 1.6934373622,
				"element": "C" 
			},
			{
				"x": -1.2331123962,
				"y": 1.1269838793,
				"z": 0.6797726796,
				"element": "C" 
			},
			{
				"x": -0.1753643537,
				"y": 0.2746035484,
				"z": 0.1815203218,
				"element": "C" 
			},
			{
				"x": -0.0534005346,
				"y": -1.0420696693,
				"z": 0.7430261455,
				"element": "C" 
			},
			{
				"x": 0.968150325,
				"y": -1.9189398486,
				"z": 0.2942729285,
				"element": "C" 
			},
			{
				"x": 1.8622047693,
				"y": -1.5253341695,
				"z": -0.6721955944,
				"element": "C" 
			},
			{
				"x": 1.7554302549,
				"y": -0.2303812779,
				"z": -1.2225201135,
				"element": "C" 
			},
			{
				"x": 0.7701105879,
				"y": 0.6446177875,
				"z": -0.8167865896,
				"element": "C" 
			},
			{
				"x": -0.9569028336,
				"y": -1.4592577852,
				"z": 1.7511737531,
				"element": "C" 
			},
			{
				"x": -1.9386307756,
				"y": -0.627187423,
				"z": 2.2153619325,
				"element": "C" 
			},
			{
				"x": -1.4157577413,
				"y": 2.7741653112,
				"z": -0.0495010811,
				"element": "S" 
			},
			{
				"x": 0.325878423,
				"y": 3.7506374959,
				"z": 0.7346108098,
				"element": "Cl" 
			},
			{
				"x": -2.5480186343,
				"y": 3.499656981,
				"z": 0.4967903338,
				"element": "O" 
			},
			{
				"x": -1.2212643918,
				"y": 2.6798638634,
				"z": -1.4919033175,
				"element": "O" 
			},
			{
				"x": 1.0272414893,
				"y": -2.9092193702,
				"z": 0.7370898798,
				"element": "H" 
			},
			{
				"x": 2.6430215634,
				"y": -2.1995500231,
				"z": -1.0097941152,
				"element": "H" 
			},
			{
				"x": 2.4595309923,
				"y": 0.0892722941,
				"z": -1.9846813515,
				"element": "H" 
			},
			{
				"x": 0.7226554973,
				"y": 1.6174186053,
				"z": -1.2807366187,
				"element": "H" 
			},
			{
				"x": -0.8575819125,
				"y": -2.459647474,
				"z": 2.1629004228,
				"element": "H" 
			},
			{
				"x": -2.6245632234,
				"y": -0.9457265321,
				"z": 2.9910815714,
				"element": "H" 
			}
		],
		 "valence_orbital": [ 
			{
				"type": "occ",
				"energy": -0.31393,
				"method": "rhf"
			},
			{
				"type": "occ",
				"energy": -0.31032,
				"method": "rhf"
			},
			{
				"type": "occ",
				"energy": -0.3081,
				"method": "rhf"
			},
			{
				"type": "occ",
				"energy": -0.26884,
				"method": "rhf"
			},
			{
				"type": "occ",
				"energy": -0.25085,
				"method": "rhf"
			},
			{
				"type": "unocc",
				"energy": -0.09791,
				"method": "rhf"
			},
			{
				"type": "unocc",
				"energy": -0.0685,
				"method": "rhf"
			},
			{
				"type": "unocc",
				"energy": -0.04365,
				"method": "rhf"
			},
			{
				"type": "unocc",
				"energy": -0.01202,
				"method": "rhf"
			},
			{
				"type": "unocc",
				"energy": 0.00633,
				"method": "rhf"
			}
		],
		"cosmo_sigma_profile": { 
			"-0.025": 0.0,
			"-0.024": 0.0,
			"-0.023": 0.0,
			"-0.022": 0.0,
			"-0.021": 0.0,
			"-0.02": 0.0,
			"-0.019": 0.0,
			"-0.018": 0.0,
			"-0.017": 0.0,
			"-0.016": 0.0,
			"-0.015": 0.0,
			"-0.014": 0.0,
			"-0.013": 0.0,
			"-0.012": 0.0,
			"-0.011": 0.0,
			"-0.01": 0.0,
			"-0.009": 1.70578700122,
			"-0.008": 6.11571326181,
			"-0.007": 10.6238958656,
			"-0.006": 11.6310790579,
			"-0.005": 12.2489947373,
			"-0.004": 11.1862194676,
			"-0.003": 10.7303088818,
			"-0.002": 16.6983897221,
			"-0.001": 21.7178015793,
			"0.0": 23.5094731547,
			"0.001": 24.9267663337,
			"0.002": 25.1678043665,
			"0.003": 28.3314870827,
			"0.004": 11.0264674769,
			"0.005": 4.02729388383,
			"0.006": 4.95677781457,
			"0.007": 7.10529972834,
			"0.008": 9.56944228567,
			"0.009": 2.34042153145,
			"0.01": 0.0,
			"0.011": 0.0,
			"0.012": 0.0,
			"0.013": 0.0,
			"0.014": 0.0,
			"0.015": 0.0,
			"0.016": 0.0,
			"0.017": 0.0,
			"0.018": 0.0,
			"0.019": 0.0,
			"0.02": 0.0,
			"0.021": 0.0,
			"0.022": 0.0,
			"0.023": 0.0,
			"0.024": 0.0,
			"0.025": 0.0
		}
	}
}
