{
	 "smiles": "COC(=O)C1=CC=C(C=C1)C1=NNN=N1", 
	 "Tm": 504.15, 
	 "num_atms": 23, 
	 "gaussian": { 
		 "optdone": 1, 
		 "sigma_profile": "yes", 
		 "theory": "DFT", 
		 "functional": "B3LYP", 
		 "basiset": "6-31G**", 
		 "properties": { 
			 "R2extent": 4791.8177, 
			 "electric_dipole_moment_norm": 1.04396779165, 
			 "electric_quadrupole_moment_norm": 26.6919663663, 
			 "total_energy": -717.197351989, 
			 "HOMO_LUMO_gap": 0.18511, 
			 "cosmo_polarized_energy": -14.88, 
			 "cosmo_cavitation_energy": 28.88, 
			 "cosmo_dispersion_energy": -21.49, 
			 "cosmo_repulsion_energy": 1.67, 
			 "cosmo_total_nonelectrostatic_energy": 9.06, 
			 "SMD_solvation_energy": 4.31 
		},
		"coords": [
			{
				"x": -1.3092243926,
				"y": 0.4411645711,
				"z": -4.1908650218,
				"element": "C" 
			},
			{
				"x": -0.9244311475,
				"y": 0.5388845215,
				"z": -2.8110286116,
				"element": "O" 
			},
			{
				"x": -0.2922395173,
				"y": -0.5474276277,
				"z": -2.3114855178,
				"element": "C" 
			},
			{
				"x": -0.0595787803,
				"y": -1.5421720648,
				"z": -2.9709358268,
				"element": "O" 
			},
			{
				"x": 0.0794435146,
				"y": -0.3813278118,
				"z": -0.8775179972,
				"element": "C" 
			},
			{
				"x": -0.2085225701,
				"y": 0.7844777143,
				"z": -0.1540900359,
				"element": "C" 
			},
			{
				"x": 0.1615010007,
				"y": 0.8860639972,
				"z": 1.1828614481,
				"element": "C" 
			},
			{
				"x": 0.824712763,
				"y": -0.1775111019,
				"z": 1.8140857075,
				"element": "C" 
			},
			{
				"x": 1.1127730879,
				"y": -1.3449007581,
				"z": 1.0886482178,
				"element": "C" 
			},
			{
				"x": 0.7420885709,
				"y": -1.4435599261,
				"z": -0.2462263288,
				"element": "C" 
			},
			{
				"x": 1.2108850075,
				"y": -0.0616943078,
				"z": 3.2233399476,
				"element": "C" 
			},
			{
				"x": 1.8438145213,
				"y": -1.0148232711,
				"z": 3.913508916,
				"element": "N" 
			},
			{
				"x": 1.9579199401,
				"y": -0.4358762783,
				"z": 5.1018019084,
				"element": "N" 
			},
			{
				"x": 1.4442037673,
				"y": 0.7885462576,
				"z": 5.1808380707,
				"element": "N" 
			},
			{
				"x": 0.9650379457,
				"y": 1.0405777659,
				"z": 3.9926068873,
				"element": "N" 
			},
			{
				"x": -1.9965934698,
				"y": -0.3952540868,
				"z": -4.3404616174,
				"element": "H" 
			},
			{
				"x": -1.7979191131,
				"y": 1.3861909245,
				"z": -4.4274860558,
				"element": "H" 
			},
			{
				"x": -0.4319543043,
				"y": 0.292418475,
				"z": -4.8254706261,
				"element": "H" 
			},
			{
				"x": -0.7206636858,
				"y": 1.6048855628,
				"z": -0.6429475286,
				"element": "H" 
			},
			{
				"x": -0.0572694368,
				"y": 1.7841631501,
				"z": 1.7500361102,
				"element": "H" 
			},
			{
				"x": 1.6255463259,
				"y": -2.1651778898,
				"z": 1.5795247096,
				"element": "H" 
			},
			{
				"x": 0.9559579196,
				"y": -2.3370140829,
				"z": -0.8226557172,
				"element": "H" 
			},
			{
				"x": 2.401012053,
				"y": -0.8873337329,
				"z": 5.8907189619,
				"element": "H" 
			}
		],
		 "valence_orbital": [ 
			{
				"type": "occ",
				"energy": -0.30357,
				"method": "rhf"
			},
			{
				"type": "occ",
				"energy": -0.3,
				"method": "rhf"
			},
			{
				"type": "occ",
				"energy": -0.27575,
				"method": "rhf"
			},
			{
				"type": "occ",
				"energy": -0.26434,
				"method": "rhf"
			},
			{
				"type": "occ",
				"energy": -0.25022,
				"method": "rhf"
			},
			{
				"type": "unocc",
				"energy": -0.06511,
				"method": "rhf"
			},
			{
				"type": "unocc",
				"energy": -0.03544,
				"method": "rhf"
			},
			{
				"type": "unocc",
				"energy": -0.01052,
				"method": "rhf"
			},
			{
				"type": "unocc",
				"energy": 0.01845,
				"method": "rhf"
			},
			{
				"type": "unocc",
				"energy": 0.05899,
				"method": "rhf"
			}
		],
		"cosmo_sigma_profile": { 
			"-0.025": 0.0,
			"-0.024": 0.0,
			"-0.023": 0.0,
			"-0.022": 0.0,
			"-0.021": 0.0,
			"-0.02": 0.991765265206,
			"-0.019": 2.15248313021,
			"-0.018": 0.82477578958,
			"-0.017": 0.871867927245,
			"-0.016": 1.62569729213,
			"-0.015": 1.32575940165,
			"-0.014": 0.2069669429,
			"-0.013": 0.559214260467,
			"-0.012": 1.24911917161,
			"-0.011": 0.265148274853,
			"-0.01": 0.664393758576,
			"-0.009": 0.484206449833,
			"-0.008": 1.09082719905,
			"-0.007": 2.95068948069,
			"-0.006": 10.7257120285,
			"-0.005": 15.7063345983,
			"-0.004": 15.5079580885,
			"-0.003": 19.5056757773,
			"-0.002": 13.8725738718,
			"-0.001": 15.8065240795,
			"0.0": 18.6233012693,
			"0.001": 19.3042289103,
			"0.002": 23.0507746012,
			"0.003": 13.4197166889,
			"0.004": 5.9476877887,
			"0.005": 7.09584064357,
			"0.006": 5.872724407,
			"0.007": 5.05897003456,
			"0.008": 5.8226816448,
			"0.009": 5.52737650779,
			"0.01": 5.38607138106,
			"0.011": 5.40814911272,
			"0.012": 5.14789996,
			"0.013": 0.329862718138,
			"0.014": 0.0,
			"0.015": 0.0,
			"0.016": 0.0,
			"0.017": 0.0,
			"0.018": 0.0,
			"0.019": 0.0,
			"0.02": 0.0,
			"0.021": 0.0,
			"0.022": 0.0,
			"0.023": 0.0,
			"0.024": 0.0,
			"0.025": 0.0
		}
	}
}
