{
	 "smiles": "N[C@@H]1CC1C1=CC=CC=C1", 
	 "Tm": 352.65, 
	 "num_atms": 21, 
	 "gaussian": { 
		 "optdone": 1, 
		 "sigma_profile": "yes", 
		 "theory": "DFT", 
		 "functional": "B3LYP", 
		 "basiset": "6-31G**", 
		 "properties": { 
			 "R2extent": 1791.4271, 
			 "electric_dipole_moment_norm": 1.10610318235, 
			 "electric_quadrupole_moment_norm": 8.57360937995, 
			 "total_energy": -404.304643946, 
			 "HOMO_LUMO_gap": 0.21036, 
			 "cosmo_polarized_energy": -8.24, 
			 "cosmo_cavitation_energy": 23.88, 
			 "cosmo_dispersion_energy": -17.58, 
			 "cosmo_repulsion_energy": 1.43, 
			 "cosmo_total_nonelectrostatic_energy": 7.73, 
			 "SMD_solvation_energy": 2.38 
		},
		"coords": [
			{
				"x": 2.3224755008,
				"y": 1.1322905849,
				"z": 2.6464722516,
				"element": "N" 
			},
			{
				"x": 1.7380441466,
				"y": 0.6101712177,
				"z": 1.4382806804,
				"element": "C" 
			},
			{
				"x": 1.6576092302,
				"y": 1.460868722,
				"z": 0.2160228969,
				"element": "C" 
			},
			{
				"x": 0.3638579954,
				"y": 1.0355668442,
				"z": 0.9005147869,
				"element": "C" 
			},
			{
				"x": -0.5796055875,
				"y": 0.0598620514,
				"z": 0.2923289801,
				"element": "C" 
			},
			{
				"x": -1.9476752322,
				"y": 0.1318265513,
				"z": 0.601271046,
				"element": "C" 
			},
			{
				"x": -2.8579000337,
				"y": -0.7814412916,
				"z": 0.0702055049,
				"element": "C" 
			},
			{
				"x": -2.4197983093,
				"y": -1.7945189942,
				"z": -0.7842981304,
				"element": "C" 
			},
			{
				"x": -1.0627796044,
				"y": -1.8795760969,
				"z": -1.1015566106,
				"element": "C" 
			},
			{
				"x": -0.1543952659,
				"y": -0.9632906771,
				"z": -0.5720736394,
				"element": "C" 
			},
			{
				"x": 2.228123104,
				"y": 2.1434650495,
				"z": 2.6849362604,
				"element": "H" 
			},
			{
				"x": 1.8467791451,
				"y": 0.7572744997,
				"z": 3.4641253239,
				"element": "H" 
			},
			{
				"x": 1.97848778,
				"y": -0.4400196001,
				"z": 1.2793763227,
				"element": "H" 
			},
			{
				"x": 1.8951226696,
				"y": 1.0226619161,
				"z": -0.7490392727,
				"element": "H" 
			},
			{
				"x": 1.9423616395,
				"y": 2.5068418826,
				"z": 0.3039925693,
				"element": "H" 
			},
			{
				"x": -0.1218243505,
				"y": 1.8178093965,
				"z": 1.4810463381,
				"element": "H" 
			},
			{
				"x": -2.3000045451,
				"y": 0.9174003434,
				"z": 1.2655566137,
				"element": "H" 
			},
			{
				"x": -3.9112982,
				"y": -0.7000783396,
				"z": 0.324386249,
				"element": "H" 
			},
			{
				"x": -3.1264344397,
				"y": -2.5068380494,
				"z": -1.1999996584,
				"element": "H" 
			},
			{
				"x": -0.7080157781,
				"y": -2.6615237037,
				"z": -1.7675762205,
				"element": "H" 
			},
			{
				"x": 0.8955701354,
				"y": -1.0479523067,
				"z": -0.8394722918,
				"element": "H" 
			}
		],
		 "valence_orbital": [ 
			{
				"type": "occ",
				"energy": -0.32784,
				"method": "rhf"
			},
			{
				"type": "occ",
				"energy": -0.29791,
				"method": "rhf"
			},
			{
				"type": "occ",
				"energy": -0.25068,
				"method": "rhf"
			},
			{
				"type": "occ",
				"energy": -0.24393,
				"method": "rhf"
			},
			{
				"type": "occ",
				"energy": -0.20741,
				"method": "rhf"
			},
			{
				"type": "unocc",
				"energy": 0.00295,
				"method": "rhf"
			},
			{
				"type": "unocc",
				"energy": 0.00625,
				"method": "rhf"
			},
			{
				"type": "unocc",
				"energy": 0.08631,
				"method": "rhf"
			},
			{
				"type": "unocc",
				"energy": 0.09583,
				"method": "rhf"
			},
			{
				"type": "unocc",
				"energy": 0.09915,
				"method": "rhf"
			}
		],
		"cosmo_sigma_profile": { 
			"-0.025": 0.0,
			"-0.024": 0.0,
			"-0.023": 0.0,
			"-0.022": 0.0,
			"-0.021": 0.0,
			"-0.02": 0.0,
			"-0.019": 0.0,
			"-0.018": 0.0,
			"-0.017": 0.0,
			"-0.016": 0.0,
			"-0.015": 0.0,
			"-0.014": 0.0,
			"-0.013": 0.0,
			"-0.012": 0.0,
			"-0.011": 0.0851264162092,
			"-0.01": 2.4640240031,
			"-0.009": 2.46731027112,
			"-0.008": 3.38914242213,
			"-0.007": 2.97127770355,
			"-0.006": 6.26937049,
			"-0.005": 17.4494774049,
			"-0.004": 17.7476403858,
			"-0.003": 18.4433334634,
			"-0.002": 14.6279771881,
			"-0.001": 12.9537591124,
			"0.0": 10.5079823711,
			"0.001": 9.17515003056,
			"0.002": 10.4626476938,
			"0.003": 10.6672524533,
			"0.004": 11.4855413168,
			"0.005": 11.4639392421,
			"0.006": 9.95647417892,
			"0.007": 6.90024951305,
			"0.008": 1.51684551562,
			"0.009": 0.872031605668,
			"0.01": 0.593563533546,
			"0.011": 0.944798107843,
			"0.012": 0.857645318346,
			"0.013": 0.425772520446,
			"0.014": 0.545435547909,
			"0.015": 1.14000750146,
			"0.016": 0.334675061252,
			"0.017": 0.719702022975,
			"0.018": 0.654121427187,
			"0.019": 0.406563307591,
			"0.02": 0.0,
			"0.021": 0.0,
			"0.022": 0.0,
			"0.023": 0.0,
			"0.024": 0.0,
			"0.025": 0.0
		}
	}
}
