{
	 "smiles": "OC(=O)CCC(=O)C1=CC=C(C=C1)C1=CC=CC=C1", 
	 "Tm": 459.15, 
	 "num_atms": 33, 
	 "gaussian": { 
		 "optdone": 1, 
		 "sigma_profile": "yes", 
		 "theory": "DFT", 
		 "functional": "B3LYP", 
		 "basiset": "6-31G**", 
		 "properties": { 
			 "R2extent": 9417.5751, 
			 "electric_dipole_moment_norm": 5.01522794896, 
			 "electric_quadrupole_moment_norm": 25.0206306837, 
			 "total_energy": -843.841380111, 
			 "HOMO_LUMO_gap": 0.1696, 
			 "cosmo_polarized_energy": -17.0, 
			 "cosmo_cavitation_energy": 37.79, 
			 "cosmo_dispersion_energy": -27.06, 
			 "cosmo_repulsion_energy": 2.08, 
			 "cosmo_total_nonelectrostatic_energy": 12.8, 
			 "SMD_solvation_energy": 7.54 
		},
		"coords": [
			{
				"x": -0.1802992878,
				"y": 2.1245468659,
				"z": 5.7105153928,
				"element": "O" 
			},
			{
				"x": -1.1219002062,
				"y": 1.2657037882,
				"z": 6.1801738352,
				"element": "C" 
			},
			{
				"x": -1.9055373602,
				"y": 1.5745178802,
				"z": 7.0478683248,
				"element": "O" 
			},
			{
				"x": -1.0147614309,
				"y": -0.1111143099,
				"z": 5.5549776629,
				"element": "C" 
			},
			{
				"x": -0.4407061217,
				"y": -0.1509837632,
				"z": 4.1383082965,
				"element": "C" 
			},
			{
				"x": -1.3196825463,
				"y": 0.5902937996,
				"z": 3.1344291367,
				"element": "C" 
			},
			{
				"x": -2.3385392816,
				"y": 1.1543693628,
				"z": 3.5089546242,
				"element": "O" 
			},
			{
				"x": -0.9164729368,
				"y": 0.611383804,
				"z": 1.6951065416,
				"element": "C" 
			},
			{
				"x": -1.742327789,
				"y": 1.287688074,
				"z": 0.7827898025,
				"element": "C" 
			},
			{
				"x": -1.4180673009,
				"y": 1.3383797779,
				"z": -0.5660507734,
				"element": "C" 
			},
			{
				"x": -0.2536152005,
				"y": 0.7167209735,
				"z": -1.0561275418,
				"element": "C" 
			},
			{
				"x": 0.5705740896,
				"y": 0.0426171825,
				"z": -0.1382233978,
				"element": "C" 
			},
			{
				"x": 0.2454314639,
				"y": -0.0111873975,
				"z": 1.2139149049,
				"element": "C" 
			},
			{
				"x": 0.0939938096,
				"y": 0.7719750251,
				"z": -2.4976465636,
				"element": "C" 
			},
			{
				"x": -0.1526827418,
				"y": 1.9304801958,
				"z": -3.2545904732,
				"element": "C" 
			},
			{
				"x": 0.1745875236,
				"y": 1.9832058769,
				"z": -4.6085121468,
				"element": "C" 
			},
			{
				"x": 0.753667124,
				"y": 0.8782329608,
				"z": -5.2355494819,
				"element": "C" 
			},
			{
				"x": 1.003472996,
				"y": -0.2798833986,
				"z": -4.4967390087,
				"element": "C" 
			},
			{
				"x": 0.6779855461,
				"y": -0.3321967132,
				"z": -3.1423758992,
				"element": "C" 
			},
			{
				"x": -0.3303275832,
				"y": 2.9621689002,
				"z": 6.1797199513,
				"element": "H" 
			},
			{
				"x": -0.3788409592,
				"y": -0.7095526112,
				"z": 6.2196539827,
				"element": "H" 
			},
			{
				"x": -2.0159404337,
				"y": -0.5443970807,
				"z": 5.5905198787,
				"element": "H" 
			},
			{
				"x": -0.3305985367,
				"y": -1.193134437,
				"z": 3.8127084636,
				"element": "H" 
			},
			{
				"x": 0.5641766025,
				"y": 0.2856829391,
				"z": 4.1175723441,
				"element": "H" 
			},
			{
				"x": -2.6431906159,
				"y": 1.7598236272,
				"z": 1.1603311297,
				"element": "H" 
			},
			{
				"x": -2.0849185459,
				"y": 1.8426134988,
				"z": -1.2587648825,
				"element": "H" 
			},
			{
				"x": 1.4889265346,
				"y": -0.4206550892,
				"z": -0.4854326547,
				"element": "H" 
			},
			{
				"x": 0.9121933499,
				"y": -0.5324144482,
				"z": 1.8932293963,
				"element": "H" 
			},
			{
				"x": -0.5788746438,
				"y": 2.804292434,
				"z": -2.770847048,
				"element": "H" 
			},
			{
				"x": -0.0160181626,
				"y": 2.8917550669,
				"z": -5.1725808793,
				"element": "H" 
			},
			{
				"x": 1.0076718501,
				"y": 0.9191430814,
				"z": -6.2906929198,
				"element": "H" 
			},
			{
				"x": 1.4451273831,
				"y": -1.1480952139,
				"z": -4.977534803,
				"element": "H" 
			},
			{
				"x": 0.8516934117,
				"y": -1.2469806519,
				"z": -2.5835051948,
				"element": "H" 
			}
		],
		 "valence_orbital": [ 
			{
				"type": "occ",
				"energy": -0.26488,
				"method": "rhf"
			},
			{
				"type": "occ",
				"energy": -0.26352,
				"method": "rhf"
			},
			{
				"type": "occ",
				"energy": -0.25866,
				"method": "rhf"
			},
			{
				"type": "occ",
				"energy": -0.25366,
				"method": "rhf"
			},
			{
				"type": "occ",
				"energy": -0.23505,
				"method": "rhf"
			},
			{
				"type": "unocc",
				"energy": -0.06545,
				"method": "rhf"
			},
			{
				"type": "unocc",
				"energy": -0.0149,
				"method": "rhf"
			},
			{
				"type": "unocc",
				"energy": -0.0091,
				"method": "rhf"
			},
			{
				"type": "unocc",
				"energy": -0.00817,
				"method": "rhf"
			},
			{
				"type": "unocc",
				"energy": 0.02083,
				"method": "rhf"
			}
		],
		"cosmo_sigma_profile": { 
			"-0.025": 0.0,
			"-0.024": 0.0,
			"-0.023": 0.0,
			"-0.022": 0.0,
			"-0.021": 0.0,
			"-0.02": 0.0,
			"-0.019": 0.0,
			"-0.018": 0.493808885586,
			"-0.017": 1.05435552283,
			"-0.016": 0.555478379813,
			"-0.015": 1.10847039334,
			"-0.014": 0.616528231142,
			"-0.013": 0.61367282744,
			"-0.012": 0.681433380085,
			"-0.011": 0.821381162292,
			"-0.01": 0.673983756123,
			"-0.009": 0.598728465394,
			"-0.008": 0.328317150288,
			"-0.007": 6.59014616408,
			"-0.006": 24.1809862893,
			"-0.005": 28.64616039,
			"-0.004": 26.8833542503,
			"-0.003": 22.2718588754,
			"-0.002": 16.9743760047,
			"-0.001": 14.9488836486,
			"0.0": 15.6076054558,
			"0.001": 16.2396261153,
			"0.002": 23.3724566082,
			"0.003": 21.8085953797,
			"0.004": 21.2235194754,
			"0.005": 15.0357076877,
			"0.006": 7.1770995119,
			"0.007": 5.27261538431,
			"0.008": 4.9376756748,
			"0.009": 2.88255749336,
			"0.01": 3.97490608284,
			"0.011": 6.50305789882,
			"0.012": 7.27376963912,
			"0.013": 1.78888791954,
			"0.014": 0.0558116184156,
			"0.015": 0.0,
			"0.016": 0.0,
			"0.017": 0.0,
			"0.018": 0.0,
			"0.019": 0.0,
			"0.02": 0.0,
			"0.021": 0.0,
			"0.022": 0.0,
			"0.023": 0.0,
			"0.024": 0.0,
			"0.025": 0.0
		}
	}
}
