{
	 "smiles": "COC1=C(F)C=C(C=C1Cl)C#N", 
	 "Tm": 345.15, 
	 "num_atms": 17, 
	 "gaussian": { 
		 "optdone": 1, 
		 "sigma_profile": "yes", 
		 "theory": "DFT", 
		 "functional": "B3LYP", 
		 "basiset": "6-31G**", 
		 "properties": { 
			 "R2extent": 2606.2162, 
			 "electric_dipole_moment_norm": 4.74574413975, 
			 "electric_quadrupole_moment_norm": 15.904131628, 
			 "total_energy": -997.824970652, 
			 "HOMO_LUMO_gap": 0.19058, 
			 "cosmo_polarized_energy": -9.62, 
			 "cosmo_cavitation_energy": 24.97, 
			 "cosmo_dispersion_energy": -17.86, 
			 "cosmo_repulsion_energy": 1.41, 
			 "cosmo_total_nonelectrostatic_energy": 8.53, 
			 "SMD_solvation_energy": 6.77 
		},
		"coords": [
			{
				"x": 1.458916082,
				"y": 2.9917973744,
				"z": 1.5230254637,
				"element": "C" 
			},
			{
				"x": 0.656056039,
				"y": 2.2627470283,
				"z": 0.5847766785,
				"element": "O" 
			},
			{
				"x": 0.4730919688,
				"y": 0.9341169914,
				"z": 0.6692114682,
				"element": "C" 
			},
			{
				"x": 1.0051435226,
				"y": 0.0623383947,
				"z": 1.6387595447,
				"element": "C" 
			},
			{
				"x": 1.795448179,
				"y": 0.5551780841,
				"z": 2.6204282132,
				"element": "F" 
			},
			{
				"x": 0.7566862646,
				"y": -1.2990809225,
				"z": 1.6396454917,
				"element": "C" 
			},
			{
				"x": -0.0565017975,
				"y": -1.8536113773,
				"z": 0.6418830293,
				"element": "C" 
			},
			{
				"x": -0.60741205,
				"y": -1.0203076632,
				"z": -0.3441629267,
				"element": "C" 
			},
			{
				"x": -0.3427533907,
				"y": 0.3420043854,
				"z": -0.3226003235,
				"element": "C" 
			},
			{
				"x": -1.0349389167,
				"y": 1.3646325208,
				"z": -1.5553489967,
				"element": "Cl" 
			},
			{
				"x": -0.3234075274,
				"y": -3.2599539354,
				"z": 0.6284591723,
				"element": "C" 
			},
			{
				"x": -0.5403436429,
				"y": -4.4028912346,
				"z": 0.6175283602,
				"element": "N" 
			},
			{
				"x": 1.0581504094,
				"y": 2.9135577869,
				"z": 2.536309602,
				"element": "H" 
			},
			{
				"x": 1.4058142948,
				"y": 4.0262725799,
				"z": 1.1832042447,
				"element": "H" 
			},
			{
				"x": 2.4965492363,
				"y": 2.65028091,
				"z": 1.5100401157,
				"element": "H" 
			},
			{
				"x": 1.1988472583,
				"y": -1.9113324733,
				"z": 2.4165978849,
				"element": "H" 
			},
			{
				"x": -1.2379459295,
				"y": -1.4321484497,
				"z": -1.1224570222,
				"element": "H" 
			}
		],
		 "valence_orbital": [ 
			{
				"type": "occ",
				"energy": -0.33861,
				"method": "rhf"
			},
			{
				"type": "occ",
				"energy": -0.32556,
				"method": "rhf"
			},
			{
				"type": "occ",
				"energy": -0.32439,
				"method": "rhf"
			},
			{
				"type": "occ",
				"energy": -0.27184,
				"method": "rhf"
			},
			{
				"type": "occ",
				"energy": -0.24747,
				"method": "rhf"
			},
			{
				"type": "unocc",
				"energy": -0.05689,
				"method": "rhf"
			},
			{
				"type": "unocc",
				"energy": -0.0346,
				"method": "rhf"
			},
			{
				"type": "unocc",
				"energy": 0.00597,
				"method": "rhf"
			},
			{
				"type": "unocc",
				"energy": 0.02935,
				"method": "rhf"
			},
			{
				"type": "unocc",
				"energy": 0.07267,
				"method": "rhf"
			}
		],
		"cosmo_sigma_profile": { 
			"-0.025": 0.0,
			"-0.024": 0.0,
			"-0.023": 0.0,
			"-0.022": 0.0,
			"-0.021": 0.0,
			"-0.02": 0.0,
			"-0.019": 0.0,
			"-0.018": 0.0,
			"-0.017": 0.0,
			"-0.016": 0.0,
			"-0.015": 0.0,
			"-0.014": 0.0,
			"-0.013": 0.0,
			"-0.012": 0.0,
			"-0.011": 0.0,
			"-0.01": 1.05954388515,
			"-0.009": 3.60908846584,
			"-0.008": 3.59963876193,
			"-0.007": 5.44997248344,
			"-0.006": 11.9684253367,
			"-0.005": 11.2338842282,
			"-0.004": 14.0787527375,
			"-0.003": 13.5328398745,
			"-0.002": 18.0396411829,
			"-0.001": 21.483350117,
			"0.0": 20.6585647883,
			"0.001": 10.315670838,
			"0.002": 9.94688630382,
			"0.003": 15.2851606315,
			"0.004": 10.4670681732,
			"0.005": 5.57389620512,
			"0.006": 4.82679003816,
			"0.007": 3.99348987418,
			"0.008": 5.57055617932,
			"0.009": 4.08209455386,
			"0.01": 3.36536490436,
			"0.011": 2.43420635795,
			"0.012": 2.68661721193,
			"0.013": 1.10267571198,
			"0.014": 0.0,
			"0.015": 0.0,
			"0.016": 0.0,
			"0.017": 0.0,
			"0.018": 0.0,
			"0.019": 0.0,
			"0.02": 0.0,
			"0.021": 0.0,
			"0.022": 0.0,
			"0.023": 0.0,
			"0.024": 0.0,
			"0.025": 0.0
		}
	}
}
