{
	 "smiles": "ClCC1=NC2=C(C(=CS2)C2=CC=CS2)C(=O)N1", 
	 "Tm": 493.15, 
	 "num_atms": 24, 
	 "gaussian": { 
		 "optdone": 1, 
		 "sigma_profile": "yes", 
		 "theory": "DFT", 
		 "functional": "B3LYP", 
		 "basiset": "6-31G**", 
		 "properties": { 
			 "R2extent": 8091.0181, 
			 "electric_dipole_moment_norm": 1.92485141504, 
			 "electric_quadrupole_moment_norm": 14.1911346164, 
			 "total_energy": -1864.68815058, 
			 "HOMO_LUMO_gap": 0.14473, 
			 "cosmo_polarized_energy": -13.32, 
			 "cosmo_cavitation_energy": 33.4, 
			 "cosmo_dispersion_energy": -26.08, 
			 "cosmo_repulsion_energy": 1.91, 
			 "cosmo_total_nonelectrostatic_energy": 9.23, 
			 "SMD_solvation_energy": 3.85 
		},
		"coords": [
			{
				"x": -3.5257363513,
				"y": -0.1068046669,
				"z": -4.7261856453,
				"element": "Cl" 
			},
			{
				"x": -1.9051832699,
				"y": 0.6159955996,
				"z": -5.1069782632,
				"element": "C" 
			},
			{
				"x": -0.9767363279,
				"y": 0.636939207,
				"z": -3.9225079084,
				"element": "C" 
			},
			{
				"x": 0.2700957448,
				"y": 0.3182728863,
				"z": -4.1148893069,
				"element": "N" 
			},
			{
				"x": 1.0709262412,
				"y": 0.4410264561,
				"z": -3.0178333784,
				"element": "C" 
			},
			{
				"x": 0.7026393572,
				"y": 0.855109208,
				"z": -1.7331678616,
				"element": "C" 
			},
			{
				"x": 1.8152295894,
				"y": 0.8351917995,
				"z": -0.8004236537,
				"element": "C" 
			},
			{
				"x": 2.9646088946,
				"y": 0.4225094905,
				"z": -1.4372918164,
				"element": "C" 
			},
			{
				"x": 2.7590609695,
				"y": 0.0346912462,
				"z": -3.1139054866,
				"element": "S" 
			},
			{
				"x": 1.8053792067,
				"y": 1.1743303503,
				"z": 0.6263357066,
				"element": "C" 
			},
			{
				"x": 1.0056740818,
				"y": 2.0374373667,
				"z": 1.3397117782,
				"element": "C" 
			},
			{
				"x": 1.3685946257,
				"y": 2.1422423043,
				"z": 2.7135341048,
				"element": "C" 
			},
			{
				"x": 2.4374249218,
				"y": 1.3578134116,
				"z": 3.0485139983,
				"element": "C" 
			},
			{
				"x": 3.0186389726,
				"y": 0.4631947904,
				"z": 1.6849121728,
				"element": "S" 
			},
			{
				"x": -0.6995087818,
				"y": 1.198504858,
				"z": -1.5275540971,
				"element": "C" 
			},
			{
				"x": -1.2690541155,
				"y": 1.5788598839,
				"z": -0.5144445635,
				"element": "O" 
			},
			{
				"x": -1.4570109565,
				"y": 1.0551940858,
				"z": -2.7181459477,
				"element": "N" 
			},
			{
				"x": -2.1031435064,
				"y": 1.6286916341,
				"z": -5.4664584776,
				"element": "H" 
			},
			{
				"x": -1.4446874669,
				"y": 0.027877871,
				"z": -5.8978892896,
				"element": "H" 
			},
			{
				"x": 3.9484650507,
				"y": 0.3424955856,
				"z": -0.9967274752,
				"element": "H" 
			},
			{
				"x": 0.1725651555,
				"y": 2.5588723563,
				"z": 0.8910054591,
				"element": "H" 
			},
			{
				"x": 0.8485957446,
				"y": 2.7759318987,
				"z": 3.4230110676,
				"element": "H" 
			},
			{
				"x": 2.9094081329,
				"y": 1.2378401533,
				"z": 4.0138485427,
				"element": "H" 
			},
			{
				"x": -2.4489459129,
				"y": 1.2362822236,
				"z": -2.6056696586,
				"element": "H" 
			}
		],
		 "valence_orbital": [ 
			{
				"type": "occ",
				"energy": -0.28163,
				"method": "rhf"
			},
			{
				"type": "occ",
				"energy": -0.27393,
				"method": "rhf"
			},
			{
				"type": "occ",
				"energy": -0.24749,
				"method": "rhf"
			},
			{
				"type": "occ",
				"energy": -0.24562,
				"method": "rhf"
			},
			{
				"type": "occ",
				"energy": -0.20919,
				"method": "rhf"
			},
			{
				"type": "unocc",
				"energy": -0.06446,
				"method": "rhf"
			},
			{
				"type": "unocc",
				"energy": -0.037,
				"method": "rhf"
			},
			{
				"type": "unocc",
				"energy": -0.01787,
				"method": "rhf"
			},
			{
				"type": "unocc",
				"energy": 0.00691,
				"method": "rhf"
			},
			{
				"type": "unocc",
				"energy": 0.0136,
				"method": "rhf"
			}
		],
		"cosmo_sigma_profile": { 
			"-0.025": 0.0,
			"-0.024": 0.0,
			"-0.023": 0.0,
			"-0.022": 0.0,
			"-0.021": 0.0,
			"-0.02": 0.0,
			"-0.019": 0.0,
			"-0.018": 0.0,
			"-0.017": 0.0,
			"-0.016": 0.0,
			"-0.015": 0.13838775524,
			"-0.014": 1.05586932373,
			"-0.013": 0.896629351934,
			"-0.012": 0.784341906519,
			"-0.011": 1.75535979521,
			"-0.01": 3.84723461091,
			"-0.009": 7.01845839641,
			"-0.008": 7.96079508074,
			"-0.007": 7.80979264373,
			"-0.006": 9.75768206319,
			"-0.005": 12.228377214,
			"-0.004": 12.5375353802,
			"-0.003": 15.4859464668,
			"-0.002": 15.5072703876,
			"-0.001": 18.1794723776,
			"0.0": 24.1083067855,
			"0.001": 26.0504789582,
			"0.002": 26.6096680014,
			"0.003": 20.6256303686,
			"0.004": 21.263301308,
			"0.005": 18.0036211426,
			"0.006": 5.61079952533,
			"0.007": 2.49554442173,
			"0.008": 3.04574474805,
			"0.009": 2.61825637105,
			"0.01": 2.3580202159,
			"0.011": 3.45729838708,
			"0.012": 3.44268705778,
			"0.013": 1.57741761481,
			"0.014": 0.00414463030417,
			"0.015": 0.0,
			"0.016": 0.0,
			"0.017": 0.0,
			"0.018": 0.0,
			"0.019": 0.0,
			"0.02": 0.0,
			"0.021": 0.0,
			"0.022": 0.0,
			"0.023": 0.0,
			"0.024": 0.0,
			"0.025": 0.0
		}
	}
}
