{
	 "smiles": "NC1=NC(=CS1)C1=CC=CS1", 
	 "Tm": 410.15, 
	 "num_atms": 17, 
	 "gaussian": { 
		 "optdone": 1, 
		 "sigma_profile": "yes", 
		 "theory": "DFT", 
		 "functional": "B3LYP", 
		 "basiset": "6-31G**", 
		 "properties": { 
			 "R2extent": 4259.0974, 
			 "electric_dipole_moment_norm": 1.94139782631, 
			 "electric_quadrupole_moment_norm": 18.4970064108, 
			 "total_energy": -1176.22136998, 
			 "HOMO_LUMO_gap": 0.16185, 
			 "cosmo_polarized_energy": -11.15, 
			 "cosmo_cavitation_energy": 24.7, 
			 "cosmo_dispersion_energy": -19.65, 
			 "cosmo_repulsion_energy": 1.48, 
			 "cosmo_total_nonelectrostatic_energy": 6.52, 
			 "SMD_solvation_energy": 2.78 
		},
		"coords": [
			{
				"x": -3.2342295384,
				"y": 3.0766274482,
				"z": -3.5279046787,
				"element": "N" 
			},
			{
				"x": -2.5152108283,
				"y": 2.9644467006,
				"z": -2.3594106049,
				"element": "C" 
			},
			{
				"x": -1.7637054629,
				"y": 1.9479547018,
				"z": -2.0631420797,
				"element": "N" 
			},
			{
				"x": -1.2272719055,
				"y": 2.0778798762,
				"z": -0.787307866,
				"element": "C" 
			},
			{
				"x": -1.5755733013,
				"y": 3.2195455692,
				"z": -0.1165661972,
				"element": "C" 
			},
			{
				"x": -2.6445225576,
				"y": 4.1951030346,
				"z": -1.0911499056,
				"element": "S" 
			},
			{
				"x": -0.3566271903,
				"y": 1.0123702097,
				"z": -0.3049181248,
				"element": "C" 
			},
			{
				"x": -0.0094833876,
				"y": -0.1371293156,
				"z": -0.9763328718,
				"element": "C" 
			},
			{
				"x": 0.8611124307,
				"y": -0.9845408305,
				"z": -0.2315979007,
				"element": "C" 
			},
			{
				"x": 1.1722100424,
				"y": -0.4775451014,
				"z": 0.9998903962,
				"element": "C" 
			},
			{
				"x": 0.4010686052,
				"y": 1.0539193256,
				"z": 1.2729412047,
				"element": "S" 
			},
			{
				"x": -2.9359083975,
				"y": 2.4195918454,
				"z": -4.2371193642,
				"element": "H" 
			},
			{
				"x": -3.3945204023,
				"y": 4.0105537743,
				"z": -3.8773839522,
				"element": "H" 
			},
			{
				"x": -1.2757321091,
				"y": 3.5474086675,
				"z": 0.867788484,
				"element": "H" 
			},
			{
				"x": -0.3785702158,
				"y": -0.3491500231,
				"z": -1.9716801175,
				"element": "H" 
			},
			{
				"x": 1.2395635321,
				"y": -1.9322015484,
				"z": -0.5978784526,
				"element": "H" 
			},
			{
				"x": 1.8045006861,
				"y": -0.9047343343,
				"z": 1.7656720311,
				"element": "H" 
			}
		],
		 "valence_orbital": [ 
			{
				"type": "occ",
				"energy": -0.28381,
				"method": "rhf"
			},
			{
				"type": "occ",
				"energy": -0.27591,
				"method": "rhf"
			},
			{
				"type": "occ",
				"energy": -0.24693,
				"method": "rhf"
			},
			{
				"type": "occ",
				"energy": -0.23994,
				"method": "rhf"
			},
			{
				"type": "occ",
				"energy": -0.19523,
				"method": "rhf"
			},
			{
				"type": "unocc",
				"energy": -0.03338,
				"method": "rhf"
			},
			{
				"type": "unocc",
				"energy": 0.00729,
				"method": "rhf"
			},
			{
				"type": "unocc",
				"energy": 0.01457,
				"method": "rhf"
			},
			{
				"type": "unocc",
				"energy": 0.03253,
				"method": "rhf"
			},
			{
				"type": "unocc",
				"energy": 0.05636,
				"method": "rhf"
			}
		],
		"cosmo_sigma_profile": { 
			"-0.025": 0.0,
			"-0.024": 0.0,
			"-0.023": 0.0,
			"-0.022": 0.0,
			"-0.021": 0.0,
			"-0.02": 0.0,
			"-0.019": 0.0,
			"-0.018": 0.0,
			"-0.017": 0.0,
			"-0.016": 0.0,
			"-0.015": 0.691666300125,
			"-0.014": 1.79544979656,
			"-0.013": 2.69876256783,
			"-0.012": 2.3713364604,
			"-0.011": 2.60246042245,
			"-0.01": 2.4739166055,
			"-0.009": 2.9912929428,
			"-0.008": 5.89929865405,
			"-0.007": 6.32946237921,
			"-0.006": 7.47781143202,
			"-0.005": 7.91778643826,
			"-0.004": 9.51337647535,
			"-0.003": 9.31033611759,
			"-0.002": 8.22004153284,
			"-0.001": 9.55493660132,
			"0.0": 10.8335931754,
			"0.001": 12.485162408,
			"0.002": 18.7452132831,
			"0.003": 20.2376510809,
			"0.004": 26.0375619569,
			"0.005": 16.9439228197,
			"0.006": 5.49583230671,
			"0.007": 3.21700192599,
			"0.008": 1.67766746438,
			"0.009": 2.56635331059,
			"0.01": 1.62401210841,
			"0.011": 1.93533363169,
			"0.012": 1.19650190791,
			"0.013": 0.0,
			"0.014": 0.0,
			"0.015": 0.0,
			"0.016": 0.0,
			"0.017": 0.0,
			"0.018": 0.0,
			"0.019": 0.0,
			"0.02": 0.0,
			"0.021": 0.0,
			"0.022": 0.0,
			"0.023": 0.0,
			"0.024": 0.0,
			"0.025": 0.0
		}
	}
}
