{
	 "smiles": "COC1=CC=C(SCC(O)=O)C=C1", 
	 "Tm": 351.15, 
	 "num_atms": 23, 
	 "gaussian": { 
		 "optdone": 1, 
		 "sigma_profile": "yes", 
		 "theory": "DFT", 
		 "functional": "B3LYP", 
		 "basiset": "6-31G**", 
		 "properties": { 
			 "R2extent": 4632.0653, 
			 "electric_dipole_moment_norm": 5.2865780435, 
			 "electric_quadrupole_moment_norm": 12.5797944777, 
			 "total_energy": -972.837567437, 
			 "HOMO_LUMO_gap": 0.20999, 
			 "cosmo_polarized_energy": -13.8, 
			 "cosmo_cavitation_energy": 28.78, 
			 "cosmo_dispersion_energy": -21.32, 
			 "cosmo_repulsion_energy": 1.66, 
			 "cosmo_total_nonelectrostatic_energy": 9.12, 
			 "SMD_solvation_energy": 6.58 
		},
		"coords": [
			{
				"x": 1.9979012048,
				"y": -2.5726315676,
				"z": -2.8172314448,
				"element": "C" 
			},
			{
				"x": 1.2074509936,
				"y": -1.5014605106,
				"z": -2.3209114929,
				"element": "O" 
			},
			{
				"x": 1.4278019602,
				"y": -1.0668820703,
				"z": -1.0515916935,
				"element": "C" 
			},
			{
				"x": 0.6137161746,
				"y": -0.0050035237,
				"z": -0.6232877681,
				"element": "C" 
			},
			{
				"x": 0.7617347202,
				"y": 0.5206876782,
				"z": 0.6518168736,
				"element": "C" 
			},
			{
				"x": 1.7140045035,
				"y": -0.0157575046,
				"z": 1.535706308,
				"element": "C" 
			},
			{
				"x": 1.9693433154,
				"y": 0.6583562069,
				"z": 3.1805865903,
				"element": "S" 
			},
			{
				"x": 0.4854963842,
				"y": 0.052280026,
				"z": 4.0845664212,
				"element": "C" 
			},
			{
				"x": -0.813624265,
				"y": 0.8385629106,
				"z": 3.862044069,
				"element": "C" 
			},
			{
				"x": -0.6796957342,
				"y": 2.0999099006,
				"z": 3.4043418364,
				"element": "O" 
			},
			{
				"x": -1.8908311256,
				"y": 0.3636922492,
				"z": 4.1221204037,
				"element": "O" 
			},
			{
				"x": 2.5204380633,
				"y": -1.0726067955,
				"z": 1.1050589384,
				"element": "C" 
			},
			{
				"x": 2.3878576745,
				"y": -1.5991658215,
				"z": -0.181869088,
				"element": "C" 
			},
			{
				"x": 1.6550854204,
				"y": -2.7506031899,
				"z": -3.8372314761,
				"element": "H" 
			},
			{
				"x": 1.8580503863,
				"y": -3.4854455266,
				"z": -2.2246589861,
				"element": "H" 
			},
			{
				"x": 3.0639373157,
				"y": -2.3132710993,
				"z": -2.8342826526,
				"element": "H" 
			},
			{
				"x": -0.1223043538,
				"y": 0.394411504,
				"z": -1.3129912301,
				"element": "H" 
			},
			{
				"x": 0.1282188041,
				"y": 1.3435153835,
				"z": 0.9663046906,
				"element": "H" 
			},
			{
				"x": 0.7382478904,
				"y": 0.1235826566,
				"z": 5.1484647634,
				"element": "H" 
			},
			{
				"x": 0.298202748,
				"y": -0.9979945663,
				"z": 3.8577729982,
				"element": "H" 
			},
			{
				"x": 0.2699901188,
				"y": 2.2643937863,
				"z": 3.2380083629,
				"element": "H" 
			},
			{
				"x": 3.2618902795,
				"y": -1.4900076458,
				"z": 1.779070593,
				"element": "H" 
			},
			{
				"x": 3.0286875211,
				"y": -2.41716248,
				"z": -0.4881070168,
				"element": "H" 
			}
		],
		 "valence_orbital": [ 
			{
				"type": "occ",
				"energy": -0.3126,
				"method": "rhf"
			},
			{
				"type": "occ",
				"energy": -0.28473,
				"method": "rhf"
			},
			{
				"type": "occ",
				"energy": -0.2682,
				"method": "rhf"
			},
			{
				"type": "occ",
				"energy": -0.25003,
				"method": "rhf"
			},
			{
				"type": "occ",
				"energy": -0.2326,
				"method": "rhf"
			},
			{
				"type": "unocc",
				"energy": -0.02261,
				"method": "rhf"
			},
			{
				"type": "unocc",
				"energy": -0.01932,
				"method": "rhf"
			},
			{
				"type": "unocc",
				"energy": 0.0105,
				"method": "rhf"
			},
			{
				"type": "unocc",
				"energy": 0.03482,
				"method": "rhf"
			},
			{
				"type": "unocc",
				"energy": 0.057,
				"method": "rhf"
			}
		],
		"cosmo_sigma_profile": { 
			"-0.025": 0.0,
			"-0.024": 0.0,
			"-0.023": 0.0,
			"-0.022": 0.0,
			"-0.021": 0.0,
			"-0.02": 0.0,
			"-0.019": 0.0,
			"-0.018": 0.0,
			"-0.017": 0.0,
			"-0.016": 0.0,
			"-0.015": 0.0,
			"-0.014": 0.0,
			"-0.013": 0.234200568597,
			"-0.012": 0.511815182298,
			"-0.011": 1.20737457818,
			"-0.01": 2.97372146789,
			"-0.009": 4.86521250703,
			"-0.008": 3.45055378518,
			"-0.007": 7.52802830206,
			"-0.006": 15.2339179417,
			"-0.005": 20.6842428768,
			"-0.004": 18.6980965849,
			"-0.003": 17.8305154735,
			"-0.002": 11.9535286968,
			"-0.001": 11.1122118194,
			"0.0": 11.4375076448,
			"0.001": 11.9062933543,
			"0.002": 14.699361336,
			"0.003": 15.4586817206,
			"0.004": 17.527354443,
			"0.005": 7.93765325806,
			"0.006": 4.37405177838,
			"0.007": 4.23309691179,
			"0.008": 4.48571872185,
			"0.009": 5.12858779552,
			"0.01": 6.12610342305,
			"0.011": 4.96187019685,
			"0.012": 5.16835051771,
			"0.013": 1.24746338268,
			"0.014": 0.0,
			"0.015": 0.0,
			"0.016": 0.0,
			"0.017": 0.0,
			"0.018": 0.0,
			"0.019": 0.0,
			"0.02": 0.0,
			"0.021": 0.0,
			"0.022": 0.0,
			"0.023": 0.0,
			"0.024": 0.0,
			"0.025": 0.0
		}
	}
}
