{
	 "smiles": "CC12CC(O)C3C(CCC4(O)CC(O)CC(O)C34CO)C1(O)CCC2C1=CC(=O)OC1", 
	 "Tm": 509.15, 
	 "num_atms": 65, 
	 "gaussian": { 
		 "optdone": 1, 
		 "sigma_profile": "yes", 
		 "theory": "DFT", 
		 "functional": "B3LYP", 
		 "basiset": "6-31G**", 
		 "properties": { 
			 "R2extent": 15007.3843, 
			 "electric_dipole_moment_norm": 10.0965010796, 
			 "electric_quadrupole_moment_norm": 57.3454992926, 
			 "total_energy": -1498.68158595, 
			 "HOMO_LUMO_gap": 0.21615, 
			 "cosmo_polarized_energy": -33.77, 
			 "cosmo_cavitation_energy": 53.65, 
			 "cosmo_dispersion_energy": -38.34, 
			 "cosmo_repulsion_energy": 2.77, 
			 "cosmo_total_nonelectrostatic_energy": 18.08, 
			 "SMD_solvation_energy": 9.08 
		},
		"coords": [
			{
				"x": 0.5596067266,
				"y": -1.7855735163,
				"z": 1.7300094938,
				"element": "C" 
			},
			{
				"x": 1.7060695967,
				"y": -1.0217263482,
				"z": 1.0447177318,
				"element": "C" 
			},
			{
				"x": 1.6263054206,
				"y": -1.2497708675,
				"z": -0.5063205818,
				"element": "C" 
			},
			{
				"x": 0.9766014268,
				"y": -0.1466233336,
				"z": -1.3759861568,
				"element": "C" 
			},
			{
				"x": 1.9968501811,
				"y": 0.7483542523,
				"z": -1.8942118871,
				"element": "O" 
			},
			{
				"x": -0.0792258279,
				"y": 0.6369841555,
				"z": -0.5878255497,
				"element": "C" 
			},
			{
				"x": 0.4892421134,
				"y": 1.2716507354,
				"z": 0.7248322223,
				"element": "C" 
			},
			{
				"x": 0.7448450479,
				"y": 2.7828059117,
				"z": 0.5905445884,
				"element": "C" 
			},
			{
				"x": -0.5238355747,
				"y": 3.5586856355,
				"z": 0.1654127376,
				"element": "C" 
			},
			{
				"x": -1.6284178597,
				"y": 2.6737235942,
				"z": -0.4444733911,
				"element": "C" 
			},
			{
				"x": -2.2565946147,
				"y": 1.9961091516,
				"z": 0.6653770786,
				"element": "O" 
			},
			{
				"x": -2.6859446781,
				"y": 3.5547993338,
				"z": -1.1443855286,
				"element": "C" 
			},
			{
				"x": -3.8467492375,
				"y": 2.7521397148,
				"z": -1.7445685831,
				"element": "C" 
			},
			{
				"x": -4.6412489958,
				"y": 2.2876166275,
				"z": -0.6312171414,
				"element": "O" 
			},
			{
				"x": -3.3483060992,
				"y": 1.5795543785,
				"z": -2.600386796,
				"element": "C" 
			},
			{
				"x": -2.2516296095,
				"y": 0.7431662311,
				"z": -1.9162915506,
				"element": "C" 
			},
			{
				"x": -1.777726001,
				"y": -0.2725472593,
				"z": -2.8099878749,
				"element": "O" 
			},
			{
				"x": -1.0379435311,
				"y": 1.5889099624,
				"z": -1.4242074891,
				"element": "C" 
			},
			{
				"x": -0.3782565294,
				"y": 2.2242357725,
				"z": -2.6883758311,
				"element": "C" 
			},
			{
				"x": 0.7403423495,
				"y": 3.0617896945,
				"z": -2.4724446665,
				"element": "O" 
			},
			{
				"x": 1.6833467049,
				"y": 0.5039188078,
				"z": 1.3633300159,
				"element": "C" 
			},
			{
				"x": 1.5488112369,
				"y": 0.594621966,
				"z": 2.8002093265,
				"element": "O" 
			},
			{
				"x": 3.1149157753,
				"y": 0.9528940957,
				"z": 1.0106511366,
				"element": "C" 
			},
			{
				"x": 4.0040329337,
				"y": -0.1663846073,
				"z": 1.5825583647,
				"element": "C" 
			},
			{
				"x": 3.1502079317,
				"y": -1.4792782468,
				"z": 1.540539061,
				"element": "C" 
			},
			{
				"x": 3.2054667964,
				"y": -2.2532924529,
				"z": 2.8307297252,
				"element": "C" 
			},
			{
				"x": 3.0536024238,
				"y": -1.8668017687,
				"z": 4.106193567,
				"element": "C" 
			},
			{
				"x": 3.237871848,
				"y": -3.027956395,
				"z": 4.9999485847,
				"element": "C" 
			},
			{
				"x": 3.1865542527,
				"y": -3.1051783036,
				"z": 6.2022742608,
				"element": "O" 
			},
			{
				"x": 3.507244231,
				"y": -4.1313068117,
				"z": 4.2054676958,
				"element": "O" 
			},
			{
				"x": 3.5030881675,
				"y": -3.7330036784,
				"z": 2.8386217915,
				"element": "C" 
			},
			{
				"x": -0.4119734203,
				"y": -1.4822612467,
				"z": 1.3292039246,
				"element": "H" 
			},
			{
				"x": 0.6584361215,
				"y": -2.8635419828,
				"z": 1.5558283543,
				"element": "H" 
			},
			{
				"x": 0.5455526098,
				"y": -1.6064753199,
				"z": 2.8039782146,
				"element": "H" 
			},
			{
				"x": 1.0779504574,
				"y": -2.1840869255,
				"z": -0.6761981895,
				"element": "H" 
			},
			{
				"x": 2.6290513109,
				"y": -1.4188957475,
				"z": -0.91604438,
				"element": "H" 
			},
			{
				"x": 0.4822383374,
				"y": -0.6207091469,
				"z": -2.2292051952,
				"element": "H" 
			},
			{
				"x": 2.5252365444,
				"y": 0.2567927674,
				"z": -2.5356769582,
				"element": "H" 
			},
			{
				"x": -0.7436671765,
				"y": -0.161350605,
				"z": -0.2428872032,
				"element": "H" 
			},
			{
				"x": -0.3114669005,
				"y": 1.1588980171,
				"z": 1.458027176,
				"element": "H" 
			},
			{
				"x": 1.5373543589,
				"y": 2.9633644195,
				"z": -0.1378817943,
				"element": "H" 
			},
			{
				"x": 1.1058983666,
				"y": 3.1839699498,
				"z": 1.547215469,
				"element": "H" 
			},
			{
				"x": -0.2404189225,
				"y": 4.3305011459,
				"z": -0.5533336518,
				"element": "H" 
			},
			{
				"x": -0.9826030898,
				"y": 4.0479660318,
				"z": 1.0309183166,
				"element": "H" 
			},
			{
				"x": -3.2090745676,
				"y": 1.9362071639,
				"z": 0.4827918157,
				"element": "H" 
			},
			{
				"x": -2.2209442906,
				"y": 4.14981656,
				"z": -1.9354182322,
				"element": "H" 
			},
			{
				"x": -3.0925109732,
				"y": 4.2607217658,
				"z": -0.411720934,
				"element": "H" 
			},
			{
				"x": -4.4678007005,
				"y": 3.4159138966,
				"z": -2.3632424766,
				"element": "H" 
			},
			{
				"x": -5.3257544118,
				"y": 1.692782596,
				"z": -0.9642568167,
				"element": "H" 
			},
			{
				"x": -4.1985932663,
				"y": 0.9250065069,
				"z": -2.8489812064,
				"element": "H" 
			},
			{
				"x": -2.9775800223,
				"y": 1.9595274445,
				"z": -3.5578373262,
				"element": "H" 
			},
			{
				"x": -2.683963179,
				"y": 0.2712315348,
				"z": -1.0243695476,
				"element": "H" 
			},
			{
				"x": -2.5123761645,
				"y": -0.8704393548,
				"z": -2.9983200787,
				"element": "H" 
			},
			{
				"x": -1.1143820056,
				"y": 2.8467620088,
				"z": -3.2023361307,
				"element": "H" 
			},
			{
				"x": -0.1298446768,
				"y": 1.4111017512,
				"z": -3.3810599965,
				"element": "H" 
			},
			{
				"x": 1.4700029131,
				"y": 2.4466461273,
				"z": -2.2854808472,
				"element": "H" 
			},
			{
				"x": 1.5328481187,
				"y": 1.5339896687,
				"z": 3.026636889,
				"element": "H" 
			},
			{
				"x": 3.2284225895,
				"y": 1.0459695872,
				"z": -0.0699028675,
				"element": "H" 
			},
			{
				"x": 3.3501375979,
				"y": 1.9278914856,
				"z": 1.4504450646,
				"element": "H" 
			},
			{
				"x": 4.2732966771,
				"y": 0.0567390018,
				"z": 2.6162618753,
				"element": "H" 
			},
			{
				"x": 4.938917461,
				"y": -0.2799750057,
				"z": 1.0249279568,
				"element": "H" 
			},
			{
				"x": 3.5546620789,
				"y": -2.1493862182,
				"z": 0.7722777919,
				"element": "H" 
			},
			{
				"x": 2.8090974906,
				"y": -0.8799580647,
				"z": 4.4707132991,
				"element": "H" 
			},
			{
				"x": 4.4808677403,
				"y": -3.9589491818,
				"z": 2.3902150263,
				"element": "H" 
			},
			{
				"x": 2.7445563878,
				"y": -4.3120870623,
				"z": 2.2934783041,
				"element": "H" 
			}
		],
		 "valence_orbital": [ 
			{
				"type": "occ",
				"energy": -0.25902,
				"method": "rhf"
			},
			{
				"type": "occ",
				"energy": -0.254,
				"method": "rhf"
			},
			{
				"type": "occ",
				"energy": -0.25061,
				"method": "rhf"
			},
			{
				"type": "occ",
				"energy": -0.2485,
				"method": "rhf"
			},
			{
				"type": "occ",
				"energy": -0.24398,
				"method": "rhf"
			},
			{
				"type": "unocc",
				"energy": -0.02783,
				"method": "rhf"
			},
			{
				"type": "unocc",
				"energy": 0.04234,
				"method": "rhf"
			},
			{
				"type": "unocc",
				"energy": 0.04798,
				"method": "rhf"
			},
			{
				"type": "unocc",
				"energy": 0.05641,
				"method": "rhf"
			},
			{
				"type": "unocc",
				"energy": 0.06789,
				"method": "rhf"
			}
		],
		"cosmo_sigma_profile": { 
			"-0.025": 0.0,
			"-0.024": 0.0,
			"-0.023": 0.0,
			"-0.022": 0.0,
			"-0.021": 0.0,
			"-0.02": 0.0,
			"-0.019": 0.0,
			"-0.018": 0.0,
			"-0.017": 0.0,
			"-0.016": 1.1981335929,
			"-0.015": 3.27356480434,
			"-0.014": 3.08190224738,
			"-0.013": 4.03598062314,
			"-0.012": 3.06866195927,
			"-0.011": 4.44717050467,
			"-0.01": 3.79805354117,
			"-0.009": 3.62922729764,
			"-0.008": 4.83830174265,
			"-0.007": 9.54856368231,
			"-0.006": 16.7076248385,
			"-0.005": 17.9138630358,
			"-0.004": 25.420658979,
			"-0.003": 33.2817322723,
			"-0.002": 36.6091151813,
			"-0.001": 40.4469010101,
			"0.0": 37.6781421032,
			"0.001": 34.2207326575,
			"0.002": 22.0663812488,
			"0.003": 13.7384616111,
			"0.004": 11.291790389,
			"0.005": 9.13533838469,
			"0.006": 8.00860322855,
			"0.007": 9.83188117934,
			"0.008": 8.01494744171,
			"0.009": 7.89657870652,
			"0.01": 9.34540077733,
			"0.011": 8.12593673203,
			"0.012": 9.1697990588,
			"0.013": 7.69545328344,
			"0.014": 3.02083321663,
			"0.015": 1.2329116762,
			"0.016": 0.848477949633,
			"0.017": 0.0,
			"0.018": 0.0,
			"0.019": 0.0,
			"0.02": 0.0,
			"0.021": 0.0,
			"0.022": 0.0,
			"0.023": 0.0,
			"0.024": 0.0,
			"0.025": 0.0
		}
	}
}
