{
	 "smiles": "[O-][N+](=O)C1=CC=C(C=C1)C(=O)OC1OC(COCC2=CC=CC=C2)C(OCC2=CC=CC=C2)C1OCC1=CC=CC=C1", 
	 "Tm": 366.15, 
	 "num_atms": 73, 
	 "gaussian": { 
		 "optdone": 1, 
		 "sigma_profile": "yes", 
		 "theory": "DFT", 
		 "functional": "B3LYP", 
		 "basiset": "6-31G**", 
		 "properties": { 
			 "R2extent": 29404.1846, 
			 "electric_dipole_moment_norm": 5.47250327547, 
			 "electric_quadrupole_moment_norm": 28.3286451104, 
			 "total_energy": -1932.59352782, 
			 "HOMO_LUMO_gap": 0.14208, 
			 "cosmo_polarized_energy": -22.95, 
			 "cosmo_cavitation_energy": 78.33, 
			 "cosmo_dispersion_energy": -49.22, 
			 "cosmo_repulsion_energy": 3.74, 
			 "cosmo_total_nonelectrostatic_energy": 32.85, 
			 "SMD_solvation_energy": 15.54 
		},
		"coords": [
			{
				"x": -1.4030989107,
				"y": -7.8574274729,
				"z": -0.4068390611,
				"element": "O" 
			},
			{
				"x": -0.1813389387,
				"y": -7.8588500711,
				"z": -0.5468679387,
				"element": "N" 
			},
			{
				"x": 0.4642797483,
				"y": -8.7542453967,
				"z": -1.0889636693,
				"element": "O" 
			},
			{
				"x": 0.5666031935,
				"y": -6.6986913622,
				"z": -0.0267728663,
				"element": "C" 
			},
			{
				"x": 1.9542281001,
				"y": -6.6769540066,
				"z": -0.1623826539,
				"element": "C" 
			},
			{
				"x": 2.6509981997,
				"y": -5.583216501,
				"z": 0.3362947808,
				"element": "C" 
			},
			{
				"x": 1.9661457347,
				"y": -4.5138911973,
				"z": 0.9368763825,
				"element": "C" 
			},
			{
				"x": 0.5699240427,
				"y": -4.5649363344,
				"z": 1.0678100036,
				"element": "C" 
			},
			{
				"x": -0.1362340612,
				"y": -5.6660665771,
				"z": 0.5872361762,
				"element": "C" 
			},
			{
				"x": 2.8150924551,
				"y": -3.4157412686,
				"z": 1.5158775371,
				"element": "C" 
			},
			{
				"x": 3.9053578945,
				"y": -3.6463541683,
				"z": 1.984489662,
				"element": "O" 
			},
			{
				"x": 2.352788319,
				"y": -2.1327823741,
				"z": 1.5458442459,
				"element": "O" 
			},
			{
				"x": 1.3379257067,
				"y": -1.6162266355,
				"z": 0.6614458056,
				"element": "C" 
			},
			{
				"x": 0.1063012593,
				"y": -1.5279909967,
				"z": 1.3158490233,
				"element": "O" 
			},
			{
				"x": -0.0811893016,
				"y": -0.2198115648,
				"z": 1.9138675899,
				"element": "C" 
			},
			{
				"x": -1.3724385125,
				"y": 0.3676974704,
				"z": 1.3514167582,
				"element": "C" 
			},
			{
				"x": -1.820132152,
				"y": 1.3673947496,
				"z": 2.2579447715,
				"element": "O" 
			},
			{
				"x": -2.984787968,
				"y": 2.0572533808,
				"z": 1.8197312292,
				"element": "C" 
			},
			{
				"x": -4.2471662192,
				"y": 1.2163183438,
				"z": 1.8649452157,
				"element": "C" 
			},
			{
				"x": -4.5026664454,
				"y": 0.3877480061,
				"z": 2.9660437338,
				"element": "C" 
			},
			{
				"x": -5.6777810893,
				"y": -0.3595462246,
				"z": 3.0322008316,
				"element": "C" 
			},
			{
				"x": -6.6174056712,
				"y": -0.2833297016,
				"z": 2.0003305265,
				"element": "C" 
			},
			{
				"x": -6.3705859239,
				"y": 0.5383895745,
				"z": 0.900116485,
				"element": "C" 
			},
			{
				"x": -5.1879819517,
				"y": 1.2785781443,
				"z": 0.83187512,
				"element": "C" 
			},
			{
				"x": 1.2227824163,
				"y": 0.5634692325,
				"z": 1.5722071453,
				"element": "C" 
			},
			{
				"x": 1.0670866848,
				"y": 1.9329989592,
				"z": 1.2974142931,
				"element": "O" 
			},
			{
				"x": 1.0174063413,
				"y": 2.7735195505,
				"z": 2.452065998,
				"element": "C" 
			},
			{
				"x": 0.8762223197,
				"y": 4.2118138988,
				"z": 2.0147011678,
				"element": "C" 
			},
			{
				"x": 0.1143661866,
				"y": 4.5495659404,
				"z": 0.8884307241,
				"element": "C" 
			},
			{
				"x": -0.0465154229,
				"y": 5.8857226095,
				"z": 0.5195330031,
				"element": "C" 
			},
			{
				"x": 0.5430780608,
				"y": 6.9014678533,
				"z": 1.275347558,
				"element": "C" 
			},
			{
				"x": 1.3015654958,
				"y": 6.5720339792,
				"z": 2.3996903313,
				"element": "C" 
			},
			{
				"x": 1.4705616403,
				"y": 5.2346919998,
				"z": 2.7622640457,
				"element": "C" 
			},
			{
				"x": 1.7441566737,
				"y": -0.1808000644,
				"z": 0.3238209061,
				"element": "C" 
			},
			{
				"x": 1.0520865363,
				"y": 0.1831434795,
				"z": -0.8543302348,
				"element": "O" 
			},
			{
				"x": 1.6654026103,
				"y": 1.2444196464,
				"z": -1.5974819837,
				"element": "C" 
			},
			{
				"x": 0.8218521486,
				"y": 1.550888007,
				"z": -2.8104213918,
				"element": "C" 
			},
			{
				"x": 0.6263369816,
				"y": 2.8773412233,
				"z": -3.2109010098,
				"element": "C" 
			},
			{
				"x": -0.1120115337,
				"y": 3.1717049979,
				"z": -4.3591921571,
				"element": "C" 
			},
			{
				"x": -0.6738682628,
				"y": 2.1401064313,
				"z": -5.1120896416,
				"element": "C" 
			},
			{
				"x": -0.4921824506,
				"y": 0.8135987876,
				"z": -4.7119609217,
				"element": "C" 
			},
			{
				"x": 0.2541179217,
				"y": 0.5205379671,
				"z": -3.5712591867,
				"element": "C" 
			},
			{
				"x": 2.4578387293,
				"y": -7.5074459455,
				"z": -0.6405911164,
				"element": "H" 
			},
			{
				"x": 3.7327943594,
				"y": -5.5441970923,
				"z": 0.2759573269,
				"element": "H" 
			},
			{
				"x": 0.0347132219,
				"y": -3.752129024,
				"z": 1.5448678065,
				"element": "H" 
			},
			{
				"x": -1.2126223111,
				"y": -5.734724457,
				"z": 0.6809977668,
				"element": "H" 
			},
			{
				"x": 1.2346370627,
				"y": -2.2542836926,
				"z": -0.2175055807,
				"element": "H" 
			},
			{
				"x": -0.202397687,
				"y": -0.3546445099,
				"z": 2.9938248259,
				"element": "H" 
			},
			{
				"x": -1.2000366937,
				"y": 0.7871776525,
				"z": 0.3523803263,
				"element": "H" 
			},
			{
				"x": -2.1074056796,
				"y": -0.4442189231,
				"z": 1.2668024282,
				"element": "H" 
			},
			{
				"x": -2.8358055761,
				"y": 2.4563989569,
				"z": 0.804688984,
				"element": "H" 
			},
			{
				"x": -3.0763667945,
				"y": 2.9131446774,
				"z": 2.4981967405,
				"element": "H" 
			},
			{
				"x": -3.767338313,
				"y": 0.3281188649,
				"z": 3.7634128841,
				"element": "H" 
			},
			{
				"x": -5.86318012,
				"y": -1.0005942966,
				"z": 3.8896348393,
				"element": "H" 
			},
			{
				"x": -7.533670755,
				"y": -0.8643625911,
				"z": 2.0529366328,
				"element": "H" 
			},
			{
				"x": -7.0924736773,
				"y": 0.5970307469,
				"z": 0.0903944526,
				"element": "H" 
			},
			{
				"x": -4.9944555301,
				"y": 1.909411578,
				"z": -0.0327977859,
				"element": "H" 
			},
			{
				"x": 1.9498951427,
				"y": 0.4104101431,
				"z": 2.3829223133,
				"element": "H" 
			},
			{
				"x": 0.1602740626,
				"y": 2.4836187769,
				"z": 3.0745109862,
				"element": "H" 
			},
			{
				"x": 1.934242157,
				"y": 2.6461954518,
				"z": 3.0483535332,
				"element": "H" 
			},
			{
				"x": -0.3375441845,
				"y": 3.7592970571,
				"z": 0.2984216288,
				"element": "H" 
			},
			{
				"x": -0.6360419784,
				"y": 6.1342829396,
				"z": -0.3587813644,
				"element": "H" 
			},
			{
				"x": 0.415747237,
				"y": 7.9411858463,
				"z": 0.9878337004,
				"element": "H" 
			},
			{
				"x": 1.7705509372,
				"y": 7.3543452456,
				"z": 2.9897735775,
				"element": "H" 
			},
			{
				"x": 2.0726914803,
				"y": 4.9843413451,
				"z": 3.6326765606,
				"element": "H" 
			},
			{
				"x": 2.829149567,
				"y": -0.086876691,
				"z": 0.1993491156,
				"element": "H" 
			},
			{
				"x": 1.7737606387,
				"y": 2.1343579306,
				"z": -0.9707893676,
				"element": "H" 
			},
			{
				"x": 2.6752177059,
				"y": 0.9217034122,
				"z": -1.9043336264,
				"element": "H" 
			},
			{
				"x": 1.0513321993,
				"y": 3.6840959802,
				"z": -2.6184832755,
				"element": "H" 
			},
			{
				"x": -0.2543540674,
				"y": 4.2061060446,
				"z": -4.6592466534,
				"element": "H" 
			},
			{
				"x": -1.2530310156,
				"y": 2.3668912341,
				"z": -6.0026795454,
				"element": "H" 
			},
			{
				"x": -0.9316336172,
				"y": 0.0062600895,
				"z": -5.2911907091,
				"element": "H" 
			},
			{
				"x": 0.3895316435,
				"y": -0.508739065,
				"z": -3.2545457389,
				"element": "H" 
			}
		],
		 "valence_orbital": [ 
			{
				"type": "occ",
				"energy": -0.25318,
				"method": "rhf"
			},
			{
				"type": "occ",
				"energy": -0.25249,
				"method": "rhf"
			},
			{
				"type": "occ",
				"energy": -0.24777,
				"method": "rhf"
			},
			{
				"type": "occ",
				"energy": -0.24682,
				"method": "rhf"
			},
			{
				"type": "occ",
				"energy": -0.2439,
				"method": "rhf"
			},
			{
				"type": "unocc",
				"energy": -0.10182,
				"method": "rhf"
			},
			{
				"type": "unocc",
				"energy": -0.03623,
				"method": "rhf"
			},
			{
				"type": "unocc",
				"energy": -0.03536,
				"method": "rhf"
			},
			{
				"type": "unocc",
				"energy": -0.01009,
				"method": "rhf"
			},
			{
				"type": "unocc",
				"energy": -0.00877,
				"method": "rhf"
			}
		],
		"cosmo_sigma_profile": { 
			"-0.025": 0.0,
			"-0.024": 0.0,
			"-0.023": 0.0,
			"-0.022": 0.0,
			"-0.021": 0.0,
			"-0.02": 0.0,
			"-0.019": 0.0,
			"-0.018": 0.0,
			"-0.017": 0.0,
			"-0.016": 0.0,
			"-0.015": 0.0,
			"-0.014": 0.0,
			"-0.013": 0.0,
			"-0.012": 0.0,
			"-0.011": 0.0,
			"-0.01": 0.221684949862,
			"-0.009": 1.60581986743,
			"-0.008": 5.52860000656,
			"-0.007": 9.76730490846,
			"-0.006": 28.6330109319,
			"-0.005": 58.1015270251,
			"-0.004": 55.4211033098,
			"-0.003": 60.9667397309,
			"-0.002": 47.5159876035,
			"-0.001": 50.8504599179,
			"0.0": 45.6946402078,
			"0.001": 35.7209425341,
			"0.002": 34.775897021,
			"0.003": 35.4168761279,
			"0.004": 36.7584167722,
			"0.005": 36.8624183632,
			"0.006": 34.2133796993,
			"0.007": 15.9144125932,
			"0.008": 10.025719604,
			"0.009": 6.43686318406,
			"0.01": 5.66801219201,
			"0.011": 5.19292579764,
			"0.012": 2.18689132376,
			"0.013": 0.242421318468,
			"0.014": 0.0,
			"0.015": 0.0,
			"0.016": 0.0,
			"0.017": 0.0,
			"0.018": 0.0,
			"0.019": 0.0,
			"0.02": 0.0,
			"0.021": 0.0,
			"0.022": 0.0,
			"0.023": 0.0,
			"0.024": 0.0,
			"0.025": 0.0
		}
	}
}
