{
	 "smiles": "[O-][N+](=O)C1=CC=C(C=C1)N1C(=O)C2C(C1=O)C(=NN2C1=CC=CC=C1)C(=O)C1=CC=C(Br)C=C1", 
	 "Tm": 424.15, 
	 "num_atms": 49, 
	 "gaussian": { 
		 "optdone": 1, 
		 "sigma_profile": "yes", 
		 "theory": "DFT", 
		 "functional": "B3LYP", 
		 "basiset": "6-31G**", 
		 "properties": { 
			 "R2extent": 26888.976, 
			 "electric_dipole_moment_norm": 5.69814919864, 
			 "electric_quadrupole_moment_norm": 30.3670682477, 
			 "total_energy": -4090.01077446, 
			 "HOMO_LUMO_gap": 0.12598, 
			 "cosmo_polarized_energy": -23.4, 
			 "cosmo_cavitation_energy": 58.07, 
			 "cosmo_dispersion_energy": -40.68, 
			 "cosmo_repulsion_energy": 3.0, 
			 "cosmo_total_nonelectrostatic_energy": 20.38, 
			 "SMD_solvation_energy": 11.25 
		},
		"coords": [
			{
				"x": 5.7041530293,
				"y": -1.5665757643,
				"z": 5.6856915753,
				"element": "O" 
			},
			{
				"x": 4.7881796669,
				"y": -2.2388319767,
				"z": 5.2139885562,
				"element": "N" 
			},
			{
				"x": 4.29153914,
				"y": -3.2275129495,
				"z": 5.7514948321,
				"element": "O" 
			},
			{
				"x": 4.2456099886,
				"y": -1.829052248,
				"z": 3.9085053993,
				"element": "C" 
			},
			{
				"x": 3.2060054191,
				"y": -2.5664044894,
				"z": 3.3471562403,
				"element": "C" 
			},
			{
				"x": 2.6909149871,
				"y": -2.1758420669,
				"z": 2.1160690114,
				"element": "C" 
			},
			{
				"x": 3.2269169214,
				"y": -1.0585553534,
				"z": 1.4613499111,
				"element": "C" 
			},
			{
				"x": 4.2766251479,
				"y": -0.329884491,
				"z": 2.0367413592,
				"element": "C" 
			},
			{
				"x": 4.7871484409,
				"y": -0.7154602295,
				"z": 3.2716025842,
				"element": "C" 
			},
			{
				"x": 2.6946480502,
				"y": -0.6641392771,
				"z": 0.1945087006,
				"element": "N" 
			},
			{
				"x": 2.4960375504,
				"y": 0.6682036056,
				"z": -0.1865422868,
				"element": "C" 
			},
			{
				"x": 2.7864991701,
				"y": 1.6409353975,
				"z": 0.4743306365,
				"element": "O" 
			},
			{
				"x": 1.8630860712,
				"y": 0.6798254274,
				"z": -1.5917884985,
				"element": "C" 
			},
			{
				"x": 1.8211010111,
				"y": -0.7953345703,
				"z": -2.0247743231,
				"element": "C" 
			},
			{
				"x": 2.3525477195,
				"y": -1.5882803177,
				"z": -0.8256646144,
				"element": "C" 
			},
			{
				"x": 2.4678024506,
				"y": -2.7844574397,
				"z": -0.7384942716,
				"element": "O" 
			},
			{
				"x": 0.3335395626,
				"y": -1.0109010231,
				"z": -2.2469498042,
				"element": "C" 
			},
			{
				"x": -0.3622517002,
				"y": 0.0513327804,
				"z": -1.9848617656,
				"element": "N" 
			},
			{
				"x": 0.4306822929,
				"y": 1.0603408375,
				"z": -1.5722313844,
				"element": "N" 
			},
			{
				"x": -0.0502591788,
				"y": 2.3923718998,
				"z": -1.6209466641,
				"element": "C" 
			},
			{
				"x": -1.3444652339,
				"y": 2.6553836506,
				"z": -2.0988967805,
				"element": "C" 
			},
			{
				"x": -1.8053609804,
				"y": 3.9676636193,
				"z": -2.147571113,
				"element": "C" 
			},
			{
				"x": -0.9932357883,
				"y": 5.028421313,
				"z": -1.7376932823,
				"element": "C" 
			},
			{
				"x": 0.2901213884,
				"y": 4.7583984863,
				"z": -1.2651559853,
				"element": "C" 
			},
			{
				"x": 0.7673898283,
				"y": 3.4487598589,
				"z": -1.1957005774,
				"element": "C" 
			},
			{
				"x": -0.1837565558,
				"y": -2.2427826443,
				"z": -2.883310576,
				"element": "C" 
			},
			{
				"x": 0.639153011,
				"y": -2.9606061419,
				"z": -3.4495806312,
				"element": "O" 
			},
			{
				"x": -1.6364840202,
				"y": -2.5916726356,
				"z": -2.8771600977,
				"element": "C" 
			},
			{
				"x": -2.5921826823,
				"y": -1.9850610464,
				"z": -2.0468515357,
				"element": "C" 
			},
			{
				"x": -3.923518078,
				"y": -2.3959853021,
				"z": -2.0817317967,
				"element": "C" 
			},
			{
				"x": -4.3000348359,
				"y": -3.4176361015,
				"z": -2.9524698294,
				"element": "C" 
			},
			{
				"x": -6.1224384611,
				"y": -3.9781182294,
				"z": -3.0052753207,
				"element": "Br" 
			},
			{
				"x": -3.3669589453,
				"y": -4.0410482161,
				"z": -3.7836184034,
				"element": "C" 
			},
			{
				"x": -2.0408815433,
				"y": -3.627805629,
				"z": -3.7358045431,
				"element": "C" 
			},
			{
				"x": 2.8133126181,
				"y": -3.4252193569,
				"z": 3.8763366038,
				"element": "H" 
			},
			{
				"x": 1.8886373632,
				"y": -2.7409325742,
				"z": 1.6610863175,
				"element": "H" 
			},
			{
				"x": 4.6798377856,
				"y": 0.5368831882,
				"z": 1.5311704655,
				"element": "H" 
			},
			{
				"x": 5.5963512337,
				"y": -0.1718815811,
				"z": 3.7422677942,
				"element": "H" 
			},
			{
				"x": 2.430245071,
				"y": 1.359895698,
				"z": -2.2352976107,
				"element": "H" 
			},
			{
				"x": 2.4022443808,
				"y": -1.0693329047,
				"z": -2.9086004036,
				"element": "H" 
			},
			{
				"x": -1.96800631,
				"y": 1.836046579,
				"z": -2.4333017698,
				"element": "H" 
			},
			{
				"x": -2.8069895505,
				"y": 4.1610468025,
				"z": -2.5205330402,
				"element": "H" 
			},
			{
				"x": -1.3589244537,
				"y": 6.0493910686,
				"z": -1.7836717278,
				"element": "H" 
			},
			{
				"x": 0.9312770888,
				"y": 5.5693354641,
				"z": -0.9323941878,
				"element": "H" 
			},
			{
				"x": 1.7473989752,
				"y": 3.2515245923,
				"z": -0.7781758565,
				"element": "H" 
			},
			{
				"x": -2.3021301279,
				"y": -1.1905772972,
				"z": -1.3713120794,
				"element": "H" 
			},
			{
				"x": -4.6603702222,
				"y": -1.9302253186,
				"z": -1.4375928291,
				"element": "H" 
			},
			{
				"x": -3.6768060057,
				"y": -4.8363253437,
				"z": -4.4517582792,
				"element": "H" 
			},
			{
				"x": -1.2915506905,
				"y": -4.1006177495,
				"z": -4.3612881179,
				"element": "H" 
			}
		],
		 "valence_orbital": [ 
			{
				"type": "occ",
				"energy": -0.27541,
				"method": "rhf"
			},
			{
				"type": "occ",
				"energy": -0.27142,
				"method": "rhf"
			},
			{
				"type": "occ",
				"energy": -0.26394,
				"method": "rhf"
			},
			{
				"type": "occ",
				"energy": -0.25507,
				"method": "rhf"
			},
			{
				"type": "occ",
				"energy": -0.22422,
				"method": "rhf"
			},
			{
				"type": "unocc",
				"energy": -0.09824,
				"method": "rhf"
			},
			{
				"type": "unocc",
				"energy": -0.09239,
				"method": "rhf"
			},
			{
				"type": "unocc",
				"energy": -0.05967,
				"method": "rhf"
			},
			{
				"type": "unocc",
				"energy": -0.04143,
				"method": "rhf"
			},
			{
				"type": "unocc",
				"energy": -0.03667,
				"method": "rhf"
			}
		],
		"cosmo_sigma_profile": { 
			"-0.025": 0.0,
			"-0.024": 0.0,
			"-0.023": 0.0,
			"-0.022": 0.0,
			"-0.021": 0.0,
			"-0.02": 0.0,
			"-0.019": 0.0,
			"-0.018": 0.0,
			"-0.017": 0.0,
			"-0.016": 0.0,
			"-0.015": 0.0,
			"-0.014": 0.0,
			"-0.013": 0.0347942562027,
			"-0.012": 0.926730050008,
			"-0.011": 1.83441456591,
			"-0.01": 5.28362362346,
			"-0.009": 8.04355015483,
			"-0.008": 11.1358486597,
			"-0.007": 18.6214174204,
			"-0.006": 25.0655572515,
			"-0.005": 25.5449404407,
			"-0.004": 29.0253565022,
			"-0.003": 28.2446698544,
			"-0.002": 30.4745810369,
			"-0.001": 29.9026163568,
			"0.0": 37.9460821393,
			"0.001": 39.1292277081,
			"0.002": 41.2078458203,
			"0.003": 28.4051878156,
			"0.004": 29.4272419479,
			"0.005": 18.1093291579,
			"0.006": 10.2477563851,
			"0.007": 13.0065504867,
			"0.008": 12.8657016011,
			"0.009": 10.8115022772,
			"0.01": 8.55471673993,
			"0.011": 6.05600455827,
			"0.012": 2.47345122056,
			"0.013": 0.0,
			"0.014": 0.0,
			"0.015": 0.0,
			"0.016": 0.0,
			"0.017": 0.0,
			"0.018": 0.0,
			"0.019": 0.0,
			"0.02": 0.0,
			"0.021": 0.0,
			"0.022": 0.0,
			"0.023": 0.0,
			"0.024": 0.0,
			"0.025": 0.0
		}
	}
}
