{
	 "smiles": "CC1=NC(=CC=N1)C1=CC=CC(N)=C1", 
	 "Tm": 381.15, 
	 "num_atms": 25, 
	 "gaussian": { 
		 "optdone": 1, 
		 "sigma_profile": "yes", 
		 "theory": "DFT", 
		 "functional": "B3LYP", 
		 "basiset": "6-31G**", 
		 "properties": { 
			 "R2extent": 4160.0697, 
			 "electric_dipole_moment_norm": 3.37259132567, 
			 "electric_quadrupole_moment_norm": 10.496027359, 
			 "total_energy": -590.068886331, 
			 "HOMO_LUMO_gap": 0.15577, 
			 "cosmo_polarized_energy": -12.9, 
			 "cosmo_cavitation_energy": 29.03, 
			 "cosmo_dispersion_energy": -21.52, 
			 "cosmo_repulsion_energy": 1.69, 
			 "cosmo_total_nonelectrostatic_energy": 9.2, 
			 "SMD_solvation_energy": 2.52 
		},
		"coords": [
			{
				"x": -1.4687896262,
				"y": 0.6697152335,
				"z": 5.0821802436,
				"element": "C" 
			},
			{
				"x": -1.5136797905,
				"y": 1.2386394849,
				"z": 3.6887652871,
				"element": "C" 
			},
			{
				"x": -1.2216054163,
				"y": 0.4073499811,
				"z": 2.6809323415,
				"element": "N" 
			},
			{
				"x": -1.2765457987,
				"y": 0.8867949555,
				"z": 1.424132464,
				"element": "C" 
			},
			{
				"x": -1.6144038194,
				"y": 2.2301976945,
				"z": 1.1999935606,
				"element": "C" 
			},
			{
				"x": -1.90568442,
				"y": 3.0044287368,
				"z": 2.3161655929,
				"element": "C" 
			},
			{
				"x": -1.8664379984,
				"y": 2.5299987395,
				"z": 3.5661340677,
				"element": "N" 
			},
			{
				"x": -0.9483584301,
				"y": -0.0586781439,
				"z": 0.3256502216,
				"element": "C" 
			},
			{
				"x": -0.2582670325,
				"y": -1.2451846861,
				"z": 0.6194480427,
				"element": "C" 
			},
			{
				"x": 0.0631585528,
				"y": -2.1257058259,
				"z": -0.410763325,
				"element": "C" 
			},
			{
				"x": -0.2987656075,
				"y": -1.8525072986,
				"z": -1.7278421866,
				"element": "C" 
			},
			{
				"x": -1.0029567281,
				"y": -0.6762068984,
				"z": -2.0377299776,
				"element": "C" 
			},
			{
				"x": -1.335271315,
				"y": -0.372114985,
				"z": -3.360431726,
				"element": "N" 
			},
			{
				"x": -1.3191658846,
				"y": 0.2119030987,
				"z": -0.9989547437,
				"element": "C" 
			},
			{
				"x": -2.4495291937,
				"y": 0.2573531827,
				"z": 5.3490825756,
				"element": "H" 
			},
			{
				"x": -0.7406169877,
				"y": -0.1414980767,
				"z": 5.140777455,
				"element": "H" 
			},
			{
				"x": -1.2295664236,
				"y": 1.4517572347,
				"z": 5.8052576592,
				"element": "H" 
			},
			{
				"x": -1.6261125803,
				"y": 2.6651388723,
				"z": 0.2080526097,
				"element": "H" 
			},
			{
				"x": -2.1749748057,
				"y": 4.0542799268,
				"z": 2.2067275627,
				"element": "H" 
			},
			{
				"x": 0.0124730938,
				"y": -1.4536348755,
				"z": 1.6469829492,
				"element": "H" 
			},
			{
				"x": 0.6028126518,
				"y": -3.0418613131,
				"z": -0.1875852201,
				"element": "H" 
			},
			{
				"x": -0.0407789719,
				"y": -2.5478703696,
				"z": -2.5229420315,
				"element": "H" 
			},
			{
				"x": -2.1127824333,
				"y": 0.2641508074,
				"z": -3.4718191419,
				"element": "H" 
			},
			{
				"x": -1.4155941442,
				"y": -1.1705333509,
				"z": -3.9750287584,
				"element": "H" 
			},
			{
				"x": -1.8816568907,
				"y": 1.1100878752,
				"z": -1.2376855223,
				"element": "H" 
			}
		],
		 "valence_orbital": [ 
			{
				"type": "occ",
				"energy": -0.29021,
				"method": "rhf"
			},
			{
				"type": "occ",
				"energy": -0.27415,
				"method": "rhf"
			},
			{
				"type": "occ",
				"energy": -0.24055,
				"method": "rhf"
			},
			{
				"type": "occ",
				"energy": -0.23916,
				"method": "rhf"
			},
			{
				"type": "occ",
				"energy": -0.20583,
				"method": "rhf"
			},
			{
				"type": "unocc",
				"energy": -0.05006,
				"method": "rhf"
			},
			{
				"type": "unocc",
				"energy": -0.02002,
				"method": "rhf"
			},
			{
				"type": "unocc",
				"energy": 0.01213,
				"method": "rhf"
			},
			{
				"type": "unocc",
				"energy": 0.03188,
				"method": "rhf"
			},
			{
				"type": "unocc",
				"energy": 0.07646,
				"method": "rhf"
			}
		],
		"cosmo_sigma_profile": { 
			"-0.025": 0.0,
			"-0.024": 0.0,
			"-0.023": 0.0,
			"-0.022": 0.0,
			"-0.021": 0.0,
			"-0.02": 0.0,
			"-0.019": 0.0,
			"-0.018": 0.0,
			"-0.017": 0.0,
			"-0.016": 0.0,
			"-0.015": 0.0,
			"-0.014": 0.0,
			"-0.013": 0.355847910232,
			"-0.012": 2.87193548646,
			"-0.011": 2.22593312273,
			"-0.01": 3.64881771298,
			"-0.009": 3.37199530497,
			"-0.008": 5.44941113732,
			"-0.007": 8.71031387326,
			"-0.006": 8.93387594067,
			"-0.005": 11.956873884,
			"-0.004": 12.7326535186,
			"-0.003": 15.1948189916,
			"-0.002": 13.2558964121,
			"-0.001": 19.2720720139,
			"0.0": 21.6028047936,
			"0.001": 18.7955301172,
			"0.002": 12.2138551495,
			"0.003": 11.0364298411,
			"0.004": 11.642764874,
			"0.005": 14.1583109412,
			"0.006": 12.8022479036,
			"0.007": 4.32138451595,
			"0.008": 3.68694558932,
			"0.009": 2.64156671984,
			"0.01": 1.84721109315,
			"0.011": 1.93843711634,
			"0.012": 2.45769607731,
			"0.013": 2.03811158154,
			"0.014": 1.26602381727,
			"0.015": 0.772908232733,
			"0.016": 0.588139240984,
			"0.017": 0.0121975216156,
			"0.018": 0.0,
			"0.019": 0.0,
			"0.02": 0.0,
			"0.021": 0.0,
			"0.022": 0.0,
			"0.023": 0.0,
			"0.024": 0.0,
			"0.025": 0.0
		}
	}
}
