{
	 "smiles": "BrCCCCCCCCBr", 
	 "Tm": 288.95, 
	 "num_atms": 26, 
	 "gaussian": { 
		 "optdone": 1, 
		 "sigma_profile": "yes", 
		 "theory": "DFT", 
		 "functional": "B3LYP", 
		 "basiset": "6-31G**", 
		 "properties": { 
			 "R2extent": 7766.3696, 
			 "electric_dipole_moment_norm": 2.82157000976, 
			 "electric_quadrupole_moment_norm": 12.881906246, 
			 "total_energy": -5457.32932378, 
			 "HOMO_LUMO_gap": 0.26862, 
			 "cosmo_polarized_energy": -7.12, 
			 "cosmo_cavitation_energy": 31.77, 
			 "cosmo_dispersion_energy": -22.96, 
			 "cosmo_repulsion_energy": 1.93, 
			 "cosmo_total_nonelectrostatic_energy": 10.74, 
			 "SMD_solvation_energy": 2.16 
		},
		"coords": [
			{
				"x": 3.8373659764,
				"y": 0.0399826571,
				"z": 2.9038064996,
				"element": "Br" 
			},
			{
				"x": 3.2421069224,
				"y": -0.4903730589,
				"z": 1.0874586226,
				"element": "C" 
			},
			{
				"x": 1.8846638826,
				"y": 0.1042995293,
				"z": 0.7430332518,
				"element": "C" 
			},
			{
				"x": 1.4393574969,
				"y": -0.3021592353,
				"z": -0.6742481061,
				"element": "C" 
			},
			{
				"x": 0.0921584824,
				"y": 0.2998665013,
				"z": -1.1322000617,
				"element": "C" 
			},
			{
				"x": -1.1703539191,
				"y": -0.5189127065,
				"z": -0.7977730789,
				"element": "C" 
			},
			{
				"x": -1.5483316813,
				"y": -0.6901940298,
				"z": 0.6832285449,
				"element": "C" 
			},
			{
				"x": -1.8759897021,
				"y": 0.6222428467,
				"z": 1.4051775234,
				"element": "C" 
			},
			{
				"x": -2.3077465962,
				"y": 0.4563844129,
				"z": 2.8551883002,
				"element": "C" 
			},
			{
				"x": -4.0440052882,
				"y": -0.4975736957,
				"z": 3.0368326683,
				"element": "Br" 
			},
			{
				"x": 3.2285769687,
				"y": -1.5806831078,
				"z": 1.0989079595,
				"element": "H" 
			},
			{
				"x": 4.0299058135,
				"y": -0.1465150196,
				"z": 0.4163558277,
				"element": "H" 
			},
			{
				"x": 1.1549776547,
				"y": -0.2186626414,
				"z": 1.4911589284,
				"element": "H" 
			},
			{
				"x": 1.9428829772,
				"y": 1.1970388308,
				"z": 0.8095503286,
				"element": "H" 
			},
			{
				"x": 1.3935262926,
				"y": -1.3977110563,
				"z": -0.7492448101,
				"element": "H" 
			},
			{
				"x": 2.2212501743,
				"y": 0.0140435593,
				"z": -1.3771480409,
				"element": "H" 
			},
			{
				"x": 0.1216235455,
				"y": 0.4046688245,
				"z": -2.2235854767,
				"element": "H" 
			},
			{
				"x": -0.0004124304,
				"y": 1.323085021,
				"z": -0.7442319561,
				"element": "H" 
			},
			{
				"x": -1.0589235029,
				"y": -1.5171293752,
				"z": -1.2419559885,
				"element": "H" 
			},
			{
				"x": -2.0206358193,
				"y": -0.0556125134,
				"z": -1.3167983223,
				"element": "H" 
			},
			{
				"x": -2.4264464475,
				"y": -1.3433498889,
				"z": 0.7398110247,
				"element": "H" 
			},
			{
				"x": -0.7501203884,
				"y": -1.2158627854,
				"z": 1.2236606962,
				"element": "H" 
			},
			{
				"x": -0.99153575,
				"y": 1.2751080783,
				"z": 1.424621211,
				"element": "H" 
			},
			{
				"x": -2.6519710056,
				"y": 1.1689173172,
				"z": 0.8557265158,
				"element": "H" 
			},
			{
				"x": -1.5999885965,
				"y": -0.1361808964,
				"z": 3.4361964408,
				"element": "H" 
			},
			{
				"x": -2.4697350597,
				"y": 1.414182432,
				"z": 3.3481714977,
				"element": "H" 
			}
		],
		 "valence_orbital": [ 
			{
				"type": "occ",
				"energy": -0.32014,
				"method": "rhf"
			},
			{
				"type": "occ",
				"energy": -0.27168,
				"method": "rhf"
			},
			{
				"type": "occ",
				"energy": -0.27148,
				"method": "rhf"
			},
			{
				"type": "occ",
				"energy": -0.27059,
				"method": "rhf"
			},
			{
				"type": "occ",
				"energy": -0.26815,
				"method": "rhf"
			},
			{
				"type": "unocc",
				"energy": 0.00047,
				"method": "rhf"
			},
			{
				"type": "unocc",
				"energy": 0.00388,
				"method": "rhf"
			},
			{
				"type": "unocc",
				"energy": 0.07023,
				"method": "rhf"
			},
			{
				"type": "unocc",
				"energy": 0.08914,
				"method": "rhf"
			},
			{
				"type": "unocc",
				"energy": 0.09242,
				"method": "rhf"
			}
		],
		"cosmo_sigma_profile": { 
			"-0.025": 0.0,
			"-0.024": 0.0,
			"-0.023": 0.0,
			"-0.022": 0.0,
			"-0.021": 0.0,
			"-0.02": 0.0,
			"-0.019": 0.0,
			"-0.018": 0.0,
			"-0.017": 0.0,
			"-0.016": 0.0,
			"-0.015": 0.0,
			"-0.014": 0.0,
			"-0.013": 0.0,
			"-0.012": 0.0,
			"-0.011": 0.0,
			"-0.01": 0.0,
			"-0.009": 0.0,
			"-0.008": 0.0,
			"-0.007": 2.14597681755,
			"-0.006": 8.20030133273,
			"-0.005": 11.0325335324,
			"-0.004": 17.7353221998,
			"-0.003": 30.614476674,
			"-0.002": 32.4299600861,
			"-0.001": 31.02018572,
			"0.0": 27.474145006,
			"0.001": 17.6198075787,
			"0.002": 10.298807495,
			"0.003": 9.91308048025,
			"0.004": 9.39906004506,
			"0.005": 12.6529776425,
			"0.006": 18.12854871,
			"0.007": 14.2486092984,
			"0.008": 0.00464239854588,
			"0.009": 0.0,
			"0.01": 0.0,
			"0.011": 0.0,
			"0.012": 0.0,
			"0.013": 0.0,
			"0.014": 0.0,
			"0.015": 0.0,
			"0.016": 0.0,
			"0.017": 0.0,
			"0.018": 0.0,
			"0.019": 0.0,
			"0.02": 0.0,
			"0.021": 0.0,
			"0.022": 0.0,
			"0.023": 0.0,
			"0.024": 0.0,
			"0.025": 0.0
		}
	}
}
