{
	 "smiles": "COC1=CC(Cl)=C(CC(O)=O)C=C1", 
	 "Tm": 392.15, 
	 "num_atms": 22, 
	 "gaussian": { 
		 "optdone": 1, 
		 "sigma_profile": "yes", 
		 "theory": "DFT", 
		 "functional": "B3LYP", 
		 "basiset": "6-31G**", 
		 "properties": { 
			 "R2extent": 3368.9449, 
			 "electric_dipole_moment_norm": 1.37477745108, 
			 "electric_quadrupole_moment_norm": 13.5526956684, 
			 "total_energy": -1034.25067688, 
			 "HOMO_LUMO_gap": 0.21161, 
			 "cosmo_polarized_energy": -13.05, 
			 "cosmo_cavitation_energy": 28.4, 
			 "cosmo_dispersion_energy": -20.43, 
			 "cosmo_repulsion_energy": 1.64, 
			 "cosmo_total_nonelectrostatic_energy": 9.61, 
			 "SMD_solvation_energy": 6.51 
		},
		"coords": [
			{
				"x": -1.9687093131,
				"y": -3.6509841469,
				"z": -1.3953866476,
				"element": "C" 
			},
			{
				"x": -1.0281896136,
				"y": -2.7712357368,
				"z": -1.9939938471,
				"element": "O" 
			},
			{
				"x": -0.5406993984,
				"y": -1.7407354209,
				"z": -1.2495152997,
				"element": "C" 
			},
			{
				"x": -0.9150473504,
				"y": -1.4765244901,
				"z": 0.0718602193,
				"element": "C" 
			},
			{
				"x": -0.3445010965,
				"y": -0.3870496373,
				"z": 0.7330074389,
				"element": "C" 
			},
			{
				"x": -0.8528046497,
				"y": -0.0978957981,
				"z": 2.3971637064,
				"element": "Cl" 
			},
			{
				"x": 0.5898707984,
				"y": 0.4607032369,
				"z": 0.1318076766,
				"element": "C" 
			},
			{
				"x": 1.2041715523,
				"y": 1.6363984039,
				"z": 0.8442443465,
				"element": "C" 
			},
			{
				"x": 2.336833213,
				"y": 1.2623534071,
				"z": 1.7909431861,
				"element": "C" 
			},
			{
				"x": 2.7384115544,
				"y": 2.3463343614,
				"z": 2.5009293085,
				"element": "O" 
			},
			{
				"x": 2.8491278851,
				"y": 0.1745355344,
				"z": 1.9101328544,
				"element": "O" 
			},
			{
				"x": 0.9379394277,
				"y": 0.1642889143,
				"z": -1.1958847911,
				"element": "C" 
			},
			{
				"x": 0.3932092058,
				"y": -0.9093774915,
				"z": -1.8841565431,
				"element": "C" 
			},
			{
				"x": -2.8838739452,
				"y": -3.1230396656,
				"z": -1.0983147304,
				"element": "H" 
			},
			{
				"x": -2.2135654927,
				"y": -4.3923000006,
				"z": -2.1572075441,
				"element": "H" 
			},
			{
				"x": -1.5456202539,
				"y": -4.1590107981,
				"z": -0.5195704366,
				"element": "H" 
			},
			{
				"x": -1.6326937935,
				"y": -2.0934473391,
				"z": 0.595595148,
				"element": "H" 
			},
			{
				"x": 1.6186101905,
				"y": 2.3453464215,
				"z": 0.118006712,
				"element": "H" 
			},
			{
				"x": 0.4625800649,
				"y": 2.1959254867,
				"z": 1.4230668452,
				"element": "H" 
			},
			{
				"x": 3.4656254949,
				"y": 2.0403754036,
				"z": 3.0684639824,
				"element": "H" 
			},
			{
				"x": 1.6619890565,
				"y": 0.8006509426,
				"z": -1.6976910644,
				"element": "H" 
			},
			{
				"x": 0.6726364635,
				"y": -1.1253115875,
				"z": -2.9095005202,
				"element": "H" 
			}
		],
		 "valence_orbital": [ 
			{
				"type": "occ",
				"energy": -0.31242,
				"method": "rhf"
			},
			{
				"type": "occ",
				"energy": -0.30918,
				"method": "rhf"
			},
			{
				"type": "occ",
				"energy": -0.27427,
				"method": "rhf"
			},
			{
				"type": "occ",
				"energy": -0.25132,
				"method": "rhf"
			},
			{
				"type": "occ",
				"energy": -0.22462,
				"method": "rhf"
			},
			{
				"type": "unocc",
				"energy": -0.01301,
				"method": "rhf"
			},
			{
				"type": "unocc",
				"energy": -0.00056,
				"method": "rhf"
			},
			{
				"type": "unocc",
				"energy": 0.01357,
				"method": "rhf"
			},
			{
				"type": "unocc",
				"energy": 0.02987,
				"method": "rhf"
			},
			{
				"type": "unocc",
				"energy": 0.08142,
				"method": "rhf"
			}
		],
		"cosmo_sigma_profile": { 
			"-0.025": 0.0,
			"-0.024": 0.0,
			"-0.023": 0.0,
			"-0.022": 0.0,
			"-0.021": 0.0,
			"-0.02": 0.0,
			"-0.019": 0.0,
			"-0.018": 0.905000824152,
			"-0.017": 0.764258543385,
			"-0.016": 0.565213416565,
			"-0.015": 1.16590319627,
			"-0.014": 0.916902375042,
			"-0.013": 0.830954677764,
			"-0.012": 0.2829878163,
			"-0.011": 0.449468504735,
			"-0.01": 0.788189047779,
			"-0.009": 0.514188243901,
			"-0.008": 2.777523484,
			"-0.007": 9.37378589608,
			"-0.006": 15.0929872031,
			"-0.005": 16.0725873288,
			"-0.004": 17.1632941564,
			"-0.003": 15.1338906295,
			"-0.002": 13.4667447785,
			"-0.001": 10.8523260113,
			"0.0": 11.8485883739,
			"0.001": 12.6646655203,
			"0.002": 17.6239839782,
			"0.003": 19.1587603634,
			"0.004": 17.5761990429,
			"0.005": 10.0944057131,
			"0.006": 5.51154501729,
			"0.007": 4.12445643556,
			"0.008": 4.56365405688,
			"0.009": 4.74766556325,
			"0.01": 4.11969793716,
			"0.011": 4.35130020275,
			"0.012": 3.88076815651,
			"0.013": 0.383902391071,
			"0.014": 0.0,
			"0.015": 0.0,
			"0.016": 0.0,
			"0.017": 0.0,
			"0.018": 0.0,
			"0.019": 0.0,
			"0.02": 0.0,
			"0.021": 0.0,
			"0.022": 0.0,
			"0.023": 0.0,
			"0.024": 0.0,
			"0.025": 0.0
		}
	}
}
