{
	 "smiles": "COC(=O)C1=CC(=CC(=C1)[N+]([O-])=O)[N+]([O-])=O", 
	 "Tm": 383.15, 
	 "num_atms": 22, 
	 "gaussian": { 
		 "optdone": 1, 
		 "sigma_profile": "yes", 
		 "theory": "DFT", 
		 "functional": "B3LYP", 
		 "basiset": "6-31G**", 
		 "properties": { 
			 "R2extent": 4259.7904, 
			 "electric_dipole_moment_norm": 4.49689638084, 
			 "electric_quadrupole_moment_norm": 15.1667117583, 
			 "total_energy": -869.114915701, 
			 "HOMO_LUMO_gap": 0.18708, 
			 "cosmo_polarized_energy": -13.42, 
			 "cosmo_cavitation_energy": 29.47, 
			 "cosmo_dispersion_energy": -21.14, 
			 "cosmo_repulsion_energy": 1.64, 
			 "cosmo_total_nonelectrostatic_energy": 9.98, 
			 "SMD_solvation_energy": 11.35 
		},
		"coords": [
			{
				"x": 0.6304231989,
				"y": -3.1261585048,
				"z": 2.6591845181,
				"element": "C" 
			},
			{
				"x": 0.2621224654,
				"y": -1.8906983153,
				"z": 2.0159015847,
				"element": "O" 
			},
			{
				"x": 0.5989773,
				"y": -1.7933373839,
				"z": 0.7178810859,
				"element": "C" 
			},
			{
				"x": 1.1734426978,
				"y": -2.660131419,
				"z": 0.0930708353,
				"element": "O" 
			},
			{
				"x": 0.1820316313,
				"y": -0.4821724382,
				"z": 0.1252371686,
				"element": "C" 
			},
			{
				"x": 0.4765525311,
				"y": -0.2578706297,
				"z": -1.223942532,
				"element": "C" 
			},
			{
				"x": 0.1019435233,
				"y": 0.9497366293,
				"z": -1.8025955964,
				"element": "C" 
			},
			{
				"x": -0.5562497764,
				"y": 1.9466305214,
				"z": -1.089903613,
				"element": "C" 
			},
			{
				"x": -0.8333411835,
				"y": 1.6910473196,
				"z": 0.2483202914,
				"element": "C" 
			},
			{
				"x": -0.47883074,
				"y": 0.4982054294,
				"z": 0.8725330089,
				"element": "C" 
			},
			{
				"x": -1.5315069603,
				"y": 2.728222519,
				"z": 1.0360252745,
				"element": "N" 
			},
			{
				"x": -1.8308193547,
				"y": 3.7688045167,
				"z": 0.4571850657,
				"element": "O" 
			},
			{
				"x": -1.7641545859,
				"y": 2.4771145177,
				"z": 2.215807729,
				"element": "O" 
			},
			{
				"x": 0.4120756742,
				"y": 1.1887805167,
				"z": -3.2279020459,
				"element": "N" 
			},
			{
				"x": 0.0663266973,
				"y": 2.2662183624,
				"z": -3.7052320368,
				"element": "O" 
			},
			{
				"x": 0.9934475563,
				"y": 0.2937559817,
				"z": -3.8345870364,
				"element": "O" 
			},
			{
				"x": 1.7133371314,
				"y": -3.2644736701,
				"z": 2.623593776,
				"element": "H" 
			},
			{
				"x": 0.2862920186,
				"y": -3.0324424222,
				"z": 3.6882409695,
				"element": "H" 
			},
			{
				"x": 0.1464300165,
				"y": -3.9708965333,
				"z": 2.1639356955,
				"element": "H" 
			},
			{
				"x": 0.9881986907,
				"y": -1.0156594451,
				"z": -1.8041392491,
				"element": "H" 
			},
			{
				"x": -0.8400196419,
				"y": 2.8800312947,
				"z": -1.5567570068,
				"element": "H" 
			},
			{
				"x": -0.7158788901,
				"y": 0.3448931528,
				"z": 1.9167421135,
				"element": "H" 
			}
		],
		 "valence_orbital": [ 
			{
				"type": "occ",
				"energy": -0.31753,
				"method": "rhf"
			},
			{
				"type": "occ",
				"energy": -0.31488,
				"method": "rhf"
			},
			{
				"type": "occ",
				"energy": -0.31262,
				"method": "rhf"
			},
			{
				"type": "occ",
				"energy": -0.31202,
				"method": "rhf"
			},
			{
				"type": "occ",
				"energy": -0.30491,
				"method": "rhf"
			},
			{
				"type": "unocc",
				"energy": -0.11783,
				"method": "rhf"
			},
			{
				"type": "unocc",
				"energy": -0.1111,
				"method": "rhf"
			},
			{
				"type": "unocc",
				"energy": -0.07508,
				"method": "rhf"
			},
			{
				"type": "unocc",
				"energy": -0.01472,
				"method": "rhf"
			},
			{
				"type": "unocc",
				"energy": 0.02909,
				"method": "rhf"
			}
		],
		"cosmo_sigma_profile": { 
			"-0.025": 0.0,
			"-0.024": 0.0,
			"-0.023": 0.0,
			"-0.022": 0.0,
			"-0.021": 0.0,
			"-0.02": 0.0,
			"-0.019": 0.0,
			"-0.018": 0.0,
			"-0.017": 0.0,
			"-0.016": 0.0,
			"-0.015": 0.0,
			"-0.014": 0.0,
			"-0.013": 0.0,
			"-0.012": 0.0,
			"-0.011": 0.0,
			"-0.01": 0.0,
			"-0.009": 0.870982465014,
			"-0.008": 3.76000449301,
			"-0.007": 7.4217876949,
			"-0.006": 16.1859023396,
			"-0.005": 23.0500470854,
			"-0.004": 33.916799862,
			"-0.003": 27.0370715716,
			"-0.002": 11.7823615566,
			"-0.001": 8.41960293409,
			"0.0": 7.64397397726,
			"0.001": 8.61470638787,
			"0.002": 7.72867966112,
			"0.003": 7.5732368345,
			"0.004": 8.56075211603,
			"0.005": 8.36109644671,
			"0.006": 16.0828882328,
			"0.007": 16.2050664143,
			"0.008": 9.83913040945,
			"0.009": 7.34615061858,
			"0.01": 2.75196660533,
			"0.011": 3.8511394014,
			"0.012": 0.195881435475,
			"0.013": 0.0,
			"0.014": 0.0,
			"0.015": 0.0,
			"0.016": 0.0,
			"0.017": 0.0,
			"0.018": 0.0,
			"0.019": 0.0,
			"0.02": 0.0,
			"0.021": 0.0,
			"0.022": 0.0,
			"0.023": 0.0,
			"0.024": 0.0,
			"0.025": 0.0
		}
	}
}
