{
	 "smiles": "CC(OC1=CC2=C(CCC2)C=C1)C(O)=O", 
	 "Tm": 377.15, 
	 "num_atms": 29, 
	 "gaussian": { 
		 "optdone": 1, 
		 "sigma_profile": "yes", 
		 "theory": "DFT", 
		 "functional": "B3LYP", 
		 "basiset": "6-31G**", 
		 "properties": { 
			 "R2extent": 4007.7055, 
			 "electric_dipole_moment_norm": 4.19865953609, 
			 "electric_quadrupole_moment_norm": 12.910081468, 
			 "total_energy": -691.398425377, 
			 "HOMO_LUMO_gap": 0.21757, 
			 "cosmo_polarized_energy": -10.97, 
			 "cosmo_cavitation_energy": 31.32, 
			 "cosmo_dispersion_energy": -22.61, 
			 "cosmo_repulsion_energy": 1.8, 
			 "cosmo_total_nonelectrostatic_energy": 10.51, 
			 "SMD_solvation_energy": 5.82 
		},
		"coords": [
			{
				"x": -2.0639218247,
				"y": -0.0223721121,
				"z": -1.0492534111,
				"element": "C" 
			},
			{
				"x": -1.7946213109,
				"y": 1.4522675386,
				"z": -0.7838846841,
				"element": "C" 
			},
			{
				"x": -1.3804148178,
				"y": 1.7788747791,
				"z": 0.5655330159,
				"element": "O" 
			},
			{
				"x": -0.5871445472,
				"y": 0.8731310586,
				"z": 1.2718794939,
				"element": "C" 
			},
			{
				"x": 0.7323383634,
				"y": 0.5989930803,
				"z": 0.8927707803,
				"element": "C" 
			},
			{
				"x": 1.4804035905,
				"y": -0.2764719293,
				"z": 1.6776701871,
				"element": "C" 
			},
			{
				"x": 0.9327532444,
				"y": -0.8575670506,
				"z": 2.8309023989,
				"element": "C" 
			},
			{
				"x": 1.9553202359,
				"y": -1.740996275,
				"z": 3.5153551642,
				"element": "C" 
			},
			{
				"x": 3.0205832535,
				"y": -1.9633860255,
				"z": 2.4113366528,
				"element": "C" 
			},
			{
				"x": 2.9174355716,
				"y": -0.7184587724,
				"z": 1.4937258615,
				"element": "C" 
			},
			{
				"x": -0.3764971306,
				"y": -0.564047256,
				"z": 3.2074696594,
				"element": "C" 
			},
			{
				"x": -1.1409864298,
				"y": 0.2999704635,
				"z": 2.4189366205,
				"element": "C" 
			},
			{
				"x": -0.8149109282,
				"y": 2.0639633296,
				"z": -1.8045382302,
				"element": "C" 
			},
			{
				"x": -0.0102936109,
				"y": 3.0170323803,
				"z": -1.293190928,
				"element": "O" 
			},
			{
				"x": -0.8001983188,
				"y": 1.7576978339,
				"z": -2.9715838499,
				"element": "O" 
			},
			{
				"x": -1.1626239327,
				"y": -0.6266915862,
				"z": -0.9266625865,
				"element": "H" 
			},
			{
				"x": -2.8345162772,
				"y": -0.3985266528,
				"z": -0.3719144864,
				"element": "H" 
			},
			{
				"x": -2.4065715771,
				"y": -0.1275310072,
				"z": -2.0802900526,
				"element": "H" 
			},
			{
				"x": -2.7301886394,
				"y": 2.0131814582,
				"z": -0.9050975621,
				"element": "H" 
			},
			{
				"x": 1.1598226681,
				"y": 1.0652068088,
				"z": 0.0102506641,
				"element": "H" 
			},
			{
				"x": 2.3900995289,
				"y": -1.2192555047,
				"z": 4.379915847,
				"element": "H" 
			},
			{
				"x": 1.5335811145,
				"y": -2.6784690856,
				"z": 3.8931415812,
				"element": "H" 
			},
			{
				"x": 2.7603847588,
				"y": -2.8579755456,
				"z": 1.8346208759,
				"element": "H" 
			},
			{
				"x": 4.026296024,
				"y": -2.1137468134,
				"z": 2.8132403426,
				"element": "H" 
			},
			{
				"x": 3.6009950847,
				"y": 0.0743472885,
				"z": 1.8294023582,
				"element": "H" 
			},
			{
				"x": 3.1735713521,
				"y": -0.9343332183,
				"z": 0.4512769563,
				"element": "H" 
			},
			{
				"x": -0.8111238121,
				"y": -1.0063629174,
				"z": 4.1001603708,
				"element": "H" 
			},
			{
				"x": -2.1660326783,
				"y": 0.5428480355,
				"z": 2.6790314474,
				"element": "H" 
			},
			{
				"x": -0.2182389545,
				"y": 3.0725776973,
				"z": -0.340704487,
				"element": "H" 
			}
		],
		 "valence_orbital": [ 
			{
				"type": "occ",
				"energy": -0.31804,
				"method": "rhf"
			},
			{
				"type": "occ",
				"energy": -0.31162,
				"method": "rhf"
			},
			{
				"type": "occ",
				"energy": -0.25985,
				"method": "rhf"
			},
			{
				"type": "occ",
				"energy": -0.25418,
				"method": "rhf"
			},
			{
				"type": "occ",
				"energy": -0.23449,
				"method": "rhf"
			},
			{
				"type": "unocc",
				"energy": -0.01692,
				"method": "rhf"
			},
			{
				"type": "unocc",
				"energy": -0.00249,
				"method": "rhf"
			},
			{
				"type": "unocc",
				"energy": 0.01027,
				"method": "rhf"
			},
			{
				"type": "unocc",
				"energy": 0.08789,
				"method": "rhf"
			},
			{
				"type": "unocc",
				"energy": 0.09261,
				"method": "rhf"
			}
		],
		"cosmo_sigma_profile": { 
			"-0.025": 0.0,
			"-0.024": 0.0,
			"-0.023": 0.0,
			"-0.022": 0.0,
			"-0.021": 0.0,
			"-0.02": 0.0,
			"-0.019": 0.0,
			"-0.018": 0.0,
			"-0.017": 0.0,
			"-0.016": 0.0,
			"-0.015": 0.0999526784282,
			"-0.014": 0.276112601682,
			"-0.013": 0.795707913563,
			"-0.012": 0.628880293327,
			"-0.011": 0.488796119676,
			"-0.01": 1.15241621593,
			"-0.009": 2.74289421371,
			"-0.008": 4.06079930381,
			"-0.007": 3.08144572952,
			"-0.006": 5.59442484845,
			"-0.005": 10.3725538167,
			"-0.004": 18.2715299071,
			"-0.003": 27.7581331071,
			"-0.002": 29.8583172072,
			"-0.001": 30.6864692521,
			"0.0": 23.7618232194,
			"0.001": 15.8205996144,
			"0.002": 9.6692702511,
			"0.003": 9.55640793285,
			"0.004": 10.2885964088,
			"0.005": 9.93300374357,
			"0.006": 4.32725649663,
			"0.007": 4.15067371825,
			"0.008": 3.13646721249,
			"0.009": 5.00280640902,
			"0.01": 5.13368614571,
			"0.011": 5.07870910149,
			"0.012": 4.21347632504,
			"0.013": 0.935812306875,
			"0.014": 0.0,
			"0.015": 0.0,
			"0.016": 0.0,
			"0.017": 0.0,
			"0.018": 0.0,
			"0.019": 0.0,
			"0.02": 0.0,
			"0.021": 0.0,
			"0.022": 0.0,
			"0.023": 0.0,
			"0.024": 0.0,
			"0.025": 0.0
		}
	}
}
