{
	 "smiles": "COC1=C2C(CCN)=CNC2=CC=C1", 
	 "Tm": 393.15, 
	 "num_atms": 28, 
	 "gaussian": { 
		 "optdone": 1, 
		 "sigma_profile": "yes", 
		 "theory": "DFT", 
		 "functional": "B3LYP", 
		 "basiset": "6-31G**", 
		 "properties": { 
			 "R2extent": 3061.964, 
			 "electric_dipole_moment_norm": 2.13268226185, 
			 "electric_quadrupole_moment_norm": 20.8956589441, 
			 "total_energy": -612.327252548, 
			 "HOMO_LUMO_gap": 0.18867, 
			 "cosmo_polarized_energy": -13.42, 
			 "cosmo_cavitation_energy": 30.37, 
			 "cosmo_dispersion_energy": -21.76, 
			 "cosmo_repulsion_energy": 1.72, 
			 "cosmo_total_nonelectrostatic_energy": 10.34, 
			 "SMD_solvation_energy": 4.1 
		},
		"coords": [
			{
				"x": 2.1559232566,
				"y": -1.0125735859,
				"z": 1.2837399742,
				"element": "C" 
			},
			{
				"x": 1.2717440246,
				"y": -0.4249819394,
				"z": 0.343091155,
				"element": "O" 
			},
			{
				"x": -0.0697524761,
				"y": -0.4536861991,
				"z": 0.612186002,
				"element": "C" 
			},
			{
				"x": -0.910671793,
				"y": 0.1430443801,
				"z": -0.3557539324,
				"element": "C" 
			},
			{
				"x": -0.6766906734,
				"y": 0.8177504619,
				"z": -1.6136821519,
				"element": "C" 
			},
			{
				"x": 0.6334708214,
				"y": 1.0548866653,
				"z": -2.3118251485,
				"element": "C" 
			},
			{
				"x": 1.1903494363,
				"y": -0.1990987099,
				"z": -3.0316614446,
				"element": "C" 
			},
			{
				"x": 0.3608843559,
				"y": -0.7509544493,
				"z": -4.1035119151,
				"element": "N" 
			},
			{
				"x": -1.9179506259,
				"y": 1.176414214,
				"z": -2.0818544149,
				"element": "C" 
			},
			{
				"x": -2.8994940873,
				"y": 0.7722229641,
				"z": -1.1932112863,
				"element": "N" 
			},
			{
				"x": -2.3102582882,
				"y": 0.1373352774,
				"z": -0.1219327773,
				"element": "C" 
			},
			{
				"x": -2.8943486013,
				"y": -0.4314104639,
				"z": 1.0200404667,
				"element": "C" 
			},
			{
				"x": -2.0349821792,
				"y": -1.0051585802,
				"z": 1.9426103535,
				"element": "C" 
			},
			{
				"x": -0.6360993568,
				"y": -1.0219060619,
				"z": 1.7505038473,
				"element": "C" 
			},
			{
				"x": 1.954464889,
				"y": -2.0836571297,
				"z": 1.4132598613,
				"element": "H" 
			},
			{
				"x": 3.1600481985,
				"y": -0.8820402818,
				"z": 0.8770678352,
				"element": "H" 
			},
			{
				"x": 2.0932425793,
				"y": -0.5166297533,
				"z": 2.2608654545,
				"element": "H" 
			},
			{
				"x": 1.3808547531,
				"y": 1.4033443045,
				"z": -1.5903685385,
				"element": "H" 
			},
			{
				"x": 0.5057936799,
				"y": 1.8569924798,
				"z": -3.0518618723,
				"element": "H" 
			},
			{
				"x": 2.1724848257,
				"y": 0.0457899817,
				"z": -3.4549814435,
				"element": "H" 
			},
			{
				"x": 1.3564223157,
				"y": -0.9843789025,
				"z": -2.2867938473,
				"element": "H" 
			},
			{
				"x": 0.2249720246,
				"y": -0.045477589,
				"z": -4.8258617055,
				"element": "H" 
			},
			{
				"x": -0.5672183743,
				"y": -0.9499602092,
				"z": -3.7339062708,
				"element": "H" 
			},
			{
				"x": -2.1800674763,
				"y": 1.7126599322,
				"z": -2.9833906584,
				"element": "H" 
			},
			{
				"x": -3.886608485,
				"y": 0.9372816313,
				"z": -1.2988869237,
				"element": "H" 
			},
			{
				"x": -3.9690480911,
				"y": -0.4220177883,
				"z": 1.1739310651,
				"element": "H" 
			},
			{
				"x": -2.4405496081,
				"y": -1.4576103235,
				"z": 2.8428903009,
				"element": "H" 
			},
			{
				"x": -0.0114150447,
				"y": -1.4851803253,
				"z": 2.5042980155,
				"element": "H" 
			}
		],
		 "valence_orbital": [ 
			{
				"type": "occ",
				"energy": -0.30305,
				"method": "rhf"
			},
			{
				"type": "occ",
				"energy": -0.24885,
				"method": "rhf"
			},
			{
				"type": "occ",
				"energy": -0.21919,
				"method": "rhf"
			},
			{
				"type": "occ",
				"energy": -0.21617,
				"method": "rhf"
			},
			{
				"type": "occ",
				"energy": -0.1852,
				"method": "rhf"
			},
			{
				"type": "unocc",
				"energy": 0.00347,
				"method": "rhf"
			},
			{
				"type": "unocc",
				"energy": 0.03515,
				"method": "rhf"
			},
			{
				"type": "unocc",
				"energy": 0.0709,
				"method": "rhf"
			},
			{
				"type": "unocc",
				"energy": 0.08312,
				"method": "rhf"
			},
			{
				"type": "unocc",
				"energy": 0.10046,
				"method": "rhf"
			}
		],
		"cosmo_sigma_profile": { 
			"-0.025": 0.0,
			"-0.024": 0.0,
			"-0.023": 0.0,
			"-0.022": 0.0,
			"-0.021": 0.0,
			"-0.02": 0.0,
			"-0.019": 0.0,
			"-0.018": 0.0,
			"-0.017": 0.0,
			"-0.016": 0.16707059818,
			"-0.015": 1.3256679762,
			"-0.014": 1.48206060984,
			"-0.013": 0.5824055967,
			"-0.012": 1.50704205067,
			"-0.011": 1.69983552601,
			"-0.01": 0.846056208703,
			"-0.009": 2.11205656667,
			"-0.008": 2.97033624299,
			"-0.007": 6.0112568386,
			"-0.006": 6.86792108406,
			"-0.005": 16.7025533468,
			"-0.004": 19.9669262959,
			"-0.003": 22.4332725818,
			"-0.002": 19.6428841886,
			"-0.001": 17.5636101828,
			"0.0": 14.6343074133,
			"0.001": 14.2452387435,
			"0.002": 11.5335206452,
			"0.003": 10.2179740682,
			"0.004": 13.7451399229,
			"0.005": 15.9123944076,
			"0.006": 15.5628733485,
			"0.007": 10.3235627979,
			"0.008": 2.49372510889,
			"0.009": 1.0632538115,
			"0.01": 0.711981858804,
			"0.011": 0.665971543797,
			"0.012": 0.354625730097,
			"0.013": 0.99171229639,
			"0.014": 0.73413572658,
			"0.015": 0.671729937373,
			"0.016": 0.681908248681,
			"0.017": 0.858408643632,
			"0.018": 0.351820840002,
			"0.019": 0.77229058978,
			"0.02": 0.647146648451,
			"0.021": 0.0547912744282,
			"0.022": 0.0,
			"0.023": 0.0,
			"0.024": 0.0,
			"0.025": 0.0
		}
	}
}
