{
	 "smiles": "CC(=O)N1CCC2=CC(Br)=CC=C12", 
	 "Tm": 399.15, 
	 "num_atms": 23, 
	 "gaussian": { 
		 "optdone": 1, 
		 "sigma_profile": "yes", 
		 "theory": "DFT", 
		 "functional": "B3LYP", 
		 "basiset": "6-31G**", 
		 "properties": { 
			 "R2extent": 5444.075, 
			 "electric_dipole_moment_norm": 4.81662999513, 
			 "electric_quadrupole_moment_norm": 5.93052407634, 
			 "total_energy": -3088.49190148, 
			 "HOMO_LUMO_gap": 0.19354, 
			 "cosmo_polarized_energy": -11.35, 
			 "cosmo_cavitation_energy": 28.29, 
			 "cosmo_dispersion_energy": -21.51, 
			 "cosmo_repulsion_energy": 1.69, 
			 "cosmo_total_nonelectrostatic_energy": 8.47, 
			 "SMD_solvation_energy": 3.7 
		},
		"coords": [
			{
				"x": -3.3187437592,
				"y": -0.2874784162,
				"z": -0.0515106942,
				"element": "C" 
			},
			{
				"x": -1.9449626715,
				"y": -0.6137944189,
				"z": -0.615146949,
				"element": "C" 
			},
			{
				"x": -1.8058228333,
				"y": -1.3405525976,
				"z": -1.5917439656,
				"element": "O" 
			},
			{
				"x": -0.8726284209,
				"y": -0.0415733249,
				"z": 0.0405744418,
				"element": "N" 
			},
			{
				"x": -0.9933242177,
				"y": 0.842482045,
				"z": 1.2233443818,
				"element": "C" 
			},
			{
				"x": 0.4610860767,
				"y": 1.2303810603,
				"z": 1.5993436947,
				"element": "C" 
			},
			{
				"x": 1.3028915749,
				"y": 0.5135548421,
				"z": 0.569145235,
				"element": "C" 
			},
			{
				"x": 2.683606027,
				"y": 0.5044165891,
				"z": 0.4256696229,
				"element": "C" 
			},
			{
				"x": 3.2345693861,
				"y": -0.2436956055,
				"z": -0.6179956266,
				"element": "C" 
			},
			{
				"x": 5.1354391787,
				"y": -0.2749312384,
				"z": -0.8401985784,
				"element": "Br" 
			},
			{
				"x": 2.4288551972,
				"y": -0.9651012481,
				"z": -1.4971500717,
				"element": "C" 
			},
			{
				"x": 1.0379585285,
				"y": -0.9570451479,
				"z": -1.3541836172,
				"element": "C" 
			},
			{
				"x": 0.4860681284,
				"y": -0.2090843349,
				"z": -0.3107072916,
				"element": "C" 
			},
			{
				"x": -4.0572960094,
				"y": -0.8026999605,
				"z": -0.6646393991,
				"element": "H" 
			},
			{
				"x": -3.5206149731,
				"y": 0.788943027,
				"z": -0.0742491248,
				"element": "H" 
			},
			{
				"x": -3.419462499,
				"y": -0.6196176919,
				"z": 0.9874830412,
				"element": "H" 
			},
			{
				"x": -1.494479565,
				"y": 0.3146313268,
				"z": 2.0408315656,
				"element": "H" 
			},
			{
				"x": -1.5952610218,
				"y": 1.7231076873,
				"z": 0.9778351978,
				"element": "H" 
			},
			{
				"x": 0.7075921035,
				"y": 0.9126659496,
				"z": 2.6181220805,
				"element": "H" 
			},
			{
				"x": 0.6070605504,
				"y": 2.3151705737,
				"z": 1.5601389889,
				"element": "H" 
			},
			{
				"x": 3.3236852115,
				"y": 1.0606974837,
				"z": 1.1019094369,
				"element": "H" 
			},
			{
				"x": 2.8826845055,
				"y": -1.5372404269,
				"z": -2.2983360453,
				"element": "H" 
			},
			{
				"x": 0.3990995024,
				"y": -1.5105361728,
				"z": -2.0267363236,
				"element": "H" 
			}
		],
		 "valence_orbital": [ 
			{
				"type": "occ",
				"energy": -0.28212,
				"method": "rhf"
			},
			{
				"type": "occ",
				"energy": -0.27505,
				"method": "rhf"
			},
			{
				"type": "occ",
				"energy": -0.25621,
				"method": "rhf"
			},
			{
				"type": "occ",
				"energy": -0.25393,
				"method": "rhf"
			},
			{
				"type": "occ",
				"energy": -0.21093,
				"method": "rhf"
			},
			{
				"type": "unocc",
				"energy": -0.01739,
				"method": "rhf"
			},
			{
				"type": "unocc",
				"energy": -0.0123,
				"method": "rhf"
			},
			{
				"type": "unocc",
				"energy": 0.01243,
				"method": "rhf"
			},
			{
				"type": "unocc",
				"energy": 0.03783,
				"method": "rhf"
			},
			{
				"type": "unocc",
				"energy": 0.06803,
				"method": "rhf"
			}
		],
		"cosmo_sigma_profile": { 
			"-0.025": 0.0,
			"-0.024": 0.0,
			"-0.023": 0.0,
			"-0.022": 0.0,
			"-0.021": 0.0,
			"-0.02": 0.0,
			"-0.019": 0.0,
			"-0.018": 0.0,
			"-0.017": 0.0,
			"-0.016": 0.0,
			"-0.015": 0.0,
			"-0.014": 0.0,
			"-0.013": 0.0,
			"-0.012": 0.0,
			"-0.011": 0.0,
			"-0.01": 0.0,
			"-0.009": 0.0,
			"-0.008": 0.133136199577,
			"-0.007": 5.72388657329,
			"-0.006": 15.212457335,
			"-0.005": 21.924979355,
			"-0.004": 21.9506337924,
			"-0.003": 20.1014172685,
			"-0.002": 17.5703220307,
			"-0.001": 14.3006637078,
			"0.0": 11.786489073,
			"0.001": 11.8356140225,
			"0.002": 14.6985870762,
			"0.003": 21.4715946586,
			"0.004": 21.2874646122,
			"0.005": 12.6204733849,
			"0.006": 1.79873286741,
			"0.007": 2.36543778339,
			"0.008": 1.59055064175,
			"0.009": 1.43653334207,
			"0.01": 1.25286956607,
			"0.011": 1.97057623776,
			"0.012": 2.25440585452,
			"0.013": 2.62487419042,
			"0.014": 2.16013467092,
			"0.015": 0.370728407139,
			"0.016": 0.0,
			"0.017": 0.0,
			"0.018": 0.0,
			"0.019": 0.0,
			"0.02": 0.0,
			"0.021": 0.0,
			"0.022": 0.0,
			"0.023": 0.0,
			"0.024": 0.0,
			"0.025": 0.0
		}
	}
}
