{
	 "smiles": "CC(=O)NCC1=CC=C(S1)C1=CSC(N)=N1", 
	 "Tm": 495.15, 
	 "num_atms": 27, 
	 "gaussian": { 
		 "optdone": 1, 
		 "sigma_profile": "yes", 
		 "theory": "DFT", 
		 "functional": "B3LYP", 
		 "basiset": "6-31G**", 
		 "properties": { 
			 "R2extent": 6972.5522, 
			 "electric_dipole_moment_norm": 5.2891185069, 
			 "electric_quadrupole_moment_norm": 10.9066939088, 
			 "total_energy": -1423.55341844, 
			 "HOMO_LUMO_gap": 0.15827, 
			 "cosmo_polarized_energy": -20.02, 
			 "cosmo_cavitation_energy": 35.39, 
			 "cosmo_dispersion_energy": -26.43, 
			 "cosmo_repulsion_energy": 2.01, 
			 "cosmo_total_nonelectrostatic_energy": 10.97, 
			 "SMD_solvation_energy": 4.66 
		},
		"coords": [
			{
				"x": -3.3920396924,
				"y": -1.7211879623,
				"z": -4.4253899059,
				"element": "C" 
			},
			{
				"x": -1.9578866211,
				"y": -1.213959142,
				"z": -4.4141938699,
				"element": "C" 
			},
			{
				"x": -1.5413821213,
				"y": -0.4277960109,
				"z": -5.2556216845,
				"element": "O" 
			},
			{
				"x": -1.1733594753,
				"y": -1.6979497437,
				"z": -3.3997567596,
				"element": "N" 
			},
			{
				"x": 0.2174674175,
				"y": -1.2948358551,
				"z": -3.2329105861,
				"element": "C" 
			},
			{
				"x": 0.5588921329,
				"y": -0.9338205772,
				"z": -1.8167240609,
				"element": "C" 
			},
			{
				"x": 1.5302822584,
				"y": -1.4808364098,
				"z": -1.0193801817,
				"element": "C" 
			},
			{
				"x": 1.6122649964,
				"y": -0.8883130341,
				"z": 0.2727942183,
				"element": "C" 
			},
			{
				"x": 0.693408462,
				"y": 0.1155884498,
				"z": 0.4670482447,
				"element": "C" 
			},
			{
				"x": -0.2890902278,
				"y": 0.3403344828,
				"z": -0.9658036023,
				"element": "S" 
			},
			{
				"x": 0.5093312326,
				"y": 0.9098924044,
				"z": 1.6753081495,
				"element": "C" 
			},
			{
				"x": -0.3851240414,
				"y": 1.9306929349,
				"z": 1.8562550443,
				"element": "C" 
			},
			{
				"x": -0.2348582015,
				"y": 2.5915722837,
				"z": 3.463703304,
				"element": "S" 
			},
			{
				"x": 1.038495255,
				"y": 1.3985022938,
				"z": 3.7719056044,
				"element": "C" 
			},
			{
				"x": 1.7189265222,
				"y": 1.3854627891,
				"z": 4.967899077,
				"element": "N" 
			},
			{
				"x": 1.3086355469,
				"y": 0.6136361504,
				"z": 2.7733126712,
				"element": "N" 
			},
			{
				"x": -4.0658151927,
				"y": -0.861664335,
				"z": -4.375622482,
				"element": "H" 
			},
			{
				"x": -3.627396762,
				"y": -2.4063560301,
				"z": -3.6062457755,
				"element": "H" 
			},
			{
				"x": -3.5784399432,
				"y": -2.2261468576,
				"z": -5.3771280232,
				"element": "H" 
			},
			{
				"x": -1.5651010454,
				"y": -2.3426756291,
				"z": -2.7298333192,
				"element": "H" 
			},
			{
				"x": 0.8974934448,
				"y": -2.0970541085,
				"z": -3.550019481,
				"element": "H" 
			},
			{
				"x": 0.3630250157,
				"y": -0.4567417468,
				"z": -3.9220042641,
				"element": "H" 
			},
			{
				"x": 2.1739050174,
				"y": -2.2878791055,
				"z": -1.3542659846,
				"element": "H" 
			},
			{
				"x": 2.311696164,
				"y": -1.1805864367,
				"z": 1.0456243943,
				"element": "H" 
			},
			{
				"x": -1.1085480976,
				"y": 2.3316183093,
				"z": 1.1617604634,
				"element": "H" 
			},
			{
				"x": 1.2033878704,
				"y": 1.6610767939,
				"z": 5.7913604006,
				"element": "H" 
			},
			{
				"x": 2.2801300855,
				"y": 0.5531260921,
				"z": 5.0934284087,
				"element": "H" 
			}
		],
		 "valence_orbital": [ 
			{
				"type": "occ",
				"energy": -0.25667,
				"method": "rhf"
			},
			{
				"type": "occ",
				"energy": -0.25223,
				"method": "rhf"
			},
			{
				"type": "occ",
				"energy": -0.247,
				"method": "rhf"
			},
			{
				"type": "occ",
				"energy": -0.23563,
				"method": "rhf"
			},
			{
				"type": "occ",
				"energy": -0.19699,
				"method": "rhf"
			},
			{
				"type": "unocc",
				"energy": -0.03872,
				"method": "rhf"
			},
			{
				"type": "unocc",
				"energy": 0.00459,
				"method": "rhf"
			},
			{
				"type": "unocc",
				"energy": 0.01109,
				"method": "rhf"
			},
			{
				"type": "unocc",
				"energy": 0.02746,
				"method": "rhf"
			},
			{
				"type": "unocc",
				"energy": 0.03317,
				"method": "rhf"
			}
		],
		"cosmo_sigma_profile": { 
			"-0.025": 0.0,
			"-0.024": 0.0,
			"-0.023": 0.0,
			"-0.022": 0.0,
			"-0.021": 0.0,
			"-0.02": 0.0,
			"-0.019": 0.0,
			"-0.018": 0.0,
			"-0.017": 0.0,
			"-0.016": 0.0,
			"-0.015": 0.446270611231,
			"-0.014": 2.76385586435,
			"-0.013": 3.9366477822,
			"-0.012": 3.71550616283,
			"-0.011": 4.20254110926,
			"-0.01": 3.08943221912,
			"-0.009": 3.83516148822,
			"-0.008": 5.30099810601,
			"-0.007": 6.42388255316,
			"-0.006": 12.5344143834,
			"-0.005": 16.2055550318,
			"-0.004": 16.6788780664,
			"-0.003": 16.5135387129,
			"-0.002": 19.6147002754,
			"-0.001": 18.9398998394,
			"0.0": 15.6938846855,
			"0.001": 17.2237746833,
			"0.002": 19.9780925236,
			"0.003": 22.8549242025,
			"0.004": 26.0580719069,
			"0.005": 15.3750667175,
			"0.006": 4.2608445357,
			"0.007": 3.46495037472,
			"0.008": 4.54113606424,
			"0.009": 2.82152624748,
			"0.01": 2.8402571721,
			"0.011": 3.77660760497,
			"0.012": 2.81672958681,
			"0.013": 2.96432454519,
			"0.014": 5.45715077028,
			"0.015": 1.71034885236,
			"0.016": 0.0662698200468,
			"0.017": 0.0,
			"0.018": 0.0,
			"0.019": 0.0,
			"0.02": 0.0,
			"0.021": 0.0,
			"0.022": 0.0,
			"0.023": 0.0,
			"0.024": 0.0,
			"0.025": 0.0
		}
	}
}
