{
	 "smiles": "CC1CCC2=C(C1)SC1=C2C(S)=NC(S)=N1", 
	 "Tm": 611.15, 
	 "num_atms": 28, 
	 "gaussian": { 
		 "optdone": 1, 
		 "sigma_profile": "yes", 
		 "theory": "DFT", 
		 "functional": "B3LYP", 
		 "basiset": "6-31G**", 
		 "properties": { 
			 "R2extent": 6045.3474, 
			 "electric_dipole_moment_norm": 5.20355359634, 
			 "electric_quadrupole_moment_norm": 6.12495740802, 
			 "total_energy": -1730.48415081, 
			 "HOMO_LUMO_gap": 0.16958, 
			 "cosmo_polarized_energy": -10.37, 
			 "cosmo_cavitation_energy": 34.72, 
			 "cosmo_dispersion_energy": -27.17, 
			 "cosmo_repulsion_energy": 1.97, 
			 "cosmo_total_nonelectrostatic_energy": 9.52, 
			 "SMD_solvation_energy": 0.45 
		},
		"coords": [
			{
				"x": -3.5090764369,
				"y": 2.404199045,
				"z": 2.8090138468,
				"element": "C" 
			},
			{
				"x": -2.1889127649,
				"y": 1.7565664625,
				"z": 2.3795803783,
				"element": "C" 
			},
			{
				"x": -2.3121942644,
				"y": 0.2332272529,
				"z": 2.2287079303,
				"element": "C" 
			},
			{
				"x": -0.9573302042,
				"y": -0.4377800071,
				"z": 1.9418294629,
				"element": "C" 
			},
			{
				"x": -0.1594568244,
				"y": 0.3053987999,
				"z": 0.8915021913,
				"element": "C" 
			},
			{
				"x": -0.5250732373,
				"y": 1.5634249198,
				"z": 0.5045049353,
				"element": "C" 
			},
			{
				"x": -1.6756790872,
				"y": 2.3577571986,
				"z": 1.0571431752,
				"element": "C" 
			},
			{
				"x": 0.4853978992,
				"y": 2.2321389388,
				"z": -0.7720459487,
				"element": "S" 
			},
			{
				"x": 1.4511260462,
				"y": 0.7727774142,
				"z": -0.7995355641,
				"element": "C" 
			},
			{
				"x": 1.0061309594,
				"y": -0.1713205873,
				"z": 0.1656621788,
				"element": "C" 
			},
			{
				"x": 1.8067328899,
				"y": -1.3390064897,
				"z": 0.1998043124,
				"element": "C" 
			},
			{
				"x": 1.6581889952,
				"y": -2.7229063202,
				"z": 1.3107607569,
				"element": "S" 
			},
			{
				"x": 2.8196238182,
				"y": -1.521891874,
				"z": -0.6488737002,
				"element": "N" 
			},
			{
				"x": 3.0918614231,
				"y": -0.5515850408,
				"z": -1.5298653015,
				"element": "C" 
			},
			{
				"x": 4.4279353121,
				"y": -0.8066648989,
				"z": -2.6746480662,
				"element": "S" 
			},
			{
				"x": 2.4670412913,
				"y": 0.6192496734,
				"z": -1.6433180104,
				"element": "N" 
			},
			{
				"x": -3.4096670041,
				"y": 3.4914672307,
				"z": 2.8975759284,
				"element": "H" 
			},
			{
				"x": -3.8405879447,
				"y": 2.0188715998,
				"z": 3.7788844355,
				"element": "H" 
			},
			{
				"x": -4.3023667977,
				"y": 2.2003378011,
				"z": 2.0799078466,
				"element": "H" 
			},
			{
				"x": -1.4342833027,
				"y": 1.9598048335,
				"z": 3.1535886351,
				"element": "H" 
			},
			{
				"x": -3.0075244779,
				"y": 0.0137505229,
				"z": 1.4069826276,
				"element": "H" 
			},
			{
				"x": -2.7480213261,
				"y": -0.2046559061,
				"z": 3.1339756948,
				"element": "H" 
			},
			{
				"x": -0.3791523845,
				"y": -0.4980604569,
				"z": 2.876456933,
				"element": "H" 
			},
			{
				"x": -1.1371873928,
				"y": -1.4689184207,
				"z": 1.6166505603,
				"element": "H" 
			},
			{
				"x": -1.3774432449,
				"y": 3.402708753,
				"z": 1.2094232794,
				"element": "H" 
			},
			{
				"x": -2.4952880981,
				"y": 2.3809104024,
				"z": 0.3228742929,
				"element": "H" 
			},
			{
				"x": 0.724388414,
				"y": -2.2131929663,
				"z": 2.1300744604,
				"element": "H" 
			},
			{
				"x": 4.7453177446,
				"y": -2.0276078806,
				"z": -2.2043172712,
				"element": "H" 
			}
		],
		 "valence_orbital": [ 
			{
				"type": "occ",
				"energy": -0.28312,
				"method": "rhf"
			},
			{
				"type": "occ",
				"energy": -0.26515,
				"method": "rhf"
			},
			{
				"type": "occ",
				"energy": -0.26358,
				"method": "rhf"
			},
			{
				"type": "occ",
				"energy": -0.25287,
				"method": "rhf"
			},
			{
				"type": "occ",
				"energy": -0.21685,
				"method": "rhf"
			},
			{
				"type": "unocc",
				"energy": -0.04727,
				"method": "rhf"
			},
			{
				"type": "unocc",
				"energy": -0.03323,
				"method": "rhf"
			},
			{
				"type": "unocc",
				"energy": 0.00288,
				"method": "rhf"
			},
			{
				"type": "unocc",
				"energy": 0.02244,
				"method": "rhf"
			},
			{
				"type": "unocc",
				"energy": 0.02464,
				"method": "rhf"
			}
		],
		"cosmo_sigma_profile": { 
			"-0.025": 0.0,
			"-0.024": 0.0,
			"-0.023": 0.0,
			"-0.022": 0.0,
			"-0.021": 0.0,
			"-0.02": 0.0,
			"-0.019": 0.0,
			"-0.018": 0.0,
			"-0.017": 0.0,
			"-0.016": 0.0,
			"-0.015": 0.0,
			"-0.014": 0.0,
			"-0.013": 0.0,
			"-0.012": 0.0384843423517,
			"-0.011": 1.54353426162,
			"-0.01": 2.78590876281,
			"-0.009": 3.7150071683,
			"-0.008": 3.05229126521,
			"-0.007": 3.32939591985,
			"-0.006": 3.99874818589,
			"-0.005": 8.96553951167,
			"-0.004": 13.1953511122,
			"-0.003": 30.1912712633,
			"-0.002": 33.2002571617,
			"-0.001": 29.0035897047,
			"0.0": 28.9366084604,
			"0.001": 27.0086563459,
			"0.002": 23.5716751346,
			"0.003": 17.6976528715,
			"0.004": 16.9282690334,
			"0.005": 10.6150599781,
			"0.006": 9.48561839215,
			"0.007": 7.30855927377,
			"0.008": 2.38560086228,
			"0.009": 2.21812381002,
			"0.01": 1.84519699617,
			"0.011": 0.625847181895,
			"0.012": 0.80435736614,
			"0.013": 0.109796201952,
			"0.014": 0.0,
			"0.015": 0.0,
			"0.016": 0.0,
			"0.017": 0.0,
			"0.018": 0.0,
			"0.019": 0.0,
			"0.02": 0.0,
			"0.021": 0.0,
			"0.022": 0.0,
			"0.023": 0.0,
			"0.024": 0.0,
			"0.025": 0.0
		}
	}
}
