{
	 "smiles": "CC(=O)N(C(C)=O)C1=C(C=CC2=CC=CC=C2)C(=C(C=CC2=CC=CC=C2)C(=C1)[N+]([O-])=O)[N+]([O-])=O", 
	 "Tm": 448.15, 
	 "num_atms": 56, 
	 "gaussian": { 
		 "optdone": 1, 
		 "sigma_profile": "yes", 
		 "theory": "DFT", 
		 "functional": "B3LYP", 
		 "basiset": "6-31G**", 
		 "properties": { 
			 "R2extent": 20041.792, 
			 "electric_dipole_moment_norm": 3.39961402956, 
			 "electric_quadrupole_moment_norm": 21.8777556945, 
			 "total_energy": -1618.80036567, 
			 "HOMO_LUMO_gap": 0.12116, 
			 "cosmo_polarized_energy": -22.04, 
			 "cosmo_cavitation_energy": 62.47, 
			 "cosmo_dispersion_energy": -39.74, 
			 "cosmo_repulsion_energy": 2.97, 
			 "cosmo_total_nonelectrostatic_energy": 25.69, 
			 "SMD_solvation_energy": 16.41 
		},
		"coords": [
			{
				"x": 4.9242000398,
				"y": -2.4757003054,
				"z": -1.7953077936,
				"element": "C" 
			},
			{
				"x": 3.5910915212,
				"y": -1.7803500936,
				"z": -1.6802260239,
				"element": "C" 
			},
			{
				"x": 3.419314851,
				"y": -0.6397848305,
				"z": -2.0715930032,
				"element": "O" 
			},
			{
				"x": 2.4777566203,
				"y": -2.4666045864,
				"z": -1.1068739285,
				"element": "N" 
			},
			{
				"x": 2.54920917,
				"y": -3.7269668179,
				"z": -0.4587516521,
				"element": "C" 
			},
			{
				"x": 1.2357123499,
				"y": -4.3170148709,
				"z": 0.0159440831,
				"element": "C" 
			},
			{
				"x": 3.6064340487,
				"y": -4.3019633967,
				"z": -0.2880973634,
				"element": "O" 
			},
			{
				"x": 1.2078366911,
				"y": -1.7920122073,
				"z": -1.2398635838,
				"element": "C" 
			},
			{
				"x": 0.6485129491,
				"y": -1.0198843557,
				"z": -0.1959227681,
				"element": "C" 
			},
			{
				"x": 1.285548573,
				"y": -0.7988557382,
				"z": 1.1107021,
				"element": "C" 
			},
			{
				"x": 2.5796221758,
				"y": -0.4655476171,
				"z": 1.2924164937,
				"element": "C" 
			},
			{
				"x": 3.2475868746,
				"y": -0.2135938806,
				"z": 2.571334971,
				"element": "C" 
			},
			{
				"x": 2.6458924004,
				"y": -0.4551898757,
				"z": 3.8218729085,
				"element": "C" 
			},
			{
				"x": 3.3319965968,
				"y": -0.1909564028,
				"z": 5.0022683821,
				"element": "C" 
			},
			{
				"x": 4.6346160618,
				"y": 0.3178678457,
				"z": 4.9639248282,
				"element": "C" 
			},
			{
				"x": 5.2471557052,
				"y": 0.5581629653,
				"z": 3.7333932332,
				"element": "C" 
			},
			{
				"x": 4.5604889686,
				"y": 0.2923237381,
				"z": 2.5505410148,
				"element": "C" 
			},
			{
				"x": -0.6428793695,
				"y": -0.5113826254,
				"z": -0.4305614295,
				"element": "C" 
			},
			{
				"x": -1.3966072114,
				"y": -0.657453587,
				"z": -1.6060087843,
				"element": "C" 
			},
			{
				"x": -2.7449040742,
				"y": -0.0709575099,
				"z": -1.7335266056,
				"element": "C" 
			},
			{
				"x": -3.0230806768,
				"y": 1.2243028385,
				"z": -1.4892263682,
				"element": "C" 
			},
			{
				"x": -4.3366404887,
				"y": 1.8652054174,
				"z": -1.6113430639,
				"element": "C" 
			},
			{
				"x": -4.5048969744,
				"y": 3.156897572,
				"z": -1.0802033076,
				"element": "C" 
			},
			{
				"x": -5.7350890855,
				"y": 3.8074468362,
				"z": -1.1512714418,
				"element": "C" 
			},
			{
				"x": -6.8208598601,
				"y": 3.1820027401,
				"z": -1.7658464848,
				"element": "C" 
			},
			{
				"x": -6.6652943582,
				"y": 1.9038376451,
				"z": -2.3117536773,
				"element": "C" 
			},
			{
				"x": -5.4381022756,
				"y": 1.2523344973,
				"z": -2.2386416638,
				"element": "C" 
			},
			{
				"x": -0.7560424539,
				"y": -1.4221799318,
				"z": -2.6094377184,
				"element": "C" 
			},
			{
				"x": 0.5103176993,
				"y": -1.9693828906,
				"z": -2.4262453963,
				"element": "C" 
			},
			{
				"x": -1.3778530509,
				"y": -1.6711599291,
				"z": -3.9218180871,
				"element": "N" 
			},
			{
				"x": -2.5528201055,
				"y": -1.3455780319,
				"z": -4.0884411741,
				"element": "O" 
			},
			{
				"x": -0.6801877193,
				"y": -2.2030583931,
				"z": -4.7857875113,
				"element": "O" 
			},
			{
				"x": -1.259888416,
				"y": 0.2088982975,
				"z": 0.7105776425,
				"element": "N" 
			},
			{
				"x": -1.9916968094,
				"y": -0.449381505,
				"z": 1.4425294675,
				"element": "O" 
			},
			{
				"x": -0.9592664594,
				"y": 1.3874515887,
				"z": 0.8661118829,
				"element": "O" 
			},
			{
				"x": 5.5725299335,
				"y": -1.814977083,
				"z": -2.3720126047,
				"element": "H" 
			},
			{
				"x": 4.8337168499,
				"y": -3.4502327168,
				"z": -2.2789503844,
				"element": "H" 
			},
			{
				"x": 5.3515429716,
				"y": -2.6651656839,
				"z": -0.8084512454,
				"element": "H" 
			},
			{
				"x": 1.4534303277,
				"y": -5.3056289241,
				"z": 0.418903747,
				"element": "H" 
			},
			{
				"x": 0.7889887847,
				"y": -3.6989785788,
				"z": 0.8003792297,
				"element": "H" 
			},
			{
				"x": 0.5069233056,
				"y": -4.3993736566,
				"z": -0.7947042079,
				"element": "H" 
			},
			{
				"x": 0.6186345768,
				"y": -0.8525771535,
				"z": 1.9678309173,
				"element": "H" 
			},
			{
				"x": 3.1984208578,
				"y": -0.311979686,
				"z": 0.4127069738,
				"element": "H" 
			},
			{
				"x": 1.6394343618,
				"y": -0.8589417292,
				"z": 3.8730825996,
				"element": "H" 
			},
			{
				"x": 2.8526073059,
				"y": -0.3843085142,
				"z": 5.9573977251,
				"element": "H" 
			},
			{
				"x": 5.1668670846,
				"y": 0.5217688681,
				"z": 5.8883040889,
				"element": "H" 
			},
			{
				"x": 6.2586520952,
				"y": 0.9513821951,
				"z": 3.6941386411,
				"element": "H" 
			},
			{
				"x": 5.0387044161,
				"y": 0.4826233136,
				"z": 1.5932013071,
				"element": "H" 
			},
			{
				"x": -3.5187099299,
				"y": -0.7417855262,
				"z": -2.0827811094,
				"element": "H" 
			},
			{
				"x": -2.2177607826,
				"y": 1.8845468262,
				"z": -1.1766304574,
				"element": "H" 
			},
			{
				"x": -3.6614694573,
				"y": 3.6447422747,
				"z": -0.5985432625,
				"element": "H" 
			},
			{
				"x": -5.8449189043,
				"y": 4.8020907744,
				"z": -0.7291234404,
				"element": "H" 
			},
			{
				"x": -7.7799197451,
				"y": 3.6879359305,
				"z": -1.8275092127,
				"element": "H" 
			},
			{
				"x": -7.502905162,
				"y": 1.41788851,
				"z": -2.8037251046,
				"element": "H" 
			},
			{
				"x": -5.3279660271,
				"y": 0.2715445044,
				"z": -2.6905763217,
				"element": "H" 
			},
			{
				"x": 0.9445132296,
				"y": -2.5464465445,
				"z": -3.2322060556,
				"element": "H" 
			}
		],
		 "valence_orbital": [ 
			{
				"type": "occ",
				"energy": -0.2733,
				"method": "rhf"
			},
			{
				"type": "occ",
				"energy": -0.26556,
				"method": "rhf"
			},
			{
				"type": "occ",
				"energy": -0.25666,
				"method": "rhf"
			},
			{
				"type": "occ",
				"energy": -0.23761,
				"method": "rhf"
			},
			{
				"type": "occ",
				"energy": -0.23003,
				"method": "rhf"
			},
			{
				"type": "unocc",
				"energy": -0.10887,
				"method": "rhf"
			},
			{
				"type": "unocc",
				"energy": -0.08827,
				"method": "rhf"
			},
			{
				"type": "unocc",
				"energy": -0.06457,
				"method": "rhf"
			},
			{
				"type": "unocc",
				"energy": -0.06075,
				"method": "rhf"
			},
			{
				"type": "unocc",
				"energy": -0.0375,
				"method": "rhf"
			}
		],
		"cosmo_sigma_profile": { 
			"-0.025": 0.0,
			"-0.024": 0.0,
			"-0.023": 0.0,
			"-0.022": 0.0,
			"-0.021": 0.0,
			"-0.02": 0.0,
			"-0.019": 0.0,
			"-0.018": 0.0,
			"-0.017": 0.0,
			"-0.016": 0.0,
			"-0.015": 0.0,
			"-0.014": 0.0,
			"-0.013": 0.0,
			"-0.012": 0.0,
			"-0.011": 0.0,
			"-0.01": 0.0288717656041,
			"-0.009": 1.86025934194,
			"-0.008": 5.72389191771,
			"-0.007": 14.2771887691,
			"-0.006": 37.3740611573,
			"-0.005": 45.3178696289,
			"-0.004": 44.4149033051,
			"-0.003": 38.6982413622,
			"-0.002": 37.0527561017,
			"-0.001": 31.5731064448,
			"0.0": 28.6696403314,
			"0.001": 25.935792689,
			"0.002": 30.0929169869,
			"0.003": 31.1765870986,
			"0.004": 31.2719521094,
			"0.005": 27.011183146,
			"0.006": 16.9880172019,
			"0.007": 16.9068518537,
			"0.008": 11.8199555729,
			"0.009": 8.62166841142,
			"0.01": 5.00803040689,
			"0.011": 5.97258356328,
			"0.012": 4.32619533495,
			"0.013": 0.757833112296,
			"0.014": 0.0,
			"0.015": 0.0,
			"0.016": 0.0,
			"0.017": 0.0,
			"0.018": 0.0,
			"0.019": 0.0,
			"0.02": 0.0,
			"0.021": 0.0,
			"0.022": 0.0,
			"0.023": 0.0,
			"0.024": 0.0,
			"0.025": 0.0
		}
	}
}
