{
	 "smiles": "NC1=C(SC2=NC=NN2)C=CC(F)=C1", 
	 "Tm": 454.15, 
	 "num_atms": 21, 
	 "gaussian": { 
		 "optdone": 1, 
		 "sigma_profile": "yes", 
		 "theory": "DFT", 
		 "functional": "B3LYP", 
		 "basiset": "6-31G**", 
		 "properties": { 
			 "R2extent": 4151.9317, 
			 "electric_dipole_moment_norm": 1.14714662533, 
			 "electric_quadrupole_moment_norm": 14.8004933999, 
			 "total_energy": -1026.0816316, 
			 "HOMO_LUMO_gap": 0.18993, 
			 "cosmo_polarized_energy": -13.02, 
			 "cosmo_cavitation_energy": 27.7, 
			 "cosmo_dispersion_energy": -20.78, 
			 "cosmo_repulsion_energy": 1.56, 
			 "cosmo_total_nonelectrostatic_energy": 8.48, 
			 "SMD_solvation_energy": 3.11 
		},
		"coords": [
			{
				"x": 2.7222606073,
				"y": 1.4903221914,
				"z": 0.8078647677,
				"element": "N" 
			},
			{
				"x": 1.7589631272,
				"y": 2.1784622495,
				"z": 0.1042833005,
				"element": "C" 
			},
			{
				"x": 1.019561571,
				"y": 1.5765759654,
				"z": -0.9504826433,
				"element": "C" 
			},
			{
				"x": 1.3992329513,
				"y": -0.0730269136,
				"z": -1.5526886344,
				"element": "S" 
			},
			{
				"x": 0.8606427952,
				"y": -1.1305739191,
				"z": -0.2392853063,
				"element": "C" 
			},
			{
				"x": 1.3687339198,
				"y": -1.2215691162,
				"z": 0.9852570281,
				"element": "N" 
			},
			{
				"x": 0.6351336667,
				"y": -2.2183547987,
				"z": 1.5538254134,
				"element": "C" 
			},
			{
				"x": -0.2782296235,
				"y": -2.7658957678,
				"z": 0.7645084173,
				"element": "N" 
			},
			{
				"x": -0.1230518582,
				"y": -2.0509190667,
				"z": -0.3751576023,
				"element": "N" 
			},
			{
				"x": 0.0665789578,
				"y": 2.3176606148,
				"z": -1.6592423488,
				"element": "C" 
			},
			{
				"x": -0.1765440623,
				"y": 3.6586111939,
				"z": -1.3759742579,
				"element": "C" 
			},
			{
				"x": 0.5634562843,
				"y": 4.2359029823,
				"z": -0.3481818728,
				"element": "C" 
			},
			{
				"x": 0.3506360855,
				"y": 5.5319944792,
				"z": -0.0427984822,
				"element": "F" 
			},
			{
				"x": 1.5019603,
				"y": 3.5348769906,
				"z": 0.3895234391,
				"element": "C" 
			},
			{
				"x": 2.5600007703,
				"y": 0.4968238741,
				"z": 0.9560638173,
				"element": "H" 
			},
			{
				"x": 3.0688969162,
				"y": 1.9618859961,
				"z": 1.6308822685,
				"element": "H" 
			},
			{
				"x": 0.7825661731,
				"y": -2.5554294667,
				"z": 2.5703009469,
				"element": "H" 
			},
			{
				"x": -0.7050788547,
				"y": -2.229944237,
				"z": -1.1806325233,
				"element": "H" 
			},
			{
				"x": -0.4829968715,
				"y": 1.8296949472,
				"z": -2.4577660192,
				"element": "H" 
			},
			{
				"x": -0.9063984712,
				"y": 4.2426326166,
				"z": -1.9233393518,
				"element": "H" 
			},
			{
				"x": 2.0338756157,
				"y": 4.0413691847,
				"z": 1.1885396434,
				"element": "H" 
			}
		],
		 "valence_orbital": [ 
			{
				"type": "occ",
				"energy": -0.30057,
				"method": "rhf"
			},
			{
				"type": "occ",
				"energy": -0.28819,
				"method": "rhf"
			},
			{
				"type": "occ",
				"energy": -0.26129,
				"method": "rhf"
			},
			{
				"type": "occ",
				"energy": -0.24358,
				"method": "rhf"
			},
			{
				"type": "occ",
				"energy": -0.2116,
				"method": "rhf"
			},
			{
				"type": "unocc",
				"energy": -0.02167,
				"method": "rhf"
			},
			{
				"type": "unocc",
				"energy": -0.01551,
				"method": "rhf"
			},
			{
				"type": "unocc",
				"energy": 0.0006,
				"method": "rhf"
			},
			{
				"type": "unocc",
				"energy": 0.02614,
				"method": "rhf"
			},
			{
				"type": "unocc",
				"energy": 0.05782,
				"method": "rhf"
			}
		],
		"cosmo_sigma_profile": { 
			"-0.025": 0.0,
			"-0.024": 0.0,
			"-0.023": 0.0,
			"-0.022": 0.0,
			"-0.021": 0.0,
			"-0.02": 0.0,
			"-0.019": 0.0,
			"-0.018": 0.853843312329,
			"-0.017": 1.61451523609,
			"-0.016": 0.927391848902,
			"-0.015": 0.686830223488,
			"-0.014": 1.25635682862,
			"-0.013": 2.22258071159,
			"-0.012": 2.50885929235,
			"-0.011": 2.50924050169,
			"-0.01": 2.58743660041,
			"-0.009": 4.1283265391,
			"-0.008": 4.21171026632,
			"-0.007": 7.28323774213,
			"-0.006": 8.14374079676,
			"-0.005": 7.65003781514,
			"-0.004": 9.0795345063,
			"-0.003": 8.00833911079,
			"-0.002": 10.640671196,
			"-0.001": 12.4740795659,
			"0.0": 14.6381116103,
			"0.001": 19.5123444531,
			"0.002": 20.86701432,
			"0.003": 23.4420469538,
			"0.004": 23.7820381897,
			"0.005": 11.1653956498,
			"0.006": 5.2942096704,
			"0.007": 4.26218935839,
			"0.008": 4.44090107992,
			"0.009": 2.82267470543,
			"0.01": 1.96894678823,
			"0.011": 1.41029807391,
			"0.012": 2.31970758783,
			"0.013": 1.35661833989,
			"0.014": 0.784865765834,
			"0.015": 0.0549540467361,
			"0.016": 0.0,
			"0.017": 0.0,
			"0.018": 0.0,
			"0.019": 0.0,
			"0.02": 0.0,
			"0.021": 0.0,
			"0.022": 0.0,
			"0.023": 0.0,
			"0.024": 0.0,
			"0.025": 0.0
		}
	}
}
