{
	 "smiles": "[O-][N+](=O)C=CC1=C2C=CC=CC2=CC=C1", 
	 "Tm": 361.15, 
	 "num_atms": 24, 
	 "gaussian": { 
		 "optdone": 1, 
		 "sigma_profile": "yes", 
		 "theory": "DFT", 
		 "functional": "B3LYP", 
		 "basiset": "6-31G**", 
		 "properties": { 
			 "R2extent": 4247.3772, 
			 "electric_dipole_moment_norm": 5.9213972954, 
			 "electric_quadrupole_moment_norm": 22.4241122181, 
			 "total_energy": -667.792565351, 
			 "HOMO_LUMO_gap": 0.13253, 
			 "cosmo_polarized_energy": -11.15, 
			 "cosmo_cavitation_energy": 29.11, 
			 "cosmo_dispersion_energy": -21.21, 
			 "cosmo_repulsion_energy": 1.63, 
			 "cosmo_total_nonelectrostatic_energy": 9.53, 
			 "SMD_solvation_energy": 7.38 
		},
		"coords": [
			{
				"x": -3.5364689554,
				"y": 0.7163071365,
				"z": 3.42974401,
				"element": "O" 
			},
			{
				"x": -2.9044748793,
				"y": 1.7609574418,
				"z": 3.2534380376,
				"element": "N" 
			},
			{
				"x": -3.1216907572,
				"y": 2.825532255,
				"z": 3.8391982025,
				"element": "O" 
			},
			{
				"x": -1.8127996052,
				"y": 1.7793203268,
				"z": 2.2971615594,
				"element": "C" 
			},
			{
				"x": -1.4939846101,
				"y": 0.674804494,
				"z": 1.6066948022,
				"element": "C" 
			},
			{
				"x": -0.4504141414,
				"y": 0.5791134131,
				"z": 0.5875508277,
				"element": "C" 
			},
			{
				"x": 0.1671444687,
				"y": -0.6896605697,
				"z": 0.2939027437,
				"element": "C" 
			},
			{
				"x": -0.1397954939,
				"y": -1.8884756964,
				"z": 0.9934675737,
				"element": "C" 
			},
			{
				"x": 0.4753750234,
				"y": -3.0788892582,
				"z": 0.6718102687,
				"element": "C" 
			},
			{
				"x": 1.4413274439,
				"y": -3.1364347006,
				"z": -0.3595624866,
				"element": "C" 
			},
			{
				"x": 1.7759005738,
				"y": -1.9931617178,
				"z": -1.0468709997,
				"element": "C" 
			},
			{
				"x": 1.1589319269,
				"y": -0.7495960486,
				"z": -0.7419965663,
				"element": "C" 
			},
			{
				"x": 1.5133538917,
				"y": 0.4333287615,
				"z": -1.4416702958,
				"element": "C" 
			},
			{
				"x": 0.9148774418,
				"y": 1.6368479777,
				"z": -1.1417133679,
				"element": "C" 
			},
			{
				"x": -0.066098715,
				"y": 1.7042073963,
				"z": -0.1341376295,
				"element": "C" 
			},
			{
				"x": -1.3310749422,
				"y": 2.7455776554,
				"z": 2.2516031377,
				"element": "H" 
			},
			{
				"x": -2.0805182746,
				"y": -0.2084566686,
				"z": 1.8406482609,
				"element": "H" 
			},
			{
				"x": -0.8596919036,
				"y": -1.8731717294,
				"z": 1.8040291108,
				"element": "H" 
			},
			{
				"x": 0.2198515658,
				"y": -3.980957823,
				"z": 1.219804137,
				"element": "H" 
			},
			{
				"x": 1.9188307027,
				"y": -4.0812704197,
				"z": -0.6009157359,
				"element": "H" 
			},
			{
				"x": 2.5230794835,
				"y": -2.0217257429,
				"z": -1.8355171071,
				"element": "H" 
			},
			{
				"x": 2.264347861,
				"y": 0.3712545314,
				"z": -2.2247294137,
				"element": "H" 
			},
			{
				"x": 1.1833112258,
				"y": 2.5356715829,
				"z": -1.6880507212,
				"element": "H" 
			},
			{
				"x": -0.5589193309,
				"y": 2.6521774024,
				"z": 0.0575116521,
				"element": "H" 
			}
		],
		 "valence_orbital": [ 
			{
				"type": "occ",
				"energy": -0.29903,
				"method": "rhf"
			},
			{
				"type": "occ",
				"energy": -0.28398,
				"method": "rhf"
			},
			{
				"type": "occ",
				"energy": -0.28177,
				"method": "rhf"
			},
			{
				"type": "occ",
				"energy": -0.26228,
				"method": "rhf"
			},
			{
				"type": "occ",
				"energy": -0.22988,
				"method": "rhf"
			},
			{
				"type": "unocc",
				"energy": -0.09735,
				"method": "rhf"
			},
			{
				"type": "unocc",
				"energy": -0.04973,
				"method": "rhf"
			},
			{
				"type": "unocc",
				"energy": -0.02717,
				"method": "rhf"
			},
			{
				"type": "unocc",
				"energy": 0.00061,
				"method": "rhf"
			},
			{
				"type": "unocc",
				"energy": 0.04591,
				"method": "rhf"
			}
		],
		"cosmo_sigma_profile": { 
			"-0.025": 0.0,
			"-0.024": 0.0,
			"-0.023": 0.0,
			"-0.022": 0.0,
			"-0.021": 0.0,
			"-0.02": 0.0,
			"-0.019": 0.0,
			"-0.018": 0.0,
			"-0.017": 0.0,
			"-0.016": 0.0,
			"-0.015": 0.0,
			"-0.014": 0.0,
			"-0.013": 0.0,
			"-0.012": 0.0,
			"-0.011": 0.0,
			"-0.01": 0.298721705298,
			"-0.009": 2.96967315655,
			"-0.008": 4.59696544212,
			"-0.007": 8.16040262056,
			"-0.006": 16.5260952278,
			"-0.005": 16.9942071819,
			"-0.004": 17.7539044056,
			"-0.003": 15.1173645045,
			"-0.002": 14.6554616525,
			"-0.001": 14.699668951,
			"0.0": 15.2506672557,
			"0.001": 15.0152560935,
			"0.002": 19.8571445592,
			"0.003": 21.8812280903,
			"0.004": 14.6526298377,
			"0.005": 4.98300208556,
			"0.006": 3.31065151554,
			"0.007": 3.16014854099,
			"0.008": 10.5834876587,
			"0.009": 7.37305298402,
			"0.01": 4.77843999656,
			"0.011": 1.79289859666,
			"0.012": 0.0159785578289,
			"0.013": 0.0,
			"0.014": 0.0,
			"0.015": 0.0,
			"0.016": 0.0,
			"0.017": 0.0,
			"0.018": 0.0,
			"0.019": 0.0,
			"0.02": 0.0,
			"0.021": 0.0,
			"0.022": 0.0,
			"0.023": 0.0,
			"0.024": 0.0,
			"0.025": 0.0
		}
	}
}
