{
	 "smiles": "CCNC(=O)C1=CC=C(I)C=C1", 
	 "Tm": 422.15, 
	 "num_atms": 22, 
	 "gaussian": { 
		 "optdone": 1, 
		 "sigma_profile": "yes", 
		 "theory": "DFT", 
		 "functional": "B3LYP", 
		 "basiset": "6-31G**", 
		 "properties": { 
			 "R2extent": 2967.2002, 
			 "electric_dipole_moment_norm": 3.36942422381, 
			 "electric_quadrupole_moment_norm": 8.05155996686, 
			 "total_energy": -490.369095565, 
			 "HOMO_LUMO_gap": 0.19782, 
			 "cosmo_polarized_energy": -12.01, 
			 "cosmo_cavitation_energy": 29.24, 
			 "cosmo_dispersion_energy": -22.74, 
			 "cosmo_repulsion_energy": 1.8, 
			 "cosmo_total_nonelectrostatic_energy": 8.3, 
			 "SMD_solvation_energy": 4.39 
		},
		"coords": [
			{
				"x": -4.1250874329,
				"y": 0.8951094234,
				"z": -1.4657752012,
				"element": "C" 
			},
			{
				"x": -3.0035886021,
				"y": -0.0689118528,
				"z": -1.8567523704,
				"element": "C" 
			},
			{
				"x": -1.7606214646,
				"y": 0.2089614986,
				"z": -1.1475086391,
				"element": "N" 
			},
			{
				"x": -1.0982339845,
				"y": -0.7430587311,
				"z": -0.4206379262,
				"element": "C" 
			},
			{
				"x": -1.5016076347,
				"y": -1.897829392,
				"z": -0.3084178567,
				"element": "O" 
			},
			{
				"x": 0.1777035924,
				"y": -0.2974523806,
				"z": 0.2440345048,
				"element": "C" 
			},
			{
				"x": 1.1005212841,
				"y": -1.2922505084,
				"z": 0.5901002182,
				"element": "C" 
			},
			{
				"x": 2.3055876743,
				"y": -0.9674292081,
				"z": 1.2082480287,
				"element": "C" 
			},
			{
				"x": 2.5833825884,
				"y": 0.3709355105,
				"z": 1.4987117624,
				"element": "C" 
			},
			{
				"x": 4.4126611536,
				"y": 0.8803561819,
				"z": 2.4411841238,
				"element": "I" 
			},
			{
				"x": 1.6685233603,
				"y": 1.3775303937,
				"z": 1.1852662556,
				"element": "C" 
			},
			{
				"x": 0.4694316567,
				"y": 1.0361406832,
				"z": 0.5585095609,
				"element": "C" 
			},
			{
				"x": -4.3457615357,
				"y": 0.8219861164,
				"z": -0.3968596187,
				"element": "H" 
			},
			{
				"x": -3.8576567952,
				"y": 1.9347470326,
				"z": -1.6876784387,
				"element": "H" 
			},
			{
				"x": -5.0379160665,
				"y": 0.6620797597,
				"z": -2.0235364684,
				"element": "H" 
			},
			{
				"x": -2.8275463318,
				"y": -0.0261756198,
				"z": -2.9400489232,
				"element": "H" 
			},
			{
				"x": -3.2661693796,
				"y": -1.0991114609,
				"z": -1.6090703866,
				"element": "H" 
			},
			{
				"x": -1.2950266814,
				"y": 1.0842932084,
				"z": -1.3327427455,
				"element": "H" 
			},
			{
				"x": 0.851426472,
				"y": -2.3243091018,
				"z": 0.3675179101,
				"element": "H" 
			},
			{
				"x": 3.0158569458,
				"y": -1.7461060968,
				"z": 1.4623319805,
				"element": "H" 
			},
			{
				"x": 1.8786695797,
				"y": 2.4120061359,
				"z": 1.4321378243,
				"element": "H" 
			},
			{
				"x": -0.2498483984,
				"y": 1.8240884081,
				"z": 0.3533864054,
				"element": "H" 
			}
		],
		 "valence_orbital": [ 
			{
				"type": "occ",
				"energy": -0.2729,
				"method": "rhf"
			},
			{
				"type": "occ",
				"energy": -0.27183,
				"method": "rhf"
			},
			{
				"type": "occ",
				"energy": -0.25987,
				"method": "rhf"
			},
			{
				"type": "occ",
				"energy": -0.25179,
				"method": "rhf"
			},
			{
				"type": "occ",
				"energy": -0.24379,
				"method": "rhf"
			},
			{
				"type": "unocc",
				"energy": -0.04597,
				"method": "rhf"
			},
			{
				"type": "unocc",
				"energy": -0.04278,
				"method": "rhf"
			},
			{
				"type": "unocc",
				"energy": -0.02211,
				"method": "rhf"
			},
			{
				"type": "unocc",
				"energy": 0.04046,
				"method": "rhf"
			},
			{
				"type": "unocc",
				"energy": 0.0424,
				"method": "rhf"
			}
		],
		"cosmo_sigma_profile": { 
			"-0.025": 0.0,
			"-0.024": 0.0,
			"-0.023": 0.0,
			"-0.022": 0.0,
			"-0.021": 0.0,
			"-0.02": 0.0,
			"-0.019": 0.0,
			"-0.018": 0.0,
			"-0.017": 0.0,
			"-0.016": 0.0,
			"-0.015": 0.00281727817691,
			"-0.014": 0.759997403387,
			"-0.013": 1.3864123211,
			"-0.012": 1.03626496387,
			"-0.011": 1.74046576449,
			"-0.01": 1.69768367696,
			"-0.009": 1.10303726069,
			"-0.008": 2.72409066342,
			"-0.007": 6.08459350945,
			"-0.006": 9.24786500122,
			"-0.005": 10.7853927182,
			"-0.004": 14.4938246616,
			"-0.003": 17.4845471298,
			"-0.002": 20.0046009904,
			"-0.001": 21.1490603846,
			"0.0": 21.7792409404,
			"0.001": 21.2859509816,
			"0.002": 21.1403892423,
			"0.003": 24.3805180283,
			"0.004": 15.6271930172,
			"0.005": 4.60409135557,
			"0.006": 1.81680823426,
			"0.007": 1.54832276334,
			"0.008": 1.54982000801,
			"0.009": 1.91036040058,
			"0.01": 1.26925181011,
			"0.011": 1.63070844252,
			"0.012": 1.84089013247,
			"0.013": 3.43715383582,
			"0.014": 4.1119755994,
			"0.015": 0.158485317744,
			"0.016": 0.0,
			"0.017": 0.0,
			"0.018": 0.0,
			"0.019": 0.0,
			"0.02": 0.0,
			"0.021": 0.0,
			"0.022": 0.0,
			"0.023": 0.0,
			"0.024": 0.0,
			"0.025": 0.0
		}
	}
}
