{
	 "smiles": "CC1=C(C)C(=CC=C1)N1CCN(CCN)CC1", 
	 "Tm": 334.15, 
	 "num_atms": 40, 
	 "gaussian": { 
		 "optdone": 1, 
		 "sigma_profile": "yes", 
		 "theory": "DFT", 
		 "functional": "B3LYP", 
		 "basiset": "6-31G**", 
		 "properties": { 
			 "R2extent": 6036.852, 
			 "electric_dipole_moment_norm": 2.50410322072, 
			 "electric_quadrupole_moment_norm": 12.5461336375, 
			 "total_energy": -711.597148443, 
			 "HOMO_LUMO_gap": 0.20595, 
			 "cosmo_polarized_energy": -9.05, 
			 "cosmo_cavitation_energy": 38.79, 
			 "cosmo_dispersion_energy": -27.84, 
			 "cosmo_repulsion_energy": 2.17, 
			 "cosmo_total_nonelectrostatic_energy": 13.12, 
			 "SMD_solvation_energy": 2.73 
		},
		"coords": [
			{
				"x": 4.3405981358,
				"y": 2.8239487089,
				"z": -0.4648508869,
				"element": "C" 
			},
			{
				"x": 2.8328955346,
				"y": 2.7545968602,
				"z": -0.3679567472,
				"element": "C" 
			},
			{
				"x": 2.183031271,
				"y": 1.5289183846,
				"z": -0.1167418489,
				"element": "C" 
			},
			{
				"x": 2.9901342261,
				"y": 0.2734579789,
				"z": 0.1165903515,
				"element": "C" 
			},
			{
				"x": 0.7684698904,
				"y": 1.4955404317,
				"z": -0.0484960258,
				"element": "C" 
			},
			{
				"x": 0.0392802363,
				"y": 2.6871646748,
				"z": -0.1830668916,
				"element": "C" 
			},
			{
				"x": 0.6924661458,
				"y": 3.8966374526,
				"z": -0.4036320318,
				"element": "C" 
			},
			{
				"x": 2.0801179727,
				"y": 3.9266408531,
				"z": -0.5094796101,
				"element": "C" 
			},
			{
				"x": 0.1136326691,
				"y": 0.2475883021,
				"z": 0.1811494964,
				"element": "N" 
			},
			{
				"x": -1.188826532,
				"y": 0.2878185461,
				"z": 0.8459422852,
				"element": "C" 
			},
			{
				"x": -1.5962406652,
				"y": -1.1185927997,
				"z": 1.2803394271,
				"element": "C" 
			},
			{
				"x": -1.6668800876,
				"y": -2.0094350841,
				"z": 0.1168709452,
				"element": "N" 
			},
			{
				"x": -2.1700127622,
				"y": -3.3452229637,
				"z": 0.4279166794,
				"element": "C" 
			},
			{
				"x": -3.6882087335,
				"y": -3.4315764103,
				"z": 0.6321996838,
				"element": "C" 
			},
			{
				"x": -4.1253382359,
				"y": -2.888185749,
				"z": 1.9248684699,
				"element": "N" 
			},
			{
				"x": -0.3668259358,
				"y": -2.0533103112,
				"z": -0.5514670107,
				"element": "C" 
			},
			{
				"x": 0.0646046695,
				"y": -0.6512634058,
				"z": -0.9794834675,
				"element": "C" 
			},
			{
				"x": 4.8237034196,
				"y": 2.5644074214,
				"z": 0.4855698653,
				"element": "H" 
			},
			{
				"x": 4.7344832033,
				"y": 2.1308736445,
				"z": -1.2173182141,
				"element": "H" 
			},
			{
				"x": 4.667799311,
				"y": 3.8316125163,
				"z": -0.7348574901,
				"element": "H" 
			},
			{
				"x": 3.3397364673,
				"y": -0.1802211481,
				"z": -0.8211121782,
				"element": "H" 
			},
			{
				"x": 2.3875088451,
				"y": -0.4687105268,
				"z": 0.6439561657,
				"element": "H" 
			},
			{
				"x": 3.8832816293,
				"y": 0.4817306894,
				"z": 0.713749494,
				"element": "H" 
			},
			{
				"x": -1.0435125493,
				"y": 2.6660806262,
				"z": -0.1277506516,
				"element": "H" 
			},
			{
				"x": 0.1163256093,
				"y": 4.8120393123,
				"z": -0.5081044145,
				"element": "H" 
			},
			{
				"x": 2.5911574523,
				"y": 4.8678672257,
				"z": -0.6951961905,
				"element": "H" 
			},
			{
				"x": -1.982528373,
				"y": 0.6880803529,
				"z": 0.1894957202,
				"element": "H" 
			},
			{
				"x": -1.1156791198,
				"y": 0.93808961,
				"z": 1.7231269651,
				"element": "H" 
			},
			{
				"x": -2.5762855781,
				"y": -1.0962748742,
				"z": 1.7604296133,
				"element": "H" 
			},
			{
				"x": -0.8611818789,
				"y": -1.4905435142,
				"z": 2.0224489416,
				"element": "H" 
			},
			{
				"x": -1.6553185059,
				"y": -3.790996725,
				"z": 1.3051757659,
				"element": "H" 
			},
			{
				"x": -1.9266552528,
				"y": -3.9894411982,
				"z": -0.4253271505,
				"element": "H" 
			},
			{
				"x": -4.1681713278,
				"y": -2.84930799,
				"z": -0.1618693812,
				"element": "H" 
			},
			{
				"x": -3.9813640099,
				"y": -4.4867774678,
				"z": 0.4832702514,
				"element": "H" 
			},
			{
				"x": -3.7807684525,
				"y": -3.4789202516,
				"z": 2.6789823686,
				"element": "H" 
			},
			{
				"x": -5.1402083834,
				"y": -2.9109724955,
				"z": 1.9848459643,
				"element": "H" 
			},
			{
				"x": -0.4460995602,
				"y": -2.6878719947,
				"z": -1.4423230234,
				"element": "H" 
			},
			{
				"x": 0.4189261153,
				"y": -2.4868589881,
				"z": 0.0993311466,
				"element": "H" 
			},
			{
				"x": 1.0526691544,
				"y": -0.6995355049,
				"z": -1.4435820745,
				"element": "H" 
			},
			{
				"x": -0.6431160142,
				"y": -0.2735741886,
				"z": -1.7393443112,
				"element": "H" 
			}
		],
		 "valence_orbital": [ 
			{
				"type": "occ",
				"energy": -0.24686,
				"method": "rhf"
			},
			{
				"type": "occ",
				"energy": -0.23635,
				"method": "rhf"
			},
			{
				"type": "occ",
				"energy": -0.22319,
				"method": "rhf"
			},
			{
				"type": "occ",
				"energy": -0.20513,
				"method": "rhf"
			},
			{
				"type": "occ",
				"energy": -0.19337,
				"method": "rhf"
			},
			{
				"type": "unocc",
				"energy": 0.01258,
				"method": "rhf"
			},
			{
				"type": "unocc",
				"energy": 0.0194,
				"method": "rhf"
			},
			{
				"type": "unocc",
				"energy": 0.07794,
				"method": "rhf"
			},
			{
				"type": "unocc",
				"energy": 0.09295,
				"method": "rhf"
			},
			{
				"type": "unocc",
				"energy": 0.10746,
				"method": "rhf"
			}
		],
		"cosmo_sigma_profile": { 
			"-0.025": 0.0,
			"-0.024": 0.0,
			"-0.023": 0.0,
			"-0.022": 0.0,
			"-0.021": 0.0,
			"-0.02": 0.0,
			"-0.019": 0.0,
			"-0.018": 0.0,
			"-0.017": 0.0,
			"-0.016": 0.0,
			"-0.015": 0.0,
			"-0.014": 0.0,
			"-0.013": 0.0,
			"-0.012": 0.0,
			"-0.011": 0.0,
			"-0.01": 0.818578977021,
			"-0.009": 2.82102393775,
			"-0.008": 2.23118863124,
			"-0.007": 2.58605527605,
			"-0.006": 3.7617142236,
			"-0.005": 6.12133439222,
			"-0.004": 22.7586946651,
			"-0.003": 32.2223921011,
			"-0.002": 40.1279570137,
			"-0.001": 46.7298017463,
			"0.0": 41.4956287437,
			"0.001": 22.4945377648,
			"0.002": 12.460200577,
			"0.003": 10.9868927809,
			"0.004": 9.23525498552,
			"0.005": 10.8870256934,
			"0.006": 9.1869231922,
			"0.007": 9.44687688946,
			"0.008": 4.71522996752,
			"0.009": 2.36755018529,
			"0.01": 2.25007864081,
			"0.011": 1.10984887517,
			"0.012": 1.35719560735,
			"0.013": 1.05206588986,
			"0.014": 0.958008139394,
			"0.015": 0.478955188568,
			"0.016": 0.0,
			"0.017": 0.0,
			"0.018": 0.0,
			"0.019": 0.0,
			"0.02": 0.0,
			"0.021": 0.0,
			"0.022": 0.0,
			"0.023": 0.0,
			"0.024": 0.0,
			"0.025": 0.0
		}
	}
}
