{
	 "smiles": "COC1=CC=C(C=C1)N=NC1=CC=CC=C1", 
	 "Tm": 327.65, 
	 "num_atms": 28, 
	 "gaussian": { 
		 "optdone": 1, 
		 "sigma_profile": "yes", 
		 "theory": "DFT", 
		 "functional": "B3LYP", 
		 "basiset": "6-31G**", 
		 "properties": { 
			 "R2extent": 6104.5092, 
			 "electric_dipole_moment_norm": 1.88294601888, 
			 "electric_quadrupole_moment_norm": 16.7431869422, 
			 "total_energy": -687.289952635, 
			 "HOMO_LUMO_gap": 0.1365, 
			 "cosmo_polarized_energy": -8.66, 
			 "cosmo_cavitation_energy": 32.96, 
			 "cosmo_dispersion_energy": -24.26, 
			 "cosmo_repulsion_energy": 1.88, 
			 "cosmo_total_nonelectrostatic_energy": 10.58, 
			 "SMD_solvation_energy": 5.17 
		},
		"coords": [
			{
				"x": -3.8591522173,
				"y": -3.3873441678,
				"z": -3.1536542242,
				"element": "C" 
			},
			{
				"x": -4.0715476447,
				"y": -2.0711646429,
				"z": -2.6632122967,
				"element": "O" 
			},
			{
				"x": -3.0362697995,
				"y": -1.4239162374,
				"z": -2.0637819551,
				"element": "C" 
			},
			{
				"x": -3.3142065553,
				"y": -0.126920599,
				"z": -1.6026523804,
				"element": "C" 
			},
			{
				"x": -2.3208988593,
				"y": 0.6106590376,
				"z": -0.9784691093,
				"element": "C" 
			},
			{
				"x": -1.0331675628,
				"y": 0.0770221285,
				"z": -0.7991670637,
				"element": "C" 
			},
			{
				"x": -0.7622744062,
				"y": -1.2202902001,
				"z": -1.2624974285,
				"element": "C" 
			},
			{
				"x": -1.7513226762,
				"y": -1.9684933888,
				"z": -1.8899015873,
				"element": "C" 
			},
			{
				"x": -0.1026260396,
				"y": 0.9173200469,
				"z": -0.1514955247,
				"element": "N" 
			},
			{
				"x": 1.0491607246,
				"y": 0.4237432292,
				"z": 0.0025872951,
				"element": "N" 
			},
			{
				"x": 1.9771979856,
				"y": 1.2751821485,
				"z": 0.6539478782,
				"element": "C" 
			},
			{
				"x": 3.2611949787,
				"y": 0.7421757185,
				"z": 0.8325009232,
				"element": "C" 
			},
			{
				"x": 4.2533552069,
				"y": 1.4928843168,
				"z": 1.4611888782,
				"element": "C" 
			},
			{
				"x": 3.9672840037,
				"y": 2.7816273662,
				"z": 1.9153086874,
				"element": "C" 
			},
			{
				"x": 2.6846979861,
				"y": 3.3168303475,
				"z": 1.7381464208,
				"element": "C" 
			},
			{
				"x": 1.6909209548,
				"y": 2.5734293852,
				"z": 1.1119915524,
				"element": "C" 
			},
			{
				"x": -3.5815610333,
				"y": -4.0786966077,
				"z": -2.3481738464,
				"element": "H" 
			},
			{
				"x": -3.084000819,
				"y": -3.4089441647,
				"z": -3.9298648273,
				"element": "H" 
			},
			{
				"x": -4.8095427733,
				"y": -3.7029178162,
				"z": -3.5862380121,
				"element": "H" 
			},
			{
				"x": -4.3124786985,
				"y": 0.2719325117,
				"z": -1.7479334579,
				"element": "H" 
			},
			{
				"x": -2.5148314253,
				"y": 1.6148356072,
				"z": -0.6149477393,
				"element": "H" 
			},
			{
				"x": 0.2333606137,
				"y": -1.6251400993,
				"z": -1.1205588239,
				"element": "H" 
			},
			{
				"x": -1.5209907811,
				"y": -2.9678334431,
				"z": -2.2400555576,
				"element": "H" 
			},
			{
				"x": 3.4535220596,
				"y": -0.2623672093,
				"z": 0.4688639618,
				"element": "H" 
			},
			{
				"x": 5.2463331596,
				"y": 1.0741716365,
				"z": 1.5965077117,
				"element": "H" 
			},
			{
				"x": 4.737686228,
				"y": 3.3698593035,
				"z": 2.4056878488,
				"element": "H" 
			},
			{
				"x": 2.4645167639,
				"y": 4.3201399091,
				"z": 2.0924387487,
				"element": "H" 
			},
			{
				"x": 0.6926406257,
				"y": 2.9694158836,
				"z": 0.9653339281,
				"element": "H" 
			}
		],
		 "valence_orbital": [ 
			{
				"type": "occ",
				"energy": -0.25942,
				"method": "rhf"
			},
			{
				"type": "occ",
				"energy": -0.25426,
				"method": "rhf"
			},
			{
				"type": "occ",
				"energy": -0.25043,
				"method": "rhf"
			},
			{
				"type": "occ",
				"energy": -0.2189,
				"method": "rhf"
			},
			{
				"type": "occ",
				"energy": -0.20953,
				"method": "rhf"
			},
			{
				"type": "unocc",
				"energy": -0.07303,
				"method": "rhf"
			},
			{
				"type": "unocc",
				"energy": -0.00462,
				"method": "rhf"
			},
			{
				"type": "unocc",
				"energy": 0.00072,
				"method": "rhf"
			},
			{
				"type": "unocc",
				"energy": 0.01779,
				"method": "rhf"
			},
			{
				"type": "unocc",
				"energy": 0.05438,
				"method": "rhf"
			}
		],
		"cosmo_sigma_profile": { 
			"-0.025": 0.0,
			"-0.024": 0.0,
			"-0.023": 0.0,
			"-0.022": 0.0,
			"-0.021": 0.0,
			"-0.02": 0.0,
			"-0.019": 0.0,
			"-0.018": 0.0,
			"-0.017": 0.0,
			"-0.016": 0.0,
			"-0.015": 0.0,
			"-0.014": 0.0,
			"-0.013": 0.0,
			"-0.012": 0.0,
			"-0.011": 0.0,
			"-0.01": 0.0,
			"-0.009": 0.0,
			"-0.008": 0.0,
			"-0.007": 3.19287546851,
			"-0.006": 18.8628235922,
			"-0.005": 23.2286187405,
			"-0.004": 26.3968541551,
			"-0.003": 20.5115107672,
			"-0.002": 13.9905340316,
			"-0.001": 11.2757058081,
			"0.0": 13.3812668792,
			"0.001": 15.5233995387,
			"0.002": 29.1570898259,
			"0.003": 34.0623945911,
			"0.004": 27.1071004527,
			"0.005": 12.1496468642,
			"0.006": 4.72286531227,
			"0.007": 3.48582695959,
			"0.008": 4.36008268267,
			"0.009": 2.349356885,
			"0.01": 0.657474239482,
			"0.011": 0.0,
			"0.012": 0.0,
			"0.013": 0.0,
			"0.014": 0.0,
			"0.015": 0.0,
			"0.016": 0.0,
			"0.017": 0.0,
			"0.018": 0.0,
			"0.019": 0.0,
			"0.02": 0.0,
			"0.021": 0.0,
			"0.022": 0.0,
			"0.023": 0.0,
			"0.024": 0.0,
			"0.025": 0.0
		}
	}
}
