{
	 "smiles": "C1=CN(C=C1)C1=CC=CC=C1", 
	 "Tm": 333.65, 
	 "num_atms": 20, 
	 "gaussian": { 
		 "optdone": 1, 
		 "sigma_profile": "yes", 
		 "theory": "DFT", 
		 "functional": "B3LYP", 
		 "basiset": "6-31G**", 
		 "properties": { 
			 "R2extent": 1981.6282, 
			 "electric_dipole_moment_norm": 1.12006941749, 
			 "electric_quadrupole_moment_norm": 7.49111499445, 
			 "total_energy": -441.222123616, 
			 "HOMO_LUMO_gap": 0.19473, 
			 "cosmo_polarized_energy": -6.21, 
			 "cosmo_cavitation_energy": 23.31, 
			 "cosmo_dispersion_energy": -17.63, 
			 "cosmo_repulsion_energy": 1.37, 
			 "cosmo_total_nonelectrostatic_energy": 7.05, 
			 "SMD_solvation_energy": 4.71 
		},
		"coords": [
			{
				"x": 1.3661346096,
				"y": 3.1453309463,
				"z": 0.6857797375,
				"element": "C" 
			},
			{
				"x": 0.67153804,
				"y": 2.1786756824,
				"z": 0.002960238,
				"element": "C" 
			},
			{
				"x": 0.9976206725,
				"y": 0.9369306484,
				"z": 0.5314499249,
				"element": "N" 
			},
			{
				"x": 1.9094885787,
				"y": 1.1390143801,
				"z": 1.5586852075,
				"element": "C" 
			},
			{
				"x": 2.1530134809,
				"y": 2.4845250835,
				"z": 1.6745451549,
				"element": "C" 
			},
			{
				"x": 0.4894164216,
				"y": -0.3157668779,
				"z": 0.0987296538,
				"element": "C" 
			},
			{
				"x": 0.89815577,
				"y": -1.5076491568,
				"z": 0.7173176218,
				"element": "C" 
			},
			{
				"x": 0.3959645056,
				"y": -2.734600734,
				"z": 0.2883682698,
				"element": "C" 
			},
			{
				"x": -0.5202914776,
				"y": -2.8046485698,
				"z": -0.7609866628,
				"element": "C" 
			},
			{
				"x": -0.9283133018,
				"y": -1.6218943712,
				"z": -1.3775868132,
				"element": "C" 
			},
			{
				"x": -0.4327360763,
				"y": -0.3893793489,
				"z": -0.9569872679,
				"element": "C" 
			},
			{
				"x": 1.3143343816,
				"y": 4.2081930064,
				"z": 0.4957011555,
				"element": "H" 
			},
			{
				"x": -0.0244062559,
				"y": 2.2802028322,
				"z": -0.8123678757,
				"element": "H" 
			},
			{
				"x": 2.3131745179,
				"y": 0.3170766021,
				"z": 2.1251292216,
				"element": "H" 
			},
			{
				"x": 2.8217902198,
				"y": 2.9422786295,
				"z": 2.3898681468,
				"element": "H" 
			},
			{
				"x": 1.6079773121,
				"y": -1.4896758844,
				"z": 1.5347914543,
				"element": "H" 
			},
			{
				"x": 0.7287809008,
				"y": -3.6418925296,
				"z": 0.7842532579,
				"element": "H" 
			},
			{
				"x": -0.9089033719,
				"y": -3.7625236167,
				"z": -1.0918526836,
				"element": "H" 
			},
			{
				"x": -1.640942408,
				"y": -1.6507992847,
				"z": -2.1968378144,
				"element": "H" 
			},
			{
				"x": -0.7707965195,
				"y": 0.5091025632,
				"z": -1.4578599266,
				"element": "H" 
			}
		],
		 "valence_orbital": [ 
			{
				"type": "occ",
				"energy": -0.34683,
				"method": "rhf"
			},
			{
				"type": "occ",
				"energy": -0.28129,
				"method": "rhf"
			},
			{
				"type": "occ",
				"energy": -0.25697,
				"method": "rhf"
			},
			{
				"type": "occ",
				"energy": -0.21387,
				"method": "rhf"
			},
			{
				"type": "occ",
				"energy": -0.21068,
				"method": "rhf"
			},
			{
				"type": "unocc",
				"energy": -0.01595,
				"method": "rhf"
			},
			{
				"type": "unocc",
				"energy": -0.00694,
				"method": "rhf"
			},
			{
				"type": "unocc",
				"energy": 0.05692,
				"method": "rhf"
			},
			{
				"type": "unocc",
				"energy": 0.0815,
				"method": "rhf"
			},
			{
				"type": "unocc",
				"energy": 0.08862,
				"method": "rhf"
			}
		],
		"cosmo_sigma_profile": { 
			"-0.025": 0.0,
			"-0.024": 0.0,
			"-0.023": 0.0,
			"-0.022": 0.0,
			"-0.021": 0.0,
			"-0.02": 0.0,
			"-0.019": 0.0,
			"-0.018": 0.0,
			"-0.017": 0.0,
			"-0.016": 0.0,
			"-0.015": 0.0,
			"-0.014": 0.0,
			"-0.013": 0.0,
			"-0.012": 0.0,
			"-0.011": 0.0,
			"-0.01": 0.720059355886,
			"-0.009": 3.00404003573,
			"-0.008": 3.46352721266,
			"-0.007": 3.59833518276,
			"-0.006": 9.58213787883,
			"-0.005": 14.876768287,
			"-0.004": 14.9627754652,
			"-0.003": 12.9467456772,
			"-0.002": 12.4010966883,
			"-0.001": 11.1903116936,
			"0.0": 11.5497973582,
			"0.001": 11.9572746375,
			"0.002": 13.9730617319,
			"0.003": 14.0911290805,
			"0.004": 14.8077295701,
			"0.005": 15.099546973,
			"0.006": 8.99901084166,
			"0.007": 5.47421584271,
			"0.008": 4.83007059066,
			"0.009": 0.330231150694,
			"0.01": 0.0,
			"0.011": 0.0,
			"0.012": 0.0,
			"0.013": 0.0,
			"0.014": 0.0,
			"0.015": 0.0,
			"0.016": 0.0,
			"0.017": 0.0,
			"0.018": 0.0,
			"0.019": 0.0,
			"0.02": 0.0,
			"0.021": 0.0,
			"0.022": 0.0,
			"0.023": 0.0,
			"0.024": 0.0,
			"0.025": 0.0
		}
	}
}
