{
	 "smiles": "CC(=O)C1=C(O)C=C(C)OC1=O", 
	 "Tm": 383.15, 
	 "num_atms": 20, 
	 "gaussian": { 
		 "optdone": 1, 
		 "sigma_profile": "yes", 
		 "theory": "DFT", 
		 "functional": "B3LYP", 
		 "basiset": "6-31G**", 
		 "properties": { 
			 "R2extent": 2566.1802, 
			 "electric_dipole_moment_norm": 6.55075827443, 
			 "electric_quadrupole_moment_norm": 10.1303973486, 
			 "total_energy": -610.557585588, 
			 "HOMO_LUMO_gap": 0.16283, 
			 "cosmo_polarized_energy": -21.59, 
			 "cosmo_cavitation_energy": 24.61, 
			 "cosmo_dispersion_energy": -18.27, 
			 "cosmo_repulsion_energy": 1.46, 
			 "cosmo_total_nonelectrostatic_energy": 7.79, 
			 "SMD_solvation_energy": 6.78 
		},
		"coords": [
			{
				"x": -3.9520479993,
				"y": 1.2382239754,
				"z": -1.0442151166,
				"element": "C" 
			},
			{
				"x": -2.6020008462,
				"y": 1.1843638134,
				"z": -1.7358029845,
				"element": "C" 
			},
			{
				"x": -2.4844996819,
				"y": 1.618664471,
				"z": -2.8726014796,
				"element": "O" 
			},
			{
				"x": -1.4246938197,
				"y": 0.587541079,
				"z": -1.0207963616,
				"element": "C" 
			},
			{
				"x": -0.2217149871,
				"y": 0.3388024327,
				"z": -1.6795015868,
				"element": "C" 
			},
			{
				"x": -0.0852953464,
				"y": 0.6162546261,
				"z": -2.982847221,
				"element": "O" 
			},
			{
				"x": 0.8957097076,
				"y": -0.2331721607,
				"z": -0.9902096797,
				"element": "C" 
			},
			{
				"x": 0.7872232999,
				"y": -0.5343477132,
				"z": 0.3275877973,
				"element": "C" 
			},
			{
				"x": 1.8582587655,
				"y": -1.1327132142,
				"z": 1.1804254762,
				"element": "C" 
			},
			{
				"x": -0.3482619233,
				"y": -0.3060002848,
				"z": 0.9976002029,
				"element": "O" 
			},
			{
				"x": -1.5161574026,
				"y": 0.2607851038,
				"z": 0.3921738021,
				"element": "C" 
			},
			{
				"x": -2.4477951136,
				"y": 0.4034882786,
				"z": 1.147257153,
				"element": "O" 
			},
			{
				"x": -4.6768161032,
				"y": 1.6004820966,
				"z": -1.7749067709,
				"element": "H" 
			},
			{
				"x": -3.922283775,
				"y": 1.905090267,
				"z": -0.1784014134,
				"element": "H" 
			},
			{
				"x": -4.2503758724,
				"y": 0.2597809984,
				"z": -0.6581202895,
				"element": "H" 
			},
			{
				"x": 0.8002046613,
				"y": 0.3561537988,
				"z": -3.2739575803,
				"element": "H" 
			},
			{
				"x": 1.8253646611,
				"y": -0.4253245257,
				"z": -1.5152852553,
				"element": "H" 
			},
			{
				"x": 2.0862146768,
				"y": -0.4666685489,
				"z": 2.019201795,
				"element": "H" 
			},
			{
				"x": 2.7688632442,
				"y": -1.3077856874,
				"z": 0.60479456,
				"element": "H" 
			},
			{
				"x": 1.5138038542,
				"y": -2.0814188059,
				"z": 1.6052049529,
				"element": "H" 
			}
		],
		 "valence_orbital": [ 
			{
				"type": "occ",
				"energy": -0.33993,
				"method": "rhf"
			},
			{
				"type": "occ",
				"energy": -0.29541,
				"method": "rhf"
			},
			{
				"type": "occ",
				"energy": -0.27808,
				"method": "rhf"
			},
			{
				"type": "occ",
				"energy": -0.23861,
				"method": "rhf"
			},
			{
				"type": "occ",
				"energy": -0.23002,
				"method": "rhf"
			},
			{
				"type": "unocc",
				"energy": -0.06719,
				"method": "rhf"
			},
			{
				"type": "unocc",
				"energy": -0.00447,
				"method": "rhf"
			},
			{
				"type": "unocc",
				"energy": 0.02143,
				"method": "rhf"
			},
			{
				"type": "unocc",
				"energy": 0.04326,
				"method": "rhf"
			},
			{
				"type": "unocc",
				"energy": 0.07658,
				"method": "rhf"
			}
		],
		"cosmo_sigma_profile": { 
			"-0.025": 0.0,
			"-0.024": 0.0,
			"-0.023": 0.0,
			"-0.022": 0.0,
			"-0.021": 0.0,
			"-0.02": 0.734319259308,
			"-0.019": 1.32946162231,
			"-0.018": 1.2887594544,
			"-0.017": 1.10102140579,
			"-0.016": 0.830011197761,
			"-0.015": 1.3107860225,
			"-0.014": 1.02121011917,
			"-0.013": 0.506694453495,
			"-0.012": 1.2837623409,
			"-0.011": 1.20939078371,
			"-0.01": 1.24232196301,
			"-0.009": 2.01866691511,
			"-0.008": 2.99058457471,
			"-0.007": 4.79313073951,
			"-0.006": 8.32387860265,
			"-0.005": 9.0292650428,
			"-0.004": 15.9949162744,
			"-0.003": 18.4344529056,
			"-0.002": 21.8917235694,
			"-0.001": 16.2897626282,
			"0.0": 14.5848328538,
			"0.001": 8.01118573917,
			"0.002": 5.64403042456,
			"0.003": 4.14519697647,
			"0.004": 3.99904602504,
			"0.005": 3.50058508221,
			"0.006": 4.15477566226,
			"0.007": 4.13067840644,
			"0.008": 3.93098149862,
			"0.009": 3.99189584019,
			"0.01": 4.45737958182,
			"0.011": 5.27802775537,
			"0.012": 7.48065223624,
			"0.013": 5.84712335448,
			"0.014": 2.97566001001,
			"0.015": 1.54377482655,
			"0.016": 0.448037306039,
			"0.017": 0.0,
			"0.018": 0.0,
			"0.019": 0.0,
			"0.02": 0.0,
			"0.021": 0.0,
			"0.022": 0.0,
			"0.023": 0.0,
			"0.024": 0.0,
			"0.025": 0.0
		}
	}
}
