{
	 "smiles": "CC1=C(OCC2=CSC(N)=N2)C=CC=C1", 
	 "Tm": 369.15, 
	 "num_atms": 27, 
	 "gaussian": { 
		 "optdone": 1, 
		 "sigma_profile": "yes", 
		 "theory": "DFT", 
		 "functional": "B3LYP", 
		 "basiset": "6-31G**", 
		 "properties": { 
			 "R2extent": 5488.5051, 
			 "electric_dipole_moment_norm": 2.25587494778, 
			 "electric_quadrupole_moment_norm": 18.5306923578, 
			 "total_energy": -1009.30873218, 
			 "HOMO_LUMO_gap": 0.20653, 
			 "cosmo_polarized_energy": -12.04, 
			 "cosmo_cavitation_energy": 32.79, 
			 "cosmo_dispersion_energy": -24.32, 
			 "cosmo_repulsion_energy": 1.86, 
			 "cosmo_total_nonelectrostatic_energy": 10.34, 
			 "SMD_solvation_energy": 3.99 
		},
		"coords": [
			{
				"x": -1.4126254267,
				"y": 2.5497128851,
				"z": 1.0401280933,
				"element": "C" 
			},
			{
				"x": -0.1806652181,
				"y": 2.5582382223,
				"z": 0.1716170977,
				"element": "C" 
			},
			{
				"x": 0.2826617061,
				"y": 1.3578206005,
				"z": -0.4084390974,
				"element": "C" 
			},
			{
				"x": -0.4630115955,
				"y": 0.2459579336,
				"z": -0.1167219977,
				"element": "O" 
			},
			{
				"x": -0.0626962503,
				"y": -1.0019196794,
				"z": -0.6587161623,
				"element": "C" 
			},
			{
				"x": -1.0233300846,
				"y": -2.0603350952,
				"z": -0.2004917477,
				"element": "C" 
			},
			{
				"x": -2.0976751434,
				"y": -1.875819958,
				"z": 0.6110430587,
				"element": "C" 
			},
			{
				"x": -2.9094672157,
				"y": -3.4051080731,
				"z": 0.8686753234,
				"element": "S" 
			},
			{
				"x": -1.7037892027,
				"y": -4.1609408883,
				"z": -0.1821964076,
				"element": "C" 
			},
			{
				"x": -1.7028113027,
				"y": -5.5204452821,
				"z": -0.40223283,
				"element": "N" 
			},
			{
				"x": -0.8021368198,
				"y": -3.3484897255,
				"z": -0.6538799137,
				"element": "N" 
			},
			{
				"x": 1.4232060179,
				"y": 1.3451865943,
				"z": -1.2164004901,
				"element": "C" 
			},
			{
				"x": 2.1163587424,
				"y": 2.5365189052,
				"z": -1.4548866997,
				"element": "C" 
			},
			{
				"x": 1.6766130935,
				"y": 3.7305665199,
				"z": -0.8929892376,
				"element": "C" 
			},
			{
				"x": 0.5337189925,
				"y": 3.7279383211,
				"z": -0.0865147455,
				"element": "C" 
			},
			{
				"x": -2.286382069,
				"y": 2.1839093547,
				"z": 0.4890174998,
				"element": "H" 
			},
			{
				"x": -1.6357651844,
				"y": 3.5544031856,
				"z": 1.4087713802,
				"element": "H" 
			},
			{
				"x": -1.2868312323,
				"y": 1.8868872619,
				"z": 1.9037427558,
				"element": "H" 
			},
			{
				"x": -0.0511965183,
				"y": -0.9650120897,
				"z": -1.7582007935,
				"element": "H" 
			},
			{
				"x": 0.9552624744,
				"y": -1.2611494356,
				"z": -0.3316077757,
				"element": "H" 
			},
			{
				"x": -2.4558569464,
				"y": -0.9619068885,
				"z": 1.0571653442,
				"element": "H" 
			},
			{
				"x": -2.601520529,
				"y": -5.9810815545,
				"z": -0.4152125309,
				"element": "H" 
			},
			{
				"x": -1.0915128139,
				"y": -5.794184578,
				"z": -1.160564366,
				"element": "H" 
			},
			{
				"x": 1.7782970592,
				"y": 0.4232302255,
				"z": -1.6611279901,
				"element": "H" 
			},
			{
				"x": 3.0018691677,
				"y": 2.5180870314,
				"z": -2.0838348009,
				"element": "H" 
			},
			{
				"x": 2.2126231311,
				"y": 4.6567257909,
				"z": -1.0763363926,
				"element": "H" 
			},
			{
				"x": 0.1844631682,
				"y": 4.6577104158,
				"z": 0.356093426,
				"element": "H" 
			}
		],
		 "valence_orbital": [ 
			{
				"type": "occ",
				"energy": -0.27584,
				"method": "rhf"
			},
			{
				"type": "occ",
				"energy": -0.27112,
				"method": "rhf"
			},
			{
				"type": "occ",
				"energy": -0.23925,
				"method": "rhf"
			},
			{
				"type": "occ",
				"energy": -0.21301,
				"method": "rhf"
			},
			{
				"type": "occ",
				"energy": -0.20888,
				"method": "rhf"
			},
			{
				"type": "unocc",
				"energy": -0.00235,
				"method": "rhf"
			},
			{
				"type": "unocc",
				"energy": 0.00735,
				"method": "rhf"
			},
			{
				"type": "unocc",
				"energy": 0.01276,
				"method": "rhf"
			},
			{
				"type": "unocc",
				"energy": 0.0176,
				"method": "rhf"
			},
			{
				"type": "unocc",
				"energy": 0.06021,
				"method": "rhf"
			}
		],
		"cosmo_sigma_profile": { 
			"-0.025": 0.0,
			"-0.024": 0.0,
			"-0.023": 0.0,
			"-0.022": 0.0,
			"-0.021": 0.0,
			"-0.02": 0.0,
			"-0.019": 0.0,
			"-0.018": 0.0,
			"-0.017": 0.0,
			"-0.016": 0.0,
			"-0.015": 0.310066235014,
			"-0.014": 1.75984218634,
			"-0.013": 3.04554846016,
			"-0.012": 2.37894341995,
			"-0.011": 2.25745155703,
			"-0.01": 3.03027705239,
			"-0.009": 2.25879057748,
			"-0.008": 1.48152035537,
			"-0.007": 3.80448337438,
			"-0.006": 10.2772258085,
			"-0.005": 14.9538001982,
			"-0.004": 17.4785711165,
			"-0.003": 19.9684769426,
			"-0.002": 17.0173862665,
			"-0.001": 16.4879731925,
			"0.0": 18.6595986235,
			"0.001": 18.7625023022,
			"0.002": 20.219854219,
			"0.003": 20.2511165625,
			"0.004": 21.4513153892,
			"0.005": 18.5981658433,
			"0.006": 12.6399945778,
			"0.007": 5.10541015241,
			"0.008": 1.81847538808,
			"0.009": 2.58828616415,
			"0.01": 1.53586593332,
			"0.011": 1.72950851516,
			"0.012": 1.13569511226,
			"0.013": 0.505647680934,
			"0.014": 0.9269892542,
			"0.015": 0.488060382578,
			"0.016": 0.0362200546067,
			"0.017": 0.0,
			"0.018": 0.0,
			"0.019": 0.0,
			"0.02": 0.0,
			"0.021": 0.0,
			"0.022": 0.0,
			"0.023": 0.0,
			"0.024": 0.0,
			"0.025": 0.0
		}
	}
}
