{
	 "smiles": "O=C1C2=CC=CC=C2C2=C3C(C=CC=C13)=CC=C2", 
	 "Tm": 445.15, 
	 "num_atms": 28, 
	 "gaussian": { 
		 "optdone": 1, 
		 "sigma_profile": "yes", 
		 "theory": "DFT", 
		 "functional": "B3LYP", 
		 "basiset": "6-31G**", 
		 "properties": { 
			 "R2extent": 4202.5159, 
			 "electric_dipole_moment_norm": 3.57612749773, 
			 "electric_quadrupole_moment_norm": 17.2151256246, 
			 "total_energy": -729.09613206, 
			 "HOMO_LUMO_gap": 0.13148, 
			 "cosmo_polarized_energy": -10.35, 
			 "cosmo_cavitation_energy": 31.09, 
			 "cosmo_dispersion_energy": -23.48, 
			 "cosmo_repulsion_energy": 1.71, 
			 "cosmo_total_nonelectrostatic_energy": 9.31, 
			 "SMD_solvation_energy": 4.92 
		},
		"coords": [
			{
				"x": -1.2519918439,
				"y": -1.3886471163,
				"z": 2.6075392489,
				"element": "O" 
			},
			{
				"x": -0.9510945441,
				"y": -0.8279905003,
				"z": 1.5540324614,
				"element": "C" 
			},
			{
				"x": 0.4511447172,
				"y": -0.7948596849,
				"z": 1.0636084303,
				"element": "C" 
			},
			{
				"x": 1.4308920217,
				"y": -1.4279496763,
				"z": 1.8430561262,
				"element": "C" 
			},
			{
				"x": 2.7594054683,
				"y": -1.4348040598,
				"z": 1.4437574286,
				"element": "C" 
			},
			{
				"x": 3.1157366299,
				"y": -0.7998067732,
				"z": 0.2477382172,
				"element": "C" 
			},
			{
				"x": 2.1527877924,
				"y": -0.1696965521,
				"z": -0.5317314897,
				"element": "C" 
			},
			{
				"x": 0.7980550985,
				"y": -0.149388174,
				"z": -0.1473514675,
				"element": "C" 
			},
			{
				"x": -0.2447494134,
				"y": 0.5134860511,
				"z": -0.9579763783,
				"element": "C" 
			},
			{
				"x": -1.6025031792,
				"y": 0.492707813,
				"z": -0.5017024278,
				"element": "C" 
			},
			{
				"x": -2.6252906099,
				"y": 1.1305230736,
				"z": -1.2751396157,
				"element": "C" 
			},
			{
				"x": -3.9653225791,
				"y": 1.1011046032,
				"z": -0.8092647917,
				"element": "C" 
			},
			{
				"x": -4.2958513586,
				"y": 0.4698844045,
				"z": 0.3725689857,
				"element": "C" 
			},
			{
				"x": -3.2936566037,
				"y": -0.1574123813,
				"z": 1.1342894545,
				"element": "C" 
			},
			{
				"x": -1.9716069872,
				"y": -0.1516400416,
				"z": 0.7143345011,
				"element": "C" 
			},
			{
				"x": -2.2788969155,
				"y": 1.777916665,
				"z": -2.4895545744,
				"element": "C" 
			},
			{
				"x": -0.9709031481,
				"y": 1.7905657472,
				"z": -2.9166332605,
				"element": "C" 
			},
			{
				"x": 0.0356152089,
				"y": 1.1624103911,
				"z": -2.1544372246,
				"element": "C" 
			},
			{
				"x": 1.1077969764,
				"y": -1.9065730782,
				"z": 2.7614770095,
				"element": "H" 
			},
			{
				"x": 3.5142629303,
				"y": -1.9260574154,
				"z": 2.0502584262,
				"element": "H" 
			},
			{
				"x": 4.15190264,
				"y": -0.7962924216,
				"z": -0.0788331944,
				"element": "H" 
			},
			{
				"x": 2.4675382871,
				"y": 0.3110335654,
				"z": -1.4510214937,
				"element": "H" 
			},
			{
				"x": -4.7325366947,
				"y": 1.5888410883,
				"z": -1.4053262198,
				"element": "H" 
			},
			{
				"x": -5.3256905569,
				"y": 0.4556906599,
				"z": 0.7163011077,
				"element": "H" 
			},
			{
				"x": -3.526397217,
				"y": -0.6607276044,
				"z": 2.0671099582,
				"element": "H" 
			},
			{
				"x": -3.0593195636,
				"y": 2.2600050315,
				"z": -3.0720502624,
				"element": "H" 
			},
			{
				"x": -0.7020203821,
				"y": 2.2848611615,
				"z": -3.8452926865,
				"element": "H" 
			},
			{
				"x": 1.0518938264,
				"y": 1.1979152242,
				"z": -2.5300562685,
				"element": "H" 
			}
		],
		 "valence_orbital": [ 
			{
				"type": "occ",
				"energy": -0.25861,
				"method": "rhf"
			},
			{
				"type": "occ",
				"energy": -0.25735,
				"method": "rhf"
			},
			{
				"type": "occ",
				"energy": -0.25265,
				"method": "rhf"
			},
			{
				"type": "occ",
				"energy": -0.24364,
				"method": "rhf"
			},
			{
				"type": "occ",
				"energy": -0.21682,
				"method": "rhf"
			},
			{
				"type": "unocc",
				"energy": -0.08534,
				"method": "rhf"
			},
			{
				"type": "unocc",
				"energy": -0.03449,
				"method": "rhf"
			},
			{
				"type": "unocc",
				"energy": -0.01876,
				"method": "rhf"
			},
			{
				"type": "unocc",
				"energy": -0.00924,
				"method": "rhf"
			},
			{
				"type": "unocc",
				"energy": 0.02755,
				"method": "rhf"
			}
		],
		"cosmo_sigma_profile": { 
			"-0.025": 0.0,
			"-0.024": 0.0,
			"-0.023": 0.0,
			"-0.022": 0.0,
			"-0.021": 0.0,
			"-0.02": 0.0,
			"-0.019": 0.0,
			"-0.018": 0.0,
			"-0.017": 0.0,
			"-0.016": 0.0,
			"-0.015": 0.0,
			"-0.014": 0.0,
			"-0.013": 0.0,
			"-0.012": 0.0,
			"-0.011": 0.0,
			"-0.01": 0.0369330124814,
			"-0.009": 0.936432262413,
			"-0.008": 2.17391907695,
			"-0.007": 8.67348259355,
			"-0.006": 17.4689314503,
			"-0.005": 19.7572307747,
			"-0.004": 17.2602456897,
			"-0.003": 13.3275846756,
			"-0.002": 13.796564352,
			"-0.001": 15.0725094746,
			"0.0": 16.6098853796,
			"0.001": 21.1687495575,
			"0.002": 37.0158675771,
			"0.003": 32.0613616856,
			"0.004": 16.7804712814,
			"0.005": 2.09102084701,
			"0.006": 2.10597060053,
			"0.007": 1.90980182485,
			"0.008": 1.35824617854,
			"0.009": 1.70052681925,
			"0.01": 1.42850543753,
			"0.011": 2.52311216302,
			"0.012": 3.61083883635,
			"0.013": 2.74767191641,
			"0.014": 0.0,
			"0.015": 0.0,
			"0.016": 0.0,
			"0.017": 0.0,
			"0.018": 0.0,
			"0.019": 0.0,
			"0.02": 0.0,
			"0.021": 0.0,
			"0.022": 0.0,
			"0.023": 0.0,
			"0.024": 0.0,
			"0.025": 0.0
		}
	}
}
