{
	 "smiles": "CCCCOCCOCCOC(=O)CCCCC(=O)OCCOCCOCCCC", 
	 "Tm": 226.15, 
	 "num_atms": 72, 
	 "gaussian": { 
		 "optdone": 1, 
		 "sigma_profile": "yes", 
		 "theory": "DFT", 
		 "functional": "B3LYP", 
		 "basiset": "6-31G**", 
		 "properties": { 
			 "R2extent": 24584.8392, 
			 "electric_dipole_moment_norm": 3.00453384238, 
			 "electric_quadrupole_moment_norm": 28.4650418796, 
			 "total_energy": -1465.44475388, 
			 "HOMO_LUMO_gap": 0.24719, 
			 "cosmo_polarized_energy": -21.4, 
			 "cosmo_cavitation_energy": 73.41, 
			 "cosmo_dispersion_energy": -44.79, 
			 "cosmo_repulsion_energy": 3.57, 
			 "cosmo_total_nonelectrostatic_energy": 32.2, 
			 "SMD_solvation_energy": 12.72 
		},
		"coords": [
			{
				"x": -5.9782714897,
				"y": 2.6251898698,
				"z": -6.2544798505,
				"element": "C" 
			},
			{
				"x": -5.8386466878,
				"y": 3.2896474555,
				"z": -4.879978191,
				"element": "C" 
			},
			{
				"x": -5.2331991644,
				"y": 4.7024871395,
				"z": -4.9162637045,
				"element": "C" 
			},
			{
				"x": -3.7765415936,
				"y": 4.7573023142,
				"z": -5.3661898116,
				"element": "C" 
			},
			{
				"x": -2.9914142997,
				"y": 3.9996777989,
				"z": -4.4609550158,
				"element": "O" 
			},
			{
				"x": -1.6217638286,
				"y": 3.9677973337,
				"z": -4.8007572254,
				"element": "C" 
			},
			{
				"x": -0.8622817121,
				"y": 3.1893901732,
				"z": -3.7449475713,
				"element": "C" 
			},
			{
				"x": -0.7872017465,
				"y": 3.9751968802,
				"z": -2.5645346589,
				"element": "O" 
			},
			{
				"x": 0.0233346111,
				"y": 3.4457445761,
				"z": -1.5358441604,
				"element": "C" 
			},
			{
				"x": -0.6432845873,
				"y": 2.3536679207,
				"z": -0.7032573866,
				"element": "C" 
			},
			{
				"x": -0.7317427104,
				"y": 1.087514976,
				"z": -1.3989304614,
				"element": "O" 
			},
			{
				"x": 0.3349051858,
				"y": 0.2611521058,
				"z": -1.3037295321,
				"element": "C" 
			},
			{
				"x": 1.3386910476,
				"y": 0.5274413898,
				"z": -0.6728823742,
				"element": "O" 
			},
			{
				"x": 0.1041476997,
				"y": -1.0056776122,
				"z": -2.1065085491,
				"element": "C" 
			},
			{
				"x": 1.1381421681,
				"y": -2.1029760463,
				"z": -1.8363976944,
				"element": "C" 
			},
			{
				"x": 1.0139177315,
				"y": -2.7274643829,
				"z": -0.4412008486,
				"element": "C" 
			},
			{
				"x": 2.0612067321,
				"y": -3.8289825422,
				"z": -0.199611343,
				"element": "C" 
			},
			{
				"x": 2.0224272348,
				"y": -4.3917482727,
				"z": 1.2080222127,
				"element": "C" 
			},
			{
				"x": 1.8652862612,
				"y": -5.5609975292,
				"z": 1.4933954231,
				"element": "O" 
			},
			{
				"x": 2.1992951478,
				"y": -3.4092128855,
				"z": 2.1192832595,
				"element": "O" 
			},
			{
				"x": 2.1868230298,
				"y": -3.7894556694,
				"z": 3.5109396973,
				"element": "C" 
			},
			{
				"x": 0.7691502727,
				"y": -3.9490909614,
				"z": 4.0512835603,
				"element": "C" 
			},
			{
				"x": -0.0353260955,
				"y": -2.7874832617,
				"z": 3.9564269121,
				"element": "O" 
			},
			{
				"x": 0.209987548,
				"y": -1.7571171526,
				"z": 4.9036606084,
				"element": "C" 
			},
			{
				"x": 0.7126093318,
				"y": -0.4866873666,
				"z": 4.2354314428,
				"element": "C" 
			},
			{
				"x": 2.0542102922,
				"y": -0.6602642519,
				"z": 3.8336047286,
				"element": "O" 
			},
			{
				"x": 2.5149491405,
				"y": 0.3348786742,
				"z": 2.9277812635,
				"element": "C" 
			},
			{
				"x": 3.9264807051,
				"y": -0.0337511871,
				"z": 2.4853976695,
				"element": "C" 
			},
			{
				"x": 4.4975774852,
				"y": 0.8959788472,
				"z": 1.4025015365,
				"element": "C" 
			},
			{
				"x": 4.7459814676,
				"y": 2.3373934457,
				"z": 1.8660707357,
				"element": "C" 
			},
			{
				"x": -6.4579910144,
				"y": 1.644547254,
				"z": -6.1692291624,
				"element": "H" 
			},
			{
				"x": -6.5882766828,
				"y": 3.2345807142,
				"z": -6.93204739,
				"element": "H" 
			},
			{
				"x": -5.0058498463,
				"y": 2.4699444046,
				"z": -6.7336511074,
				"element": "H" 
			},
			{
				"x": -5.2212014623,
				"y": 2.662435509,
				"z": -4.2276558363,
				"element": "H" 
			},
			{
				"x": -6.8279278071,
				"y": 3.3496767457,
				"z": -4.4092599245,
				"element": "H" 
			},
			{
				"x": -5.294448108,
				"y": 5.1489372305,
				"z": -3.9165303267,
				"element": "H" 
			},
			{
				"x": -5.8200100688,
				"y": 5.3451677233,
				"z": -5.5867796281,
				"element": "H" 
			},
			{
				"x": -3.6642169691,
				"y": 4.3613028818,
				"z": -6.3903154677,
				"element": "H" 
			},
			{
				"x": -3.4282536195,
				"y": 5.8037755979,
				"z": -5.3882833545,
				"element": "H" 
			},
			{
				"x": -1.2073963967,
				"y": 4.9869983833,
				"z": -4.8688743858,
				"element": "H" 
			},
			{
				"x": -1.4735612584,
				"y": 3.4801506036,
				"z": -5.7806340041,
				"element": "H" 
			},
			{
				"x": 0.1516679334,
				"y": 2.9692767285,
				"z": -4.1207581451,
				"element": "H" 
			},
			{
				"x": -1.3710425387,
				"y": 2.234368904,
				"z": -3.5605803093,
				"element": "H" 
			},
			{
				"x": 0.9837305557,
				"y": 3.0766399658,
				"z": -1.9279093397,
				"element": "H" 
			},
			{
				"x": 0.2392655943,
				"y": 4.2845995833,
				"z": -0.8635505327,
				"element": "H" 
			},
			{
				"x": -0.0888215154,
				"y": 2.2079517474,
				"z": 0.2275308664,
				"element": "H" 
			},
			{
				"x": -1.6774528246,
				"y": 2.6300152801,
				"z": -0.4876248642,
				"element": "H" 
			},
			{
				"x": 0.1185766522,
				"y": -0.7124945582,
				"z": -3.1647253418,
				"element": "H" 
			},
			{
				"x": -0.9168398368,
				"y": -1.3534953945,
				"z": -1.9116297129,
				"element": "H" 
			},
			{
				"x": 1.0251359529,
				"y": -2.8808672298,
				"z": -2.60177347,
				"element": "H" 
			},
			{
				"x": 2.1423216969,
				"y": -1.6804655254,
				"z": -1.95746518,
				"element": "H" 
			},
			{
				"x": 1.133884386,
				"y": -1.9531710046,
				"z": 0.320650338,
				"element": "H" 
			},
			{
				"x": 0.00826701,
				"y": -3.1501169383,
				"z": -0.3141047774,
				"element": "H" 
			},
			{
				"x": 1.9258676437,
				"y": -4.6674172137,
				"z": -0.8879574562,
				"element": "H" 
			},
			{
				"x": 3.0638299362,
				"y": -3.4141538723,
				"z": -0.3658505972,
				"element": "H" 
			},
			{
				"x": 2.7117598558,
				"y": -2.9779550705,
				"z": 4.0141529253,
				"element": "H" 
			},
			{
				"x": 2.7251924443,
				"y": -4.7341654937,
				"z": 3.635093588,
				"element": "H" 
			},
			{
				"x": 0.2500464309,
				"y": -4.7229902435,
				"z": 3.4798067573,
				"element": "H" 
			},
			{
				"x": 0.8434659158,
				"y": -4.2974889452,
				"z": 5.0951155854,
				"element": "H" 
			},
			{
				"x": 0.9295116131,
				"y": -2.0768579444,
				"z": 5.6702636432,
				"element": "H" 
			},
			{
				"x": -0.7386614892,
				"y": -1.530436413,
				"z": 5.4109365501,
				"element": "H" 
			},
			{
				"x": 0.0687446094,
				"y": -0.268213901,
				"z": 3.3686704772,
				"element": "H" 
			},
			{
				"x": 0.6191138581,
				"y": 0.3580575912,
				"z": 4.9415153058,
				"element": "H" 
			},
			{
				"x": 1.8497238307,
				"y": 0.3843620623,
				"z": 2.0508367108,
				"element": "H" 
			},
			{
				"x": 2.4927400155,
				"y": 1.3233074992,
				"z": 3.4163567389,
				"element": "H" 
			},
			{
				"x": 4.5857862119,
				"y": -0.0430345586,
				"z": 3.3635891956,
				"element": "H" 
			},
			{
				"x": 3.8881683271,
				"y": -1.0608637786,
				"z": 2.1048691834,
				"element": "H" 
			},
			{
				"x": 3.8206639341,
				"y": 0.8969163856,
				"z": 0.5389430031,
				"element": "H" 
			},
			{
				"x": 5.4452022765,
				"y": 0.4700147059,
				"z": 1.0496363131,
				"element": "H" 
			},
			{
				"x": 5.4129104658,
				"y": 2.3647867704,
				"z": 2.7359948226,
				"element": "H" 
			},
			{
				"x": 5.2123080455,
				"y": 2.9306539681,
				"z": 1.0723439812,
				"element": "H" 
			},
			{
				"x": 3.8168170653,
				"y": 2.8443680663,
				"z": 2.147353657,
				"element": "H" 
			}
		],
		 "valence_orbital": [ 
			{
				"type": "occ",
				"energy": -0.25945,
				"method": "rhf"
			},
			{
				"type": "occ",
				"energy": -0.25851,
				"method": "rhf"
			},
			{
				"type": "occ",
				"energy": -0.25005,
				"method": "rhf"
			},
			{
				"type": "occ",
				"energy": -0.24876,
				"method": "rhf"
			},
			{
				"type": "occ",
				"energy": -0.24497,
				"method": "rhf"
			},
			{
				"type": "unocc",
				"energy": 0.00222,
				"method": "rhf"
			},
			{
				"type": "unocc",
				"energy": 0.01888,
				"method": "rhf"
			},
			{
				"type": "unocc",
				"energy": 0.07245,
				"method": "rhf"
			},
			{
				"type": "unocc",
				"energy": 0.08005,
				"method": "rhf"
			},
			{
				"type": "unocc",
				"energy": 0.09312,
				"method": "rhf"
			}
		],
		"cosmo_sigma_profile": { 
			"-0.025": 0.0,
			"-0.024": 0.0,
			"-0.023": 0.0,
			"-0.022": 0.0,
			"-0.021": 0.0,
			"-0.02": 0.0,
			"-0.019": 0.0,
			"-0.018": 0.0,
			"-0.017": 0.0,
			"-0.016": 0.0,
			"-0.015": 0.0,
			"-0.014": 0.0,
			"-0.013": 0.0,
			"-0.012": 0.0,
			"-0.011": 0.0,
			"-0.01": 0.0,
			"-0.009": 0.0,
			"-0.008": 0.0,
			"-0.007": 0.141535045647,
			"-0.006": 10.5294082009,
			"-0.005": 30.9665584135,
			"-0.004": 51.4466290021,
			"-0.003": 78.8333341614,
			"-0.002": 84.5903602421,
			"-0.001": 62.3470516579,
			"0.0": 55.1685619159,
			"0.001": 50.0673592518,
			"0.002": 31.5999205321,
			"0.003": 17.0222390102,
			"0.004": 15.4775887743,
			"0.005": 13.0330519589,
			"0.006": 10.211682855,
			"0.007": 11.531433585,
			"0.008": 10.4059174985,
			"0.009": 6.3713861904,
			"0.01": 6.36977539592,
			"0.011": 6.34311919727,
			"0.012": 7.86514237249,
			"0.013": 5.03434467095,
			"0.014": 2.05760191928,
			"0.015": 0.252763876388,
			"0.016": 0.0,
			"0.017": 0.0,
			"0.018": 0.0,
			"0.019": 0.0,
			"0.02": 0.0,
			"0.021": 0.0,
			"0.022": 0.0,
			"0.023": 0.0,
			"0.024": 0.0,
			"0.025": 0.0
		}
	}
}
