{
	 "smiles": "NC(CCC1=CC=CC=C1)=NO", 
	 "Tm": 314.15, 
	 "num_atms": 24, 
	 "gaussian": { 
		 "optdone": 1, 
		 "sigma_profile": "yes", 
		 "theory": "DFT", 
		 "functional": "B3LYP", 
		 "basiset": "6-31G**", 
		 "properties": { 
			 "R2extent": 2347.6232, 
			 "electric_dipole_moment_norm": 1.68621287505, 
			 "electric_quadrupole_moment_norm": 9.85999817799, 
			 "total_energy": -534.865884352, 
			 "HOMO_LUMO_gap": 0.21543, 
			 "cosmo_polarized_energy": -13.67, 
			 "cosmo_cavitation_energy": 27.65, 
			 "cosmo_dispersion_energy": -19.27, 
			 "cosmo_repulsion_energy": 1.58, 
			 "cosmo_total_nonelectrostatic_energy": 9.96, 
			 "SMD_solvation_energy": 4.57 
		},
		"coords": [
			{
				"x": 0.5021582149,
				"y": -2.4913334172,
				"z": -1.7181106127,
				"element": "N" 
			},
			{
				"x": 1.3501333475,
				"y": -1.3784546887,
				"z": -1.6529590493,
				"element": "C" 
			},
			{
				"x": 2.181677983,
				"y": -1.2456214278,
				"z": -0.4015757506,
				"element": "C" 
			},
			{
				"x": 1.3427652496,
				"y": -1.1267363137,
				"z": 0.8976941602,
				"element": "C" 
			},
			{
				"x": 0.506256039,
				"y": 0.1326652833,
				"z": 0.9768753657,
				"element": "C" 
			},
			{
				"x": -0.7967770475,
				"y": 0.1631159819,
				"z": 0.4610342917,
				"element": "C" 
			},
			{
				"x": -1.5608832486,
				"y": 1.3294193564,
				"z": 0.5202902236,
				"element": "C" 
			},
			{
				"x": -1.0342492412,
				"y": 2.485919099,
				"z": 1.0982537418,
				"element": "C" 
			},
			{
				"x": 0.2621484318,
				"y": 2.4678660659,
				"z": 1.616125151,
				"element": "C" 
			},
			{
				"x": 1.0230300707,
				"y": 1.299928546,
				"z": 1.5547618692,
				"element": "C" 
			},
			{
				"x": 1.2971390296,
				"y": -0.5523356659,
				"z": -2.6364989067,
				"element": "N" 
			},
			{
				"x": 2.0884993671,
				"y": 0.60129318,
				"z": -2.4046894836,
				"element": "O" 
			},
			{
				"x": 0.9411259397,
				"y": -3.358676677,
				"z": -1.4300053425,
				"element": "H" 
			},
			{
				"x": 0.0652801461,
				"y": -2.5801170875,
				"z": -2.6291537644,
				"element": "H" 
			},
			{
				"x": 2.8357323483,
				"y": -0.3799862197,
				"z": -0.5102039539,
				"element": "H" 
			},
			{
				"x": 2.8222254745,
				"y": -2.1357989009,
				"z": -0.3194501824,
				"element": "H" 
			},
			{
				"x": 2.037377518,
				"y": -1.1585232551,
				"z": 1.7450739793,
				"element": "H" 
			},
			{
				"x": 0.6946274405,
				"y": -2.0051996037,
				"z": 0.9835729376,
				"element": "H" 
			},
			{
				"x": -1.2086510601,
				"y": -0.7350650897,
				"z": 0.0088637674,
				"element": "H" 
			},
			{
				"x": -2.5699727145,
				"y": 1.3335871094,
				"z": 0.1170943703,
				"element": "H" 
			},
			{
				"x": -1.630249667,
				"y": 3.3929003827,
				"z": 1.148154808,
				"element": "H" 
			},
			{
				"x": 0.6796982765,
				"y": 3.3615126713,
				"z": 2.0720241726,
				"element": "H" 
			},
			{
				"x": 2.0308512046,
				"y": 1.2918259146,
				"z": 1.9642709472,
				"element": "H" 
			},
			{
				"x": 1.9071568976,
				"y": 1.1189147565,
				"z": -3.1986427395,
				"element": "H" 
			}
		],
		 "valence_orbital": [ 
			{
				"type": "occ",
				"energy": -0.30438,
				"method": "rhf"
			},
			{
				"type": "occ",
				"energy": -0.25971,
				"method": "rhf"
			},
			{
				"type": "occ",
				"energy": -0.23832,
				"method": "rhf"
			},
			{
				"type": "occ",
				"energy": -0.23193,
				"method": "rhf"
			},
			{
				"type": "occ",
				"energy": -0.20689,
				"method": "rhf"
			},
			{
				"type": "unocc",
				"energy": 0.00854,
				"method": "rhf"
			},
			{
				"type": "unocc",
				"energy": 0.00911,
				"method": "rhf"
			},
			{
				"type": "unocc",
				"energy": 0.0321,
				"method": "rhf"
			},
			{
				"type": "unocc",
				"energy": 0.0748,
				"method": "rhf"
			},
			{
				"type": "unocc",
				"energy": 0.09388,
				"method": "rhf"
			}
		],
		"cosmo_sigma_profile": { 
			"-0.025": 0.0,
			"-0.024": 0.0,
			"-0.023": 0.0,
			"-0.022": 0.0,
			"-0.021": 0.0,
			"-0.02": 0.0,
			"-0.019": 0.0,
			"-0.018": 0.0,
			"-0.017": 0.131248828976,
			"-0.016": 0.779873886092,
			"-0.015": 1.01256244211,
			"-0.014": 0.438663438685,
			"-0.013": 1.62869320386,
			"-0.012": 2.8967989347,
			"-0.011": 2.81265224253,
			"-0.01": 3.4528717545,
			"-0.009": 3.71339929156,
			"-0.008": 2.45729737151,
			"-0.007": 2.86196553435,
			"-0.006": 5.08498206364,
			"-0.005": 12.7129669276,
			"-0.004": 17.1428315328,
			"-0.003": 21.5713737263,
			"-0.002": 16.9026060877,
			"-0.001": 15.999346567,
			"0.0": 11.4094618679,
			"0.001": 9.40532551761,
			"0.002": 10.4088384458,
			"0.003": 9.96789534979,
			"0.004": 9.81436746989,
			"0.005": 10.74551724,
			"0.006": 12.1479329387,
			"0.007": 9.5256853272,
			"0.008": 7.26018875485,
			"0.009": 5.5293988621,
			"0.01": 4.21931305802,
			"0.011": 2.20030235237,
			"0.012": 1.16185206257,
			"0.013": 1.14744440189,
			"0.014": 0.773601283054,
			"0.015": 0.211238012491,
			"0.016": 0.0,
			"0.017": 0.0,
			"0.018": 0.0,
			"0.019": 0.0,
			"0.02": 0.0,
			"0.021": 0.0,
			"0.022": 0.0,
			"0.023": 0.0,
			"0.024": 0.0,
			"0.025": 0.0
		}
	}
}
