{
	 "smiles": "O[C@]1(C=C[C@@](O)(C=C1)C#C)C#C", 
	 "Tm": 398.15, 
	 "num_atms": 20, 
	 "gaussian": { 
		 "optdone": 1, 
		 "sigma_profile": "yes", 
		 "theory": "DFT", 
		 "functional": "B3LYP", 
		 "basiset": "6-31G**", 
		 "properties": { 
			 "R2extent": 2508.425, 
			 "electric_dipole_moment_norm": 2.25835015443, 
			 "electric_quadrupole_moment_norm": 6.44340063165, 
			 "total_energy": -536.109749864, 
			 "HOMO_LUMO_gap": 0.22789, 
			 "cosmo_polarized_energy": -14.3, 
			 "cosmo_cavitation_energy": 26.2, 
			 "cosmo_dispersion_energy": -17.32, 
			 "cosmo_repulsion_energy": 1.4, 
			 "cosmo_total_nonelectrostatic_energy": 10.29, 
			 "SMD_solvation_energy": 7.52 
		},
		"coords": [
			{
				"x": -0.1559807056,
				"y": 3.6909734069,
				"z": -0.8446575061,
				"element": "O" 
			},
			{
				"x": 0.6839988094,
				"y": 2.5194685342,
				"z": -0.8631786691,
				"element": "C" 
			},
			{
				"x": 0.8270153761,
				"y": 1.9840752594,
				"z": 0.5477048735,
				"element": "C" 
			},
			{
				"x": 0.4987136045,
				"y": 0.7462580841,
				"z": 0.9131968922,
				"element": "C" 
			},
			{
				"x": -0.0154091458,
				"y": -0.3060068428,
				"z": -0.0454616263,
				"element": "C" 
			},
			{
				"x": -1.269308615,
				"y": -0.7581499492,
				"z": 0.5026017864,
				"element": "O" 
			},
			{
				"x": -0.2260403597,
				"y": 0.2484125158,
				"z": -1.4415949443,
				"element": "C" 
			},
			{
				"x": 0.0912071591,
				"y": 1.4902272022,
				"z": -1.8048577808,
				"element": "C" 
			},
			{
				"x": 0.9380779175,
				"y": -1.433162342,
				"z": -0.106670325,
				"element": "C" 
			},
			{
				"x": 1.6851832932,
				"y": -2.3808760928,
				"z": -0.1715444123,
				"element": "C" 
			},
			{
				"x": 1.996469317,
				"y": 2.957607155,
				"z": -1.3672478273,
				"element": "C" 
			},
			{
				"x": 3.084132838,
				"y": 3.2824915468,
				"z": -1.7775001731,
				"element": "C" 
			},
			{
				"x": -1.0140596479,
				"y": 3.397369432,
				"z": -0.5041933464,
				"element": "H" 
			},
			{
				"x": 1.1922702091,
				"y": 2.7048727085,
				"z": 1.2737640063,
				"element": "H" 
			},
			{
				"x": 0.5819651615,
				"y": 0.4205196442,
				"z": 1.945827123,
				"element": "H" 
			},
			{
				"x": -1.4746725116,
				"y": -1.6093148291,
				"z": 0.0908037297,
				"element": "H" 
			},
			{
				"x": -0.6677621787,
				"y": -0.4429038442,
				"z": -2.1558394962,
				"element": "H" 
			},
			{
				"x": -0.0901015394,
				"y": 1.8463269297,
				"z": -2.8151137703,
				"element": "H" 
			},
			{
				"x": 2.3599044794,
				"y": -3.2041264697,
				"z": -0.2233137051,
				"element": "H" 
			},
			{
				"x": 4.0428965389,
				"y": 3.574037951,
				"z": -2.1393248289,
				"element": "H" 
			}
		],
		 "valence_orbital": [ 
			{
				"type": "occ",
				"energy": -0.28093,
				"method": "rhf"
			},
			{
				"type": "occ",
				"energy": -0.27689,
				"method": "rhf"
			},
			{
				"type": "occ",
				"energy": -0.26544,
				"method": "rhf"
			},
			{
				"type": "occ",
				"energy": -0.26419,
				"method": "rhf"
			},
			{
				"type": "occ",
				"energy": -0.25374,
				"method": "rhf"
			},
			{
				"type": "unocc",
				"energy": -0.02585,
				"method": "rhf"
			},
			{
				"type": "unocc",
				"energy": -0.00702,
				"method": "rhf"
			},
			{
				"type": "unocc",
				"energy": 0.03676,
				"method": "rhf"
			},
			{
				"type": "unocc",
				"energy": 0.05486,
				"method": "rhf"
			},
			{
				"type": "unocc",
				"energy": 0.0704,
				"method": "rhf"
			}
		],
		"cosmo_sigma_profile": { 
			"-0.025": 0.0,
			"-0.024": 0.0,
			"-0.023": 0.0,
			"-0.022": 0.0,
			"-0.021": 0.0,
			"-0.02": 0.0,
			"-0.019": 0.0,
			"-0.018": 0.0,
			"-0.017": 0.0503317425328,
			"-0.016": 1.32371527656,
			"-0.015": 1.49763957171,
			"-0.014": 1.67164409554,
			"-0.013": 2.11283998151,
			"-0.012": 3.76249088731,
			"-0.011": 2.83104501856,
			"-0.01": 3.76809829796,
			"-0.009": 4.94530613188,
			"-0.008": 4.98314914829,
			"-0.007": 6.67509210677,
			"-0.006": 11.4841441615,
			"-0.005": 9.32957771261,
			"-0.004": 9.61777810233,
			"-0.003": 8.79591446778,
			"-0.002": 9.85062385417,
			"-0.001": 9.28384300119,
			"0.0": 10.9177332637,
			"0.001": 9.01965958024,
			"0.002": 13.3915241509,
			"0.003": 13.6472561945,
			"0.004": 17.5468935221,
			"0.005": 16.1020438224,
			"0.006": 13.6429737752,
			"0.007": 5.46388919892,
			"0.008": 2.62469927702,
			"0.009": 3.51906166568,
			"0.01": 2.49456334451,
			"0.011": 3.0379496846,
			"0.012": 4.3073462696,
			"0.013": 2.8196755365,
			"0.014": 0.0455633619821,
			"0.015": 0.0,
			"0.016": 0.0,
			"0.017": 0.0,
			"0.018": 0.0,
			"0.019": 0.0,
			"0.02": 0.0,
			"0.021": 0.0,
			"0.022": 0.0,
			"0.023": 0.0,
			"0.024": 0.0,
			"0.025": 0.0
		}
	}
}
