{
	 "smiles": "CN1CC2=C(NC1=O)C=CC=C2", 
	 "Tm": 475.15, 
	 "num_atms": 22, 
	 "gaussian": { 
		 "optdone": 1, 
		 "sigma_profile": "yes", 
		 "theory": "DFT", 
		 "functional": "B3LYP", 
		 "basiset": "6-31G**", 
		 "properties": { 
			 "R2extent": 2446.5795, 
			 "electric_dipole_moment_norm": 2.97792130689, 
			 "electric_quadrupole_moment_norm": 18.1121707374, 
			 "total_energy": -533.742639875, 
			 "HOMO_LUMO_gap": 0.20447, 
			 "cosmo_polarized_energy": -11.57, 
			 "cosmo_cavitation_energy": 24.91, 
			 "cosmo_dispersion_energy": -18.83, 
			 "cosmo_repulsion_energy": 1.48, 
			 "cosmo_total_nonelectrostatic_energy": 7.56, 
			 "SMD_solvation_energy": 4.1 
		},
		"coords": [
			{
				"x": 2.3039098655,
				"y": -3.064879607,
				"z": 0.7896154018,
				"element": "C" 
			},
			{
				"x": 1.8741939903,
				"y": -1.6991478073,
				"z": 0.5364422114,
				"element": "N" 
			},
			{
				"x": 0.4863431857,
				"y": -1.5241516419,
				"z": 0.1078166794,
				"element": "C" 
			},
			{
				"x": 0.0508681028,
				"y": -0.0832741224,
				"z": 0.1980285173,
				"element": "C" 
			},
			{
				"x": 1.0332710789,
				"y": 0.9065258232,
				"z": 0.0473077881,
				"element": "C" 
			},
			{
				"x": 2.3574121993,
				"y": 0.4932942897,
				"z": -0.1169454516,
				"element": "N" 
			},
			{
				"x": 2.843572353,
				"y": -0.7609702241,
				"z": 0.2535246026,
				"element": "C" 
			},
			{
				"x": 4.0496735135,
				"y": -0.9644762937,
				"z": 0.3332471776,
				"element": "O" 
			},
			{
				"x": 0.6785750628,
				"y": 2.2608482148,
				"z": 0.0580069656,
				"element": "C" 
			},
			{
				"x": -0.6575760479,
				"y": 2.6233815173,
				"z": 0.2189718849,
				"element": "C" 
			},
			{
				"x": -1.6416829324,
				"y": 1.6462198718,
				"z": 0.3826985488,
				"element": "C" 
			},
			{
				"x": -1.2782607659,
				"y": 0.297817981,
				"z": 0.3751012237,
				"element": "C" 
			},
			{
				"x": 1.7084828494,
				"y": -3.4964186684,
				"z": 1.6017231709,
				"element": "H" 
			},
			{
				"x": 2.1851704712,
				"y": -3.6974192435,
				"z": -0.1022860363,
				"element": "H" 
			},
			{
				"x": 3.3554689546,
				"y": -3.0494263419,
				"z": 1.070944726,
				"element": "H" 
			},
			{
				"x": 0.3552618473,
				"y": -1.9035404621,
				"z": -0.9227113427,
				"element": "H" 
			},
			{
				"x": -0.1455475629,
				"y": -2.1491560444,
				"z": 0.7496768513,
				"element": "H" 
			},
			{
				"x": 3.0875398803,
				"y": 1.1875204869,
				"z": -0.1879932253,
				"element": "H" 
			},
			{
				"x": 1.4473491008,
				"y": 3.0206797756,
				"z": -0.0556606048,
				"element": "H" 
			},
			{
				"x": -0.9273856581,
				"y": 3.6753716317,
				"z": 0.2252772411,
				"element": "H" 
			},
			{
				"x": -2.6806071891,
				"y": 1.930094351,
				"z": 0.5166443562,
				"element": "H" 
			},
			{
				"x": -2.037832299,
				"y": -0.4700934865,
				"z": 0.501369314,
				"element": "H" 
			}
		],
		 "valence_orbital": [ 
			{
				"type": "occ",
				"energy": -0.30657,
				"method": "rhf"
			},
			{
				"type": "occ",
				"energy": -0.26066,
				"method": "rhf"
			},
			{
				"type": "occ",
				"energy": -0.25465,
				"method": "rhf"
			},
			{
				"type": "occ",
				"energy": -0.23838,
				"method": "rhf"
			},
			{
				"type": "occ",
				"energy": -0.21384,
				"method": "rhf"
			},
			{
				"type": "unocc",
				"energy": -0.00937,
				"method": "rhf"
			},
			{
				"type": "unocc",
				"energy": -0.00189,
				"method": "rhf"
			},
			{
				"type": "unocc",
				"energy": 0.06305,
				"method": "rhf"
			},
			{
				"type": "unocc",
				"energy": 0.0887,
				"method": "rhf"
			},
			{
				"type": "unocc",
				"energy": 0.09443,
				"method": "rhf"
			}
		],
		"cosmo_sigma_profile": { 
			"-0.025": 0.0,
			"-0.024": 0.0,
			"-0.023": 0.0,
			"-0.022": 0.0,
			"-0.021": 0.0,
			"-0.02": 0.0,
			"-0.019": 0.0,
			"-0.018": 0.0,
			"-0.017": 0.0,
			"-0.016": 0.0,
			"-0.015": 0.0407332977965,
			"-0.014": 0.926304496979,
			"-0.013": 1.22751900994,
			"-0.012": 1.53268352689,
			"-0.011": 0.933533039499,
			"-0.01": 0.840612837841,
			"-0.009": 1.06823278566,
			"-0.008": 1.02177261456,
			"-0.007": 2.17094731258,
			"-0.006": 9.28602557279,
			"-0.005": 16.0237847925,
			"-0.004": 22.2078648002,
			"-0.003": 20.7188968506,
			"-0.002": 16.157068333,
			"-0.001": 12.8896212669,
			"0.0": 10.6901615516,
			"0.001": 8.56635309723,
			"0.002": 10.7542160631,
			"0.003": 12.6317736969,
			"0.004": 10.6244718055,
			"0.005": 10.7858106034,
			"0.006": 8.40610371053,
			"0.007": 1.52523571205,
			"0.008": 1.77353168816,
			"0.009": 0.741162251743,
			"0.01": 1.34591783379,
			"0.011": 1.34738617867,
			"0.012": 1.85565726427,
			"0.013": 2.55257833018,
			"0.014": 6.06759577036,
			"0.015": 0.988321673764,
			"0.016": 0.0,
			"0.017": 0.0,
			"0.018": 0.0,
			"0.019": 0.0,
			"0.02": 0.0,
			"0.021": 0.0,
			"0.022": 0.0,
			"0.023": 0.0,
			"0.024": 0.0,
			"0.025": 0.0
		}
	}
}
