{
	 "smiles": "CC1=CC(C)=C2C=CC=CC2=C1C", 
	 "Tm": 328.65, 
	 "num_atms": 27, 
	 "gaussian": { 
		 "optdone": 1, 
		 "sigma_profile": "yes", 
		 "theory": "DFT", 
		 "functional": "B3LYP", 
		 "basiset": "6-31G**", 
		 "properties": { 
			 "R2extent": 2705.4513, 
			 "electric_dipole_moment_norm": 0.4523683897, 
			 "electric_quadrupole_moment_norm": 7.36698532644, 
			 "total_energy": -503.85105359, 
			 "HOMO_LUMO_gap": 0.16808, 
			 "cosmo_polarized_energy": -4.55, 
			 "cosmo_cavitation_energy": 28.51, 
			 "cosmo_dispersion_energy": -21.06, 
			 "cosmo_repulsion_energy": 1.63, 
			 "cosmo_total_nonelectrostatic_energy": 9.08, 
			 "SMD_solvation_energy": 4.58 
		},
		"coords": [
			{
				"x": -2.2043361891,
				"y": -0.2045076448,
				"z": -2.4639446025,
				"element": "C" 
			},
			{
				"x": -1.626016093,
				"y": 0.0984661412,
				"z": -1.0966252232,
				"element": "C" 
			},
			{
				"x": -2.4812413289,
				"y": 0.6842850017,
				"z": -0.1248782259,
				"element": "C" 
			},
			{
				"x": -2.071788016,
				"y": 1.0044932671,
				"z": 1.1496590299,
				"element": "C" 
			},
			{
				"x": -3.0381558549,
				"y": 1.6255031708,
				"z": 2.129424386,
				"element": "C" 
			},
			{
				"x": -0.7149569259,
				"y": 0.733644286,
				"z": 1.5152191384,
				"element": "C" 
			},
			{
				"x": -0.2124498132,
				"y": 1.0338256623,
				"z": 2.8106224173,
				"element": "C" 
			},
			{
				"x": 1.0952070145,
				"y": 0.7695809402,
				"z": 3.1536095137,
				"element": "C" 
			},
			{
				"x": 1.9661419767,
				"y": 0.1878369939,
				"z": 2.2067444922,
				"element": "C" 
			},
			{
				"x": 1.5114340115,
				"y": -0.1157429172,
				"z": 0.9419672696,
				"element": "C" 
			},
			{
				"x": 0.1676298296,
				"y": 0.1419773279,
				"z": 0.5495302269,
				"element": "C" 
			},
			{
				"x": -0.3053952789,
				"y": -0.1746442827,
				"z": -0.768360463,
				"element": "C" 
			},
			{
				"x": 0.6449841127,
				"y": -0.7975327916,
				"z": -1.7667131482,
				"element": "C" 
			},
			{
				"x": -3.2568562103,
				"y": 0.0871407052,
				"z": -2.5110636462,
				"element": "H" 
			},
			{
				"x": -2.1497446251,
				"y": -1.2719396922,
				"z": -2.7068804822,
				"element": "H" 
			},
			{
				"x": -1.6798757076,
				"y": 0.3341771344,
				"z": -3.2615504027,
				"element": "H" 
			},
			{
				"x": -3.5115045923,
				"y": 0.8875771115,
				"z": -0.4092225269,
				"element": "H" 
			},
			{
				"x": -4.0222533451,
				"y": 1.7555996224,
				"z": 1.6717252147,
				"element": "H" 
			},
			{
				"x": -3.1669965523,
				"y": 1.0047492632,
				"z": 3.0242319093,
				"element": "H" 
			},
			{
				"x": -2.6969984414,
				"y": 2.6104703349,
				"z": 2.4701264821,
				"element": "H" 
			},
			{
				"x": -0.8761908393,
				"y": 1.4809919579,
				"z": 3.5431915756,
				"element": "H" 
			},
			{
				"x": 1.4569034808,
				"y": 1.0076832268,
				"z": 4.1498534706,
				"element": "H" 
			},
			{
				"x": 2.9976468574,
				"y": -0.0208565822,
				"z": 2.4765151767,
				"element": "H" 
			},
			{
				"x": 2.1959255427,
				"y": -0.5620438784,
				"z": 0.2292697911,
				"element": "H" 
			},
			{
				"x": 0.1629724242,
				"y": -0.9880352471,
				"z": -2.7256594114,
				"element": "H" 
			},
			{
				"x": 1.0395315434,
				"y": -1.7542847128,
				"z": -1.4038912323,
				"element": "H" 
			},
			{
				"x": 1.5086830199,
				"y": -0.1495143988,
				"z": -1.9585007296,
				"element": "H" 
			}
		],
		 "valence_orbital": [ 
			{
				"type": "occ",
				"energy": -0.31354,
				"method": "rhf"
			},
			{
				"type": "occ",
				"energy": -0.30571,
				"method": "rhf"
			},
			{
				"type": "occ",
				"energy": -0.2627,
				"method": "rhf"
			},
			{
				"type": "occ",
				"energy": -0.23107,
				"method": "rhf"
			},
			{
				"type": "occ",
				"energy": -0.20043,
				"method": "rhf"
			},
			{
				"type": "unocc",
				"energy": -0.03235,
				"method": "rhf"
			},
			{
				"type": "unocc",
				"energy": 0.00034,
				"method": "rhf"
			},
			{
				"type": "unocc",
				"energy": 0.04366,
				"method": "rhf"
			},
			{
				"type": "unocc",
				"energy": 0.09594,
				"method": "rhf"
			},
			{
				"type": "unocc",
				"energy": 0.09841,
				"method": "rhf"
			}
		],
		"cosmo_sigma_profile": { 
			"-0.025": 0.0,
			"-0.024": 0.0,
			"-0.023": 0.0,
			"-0.022": 0.0,
			"-0.021": 0.0,
			"-0.02": 0.0,
			"-0.019": 0.0,
			"-0.018": 0.0,
			"-0.017": 0.0,
			"-0.016": 0.0,
			"-0.015": 0.0,
			"-0.014": 0.0,
			"-0.013": 0.0,
			"-0.012": 0.0,
			"-0.011": 0.0,
			"-0.01": 0.0,
			"-0.009": 0.0,
			"-0.008": 0.0,
			"-0.007": 0.0,
			"-0.006": 0.989277447479,
			"-0.005": 7.68727586199,
			"-0.004": 25.7078892529,
			"-0.003": 31.497772823,
			"-0.002": 23.0323670275,
			"-0.001": 21.8831542283,
			"0.0": 27.1920691197,
			"0.001": 18.9455257129,
			"0.002": 12.5598282423,
			"0.003": 9.88996985466,
			"0.004": 12.1590601291,
			"0.005": 19.5445252896,
			"0.006": 13.8308599904,
			"0.007": 0.571535153038,
			"0.008": 0.0,
			"0.009": 0.0,
			"0.01": 0.0,
			"0.011": 0.0,
			"0.012": 0.0,
			"0.013": 0.0,
			"0.014": 0.0,
			"0.015": 0.0,
			"0.016": 0.0,
			"0.017": 0.0,
			"0.018": 0.0,
			"0.019": 0.0,
			"0.02": 0.0,
			"0.021": 0.0,
			"0.022": 0.0,
			"0.023": 0.0,
			"0.024": 0.0,
			"0.025": 0.0
		}
	}
}
