{
	 "smiles": "CC(=O)C1=NC2=C(C=CC=C2)N1C(F)F", 
	 "Tm": 339.15, 
	 "num_atms": 23, 
	 "gaussian": { 
		 "optdone": 1, 
		 "sigma_profile": "yes", 
		 "theory": "DFT", 
		 "functional": "B3LYP", 
		 "basiset": "6-31G**", 
		 "properties": { 
			 "R2extent": 3251.6657, 
			 "electric_dipole_moment_norm": 3.46640235835, 
			 "electric_quadrupole_moment_norm": 10.4098704195, 
			 "total_energy": -770.292637017, 
			 "HOMO_LUMO_gap": 0.17222, 
			 "cosmo_polarized_energy": -11.8, 
			 "cosmo_cavitation_energy": 28.19, 
			 "cosmo_dispersion_energy": -20.33, 
			 "cosmo_repulsion_energy": 1.54, 
			 "cosmo_total_nonelectrostatic_energy": 9.39, 
			 "SMD_solvation_energy": 4.48 
		},
		"coords": [
			{
				"x": -0.9055432574,
				"y": 2.6342352599,
				"z": -2.5625700721,
				"element": "C" 
			},
			{
				"x": 0.3337277562,
				"y": 2.1335917884,
				"z": -1.8540989379,
				"element": "C" 
			},
			{
				"x": 1.409107384,
				"y": 2.7027767015,
				"z": -1.9144785325,
				"element": "O" 
			},
			{
				"x": 0.1621853854,
				"y": 0.8817186248,
				"z": -1.0603432166,
				"element": "C" 
			},
			{
				"x": -0.9827917061,
				"y": 0.2450937305,
				"z": -0.9749562912,
				"element": "N" 
			},
			{
				"x": -0.7522854038,
				"y": -0.8486191073,
				"z": -0.1669990956,
				"element": "C" 
			},
			{
				"x": 0.5982561111,
				"y": -0.8694704632,
				"z": 0.2535973239,
				"element": "C" 
			},
			{
				"x": 1.0976815692,
				"y": -1.8779155573,
				"z": 1.0849786039,
				"element": "C" 
			},
			{
				"x": 0.2005246561,
				"y": -2.8645156895,
				"z": 1.4812722826,
				"element": "C" 
			},
			{
				"x": -1.149246042,
				"y": -2.8554170031,
				"z": 1.0688569224,
				"element": "C" 
			},
			{
				"x": -1.6406093924,
				"y": -1.8534881889,
				"z": 0.2442755925,
				"element": "C" 
			},
			{
				"x": 1.1799663462,
				"y": 0.2533185661,
				"z": -0.3296021582,
				"element": "N" 
			},
			{
				"x": 2.5592818001,
				"y": 0.6176866449,
				"z": -0.1601270473,
				"element": "C" 
			},
			{
				"x": 3.2068497602,
				"y": 0.640858117,
				"z": -1.3466301619,
				"element": "F" 
			},
			{
				"x": 2.6746792619,
				"y": 1.8343839333,
				"z": 0.417812928,
				"element": "F" 
			},
			{
				"x": -1.2842263631,
				"y": 1.8757697855,
				"z": -3.2542138488,
				"element": "H" 
			},
			{
				"x": -1.7070641899,
				"y": 2.8262513155,
				"z": -1.8430245671,
				"element": "H" 
			},
			{
				"x": -0.6536200193,
				"y": 3.5475849207,
				"z": -3.1022683847,
				"element": "H" 
			},
			{
				"x": 2.1305402894,
				"y": -1.9079556036,
				"z": 1.4161077008,
				"element": "H" 
			},
			{
				"x": 0.5507875757,
				"y": -3.6641956344,
				"z": 2.1267921428,
				"element": "H" 
			},
			{
				"x": -1.809356342,
				"y": -3.6485315843,
				"z": 1.4058398138,
				"element": "H" 
			},
			{
				"x": -2.6750670096,
				"y": -1.8318250241,
				"z": -0.0817078435,
				"element": "H" 
			},
			{
				"x": 3.03732183,
				"y": -0.1239355325,
				"z": 0.4856868467,
				"element": "H" 
			}
		],
		 "valence_orbital": [ 
			{
				"type": "occ",
				"energy": -0.32754,
				"method": "rhf"
			},
			{
				"type": "occ",
				"energy": -0.29702,
				"method": "rhf"
			},
			{
				"type": "occ",
				"energy": -0.25976,
				"method": "rhf"
			},
			{
				"type": "occ",
				"energy": -0.24911,
				"method": "rhf"
			},
			{
				"type": "occ",
				"energy": -0.24693,
				"method": "rhf"
			},
			{
				"type": "unocc",
				"energy": -0.07471,
				"method": "rhf"
			},
			{
				"type": "unocc",
				"energy": -0.00894,
				"method": "rhf"
			},
			{
				"type": "unocc",
				"energy": 0.00542,
				"method": "rhf"
			},
			{
				"type": "unocc",
				"energy": 0.06515,
				"method": "rhf"
			},
			{
				"type": "unocc",
				"energy": 0.0763,
				"method": "rhf"
			}
		],
		"cosmo_sigma_profile": { 
			"-0.025": 0.0,
			"-0.024": 0.0,
			"-0.023": 0.0,
			"-0.022": 0.0,
			"-0.021": 0.0,
			"-0.02": 0.0,
			"-0.019": 0.0,
			"-0.018": 0.0,
			"-0.017": 0.0,
			"-0.016": 0.0,
			"-0.015": 0.0,
			"-0.014": 0.0,
			"-0.013": 0.0,
			"-0.012": 2.00102836344,
			"-0.011": 3.10508487247,
			"-0.01": 1.87473130945,
			"-0.009": 2.35928365827,
			"-0.008": 1.9917398684,
			"-0.007": 4.10596574723,
			"-0.006": 13.8015253674,
			"-0.005": 16.1016255392,
			"-0.004": 15.6629976678,
			"-0.003": 14.5657058976,
			"-0.002": 18.2280444938,
			"-0.001": 16.1620335716,
			"0.0": 11.9956063825,
			"0.001": 12.9489125594,
			"0.002": 15.2557412237,
			"0.003": 23.4883342964,
			"0.004": 19.7541046002,
			"0.005": 6.91195942987,
			"0.006": 3.57032969565,
			"0.007": 3.4356716269,
			"0.008": 3.62268918077,
			"0.009": 3.74488394436,
			"0.01": 3.76928344989,
			"0.011": 4.71841870392,
			"0.012": 2.29219832177,
			"0.013": 0.657587293972,
			"0.014": 0.301826012248,
			"0.015": 0.0,
			"0.016": 0.0,
			"0.017": 0.0,
			"0.018": 0.0,
			"0.019": 0.0,
			"0.02": 0.0,
			"0.021": 0.0,
			"0.022": 0.0,
			"0.023": 0.0,
			"0.024": 0.0,
			"0.025": 0.0
		}
	}
}
