{
	 "smiles": "OC(=O)C1CCN(CC1)C(=O)NC1CC1", 
	 "Tm": 397.15, 
	 "num_atms": 31, 
	 "gaussian": { 
		 "optdone": 1, 
		 "sigma_profile": "yes", 
		 "theory": "DFT", 
		 "functional": "B3LYP", 
		 "basiset": "6-31G**", 
		 "properties": { 
			 "R2extent": 3977.7921, 
			 "electric_dipole_moment_norm": 1.94682752446, 
			 "electric_quadrupole_moment_norm": 31.4396033742, 
			 "total_energy": -725.878815062, 
			 "HOMO_LUMO_gap": 0.24214, 
			 "cosmo_polarized_energy": -21.79, 
			 "cosmo_cavitation_energy": 32.65, 
			 "cosmo_dispersion_energy": -22.9, 
			 "cosmo_repulsion_energy": 1.8, 
			 "cosmo_total_nonelectrostatic_energy": 11.55, 
			 "SMD_solvation_energy": 5.61 
		},
		"coords": [
			{
				"x": 3.719066994,
				"y": 1.2423695807,
				"z": -1.7841917994,
				"element": "O" 
			},
			{
				"x": 2.4089588534,
				"y": 0.9576786394,
				"z": -2.0244196277,
				"element": "C" 
			},
			{
				"x": 1.8680801834,
				"y": 1.4077920503,
				"z": -3.0036342699,
				"element": "O" 
			},
			{
				"x": 1.7244662325,
				"y": 0.0782647907,
				"z": -0.9798773469,
				"element": "C" 
			},
			{
				"x": 1.6301646713,
				"y": 0.7937656181,
				"z": 0.3892885602,
				"element": "C" 
			},
			{
				"x": 0.8808819532,
				"y": -0.0665191558,
				"z": 1.4110083467,
				"element": "C" 
			},
			{
				"x": -0.4423617418,
				"y": -0.4255642383,
				"z": 0.9000608311,
				"element": "N" 
			},
			{
				"x": -0.3882224792,
				"y": -1.1682520363,
				"z": -0.3635874282,
				"element": "C" 
			},
			{
				"x": 0.3277937281,
				"y": -0.3531936708,
				"z": -1.4440115978,
				"element": "C" 
			},
			{
				"x": -1.4121845358,
				"y": -0.6737829006,
				"z": 1.8685136251,
				"element": "C" 
			},
			{
				"x": -1.1636371464,
				"y": -0.6397449504,
				"z": 3.0712690682,
				"element": "O" 
			},
			{
				"x": -2.7001680101,
				"y": -0.9574030892,
				"z": 1.4283482362,
				"element": "N" 
			},
			{
				"x": -3.3778037731,
				"y": -0.4424496821,
				"z": 0.2668904863,
				"element": "C" 
			},
			{
				"x": -3.1852063901,
				"y": 0.9917852237,
				"z": -0.163943441,
				"element": "C" 
			},
			{
				"x": -4.4852220046,
				"y": 0.5671211223,
				"z": 0.4666272935,
				"element": "C" 
			},
			{
				"x": 4.0154435565,
				"y": 0.8010578572,
				"z": -0.9755913076,
				"element": "H" 
			},
			{
				"x": 2.3474907444,
				"y": -0.8213945916,
				"z": -0.8466616353,
				"element": "H" 
			},
			{
				"x": 1.1033965285,
				"y": 1.7466100842,
				"z": 0.2602777223,
				"element": "H" 
			},
			{
				"x": 2.6262058597,
				"y": 1.0277332546,
				"z": 0.7854013482,
				"element": "H" 
			},
			{
				"x": 1.4658889091,
				"y": -0.9748512155,
				"z": 1.635206199,
				"element": "H" 
			},
			{
				"x": 0.7472065925,
				"y": 0.4641178165,
				"z": 2.3533188388,
				"element": "H" 
			},
			{
				"x": 0.1446067783,
				"y": -2.1224114046,
				"z": -0.20528078,
				"element": "H" 
			},
			{
				"x": -1.3946286363,
				"y": -1.4159692819,
				"z": -0.6927453601,
				"element": "H" 
			},
			{
				"x": 0.402906608,
				"y": -0.9428931195,
				"z": -2.3632563762,
				"element": "H" 
			},
			{
				"x": -0.2575897343,
				"y": 0.5393404532,
				"z": -1.685478889,
				"element": "H" 
			},
			{
				"x": -3.2887762292,
				"y": -1.1519429498,
				"z": 2.2277020543,
				"element": "H" 
			},
			{
				"x": -3.5449316997,
				"y": -1.1680495897,
				"z": -0.5292227475,
				"element": "H" 
			},
			{
				"x": -3.1658052458,
				"y": 1.2022261573,
				"z": -1.2288574401,
				"element": "H" 
			},
			{
				"x": -2.5093542842,
				"y": 1.599148226,
				"z": 0.4276307279,
				"element": "H" 
			},
			{
				"x": -4.6785050775,
				"y": 0.8957375712,
				"z": 1.4835935452,
				"element": "H" 
			},
			{
				"x": -5.369361205,
				"y": 0.4816734305,
				"z": -0.1574768362,
				"element": "H" 
			}
		],
		 "valence_orbital": [ 
			{
				"type": "occ",
				"energy": -0.30571,
				"method": "rhf"
			},
			{
				"type": "occ",
				"energy": -0.27207,
				"method": "rhf"
			},
			{
				"type": "occ",
				"energy": -0.26279,
				"method": "rhf"
			},
			{
				"type": "occ",
				"energy": -0.24619,
				"method": "rhf"
			},
			{
				"type": "occ",
				"energy": -0.23608,
				"method": "rhf"
			},
			{
				"type": "unocc",
				"energy": 0.00606,
				"method": "rhf"
			},
			{
				"type": "unocc",
				"energy": 0.03634,
				"method": "rhf"
			},
			{
				"type": "unocc",
				"energy": 0.04868,
				"method": "rhf"
			},
			{
				"type": "unocc",
				"energy": 0.07689,
				"method": "rhf"
			},
			{
				"type": "unocc",
				"energy": 0.09121,
				"method": "rhf"
			}
		],
		"cosmo_sigma_profile": { 
			"-0.025": 0.0,
			"-0.024": 0.0,
			"-0.023": 0.0,
			"-0.022": 0.0,
			"-0.021": 0.0,
			"-0.02": 0.0,
			"-0.019": 0.238442034793,
			"-0.018": 0.897348580129,
			"-0.017": 0.969107923253,
			"-0.016": 1.41556901167,
			"-0.015": 0.839692207834,
			"-0.014": 0.912258415579,
			"-0.013": 0.758382976686,
			"-0.012": 2.14832891383,
			"-0.011": 2.34382170492,
			"-0.01": 2.23695024955,
			"-0.009": 1.30917171573,
			"-0.008": 1.89516654564,
			"-0.007": 3.64819378888,
			"-0.006": 8.15108333361,
			"-0.005": 17.6730428262,
			"-0.004": 29.7213103092,
			"-0.003": 29.8750674675,
			"-0.002": 23.425294383,
			"-0.001": 19.0194152132,
			"0.0": 17.224924081,
			"0.001": 10.7507081046,
			"0.002": 7.80464314214,
			"0.003": 8.73457459804,
			"0.004": 8.33114473124,
			"0.005": 4.77898519619,
			"0.006": 3.43362341809,
			"0.007": 5.20541354747,
			"0.008": 4.47499445172,
			"0.009": 4.13103159745,
			"0.01": 5.6988152367,
			"0.011": 6.14222576739,
			"0.012": 7.4667362769,
			"0.013": 4.19089172382,
			"0.014": 5.16261286386,
			"0.015": 3.27323566076,
			"0.016": 0.0926022994982,
			"0.017": 0.0,
			"0.018": 0.0,
			"0.019": 0.0,
			"0.02": 0.0,
			"0.021": 0.0,
			"0.022": 0.0,
			"0.023": 0.0,
			"0.024": 0.0,
			"0.025": 0.0
		}
	}
}
