{
	 "smiles": "COC1=C(C=CC=C1)C(C)NC(=O)C(C)Cl", 
	 "Tm": 383.15, 
	 "num_atms": 32, 
	 "gaussian": { 
		 "optdone": 1, 
		 "sigma_profile": "yes", 
		 "theory": "DFT", 
		 "functional": "B3LYP", 
		 "basiset": "6-31G**", 
		 "properties": { 
			 "R2extent": 5120.7941, 
			 "electric_dipole_moment_norm": 4.61002573312, 
			 "electric_quadrupole_moment_norm": 12.7191803352, 
			 "total_energy": -1132.3235712, 
			 "HOMO_LUMO_gap": 0.20884, 
			 "cosmo_polarized_energy": -13.6, 
			 "cosmo_cavitation_energy": 36.31, 
			 "cosmo_dispersion_energy": -24.48, 
			 "cosmo_repulsion_energy": 1.94, 
			 "cosmo_total_nonelectrostatic_energy": 13.78, 
			 "SMD_solvation_energy": 7.4 
		},
		"coords": [
			{
				"x": 0.4563372404,
				"y": 3.7759856985,
				"z": -2.2070711983,
				"element": "C" 
			},
			{
				"x": 0.2707153564,
				"y": 2.5033948205,
				"z": -1.6068574582,
				"element": "O" 
			},
			{
				"x": 0.4798429584,
				"y": 2.3791223315,
				"z": -0.2571503593,
				"element": "C" 
			},
			{
				"x": 0.1860306303,
				"y": 1.1104994644,
				"z": 0.2877510824,
				"element": "C" 
			},
			{
				"x": 0.370853212,
				"y": 0.9226152557,
				"z": 1.6560516083,
				"element": "C" 
			},
			{
				"x": 0.8442308467,
				"y": 1.9497341813,
				"z": 2.4782993207,
				"element": "C" 
			},
			{
				"x": 1.1318059913,
				"y": 3.1924680616,
				"z": 1.9239395814,
				"element": "C" 
			},
			{
				"x": 0.9479849346,
				"y": 3.4145284118,
				"z": 0.5560625315,
				"element": "C" 
			},
			{
				"x": -0.2989252389,
				"y": -0.0003256304,
				"z": -0.6444110175,
				"element": "C" 
			},
			{
				"x": 0.8612244899,
				"y": -0.5754164107,
				"z": -1.4792206836,
				"element": "C" 
			},
			{
				"x": -0.9630975778,
				"y": -1.0955414012,
				"z": 0.058689393,
				"element": "N" 
			},
			{
				"x": -2.2882267758,
				"y": -1.3976691195,
				"z": 0.2039474279,
				"element": "C" 
			},
			{
				"x": -2.6522933456,
				"y": -2.3494676526,
				"z": 0.8829658888,
				"element": "O" 
			},
			{
				"x": -3.3170088437,
				"y": -0.5437058226,
				"z": -0.5588659122,
				"element": "C" 
			},
			{
				"x": -4.6656972334,
				"y": -1.2355355147,
				"z": -0.6422001783,
				"element": "C" 
			},
			{
				"x": -3.4924626875,
				"y": 1.0745223602,
				"z": 0.2907385834,
				"element": "Cl" 
			},
			{
				"x": -0.2001046718,
				"y": 4.5320516833,
				"z": -1.7588141598,
				"element": "H" 
			},
			{
				"x": 1.4980320661,
				"y": 4.1123989967,
				"z": -2.1290510875,
				"element": "H" 
			},
			{
				"x": 0.197941636,
				"y": 3.6532887293,
				"z": -3.2600554816,
				"element": "H" 
			},
			{
				"x": 0.1191794417,
				"y": -0.0370746792,
				"z": 2.0962508531,
				"element": "H" 
			},
			{
				"x": 0.9758014237,
				"y": 1.7763988039,
				"z": 3.5417022784,
				"element": "H" 
			},
			{
				"x": 1.4958524151,
				"y": 4.0023964848,
				"z": 2.5494539301,
				"element": "H" 
			},
			{
				"x": 1.1677676465,
				"y": 4.389612136,
				"z": 0.137998853,
				"element": "H" 
			},
			{
				"x": -1.0192234179,
				"y": 0.444894498,
				"z": -1.3335687211,
				"element": "H" 
			},
			{
				"x": 1.3566855894,
				"y": 0.2228060311,
				"z": -2.0351277947,
				"element": "H" 
			},
			{
				"x": 0.4903917219,
				"y": -1.3236282043,
				"z": -2.1864393966,
				"element": "H" 
			},
			{
				"x": 1.6036102335,
				"y": -1.0508390022,
				"z": -0.8283280824,
				"element": "H" 
			},
			{
				"x": -0.3723420668,
				"y": -1.7357018859,
				"z": 0.5758566204,
				"element": "H" 
			},
			{
				"x": -2.9470669648,
				"y": -0.2908357068,
				"z": -1.5546811806,
				"element": "H" 
			},
			{
				"x": -5.3916442319,
				"y": -0.5949258128,
				"z": -1.1476022757,
				"element": "H" 
			},
			{
				"x": -5.0257776316,
				"y": -1.4891114088,
				"z": 0.3553736328,
				"element": "H" 
			},
			{
				"x": -4.5588171465,
				"y": -2.167039697,
				"z": -1.2073365975,
				"element": "H" 
			}
		],
		 "valence_orbital": [ 
			{
				"type": "occ",
				"energy": -0.29465,
				"method": "rhf"
			},
			{
				"type": "occ",
				"energy": -0.25437,
				"method": "rhf"
			},
			{
				"type": "occ",
				"energy": -0.25068,
				"method": "rhf"
			},
			{
				"type": "occ",
				"energy": -0.24744,
				"method": "rhf"
			},
			{
				"type": "occ",
				"energy": -0.22158,
				"method": "rhf"
			},
			{
				"type": "unocc",
				"energy": -0.01274,
				"method": "rhf"
			},
			{
				"type": "unocc",
				"energy": -0.00309,
				"method": "rhf"
			},
			{
				"type": "unocc",
				"energy": 0.00954,
				"method": "rhf"
			},
			{
				"type": "unocc",
				"energy": 0.06003,
				"method": "rhf"
			},
			{
				"type": "unocc",
				"energy": 0.08351,
				"method": "rhf"
			}
		],
		"cosmo_sigma_profile": { 
			"-0.025": 0.0,
			"-0.024": 0.0,
			"-0.023": 0.0,
			"-0.022": 0.0,
			"-0.021": 0.0,
			"-0.02": 0.0,
			"-0.019": 0.0,
			"-0.018": 0.0,
			"-0.017": 0.0,
			"-0.016": 0.0,
			"-0.015": 0.0,
			"-0.014": 0.0300787969192,
			"-0.013": 0.788272380569,
			"-0.012": 0.718956522617,
			"-0.011": 1.53655920278,
			"-0.01": 1.57045440252,
			"-0.009": 3.20382474035,
			"-0.008": 3.97666875035,
			"-0.007": 5.00093577806,
			"-0.006": 10.3534944675,
			"-0.005": 22.0984976716,
			"-0.004": 25.4712727397,
			"-0.003": 27.7031648388,
			"-0.002": 20.4780906288,
			"-0.001": 21.9431287372,
			"0.0": 22.3907349377,
			"0.001": 17.0499170361,
			"0.002": 16.5361707757,
			"0.003": 15.8885180483,
			"0.004": 16.0706782661,
			"0.005": 18.4666409779,
			"0.006": 18.2392622171,
			"0.007": 3.66255767231,
			"0.008": 1.66014079659,
			"0.009": 1.51840121997,
			"0.01": 1.17363211766,
			"0.011": 1.04778557165,
			"0.012": 2.50850420051,
			"0.013": 4.80433448768,
			"0.014": 2.15349824689,
			"0.015": 0.149479517856,
			"0.016": 0.0,
			"0.017": 0.0,
			"0.018": 0.0,
			"0.019": 0.0,
			"0.02": 0.0,
			"0.021": 0.0,
			"0.022": 0.0,
			"0.023": 0.0,
			"0.024": 0.0,
			"0.025": 0.0
		}
	}
}
