{
	 "smiles": "NC1=CC(N2CCCC2=O)=C(F)C=C1", 
	 "Tm": 396.15, 
	 "num_atms": 25, 
	 "gaussian": { 
		 "optdone": 1, 
		 "sigma_profile": "yes", 
		 "theory": "DFT", 
		 "functional": "B3LYP", 
		 "basiset": "6-31G**", 
		 "properties": { 
			 "R2extent": 3342.846, 
			 "electric_dipole_moment_norm": 2.92447249773, 
			 "electric_quadrupole_moment_norm": 14.6777647351, 
			 "total_energy": -672.273287905, 
			 "HOMO_LUMO_gap": 0.18472, 
			 "cosmo_polarized_energy": -13.6, 
			 "cosmo_cavitation_energy": 28.16, 
			 "cosmo_dispersion_energy": -20.96, 
			 "cosmo_repulsion_energy": 1.64, 
			 "cosmo_total_nonelectrostatic_energy": 8.84, 
			 "SMD_solvation_energy": 5.08 
		},
		"coords": [
			{
				"x": -0.6536055784,
				"y": -3.3913202684,
				"z": -1.9048148522,
				"element": "N" 
			},
			{
				"x": -0.8300942131,
				"y": -2.6234680263,
				"z": -0.7495362487,
				"element": "C" 
			},
			{
				"x": 0.1798132367,
				"y": -1.7479899438,
				"z": -0.3251791936,
				"element": "C" 
			},
			{
				"x": 0.0050608918,
				"y": -0.9119622103,
				"z": 0.7876992253,
				"element": "C" 
			},
			{
				"x": 1.0381589294,
				"y": -0.0476102901,
				"z": 1.221005314,
				"element": "N" 
			},
			{
				"x": 1.2051436106,
				"y": 0.369511425,
				"z": 2.6265143645,
				"element": "C" 
			},
			{
				"x": 2.6528019571,
				"y": 0.8861108227,
				"z": 2.6752205549,
				"element": "C" 
			},
			{
				"x": 2.8883212667,
				"y": 1.4056371501,
				"z": 1.253562613,
				"element": "C" 
			},
			{
				"x": 1.9899458672,
				"y": 0.5267563342,
				"z": 0.385264348,
				"element": "C" 
			},
			{
				"x": 2.0892087416,
				"y": 0.3680948364,
				"z": -0.8195348548,
				"element": "O" 
			},
			{
				"x": -1.2208891798,
				"y": -0.9818765063,
				"z": 1.4671552654,
				"element": "C" 
			},
			{
				"x": -1.4581781779,
				"y": -0.1732628931,
				"z": 2.5370183214,
				"element": "F" 
			},
			{
				"x": -2.2196811568,
				"y": -1.8601805534,
				"z": 1.0767875587,
				"element": "C" 
			},
			{
				"x": -2.0349758189,
				"y": -2.682472494,
				"z": -0.0300666934,
				"element": "C" 
			},
			{
				"x": 0.3086375347,
				"y": -3.5311331263,
				"z": -2.1804211576,
				"element": "H" 
			},
			{
				"x": -1.1802071611,
				"y": -4.2535810768,
				"z": -1.9298382093,
				"element": "H" 
			},
			{
				"x": 1.1063469526,
				"y": -1.6823446697,
				"z": -0.8796736873,
				"element": "H" 
			},
			{
				"x": 1.0286322163,
				"y": -0.4762965692,
				"z": 3.2952781249,
				"element": "H" 
			},
			{
				"x": 0.4875128983,
				"y": 1.1545108492,
				"z": 2.8844310109,
				"element": "H" 
			},
			{
				"x": 3.3368852628,
				"y": 0.0583231861,
				"z": 2.8895837125,
				"element": "H" 
			},
			{
				"x": 2.7887821438,
				"y": 1.6438810984,
				"z": 3.4506656253,
				"element": "H" 
			},
			{
				"x": 2.5613363868,
				"y": 2.446860154,
				"z": 1.1374131701,
				"element": "H" 
			},
			{
				"x": 3.9210996099,
				"y": 1.3445046927,
				"z": 0.9050021831,
				"element": "H" 
			},
			{
				"x": -3.144174604,
				"y": -1.8768061278,
				"z": 1.6442442545,
				"element": "H" 
			},
			{
				"x": -2.8266816163,
				"y": -3.3561857931,
				"z": -0.3449807495,
				"element": "H" 
			}
		],
		 "valence_orbital": [ 
			{
				"type": "occ",
				"energy": -0.30902,
				"method": "rhf"
			},
			{
				"type": "occ",
				"energy": -0.27809,
				"method": "rhf"
			},
			{
				"type": "occ",
				"energy": -0.24565,
				"method": "rhf"
			},
			{
				"type": "occ",
				"energy": -0.22228,
				"method": "rhf"
			},
			{
				"type": "occ",
				"energy": -0.19532,
				"method": "rhf"
			},
			{
				"type": "unocc",
				"energy": -0.0106,
				"method": "rhf"
			},
			{
				"type": "unocc",
				"energy": 0.01861,
				"method": "rhf"
			},
			{
				"type": "unocc",
				"energy": 0.04326,
				"method": "rhf"
			},
			{
				"type": "unocc",
				"energy": 0.07968,
				"method": "rhf"
			},
			{
				"type": "unocc",
				"energy": 0.0866,
				"method": "rhf"
			}
		],
		"cosmo_sigma_profile": { 
			"-0.025": 0.0,
			"-0.024": 0.0,
			"-0.023": 0.0,
			"-0.022": 0.0,
			"-0.021": 0.0,
			"-0.02": 0.0,
			"-0.019": 0.0,
			"-0.018": 0.0,
			"-0.017": 0.0,
			"-0.016": 0.0,
			"-0.015": 0.0,
			"-0.014": 0.0,
			"-0.013": 0.328803695347,
			"-0.012": 2.43038150655,
			"-0.011": 2.56454501194,
			"-0.01": 2.77303782235,
			"-0.009": 3.50891191759,
			"-0.008": 2.6285630868,
			"-0.007": 4.40682779194,
			"-0.006": 8.81435230152,
			"-0.005": 14.0991028575,
			"-0.004": 24.8487927254,
			"-0.003": 20.0092757319,
			"-0.002": 16.1698784723,
			"-0.001": 15.1413444763,
			"0.0": 11.880367074,
			"0.001": 10.9915801533,
			"0.002": 11.203150046,
			"0.003": 11.5624162384,
			"0.004": 13.7838538691,
			"0.005": 16.0411512598,
			"0.006": 5.45358192323,
			"0.007": 2.57972631912,
			"0.008": 2.93537183299,
			"0.009": 2.01456633768,
			"0.01": 2.6630506163,
			"0.011": 2.61706060257,
			"0.012": 2.9512629133,
			"0.013": 5.44596741275,
			"0.014": 2.49845048354,
			"0.015": 0.577535151395,
			"0.016": 0.0,
			"0.017": 0.0,
			"0.018": 0.0,
			"0.019": 0.0,
			"0.02": 0.0,
			"0.021": 0.0,
			"0.022": 0.0,
			"0.023": 0.0,
			"0.024": 0.0,
			"0.025": 0.0
		}
	}
}
