{
	 "smiles": "OC(=O)CC1=C(F)C(F)=CC=C1", 
	 "Tm": 391.15, 
	 "num_atms": 18, 
	 "gaussian": { 
		 "optdone": 1, 
		 "sigma_profile": "yes", 
		 "theory": "DFT", 
		 "functional": "B3LYP", 
		 "basiset": "6-31G**", 
		 "properties": { 
			 "R2extent": 3096.5268, 
			 "electric_dipole_moment_norm": 5.33805600851, 
			 "electric_quadrupole_moment_norm": 26.9160852018, 
			 "total_energy": -658.58540183, 
			 "HOMO_LUMO_gap": 0.22335, 
			 "cosmo_polarized_energy": -13.47, 
			 "cosmo_cavitation_energy": 23.77, 
			 "cosmo_dispersion_energy": -16.83, 
			 "cosmo_repulsion_energy": 1.31, 
			 "cosmo_total_nonelectrostatic_energy": 8.25, 
			 "SMD_solvation_energy": 6.22 
		},
		"coords": [
			{
				"x": -0.0398772046,
				"y": -3.9378254487,
				"z": -1.6366657748,
				"element": "O" 
			},
			{
				"x": -0.1755069566,
				"y": -4.2955189566,
				"z": -0.3394785788,
				"element": "C" 
			},
			{
				"x": -0.0350050898,
				"y": -5.4396335185,
				"z": 0.0084195899,
				"element": "O" 
			},
			{
				"x": -0.5651396964,
				"y": -3.1830157766,
				"z": 0.6530456421,
				"element": "C" 
			},
			{
				"x": -0.3558396197,
				"y": -1.7644360768,
				"z": 0.1824372576,
				"element": "C" 
			},
			{
				"x": 0.8532242607,
				"y": -1.1132294487,
				"z": 0.4377090275,
				"element": "C" 
			},
			{
				"x": 1.8248849026,
				"y": -1.742858458,
				"z": 1.1205893311,
				"element": "F" 
			},
			{
				"x": 1.0789270722,
				"y": 0.191371626,
				"z": 0.0011223822,
				"element": "C" 
			},
			{
				"x": 2.2560818985,
				"y": 0.7705398244,
				"z": 0.2806036942,
				"element": "F" 
			},
			{
				"x": 0.1057899429,
				"y": 0.8778174337,
				"z": -0.7131423299,
				"element": "C" 
			},
			{
				"x": -1.1080864331,
				"y": 0.243035743,
				"z": -0.9830264434,
				"element": "C" 
			},
			{
				"x": -1.3357646657,
				"y": -1.0600785964,
				"z": -0.5383625751,
				"element": "C" 
			},
			{
				"x": -0.1655670035,
				"y": -2.980037606,
				"z": -1.729618685,
				"element": "H" 
			},
			{
				"x": -1.6235572326,
				"y": -3.344862897,
				"z": 0.886877562,
				"element": "H" 
			},
			{
				"x": -0.0050184621,
				"y": -3.3839982729,
				"z": 1.5679006568,
				"element": "H" 
			},
			{
				"x": 0.3116822212,
				"y": 1.8906937775,
				"z": -1.0413731961,
				"element": "H" 
			},
			{
				"x": -1.8792020786,
				"y": 0.7709253648,
				"z": -1.5342855345,
				"element": "H" 
			},
			{
				"x": -2.2903258556,
				"y": -1.5407887132,
				"z": -0.7344520259,
				"element": "H" 
			}
		],
		 "valence_orbital": [ 
			{
				"type": "occ",
				"energy": -0.37062,
				"method": "rhf"
			},
			{
				"type": "occ",
				"energy": -0.31492,
				"method": "rhf"
			},
			{
				"type": "occ",
				"energy": -0.29255,
				"method": "rhf"
			},
			{
				"type": "occ",
				"energy": -0.26721,
				"method": "rhf"
			},
			{
				"type": "occ",
				"energy": -0.26177,
				"method": "rhf"
			},
			{
				"type": "unocc",
				"energy": -0.03842,
				"method": "rhf"
			},
			{
				"type": "unocc",
				"energy": -0.02819,
				"method": "rhf"
			},
			{
				"type": "unocc",
				"energy": 0.0108,
				"method": "rhf"
			},
			{
				"type": "unocc",
				"energy": 0.05326,
				"method": "rhf"
			},
			{
				"type": "unocc",
				"energy": 0.07894,
				"method": "rhf"
			}
		],
		"cosmo_sigma_profile": { 
			"-0.025": 0.0,
			"-0.024": 0.0,
			"-0.023": 0.0,
			"-0.022": 0.0,
			"-0.021": 0.0,
			"-0.02": 0.0,
			"-0.019": 0.0,
			"-0.018": 0.0,
			"-0.017": 0.0,
			"-0.016": 0.0,
			"-0.015": 0.0396370693071,
			"-0.014": 0.672575328144,
			"-0.013": 0.334556001334,
			"-0.012": 0.595685819342,
			"-0.011": 1.43687128008,
			"-0.01": 1.88032488359,
			"-0.009": 3.37775454346,
			"-0.008": 7.29538104751,
			"-0.007": 10.1033127777,
			"-0.006": 11.2841432536,
			"-0.005": 10.3398021922,
			"-0.004": 9.69226767639,
			"-0.003": 10.3912977394,
			"-0.002": 11.2766895335,
			"-0.001": 12.6240684294,
			"0.0": 12.2692691479,
			"0.001": 11.8534462754,
			"0.002": 11.4217896517,
			"0.003": 20.5987270792,
			"0.004": 13.3242879128,
			"0.005": 1.89073316663,
			"0.006": 2.0614105985,
			"0.007": 2.299511022,
			"0.008": 2.70377925163,
			"0.009": 3.40204419085,
			"0.01": 5.25736913113,
			"0.011": 4.68923180983,
			"0.012": 5.54577397749,
			"0.013": 1.92414751442,
			"0.014": 0.0533453336755,
			"0.015": 0.0,
			"0.016": 0.0,
			"0.017": 0.0,
			"0.018": 0.0,
			"0.019": 0.0,
			"0.02": 0.0,
			"0.021": 0.0,
			"0.022": 0.0,
			"0.023": 0.0,
			"0.024": 0.0,
			"0.025": 0.0
		}
	}
}
