{
	 "smiles": "[O-][N+](=O)C1=CC(Cl)=C(Br)C=C1", 
	 "Tm": 334.15, 
	 "num_atms": 14, 
	 "gaussian": { 
		 "optdone": 1, 
		 "sigma_profile": "yes", 
		 "theory": "DFT", 
		 "functional": "B3LYP", 
		 "basiset": "6-31G**", 
		 "properties": { 
			 "R2extent": 4871.5316, 
			 "electric_dipole_moment_norm": 2.86543467034, 
			 "electric_quadrupole_moment_norm": 7.64338207536, 
			 "total_energy": -3467.1334127, 
			 "HOMO_LUMO_gap": 0.16942, 
			 "cosmo_polarized_energy": -7.15, 
			 "cosmo_cavitation_energy": 23.56, 
			 "cosmo_dispersion_energy": -17.97, 
			 "cosmo_repulsion_energy": 1.44, 
			 "cosmo_total_nonelectrostatic_energy": 7.02, 
			 "SMD_solvation_energy": 5.04 
		},
		"coords": [
			{
				"x": -1.1095843931,
				"y": -2.0904025619,
				"z": 1.7564731245,
				"element": "O" 
			},
			{
				"x": -0.0041889712,
				"y": -2.1318384386,
				"z": 1.2195320479,
				"element": "N" 
			},
			{
				"x": 0.5793683984,
				"y": -3.1595243319,
				"z": 0.8805874222,
				"element": "O" 
			},
			{
				"x": 0.6713919614,
				"y": -0.848629464,
				"z": 0.963567991,
				"element": "C" 
			},
			{
				"x": 1.9226051343,
				"y": -0.8653995794,
				"z": 0.3571699631,
				"element": "C" 
			},
			{
				"x": 2.5685970266,
				"y": 0.345000611,
				"z": 0.1114551101,
				"element": "C" 
			},
			{
				"x": 4.1350489502,
				"y": 0.3072020362,
				"z": -0.6487338747,
				"element": "Cl" 
			},
			{
				"x": 1.9522485525,
				"y": 1.5532585499,
				"z": 0.4765396973,
				"element": "C" 
			},
			{
				"x": 2.7842993254,
				"y": 3.2254965386,
				"z": 0.1665907101,
				"element": "Br" 
			},
			{
				"x": 0.6926814041,
				"y": 1.5384274217,
				"z": 1.0852251974,
				"element": "C" 
			},
			{
				"x": 0.040958056,
				"y": 0.3363273113,
				"z": 1.3341140201,
				"element": "C" 
			},
			{
				"x": 2.3788177202,
				"y": -1.8079371744,
				"z": 0.0843362143,
				"element": "H" 
			},
			{
				"x": 0.229979195,
				"y": 2.4785193129,
				"z": 1.3611591421,
				"element": "H" 
			},
			{
				"x": -0.9336223597,
				"y": 0.3038997685,
				"z": 1.8038832346,
				"element": "H" 
			}
		],
		 "valence_orbital": [ 
			{
				"type": "occ",
				"energy": -0.32079,
				"method": "rhf"
			},
			{
				"type": "occ",
				"energy": -0.30836,
				"method": "rhf"
			},
			{
				"type": "occ",
				"energy": -0.30381,
				"method": "rhf"
			},
			{
				"type": "occ",
				"energy": -0.28846,
				"method": "rhf"
			},
			{
				"type": "occ",
				"energy": -0.27439,
				"method": "rhf"
			},
			{
				"type": "unocc",
				"energy": -0.10497,
				"method": "rhf"
			},
			{
				"type": "unocc",
				"energy": -0.05053,
				"method": "rhf"
			},
			{
				"type": "unocc",
				"energy": -0.03128,
				"method": "rhf"
			},
			{
				"type": "unocc",
				"energy": -0.02128,
				"method": "rhf"
			},
			{
				"type": "unocc",
				"energy": 0.03068,
				"method": "rhf"
			}
		],
		"cosmo_sigma_profile": { 
			"-0.025": 0.0,
			"-0.024": 0.0,
			"-0.023": 0.0,
			"-0.022": 0.0,
			"-0.021": 0.0,
			"-0.02": 0.0,
			"-0.019": 0.0,
			"-0.018": 0.0,
			"-0.017": 0.0,
			"-0.016": 0.0,
			"-0.015": 0.0,
			"-0.014": 0.0,
			"-0.013": 0.0,
			"-0.012": 0.0,
			"-0.011": 0.0,
			"-0.01": 0.00691719393011,
			"-0.009": 3.00766662514,
			"-0.008": 4.93072513029,
			"-0.007": 5.83497162069,
			"-0.006": 7.0185394843,
			"-0.005": 8.33237882948,
			"-0.004": 8.53405949749,
			"-0.003": 14.2139903928,
			"-0.002": 21.6208012545,
			"-0.001": 23.9969593644,
			"0.0": 15.5512832541,
			"0.001": 11.4322256452,
			"0.002": 15.531697681,
			"0.003": 18.5217680896,
			"0.004": 8.91431223966,
			"0.005": 4.69879357991,
			"0.006": 4.37892134279,
			"0.007": 9.14071371818,
			"0.008": 5.57243433239,
			"0.009": 3.44588016223,
			"0.01": 1.09556589386,
			"0.011": 0.0,
			"0.012": 0.0,
			"0.013": 0.0,
			"0.014": 0.0,
			"0.015": 0.0,
			"0.016": 0.0,
			"0.017": 0.0,
			"0.018": 0.0,
			"0.019": 0.0,
			"0.02": 0.0,
			"0.021": 0.0,
			"0.022": 0.0,
			"0.023": 0.0,
			"0.024": 0.0,
			"0.025": 0.0
		}
	}
}
