{
	 "smiles": "[O-][N+](=O)C1=CC=C2OC(=O)C=CC2=C1", 
	 "Tm": 464.15, 
	 "num_atms": 19, 
	 "gaussian": { 
		 "optdone": 1, 
		 "sigma_profile": "yes", 
		 "theory": "DFT", 
		 "functional": "B3LYP", 
		 "basiset": "6-31G**", 
		 "properties": { 
			 "R2extent": 4436.3015, 
			 "electric_dipole_moment_norm": 1.53365886037, 
			 "electric_quadrupole_moment_norm": 27.3178232727, 
			 "total_energy": -701.517818254, 
			 "HOMO_LUMO_gap": 0.16568, 
			 "cosmo_polarized_energy": -13.96, 
			 "cosmo_cavitation_energy": 25.08, 
			 "cosmo_dispersion_energy": -18.69, 
			 "cosmo_repulsion_energy": 1.44, 
			 "cosmo_total_nonelectrostatic_energy": 7.83, 
			 "SMD_solvation_energy": 7.78 
		},
		"coords": [
			{
				"x": -4.1578938286,
				"y": -0.9441698115,
				"z": 0.3530822637,
				"element": "O" 
			},
			{
				"x": -4.1506106781,
				"y": 0.2810268392,
				"z": 0.4703111843,
				"element": "N" 
			},
			{
				"x": -5.1457617089,
				"y": 1.0012404417,
				"z": 0.4018247591,
				"element": "O" 
			},
			{
				"x": -2.8565534658,
				"y": 0.9330392902,
				"z": 0.7096825478,
				"element": "C" 
			},
			{
				"x": -2.8128728345,
				"y": 2.3263226334,
				"z": 0.8475010323,
				"element": "C" 
			},
			{
				"x": -1.5937520269,
				"y": 2.9463358478,
				"z": 1.0735580828,
				"element": "C" 
			},
			{
				"x": -0.4326174267,
				"y": 2.1684971822,
				"z": 1.1594352563,
				"element": "C" 
			},
			{
				"x": 0.7358620084,
				"y": 2.8193473627,
				"z": 1.3814476275,
				"element": "O" 
			},
			{
				"x": 1.970564855,
				"y": 2.1559769071,
				"z": 1.4883921883,
				"element": "C" 
			},
			{
				"x": 2.9499056132,
				"y": 2.8285414924,
				"z": 1.686550057,
				"element": "O" 
			},
			{
				"x": 1.9272676445,
				"y": 0.702754484,
				"z": 1.3450017833,
				"element": "C" 
			},
			{
				"x": 0.7695068873,
				"y": 0.0434233393,
				"z": 1.1235942234,
				"element": "C" 
			},
			{
				"x": -0.4774157855,
				"y": 0.7640383852,
				"z": 1.0204539542,
				"element": "C" 
			},
			{
				"x": -1.715763982,
				"y": 0.1487164775,
				"z": 0.7921524155,
				"element": "C" 
			},
			{
				"x": -3.732523116,
				"y": 2.8930058041,
				"z": 0.7748525789,
				"element": "H" 
			},
			{
				"x": -1.515253252,
				"y": 4.0216208134,
				"z": 1.1860479022,
				"element": "H" 
			},
			{
				"x": 2.8820017956,
				"y": 0.1977756493,
				"z": 1.4284012154,
				"element": "H" 
			},
			{
				"x": 0.7568153662,
				"y": -1.038264667,
				"z": 1.019545773,
				"element": "H" 
			},
			{
				"x": -1.7952060652,
				"y": -0.9260284712,
				"z": 0.6795651551,
				"element": "H" 
			}
		],
		 "valence_orbital": [ 
			{
				"type": "occ",
				"energy": -0.31792,
				"method": "rhf"
			},
			{
				"type": "occ",
				"energy": -0.30168,
				"method": "rhf"
			},
			{
				"type": "occ",
				"energy": -0.29547,
				"method": "rhf"
			},
			{
				"type": "occ",
				"energy": -0.28662,
				"method": "rhf"
			},
			{
				"type": "occ",
				"energy": -0.26484,
				"method": "rhf"
			},
			{
				"type": "unocc",
				"energy": -0.09916,
				"method": "rhf"
			},
			{
				"type": "unocc",
				"energy": -0.09151,
				"method": "rhf"
			},
			{
				"type": "unocc",
				"energy": -0.02555,
				"method": "rhf"
			},
			{
				"type": "unocc",
				"energy": -0.01244,
				"method": "rhf"
			},
			{
				"type": "unocc",
				"energy": 0.06932,
				"method": "rhf"
			}
		],
		"cosmo_sigma_profile": { 
			"-0.025": 0.0,
			"-0.024": 0.0,
			"-0.023": 0.0,
			"-0.022": 0.0,
			"-0.021": 0.0,
			"-0.02": 0.0,
			"-0.019": 0.0,
			"-0.018": 0.0,
			"-0.017": 0.0,
			"-0.016": 0.0,
			"-0.015": 0.0,
			"-0.014": 0.0,
			"-0.013": 0.0,
			"-0.012": 0.0,
			"-0.011": 0.107404878385,
			"-0.01": 2.30228910403,
			"-0.009": 5.54870171696,
			"-0.008": 8.24435744061,
			"-0.007": 10.1964636804,
			"-0.006": 10.0854926689,
			"-0.005": 9.87765379189,
			"-0.004": 12.1900501356,
			"-0.003": 13.4376126153,
			"-0.002": 22.5194767422,
			"-0.001": 22.059869798,
			"0.0": 13.316789871,
			"0.001": 8.31834157523,
			"0.002": 3.88045796646,
			"0.003": 4.08946012387,
			"0.004": 4.72248286948,
			"0.005": 5.58373594969,
			"0.006": 5.16418821204,
			"0.007": 11.0449520189,
			"0.008": 8.9118172197,
			"0.009": 6.86899369423,
			"0.01": 5.10486564051,
			"0.011": 6.10935263712,
			"0.012": 3.2363793875,
			"0.013": 0.182091920969,
			"0.014": 0.0,
			"0.015": 0.0,
			"0.016": 0.0,
			"0.017": 0.0,
			"0.018": 0.0,
			"0.019": 0.0,
			"0.02": 0.0,
			"0.021": 0.0,
			"0.022": 0.0,
			"0.023": 0.0,
			"0.024": 0.0,
			"0.025": 0.0
		}
	}
}
