{
	 "smiles": "COC(=O)C1=C(N)SC=C1", 
	 "Tm": 352.15, 
	 "num_atms": 17, 
	 "gaussian": { 
		 "optdone": 1, 
		 "sigma_profile": "yes", 
		 "theory": "DFT", 
		 "functional": "B3LYP", 
		 "basiset": "6-31G**", 
		 "properties": { 
			 "R2extent": 2345.9574, 
			 "electric_dipole_moment_norm": 0.716637328082, 
			 "electric_quadrupole_moment_norm": 8.4452304261, 
			 "total_energy": -836.245478135, 
			 "HOMO_LUMO_gap": 0.18131, 
			 "cosmo_polarized_energy": -9.19, 
			 "cosmo_cavitation_energy": 22.7, 
			 "cosmo_dispersion_energy": -17.71, 
			 "cosmo_repulsion_energy": 1.39, 
			 "cosmo_total_nonelectrostatic_energy": 6.38, 
			 "SMD_solvation_energy": 5.34 
		},
		"coords": [
			{
				"x": 1.6665514067,
				"y": 1.8993417149,
				"z": 1.0845794094,
				"element": "C" 
			},
			{
				"x": 1.5320313758,
				"y": 0.5519025035,
				"z": 0.6125575559,
				"element": "O" 
			},
			{
				"x": 0.2988600454,
				"y": 0.0082400868,
				"z": 0.7527222646,
				"element": "C" 
			},
			{
				"x": -0.637499911,
				"y": 0.6307487723,
				"z": 1.2520969611,
				"element": "O" 
			},
			{
				"x": 0.2246609067,
				"y": -1.3595551035,
				"z": 0.263761616,
				"element": "C" 
			},
			{
				"x": -0.9656863205,
				"y": -2.0829948158,
				"z": 0.3426012272,
				"element": "C" 
			},
			{
				"x": -2.1731916939,
				"y": -1.6230476383,
				"z": 0.7678290883,
				"element": "N" 
			},
			{
				"x": -0.7528945311,
				"y": -3.7076152313,
				"z": -0.2726805801,
				"element": "S" 
			},
			{
				"x": 0.9448513307,
				"y": -3.4022157112,
				"z": -0.6215295569,
				"element": "C" 
			},
			{
				"x": 1.3007357134,
				"y": -2.1360189241,
				"z": -0.293917567,
				"element": "C" 
			},
			{
				"x": 2.7029449768,
				"y": 2.1761111244,
				"z": 0.8898478274,
				"element": "H" 
			},
			{
				"x": 0.9855195201,
				"y": 2.567562069,
				"z": 0.551153474,
				"element": "H" 
			},
			{
				"x": 1.449609511,
				"y": 1.9598637265,
				"z": 2.1543128777,
				"element": "H" 
			},
			{
				"x": -2.8651215383,
				"y": -2.2783528418,
				"z": 1.0956000156,
				"element": "H" 
			},
			{
				"x": -2.1264989748,
				"y": -0.707486679,
				"z": 1.2077249251,
				"element": "H" 
			},
			{
				"x": 1.5469940142,
				"y": -4.1941954946,
				"z": -1.0419612265,
				"element": "H" 
			},
			{
				"x": 2.2990341688,
				"y": -1.7378875575,
				"z": -0.4247983118,
				"element": "H" 
			}
		],
		 "valence_orbital": [ 
			{
				"type": "occ",
				"energy": -0.31707,
				"method": "rhf"
			},
			{
				"type": "occ",
				"energy": -0.29466,
				"method": "rhf"
			},
			{
				"type": "occ",
				"energy": -0.27131,
				"method": "rhf"
			},
			{
				"type": "occ",
				"energy": -0.25306,
				"method": "rhf"
			},
			{
				"type": "occ",
				"energy": -0.19919,
				"method": "rhf"
			},
			{
				"type": "unocc",
				"energy": -0.01788,
				"method": "rhf"
			},
			{
				"type": "unocc",
				"energy": 0.01323,
				"method": "rhf"
			},
			{
				"type": "unocc",
				"energy": 0.01619,
				"method": "rhf"
			},
			{
				"type": "unocc",
				"energy": 0.08916,
				"method": "rhf"
			},
			{
				"type": "unocc",
				"energy": 0.10853,
				"method": "rhf"
			}
		],
		"cosmo_sigma_profile": { 
			"-0.025": 0.0,
			"-0.024": 0.0,
			"-0.023": 0.0,
			"-0.022": 0.0,
			"-0.021": 0.0,
			"-0.02": 0.0,
			"-0.019": 0.0,
			"-0.018": 0.0,
			"-0.017": 0.0,
			"-0.016": 0.0,
			"-0.015": 0.543199245713,
			"-0.014": 1.63901183414,
			"-0.013": 1.13964936076,
			"-0.012": 1.2262755031,
			"-0.011": 1.15953034951,
			"-0.01": 2.06028373423,
			"-0.009": 2.35937828305,
			"-0.008": 3.82199928862,
			"-0.007": 3.83845566535,
			"-0.006": 6.93224996403,
			"-0.005": 11.8056070492,
			"-0.004": 10.9457476836,
			"-0.003": 13.6331715372,
			"-0.002": 10.1586256652,
			"-0.001": 9.9622392748,
			"0.0": 10.5475972276,
			"0.001": 12.5963146967,
			"0.002": 14.9919344006,
			"0.003": 16.0934398733,
			"0.004": 16.0320063135,
			"0.005": 10.274697794,
			"0.006": 6.37971834257,
			"0.007": 3.95094350692,
			"0.008": 2.32542266954,
			"0.009": 1.86253734831,
			"0.01": 2.40877609309,
			"0.011": 1.57182912972,
			"0.012": 2.00531278464,
			"0.013": 1.03443204895,
			"0.014": 0.0,
			"0.015": 0.0,
			"0.016": 0.0,
			"0.017": 0.0,
			"0.018": 0.0,
			"0.019": 0.0,
			"0.02": 0.0,
			"0.021": 0.0,
			"0.022": 0.0,
			"0.023": 0.0,
			"0.024": 0.0,
			"0.025": 0.0
		}
	}
}
