{
	 "smiles": "CC1=CC=C(F)C(C(N)=O)=C1Cl", 
	 "Tm": 424.65, 
	 "num_atms": 19, 
	 "gaussian": { 
		 "optdone": 1, 
		 "sigma_profile": "yes", 
		 "theory": "DFT", 
		 "functional": "B3LYP", 
		 "basiset": "6-31G**", 
		 "properties": { 
			 "R2extent": 2437.1245, 
			 "electric_dipole_moment_norm": 4.01646308834, 
			 "electric_quadrupole_moment_norm": 12.9990590113, 
			 "total_energy": -999.088594473, 
			 "HOMO_LUMO_gap": 0.20794, 
			 "cosmo_polarized_energy": -13.05, 
			 "cosmo_cavitation_energy": 25.13, 
			 "cosmo_dispersion_energy": -18.51, 
			 "cosmo_repulsion_energy": 1.46, 
			 "cosmo_total_nonelectrostatic_energy": 8.08, 
			 "SMD_solvation_energy": 5.19 
		},
		"coords": [
			{
				"x": -0.4775048318,
				"y": -3.9815007756,
				"z": -0.1615573863,
				"element": "C" 
			},
			{
				"x": -0.5071173428,
				"y": -2.5473392567,
				"z": 0.3029395335,
				"element": "C" 
			},
			{
				"x": -1.2062602969,
				"y": -2.1911917597,
				"z": 1.4630868936,
				"element": "C" 
			},
			{
				"x": -1.2380000932,
				"y": -0.8807933781,
				"z": 1.9299459672,
				"element": "C" 
			},
			{
				"x": -0.5587276919,
				"y": 0.0872024255,
				"z": 1.2090577286,
				"element": "C" 
			},
			{
				"x": -0.5810524182,
				"y": 1.3619856329,
				"z": 1.6778178781,
				"element": "F" 
			},
			{
				"x": 0.1451512595,
				"y": -0.1839571234,
				"z": 0.0323580161,
				"element": "C" 
			},
			{
				"x": 0.7720493636,
				"y": 0.9392678667,
				"z": -0.7735230406,
				"element": "C" 
			},
			{
				"x": 1.5675185654,
				"y": 1.7945505505,
				"z": -0.0596678196,
				"element": "N" 
			},
			{
				"x": 0.5975648681,
				"y": 1.046049835,
				"z": -1.9755091531,
				"element": "O" 
			},
			{
				"x": 0.1558819941,
				"y": -1.5239788623,
				"z": -0.3969017786,
				"element": "C" 
			},
			{
				"x": 1.0685174512,
				"y": -1.9696062619,
				"z": -1.8260597831,
				"element": "Cl" 
			},
			{
				"x": -0.8855699515,
				"y": -4.0822402558,
				"z": -1.1724603261,
				"element": "H" 
			},
			{
				"x": -1.063520915,
				"y": -4.6137579498,
				"z": 0.509954805,
				"element": "H" 
			},
			{
				"x": 0.5456138363,
				"y": -4.3703138026,
				"z": -0.1936879119,
				"element": "H" 
			},
			{
				"x": -1.7319005473,
				"y": -2.9648601392,
				"z": 2.0148766824,
				"element": "H" 
			},
			{
				"x": -1.7740504168,
				"y": -0.6018069731,
				"z": 2.8299335448,
				"element": "H" 
			},
			{
				"x": 1.4763477194,
				"y": 1.8520444376,
				"z": 0.9426702687,
				"element": "H" 
			},
			{
				"x": 1.863259448,
				"y": 2.62764579,
				"z": -0.5491741189,
				"element": "H" 
			}
		],
		 "valence_orbital": [ 
			{
				"type": "occ",
				"energy": -0.31254,
				"method": "rhf"
			},
			{
				"type": "occ",
				"energy": -0.27419,
				"method": "rhf"
			},
			{
				"type": "occ",
				"energy": -0.2656,
				"method": "rhf"
			},
			{
				"type": "occ",
				"energy": -0.25113,
				"method": "rhf"
			},
			{
				"type": "occ",
				"energy": -0.24847,
				"method": "rhf"
			},
			{
				"type": "unocc",
				"energy": -0.04053,
				"method": "rhf"
			},
			{
				"type": "unocc",
				"energy": -0.01604,
				"method": "rhf"
			},
			{
				"type": "unocc",
				"energy": 0.02654,
				"method": "rhf"
			},
			{
				"type": "unocc",
				"energy": 0.03874,
				"method": "rhf"
			},
			{
				"type": "unocc",
				"energy": 0.08707,
				"method": "rhf"
			}
		],
		"cosmo_sigma_profile": { 
			"-0.025": 0.0,
			"-0.024": 0.0,
			"-0.023": 0.0,
			"-0.022": 0.0,
			"-0.021": 0.0,
			"-0.02": 0.0,
			"-0.019": 0.0,
			"-0.018": 0.0,
			"-0.017": 0.0,
			"-0.016": 0.0,
			"-0.015": 0.0651649059593,
			"-0.014": 1.2168688196,
			"-0.013": 1.81304404967,
			"-0.012": 1.97374009425,
			"-0.011": 2.56867043854,
			"-0.01": 2.62306282686,
			"-0.009": 1.93943524319,
			"-0.008": 3.528939146,
			"-0.007": 6.25138582595,
			"-0.006": 7.05925034869,
			"-0.005": 7.91429061129,
			"-0.004": 9.97602396312,
			"-0.003": 10.632198144,
			"-0.002": 13.2380447144,
			"-0.001": 20.8006604087,
			"0.0": 20.3775447576,
			"0.001": 19.8760415789,
			"0.002": 16.8900736029,
			"0.003": 16.1028419873,
			"0.004": 9.8548039158,
			"0.005": 3.9983970323,
			"0.006": 2.75757430453,
			"0.007": 2.11223887814,
			"0.008": 2.04861599745,
			"0.009": 2.21738851757,
			"0.01": 2.06435528588,
			"0.011": 1.91568348965,
			"0.012": 3.29318654862,
			"0.013": 5.7174683816,
			"0.014": 1.69567135169,
			"0.015": 0.0,
			"0.016": 0.0,
			"0.017": 0.0,
			"0.018": 0.0,
			"0.019": 0.0,
			"0.02": 0.0,
			"0.021": 0.0,
			"0.022": 0.0,
			"0.023": 0.0,
			"0.024": 0.0,
			"0.025": 0.0
		}
	}
}
