{
	 "smiles": "CC1=CC(=CC=C1F)C#N", 
	 "Tm": 328.15, 
	 "num_atms": 16, 
	 "gaussian": { 
		 "optdone": 1, 
		 "sigma_profile": "yes", 
		 "theory": "DFT", 
		 "functional": "B3LYP", 
		 "basiset": "6-31G**", 
		 "properties": { 
			 "R2extent": 2616.3227, 
			 "electric_dipole_moment_norm": 3.71740755231, 
			 "electric_quadrupole_moment_norm": 17.7021527572, 
			 "total_energy": -463.044783209, 
			 "HOMO_LUMO_gap": 0.20864, 
			 "cosmo_polarized_energy": -8.27, 
			 "cosmo_cavitation_energy": 21.77, 
			 "cosmo_dispersion_energy": -15.27, 
			 "cosmo_repulsion_energy": 1.22, 
			 "cosmo_total_nonelectrostatic_energy": 7.72, 
			 "SMD_solvation_energy": 5.74 
		},
		"coords": [
			{
				"x": 1.8498934174,
				"y": 0.5182685647,
				"z": -0.616254999,
				"element": "C" 
			},
			{
				"x": 1.2981064746,
				"y": 0.4660860242,
				"z": 0.7846831579,
				"element": "C" 
			},
			{
				"x": 0.74640568,
				"y": -0.6892334536,
				"z": 1.3382798245,
				"element": "C" 
			},
			{
				"x": 0.240677356,
				"y": -0.7000216726,
				"z": 2.6508034849,
				"element": "C" 
			},
			{
				"x": 0.2850167332,
				"y": 0.4665442354,
				"z": 3.4310254727,
				"element": "C" 
			},
			{
				"x": 0.831517879,
				"y": 1.629394957,
				"z": 2.8967593817,
				"element": "C" 
			},
			{
				"x": 1.3219949983,
				"y": 1.60511245,
				"z": 1.5970468743,
				"element": "C" 
			},
			{
				"x": 1.8502723806,
				"y": 2.7354134338,
				"z": 1.0854068884,
				"element": "F" 
			},
			{
				"x": -0.3198255081,
				"y": -1.9043068781,
				"z": 3.1895692695,
				"element": "C" 
			},
			{
				"x": -0.7746024069,
				"y": -2.8821740194,
				"z": 3.6261031836,
				"element": "N" 
			},
			{
				"x": 1.7523615679,
				"y": -0.4510455356,
				"z": -1.1100706473,
				"element": "H" 
			},
			{
				"x": 1.3249972163,
				"y": 1.2660793773,
				"z": -1.2198566725,
				"element": "H" 
			},
			{
				"x": 2.9086116467,
				"y": 0.7978955957,
				"z": -0.6135858453,
				"element": "H" 
			},
			{
				"x": 0.705749139,
				"y": -1.5981390548,
				"z": 0.7463872509,
				"element": "H" 
			},
			{
				"x": -0.1052411379,
				"y": 0.4566134435,
				"z": 4.4426290043,
				"element": "H" 
			},
			{
				"x": 0.8832645639,
				"y": 2.5494125323,
				"z": 3.4681743715,
				"element": "H" 
			}
		],
		 "valence_orbital": [ 
			{
				"type": "occ",
				"energy": -0.35806,
				"method": "rhf"
			},
			{
				"type": "occ",
				"energy": -0.33969,
				"method": "rhf"
			},
			{
				"type": "occ",
				"energy": -0.33121,
				"method": "rhf"
			},
			{
				"type": "occ",
				"energy": -0.27806,
				"method": "rhf"
			},
			{
				"type": "occ",
				"energy": -0.25822,
				"method": "rhf"
			},
			{
				"type": "unocc",
				"energy": -0.04958,
				"method": "rhf"
			},
			{
				"type": "unocc",
				"energy": -0.03009,
				"method": "rhf"
			},
			{
				"type": "unocc",
				"energy": 0.03557,
				"method": "rhf"
			},
			{
				"type": "unocc",
				"energy": 0.07384,
				"method": "rhf"
			},
			{
				"type": "unocc",
				"energy": 0.07402,
				"method": "rhf"
			}
		],
		"cosmo_sigma_profile": { 
			"-0.025": 0.0,
			"-0.024": 0.0,
			"-0.023": 0.0,
			"-0.022": 0.0,
			"-0.021": 0.0,
			"-0.02": 0.0,
			"-0.019": 0.0,
			"-0.018": 0.0,
			"-0.017": 0.0,
			"-0.016": 0.0,
			"-0.015": 0.0,
			"-0.014": 0.0,
			"-0.013": 0.0,
			"-0.012": 0.0,
			"-0.011": 0.0,
			"-0.01": 0.0,
			"-0.009": 0.313114655624,
			"-0.008": 5.16422069204,
			"-0.007": 8.12685830429,
			"-0.006": 7.17853426359,
			"-0.005": 9.58345039809,
			"-0.004": 11.9756443785,
			"-0.003": 10.1598497018,
			"-0.002": 14.5434896144,
			"-0.001": 21.8380889064,
			"0.0": 17.9220729811,
			"0.001": 16.6917948623,
			"0.002": 10.3011104803,
			"0.003": 8.38077894491,
			"0.004": 8.75794269846,
			"0.005": 2.24459990649,
			"0.006": 2.91253919273,
			"0.007": 2.07303922775,
			"0.008": 3.59178498766,
			"0.009": 3.31330763535,
			"0.01": 3.38152246244,
			"0.011": 2.72295798131,
			"0.012": 2.62900455778,
			"0.013": 1.74073753895,
			"0.014": 0.115045266762,
			"0.015": 0.0,
			"0.016": 0.0,
			"0.017": 0.0,
			"0.018": 0.0,
			"0.019": 0.0,
			"0.02": 0.0,
			"0.021": 0.0,
			"0.022": 0.0,
			"0.023": 0.0,
			"0.024": 0.0,
			"0.025": 0.0
		}
	}
}
