{
	 "smiles": "NC1=NN=CN1CC1=CC=CC=C1", 
	 "Tm": 484.15, 
	 "num_atms": 23, 
	 "gaussian": { 
		 "optdone": 1, 
		 "sigma_profile": "yes", 
		 "theory": "DFT", 
		 "functional": "B3LYP", 
		 "basiset": "6-31G**", 
		 "properties": { 
			 "R2extent": 2793.4472, 
			 "electric_dipole_moment_norm": 6.29548280357, 
			 "electric_quadrupole_moment_norm": 16.4023941759, 
			 "total_energy": -567.966821055, 
			 "HOMO_LUMO_gap": 0.19435, 
			 "cosmo_polarized_energy": -20.37, 
			 "cosmo_cavitation_energy": 27.12, 
			 "cosmo_dispersion_energy": -19.32, 
			 "cosmo_repulsion_energy": 1.53, 
			 "cosmo_total_nonelectrostatic_energy": 9.33, 
			 "SMD_solvation_energy": 2.98 
		},
		"coords": [
			{
				"x": -0.6590070714,
				"y": -0.2167691938,
				"z": 2.1377197113,
				"element": "N" 
			},
			{
				"x": -0.3386171242,
				"y": -1.1002405413,
				"z": 1.1145917967,
				"element": "C" 
			},
			{
				"x": -0.2423922192,
				"y": -2.407325588,
				"z": 1.2074929945,
				"element": "N" 
			},
			{
				"x": -0.011264996,
				"y": -2.889642156,
				"z": -0.0748865603,
				"element": "N" 
			},
			{
				"x": 0.0351063937,
				"y": -1.8607951694,
				"z": -0.8758990071,
				"element": "C" 
			},
			{
				"x": -0.1727094127,
				"y": -0.6854500009,
				"z": -0.1838262675,
				"element": "N" 
			},
			{
				"x": -0.2630538143,
				"y": 0.6770670235,
				"z": -0.6907673792,
				"element": "C" 
			},
			{
				"x": 0.8692270538,
				"y": 1.5801186735,
				"z": -0.2275041636,
				"element": "C" 
			},
			{
				"x": 0.5915359608,
				"y": 2.8781379847,
				"z": 0.2169625906,
				"element": "C" 
			},
			{
				"x": 1.6254342434,
				"y": 3.731947255,
				"z": 0.6086502127,
				"element": "C" 
			},
			{
				"x": 2.9483500647,
				"y": 3.2911901321,
				"z": 0.5668250834,
				"element": "C" 
			},
			{
				"x": 3.2329943155,
				"y": 1.9938588975,
				"z": 0.1323360743,
				"element": "C" 
			},
			{
				"x": 2.2007782046,
				"y": 1.1437522914,
				"z": -0.2629813023,
				"element": "C" 
			},
			{
				"x": -0.012060111,
				"y": 0.5613503664,
				"z": 2.2209675364,
				"element": "H" 
			},
			{
				"x": -0.7309324423,
				"y": -0.7195819603,
				"z": 3.0150136908,
				"element": "H" 
			},
			{
				"x": 0.213543778,
				"y": -1.8880289268,
				"z": -1.942051182,
				"element": "H" 
			},
			{
				"x": -0.2752556144,
				"y": 0.6082047933,
				"z": -1.7839342222,
				"element": "H" 
			},
			{
				"x": -1.2246199822,
				"y": 1.1011724698,
				"z": -0.3821231611,
				"element": "H" 
			},
			{
				"x": -0.4389233795,
				"y": 3.2232795581,
				"z": 0.2559781048,
				"element": "H" 
			},
			{
				"x": 1.3948368411,
				"y": 4.7363342793,
				"z": 0.9517051103,
				"element": "H" 
			},
			{
				"x": 3.7535115174,
				"y": 3.9516010476,
				"z": 0.8750297403,
				"element": "H" 
			},
			{
				"x": 4.260501914,
				"y": 1.6432496152,
				"z": 0.1018679941,
				"element": "H" 
			},
			{
				"x": 2.42701588,
				"y": 0.1333691493,
				"z": -0.5925673948,
				"element": "H" 
			}
		],
		 "valence_orbital": [ 
			{
				"type": "occ",
				"energy": -0.28088,
				"method": "rhf"
			},
			{
				"type": "occ",
				"energy": -0.26833,
				"method": "rhf"
			},
			{
				"type": "occ",
				"energy": -0.26199,
				"method": "rhf"
			},
			{
				"type": "occ",
				"energy": -0.24056,
				"method": "rhf"
			},
			{
				"type": "occ",
				"energy": -0.21863,
				"method": "rhf"
			},
			{
				"type": "unocc",
				"energy": -0.02428,
				"method": "rhf"
			},
			{
				"type": "unocc",
				"energy": -0.01961,
				"method": "rhf"
			},
			{
				"type": "unocc",
				"energy": 0.0342,
				"method": "rhf"
			},
			{
				"type": "unocc",
				"energy": 0.06135,
				"method": "rhf"
			},
			{
				"type": "unocc",
				"energy": 0.08033,
				"method": "rhf"
			}
		],
		"cosmo_sigma_profile": { 
			"-0.025": 0.0,
			"-0.024": 0.0,
			"-0.023": 0.0,
			"-0.022": 0.0,
			"-0.021": 0.0,
			"-0.02": 0.0,
			"-0.019": 0.0,
			"-0.018": 0.0,
			"-0.017": 0.0,
			"-0.016": 0.0,
			"-0.015": 0.0,
			"-0.014": 0.144543899695,
			"-0.013": 0.973018180789,
			"-0.012": 1.68292445182,
			"-0.011": 2.91500290932,
			"-0.01": 3.3561930919,
			"-0.009": 5.73226712205,
			"-0.008": 5.26866013728,
			"-0.007": 7.539193197,
			"-0.006": 14.4854929398,
			"-0.005": 18.4778992744,
			"-0.004": 18.7262093935,
			"-0.003": 15.2701153826,
			"-0.002": 12.9955420438,
			"-0.001": 11.1482751039,
			"0.0": 10.6021438266,
			"0.001": 10.2056578158,
			"0.002": 9.70021415446,
			"0.003": 9.84129058795,
			"0.004": 10.8931524041,
			"0.005": 10.0814418146,
			"0.006": 4.09398824082,
			"0.007": 2.4160303249,
			"0.008": 3.16091789609,
			"0.009": 2.2192169937,
			"0.01": 1.35423544553,
			"0.011": 3.02552107299,
			"0.012": 3.43000595358,
			"0.013": 3.04366979594,
			"0.014": 3.24756852816,
			"0.015": 3.89008599756,
			"0.016": 2.84647516585,
			"0.017": 2.68188076727,
			"0.018": 0.967061933988,
			"0.019": 0.0112102341446,
			"0.02": 0.0,
			"0.021": 0.0,
			"0.022": 0.0,
			"0.023": 0.0,
			"0.024": 0.0,
			"0.025": 0.0
		}
	}
}
