{
	 "smiles": "CC1(C)CC2=C(O1)C(OCC(O)=O)=CC=C2", 
	 "Tm": 385.15, 
	 "num_atms": 30, 
	 "gaussian": { 
		 "optdone": 1, 
		 "sigma_profile": "yes", 
		 "theory": "DFT", 
		 "functional": "B3LYP", 
		 "basiset": "6-31G**", 
		 "properties": { 
			 "R2extent": 4445.3549, 
			 "electric_dipole_moment_norm": 1.03310478655, 
			 "electric_quadrupole_moment_norm": 14.7410130703, 
			 "total_energy": -766.611867958, 
			 "HOMO_LUMO_gap": 0.19786, 
			 "cosmo_polarized_energy": -16.25, 
			 "cosmo_cavitation_energy": 33.37, 
			 "cosmo_dispersion_energy": -23.66, 
			 "cosmo_repulsion_energy": 1.88, 
			 "cosmo_total_nonelectrostatic_energy": 11.59, 
			 "SMD_solvation_energy": 7.1 
		},
		"coords": [
			{
				"x": -0.8207560398,
				"y": 1.8818812144,
				"z": -2.2286218457,
				"element": "C" 
			},
			{
				"x": -1.5835460279,
				"y": 1.1057847613,
				"z": -1.1528587974,
				"element": "C" 
			},
			{
				"x": -2.8188513092,
				"y": 1.8566429825,
				"z": -0.6682874148,
				"element": "C" 
			},
			{
				"x": -1.8810434741,
				"y": -0.359394022,
				"z": -1.5994321192,
				"element": "C" 
			},
			{
				"x": -0.8128215723,
				"y": -1.148838828,
				"z": -0.8809370055,
				"element": "C" 
			},
			{
				"x": -0.1979071495,
				"y": -0.2895247442,
				"z": 0.0240681304,
				"element": "C" 
			},
			{
				"x": -0.6795699443,
				"y": 0.9837403101,
				"z": 0.0030578759,
				"element": "O" 
			},
			{
				"x": 0.8229154387,
				"y": -0.7287456092,
				"z": 0.877574344,
				"element": "C" 
			},
			{
				"x": 1.3394655289,
				"y": 0.2088420842,
				"z": 1.7371953342,
				"element": "O" 
			},
			{
				"x": 2.2857245601,
				"y": -0.1969385402,
				"z": 2.6889073636,
				"element": "C" 
			},
			{
				"x": 3.6887909122,
				"y": -0.3513313868,
				"z": 2.1100062345,
				"element": "C" 
			},
			{
				"x": 4.539451348,
				"y": -0.7761446077,
				"z": 3.0768890078,
				"element": "O" 
			},
			{
				"x": 4.0246678469,
				"y": -0.1201828,
				"z": 0.9754688248,
				"element": "O" 
			},
			{
				"x": 1.2078510049,
				"y": -2.0706133289,
				"z": 0.7895902653,
				"element": "C" 
			},
			{
				"x": 0.5878752376,
				"y": -2.9370963408,
				"z": -0.1210080995,
				"element": "C" 
			},
			{
				"x": -0.4297517741,
				"y": -2.4860913522,
				"z": -0.9633105755,
				"element": "C" 
			},
			{
				"x": 0.0730226653,
				"y": 1.3304420867,
				"z": -2.5360158601,
				"element": "H" 
			},
			{
				"x": -1.4506615283,
				"y": 2.0387313312,
				"z": -3.1109707331,
				"element": "H" 
			},
			{
				"x": -0.5075669141,
				"y": 2.8569457623,
				"z": -1.845063909,
				"element": "H" 
			},
			{
				"x": -3.3100648558,
				"y": 1.305737969,
				"z": 0.1389404001,
				"element": "H" 
			},
			{
				"x": -3.5342958521,
				"y": 1.9844978107,
				"z": -1.4874074901,
				"element": "H" 
			},
			{
				"x": -2.544995638,
				"y": 2.8468142035,
				"z": -0.2923571925,
				"element": "H" 
			},
			{
				"x": -2.8857515869,
				"y": -0.674533194,
				"z": -1.2886072094,
				"element": "H" 
			},
			{
				"x": -1.8328065236,
				"y": -0.4613181729,
				"z": -2.6889421712,
				"element": "H" 
			},
			{
				"x": 2.3233201751,
				"y": 0.5936493386,
				"z": 3.44553608,
				"element": "H" 
			},
			{
				"x": 2.0013328179,
				"y": -1.1251041478,
				"z": 3.2024860113,
				"element": "H" 
			},
			{
				"x": 5.4179771151,
				"y": -0.8303801196,
				"z": 2.6644764533,
				"element": "H" 
			},
			{
				"x": 2.0072862473,
				"y": -2.4530341209,
				"z": 1.4138882419,
				"element": "H" 
			},
			{
				"x": 0.9154363106,
				"y": -3.9710052451,
				"z": -0.1687660542,
				"element": "H" 
			},
			{
				"x": -0.9071270186,
				"y": -3.1617332944,
				"z": -1.66699809,
				"element": "H" 
			}
		],
		 "valence_orbital": [ 
			{
				"type": "occ",
				"energy": -0.3189,
				"method": "rhf"
			},
			{
				"type": "occ",
				"energy": -0.30278,
				"method": "rhf"
			},
			{
				"type": "occ",
				"energy": -0.28246,
				"method": "rhf"
			},
			{
				"type": "occ",
				"energy": -0.22461,
				"method": "rhf"
			},
			{
				"type": "occ",
				"energy": -0.19593,
				"method": "rhf"
			},
			{
				"type": "unocc",
				"energy": 0.00193,
				"method": "rhf"
			},
			{
				"type": "unocc",
				"energy": 0.01089,
				"method": "rhf"
			},
			{
				"type": "unocc",
				"energy": 0.02342,
				"method": "rhf"
			},
			{
				"type": "unocc",
				"energy": 0.06759,
				"method": "rhf"
			},
			{
				"type": "unocc",
				"energy": 0.08532,
				"method": "rhf"
			}
		],
		"cosmo_sigma_profile": { 
			"-0.025": 0.0,
			"-0.024": 0.0,
			"-0.023": 0.0,
			"-0.022": 0.0,
			"-0.021": 0.0,
			"-0.02": 0.00282878486191,
			"-0.019": 0.516958293169,
			"-0.018": 0.864153714662,
			"-0.017": 1.14127178979,
			"-0.016": 0.511524236116,
			"-0.015": 0.516668383062,
			"-0.014": 0.618087380074,
			"-0.013": 0.578331240783,
			"-0.012": 0.698102557527,
			"-0.011": 1.14375515641,
			"-0.01": 0.55403618263,
			"-0.009": 3.58154095764,
			"-0.008": 5.53590737204,
			"-0.007": 6.1197844489,
			"-0.006": 6.60371100719,
			"-0.005": 11.5196829352,
			"-0.004": 25.8675967679,
			"-0.003": 27.5844437147,
			"-0.002": 25.1952541554,
			"-0.001": 20.5782462946,
			"0.0": 20.43191815,
			"0.001": 14.8786908296,
			"0.002": 8.41244875888,
			"0.003": 10.7664899152,
			"0.004": 10.7338948857,
			"0.005": 9.58283091556,
			"0.006": 10.9578172717,
			"0.007": 7.50029150797,
			"0.008": 5.59641794457,
			"0.009": 4.93290413417,
			"0.01": 6.2419405923,
			"0.011": 7.64174479446,
			"0.012": 4.5778587156,
			"0.013": 0.907086860708,
			"0.014": 0.0,
			"0.015": 0.0,
			"0.016": 0.0,
			"0.017": 0.0,
			"0.018": 0.0,
			"0.019": 0.0,
			"0.02": 0.0,
			"0.021": 0.0,
			"0.022": 0.0,
			"0.023": 0.0,
			"0.024": 0.0,
			"0.0": 0.0
		}
	}
}
