{
	 "smiles": "CCC1=CC=C(O1)C(O)=O", 
	 "Tm": 363.15, 
	 "num_atms": 18, 
	 "gaussian": { 
		 "optdone": 1, 
		 "sigma_profile": "yes", 
		 "theory": "DFT", 
		 "functional": "B3LYP", 
		 "basiset": "6-31G**", 
		 "properties": { 
			 "R2extent": 2831.6447, 
			 "electric_dipole_moment_norm": 5.73707491846, 
			 "electric_quadrupole_moment_norm": 20.4219606214, 
			 "total_energy": -497.234598433, 
			 "HOMO_LUMO_gap": 0.19612, 
			 "cosmo_polarized_energy": -12.19, 
			 "cosmo_cavitation_energy": 22.7, 
			 "cosmo_dispersion_energy": -16.48, 
			 "cosmo_repulsion_energy": 1.37, 
			 "cosmo_total_nonelectrostatic_energy": 7.59, 
			 "SMD_solvation_energy": 5.71 
		},
		"coords": [
			{
				"x": 2.8214074139,
				"y": 1.3044180616,
				"z": -1.0571024409,
				"element": "C" 
			},
			{
				"x": 2.4613587732,
				"y": 2.1713577364,
				"z": 0.1633379731,
				"element": "C" 
			},
			{
				"x": 1.3953029728,
				"y": 1.5797909995,
				"z": 1.0230585171,
				"element": "C" 
			},
			{
				"x": 0.1194941031,
				"y": 1.9609730137,
				"z": 1.3429543139,
				"element": "C" 
			},
			{
				"x": -0.4111364167,
				"y": 0.9617474873,
				"z": 2.2115104968,
				"element": "C" 
			},
			{
				"x": 0.5725132245,
				"y": 0.027887683,
				"z": 2.3698724914,
				"element": "C" 
			},
			{
				"x": 1.6851997493,
				"y": 0.3964684827,
				"z": 1.6455018636,
				"element": "O" 
			},
			{
				"x": 0.6272769455,
				"y": -1.220703088,
				"z": 3.1427661881,
				"element": "C" 
			},
			{
				"x": 1.7982136864,
				"y": -1.9031660872,
				"z": 3.0658568715,
				"element": "O" 
			},
			{
				"x": -0.3003196438,
				"y": -1.6243500217,
				"z": 3.8061216755,
				"element": "O" 
			},
			{
				"x": 3.6127858562,
				"y": 1.7800549844,
				"z": -1.6438136903,
				"element": "H" 
			},
			{
				"x": 1.9525028597,
				"y": 1.1609165355,
				"z": -1.7062022528,
				"element": "H" 
			},
			{
				"x": 3.1764790384,
				"y": 0.3179921925,
				"z": -0.7455751559,
				"element": "H" 
			},
			{
				"x": 2.114958723,
				"y": 3.1571900473,
				"z": -0.1629768226,
				"element": "H" 
			},
			{
				"x": 3.3611951056,
				"y": 2.3398591454,
				"z": 0.7695014636,
				"element": "H" 
			},
			{
				"x": -0.3774378184,
				"y": 2.8553498864,
				"z": 0.9951657743,
				"element": "H" 
			},
			{
				"x": -1.3886320528,
				"y": 0.9232008872,
				"z": 2.6686115075,
				"element": "H" 
			},
			{
				"x": 2.4156374801,
				"y": -1.4229879461,
				"z": 2.4922112259,
				"element": "H" 
			}
		],
		 "valence_orbital": [ 
			{
				"type": "occ",
				"energy": -0.3654,
				"method": "rhf"
			},
			{
				"type": "occ",
				"energy": -0.31328,
				"method": "rhf"
			},
			{
				"type": "occ",
				"energy": -0.29706,
				"method": "rhf"
			},
			{
				"type": "occ",
				"energy": -0.27243,
				"method": "rhf"
			},
			{
				"type": "occ",
				"energy": -0.24103,
				"method": "rhf"
			},
			{
				"type": "unocc",
				"energy": -0.04491,
				"method": "rhf"
			},
			{
				"type": "unocc",
				"energy": 0.03422,
				"method": "rhf"
			},
			{
				"type": "unocc",
				"energy": 0.07271,
				"method": "rhf"
			},
			{
				"type": "unocc",
				"energy": 0.09803,
				"method": "rhf"
			},
			{
				"type": "unocc",
				"energy": 0.10922,
				"method": "rhf"
			}
		],
		"cosmo_sigma_profile": { 
			"-0.025": 0.0,
			"-0.024": 0.0,
			"-0.023": 0.0,
			"-0.022": 0.0,
			"-0.021": 0.0,
			"-0.02": 0.0,
			"-0.019": 0.0,
			"-0.018": 0.0,
			"-0.017": 0.0930661448983,
			"-0.016": 0.502242130779,
			"-0.015": 0.603874919972,
			"-0.014": 0.320454360765,
			"-0.013": 0.46946027035,
			"-0.012": 1.09893902243,
			"-0.011": 1.39451867503,
			"-0.01": 0.749287351326,
			"-0.009": 0.920089682793,
			"-0.008": 2.88230910062,
			"-0.007": 4.45974707181,
			"-0.006": 6.33973107461,
			"-0.005": 10.3321141355,
			"-0.004": 12.427878302,
			"-0.003": 15.7684215654,
			"-0.002": 19.2188822985,
			"-0.001": 16.9211127864,
			"0.0": 18.8772803329,
			"0.001": 15.2123269807,
			"0.002": 9.28008482608,
			"0.003": 7.84455808087,
			"0.004": 3.90554931895,
			"0.005": 1.91286954956,
			"0.006": 1.92746563121,
			"0.007": 2.74627484488,
			"0.008": 2.98314537942,
			"0.009": 2.80703912348,
			"0.01": 5.18043654456,
			"0.011": 4.63949569762,
			"0.012": 5.98678080986,
			"0.013": 2.37075156357,
			"0.014": 0.169067119297,
			"0.015": 0.0,
			"0.016": 0.0,
			"0.017": 0.0,
			"0.018": 0.0,
			"0.019": 0.0,
			"0.02": 0.0,
			"0.021": 0.0,
			"0.022": 0.0,
			"0.023": 0.0,
			"0.024": 0.0,
			"0.025": 0.0
		}
	}
}
