{
	 "smiles": "OC(=O)C1=C(F)C(=CC=C1F)S(Cl)(=O)=O", 
	 "Tm": 382.15, 
	 "num_atms": 18, 
	 "gaussian": { 
		 "optdone": 1, 
		 "sigma_profile": "yes", 
		 "theory": "DFT", 
		 "functional": "B3LYP", 
		 "basiset": "6-31G**", 
		 "properties": { 
			 "R2extent": 4246.1195, 
			 "electric_dipole_moment_norm": 2.76387417044, 
			 "electric_quadrupole_moment_norm": 25.0606842189, 
			 "total_energy": -1627.4163348, 
			 "HOMO_LUMO_gap": 0.19002, 
			 "cosmo_polarized_energy": -16.39, 
			 "cosmo_cavitation_energy": 27.64, 
			 "cosmo_dispersion_energy": -20.75, 
			 "cosmo_repulsion_energy": 1.54, 
			 "cosmo_total_nonelectrostatic_energy": 8.44, 
			 "SMD_solvation_energy": 5.45 
		},
		"coords": [
			{
				"x": -2.7466396875,
				"y": 0.1427946289,
				"z": -1.6905490741,
				"element": "O" 
			},
			{
				"x": -1.4867972749,
				"y": -0.0091040856,
				"z": -2.1437004221,
				"element": "C" 
			},
			{
				"x": -1.2706341725,
				"y": -0.5597169088,
				"z": -3.1927355661,
				"element": "O" 
			},
			{
				"x": -0.3669671671,
				"y": 0.5542399811,
				"z": -1.2910390054,
				"element": "C" 
			},
			{
				"x": -0.465153698,
				"y": 0.7844141009,
				"z": 0.0843904082,
				"element": "C" 
			},
			{
				"x": -1.6387080999,
				"y": 0.5418199395,
				"z": 0.7055901704,
				"element": "F" 
			},
			{
				"x": 0.6030644851,
				"y": 1.2462656822,
				"z": 0.852352111,
				"element": "C" 
			},
			{
				"x": 1.8345336997,
				"y": 1.4971682397,
				"z": 0.2429536485,
				"element": "C" 
			},
			{
				"x": 1.9754643441,
				"y": 1.2954836337,
				"z": -1.1235071543,
				"element": "C" 
			},
			{
				"x": 0.8911779199,
				"y": 0.8315895136,
				"z": -1.8649132706,
				"element": "C" 
			},
			{
				"x": 1.0706207349,
				"y": 0.6699208916,
				"z": -3.1697542088,
				"element": "F" 
			},
			{
				"x": 0.4236494435,
				"y": 1.5916627894,
				"z": 2.5977014371,
				"element": "S" 
			},
			{
				"x": 0.2292219525,
				"y": -0.3609188235,
				"z": 3.3892743008,
				"element": "Cl" 
			},
			{
				"x": 1.696480768,
				"y": 2.1137216943,
				"z": 3.0762996259,
				"element": "O" 
			},
			{
				"x": -0.8376042336,
				"y": 2.2738708969,
				"z": 2.841010503,
				"element": "O" 
			},
			{
				"x": -2.7701481944,
				"y": 0.5377569785,
				"z": -0.8068825678,
				"element": "H" 
			},
			{
				"x": 2.6600880882,
				"y": 1.8546952685,
				"z": 0.8473226828,
				"element": "H" 
			},
			{
				"x": 2.9112510921,
				"y": 1.4915355792,
				"z": -1.6333136183,
				"element": "H" 
			}
		],
		 "valence_orbital": [ 
			{
				"type": "occ",
				"energy": -0.33826,
				"method": "rhf"
			},
			{
				"type": "occ",
				"energy": -0.33201,
				"method": "rhf"
			},
			{
				"type": "occ",
				"energy": -0.31642,
				"method": "rhf"
			},
			{
				"type": "occ",
				"energy": -0.30505,
				"method": "rhf"
			},
			{
				"type": "occ",
				"energy": -0.29689,
				"method": "rhf"
			},
			{
				"type": "unocc",
				"energy": -0.10687,
				"method": "rhf"
			},
			{
				"type": "unocc",
				"energy": -0.08952,
				"method": "rhf"
			},
			{
				"type": "unocc",
				"energy": -0.06707,
				"method": "rhf"
			},
			{
				"type": "unocc",
				"energy": 0.00011,
				"method": "rhf"
			},
			{
				"type": "unocc",
				"energy": 0.01666,
				"method": "rhf"
			}
		],
		"cosmo_sigma_profile": { 
			"-0.025": 0.0,
			"-0.024": 0.0,
			"-0.023": 0.0,
			"-0.022": 0.0,
			"-0.021": 0.0,
			"-0.02": 0.0,
			"-0.019": 0.0,
			"-0.018": 0.0,
			"-0.017": 0.112243088216,
			"-0.016": 1.15370167063,
			"-0.015": 0.89817306728,
			"-0.014": 1.20641763148,
			"-0.013": 0.757666709052,
			"-0.012": 0.809344076651,
			"-0.011": 1.44693205035,
			"-0.01": 3.2594115947,
			"-0.009": 5.40029447129,
			"-0.008": 6.24543078462,
			"-0.007": 7.71153480428,
			"-0.006": 9.76240288079,
			"-0.005": 13.7332407308,
			"-0.004": 15.5956403717,
			"-0.003": 14.9158313478,
			"-0.002": 12.9760604293,
			"-0.001": 10.8053780263,
			"0.0": 11.4650146185,
			"0.001": 14.9531836124,
			"0.002": 19.7936292859,
			"0.003": 13.4896096531,
			"0.004": 7.29680424615,
			"0.005": 5.3252596544,
			"0.006": 6.79258295039,
			"0.007": 12.8787036981,
			"0.008": 10.130008844,
			"0.009": 5.95754976388,
			"0.01": 5.62420350795,
			"0.011": 4.6664873158,
			"0.012": 1.40009164775,
			"0.013": 0.0236858365484,
			"0.014": 0.0,
			"0.015": 0.0,
			"0.016": 0.0,
			"0.017": 0.0,
			"0.018": 0.0,
			"0.019": 0.0,
			"0.02": 0.0,
			"0.021": 0.0,
			"0.022": 0.0,
			"0.023": 0.0,
			"0.024": 0.0,
			"0.025": 0.0
		}
	}
}
