{
	 "smiles": "ClC1=C2SC=CC2=NC=C1", 
	 "Tm": 306.15, 
	 "num_atms": 14, 
	 "gaussian": { 
		 "optdone": 1, 
		 "sigma_profile": "yes", 
		 "theory": "DFT", 
		 "functional": "B3LYP", 
		 "basiset": "6-31G**", 
		 "properties": { 
			 "R2extent": 2386.7141, 
			 "electric_dipole_moment_norm": 0.476699339207, 
			 "electric_quadrupole_moment_norm": 9.47316854015, 
			 "total_energy": -1182.27863744, 
			 "HOMO_LUMO_gap": 0.19087, 
			 "cosmo_polarized_energy": -5.77, 
			 "cosmo_cavitation_energy": 21.57, 
			 "cosmo_dispersion_energy": -17.04, 
			 "cosmo_repulsion_energy": 1.31, 
			 "cosmo_total_nonelectrostatic_energy": 5.84, 
			 "SMD_solvation_energy": 1.73 
		},
		"coords": [
			{
				"x": -0.0156466964,
				"y": -3.2889905279,
				"z": -1.359115913,
				"element": "Cl" 
			},
			{
				"x": 0.1507876758,
				"y": -1.6138272968,
				"z": -1.8313069999,
				"element": "C" 
			},
			{
				"x": 0.6839851829,
				"y": -0.673658035,
				"z": -0.9499433007,
				"element": "C" 
			},
			{
				"x": 1.2671662068,
				"y": -0.8807045305,
				"z": 0.6822966595,
				"element": "S" 
			},
			{
				"x": 1.6561271664,
				"y": 0.8275678759,
				"z": 0.7722091346,
				"element": "C" 
			},
			{
				"x": 1.364662356,
				"y": 1.5160634403,
				"z": -0.359741475,
				"element": "C" 
			},
			{
				"x": 0.797346561,
				"y": 0.6764418979,
				"z": -1.3845207968,
				"element": "C" 
			},
			{
				"x": 0.4160576336,
				"y": 1.0953969742,
				"z": -2.604888158,
				"element": "N" 
			},
			{
				"x": -0.0880721281,
				"y": 0.1729213904,
				"z": -3.420107465,
				"element": "C" 
			},
			{
				"x": -0.24407156,
				"y": -1.1858131357,
				"z": -3.0919760862,
				"element": "C" 
			},
			{
				"x": 2.0868546072,
				"y": 1.2113921192,
				"z": 1.6872917483,
				"element": "H" 
			},
			{
				"x": 1.5314039542,
				"y": 2.576880188,
				"z": -0.4987668683,
				"element": "H" 
			},
			{
				"x": -0.3951950013,
				"y": 0.5159907914,
				"z": -4.4061709993,
				"element": "H" 
			},
			{
				"x": -0.6632059581,
				"y": -1.8840611514,
				"z": -3.8068594802,
				"element": "H" 
			}
		],
		 "valence_orbital": [ 
			{
				"type": "occ",
				"energy": -0.32757,
				"method": "rhf"
			},
			{
				"type": "occ",
				"energy": -0.29369,
				"method": "rhf"
			},
			{
				"type": "occ",
				"energy": -0.26752,
				"method": "rhf"
			},
			{
				"type": "occ",
				"energy": -0.25483,
				"method": "rhf"
			},
			{
				"type": "occ",
				"energy": -0.24194,
				"method": "rhf"
			},
			{
				"type": "unocc",
				"energy": -0.05107,
				"method": "rhf"
			},
			{
				"type": "unocc",
				"energy": -0.02475,
				"method": "rhf"
			},
			{
				"type": "unocc",
				"energy": -0.00182,
				"method": "rhf"
			},
			{
				"type": "unocc",
				"energy": 0.03423,
				"method": "rhf"
			},
			{
				"type": "unocc",
				"energy": 0.03731,
				"method": "rhf"
			}
		],
		"cosmo_sigma_profile": { 
			"-0.025": 0.0,
			"-0.024": 0.0,
			"-0.023": 0.0,
			"-0.022": 0.0,
			"-0.021": 0.0,
			"-0.02": 0.0,
			"-0.019": 0.0,
			"-0.018": 0.0,
			"-0.017": 0.0,
			"-0.016": 0.0,
			"-0.015": 0.0,
			"-0.014": 0.0,
			"-0.013": 0.0,
			"-0.012": 0.0,
			"-0.011": 0.0,
			"-0.01": 0.684232139044,
			"-0.009": 2.43447860788,
			"-0.008": 4.94671346328,
			"-0.007": 7.80358441828,
			"-0.006": 7.60538912985,
			"-0.005": 6.74782126852,
			"-0.004": 6.66994015434,
			"-0.003": 7.28401718354,
			"-0.002": 8.29552242067,
			"-0.001": 12.5887722339,
			"0.0": 23.9994445238,
			"0.001": 28.041818175,
			"0.002": 22.9578465309,
			"0.003": 18.4420558256,
			"0.004": 8.62679557166,
			"0.005": 1.5009881222,
			"0.006": 1.30138029505,
			"0.007": 1.94371455364,
			"0.008": 0.944523906771,
			"0.009": 0.36130620295,
			"0.01": 1.23051502007,
			"0.011": 1.2016822887,
			"0.012": 0.980581193417,
			"0.013": 0.786288710255,
			"0.014": 0.644477733051,
			"0.015": 1.05795832589,
			"0.016": 0.120849883853,
			"0.017": 0.0,
			"0.018": 0.0,
			"0.019": 0.0,
			"0.02": 0.0,
			"0.021": 0.0,
			"0.022": 0.0,
			"0.023": 0.0,
			"0.024": 0.0,
			"0.025": 0.0
		}
	}
}
