{
	 "smiles": "OC(=O)CCC1=NC(=NO1)C1=CC(Br)=CS1", 
	 "Tm": 403.15, 
	 "num_atms": 23, 
	 "gaussian": { 
		 "optdone": 1, 
		 "sigma_profile": "yes", 
		 "theory": "DFT", 
		 "functional": "B3LYP", 
		 "basiset": "6-31G**", 
		 "properties": { 
			 "R2extent": 8253.7647, 
			 "electric_dipole_moment_norm": 3.86686689065, 
			 "electric_quadrupole_moment_norm": 10.5400820187, 
			 "total_energy": -3651.90876518, 
			 "HOMO_LUMO_gap": 0.17662, 
			 "cosmo_polarized_energy": -14.88, 
			 "cosmo_cavitation_energy": 33.39, 
			 "cosmo_dispersion_energy": -24.73, 
			 "cosmo_repulsion_energy": 1.93, 
			 "cosmo_total_nonelectrostatic_energy": 10.59, 
			 "SMD_solvation_energy": 4.08 
		},
		"coords": [
			{
				"x": 3.9996896937,
				"y": 2.54436543,
				"z": 0.8105430433,
				"element": "O" 
			},
			{
				"x": 2.9153664342,
				"y": 2.289024365,
				"z": 1.5747580368,
				"element": "C" 
			},
			{
				"x": 1.9738540884,
				"y": 3.046103565,
				"z": 1.661530427,
				"element": "O" 
			},
			{
				"x": 3.0503314361,
				"y": 0.9684935055,
				"z": 2.305430764,
				"element": "C" 
			},
			{
				"x": 1.770727505,
				"y": 0.5976156966,
				"z": 3.055628125,
				"element": "C" 
			},
			{
				"x": 0.6585986273,
				"y": 0.2277488993,
				"z": 2.129037353,
				"element": "C" 
			},
			{
				"x": 0.7333241547,
				"y": -0.172211096,
				"z": 0.8939435528,
				"element": "N" 
			},
			{
				"x": -0.5918125398,
				"y": -0.3978472659,
				"z": 0.5757952098,
				"element": "C" 
			},
			{
				"x": -1.4381631453,
				"y": -0.1583806529,
				"z": 1.5542300229,
				"element": "N" 
			},
			{
				"x": -0.598090978,
				"y": 0.2638677077,
				"z": 2.5990612088,
				"element": "O" 
			},
			{
				"x": -1.0101054614,
				"y": -0.8634254144,
				"z": -0.7347618233,
				"element": "C" 
			},
			{
				"x": -2.2842953185,
				"y": -1.1221071228,
				"z": -1.1794859898,
				"element": "C" 
			},
			{
				"x": -2.2912109672,
				"y": -1.5650145417,
				"z": -2.5298771289,
				"element": "C" 
			},
			{
				"x": -3.8869022883,
				"y": -2.0091876231,
				"z": -3.4552630163,
				"element": "Br" 
			},
			{
				"x": -1.0482440642,
				"y": -1.6405432917,
				"z": -3.0974849621,
				"element": "C" 
			},
			{
				"x": 0.1794708203,
				"y": -1.1638370848,
				"z": -1.9760811062,
				"element": "S" 
			},
			{
				"x": 3.8387724169,
				"y": 3.4034391249,
				"z": 0.3849000188,
				"element": "H" 
			},
			{
				"x": 3.889701127,
				"y": 1.0547838682,
				"z": 3.0047164342,
				"element": "H" 
			},
			{
				"x": 3.3226363219,
				"y": 0.1965970752,
				"z": 1.5799769666,
				"element": "H" 
			},
			{
				"x": 1.4357763656,
				"y": 1.4288898806,
				"z": 3.6817375811,
				"element": "H" 
			},
			{
				"x": 1.9637346846,
				"y": -0.2529015053,
				"z": 3.7208003158,
				"element": "H" 
			},
			{
				"x": -3.170076344,
				"y": -1.0003416431,
				"z": -0.570073756,
				"element": "H" 
			},
			{
				"x": -0.7916825688,
				"y": -1.9459318762,
				"z": -4.1010612772,
				"element": "H" 
			}
		],
		 "valence_orbital": [ 
			{
				"type": "occ",
				"energy": -0.30009,
				"method": "rhf"
			},
			{
				"type": "occ",
				"energy": -0.29219,
				"method": "rhf"
			},
			{
				"type": "occ",
				"energy": -0.28753,
				"method": "rhf"
			},
			{
				"type": "occ",
				"energy": -0.25694,
				"method": "rhf"
			},
			{
				"type": "occ",
				"energy": -0.23568,
				"method": "rhf"
			},
			{
				"type": "unocc",
				"energy": -0.05906,
				"method": "rhf"
			},
			{
				"type": "unocc",
				"energy": -0.01531,
				"method": "rhf"
			},
			{
				"type": "unocc",
				"energy": -0.0026,
				"method": "rhf"
			},
			{
				"type": "unocc",
				"energy": 6e-05,
				"method": "rhf"
			},
			{
				"type": "unocc",
				"energy": 0.02429,
				"method": "rhf"
			}
		],
		"cosmo_sigma_profile": { 
			"-0.025": 0.0,
			"-0.024": 0.0,
			"-0.023": 0.0,
			"-0.022": 0.0,
			"-0.021": 0.0,
			"-0.02": 0.0,
			"-0.019": 0.0649517945921,
			"-0.018": 0.754060567613,
			"-0.017": 1.0736352108,
			"-0.016": 0.733147605441,
			"-0.015": 0.7347321281,
			"-0.014": 1.14685694751,
			"-0.013": 0.236342772945,
			"-0.012": 0.692867947087,
			"-0.011": 1.54342019362,
			"-0.01": 2.3138396166,
			"-0.009": 2.58277518133,
			"-0.008": 7.08740391162,
			"-0.007": 12.9702090603,
			"-0.006": 13.0139385557,
			"-0.005": 14.2745235979,
			"-0.004": 13.6421911462,
			"-0.003": 11.0518902077,
			"-0.002": 14.5552265344,
			"-0.001": 15.0002010578,
			"0.0": 20.1800807311,
			"0.001": 30.3971871999,
			"0.002": 27.2444916609,
			"0.003": 16.799550887,
			"0.004": 18.720640511,
			"0.005": 8.81873112639,
			"0.006": 9.13841623303,
			"0.007": 5.24334165785,
			"0.008": 5.5884810695,
			"0.009": 5.58116092341,
			"0.01": 3.68438325552,
			"0.011": 4.93719878619,
			"0.012": 3.28234369011,
			"0.013": 0.128461012975,
			"0.014": 0.0,
			"0.015": 0.0,
			"0.016": 0.0,
			"0.017": 0.0,
			"0.018": 0.0,
			"0.019": 0.0,
			"0.02": 0.0,
			"0.021": 0.0,
			"0.022": 0.0,
			"0.023": 0.0,
			"0.024": 0.0,
			"0.025": 0.0
		}
	}
}
