{
	 "smiles": "CCC(CC)(C(O)=O)C1=CC(Cl)=C(Cl)C=C1", 
	 "Tm": 368.15, 
	 "num_atms": 30, 
	 "gaussian": { 
		 "optdone": 1, 
		 "sigma_profile": "yes", 
		 "theory": "DFT", 
		 "functional": "B3LYP", 
		 "basiset": "6-31G**", 
		 "properties": { 
			 "R2extent": 6023.9336, 
			 "electric_dipole_moment_norm": 2.34803813427, 
			 "electric_quadrupole_moment_norm": 12.2248607509, 
			 "total_energy": -1536.57082096, 
			 "HOMO_LUMO_gap": 0.21758, 
			 "cosmo_polarized_energy": -9.92, 
			 "cosmo_cavitation_energy": 35.39, 
			 "cosmo_dispersion_energy": -24.73, 
			 "cosmo_repulsion_energy": 1.95, 
			 "cosmo_total_nonelectrostatic_energy": 12.61, 
			 "SMD_solvation_energy": 6.52 
		},
		"coords": [
			{
				"x": 2.3227054259,
				"y": 1.2174829145,
				"z": -1.6439593983,
				"element": "C" 
			},
			{
				"x": 1.1139248535,
				"y": 0.2848026366,
				"z": -1.5008943383,
				"element": "C" 
			},
			{
				"x": 0.6151398425,
				"y": 0.0769347644,
				"z": -0.0461502994,
				"element": "C" 
			},
			{
				"x": 1.7186261769,
				"y": -0.5393756419,
				"z": 0.8635457386,
				"element": "C" 
			},
			{
				"x": 2.2383466298,
				"y": -1.9072268094,
				"z": 0.4121938056,
				"element": "C" 
			},
			{
				"x": 0.2160612338,
				"y": 1.4360974907,
				"z": 0.5558219651,
				"element": "C" 
			},
			{
				"x": -0.5168771139,
				"y": 2.1871093548,
				"z": -0.3000893446,
				"element": "O" 
			},
			{
				"x": 0.4801744287,
				"y": 1.816369413,
				"z": 1.6765138593,
				"element": "O" 
			},
			{
				"x": -0.6568019727,
				"y": -0.7986214794,
				"z": 0.018272009,
				"element": "C" 
			},
			{
				"x": -1.1550615922,
				"y": -1.4884375773,
				"z": -1.0899271493,
				"element": "C" 
			},
			{
				"x": -2.2926748636,
				"y": -2.295276779,
				"z": -0.9901883473,
				"element": "C" 
			},
			{
				"x": -2.8484328177,
				"y": -3.1293353144,
				"z": -2.4229331918,
				"element": "Cl" 
			},
			{
				"x": -2.9602022645,
				"y": -2.4219237542,
				"z": 0.2317390219,
				"element": "C" 
			},
			{
				"x": -4.3855091514,
				"y": -3.4153201296,
				"z": 0.4054157067,
				"element": "Cl" 
			},
			{
				"x": -2.473794362,
				"y": -1.7312610451,
				"z": 1.3444768448,
				"element": "C" 
			},
			{
				"x": -1.3397926562,
				"y": -0.9348050868,
				"z": 1.2383874701,
				"element": "C" 
			},
			{
				"x": 2.5767650914,
				"y": 1.3384950282,
				"z": -2.7014748343,
				"element": "H" 
			},
			{
				"x": 3.2101779151,
				"y": 0.827795201,
				"z": -1.1368012988,
				"element": "H" 
			},
			{
				"x": 2.1148589423,
				"y": 2.2145869226,
				"z": -1.2425461129,
				"element": "H" 
			},
			{
				"x": 1.3700662054,
				"y": -0.6926200603,
				"z": -1.9225118649,
				"element": "H" 
			},
			{
				"x": 0.2884928426,
				"y": 0.6800020125,
				"z": -2.0997062509,
				"element": "H" 
			},
			{
				"x": 1.3212512738,
				"y": -0.6142640595,
				"z": 1.8789342026,
				"element": "H" 
			},
			{
				"x": 2.5485185182,
				"y": 0.1712166317,
				"z": 0.9312531422,
				"element": "H" 
			},
			{
				"x": 2.7597402856,
				"y": -1.8576917374,
				"z": -0.5491024216,
				"element": "H" 
			},
			{
				"x": 2.9501819725,
				"y": -2.2962829106,
				"z": 1.1467438788,
				"element": "H" 
			},
			{
				"x": 1.4285676287,
				"y": -2.6374039337,
				"z": 0.316660869,
				"element": "H" 
			},
			{
				"x": -0.74625801,
				"y": 2.9983506377,
				"z": 0.1839856863,
				"element": "H" 
			},
			{
				"x": -0.6754826836,
				"y": -1.4167904796,
				"z": -2.0570362453,
				"element": "H" 
			},
			{
				"x": -2.9945736889,
				"y": -1.8248103598,
				"z": 2.2910868558,
				"element": "H" 
			},
			{
				"x": -0.98953809,
				"y": -0.4015958498,
				"z": 2.1165900419,
				"element": "H" 
			}
		],
		 "valence_orbital": [ 
			{
				"type": "occ",
				"energy": -0.32475,
				"method": "rhf"
			},
			{
				"type": "occ",
				"energy": -0.30919,
				"method": "rhf"
			},
			{
				"type": "occ",
				"energy": -0.28226,
				"method": "rhf"
			},
			{
				"type": "occ",
				"energy": -0.26314,
				"method": "rhf"
			},
			{
				"type": "occ",
				"energy": -0.24728,
				"method": "rhf"
			},
			{
				"type": "unocc",
				"energy": -0.0297,
				"method": "rhf"
			},
			{
				"type": "unocc",
				"energy": -0.02705,
				"method": "rhf"
			},
			{
				"type": "unocc",
				"energy": 7e-05,
				"method": "rhf"
			},
			{
				"type": "unocc",
				"energy": 0.00921,
				"method": "rhf"
			},
			{
				"type": "unocc",
				"energy": 0.06127,
				"method": "rhf"
			}
		],
		"cosmo_sigma_profile": { 
			"-0.025": 0.0,
			"-0.024": 0.0,
			"-0.023": 0.0,
			"-0.022": 0.0,
			"-0.021": 0.0,
			"-0.02": 0.0,
			"-0.019": 0.0242494124656,
			"-0.018": 0.754680410457,
			"-0.017": 1.11074781297,
			"-0.016": 0.705765106674,
			"-0.015": 0.982616807407,
			"-0.014": 0.375192196741,
			"-0.013": 0.322087105328,
			"-0.012": 1.07084544487,
			"-0.011": 0.627064490053,
			"-0.01": 1.04588828662,
			"-0.009": 0.831953563172,
			"-0.008": 1.59639557247,
			"-0.007": 4.22058039609,
			"-0.006": 6.85664657839,
			"-0.005": 6.44402861648,
			"-0.004": 13.0133088129,
			"-0.003": 24.754719952,
			"-0.002": 26.8860990834,
			"-0.001": 30.7219277667,
			"0.0": 35.6967913375,
			"0.001": 36.6404515024,
			"0.002": 22.1154739508,
			"0.003": 18.1561857193,
			"0.004": 20.7947036149,
			"0.005": 8.33379348366,
			"0.006": 3.58202880829,
			"0.007": 2.79712351844,
			"0.008": 2.51545573374,
			"0.009": 1.5046382715,
			"0.01": 2.08105864775,
			"0.011": 3.71459414546,
			"0.012": 2.99841323965,
			"0.013": 0.0316527232766,
			"0.014": 0.0,
			"0.015": 0.0,
			"0.016": 0.0,
			"0.017": 0.0,
			"0.018": 0.0,
			"0.019": 0.0,
			"0.02": 0.0,
			"0.021": 0.0,
			"0.022": 0.0,
			"0.023": 0.0,
			"0.024": 0.0,
			"0.025": 0.0
		}
	}
}
