{
	 "smiles": "CCCOCOCCC", 
	 "Tm": 175.85, 
	 "num_atms": 25, 
	 "gaussian": { 
		 "optdone": 1, 
		 "sigma_profile": "yes", 
		 "theory": "DFT", 
		 "functional": "B3LYP", 
		 "basiset": "6-31G**", 
		 "properties": { 
			 "R2extent": 2340.3828, 
			 "electric_dipole_moment_norm": 1.75749149073, 
			 "electric_quadrupole_moment_norm": 5.40579508491, 
			 "total_energy": -426.82372234, 
			 "HOMO_LUMO_gap": 0.32516, 
			 "cosmo_polarized_energy": -6.19, 
			 "cosmo_cavitation_energy": 26.81, 
			 "cosmo_dispersion_energy": -18.99, 
			 "cosmo_repulsion_energy": 1.61, 
			 "cosmo_total_nonelectrostatic_energy": 9.44, 
			 "SMD_solvation_energy": 4.9 
		},
		"coords": [
			{
				"x": -0.1610966755,
				"y": 2.6976044412,
				"z": 0.7351020715,
				"element": "C" 
			},
			{
				"x": 1.1777665309,
				"y": 1.9929233397,
				"z": 0.9698392373,
				"element": "C" 
			},
			{
				"x": 1.0214532168,
				"y": 0.5107205523,
				"z": 1.332408687,
				"element": "C" 
			},
			{
				"x": 0.332415426,
				"y": -0.2620285987,
				"z": 0.3573279546,
				"element": "O" 
			},
			{
				"x": 1.1145425779,
				"y": -0.6224359808,
				"z": -0.7671791327,
				"element": "C" 
			},
			{
				"x": 0.4390147615,
				"y": -1.5827704836,
				"z": -1.5079914751,
				"element": "O" 
			},
			{
				"x": -0.6923313506,
				"y": -1.0909312442,
				"z": -2.2407332385,
				"element": "C" 
			},
			{
				"x": -0.3099138279,
				"y": -0.5767084591,
				"z": -3.6301045846,
				"element": "C" 
			},
			{
				"x": 0.3318297724,
				"y": -1.6507577771,
				"z": -4.5129758645,
				"element": "C" 
			},
			{
				"x": -0.722854481,
				"y": 2.2083241551,
				"z": -0.0657137395,
				"element": "H" 
			},
			{
				"x": -0.0165071039,
				"y": 3.7469617468,
				"z": 0.4595583437,
				"element": "H" 
			},
			{
				"x": -0.7831013832,
				"y": 2.67035938,
				"z": 1.6371449348,
				"element": "H" 
			},
			{
				"x": 1.8158268519,
				"y": 2.0954231442,
				"z": 0.0828371185,
				"element": "H" 
			},
			{
				"x": 1.7221577899,
				"y": 2.4791572937,
				"z": 1.7903232031,
				"element": "H" 
			},
			{
				"x": 2.0097562512,
				"y": 0.0658922031,
				"z": 1.5358560478,
				"element": "H" 
			},
			{
				"x": 0.4253312031,
				"y": 0.418038402,
				"z": 2.2474342833,
				"element": "H" 
			},
			{
				"x": 1.3465362855,
				"y": 0.2706182313,
				"z": -1.3747314149,
				"element": "H" 
			},
			{
				"x": 2.0587817507,
				"y": -1.0844831851,
				"z": -0.4407195057,
				"element": "H" 
			},
			{
				"x": -1.2064032431,
				"y": -0.3180059878,
				"z": -1.6576901053,
				"element": "H" 
			},
			{
				"x": -1.3727318499,
				"y": -1.9449499753,
				"z": -2.3305306257,
				"element": "H" 
			},
			{
				"x": -1.2192908404,
				"y": -0.1858244424,
				"z": -4.106041504,
				"element": "H" 
			},
			{
				"x": 0.3702975658,
				"y": 0.2792229448,
				"z": -3.528760622,
				"element": "H" 
			},
			{
				"x": 0.6263589772,
				"y": -1.2444875017,
				"z": -5.4857641592,
				"element": "H" 
			},
			{
				"x": -0.3627633083,
				"y": -2.4795186708,
				"z": -4.6925622224,
				"element": "H" 
			},
			{
				"x": 1.2218251029,
				"y": -2.0637435276,
				"z": -4.0299336877,
				"element": "H" 
			}
		],
		 "valence_orbital": [ 
			{
				"type": "occ",
				"energy": -0.33494,
				"method": "rhf"
			},
			{
				"type": "occ",
				"energy": -0.31512,
				"method": "rhf"
			},
			{
				"type": "occ",
				"energy": -0.30992,
				"method": "rhf"
			},
			{
				"type": "occ",
				"energy": -0.26241,
				"method": "rhf"
			},
			{
				"type": "occ",
				"energy": -0.2504,
				"method": "rhf"
			},
			{
				"type": "unocc",
				"energy": 0.07476,
				"method": "rhf"
			},
			{
				"type": "unocc",
				"energy": 0.09917,
				"method": "rhf"
			},
			{
				"type": "unocc",
				"energy": 0.11811,
				"method": "rhf"
			},
			{
				"type": "unocc",
				"energy": 0.12389,
				"method": "rhf"
			},
			{
				"type": "unocc",
				"energy": 0.13018,
				"method": "rhf"
			}
		],
		"cosmo_sigma_profile": { 
			"-0.025": 0.0,
			"-0.024": 0.0,
			"-0.023": 0.0,
			"-0.022": 0.0,
			"-0.021": 0.0,
			"-0.02": 0.0,
			"-0.019": 0.0,
			"-0.018": 0.0,
			"-0.017": 0.0,
			"-0.016": 0.0,
			"-0.015": 0.0,
			"-0.014": 0.0,
			"-0.013": 0.0,
			"-0.012": 0.0,
			"-0.011": 0.0,
			"-0.01": 0.0,
			"-0.009": 0.0,
			"-0.008": 0.0,
			"-0.007": 0.0,
			"-0.006": 0.0,
			"-0.005": 3.31071759265,
			"-0.004": 18.0750443906,
			"-0.003": 30.1656202204,
			"-0.002": 35.731747197,
			"-0.001": 27.8091454363,
			"0.0": 26.3230253714,
			"0.001": 22.9201658879,
			"0.002": 13.5449608663,
			"0.003": 3.37138194825,
			"0.004": 2.67609755244,
			"0.005": 2.75045026769,
			"0.006": 3.4106855683,
			"0.007": 2.28679028851,
			"0.008": 2.12065208355,
			"0.009": 1.89624000841,
			"0.01": 2.03249449604,
			"0.011": 2.13189037412,
			"0.012": 2.9289167355,
			"0.013": 2.63044914736,
			"0.014": 0.713712360103,
			"0.015": 0.0,
			"0.016": 0.0,
			"0.017": 0.0,
			"0.018": 0.0,
			"0.019": 0.0,
			"0.02": 0.0,
			"0.021": 0.0,
			"0.022": 0.0,
			"0.023": 0.0,
			"0.024": 0.0,
			"0.025": 0.0
		}
	}
}
