{
	 "smiles": "O=C1CNC(=O)C2=C(N1)C=CS2", 
	 "Tm": 513.15, 
	 "num_atms": 18, 
	 "gaussian": { 
		 "optdone": 1, 
		 "sigma_profile": "yes", 
		 "theory": "DFT", 
		 "functional": "B3LYP", 
		 "basiset": "6-31G**", 
		 "properties": { 
			 "R2extent": 2393.973, 
			 "electric_dipole_moment_norm": 3.18307160617, 
			 "electric_quadrupole_moment_norm": 18.9947522982, 
			 "total_energy": -928.508678812, 
			 "HOMO_LUMO_gap": 0.18026, 
			 "cosmo_polarized_energy": -18.73, 
			 "cosmo_cavitation_energy": 23.78, 
			 "cosmo_dispersion_energy": -18.52, 
			 "cosmo_repulsion_energy": 1.42, 
			 "cosmo_total_nonelectrostatic_energy": 6.68, 
			 "SMD_solvation_energy": 4.58 
		},
		"coords": [
			{
				"x": 1.9335322207,
				"y": 3.4096588854,
				"z": -1.2201057845,
				"element": "O" 
			},
			{
				"x": 1.3240368429,
				"y": 2.4065905596,
				"z": -0.8912322142,
				"element": "C" 
			},
			{
				"x": 1.2522063612,
				"y": 1.9061894721,
				"z": 0.5492822292,
				"element": "C" 
			},
			{
				"x": -0.1092602929,
				"y": 1.7810121555,
				"z": 1.0522025002,
				"element": "N" 
			},
			{
				"x": -0.9483643003,
				"y": 0.7263156333,
				"z": 0.7681531389,
				"element": "C" 
			},
			{
				"x": -1.8713419406,
				"y": 0.4110870136,
				"z": 1.5141608936,
				"element": "O" 
			},
			{
				"x": -0.6933144824,
				"y": 0.0259637903,
				"z": -0.5023978539,
				"element": "C" 
			},
			{
				"x": -0.0216578015,
				"y": 0.4262415683,
				"z": -1.6491740516,
				"element": "C" 
			},
			{
				"x": 0.6851770412,
				"y": 1.6190018536,
				"z": -1.8297308707,
				"element": "N" 
			},
			{
				"x": -0.1567302663,
				"y": -0.5131432467,
				"z": -2.7199909197,
				"element": "C" 
			},
			{
				"x": -0.9230020421,
				"y": -1.5906381801,
				"z": -2.3734486149,
				"element": "C" 
			},
			{
				"x": -1.5038627826,
				"y": -1.4989790791,
				"z": -0.7527250003,
				"element": "S" 
			},
			{
				"x": 1.7929245129,
				"y": 0.9507396231,
				"z": 0.6203576538,
				"element": "H" 
			},
			{
				"x": 1.7822911599,
				"y": 2.6430615281,
				"z": 1.1514622018,
				"element": "H" 
			},
			{
				"x": -0.3241957234,
				"y": 2.2284335402,
				"z": 1.9334575244,
				"element": "H" 
			},
			{
				"x": 0.8273910376,
				"y": 1.9360042641,
				"z": -2.7808783126,
				"element": "H" 
			},
			{
				"x": 0.3046960508,
				"y": -0.3808383584,
				"z": -3.69246021,
				"element": "H" 
			},
			{
				"x": -1.1667255951,
				"y": -2.4452010229,
				"z": -2.9899323096,
				"element": "H" 
			}
		],
		 "valence_orbital": [ 
			{
				"type": "occ",
				"energy": -0.29039,
				"method": "rhf"
			},
			{
				"type": "occ",
				"energy": -0.26942,
				"method": "rhf"
			},
			{
				"type": "occ",
				"energy": -0.25799,
				"method": "rhf"
			},
			{
				"type": "occ",
				"energy": -0.24814,
				"method": "rhf"
			},
			{
				"type": "occ",
				"energy": -0.23512,
				"method": "rhf"
			},
			{
				"type": "unocc",
				"energy": -0.05486,
				"method": "rhf"
			},
			{
				"type": "unocc",
				"energy": -0.00294,
				"method": "rhf"
			},
			{
				"type": "unocc",
				"energy": 0.0156,
				"method": "rhf"
			},
			{
				"type": "unocc",
				"energy": 0.0302,
				"method": "rhf"
			},
			{
				"type": "unocc",
				"energy": 0.07345,
				"method": "rhf"
			}
		],
		"cosmo_sigma_profile": { 
			"-0.025": 0.0,
			"-0.024": 0.0,
			"-0.023": 0.0,
			"-0.022": 0.0,
			"-0.021": 0.0,
			"-0.02": 0.0,
			"-0.019": 0.0,
			"-0.018": 0.0,
			"-0.017": 0.0,
			"-0.016": 0.473819108865,
			"-0.015": 1.53987426769,
			"-0.014": 2.17131891566,
			"-0.013": 2.87326013833,
			"-0.012": 2.26144931518,
			"-0.011": 2.61063923704,
			"-0.01": 2.718827256,
			"-0.009": 5.79347516253,
			"-0.008": 7.38453481222,
			"-0.007": 8.66458182446,
			"-0.006": 9.11143413642,
			"-0.005": 9.94966456249,
			"-0.004": 8.09272685964,
			"-0.003": 8.95555517788,
			"-0.002": 6.90435256002,
			"-0.001": 9.38009986595,
			"0.0": 11.5914026889,
			"0.001": 14.2415012645,
			"0.002": 16.9758757111,
			"0.003": 12.1040374033,
			"0.004": 7.5568494919,
			"0.005": 3.19797710027,
			"0.006": 2.59207920957,
			"0.007": 2.37710132553,
			"0.008": 3.18893998831,
			"0.009": 3.4290105178,
			"0.01": 2.68143136422,
			"0.011": 3.72703211387,
			"0.012": 7.94908156696,
			"0.013": 8.53480378567,
			"0.014": 3.15174786091,
			"0.015": 0.0318077938774,
			"0.016": 0.0,
			"0.017": 0.0,
			"0.018": 0.0,
			"0.019": 0.0,
			"0.02": 0.0,
			"0.021": 0.0,
			"0.022": 0.0,
			"0.023": 0.0,
			"0.024": 0.0,
			"0.025": 0.0
		}
	}
}
