{
	 "smiles": "ClC1=CC2=C(OC3=C(O2)C=C(Cl)C(Cl)=C3Cl)C=C1", 
	 "Tm": 445.15, 
	 "num_atms": 22, 
	 "gaussian": { 
		 "optdone": 1, 
		 "sigma_profile": "yes", 
		 "theory": "DFT", 
		 "functional": "B3LYP", 
		 "basiset": "6-31G**", 
		 "properties": { 
			 "R2extent": 9892.22, 
			 "electric_dipole_moment_norm": 1.49598062487, 
			 "electric_quadrupole_moment_norm": 13.4072870395, 
			 "total_energy": -2450.87220154, 
			 "HOMO_LUMO_gap": 0.17454, 
			 "cosmo_polarized_energy": -5.93, 
			 "cosmo_cavitation_energy": 34.26, 
			 "cosmo_dispersion_energy": -26.15, 
			 "cosmo_repulsion_energy": 1.99, 
			 "cosmo_total_nonelectrostatic_energy": 10.09, 
			 "SMD_solvation_energy": 5.2 
		},
		"coords": [
			{
				"x": 2.2368750379,
				"y": -0.4051601312,
				"z": 4.3709628211,
				"element": "Cl" 
			},
			{
				"x": 1.4242658453,
				"y": -0.1310930995,
				"z": 2.8409867545,
				"element": "C" 
			},
			{
				"x": 2.1238755147,
				"y": -0.3557351785,
				"z": 1.6539030133,
				"element": "C" 
			},
			{
				"x": 1.4769084463,
				"y": -0.1375892682,
				"z": 0.44399275,
				"element": "C" 
			},
			{
				"x": 0.1496408638,
				"y": 0.2988312204,
				"z": 0.4167952962,
				"element": "C" 
			},
			{
				"x": -0.5176090289,
				"y": 0.5235301921,
				"z": -0.7730795934,
				"element": "O" 
			},
			{
				"x": 0.1914857016,
				"y": 0.2957229101,
				"z": -1.9230779862,
				"element": "C" 
			},
			{
				"x": 1.5205225594,
				"y": -0.1413012367,
				"z": -1.8998511546,
				"element": "C" 
			},
			{
				"x": 2.1872268835,
				"y": -0.3658447008,
				"z": -0.7173580791,
				"element": "O" 
			},
			{
				"x": 2.2115062668,
				"y": -0.3631101199,
				"z": -3.0804981229,
				"element": "C" 
			},
			{
				"x": 1.5799957538,
				"y": -0.1498877549,
				"z": -4.3061926153,
				"element": "C" 
			},
			{
				"x": 2.4928494198,
				"y": -0.4433875166,
				"z": -5.7626821259,
				"element": "Cl" 
			},
			{
				"x": 0.2496795984,
				"y": 0.2877758512,
				"z": -4.3586096102,
				"element": "C" 
			},
			{
				"x": -0.5424213595,
				"y": 0.5552285142,
				"z": -5.8792154068,
				"element": "Cl" 
			},
			{
				"x": -0.4414253436,
				"y": 0.5094758969,
				"z": -3.1506429901,
				"element": "C" 
			},
			{
				"x": -2.0907163519,
				"y": 1.0517651522,
				"z": -3.1380717724,
				"element": "Cl" 
			},
			{
				"x": -0.5347642069,
				"y": 0.5184814672,
				"z": 1.605032493,
				"element": "C" 
			},
			{
				"x": 0.1005011173,
				"y": 0.3041404854,
				"z": 2.8297946682,
				"element": "C" 
			},
			{
				"x": 3.1530322464,
				"y": -0.6940943319,
				"z": 1.6542519642,
				"element": "H" 
			},
			{
				"x": 3.2394463966,
				"y": -0.7013011603,
				"z": -3.0384137713,
				"element": "H" 
			},
			{
				"x": -1.5641089132,
				"y": 0.8571088552,
				"z": 1.5579151336,
				"element": "H" 
			},
			{
				"x": -0.4277664478,
				"y": 0.4736439535,
				"z": 3.7603583339,
				"element": "H" 
			}
		],
		 "valence_orbital": [ 
			{
				"type": "occ",
				"energy": -0.31276,
				"method": "rhf"
			},
			{
				"type": "occ",
				"energy": -0.28084,
				"method": "rhf"
			},
			{
				"type": "occ",
				"energy": -0.27041,
				"method": "rhf"
			},
			{
				"type": "occ",
				"energy": -0.25584,
				"method": "rhf"
			},
			{
				"type": "occ",
				"energy": -0.22126,
				"method": "rhf"
			},
			{
				"type": "unocc",
				"energy": -0.04672,
				"method": "rhf"
			},
			{
				"type": "unocc",
				"energy": -0.04021,
				"method": "rhf"
			},
			{
				"type": "unocc",
				"energy": -0.03103,
				"method": "rhf"
			},
			{
				"type": "unocc",
				"energy": -0.02821,
				"method": "rhf"
			},
			{
				"type": "unocc",
				"energy": -0.00328,
				"method": "rhf"
			}
		],
		"cosmo_sigma_profile": { 
			"-0.025": 0.0,
			"-0.024": 0.0,
			"-0.023": 0.0,
			"-0.022": 0.0,
			"-0.021": 0.0,
			"-0.02": 0.0,
			"-0.019": 0.0,
			"-0.018": 0.0,
			"-0.017": 0.0,
			"-0.016": 0.0,
			"-0.015": 0.0,
			"-0.014": 0.0,
			"-0.013": 0.0,
			"-0.012": 0.0,
			"-0.011": 0.0,
			"-0.01": 0.220526267175,
			"-0.009": 1.97328394027,
			"-0.008": 5.96583636185,
			"-0.007": 7.68228170834,
			"-0.006": 7.12846856591,
			"-0.005": 8.33825532682,
			"-0.004": 10.6658841839,
			"-0.003": 14.042849595,
			"-0.002": 24.7942216198,
			"-0.001": 33.3427930347,
			"0.0": 35.6163643501,
			"0.001": 31.2437979934,
			"0.002": 31.6071476268,
			"0.003": 34.4810477071,
			"0.004": 28.2143272001,
			"0.005": 7.31583375265,
			"0.006": 2.72531086804,
			"0.007": 1.32589141322,
			"0.008": 0.00182112881096,
			"0.009": 0.0,
			"0.01": 0.0,
			"0.011": 0.0,
			"0.012": 0.0,
			"0.013": 0.0,
			"0.014": 0.0,
			"0.015": 0.0,
			"0.016": 0.0,
			"0.017": 0.0,
			"0.018": 0.0,
			"0.019": 0.0,
			"0.02": 0.0,
			"0.021": 0.0,
			"0.022": 0.0,
			"0.023": 0.0,
			"0.024": 0.0,
			"0.025": 0.0
		}
	}
}
