{
	 "smiles": "CC1=C(C(NC(=S)N1)C1=CC=CC(=C1)[N+]([O-])=O)C(=O)OCC1=CC=CC=C1", 
	 "Tm": 449.15, 
	 "num_atms": 44, 
	 "gaussian": { 
		 "optdone": 1, 
		 "sigma_profile": "yes", 
		 "theory": "DFT", 
		 "functional": "B3LYP", 
		 "basiset": "6-31G**", 
		 "properties": { 
			 "R2extent": 12910.1217, 
			 "electric_dipole_moment_norm": 6.99723829236, 
			 "electric_quadrupole_moment_norm": 35.1408885578, 
			 "total_energy": -1597.53454087, 
			 "HOMO_LUMO_gap": 0.12896, 
			 "cosmo_polarized_energy": -24.99, 
			 "cosmo_cavitation_energy": 51.32, 
			 "cosmo_dispersion_energy": -33.55, 
			 "cosmo_repulsion_energy": 2.52, 
			 "cosmo_total_nonelectrostatic_energy": 20.28, 
			 "SMD_solvation_energy": 9.97 
		},
		"coords": [
			{
				"x": 0.4041337955,
				"y": -1.51304139,
				"z": 5.0593130872,
				"element": "C" 
			},
			{
				"x": 1.1612104489,
				"y": -1.1804734258,
				"z": 3.8045409485,
				"element": "C" 
			},
			{
				"x": 0.6797338627,
				"y": -0.5832137963,
				"z": 2.6782117637,
				"element": "C" 
			},
			{
				"x": 1.5923551742,
				"y": -0.4028024768,
				"z": 1.4704352984,
				"element": "C" 
			},
			{
				"x": 2.9982902922,
				"y": -0.4614360787,
				"z": 1.898932683,
				"element": "N" 
			},
			{
				"x": 3.4739975434,
				"y": -1.1224407484,
				"z": 2.9749331776,
				"element": "C" 
			},
			{
				"x": 5.0963817014,
				"y": -1.4022939214,
				"z": 3.2675370427,
				"element": "S" 
			},
			{
				"x": 2.5014420966,
				"y": -1.5358626431,
				"z": 3.8633254161,
				"element": "N" 
			},
			{
				"x": 1.3112140993,
				"y": -1.4108126829,
				"z": 0.350426873,
				"element": "C" 
			},
			{
				"x": 0.9118684356,
				"y": -0.9685099515,
				"z": -0.9162337427,
				"element": "C" 
			},
			{
				"x": 0.6682567484,
				"y": -1.8751286204,
				"z": -1.9519010419,
				"element": "C" 
			},
			{
				"x": 0.8187544052,
				"y": -3.2420760812,
				"z": -1.737813522,
				"element": "C" 
			},
			{
				"x": 1.2113113798,
				"y": -3.669294703,
				"z": -0.4695996364,
				"element": "C" 
			},
			{
				"x": 1.4591540343,
				"y": -2.7835545239,
				"z": 0.5736179898,
				"element": "C" 
			},
			{
				"x": 1.3616449505,
				"y": -5.114818833,
				"z": -0.221823255,
				"element": "N" 
			},
			{
				"x": 1.1600372787,
				"y": -5.8777227111,
				"z": -1.1657278853,
				"element": "O" 
			},
			{
				"x": 1.6754714034,
				"y": -5.4702044111,
				"z": 0.9131803245,
				"element": "O" 
			},
			{
				"x": -0.7136707144,
				"y": -0.1136298961,
				"z": 2.5571889087,
				"element": "C" 
			},
			{
				"x": -1.6144668905,
				"y": -0.228587113,
				"z": 3.3724384381,
				"element": "O" 
			},
			{
				"x": -0.9042583215,
				"y": 0.5106575137,
				"z": 1.3631866812,
				"element": "O" 
			},
			{
				"x": -2.2450069958,
				"y": 1.013824505,
				"z": 1.1252940743,
				"element": "C" 
			},
			{
				"x": -2.2677419083,
				"y": 1.6319893442,
				"z": -0.2461757269,
				"element": "C" 
			},
			{
				"x": -2.627758041,
				"y": 0.8692027239,
				"z": -1.3644614223,
				"element": "C" 
			},
			{
				"x": -2.6309177998,
				"y": 1.43636117,
				"z": -2.6395489043,
				"element": "C" 
			},
			{
				"x": -2.2715471336,
				"y": 2.7751331284,
				"z": -2.8093818501,
				"element": "C" 
			},
			{
				"x": -1.9107080365,
				"y": 3.5439160427,
				"z": -1.7005902891,
				"element": "C" 
			},
			{
				"x": -1.9099860774,
				"y": 2.9741300636,
				"z": -0.4270994648,
				"element": "C" 
			},
			{
				"x": 0.5310060649,
				"y": -2.5772398034,
				"z": 5.2916987596,
				"element": "H" 
			},
			{
				"x": -0.6524527552,
				"y": -1.2871657168,
				"z": 4.9517227791,
				"element": "H" 
			},
			{
				"x": 0.8124767766,
				"y": -0.9410673018,
				"z": 5.9012405821,
				"element": "H" 
			},
			{
				"x": 1.4292659057,
				"y": 0.5956406684,
				"z": 1.0567921355,
				"element": "H" 
			},
			{
				"x": 3.7050950935,
				"y": -0.1886285054,
				"z": 1.2299478882,
				"element": "H" 
			},
			{
				"x": 2.8585652142,
				"y": -1.9785098725,
				"z": 4.6986332447,
				"element": "H" 
			},
			{
				"x": 0.7745596903,
				"y": 0.0946301711,
				"z": -1.0897886679,
				"element": "H" 
			},
			{
				"x": 0.357929964,
				"y": -1.5120249848,
				"z": -2.9265176572,
				"element": "H" 
			},
			{
				"x": 0.6395134778,
				"y": -3.973055958,
				"z": -2.5159082806,
				"element": "H" 
			},
			{
				"x": 1.7617321084,
				"y": -3.1789446951,
				"z": 1.5356232965,
				"element": "H" 
			},
			{
				"x": -2.4877227895,
				"y": 1.7398719841,
				"z": 1.9065911699,
				"element": "H" 
			},
			{
				"x": -2.9503449076,
				"y": 0.1829320089,
				"z": 1.2129448708,
				"element": "H" 
			},
			{
				"x": -2.9101525702,
				"y": -0.1721919023,
				"z": -1.2327325356,
				"element": "H" 
			},
			{
				"x": -2.9196849612,
				"y": 0.8367399036,
				"z": -3.4980472023,
				"element": "H" 
			},
			{
				"x": -2.27842131,
				"y": 3.2192133679,
				"z": -3.8006184826,
				"element": "H" 
			},
			{
				"x": -1.6358208612,
				"y": 4.587050647,
				"z": -1.8271847056,
				"element": "H" 
			},
			{
				"x": -1.6334398715,
				"y": 3.5748395053,
				"z": 0.4357968392,
				"element": "H" 
			}
		],
		 "valence_orbital": [ 
			{
				"type": "occ",
				"energy": -0.26674,
				"method": "rhf"
			},
			{
				"type": "occ",
				"energy": -0.26261,
				"method": "rhf"
			},
			{
				"type": "occ",
				"energy": -0.2502,
				"method": "rhf"
			},
			{
				"type": "occ",
				"energy": -0.22488,
				"method": "rhf"
			},
			{
				"type": "occ",
				"energy": -0.22021,
				"method": "rhf"
			},
			{
				"type": "unocc",
				"energy": -0.09125,
				"method": "rhf"
			},
			{
				"type": "unocc",
				"energy": -0.06492,
				"method": "rhf"
			},
			{
				"type": "unocc",
				"energy": -0.03361,
				"method": "rhf"
			},
			{
				"type": "unocc",
				"energy": -0.02528,
				"method": "rhf"
			},
			{
				"type": "unocc",
				"energy": -0.01791,
				"method": "rhf"
			}
		],
		"cosmo_sigma_profile": { 
			"-0.025": 0.0,
			"-0.024": 0.0,
			"-0.023": 0.0,
			"-0.022": 0.0,
			"-0.021": 0.0,
			"-0.02": 0.0,
			"-0.019": 0.0,
			"-0.018": 0.0,
			"-0.017": 0.0,
			"-0.016": 0.265435683695,
			"-0.015": 2.10451110855,
			"-0.014": 1.9885166206,
			"-0.013": 1.93111399748,
			"-0.012": 2.02736595973,
			"-0.011": 2.09985553711,
			"-0.01": 2.58718017457,
			"-0.009": 2.58357551111,
			"-0.008": 5.01781316957,
			"-0.007": 9.53659986608,
			"-0.006": 26.3115946505,
			"-0.005": 30.6615338348,
			"-0.004": 29.255011858,
			"-0.003": 25.7683486851,
			"-0.002": 31.7995664309,
			"-0.001": 34.2102698078,
			"0.0": 29.113294622,
			"0.001": 28.1527333543,
			"0.002": 23.2350822296,
			"0.003": 19.5435921129,
			"0.004": 17.1620197222,
			"0.005": 16.2638222347,
			"0.006": 10.2977217907,
			"0.007": 12.3230928596,
			"0.008": 13.9250717047,
			"0.009": 12.4241166103,
			"0.01": 10.9326907227,
			"0.011": 7.89753166988,
			"0.012": 3.13834298752,
			"0.013": 0.292946996266,
			"0.014": 0.0,
			"0.015": 0.0,
			"0.016": 0.0,
			"0.017": 0.0,
			"0.018": 0.0,
			"0.019": 0.0,
			"0.02": 0.0,
			"0.021": 0.0,
			"0.022": 0.0,
			"0.023": 0.0,
			"0.024": 0.0,
			"0.025": 0.0
		}
	}
}
