{
	 "smiles": "C(C1=CC=CC=C1)C1=C2C=CC=CC2=C(CC2=CC=CC=C2)C2=C1C=CC=C2", 
	 "Tm": 519.15, 
	 "num_atms": 50, 
	 "gaussian": { 
		 "optdone": 1, 
		 "sigma_profile": "yes", 
		 "theory": "DFT", 
		 "functional": "B3LYP", 
		 "basiset": "6-31G**", 
		 "properties": { 
			 "R2extent": 11998.687, 
			 "electric_dipole_moment_norm": 0.0, 
			 "electric_quadrupole_moment_norm": 9.3912794533, 
			 "total_energy": -1080.26009969, 
			 "HOMO_LUMO_gap": 0.12548, 
			 "cosmo_polarized_energy": -10.03, 
			 "cosmo_cavitation_energy": 51.14, 
			 "cosmo_dispersion_energy": -35.22, 
			 "cosmo_repulsion_energy": 2.63, 
			 "cosmo_total_nonelectrostatic_energy": 18.55, 
			 "SMD_solvation_energy": 7.52 
		},
		"coords": [
			{
				"x": 1.8414696618,
				"y": -0.5874113313,
				"z": 1.9464671498,
				"element": "C" 
			},
			{
				"x": 2.2113328022,
				"y": -2.0650383135,
				"z": 2.0334321151,
				"element": "C" 
			},
			{
				"x": 3.5181005975,
				"y": -2.4323558016,
				"z": 2.3846122655,
				"element": "C" 
			},
			{
				"x": 3.8770331429,
				"y": -3.7741920724,
				"z": 2.5161309562,
				"element": "C" 
			},
			{
				"x": 2.9306005983,
				"y": -4.7763931119,
				"z": 2.2949723277,
				"element": "C" 
			},
			{
				"x": 1.6275857118,
				"y": -4.4229883576,
				"z": 1.9414098641,
				"element": "C" 
			},
			{
				"x": 1.2714174937,
				"y": -3.079366974,
				"z": 1.8107540914,
				"element": "C" 
			},
			{
				"x": 0.7517445469,
				"y": -0.2201661086,
				"z": 0.9527568607,
				"element": "C" 
			},
			{
				"x": 1.0788669657,
				"y": -0.050545183,
				"z": -0.411856861,
				"element": "C" 
			},
			{
				"x": 2.4060266289,
				"y": -0.2923167917,
				"z": -0.8990798787,
				"element": "C" 
			},
			{
				"x": 2.740904153,
				"y": -0.0986645265,
				"z": -2.2123123656,
				"element": "C" 
			},
			{
				"x": 1.764287547,
				"y": 0.3615246064,
				"z": -3.135208363,
				"element": "C" 
			},
			{
				"x": 0.4778745213,
				"y": 0.5825185864,
				"z": -2.7218311628,
				"element": "C" 
			},
			{
				"x": 0.0696248747,
				"y": 0.3718433958,
				"z": -1.3619378798,
				"element": "C" 
			},
			{
				"x": -1.2637404788,
				"y": 0.5748451463,
				"z": -0.93693092,
				"element": "C" 
			},
			{
				"x": -2.3534665672,
				"y": 0.9420745536,
				"z": -1.9306456164,
				"element": "C" 
			},
			{
				"x": -2.7233487623,
				"y": 2.4196967378,
				"z": -2.0176163788,
				"element": "C" 
			},
			{
				"x": -1.7834497403,
				"y": 3.4340393223,
				"z": -1.7949328172,
				"element": "C" 
			},
			{
				"x": -2.1396358383,
				"y": 4.7776553584,
				"z": -1.9255946834,
				"element": "C" 
			},
			{
				"x": -3.4426527552,
				"y": 5.1310409408,
				"z": -2.2791688084,
				"element": "C" 
			},
			{
				"x": -4.3890692183,
				"y": 4.1288259579,
				"z": -2.5003330582,
				"element": "C" 
			},
			{
				"x": -4.0301187089,
				"y": 2.786995052,
				"z": -2.3688083649,
				"element": "C" 
			},
			{
				"x": -1.5908648964,
				"y": 0.4052173322,
				"z": 0.4276815469,
				"element": "C" 
			},
			{
				"x": -0.5816228169,
				"y": -0.0171712563,
				"z": 1.3777628892,
				"element": "C" 
			},
			{
				"x": -0.989876213,
				"y": -0.2278600861,
				"z": 2.7376531559,
				"element": "C" 
			},
			{
				"x": -2.2762912443,
				"y": -0.0068741002,
				"z": 3.1510284641,
				"element": "C" 
			},
			{
				"x": -3.2529074073,
				"y": 0.4533160583,
				"z": 2.2281327214,
				"element": "C" 
			},
			{
				"x": -2.9180275235,
				"y": 0.6469768676,
				"z": 0.9149021657,
				"element": "C" 
			},
			{
				"x": 2.7455855634,
				"y": -0.0170477414,
				"z": 1.710919792,
				"element": "H" 
			},
			{
				"x": 1.5553434809,
				"y": -0.2392323807,
				"z": 2.9437004987,
				"element": "H" 
			},
			{
				"x": 4.2620140719,
				"y": -1.6574663691,
				"z": 2.5575271265,
				"element": "H" 
			},
			{
				"x": 4.8963391831,
				"y": -4.03604694,
				"z": 2.7866338868,
				"element": "H" 
			},
			{
				"x": 3.2073521041,
				"y": -5.8221872292,
				"z": 2.3931850911,
				"element": "H" 
			},
			{
				"x": 0.8841102326,
				"y": -5.1949638134,
				"z": 1.7625591339,
				"element": "H" 
			},
			{
				"x": 0.2570695456,
				"y": -2.8161766015,
				"z": 1.527004918,
				"element": "H" 
			},
			{
				"x": 3.1599138988,
				"y": -0.6610139271,
				"z": -0.2145299463,
				"element": "H" 
			},
			{
				"x": 3.7540464184,
				"y": -0.2960923471,
				"z": -2.5503284281,
				"element": "H" 
			},
			{
				"x": 2.0389683386,
				"y": 0.535924142,
				"z": -4.1715039817,
				"element": "H" 
			},
			{
				"x": -0.2440921965,
				"y": 0.9479751784,
				"z": -3.4420880725,
				"element": "H" 
			},
			{
				"x": -3.2575760446,
				"y": 0.3716999226,
				"z": -1.6951004816,
				"element": "H" 
			},
			{
				"x": -2.0673317965,
				"y": 0.5938962202,
				"z": -2.9278769733,
				"element": "H" 
			},
			{
				"x": -0.7691005272,
				"y": 3.1708643163,
				"z": -1.5111745933,
				"element": "H" 
			},
			{
				"x": -1.3961728241,
				"y": 5.5496418043,
				"z": -1.7467395537,
				"element": "H" 
			},
			{
				"x": -3.7194182499,
				"y": 6.1768309237,
				"z": -2.3773863095,
				"element": "H" 
			},
			{
				"x": -5.4083767179,
				"y": 4.3906657438,
				"z": -2.7708451194,
				"element": "H" 
			},
			{
				"x": -4.7740198856,
				"y": 2.0120948512,
				"z": -2.5417278327,
				"element": "H" 
			},
			{
				"x": -0.2679106388,
				"y": -0.593319694,
				"z": 3.4579095535,
				"element": "H" 
			},
			{
				"x": -2.5509739071,
				"y": -0.18128149,
				"z": 4.1873222813,
				"element": "H" 
			},
			{
				"x": -4.2660515933,
				"y": 0.6507368766,
				"z": 2.5661471443,
				"element": "H" 
			},
			{
				"x": -3.671915531,
				"y": 1.0156726532,
				"z": 0.2303524504,
				"element": "H" 
			}
		],
		 "valence_orbital": [ 
			{
				"type": "occ",
				"energy": -0.24513,
				"method": "rhf"
			},
			{
				"type": "occ",
				"energy": -0.2404,
				"method": "rhf"
			},
			{
				"type": "occ",
				"energy": -0.23582,
				"method": "rhf"
			},
			{
				"type": "occ",
				"energy": -0.23433,
				"method": "rhf"
			},
			{
				"type": "occ",
				"energy": -0.18883,
				"method": "rhf"
			},
			{
				"type": "unocc",
				"energy": -0.06335,
				"method": "rhf"
			},
			{
				"type": "unocc",
				"energy": -0.01385,
				"method": "rhf"
			},
			{
				"type": "unocc",
				"energy": -0.0009,
				"method": "rhf"
			},
			{
				"type": "unocc",
				"energy": 0.00273,
				"method": "rhf"
			},
			{
				"type": "unocc",
				"energy": 0.00322,
				"method": "rhf"
			}
		],
		"cosmo_sigma_profile": { 
			"-0.025": 0.0,
			"-0.024": 0.0,
			"-0.023": 0.0,
			"-0.022": 0.0,
			"-0.021": 0.0,
			"-0.02": 0.0,
			"-0.019": 0.0,
			"-0.018": 0.0,
			"-0.017": 0.0,
			"-0.016": 0.0,
			"-0.015": 0.0,
			"-0.014": 0.0,
			"-0.013": 0.0,
			"-0.012": 0.0,
			"-0.011": 0.0,
			"-0.01": 0.0,
			"-0.009": 0.0,
			"-0.008": 0.0175451580244,
			"-0.007": 1.99486153175,
			"-0.006": 13.1154493101,
			"-0.005": 38.2064994154,
			"-0.004": 39.0904139204,
			"-0.003": 42.6119285955,
			"-0.002": 31.9546012543,
			"-0.001": 30.3736599734,
			"0.0": 28.6872303119,
			"0.001": 24.5296958356,
			"0.002": 27.9521216007,
			"0.003": 32.7520969939,
			"0.004": 42.3034604058,
			"0.005": 32.2467888202,
			"0.006": 19.4708118642,
			"0.007": 4.76902035888,
			"0.008": 0.0,
			"0.009": 0.0,
			"0.01": 0.0,
			"0.011": 0.0,
			"0.012": 0.0,
			"0.013": 0.0,
			"0.014": 0.0,
			"0.015": 0.0,
			"0.016": 0.0,
			"0.017": 0.0,
			"0.018": 0.0,
			"0.019": 0.0,
			"0.02": 0.0,
			"0.021": 0.0,
			"0.022": 0.0,
			"0.023": 0.0,
			"0.024": 0.0,
			"0.025": 0.0
		}
	}
}
