{
	 "smiles": "CCN1C=C(C(O)=O)C(=N1)C(C)C", 
	 "Tm": 396.15, 
	 "num_atms": 27, 
	 "gaussian": { 
		 "optdone": 1, 
		 "sigma_profile": "yes", 
		 "theory": "DFT", 
		 "functional": "B3LYP", 
		 "basiset": "6-31G**", 
		 "properties": { 
			 "R2extent": 3462.7485, 
			 "electric_dipole_moment_norm": 1.84934555722, 
			 "electric_quadrupole_moment_norm": 16.9203002524, 
			 "total_energy": -611.366626665, 
			 "HOMO_LUMO_gap": 0.22881, 
			 "cosmo_polarized_energy": -11.82, 
			 "cosmo_cavitation_energy": 30.24, 
			 "cosmo_dispersion_energy": -21.14, 
			 "cosmo_repulsion_energy": 1.73, 
			 "cosmo_total_nonelectrostatic_energy": 10.83, 
			 "SMD_solvation_energy": 6.06 
		},
		"coords": [
			{
				"x": -3.6362166563,
				"y": -1.5708702578,
				"z": 2.1264030625,
				"element": "C" 
			},
			{
				"x": -3.8192445723,
				"y": -1.624510178,
				"z": 0.6097149412,
				"element": "C" 
			},
			{
				"x": -2.7594016722,
				"y": -0.9189527171,
				"z": -0.1029835789,
				"element": "N" 
			},
			{
				"x": -2.8341611982,
				"y": 0.2420605577,
				"z": -0.7771606769,
				"element": "C" 
			},
			{
				"x": -1.5564762109,
				"y": 0.5177097568,
				"z": -1.2507895414,
				"element": "C" 
			},
			{
				"x": -1.2566723601,
				"y": 1.7036549642,
				"z": -2.0497850512,
				"element": "C" 
			},
			{
				"x": 0.052158878,
				"y": 1.8004007963,
				"z": -2.412660841,
				"element": "O" 
			},
			{
				"x": -2.0723079518,
				"y": 2.5473719149,
				"z": -2.377543333,
				"element": "O" 
			},
			{
				"x": -0.754264936,
				"y": -0.5757130169,
				"z": -0.7927204993,
				"element": "C" 
			},
			{
				"x": -1.4998211425,
				"y": -1.4334755517,
				"z": -0.0991765274,
				"element": "N" 
			},
			{
				"x": 0.7268366087,
				"y": -0.8158035668,
				"z": -0.9756248721,
				"element": "C" 
			},
			{
				"x": 1.087699011,
				"y": -2.3036533232,
				"z": -0.8573573512,
				"element": "C" 
			},
			{
				"x": 1.537927518,
				"y": 0.0345048126,
				"z": 0.0247928184,
				"element": "C" 
			},
			{
				"x": -2.6719843697,
				"y": -2.0026259385,
				"z": 2.404542372,
				"element": "H" 
			},
			{
				"x": -4.4300260829,
				"y": -2.1402017884,
				"z": 2.6197496032,
				"element": "H" 
			},
			{
				"x": -3.6729420467,
				"y": -0.5394768006,
				"z": 2.4896735705,
				"element": "H" 
			},
			{
				"x": -3.8173448085,
				"y": -2.6606545985,
				"z": 0.2583761532,
				"element": "H" 
			},
			{
				"x": -4.7663861363,
				"y": -1.168443612,
				"z": 0.3080883236,
				"element": "H" 
			},
			{
				"x": -3.7529445751,
				"y": 0.7971885157,
				"z": -0.8955976604,
				"element": "H" 
			},
			{
				"x": 0.1136431142,
				"y": 2.6185194866,
				"z": -2.9331676181,
				"element": "H" 
			},
			{
				"x": 0.9856884856,
				"y": -0.4693847611,
				"z": -1.9820929261,
				"element": "H" 
			},
			{
				"x": 0.8437723794,
				"y": -2.68968204,
				"z": 0.1363034565,
				"element": "H" 
			},
			{
				"x": 2.159993994,
				"y": -2.4444348197,
				"z": -1.0284721224,
				"element": "H" 
			},
			{
				"x": 0.5411002623,
				"y": -2.9065867888,
				"z": -1.588570992,
				"element": "H" 
			},
			{
				"x": 1.3064418151,
				"y": -0.2565722099,
				"z": 1.0552225912,
				"element": "H" 
			},
			{
				"x": 2.6118902961,
				"y": -0.1092951047,
				"z": -0.136133387,
				"element": "H" 
			},
			{
				"x": 1.3173423571,
				"y": 1.0987262691,
				"z": -0.0920299138,
				"element": "H" 
			}
		],
		 "valence_orbital": [ 
			{
				"type": "occ",
				"energy": -0.31053,
				"method": "rhf"
			},
			{
				"type": "occ",
				"energy": -0.29604,
				"method": "rhf"
			},
			{
				"type": "occ",
				"energy": -0.26387,
				"method": "rhf"
			},
			{
				"type": "occ",
				"energy": -0.25303,
				"method": "rhf"
			},
			{
				"type": "occ",
				"energy": -0.24643,
				"method": "rhf"
			},
			{
				"type": "unocc",
				"energy": -0.01762,
				"method": "rhf"
			},
			{
				"type": "unocc",
				"energy": 0.01985,
				"method": "rhf"
			},
			{
				"type": "unocc",
				"energy": 0.08297,
				"method": "rhf"
			},
			{
				"type": "unocc",
				"energy": 0.08877,
				"method": "rhf"
			},
			{
				"type": "unocc",
				"energy": 0.11039,
				"method": "rhf"
			}
		],
		"cosmo_sigma_profile": { 
			"-0.025": 0.0,
			"-0.024": 0.0,
			"-0.023": 0.0,
			"-0.022": 0.0,
			"-0.021": 0.0,
			"-0.02": 0.0,
			"-0.019": 0.0,
			"-0.018": 0.324421846528,
			"-0.017": 0.806179608435,
			"-0.016": 1.16674919366,
			"-0.015": 0.672236869061,
			"-0.014": 0.523348788206,
			"-0.013": 0.886188655573,
			"-0.012": 0.542122359235,
			"-0.011": 0.337111511894,
			"-0.01": 1.74844967979,
			"-0.009": 3.07371802475,
			"-0.008": 2.72170438705,
			"-0.007": 3.97219867692,
			"-0.006": 6.04840027166,
			"-0.005": 7.38004471039,
			"-0.004": 11.9684605618,
			"-0.003": 19.3989379983,
			"-0.002": 22.039753883,
			"-0.001": 28.9118796218,
			"0.0": 27.1278889378,
			"0.001": 27.0777913518,
			"0.002": 18.1061499021,
			"0.003": 11.462312808,
			"0.004": 5.77620483495,
			"0.005": 5.80787957775,
			"0.006": 5.47293270913,
			"0.007": 3.12378966456,
			"0.008": 2.42289387234,
			"0.009": 2.89004624273,
			"0.01": 3.10109408039,
			"0.011": 3.23480543897,
			"0.012": 5.58803537983,
			"0.013": 3.00176052637,
			"0.014": 0.34035895703,
			"0.015": 0.0,
			"0.016": 0.0,
			"0.017": 0.0,
			"0.018": 0.0,
			"0.019": 0.0,
			"0.02": 0.0,
			"0.021": 0.0,
			"0.022": 0.0,
			"0.023": 0.0,
			"0.024": 0.0,
			"0.025": 0.0
		}
	}
}
