{
	 "smiles": "O=C(CN1CCNCC1)N1CCCCC1", 
	 "Tm": 357.15, 
	 "num_atms": 36, 
	 "gaussian": { 
		 "optdone": 1, 
		 "sigma_profile": "yes", 
		 "theory": "DFT", 
		 "functional": "B3LYP", 
		 "basiset": "6-31G**", 
		 "properties": { 
			 "R2extent": 3591.2588, 
			 "electric_dipole_moment_norm": 4.03349032477, 
			 "electric_quadrupole_moment_norm": 8.52223986461, 
			 "total_energy": -671.294066337, 
			 "HOMO_LUMO_gap": 0.20878, 
			 "cosmo_polarized_energy": -12.76, 
			 "cosmo_cavitation_energy": 33.97, 
			 "cosmo_dispersion_energy": -24.43, 
			 "cosmo_repulsion_energy": 1.9, 
			 "cosmo_total_nonelectrostatic_energy": 11.45, 
			 "SMD_solvation_energy": 0.5 
		},
		"coords": [
			{
				"x": -0.9106366615,
				"y": -0.0660764045,
				"z": -2.2452405961,
				"element": "O" 
			},
			{
				"x": -0.3147186352,
				"y": 0.4821406231,
				"z": -1.3149532125,
				"element": "C" 
			},
			{
				"x": -1.0798326556,
				"y": 1.5114839739,
				"z": -0.4522553574,
				"element": "C" 
			},
			{
				"x": -2.0422271322,
				"y": 0.9867057355,
				"z": 0.5057308791,
				"element": "N" 
			},
			{
				"x": -1.5469782051,
				"y": 0.4477643145,
				"z": 1.769035463,
				"element": "C" 
			},
			{
				"x": -1.3324747447,
				"y": -1.0736047756,
				"z": 1.7500322948,
				"element": "C" 
			},
			{
				"x": -2.5915986586,
				"y": -1.705687926,
				"z": 1.3533716842,
				"element": "N" 
			},
			{
				"x": -2.995352169,
				"y": -1.2856938507,
				"z": 0.0037641308,
				"element": "C" 
			},
			{
				"x": -3.1941689938,
				"y": 0.2380061126,
				"z": -0.0041647283,
				"element": "C" 
			},
			{
				"x": 0.9898101194,
				"y": 0.1658184214,
				"z": -1.0262607774,
				"element": "N" 
			},
			{
				"x": 1.6155724366,
				"y": -0.9077723725,
				"z": -1.8212502767,
				"element": "C" 
			},
			{
				"x": 2.6623593962,
				"y": -1.6504587384,
				"z": -0.9898280459,
				"element": "C" 
			},
			{
				"x": 3.8009824907,
				"y": -0.7137393095,
				"z": -0.5251951569,
				"element": "C" 
			},
			{
				"x": 3.3004658944,
				"y": 0.73985563,
				"z": -0.381599391,
				"element": "C" 
			},
			{
				"x": 1.8194803044,
				"y": 0.8010072639,
				"z": 0.0097828661,
				"element": "C" 
			},
			{
				"x": -0.4126639054,
				"y": 2.1861158687,
				"z": 0.0909586374,
				"element": "H" 
			},
			{
				"x": -1.6294581893,
				"y": 2.1170177514,
				"z": -1.1816215522,
				"element": "H" 
			},
			{
				"x": -2.2949131867,
				"y": 0.6629759657,
				"z": 2.5462774561,
				"element": "H" 
			},
			{
				"x": -0.6229957149,
				"y": 0.967074404,
				"z": 2.0458058106,
				"element": "H" 
			},
			{
				"x": -1.0600089251,
				"y": -1.4203655554,
				"z": 2.7544386199,
				"element": "H" 
			},
			{
				"x": -0.4913247698,
				"y": -1.3175970268,
				"z": 1.0715530303,
				"element": "H" 
			},
			{
				"x": -2.495896232,
				"y": -2.7167170717,
				"z": 1.383640095,
				"element": "H" 
			},
			{
				"x": -3.944683917,
				"y": -1.7749737118,
				"z": -0.2449009583,
				"element": "H" 
			},
			{
				"x": -2.2608579925,
				"y": -1.5569566241,
				"z": -0.770792376,
				"element": "H" 
			},
			{
				"x": -3.4162407775,
				"y": 0.5782529163,
				"z": -1.018697042,
				"element": "H" 
			},
			{
				"x": -4.0561622678,
				"y": 0.4715489581,
				"z": 0.6383571759,
				"element": "H" 
			},
			{
				"x": 0.8156122822,
				"y": -1.5706759213,
				"z": -2.1528654563,
				"element": "H" 
			},
			{
				"x": 2.0720818001,
				"y": -0.4878621942,
				"z": -2.7294314845,
				"element": "H" 
			},
			{
				"x": 3.0612062719,
				"y": -2.4855914346,
				"z": -1.575158173,
				"element": "H" 
			},
			{
				"x": 2.161217427,
				"y": -2.0931609191,
				"z": -0.1203889519,
				"element": "H" 
			},
			{
				"x": 4.2036981363,
				"y": -1.0715107695,
				"z": 0.4290644428,
				"element": "H" 
			},
			{
				"x": 4.631231774,
				"y": -0.739780203,
				"z": -1.2395949154,
				"element": "H" 
			},
			{
				"x": 3.8891086462,
				"y": 1.2827700804,
				"z": 0.3655274421,
				"element": "H" 
			},
			{
				"x": 3.4252655432,
				"y": 1.2777267697,
				"z": -1.3286179364,
				"element": "H" 
			},
			{
				"x": 1.6732788538,
				"y": 0.3095779056,
				"z": 0.9837167192,
				"element": "H" 
			},
			{
				"x": 1.5235223571,
				"y": 1.844382114,
				"z": 0.1291596409,
				"element": "H" 
			}
		],
		 "valence_orbital": [ 
			{
				"type": "occ",
				"energy": -0.32046,
				"method": "rhf"
			},
			{
				"type": "occ",
				"energy": -0.24698,
				"method": "rhf"
			},
			{
				"type": "occ",
				"energy": -0.23229,
				"method": "rhf"
			},
			{
				"type": "occ",
				"energy": -0.21472,
				"method": "rhf"
			},
			{
				"type": "occ",
				"energy": -0.18527,
				"method": "rhf"
			},
			{
				"type": "unocc",
				"energy": 0.02351,
				"method": "rhf"
			},
			{
				"type": "unocc",
				"energy": 0.05974,
				"method": "rhf"
			},
			{
				"type": "unocc",
				"energy": 0.09027,
				"method": "rhf"
			},
			{
				"type": "unocc",
				"energy": 0.09746,
				"method": "rhf"
			},
			{
				"type": "unocc",
				"energy": 0.10546,
				"method": "rhf"
			}
		],
		"cosmo_sigma_profile": { 
			"-0.025": 0.0,
			"-0.024": 0.0,
			"-0.023": 0.0,
			"-0.022": 0.0,
			"-0.021": 0.0,
			"-0.02": 0.0,
			"-0.019": 0.0,
			"-0.018": 0.0,
			"-0.017": 0.0,
			"-0.016": 0.0,
			"-0.015": 0.0,
			"-0.014": 0.0,
			"-0.013": 0.0,
			"-0.012": 0.0,
			"-0.011": 0.0,
			"-0.01": 0.545238636474,
			"-0.009": 1.42213304597,
			"-0.008": 1.06448125335,
			"-0.007": 2.71621297601,
			"-0.006": 4.76386709442,
			"-0.005": 5.15221181786,
			"-0.004": 15.4184513376,
			"-0.003": 41.4463999004,
			"-0.002": 51.1783449626,
			"-0.001": 39.3532345668,
			"0.0": 29.8543558776,
			"0.001": 16.64327685,
			"0.002": 6.10972711262,
			"0.003": 5.79436690136,
			"0.004": 4.14254785342,
			"0.005": 3.54367482782,
			"0.006": 3.30153128218,
			"0.007": 3.003410834,
			"0.008": 3.45641252671,
			"0.009": 2.74723761919,
			"0.01": 3.71278966813,
			"0.011": 2.28044405928,
			"0.012": 1.49562671807,
			"0.013": 3.24677522528,
			"0.014": 3.5576041234,
			"0.015": 4.27627292498,
			"0.016": 0.471532828076,
			"0.017": 0.492270770694,
			"0.018": 0.372617126337,
			"0.019": 0.144587615334,
			"0.02": 0.0,
			"0.021": 0.0,
			"0.022": 0.0,
			"0.023": 0.0,
			"0.024": 0.0,
			"0.025": 0.0
		}
	}
}
