{
	 "smiles": "OC(=O)C1=C(C=CS1)C1OCCO1", 
	 "Tm": 416.15, 
	 "num_atms": 21, 
	 "gaussian": { 
		 "optdone": 1, 
		 "sigma_profile": "yes", 
		 "theory": "DFT", 
		 "functional": "B3LYP", 
		 "basiset": "6-31G**", 
		 "properties": { 
			 "R2extent": 2704.6961, 
			 "electric_dipole_moment_norm": 3.10308420769, 
			 "electric_quadrupole_moment_norm": 12.0354465239, 
			 "total_energy": -1008.71495712, 
			 "HOMO_LUMO_gap": 0.1973, 
			 "cosmo_polarized_energy": -13.88, 
			 "cosmo_cavitation_energy": 25.81, 
			 "cosmo_dispersion_energy": -19.9, 
			 "cosmo_repulsion_energy": 1.52, 
			 "cosmo_total_nonelectrostatic_energy": 7.44, 
			 "SMD_solvation_energy": 5.27 
		},
		"coords": [
			{
				"x": 2.0293870855,
				"y": -1.7230403628,
				"z": -2.444406753,
				"element": "O" 
			},
			{
				"x": 0.8071029766,
				"y": -1.4550450918,
				"z": -1.9135954728,
				"element": "C" 
			},
			{
				"x": -0.1718742891,
				"y": -1.4676574195,
				"z": -2.6206281242,
				"element": "O" 
			},
			{
				"x": 0.7949452095,
				"y": -1.2405919484,
				"z": -0.4361627914,
				"element": "C" 
			},
			{
				"x": 0.1455599303,
				"y": -0.29489437,
				"z": 0.3277522223,
				"element": "C" 
			},
			{
				"x": 0.3685695653,
				"y": -0.4888532174,
				"z": 1.7271544527,
				"element": "C" 
			},
			{
				"x": 1.164858968,
				"y": -1.5604592579,
				"z": 2.0136258913,
				"element": "C" 
			},
			{
				"x": 1.6809601523,
				"y": -2.3690923464,
				"z": 0.5762917335,
				"element": "S" 
			},
			{
				"x": -0.6802582535,
				"y": 0.8883300529,
				"z": -0.1571250914,
				"element": "C" 
			},
			{
				"x": -0.3555938232,
				"y": 1.2307773344,
				"z": -1.4882443123,
				"element": "O" 
			},
			{
				"x": -1.5590754332,
				"y": 1.2021970087,
				"z": -2.267117297,
				"element": "C" 
			},
			{
				"x": -2.4920056298,
				"y": 0.3318809557,
				"z": -1.4296732549,
				"element": "C" 
			},
			{
				"x": -2.0727951618,
				"y": 0.637691289,
				"z": -0.0929508038,
				"element": "O" 
			},
			{
				"x": 2.7214124129,
				"y": -1.5391117191,
				"z": -1.7921441727,
				"element": "H" 
			},
			{
				"x": -0.0557800414,
				"y": 0.1588937725,
				"z": 2.4864970698,
				"element": "H" 
			},
			{
				"x": 1.4702534052,
				"y": -1.9309355164,
				"z": 2.9825496063,
				"element": "H" 
			},
			{
				"x": -0.4853057226,
				"y": 1.7391688583,
				"z": 0.5134915914,
				"element": "H" 
			},
			{
				"x": -1.3233971988,
				"y": 0.7681612104,
				"z": -3.2406375587,
				"element": "H" 
			},
			{
				"x": -1.9489337299,
				"y": 2.2216577758,
				"z": -2.3897030453,
				"element": "H" 
			},
			{
				"x": -2.3450881054,
				"y": -0.7290966902,
				"z": -1.6558410962,
				"element": "H" 
			},
			{
				"x": -3.5482423167,
				"y": 0.5972196821,
				"z": -1.5167327935,
				"element": "H" 
			}
		],
		 "valence_orbital": [ 
			{
				"type": "occ",
				"energy": -0.28746,
				"method": "rhf"
			},
			{
				"type": "occ",
				"energy": -0.2793,
				"method": "rhf"
			},
			{
				"type": "occ",
				"energy": -0.26439,
				"method": "rhf"
			},
			{
				"type": "occ",
				"energy": -0.25802,
				"method": "rhf"
			},
			{
				"type": "occ",
				"energy": -0.25083,
				"method": "rhf"
			},
			{
				"type": "unocc",
				"energy": -0.05353,
				"method": "rhf"
			},
			{
				"type": "unocc",
				"energy": -0.0015,
				"method": "rhf"
			},
			{
				"type": "unocc",
				"energy": 0.01583,
				"method": "rhf"
			},
			{
				"type": "unocc",
				"energy": 0.03924,
				"method": "rhf"
			},
			{
				"type": "unocc",
				"energy": 0.08524,
				"method": "rhf"
			}
		],
		"cosmo_sigma_profile": { 
			"-0.025": 0.0,
			"-0.024": 0.0,
			"-0.023": 0.0,
			"-0.022": 0.0,
			"-0.021": 0.0,
			"-0.02": 0.0,
			"-0.019": 0.0,
			"-0.018": 0.590080524715,
			"-0.017": 0.783606740442,
			"-0.016": 0.911156176009,
			"-0.015": 0.595437709036,
			"-0.014": 0.956435364355,
			"-0.013": 1.14979483219,
			"-0.012": 0.658241713198,
			"-0.011": 0.963091888024,
			"-0.01": 1.14064851251,
			"-0.009": 3.92412347238,
			"-0.008": 4.41156598528,
			"-0.007": 6.86822121702,
			"-0.006": 9.10950789196,
			"-0.005": 13.863137875,
			"-0.004": 15.5400537171,
			"-0.003": 15.4454671032,
			"-0.002": 12.9568947527,
			"-0.001": 10.7748696243,
			"0.0": 11.6645934004,
			"0.001": 14.2264753725,
			"0.002": 16.2196619069,
			"0.003": 12.3209485813,
			"0.004": 7.93187550003,
			"0.005": 6.11007718626,
			"0.006": 5.80656724716,
			"0.007": 5.732865542,
			"0.008": 4.59863176731,
			"0.009": 5.90505096148,
			"0.01": 6.78009684869,
			"0.011": 5.02385535864,
			"0.012": 4.20647775823,
			"0.013": 0.399010193767,
			"0.014": 0.0,
			"0.015": 0.0,
			"0.016": 0.0,
			"0.017": 0.0,
			"0.018": 0.0,
			"0.019": 0.0,
			"0.02": 0.0,
			"0.021": 0.0,
			"0.022": 0.0,
			"0.023": 0.0,
			"0.024": 0.0,
			"0.025": 0.0
		}
	}
}
