{
	 "smiles": "O=C1NC(=S)NC2=C1C=CC=C2", 
	 "Tm": 594.15, 
	 "num_atms": 18, 
	 "gaussian": { 
		 "optdone": 1, 
		 "sigma_profile": "yes", 
		 "theory": "DFT", 
		 "functional": "B3LYP", 
		 "basiset": "6-31G**", 
		 "properties": { 
			 "R2extent": 2810.6357, 
			 "electric_dipole_moment_norm": 5.15151485099, 
			 "electric_quadrupole_moment_norm": 6.77133438253, 
			 "total_energy": -891.429103211, 
			 "HOMO_LUMO_gap": 0.16372, 
			 "cosmo_polarized_energy": -16.65, 
			 "cosmo_cavitation_energy": 24.31, 
			 "cosmo_dispersion_energy": -18.81, 
			 "cosmo_repulsion_energy": 1.43, 
			 "cosmo_total_nonelectrostatic_energy": 6.92, 
			 "SMD_solvation_energy": 3.64 
		},
		"coords": [
			{
				"x": 2.7997833207,
				"y": -0.1103757296,
				"z": 1.9492358293,
				"element": "O" 
			},
			{
				"x": 1.6388657227,
				"y": -0.3614254739,
				"z": 1.6740219503,
				"element": "C" 
			},
			{
				"x": 0.8053065358,
				"y": -0.9951216547,
				"z": 2.6095755241,
				"element": "N" 
			},
			{
				"x": -0.5165843854,
				"y": -1.3498153368,
				"z": 2.4670957158,
				"element": "C" 
			},
			{
				"x": -1.3913661487,
				"y": -2.1030264476,
				"z": 3.6698951575,
				"element": "S" 
			},
			{
				"x": -1.0537617514,
				"y": -1.0307554157,
				"z": 1.2507815187,
				"element": "N" 
			},
			{
				"x": -0.3741341455,
				"y": -0.403577577,
				"z": 0.2117169668,
				"element": "C" 
			},
			{
				"x": 0.9767450444,
				"y": -0.0559519846,
				"z": 0.394261785,
				"element": "C" 
			},
			{
				"x": 1.679675545,
				"y": 0.5759307675,
				"z": -0.6386487995,
				"element": "C" 
			},
			{
				"x": 1.0478053152,
				"y": 0.860504429,
				"z": -1.842215502,
				"element": "C" 
			},
			{
				"x": -0.2995331476,
				"y": 0.5108085766,
				"z": -2.0167376406,
				"element": "C" 
			},
			{
				"x": -1.0140251859,
				"y": -0.1170650961,
				"z": -1.0029684263,
				"element": "C" 
			},
			{
				"x": 1.2312349909,
				"y": -1.2191208638,
				"z": 3.501265485,
				"element": "H" 
			},
			{
				"x": -2.0250138529,
				"y": -1.2866177746,
				"z": 1.1343771219,
				"element": "H" 
			},
			{
				"x": 2.7197600775,
				"y": 0.829372938,
				"z": -0.4627043505,
				"element": "H" 
			},
			{
				"x": 1.5909002803,
				"y": 1.3500842675,
				"z": -2.6436863607,
				"element": "H" 
			},
			{
				"x": -0.7976033101,
				"y": 0.7314186105,
				"z": -2.9561567723,
				"element": "H" 
			},
			{
				"x": -2.0571549052,
				"y": -0.3856662346,
				"z": -1.1434092025,
				"element": "H" 
			}
		],
		 "valence_orbital": [ 
			{
				"type": "occ",
				"energy": -0.28395,
				"method": "rhf"
			},
			{
				"type": "occ",
				"energy": -0.28289,
				"method": "rhf"
			},
			{
				"type": "occ",
				"energy": -0.26868,
				"method": "rhf"
			},
			{
				"type": "occ",
				"energy": -0.22851,
				"method": "rhf"
			},
			{
				"type": "occ",
				"energy": -0.228,
				"method": "rhf"
			},
			{
				"type": "unocc",
				"energy": -0.06428,
				"method": "rhf"
			},
			{
				"type": "unocc",
				"energy": -0.04954,
				"method": "rhf"
			},
			{
				"type": "unocc",
				"energy": -0.00737,
				"method": "rhf"
			},
			{
				"type": "unocc",
				"energy": 0.05018,
				"method": "rhf"
			},
			{
				"type": "unocc",
				"energy": 0.05237,
				"method": "rhf"
			}
		],
		"cosmo_sigma_profile": { 
			"-0.025": 0.0,
			"-0.024": 0.0,
			"-0.023": 0.0,
			"-0.022": 0.0,
			"-0.021": 0.0,
			"-0.02": 0.0,
			"-0.019": 0.0,
			"-0.018": 0.0,
			"-0.017": 0.459996647477,
			"-0.016": 1.43847066082,
			"-0.015": 1.77901405596,
			"-0.014": 2.3799915038,
			"-0.013": 1.91388901951,
			"-0.012": 1.5706567421,
			"-0.011": 2.07497681614,
			"-0.01": 2.26234285254,
			"-0.009": 1.45383410106,
			"-0.008": 3.07557734083,
			"-0.007": 8.70856179351,
			"-0.006": 11.6988011772,
			"-0.005": 11.5776937899,
			"-0.004": 10.6549879459,
			"-0.003": 11.6955965745,
			"-0.002": 12.6118468382,
			"-0.001": 10.2810462485,
			"0.0": 11.4246962911,
			"0.001": 12.565360722,
			"0.002": 13.5947467635,
			"0.003": 11.6258955674,
			"0.004": 4.67916635188,
			"0.005": 5.18343486724,
			"0.006": 4.39716984965,
			"0.007": 5.74892261243,
			"0.008": 6.52102993921,
			"0.009": 8.62875199374,
			"0.01": 7.88075413008,
			"0.011": 5.17920616362,
			"0.012": 4.93865526264,
			"0.013": 0.452713878609,
			"0.014": 0.0,
			"0.015": 0.0,
			"0.016": 0.0,
			"0.017": 0.0,
			"0.018": 0.0,
			"0.019": 0.0,
			"0.02": 0.0,
			"0.021": 0.0,
			"0.022": 0.0,
			"0.023": 0.0,
			"0.024": 0.0,
			"0.025": 0.0
		}
	}
}
