{
	 "smiles": "NC1=CC2=C(C=C1)N=C(N)C=C2", 
	 "Tm": 487.15, 
	 "num_atms": 21, 
	 "gaussian": { 
		 "optdone": 1, 
		 "sigma_profile": "yes", 
		 "theory": "DFT", 
		 "functional": "B3LYP", 
		 "basiset": "6-31G**", 
		 "properties": { 
			 "R2extent": 2423.8698, 
			 "electric_dipole_moment_norm": 2.64645545967, 
			 "electric_quadrupole_moment_norm": 17.0304401763, 
			 "total_energy": -512.657658027, 
			 "HOMO_LUMO_gap": 0.14809, 
			 "cosmo_polarized_energy": -15.21, 
			 "cosmo_cavitation_energy": 24.82, 
			 "cosmo_dispersion_energy": -18.84, 
			 "cosmo_repulsion_energy": 1.5, 
			 "cosmo_total_nonelectrostatic_energy": 7.47, 
			 "SMD_solvation_energy": 2.47 
		},
		"coords": [
			{
				"x": 1.150870135,
				"y": 3.0111832272,
				"z": 1.7092659085,
				"element": "N" 
			},
			{
				"x": 0.3542457045,
				"y": 1.9325371066,
				"z": 1.3050633134,
				"element": "C" 
			},
			{
				"x": 0.8937632672,
				"y": 0.8121744259,
				"z": 0.6912483021,
				"element": "C" 
			},
			{
				"x": 0.080171015,
				"y": -0.294440456,
				"z": 0.3513884275,
				"element": "C" 
			},
			{
				"x": -1.3209611533,
				"y": -0.2681224416,
				"z": 0.6302448873,
				"element": "C" 
			},
			{
				"x": -1.8512551715,
				"y": 0.8898467091,
				"z": 1.2559527906,
				"element": "C" 
			},
			{
				"x": -1.0414846855,
				"y": 1.9519649135,
				"z": 1.5849012976,
				"element": "C" 
			},
			{
				"x": -2.163485189,
				"y": -1.2942870769,
				"z": 0.3153090543,
				"element": "N" 
			},
			{
				"x": -1.6553186192,
				"y": -2.3689914706,
				"z": -0.2584593731,
				"element": "C" 
			},
			{
				"x": -2.5185122779,
				"y": -3.4275621475,
				"z": -0.509291412,
				"element": "N" 
			},
			{
				"x": -0.2667176749,
				"y": -2.500754959,
				"z": -0.5781858268,
				"element": "C" 
			},
			{
				"x": 0.5810544494,
				"y": -1.4687299288,
				"z": -0.2778402382,
				"element": "C" 
			},
			{
				"x": 0.6701184573,
				"y": 3.9002420605,
				"z": 1.7424510272,
				"element": "H" 
			},
			{
				"x": 2.0330025926,
				"y": 3.0893170341,
				"z": 1.2211357474,
				"element": "H" 
			},
			{
				"x": 1.9584700158,
				"y": 0.7723581144,
				"z": 0.4692376929,
				"element": "H" 
			},
			{
				"x": -2.915519857,
				"y": 0.9091846807,
				"z": 1.4677273216,
				"element": "H" 
			},
			{
				"x": -1.4657033094,
				"y": 2.8258263327,
				"z": 2.0743364015,
				"element": "H" 
			},
			{
				"x": -2.2925937592,
				"y": -4.0157219955,
				"z": -1.2985305632,
				"element": "H" 
			},
			{
				"x": -3.4936765767,
				"y": -3.1648381925,
				"z": -0.4577991596,
				"element": "H" 
			},
			{
				"x": 0.0983344763,
				"y": -3.411967258,
				"z": -1.0434623937,
				"element": "H" 
			},
			{
				"x": 1.6406981605,
				"y": -1.5396186785,
				"z": -0.5113932054,
				"element": "H" 
			}
		],
		 "valence_orbital": [ 
			{
				"type": "occ",
				"energy": -0.29185,
				"method": "rhf"
			},
			{
				"type": "occ",
				"energy": -0.24973,
				"method": "rhf"
			},
			{
				"type": "occ",
				"energy": -0.24401,
				"method": "rhf"
			},
			{
				"type": "occ",
				"energy": -0.22492,
				"method": "rhf"
			},
			{
				"type": "occ",
				"energy": -0.18068,
				"method": "rhf"
			},
			{
				"type": "unocc",
				"energy": -0.03259,
				"method": "rhf"
			},
			{
				"type": "unocc",
				"energy": 0.01502,
				"method": "rhf"
			},
			{
				"type": "unocc",
				"energy": 0.03773,
				"method": "rhf"
			},
			{
				"type": "unocc",
				"energy": 0.08223,
				"method": "rhf"
			},
			{
				"type": "unocc",
				"energy": 0.08999,
				"method": "rhf"
			}
		],
		"cosmo_sigma_profile": { 
			"-0.025": 0.0,
			"-0.024": 0.0,
			"-0.023": 0.0,
			"-0.022": 0.0,
			"-0.021": 0.0,
			"-0.02": 0.0,
			"-0.019": 0.0,
			"-0.018": 0.0,
			"-0.017": 0.0,
			"-0.016": 0.0,
			"-0.015": 0.0,
			"-0.014": 0.0,
			"-0.013": 1.0080939067,
			"-0.012": 4.06216873285,
			"-0.011": 5.13883268525,
			"-0.01": 5.76602592246,
			"-0.009": 5.0975634354,
			"-0.008": 5.93793610653,
			"-0.007": 6.5858384015,
			"-0.006": 10.680390467,
			"-0.005": 11.5750958538,
			"-0.004": 10.7013406463,
			"-0.003": 9.19568046115,
			"-0.002": 8.44233671194,
			"-0.001": 6.87973996307,
			"0.0": 8.06087974755,
			"0.001": 6.91615924163,
			"0.002": 8.88997475196,
			"0.003": 14.1778316281,
			"0.004": 17.8591690734,
			"0.005": 15.9499534727,
			"0.006": 10.8943467544,
			"0.007": 3.98342328297,
			"0.008": 2.82407551918,
			"0.009": 3.24956157331,
			"0.01": 3.24894406215,
			"0.011": 1.93641028826,
			"0.012": 2.2602614678,
			"0.013": 2.92794636168,
			"0.014": 1.28171102939,
			"0.015": 1.3904558007,
			"0.016": 0.368704233903,
			"0.017": 0.0,
			"0.018": 0.0,
			"0.019": 0.0,
			"0.02": 0.0,
			"0.021": 0.0,
			"0.022": 0.0,
			"0.023": 0.0,
			"0.024": 0.0,
			"0.025": 0.0
		}
	}
}
