{
	 "smiles": "FC1=CC(=C(F)C=C1Br)S(Cl)(=O)=O", 
	 "Tm": 308.15, 
	 "num_atms": 15, 
	 "gaussian": { 
		 "optdone": 1, 
		 "sigma_profile": "yes", 
		 "theory": "DFT", 
		 "functional": "B3LYP", 
		 "basiset": "6-31G**", 
		 "properties": { 
			 "R2extent": 6241.2636, 
			 "electric_dipole_moment_norm": 3.86242446399, 
			 "electric_quadrupole_moment_norm": 15.2892541443, 
			 "total_energy": -4009.65606574, 
			 "HOMO_LUMO_gap": 0.17876, 
			 "cosmo_polarized_energy": -8.07, 
			 "cosmo_cavitation_energy": 26.83, 
			 "cosmo_dispersion_energy": -20.37, 
			 "cosmo_repulsion_energy": 1.53, 
			 "cosmo_total_nonelectrostatic_energy": 7.99, 
			 "SMD_solvation_energy": 3.16 
		},
		"coords": [
			{
				"x": -0.5413610702,
				"y": 0.0271450681,
				"z": -1.2892006708,
				"element": "F" 
			},
			{
				"x": -0.179494456,
				"y": 0.4415257126,
				"z": -0.0704757718,
				"element": "C" 
			},
			{
				"x": 0.9847172553,
				"y": 1.1824595351,
				"z": 0.0722982474,
				"element": "C" 
			},
			{
				"x": 1.3581705726,
				"y": 1.6180845984,
				"z": 1.3448853693,
				"element": "C" 
			},
			{
				"x": 0.5704365649,
				"y": 1.3030518536,
				"z": 2.4553009163,
				"element": "C" 
			},
			{
				"x": 0.9361161027,
				"y": 1.6998385732,
				"z": 3.6762970813,
				"element": "F" 
			},
			{
				"x": -0.5935152505,
				"y": 0.5589457056,
				"z": 2.3084815011,
				"element": "C" 
			},
			{
				"x": -0.9723365974,
				"y": 0.12736122,
				"z": 1.0380384405,
				"element": "C" 
			},
			{
				"x": -2.5502541729,
				"y": -0.8841669367,
				"z": 0.8023884985,
				"element": "Br" 
			},
			{
				"x": 2.8289716893,
				"y": 2.624087906,
				"z": 1.4949164949,
				"element": "S" 
			},
			{
				"x": 4.128366987,
				"y": 1.2951277554,
				"z": 2.5106159812,
				"element": "Cl" 
			},
			{
				"x": 3.3821573549,
				"y": 2.8092779244,
				"z": 0.1598487032,
				"element": "O" 
			},
			{
				"x": 2.5780744646,
				"y": 3.7392843739,
				"z": 2.3935792305,
				"element": "O" 
			},
			{
				"x": 1.5908636137,
				"y": 1.4208629853,
				"z": -0.7936853806,
				"element": "H" 
			},
			{
				"x": -1.1896130582,
				"y": 0.3237137249,
				"z": 3.1816113588,
				"element": "H" 
			}
		],
		 "valence_orbital": [ 
			{
				"type": "occ",
				"energy": -0.33927,
				"method": "rhf"
			},
			{
				"type": "occ",
				"energy": -0.32427,
				"method": "rhf"
			},
			{
				"type": "occ",
				"energy": -0.32132,
				"method": "rhf"
			},
			{
				"type": "occ",
				"energy": -0.29895,
				"method": "rhf"
			},
			{
				"type": "occ",
				"energy": -0.28011,
				"method": "rhf"
			},
			{
				"type": "unocc",
				"energy": -0.10135,
				"method": "rhf"
			},
			{
				"type": "unocc",
				"energy": -0.06917,
				"method": "rhf"
			},
			{
				"type": "unocc",
				"energy": -0.04647,
				"method": "rhf"
			},
			{
				"type": "unocc",
				"energy": -0.03086,
				"method": "rhf"
			},
			{
				"type": "unocc",
				"energy": 0.0338,
				"method": "rhf"
			}
		],
		"cosmo_sigma_profile": { 
			"-0.025": 0.0,
			"-0.024": 0.0,
			"-0.023": 0.0,
			"-0.022": 0.0,
			"-0.021": 0.0,
			"-0.02": 0.0,
			"-0.019": 0.0,
			"-0.018": 0.0,
			"-0.017": 0.0,
			"-0.016": 0.0,
			"-0.015": 0.0,
			"-0.014": 0.0,
			"-0.013": 0.0,
			"-0.012": 0.0,
			"-0.011": 0.575924847202,
			"-0.01": 2.62387595797,
			"-0.009": 2.31232142957,
			"-0.008": 3.42408171067,
			"-0.007": 3.4212091361,
			"-0.006": 6.81131526633,
			"-0.005": 7.84959951014,
			"-0.004": 15.83155748,
			"-0.003": 23.8165268318,
			"-0.002": 19.0619956913,
			"-0.001": 14.5362528969,
			"0.0": 12.3595258363,
			"0.001": 18.3989648378,
			"0.002": 33.6082259041,
			"0.003": 26.5067350364,
			"0.004": 6.06038067899,
			"0.005": 3.78694295172,
			"0.006": 4.02018056074,
			"0.007": 9.3512003383,
			"0.008": 7.97485518212,
			"0.009": 0.961022788452,
			"0.01": 0.0,
			"0.011": 0.0,
			"0.012": 0.0,
			"0.013": 0.0,
			"0.014": 0.0,
			"0.015": 0.0,
			"0.016": 0.0,
			"0.017": 0.0,
			"0.018": 0.0,
			"0.019": 0.0,
			"0.02": 0.0,
			"0.021": 0.0,
			"0.022": 0.0,
			"0.023": 0.0,
			"0.024": 0.0,
			"0.025": 0.0
		}
	}
}
