{
	 "smiles": "CC(=O)NC1=CC=C(C=C1)C1NC(=O)NC1=O", 
	 "Tm": 588.15, 
	 "num_atms": 28, 
	 "gaussian": { 
		 "optdone": 1, 
		 "sigma_profile": "yes", 
		 "theory": "DFT", 
		 "functional": "B3LYP", 
		 "basiset": "6-31G**", 
		 "properties": { 
			 "R2extent": 6009.0166, 
			 "electric_dipole_moment_norm": 2.48888289198, 
			 "electric_quadrupole_moment_norm": 20.7789587918, 
			 "total_energy": -815.780756314, 
			 "HOMO_LUMO_gap": 0.199, 
			 "cosmo_polarized_energy": -24.76, 
			 "cosmo_cavitation_energy": 33.26, 
			 "cosmo_dispersion_energy": -23.78, 
			 "cosmo_repulsion_energy": 1.87, 
			 "cosmo_total_nonelectrostatic_energy": 11.34, 
			 "SMD_solvation_energy": 7.92 
		},
		"coords": [
			{
				"x": -2.3300959144,
				"y": -1.6399480328,
				"z": -3.5186595571,
				"element": "C" 
			},
			{
				"x": -2.4521110258,
				"y": -2.5277237915,
				"z": -2.2956143756,
				"element": "C" 
			},
			{
				"x": -2.964978588,
				"y": -3.6355715337,
				"z": -2.347431177,
				"element": "O" 
			},
			{
				"x": -1.948390068,
				"y": -2.0749061826,
				"z": -1.0832881271,
				"element": "N" 
			},
			{
				"x": -1.2864895249,
				"y": -0.8849383162,
				"z": -0.7180446536,
				"element": "C" 
			},
			{
				"x": -1.6666105945,
				"y": 0.3770500249,
				"z": -1.2003401582,
				"element": "C" 
			},
			{
				"x": -0.9893535269,
				"y": 1.5199353269,
				"z": -0.7835669932,
				"element": "C" 
			},
			{
				"x": 0.058289729,
				"y": 1.4426753795,
				"z": 0.1398964841,
				"element": "C" 
			},
			{
				"x": 0.4204174563,
				"y": 0.1878411323,
				"z": 0.6392103678,
				"element": "C" 
			},
			{
				"x": -0.2406088647,
				"y": -0.9611379521,
				"z": 0.2150018825,
				"element": "C" 
			},
			{
				"x": 0.7907418881,
				"y": 2.7095456178,
				"z": 0.5422710222,
				"element": "C" 
			},
			{
				"x": 1.5872055523,
				"y": 2.6153708552,
				"z": 1.753628352,
				"element": "N" 
			},
			{
				"x": 2.8922568791,
				"y": 3.0188037881,
				"z": 1.5883451868,
				"element": "C" 
			},
			{
				"x": 3.7581027933,
				"y": 3.1324021186,
				"z": 2.4284058875,
				"element": "O" 
			},
			{
				"x": 3.0316058786,
				"y": 3.2766878332,
				"z": 0.2081631439,
				"element": "N" 
			},
			{
				"x": 1.8601912017,
				"y": 3.1281622869,
				"z": -0.5025742887,
				"element": "C" 
			},
			{
				"x": 1.6870009224,
				"y": 3.2971588698,
				"z": -1.6882351423,
				"element": "O" 
			},
			{
				"x": -2.3520888612,
				"y": -2.2917862281,
				"z": -4.3925772707,
				"element": "H" 
			},
			{
				"x": -1.4198023288,
				"y": -1.0364966939,
				"z": -3.521714318,
				"element": "H" 
			},
			{
				"x": -3.1890667652,
				"y": -0.9635600227,
				"z": -3.5841390991,
				"element": "H" 
			},
			{
				"x": -1.9764187317,
				"y": -2.8076690695,
				"z": -0.3843164542,
				"element": "H" 
			},
			{
				"x": -2.5065894025,
				"y": 0.4719108075,
				"z": -1.8773506835,
				"element": "H" 
			},
			{
				"x": -1.2909669242,
				"y": 2.4869973255,
				"z": -1.175533772,
				"element": "H" 
			},
			{
				"x": 1.2295317531,
				"y": 0.1084945409,
				"z": 1.3582726403,
				"element": "H" 
			},
			{
				"x": 0.0612694013,
				"y": -1.932025607,
				"z": 0.5985265572,
				"element": "H" 
			},
			{
				"x": 0.0711460518,
				"y": 3.5396079592,
				"z": 0.5973774051,
				"element": "H" 
			},
			{
				"x": 1.1988867618,
				"y": 2.5569997752,
				"z": 2.6823185203,
				"element": "H" 
			},
			{
				"x": 3.9145248519,
				"y": 3.5474197885,
				"z": -0.2009313792,
				"element": "H" 
			}
		],
		 "valence_orbital": [ 
			{
				"type": "occ",
				"energy": -0.28041,
				"method": "rhf"
			},
			{
				"type": "occ",
				"energy": -0.27319,
				"method": "rhf"
			},
			{
				"type": "occ",
				"energy": -0.26922,
				"method": "rhf"
			},
			{
				"type": "occ",
				"energy": -0.25704,
				"method": "rhf"
			},
			{
				"type": "occ",
				"energy": -0.23129,
				"method": "rhf"
			},
			{
				"type": "unocc",
				"energy": -0.03229,
				"method": "rhf"
			},
			{
				"type": "unocc",
				"energy": -0.02212,
				"method": "rhf"
			},
			{
				"type": "unocc",
				"energy": -0.01259,
				"method": "rhf"
			},
			{
				"type": "unocc",
				"energy": 0.02753,
				"method": "rhf"
			},
			{
				"type": "unocc",
				"energy": 0.05189,
				"method": "rhf"
			}
		],
		"cosmo_sigma_profile": { 
			"-0.025": 0.0,
			"-0.024": 0.0,
			"-0.023": 0.0,
			"-0.022": 0.0,
			"-0.021": 0.0,
			"-0.02": 0.0,
			"-0.019": 0.0,
			"-0.018": 0.0,
			"-0.017": 0.376012476434,
			"-0.016": 1.76410362919,
			"-0.015": 2.25299817809,
			"-0.014": 2.80987467886,
			"-0.013": 3.23577964766,
			"-0.012": 2.50249726501,
			"-0.011": 3.32323318362,
			"-0.01": 2.9269594744,
			"-0.009": 2.84858784648,
			"-0.008": 9.35337854199,
			"-0.007": 11.9629778261,
			"-0.006": 12.8354114513,
			"-0.005": 16.1301721687,
			"-0.004": 16.7384900917,
			"-0.003": 18.0409223687,
			"-0.002": 20.2868088502,
			"-0.001": 16.4049584229,
			"0.0": 11.242461116,
			"0.001": 10.1031149184,
			"0.002": 11.2294295665,
			"0.003": 12.3351909396,
			"0.004": 12.2431816042,
			"0.005": 6.41053002631,
			"0.006": 3.6852258937,
			"0.007": 4.39817737527,
			"0.008": 5.03391614578,
			"0.009": 3.68248622508,
			"0.01": 5.510505694,
			"0.011": 7.70129060554,
			"0.012": 12.2174559239,
			"0.013": 10.2843363674,
			"0.014": 4.21022129806,
			"0.015": 0.426317491818,
			"0.016": 0.0,
			"0.017": 0.0,
			"0.018": 0.0,
			"0.019": 0.0,
			"0.02": 0.0,
			"0.021": 0.0,
			"0.022": 0.0,
			"0.023": 0.0,
			"0.024": 0.0,
			"0.025": 0.0
		}
	}
}
