{
	 "smiles": "O=CC1=CC=C(S1)N1CCCCC1", 
	 "Tm": 347.15, 
	 "num_atms": 26, 
	 "gaussian": { 
		 "optdone": 1, 
		 "sigma_profile": "yes", 
		 "theory": "DFT", 
		 "functional": "B3LYP", 
		 "basiset": "6-31G**", 
		 "properties": { 
			 "R2extent": 3721.6868, 
			 "electric_dipole_moment_norm": 7.58516185918, 
			 "electric_quadrupole_moment_norm": 17.8662057614, 
			 "total_energy": -917.038810298, 
			 "HOMO_LUMO_gap": 0.15033, 
			 "cosmo_polarized_energy": -12.15, 
			 "cosmo_cavitation_energy": 29.41, 
			 "cosmo_dispersion_energy": -22.23, 
			 "cosmo_repulsion_energy": 1.71, 
			 "cosmo_total_nonelectrostatic_energy": 8.89, 
			 "SMD_solvation_energy": 4.48 
		},
		"coords": [
			{
				"x": 0.0377808765,
				"y": -3.2576297521,
				"z": 4.3951468659,
				"element": "O" 
			},
			{
				"x": -0.1800504952,
				"y": -2.1150590464,
				"z": 4.0127215909,
				"element": "C" 
			},
			{
				"x": 0.0209035582,
				"y": -1.6622327918,
				"z": 2.6515793892,
				"element": "C" 
			},
			{
				"x": 0.4428622039,
				"y": -2.4015204378,
				"z": 1.5652418277,
				"element": "C" 
			},
			{
				"x": 0.5087552932,
				"y": -1.6830907835,
				"z": 0.3568775312,
				"element": "C" 
			},
			{
				"x": 0.129506393,
				"y": -0.3469863289,
				"z": 0.5002871387,
				"element": "C" 
			},
			{
				"x": -0.2948142072,
				"y": 0.00844218,
				"z": 2.1691764732,
				"element": "S" 
			},
			{
				"x": 0.0935683265,
				"y": 0.6218448091,
				"z": -0.4570463432,
				"element": "N" 
			},
			{
				"x": 0.6654190238,
				"y": 0.3528932857,
				"z": -1.7813100225,
				"element": "C" 
			},
			{
				"x": 1.0938457363,
				"y": 1.6607143508,
				"z": -2.4525543866,
				"element": "C" 
			},
			{
				"x": -0.0827333609,
				"y": 2.6442849134,
				"z": -2.6279936001,
				"element": "C" 
			},
			{
				"x": -1.1243076939,
				"y": 2.4911018703,
				"z": -1.4955417187,
				"element": "C" 
			},
			{
				"x": -0.5046557494,
				"y": 1.9363875983,
				"z": -0.2090652907,
				"element": "C" 
			},
			{
				"x": -0.5557209281,
				"y": -1.3409778452,
				"z": 4.7194173832,
				"element": "H" 
			},
			{
				"x": 0.6786848376,
				"y": -3.4549686023,
				"z": 1.6646782676,
				"element": "H" 
			},
			{
				"x": 0.7860585074,
				"y": -2.1239226891,
				"z": -0.5915055477,
				"element": "H" 
			},
			{
				"x": -0.0547190951,
				"y": -0.1896569421,
				"z": -2.414330403,
				"element": "H" 
			},
			{
				"x": 1.5362544905,
				"y": -0.2981562271,
				"z": -1.6534873869,
				"element": "H" 
			},
			{
				"x": 1.5545067563,
				"y": 1.4302728688,
				"z": -3.418651813,
				"element": "H" 
			},
			{
				"x": 1.8762349436,
				"y": 2.1181882638,
				"z": -1.8358976495,
				"element": "H" 
			},
			{
				"x": -0.5733118454,
				"y": 2.4781880973,
				"z": -3.5932440975,
				"element": "H" 
			},
			{
				"x": 0.3066336924,
				"y": 3.6677657238,
				"z": -2.6519911687,
				"element": "H" 
			},
			{
				"x": -1.6049424577,
				"y": 3.4498884689,
				"z": -1.275826508,
				"element": "H" 
			},
			{
				"x": -1.9208005315,
				"y": 1.8058775685,
				"z": -1.8073212783,
				"element": "H" 
			},
			{
				"x": -1.2829910344,
				"y": 1.8221459103,
				"z": 0.5523674599,
				"element": "H" 
			},
			{
				"x": 0.2419327598,
				"y": 2.6376055374,
				"z": 0.1961732869,
				"element": "H" 
			}
		],
		 "valence_orbital": [ 
			{
				"type": "occ",
				"energy": -0.33369,
				"method": "rhf"
			},
			{
				"type": "occ",
				"energy": -0.28458,
				"method": "rhf"
			},
			{
				"type": "occ",
				"energy": -0.25489,
				"method": "rhf"
			},
			{
				"type": "occ",
				"energy": -0.23196,
				"method": "rhf"
			},
			{
				"type": "occ",
				"energy": -0.19101,
				"method": "rhf"
			},
			{
				"type": "unocc",
				"energy": -0.04068,
				"method": "rhf"
			},
			{
				"type": "unocc",
				"energy": 0.01801,
				"method": "rhf"
			},
			{
				"type": "unocc",
				"energy": 0.04204,
				"method": "rhf"
			},
			{
				"type": "unocc",
				"energy": 0.05784,
				"method": "rhf"
			},
			{
				"type": "unocc",
				"energy": 0.08736,
				"method": "rhf"
			}
		],
		"cosmo_sigma_profile": { 
			"-0.025": 0.0,
			"-0.024": 0.0,
			"-0.023": 0.0,
			"-0.022": 0.0,
			"-0.021": 0.0,
			"-0.02": 0.0,
			"-0.019": 0.0,
			"-0.018": 0.0,
			"-0.017": 0.0,
			"-0.016": 0.0,
			"-0.015": 0.0,
			"-0.014": 0.0,
			"-0.013": 0.0,
			"-0.012": 0.0,
			"-0.011": 0.0,
			"-0.01": 0.0,
			"-0.009": 0.0,
			"-0.008": 0.0217294013273,
			"-0.007": 1.92123644082,
			"-0.006": 6.09469866931,
			"-0.005": 12.2778524561,
			"-0.004": 24.53070012,
			"-0.003": 40.0549993877,
			"-0.002": 32.0207246731,
			"-0.001": 19.2007523772,
			"0.0": 18.6377555572,
			"0.001": 10.6472420165,
			"0.002": 10.1444785653,
			"0.003": 13.0209909362,
			"0.004": 13.3206530633,
			"0.005": 9.32028802167,
			"0.006": 2.36343968959,
			"0.007": 1.40461111312,
			"0.008": 1.91826736616,
			"0.009": 1.53710119901,
			"0.01": 1.37183099847,
			"0.011": 2.06416013854,
			"0.012": 3.3688912727,
			"0.013": 5.08155887209,
			"0.014": 2.78807366108,
			"0.015": 0.404644272457,
			"0.016": 0.0,
			"0.017": 0.0,
			"0.018": 0.0,
			"0.019": 0.0,
			"0.02": 0.0,
			"0.021": 0.0,
			"0.022": 0.0,
			"0.023": 0.0,
			"0.024": 0.0,
			"0.025": 0.0
		}
	}
}
