{
	 "smiles": "CC1=C(C=C(C=C1Br)S(Cl)(=O)=O)C(O)=O", 
	 "Tm": 441.15, 
	 "num_atms": 21, 
	 "gaussian": { 
		 "optdone": 1, 
		 "sigma_profile": "yes", 
		 "theory": "DFT", 
		 "functional": "B3LYP", 
		 "basiset": "6-31G**", 
		 "properties": { 
			 "R2extent": 5945.281, 
			 "electric_dipole_moment_norm": 6.02074788129, 
			 "electric_quadrupole_moment_norm": 11.6697254098, 
			 "total_energy": -4039.08092392, 
			 "HOMO_LUMO_gap": 0.17934, 
			 "cosmo_polarized_energy": -17.83, 
			 "cosmo_cavitation_energy": 31.66, 
			 "cosmo_dispersion_energy": -23.54, 
			 "cosmo_repulsion_energy": 1.81, 
			 "cosmo_total_nonelectrostatic_energy": 9.93, 
			 "SMD_solvation_energy": 4.13 
		},
		"coords": [
			{
				"x": 0.9163123589,
				"y": -1.4460071289,
				"z": -2.151483879,
				"element": "C" 
			},
			{
				"x": 0.4500680242,
				"y": -0.5239721405,
				"z": -1.0499144383,
				"element": "C" 
			},
			{
				"x": -0.3517863536,
				"y": -0.9622717913,
				"z": 0.029497141,
				"element": "C" 
			},
			{
				"x": -0.8497348426,
				"y": -0.0599355378,
				"z": 0.9772377128,
				"element": "C" 
			},
			{
				"x": -0.4935086524,
				"y": 1.277639321,
				"z": 0.8838172466,
				"element": "C" 
			},
			{
				"x": 0.3176833708,
				"y": 1.7558769986,
				"z": -0.1427860661,
				"element": "C" 
			},
			{
				"x": 0.7673205677,
				"y": 0.8489691006,
				"z": -1.0957564183,
				"element": "C" 
			},
			{
				"x": 1.8494477098,
				"y": 1.5395937279,
				"z": -2.5095656579,
				"element": "Br" 
			},
			{
				"x": -1.1116612221,
				"y": 2.4373301978,
				"z": 2.100205103,
				"element": "S" 
			},
			{
				"x": 0.4328681882,
				"y": 2.346450448,
				"z": 3.5636610803,
				"element": "Cl" 
			},
			{
				"x": -2.3044739432,
				"y": 1.8842700508,
				"z": 2.7249389919,
				"element": "O" 
			},
			{
				"x": -1.0656123994,
				"y": 3.7807016368,
				"z": 1.5387324417,
				"element": "O" 
			},
			{
				"x": -0.7818048498,
				"y": -2.3961469467,
				"z": 0.2408470495,
				"element": "C" 
			},
			{
				"x": 0.1695884861,
				"y": -3.3542930437,
				"z": 0.0971605885,
				"element": "O" 
			},
			{
				"x": -1.9032329783,
				"y": -2.694436708,
				"z": 0.5646293256,
				"element": "O" 
			},
			{
				"x": 0.4478404974,
				"y": -2.4277950129,
				"z": -2.0994918916,
				"element": "H" 
			},
			{
				"x": 0.6838048068,
				"y": -1.0082022024,
				"z": -3.1260007673,
				"element": "H" 
			},
			{
				"x": 2.0055938785,
				"y": -1.5723854379,
				"z": -2.1264811811,
				"element": "H" 
			},
			{
				"x": -1.5076388828,
				"y": -0.4130177554,
				"z": 1.7628548944,
				"element": "H" 
			},
			{
				"x": 0.5728705243,
				"y": 2.806499712,
				"z": -0.2056774765,
				"element": "H" 
			},
			{
				"x": 1.0420557115,
				"y": -2.9534674882,
				"z": -0.0238237992,
				"element": "H" 
			}
		],
		 "valence_orbital": [ 
			{
				"type": "occ",
				"energy": -0.32392,
				"method": "rhf"
			},
			{
				"type": "occ",
				"energy": -0.32067,
				"method": "rhf"
			},
			{
				"type": "occ",
				"energy": -0.31101,
				"method": "rhf"
			},
			{
				"type": "occ",
				"energy": -0.29539,
				"method": "rhf"
			},
			{
				"type": "occ",
				"energy": -0.28299,
				"method": "rhf"
			},
			{
				"type": "unocc",
				"energy": -0.10365,
				"method": "rhf"
			},
			{
				"type": "unocc",
				"energy": -0.07762,
				"method": "rhf"
			},
			{
				"type": "unocc",
				"energy": -0.06364,
				"method": "rhf"
			},
			{
				"type": "unocc",
				"energy": -0.02677,
				"method": "rhf"
			},
			{
				"type": "unocc",
				"energy": -0.00573,
				"method": "rhf"
			}
		],
		"cosmo_sigma_profile": { 
			"-0.025": 0.0,
			"-0.024": 0.0,
			"-0.023": 0.0,
			"-0.022": 0.0,
			"-0.021": 0.0,
			"-0.02": 0.153492250672,
			"-0.019": 0.660644869546,
			"-0.018": 1.09335275261,
			"-0.017": 1.13476832055,
			"-0.016": 0.408342428298,
			"-0.015": 0.774837580738,
			"-0.014": 0.873476165275,
			"-0.013": 1.47868115181,
			"-0.012": 0.804774900039,
			"-0.011": 0.999642677265,
			"-0.01": 0.947172997805,
			"-0.009": 2.17310897103,
			"-0.008": 4.30395889871,
			"-0.007": 8.85822850042,
			"-0.006": 10.344873282,
			"-0.005": 13.868215612,
			"-0.004": 14.5196118038,
			"-0.003": 19.83192653,
			"-0.002": 26.4089942838,
			"-0.001": 18.8382967192,
			"0.0": 13.1098024438,
			"0.001": 16.1571769958,
			"0.002": 19.0101703811,
			"0.003": 22.8396559827,
			"0.004": 10.3689723268,
			"0.005": 4.66662199469,
			"0.006": 4.84581751727,
			"0.007": 10.6952647001,
			"0.008": 12.0515900377,
			"0.009": 6.73330421392,
			"0.01": 4.59695908527,
			"0.011": 4.95819547045,
			"0.012": 1.42726954181,
			"0.013": 0.00588067392816,
			"0.014": 0.0,
			"0.015": 0.0,
			"0.016": 0.0,
			"0.017": 0.0,
			"0.018": 0.0,
			"0.019": 0.0,
			"0.02": 0.0,
			"0.021": 0.0,
			"0.022": 0.0,
			"0.023": 0.0,
			"0.024": 0.0,
			"0.025": 0.0
		}
	}
}
