{
	 "smiles": "CCCCCCCCCCCCCCCCC", 
	 "Tm": 294.65, 
	 "num_atms": 53, 
	 "gaussian": { 
		 "optdone": 1, 
		 "sigma_profile": "yes", 
		 "theory": "DFT", 
		 "functional": "B3LYP", 
		 "basiset": "6-31G**", 
		 "properties": { 
			 "R2extent": 9227.6143, 
			 "electric_dipole_moment_norm": 0.10341547273, 
			 "electric_quadrupole_moment_norm": 0.225567284862, 
			 "total_energy": -669.553527455, 
			 "HOMO_LUMO_gap": 0.36917, 
			 "cosmo_polarized_energy": -1.12, 
			 "cosmo_cavitation_energy": 50.34, 
			 "cosmo_dispersion_energy": -32.98, 
			 "cosmo_repulsion_energy": 2.71, 
			 "cosmo_total_nonelectrostatic_energy": 20.07, 
			 "SMD_solvation_energy": 6.51 
		},
		"coords": [
			{
				"x": 2.1870149571,
				"y": -2.9710424701,
				"z": -3.9183672534,
				"element": "C" 
			},
			{
				"x": 1.4561811003,
				"y": -4.317612103,
				"z": -3.8675653489,
				"element": "C" 
			},
			{
				"x": 0.6290784907,
				"y": -4.5783172424,
				"z": -2.5956271892,
				"element": "C" 
			},
			{
				"x": -0.559060628,
				"y": -3.6131640052,
				"z": -2.3698383805,
				"element": "C" 
			},
			{
				"x": -0.2807414382,
				"y": -2.4053115769,
				"z": -1.4542627341,
				"element": "C" 
			},
			{
				"x": -0.1601582103,
				"y": -2.7736790385,
				"z": 0.0344819087,
				"element": "C" 
			},
			{
				"x": 0.0654775913,
				"y": -1.5839084208,
				"z": 0.9977079512,
				"element": "C" 
			},
			{
				"x": 1.5317459701,
				"y": -1.2956971351,
				"z": 1.3836714351,
				"element": "C" 
			},
			{
				"x": 2.5025919078,
				"y": -0.788575279,
				"z": 0.2950098876,
				"element": "C" 
			},
			{
				"x": 2.5218309396,
				"y": 0.7308599268,
				"z": 0.0430578142,
				"element": "C" 
			},
			{
				"x": 1.2575029465,
				"y": 1.3485508282,
				"z": -0.5717830626,
				"element": "C" 
			},
			{
				"x": 1.4391081091,
				"y": 2.8319392714,
				"z": -0.9269494747,
				"element": "C" 
			},
			{
				"x": 0.2239053446,
				"y": 3.4884174354,
				"z": -1.602753283,
				"element": "C" 
			},
			{
				"x": -1.0225122677,
				"y": 3.6109551176,
				"z": -0.7140478811,
				"element": "C" 
			},
			{
				"x": -2.1813071944,
				"y": 4.3411105381,
				"z": -1.4080012485,
				"element": "C" 
			},
			{
				"x": -3.4742009058,
				"y": 4.4309082178,
				"z": -0.5803895782,
				"element": "C" 
			},
			{
				"x": -3.3591194853,
				"y": 5.2857327215,
				"z": 0.687552255,
				"element": "C" 
			},
			{
				"x": 2.7996236957,
				"y": -2.892549062,
				"z": -4.822993807,
				"element": "H" 
			},
			{
				"x": 1.4890447793,
				"y": -2.1276790734,
				"z": -3.923693236,
				"element": "H" 
			},
			{
				"x": 2.8528224059,
				"y": -2.8467900714,
				"z": -3.056145992,
				"element": "H" 
			},
			{
				"x": 0.7950605853,
				"y": -4.4009094161,
				"z": -4.741467504,
				"element": "H" 
			},
			{
				"x": 2.1938721154,
				"y": -5.1242720646,
				"z": -3.9709562359,
				"element": "H" 
			},
			{
				"x": 0.2469957345,
				"y": -5.6049944741,
				"z": -2.655455465,
				"element": "H" 
			},
			{
				"x": 1.295226668,
				"y": -4.5626176728,
				"z": -1.7223257107,
				"element": "H" 
			},
			{
				"x": -1.4013370366,
				"y": -4.1724111264,
				"z": -1.9407082534,
				"element": "H" 
			},
			{
				"x": -0.9122934923,
				"y": -3.2527956035,
				"z": -3.3455987385,
				"element": "H" 
			},
			{
				"x": -1.1038569449,
				"y": -1.6854804368,
				"z": -1.5618874664,
				"element": "H" 
			},
			{
				"x": 0.6203321362,
				"y": -1.8817418238,
				"z": -1.7906963025,
				"element": "H" 
			},
			{
				"x": -1.0879296017,
				"y": -3.2876199362,
				"z": 0.3204069719,
				"element": "H" 
			},
			{
				"x": 0.6406515838,
				"y": -3.5116916257,
				"z": 0.1788656781,
				"element": "H" 
			},
			{
				"x": -0.4675739162,
				"y": -1.7949151416,
				"z": 1.9335993768,
				"element": "H" 
			},
			{
				"x": -0.4120475483,
				"y": -0.6874067674,
				"z": 0.5850736185,
				"element": "H" 
			},
			{
				"x": 1.9418890931,
				"y": -2.2257706841,
				"z": 1.8006290916,
				"element": "H" 
			},
			{
				"x": 1.5388347072,
				"y": -0.5753114621,
				"z": 2.2140983023,
				"element": "H" 
			},
			{
				"x": 3.5183132406,
				"y": -1.0730667999,
				"z": 0.5993543441,
				"element": "H" 
			},
			{
				"x": 2.3241138122,
				"y": -1.3164770202,
				"z": -0.6498087724,
				"element": "H" 
			},
			{
				"x": 3.3702305929,
				"y": 0.952093306,
				"z": -0.6199929492,
				"element": "H" 
			},
			{
				"x": 2.7442663469,
				"y": 1.242653184,
				"z": 0.9909076349,
				"element": "H" 
			},
			{
				"x": 0.4169491849,
				"y": 1.2386648052,
				"z": 0.1223466453,
				"element": "H" 
			},
			{
				"x": 0.9811959545,
				"y": 0.79232988,
				"z": -1.4792238545,
				"element": "H" 
			},
			{
				"x": 2.3073834158,
				"y": 2.9292097302,
				"z": -1.5931261577,
				"element": "H" 
			},
			{
				"x": 1.6941822842,
				"y": 3.3938197779,
				"z": -0.0165646484,
				"element": "H" 
			},
			{
				"x": -0.0330554363,
				"y": 2.9253425419,
				"z": -2.5117422694,
				"element": "H" 
			},
			{
				"x": 0.5114327303,
				"y": 4.4928511124,
				"z": -1.9426863558,
				"element": "H" 
			},
			{
				"x": -1.3650471793,
				"y": 2.6132295359,
				"z": -0.4080090979,
				"element": "H" 
			},
			{
				"x": -0.7481403243,
				"y": 4.1363127276,
				"z": 0.2107353477,
				"element": "H" 
			},
			{
				"x": -1.8574959104,
				"y": 5.3555365435,
				"z": -1.6831263795,
				"element": "H" 
			},
			{
				"x": -2.4031792109,
				"y": 3.8285218984,
				"z": -2.3541663133,
				"element": "H" 
			},
			{
				"x": -4.2689417428,
				"y": 4.843192133,
				"z": -1.2153842308,
				"element": "H" 
			},
			{
				"x": -3.7997767022,
				"y": 3.4170530487,
				"z": -0.3091069201,
				"element": "H" 
			},
			{
				"x": -4.3215539336,
				"y": 5.3543685793,
				"z": 1.2054727023,
				"element": "H" 
			},
			{
				"x": -3.0386001712,
				"y": 6.306258833,
				"z": 0.446698265,
				"element": "H" 
			},
			{
				"x": -2.635129143,
				"y": 4.870995839,
				"z": 1.3963828643,
				"element": "H" 
			}
		],
		 "valence_orbital": [ 
			{
				"type": "occ",
				"energy": -0.30479,
				"method": "rhf"
			},
			{
				"type": "occ",
				"energy": -0.29968,
				"method": "rhf"
			},
			{
				"type": "occ",
				"energy": -0.29571,
				"method": "rhf"
			},
			{
				"type": "occ",
				"energy": -0.29258,
				"method": "rhf"
			},
			{
				"type": "occ",
				"energy": -0.29189,
				"method": "rhf"
			},
			{
				"type": "unocc",
				"energy": 0.07728,
				"method": "rhf"
			},
			{
				"type": "unocc",
				"energy": 0.08808,
				"method": "rhf"
			},
			{
				"type": "unocc",
				"energy": 0.09384,
				"method": "rhf"
			},
			{
				"type": "unocc",
				"energy": 0.09932,
				"method": "rhf"
			},
			{
				"type": "unocc",
				"energy": 0.10097,
				"method": "rhf"
			}
		],
		"cosmo_sigma_profile": { 
			"-0.025": 0.0,
			"-0.024": 0.0,
			"-0.023": 0.0,
			"-0.022": 0.0,
			"-0.021": 0.0,
			"-0.02": 0.0,
			"-0.019": 0.0,
			"-0.018": 0.0,
			"-0.017": 0.0,
			"-0.016": 0.0,
			"-0.015": 0.0,
			"-0.014": 0.0,
			"-0.013": 0.0,
			"-0.012": 0.0,
			"-0.011": 0.0,
			"-0.01": 0.0,
			"-0.009": 0.0,
			"-0.008": 0.0,
			"-0.007": 0.0,
			"-0.006": 0.0,
			"-0.005": 0.0,
			"-0.004": 0.0,
			"-0.003": 2.27508966698,
			"-0.002": 40.7934022968,
			"-0.001": 96.2421092828,
			"0.0": 106.882737208,
			"0.001": 93.3816191451,
			"0.002": 43.1505603096,
			"0.003": 1.25332235475,
			"0.004": 0.0,
			"0.005": 0.0,
			"0.006": 0.0,
			"0.007": 0.0,
			"0.008": 0.0,
			"0.009": 0.0,
			"0.01": 0.0,
			"0.011": 0.0,
			"0.012": 0.0,
			"0.013": 0.0,
			"0.014": 0.0,
			"0.015": 0.0,
			"0.016": 0.0,
			"0.017": 0.0,
			"0.018": 0.0,
			"0.019": 0.0,
			"0.02": 0.0,
			"0.021": 0.0,
			"0.022": 0.0,
			"0.023": 0.0,
			"0.024": 0.0,
			"0.025": 0.0
		}
	}
}
