{
	 "smiles": "NC(=S)NC1=CC2=C(OCCO2)C=C1", 
	 "Tm": 485.15, 
	 "num_atms": 24, 
	 "gaussian": { 
		 "optdone": 1, 
		 "sigma_profile": "yes", 
		 "theory": "DFT", 
		 "functional": "B3LYP", 
		 "basiset": "6-31G**", 
		 "properties": { 
			 "R2extent": 4384.0712, 
			 "electric_dipole_moment_norm": 7.348470696, 
			 "electric_quadrupole_moment_norm": 16.792617661, 
			 "total_energy": -1007.12001312, 
			 "HOMO_LUMO_gap": 0.17779, 
			 "cosmo_polarized_energy": -19.71, 
			 "cosmo_cavitation_energy": 29.26, 
			 "cosmo_dispersion_energy": -22.59, 
			 "cosmo_repulsion_energy": 1.75, 
			 "cosmo_total_nonelectrostatic_energy": 8.42, 
			 "SMD_solvation_energy": 4.38 
		},
		"coords": [
			{
				"x": 0.4917746573,
				"y": -1.913311709,
				"z": 2.7494310261,
				"element": "N" 
			},
			{
				"x": 1.6292047296,
				"y": -1.9290430292,
				"z": 2.0055675704,
				"element": "C" 
			},
			{
				"x": 2.826643962,
				"y": -3.0916593258,
				"z": 2.2202603941,
				"element": "S" 
			},
			{
				"x": 1.7621828498,
				"y": -0.9573809274,
				"z": 1.0515140272,
				"element": "N" 
			},
			{
				"x": 0.8770805938,
				"y": 0.0920762876,
				"z": 0.695541707,
				"element": "C" 
			},
			{
				"x": -0.4964201308,
				"y": -0.1270007239,
				"z": 0.5266982676,
				"element": "C" 
			},
			{
				"x": -1.3318067072,
				"y": 0.9253619183,
				"z": 0.1502722657,
				"element": "C" 
			},
			{
				"x": -0.798965959,
				"y": 2.2043662792,
				"z": -0.0854491648,
				"element": "C" 
			},
			{
				"x": -1.5886087674,
				"y": 3.2652074437,
				"z": -0.4532550449,
				"element": "O" 
			},
			{
				"x": -2.9835047424,
				"y": 3.0474309386,
				"z": -0.2375656001,
				"element": "C" 
			},
			{
				"x": -3.3797639869,
				"y": 1.664056184,
				"z": -0.7271631968,
				"element": "C" 
			},
			{
				"x": -2.669458037,
				"y": 0.6615020854,
				"z": 0.0038415765,
				"element": "O" 
			},
			{
				"x": 0.5749969087,
				"y": 2.4066458916,
				"z": 0.0477283651,
				"element": "C" 
			},
			{
				"x": 1.4096121624,
				"y": 1.3650495292,
				"z": 0.4402806328,
				"element": "C" 
			},
			{
				"x": 0.4769377491,
				"y": -2.545477608,
				"z": 3.5340037452,
				"element": "H" 
			},
			{
				"x": -0.0846625049,
				"y": -1.0842085371,
				"z": 2.7924629872,
				"element": "H" 
			},
			{
				"x": 2.6674261342,
				"y": -0.974326256,
				"z": 0.602732002,
				"element": "H" 
			},
			{
				"x": -0.9307006655,
				"y": -1.1129244274,
				"z": 0.6455115821,
				"element": "H" 
			},
			{
				"x": -3.2161681247,
				"y": 3.1465048908,
				"z": 0.8315844326,
				"element": "H" 
			},
			{
				"x": -3.5086914442,
				"y": 3.8302605425,
				"z": -0.7902359246,
				"element": "H" 
			},
			{
				"x": -3.1606925155,
				"y": 1.5679921979,
				"z": -1.7989866057,
				"element": "H" 
			},
			{
				"x": -4.4425213403,
				"y": 1.4719149634,
				"z": -0.5613494402,
				"element": "H" 
			},
			{
				"x": 0.9697465865,
				"y": 3.3992257863,
				"z": -0.1428114338,
				"element": "H" 
			},
			{
				"x": 2.4737585925,
				"y": 1.5382376053,
				"z": 0.5665858293,
				"element": "H" 
			}
		],
		 "valence_orbital": [ 
			{
				"type": "occ",
				"energy": -0.2852,
				"method": "rhf"
			},
			{
				"type": "occ",
				"energy": -0.24877,
				"method": "rhf"
			},
			{
				"type": "occ",
				"energy": -0.22659,
				"method": "rhf"
			},
			{
				"type": "occ",
				"energy": -0.20145,
				"method": "rhf"
			},
			{
				"type": "occ",
				"energy": -0.20031,
				"method": "rhf"
			},
			{
				"type": "unocc",
				"energy": -0.02252,
				"method": "rhf"
			},
			{
				"type": "unocc",
				"energy": -0.01371,
				"method": "rhf"
			},
			{
				"type": "unocc",
				"energy": 0.02433,
				"method": "rhf"
			},
			{
				"type": "unocc",
				"energy": 0.06981,
				"method": "rhf"
			},
			{
				"type": "unocc",
				"energy": 0.07687,
				"method": "rhf"
			}
		],
		"cosmo_sigma_profile": { 
			"-0.025": 0.0,
			"-0.024": 0.0,
			"-0.023": 0.0,
			"-0.022": 0.0,
			"-0.021": 0.0,
			"-0.02": 0.0,
			"-0.019": 0.0,
			"-0.018": 0.0,
			"-0.017": 0.0,
			"-0.016": 0.0,
			"-0.015": 0.171038741175,
			"-0.014": 2.45759328408,
			"-0.013": 2.71185807711,
			"-0.012": 3.09349864928,
			"-0.011": 3.17873868541,
			"-0.01": 3.44040258867,
			"-0.009": 3.03528544266,
			"-0.008": 2.86223776021,
			"-0.007": 11.9667492679,
			"-0.006": 18.6947074324,
			"-0.005": 17.0187182959,
			"-0.004": 14.9500328947,
			"-0.003": 11.2920567328,
			"-0.002": 10.678882431,
			"-0.001": 9.00696157452,
			"0.0": 10.7299271777,
			"0.001": 11.9380946982,
			"0.002": 14.010898988,
			"0.003": 14.729004753,
			"0.004": 12.3185776243,
			"0.005": 8.76189818841,
			"0.006": 6.22650989148,
			"0.007": 4.58382214016,
			"0.008": 7.11587702091,
			"0.009": 6.20065067305,
			"0.01": 7.87115519016,
			"0.011": 6.82045585518,
			"0.012": 7.8641350196,
			"0.013": 1.62855968009,
			"0.014": 0.0,
			"0.015": 0.0,
			"0.016": 0.0,
			"0.017": 0.0,
			"0.018": 0.0,
			"0.019": 0.0,
			"0.02": 0.0,
			"0.021": 0.0,
			"0.022": 0.0,
			"0.023": 0.0,
			"0.024": 0.0,
			"0.025": 0.0
		}
	}
}
