{
	 "smiles": "COC1=CC=C(CCCO)C=C1", 
	 "Tm": 299.15, 
	 "num_atms": 26, 
	 "gaussian": { 
		 "optdone": 1, 
		 "sigma_profile": "yes", 
		 "theory": "DFT", 
		 "functional": "B3LYP", 
		 "basiset": "6-31G**", 
		 "properties": { 
			 "R2extent": 3314.9524, 
			 "electric_dipole_moment_norm": 2.61080932471, 
			 "electric_quadrupole_moment_norm": 3.14171111976, 
			 "total_energy": -539.932692365, 
			 "HOMO_LUMO_gap": 0.21185, 
			 "cosmo_polarized_energy": -10.04, 
			 "cosmo_cavitation_energy": 28.89, 
			 "cosmo_dispersion_energy": -20.82, 
			 "cosmo_repulsion_energy": 1.7, 
			 "cosmo_total_nonelectrostatic_energy": 9.77, 
			 "SMD_solvation_energy": 5.44 
		},
		"coords": [
			{
				"x": -0.9384575998,
				"y": 3.2856740962,
				"z": -1.9294541295,
				"element": "C" 
			},
			{
				"x": 0.0875318911,
				"y": 2.3553364711,
				"z": -2.2303776927,
				"element": "O" 
			},
			{
				"x": -0.0611379603,
				"y": 1.0688354413,
				"z": -1.7927897649,
				"element": "C" 
			},
			{
				"x": 0.9802154571,
				"y": 0.1881089766,
				"z": -2.1236558198,
				"element": "C" 
			},
			{
				"x": 0.9218055315,
				"y": -1.1408140069,
				"z": -1.726570002,
				"element": "C" 
			},
			{
				"x": -0.1659818818,
				"y": -1.6407878411,
				"z": -0.9890233264,
				"element": "C" 
			},
			{
				"x": -0.2081242212,
				"y": -3.0926702025,
				"z": -0.5543003757,
				"element": "C" 
			},
			{
				"x": 0.7872151683,
				"y": -3.4541987547,
				"z": 0.5669758341,
				"element": "C" 
			},
			{
				"x": 0.5038969963,
				"y": -2.7490329033,
				"z": 1.8872621295,
				"element": "C" 
			},
			{
				"x": 1.4630598949,
				"y": -3.2049517739,
				"z": 2.8354459228,
				"element": "O" 
			},
			{
				"x": -1.1932231433,
				"y": -0.749004953,
				"z": -0.6727520541,
				"element": "C" 
			},
			{
				"x": -1.1551917092,
				"y": 0.5945512498,
				"z": -1.0632505349,
				"element": "C" 
			},
			{
				"x": -1.0680573235,
				"y": 3.4121648372,
				"z": -0.8464200354,
				"element": "H" 
			},
			{
				"x": -1.8990931455,
				"y": 2.9884989611,
				"z": -2.3705221632,
				"element": "H" 
			},
			{
				"x": -0.6234816966,
				"y": 4.2353626772,
				"z": -2.3650776547,
				"element": "H" 
			},
			{
				"x": 1.8190946982,
				"y": 0.5705394286,
				"z": -2.6963165552,
				"element": "H" 
			},
			{
				"x": 1.7360394997,
				"y": -1.8087089701,
				"z": -1.9983546566,
				"element": "H" 
			},
			{
				"x": -1.2256081973,
				"y": -3.3438644353,
				"z": -0.2287987862,
				"element": "H" 
			},
			{
				"x": 0.0023843795,
				"y": -3.7363823069,
				"z": -1.4175664129,
				"element": "H" 
			},
			{
				"x": 0.7614002708,
				"y": -4.5363116115,
				"z": 0.742700878,
				"element": "H" 
			},
			{
				"x": 1.8100467894,
				"y": -3.2100319486,
				"z": 0.2560269141,
				"element": "H" 
			},
			{
				"x": -0.5239696158,
				"y": -2.9813309887,
				"z": 2.2164273068,
				"element": "H" 
			},
			{
				"x": 0.5627257169,
				"y": -1.6588894135,
				"z": 1.7491195844,
				"element": "H" 
			},
			{
				"x": 1.3283500688,
				"y": -2.7153638828,
				"z": 3.6559117704,
				"element": "H" 
			},
			{
				"x": -2.0535978041,
				"y": -1.104709525,
				"z": -0.1104022052,
				"element": "H" 
			},
			{
				"x": -1.977042064,
				"y": 1.2489813788,
				"z": -0.7972381706,
				"element": "H" 
			}
		],
		 "valence_orbital": [ 
			{
				"type": "occ",
				"energy": -0.31658,
				"method": "rhf"
			},
			{
				"type": "occ",
				"energy": -0.30456,
				"method": "rhf"
			},
			{
				"type": "occ",
				"energy": -0.25915,
				"method": "rhf"
			},
			{
				"type": "occ",
				"energy": -0.24679,
				"method": "rhf"
			},
			{
				"type": "occ",
				"energy": -0.21069,
				"method": "rhf"
			},
			{
				"type": "unocc",
				"energy": 0.00116,
				"method": "rhf"
			},
			{
				"type": "unocc",
				"energy": 0.01553,
				"method": "rhf"
			},
			{
				"type": "unocc",
				"energy": 0.08291,
				"method": "rhf"
			},
			{
				"type": "unocc",
				"energy": 0.0908,
				"method": "rhf"
			},
			{
				"type": "unocc",
				"energy": 0.10377,
				"method": "rhf"
			}
		],
		"cosmo_sigma_profile": { 
			"-0.025": 0.0,
			"-0.024": 0.0,
			"-0.023": 0.0,
			"-0.022": 0.0,
			"-0.021": 0.0,
			"-0.02": 0.0,
			"-0.019": 0.0,
			"-0.018": 0.0,
			"-0.017": 0.0,
			"-0.016": 0.104837201254,
			"-0.015": 0.903742567642,
			"-0.014": 1.16800221302,
			"-0.013": 0.973689149142,
			"-0.012": 0.800523772238,
			"-0.011": 0.767757158673,
			"-0.01": 1.03421430964,
			"-0.009": 0.882699334123,
			"-0.008": 0.253924485667,
			"-0.007": 0.987199177372,
			"-0.006": 5.08298927175,
			"-0.005": 16.5582988028,
			"-0.004": 18.9942970626,
			"-0.003": 29.9946392763,
			"-0.002": 23.8294165042,
			"-0.001": 20.5227463514,
			"0.0": 16.8949633675,
			"0.001": 13.172541641,
			"0.002": 9.58522175959,
			"0.003": 10.3334542696,
			"0.004": 11.5075186054,
			"0.005": 11.1597675195,
			"0.006": 11.04221236,
			"0.007": 2.63571093141,
			"0.008": 3.030558969,
			"0.009": 2.94743295209,
			"0.01": 2.64419461488,
			"0.011": 2.25884593653,
			"0.012": 1.26670380213,
			"0.013": 1.3420128998,
			"0.014": 2.41375148457,
			"0.015": 1.14553052418,
			"0.016": 0.0,
			"0.017": 0.0,
			"0.018": 0.0,
			"0.019": 0.0,
			"0.02": 0.0,
			"0.021": 0.0,
			"0.022": 0.0,
			"0.023": 0.0,
			"0.024": 0.0,
			"0.025": 0.0
		}
	}
}
