{
	 "smiles": "NC(=O)C1=CC=CC2=CC=CC=C12", 
	 "Tm": 480.15, 
	 "num_atms": 22, 
	 "gaussian": { 
		 "optdone": 1, 
		 "sigma_profile": "yes", 
		 "theory": "DFT", 
		 "functional": "B3LYP", 
		 "basiset": "6-31G**", 
		 "properties": { 
			 "R2extent": 2418.2745, 
			 "electric_dipole_moment_norm": 3.33893704792, 
			 "electric_quadrupole_moment_norm": 17.7970871125, 
			 "total_energy": -554.59754771, 
			 "HOMO_LUMO_gap": 0.16748, 
			 "cosmo_polarized_energy": -13.07, 
			 "cosmo_cavitation_energy": 25.67, 
			 "cosmo_dispersion_energy": -19.25, 
			 "cosmo_repulsion_energy": 1.5, 
			 "cosmo_total_nonelectrostatic_energy": 7.92, 
			 "SMD_solvation_energy": 4.87 
		},
		"coords": [
			{
				"x": 0.0786213847,
				"y": -3.3723855812,
				"z": 1.4817851232,
				"element": "N" 
			},
			{
				"x": 0.7327902383,
				"y": -2.161851462,
				"z": 1.5002290647,
				"element": "C" 
			},
			{
				"x": 1.3485555274,
				"y": -1.7890245342,
				"z": 2.4926337892,
				"element": "O" 
			},
			{
				"x": 0.6622749189,
				"y": -1.3837252893,
				"z": 0.2129853605,
				"element": "C" 
			},
			{
				"x": 0.6721160547,
				"y": -2.0720210238,
				"z": -0.9895166959,
				"element": "C" 
			},
			{
				"x": 0.6286066729,
				"y": -1.3958825642,
				"z": -2.2285680376,
				"element": "C" 
			},
			{
				"x": 0.56264048,
				"y": -0.0231918226,
				"z": -2.256447677,
				"element": "C" 
			},
			{
				"x": 0.5501811783,
				"y": 0.7301322184,
				"z": -1.0523592102,
				"element": "C" 
			},
			{
				"x": 0.4768664531,
				"y": 2.149160779,
				"z": -1.0811055681,
				"element": "C" 
			},
			{
				"x": 0.4668234184,
				"y": 2.8793379279,
				"z": 0.0841190637,
				"element": "C" 
			},
			{
				"x": 0.5320010717,
				"y": 2.2146586913,
				"z": 1.3312738723,
				"element": "C" 
			},
			{
				"x": 0.6053542955,
				"y": 0.8406555238,
				"z": 1.3984623482,
				"element": "C" 
			},
			{
				"x": 0.6153159115,
				"y": 0.0525344882,
				"z": 0.2128496937,
				"element": "C" 
			},
			{
				"x": -0.6590998604,
				"y": -3.5464840961,
				"z": 0.8177396609,
				"element": "H" 
			},
			{
				"x": 0.042051679,
				"y": -3.8633739738,
				"z": 2.363523575,
				"element": "H" 
			},
			{
				"x": 0.7481290788,
				"y": -3.1550306359,
				"z": -0.981497879,
				"element": "H" 
			},
			{
				"x": 0.6516494704,
				"y": -1.9661534915,
				"z": -3.1523500813,
				"element": "H" 
			},
			{
				"x": 0.5245805258,
				"y": 0.5085395557,
				"z": -3.2038408773,
				"element": "H" 
			},
			{
				"x": 0.4278486418,
				"y": 2.6467057977,
				"z": -2.0463412537,
				"element": "H" 
			},
			{
				"x": 0.4105653778,
				"y": 3.9635712554,
				"z": 0.0505034452,
				"element": "H" 
			},
			{
				"x": 0.5284463685,
				"y": 2.7960611033,
				"z": 2.2488890288,
				"element": "H" 
			},
			{
				"x": 0.679281113,
				"y": 0.3407671338,
				"z": 2.3550332546,
				"element": "H" 
			}
		],
		 "valence_orbital": [ 
			{
				"type": "occ",
				"energy": -0.2853,
				"method": "rhf"
			},
			{
				"type": "occ",
				"energy": -0.27062,
				"method": "rhf"
			},
			{
				"type": "occ",
				"energy": -0.24846,
				"method": "rhf"
			},
			{
				"type": "occ",
				"energy": -0.24487,
				"method": "rhf"
			},
			{
				"type": "occ",
				"energy": -0.21857,
				"method": "rhf"
			},
			{
				"type": "unocc",
				"energy": -0.05109,
				"method": "rhf"
			},
			{
				"type": "unocc",
				"energy": -0.01263,
				"method": "rhf"
			},
			{
				"type": "unocc",
				"energy": 0.00704,
				"method": "rhf"
			},
			{
				"type": "unocc",
				"energy": 0.05852,
				"method": "rhf"
			},
			{
				"type": "unocc",
				"energy": 0.08417,
				"method": "rhf"
			}
		],
		"cosmo_sigma_profile": { 
			"-0.025": 0.0,
			"-0.024": 0.0,
			"-0.023": 0.0,
			"-0.022": 0.0,
			"-0.021": 0.0,
			"-0.02": 0.0,
			"-0.019": 0.0,
			"-0.018": 0.0,
			"-0.017": 0.0,
			"-0.016": 0.0,
			"-0.015": 0.0,
			"-0.014": 1.00355320132,
			"-0.013": 2.16075467794,
			"-0.012": 2.57177611576,
			"-0.011": 2.01911701896,
			"-0.01": 2.31059841336,
			"-0.009": 2.60225526275,
			"-0.008": 2.19641625134,
			"-0.007": 3.80295231076,
			"-0.006": 12.6667576636,
			"-0.005": 14.4390576897,
			"-0.004": 13.6646729111,
			"-0.003": 12.1046050212,
			"-0.002": 10.8668954738,
			"-0.001": 12.1619866689,
			"0.0": 12.2371272531,
			"0.001": 12.1752181706,
			"0.002": 12.2074266283,
			"0.003": 21.5523223666,
			"0.004": 20.5269690924,
			"0.005": 11.4429041028,
			"0.006": 2.80049447844,
			"0.007": 2.17421102292,
			"0.008": 1.9428859058,
			"0.009": 1.80394256937,
			"0.01": 0.990618285799,
			"0.011": 1.84150144913,
			"0.012": 2.1843478253,
			"0.013": 3.69638760636,
			"0.014": 3.24833977638,
			"0.015": 0.18402512707,
			"0.016": 0.0,
			"0.017": 0.0,
			"0.018": 0.0,
			"0.019": 0.0,
			"0.02": 0.0,
			"0.021": 0.0,
			"0.022": 0.0,
			"0.023": 0.0,
			"0.024": 0.0,
			"0.025": 0.0
		}
	}
}
