{
	 "smiles": "ClC1=CC=C(Br)C=C1", 
	 "Tm": 339.65, 
	 "num_atms": 12, 
	 "gaussian": { 
		 "optdone": 1, 
		 "sigma_profile": "yes", 
		 "theory": "DFT", 
		 "functional": "B3LYP", 
		 "basiset": "6-31G**", 
		 "properties": { 
			 "R2extent": 4360.5228, 
			 "electric_dipole_moment_norm": 0.116595454457, 
			 "electric_quadrupole_moment_norm": 8.4752821717, 
			 "total_energy": -3262.64508419, 
			 "HOMO_LUMO_gap": 0.21695, 
			 "cosmo_polarized_energy": -3.78, 
			 "cosmo_cavitation_energy": 20.35, 
			 "cosmo_dispersion_energy": -15.82, 
			 "cosmo_repulsion_energy": 1.31, 
			 "cosmo_total_nonelectrostatic_energy": 5.85, 
			 "SMD_solvation_energy": 2.11 
		},
		"coords": [
			{
				"x": 0.5365797501,
				"y": -2.2418007914,
				"z": -0.813590686,
				"element": "Cl" 
			},
			{
				"x": 0.5314935307,
				"y": -0.5791584331,
				"z": -1.378064623,
				"element": "C" 
			},
			{
				"x": -0.6431696305,
				"y": 0.1686612526,
				"z": -1.2998413207,
				"element": "C" 
			},
			{
				"x": -0.6466580102,
				"y": 1.4896196645,
				"z": -1.7484293209,
				"element": "C" 
			},
			{
				"x": 0.5235057387,
				"y": 2.0414531292,
				"z": -2.2677020496,
				"element": "C" 
			},
			{
				"x": 0.5179907121,
				"y": 3.8497431337,
				"z": -2.8814206079,
				"element": "Br" 
			},
			{
				"x": 1.6976358781,
				"y": 1.2939465949,
				"z": -2.3458897259,
				"element": "C" 
			},
			{
				"x": 1.7021920099,
				"y": -0.0271027132,
				"z": -1.8975748853,
				"element": "C" 
			},
			{
				"x": -1.5455371754,
				"y": -0.2743990591,
				"z": -0.893434344,
				"element": "H" 
			},
			{
				"x": -1.5528210653,
				"y": 2.0817457383,
				"z": -1.6932441601,
				"element": "H" 
			},
			{
				"x": 2.6006645053,
				"y": 1.7350601838,
				"z": -2.7517832027,
				"element": "H" 
			},
			{
				"x": 2.6077237565,
				"y": -0.6210687002,
				"z": -1.9519250739,
				"element": "H" 
			}
		],
		 "valence_orbital": [ 
			{
				"type": "occ",
				"energy": -0.32102,
				"method": "rhf"
			},
			{
				"type": "occ",
				"energy": -0.30596,
				"method": "rhf"
			},
			{
				"type": "occ",
				"energy": -0.29451,
				"method": "rhf"
			},
			{
				"type": "occ",
				"energy": -0.2779,
				"method": "rhf"
			},
			{
				"type": "occ",
				"energy": -0.2449,
				"method": "rhf"
			},
			{
				"type": "unocc",
				"energy": -0.02795,
				"method": "rhf"
			},
			{
				"type": "unocc",
				"energy": -0.02679,
				"method": "rhf"
			},
			{
				"type": "unocc",
				"energy": -0.00295,
				"method": "rhf"
			},
			{
				"type": "unocc",
				"energy": 0.02671,
				"method": "rhf"
			},
			{
				"type": "unocc",
				"energy": 0.12597,
				"method": "rhf"
			}
		],
		"cosmo_sigma_profile": { 
			"-0.025": 0.0,
			"-0.024": 0.0,
			"-0.023": 0.0,
			"-0.022": 0.0,
			"-0.021": 0.0,
			"-0.02": 0.0,
			"-0.019": 0.0,
			"-0.018": 0.0,
			"-0.017": 0.0,
			"-0.016": 0.0,
			"-0.015": 0.0,
			"-0.014": 0.0,
			"-0.013": 0.0,
			"-0.012": 0.0,
			"-0.011": 0.0,
			"-0.01": 0.0,
			"-0.009": 0.00389591852346,
			"-0.008": 4.11603232474,
			"-0.007": 8.09157267718,
			"-0.006": 8.32017445279,
			"-0.005": 6.11260520948,
			"-0.004": 6.97428530668,
			"-0.003": 8.30590804326,
			"-0.002": 9.21786979901,
			"-0.001": 10.2924671498,
			"0.0": 13.9697592101,
			"0.001": 20.7063177178,
			"0.002": 27.8077935957,
			"0.003": 17.3303480247,
			"0.004": 20.8450472636,
			"0.005": 7.48568012865,
			"0.006": 0.0,
			"0.007": 0.0,
			"0.008": 0.0,
			"0.009": 0.0,
			"0.01": 0.0,
			"0.011": 0.0,
			"0.012": 0.0,
			"0.013": 0.0,
			"0.014": 0.0,
			"0.015": 0.0,
			"0.016": 0.0,
			"0.017": 0.0,
			"0.018": 0.0,
			"0.019": 0.0,
			"0.02": 0.0,
			"0.021": 0.0,
			"0.022": 0.0,
			"0.023": 0.0,
			"0.024": 0.0,
			"0.025": 0.0
		}
	}
}
