{
	 "smiles": "CC(O)CNCC(C)O", 
	 "Tm": 316.35, 
	 "num_atms": 24, 
	 "gaussian": { 
		 "optdone": 1, 
		 "sigma_profile": "yes", 
		 "theory": "DFT", 
		 "functional": "B3LYP", 
		 "basiset": "6-31G**", 
		 "properties": { 
			 "R2extent": 2115.9249, 
			 "electric_dipole_moment_norm": 2.53904488735, 
			 "electric_quadrupole_moment_norm": 14.6128764003, 
			 "total_energy": -442.864412954, 
			 "HOMO_LUMO_gap": 0.29737, 
			 "cosmo_polarized_energy": -11.49, 
			 "cosmo_cavitation_energy": 25.38, 
			 "cosmo_dispersion_energy": -18.2, 
			 "cosmo_repulsion_energy": 1.53, 
			 "cosmo_total_nonelectrostatic_energy": 8.71, 
			 "SMD_solvation_energy": 3.76 
		},
		"coords": [
			{
				"x": -2.3593442243,
				"y": 0.7606862413,
				"z": 0.0360443923,
				"element": "C" 
			},
			{
				"x": -1.4744849385,
				"y": 0.7999115526,
				"z": 1.2831308949,
				"element": "C" 
			},
			{
				"x": -1.7768939371,
				"y": 1.9333589839,
				"z": 2.0957346379,
				"element": "O" 
			},
			{
				"x": 0.0174121386,
				"y": 0.9270581289,
				"z": 0.9640649091,
				"element": "C" 
			},
			{
				"x": 0.5126029797,
				"y": -0.2211981902,
				"z": 0.2014856822,
				"element": "N" 
			},
			{
				"x": 1.9784372953,
				"y": -0.3705932606,
				"z": 0.1487959603,
				"element": "C" 
			},
			{
				"x": 2.4391700362,
				"y": -1.5112861399,
				"z": 1.0816043123,
				"element": "C" 
			},
			{
				"x": 2.3823571458,
				"y": -1.1628055883,
				"z": 2.5727973035,
				"element": "C" 
			},
			{
				"x": 1.6619156367,
				"y": -2.6660522513,
				"z": 0.8006263145,
				"element": "O" 
			},
			{
				"x": -2.1471664232,
				"y": -0.1212761131,
				"z": -0.5775686846,
				"element": "H" 
			},
			{
				"x": -2.211225303,
				"y": 1.6622295186,
				"z": -0.5685775735,
				"element": "H" 
			},
			{
				"x": -3.4186804085,
				"y": 0.7097659991,
				"z": 0.3141748173,
				"element": "H" 
			},
			{
				"x": -1.6164400857,
				"y": -0.1341952752,
				"z": 1.8507845102,
				"element": "H" 
			},
			{
				"x": -2.7110049289,
				"y": 1.8875516263,
				"z": 2.3352924692,
				"element": "H" 
			},
			{
				"x": 0.1857951909,
				"y": 1.8900407928,
				"z": 0.4511768715,
				"element": "H" 
			},
			{
				"x": 0.5549798361,
				"y": 0.9786504775,
				"z": 1.9141199152,
				"element": "H" 
			},
			{
				"x": 0.1493030032,
				"y": -0.1724550017,
				"z": -0.7437576742,
				"element": "H" 
			},
			{
				"x": 2.5007308658,
				"y": 0.5685977143,
				"z": 0.3847629606,
				"element": "H" 
			},
			{
				"x": 2.2574875607,
				"y": -0.6506566944,
				"z": -0.8724781512,
				"element": "H" 
			},
			{
				"x": 3.4758594629,
				"y": -1.7610539608,
				"z": 0.8196429952,
				"element": "H" 
			},
			{
				"x": 2.7277382578,
				"y": -2.0161316027,
				"z": 3.1632619151,
				"element": "H" 
			},
			{
				"x": 3.0129042279,
				"y": -0.2981364223,
				"z": 2.8113761148,
				"element": "H" 
			},
			{
				"x": 1.3563386093,
				"y": -0.9392170746,
				"z": 2.8834825406,
				"element": "H" 
			},
			{
				"x": 0.7572080022,
				"y": -2.3148934601,
				"z": 0.7188225669,
				"element": "H" 
			}
		],
		 "valence_orbital": [ 
			{
				"type": "occ",
				"energy": -0.32657,
				"method": "rhf"
			},
			{
				"type": "occ",
				"energy": -0.30232,
				"method": "rhf"
			},
			{
				"type": "occ",
				"energy": -0.27014,
				"method": "rhf"
			},
			{
				"type": "occ",
				"energy": -0.25334,
				"method": "rhf"
			},
			{
				"type": "occ",
				"energy": -0.23344,
				"method": "rhf"
			},
			{
				"type": "unocc",
				"energy": 0.06393,
				"method": "rhf"
			},
			{
				"type": "unocc",
				"energy": 0.07694,
				"method": "rhf"
			},
			{
				"type": "unocc",
				"energy": 0.10427,
				"method": "rhf"
			},
			{
				"type": "unocc",
				"energy": 0.11511,
				"method": "rhf"
			},
			{
				"type": "unocc",
				"energy": 0.12609,
				"method": "rhf"
			}
		],
		"cosmo_sigma_profile": { 
			"-0.025": 0.0,
			"-0.024": 0.0,
			"-0.023": 0.0,
			"-0.022": 0.0,
			"-0.021": 0.0,
			"-0.02": 0.0,
			"-0.019": 0.0,
			"-0.018": 0.0,
			"-0.017": 0.0,
			"-0.016": 0.0506243968282,
			"-0.015": 0.649910319223,
			"-0.014": 1.05256478464,
			"-0.013": 1.14242455098,
			"-0.012": 0.729973191418,
			"-0.011": 1.16413165877,
			"-0.01": 1.7788082897,
			"-0.009": 1.82122168571,
			"-0.008": 2.58552042489,
			"-0.007": 3.39536560157,
			"-0.006": 3.83480714569,
			"-0.005": 5.17049999535,
			"-0.004": 7.80276557542,
			"-0.003": 25.9240411759,
			"-0.002": 30.4747123669,
			"-0.001": 24.1591079454,
			"0.0": 20.6476167264,
			"0.001": 14.8697583366,
			"0.002": 7.87440983545,
			"0.003": 4.34818859474,
			"0.004": 3.43009328076,
			"0.005": 3.57601147705,
			"0.006": 2.78612263747,
			"0.007": 2.12856193925,
			"0.008": 2.91973930141,
			"0.009": 2.60105194921,
			"0.01": 1.99264683228,
			"0.011": 2.38397431295,
			"0.012": 3.23237254871,
			"0.013": 2.63308474235,
			"0.014": 4.05124164121,
			"0.015": 2.82392203775,
			"0.016": 0.728117261024,
			"0.017": 0.0,
			"0.018": 0.0,
			"0.019": 0.0,
			"0.02": 0.0,
			"0.021": 0.0,
			"0.022": 0.0,
			"0.023": 0.0,
			"0.024": 0.0,
			"0.025": 0.0
		}
	}
}
