{
	 "smiles": "C[C@H](N(C)C(=O)OC(C)(C)C)C(O)=O", 
	 "Tm": 363.15, 
	 "num_atms": 31, 
	 "gaussian": { 
		 "optdone": 1, 
		 "sigma_profile": "yes", 
		 "theory": "DFT", 
		 "functional": "B3LYP", 
		 "basiset": "6-31G**", 
		 "properties": { 
			 "R2extent": 3464.8702, 
			 "electric_dipole_moment_norm": 3.65263897066, 
			 "electric_quadrupole_moment_norm": 18.6530040699, 
			 "total_energy": -708.897990664, 
			 "HOMO_LUMO_gap": 0.26027, 
			 "cosmo_polarized_energy": -14.3, 
			 "cosmo_cavitation_energy": 32.9, 
			 "cosmo_dispersion_energy": -22.1, 
			 "cosmo_repulsion_energy": 1.76, 
			 "cosmo_total_nonelectrostatic_energy": 12.57, 
			 "SMD_solvation_energy": 8.55 
		},
		"coords": [
			{
				"x": 2.6356316314,
				"y": -0.8343984959,
				"z": 0.1760387231,
				"element": "C" 
			},
			{
				"x": 1.6602050424,
				"y": 0.0563943575,
				"z": 0.9500327666,
				"element": "C" 
			},
			{
				"x": 1.0235099432,
				"y": 1.1113695844,
				"z": 0.14144717,
				"element": "N" 
			},
			{
				"x": 1.907579595,
				"y": 2.0227187262,
				"z": -0.5957995688,
				"element": "C" 
			},
			{
				"x": -0.2636492343,
				"y": 0.9738071832,
				"z": -0.3728494801,
				"element": "C" 
			},
			{
				"x": -0.7007205562,
				"y": 1.6933588105,
				"z": -1.2546248592,
				"element": "O" 
			},
			{
				"x": -0.9424605849,
				"y": -0.0075950322,
				"z": 0.256578783,
				"element": "O" 
			},
			{
				"x": -2.3497634657,
				"y": -0.3033737651,
				"z": -0.088150167,
				"element": "C" 
			},
			{
				"x": -3.2254759143,
				"y": 0.9174813579,
				"z": 0.2084757953,
				"element": "C" 
			},
			{
				"x": -2.6835686234,
				"y": -1.4578226037,
				"z": 0.8593925911,
				"element": "C" 
			},
			{
				"x": -2.4449444804,
				"y": -0.7510726266,
				"z": -1.5496412481,
				"element": "C" 
			},
			{
				"x": 2.3243062618,
				"y": 0.6642829295,
				"z": 2.2032127315,
				"element": "C" 
			},
			{
				"x": 1.7626388208,
				"y": 1.8106892311,
				"z": 2.6413417776,
				"element": "O" 
			},
			{
				"x": 3.2397793237,
				"y": 0.1389157915,
				"z": 2.7874267797,
				"element": "O" 
			},
			{
				"x": 2.117951449,
				"y": -1.3375783292,
				"z": -0.6453914383,
				"element": "H" 
			},
			{
				"x": 3.0496464567,
				"y": -1.5846665837,
				"z": 0.8515732263,
				"element": "H" 
			},
			{
				"x": 3.4728560064,
				"y": -0.2623787189,
				"z": -0.2324787671,
				"element": "H" 
			},
			{
				"x": 0.8472539973,
				"y": -0.5652862237,
				"z": 1.3321850997,
				"element": "H" 
			},
			{
				"x": 2.3349923416,
				"y": 1.5524117273,
				"z": -1.488579444,
				"element": "H" 
			},
			{
				"x": 1.3328887855,
				"y": 2.8925305053,
				"z": -0.9094893666,
				"element": "H" 
			},
			{
				"x": 2.7203457621,
				"y": 2.3413395628,
				"z": 0.0614029308,
				"element": "H" 
			},
			{
				"x": -2.9765146835,
				"y": 1.7491734043,
				"z": -0.4508033991,
				"element": "H" 
			},
			{
				"x": -3.0975949815,
				"y": 1.23463319,
				"z": 1.2483398298,
				"element": "H" 
			},
			{
				"x": -4.2780449622,
				"y": 0.6545396773,
				"z": 0.0627281448,
				"element": "H" 
			},
			{
				"x": -3.7178403815,
				"y": -1.7792094616,
				"z": 0.7062885189,
				"element": "H" 
			},
			{
				"x": -2.5687363529,
				"y": -1.149439737,
				"z": 1.9025853546,
				"element": "H" 
			},
			{
				"x": -2.0260769346,
				"y": -2.3127275858,
				"z": 0.6762915926,
				"element": "H" 
			},
			{
				"x": -3.4665851432,
				"y": -1.0810533189,
				"z": -1.7632846732,
				"element": "H" 
			},
			{
				"x": -2.1893481062,
				"y": 0.0629280761,
				"z": -2.2280850402,
				"element": "H" 
			},
			{
				"x": -1.7718366779,
				"y": -1.5943352475,
				"z": -1.73417054,
				"element": "H" 
			},
			{
				"x": 1.0712756657,
				"y": 2.0542636151,
				"z": 1.9988061764,
				"element": "H" 
			}
		],
		 "valence_orbital": [ 
			{
				"type": "occ",
				"energy": -0.31415,
				"method": "rhf"
			},
			{
				"type": "occ",
				"energy": -0.30427,
				"method": "rhf"
			},
			{
				"type": "occ",
				"energy": -0.28688,
				"method": "rhf"
			},
			{
				"type": "occ",
				"energy": -0.27964,
				"method": "rhf"
			},
			{
				"type": "occ",
				"energy": -0.25282,
				"method": "rhf"
			},
			{
				"type": "unocc",
				"energy": 0.00745,
				"method": "rhf"
			},
			{
				"type": "unocc",
				"energy": 0.02964,
				"method": "rhf"
			},
			{
				"type": "unocc",
				"energy": 0.06671,
				"method": "rhf"
			},
			{
				"type": "unocc",
				"energy": 0.08466,
				"method": "rhf"
			},
			{
				"type": "unocc",
				"energy": 0.08822,
				"method": "rhf"
			}
		],
		"cosmo_sigma_profile": { 
			"-0.025": 0.0,
			"-0.024": 0.0,
			"-0.023": 0.0,
			"-0.022": 0.0,
			"-0.021": 0.0,
			"-0.02": 0.0,
			"-0.019": 0.0,
			"-0.018": 0.0,
			"-0.017": 0.0,
			"-0.016": 0.0,
			"-0.015": 0.253957178845,
			"-0.014": 0.826882668755,
			"-0.013": 0.486228073805,
			"-0.012": 0.758443143417,
			"-0.011": 1.55495975744,
			"-0.01": 1.2565138765,
			"-0.009": 1.00484862039,
			"-0.008": 2.30984147791,
			"-0.007": 4.47004049993,
			"-0.006": 4.56315414183,
			"-0.005": 10.3556327899,
			"-0.004": 30.0169215152,
			"-0.003": 31.1025029758,
			"-0.002": 27.4537812947,
			"-0.001": 27.091765517,
			"0.0": 30.7934613782,
			"0.001": 17.6706772618,
			"0.002": 8.35998189064,
			"0.003": 5.70725564366,
			"0.004": 4.0335291881,
			"0.005": 4.93366874002,
			"0.006": 4.57074813763,
			"0.007": 3.78436621694,
			"0.008": 4.19364208125,
			"0.009": 5.11415253779,
			"0.01": 6.84804036129,
			"0.011": 6.60604129902,
			"0.012": 6.79172623099,
			"0.013": 3.46269425936,
			"0.014": 0.0225229379061,
			"0.015": 0.0,
			"0.016": 0.0,
			"0.017": 0.0,
			"0.018": 0.0,
			"0.019": 0.0,
			"0.02": 0.0,
			"0.021": 0.0,
			"0.022": 0.0,
			"0.023": 0.0,
			"0.024": 0.0,
			"0.025": 0.0
		}
	}
}
