{
	 "smiles": "OC(=O)C(F)(F)C1=CC=C(C=C1)[N+]([O-])=O", 
	 "Tm": 403.15, 
	 "num_atms": 20, 
	 "gaussian": { 
		 "optdone": 1, 
		 "sigma_profile": "yes", 
		 "theory": "DFT", 
		 "functional": "B3LYP", 
		 "basiset": "6-31G**", 
		 "properties": { 
			 "R2extent": 3880.6179, 
			 "electric_dipole_moment_norm": 3.94864577419, 
			 "electric_quadrupole_moment_norm": 18.6280149855, 
			 "total_energy": -863.088285752, 
			 "HOMO_LUMO_gap": 0.18837, 
			 "cosmo_polarized_energy": -14.61, 
			 "cosmo_cavitation_energy": 26.99, 
			 "cosmo_dispersion_energy": -19.29, 
			 "cosmo_repulsion_energy": 1.47, 
			 "cosmo_total_nonelectrostatic_energy": 9.17, 
			 "SMD_solvation_energy": 8.91 
		},
		"coords": [
			{
				"x": 0.368249378,
				"y": -1.4065192082,
				"z": -3.8435147717,
				"element": "O" 
			},
			{
				"x": -0.2356177572,
				"y": -0.4228216606,
				"z": -3.163870381,
				"element": "C" 
			},
			{
				"x": -1.3402369606,
				"y": -0.019303745,
				"z": -3.4125907399,
				"element": "O" 
			},
			{
				"x": 0.6056869428,
				"y": 0.202664495,
				"z": -2.0143609318,
				"element": "C" 
			},
			{
				"x": 0.9063210635,
				"y": 1.4757506634,
				"z": -2.4012596103,
				"element": "F" 
			},
			{
				"x": 1.8042146014,
				"y": -0.4881473929,
				"z": -1.9257546214,
				"element": "F" 
			},
			{
				"x": -0.0968992351,
				"y": 0.206379568,
				"z": -0.6814711128,
				"element": "C" 
			},
			{
				"x": -1.1320281679,
				"y": 1.1259449852,
				"z": -0.4691993211,
				"element": "C" 
			},
			{
				"x": -1.807647032,
				"y": 1.1403662802,
				"z": 0.7464555693,
				"element": "C" 
			},
			{
				"x": -1.4314424572,
				"y": 0.2287263092,
				"z": 1.7310625244,
				"element": "C" 
			},
			{
				"x": -0.4074860613,
				"y": -0.6944095587,
				"z": 1.5393792764,
				"element": "C" 
			},
			{
				"x": 0.2622950232,
				"y": -0.7030820496,
				"z": 0.3183308118,
				"element": "C" 
			},
			{
				"x": -2.1432321702,
				"y": 0.2417038407,
				"z": 3.0236663244,
				"element": "N" 
			},
			{
				"x": -1.7939347215,
				"y": -0.5771119226,
				"z": 3.8718244056,
				"element": "O" 
			},
			{
				"x": -3.0391503069,
				"y": 1.0704428103,
				"z": 3.1695721858,
				"element": "O" 
			},
			{
				"x": 1.2560715387,
				"y": -1.5486629852,
				"z": -3.4758298686,
				"element": "H" 
			},
			{
				"x": -1.408716026,
				"y": 1.8169937223,
				"z": -1.2561732284,
				"element": "H" 
			},
			{
				"x": -2.6116759921,
				"y": 1.8379793051,
				"z": 0.9432661029,
				"element": "H" 
			},
			{
				"x": -0.1506145912,
				"y": -1.3807292802,
				"z": 2.3361421252,
				"element": "H" 
			},
			{
				"x": 1.0681429317,
				"y": -1.4074641763,
				"z": 0.1489252611,
				"element": "H" 
			}
		],
		 "valence_orbital": [ 
			{
				"type": "occ",
				"energy": -0.31817,
				"method": "rhf"
			},
			{
				"type": "occ",
				"energy": -0.30786,
				"method": "rhf"
			},
			{
				"type": "occ",
				"energy": -0.30243,
				"method": "rhf"
			},
			{
				"type": "occ",
				"energy": -0.29686,
				"method": "rhf"
			},
			{
				"type": "occ",
				"energy": -0.29331,
				"method": "rhf"
			},
			{
				"type": "unocc",
				"energy": -0.10494,
				"method": "rhf"
			},
			{
				"type": "unocc",
				"energy": -0.04505,
				"method": "rhf"
			},
			{
				"type": "unocc",
				"energy": -0.03971,
				"method": "rhf"
			},
			{
				"type": "unocc",
				"energy": -0.00835,
				"method": "rhf"
			},
			{
				"type": "unocc",
				"energy": 0.05718,
				"method": "rhf"
			}
		],
		"cosmo_sigma_profile": { 
			"-0.025": 0.0,
			"-0.024": 0.0,
			"-0.023": 0.0,
			"-0.022": 0.0,
			"-0.021": 0.0,
			"-0.02": 0.0,
			"-0.019": 0.018089633979,
			"-0.018": 0.515872531014,
			"-0.017": 1.01804050979,
			"-0.016": 0.478684183123,
			"-0.015": 0.35903717422,
			"-0.014": 1.17090138598,
			"-0.013": 1.48362102999,
			"-0.012": 1.42630971483,
			"-0.011": 1.76338722043,
			"-0.01": 1.44151455265,
			"-0.009": 2.01399010803,
			"-0.008": 6.95968000636,
			"-0.007": 10.3550198667,
			"-0.006": 9.16667475256,
			"-0.005": 9.41054622002,
			"-0.004": 8.91018706579,
			"-0.003": 11.1710084481,
			"-0.002": 15.8027758764,
			"-0.001": 16.8511859931,
			"0.0": 19.7686403788,
			"0.001": 13.5175438452,
			"0.002": 15.8533486847,
			"0.003": 10.5434758013,
			"0.004": 5.63208196513,
			"0.005": 5.87537435284,
			"0.006": 6.99374722062,
			"0.007": 14.5098411573,
			"0.008": 9.38147322933,
			"0.009": 7.8426978241,
			"0.01": 5.41831942602,
			"0.011": 1.62802495659,
			"0.012": 0.0480649241555,
			"0.013": 0.0,
			"0.014": 0.0,
			"0.015": 0.0,
			"0.016": 0.0,
			"0.017": 0.0,
			"0.018": 0.0,
			"0.019": 0.0,
			"0.02": 0.0,
			"0.021": 0.0,
			"0.022": 0.0,
			"0.023": 0.0,
			"0.024": 0.0,
			"0.025": 0.0
		}
	}
}
