{
	 "smiles": "CCCCCCN(CCCCCC)C1=NC(=C/C2=CC=CC=C2)C(=O)N1C1=CC=CC=C1", 
	 "Tm": 349.15, 
	 "num_atms": 69, 
	 "gaussian": { 
		 "optdone": 1, 
		 "sigma_profile": "yes", 
		 "theory": "DFT", 
		 "functional": "B3LYP", 
		 "basiset": "6-31G**", 
		 "properties": { 
			 "R2extent": 18082.5118, 
			 "electric_dipole_moment_norm": 4.56272647547, 
			 "electric_quadrupole_moment_norm": 16.1807582721, 
			 "total_energy": -1328.79919678, 
			 "HOMO_LUMO_gap": 0.13091, 
			 "cosmo_polarized_energy": -14.23, 
			 "cosmo_cavitation_energy": 69.55, 
			 "cosmo_dispersion_energy": -42.85, 
			 "cosmo_repulsion_energy": 3.34, 
			 "cosmo_total_nonelectrostatic_energy": 30.03, 
			 "SMD_solvation_energy": 10.53 
		},
		"coords": [
			{
				"x": 1.5178515075,
				"y": 4.1475125704,
				"z": -2.6052455756,
				"element": "C" 
			},
			{
				"x": 2.5211384295,
				"y": 4.2417810931,
				"z": -1.4492589088,
				"element": "C" 
			},
			{
				"x": 2.1220521185,
				"y": 3.4503943388,
				"z": -0.1927262954,
				"element": "C" 
			},
			{
				"x": 2.0845322061,
				"y": 1.9272333951,
				"z": -0.3791286354,
				"element": "C" 
			},
			{
				"x": 1.7471865506,
				"y": 1.1746891137,
				"z": 0.9138931929,
				"element": "C" 
			},
			{
				"x": 1.6601447674,
				"y": -0.3474715849,
				"z": 0.7489380693,
				"element": "C" 
			},
			{
				"x": 0.5414272409,
				"y": -0.7721093157,
				"z": -0.1194383494,
				"element": "N" 
			},
			{
				"x": 0.8676643619,
				"y": -1.7798166364,
				"z": -1.1484263606,
				"element": "C" 
			},
			{
				"x": 1.1159356737,
				"y": -3.1826934253,
				"z": -0.5704953504,
				"element": "C" 
			},
			{
				"x": 1.3502060772,
				"y": -4.2880090344,
				"z": -1.6170606983,
				"element": "C" 
			},
			{
				"x": 2.6412218846,
				"y": -4.1747653345,
				"z": -2.4577885745,
				"element": "C" 
			},
			{
				"x": 2.5069479751,
				"y": -3.3989270625,
				"z": -3.7777440376,
				"element": "C" 
			},
			{
				"x": 3.8140529344,
				"y": -3.3537106879,
				"z": -4.5759461524,
				"element": "C" 
			},
			{
				"x": -0.69637343,
				"y": -0.7680371734,
				"z": 0.4683656697,
				"element": "C" 
			},
			{
				"x": -0.8908820689,
				"y": -0.5639955367,
				"z": 1.7484488745,
				"element": "N" 
			},
			{
				"x": -2.2645471556,
				"y": -0.6331922093,
				"z": 1.9637385291,
				"element": "C" 
			},
			{
				"x": -2.9652551605,
				"y": -0.5015641984,
				"z": 3.1198541206,
				"element": "C" 
			},
			{
				"x": -2.4929408339,
				"y": -0.2200364314,
				"z": 4.4655861631,
				"element": "C" 
			},
			{
				"x": -3.4448111604,
				"y": -0.1195358281,
				"z": 5.5022984064,
				"element": "C" 
			},
			{
				"x": -3.0578524838,
				"y": 0.1502357356,
				"z": 6.8116057588,
				"element": "C" 
			},
			{
				"x": -1.7062238336,
				"y": 0.3257931688,
				"z": 7.1179149495,
				"element": "C" 
			},
			{
				"x": -0.7494386033,
				"y": 0.2282097468,
				"z": 6.1026368725,
				"element": "C" 
			},
			{
				"x": -1.1303437782,
				"y": -0.040909997,
				"z": 4.7914327522,
				"element": "C" 
			},
			{
				"x": -2.9538816437,
				"y": -0.9200124775,
				"z": 0.6765944512,
				"element": "C" 
			},
			{
				"x": -4.1325392541,
				"y": -1.0571953185,
				"z": 0.4111336504,
				"element": "O" 
			},
			{
				"x": -1.8828429291,
				"y": -0.9880200718,
				"z": -0.2609465494,
				"element": "N" 
			},
			{
				"x": -2.1187802589,
				"y": -0.8643416043,
				"z": -1.6626750241,
				"element": "C" 
			},
			{
				"x": -1.6060028493,
				"y": 0.2232212451,
				"z": -2.3812491785,
				"element": "C" 
			},
			{
				"x": -1.8750256816,
				"y": 0.3394393967,
				"z": -3.7442612235,
				"element": "C" 
			},
			{
				"x": -2.675548311,
				"y": -0.6068381218,
				"z": -4.3883656086,
				"element": "C" 
			},
			{
				"x": -3.2047064424,
				"y": -1.6749756596,
				"z": -3.6620983827,
				"element": "C" 
			},
			{
				"x": -2.926352895,
				"y": -1.8108489911,
				"z": -2.3018075237,
				"element": "C" 
			},
			{
				"x": 1.4187371978,
				"y": 3.1226899434,
				"z": -2.9782621183,
				"element": "H" 
			},
			{
				"x": 1.8283711866,
				"y": 4.7730312931,
				"z": -3.4486502301,
				"element": "H" 
			},
			{
				"x": 0.5227674818,
				"y": 4.4843641994,
				"z": -2.2914155128,
				"element": "H" 
			},
			{
				"x": 2.6457750766,
				"y": 5.2965597123,
				"z": -1.1731853436,
				"element": "H" 
			},
			{
				"x": 3.5076132537,
				"y": 3.9007668368,
				"z": -1.7928418295,
				"element": "H" 
			},
			{
				"x": 1.1378773767,
				"y": 3.7958514119,
				"z": 0.1549719597,
				"element": "H" 
			},
			{
				"x": 2.8279529377,
				"y": 3.6898466473,
				"z": 0.6143205765,
				"element": "H" 
			},
			{
				"x": 3.0603848743,
				"y": 1.5857818087,
				"z": -0.7562523931,
				"element": "H" 
			},
			{
				"x": 1.3499521952,
				"y": 1.6603706965,
				"z": -1.1486269689,
				"element": "H" 
			},
			{
				"x": 0.8012012981,
				"y": 1.5372661648,
				"z": 1.331063755,
				"element": "H" 
			},
			{
				"x": 2.5153626126,
				"y": 1.3826518614,
				"z": 1.6711588648,
				"element": "H" 
			},
			{
				"x": 2.5772960296,
				"y": -0.718742065,
				"z": 0.2813687106,
				"element": "H" 
			},
			{
				"x": 1.5673970234,
				"y": -0.823999933,
				"z": 1.7302591384,
				"element": "H" 
			},
			{
				"x": 1.7506428977,
				"y": -1.4098947387,
				"z": -1.676197393,
				"element": "H" 
			},
			{
				"x": 0.061054323,
				"y": -1.8211021421,
				"z": -1.8807936931,
				"element": "H" 
			},
			{
				"x": 1.9711287408,
				"y": -3.1507080914,
				"z": 0.1172898141,
				"element": "H" 
			},
			{
				"x": 0.2441001184,
				"y": -3.4566053365,
				"z": 0.0371131005,
				"element": "H" 
			},
			{
				"x": 0.4812226464,
				"y": -4.3470944294,
				"z": -2.287517992,
				"element": "H" 
			},
			{
				"x": 1.3693120883,
				"y": -5.240062515,
				"z": -1.0733803657,
				"element": "H" 
			},
			{
				"x": 3.4391158669,
				"y": -3.727857804,
				"z": -1.8467330814,
				"element": "H" 
			},
			{
				"x": 2.990896113,
				"y": -5.1865598608,
				"z": -2.7018105546,
				"element": "H" 
			},
			{
				"x": 1.7229805538,
				"y": -3.8699112497,
				"z": -4.3860063339,
				"element": "H" 
			},
			{
				"x": 2.1633559211,
				"y": -2.374633122,
				"z": -3.5893709683,
				"element": "H" 
			},
			{
				"x": 4.6087098982,
				"y": -2.8548996674,
				"z": -4.009139714,
				"element": "H" 
			},
			{
				"x": 4.1662105319,
				"y": -4.3634852399,
				"z": -4.8161406154,
				"element": "H" 
			},
			{
				"x": 3.6890224994,
				"y": -2.8121400419,
				"z": -5.5192047217,
				"element": "H" 
			},
			{
				"x": -4.0398053205,
				"y": -0.6281517005,
				"z": 3.0042868555,
				"element": "H" 
			},
			{
				"x": -4.4972225963,
				"y": -0.2559847579,
				"z": 5.2664020196,
				"element": "H" 
			},
			{
				"x": -3.8088216004,
				"y": 0.2234964206,
				"z": 7.593211679,
				"element": "H" 
			},
			{
				"x": -1.4005295471,
				"y": 0.5364183006,
				"z": 8.1388773465,
				"element": "H" 
			},
			{
				"x": 0.303010585,
				"y": 0.3632321243,
				"z": 6.3373302834,
				"element": "H" 
			},
			{
				"x": -0.3917061734,
				"y": -0.1191179854,
				"z": 4.0028284849,
				"element": "H" 
			},
			{
				"x": -1.0009260738,
				"y": 0.9655099683,
				"z": -1.871829693,
				"element": "H" 
			},
			{
				"x": -1.4690665722,
				"y": 1.1798406988,
				"z": -4.2997139073,
				"element": "H" 
			},
			{
				"x": -2.8897605036,
				"y": -0.5083324747,
				"z": -5.4483607866,
				"element": "H" 
			},
			{
				"x": -3.8360415807,
				"y": -2.4090348772,
				"z": -4.1539274475,
				"element": "H" 
			},
			{
				"x": -3.3372843139,
				"y": -2.6334631595,
				"z": -1.7285999562,
				"element": "H" 
			}
		],
		 "valence_orbital": [ 
			{
				"type": "occ",
				"energy": -0.25157,
				"method": "rhf"
			},
			{
				"type": "occ",
				"energy": -0.24369,
				"method": "rhf"
			},
			{
				"type": "occ",
				"energy": -0.24309,
				"method": "rhf"
			},
			{
				"type": "occ",
				"energy": -0.23726,
				"method": "rhf"
			},
			{
				"type": "occ",
				"energy": -0.19151,
				"method": "rhf"
			},
			{
				"type": "unocc",
				"energy": -0.0606,
				"method": "rhf"
			},
			{
				"type": "unocc",
				"energy": -0.01581,
				"method": "rhf"
			},
			{
				"type": "unocc",
				"energy": -0.00909,
				"method": "rhf"
			},
			{
				"type": "unocc",
				"energy": 0.00789,
				"method": "rhf"
			},
			{
				"type": "unocc",
				"energy": 0.02884,
				"method": "rhf"
			}
		],
		"cosmo_sigma_profile": { 
			"-0.025": 0.0,
			"-0.024": 0.0,
			"-0.023": 0.0,
			"-0.022": 0.0,
			"-0.021": 0.0,
			"-0.02": 0.0,
			"-0.019": 0.0,
			"-0.018": 0.0,
			"-0.017": 0.0,
			"-0.016": 0.0,
			"-0.015": 0.0,
			"-0.014": 0.0,
			"-0.013": 0.0,
			"-0.012": 0.0,
			"-0.011": 0.0,
			"-0.01": 0.0,
			"-0.009": 0.0,
			"-0.008": 0.0,
			"-0.007": 1.22689529044,
			"-0.006": 13.7345067003,
			"-0.005": 24.2315956598,
			"-0.004": 30.2527003453,
			"-0.003": 41.4998400492,
			"-0.002": 75.607128061,
			"-0.001": 82.1280935604,
			"0.0": 72.4275261118,
			"0.001": 64.5287335362,
			"0.002": 36.0981928228,
			"0.003": 23.8350578362,
			"0.004": 27.0041313251,
			"0.005": 22.9515625538,
			"0.006": 8.64756716078,
			"0.007": 4.60345262432,
			"0.008": 2.23784546173,
			"0.009": 2.22786933862,
			"0.01": 3.04006125166,
			"0.011": 2.76088267456,
			"0.012": 5.2155208363,
			"0.013": 1.14613931769,
			"0.014": 0.0,
			"0.015": 0.0,
			"0.016": 0.0,
			"0.017": 0.0,
			"0.018": 0.0,
			"0.019": 0.0,
			"0.02": 0.0,
			"0.021": 0.0,
			"0.022": 0.0,
			"0.023": 0.0,
			"0.024": 0.0,
			"0.025": 0.0
		}
	}
}
