{
	 "smiles": "CN1C=NC(=C1OC1=CC=C(Br)C=C1)[N+]([O-])=O", 
	 "Tm": 403.15, 
	 "num_atms": 25, 
	 "gaussian": { 
		 "optdone": 1, 
		 "sigma_profile": "yes", 
		 "theory": "DFT", 
		 "functional": "B3LYP", 
		 "basiset": "6-31G**", 
		 "properties": { 
			 "R2extent": 7048.0451, 
			 "electric_dipole_moment_norm": 7.80917700273, 
			 "electric_quadrupole_moment_norm": 21.6947234486, 
			 "total_energy": -3347.0843191, 
			 "HOMO_LUMO_gap": 0.16492, 
			 "cosmo_polarized_energy": -20.8, 
			 "cosmo_cavitation_energy": 33.42, 
			 "cosmo_dispersion_energy": -23.77, 
			 "cosmo_repulsion_energy": 1.86, 
			 "cosmo_total_nonelectrostatic_energy": 11.52, 
			 "SMD_solvation_energy": 5.91 
		},
		"coords": [
			{
				"x": -2.7678050603,
				"y": 1.6221272204,
				"z": -1.4098124936,
				"element": "C" 
			},
			{
				"x": -1.5887313153,
				"y": 2.1542997789,
				"z": -0.7388456296,
				"element": "N" 
			},
			{
				"x": -1.004670055,
				"y": 3.3891385308,
				"z": -0.9103959614,
				"element": "C" 
			},
			{
				"x": 0.0320743409,
				"y": 3.567084328,
				"z": -0.1304971584,
				"element": "N" 
			},
			{
				"x": 0.1302040337,
				"y": 2.4146682845,
				"z": 0.5924014508,
				"element": "C" 
			},
			{
				"x": -0.8621694672,
				"y": 1.5122723176,
				"z": 0.2339572535,
				"element": "C" 
			},
			{
				"x": -1.2802118423,
				"y": 0.3087452321,
				"z": 0.6664419068,
				"element": "O" 
			},
			{
				"x": -0.4679623097,
				"y": -0.8220029158,
				"z": 0.5559349548,
				"element": "C" 
			},
			{
				"x": 0.6346936939,
				"y": -0.8921390371,
				"z": -0.2908611022,
				"element": "C" 
			},
			{
				"x": 1.3487941346,
				"y": -2.0876350709,
				"z": -0.3796399299,
				"element": "C" 
			},
			{
				"x": 0.9467676645,
				"y": -3.1900983466,
				"z": 0.3712400762,
				"element": "C" 
			},
			{
				"x": 1.9236660836,
				"y": -4.8261131593,
				"z": 0.2411827211,
				"element": "Br" 
			},
			{
				"x": -0.1596485622,
				"y": -3.1146569199,
				"z": 1.217291381,
				"element": "C" 
			},
			{
				"x": -0.8713946642,
				"y": -1.9210046576,
				"z": 1.3102259761,
				"element": "C" 
			},
			{
				"x": 1.1376691244,
				"y": 2.2254642669,
				"z": 1.5993077513,
				"element": "N" 
			},
			{
				"x": 1.9336193401,
				"y": 3.1347291499,
				"z": 1.8061305141,
				"element": "O" 
			},
			{
				"x": 1.115277369,
				"y": 1.1388320844,
				"z": 2.1934421755,
				"element": "O" 
			},
			{
				"x": -3.062747446,
				"y": 2.3218410094,
				"z": -2.1927013593,
				"element": "H" 
			},
			{
				"x": -3.5923159657,
				"y": 1.5025689862,
				"z": -0.7026717705,
				"element": "H" 
			},
			{
				"x": -2.5422947113,
				"y": 0.6531881362,
				"z": -1.8602898287,
				"element": "H" 
			},
			{
				"x": -1.3909697429,
				"y": 4.1052403238,
				"z": -1.6229050256,
				"element": "H" 
			},
			{
				"x": 0.9466599617,
				"y": -0.0297541653,
				"z": -0.8696605102,
				"element": "H" 
			},
			{
				"x": 2.2129149885,
				"y": -2.155977976,
				"z": -1.0302127022,
				"element": "H" 
			},
			{
				"x": -0.461115047,
				"y": -3.9766221471,
				"z": 1.8009598778,
				"element": "H" 
			},
			{
				"x": -1.7313045458,
				"y": -1.8306952535,
				"z": 1.9647774326,
				"element": "H" 
			}
		],
		 "valence_orbital": [ 
			{
				"type": "occ",
				"energy": -0.29106,
				"method": "rhf"
			},
			{
				"type": "occ",
				"energy": -0.28005,
				"method": "rhf"
			},
			{
				"type": "occ",
				"energy": -0.27429,
				"method": "rhf"
			},
			{
				"type": "occ",
				"energy": -0.25998,
				"method": "rhf"
			},
			{
				"type": "occ",
				"energy": -0.23618,
				"method": "rhf"
			},
			{
				"type": "unocc",
				"energy": -0.07126,
				"method": "rhf"
			},
			{
				"type": "unocc",
				"energy": -0.02621,
				"method": "rhf"
			},
			{
				"type": "unocc",
				"energy": -0.01633,
				"method": "rhf"
			},
			{
				"type": "unocc",
				"energy": -0.00266,
				"method": "rhf"
			},
			{
				"type": "unocc",
				"energy": 0.00474,
				"method": "rhf"
			}
		],
		"cosmo_sigma_profile": { 
			"-0.025": 0.0,
			"-0.024": 0.0,
			"-0.023": 0.0,
			"-0.022": 0.0,
			"-0.021": 0.0,
			"-0.02": 0.0,
			"-0.019": 0.0,
			"-0.018": 0.0,
			"-0.017": 0.0,
			"-0.016": 0.0,
			"-0.015": 0.0,
			"-0.014": 0.0,
			"-0.013": 0.0,
			"-0.012": 0.0489628020204,
			"-0.011": 2.33920813038,
			"-0.01": 3.29072247142,
			"-0.009": 2.472729825,
			"-0.008": 8.54531525367,
			"-0.007": 17.929291856,
			"-0.006": 18.9808216764,
			"-0.005": 19.0408312554,
			"-0.004": 19.1649259341,
			"-0.003": 13.952581404,
			"-0.002": 12.2354063626,
			"-0.001": 11.6232253167,
			"0.0": 14.1074779439,
			"0.001": 16.9368798748,
			"0.002": 20.952582874,
			"0.003": 18.2779596077,
			"0.004": 16.5869663449,
			"0.005": 11.6092326889,
			"0.006": 5.42037625839,
			"0.007": 6.753572044,
			"0.008": 9.0609343824,
			"0.009": 7.46784875719,
			"0.01": 5.72648092135,
			"0.011": 3.63912850633,
			"0.012": 1.38642989809,
			"0.013": 1.11775343769,
			"0.014": 1.65308991255,
			"0.015": 1.28387711992,
			"0.016": 0.541506706116,
			"0.017": 0.0,
			"0.018": 0.0,
			"0.019": 0.0,
			"0.02": 0.0,
			"0.021": 0.0,
			"0.022": 0.0,
			"0.023": 0.0,
			"0.024": 0.0,
			"0.025": 0.0
		}
	}
}
