{
	 "smiles": "O=CC1=CC=C(OCC#C)C=C1", 
	 "Tm": 349.15, 
	 "num_atms": 20, 
	 "gaussian": { 
		 "optdone": 1, 
		 "sigma_profile": "yes", 
		 "theory": "DFT", 
		 "functional": "B3LYP", 
		 "basiset": "6-31G**", 
		 "properties": { 
			 "R2extent": 2662.4315, 
			 "electric_dipole_moment_norm": 3.81735460889, 
			 "electric_quadrupole_moment_norm": 15.7815997095, 
			 "total_energy": -536.23388939, 
			 "HOMO_LUMO_gap": 0.18349, 
			 "cosmo_polarized_energy": -11.18, 
			 "cosmo_cavitation_energy": 25.93, 
			 "cosmo_dispersion_energy": -18.11, 
			 "cosmo_repulsion_energy": 1.43, 
			 "cosmo_total_nonelectrostatic_energy": 9.26, 
			 "SMD_solvation_energy": 7.23 
		},
		"coords": [
			{
				"x": -0.3549362526,
				"y": 3.286725844,
				"z": 2.9636861584,
				"element": "O" 
			},
			{
				"x": -0.8313084953,
				"y": 3.1598710748,
				"z": 1.8495655513,
				"element": "C" 
			},
			{
				"x": -0.4134774883,
				"y": 2.146915755,
				"z": 0.863813674,
				"element": "C" 
			},
			{
				"x": 0.5996406803,
				"y": 1.2284693404,
				"z": 1.1724697505,
				"element": "C" 
			},
			{
				"x": 1.0006704475,
				"y": 0.268707108,
				"z": 0.2504375697,
				"element": "C" 
			},
			{
				"x": 0.3814057208,
				"y": 0.225618656,
				"z": -1.0101013719,
				"element": "C" 
			},
			{
				"x": 0.699146078,
				"y": -0.6544931742,
				"z": -2.0020795983,
				"element": "O" 
			},
			{
				"x": 1.8004322854,
				"y": -1.5488077295,
				"z": -1.8196784853,
				"element": "C" 
			},
			{
				"x": 1.5115779892,
				"y": -2.6688941782,
				"z": -0.9212867649,
				"element": "C" 
			},
			{
				"x": 1.2846430708,
				"y": -3.6006423809,
				"z": -0.1883004331,
				"element": "C" 
			},
			{
				"x": -0.6394391088,
				"y": 1.1362345387,
				"z": -1.3288142441,
				"element": "C" 
			},
			{
				"x": -1.0291736104,
				"y": 2.0858052479,
				"z": -0.3968484544,
				"element": "C" 
			},
			{
				"x": -1.6459660138,
				"y": 3.8340761822,
				"z": 1.4996659962,
				"element": "H" 
			},
			{
				"x": 1.0610591528,
				"y": 1.2812818704,
				"z": 2.1536864515,
				"element": "H" 
			},
			{
				"x": 1.7654498858,
				"y": -0.4490494329,
				"z": 0.5206248943,
				"element": "H" 
			},
			{
				"x": 2.0168180693,
				"y": -1.9240546089,
				"z": -2.8242324668,
				"element": "H" 
			},
			{
				"x": 2.6842488214,
				"y": -0.9963349135,
				"z": -1.4732246543,
				"element": "H" 
			},
			{
				"x": 1.0763273013,
				"y": -4.4210321982,
				"z": 0.4595164751,
				"element": "H" 
			},
			{
				"x": -1.0994988702,
				"y": 1.0753157486,
				"z": -2.309252765,
				"element": "H" 
			},
			{
				"x": -1.8177196632,
				"y": 2.7931872502,
				"z": -0.6434472831,
				"element": "H" 
			}
		],
		 "valence_orbital": [ 
			{
				"type": "occ",
				"energy": -0.29305,
				"method": "rhf"
			},
			{
				"type": "occ",
				"energy": -0.28598,
				"method": "rhf"
			},
			{
				"type": "occ",
				"energy": -0.26601,
				"method": "rhf"
			},
			{
				"type": "occ",
				"energy": -0.24765,
				"method": "rhf"
			},
			{
				"type": "occ",
				"energy": -0.23647,
				"method": "rhf"
			},
			{
				"type": "unocc",
				"energy": -0.05298,
				"method": "rhf"
			},
			{
				"type": "unocc",
				"energy": -0.01437,
				"method": "rhf"
			},
			{
				"type": "unocc",
				"energy": 0.01324,
				"method": "rhf"
			},
			{
				"type": "unocc",
				"energy": 0.03601,
				"method": "rhf"
			},
			{
				"type": "unocc",
				"energy": 0.05015,
				"method": "rhf"
			}
		],
		"cosmo_sigma_profile": { 
			"-0.025": 0.0,
			"-0.024": 0.0,
			"-0.023": 0.0,
			"-0.022": 0.0,
			"-0.021": 0.0,
			"-0.02": 0.0,
			"-0.019": 0.0,
			"-0.018": 0.0,
			"-0.017": 0.0,
			"-0.016": 0.0,
			"-0.015": 0.0,
			"-0.014": 0.0,
			"-0.013": 0.101141265862,
			"-0.012": 1.15589252366,
			"-0.011": 1.37297897106,
			"-0.01": 0.717008224243,
			"-0.009": 2.82984582183,
			"-0.008": 6.83606749361,
			"-0.007": 11.6086210435,
			"-0.006": 15.4002997341,
			"-0.005": 13.6085969668,
			"-0.004": 10.9646536795,
			"-0.003": 9.7447490698,
			"-0.002": 10.1425805182,
			"-0.001": 9.71271705696,
			"0.0": 10.6320224925,
			"0.001": 13.7194218713,
			"0.002": 19.4190127215,
			"0.003": 20.6028079362,
			"0.004": 13.3819149578,
			"0.005": 10.5244148024,
			"0.006": 7.4273561707,
			"0.007": 1.99532087593,
			"0.008": 3.09435763997,
			"0.009": 2.76140108957,
			"0.01": 1.91398800681,
			"0.011": 3.71747700358,
			"0.012": 4.22023382661,
			"0.013": 1.49485690074,
			"0.014": 0.17792376035,
			"0.015": 0.0,
			"0.016": 0.0,
			"0.017": 0.0,
			"0.018": 0.0,
			"0.019": 0.0,
			"0.02": 0.0,
			"0.021": 0.0,
			"0.022": 0.0,
			"0.023": 0.0,
			"0.024": 0.0,
			"0.025": 0.0
		}
	}
}
