{
	 "smiles": "OC(=O)C1=CC(F)=C(C=C1)N1CCOCC1", 
	 "Tm": 494.15, 
	 "num_atms": 28, 
	 "gaussian": { 
		 "optdone": 1, 
		 "sigma_profile": "yes", 
		 "theory": "DFT", 
		 "functional": "B3LYP", 
		 "basiset": "6-31G**", 
		 "properties": { 
			 "R2extent": 4908.2618, 
			 "electric_dipole_moment_norm": 5.17368649031, 
			 "electric_quadrupole_moment_norm": 35.3481570476, 
			 "total_energy": -806.647522991, 
			 "HOMO_LUMO_gap": 0.173, 
			 "cosmo_polarized_energy": -17.46, 
			 "cosmo_cavitation_energy": 31.04, 
			 "cosmo_dispersion_energy": -23.06, 
			 "cosmo_repulsion_energy": 1.75, 
			 "cosmo_total_nonelectrostatic_energy": 9.73, 
			 "SMD_solvation_energy": 5.5 
		},
		"coords": [
			{
				"x": -1.5871865937,
				"y": 4.0738263764,
				"z": -3.3337001502,
				"element": "O" 
			},
			{
				"x": -1.0237936923,
				"y": 4.0044081046,
				"z": -2.0957585656,
				"element": "C" 
			},
			{
				"x": -0.7795529609,
				"y": 5.0216799278,
				"z": -1.4890174587,
				"element": "O" 
			},
			{
				"x": -0.7408439422,
				"y": 2.638924341,
				"z": -1.5592107392,
				"element": "C" 
			},
			{
				"x": -0.494836428,
				"y": 2.5214095546,
				"z": -0.182494515,
				"element": "C" 
			},
			{
				"x": -0.2117107676,
				"y": 1.2887774619,
				"z": 0.3638722598,
				"element": "C" 
			},
			{
				"x": 0.0521148687,
				"y": 1.225994365,
				"z": 1.6913750214,
				"element": "F" 
			},
			{
				"x": -0.1611545618,
				"y": 0.0973983267,
				"z": -0.3981005041,
				"element": "C" 
			},
			{
				"x": -0.3878245257,
				"y": 0.2444629689,
				"z": -1.7803476558,
				"element": "C" 
			},
			{
				"x": -0.6643091635,
				"y": 1.4864216205,
				"z": -2.3486669244,
				"element": "C" 
			},
			{
				"x": 0.1650078213,
				"y": -1.1234549979,
				"z": 0.2008328473,
				"element": "N" 
			},
			{
				"x": 0.509717161,
				"y": -2.2478770991,
				"z": -0.6693101825,
				"element": "C" 
			},
			{
				"x": 1.2090171558,
				"y": -3.3325129863,
				"z": 0.151934024,
				"element": "C" 
			},
			{
				"x": 0.4101696175,
				"y": -3.7611246902,
				"z": 1.2423218303,
				"element": "O" 
			},
			{
				"x": 0.1191883938,
				"y": -2.670168062,
				"z": 2.1054297407,
				"element": "C" 
			},
			{
				"x": -0.6244886751,
				"y": -1.5615118484,
				"z": 1.3672699443,
				"element": "C" 
			},
			{
				"x": -1.8799145448,
				"y": 3.1967826507,
				"z": -3.6164499816,
				"element": "H" 
			},
			{
				"x": -0.5040383574,
				"y": 3.4040496114,
				"z": 0.4465117605,
				"element": "H" 
			},
			{
				"x": -0.3543530023,
				"y": -0.6276568866,
				"z": -2.4217063324,
				"element": "H" 
			},
			{
				"x": -0.7932725352,
				"y": 1.5367193244,
				"z": -3.4270401724,
				"element": "H" 
			},
			{
				"x": -0.3840460444,
				"y": -2.6793945476,
				"z": -1.153317264,
				"element": "H" 
			},
			{
				"x": 1.1898102271,
				"y": -1.9015179693,
				"z": -1.4535162184,
				"element": "H" 
			},
			{
				"x": 1.3944643793,
				"y": -4.2130742985,
				"z": -0.4699442479,
				"element": "H" 
			},
			{
				"x": 2.1755469807,
				"y": -2.9460496845,
				"z": 0.5140119353,
				"element": "H" 
			},
			{
				"x": -0.4998342834,
				"y": -3.0663128005,
				"z": 2.9153228168,
				"element": "H" 
			},
			{
				"x": 1.0492481192,
				"y": -2.265388195,
				"z": 2.5357893357,
				"element": "H" 
			},
			{
				"x": -1.605878501,
				"y": -1.941475353,
				"z": 1.0371394055,
				"element": "H" 
			},
			{
				"x": -0.7886461451,
				"y": -0.7187352151,
				"z": 2.0366699907,
				"element": "H" 
			}
		],
		 "valence_orbital": [ 
			{
				"type": "occ",
				"energy": -0.3009,
				"method": "rhf"
			},
			{
				"type": "occ",
				"energy": -0.27257,
				"method": "rhf"
			},
			{
				"type": "occ",
				"energy": -0.26725,
				"method": "rhf"
			},
			{
				"type": "occ",
				"energy": -0.26475,
				"method": "rhf"
			},
			{
				"type": "occ",
				"energy": -0.22129,
				"method": "rhf"
			},
			{
				"type": "unocc",
				"energy": -0.04829,
				"method": "rhf"
			},
			{
				"type": "unocc",
				"energy": -0.01949,
				"method": "rhf"
			},
			{
				"type": "unocc",
				"energy": 0.04892,
				"method": "rhf"
			},
			{
				"type": "unocc",
				"energy": 0.05957,
				"method": "rhf"
			},
			{
				"type": "unocc",
				"energy": 0.08363,
				"method": "rhf"
			}
		],
		"cosmo_sigma_profile": { 
			"-0.025": 0.0,
			"-0.024": 0.0,
			"-0.023": 0.0,
			"-0.022": 0.0,
			"-0.021": 0.0,
			"-0.02": 0.0,
			"-0.019": 0.151287278021,
			"-0.018": 0.735275109621,
			"-0.017": 1.25590104395,
			"-0.016": 0.965671551941,
			"-0.015": 0.70477858771,
			"-0.014": 0.573419930022,
			"-0.013": 0.937599675469,
			"-0.012": 1.5265118075,
			"-0.011": 1.4224642777,
			"-0.01": 1.13537184987,
			"-0.009": 0.944505947434,
			"-0.008": 1.66246561797,
			"-0.007": 4.27092438834,
			"-0.006": 10.9941841278,
			"-0.005": 15.971774601,
			"-0.004": 26.913359922,
			"-0.003": 27.4564395029,
			"-0.002": 18.0089482931,
			"-0.001": 12.7948772922,
			"0.0": 13.4482378708,
			"0.001": 15.095391163,
			"0.002": 16.6116448583,
			"0.003": 14.5158980857,
			"0.004": 11.883240016,
			"0.005": 5.67768017631,
			"0.006": 4.53291377632,
			"0.007": 3.5004121651,
			"0.008": 5.08165079667,
			"0.009": 4.2236467195,
			"0.01": 4.90782347518,
			"0.011": 6.60749208825,
			"0.012": 7.13122431541,
			"0.013": 3.94279004007,
			"0.014": 0.304077545864,
			"0.015": 0.0,
			"0.016": 0.0,
			"0.017": 0.0,
			"0.018": 0.0,
			"0.019": 0.0,
			"0.02": 0.0,
			"0.021": 0.0,
			"0.022": 0.0,
			"0.023": 0.0,
			"0.024": 0.0,
			"0.025": 0.0
		}
	}
}
