{
	 "smiles": "ClC1=NC=CN1C(C1=CC=CC=C1)(C1=CC=CC=C1)C1=CC=CC=C1", 
	 "Tm": 474.15, 
	 "num_atms": 42, 
	 "gaussian": { 
		 "optdone": 1, 
		 "sigma_profile": "yes", 
		 "theory": "DFT", 
		 "functional": "B3LYP", 
		 "basiset": "6-31G**", 
		 "properties": { 
			 "R2extent": 7500.2049, 
			 "electric_dipole_moment_norm": 4.62593229739, 
			 "electric_quadrupole_moment_norm": 17.4369941237, 
			 "total_energy": -1418.2486518, 
			 "HOMO_LUMO_gap": 0.19417, 
			 "cosmo_polarized_energy": -12.0, 
			 "cosmo_cavitation_energy": 44.57, 
			 "cosmo_dispersion_energy": -30.01, 
			 "cosmo_repulsion_energy": 2.27, 
			 "cosmo_total_nonelectrostatic_energy": 16.83, 
			 "SMD_solvation_energy": 5.99 
		},
		"coords": [
			{
				"x": -0.0134181055,
				"y": 2.0415439566,
				"z": 2.1791657094,
				"element": "Cl" 
			},
			{
				"x": 0.5080715573,
				"y": 2.3446947363,
				"z": 0.5577729709,
				"element": "C" 
			},
			{
				"x": 0.6075015251,
				"y": 3.5522751237,
				"z": 0.0678165704,
				"element": "N" 
			},
			{
				"x": 1.0321926507,
				"y": 3.3691717523,
				"z": -1.2278034459,
				"element": "C" 
			},
			{
				"x": 1.1896513761,
				"y": 2.039235771,
				"z": -1.5042408821,
				"element": "C" 
			},
			{
				"x": 0.8599191939,
				"y": 1.3524694924,
				"z": -0.3380627436,
				"element": "N" 
			},
			{
				"x": 0.7818541869,
				"y": -0.1386354087,
				"z": -0.1574382744,
				"element": "C" 
			},
			{
				"x": 1.1219687938,
				"y": -0.8196006629,
				"z": -1.5181940234,
				"element": "C" 
			},
			{
				"x": 0.1772880101,
				"y": -1.5126240735,
				"z": -2.2825586816,
				"element": "C" 
			},
			{
				"x": 0.5410685812,
				"y": -2.1278980067,
				"z": -3.4854272245,
				"element": "C" 
			},
			{
				"x": 1.852453484,
				"y": -2.0585403828,
				"z": -3.9471274285,
				"element": "C" 
			},
			{
				"x": 2.8082170583,
				"y": -1.3766024339,
				"z": -3.188650033,
				"element": "C" 
			},
			{
				"x": 2.4487041724,
				"y": -0.776253345,
				"z": -1.9852756471,
				"element": "C" 
			},
			{
				"x": -0.6755995803,
				"y": -0.4490103147,
				"z": 0.2787591611,
				"element": "C" 
			},
			{
				"x": -1.0044156554,
				"y": -1.3144587902,
				"z": 1.3269614711,
				"element": "C" 
			},
			{
				"x": -2.339349171,
				"y": -1.5641183642,
				"z": 1.6572322503,
				"element": "C" 
			},
			{
				"x": -3.3709273557,
				"y": -0.9515525714,
				"z": 0.9496026046,
				"element": "C" 
			},
			{
				"x": -3.0561013367,
				"y": -0.0757479447,
				"z": -0.0914409859,
				"element": "C" 
			},
			{
				"x": -1.7251912246,
				"y": 0.1736772182,
				"z": -0.418917384,
				"element": "C" 
			},
			{
				"x": 1.8579213342,
				"y": -0.6253961755,
				"z": 0.8453193916,
				"element": "C" 
			},
			{
				"x": 2.0221006141,
				"y": -2.0085163714,
				"z": 1.0396685555,
				"element": "C" 
			},
			{
				"x": 2.9994830234,
				"y": -2.5046066028,
				"z": 1.8990877218,
				"element": "C" 
			},
			{
				"x": 3.8565734198,
				"y": -1.6283802925,
				"z": 2.5690305166,
				"element": "C" 
			},
			{
				"x": 3.7268731969,
				"y": -0.2581034995,
				"z": 2.3581758696,
				"element": "C" 
			},
			{
				"x": 2.7384250126,
				"y": 0.2392783421,
				"z": 1.5030657118,
				"element": "C" 
			},
			{
				"x": 1.1994075394,
				"y": 4.2096340594,
				"z": -1.8867791548,
				"element": "H" 
			},
			{
				"x": 1.4925146191,
				"y": 1.5260241585,
				"z": -2.3989848681,
				"element": "H" 
			},
			{
				"x": -0.8484934313,
				"y": -1.5866639872,
				"z": -1.945149396,
				"element": "H" 
			},
			{
				"x": -0.2116751435,
				"y": -2.6636779605,
				"z": -4.0565724818,
				"element": "H" 
			},
			{
				"x": 2.1325620076,
				"y": -2.5355900898,
				"z": -4.881778412,
				"element": "H" 
			},
			{
				"x": 3.838373074,
				"y": -1.3210386708,
				"z": -3.528550439,
				"element": "H" 
			},
			{
				"x": 3.206124519,
				"y": -0.2684802695,
				"z": -1.3970610871,
				"element": "H" 
			},
			{
				"x": -0.225377089,
				"y": -1.7833266144,
				"z": 1.9139200666,
				"element": "H" 
			},
			{
				"x": -2.5657981557,
				"y": -2.2341216681,
				"z": 2.4817482271,
				"element": "H" 
			},
			{
				"x": -4.4074008684,
				"y": -1.1439198118,
				"z": 1.2108753367,
				"element": "H" 
			},
			{
				"x": -3.8462570906,
				"y": 0.4219175192,
				"z": -0.6462208305,
				"element": "H" 
			},
			{
				"x": -1.4981611136,
				"y": 0.8680210881,
				"z": -1.2219604772,
				"element": "H" 
			},
			{
				"x": 1.3915227634,
				"y": -2.7050150351,
				"z": 0.4963082469,
				"element": "H" 
			},
			{
				"x": 3.0994032688,
				"y": -3.5778599172,
				"z": 2.0336116545,
				"element": "H" 
			},
			{
				"x": 4.6231427702,
				"y": -2.0124914502,
				"z": 3.2355905211,
				"element": "H" 
			},
			{
				"x": 4.3959985166,
				"y": 0.4376072298,
				"z": 2.856103528,
				"element": "H" 
			},
			{
				"x": 2.6747490521,
				"y": 1.3087802673,
				"z": 1.3482778145,
				"element": "H" 
			}
		],
		 "valence_orbital": [ 
			{
				"type": "occ",
				"energy": -0.25485,
				"method": "rhf"
			},
			{
				"type": "occ",
				"energy": -0.25223,
				"method": "rhf"
			},
			{
				"type": "occ",
				"energy": -0.24818,
				"method": "rhf"
			},
			{
				"type": "occ",
				"energy": -0.24214,
				"method": "rhf"
			},
			{
				"type": "occ",
				"energy": -0.21947,
				"method": "rhf"
			},
			{
				"type": "unocc",
				"energy": -0.0253,
				"method": "rhf"
			},
			{
				"type": "unocc",
				"energy": -0.01852,
				"method": "rhf"
			},
			{
				"type": "unocc",
				"energy": -0.01283,
				"method": "rhf"
			},
			{
				"type": "unocc",
				"energy": -0.0095,
				"method": "rhf"
			},
			{
				"type": "unocc",
				"energy": -0.00241,
				"method": "rhf"
			}
		],
		"cosmo_sigma_profile": { 
			"-0.025": 0.0,
			"-0.024": 0.0,
			"-0.023": 0.0,
			"-0.022": 0.0,
			"-0.021": 0.0,
			"-0.02": 0.0,
			"-0.019": 0.0,
			"-0.018": 0.0,
			"-0.017": 0.0,
			"-0.016": 0.0,
			"-0.015": 0.0,
			"-0.014": 0.0,
			"-0.013": 0.0,
			"-0.012": 0.0,
			"-0.011": 0.0,
			"-0.01": 0.0,
			"-0.009": 0.0,
			"-0.008": 0.124648744124,
			"-0.007": 2.45486939307,
			"-0.006": 17.8354724903,
			"-0.005": 28.8077942267,
			"-0.004": 38.5102294915,
			"-0.003": 33.9312347447,
			"-0.002": 28.6534716304,
			"-0.001": 24.9560214221,
			"0.0": 25.4327294416,
			"0.001": 25.1229275267,
			"0.002": 26.2376039995,
			"0.003": 30.2272754611,
			"0.004": 34.1668256182,
			"0.005": 24.2725816983,
			"0.006": 5.23301102898,
			"0.007": 2.19893815308,
			"0.008": 2.41356095554,
			"0.009": 0.920207084821,
			"0.01": 1.03863572271,
			"0.011": 1.42044762253,
			"0.012": 1.53597517378,
			"0.013": 1.14660182139,
			"0.014": 0.941653540578,
			"0.015": 1.09743830513,
			"0.016": 1.00025122903,
			"0.017": 0.173165298236,
			"0.018": 0.0,
			"0.019": 0.0,
			"0.02": 0.0,
			"0.021": 0.0,
			"0.022": 0.0,
			"0.023": 0.0,
			"0.024": 0.0,
			"0.025": 0.0
		}
	}
}
