{
	 "smiles": "NNC(=O)CNC1=CC=CC=C1", 
	 "Tm": 400.15, 
	 "num_atms": 23, 
	 "gaussian": { 
		 "optdone": 1, 
		 "sigma_profile": "yes", 
		 "theory": "DFT", 
		 "functional": "B3LYP", 
		 "basiset": "6-31G**", 
		 "properties": { 
			 "R2extent": 3806.1712, 
			 "electric_dipole_moment_norm": 5.54177951655, 
			 "electric_quadrupole_moment_norm": 13.5267010161, 
			 "total_energy": -550.936325931, 
			 "HOMO_LUMO_gap": 0.19524, 
			 "cosmo_polarized_energy": -16.24, 
			 "cosmo_cavitation_energy": 27.0, 
			 "cosmo_dispersion_energy": -20.05, 
			 "cosmo_repulsion_energy": 1.64, 
			 "cosmo_total_nonelectrostatic_energy": 8.59, 
			 "SMD_solvation_energy": 4.95 
		},
		"coords": [
			{
				"x": 1.9595581702,
				"y": 1.409797083,
				"z": 2.0347793836,
				"element": "N" 
			},
			{
				"x": 2.8257539026,
				"y": 1.5535270168,
				"z": 0.9467086018,
				"element": "N" 
			},
			{
				"x": 2.4546841517,
				"y": 1.2410383424,
				"z": -0.3322705943,
				"element": "C" 
			},
			{
				"x": 3.2244243011,
				"y": 1.4148393772,
				"z": -1.2691719644,
				"element": "O" 
			},
			{
				"x": 1.0455170535,
				"y": 0.6827203306,
				"z": -0.5164463441,
				"element": "C" 
			},
			{
				"x": 0.8977342593,
				"y": 0.2761838219,
				"z": -1.8874324303,
				"element": "N" 
			},
			{
				"x": -0.3330375356,
				"y": 0.0478492546,
				"z": -2.4752781821,
				"element": "C" 
			},
			{
				"x": -0.426232574,
				"y": -0.0487901682,
				"z": -3.880361639,
				"element": "C" 
			},
			{
				"x": -1.6459771738,
				"y": -0.303936649,
				"z": -4.4950101009,
				"element": "C" 
			},
			{
				"x": -2.8105564098,
				"y": -0.470579435,
				"z": -3.7373907571,
				"element": "C" 
			},
			{
				"x": -2.7252425577,
				"y": -0.3778252732,
				"z": -2.3488828935,
				"element": "C" 
			},
			{
				"x": -1.5077433541,
				"y": -0.1218900514,
				"z": -1.7161880634,
				"element": "C" 
			},
			{
				"x": 1.7760989533,
				"y": 2.3124371965,
				"z": 2.4657497004,
				"element": "H" 
			},
			{
				"x": 2.3653104086,
				"y": 0.787587459,
				"z": 2.7288823585,
				"element": "H" 
			},
			{
				"x": 3.7548020344,
				"y": 1.9495420197,
				"z": 1.0502188323,
				"element": "H" 
			},
			{
				"x": 0.3247023011,
				"y": 1.4630189744,
				"z": -0.2180287233,
				"element": "H" 
			},
			{
				"x": 0.8898960079,
				"y": -0.1447152253,
				"z": 0.1884857803,
				"element": "H" 
			},
			{
				"x": 1.6541510093,
				"y": 0.5986907209,
				"z": -2.4787029651,
				"element": "H" 
			},
			{
				"x": 0.4722519914,
				"y": 0.0786843754,
				"z": -4.4796303015,
				"element": "H" 
			},
			{
				"x": -1.6885072295,
				"y": -0.3708734161,
				"z": -5.579077419,
				"element": "H" 
			},
			{
				"x": -3.7614376217,
				"y": -0.6691299306,
				"z": -4.2218309283,
				"element": "H" 
			},
			{
				"x": -3.6171682927,
				"y": -0.5057405614,
				"z": -1.7406898578,
				"element": "H" 
			},
			{
				"x": -1.4693817958,
				"y": -0.0647352621,
				"z": -0.6333314929,
				"element": "H" 
			}
		],
		 "valence_orbital": [ 
			{
				"type": "occ",
				"energy": -0.2822,
				"method": "rhf"
			},
			{
				"type": "occ",
				"energy": -0.27081,
				"method": "rhf"
			},
			{
				"type": "occ",
				"energy": -0.26536,
				"method": "rhf"
			},
			{
				"type": "occ",
				"energy": -0.23227,
				"method": "rhf"
			},
			{
				"type": "occ",
				"energy": -0.18103,
				"method": "rhf"
			},
			{
				"type": "unocc",
				"energy": 0.01421,
				"method": "rhf"
			},
			{
				"type": "unocc",
				"energy": 0.02292,
				"method": "rhf"
			},
			{
				"type": "unocc",
				"energy": 0.03462,
				"method": "rhf"
			},
			{
				"type": "unocc",
				"energy": 0.05218,
				"method": "rhf"
			},
			{
				"type": "unocc",
				"energy": 0.08979,
				"method": "rhf"
			}
		],
		"cosmo_sigma_profile": { 
			"-0.025": 0.0,
			"-0.024": 0.0,
			"-0.023": 0.0,
			"-0.022": 0.0,
			"-0.021": 0.0,
			"-0.02": 0.0,
			"-0.019": 0.0,
			"-0.018": 0.0,
			"-0.017": 0.0,
			"-0.016": 0.0,
			"-0.015": 0.0,
			"-0.014": 0.890523884159,
			"-0.013": 1.23240881812,
			"-0.012": 4.65135033504,
			"-0.011": 4.67339105514,
			"-0.01": 5.61992293975,
			"-0.009": 5.0777747771,
			"-0.008": 3.95763932766,
			"-0.007": 3.49295844827,
			"-0.006": 3.56424501832,
			"-0.005": 13.3002764333,
			"-0.004": 15.9218216959,
			"-0.003": 16.8044198115,
			"-0.002": 14.5434875137,
			"-0.001": 11.3953316395,
			"0.0": 12.4556269907,
			"0.001": 10.2286751691,
			"0.002": 10.4917074616,
			"0.003": 9.24234906574,
			"0.004": 9.67419694393,
			"0.005": 11.1581483838,
			"0.006": 10.3831874006,
			"0.007": 11.1275576911,
			"0.008": 6.85233930167,
			"0.009": 2.60395995137,
			"0.01": 2.78579006605,
			"0.011": 2.35301050753,
			"0.012": 2.76761610364,
			"0.013": 4.39053021765,
			"0.014": 1.35246343414,
			"0.015": 0.0,
			"0.016": 0.0,
			"0.017": 0.0,
			"0.018": 0.0,
			"0.019": 0.0,
			"0.02": 0.0,
			"0.021": 0.0,
			"0.022": 0.0,
			"0.023": 0.0,
			"0.024": 0.0,
			"0.025": 0.0
		}
	}
}
