{
	 "smiles": "ClC(=O)C1=CC2=C(Cl)C=C(Cl)C=C2N1", 
	 "Tm": 447.15, 
	 "num_atms": 18, 
	 "gaussian": { 
		 "optdone": 1, 
		 "sigma_profile": "yes", 
		 "theory": "DFT", 
		 "functional": "B3LYP", 
		 "basiset": "6-31G**", 
		 "properties": { 
			 "R2extent": 4990.841, 
			 "electric_dipole_moment_norm": 2.42007750909, 
			 "electric_quadrupole_moment_norm": 14.4269033334, 
			 "total_energy": -1855.93592551, 
			 "HOMO_LUMO_gap": 0.14812, 
			 "cosmo_polarized_energy": -9.38, 
			 "cosmo_cavitation_energy": 29.01, 
			 "cosmo_dispersion_energy": -21.68, 
			 "cosmo_repulsion_energy": 1.7, 
			 "cosmo_total_nonelectrostatic_energy": 9.04, 
			 "SMD_solvation_energy": 4.56 
		},
		"coords": [
			{
				"x": 2.5556171851,
				"y": -1.3048578623,
				"z": 3.5955438782,
				"element": "Cl" 
			},
			{
				"x": 2.6727906292,
				"y": -1.4316139445,
				"z": 1.7547508414,
				"element": "C" 
			},
			{
				"x": 3.6630660495,
				"y": -1.8655818646,
				"z": 1.2500457672,
				"element": "O" 
			},
			{
				"x": 1.4767431926,
				"y": -0.9618803522,
				"z": 1.080386066,
				"element": "C" 
			},
			{
				"x": 1.2718266746,
				"y": -0.9346045963,
				"z": -0.2883906375,
				"element": "C" 
			},
			{
				"x": -0.0275756385,
				"y": -0.4020660942,
				"z": -0.4963510261,
				"element": "C" 
			},
			{
				"x": -0.8149369549,
				"y": -0.1222720002,
				"z": -1.63203874,
				"element": "C" 
			},
			{
				"x": -0.1765275477,
				"y": -0.4557870281,
				"z": -3.225371715,
				"element": "Cl" 
			},
			{
				"x": -2.0815033391,
				"y": 0.4112735943,
				"z": -1.4914454364,
				"element": "C" 
			},
			{
				"x": -2.5834201494,
				"y": 0.6753403346,
				"z": -0.1957241796,
				"element": "C" 
			},
			{
				"x": -4.1954490333,
				"y": 1.3523522828,
				"z": -0.0645673649,
				"element": "Cl" 
			},
			{
				"x": -1.8641843056,
				"y": 0.4248626927,
				"z": 0.9602505876,
				"element": "C" 
			},
			{
				"x": -0.5821200549,
				"y": -0.1164609398,
				"z": 0.7889436398,
				"element": "C" 
			},
			{
				"x": 0.35298857,
				"y": -0.4663319922,
				"z": 1.7240639825,
				"element": "N" 
			},
			{
				"x": 1.9798602513,
				"y": -1.2613167967,
				"z": -1.0344469222,
				"element": "H" 
			},
			{
				"x": -2.6894273795,
				"y": 0.6276381694,
				"z": -2.3605753676,
				"element": "H" 
			},
			{
				"x": -2.2777410978,
				"y": 0.6386811806,
				"z": 1.9385407413,
				"element": "H" 
			},
			{
				"x": 0.2670929485,
				"y": -0.3880747834,
				"z": 2.7263858853,
				"element": "H" 
			}
		],
		 "valence_orbital": [ 
			{
				"type": "occ",
				"energy": -0.32205,
				"method": "rhf"
			},
			{
				"type": "occ",
				"energy": -0.30868,
				"method": "rhf"
			},
			{
				"type": "occ",
				"energy": -0.30529,
				"method": "rhf"
			},
			{
				"type": "occ",
				"energy": -0.262,
				"method": "rhf"
			},
			{
				"type": "occ",
				"energy": -0.24122,
				"method": "rhf"
			},
			{
				"type": "unocc",
				"energy": -0.0931,
				"method": "rhf"
			},
			{
				"type": "unocc",
				"energy": -0.02392,
				"method": "rhf"
			},
			{
				"type": "unocc",
				"energy": -0.01118,
				"method": "rhf"
			},
			{
				"type": "unocc",
				"energy": -0.00351,
				"method": "rhf"
			},
			{
				"type": "unocc",
				"energy": 0.00287,
				"method": "rhf"
			}
		],
		"cosmo_sigma_profile": { 
			"-0.025": 0.0,
			"-0.024": 0.0,
			"-0.023": 0.0,
			"-0.022": 0.0,
			"-0.021": 0.0,
			"-0.02": 0.0,
			"-0.019": 0.0,
			"-0.018": 0.0,
			"-0.017": 0.169526448316,
			"-0.016": 0.98469328488,
			"-0.015": 1.07074495495,
			"-0.014": 0.605033059446,
			"-0.013": 1.48281635041,
			"-0.012": 1.00291987968,
			"-0.011": 1.26472742839,
			"-0.01": 1.52483715738,
			"-0.009": 3.14504883529,
			"-0.008": 4.27369676645,
			"-0.007": 4.33848596619,
			"-0.006": 5.56734600652,
			"-0.005": 7.20670179359,
			"-0.004": 9.20606329385,
			"-0.003": 10.3866919062,
			"-0.002": 13.0603089558,
			"-0.001": 20.0408696118,
			"0.0": 32.9507430908,
			"0.001": 36.4325741259,
			"0.002": 21.2109933423,
			"0.003": 20.8810205422,
			"0.004": 24.2251827488,
			"0.005": 7.45787879716,
			"0.006": 2.41619326396,
			"0.007": 2.49257822257,
			"0.008": 4.93933231871,
			"0.009": 2.92651787326,
			"0.01": 0.186483572147,
			"0.011": 0.0,
			"0.012": 0.0,
			"0.013": 0.0,
			"0.014": 0.0,
			"0.015": 0.0,
			"0.016": 0.0,
			"0.017": 0.0,
			"0.018": 0.0,
			"0.019": 0.0,
			"0.02": 0.0,
			"0.021": 0.0,
			"0.022": 0.0,
			"0.023": 0.0,
			"0.024": 0.0,
			"0.025": 0.0
		}
	}
}
