{
	 "smiles": "CC1(C)NC(=O)N(CCCC(O)=O)C1=O", 
	 "Tm": 371.15, 
	 "num_atms": 29, 
	 "gaussian": { 
		 "optdone": 1, 
		 "sigma_profile": "yes", 
		 "theory": "DFT", 
		 "functional": "B3LYP", 
		 "basiset": "6-31G**", 
		 "properties": { 
			 "R2extent": 4751.3568, 
			 "electric_dipole_moment_norm": 3.6178168251, 
			 "electric_quadrupole_moment_norm": 17.31327601, 
			 "total_energy": -761.868480552, 
			 "HOMO_LUMO_gap": 0.25306, 
			 "cosmo_polarized_energy": -20.71, 
			 "cosmo_cavitation_energy": 33.45, 
			 "cosmo_dispersion_energy": -22.79, 
			 "cosmo_repulsion_energy": 1.84, 
			 "cosmo_total_nonelectrostatic_energy": 12.5, 
			 "SMD_solvation_energy": 7.84 
		},
		"coords": [
			{
				"x": -0.1641504185,
				"y": -1.9265518236,
				"z": 3.1151802625,
				"element": "C" 
			},
			{
				"x": 0.5452392086,
				"y": -0.6875647034,
				"z": 2.5437728859,
				"element": "C" 
			},
			{
				"x": 1.7611920162,
				"y": -0.2941570968,
				"z": 3.3962945156,
				"element": "C" 
			},
			{
				"x": -0.3714901572,
				"y": 0.4320446639,
				"z": 2.3326599929,
				"element": "N" 
			},
			{
				"x": -0.5611842115,
				"y": 0.7503288133,
				"z": 1.0151454986,
				"element": "C" 
			},
			{
				"x": -1.3011136327,
				"y": 1.5851229289,
				"z": 0.5313577321,
				"element": "O" 
			},
			{
				"x": 0.3054559655,
				"y": -0.0941814468,
				"z": 0.2800724591,
				"element": "N" 
			},
			{
				"x": 0.41866347,
				"y": -0.0407976884,
				"z": -1.170761488,
				"element": "C" 
			},
			{
				"x": -0.6370855257,
				"y": -0.9030153351,
				"z": -1.8740778682,
				"element": "C" 
			},
			{
				"x": -0.4959493418,
				"y": -0.8188927571,
				"z": -3.4031111509,
				"element": "C" 
			},
			{
				"x": -1.5045707846,
				"y": -1.6613296117,
				"z": -4.154048554,
				"element": "C" 
			},
			{
				"x": -2.7768504743,
				"y": -1.3962994018,
				"z": -3.763373596,
				"element": "O" 
			},
			{
				"x": -1.2463259591,
				"y": -2.4737650384,
				"z": -5.0137518268,
				"element": "O" 
			},
			{
				"x": 0.9910179813,
				"y": -0.9701246503,
				"z": 1.093230121,
				"element": "C" 
			},
			{
				"x": 1.7972321869,
				"y": -1.8096049054,
				"z": 0.7399871235,
				"element": "O" 
			},
			{
				"x": -0.4918275657,
				"y": -1.7390770692,
				"z": 4.1431460127,
				"element": "H" 
			},
			{
				"x": 0.5226566582,
				"y": -2.776860767,
				"z": 3.1185460949,
				"element": "H" 
			},
			{
				"x": -1.0397935304,
				"y": -2.1883078857,
				"z": 2.5142675655,
				"element": "H" 
			},
			{
				"x": 1.4574416249,
				"y": -0.1015891937,
				"z": 4.4303936567,
				"element": "H" 
			},
			{
				"x": 2.2362863254,
				"y": 0.60797947,
				"z": 3.0016114152,
				"element": "H" 
			},
			{
				"x": 2.493040638,
				"y": -1.1060211039,
				"z": 3.391411099,
				"element": "H" 
			},
			{
				"x": -0.9768521779,
				"y": 0.8188812845,
				"z": 3.0398195542,
				"element": "H" 
			},
			{
				"x": 0.3115510469,
				"y": 1.0071215387,
				"z": -1.4654562693,
				"element": "H" 
			},
			{
				"x": 1.4274588727,
				"y": -0.3803677238,
				"z": -1.4222278284,
				"element": "H" 
			},
			{
				"x": -1.6336521799,
				"y": -0.565275915,
				"z": -1.5762807061,
				"element": "H" 
			},
			{
				"x": -0.524688029,
				"y": -1.9426716834,
				"z": -1.5457038558,
				"element": "H" 
			},
			{
				"x": -0.6311645515,
				"y": 0.2224312055,
				"z": -3.7246452794,
				"element": "H" 
			},
			{
				"x": 0.4946986493,
				"y": -1.1434229833,
				"z": -3.7313878774,
				"element": "H" 
			},
			{
				"x": -3.3471361041,
				"y": -1.9723311209,
				"z": -4.2997696889,
				"element": "H" 
			}
		],
		 "valence_orbital": [ 
			{
				"type": "occ",
				"energy": -0.28923,
				"method": "rhf"
			},
			{
				"type": "occ",
				"energy": -0.28008,
				"method": "rhf"
			},
			{
				"type": "occ",
				"energy": -0.27155,
				"method": "rhf"
			},
			{
				"type": "occ",
				"energy": -0.26463,
				"method": "rhf"
			},
			{
				"type": "occ",
				"energy": -0.26186,
				"method": "rhf"
			},
			{
				"type": "unocc",
				"energy": -0.0088,
				"method": "rhf"
			},
			{
				"type": "unocc",
				"energy": 0.00795,
				"method": "rhf"
			},
			{
				"type": "unocc",
				"energy": 0.05772,
				"method": "rhf"
			},
			{
				"type": "unocc",
				"energy": 0.07132,
				"method": "rhf"
			},
			{
				"type": "unocc",
				"energy": 0.07425,
				"method": "rhf"
			}
		],
		"cosmo_sigma_profile": { 
			"-0.025": 0.0,
			"-0.024": 0.0,
			"-0.023": 0.0,
			"-0.022": 0.0,
			"-0.021": 0.0,
			"-0.02": 0.0,
			"-0.019": 0.0,
			"-0.018": 0.635962002916,
			"-0.017": 0.780698946811,
			"-0.016": 1.15388515063,
			"-0.015": 1.96221116743,
			"-0.014": 1.6720551371,
			"-0.013": 1.34850400084,
			"-0.012": 1.09210514878,
			"-0.011": 2.72607937237,
			"-0.01": 1.87651001453,
			"-0.009": 1.42943327643,
			"-0.008": 1.75350636846,
			"-0.007": 4.06832108791,
			"-0.006": 12.1490503975,
			"-0.005": 21.3122047551,
			"-0.004": 25.0727541695,
			"-0.003": 26.3010510294,
			"-0.002": 25.7211547318,
			"-0.001": 23.6406616379,
			"0.0": 16.8021268164,
			"0.001": 7.54409716788,
			"0.002": 7.45698144079,
			"0.003": 8.07308879777,
			"0.004": 5.20316511622,
			"0.005": 5.55264332288,
			"0.006": 6.17684164294,
			"0.007": 5.54672790822,
			"0.008": 4.83781795489,
			"0.009": 4.43408375409,
			"0.01": 5.30151468226,
			"0.011": 7.29452250572,
			"0.012": 13.3978432875,
			"0.013": 8.23475535859,
			"0.014": 0.945224153452,
			"0.015": 0.0,
			"0.016": 0.0,
			"0.017": 0.0,
			"0.018": 0.0,
			"0.019": 0.0,
			"0.02": 0.0,
			"0.021": 0.0,
			"0.022": 0.0,
			"0.023": 0.0,
			"0.024": 0.0,
			"0.025": 0.0
		}
	}
}
