{
	 "smiles": "[O-][N+](=O)C1=CC=C(NC(=O)C(C(F)(F)F)(C(F)(F)F)C(F)(F)F)C=C1", 
	 "Tm": 554.15, 
	 "num_atms": 30, 
	 "gaussian": { 
		 "optdone": 1, 
		 "sigma_profile": "yes", 
		 "theory": "DFT", 
		 "functional": "B3LYP", 
		 "basiset": "6-31G**", 
		 "properties": { 
			 "R2extent": 10134.5881, 
			 "electric_dipole_moment_norm": 4.2700027377, 
			 "electric_quadrupole_moment_norm": 35.0991322478, 
			 "total_energy": -1655.83233991, 
			 "HOMO_LUMO_gap": 0.16934, 
			 "cosmo_polarized_energy": -13.19, 
			 "cosmo_cavitation_energy": 38.43, 
			 "cosmo_dispersion_energy": -26.33, 
			 "cosmo_repulsion_energy": 1.78, 
			 "cosmo_total_nonelectrostatic_energy": 13.89, 
			 "SMD_solvation_energy": 12.07 
		},
		"coords": [
			{
				"x": -0.120965448,
				"y": -7.0320491405,
				"z": 0.9820788265,
				"element": "O" 
			},
			{
				"x": 0.2345758795,
				"y": -6.2276920076,
				"z": 1.8429632078,
				"element": "N" 
			},
			{
				"x": 0.596975255,
				"y": -6.5298899742,
				"z": 2.9804263816,
				"element": "O" 
			},
			{
				"x": 0.2265038024,
				"y": -4.8037138758,
				"z": 1.4892455429,
				"element": "C" 
			},
			{
				"x": 0.6235529797,
				"y": -3.8662908726,
				"z": 2.4419875474,
				"element": "C" 
			},
			{
				"x": 0.6132746386,
				"y": -2.5226479062,
				"z": 2.1002781176,
				"element": "C" 
			},
			{
				"x": 0.2096924726,
				"y": -2.1136020121,
				"z": 0.8158608764,
				"element": "C" 
			},
			{
				"x": 0.2332124567,
				"y": -0.7272474434,
				"z": 0.5633522866,
				"element": "N" 
			},
			{
				"x": -0.1037560106,
				"y": -0.0780149585,
				"z": -0.5930392035,
				"element": "C" 
			},
			{
				"x": -0.4881462797,
				"y": -0.6181817051,
				"z": -1.6102962326,
				"element": "O" 
			},
			{
				"x": 0.0418274377,
				"y": 1.4954406261,
				"z": -0.529050857,
				"element": "C" 
			},
			{
				"x": -0.3779968454,
				"y": 2.0747763937,
				"z": -1.9260178169,
				"element": "C" 
			},
			{
				"x": -1.6478956213,
				"y": 1.7684154514,
				"z": -2.2074426265,
				"element": "F" 
			},
			{
				"x": 0.4128158164,
				"y": 1.6039093949,
				"z": -2.8948675505,
				"element": "F" 
			},
			{
				"x": -0.2738081146,
				"y": 3.4160079205,
				"z": -1.9346452628,
				"element": "F" 
			},
			{
				"x": 1.5222435513,
				"y": 1.8838856424,
				"z": -0.242775704,
				"element": "C" 
			},
			{
				"x": 2.3337235024,
				"y": 1.2947036587,
				"z": -1.1306220651,
				"element": "F" 
			},
			{
				"x": 1.9091206966,
				"y": 1.4724815048,
				"z": 0.9891962767,
				"element": "F" 
			},
			{
				"x": 1.7181838633,
				"y": 3.2048993847,
				"z": -0.2929140426,
				"element": "F" 
			},
			{
				"x": -0.9024549662,
				"y": 2.0744788565,
				"z": 0.5651655067,
				"element": "C" 
			},
			{
				"x": -0.9023288145,
				"y": 3.4108451293,
				"z": 0.578855108,
				"element": "F" 
			},
			{
				"x": -2.1559945009,
				"y": 1.6466184061,
				"z": 0.3664368443,
				"element": "F" 
			},
			{
				"x": -0.5300315222,
				"y": 1.6653039291,
				"z": 1.8021562819,
				"element": "F" 
			},
			{
				"x": -0.187597072,
				"y": -3.0715046339,
				"z": -0.132521678,
				"element": "C" 
			},
			{
				"x": -0.1764689667,
				"y": -4.4190937997,
				"z": 0.2128655603,
				"element": "C" 
			},
			{
				"x": 0.9309514151,
				"y": -4.199745905,
				"z": 3.4249627941,
				"element": "H" 
			},
			{
				"x": 0.920419157,
				"y": -1.7812142028,
				"z": 2.8330573006,
				"element": "H" 
			},
			{
				"x": 0.5388974179,
				"y": -0.1550581571,
				"z": 1.3373778153,
				"element": "H" 
			},
			{
				"x": -0.4973279029,
				"y": -2.7583330733,
				"z": -1.1182904268,
				"element": "H" 
			},
			{
				"x": -0.477698277,
				"y": -5.1777866306,
				"z": -0.4985828086,
				"element": "H" 
			}
		],
		 "valence_orbital": [ 
			{
				"type": "occ",
				"energy": -0.31282,
				"method": "rhf"
			},
			{
				"type": "occ",
				"energy": -0.30613,
				"method": "rhf"
			},
			{
				"type": "occ",
				"energy": -0.2944,
				"method": "rhf"
			},
			{
				"type": "occ",
				"energy": -0.29056,
				"method": "rhf"
			},
			{
				"type": "occ",
				"energy": -0.26607,
				"method": "rhf"
			},
			{
				"type": "unocc",
				"energy": -0.09673,
				"method": "rhf"
			},
			{
				"type": "unocc",
				"energy": -0.04368,
				"method": "rhf"
			},
			{
				"type": "unocc",
				"energy": -0.03913,
				"method": "rhf"
			},
			{
				"type": "unocc",
				"energy": 0.01137,
				"method": "rhf"
			},
			{
				"type": "unocc",
				"energy": 0.04755,
				"method": "rhf"
			}
		],
		"cosmo_sigma_profile": { 
			"-0.025": 0.0,
			"-0.024": 0.0,
			"-0.023": 0.0,
			"-0.022": 0.0,
			"-0.021": 0.0,
			"-0.02": 0.0,
			"-0.019": 0.0,
			"-0.018": 0.0,
			"-0.017": 0.00500972879994,
			"-0.016": 0.369426986018,
			"-0.015": 0.89601234678,
			"-0.014": 0.456988541715,
			"-0.013": 0.997180284082,
			"-0.012": 1.25453061143,
			"-0.011": 1.22469517108,
			"-0.01": 0.8594275172,
			"-0.009": 2.52363057936,
			"-0.008": 4.63779638062,
			"-0.007": 5.82646303356,
			"-0.006": 8.15466773601,
			"-0.005": 10.8587643507,
			"-0.004": 13.9754348284,
			"-0.003": 16.7178779213,
			"-0.002": 20.8657575137,
			"-0.001": 28.8258108708,
			"0.0": 48.7883014082,
			"0.001": 73.6610811279,
			"0.002": 17.594078346,
			"0.003": 4.94700661696,
			"0.004": 5.02804220108,
			"0.005": 5.5915962275,
			"0.006": 4.95075228115,
			"0.007": 10.1002578394,
			"0.008": 10.1640729718,
			"0.009": 7.20073457274,
			"0.01": 3.48226607515,
			"0.011": 0.19970849256,
			"0.012": 0.0,
			"0.013": 0.0,
			"0.014": 0.0,
			"0.015": 0.0,
			"0.016": 0.0,
			"0.017": 0.0,
			"0.018": 0.0,
			"0.019": 0.0,
			"0.02": 0.0,
			"0.021": 0.0,
			"0.022": 0.0,
			"0.023": 0.0,
			"0.024": 0.0,
			"0.025": 0.0
		}
	}
}
