{
	 "smiles": "[O-][N+](=O)C1=C(I)C=CC(Br)=C1", 
	 "Tm": 358.15, 
	 "num_atms": 14, 
	 "gaussian": { 
		 "optdone": 1, 
		 "sigma_profile": "yes", 
		 "theory": "DFT", 
		 "functional": "B3LYP", 
		 "basiset": "6-31G**", 
		 "properties": { 
			 "R2extent": 4371.9467, 
			 "electric_dipole_moment_norm": 3.48723904257, 
			 "electric_quadrupole_moment_norm": 10.4644189762, 
			 "total_energy": -3018.31349244, 
			 "HOMO_LUMO_gap": 0.17167, 
			 "cosmo_polarized_energy": -8.24, 
			 "cosmo_cavitation_energy": 25.4, 
			 "cosmo_dispersion_energy": -19.78, 
			 "cosmo_repulsion_energy": 1.56, 
			 "cosmo_total_nonelectrostatic_energy": 7.18, 
			 "SMD_solvation_energy": 5.04 
		},
		"coords": [
			{
				"x": 0.1742216531,
				"y": 0.700259533,
				"z": 3.4979856419,
				"element": "O" 
			},
			{
				"x": -0.0542347815,
				"y": 0.8795980795,
				"z": 2.3075511849,
				"element": "N" 
			},
			{
				"x": -0.8685352467,
				"y": 1.6606513942,
				"z": 1.8296754378,
				"element": "O" 
			},
			{
				"x": 0.7523159289,
				"y": 0.0921435104,
				"z": 1.3501185348,
				"element": "C" 
			},
			{
				"x": 0.3223675511,
				"y": -1.1559745299,
				"z": 0.8999325689,
				"element": "C" 
			},
			{
				"x": -1.4925303425,
				"y": -2.0140643107,
				"z": 1.5393034882,
				"element": "I" 
			},
			{
				"x": 1.1330071806,
				"y": -1.8483375049,
				"z": -0.0051272558,
				"element": "C" 
			},
			{
				"x": 2.3382825506,
				"y": -1.3018485755,
				"z": -0.4433980656,
				"element": "C" 
			},
			{
				"x": 2.7397514341,
				"y": -0.0513586751,
				"z": 0.0258472268,
				"element": "C" 
			},
			{
				"x": 4.3833958471,
				"y": 0.6996721164,
				"z": -0.5686857805,
				"element": "Br" 
			},
			{
				"x": 1.9515640898,
				"y": 0.6584516006,
				"z": 0.9270273892,
				"element": "C" 
			},
			{
				"x": 0.822284522,
				"y": -2.8204515376,
				"z": -0.3707641877,
				"element": "H" 
			},
			{
				"x": 2.9588284373,
				"y": -1.8469545025,
				"z": -1.1449652553,
				"element": "H" 
			},
			{
				"x": 2.2565811759,
				"y": 1.6304134022,
				"z": 1.2961990724,
				"element": "H" 
			}
		],
		 "valence_orbital": [ 
			{
				"type": "occ",
				"energy": -0.30948,
				"method": "rhf"
			},
			{
				"type": "occ",
				"energy": -0.29915,
				"method": "rhf"
			},
			{
				"type": "occ",
				"energy": -0.28908,
				"method": "rhf"
			},
			{
				"type": "occ",
				"energy": -0.28698,
				"method": "rhf"
			},
			{
				"type": "occ",
				"energy": -0.25796,
				"method": "rhf"
			},
			{
				"type": "unocc",
				"energy": -0.08629,
				"method": "rhf"
			},
			{
				"type": "unocc",
				"energy": -0.06133,
				"method": "rhf"
			},
			{
				"type": "unocc",
				"energy": -0.05281,
				"method": "rhf"
			},
			{
				"type": "unocc",
				"energy": -0.05079,
				"method": "rhf"
			},
			{
				"type": "unocc",
				"energy": -0.01529,
				"method": "rhf"
			}
		],
		"cosmo_sigma_profile": { 
			"-0.025": 0.0,
			"-0.024": 0.0,
			"-0.023": 0.0,
			"-0.022": 0.0,
			"-0.021": 0.0,
			"-0.02": 0.0,
			"-0.019": 0.0,
			"-0.018": 0.0,
			"-0.017": 0.0,
			"-0.016": 0.0,
			"-0.015": 0.0,
			"-0.014": 0.0,
			"-0.013": 0.013685125593,
			"-0.012": 0.577236227791,
			"-0.011": 1.35736167038,
			"-0.01": 1.62419163557,
			"-0.009": 3.73430688193,
			"-0.008": 7.67952215733,
			"-0.007": 6.6386734466,
			"-0.006": 6.47102744781,
			"-0.005": 7.65491283199,
			"-0.004": 8.63632562325,
			"-0.003": 8.7006208362,
			"-0.002": 11.4544098797,
			"-0.001": 22.3454653319,
			"0.0": 27.5071510563,
			"0.001": 20.1690742629,
			"0.002": 17.8335352344,
			"0.003": 21.3337464914,
			"0.004": 9.8874661303,
			"0.005": 4.30255170624,
			"0.006": 8.37900574015,
			"0.007": 9.78244372406,
			"0.008": 5.73328108056,
			"0.009": 1.44633217159,
			"0.01": 0.0,
			"0.011": 0.0,
			"0.012": 0.0,
			"0.013": 0.0,
			"0.014": 0.0,
			"0.015": 0.0,
			"0.016": 0.0,
			"0.017": 0.0,
			"0.018": 0.0,
			"0.019": 0.0,
			"0.02": 0.0,
			"0.021": 0.0,
			"0.022": 0.0,
			"0.023": 0.0,
			"0.024": 0.0,
			"0.025": 0.0
		}
	}
}
