{
	 "smiles": "FC(F)(F)COC(=O)NC1=CN=CC=C1", 
	 "Tm": 414.15, 
	 "num_atms": 22, 
	 "gaussian": { 
		 "optdone": 1, 
		 "sigma_profile": "yes", 
		 "theory": "DFT", 
		 "functional": "B3LYP", 
		 "basiset": "6-31G**", 
		 "properties": { 
			 "R2extent": 4259.127, 
			 "electric_dipole_moment_norm": 0.72086350303, 
			 "electric_quadrupole_moment_norm": 5.6233865286, 
			 "total_energy": -868.556014328, 
			 "HOMO_LUMO_gap": 0.20742, 
			 "cosmo_polarized_energy": -12.52, 
			 "cosmo_cavitation_energy": 29.03, 
			 "cosmo_dispersion_energy": -20.17, 
			 "cosmo_repulsion_energy": 1.52, 
			 "cosmo_total_nonelectrostatic_energy": 10.37, 
			 "SMD_solvation_energy": 5.96 
		},
		"coords": [
			{
				"x": 3.1755023595,
				"y": -0.2528259049,
				"z": 1.6563565497,
				"element": "F" 
			},
			{
				"x": 3.0865097445,
				"y": 0.8107487375,
				"z": 0.8357076341,
				"element": "C" 
			},
			{
				"x": 4.2630671669,
				"y": 1.4668833635,
				"z": 0.8663730857,
				"element": "F" 
			},
			{
				"x": 2.1356225585,
				"y": 1.6272959035,
				"z": 1.3272501462,
				"element": "F" 
			},
			{
				"x": 2.7842692663,
				"y": 0.3940305837,
				"z": -0.590001794,
				"element": "C" 
			},
			{
				"x": 1.5351873611,
				"y": -0.2910105351,
				"z": -0.5512260473,
				"element": "O" 
			},
			{
				"x": 1.099589292,
				"y": -0.7412149965,
				"z": -1.7561824146,
				"element": "C" 
			},
			{
				"x": 1.7072751384,
				"y": -0.5844488701,
				"z": -2.7968437817,
				"element": "O" 
			},
			{
				"x": -0.1043467958,
				"y": -1.3934760673,
				"z": -1.6739590209,
				"element": "N" 
			},
			{
				"x": -0.9729012434,
				"y": -1.6896911872,
				"z": -0.60475659,
				"element": "C" 
			},
			{
				"x": -2.1463690444,
				"y": -2.3959473882,
				"z": -0.9293373717,
				"element": "C" 
			},
			{
				"x": -3.0731134981,
				"y": -2.7565981425,
				"z": -0.0465008893,
				"element": "N" 
			},
			{
				"x": -2.8725293677,
				"y": -2.4236662688,
				"z": 1.2356007121,
				"element": "C" 
			},
			{
				"x": -1.7451035893,
				"y": -1.7252258602,
				"z": 1.6627525085,
				"element": "C" 
			},
			{
				"x": -0.7727503793,
				"y": -1.3464211538,
				"z": 0.7386426177,
				"element": "C" 
			},
			{
				"x": 2.7293547602,
				"y": 1.2804597569,
				"z": -1.2264461582,
				"element": "H" 
			},
			{
				"x": 3.5809285938,
				"y": -0.2571666217,
				"z": -0.9575975721,
				"element": "H" 
			},
			{
				"x": -0.4025882923,
				"y": -1.7160421791,
				"z": -2.5846907304,
				"element": "H" 
			},
			{
				"x": -2.3310565726,
				"y": -2.677911188,
				"z": -1.9674951287,
				"element": "H" 
			},
			{
				"x": -3.642173242,
				"y": -2.7279480813,
				"z": 1.9412500391,
				"element": "H" 
			},
			{
				"x": -1.6212103522,
				"y": -1.4751343259,
				"z": 2.7117930482,
				"element": "H" 
			},
			{
				"x": 0.1074361359,
				"y": -0.8045895746,
				"z": 1.0525111578,
				"element": "H" 
			}
		],
		 "valence_orbital": [ 
			{
				"type": "occ",
				"energy": -0.32746,
				"method": "rhf"
			},
			{
				"type": "occ",
				"energy": -0.30258,
				"method": "rhf"
			},
			{
				"type": "occ",
				"energy": -0.28763,
				"method": "rhf"
			},
			{
				"type": "occ",
				"energy": -0.26207,
				"method": "rhf"
			},
			{
				"type": "occ",
				"energy": -0.23899,
				"method": "rhf"
			},
			{
				"type": "unocc",
				"energy": -0.03157,
				"method": "rhf"
			},
			{
				"type": "unocc",
				"energy": -0.02087,
				"method": "rhf"
			},
			{
				"type": "unocc",
				"energy": 0.04053,
				"method": "rhf"
			},
			{
				"type": "unocc",
				"energy": 0.06012,
				"method": "rhf"
			},
			{
				"type": "unocc",
				"energy": 0.08949,
				"method": "rhf"
			}
		],
		"cosmo_sigma_profile": { 
			"-0.025": 0.0,
			"-0.024": 0.0,
			"-0.023": 0.0,
			"-0.022": 0.0,
			"-0.021": 0.0,
			"-0.02": 0.0,
			"-0.019": 0.0,
			"-0.018": 0.0,
			"-0.017": 0.00301123611842,
			"-0.016": 0.785341924878,
			"-0.015": 1.06402158118,
			"-0.014": 1.5779865251,
			"-0.013": 0.715957552393,
			"-0.012": 0.933699191622,
			"-0.011": 1.42260238833,
			"-0.01": 1.48950487964,
			"-0.009": 6.07089567726,
			"-0.008": 5.59946718477,
			"-0.007": 7.81881679097,
			"-0.006": 9.44881679016,
			"-0.005": 10.7718620046,
			"-0.004": 10.2364432304,
			"-0.003": 11.364077523,
			"-0.002": 13.2567482711,
			"-0.001": 13.8791867959,
			"0.0": 18.4684918402,
			"0.001": 20.5813118707,
			"0.002": 39.345334446,
			"0.003": 24.430723407,
			"0.004": 3.77530747234,
			"0.005": 3.3036811896,
			"0.006": 2.32071871444,
			"0.007": 2.90490896479,
			"0.008": 1.98402222528,
			"0.009": 2.55127630076,
			"0.01": 2.65770165327,
			"0.011": 4.03473476201,
			"0.012": 6.18802797078,
			"0.013": 1.08968339866,
			"0.014": 0.992712122509,
			"0.015": 0.784336069906,
			"0.016": 0.824766704019,
			"0.017": 0.122912795177,
			"0.018": 0.0,
			"0.019": 0.0,
			"0.02": 0.0,
			"0.021": 0.0,
			"0.022": 0.0,
			"0.023": 0.0,
			"0.024": 0.0,
			"0.025": 0.0
		}
	}
}
