{
	 "smiles": "CN1N=C(CC(O)=O)C2=C(C=CC=C2)C1=O", 
	 "Tm": 463.15, 
	 "num_atms": 26, 
	 "gaussian": { 
		 "optdone": 1, 
		 "sigma_profile": "yes", 
		 "theory": "DFT", 
		 "functional": "B3LYP", 
		 "basiset": "6-31G**", 
		 "properties": { 
			 "R2extent": 3904.3082, 
			 "electric_dipole_moment_norm": 1.66576619308, 
			 "electric_quadrupole_moment_norm": 14.7500617067, 
			 "total_energy": -760.388674264, 
			 "HOMO_LUMO_gap": 0.17281, 
			 "cosmo_polarized_energy": -15.09, 
			 "cosmo_cavitation_energy": 30.55, 
			 "cosmo_dispersion_energy": -22.02, 
			 "cosmo_repulsion_energy": 1.71, 
			 "cosmo_total_nonelectrostatic_energy": 10.24, 
			 "SMD_solvation_energy": 6.0 
		},
		"coords": [
			{
				"x": 1.981019277,
				"y": -1.6771422537,
				"z": 1.1173216198,
				"element": "C" 
			},
			{
				"x": 1.2415226896,
				"y": -0.7977460493,
				"z": 0.213785581,
				"element": "N" 
			},
			{
				"x": 0.0251002009,
				"y": -1.2421053302,
				"z": -0.1809575579,
				"element": "N" 
			},
			{
				"x": -0.6915762627,
				"y": -0.5088925904,
				"z": -0.9834732385,
				"element": "C" 
			},
			{
				"x": -2.0284865145,
				"y": -1.1015760908,
				"z": -1.3805796764,
				"element": "C" 
			},
			{
				"x": -3.2258274188,
				"y": -0.3286478194,
				"z": -0.8487048044,
				"element": "C" 
			},
			{
				"x": -3.3047264408,
				"y": -0.3885331815,
				"z": 0.4980835266,
				"element": "O" 
			},
			{
				"x": -4.0290445233,
				"y": 0.2737952218,
				"z": -1.5280325801,
				"element": "O" 
			},
			{
				"x": -0.239926786,
				"y": 0.7736230916,
				"z": -1.4907817418,
				"element": "C" 
			},
			{
				"x": 1.0344707073,
				"y": 1.2222578427,
				"z": -1.0778553746,
				"element": "C" 
			},
			{
				"x": 1.5435720756,
				"y": 2.4468137513,
				"z": -1.5338808048,
				"element": "C" 
			},
			{
				"x": 0.7905897612,
				"y": 3.2264983761,
				"z": -2.3989951323,
				"element": "C" 
			},
			{
				"x": -0.4791621207,
				"y": 2.7897948653,
				"z": -2.8138329149,
				"element": "C" 
			},
			{
				"x": -0.9945558185,
				"y": 1.5804726958,
				"z": -2.3696617412,
				"element": "C" 
			},
			{
				"x": 1.8425547171,
				"y": 0.4029982541,
				"z": -0.1633380311,
				"element": "C" 
			},
			{
				"x": 2.9569807115,
				"y": 0.702813671,
				"z": 0.2591359805,
				"element": "O" 
			},
			{
				"x": 2.1932697807,
				"y": -1.1589324391,
				"z": 2.0559257009,
				"element": "H" 
			},
			{
				"x": 1.3611864134,
				"y": -2.5536710167,
				"z": 1.295931168,
				"element": "H" 
			},
			{
				"x": 2.9343142416,
				"y": -1.964861022,
				"z": 0.6665613472,
				"element": "H" 
			},
			{
				"x": -2.0638886681,
				"y": -2.1160724715,
				"z": -0.9759483933,
				"element": "H" 
			},
			{
				"x": -2.1342905435,
				"y": -1.1461699405,
				"z": -2.467539843,
				"element": "H" 
			},
			{
				"x": -4.0838468287,
				"y": 0.1359618448,
				"z": 0.7495142664,
				"element": "H" 
			},
			{
				"x": 2.5265585482,
				"y": 2.751626603,
				"z": -1.1914081149,
				"element": "H" 
			},
			{
				"x": 1.1795647585,
				"y": 4.1753681219,
				"z": -2.7560272438,
				"element": "H" 
			},
			{
				"x": -1.066829093,
				"y": 3.4053200823,
				"z": -3.4886080118,
				"element": "H" 
			},
			{
				"x": -1.9832428641,
				"y": 1.2664057834,
				"z": -2.6861339856,
				"element": "H" 
			}
		],
		 "valence_orbital": [ 
			{
				"type": "occ",
				"energy": -0.29046,
				"method": "rhf"
			},
			{
				"type": "occ",
				"energy": -0.28133,
				"method": "rhf"
			},
			{
				"type": "occ",
				"energy": -0.26624,
				"method": "rhf"
			},
			{
				"type": "occ",
				"energy": -0.25051,
				"method": "rhf"
			},
			{
				"type": "occ",
				"energy": -0.22718,
				"method": "rhf"
			},
			{
				"type": "unocc",
				"energy": -0.05437,
				"method": "rhf"
			},
			{
				"type": "unocc",
				"energy": -0.0447,
				"method": "rhf"
			},
			{
				"type": "unocc",
				"energy": -0.00411,
				"method": "rhf"
			},
			{
				"type": "unocc",
				"energy": 0.03007,
				"method": "rhf"
			},
			{
				"type": "unocc",
				"energy": 0.06675,
				"method": "rhf"
			}
		],
		"cosmo_sigma_profile": { 
			"-0.025": 0.0,
			"-0.024": 0.0,
			"-0.023": 0.0,
			"-0.022": 0.0,
			"-0.021": 0.0,
			"-0.02": 0.0,
			"-0.019": 0.215256147334,
			"-0.018": 1.10655996841,
			"-0.017": 0.812838415241,
			"-0.016": 0.733331048655,
			"-0.015": 1.06220156006,
			"-0.014": 0.500490445909,
			"-0.013": 0.432198200082,
			"-0.012": 0.824392982925,
			"-0.011": 0.93469750955,
			"-0.01": 0.332742393676,
			"-0.009": 0.593758004676,
			"-0.008": 1.43319517579,
			"-0.007": 8.61804305214,
			"-0.006": 15.0953742698,
			"-0.005": 17.1939908887,
			"-0.004": 18.8977513818,
			"-0.003": 22.7354597583,
			"-0.002": 19.5375572557,
			"-0.001": 15.2842020986,
			"0.0": 15.1469534055,
			"0.001": 17.4423101117,
			"0.002": 17.4430410998,
			"0.003": 13.4148280026,
			"0.004": 6.19032605518,
			"0.005": 4.50486586229,
			"0.006": 5.59699578317,
			"0.007": 5.55317205875,
			"0.008": 5.75839344183,
			"0.009": 5.06402346247,
			"0.01": 4.59437016521,
			"0.011": 6.2892719263,
			"0.012": 4.08870615746,
			"0.013": 4.8829880946,
			"0.014": 1.60485091479,
			"0.015": 0.0,
			"0.016": 0.0,
			"0.017": 0.0,
			"0.018": 0.0,
			"0.019": 0.0,
			"0.02": 0.0,
			"0.021": 0.0,
			"0.022": 0.0,
			"0.023": 0.0,
			"0.024": 0.0,
			"0.025": 0.0
		}
	}
}
