{
	 "smiles": "CC1=CC=C(Cl)C(C)=C1", 
	 "Tm": 240.65, 
	 "num_atms": 18, 
	 "gaussian": { 
		 "optdone": 1, 
		 "sigma_profile": "yes", 
		 "theory": "DFT", 
		 "functional": "B3LYP", 
		 "basiset": "6-31G**", 
		 "properties": { 
			 "R2extent": 2188.0888, 
			 "electric_dipole_moment_norm": 2.06075400036, 
			 "electric_quadrupole_moment_norm": 6.30275198782, 
			 "total_energy": -770.484668051, 
			 "HOMO_LUMO_gap": 0.22624, 
			 "cosmo_polarized_energy": -3.62, 
			 "cosmo_cavitation_energy": 22.81, 
			 "cosmo_dispersion_energy": -16.95, 
			 "cosmo_repulsion_energy": 1.39, 
			 "cosmo_total_nonelectrostatic_energy": 7.25, 
			 "SMD_solvation_energy": 3.77 
		},
		"coords": [
			{
				"x": -1.5296504312,
				"y": -2.4660791345,
				"z": 1.2429400455,
				"element": "C" 
			},
			{
				"x": -1.1044901362,
				"y": -1.0181390927,
				"z": 1.3105794517,
				"element": "C" 
			},
			{
				"x": -0.602060679,
				"y": -0.4666010206,
				"z": 2.4945452457,
				"element": "C" 
			},
			{
				"x": -0.1839796336,
				"y": 0.8619627277,
				"z": 2.541288422,
				"element": "C" 
			},
			{
				"x": -0.2695228152,
				"y": 1.649845696,
				"z": 1.3958008122,
				"element": "C" 
			},
			{
				"x": 0.2643659824,
				"y": 3.3288454345,
				"z": 1.4916401694,
				"element": "Cl" 
			},
			{
				"x": -0.7699245263,
				"y": 1.1450459195,
				"z": 0.1864316167,
				"element": "C" 
			},
			{
				"x": -0.8727139158,
				"y": 1.9918492708,
				"z": -1.0561400893,
				"element": "C" 
			},
			{
				"x": -1.1794403823,
				"y": -0.1946517445,
				"z": 0.1812595539,
				"element": "C" 
			},
			{
				"x": -0.6952495273,
				"y": -3.1111532662,
				"z": 0.9397930202,
				"element": "H" 
			},
			{
				"x": -2.3338431897,
				"y": -2.6141145478,
				"z": 0.5159762359,
				"element": "H" 
			},
			{
				"x": -1.8805601439,
				"y": -2.8254674639,
				"z": 2.214869012,
				"element": "H" 
			},
			{
				"x": -0.5365570409,
				"y": -1.0767655517,
				"z": 3.3916327757,
				"element": "H" 
			},
			{
				"x": 0.2030703173,
				"y": 1.2900874397,
				"z": 3.4595996373,
				"element": "H" 
			},
			{
				"x": -1.5112298745,
				"y": 2.8664250052,
				"z": -0.8912425708,
				"element": "H" 
			},
			{
				"x": 0.1080774432,
				"y": 2.3724838304,
				"z": -1.3611238737,
				"element": "H" 
			},
			{
				"x": -1.2892352748,
				"y": 1.4138192139,
				"z": -1.8846923182,
				"element": "H" 
			},
			{
				"x": -1.5738561721,
				"y": -0.6049927159,
				"z": -0.7459571461,
				"element": "H" 
			}
		],
		 "valence_orbital": [ 
			{
				"type": "occ",
				"energy": -0.34806,
				"method": "rhf"
			},
			{
				"type": "occ",
				"energy": -0.32031,
				"method": "rhf"
			},
			{
				"type": "occ",
				"energy": -0.30573,
				"method": "rhf"
			},
			{
				"type": "occ",
				"energy": -0.25024,
				"method": "rhf"
			},
			{
				"type": "occ",
				"energy": -0.23255,
				"method": "rhf"
			},
			{
				"type": "unocc",
				"energy": -0.00631,
				"method": "rhf"
			},
			{
				"type": "unocc",
				"energy": -0.00521,
				"method": "rhf"
			},
			{
				"type": "unocc",
				"energy": 0.03648,
				"method": "rhf"
			},
			{
				"type": "unocc",
				"energy": 0.10719,
				"method": "rhf"
			},
			{
				"type": "unocc",
				"energy": 0.11847,
				"method": "rhf"
			}
		],
		"cosmo_sigma_profile": { 
			"-0.025": 0.0,
			"-0.024": 0.0,
			"-0.023": 0.0,
			"-0.022": 0.0,
			"-0.021": 0.0,
			"-0.02": 0.0,
			"-0.019": 0.0,
			"-0.018": 0.0,
			"-0.017": 0.0,
			"-0.016": 0.0,
			"-0.015": 0.0,
			"-0.014": 0.0,
			"-0.013": 0.0,
			"-0.012": 0.0,
			"-0.011": 0.0,
			"-0.01": 0.0,
			"-0.009": 0.0,
			"-0.008": 0.0,
			"-0.007": 0.626983396856,
			"-0.006": 3.44126074855,
			"-0.005": 9.25166314703,
			"-0.004": 18.9302710347,
			"-0.003": 14.5628311871,
			"-0.002": 16.4762469862,
			"-0.001": 19.9863531198,
			"0.0": 23.2865182361,
			"0.001": 13.6380997172,
			"0.002": 13.8535136995,
			"0.003": 14.5885413806,
			"0.004": 15.8757487222,
			"0.005": 16.4900541872,
			"0.006": 1.83362291105,
			"0.007": 0.0,
			"0.008": 0.0,
			"0.009": 0.0,
			"0.01": 0.0,
			"0.011": 0.0,
			"0.012": 0.0,
			"0.013": 0.0,
			"0.014": 0.0,
			"0.015": 0.0,
			"0.016": 0.0,
			"0.017": 0.0,
			"0.018": 0.0,
			"0.019": 0.0,
			"0.02": 0.0,
			"0.021": 0.0,
			"0.022": 0.0,
			"0.023": 0.0,
			"0.024": 0.0,
			"0.025": 0.0
		}
	}
}
