{
	 "smiles": "CC(C)NC(=O)C1=CC(CN)=CC=C1", 
	 "Tm": 379.15, 
	 "num_atms": 30, 
	 "gaussian": { 
		 "optdone": 1, 
		 "sigma_profile": "yes", 
		 "theory": "DFT", 
		 "functional": "B3LYP", 
		 "basiset": "6-31G**", 
		 "properties": { 
			 "R2extent": 4137.3221, 
			 "electric_dipole_moment_norm": 3.38636664435, 
			 "electric_quadrupole_moment_norm": 14.9270161258, 
			 "total_energy": -613.561607956, 
			 "HOMO_LUMO_gap": 0.20646, 
			 "cosmo_polarized_energy": -14.25, 
			 "cosmo_cavitation_energy": 32.94, 
			 "cosmo_dispersion_energy": -23.01, 
			 "cosmo_repulsion_energy": 1.87, 
			 "cosmo_total_nonelectrostatic_energy": 11.8, 
			 "SMD_solvation_energy": 5.13 
		},
		"coords": [
			{
				"x": -3.1211339788,
				"y": 2.1531399443,
				"z": -2.1641434308,
				"element": "C" 
			},
			{
				"x": -1.6392063881,
				"y": 2.5494586936,
				"z": -2.2513250981,
				"element": "C" 
			},
			{
				"x": -1.3871465274,
				"y": 3.5704790291,
				"z": -3.3668020695,
				"element": "C" 
			},
			{
				"x": -1.1634915097,
				"y": 3.0836466483,
				"z": -0.9663737999,
				"element": "N" 
			},
			{
				"x": -0.5671189518,
				"y": 2.3930175402,
				"z": 0.0692781348,
				"element": "C" 
			},
			{
				"x": -0.7238402231,
				"y": 2.7520448291,
				"z": 1.2334819616,
				"element": "O" 
			},
			{
				"x": 0.329019161,
				"y": 1.2321914113,
				"z": -0.2604513856,
				"element": "C" 
			},
			{
				"x": 0.3563346046,
				"y": 0.160017513,
				"z": 0.6410743398,
				"element": "C" 
			},
			{
				"x": 1.202025706,
				"y": -0.9330733408,
				"z": 0.4420626265,
				"element": "C" 
			},
			{
				"x": 1.2360669763,
				"y": -2.0715378206,
				"z": 1.4458485633,
				"element": "C" 
			},
			{
				"x": 1.4897852271,
				"y": -3.3621868042,
				"z": 0.7976870818,
				"element": "N" 
			},
			{
				"x": 2.0460330189,
				"y": -0.9385693489,
				"z": -0.677715768,
				"element": "C" 
			},
			{
				"x": 2.0462916291,
				"y": 0.1355643076,
				"z": -1.5670064195,
				"element": "C" 
			},
			{
				"x": 1.1915632344,
				"y": 1.2204301697,
				"z": -1.3647712915,
				"element": "C" 
			},
			{
				"x": -3.7457615133,
				"y": 3.0242888302,
				"z": -1.9325068483,
				"element": "H" 
			},
			{
				"x": -3.4694220482,
				"y": 1.7364892888,
				"z": -3.1152152202,
				"element": "H" 
			},
			{
				"x": -3.279954982,
				"y": 1.4049634659,
				"z": -1.3819010876,
				"element": "H" 
			},
			{
				"x": -1.0547956636,
				"y": 1.650339746,
				"z": -2.4574999721,
				"element": "H" 
			},
			{
				"x": -1.7171640892,
				"y": 3.1786875852,
				"z": -4.3342588976,
				"element": "H" 
			},
			{
				"x": -0.3246338582,
				"y": 3.8204853177,
				"z": -3.4367049305,
				"element": "H" 
			},
			{
				"x": -1.9388468886,
				"y": 4.4989087022,
				"z": -3.1771886917,
				"element": "H" 
			},
			{
				"x": -1.7204652847,
				"y": 3.847782925,
				"z": -0.5959709543,
				"element": "H" 
			},
			{
				"x": -0.2953672603,
				"y": 0.2020715397,
				"z": 1.5092356708,
				"element": "H" 
			},
			{
				"x": 0.3112062178,
				"y": -2.0373425962,
				"z": 2.0464177688,
				"element": "H" 
			},
			{
				"x": 2.0606911034,
				"y": -1.8968216181,
				"z": 2.1506719742,
				"element": "H" 
			},
			{
				"x": 1.6103722226,
				"y": -4.0858304787,
				"z": 1.5010894073,
				"element": "H" 
			},
			{
				"x": 0.6859203672,
				"y": -3.6303840701,
				"z": 0.2347400046,
				"element": "H" 
			},
			{
				"x": 2.6951922434,
				"y": -1.7936650295,
				"z": -0.836080607,
				"element": "H" 
			},
			{
				"x": 2.7203747797,
				"y": 0.1317367622,
				"z": -2.4191678346,
				"element": "H" 
			},
			{
				"x": 1.2142726757,
				"y": 2.0657668577,
				"z": -2.0456032266,
				"element": "H" 
			}
		],
		 "valence_orbital": [ 
			{
				"type": "occ",
				"energy": -0.2569,
				"method": "rhf"
			},
			{
				"type": "occ",
				"energy": -0.24958,
				"method": "rhf"
			},
			{
				"type": "occ",
				"energy": -0.24724,
				"method": "rhf"
			},
			{
				"type": "occ",
				"energy": -0.23505,
				"method": "rhf"
			},
			{
				"type": "occ",
				"energy": -0.23188,
				"method": "rhf"
			},
			{
				"type": "unocc",
				"energy": -0.02542,
				"method": "rhf"
			},
			{
				"type": "unocc",
				"energy": -0.00259,
				"method": "rhf"
			},
			{
				"type": "unocc",
				"energy": 0.05525,
				"method": "rhf"
			},
			{
				"type": "unocc",
				"energy": 0.07615,
				"method": "rhf"
			},
			{
				"type": "unocc",
				"energy": 0.08681,
				"method": "rhf"
			}
		],
		"cosmo_sigma_profile": { 
			"-0.025": 0.0,
			"-0.024": 0.0,
			"-0.023": 0.0,
			"-0.022": 0.0,
			"-0.021": 0.0,
			"-0.02": 0.0,
			"-0.019": 0.0,
			"-0.018": 0.0,
			"-0.017": 0.0,
			"-0.016": 0.0,
			"-0.015": 0.0,
			"-0.014": 0.0,
			"-0.013": 0.0522654833353,
			"-0.012": 0.714546925807,
			"-0.011": 0.92814420615,
			"-0.01": 2.72982691657,
			"-0.009": 3.8718952243,
			"-0.008": 4.34769956151,
			"-0.007": 3.46692419812,
			"-0.006": 5.88101943569,
			"-0.005": 11.1690580447,
			"-0.004": 23.1970334202,
			"-0.003": 32.276653054,
			"-0.002": 27.9959701722,
			"-0.001": 25.153669687,
			"0.0": 22.171377772,
			"0.001": 20.262726206,
			"0.002": 10.1653556808,
			"0.003": 12.0136159676,
			"0.004": 11.007139081,
			"0.005": 10.7694266227,
			"0.006": 3.3502748151,
			"0.007": 2.03261340694,
			"0.008": 2.53617485188,
			"0.009": 2.75846025022,
			"0.01": 2.21604638186,
			"0.011": 1.99129932306,
			"0.012": 2.02564716859,
			"0.013": 4.25600375672,
			"0.014": 6.1401304621,
			"0.015": 1.69616150992,
			"0.016": 0.586481610361,
			"0.017": 0.151286664703,
			"0.018": 0.0,
			"0.019": 0.0,
			"0.02": 0.0,
			"0.021": 0.0,
			"0.022": 0.0,
			"0.023": 0.0,
			"0.024": 0.0,
			"0.025": 0.0
		}
	}
}
