{
	 "smiles": "ClCCCC(=O)NC1=CC=C(C=C1)C#N", 
	 "Tm": 388.15, 
	 "num_atms": 26, 
	 "gaussian": { 
		 "optdone": 1, 
		 "sigma_profile": "yes", 
		 "theory": "DFT", 
		 "functional": "B3LYP", 
		 "basiset": "6-31G**", 
		 "properties": { 
			 "R2extent": 5989.3844, 
			 "electric_dipole_moment_norm": 8.0030290603, 
			 "electric_quadrupole_moment_norm": 21.0787696652, 
			 "total_energy": -1070.73239846, 
			 "HOMO_LUMO_gap": 0.18627, 
			 "cosmo_polarized_energy": -17.43, 
			 "cosmo_cavitation_energy": 32.82, 
			 "cosmo_dispersion_energy": -23.01, 
			 "cosmo_repulsion_energy": 1.8, 
			 "cosmo_total_nonelectrostatic_energy": 11.62, 
			 "SMD_solvation_energy": 6.95 
		},
		"coords": [
			{
				"x": 1.7911973064,
				"y": -1.1778495283,
				"z": 1.7964576804,
				"element": "Cl" 
			},
			{
				"x": 0.7470633998,
				"y": -1.0334873962,
				"z": 3.2936511399,
				"element": "C" 
			},
			{
				"x": -0.6887138627,
				"y": -0.6670708605,
				"z": 2.9460066219,
				"element": "C" 
			},
			{
				"x": -1.4428533577,
				"y": -1.7498089802,
				"z": 2.1253770603,
				"element": "C" 
			},
			{
				"x": -2.1506438109,
				"y": -1.1909719361,
				"z": 0.8919140205,
				"element": "C" 
			},
			{
				"x": -3.3670460033,
				"y": -1.1198788844,
				"z": 0.8087974303,
				"element": "O" 
			},
			{
				"x": -1.2776019974,
				"y": -0.7724199159,
				"z": -0.096392377,
				"element": "N" 
			},
			{
				"x": -1.5684690353,
				"y": -0.1827176384,
				"z": -1.3362554687,
				"element": "C" 
			},
			{
				"x": -2.8779436749,
				"y": 0.0650216505,
				"z": -1.7853943277,
				"element": "C" 
			},
			{
				"x": -3.0774139475,
				"y": 0.6537936649,
				"z": -3.028446094,
				"element": "C" 
			},
			{
				"x": -1.9912846113,
				"y": 1.006220274,
				"z": -3.8468571366,
				"element": "C" 
			},
			{
				"x": -0.6842617603,
				"y": 0.7557087599,
				"z": -3.3938358981,
				"element": "C" 
			},
			{
				"x": -0.4790951473,
				"y": 0.1690701425,
				"z": -2.1546373896,
				"element": "C" 
			},
			{
				"x": -2.2100036155,
				"y": 1.6124152945,
				"z": -5.1254076163,
				"element": "C" 
			},
			{
				"x": -2.3856681986,
				"y": 2.1056947346,
				"z": -6.1648932344,
				"element": "N" 
			},
			{
				"x": 0.8202947974,
				"y": -1.9999115331,
				"z": 3.7953556723,
				"element": "H" 
			},
			{
				"x": 1.2229781828,
				"y": -0.2692766267,
				"z": 3.9088324172,
				"element": "H" 
			},
			{
				"x": -0.6877040759,
				"y": 0.2926479814,
				"z": 2.4190413943,
				"element": "H" 
			},
			{
				"x": -1.2116878541,
				"y": -0.4925723376,
				"z": 3.8938500916,
				"element": "H" 
			},
			{
				"x": -2.2147718623,
				"y": -2.2280877447,
				"z": 2.7295815077,
				"element": "H" 
			},
			{
				"x": -0.7419284089,
				"y": -2.529446447,
				"z": 1.8043518428,
				"element": "H" 
			},
			{
				"x": -0.2920386715,
				"y": -0.8978462293,
				"z": 0.1037980461,
				"element": "H" 
			},
			{
				"x": -3.7139888888,
				"y": -0.2066817938,
				"z": -1.1575390628,
				"element": "H" 
			},
			{
				"x": -4.0882449039,
				"y": 0.8442667759,
				"z": -3.3736166755,
				"element": "H" 
			},
			{
				"x": 0.1624637751,
				"y": 1.0232298441,
				"z": -4.0168438919,
				"element": "H" 
			},
			{
				"x": 0.5348662268,
				"y": -0.0199412702,
				"z": -1.8116957528,
				"element": "H" 
			}
		],
		 "valence_orbital": [ 
			{
				"type": "occ",
				"energy": -0.32244,
				"method": "rhf"
			},
			{
				"type": "occ",
				"energy": -0.30912,
				"method": "rhf"
			},
			{
				"type": "occ",
				"energy": -0.27307,
				"method": "rhf"
			},
			{
				"type": "occ",
				"energy": -0.26805,
				"method": "rhf"
			},
			{
				"type": "occ",
				"energy": -0.23533,
				"method": "rhf"
			},
			{
				"type": "unocc",
				"energy": -0.04906,
				"method": "rhf"
			},
			{
				"type": "unocc",
				"energy": -0.02095,
				"method": "rhf"
			},
			{
				"type": "unocc",
				"energy": -0.00415,
				"method": "rhf"
			},
			{
				"type": "unocc",
				"energy": 0.01176,
				"method": "rhf"
			},
			{
				"type": "unocc",
				"energy": 0.04343,
				"method": "rhf"
			}
		],
		"cosmo_sigma_profile": { 
			"-0.025": 0.0,
			"-0.024": 0.0,
			"-0.023": 0.0,
			"-0.022": 0.0,
			"-0.021": 0.0,
			"-0.02": 0.0,
			"-0.019": 0.0,
			"-0.018": 0.0,
			"-0.017": 0.0,
			"-0.016": 0.0,
			"-0.015": 0.0,
			"-0.014": 0.0,
			"-0.013": 0.0,
			"-0.012": 0.0,
			"-0.011": 0.530839127099,
			"-0.01": 1.09428657523,
			"-0.009": 1.32822411882,
			"-0.008": 6.39175782935,
			"-0.007": 13.8518262829,
			"-0.006": 19.3184518824,
			"-0.005": 26.608929592,
			"-0.004": 20.8836017328,
			"-0.003": 15.3732949071,
			"-0.002": 13.8727088307,
			"-0.001": 15.3370548891,
			"0.0": 16.8566305214,
			"0.001": 15.7274925684,
			"0.002": 20.8532556872,
			"0.003": 15.2267459809,
			"0.004": 7.51005331766,
			"0.005": 7.26115902938,
			"0.006": 10.70857956,
			"0.007": 5.28606299578,
			"0.008": 5.27234527672,
			"0.009": 4.7488798167,
			"0.01": 5.19173918305,
			"0.011": 5.26011108008,
			"0.012": 5.1922314018,
			"0.013": 4.26658091243,
			"0.014": 0.798272344969,
			"0.015": 0.0,
			"0.016": 0.0,
			"0.017": 0.0,
			"0.018": 0.0,
			"0.019": 0.0,
			"0.02": 0.0,
			"0.021": 0.0,
			"0.022": 0.0,
			"0.023": 0.0,
			"0.024": 0.0,
			"0.025": 0.0
		}
	}
}
