{
	 "smiles": "NNC(=O)NC1=CC=C(CCO)C=C1", 
	 "Tm": 423.15, 
	 "num_atms": 27, 
	 "gaussian": { 
		 "optdone": 1, 
		 "sigma_profile": "yes", 
		 "theory": "DFT", 
		 "functional": "B3LYP", 
		 "basiset": "6-31G**", 
		 "properties": { 
			 "R2extent": 4404.1087, 
			 "electric_dipole_moment_norm": 2.22683798692, 
			 "electric_quadrupole_moment_norm": 18.4689184128, 
			 "total_energy": -665.481237633, 
			 "HOMO_LUMO_gap": 0.20342, 
			 "cosmo_polarized_energy": -17.11, 
			 "cosmo_cavitation_energy": 30.67, 
			 "cosmo_dispersion_energy": -22.26, 
			 "cosmo_repulsion_energy": 1.79, 
			 "cosmo_total_nonelectrostatic_energy": 10.2, 
			 "SMD_solvation_energy": 6.22 
		},
		"coords": [
			{
				"x": -3.6401563649,
				"y": 2.067878379,
				"z": 1.8648820572,
				"element": "N" 
			},
			{
				"x": -2.652714394,
				"y": 1.0558514257,
				"z": 1.7834209668,
				"element": "N" 
			},
			{
				"x": -2.8765990497,
				"y": -0.1213538926,
				"z": 2.4779753379,
				"element": "C" 
			},
			{
				"x": -3.7862952508,
				"y": -0.24379553,
				"z": 3.2903029328,
				"element": "O" 
			},
			{
				"x": -2.0208334927,
				"y": -1.1805285184,
				"z": 2.2041378686,
				"element": "N" 
			},
			{
				"x": -0.8684763091,
				"y": -1.2741514379,
				"z": 1.3983399277,
				"element": "C" 
			},
			{
				"x": 0.0229098193,
				"y": -0.2071840263,
				"z": 1.2069746709,
				"element": "C" 
			},
			{
				"x": 1.1618963063,
				"y": -0.3800418003,
				"z": 0.4188189767,
				"element": "C" 
			},
			{
				"x": 1.4682349652,
				"y": -1.611012,
				"z": -0.1787993083,
				"element": "C" 
			},
			{
				"x": 2.6825587399,
				"y": -1.7676240088,
				"z": -1.0655331676,
				"element": "C" 
			},
			{
				"x": 2.4138500858,
				"y": -1.3356058466,
				"z": -2.5210179219,
				"element": "C" 
			},
			{
				"x": 2.0650948838,
				"y": 0.0336313317,
				"z": -2.6346373431,
				"element": "O" 
			},
			{
				"x": 0.5789941493,
				"y": -2.6738651234,
				"z": 0.0392935284,
				"element": "C" 
			},
			{
				"x": -0.5700825276,
				"y": -2.5126526773,
				"z": 0.8060297603,
				"element": "C" 
			},
			{
				"x": -4.5218550368,
				"y": 1.6067759366,
				"z": 2.0954645917,
				"element": "H" 
			},
			{
				"x": -3.4147366257,
				"y": 2.638245845,
				"z": 2.6782488391,
				"element": "H" 
			},
			{
				"x": -2.2440685967,
				"y": 0.9794217899,
				"z": 0.8607914275,
				"element": "H" 
			},
			{
				"x": -2.3466891338,
				"y": -2.0309108419,
				"z": 2.641976797,
				"element": "H" 
			},
			{
				"x": -0.1562692706,
				"y": 0.742955786,
				"z": 1.6965944731,
				"element": "H" 
			},
			{
				"x": 1.8453016886,
				"y": 0.4558196876,
				"z": 0.2932550659,
				"element": "H" 
			},
			{
				"x": 3.5107202655,
				"y": -1.1631997179,
				"z": -0.6784987931,
				"element": "H" 
			},
			{
				"x": 3.015466812,
				"y": -2.8127268301,
				"z": -1.0684431776,
				"element": "H" 
			},
			{
				"x": 3.3250879949,
				"y": -1.4647101682,
				"z": -3.1139911587,
				"element": "H" 
			},
			{
				"x": 1.6391085112,
				"y": -1.9851740735,
				"z": -2.959409472,
				"element": "H" 
			},
			{
				"x": 1.2327722722,
				"y": 0.1595229364,
				"z": -2.158877163,
				"element": "H" 
			},
			{
				"x": 0.7873611434,
				"y": -3.6454552847,
				"z": -0.4021091369,
				"element": "H" 
			},
			{
				"x": -1.2485815848,
				"y": -3.34951134,
				"z": 0.9507094206,
				"element": "H" 
			}
		],
		 "valence_orbital": [ 
			{
				"type": "occ",
				"energy": -0.27232,
				"method": "rhf"
			},
			{
				"type": "occ",
				"energy": -0.27019,
				"method": "rhf"
			},
			{
				"type": "occ",
				"energy": -0.26508,
				"method": "rhf"
			},
			{
				"type": "occ",
				"energy": -0.25436,
				"method": "rhf"
			},
			{
				"type": "occ",
				"energy": -0.22397,
				"method": "rhf"
			},
			{
				"type": "unocc",
				"energy": -0.02055,
				"method": "rhf"
			},
			{
				"type": "unocc",
				"energy": -0.01625,
				"method": "rhf"
			},
			{
				"type": "unocc",
				"energy": 0.0541,
				"method": "rhf"
			},
			{
				"type": "unocc",
				"energy": 0.08243,
				"method": "rhf"
			},
			{
				"type": "unocc",
				"energy": 0.08831,
				"method": "rhf"
			}
		],
		"cosmo_sigma_profile": { 
			"-0.025": 0.0,
			"-0.024": 0.0,
			"-0.023": 0.0,
			"-0.022": 0.0,
			"-0.021": 0.0,
			"-0.02": 0.0,
			"-0.019": 0.0,
			"-0.018": 0.0,
			"-0.017": 0.0,
			"-0.016": 0.0,
			"-0.015": 0.15523068676,
			"-0.014": 0.802040690005,
			"-0.013": 1.0404135403,
			"-0.012": 2.73046854765,
			"-0.011": 3.98129208159,
			"-0.01": 4.94501057437,
			"-0.009": 4.59259671187,
			"-0.008": 6.09450686157,
			"-0.007": 4.63791766523,
			"-0.006": 7.61749783009,
			"-0.005": 13.7142723665,
			"-0.004": 21.1262821173,
			"-0.003": 22.4852353714,
			"-0.002": 19.0191845442,
			"-0.001": 17.64516912,
			"0.0": 12.9059438276,
			"0.001": 14.9111081128,
			"0.002": 11.6326780363,
			"0.003": 11.5564340783,
			"0.004": 10.6431505719,
			"0.005": 9.65681177877,
			"0.006": 4.33237076607,
			"0.007": 2.4815828179,
			"0.008": 3.48067155541,
			"0.009": 2.97845013584,
			"0.01": 3.07806171616,
			"0.011": 2.88301745072,
			"0.012": 3.20365359151,
			"0.013": 7.0035623691,
			"0.014": 6.83886302535,
			"0.015": 2.05442216173,
			"0.016": 0.414767805383,
			"0.017": 0.416965847102,
			"0.018": 0.0,
			"0.019": 0.0,
			"0.02": 0.0,
			"0.021": 0.0,
			"0.022": 0.0,
			"0.023": 0.0,
			"0.024": 0.0,
			"0.025": 0.0
		}
	}
}
