{
	 "smiles": "CC(=O)NC1=C(C=CC2=CC=CC=C2)C=C(C=CC2=CC=CC=C2)C(=C1)[N+]([O-])=O", 
	 "Tm": 500.15, 
	 "num_atms": 49, 
	 "gaussian": { 
		 "optdone": 1, 
		 "sigma_profile": "yes", 
		 "theory": "DFT", 
		 "functional": "B3LYP", 
		 "basiset": "6-31G**", 
		 "properties": { 
			 "R2extent": 11924.7838, 
			 "electric_dipole_moment_norm": 5.07600725078, 
			 "electric_quadrupole_moment_norm": 17.8605718996, 
			 "total_energy": -1261.66816924, 
			 "HOMO_LUMO_gap": 0.1259, 
			 "cosmo_polarized_energy": -18.27, 
			 "cosmo_cavitation_energy": 53.87, 
			 "cosmo_dispersion_energy": -34.06, 
			 "cosmo_repulsion_energy": 2.58, 
			 "cosmo_total_nonelectrostatic_energy": 22.39, 
			 "SMD_solvation_energy": 11.56 
		},
		"coords": [
			{
				"x": -4.4988024317,
				"y": 1.809948839,
				"z": -1.8117480513,
				"element": "C" 
			},
			{
				"x": -3.3614260708,
				"y": 1.3462163223,
				"z": -2.7016116102,
				"element": "C" 
			},
			{
				"x": -3.4305643103,
				"y": 1.404372565,
				"z": -3.9195997123,
				"element": "O" 
			},
			{
				"x": -2.2174325474,
				"y": 0.8123472427,
				"z": -2.1182909799,
				"element": "N" 
			},
			{
				"x": -1.8646280975,
				"y": 0.6365151372,
				"z": -0.7708488743,
				"element": "C" 
			},
			{
				"x": -1.2250958046,
				"y": -0.5594552144,
				"z": -0.3385214219,
				"element": "C" 
			},
			{
				"x": -0.9527871606,
				"y": -1.7113200526,
				"z": -1.2303835584,
				"element": "C" 
			},
			{
				"x": -0.2592679328,
				"y": -1.7623994235,
				"z": -2.3838292672,
				"element": "C" 
			},
			{
				"x": 0.5129501214,
				"y": -0.7027093732,
				"z": -3.0571706122,
				"element": "C" 
			},
			{
				"x": 0.6103576405,
				"y": -0.7163439893,
				"z": -4.4618467079,
				"element": "C" 
			},
			{
				"x": 1.3317503205,
				"y": 0.2642691069,
				"z": -5.1393932066,
				"element": "C" 
			},
			{
				"x": 1.9879870569,
				"y": 1.2686341509,
				"z": -4.4249503942,
				"element": "C" 
			},
			{
				"x": 1.9211116721,
				"y": 1.2820197392,
				"z": -3.0296109227,
				"element": "C" 
			},
			{
				"x": 1.1937126562,
				"y": 0.3072154099,
				"z": -2.349962853,
				"element": "C" 
			},
			{
				"x": -0.937294328,
				"y": -0.7045919464,
				"z": 1.0221325424,
				"element": "C" 
			},
			{
				"x": -1.198073496,
				"y": 0.2737748874,
				"z": 1.9966122032,
				"element": "C" 
			},
			{
				"x": -0.9274680029,
				"y": -0.0358573412,
				"z": 3.4151418122,
				"element": "C" 
			},
			{
				"x": 0.1773211468,
				"y": -0.6106883425,
				"z": 3.9298152633,
				"element": "C" 
			},
			{
				"x": 1.4768521964,
				"y": -0.8926875077,
				"z": 3.2919817543,
				"element": "C" 
			},
			{
				"x": 2.0462606409,
				"y": -0.0499773159,
				"z": 2.3191222918,
				"element": "C" 
			},
			{
				"x": 3.2898001763,
				"y": -0.3418389143,
				"z": 1.7628526545,
				"element": "C" 
			},
			{
				"x": 3.9958408052,
				"y": -1.4780146462,
				"z": 2.1674429871,
				"element": "C" 
			},
			{
				"x": 3.4541617271,
				"y": -2.3120821838,
				"z": 3.1471252908,
				"element": "C" 
			},
			{
				"x": 2.21360493,
				"y": -2.0157106443,
				"z": 3.7097090628,
				"element": "C" 
			},
			{
				"x": -1.808815144,
				"y": 1.450210989,
				"z": 1.5182327434,
				"element": "C" 
			},
			{
				"x": -2.1186536226,
				"y": 1.6334854751,
				"z": 0.1714011027,
				"element": "C" 
			},
			{
				"x": -2.1101046664,
				"y": 2.5822476192,
				"z": 2.4095753249,
				"element": "N" 
			},
			{
				"x": -1.7296485286,
				"y": 2.5210523997,
				"z": 3.5795167843,
				"element": "O" 
			},
			{
				"x": -2.726344027,
				"y": 3.5385521546,
				"z": 1.9353217009,
				"element": "O" 
			},
			{
				"x": -4.5920286363,
				"y": 1.2293907313,
				"z": -0.8914521513,
				"element": "H" 
			},
			{
				"x": -4.366091915,
				"y": 2.8617528037,
				"z": -1.5375287332,
				"element": "H" 
			},
			{
				"x": -5.4152229126,
				"y": 1.7329527994,
				"z": -2.3979891606,
				"element": "H" 
			},
			{
				"x": -1.5900320418,
				"y": 0.4298014708,
				"z": -2.8156738116,
				"element": "H" 
			},
			{
				"x": -1.373532182,
				"y": -2.6513046793,
				"z": -0.8753392418,
				"element": "H" 
			},
			{
				"x": -0.2555807427,
				"y": -2.7216346252,
				"z": -2.8999082272,
				"element": "H" 
			},
			{
				"x": 0.1036094046,
				"y": -1.498303884,
				"z": -5.0213399895,
				"element": "H" 
			},
			{
				"x": 1.3835129561,
				"y": 0.2430512289,
				"z": -6.2238465583,
				"element": "H" 
			},
			{
				"x": 2.5545823647,
				"y": 2.0311247973,
				"z": -4.9511032064,
				"element": "H" 
			},
			{
				"x": 2.4446252671,
				"y": 2.0503996119,
				"z": -2.4680771676,
				"element": "H" 
			},
			{
				"x": 1.1719574079,
				"y": 0.3074330529,
				"z": -1.2653767354,
				"element": "H" 
			},
			{
				"x": -0.4946676438,
				"y": -1.6375496014,
				"z": 1.3539934656,
				"element": "H" 
			},
			{
				"x": -1.7367589351,
				"y": 0.1835204896,
				"z": 4.1039889623,
				"element": "H" 
			},
			{
				"x": 0.1223896878,
				"y": -0.8910847473,
				"z": 4.98097451,
				"element": "H" 
			},
			{
				"x": 1.519155672,
				"y": 0.850157319,
				"z": 2.021029479,
				"element": "H" 
			},
			{
				"x": 3.7166632908,
				"y": 0.3265545795,
				"z": 1.020283744,
				"element": "H" 
			},
			{
				"x": 4.9657257514,
				"y": -1.7021618198,
				"z": 1.7331660375,
				"element": "H" 
			},
			{
				"x": 4.0008613471,
				"y": -3.1902287899,
				"z": 3.4788582239,
				"element": "H" 
			},
			{
				"x": 1.8005901858,
				"y": -2.6642499393,
				"z": 4.4783139595,
				"element": "H" 
			},
			{
				"x": -2.5474632449,
				"y": 2.579594059,
				"z": -0.1241887454,
				"element": "H" 
			}
		],
		 "valence_orbital": [ 
			{
				"type": "occ",
				"energy": -0.25785,
				"method": "rhf"
			},
			{
				"type": "occ",
				"energy": -0.25559,
				"method": "rhf"
			},
			{
				"type": "occ",
				"energy": -0.25039,
				"method": "rhf"
			},
			{
				"type": "occ",
				"energy": -0.23662,
				"method": "rhf"
			},
			{
				"type": "occ",
				"energy": -0.22018,
				"method": "rhf"
			},
			{
				"type": "unocc",
				"energy": -0.09428,
				"method": "rhf"
			},
			{
				"type": "unocc",
				"energy": -0.0504,
				"method": "rhf"
			},
			{
				"type": "unocc",
				"energy": -0.04919,
				"method": "rhf"
			},
			{
				"type": "unocc",
				"energy": -0.01918,
				"method": "rhf"
			},
			{
				"type": "unocc",
				"energy": -0.01317,
				"method": "rhf"
			}
		],
		"cosmo_sigma_profile": { 
			"-0.025": 0.0,
			"-0.024": 0.0,
			"-0.023": 0.0,
			"-0.022": 0.0,
			"-0.021": 0.0,
			"-0.02": 0.0,
			"-0.019": 0.0,
			"-0.018": 0.0,
			"-0.017": 0.0,
			"-0.016": 0.0,
			"-0.015": 0.0,
			"-0.014": 0.0,
			"-0.013": 0.0,
			"-0.012": 0.0,
			"-0.011": 0.0,
			"-0.01": 0.145457921784,
			"-0.009": 1.06004340668,
			"-0.008": 1.54847203316,
			"-0.007": 4.82388449203,
			"-0.006": 26.66637816,
			"-0.005": 39.9458122092,
			"-0.004": 41.4546830157,
			"-0.003": 37.7535103698,
			"-0.002": 36.4213123201,
			"-0.001": 35.1526220419,
			"0.0": 32.3469432423,
			"0.001": 29.6275536114,
			"0.002": 27.4042349107,
			"0.003": 24.564487368,
			"0.004": 22.9756469542,
			"0.005": 19.7484458683,
			"0.006": 7.72637978391,
			"0.007": 8.29938919757,
			"0.008": 10.2058113192,
			"0.009": 5.77761578641,
			"0.01": 4.19118750741,
			"0.011": 2.23081057349,
			"0.012": 2.8444073093,
			"0.013": 5.78086252756,
			"0.014": 2.29946869766,
			"0.015": 0.242229915348,
			"0.016": 0.0,
			"0.017": 0.0,
			"0.018": 0.0,
			"0.019": 0.0,
			"0.02": 0.0,
			"0.021": 0.0,
			"0.022": 0.0,
			"0.023": 0.0,
			"0.024": 0.0,
			"0.025": 0.0
		}
	}
}
