{
	 "smiles": "CCCCCCCCCCCCCC(=O)OC(=O)CCCCCCCCCCCCC", 
	 "Tm": 326.55, 
	 "num_atms": 85, 
	 "gaussian": { 
		 "optdone": 1, 
		 "sigma_profile": "yes", 
		 "theory": "DFT", 
		 "functional": "B3LYP", 
		 "basiset": "6-31G**", 
		 "properties": { 
			 "R2extent": 33143.3936, 
			 "electric_dipole_moment_norm": 3.54227961347, 
			 "electric_quadrupole_moment_norm": 20.3529641957, 
			 "total_energy": -1325.29211368, 
			 "HOMO_LUMO_gap": 0.24212, 
			 "cosmo_polarized_energy": -11.16, 
			 "cosmo_cavitation_energy": 82.86, 
			 "cosmo_dispersion_energy": -53.52, 
			 "cosmo_repulsion_energy": 4.38, 
			 "cosmo_total_nonelectrostatic_energy": 33.72, 
			 "SMD_solvation_energy": 12.34 
		},
		"coords": [
			{
				"x": -4.3065742809,
				"y": -7.587661805,
				"z": 0.8437862545,
				"element": "C" 
			},
			{
				"x": -2.8158890335,
				"y": -7.6905434959,
				"z": 1.1888921347,
				"element": "C" 
			},
			{
				"x": -1.9548126321,
				"y": -6.5267387409,
				"z": 0.6666809996,
				"element": "C" 
			},
			{
				"x": -2.2526036687,
				"y": -5.1737264891,
				"z": 1.3288765558,
				"element": "C" 
			},
			{
				"x": -1.4382283311,
				"y": -3.9789503763,
				"z": 0.7987759527,
				"element": "C" 
			},
			{
				"x": 0.0900180077,
				"y": -4.0621503913,
				"z": 1.0272500985,
				"element": "C" 
			},
			{
				"x": 0.9175079646,
				"y": -4.6108946398,
				"z": -0.1510985478,
				"element": "C" 
			},
			{
				"x": 1.0336803865,
				"y": -3.6446727808,
				"z": -1.3390717254,
				"element": "C" 
			},
			{
				"x": 1.8625972547,
				"y": -4.2173181034,
				"z": -2.4978161674,
				"element": "C" 
			},
			{
				"x": 2.0813108988,
				"y": -3.2508072043,
				"z": -3.6743147459,
				"element": "C" 
			},
			{
				"x": 0.8005600379,
				"y": -2.890803401,
				"z": -4.4432238696,
				"element": "C" 
			},
			{
				"x": 1.0319034545,
				"y": -2.0402364414,
				"z": -5.7041611186,
				"element": "C" 
			},
			{
				"x": 1.5530089312,
				"y": -0.6217377912,
				"z": -5.4426400892,
				"element": "C" 
			},
			{
				"x": 0.5334626836,
				"y": 0.2881438575,
				"z": -4.7951810548,
				"element": "C" 
			},
			{
				"x": -0.6385054101,
				"y": 0.0734652112,
				"z": -4.6499833652,
				"element": "O" 
			},
			{
				"x": 1.158899162,
				"y": 1.4474035107,
				"z": -4.3337382209,
				"element": "O" 
			},
			{
				"x": 0.4615344976,
				"y": 2.6556346927,
				"z": -4.2448609197,
				"element": "C" 
			},
			{
				"x": -0.4708405931,
				"y": 2.9268127891,
				"z": -4.9494223927,
				"element": "O" 
			},
			{
				"x": 1.0889096822,
				"y": 3.5379148952,
				"z": -3.1926290991,
				"element": "C" 
			},
			{
				"x": 0.8565826513,
				"y": 3.0058218129,
				"z": -1.7636342871,
				"element": "C" 
			},
			{
				"x": 1.4778931507,
				"y": 3.9202043877,
				"z": -0.699161867,
				"element": "C" 
			},
			{
				"x": 1.3493404811,
				"y": 3.3909339414,
				"z": 0.7403775471,
				"element": "C" 
			},
			{
				"x": -0.0830717863,
				"y": 3.2462877578,
				"z": 1.2865980213,
				"element": "C" 
			},
			{
				"x": -0.8547464782,
				"y": 4.5687521864,
				"z": 1.4053958077,
				"element": "C" 
			},
			{
				"x": -2.2844770466,
				"y": 4.4226547147,
				"z": 1.9586261276,
				"element": "C" 
			},
			{
				"x": -2.4055232573,
				"y": 3.8992086086,
				"z": 3.4009910588,
				"element": "C" 
			},
			{
				"x": -1.7813575475,
				"y": 4.8086540457,
				"z": 4.468899295,
				"element": "C" 
			},
			{
				"x": -2.0104108646,
				"y": 4.2961486651,
				"z": 5.8983719695,
				"element": "C" 
			},
			{
				"x": -1.4628675931,
				"y": 5.2089581662,
				"z": 7.0079658332,
				"element": "C" 
			},
			{
				"x": 0.0671583135,
				"y": 5.3309067218,
				"z": 7.049078431,
				"element": "C" 
			},
			{
				"x": 0.5660210812,
				"y": 6.1908694532,
				"z": 8.215134744,
				"element": "C" 
			},
			{
				"x": -4.7740328205,
				"y": -6.7081120747,
				"z": 1.2979655717,
				"element": "H" 
			},
			{
				"x": -4.4557412752,
				"y": -7.5186441612,
				"z": -0.2402158557,
				"element": "H" 
			},
			{
				"x": -4.8538724625,
				"y": -8.4675412017,
				"z": 1.1980833451,
				"element": "H" 
			},
			{
				"x": -2.6970611866,
				"y": -7.7654689834,
				"z": 2.2787899147,
				"element": "H" 
			},
			{
				"x": -2.4220224458,
				"y": -8.6289493643,
				"z": 0.7777755403,
				"element": "H" 
			},
			{
				"x": -2.0905197259,
				"y": -6.4379455495,
				"z": -0.4213145188,
				"element": "H" 
			},
			{
				"x": -0.8993737102,
				"y": -6.7818406021,
				"z": 0.8227926969,
				"element": "H" 
			},
			{
				"x": -3.317490057,
				"y": -4.9376473933,
				"z": 1.2085934509,
				"element": "H" 
			},
			{
				"x": -2.0842413865,
				"y": -5.2651645226,
				"z": 2.4121905144,
				"element": "H" 
			},
			{
				"x": -1.6502321404,
				"y": -3.8438438885,
				"z": -0.2703865686,
				"element": "H" 
			},
			{
				"x": -1.821927654,
				"y": -3.0758518884,
				"z": 1.28917231,
				"element": "H" 
			},
			{
				"x": 0.2821703011,
				"y": -4.6745153936,
				"z": 1.9186620865,
				"element": "H" 
			},
			{
				"x": 0.4736220442,
				"y": -3.0621269168,
				"z": 1.269922829,
				"element": "H" 
			},
			{
				"x": 1.9293715561,
				"y": -4.8463575835,
				"z": 0.2068772125,
				"element": "H" 
			},
			{
				"x": 0.4923191915,
				"y": -5.5607385366,
				"z": -0.4993748292,
				"element": "H" 
			},
			{
				"x": 1.4936814796,
				"y": -2.7065649783,
				"z": -0.99448446,
				"element": "H" 
			},
			{
				"x": 0.0321809785,
				"y": -3.3767083306,
				"z": -1.697351271,
				"element": "H" 
			},
			{
				"x": 1.3819340864,
				"y": -5.1339122262,
				"z": -2.8690719611,
				"element": "H" 
			},
			{
				"x": 2.8428840979,
				"y": -4.5269081523,
				"z": -2.110329992,
				"element": "H" 
			},
			{
				"x": 2.7967247293,
				"y": -3.70468027,
				"z": -4.3744051421,
				"element": "H" 
			},
			{
				"x": 2.5654675561,
				"y": -2.3396766592,
				"z": -3.295432866,
				"element": "H" 
			},
			{
				"x": 0.0925551269,
				"y": -2.369937775,
				"z": -3.7894596205,
				"element": "H" 
			},
			{
				"x": 0.3032558861,
				"y": -3.8215962479,
				"z": -4.7475448132,
				"element": "H" 
			},
			{
				"x": 1.747697387,
				"y": -2.5506079735,
				"z": -6.3609763628,
				"element": "H" 
			},
			{
				"x": 0.0918253306,
				"y": -1.9627546581,
				"z": -6.2604202468,
				"element": "H" 
			},
			{
				"x": 2.4595152858,
				"y": -0.6146818338,
				"z": -4.8279116985,
				"element": "H" 
			},
			{
				"x": 1.839212631,
				"y": -0.1351923061,
				"z": -6.3853684912,
				"element": "H" 
			},
			{
				"x": 0.6573915224,
				"y": 4.5353133368,
				"z": -3.3102128021,
				"element": "H" 
			},
			{
				"x": 2.1662011568,
				"y": 3.6019183449,
				"z": -3.3877569371,
				"element": "H" 
			},
			{
				"x": 1.2835077585,
				"y": 1.9990080561,
				"z": -1.6819069713,
				"element": "H" 
			},
			{
				"x": -0.2217979728,
				"y": 2.9043067382,
				"z": -1.5950023606,
				"element": "H" 
			},
			{
				"x": 1.0319377733,
				"y": 4.9204055394,
				"z": -0.7744378948,
				"element": "H" 
			},
			{
				"x": 2.5449183455,
				"y": 4.0504482683,
				"z": -0.9255911726,
				"element": "H" 
			},
			{
				"x": 1.8489095321,
				"y": 2.4142930431,
				"z": 0.7991744349,
				"element": "H" 
			},
			{
				"x": 1.913461985,
				"y": 4.0584623115,
				"z": 1.4057697592,
				"element": "H" 
			},
			{
				"x": -0.0175540303,
				"y": 2.7725841219,
				"z": 2.2738804791,
				"element": "H" 
			},
			{
				"x": -0.6560276909,
				"y": 2.5480171815,
				"z": 0.6612199281,
				"element": "H" 
			},
			{
				"x": -0.2802051228,
				"y": 5.266885792,
				"z": 2.0294380494,
				"element": "H" 
			},
			{
				"x": -0.9240178086,
				"y": 5.0416777514,
				"z": 0.4175465512,
				"element": "H" 
			},
			{
				"x": -2.7830271193,
				"y": 5.399726641,
				"z": 1.8984243303,
				"element": "H" 
			},
			{
				"x": -2.8502184604,
				"y": 3.7549663988,
				"z": 1.2944722239,
				"element": "H" 
			},
			{
				"x": -3.4721811224,
				"y": 3.768833534,
				"z": 3.6292088466,
				"element": "H" 
			},
			{
				"x": -1.9634994989,
				"y": 2.8965352477,
				"z": 3.4757745713,
				"element": "H" 
			},
			{
				"x": -0.7054241807,
				"y": 4.9123456211,
				"z": 4.2826442941,
				"element": "H" 
			},
			{
				"x": -2.2051661492,
				"y": 5.8195729007,
				"z": 4.3757535911,
				"element": "H" 
			},
			{
				"x": -3.0895566565,
				"y": 4.1613645281,
				"z": 6.0537613178,
				"element": "H" 
			},
			{
				"x": -1.5647442226,
				"y": 3.2959226943,
				"z": 6.0004586011,
				"element": "H" 
			},
			{
				"x": -1.9026112075,
				"y": 6.21151238,
				"z": 6.9031057067,
				"element": "H" 
			},
			{
				"x": -1.8090099313,
				"y": 4.8290521957,
				"z": 7.9790833017,
				"element": "H" 
			},
			{
				"x": 0.4342725433,
				"y": 5.7554526296,
				"z": 6.1062913199,
				"element": "H" 
			},
			{
				"x": 0.5056925655,
				"y": 4.325778233,
				"z": 7.1212499677,
				"element": "H" 
			},
			{
				"x": 1.6588110712,
				"y": 6.2605800582,
				"z": 8.224399194,
				"element": "H" 
			},
			{
				"x": 0.1687863158,
				"y": 7.2106252667,
				"z": 8.1533014548,
				"element": "H" 
			},
			{
				"x": 0.2509676853,
				"y": 5.7735469,
				"z": 9.1785100807,
				"element": "H" 
			}
		],
		 "valence_orbital": [ 
			{
				"type": "occ",
				"energy": -0.29989,
				"method": "rhf"
			},
			{
				"type": "occ",
				"energy": -0.29834,
				"method": "rhf"
			},
			{
				"type": "occ",
				"energy": -0.29633,
				"method": "rhf"
			},
			{
				"type": "occ",
				"energy": -0.28994,
				"method": "rhf"
			},
			{
				"type": "occ",
				"energy": -0.2667,
				"method": "rhf"
			},
			{
				"type": "unocc",
				"energy": -0.02458,
				"method": "rhf"
			},
			{
				"type": "unocc",
				"energy": 0.01722,
				"method": "rhf"
			},
			{
				"type": "unocc",
				"energy": 0.0718,
				"method": "rhf"
			},
			{
				"type": "unocc",
				"energy": 0.08287,
				"method": "rhf"
			},
			{
				"type": "unocc",
				"energy": 0.08753,
				"method": "rhf"
			}
		],
		"cosmo_sigma_profile": { 
			"-0.025": 0.0,
			"-0.024": 0.0,
			"-0.023": 0.0,
			"-0.022": 0.0,
			"-0.021": 0.0,
			"-0.02": 0.0,
			"-0.019": 0.0,
			"-0.018": 0.0,
			"-0.017": 0.0,
			"-0.016": 0.0,
			"-0.015": 0.0,
			"-0.014": 0.0,
			"-0.013": 0.0,
			"-0.012": 0.0,
			"-0.011": 0.0,
			"-0.01": 0.0,
			"-0.009": 0.0,
			"-0.008": 0.108469718005,
			"-0.007": 2.31624341997,
			"-0.006": 5.66832739509,
			"-0.005": 9.51458643664,
			"-0.004": 13.9859576723,
			"-0.003": 30.2060028721,
			"-0.002": 86.5110792039,
			"-0.001": 138.12275131,
			"0.0": 141.83772274,
			"0.001": 115.321453487,
			"0.002": 47.8777372216,
			"0.003": 4.88102984952,
			"0.004": 3.77699769928,
			"0.005": 2.91159060929,
			"0.006": 3.93711606592,
			"0.007": 2.64124665022,
			"0.008": 2.50254369161,
			"0.009": 4.48182429084,
			"0.01": 7.55639000355,
			"0.011": 8.42865470172,
			"0.012": 2.52254666726,
			"0.013": 0.0809575542433,
			"0.014": 0.0,
			"0.015": 0.0,
			"0.016": 0.0,
			"0.017": 0.0,
			"0.018": 0.0,
			"0.019": 0.0,
			"0.02": 0.0,
			"0.021": 0.0,
			"0.022": 0.0,
			"0.023": 0.0,
			"0.024": 0.0,
			"0.025": 0.0
		}
	}
}
