{
	 "smiles": "CC1=CC(=CC(C)=C1)N(CCC#N)C(=O)CCl", 
	 "Tm": 341.15, 
	 "num_atms": 32, 
	 "gaussian": { 
		 "optdone": 1, 
		 "sigma_profile": "yes", 
		 "theory": "DFT", 
		 "functional": "B3LYP", 
		 "basiset": "6-31G**", 
		 "properties": { 
			 "R2extent": 4988.6643, 
			 "electric_dipole_moment_norm": 3.13076988774, 
			 "electric_quadrupole_moment_norm": 19.1979073362, 
			 "total_energy": -1149.34090847, 
			 "HOMO_LUMO_gap": 0.20402, 
			 "cosmo_polarized_energy": -20.02, 
			 "cosmo_cavitation_energy": 37.86, 
			 "cosmo_dispersion_energy": -24.74, 
			 "cosmo_repulsion_energy": 1.97, 
			 "cosmo_total_nonelectrostatic_energy": 15.08, 
			 "SMD_solvation_energy": 8.09 
		},
		"coords": [
			{
				"x": -1.5040553055,
				"y": 3.7655417451,
				"z": 0.8436114413,
				"element": "C" 
			},
			{
				"x": -0.8065800907,
				"y": 2.647314486,
				"z": 0.1050387791,
				"element": "C" 
			},
			{
				"x": -0.740623952,
				"y": 1.3614743574,
				"z": 0.6502610973,
				"element": "C" 
			},
			{
				"x": -0.065567657,
				"y": 0.3434962682,
				"z": -0.0259752376,
				"element": "C" 
			},
			{
				"x": 0.5341745486,
				"y": 0.589344433,
				"z": -1.2595084829,
				"element": "C" 
			},
			{
				"x": 0.472613773,
				"y": 1.8652904055,
				"z": -1.8297651853,
				"element": "C" 
			},
			{
				"x": 1.146463365,
				"y": 2.1453839204,
				"z": -3.1523115958,
				"element": "C" 
			},
			{
				"x": -0.1983573593,
				"y": 2.8774293885,
				"z": -1.1348670165,
				"element": "C" 
			},
			{
				"x": 0.0195250326,
				"y": -0.9691236028,
				"z": 0.5739344364,
				"element": "N" 
			},
			{
				"x": 0.7779347668,
				"y": -1.0883476988,
				"z": 1.8182544274,
				"element": "C" 
			},
			{
				"x": 2.3168739493,
				"y": -1.0459130533,
				"z": 1.6420537733,
				"element": "C" 
			},
			{
				"x": 2.8717974647,
				"y": 0.2817536362,
				"z": 1.3648546092,
				"element": "C" 
			},
			{
				"x": 3.3418651302,
				"y": 1.3260477357,
				"z": 1.1761774206,
				"element": "N" 
			},
			{
				"x": -0.6399838908,
				"y": -2.0088939904,
				"z": -0.0510515005,
				"element": "C" 
			},
			{
				"x": -1.2937648433,
				"y": -1.8590060306,
				"z": -1.0713697543,
				"element": "O" 
			},
			{
				"x": -0.5992807446,
				"y": -3.4050191044,
				"z": 0.583926244,
				"element": "C" 
			},
			{
				"x": 1.0430893736,
				"y": -4.1871955085,
				"z": 0.5426606302,
				"element": "Cl" 
			},
			{
				"x": -2.2673471721,
				"y": 3.3811716936,
				"z": 1.5266700889,
				"element": "H" 
			},
			{
				"x": -0.791337281,
				"y": 4.3469562542,
				"z": 1.4416543738,
				"element": "H" 
			},
			{
				"x": -1.988692004,
				"y": 4.4603206886,
				"z": 0.1509991404,
				"element": "H" 
			},
			{
				"x": -1.2288973339,
				"y": 1.148479283,
				"z": 1.5977173704,
				"element": "H" 
			},
			{
				"x": 1.0401935717,
				"y": -0.2185816992,
				"z": -1.7784567222,
				"element": "H" 
			},
			{
				"x": 0.7230498614,
				"y": 3.029564937,
				"z": -3.6371296333,
				"element": "H" 
			},
			{
				"x": 1.0453496172,
				"y": 1.2996091978,
				"z": -3.8393692653,
				"element": "H" 
			},
			{
				"x": 2.2191953854,
				"y": 2.3277153363,
				"z": -3.0138805528,
				"element": "H" 
			},
			{
				"x": -0.2516687865,
				"y": 3.872044625,
				"z": -1.5723921909,
				"element": "H" 
			},
			{
				"x": 0.4701498422,
				"y": -0.2898343434,
				"z": 2.4996405162,
				"element": "H" 
			},
			{
				"x": 0.5355549599,
				"y": -2.0344432286,
				"z": 2.2998773597,
				"element": "H" 
			},
			{
				"x": 2.7784415699,
				"y": -1.4087303773,
				"z": 2.5684349232,
				"element": "H" 
			},
			{
				"x": 2.6123935163,
				"y": -1.737060464,
				"z": 0.8471431768,
				"element": "H" 
			},
			{
				"x": -0.9300791091,
				"y": -3.4148988505,
				"z": 1.6242558252,
				"element": "H" 
			},
			{
				"x": -1.2547301979,
				"y": -4.0291904396,
				"z": -0.0179884957,
				"element": "H" 
			}
		],
		 "valence_orbital": [ 
			{
				"type": "occ",
				"energy": -0.31649,
				"method": "rhf"
			},
			{
				"type": "occ",
				"energy": -0.27286,
				"method": "rhf"
			},
			{
				"type": "occ",
				"energy": -0.26444,
				"method": "rhf"
			},
			{
				"type": "occ",
				"energy": -0.23872,
				"method": "rhf"
			},
			{
				"type": "occ",
				"energy": -0.23523,
				"method": "rhf"
			},
			{
				"type": "unocc",
				"energy": -0.03121,
				"method": "rhf"
			},
			{
				"type": "unocc",
				"energy": -0.00611,
				"method": "rhf"
			},
			{
				"type": "unocc",
				"energy": -0.00231,
				"method": "rhf"
			},
			{
				"type": "unocc",
				"energy": 0.02688,
				"method": "rhf"
			},
			{
				"type": "unocc",
				"energy": 0.03804,
				"method": "rhf"
			}
		],
		"cosmo_sigma_profile": { 
			"-0.025": 0.0,
			"-0.024": 0.0,
			"-0.023": 0.0,
			"-0.022": 0.0,
			"-0.021": 0.0,
			"-0.02": 0.0,
			"-0.019": 0.0,
			"-0.018": 0.0,
			"-0.017": 0.0,
			"-0.016": 0.0,
			"-0.015": 0.0,
			"-0.014": 0.0,
			"-0.013": 0.0,
			"-0.012": 0.0585227112092,
			"-0.011": 1.23043925192,
			"-0.01": 2.22707773427,
			"-0.009": 5.72199444487,
			"-0.008": 8.78784478165,
			"-0.007": 12.3489381649,
			"-0.006": 14.2219702882,
			"-0.005": 18.3983644088,
			"-0.004": 29.4063285001,
			"-0.003": 21.9558681843,
			"-0.002": 20.7238995847,
			"-0.001": 23.8263096444,
			"0.0": 27.0757786,
			"0.001": 17.1143115589,
			"0.002": 10.0108145278,
			"0.003": 11.0177675581,
			"0.004": 12.4216734877,
			"0.005": 13.9027078939,
			"0.006": 11.3583240933,
			"0.007": 5.65718148924,
			"0.008": 5.50296941675,
			"0.009": 5.01538806441,
			"0.01": 4.81773419708,
			"0.011": 4.70656939932,
			"0.012": 6.39945897226,
			"0.013": 6.98670232523,
			"0.014": 1.22301864056,
			"0.015": 0.0,
			"0.016": 0.0,
			"0.017": 0.0,
			"0.018": 0.0,
			"0.019": 0.0,
			"0.02": 0.0,
			"0.021": 0.0,
			"0.022": 0.0,
			"0.023": 0.0,
			"0.024": 0.0,
			"0.025": 0.0
		}
	}
}
