{
	 "smiles": "CC(C)CN(CC(C)C)C(=O)COC(=O)C1=CC=CC=C1", 
	 "Tm": 317.65, 
	 "num_atms": 46, 
	 "gaussian": { 
		 "optdone": 1, 
		 "sigma_profile": "yes", 
		 "theory": "DFT", 
		 "functional": "B3LYP", 
		 "basiset": "6-31G**", 
		 "properties": { 
			 "R2extent": 7463.3111, 
			 "electric_dipole_moment_norm": 5.00128773018, 
			 "electric_quadrupole_moment_norm": 14.3034052732, 
			 "total_energy": -943.341456586, 
			 "HOMO_LUMO_gap": 0.18311, 
			 "cosmo_polarized_energy": -15.07, 
			 "cosmo_cavitation_energy": 46.25, 
			 "cosmo_dispersion_energy": -29.83, 
			 "cosmo_repulsion_energy": 2.29, 
			 "cosmo_total_nonelectrostatic_energy": 18.72, 
			 "SMD_solvation_energy": 8.84 
		},
		"coords": [
			{
				"x": 1.4180030552,
				"y": -0.3338746741,
				"z": 1.2005164445,
				"element": "C" 
			},
			{
				"x": 1.0651373987,
				"y": -1.6318740365,
				"z": 0.4651761617,
				"element": "C" 
			},
			{
				"x": 2.3312488193,
				"y": -2.3969703496,
				"z": 0.0507988664,
				"element": "C" 
			},
			{
				"x": 0.1915522388,
				"y": -1.3857933104,
				"z": -0.7814864461,
				"element": "C" 
			},
			{
				"x": -1.1387275861,
				"y": -0.8213088601,
				"z": -0.5117207918,
				"element": "N" 
			},
			{
				"x": -2.0671218187,
				"y": -1.6642189882,
				"z": 0.2645358809,
				"element": "C" 
			},
			{
				"x": -2.2608732452,
				"y": -1.2541955607,
				"z": 1.739476524,
				"element": "C" 
			},
			{
				"x": -3.1656580367,
				"y": -2.2880189722,
				"z": 2.427773744,
				"element": "C" 
			},
			{
				"x": -2.8276459472,
				"y": 0.1641137584,
				"z": 1.8903685484,
				"element": "C" 
			},
			{
				"x": -1.7167242512,
				"y": 0.1513841365,
				"z": -1.2939168385,
				"element": "C" 
			},
			{
				"x": -2.9272339647,
				"y": 0.3440386653,
				"z": -1.3286028122,
				"element": "O" 
			},
			{
				"x": -0.8542874759,
				"y": 1.0207166012,
				"z": -2.2269581217,
				"element": "C" 
			},
			{
				"x": 0.402718173,
				"y": 1.5167675568,
				"z": -1.7289729852,
				"element": "O" 
			},
			{
				"x": 0.3186764772,
				"y": 2.4914757432,
				"z": -0.7835483002,
				"element": "C" 
			},
			{
				"x": -0.7321758933,
				"y": 2.83024687,
				"z": -0.2785149767,
				"element": "O" 
			},
			{
				"x": 1.6439541598,
				"y": 3.0886662516,
				"z": -0.4596273557,
				"element": "C" 
			},
			{
				"x": 1.6928932507,
				"y": 4.043246807,
				"z": 0.5661213522,
				"element": "C" 
			},
			{
				"x": 2.9033028436,
				"y": 4.6430588186,
				"z": 0.9036541517,
				"element": "C" 
			},
			{
				"x": 4.0703995668,
				"y": 4.2958386968,
				"z": 0.2174836348,
				"element": "C" 
			},
			{
				"x": 4.0249056034,
				"y": 3.3483432597,
				"z": -0.8082114834,
				"element": "C" 
			},
			{
				"x": 2.8157060281,
				"y": 2.744150594,
				"z": -1.1491708482,
				"element": "C" 
			},
			{
				"x": 0.5233609501,
				"y": 0.2427806069,
				"z": 1.4514507239,
				"element": "H" 
			},
			{
				"x": 2.0648604348,
				"y": 0.3004432368,
				"z": 0.5848684479,
				"element": "H" 
			},
			{
				"x": 1.9540223801,
				"y": -0.5480474345,
				"z": 2.131243688,
				"element": "H" 
			},
			{
				"x": 0.5002262068,
				"y": -2.2760376486,
				"z": 1.1522361622,
				"element": "H" 
			},
			{
				"x": 2.0893388765,
				"y": -3.3498898179,
				"z": -0.4330060241,
				"element": "H" 
			},
			{
				"x": 2.9348309352,
				"y": -1.8086487458,
				"z": -0.6512336527,
				"element": "H" 
			},
			{
				"x": 2.9580563608,
				"y": -2.6140294413,
				"z": 0.9214936412,
				"element": "H" 
			},
			{
				"x": 0.059775887,
				"y": -2.3445977104,
				"z": -1.3074872056,
				"element": "H" 
			},
			{
				"x": 0.7300434123,
				"y": -0.7185720498,
				"z": -1.4552947024,
				"element": "H" 
			},
			{
				"x": -3.0356237098,
				"y": -1.6399818975,
				"z": -0.2428821065,
				"element": "H" 
			},
			{
				"x": -1.688676512,
				"y": -2.6924672948,
				"z": 0.2210591529,
				"element": "H" 
			},
			{
				"x": -1.2798525283,
				"y": -1.2837802738,
				"z": 2.2331235635,
				"element": "H" 
			},
			{
				"x": -4.1606029627,
				"y": -2.3055062441,
				"z": 1.9668980236,
				"element": "H" 
			},
			{
				"x": -3.2972203241,
				"y": -2.0477587822,
				"z": 3.4877016654,
				"element": "H" 
			},
			{
				"x": -2.7499880006,
				"y": -3.3004946848,
				"z": 2.3638325115,
				"element": "H" 
			},
			{
				"x": -2.93931999,
				"y": 0.4177772249,
				"z": 2.9506094574,
				"element": "H" 
			},
			{
				"x": -2.1794845613,
				"y": 0.9148786753,
				"z": 1.4304205931,
				"element": "H" 
			},
			{
				"x": -3.8094290149,
				"y": 0.2461157023,
				"z": 1.4131402102,
				"element": "H" 
			},
			{
				"x": -0.5890128624,
				"y": 0.4544821199,
				"z": -3.124422267,
				"element": "H" 
			},
			{
				"x": -1.4979718491,
				"y": 1.8567456722,
				"z": -2.5000092069,
				"element": "H" 
			},
			{
				"x": 0.7729693334,
				"y": 4.2985526672,
				"z": 1.0810445783,
				"element": "H" 
			},
			{
				"x": 2.9385653686,
				"y": 5.3809442997,
				"z": 1.6995640791,
				"element": "H" 
			},
			{
				"x": 5.0143118524,
				"y": 4.7648478197,
				"z": 0.4804257284,
				"element": "H" 
			},
			{
				"x": 4.9313184275,
				"y": 3.0825408238,
				"z": -1.3440513884,
				"element": "H" 
			},
			{
				"x": 2.7712524943,
				"y": 2.0133101696,
				"z": -1.948400022,
				"element": "H" 
			}
		],
		 "valence_orbital": [ 
			{
				"type": "occ",
				"energy": -0.27919,
				"method": "rhf"
			},
			{
				"type": "occ",
				"energy": -0.26527,
				"method": "rhf"
			},
			{
				"type": "occ",
				"energy": -0.26356,
				"method": "rhf"
			},
			{
				"type": "occ",
				"energy": -0.24292,
				"method": "rhf"
			},
			{
				"type": "occ",
				"energy": -0.23507,
				"method": "rhf"
			},
			{
				"type": "unocc",
				"energy": -0.05196,
				"method": "rhf"
			},
			{
				"type": "unocc",
				"energy": -0.01384,
				"method": "rhf"
			},
			{
				"type": "unocc",
				"energy": 0.01836,
				"method": "rhf"
			},
			{
				"type": "unocc",
				"energy": 0.05074,
				"method": "rhf"
			},
			{
				"type": "unocc",
				"energy": 0.07365,
				"method": "rhf"
			}
		],
		"cosmo_sigma_profile": { 
			"-0.025": 0.0,
			"-0.024": 0.0,
			"-0.023": 0.0,
			"-0.022": 0.0,
			"-0.021": 0.0,
			"-0.02": 0.0,
			"-0.019": 0.0,
			"-0.018": 0.0,
			"-0.017": 0.0,
			"-0.016": 0.0,
			"-0.015": 0.0,
			"-0.014": 0.0,
			"-0.013": 0.0,
			"-0.012": 0.0,
			"-0.011": 0.0,
			"-0.01": 0.0,
			"-0.009": 0.369113744458,
			"-0.008": 3.12624205581,
			"-0.007": 4.76716390639,
			"-0.006": 12.960780993,
			"-0.005": 16.5635123993,
			"-0.004": 22.6558225613,
			"-0.003": 34.325652163,
			"-0.002": 41.3795024191,
			"-0.001": 44.9428660097,
			"0.0": 42.1072221224,
			"0.001": 44.1541990575,
			"0.002": 28.4129082653,
			"0.003": 16.1645083061,
			"0.004": 13.6780395137,
			"0.005": 4.44360067986,
			"0.006": 3.01579470899,
			"0.007": 3.21002626618,
			"0.008": 3.54377791273,
			"0.009": 3.27699816238,
			"0.01": 3.65052154512,
			"0.011": 5.09819253836,
			"0.012": 3.16511207462,
			"0.013": 3.35504493043,
			"0.014": 2.87099026728,
			"0.015": 0.287112331971,
			"0.016": 0.0,
			"0.017": 0.0,
			"0.018": 0.0,
			"0.019": 0.0,
			"0.02": 0.0,
			"0.021": 0.0,
			"0.022": 0.0,
			"0.023": 0.0,
			"0.024": 0.0,
			"0.025": 0.0
		}
	}
}
