{
	 "smiles": "CC1=CC(C)=C(CBr)C(C)=C1", 
	 "Tm": 323.15, 
	 "num_atms": 24, 
	 "gaussian": { 
		 "optdone": 1, 
		 "sigma_profile": "yes", 
		 "theory": "DFT", 
		 "functional": "B3LYP", 
		 "basiset": "6-31G**", 
		 "properties": { 
			 "R2extent": 3089.9992, 
			 "electric_dipole_moment_norm": 2.50393878919, 
			 "electric_quadrupole_moment_norm": 7.92954828159, 
			 "total_energy": -2960.33196334, 
			 "HOMO_LUMO_gap": 0.19683, 
			 "cosmo_polarized_energy": -5.84, 
			 "cosmo_cavitation_energy": 28.48, 
			 "cosmo_dispersion_energy": -20.58, 
			 "cosmo_repulsion_energy": 1.64, 
			 "cosmo_total_nonelectrostatic_energy": 9.55, 
			 "SMD_solvation_energy": 3.7 
		},
		"coords": [
			{
				"x": 0.793536389,
				"y": -2.7316624844,
				"z": -2.9017329914,
				"element": "C" 
			},
			{
				"x": 0.7222374038,
				"y": -1.6581714903,
				"z": -1.8421533764,
				"element": "C" 
			},
			{
				"x": 1.8279846153,
				"y": -1.3674947718,
				"z": -1.0372738599,
				"element": "C" 
			},
			{
				"x": 1.7938365174,
				"y": -0.3584813822,
				"z": -0.0716363602,
				"element": "C" 
			},
			{
				"x": 3.0126073844,
				"y": -0.1057518908,
				"z": 0.7867173263,
				"element": "C" 
			},
			{
				"x": 0.6102597619,
				"y": 0.3947040143,
				"z": 0.0934475891,
				"element": "C" 
			},
			{
				"x": 0.5602160259,
				"y": 1.4969149644,
				"z": 1.0949739977,
				"element": "C" 
			},
			{
				"x": -0.0546867403,
				"y": 0.8652905645,
				"z": 2.9201877748,
				"element": "Br" 
			},
			{
				"x": -0.5249483281,
				"y": 0.1026261428,
				"z": -0.6948470199,
				"element": "C" 
			},
			{
				"x": -1.8231540834,
				"y": 0.8560831632,
				"z": -0.5131677682,
				"element": "C" 
			},
			{
				"x": -0.4463283583,
				"y": -0.9152331057,
				"z": -1.6485231273,
				"element": "C" 
			},
			{
				"x": -0.1850991006,
				"y": -3.1893703862,
				"z": -3.0747919344,
				"element": "H" 
			},
			{
				"x": 1.1333363544,
				"y": -2.3189473936,
				"z": -3.860201424,
				"element": "H" 
			},
			{
				"x": 1.4951506432,
				"y": -3.5236476157,
				"z": -2.6230448215,
				"element": "H" 
			},
			{
				"x": 2.7407292757,
				"y": -1.9465054445,
				"z": -1.1594141379,
				"element": "H" 
			},
			{
				"x": 3.7854382963,
				"y": -0.8533383255,
				"z": 0.5915805614,
				"element": "H" 
			},
			{
				"x": 3.4552718689,
				"y": 0.8791918533,
				"z": 0.5914567689,
				"element": "H" 
			},
			{
				"x": 2.7660674986,
				"y": -0.1444918384,
				"z": 1.8532866216,
				"element": "H" 
			},
			{
				"x": 1.5297398763,
				"y": 1.9413860466,
				"z": 1.3015454661,
				"element": "H" 
			},
			{
				"x": -0.1561454436,
				"y": 2.2757795664,
				"z": 0.8492738706,
				"element": "H" 
			},
			{
				"x": -1.7300745308,
				"y": 1.9102629419,
				"z": -0.8034197367,
				"element": "H" 
			},
			{
				"x": -2.6139096657,
				"y": 0.4188527899,
				"z": -1.1277942332,
				"element": "H" 
			},
			{
				"x": -2.1553579389,
				"y": 0.835443253,
				"z": 0.5304145995,
				"element": "H" 
			},
			{
				"x": -1.3236077211,
				"y": -1.1382391712,
				"z": -2.2517837853,
				"element": "H" 
			}
		],
		 "valence_orbital": [ 
			{
				"type": "occ",
				"energy": -0.33028,
				"method": "rhf"
			},
			{
				"type": "occ",
				"energy": -0.26697,
				"method": "rhf"
			},
			{
				"type": "occ",
				"energy": -0.26524,
				"method": "rhf"
			},
			{
				"type": "occ",
				"energy": -0.2386,
				"method": "rhf"
			},
			{
				"type": "occ",
				"energy": -0.23183,
				"method": "rhf"
			},
			{
				"type": "unocc",
				"energy": -0.035,
				"method": "rhf"
			},
			{
				"type": "unocc",
				"energy": 0.00314,
				"method": "rhf"
			},
			{
				"type": "unocc",
				"energy": 0.03232,
				"method": "rhf"
			},
			{
				"type": "unocc",
				"energy": 0.09027,
				"method": "rhf"
			},
			{
				"type": "unocc",
				"energy": 0.10757,
				"method": "rhf"
			}
		],
		"cosmo_sigma_profile": { 
			"-0.025": 0.0,
			"-0.024": 0.0,
			"-0.023": 0.0,
			"-0.022": 0.0,
			"-0.021": 0.0,
			"-0.02": 0.0,
			"-0.019": 0.0,
			"-0.018": 0.0,
			"-0.017": 0.0,
			"-0.016": 0.0,
			"-0.015": 0.0,
			"-0.014": 0.0,
			"-0.013": 0.0,
			"-0.012": 0.0,
			"-0.011": 0.0,
			"-0.01": 0.0,
			"-0.009": 0.0,
			"-0.008": 0.0132500988358,
			"-0.007": 3.17381367325,
			"-0.006": 5.39393955158,
			"-0.005": 10.842401883,
			"-0.004": 22.8081824722,
			"-0.003": 20.2397516202,
			"-0.002": 22.6640625331,
			"-0.001": 23.3282169566,
			"0.0": 29.1791633867,
			"0.001": 19.8392422389,
			"0.002": 12.8524300389,
			"0.003": 11.130047852,
			"0.004": 11.1333255295,
			"0.005": 14.995440856,
			"0.006": 15.1319924095,
			"0.007": 4.97704177577,
			"0.008": 0.0,
			"0.009": 0.0,
			"0.01": 0.0,
			"0.011": 0.0,
			"0.012": 0.0,
			"0.013": 0.0,
			"0.014": 0.0,
			"0.015": 0.0,
			"0.016": 0.0,
			"0.017": 0.0,
			"0.018": 0.0,
			"0.019": 0.0,
			"0.02": 0.0,
			"0.021": 0.0,
			"0.022": 0.0,
			"0.023": 0.0,
			"0.024": 0.0,
			"0.025": 0.0
		}
	}
}
