{
	 "smiles": "O=C1NC(=NO1)C1=CC=CC=C1", 
	 "Tm": 458.15, 
	 "num_atms": 18, 
	 "gaussian": { 
		 "optdone": 1, 
		 "sigma_profile": "yes", 
		 "theory": "DFT", 
		 "functional": "B3LYP", 
		 "basiset": "6-31G**", 
		 "properties": { 
			 "R2extent": 2485.0352, 
			 "electric_dipole_moment_norm": 6.32546963395, 
			 "electric_quadrupole_moment_norm": 15.3558635889, 
			 "total_energy": -568.391152581, 
			 "HOMO_LUMO_gap": 0.1858, 
			 "cosmo_polarized_energy": -16.3, 
			 "cosmo_cavitation_energy": 23.19, 
			 "cosmo_dispersion_energy": -17.55, 
			 "cosmo_repulsion_energy": 1.38, 
			 "cosmo_total_nonelectrostatic_energy": 7.02, 
			 "SMD_solvation_energy": 5.0 
		},
		"coords": [
			{
				"x": -1.701388044,
				"y": -3.9030638211,
				"z": 1.084325811,
				"element": "O" 
			},
			{
				"x": -1.0126915147,
				"y": -3.0858017274,
				"z": 0.5308068559,
				"element": "C" 
			},
			{
				"x": -0.6654156218,
				"y": -1.8005636122,
				"z": 0.9257436871,
				"element": "N" 
			},
			{
				"x": 0.1445077542,
				"y": -1.2457784194,
				"z": -0.0384470776,
				"element": "C" 
			},
			{
				"x": 0.3412283063,
				"y": -2.0786639907,
				"z": -1.0192854657,
				"element": "N" 
			},
			{
				"x": -0.3815326185,
				"y": -3.2483692644,
				"z": -0.6792846174,
				"element": "O" 
			},
			{
				"x": 0.7214490351,
				"y": 0.102504602,
				"z": 0.0101406287,
				"element": "C" 
			},
			{
				"x": 1.5335010027,
				"y": 0.5384791765,
				"z": -1.0505685054,
				"element": "C" 
			},
			{
				"x": 2.0899000964,
				"y": 1.8127030352,
				"z": -1.0236801794,
				"element": "C" 
			},
			{
				"x": 1.8458807616,
				"y": 2.6669245071,
				"z": 0.0562226757,
				"element": "C" 
			},
			{
				"x": 1.04042738,
				"y": 2.239096588,
				"z": 1.1118191616,
				"element": "C" 
			},
			{
				"x": 0.479621946,
				"y": 0.9625304097,
				"z": 1.0907130311,
				"element": "C" 
			},
			{
				"x": -0.9830770842,
				"y": -1.3905714662,
				"z": 1.7882040943,
				"element": "H" 
			},
			{
				"x": 1.716844735,
				"y": -0.1313625988,
				"z": -1.8836132315,
				"element": "H" 
			},
			{
				"x": 2.7162180583,
				"y": 2.1419919926,
				"z": -1.8471491619,
				"element": "H" 
			},
			{
				"x": 2.282095096,
				"y": 3.6611275639,
				"z": 0.0736007298,
				"element": "H" 
			},
			{
				"x": 0.846742725,
				"y": 2.8970060961,
				"z": 1.9533809049,
				"element": "H" 
			},
			{
				"x": -0.1445120133,
				"y": 0.6492109292,
				"z": 1.9227706586,
				"element": "H" 
			}
		],
		 "valence_orbital": [ 
			{
				"type": "occ",
				"energy": -0.34387,
				"method": "rhf"
			},
			{
				"type": "occ",
				"energy": -0.28718,
				"method": "rhf"
			},
			{
				"type": "occ",
				"energy": -0.28497,
				"method": "rhf"
			},
			{
				"type": "occ",
				"energy": -0.27743,
				"method": "rhf"
			},
			{
				"type": "occ",
				"energy": -0.24619,
				"method": "rhf"
			},
			{
				"type": "unocc",
				"energy": -0.06039,
				"method": "rhf"
			},
			{
				"type": "unocc",
				"energy": -0.02643,
				"method": "rhf"
			},
			{
				"type": "unocc",
				"energy": 0.0303,
				"method": "rhf"
			},
			{
				"type": "unocc",
				"energy": 0.04457,
				"method": "rhf"
			},
			{
				"type": "unocc",
				"energy": 0.05227,
				"method": "rhf"
			}
		],
		"cosmo_sigma_profile": { 
			"-0.025": 0.0,
			"-0.024": 0.0,
			"-0.023": 0.0,
			"-0.022": 0.0,
			"-0.021": 0.0,
			"-0.02": 0.0,
			"-0.019": 0.156086859627,
			"-0.018": 1.47672282316,
			"-0.017": 0.910251096682,
			"-0.016": 1.66421201727,
			"-0.015": 1.18004061568,
			"-0.014": 1.21882244439,
			"-0.013": 1.04906901792,
			"-0.012": 1.2491282699,
			"-0.011": 1.33286836762,
			"-0.01": 1.50771718918,
			"-0.009": 1.20274649499,
			"-0.008": 1.85574670243,
			"-0.007": 4.28097095878,
			"-0.006": 11.9524240358,
			"-0.005": 13.6066946463,
			"-0.004": 13.6975297886,
			"-0.003": 12.1777979259,
			"-0.002": 7.60112166508,
			"-0.001": 9.69577135289,
			"0.0": 10.0623238028,
			"0.001": 12.1583764067,
			"0.002": 11.7871295658,
			"0.003": 15.291378493,
			"0.004": 9.73552390653,
			"0.005": 3.43136946303,
			"0.006": 5.17968589914,
			"0.007": 6.31888191852,
			"0.008": 5.00421498454,
			"0.009": 3.82180625862,
			"0.01": 3.84245740588,
			"0.011": 7.12425084021,
			"0.012": 5.38299978266,
			"0.013": 0.267141634317,
			"0.014": 0.0,
			"0.015": 0.0,
			"0.016": 0.0,
			"0.017": 0.0,
			"0.018": 0.0,
			"0.019": 0.0,
			"0.02": 0.0,
			"0.021": 0.0,
			"0.022": 0.0,
			"0.023": 0.0,
			"0.024": 0.0,
			"0.025": 0.0
		}
	}
}
