{
	 "smiles": "COC1=CC=C(C=C1)C1=CSC(=N1)C(=N/NC1=C(C)C=CC(C)=C1)C#N", 
	 "Tm": 428.15, 
	 "num_atms": 44, 
	 "gaussian": { 
		 "optdone": 1, 
		 "sigma_profile": "yes", 
		 "theory": "DFT", 
		 "functional": "B3LYP", 
		 "basiset": "6-31G**", 
		 "properties": { 
			 "R2extent": 11761.2103, 
			 "electric_dipole_moment_norm": 8.43328851813, 
			 "electric_quadrupole_moment_norm": 37.7698168579, 
			 "total_energy": -1465.31876278, 
			 "HOMO_LUMO_gap": 0.15018, 
			 "cosmo_polarized_energy": -20.36, 
			 "cosmo_cavitation_energy": 50.69, 
			 "cosmo_dispersion_energy": -33.28, 
			 "cosmo_repulsion_energy": 2.53, 
			 "cosmo_total_nonelectrostatic_energy": 19.94, 
			 "SMD_solvation_energy": 9.26 
		},
		"coords": [
			{
				"x": 6.2013633971,
				"y": 3.1590102103,
				"z": -1.4046394171,
				"element": "C" 
			},
			{
				"x": 5.7366270183,
				"y": 1.8187752456,
				"z": -1.4223738335,
				"element": "O" 
			},
			{
				"x": 4.3959457813,
				"y": 1.6001040012,
				"z": -1.540040965,
				"element": "C" 
			},
			{
				"x": 3.4281766818,
				"y": 2.608688592,
				"z": -1.6313880565,
				"element": "C" 
			},
			{
				"x": 2.0814560681,
				"y": 2.2642022767,
				"z": -1.7466902297,
				"element": "C" 
			},
			{
				"x": 1.6659050616,
				"y": 0.9268945427,
				"z": -1.7791534498,
				"element": "C" 
			},
			{
				"x": 2.652646055,
				"y": -0.0727699979,
				"z": -1.6802244503,
				"element": "C" 
			},
			{
				"x": 3.9944645394,
				"y": 0.2557558231,
				"z": -1.5634130393,
				"element": "C" 
			},
			{
				"x": 0.2470102523,
				"y": 0.5520481073,
				"z": -1.9156621592,
				"element": "C" 
			},
			{
				"x": -0.7975763214,
				"y": 1.3807919956,
				"z": -2.259182728,
				"element": "C" 
			},
			{
				"x": -2.2874136347,
				"y": 0.5131036066,
				"z": -2.299628914,
				"element": "S" 
			},
			{
				"x": -1.4111835573,
				"y": -0.9384981922,
				"z": -1.8309077681,
				"element": "C" 
			},
			{
				"x": -0.128195101,
				"y": -0.7598438109,
				"z": -1.6958681459,
				"element": "N" 
			},
			{
				"x": -2.0724194236,
				"y": -2.270540163,
				"z": -1.7733596475,
				"element": "C" 
			},
			{
				"x": -2.9890509082,
				"y": -2.7296585426,
				"z": -0.971166392,
				"element": "N" 
			},
			{
				"x": -3.4868156564,
				"y": -2.082884049,
				"z": 0.0767109538,
				"element": "N" 
			},
			{
				"x": -2.9629703577,
				"y": -0.9728368539,
				"z": 0.8260942261,
				"element": "C" 
			},
			{
				"x": -1.7074358828,
				"y": -1.0444767337,
				"z": 1.4568630616,
				"element": "C" 
			},
			{
				"x": -0.8071409388,
				"y": -2.2485047425,
				"z": 1.3470483778,
				"element": "C" 
			},
			{
				"x": -1.3248417533,
				"y": 0.0666232347,
				"z": 2.2230018952,
				"element": "C" 
			},
			{
				"x": -2.1530061539,
				"y": 1.173178562,
				"z": 2.3843487503,
				"element": "C" 
			},
			{
				"x": -3.4190374215,
				"y": 1.2222632842,
				"z": 1.7833767055,
				"element": "C" 
			},
			{
				"x": -4.3322246335,
				"y": 2.4086265072,
				"z": 1.9828913356,
				"element": "C" 
			},
			{
				"x": -3.8033679779,
				"y": 0.133438744,
				"z": 0.9995545815,
				"element": "C" 
			},
			{
				"x": -1.6750487947,
				"y": -3.186094966,
				"z": -2.8096306083,
				"element": "C" 
			},
			{
				"x": -1.3252127722,
				"y": -3.899260052,
				"z": -3.6604368485,
				"element": "N" 
			},
			{
				"x": 7.2870792979,
				"y": 3.1005601358,
				"z": -1.3142040025,
				"element": "H" 
			},
			{
				"x": 5.7983549939,
				"y": 3.7168316834,
				"z": -0.5493285293,
				"element": "H" 
			},
			{
				"x": 5.9448363553,
				"y": 3.6892905103,
				"z": -2.330853821,
				"element": "H" 
			},
			{
				"x": 3.7072931688,
				"y": 3.6553087052,
				"z": -1.6069785533,
				"element": "H" 
			},
			{
				"x": 1.3474983781,
				"y": 3.0632795546,
				"z": -1.7984466339,
				"element": "H" 
			},
			{
				"x": 2.3471190618,
				"y": -1.1127708766,
				"z": -1.70196037,
				"element": "H" 
			},
			{
				"x": 4.7567150548,
				"y": -0.5132283532,
				"z": -1.4920060851,
				"element": "H" 
			},
			{
				"x": -0.7701734536,
				"y": 2.4331743002,
				"z": -2.5008824139,
				"element": "H" 
			},
			{
				"x": -4.1995473713,
				"y": -2.6354465419,
				"z": 0.5329836101,
				"element": "H" 
			},
			{
				"x": -0.1391876595,
				"y": -2.3048955674,
				"z": 2.2107365397,
				"element": "H" 
			},
			{
				"x": -1.3809006366,
				"y": -3.1783546175,
				"z": 1.2952644336,
				"element": "H" 
			},
			{
				"x": -0.1851229979,
				"y": -2.194803916,
				"z": 0.4461792654,
				"element": "H" 
			},
			{
				"x": -0.3576020202,
				"y": 0.0473240109,
				"z": 2.7183701115,
				"element": "H" 
			},
			{
				"x": -1.8164870152,
				"y": 2.0075026217,
				"z": 2.9950365731,
				"element": "H" 
			},
			{
				"x": -3.810090176,
				"y": 3.3511762194,
				"z": 1.7860726571,
				"element": "H" 
			},
			{
				"x": -5.2008977802,
				"y": 2.361266327,
				"z": 1.3206077912,
				"element": "H" 
			},
			{
				"x": -4.7031929579,
				"y": 2.4560493653,
				"z": 3.0138169534,
				"element": "H" 
			},
			{
				"x": -4.7680478082,
				"y": 0.1345998094,
				"z": 0.4991692392,
				"element": "H" 
			}
		],
		 "valence_orbital": [ 
			{
				"type": "occ",
				"energy": -0.25809,
				"method": "rhf"
			},
			{
				"type": "occ",
				"energy": -0.25263,
				"method": "rhf"
			},
			{
				"type": "occ",
				"energy": -0.24742,
				"method": "rhf"
			},
			{
				"type": "occ",
				"energy": -0.23069,
				"method": "rhf"
			},
			{
				"type": "occ",
				"energy": -0.20557,
				"method": "rhf"
			},
			{
				"type": "unocc",
				"energy": -0.05539,
				"method": "rhf"
			},
			{
				"type": "unocc",
				"energy": -0.04157,
				"method": "rhf"
			},
			{
				"type": "unocc",
				"energy": -0.01977,
				"method": "rhf"
			},
			{
				"type": "unocc",
				"energy": -0.01088,
				"method": "rhf"
			},
			{
				"type": "unocc",
				"energy": -0.0023,
				"method": "rhf"
			}
		],
		"cosmo_sigma_profile": { 
			"-0.025": 0.0,
			"-0.024": 0.0,
			"-0.023": 0.0,
			"-0.022": 0.0,
			"-0.021": 0.0,
			"-0.02": 0.0,
			"-0.019": 0.0,
			"-0.018": 0.0,
			"-0.017": 0.0,
			"-0.016": 0.601568858194,
			"-0.015": 1.36597380456,
			"-0.014": 1.37526884539,
			"-0.013": 0.992328604506,
			"-0.012": 0.513495506363,
			"-0.011": 1.23979338187,
			"-0.01": 1.76615441272,
			"-0.009": 3.77101232724,
			"-0.008": 3.55110045539,
			"-0.007": 4.15306083644,
			"-0.006": 15.3831723741,
			"-0.005": 28.018223635,
			"-0.004": 35.3294528021,
			"-0.003": 34.0891755659,
			"-0.002": 28.3448070194,
			"-0.001": 31.4253236135,
			"0.0": 35.3313380445,
			"0.001": 27.796575513,
			"0.002": 28.3132682747,
			"0.003": 32.3695439012,
			"0.004": 29.4788652773,
			"0.005": 23.3365492033,
			"0.006": 8.56180262729,
			"0.007": 4.94134956432,
			"0.008": 6.48906882831,
			"0.009": 5.95837743493,
			"0.01": 5.35382486309,
			"0.011": 3.08811988867,
			"0.012": 2.6895282161,
			"0.013": 1.85624335537,
			"0.014": 0.198960978202,
			"0.015": 0.0,
			"0.016": 0.0,
			"0.017": 0.0,
			"0.018": 0.0,
			"0.019": 0.0,
			"0.02": 0.0,
			"0.021": 0.0,
			"0.022": 0.0,
			"0.023": 0.0,
			"0.024": 0.0,
			"0.025": 0.0
		}
	}
}
