{
	 "smiles": "CC1=NN(C=C1)C1=CC=C(C=C1)C(O)=O", 
	 "Tm": 452.15, 
	 "num_atms": 25, 
	 "gaussian": { 
		 "optdone": 1, 
		 "sigma_profile": "yes", 
		 "theory": "DFT", 
		 "functional": "B3LYP", 
		 "basiset": "6-31G**", 
		 "properties": { 
			 "R2extent": 4795.9725, 
			 "electric_dipole_moment_norm": 6.18013992156, 
			 "electric_quadrupole_moment_norm": 21.556122206, 
			 "total_energy": -685.14281649, 
			 "HOMO_LUMO_gap": 0.17515, 
			 "cosmo_polarized_energy": -17.8, 
			 "cosmo_cavitation_energy": 29.84, 
			 "cosmo_dispersion_energy": -22.06, 
			 "cosmo_repulsion_energy": 1.7, 
			 "cosmo_total_nonelectrostatic_energy": 9.49, 
			 "SMD_solvation_energy": 6.0 
		},
		"coords": [
			{
				"x": -2.991986421,
				"y": 0.5585557616,
				"z": -3.995435248,
				"element": "C" 
			},
			{
				"x": -2.5387373929,
				"y": 0.4270611106,
				"z": -2.5742484584,
				"element": "C" 
			},
			{
				"x": -1.3768556898,
				"y": -0.1483461264,
				"z": -2.2867878301,
				"element": "N" 
			},
			{
				"x": -1.2707430592,
				"y": -0.1002023124,
				"z": -0.9279902211,
				"element": "N" 
			},
			{
				"x": -2.3660203794,
				"y": 0.4999361013,
				"z": -0.3618973446,
				"element": "C" 
			},
			{
				"x": -3.203703414,
				"y": 0.8542901396,
				"z": -1.3899908313,
				"element": "C" 
			},
			{
				"x": -0.1352327863,
				"y": -0.6432996025,
				"z": -0.2908064945,
				"element": "C" 
			},
			{
				"x": 0.7691421903,
				"y": -1.4180370734,
				"z": -1.0341248553,
				"element": "C" 
			},
			{
				"x": 1.8855672071,
				"y": -1.9589413833,
				"z": -0.413419258,
				"element": "C" 
			},
			{
				"x": 2.1185124304,
				"y": -1.7644471903,
				"z": 0.9562266206,
				"element": "C" 
			},
			{
				"x": 1.2187318751,
				"y": -0.9732531797,
				"z": 1.6833809437,
				"element": "C" 
			},
			{
				"x": 0.1038099635,
				"y": -0.410072579,
				"z": 1.0705092363,
				"element": "C" 
			},
			{
				"x": 3.3438090554,
				"y": -2.3800883742,
				"z": 1.5534746185,
				"element": "C" 
			},
			{
				"x": 3.3626114703,
				"y": -2.5202249228,
				"z": 2.9085329871,
				"element": "O" 
			},
			{
				"x": 4.2905991335,
				"y": -2.7482466583,
				"z": 0.8981369999,
				"element": "O" 
			},
			{
				"x": -2.249043727,
				"y": 0.1210321621,
				"z": -4.6653273872,
				"element": "H" 
			},
			{
				"x": -3.1323828885,
				"y": 1.6093299643,
				"z": -4.2719337896,
				"element": "H" 
			},
			{
				"x": -3.9481005942,
				"y": 0.0482945133,
				"z": -4.1560439634,
				"element": "H" 
			},
			{
				"x": -2.4738153593,
				"y": 0.6097972953,
				"z": 0.7055628577,
				"element": "H" 
			},
			{
				"x": -4.1622578441,
				"y": 1.3453254763,
				"z": -1.3083604331,
				"element": "H" 
			},
			{
				"x": 0.5773012351,
				"y": -1.5750070434,
				"z": -2.0876122836,
				"element": "H" 
			},
			{
				"x": 2.5981792235,
				"y": -2.5505616481,
				"z": -0.977792255,
				"element": "H" 
			},
			{
				"x": 1.3991909212,
				"y": -0.7422233924,
				"z": 2.7304242746,
				"element": "H" 
			},
			{
				"x": -0.5562946678,
				"y": 0.2252642913,
				"z": 1.6494141146,
				"element": "H" 
			},
			{
				"x": 2.4828195183,
				"y": -2.3527353294,
				"z": 3.2729080002,
				"element": "H" 
			}
		],
		 "valence_orbital": [ 
			{
				"type": "occ",
				"energy": -0.29729,
				"method": "rhf"
			},
			{
				"type": "occ",
				"energy": -0.27632,
				"method": "rhf"
			},
			{
				"type": "occ",
				"energy": -0.27087,
				"method": "rhf"
			},
			{
				"type": "occ",
				"energy": -0.25975,
				"method": "rhf"
			},
			{
				"type": "occ",
				"energy": -0.233,
				"method": "rhf"
			},
			{
				"type": "unocc",
				"energy": -0.05785,
				"method": "rhf"
			},
			{
				"type": "unocc",
				"energy": -0.02601,
				"method": "rhf"
			},
			{
				"type": "unocc",
				"energy": 0.00705,
				"method": "rhf"
			},
			{
				"type": "unocc",
				"energy": 0.05565,
				"method": "rhf"
			},
			{
				"type": "unocc",
				"energy": 0.05692,
				"method": "rhf"
			}
		],
		"cosmo_sigma_profile": { 
			"-0.025": 0.0,
			"-0.024": 0.0,
			"-0.023": 0.0,
			"-0.022": 0.0,
			"-0.021": 0.0,
			"-0.02": 0.0,
			"-0.019": 0.0237304958125,
			"-0.018": 0.9903108003,
			"-0.017": 0.879301577931,
			"-0.016": 1.48723409782,
			"-0.015": 0.522281279268,
			"-0.014": 0.979656811504,
			"-0.013": 0.779398543995,
			"-0.012": 1.59788512416,
			"-0.011": 2.11280496337,
			"-0.01": 3.19228454042,
			"-0.009": 3.61144921062,
			"-0.008": 4.21137428235,
			"-0.007": 6.58258295233,
			"-0.006": 9.40887291995,
			"-0.005": 11.1894269224,
			"-0.004": 14.2731171446,
			"-0.003": 14.9627521597,
			"-0.002": 17.4584786267,
			"-0.001": 18.7809214199,
			"0.0": 17.5964915089,
			"0.001": 16.3898356473,
			"0.002": 21.8651734756,
			"0.003": 16.910036191,
			"0.004": 9.448469531,
			"0.005": 6.46576334944,
			"0.006": 4.37288418176,
			"0.007": 3.69080569415,
			"0.008": 4.73335631095,
			"0.009": 4.61568291279,
			"0.01": 5.86916266661,
			"0.011": 6.27809507644,
			"0.012": 6.09543032618,
			"0.013": 1.96276970069,
			"0.014": 0.115487410058,
			"0.015": 0.0,
			"0.016": 0.0,
			"0.017": 0.0,
			"0.018": 0.0,
			"0.019": 0.0,
			"0.02": 0.0,
			"0.021": 0.0,
			"0.022": 0.0,
			"0.023": 0.0,
			"0.024": 0.0,
			"0.025": 0.0
		}
	}
}
