{
	 "smiles": "CCP(CC)CC", 
	 "Tm": 185.15, 
	 "num_atms": 22, 
	 "gaussian": { 
		 "optdone": 1, 
		 "sigma_profile": "yes", 
		 "theory": "DFT", 
		 "functional": "B3LYP", 
		 "basiset": "6-31G**", 
		 "properties": { 
			 "R2extent": 1741.1928, 
			 "electric_dipole_moment_norm": 1.36459428769, 
			 "electric_quadrupole_moment_norm": 4.81896739977, 
			 "total_energy": -579.042468202, 
			 "HOMO_LUMO_gap": 0.26653, 
			 "cosmo_polarized_energy": -3.58, 
			 "cosmo_cavitation_energy": 24.68, 
			 "cosmo_dispersion_energy": -17.86, 
			 "cosmo_repulsion_energy": 1.64, 
			 "cosmo_total_nonelectrostatic_energy": 8.46, 
			 "SMD_solvation_energy": 4.37 
		},
		"coords": [
			{
				"x": -1.6822502296,
				"y": -1.416459626,
				"z": -1.7567895801,
				"element": "C" 
			},
			{
				"x": -0.8355680083,
				"y": -0.8376116951,
				"z": -0.6144578978,
				"element": "C" 
			},
			{
				"x": 1.0042462868,
				"y": -1.0606508658,
				"z": -0.9009966034,
				"element": "P" 
			},
			{
				"x": 1.7243706477,
				"y": -0.1537104795,
				"z": 0.5801480163,
				"element": "C" 
			},
			{
				"x": 1.2974480873,
				"y": -0.4988797132,
				"z": 2.012935543,
				"element": "C" 
			},
			{
				"x": 1.2852045654,
				"y": -2.8833559147,
				"z": -0.499712543,
				"element": "C" 
			},
			{
				"x": 0.3834444488,
				"y": -3.6115622688,
				"z": 0.5067657074,
				"element": "C" 
			},
			{
				"x": -1.4011252726,
				"y": -0.9769811442,
				"z": -2.7191801466,
				"element": "H" 
			},
			{
				"x": -2.7481089803,
				"y": -1.221301504,
				"z": -1.5950606596,
				"element": "H" 
			},
			{
				"x": -1.5577865971,
				"y": -2.5014107977,
				"z": -1.8430851435,
				"element": "H" 
			},
			{
				"x": -1.1528533426,
				"y": -1.2602476303,
				"z": 0.3454600605,
				"element": "H" 
			},
			{
				"x": -0.9986088085,
				"y": 0.2456093602,
				"z": -0.5501383226,
				"element": "H" 
			},
			{
				"x": 1.5158335098,
				"y": 0.904990445,
				"z": 0.3768293463,
				"element": "H" 
			},
			{
				"x": 2.8126826739,
				"y": -0.2553868473,
				"z": 0.4823494725,
				"element": "H" 
			},
			{
				"x": 1.6172895123,
				"y": -1.5049612291,
				"z": 2.2985244485,
				"element": "H" 
			},
			{
				"x": 1.7491175185,
				"y": 0.1999255641,
				"z": 2.7271136342,
				"element": "H" 
			},
			{
				"x": 0.2122858131,
				"y": -0.4419084651,
				"z": 2.1431967357,
				"element": "H" 
			},
			{
				"x": 2.3357444555,
				"y": -2.9519754141,
				"z": -0.1883286055,
				"element": "H" 
			},
			{
				"x": 1.2378665001,
				"y": -3.4028609419,
				"z": -1.4641635835,
				"element": "H" 
			},
			{
				"x": 0.6942484592,
				"y": -4.6580576081,
				"z": 0.608570683,
				"element": "H" 
			},
			{
				"x": 0.4163075393,
				"y": -3.1597718321,
				"z": 1.501004015,
				"element": "H" 
			},
			{
				"x": -0.6615887787,
				"y": -3.616131392,
				"z": 0.1818154234,
				"element": "H" 
			}
		],
		 "valence_orbital": [ 
			{
				"type": "occ",
				"energy": -0.34849,
				"method": "rhf"
			},
			{
				"type": "occ",
				"energy": -0.33894,
				"method": "rhf"
			},
			{
				"type": "occ",
				"energy": -0.29357,
				"method": "rhf"
			},
			{
				"type": "occ",
				"energy": -0.29322,
				"method": "rhf"
			},
			{
				"type": "occ",
				"energy": -0.21021,
				"method": "rhf"
			},
			{
				"type": "unocc",
				"energy": 0.05632,
				"method": "rhf"
			},
			{
				"type": "unocc",
				"energy": 0.06865,
				"method": "rhf"
			},
			{
				"type": "unocc",
				"energy": 0.08031,
				"method": "rhf"
			},
			{
				"type": "unocc",
				"energy": 0.11367,
				"method": "rhf"
			},
			{
				"type": "unocc",
				"energy": 0.11786,
				"method": "rhf"
			}
		],
		"cosmo_sigma_profile": { 
			"-0.025": 0.0,
			"-0.024": 0.0,
			"-0.023": 0.0,
			"-0.022": 0.0,
			"-0.021": 0.0,
			"-0.02": 0.0,
			"-0.019": 0.0,
			"-0.018": 0.0,
			"-0.017": 0.0,
			"-0.016": 0.0,
			"-0.015": 0.0,
			"-0.014": 0.0,
			"-0.013": 0.0,
			"-0.012": 0.0,
			"-0.011": 0.0,
			"-0.01": 0.0,
			"-0.009": 0.0,
			"-0.008": 0.0,
			"-0.007": 0.0,
			"-0.006": 0.0,
			"-0.005": 0.0,
			"-0.004": 3.26936767501,
			"-0.003": 20.2469765886,
			"-0.002": 30.5373943631,
			"-0.001": 46.9608128029,
			"0.0": 36.9227857237,
			"0.001": 31.0249649059,
			"0.002": 8.92767425953,
			"0.003": 2.26316009423,
			"0.004": 1.28465653543,
			"0.005": 1.65455750483,
			"0.006": 1.44799880705,
			"0.007": 0.474778132354,
			"0.008": 0.687061434652,
			"0.009": 0.839112603638,
			"0.01": 1.0164852502,
			"0.011": 0.695518818814,
			"0.012": 1.00579678155,
			"0.013": 0.538939746901,
			"0.014": 0.6629692032,
			"0.015": 0.75458889112,
			"0.016": 0.626211330716,
			"0.017": 0.722794604304,
			"0.018": 0.164985035227,
			"0.019": 0.0,
			"0.02": 0.0,
			"0.021": 0.0,
			"0.022": 0.0,
			"0.023": 0.0,
			"0.024": 0.0,
			"0.025": 0.0
		}
	}
}
