{
	 "smiles": "CC(C)N(CCC#N)S(C)(=O)=O", 
	 "Tm": 381.15, 
	 "num_atms": 26, 
	 "gaussian": { 
		 "optdone": 1, 
		 "sigma_profile": "yes", 
		 "theory": "DFT", 
		 "functional": "B3LYP", 
		 "basiset": "6-31G**", 
		 "properties": { 
			 "R2extent": 2862.2432, 
			 "electric_dipole_moment_norm": 5.16632556562, 
			 "electric_quadrupole_moment_norm": 23.9216001814, 
			 "total_energy": -933.238786828, 
			 "HOMO_LUMO_gap": 0.28347, 
			 "cosmo_polarized_energy": -19.46, 
			 "cosmo_cavitation_energy": 29.99, 
			 "cosmo_dispersion_energy": -20.72, 
			 "cosmo_repulsion_energy": 1.6, 
			 "cosmo_total_nonelectrostatic_energy": 10.87, 
			 "SMD_solvation_energy": 6.35 
		},
		"coords": [
			{
				"x": -2.2111640181,
				"y": -2.4192164132,
				"z": 1.0835242821,
				"element": "C" 
			},
			{
				"x": -2.1254128649,
				"y": -1.0920666234,
				"z": 0.3223555467,
				"element": "C" 
			},
			{
				"x": -2.7938988074,
				"y": -1.1635725184,
				"z": -1.0582227896,
				"element": "C" 
			},
			{
				"x": -0.7384070534,
				"y": -0.5340586716,
				"z": 0.2764184855,
				"element": "N" 
			},
			{
				"x": -0.637249306,
				"y": 0.928385326,
				"z": 0.2313042442,
				"element": "C" 
			},
			{
				"x": -0.5629852771,
				"y": 1.5264514999,
				"z": 1.6570388799,
				"element": "C" 
			},
			{
				"x": -0.5751371817,
				"y": 2.9908009676,
				"z": 1.6393432992,
				"element": "C" 
			},
			{
				"x": -0.5916970025,
				"y": 4.1506583506,
				"z": 1.6006204506,
				"element": "N" 
			},
			{
				"x": 0.5375375157,
				"y": -1.4346064629,
				"z": -0.3793688812,
				"element": "S" 
			},
			{
				"x": 1.3508778637,
				"y": -2.1460554836,
				"z": 1.0651060882,
				"element": "C" 
			},
			{
				"x": 1.4889101484,
				"y": -0.4943511168,
				"z": -0.9804251988,
				"element": "O" 
			},
			{
				"x": -0.0111594883,
				"y": -2.551673308,
				"z": -1.1548039051,
				"element": "O" 
			},
			{
				"x": -3.2626373992,
				"y": -2.6956491538,
				"z": 1.2072507989,
				"element": "H" 
			},
			{
				"x": -1.7689054132,
				"y": -2.3303550486,
				"z": 2.0809796709,
				"element": "H" 
			},
			{
				"x": -1.7160449865,
				"y": -3.2262421249,
				"z": 0.5388343854,
				"element": "H" 
			},
			{
				"x": -2.6660434019,
				"y": -0.3498258192,
				"z": 0.9229506624,
				"element": "H" 
			},
			{
				"x": -2.3154693417,
				"y": -1.9223873457,
				"z": -1.6794467999,
				"element": "H" 
			},
			{
				"x": -2.7336651575,
				"y": -0.2022611977,
				"z": -1.5784487131,
				"element": "H" 
			},
			{
				"x": -3.8539629068,
				"y": -1.4146381559,
				"z": -0.9458669793,
				"element": "H" 
			},
			{
				"x": -1.506254241,
				"y": 1.3388848783,
				"z": -0.2943796771,
				"element": "H" 
			},
			{
				"x": 0.2480196997,
				"y": 1.214378321,
				"z": -0.3362622312,
				"element": "H" 
			},
			{
				"x": -1.4087020382,
				"y": 1.1788459192,
				"z": 2.2615560734,
				"element": "H" 
			},
			{
				"x": 0.3505293492,
				"y": 1.1850677377,
				"z": 2.1559728401,
				"element": "H" 
			},
			{
				"x": 1.7195151831,
				"y": -1.3371604087,
				"z": 1.6966656351,
				"element": "H" 
			},
			{
				"x": 0.6422301071,
				"y": -2.7737622593,
				"z": 1.6046373718,
				"element": "H" 
			},
			{
				"x": 2.1839760184,
				"y": -2.7454908888,
				"z": 0.6929664608,
				"element": "H" 
			}
		],
		 "valence_orbital": [ 
			{
				"type": "occ",
				"energy": -0.33009,
				"method": "rhf"
			},
			{
				"type": "occ",
				"energy": -0.32245,
				"method": "rhf"
			},
			{
				"type": "occ",
				"energy": -0.31059,
				"method": "rhf"
			},
			{
				"type": "occ",
				"energy": -0.30873,
				"method": "rhf"
			},
			{
				"type": "occ",
				"energy": -0.26548,
				"method": "rhf"
			},
			{
				"type": "unocc",
				"energy": 0.01799,
				"method": "rhf"
			},
			{
				"type": "unocc",
				"energy": 0.02854,
				"method": "rhf"
			},
			{
				"type": "unocc",
				"energy": 0.0502,
				"method": "rhf"
			},
			{
				"type": "unocc",
				"energy": 0.05697,
				"method": "rhf"
			},
			{
				"type": "unocc",
				"energy": 0.07336,
				"method": "rhf"
			}
		],
		"cosmo_sigma_profile": { 
			"-0.025": 0.0,
			"-0.024": 0.0,
			"-0.023": 0.0,
			"-0.022": 0.0,
			"-0.021": 0.0,
			"-0.02": 0.0,
			"-0.019": 0.0,
			"-0.018": 0.0,
			"-0.017": 0.0,
			"-0.016": 0.0,
			"-0.015": 0.0,
			"-0.014": 0.0,
			"-0.013": 0.0,
			"-0.012": 0.0,
			"-0.011": 0.0,
			"-0.01": 0.0,
			"-0.009": 2.54721737798,
			"-0.008": 12.2441099501,
			"-0.007": 13.1955982965,
			"-0.006": 16.458283853,
			"-0.005": 16.6842515248,
			"-0.004": 21.2428077262,
			"-0.003": 20.9268761251,
			"-0.002": 15.6186131907,
			"-0.001": 15.0489635349,
			"0.0": 16.4341073631,
			"0.001": 13.376076325,
			"0.002": 4.53497948823,
			"0.003": 5.13220113853,
			"0.004": 5.26802118091,
			"0.005": 5.08477581936,
			"0.006": 3.8068937797,
			"0.007": 5.53451985606,
			"0.008": 7.75952524123,
			"0.009": 6.33231045398,
			"0.01": 8.93549263791,
			"0.011": 10.3140334133,
			"0.012": 7.31366894551,
			"0.013": 2.10088595553,
			"0.014": 0.208197747354,
			"0.015": 0.0,
			"0.016": 0.0,
			"0.017": 0.0,
			"0.018": 0.0,
			"0.019": 0.0,
			"0.02": 0.0,
			"0.021": 0.0,
			"0.022": 0.0,
			"0.023": 0.0,
			"0.024": 0.0,
			"0.025": 0.0
		}
	}
}
