{
	 "smiles": "OC1=CC=CC2=C1C=CC=C2", 
	 "Tm": 368.65, 
	 "num_atms": 19, 
	 "gaussian": { 
		 "optdone": 1, 
		 "sigma_profile": "yes", 
		 "theory": "DFT", 
		 "functional": "B3LYP", 
		 "basiset": "6-31G**", 
		 "properties": { 
			 "R2extent": 1878.721, 
			 "electric_dipole_moment_norm": 1.38393102791, 
			 "electric_quadrupole_moment_norm": 8.46985301112, 
			 "total_energy": -461.113885276, 
			 "HOMO_LUMO_gap": 0.16617, 
			 "cosmo_polarized_energy": -8.33, 
			 "cosmo_cavitation_energy": 22.3, 
			 "cosmo_dispersion_energy": -17.07, 
			 "cosmo_repulsion_energy": 1.33, 
			 "cosmo_total_nonelectrostatic_energy": 6.56, 
			 "SMD_solvation_energy": 3.81 
		},
		"coords": [
			{
				"x": 2.4423460077,
				"y": -2.2510738341,
				"z": 0.2128206287,
				"element": "O" 
			},
			{
				"x": 2.2276516097,
				"y": -0.9160135386,
				"z": 0.409392458,
				"element": "C" 
			},
			{
				"x": 3.3136759045,
				"y": -0.1504537578,
				"z": 0.7847613719,
				"element": "C" 
			},
			{
				"x": 3.1673312542,
				"y": 1.2358008541,
				"z": 1.0033221589,
				"element": "C" 
			},
			{
				"x": 1.9471124701,
				"y": 1.8526087926,
				"z": 0.8400261859,
				"element": "C" 
			},
			{
				"x": 0.8095410708,
				"y": 1.0934290274,
				"z": 0.4597978681,
				"element": "C" 
			},
			{
				"x": 0.936249198,
				"y": -0.3209872016,
				"z": 0.2466588169,
				"element": "C" 
			},
			{
				"x": -0.2225581132,
				"y": -1.0632009445,
				"z": -0.1088300111,
				"element": "C" 
			},
			{
				"x": -1.444192244,
				"y": -0.4473402869,
				"z": -0.2665963058,
				"element": "C" 
			},
			{
				"x": -1.5670590565,
				"y": 0.9488032283,
				"z": -0.0712427887,
				"element": "C" 
			},
			{
				"x": -0.4671061929,
				"y": 1.6944885541,
				"z": 0.2856194188,
				"element": "C" 
			},
			{
				"x": 1.6589892129,
				"y": -2.6555464347,
				"z": -0.1782542093,
				"element": "H" 
			},
			{
				"x": 4.2763684143,
				"y": -0.637042804,
				"z": 0.899809353,
				"element": "H" 
			},
			{
				"x": 4.0369032961,
				"y": 1.8168788498,
				"z": 1.2965641405,
				"element": "H" 
			},
			{
				"x": 1.8372377216,
				"y": 2.9211134539,
				"z": 1.000838189,
				"element": "H" 
			},
			{
				"x": -0.1689755785,
				"y": -2.1414616678,
				"z": -0.2462705226,
				"element": "H" 
			},
			{
				"x": -2.3170659707,
				"y": -1.0343884269,
				"z": -0.5361081873,
				"element": "H" 
			},
			{
				"x": -2.5336515936,
				"y": 1.4272999964,
				"z": -0.1988329128,
				"element": "H" 
			},
			{
				"x": -0.5585974104,
				"y": 2.7659861403,
				"z": 0.4438243479,
				"element": "H" 
			}
		],
		 "valence_orbital": [ 
			{
				"type": "occ",
				"energy": -0.33403,
				"method": "rhf"
			},
			{
				"type": "occ",
				"energy": -0.31709,
				"method": "rhf"
			},
			{
				"type": "occ",
				"energy": -0.26859,
				"method": "rhf"
			},
			{
				"type": "occ",
				"energy": -0.24415,
				"method": "rhf"
			},
			{
				"type": "occ",
				"energy": -0.20116,
				"method": "rhf"
			},
			{
				"type": "unocc",
				"energy": -0.03499,
				"method": "rhf"
			},
			{
				"type": "unocc",
				"energy": -0.00947,
				"method": "rhf"
			},
			{
				"type": "unocc",
				"energy": 0.04115,
				"method": "rhf"
			},
			{
				"type": "unocc",
				"energy": 0.06035,
				"method": "rhf"
			},
			{
				"type": "unocc",
				"energy": 0.09968,
				"method": "rhf"
			}
		],
		"cosmo_sigma_profile": { 
			"-0.025": 0.0,
			"-0.024": 0.0,
			"-0.023": 0.0,
			"-0.022": 0.0,
			"-0.021": 0.0,
			"-0.02": 0.0,
			"-0.019": 0.0,
			"-0.018": 0.158836908611,
			"-0.017": 0.739035294885,
			"-0.016": 1.47000134291,
			"-0.015": 0.589994509613,
			"-0.014": 0.487788224095,
			"-0.013": 0.887259679135,
			"-0.012": 1.34390576361,
			"-0.011": 1.05267447446,
			"-0.01": 1.13299273397,
			"-0.009": 0.973648841104,
			"-0.008": 1.05554021475,
			"-0.007": 1.21369301904,
			"-0.006": 8.19756413193,
			"-0.005": 14.503932835,
			"-0.004": 13.9792884666,
			"-0.003": 13.6604130793,
			"-0.002": 8.79993355152,
			"-0.001": 9.63485001343,
			"0.0": 8.92616917676,
			"0.001": 9.12422625529,
			"0.002": 10.854166254,
			"0.003": 14.0545783693,
			"0.004": 21.9069220772,
			"0.005": 19.2209543774,
			"0.006": 6.63955347313,
			"0.007": 1.68672783378,
			"0.008": 1.33052779668,
			"0.009": 1.06782955688,
			"0.01": 1.66221793152,
			"0.011": 2.12953922466,
			"0.012": 0.426358398448,
			"0.013": 0.0,
			"0.014": 0.0,
			"0.015": 0.0,
			"0.016": 0.0,
			"0.017": 0.0,
			"0.018": 0.0,
			"0.019": 0.0,
			"0.02": 0.0,
			"0.021": 0.0,
			"0.022": 0.0,
			"0.023": 0.0,
			"0.024": 0.0,
			"0.025": 0.0
		}
	}
}
