{
	 "smiles": "CC(=O)C1=C(C)N2N=CC=C2N=C1", 
	 "Tm": 354.15, 
	 "num_atms": 22, 
	 "gaussian": { 
		 "optdone": 1, 
		 "sigma_profile": "yes", 
		 "theory": "DFT", 
		 "functional": "B3LYP", 
		 "basiset": "6-31G**", 
		 "properties": { 
			 "R2extent": 2800.2001, 
			 "electric_dipole_moment_norm": 1.13512405049, 
			 "electric_quadrupole_moment_norm": 9.31690908993, 
			 "total_energy": -587.838029277, 
			 "HOMO_LUMO_gap": 0.16053, 
			 "cosmo_polarized_energy": -10.25, 
			 "cosmo_cavitation_energy": 25.75, 
			 "cosmo_dispersion_energy": -19.26, 
			 "cosmo_repulsion_energy": 1.48, 
			 "cosmo_total_nonelectrostatic_energy": 7.98, 
			 "SMD_solvation_energy": 3.09 
		},
		"coords": [
			{
				"x": 1.3759235764,
				"y": -2.2934920117,
				"z": 2.5621494454,
				"element": "C" 
			},
			{
				"x": 0.5114363795,
				"y": -2.3685514011,
				"z": 1.3099156511,
				"element": "C" 
			},
			{
				"x": -0.2970387962,
				"y": -3.2810184494,
				"z": 1.2049667125,
				"element": "O" 
			},
			{
				"x": 0.6945360947,
				"y": -1.3145526891,
				"z": 0.2614395197,
				"element": "C" 
			},
			{
				"x": -0.0461265273,
				"y": -1.2889993314,
				"z": -0.9235423885,
				"element": "C" 
			},
			{
				"x": -1.1099521198,
				"y": -2.2324824395,
				"z": -1.3852271879,
				"element": "C" 
			},
			{
				"x": 0.238782936,
				"y": -0.2625181571,
				"z": -1.7787689407,
				"element": "N" 
			},
			{
				"x": -0.3731780314,
				"y": -0.0701227519,
				"z": -2.974328185,
				"element": "N" 
			},
			{
				"x": 0.2125298639,
				"y": 1.0327050924,
				"z": -3.4583399109,
				"element": "C" 
			},
			{
				"x": 1.1947076909,
				"y": 1.5705487558,
				"z": -2.6107407662,
				"element": "C" 
			},
			{
				"x": 1.211705766,
				"y": 0.7225676156,
				"z": -1.5110974249,
				"element": "C" 
			},
			{
				"x": 1.9294038292,
				"y": 0.7025252168,
				"z": -0.3687297085,
				"element": "N" 
			},
			{
				"x": 1.6669092449,
				"y": -0.2783459949,
				"z": 0.4637853242,
				"element": "C" 
			},
			{
				"x": 1.1053408458,
				"y": -3.1327780302,
				"z": 3.2028897801,
				"element": "H" 
			},
			{
				"x": 1.2146370741,
				"y": -1.3569712894,
				"z": 3.1067994109,
				"element": "H" 
			},
			{
				"x": 2.4422587313,
				"y": -2.3540962407,
				"z": 2.3192428192,
				"element": "H" 
			},
			{
				"x": -2.0316542532,
				"y": -1.6711320096,
				"z": -1.5717911895,
				"element": "H" 
			},
			{
				"x": -1.2758209314,
				"y": -3.0148625685,
				"z": -0.6532975283,
				"element": "H" 
			},
			{
				"x": -0.8183110054,
				"y": -2.6577810414,
				"z": -2.3514066007,
				"element": "H" 
			},
			{
				"x": -0.105103401,
				"y": 1.4051093183,
				"z": -4.423812079,
				"element": "H" 
			},
			{
				"x": 1.8106019701,
				"y": 2.4434928608,
				"z": -2.756947916,
				"element": "H" 
			},
			{
				"x": 2.253011063,
				"y": -0.2797444536,
				"z": 1.378041163,
				"element": "H" 
			}
		],
		 "valence_orbital": [ 
			{
				"type": "occ",
				"energy": -0.32012,
				"method": "rhf"
			},
			{
				"type": "occ",
				"energy": -0.27487,
				"method": "rhf"
			},
			{
				"type": "occ",
				"energy": -0.2685,
				"method": "rhf"
			},
			{
				"type": "occ",
				"energy": -0.25544,
				"method": "rhf"
			},
			{
				"type": "occ",
				"energy": -0.23074,
				"method": "rhf"
			},
			{
				"type": "unocc",
				"energy": -0.07021,
				"method": "rhf"
			},
			{
				"type": "unocc",
				"energy": -0.04701,
				"method": "rhf"
			},
			{
				"type": "unocc",
				"energy": 0.01996,
				"method": "rhf"
			},
			{
				"type": "unocc",
				"energy": 0.06483,
				"method": "rhf"
			},
			{
				"type": "unocc",
				"energy": 0.09344,
				"method": "rhf"
			}
		],
		"cosmo_sigma_profile": { 
			"-0.025": 0.0,
			"-0.024": 0.0,
			"-0.023": 0.0,
			"-0.022": 0.0,
			"-0.021": 0.0,
			"-0.02": 0.0,
			"-0.019": 0.0,
			"-0.018": 0.0,
			"-0.017": 0.0,
			"-0.016": 0.0,
			"-0.015": 0.0,
			"-0.014": 0.0,
			"-0.013": 0.0,
			"-0.012": 0.0,
			"-0.011": 0.0,
			"-0.01": 0.0,
			"-0.009": 0.172611393106,
			"-0.008": 4.80220663988,
			"-0.007": 10.0722702157,
			"-0.006": 11.4594881757,
			"-0.005": 13.5794092423,
			"-0.004": 18.918009877,
			"-0.003": 15.5743119939,
			"-0.002": 22.5621462736,
			"-0.001": 21.0046193197,
			"0.0": 11.3424604768,
			"0.001": 7.67604551839,
			"0.002": 11.9474994231,
			"0.003": 11.5188656447,
			"0.004": 7.84709488767,
			"0.005": 4.93770905489,
			"0.006": 4.91499068183,
			"0.007": 3.95568056583,
			"0.008": 3.82172138923,
			"0.009": 4.7330029653,
			"0.01": 3.70976051799,
			"0.011": 4.10553375118,
			"0.012": 4.19062606908,
			"0.013": 2.33170495215,
			"0.014": 0.890646766956,
			"0.015": 0.503687852911,
			"0.016": 0.0,
			"0.017": 0.0,
			"0.018": 0.0,
			"0.019": 0.0,
			"0.02": 0.0,
			"0.021": 0.0,
			"0.022": 0.0,
			"0.023": 0.0,
			"0.024": 0.0,
			"0.025": 0.0
		}
	}
}
