{
	 "smiles": "COC(=O)CCSC1=C(C=C(C=C1)[N+]([O-])=O)C(O)=O", 
	 "Tm": 439.15, 
	 "num_atms": 30, 
	 "gaussian": { 
		 "optdone": 1, 
		 "sigma_profile": "yes", 
		 "theory": "DFT", 
		 "functional": "B3LYP", 
		 "basiset": "6-31G**", 
		 "properties": { 
			 "R2extent": 7330.0413, 
			 "electric_dipole_moment_norm": 4.10284220023, 
			 "electric_quadrupole_moment_norm": 28.5951345099, 
			 "total_energy": -1329.9884909, 
			 "HOMO_LUMO_gap": 0.13991, 
			 "cosmo_polarized_energy": -22.57, 
			 "cosmo_cavitation_energy": 37.28, 
			 "cosmo_dispersion_energy": -26.0, 
			 "cosmo_repulsion_energy": 1.99, 
			 "cosmo_total_nonelectrostatic_energy": 13.27, 
			 "SMD_solvation_energy": 10.63 
		},
		"coords": [
			{
				"x": -5.3624527559,
				"y": 1.4801883827,
				"z": 2.2156323778,
				"element": "C" 
			},
			{
				"x": -3.9381716461,
				"y": 1.2778913853,
				"z": 2.1624408989,
				"element": "O" 
			},
			{
				"x": -3.2600311981,
				"y": 2.1544496345,
				"z": 1.3949267505,
				"element": "C" 
			},
			{
				"x": -3.7813400981,
				"y": 3.0500072618,
				"z": 0.7673296098,
				"element": "O" 
			},
			{
				"x": -1.76368299,
				"y": 1.898000374,
				"z": 1.4640468507,
				"element": "C" 
			},
			{
				"x": -1.0298330154,
				"y": 2.3672117506,
				"z": 0.2094718594,
				"element": "C" 
			},
			{
				"x": -1.3500208244,
				"y": 1.360265588,
				"z": -1.2937694122,
				"element": "S" 
			},
			{
				"x": -0.944178662,
				"y": -0.3358517237,
				"z": -0.9569890892,
				"element": "C" 
			},
			{
				"x": 0.0662355318,
				"y": -0.8625563663,
				"z": -0.1103056967,
				"element": "C" 
			},
			{
				"x": 0.219312577,
				"y": -2.2521838705,
				"z": -0.0035420129,
				"element": "C" 
			},
			{
				"x": -0.5840737025,
				"y": -3.108490116,
				"z": -0.7427054536,
				"element": "C" 
			},
			{
				"x": -1.5671995443,
				"y": -2.6154546576,
				"z": -1.5995532691,
				"element": "C" 
			},
			{
				"x": -1.7452122125,
				"y": -1.2439064958,
				"z": -1.6837345116,
				"element": "C" 
			},
			{
				"x": -0.3909442664,
				"y": -4.5560573759,
				"z": -0.6155540745,
				"element": "N" 
			},
			{
				"x": -1.106714776,
				"y": -5.2861743465,
				"z": -1.2998631567,
				"element": "O" 
			},
			{
				"x": 0.4721126544,
				"y": -4.9496007608,
				"z": 0.1702882048,
				"element": "O" 
			},
			{
				"x": 1.0894489717,
				"y": -0.0140593706,
				"z": 0.5900341631,
				"element": "C" 
			},
			{
				"x": 1.4480740431,
				"y": -0.4258944836,
				"z": 1.8343668198,
				"element": "O" 
			},
			{
				"x": 1.6166709383,
				"y": 0.9562445683,
				"z": 0.1019405628,
				"element": "O" 
			},
			{
				"x": -5.7977236116,
				"y": 1.397982247,
				"z": 1.2169592771,
				"element": "H" 
			},
			{
				"x": -5.5949003778,
				"y": 2.4675237643,
				"z": 2.6220195002,
				"element": "H" 
			},
			{
				"x": -5.7463618324,
				"y": 0.6965296331,
				"z": 2.8681951242,
				"element": "H" 
			},
			{
				"x": -1.381746461,
				"y": 2.4669928199,
				"z": 2.3230660176,
				"element": "H" 
			},
			{
				"x": -1.5828996773,
				"y": 0.8443342394,
				"z": 1.6906804356,
				"element": "H" 
			},
			{
				"x": -1.4248888637,
				"y": 3.3412925011,
				"z": -0.0922793625,
				"element": "H" 
			},
			{
				"x": 0.0430148863,
				"y": 2.451540197,
				"z": 0.3711249609,
				"element": "H" 
			},
			{
				"x": 0.9991582427,
				"y": -2.6862950756,
				"z": 0.6119971117,
				"element": "H" 
			},
			{
				"x": -2.1843298504,
				"y": -3.3046692668,
				"z": -2.16235387,
				"element": "H" 
			},
			{
				"x": -2.5350787177,
				"y": -0.8483957591,
				"z": -2.3140818721,
				"element": "H" 
			},
			{
				"x": 0.8720572383,
				"y": -1.144364678,
				"z": 2.1327112563,
				"element": "H" 
			}
		],
		 "valence_orbital": [ 
			{
				"type": "occ",
				"energy": -0.30375,
				"method": "rhf"
			},
			{
				"type": "occ",
				"energy": -0.30217,
				"method": "rhf"
			},
			{
				"type": "occ",
				"energy": -0.2906,
				"method": "rhf"
			},
			{
				"type": "occ",
				"energy": -0.28671,
				"method": "rhf"
			},
			{
				"type": "occ",
				"energy": -0.24439,
				"method": "rhf"
			},
			{
				"type": "unocc",
				"energy": -0.10448,
				"method": "rhf"
			},
			{
				"type": "unocc",
				"energy": -0.07044,
				"method": "rhf"
			},
			{
				"type": "unocc",
				"energy": -0.02839,
				"method": "rhf"
			},
			{
				"type": "unocc",
				"energy": -0.00317,
				"method": "rhf"
			},
			{
				"type": "unocc",
				"energy": 0.01375,
				"method": "rhf"
			}
		],
		"cosmo_sigma_profile": { 
			"-0.025": 0.0,
			"-0.024": 0.0,
			"-0.023": 0.0,
			"-0.022": 0.0,
			"-0.021": 0.0,
			"-0.02": 0.0,
			"-0.019": 0.808818912527,
			"-0.018": 0.823586297658,
			"-0.017": 1.22726381809,
			"-0.016": 1.16729261819,
			"-0.015": 0.773940969754,
			"-0.014": 1.34633915034,
			"-0.013": 1.0280750948,
			"-0.012": 1.22558292814,
			"-0.011": 1.1137319064,
			"-0.01": 1.56740529538,
			"-0.009": 2.25657259999,
			"-0.008": 8.18697983486,
			"-0.007": 12.9415189598,
			"-0.006": 17.060077189,
			"-0.005": 18.6818694289,
			"-0.004": 24.5859565017,
			"-0.003": 25.6263514045,
			"-0.002": 19.1053141147,
			"-0.001": 18.5956661642,
			"0.0": 16.6277345533,
			"0.001": 12.2296462364,
			"0.002": 9.72668054224,
			"0.003": 9.28005197849,
			"0.004": 11.3933477231,
			"0.005": 9.77443735412,
			"0.006": 11.9258213804,
			"0.007": 15.8037283924,
			"0.008": 12.765693574,
			"0.009": 11.097646016,
			"0.01": 8.87164480399,
			"0.011": 6.96843658534,
			"0.012": 4.42984303202,
			"0.013": 0.02812996526,
			"0.014": 0.0,
			"0.015": 0.0,
			"0.016": 0.0,
			"0.017": 0.0,
			"0.018": 0.0,
			"0.019": 0.0,
			"0.02": 0.0,
			"0.021": 0.0,
			"0.022": 0.0,
			"0.023": 0.0,
			"0.024": 0.0,
			"0.025": 0.0
		}
	}
}
