{
	 "smiles": "CC(=O)N1CCC(CC1)C(O)=O", 
	 "Tm": 455.15, 
	 "num_atms": 25, 
	 "gaussian": { 
		 "optdone": 1, 
		 "sigma_profile": "yes", 
		 "theory": "DFT", 
		 "functional": "B3LYP", 
		 "basiset": "6-31G**", 
		 "properties": { 
			 "R2extent": 2705.7811, 
			 "electric_dipole_moment_norm": 6.15530355141, 
			 "electric_quadrupole_moment_norm": 16.2570321695, 
			 "total_energy": -593.131482572, 
			 "HOMO_LUMO_gap": 0.23672, 
			 "cosmo_polarized_energy": -22.61, 
			 "cosmo_cavitation_energy": 26.95, 
			 "cosmo_dispersion_energy": -19.67, 
			 "cosmo_repulsion_energy": 1.57, 
			 "cosmo_total_nonelectrostatic_energy": 8.85, 
			 "SMD_solvation_energy": 5.38 
		},
		"coords": [
			{
				"x": 2.7090973999,
				"y": -1.0712229756,
				"z": -1.8284409119,
				"element": "C" 
			},
			{
				"x": 2.1315766008,
				"y": -0.7813030166,
				"z": -0.4490749753,
				"element": "C" 
			},
			{
				"x": 2.8481675544,
				"y": -0.7536580194,
				"z": 0.5464474506,
				"element": "O" 
			},
			{
				"x": 0.7770938259,
				"y": -0.5471464178,
				"z": -0.375346806,
				"element": "N" 
			},
			{
				"x": -0.120233505,
				"y": -0.6163898468,
				"z": -1.5298090085,
				"element": "C" 
			},
			{
				"x": -1.4251822899,
				"y": 0.1295308351,
				"z": -1.2352062854,
				"element": "C" 
			},
			{
				"x": -2.1825337685,
				"y": -0.4992407263,
				"z": -0.0303197255,
				"element": "C" 
			},
			{
				"x": -1.1915285424,
				"y": -1.0311473399,
				"z": 1.0316379786,
				"element": "C" 
			},
			{
				"x": 0.1706999274,
				"y": -0.3420581497,
				"z": 0.9487859848,
				"element": "C" 
			},
			{
				"x": -3.1573274631,
				"y": 0.5230392946,
				"z": 0.5617838689,
				"element": "C" 
			},
			{
				"x": -4.1271293453,
				"y": 0.959726276,
				"z": -0.2886181904,
				"element": "O" 
			},
			{
				"x": -3.1062256598,
				"y": 0.9605279566,
				"z": 1.6836105701,
				"element": "O" 
			},
			{
				"x": 3.7589701235,
				"y": -1.3298768612,
				"z": -1.6949106324,
				"element": "H" 
			},
			{
				"x": 2.6442387896,
				"y": -0.1929177673,
				"z": -2.4806946045,
				"element": "H" 
			},
			{
				"x": 2.1939049965,
				"y": -1.896300212,
				"z": -2.3312119203,
				"element": "H" 
			},
			{
				"x": 0.3596012576,
				"y": -0.1615143531,
				"z": -2.4008549566,
				"element": "H" 
			},
			{
				"x": -0.3489321355,
				"y": -1.6606671878,
				"z": -1.7992144445,
				"element": "H" 
			},
			{
				"x": -2.0429343664,
				"y": 0.1237408087,
				"z": -2.1406524097,
				"element": "H" 
			},
			{
				"x": -1.1872820687,
				"y": 1.1777749237,
				"z": -1.0221291471,
				"element": "H" 
			},
			{
				"x": -2.7874486682,
				"y": -1.3373225216,
				"z": -0.4048214884,
				"element": "H" 
			},
			{
				"x": -1.6132871857,
				"y": -0.8753135449,
				"z": 2.027232503,
				"element": "H" 
			},
			{
				"x": -1.0527965146,
				"y": -2.1085905777,
				"z": 0.8921614409,
				"element": "H" 
			},
			{
				"x": 0.8677929902,
				"y": -0.7451894584,
				"z": 1.6840365809,
				"element": "H" 
			},
			{
				"x": 0.0639415681,
				"y": 0.7302552217,
				"z": 1.161638396,
				"element": "H" 
			},
			{
				"x": -4.0596435209,
				"y": 0.5047636597,
				"z": -1.1397292675,
				"element": "H" 
			}
		],
		 "valence_orbital": [ 
			{
				"type": "occ",
				"energy": -0.3387,
				"method": "rhf"
			},
			{
				"type": "occ",
				"energy": -0.32358,
				"method": "rhf"
			},
			{
				"type": "occ",
				"energy": -0.27832,
				"method": "rhf"
			},
			{
				"type": "occ",
				"energy": -0.24328,
				"method": "rhf"
			},
			{
				"type": "occ",
				"energy": -0.23612,
				"method": "rhf"
			},
			{
				"type": "unocc",
				"energy": 0.0006,
				"method": "rhf"
			},
			{
				"type": "unocc",
				"energy": 0.02875,
				"method": "rhf"
			},
			{
				"type": "unocc",
				"energy": 0.03605,
				"method": "rhf"
			},
			{
				"type": "unocc",
				"energy": 0.06952,
				"method": "rhf"
			},
			{
				"type": "unocc",
				"energy": 0.08943,
				"method": "rhf"
			}
		],
		"cosmo_sigma_profile": { 
			"-0.025": 0.0,
			"-0.024": 0.0,
			"-0.023": 0.0,
			"-0.022": 0.0,
			"-0.021": 0.0,
			"-0.02": 0.0,
			"-0.019": 0.144206931709,
			"-0.018": 0.936467767485,
			"-0.017": 1.36199927123,
			"-0.016": 0.941303567784,
			"-0.015": 1.0918401421,
			"-0.014": 0.663739835408,
			"-0.013": 0.995580806285,
			"-0.012": 1.35897256591,
			"-0.011": 1.45967072547,
			"-0.01": 1.0629236117,
			"-0.009": 1.14421052274,
			"-0.008": 1.81334259928,
			"-0.007": 3.38830040188,
			"-0.006": 9.99299028807,
			"-0.005": 20.9536793127,
			"-0.004": 25.434171018,
			"-0.003": 21.0580344904,
			"-0.002": 18.7919034777,
			"-0.001": 16.1885420108,
			"0.0": 9.97495867994,
			"0.001": 6.67281332505,
			"0.002": 5.06374318578,
			"0.003": 4.51149097979,
			"0.004": 3.51774043541,
			"0.005": 3.45633344319,
			"0.006": 4.11687075843,
			"0.007": 3.47349044035,
			"0.008": 4.58533514055,
			"0.009": 4.64638763258,
			"0.01": 5.40725992408,
			"0.011": 7.21128280946,
			"0.012": 6.51658915685,
			"0.013": 3.69699248746,
			"0.014": 4.90191559226,
			"0.015": 3.20345388879,
			"0.016": 0.255059716353,
			"0.017": 0.0,
			"0.018": 0.0,
			"0.019": 0.0,
			"0.02": 0.0,
			"0.021": 0.0,
			"0.022": 0.0,
			"0.023": 0.0,
			"0.024": 0.0,
			"0.025": 0.0
		}
	}
}
