{
	 "smiles": "O=CC1=C2C=CC=CC2=CN=C1", 
	 "Tm": 377.15, 
	 "num_atms": 19, 
	 "gaussian": { 
		 "optdone": 1, 
		 "sigma_profile": "yes", 
		 "theory": "DFT", 
		 "functional": "B3LYP", 
		 "basiset": "6-31G**", 
		 "properties": { 
			 "R2extent": 2435.1746, 
			 "electric_dipole_moment_norm": 4.86161353976, 
			 "electric_quadrupole_moment_norm": 9.30094700178, 
			 "total_energy": -515.247189861, 
			 "HOMO_LUMO_gap": 0.15826, 
			 "cosmo_polarized_energy": -10.6, 
			 "cosmo_cavitation_energy": 23.38, 
			 "cosmo_dispersion_energy": -17.42, 
			 "cosmo_repulsion_energy": 1.34, 
			 "cosmo_total_nonelectrostatic_energy": 7.3, 
			 "SMD_solvation_energy": 3.43 
		},
		"coords": [
			{
				"x": 0.8664553496,
				"y": -3.2868503489,
				"z": -2.9892510584,
				"element": "O" 
			},
			{
				"x": 0.2081846227,
				"y": -2.2814203384,
				"z": -2.7905846582,
				"element": "C" 
			},
			{
				"x": 0.5142822561,
				"y": -1.2870642662,
				"z": -1.7344584325,
				"element": "C" 
			},
			{
				"x": -0.2692028343,
				"y": -0.1077994547,
				"z": -1.5115920538,
				"element": "C" 
			},
			{
				"x": -1.4229618147,
				"y": 0.2687924597,
				"z": -2.2522061137,
				"element": "C" 
			},
			{
				"x": -2.1009170523,
				"y": 1.4302085682,
				"z": -1.948624214,
				"element": "C" 
			},
			{
				"x": -1.6720647838,
				"y": 2.2768734422,
				"z": -0.8979976207,
				"element": "C" 
			},
			{
				"x": -0.5596126979,
				"y": 1.9418438037,
				"z": -0.1618560609,
				"element": "C" 
			},
			{
				"x": 0.1587359334,
				"y": 0.752872168,
				"z": -0.4508275946,
				"element": "C" 
			},
			{
				"x": 1.3107084037,
				"y": 0.3811456912,
				"z": 0.2918849647,
				"element": "C" 
			},
			{
				"x": 2.0253297023,
				"y": -0.7076582342,
				"z": 0.0781766995,
				"element": "N" 
			},
			{
				"x": 1.6176599776,
				"y": -1.5193591692,
				"z": -0.9258876341,
				"element": "C" 
			},
			{
				"x": -0.6790066147,
				"y": -2.0710017821,
				"z": -3.4209475676,
				"element": "H" 
			},
			{
				"x": -1.7807564226,
				"y": -0.354457767,
				"z": -3.0635097464,
				"element": "H" 
			},
			{
				"x": -2.9803495171,
				"y": 1.7016005494,
				"z": -2.5254809269,
				"element": "H" 
			},
			{
				"x": -2.2237205994,
				"y": 3.1859040884,
				"z": -0.6792601322,
				"element": "H" 
			},
			{
				"x": -0.2151131385,
				"y": 2.5790902104,
				"z": 0.6484084532,
				"element": "H" 
			},
			{
				"x": 1.6428706554,
				"y": 1.0320554901,
				"z": 1.1018122462,
				"element": "H" 
			},
			{
				"x": 2.2083785745,
				"y": -2.4146751106,
				"z": -1.0987985493,
				"element": "H" 
			}
		],
		 "valence_orbital": [ 
			{
				"type": "occ",
				"energy": -0.30697,
				"method": "rhf"
			},
			{
				"type": "occ",
				"energy": -0.27796,
				"method": "rhf"
			},
			{
				"type": "occ",
				"energy": -0.27551,
				"method": "rhf"
			},
			{
				"type": "occ",
				"energy": -0.25106,
				"method": "rhf"
			},
			{
				"type": "occ",
				"energy": -0.24305,
				"method": "rhf"
			},
			{
				"type": "unocc",
				"energy": -0.08479,
				"method": "rhf"
			},
			{
				"type": "unocc",
				"energy": -0.03853,
				"method": "rhf"
			},
			{
				"type": "unocc",
				"energy": -0.02915,
				"method": "rhf"
			},
			{
				"type": "unocc",
				"energy": 0.0379,
				"method": "rhf"
			},
			{
				"type": "unocc",
				"energy": 0.07872,
				"method": "rhf"
			}
		],
		"cosmo_sigma_profile": { 
			"-0.025": 0.0,
			"-0.024": 0.0,
			"-0.023": 0.0,
			"-0.022": 0.0,
			"-0.021": 0.0,
			"-0.02": 0.0,
			"-0.019": 0.0,
			"-0.018": 0.0,
			"-0.017": 0.0,
			"-0.016": 0.0,
			"-0.015": 0.0,
			"-0.014": 0.0,
			"-0.013": 0.0,
			"-0.012": 0.0,
			"-0.011": 0.0,
			"-0.01": 0.179103367479,
			"-0.009": 1.89396694783,
			"-0.008": 4.81897121298,
			"-0.007": 11.3689065633,
			"-0.006": 11.7800370919,
			"-0.005": 14.0556288798,
			"-0.004": 11.694070839,
			"-0.003": 9.48584511076,
			"-0.002": 10.5918490378,
			"-0.001": 14.8215235698,
			"0.0": 19.9446375102,
			"0.001": 16.3687192249,
			"0.002": 13.4843551848,
			"0.003": 13.5713792391,
			"0.004": 5.47415416952,
			"0.005": 2.34871598974,
			"0.006": 2.66560589659,
			"0.007": 2.78655724026,
			"0.008": 3.28224514363,
			"0.009": 3.0332971025,
			"0.01": 3.51460098981,
			"0.011": 5.02665817908,
			"0.012": 3.05522396055,
			"0.013": 1.49977567057,
			"0.014": 0.814436783269,
			"0.015": 0.932196733655,
			"0.016": 0.489264156041,
			"0.017": 0.0660224651155,
			"0.018": 0.0,
			"0.019": 0.0,
			"0.02": 0.0,
			"0.021": 0.0,
			"0.022": 0.0,
			"0.023": 0.0,
			"0.024": 0.0,
			"0.025": 0.0
		}
	}
}
