{
	 "smiles": "CN(C)CC1=CC=CC=C1", 
	 "Tm": 198.15, 
	 "num_atms": 23, 
	 "gaussian": { 
		 "optdone": 1, 
		 "sigma_profile": "yes", 
		 "theory": "DFT", 
		 "functional": "B3LYP", 
		 "basiset": "6-31G**", 
		 "properties": { 
			 "R2extent": 2127.1091, 
			 "electric_dipole_moment_norm": 0.638751743638, 
			 "electric_quadrupole_moment_norm": 3.64051704844, 
			 "total_energy": -405.535859917, 
			 "HOMO_LUMO_gap": 0.21437, 
			 "cosmo_polarized_energy": -4.2, 
			 "cosmo_cavitation_energy": 25.19, 
			 "cosmo_dispersion_energy": -18.17, 
			 "cosmo_repulsion_energy": 1.48, 
			 "cosmo_total_nonelectrostatic_energy": 8.51, 
			 "SMD_solvation_energy": 3.1 
		},
		"coords": [
			{
				"x": 1.4351259628,
				"y": -2.7242214286,
				"z": 1.7308147094,
				"element": "C" 
			},
			{
				"x": 0.9341858897,
				"y": -1.5490479723,
				"z": 1.0316430207,
				"element": "N" 
			},
			{
				"x": 0.1952736949,
				"y": -0.6727618863,
				"z": 1.9332283417,
				"element": "C" 
			},
			{
				"x": 2.0044178898,
				"y": -0.8410689862,
				"z": 0.3299659863,
				"element": "C" 
			},
			{
				"x": 1.4953758399,
				"y": 0.1767015693,
				"z": -0.6746365014,
				"element": "C" 
			},
			{
				"x": 2.1027310846,
				"y": 1.4315550832,
				"z": -0.792895735,
				"element": "C" 
			},
			{
				"x": 1.6700605954,
				"y": 2.3479950972,
				"z": -1.7543658452,
				"element": "C" 
			},
			{
				"x": 0.6146554157,
				"y": 2.0208866154,
				"z": -2.6060906749,
				"element": "C" 
			},
			{
				"x": -0.0039772102,
				"y": 0.7729911522,
				"z": -2.4901319175,
				"element": "C" 
			},
			{
				"x": 0.4344100276,
				"y": -0.1421751718,
				"z": -1.5337763054,
				"element": "C" 
			},
			{
				"x": 0.5992964393,
				"y": -3.2641325463,
				"z": 2.1875073005,
				"element": "H" 
			},
			{
				"x": 1.9276832137,
				"y": -3.398409701,
				"z": 1.022528368,
				"element": "H" 
			},
			{
				"x": 2.1597347417,
				"y": -2.4834012126,
				"z": 2.5332795472,
				"element": "H" 
			},
			{
				"x": -0.6436890883,
				"y": -1.2210671741,
				"z": 2.3735512654,
				"element": "H" 
			},
			{
				"x": 0.8191245519,
				"y": -0.2802351424,
				"z": 2.7600920819,
				"element": "H" 
			},
			{
				"x": -0.2072363955,
				"y": 0.1783504458,
				"z": 1.3784281313,
				"element": "H" 
			},
			{
				"x": 2.7033563869,
				"y": -0.3436703338,
				"z": 1.0321784222,
				"element": "H" 
			},
			{
				"x": 2.5959415668,
				"y": -1.5974307062,
				"z": -0.2035033858,
				"element": "H" 
			},
			{
				"x": 2.9211318908,
				"y": 1.6940036036,
				"z": -0.1262798904,
				"element": "H" 
			},
			{
				"x": 2.1531237082,
				"y": 3.3181934396,
				"z": -1.8319055452,
				"element": "H" 
			},
			{
				"x": 0.2731963795,
				"y": 2.7331155371,
				"z": -3.35201716,
				"element": "H" 
			},
			{
				"x": -0.8291450282,
				"y": 0.5127544552,
				"z": -3.1476653138,
				"element": "H" 
			},
			{
				"x": -0.0479775571,
				"y": -1.109424737,
				"z": -1.4297489,
				"element": "H" 
			}
		],
		 "valence_orbital": [ 
			{
				"type": "occ",
				"energy": -0.33297,
				"method": "rhf"
			},
			{
				"type": "occ",
				"energy": -0.32867,
				"method": "rhf"
			},
			{
				"type": "occ",
				"energy": -0.24385,
				"method": "rhf"
			},
			{
				"type": "occ",
				"energy": -0.23789,
				"method": "rhf"
			},
			{
				"type": "occ",
				"energy": -0.21203,
				"method": "rhf"
			},
			{
				"type": "unocc",
				"energy": 0.00234,
				"method": "rhf"
			},
			{
				"type": "unocc",
				"energy": 0.00532,
				"method": "rhf"
			},
			{
				"type": "unocc",
				"energy": 0.08998,
				"method": "rhf"
			},
			{
				"type": "unocc",
				"energy": 0.10152,
				"method": "rhf"
			},
			{
				"type": "unocc",
				"energy": 0.13404,
				"method": "rhf"
			}
		],
		"cosmo_sigma_profile": { 
			"-0.025": 0.0,
			"-0.024": 0.0,
			"-0.023": 0.0,
			"-0.022": 0.0,
			"-0.021": 0.0,
			"-0.02": 0.0,
			"-0.019": 0.0,
			"-0.018": 0.0,
			"-0.017": 0.0,
			"-0.016": 0.0,
			"-0.015": 0.0,
			"-0.014": 0.0,
			"-0.013": 0.0,
			"-0.012": 0.0,
			"-0.011": 0.0,
			"-0.01": 0.0,
			"-0.009": 0.0,
			"-0.008": 0.0,
			"-0.007": 0.0,
			"-0.006": 1.17717196292,
			"-0.005": 8.645101794,
			"-0.004": 17.282248157,
			"-0.003": 22.7116942948,
			"-0.002": 22.7477186364,
			"-0.001": 30.2436667232,
			"0.0": 26.3823448655,
			"0.001": 14.2491421431,
			"0.002": 9.69307051162,
			"0.003": 9.74961270544,
			"0.004": 9.58046192935,
			"0.005": 9.18960741072,
			"0.006": 8.53790890528,
			"0.007": 3.69725073459,
			"0.008": 0.651952722904,
			"0.009": 1.06967064805,
			"0.01": 0.676382109005,
			"0.011": 0.708008292524,
			"0.012": 0.39446507959,
			"0.013": 0.389904208041,
			"0.014": 0.0253852248187,
			"0.015": 0.0,
			"0.016": 0.0,
			"0.017": 0.0,
			"0.018": 0.0,
			"0.019": 0.0,
			"0.02": 0.0,
			"0.021": 0.0,
			"0.022": 0.0,
			"0.023": 0.0,
			"0.024": 0.0,
			"0.025": 0.0
		}
	}
}
