{
	 "smiles": "CC(C)C1=CC=C(C=C1)C(N)=S", 
	 "Tm": 422.15, 
	 "num_atms": 25, 
	 "gaussian": { 
		 "optdone": 1, 
		 "sigma_profile": "yes", 
		 "theory": "DFT", 
		 "functional": "B3LYP", 
		 "basiset": "6-31G**", 
		 "properties": { 
			 "R2extent": 3968.2141, 
			 "electric_dipole_moment_norm": 4.90518439715, 
			 "electric_quadrupole_moment_norm": 24.4276587726, 
			 "total_energy": -841.862841944, 
			 "HOMO_LUMO_gap": 0.14724, 
			 "cosmo_polarized_energy": -14.86, 
			 "cosmo_cavitation_energy": 29.51, 
			 "cosmo_dispersion_energy": -21.63, 
			 "cosmo_repulsion_energy": 1.7, 
			 "cosmo_total_nonelectrostatic_energy": 9.58, 
			 "SMD_solvation_energy": 4.23 
		},
		"coords": [
			{
				"x": 1.5923403511,
				"y": 0.8430468416,
				"z": 2.108070153,
				"element": "C" 
			},
			{
				"x": 0.2654512604,
				"y": 1.5472177822,
				"z": 1.7651363368,
				"element": "C" 
			},
			{
				"x": 0.4837160438,
				"y": 3.0523523109,
				"z": 1.519591135,
				"element": "C" 
			},
			{
				"x": -0.4405459148,
				"y": 0.8794603157,
				"z": 0.593934115,
				"element": "C" 
			},
			{
				"x": 0.1367163321,
				"y": 0.840841945,
				"z": -0.6841036117,
				"element": "C" 
			},
			{
				"x": -0.5172288704,
				"y": 0.2314616807,
				"z": -1.751146981,
				"element": "C" 
			},
			{
				"x": -1.7749448832,
				"y": -0.3738159593,
				"z": -1.5752044402,
				"element": "C" 
			},
			{
				"x": -2.3469324228,
				"y": -0.3532001497,
				"z": -0.2949803635,
				"element": "C" 
			},
			{
				"x": -1.6920123644,
				"y": 0.2701411105,
				"z": 0.7627237867,
				"element": "C" 
			},
			{
				"x": -2.485505468,
				"y": -1.0267627369,
				"z": -2.7078297386,
				"element": "C" 
			},
			{
				"x": -2.2098682071,
				"y": -0.5141806541,
				"z": -3.9305978432,
				"element": "N" 
			},
			{
				"x": -3.526803387,
				"y": -2.3197908674,
				"z": -2.5267170492,
				"element": "S" 
			},
			{
				"x": 2.0527673501,
				"y": 1.2995242126,
				"z": 2.9909044534,
				"element": "H" 
			},
			{
				"x": 1.4354996447,
				"y": -0.2197657599,
				"z": 2.3157905243,
				"element": "H" 
			},
			{
				"x": 2.3087421271,
				"y": 0.9199776719,
				"z": 1.2827885185,
				"element": "H" 
			},
			{
				"x": -0.3951414478,
				"y": 1.4475338111,
				"z": 2.6361407385,
				"element": "H" 
			},
			{
				"x": 0.9375474215,
				"y": 3.523375079,
				"z": 2.3981401996,
				"element": "H" 
			},
			{
				"x": 1.1523973296,
				"y": 3.224261077,
				"z": 0.66892357,
				"element": "H" 
			},
			{
				"x": -0.4617178377,
				"y": 3.5620557121,
				"z": 1.3097709203,
				"element": "H" 
			},
			{
				"x": 1.1152514153,
				"y": 1.2831290414,
				"z": -0.8500079041,
				"element": "H" 
			},
			{
				"x": -0.0218488317,
				"y": 0.1858571722,
				"z": -2.7169504197,
				"element": "H" 
			},
			{
				"x": -3.3100373719,
				"y": -0.8297519995,
				"z": -0.1478982677,
				"element": "H" 
			},
			{
				"x": -2.1610803212,
				"y": 0.2830905975,
				"z": 1.7434169983,
				"element": "H" 
			},
			{
				"x": -1.766415272,
				"y": 0.3868023796,
				"z": -4.0312104288,
				"element": "H" 
			},
			{
				"x": -2.6905466758,
				"y": -0.906360614,
				"z": -4.7269844018,
				"element": "H" 
			}
		],
		 "valence_orbital": [ 
			{
				"type": "occ",
				"energy": -0.32867,
				"method": "rhf"
			},
			{
				"type": "occ",
				"energy": -0.25993,
				"method": "rhf"
			},
			{
				"type": "occ",
				"energy": -0.25585,
				"method": "rhf"
			},
			{
				"type": "occ",
				"energy": -0.22494,
				"method": "rhf"
			},
			{
				"type": "occ",
				"energy": -0.20364,
				"method": "rhf"
			},
			{
				"type": "unocc",
				"energy": -0.0564,
				"method": "rhf"
			},
			{
				"type": "unocc",
				"energy": -0.01162,
				"method": "rhf"
			},
			{
				"type": "unocc",
				"energy": 0.02408,
				"method": "rhf"
			},
			{
				"type": "unocc",
				"energy": 0.07405,
				"method": "rhf"
			},
			{
				"type": "unocc",
				"energy": 0.08297,
				"method": "rhf"
			}
		],
		"cosmo_sigma_profile": { 
			"-0.025": 0.0,
			"-0.024": 0.0,
			"-0.023": 0.0,
			"-0.022": 0.0,
			"-0.021": 0.0,
			"-0.02": 0.0,
			"-0.019": 0.0,
			"-0.018": 0.0,
			"-0.017": 0.0,
			"-0.016": 0.0243280132061,
			"-0.015": 1.50031404065,
			"-0.014": 2.50376248802,
			"-0.013": 1.88946272936,
			"-0.012": 3.32003451413,
			"-0.011": 2.07018176574,
			"-0.01": 2.34395946487,
			"-0.009": 1.87913030267,
			"-0.008": 1.5425496074,
			"-0.007": 2.98331072198,
			"-0.006": 4.50925335665,
			"-0.005": 11.5351396891,
			"-0.004": 11.7365138351,
			"-0.003": 18.8148085638,
			"-0.002": 20.7535515847,
			"-0.001": 22.4957561133,
			"0.0": 20.9476490586,
			"0.001": 25.1345274748,
			"0.002": 12.9069629272,
			"0.003": 10.8206029851,
			"0.004": 15.1209950905,
			"0.005": 8.3781859119,
			"0.006": 3.73650412633,
			"0.007": 4.76289932624,
			"0.008": 5.47625594341,
			"0.009": 6.94635761169,
			"0.01": 5.31350882141,
			"0.011": 3.40973843345,
			"0.012": 2.2668698284,
			"0.013": 0.152265763338,
			"0.014": 0.0,
			"0.015": 0.0,
			"0.016": 0.0,
			"0.017": 0.0,
			"0.018": 0.0,
			"0.019": 0.0,
			"0.02": 0.0,
			"0.021": 0.0,
			"0.022": 0.0,
			"0.023": 0.0,
			"0.024": 0.0,
			"0.025": 0.0
		}
	}
}
