{
	 "smiles": "CS(=O)(=O)C1=CC=C(CC(O)=O)C=C1", 
	 "Tm": 409.15, 
	 "num_atms": 24, 
	 "gaussian": { 
		 "optdone": 1, 
		 "sigma_profile": "yes", 
		 "theory": "DFT", 
		 "functional": "B3LYP", 
		 "basiset": "6-31G**", 
		 "properties": { 
			 "R2extent": 4956.1875, 
			 "electric_dipole_moment_norm": 1.64453236514, 
			 "electric_quadrupole_moment_norm": 39.7814821027, 
			 "total_energy": -1048.0125488, 
			 "HOMO_LUMO_gap": 0.20901, 
			 "cosmo_polarized_energy": -24.63, 
			 "cosmo_cavitation_energy": 30.03, 
			 "cosmo_dispersion_energy": -21.76, 
			 "cosmo_repulsion_energy": 1.68, 
			 "cosmo_total_nonelectrostatic_energy": 9.95, 
			 "SMD_solvation_energy": 6.02 
		},
		"coords": [
			{
				"x": -1.2878548573,
				"y": 0.0703646228,
				"z": 4.7662332016,
				"element": "C" 
			},
			{
				"x": -2.4347900074,
				"y": -0.4884136987,
				"z": 3.4840891949,
				"element": "S" 
			},
			{
				"x": -2.7109899837,
				"y": -1.9119665403,
				"z": 3.7270814047,
				"element": "O" 
			},
			{
				"x": -3.5194475615,
				"y": 0.5008088155,
				"z": 3.3976691294,
				"element": "O" 
			},
			{
				"x": -1.4667754621,
				"y": -0.3701533604,
				"z": 1.9670021362,
				"element": "C" 
			},
			{
				"x": -0.7006672292,
				"y": -1.4628441979,
				"z": 1.5541867706,
				"element": "C" 
			},
			{
				"x": 0.0392829467,
				"y": -1.3680071955,
				"z": 0.3780946729,
				"element": "C" 
			},
			{
				"x": 0.012568269,
				"y": -0.1976208007,
				"z": -0.3974676509,
				"element": "C" 
			},
			{
				"x": 0.8465432756,
				"y": -0.0909949675,
				"z": -1.6535121262,
				"element": "C" 
			},
			{
				"x": 2.2878294004,
				"y": 0.4142966345,
				"z": -1.4536303545,
				"element": "C" 
			},
			{
				"x": 2.500296753,
				"y": 1.2334099647,
				"z": -0.3972573887,
				"element": "O" 
			},
			{
				"x": 3.1799346076,
				"y": 0.1385990611,
				"z": -2.2136387986,
				"element": "O" 
			},
			{
				"x": -0.7802272898,
				"y": 0.8798009343,
				"z": 0.0313007815,
				"element": "C" 
			},
			{
				"x": -1.5219437831,
				"y": 0.800153661,
				"z": 1.2112008616,
				"element": "C" 
			},
			{
				"x": -0.4216953795,
				"y": -0.5923485719,
				"z": 4.7893295638,
				"element": "H" 
			},
			{
				"x": -0.9935732944,
				"y": 1.1008441449,
				"z": 4.5626580229,
				"element": "H" 
			},
			{
				"x": -1.8356163861,
				"y": 0.0115271024,
				"z": 5.7091294112,
				"element": "H" 
			},
			{
				"x": -0.7071794181,
				"y": -2.3771358081,
				"z": 2.1383980252,
				"element": "H" 
			},
			{
				"x": 0.6356851292,
				"y": -2.2144146473,
				"z": 0.0488847614,
				"element": "H" 
			},
			{
				"x": 0.3768790293,
				"y": 0.6013147456,
				"z": -2.3631185863,
				"element": "H" 
			},
			{
				"x": 0.9305689932,
				"y": -1.0533698941,
				"z": -2.1626849552,
				"element": "H" 
			},
			{
				"x": 1.6905082139,
				"y": 1.3097578507,
				"z": 0.1316135956,
				"element": "H" 
			},
			{
				"x": -0.8400466711,
				"y": 1.7789758928,
				"z": -0.5773184722,
				"element": "H" 
			},
			{
				"x": -2.1596892946,
				"y": 1.6181162522,
				"z": 1.529556799,
				"element": "H" 
			}
		],
		 "valence_orbital": [ 
			{
				"type": "occ",
				"energy": -0.30617,
				"method": "rhf"
			},
			{
				"type": "occ",
				"energy": -0.30551,
				"method": "rhf"
			},
			{
				"type": "occ",
				"energy": -0.29661,
				"method": "rhf"
			},
			{
				"type": "occ",
				"energy": -0.29276,
				"method": "rhf"
			},
			{
				"type": "occ",
				"energy": -0.27056,
				"method": "rhf"
			},
			{
				"type": "unocc",
				"energy": -0.06155,
				"method": "rhf"
			},
			{
				"type": "unocc",
				"energy": -0.04753,
				"method": "rhf"
			},
			{
				"type": "unocc",
				"energy": 0.00298,
				"method": "rhf"
			},
			{
				"type": "unocc",
				"energy": 0.04949,
				"method": "rhf"
			},
			{
				"type": "unocc",
				"energy": 0.06298,
				"method": "rhf"
			}
		],
		"cosmo_sigma_profile": { 
			"-0.025": 0.0,
			"-0.024": 0.0,
			"-0.023": 0.0,
			"-0.022": 0.0,
			"-0.021": 0.0,
			"-0.02": 0.0,
			"-0.019": 0.0,
			"-0.018": 0.0,
			"-0.017": 0.0,
			"-0.016": 0.0,
			"-0.015": 0.105870290823,
			"-0.014": 0.542227133882,
			"-0.013": 0.812409659784,
			"-0.012": 1.35259747884,
			"-0.011": 1.93367051111,
			"-0.01": 1.60014660723,
			"-0.009": 4.84662971615,
			"-0.008": 14.7225092321,
			"-0.007": 20.251657523,
			"-0.006": 18.857887717,
			"-0.005": 16.264615895,
			"-0.004": 17.9686719088,
			"-0.003": 11.0665382841,
			"-0.002": 10.5295450041,
			"-0.001": 9.78859777095,
			"0.0": 9.75094209819,
			"0.001": 12.3020575208,
			"0.002": 11.5810620602,
			"0.003": 4.33387157255,
			"0.004": 4.60256847313,
			"0.005": 4.38239633928,
			"0.006": 3.95992599377,
			"0.007": 5.81092087869,
			"0.008": 4.81204817542,
			"0.009": 7.42188445172,
			"0.01": 9.32030826422,
			"0.011": 14.0814948434,
			"0.012": 13.8233188659,
			"0.013": 2.37810004274,
			"0.014": 0.00848087698357,
			"0.015": 0.0,
			"0.016": 0.0,
			"0.017": 0.0,
			"0.018": 0.0,
			"0.019": 0.0,
			"0.02": 0.0,
			"0.021": 0.0,
			"0.022": 0.0,
			"0.023": 0.0,
			"0.024": 0.0,
			"0.025": 0.0
		}
	}
}
