{
	 "smiles": "[O-][N+](=O)C1=CC=CC2=NSN=C12", 
	 "Tm": 381.15, 
	 "num_atms": 15, 
	 "gaussian": { 
		 "optdone": 1, 
		 "sigma_profile": "yes", 
		 "theory": "DFT", 
		 "functional": "B3LYP", 
		 "basiset": "6-31G**", 
		 "properties": { 
			 "R2extent": 3052.8155, 
			 "electric_dipole_moment_norm": 4.54818016354, 
			 "electric_quadrupole_moment_norm": 13.1065428798, 
			 "total_energy": -943.197693963, 
			 "HOMO_LUMO_gap": 0.15188, 
			 "cosmo_polarized_energy": -11.7, 
			 "cosmo_cavitation_energy": 22.23, 
			 "cosmo_dispersion_energy": -17.47, 
			 "cosmo_repulsion_energy": 1.32, 
			 "cosmo_total_nonelectrostatic_energy": 6.07, 
			 "SMD_solvation_energy": 2.99 
		},
		"coords": [
			{
				"x": -2.3288580869,
				"y": 1.1824832854,
				"z": -1.6973008805,
				"element": "O" 
			},
			{
				"x": -1.4576178766,
				"y": 0.3189020272,
				"z": -1.5699291132,
				"element": "N" 
			},
			{
				"x": -1.6712534695,
				"y": -0.8791185208,
				"z": -1.4231993561,
				"element": "O" 
			},
			{
				"x": -0.0567803007,
				"y": 0.7671180904,
				"z": -1.5969383588,
				"element": "C" 
			},
			{
				"x": 0.189136942,
				"y": 2.1081510243,
				"z": -1.7599929113,
				"element": "C" 
			},
			{
				"x": 1.5138112211,
				"y": 2.6286462832,
				"z": -1.7975315132,
				"element": "C" 
			},
			{
				"x": 2.6050936302,
				"y": 1.8076594895,
				"z": -1.6717336419,
				"element": "C" 
			},
			{
				"x": 2.3857480361,
				"y": 0.4117285369,
				"z": -1.5013211965,
				"element": "C" 
			},
			{
				"x": 3.3500891792,
				"y": -0.5075503144,
				"z": -1.3659817512,
				"element": "N" 
			},
			{
				"x": 2.5874730079,
				"y": -1.9480901257,
				"z": -1.201390897,
				"element": "S" 
			},
			{
				"x": 1.0208665729,
				"y": -1.4716337646,
				"z": -1.2938169181,
				"element": "N" 
			},
			{
				"x": 1.0399982959,
				"y": -0.1451464493,
				"z": -1.4596258314,
				"element": "C" 
			},
			{
				"x": -0.6630221068,
				"y": 2.7691505898,
				"z": -1.86073945,
				"element": "H" 
			},
			{
				"x": 1.6463120717,
				"y": 3.6974097145,
				"z": -1.9287471398,
				"element": "H" 
			},
			{
				"x": 3.6210028836,
				"y": 2.1856901336,
				"z": -1.6978510409,
				"element": "H" 
			}
		],
		 "valence_orbital": [ 
			{
				"type": "occ",
				"energy": -0.31095,
				"method": "rhf"
			},
			{
				"type": "occ",
				"energy": -0.30522,
				"method": "rhf"
			},
			{
				"type": "occ",
				"energy": -0.28897,
				"method": "rhf"
			},
			{
				"type": "occ",
				"energy": -0.28689,
				"method": "rhf"
			},
			{
				"type": "occ",
				"energy": -0.27227,
				"method": "rhf"
			},
			{
				"type": "unocc",
				"energy": -0.12039,
				"method": "rhf"
			},
			{
				"type": "unocc",
				"energy": -0.07124,
				"method": "rhf"
			},
			{
				"type": "unocc",
				"energy": -0.01784,
				"method": "rhf"
			},
			{
				"type": "unocc",
				"energy": -0.005,
				"method": "rhf"
			},
			{
				"type": "unocc",
				"energy": 0.0041,
				"method": "rhf"
			}
		],
		"cosmo_sigma_profile": { 
			"-0.025": 0.0,
			"-0.024": 0.0,
			"-0.023": 0.0,
			"-0.022": 0.0,
			"-0.021": 0.0,
			"-0.02": 0.0,
			"-0.019": 0.0,
			"-0.018": 0.0,
			"-0.017": 0.0,
			"-0.016": 0.0,
			"-0.015": 0.0,
			"-0.014": 0.0,
			"-0.013": 0.0,
			"-0.012": 0.0,
			"-0.011": 0.0,
			"-0.01": 0.0,
			"-0.009": 2.66467289934,
			"-0.008": 6.82302609734,
			"-0.007": 7.00114342278,
			"-0.006": 8.22766007576,
			"-0.005": 10.9669391742,
			"-0.004": 15.4447156284,
			"-0.003": 20.9912869503,
			"-0.002": 21.5151748323,
			"-0.001": 14.3653147415,
			"0.0": 11.0693378612,
			"0.001": 6.09984230247,
			"0.002": 4.11844736185,
			"0.003": 5.47135130896,
			"0.004": 4.1652889473,
			"0.005": 3.80970371298,
			"0.006": 5.26627383815,
			"0.007": 7.43654465615,
			"0.008": 9.35327900272,
			"0.009": 7.36128879949,
			"0.01": 4.55131904459,
			"0.011": 2.18842237019,
			"0.012": 2.24105919471,
			"0.013": 0.812549907997,
			"0.014": 1.09939584376,
			"0.015": 0.0474470764637,
			"0.016": 0.0,
			"0.017": 0.0,
			"0.018": 0.0,
			"0.019": 0.0,
			"0.02": 0.0,
			"0.021": 0.0,
			"0.022": 0.0,
			"0.023": 0.0,
			"0.024": 0.0,
			"0.025": 0.0
		}
	}
}
