{
	 "smiles": "S(SC1=CC=CC=C1)C1=CC=CC=C1", 
	 "Tm": 334.15, 
	 "num_atms": 24, 
	 "gaussian": { 
		 "optdone": 1, 
		 "sigma_profile": "yes", 
		 "theory": "DFT", 
		 "functional": "B3LYP", 
		 "basiset": "6-31G**", 
		 "properties": { 
			 "R2extent": 4163.9219, 
			 "electric_dipole_moment_norm": 2.8816819828, 
			 "electric_quadrupole_moment_norm": 11.8087890996, 
			 "total_energy": -1259.6782441, 
			 "HOMO_LUMO_gap": 0.17464, 
			 "cosmo_polarized_energy": -6.94, 
			 "cosmo_cavitation_energy": 33.1, 
			 "cosmo_dispersion_energy": -22.73, 
			 "cosmo_repulsion_energy": 1.72, 
			 "cosmo_total_nonelectrostatic_energy": 12.09, 
			 "SMD_solvation_energy": 4.15 
		},
		"coords": [
			{
				"x": 1.8575327463,
				"y": 0.3115277353,
				"z": -1.3731693853,
				"element": "S" 
			},
			{
				"x": 1.5433882802,
				"y": 1.703977463,
				"z": 0.1936230889,
				"element": "S" 
			},
			{
				"x": 0.0317684694,
				"y": 2.5557334909,
				"z": -0.2648223167,
				"element": "C" 
			},
			{
				"x": -1.1898067502,
				"y": 2.1458429851,
				"z": 0.2874853397,
				"element": "C" 
			},
			{
				"x": -2.3624307363,
				"y": 2.8346023108,
				"z": -0.027721883,
				"element": "C" 
			},
			{
				"x": -2.320710457,
				"y": 3.9292515737,
				"z": -0.8933185719,
				"element": "C" 
			},
			{
				"x": -1.1034390637,
				"y": 4.3397033668,
				"z": -1.4437132766,
				"element": "C" 
			},
			{
				"x": 0.0720080038,
				"y": 3.6583935016,
				"z": -1.1298760071,
				"element": "C" 
			},
			{
				"x": 0.8161196912,
				"y": -1.0851251248,
				"z": -0.9424176503,
				"element": "C" 
			},
			{
				"x": 1.2877722562,
				"y": -2.0823610145,
				"z": -0.0770570355,
				"element": "C" 
			},
			{
				"x": 0.4865830575,
				"y": -3.1854641339,
				"z": 0.2156467139,
				"element": "C" 
			},
			{
				"x": -0.7833910155,
				"y": -3.3017491701,
				"z": -0.3559693687,
				"element": "C" 
			},
			{
				"x": -1.253142179,
				"y": -2.3124040975,
				"z": -1.2219029049,
				"element": "C" 
			},
			{
				"x": -0.4574136811,
				"y": -1.2038637009,
				"z": -1.5163156708,
				"element": "C" 
			},
			{
				"x": -1.2133042497,
				"y": 1.2946746211,
				"z": 0.9600898048,
				"element": "H" 
			},
			{
				"x": -3.3072897585,
				"y": 2.5157982721,
				"z": 0.4030866043,
				"element": "H" 
			},
			{
				"x": -3.234151823,
				"y": 4.4643102896,
				"z": -1.1367884952,
				"element": "H" 
			},
			{
				"x": -1.0692358163,
				"y": 5.1936425293,
				"z": -2.1141805494,
				"element": "H" 
			},
			{
				"x": 1.0216483173,
				"y": 3.9734710313,
				"z": -1.5502968559,
				"element": "H" 
			},
			{
				"x": 2.2765118219,
				"y": -1.9867779462,
				"z": 0.3600938305,
				"element": "H" 
			},
			{
				"x": 0.8546364915,
				"y": -3.9565554079,
				"z": 0.8863655335,
				"element": "H" 
			},
			{
				"x": -1.4037880246,
				"y": -4.1639715553,
				"z": -0.1287607049,
				"element": "H" 
			},
			{
				"x": -2.2389033273,
				"y": -2.4025257475,
				"z": -1.6692799159,
				"element": "H" 
			},
			{
				"x": -0.8143622527,
				"y": -0.431231272,
				"z": -2.1894003237,
				"element": "H" 
			}
		],
		 "valence_orbital": [ 
			{
				"type": "occ",
				"energy": -0.26093,
				"method": "rhf"
			},
			{
				"type": "occ",
				"energy": -0.25751,
				"method": "rhf"
			},
			{
				"type": "occ",
				"energy": -0.24843,
				"method": "rhf"
			},
			{
				"type": "occ",
				"energy": -0.24734,
				"method": "rhf"
			},
			{
				"type": "occ",
				"energy": -0.23366,
				"method": "rhf"
			},
			{
				"type": "unocc",
				"energy": -0.05902,
				"method": "rhf"
			},
			{
				"type": "unocc",
				"energy": -0.01261,
				"method": "rhf"
			},
			{
				"type": "unocc",
				"energy": -0.01088,
				"method": "rhf"
			},
			{
				"type": "unocc",
				"energy": -0.00644,
				"method": "rhf"
			},
			{
				"type": "unocc",
				"energy": 0.01877,
				"method": "rhf"
			}
		],
		"cosmo_sigma_profile": { 
			"-0.025": 0.0,
			"-0.024": 0.0,
			"-0.023": 0.0,
			"-0.022": 0.0,
			"-0.021": 0.0,
			"-0.02": 0.0,
			"-0.019": 0.0,
			"-0.018": 0.0,
			"-0.017": 0.0,
			"-0.016": 0.0,
			"-0.015": 0.0,
			"-0.014": 0.0,
			"-0.013": 0.0,
			"-0.012": 0.0,
			"-0.011": 0.0,
			"-0.01": 0.0,
			"-0.009": 0.0,
			"-0.008": 0.0,
			"-0.007": 2.62067619094,
			"-0.006": 17.7754409987,
			"-0.005": 21.7991083537,
			"-0.004": 21.1082130272,
			"-0.003": 15.5413790994,
			"-0.002": 13.6822325227,
			"-0.001": 23.0469019336,
			"0.0": 24.025070707,
			"0.001": 26.8678074708,
			"0.002": 25.0451390619,
			"0.003": 27.4342636155,
			"0.004": 31.566604898,
			"0.005": 10.0643645826,
			"0.006": 4.79845342709,
			"0.007": 3.85952954102,
			"0.008": 1.14616481994,
			"0.009": 0.00309244197556,
			"0.01": 0.0,
			"0.011": 0.0,
			"0.012": 0.0,
			"0.013": 0.0,
			"0.014": 0.0,
			"0.015": 0.0,
			"0.016": 0.0,
			"0.017": 0.0,
			"0.018": 0.0,
			"0.019": 0.0,
			"0.02": 0.0,
			"0.021": 0.0,
			"0.022": 0.0,
			"0.023": 0.0,
			"0.024": 0.0,
			"0.025": 0.0
		}
	}
}
