{
	 "smiles": "CCCCCCCCOC(=O)C1=CC(O)=C(O)C(O)=C1", 
	 "Tm": 374.15, 
	 "num_atms": 42, 
	 "gaussian": { 
		 "optdone": 1, 
		 "sigma_profile": "yes", 
		 "theory": "DFT", 
		 "functional": "B3LYP", 
		 "basiset": "6-31G**", 
		 "properties": { 
			 "R2extent": 11814.6883, 
			 "electric_dipole_moment_norm": 4.61065597068, 
			 "electric_quadrupole_moment_norm": 22.5062243379, 
			 "total_energy": -960.997468316, 
			 "HOMO_LUMO_gap": 0.18297, 
			 "cosmo_polarized_energy": -16.31, 
			 "cosmo_cavitation_energy": 44.5, 
			 "cosmo_dispersion_energy": -31.44, 
			 "cosmo_repulsion_energy": 2.47, 
			 "cosmo_total_nonelectrostatic_energy": 15.53, 
			 "SMD_solvation_energy": 8.44 
		},
		"coords": [
			{
				"x": 4.6423722569,
				"y": 0.3537092185,
				"z": -1.064658136,
				"element": "C" 
			},
			{
				"x": 4.7968898462,
				"y": 1.8177836518,
				"z": -1.4926043723,
				"element": "C" 
			},
			{
				"x": 4.1588953233,
				"y": 2.1988747087,
				"z": -2.8409401362,
				"element": "C" 
			},
			{
				"x": 2.6202952073,
				"y": 2.0851832638,
				"z": -2.9251059837,
				"element": "C" 
			},
			{
				"x": 2.0951648688,
				"y": 0.7291607603,
				"z": -3.4320231343,
				"element": "C" 
			},
			{
				"x": 0.5622624703,
				"y": 0.6386155269,
				"z": -3.5956306326,
				"element": "C" 
			},
			{
				"x": -0.2365575429,
				"y": 0.1622899738,
				"z": -2.3680051574,
				"element": "C" 
			},
			{
				"x": -0.2025815879,
				"y": 1.1047633037,
				"z": -1.1672538015,
				"element": "C" 
			},
			{
				"x": -1.0249192104,
				"y": 0.5982938811,
				"z": -0.0906096676,
				"element": "O" 
			},
			{
				"x": -2.3408606645,
				"y": 0.9279206126,
				"z": -0.1283210705,
				"element": "C" 
			},
			{
				"x": -2.8324981699,
				"y": 1.618493694,
				"z": -1.0014062842,
				"element": "O" 
			},
			{
				"x": -3.0986746348,
				"y": 0.3542490634,
				"z": 1.0155101644,
				"element": "C" 
			},
			{
				"x": -2.4740935884,
				"y": -0.4404217042,
				"z": 1.9904144572,
				"element": "C" 
			},
			{
				"x": -3.2362782865,
				"y": -0.9482080985,
				"z": 3.0355787479,
				"element": "C" 
			},
			{
				"x": -2.7517340135,
				"y": -1.7379041326,
				"z": 4.0533757507,
				"element": "O" 
			},
			{
				"x": -4.6051317325,
				"y": -0.6724720358,
				"z": 3.1165936222,
				"element": "C" 
			},
			{
				"x": -5.3848695272,
				"y": -1.1558214357,
				"z": 4.1312704323,
				"element": "O" 
			},
			{
				"x": -5.2239222984,
				"y": 0.1207220012,
				"z": 2.1417094189,
				"element": "C" 
			},
			{
				"x": -6.5562308164,
				"y": 0.3861381999,
				"z": 2.2247918442,
				"element": "O" 
			},
			{
				"x": -4.468479982,
				"y": 0.6336041597,
				"z": 1.0902719185,
				"element": "C" 
			},
			{
				"x": 5.2033709564,
				"y": 0.1555147134,
				"z": -0.144965465,
				"element": "H" 
			},
			{
				"x": 3.5975991998,
				"y": 0.0910650827,
				"z": -0.870001376,
				"element": "H" 
			},
			{
				"x": 5.0181502551,
				"y": -0.3288312704,
				"z": -1.8357352388,
				"element": "H" 
			},
			{
				"x": 5.8671725721,
				"y": 2.0570114519,
				"z": -1.5436315838,
				"element": "H" 
			},
			{
				"x": 4.3823396091,
				"y": 2.4677208951,
				"z": -0.7094593449,
				"element": "H" 
			},
			{
				"x": 4.4430128892,
				"y": 3.2372471732,
				"z": -3.0529539232,
				"element": "H" 
			},
			{
				"x": 4.6118488654,
				"y": 1.5972632023,
				"z": -3.6420973151,
				"element": "H" 
			},
			{
				"x": 2.2469181919,
				"y": 2.8568856895,
				"z": -3.6111791488,
				"element": "H" 
			},
			{
				"x": 2.1889782893,
				"y": 2.3313652287,
				"z": -1.9461209279,
				"element": "H" 
			},
			{
				"x": 2.4405092613,
				"y": -0.0875596136,
				"z": -2.7861136668,
				"element": "H" 
			},
			{
				"x": 2.5595600946,
				"y": 0.5464697089,
				"z": -4.4101083674,
				"element": "H" 
			},
			{
				"x": 0.3405079592,
				"y": -0.0654086853,
				"z": -4.4065204281,
				"element": "H" 
			},
			{
				"x": 0.1714168259,
				"y": 1.609178241,
				"z": -3.9318900465,
				"element": "H" 
			},
			{
				"x": 0.1250469465,
				"y": -0.824998481,
				"z": -2.0525714298,
				"element": "H" 
			},
			{
				"x": -1.2849351386,
				"y": 0.0403728066,
				"z": -2.6609409467,
				"element": "H" 
			},
			{
				"x": 0.7955532173,
				"y": 1.1768492395,
				"z": -0.730582268,
				"element": "H" 
			},
			{
				"x": -0.5536403268,
				"y": 2.1026887746,
				"z": -1.442979148,
				"element": "H" 
			},
			{
				"x": -1.4124354469,
				"y": -0.6512776635,
				"z": 1.9225345481,
				"element": "H" 
			},
			{
				"x": -1.8055304912,
				"y": -1.8820774892,
				"z": 3.930537582,
				"element": "H" 
			},
			{
				"x": -4.8198043679,
				"y": -1.6793238335,
				"z": 4.7185847023,
				"element": "H" 
			},
			{
				"x": -6.8971773989,
				"y": -0.0551602162,
				"z": 3.0170913952,
				"element": "H" 
			},
			{
				"x": -4.9378098803,
				"y": 1.2478304326,
				"z": 0.3315444172,
				"element": "H" 
			}
		],
		 "valence_orbital": [ 
			{
				"type": "occ",
				"energy": -0.30618,
				"method": "rhf"
			},
			{
				"type": "occ",
				"energy": -0.28664,
				"method": "rhf"
			},
			{
				"type": "occ",
				"energy": -0.26602,
				"method": "rhf"
			},
			{
				"type": "occ",
				"energy": -0.22527,
				"method": "rhf"
			},
			{
				"type": "occ",
				"energy": -0.21613,
				"method": "rhf"
			},
			{
				"type": "unocc",
				"energy": -0.03316,
				"method": "rhf"
			},
			{
				"type": "unocc",
				"energy": 0.01369,
				"method": "rhf"
			},
			{
				"type": "unocc",
				"energy": 0.04155,
				"method": "rhf"
			},
			{
				"type": "unocc",
				"energy": 0.07141,
				"method": "rhf"
			},
			{
				"type": "unocc",
				"energy": 0.07744,
				"method": "rhf"
			}
		],
		"cosmo_sigma_profile": { 
			"-0.025": 0.0,
			"-0.024": 0.0,
			"-0.023": 0.0,
			"-0.022": 0.0,
			"-0.021": 0.0,
			"-0.02": 0.0,
			"-0.019": 0.206577578698,
			"-0.018": 0.930655483789,
			"-0.017": 1.45222192475,
			"-0.016": 1.32882349116,
			"-0.015": 1.74437333152,
			"-0.014": 2.76417919554,
			"-0.013": 1.60536333676,
			"-0.012": 2.23253788843,
			"-0.011": 2.00132281278,
			"-0.01": 3.14493773818,
			"-0.009": 1.65764593073,
			"-0.008": 1.7244978399,
			"-0.007": 2.79892802372,
			"-0.006": 3.8663556304,
			"-0.005": 5.07776802504,
			"-0.004": 9.1730903309,
			"-0.003": 19.8758510831,
			"-0.002": 40.6782700214,
			"-0.001": 46.7093899603,
			"0.0": 48.8804934494,
			"0.001": 45.939310308,
			"0.002": 27.0522365262,
			"0.003": 20.2693406112,
			"0.004": 15.0091464195,
			"0.005": 7.75866791306,
			"0.006": 8.33762392206,
			"0.007": 6.31102883473,
			"0.008": 2.7164876291,
			"0.009": 2.68071180994,
			"0.01": 3.77617763766,
			"0.011": 3.98242763965,
			"0.012": 4.5596435096,
			"0.013": 1.06047505173,
			"0.014": 0.0,
			"0.015": 0.0,
			"0.016": 0.0,
			"0.017": 0.0,
			"0.018": 0.0,
			"0.019": 0.0,
			"0.02": 0.0,
			"0.021": 0.0,
			"0.022": 0.0,
			"0.023": 0.0,
			"0.024": 0.0,
			"0.025": 0.0
		}
	}
}
