{
	 "smiles": "NS(=O)(=O)N1CCC2=C(C1)C=CC=C2", 
	 "Tm": 433.15, 
	 "num_atms": 26, 
	 "gaussian": { 
		 "optdone": 1, 
		 "sigma_profile": "yes", 
		 "theory": "DFT", 
		 "functional": "B3LYP", 
		 "basiset": "6-31G**", 
		 "properties": { 
			 "R2extent": 3640.9025, 
			 "electric_dipole_moment_norm": 3.2189529804, 
			 "electric_quadrupole_moment_norm": 13.6321226546, 
			 "total_energy": -1008.26161053, 
			 "HOMO_LUMO_gap": 0.2336, 
			 "cosmo_polarized_energy": -15.64, 
			 "cosmo_cavitation_energy": 29.1, 
			 "cosmo_dispersion_energy": -22.19, 
			 "cosmo_repulsion_energy": 1.69, 
			 "cosmo_total_nonelectrostatic_energy": 8.6, 
			 "SMD_solvation_energy": 2.97 
		},
		"coords": [
			{
				"x": -2.0030029852,
				"y": -2.5697658318,
				"z": 3.3076147701,
				"element": "N" 
			},
			{
				"x": -1.6441588033,
				"y": -1.1914653364,
				"z": 2.4000871583,
				"element": "S" 
			},
			{
				"x": -0.6614869838,
				"y": -0.47042558,
				"z": 3.2135208967,
				"element": "O" 
			},
			{
				"x": -2.8539319459,
				"y": -0.5087619629,
				"z": 1.9358669716,
				"element": "O" 
			},
			{
				"x": -0.9891481861,
				"y": -1.9567482048,
				"z": 1.057206646,
				"element": "N" 
			},
			{
				"x": 0.3433827821,
				"y": -2.5661742279,
				"z": 1.2313603521,
				"element": "C" 
			},
			{
				"x": 1.4732410316,
				"y": -1.5401578672,
				"z": 1.0942704194,
				"element": "C" 
			},
			{
				"x": 1.2909065962,
				"y": -0.6431920218,
				"z": -0.1150539691,
				"element": "C" 
			},
			{
				"x": 0.0334447423,
				"y": -0.5051572092,
				"z": -0.7241254773,
				"element": "C" 
			},
			{
				"x": -1.1669805949,
				"y": -1.3089467455,
				"z": -0.2523608252,
				"element": "C" 
			},
			{
				"x": -0.1150852956,
				"y": 0.3529132576,
				"z": -1.8215722416,
				"element": "C" 
			},
			{
				"x": 0.9668679461,
				"y": 1.0752526152,
				"z": -2.317296868,
				"element": "C" 
			},
			{
				"x": 2.2199361398,
				"y": 0.9414083074,
				"z": -1.7134136066,
				"element": "C" 
			},
			{
				"x": 2.3730728025,
				"y": 0.0891857259,
				"z": -0.6230975665,
				"element": "C" 
			},
			{
				"x": -2.8510359739,
				"y": -3.013572252,
				"z": 2.963789356,
				"element": "H" 
			},
			{
				"x": -2.0980208317,
				"y": -2.2980048089,
				"z": 4.2830470387,
				"element": "H" 
			},
			{
				"x": 0.3710252009,
				"y": -3.0727409525,
				"z": 2.1979146824,
				"element": "H" 
			},
			{
				"x": 0.4245393688,
				"y": -3.336184749,
				"z": 0.4543471873,
				"element": "H" 
			},
			{
				"x": 2.4346673275,
				"y": -2.0644429341,
				"z": 1.0328998794,
				"element": "H" 
			},
			{
				"x": 1.500771839,
				"y": -0.9263870412,
				"z": 2.0019913555,
				"element": "H" 
			},
			{
				"x": -2.0626202613,
				"y": -0.6871146259,
				"z": -0.2074875457,
				"element": "H" 
			},
			{
				"x": -1.3745680054,
				"y": -2.113479013,
				"z": -0.9725103544,
				"element": "H" 
			},
			{
				"x": -1.0929178182,
				"y": 0.4565593947,
				"z": -2.2872346427,
				"element": "H" 
			},
			{
				"x": 0.8341929146,
				"y": 1.7413381411,
				"z": -3.1648939129,
				"element": "H" 
			},
			{
				"x": 3.0721556661,
				"y": 1.4989624781,
				"z": -2.0912347819,
				"element": "H" 
			},
			{
				"x": 3.3475533281,
				"y": -0.0150985559,
				"z": -0.1513349216,
				"element": "H" 
			}
		],
		 "valence_orbital": [ 
			{
				"type": "occ",
				"energy": -0.30527,
				"method": "rhf"
			},
			{
				"type": "occ",
				"energy": -0.29001,
				"method": "rhf"
			},
			{
				"type": "occ",
				"energy": -0.25234,
				"method": "rhf"
			},
			{
				"type": "occ",
				"energy": -0.2427,
				"method": "rhf"
			},
			{
				"type": "occ",
				"energy": -0.23823,
				"method": "rhf"
			},
			{
				"type": "unocc",
				"energy": -0.00463,
				"method": "rhf"
			},
			{
				"type": "unocc",
				"energy": 0.00124,
				"method": "rhf"
			},
			{
				"type": "unocc",
				"energy": 0.05117,
				"method": "rhf"
			},
			{
				"type": "unocc",
				"energy": 0.08476,
				"method": "rhf"
			},
			{
				"type": "unocc",
				"energy": 0.09217,
				"method": "rhf"
			}
		],
		"cosmo_sigma_profile": { 
			"-0.025": 0.0,
			"-0.024": 0.0,
			"-0.023": 0.0,
			"-0.022": 0.0,
			"-0.021": 0.0,
			"-0.02": 0.0,
			"-0.019": 0.0,
			"-0.018": 0.0,
			"-0.017": 0.0,
			"-0.016": 0.0234215899667,
			"-0.015": 2.05072716495,
			"-0.014": 2.36251782559,
			"-0.013": 2.94230710984,
			"-0.012": 2.39319210628,
			"-0.011": 1.92180462939,
			"-0.01": 1.78666801272,
			"-0.009": 1.56284840785,
			"-0.008": 1.9898655995,
			"-0.007": 1.23742932964,
			"-0.006": 8.89542053057,
			"-0.005": 19.447299757,
			"-0.004": 21.9982926038,
			"-0.003": 20.549264308,
			"-0.002": 15.7203989616,
			"-0.001": 14.7906306077,
			"0.0": 11.291666807,
			"0.001": 9.56476979475,
			"0.002": 10.8263518749,
			"0.003": 10.5466112674,
			"0.004": 12.1822430706,
			"0.005": 11.9970192627,
			"0.006": 10.6825991016,
			"0.007": 5.82988177039,
			"0.008": 4.13006229954,
			"0.009": 3.96634107437,
			"0.01": 6.46818297761,
			"0.011": 9.31786386969,
			"0.012": 3.4552921239,
			"0.013": 0.0,
			"0.014": 0.0,
			"0.015": 0.0,
			"0.016": 0.0,
			"0.017": 0.0,
			"0.018": 0.0,
			"0.019": 0.0,
			"0.02": 0.0,
			"0.021": 0.0,
			"0.022": 0.0,
			"0.023": 0.0,
			"0.024": 0.0,
			"0.025": 0.0
		}
	}
}
