{
	 "smiles": "OCC1CCCN2CCCCC12", 
	 "Tm": 343.15, 
	 "num_atms": 31, 
	 "gaussian": { 
		 "optdone": 1, 
		 "sigma_profile": "yes", 
		 "theory": "DFT", 
		 "functional": "B3LYP", 
		 "basiset": "6-31G**", 
		 "properties": { 
			 "R2extent": 2301.575, 
			 "electric_dipole_moment_norm": 1.69898999114, 
			 "electric_quadrupole_moment_norm": 6.41474200884, 
			 "total_energy": -522.481588079, 
			 "HOMO_LUMO_gap": 0.26854, 
			 "cosmo_polarized_energy": -6.84, 
			 "cosmo_cavitation_energy": 28.76, 
			 "cosmo_dispersion_energy": -21.32, 
			 "cosmo_repulsion_energy": 1.69, 
			 "cosmo_total_nonelectrostatic_energy": 9.13, 
			 "SMD_solvation_energy": 2.68 
		},
		"coords": [
			{
				"x": -0.5565514494,
				"y": 2.7544336688,
				"z": 0.6016202354,
				"element": "O" 
			},
			{
				"x": -0.2993742568,
				"y": 1.5419187886,
				"z": 1.3053293278,
				"element": "C" 
			},
			{
				"x": 0.5436841206,
				"y": 0.5281468262,
				"z": 0.5136764801,
				"element": "C" 
			},
			{
				"x": 1.1121074297,
				"y": -0.5812211592,
				"z": 1.4264622843,
				"element": "C" 
			},
			{
				"x": 0.0258317668,
				"y": -1.5694793756,
				"z": 1.879739488,
				"element": "C" 
			},
			{
				"x": -0.7825393907,
				"y": -2.0901898367,
				"z": 0.685155107,
				"element": "C" 
			},
			{
				"x": -1.3119314702,
				"y": -0.9698337222,
				"z": -0.0877120399,
				"element": "N" 
			},
			{
				"x": -2.370114334,
				"y": -1.3180759691,
				"z": -1.0537283638,
				"element": "C" 
			},
			{
				"x": -1.8637815129,
				"y": -1.3932971939,
				"z": -2.5004379892,
				"element": "C" 
			},
			{
				"x": -1.2997292927,
				"y": -0.0209490498,
				"z": -2.9389528966,
				"element": "C" 
			},
			{
				"x": -0.7734546009,
				"y": 0.7867019748,
				"z": -1.7284810993,
				"element": "C" 
			},
			{
				"x": -0.2214509239,
				"y": -0.151561494,
				"z": -0.6487780693,
				"element": "C" 
			},
			{
				"x": 0.2963474369,
				"y": 3.1514202595,
				"z": 0.3820747851,
				"element": "H" 
			},
			{
				"x": 0.1956829675,
				"y": 1.7518953588,
				"z": 2.2681635595,
				"element": "H" 
			},
			{
				"x": -1.2812640166,
				"y": 1.1141509583,
				"z": 1.521951686,
				"element": "H" 
			},
			{
				"x": 1.39615016,
				"y": 1.0750442484,
				"z": 0.0789799854,
				"element": "H" 
			},
			{
				"x": 1.6177413653,
				"y": -0.1430795968,
				"z": 2.2959538079,
				"element": "H" 
			},
			{
				"x": 1.8789299611,
				"y": -1.1314880005,
				"z": 0.8646535653,
				"element": "H" 
			},
			{
				"x": -0.6611819117,
				"y": -1.0799098486,
				"z": 2.5799996161,
				"element": "H" 
			},
			{
				"x": 0.481728252,
				"y": -2.4122999902,
				"z": 2.413382264,
				"element": "H" 
			},
			{
				"x": -0.1375155203,
				"y": -2.753949629,
				"z": 0.0705353539,
				"element": "H" 
			},
			{
				"x": -1.6196207241,
				"y": -2.6993002947,
				"z": 1.0436268941,
				"element": "H" 
			},
			{
				"x": -3.1743451501,
				"y": -0.5703516801,
				"z": -0.9961590307,
				"element": "H" 
			},
			{
				"x": -2.8145024908,
				"y": -2.2714702563,
				"z": -0.7491855994,
				"element": "H" 
			},
			{
				"x": -1.0844418278,
				"y": -2.1625792011,
				"z": -2.5648878624,
				"element": "H" 
			},
			{
				"x": -2.6718743724,
				"y": -1.7146740017,
				"z": -3.1675610701,
				"element": "H" 
			},
			{
				"x": -0.4966169613,
				"y": -0.1718118261,
				"z": -3.6700195701,
				"element": "H" 
			},
			{
				"x": -2.0764477605,
				"y": 0.5598722027,
				"z": -3.4496616347,
				"element": "H" 
			},
			{
				"x": -1.5642476965,
				"y": 1.4043159644,
				"z": -1.2944995762,
				"element": "H" 
			},
			{
				"x": 0.0118649636,
				"y": 1.4811829661,
				"z": -2.0455918906,
				"element": "H" 
			},
			{
				"x": 0.5236172402,
				"y": -0.8102610911,
				"z": -1.1475477476,
				"element": "H" 
			}
		],
		 "valence_orbital": [ 
			{
				"type": "occ",
				"energy": -0.30351,
				"method": "rhf"
			},
			{
				"type": "occ",
				"energy": -0.29925,
				"method": "rhf"
			},
			{
				"type": "occ",
				"energy": -0.28569,
				"method": "rhf"
			},
			{
				"type": "occ",
				"energy": -0.25369,
				"method": "rhf"
			},
			{
				"type": "occ",
				"energy": -0.19642,
				"method": "rhf"
			},
			{
				"type": "unocc",
				"energy": 0.07212,
				"method": "rhf"
			},
			{
				"type": "unocc",
				"energy": 0.08911,
				"method": "rhf"
			},
			{
				"type": "unocc",
				"energy": 0.09971,
				"method": "rhf"
			},
			{
				"type": "unocc",
				"energy": 0.10755,
				"method": "rhf"
			},
			{
				"type": "unocc",
				"energy": 0.12174,
				"method": "rhf"
			}
		],
		"cosmo_sigma_profile": { 
			"-0.025": 0.0,
			"-0.024": 0.0,
			"-0.023": 0.0,
			"-0.022": 0.0,
			"-0.021": 0.0,
			"-0.02": 0.0,
			"-0.019": 0.0,
			"-0.018": 0.0,
			"-0.017": 0.0,
			"-0.016": 0.0,
			"-0.015": 0.327450465811,
			"-0.014": 0.827152177695,
			"-0.013": 1.08563324808,
			"-0.012": 0.927681863896,
			"-0.011": 0.871809113504,
			"-0.01": 0.721873698393,
			"-0.009": 1.07212702351,
			"-0.008": 0.623113738312,
			"-0.007": 1.04056653302,
			"-0.006": 1.38857065712,
			"-0.005": 1.132615294,
			"-0.004": 2.81924329222,
			"-0.003": 12.2378316557,
			"-0.002": 33.5420485628,
			"-0.001": 50.1434905145,
			"0.0": 50.3218953026,
			"0.001": 23.4161491601,
			"0.002": 8.6996589128,
			"0.003": 3.26686996001,
			"0.004": 3.27591400718,
			"0.005": 2.80683922057,
			"0.006": 2.69256745077,
			"0.007": 2.21964036739,
			"0.008": 2.81139158601,
			"0.009": 1.75764884414,
			"0.01": 1.80721256209,
			"0.011": 2.14487076081,
			"0.012": 0.860561450014,
			"0.013": 1.78343827108,
			"0.014": 1.30035467429,
			"0.015": 1.28931468273,
			"0.016": 0.0580356057312,
			"0.017": 0.0,
			"0.018": 0.0,
			"0.019": 0.0,
			"0.02": 0.0,
			"0.021": 0.0,
			"0.022": 0.0,
			"0.023": 0.0,
			"0.024": 0.0,
			"0.025": 0.0
		}
	}
}
