{
	 "smiles": "OC1=NC(Cl)=C(C=C1)[N+]([O-])=O", 
	 "Tm": 473.15, 
	 "num_atms": 14, 
	 "gaussian": { 
		 "optdone": 1, 
		 "sigma_profile": "yes", 
		 "theory": "DFT", 
		 "functional": "B3LYP", 
		 "basiset": "6-31G**", 
		 "properties": { 
			 "R2extent": 3035.2621, 
			 "electric_dipole_moment_norm": 4.35992548904, 
			 "electric_quadrupole_moment_norm": 14.3019133304, 
			 "total_energy": -987.595297951, 
			 "HOMO_LUMO_gap": 0.17659, 
			 "cosmo_polarized_energy": -11.64, 
			 "cosmo_cavitation_energy": 21.53, 
			 "cosmo_dispersion_energy": -16.36, 
			 "cosmo_repulsion_energy": 1.32, 
			 "cosmo_total_nonelectrostatic_energy": 6.49, 
			 "SMD_solvation_energy": 5.03 
		},
		"coords": [
			{
				"x": 2.3489721046,
				"y": 0.3696412346,
				"z": 1.3969353082,
				"element": "O" 
			},
			{
				"x": 1.6414035563,
				"y": 0.2501883391,
				"z": 0.2649650764,
				"element": "C" 
			},
			{
				"x": 1.6365582403,
				"y": 1.2888271865,
				"z": -0.5684737339,
				"element": "N" 
			},
			{
				"x": 0.9335168674,
				"y": 1.2232378519,
				"z": -1.6913865431,
				"element": "C" 
			},
			{
				"x": 1.0614625868,
				"y": 2.6292536122,
				"z": -2.7087160509,
				"element": "Cl" 
			},
			{
				"x": 0.1949848623,
				"y": 0.0784471028,
				"z": -2.034246358,
				"element": "C" 
			},
			{
				"x": 0.2335024848,
				"y": -1.0191187358,
				"z": -1.1603375128,
				"element": "C" 
			},
			{
				"x": 0.9549517281,
				"y": -0.9490238989,
				"z": 0.0130857788,
				"element": "C" 
			},
			{
				"x": -0.6215745104,
				"y": -0.0657655463,
				"z": -3.2435059039,
				"element": "N" 
			},
			{
				"x": -0.8660570092,
				"y": -1.2192114883,
				"z": -3.6055802375,
				"element": "O" 
			},
			{
				"x": -1.0288827228,
				"y": 0.9463256568,
				"z": -3.8034628529,
				"element": "O" 
			},
			{
				"x": 2.7508611701,
				"y": 1.2538273425,
				"z": 1.3898196661,
				"element": "H" 
			},
			{
				"x": -0.3180947291,
				"y": -1.9092153426,
				"z": -1.4369436999,
				"element": "H" 
			},
			{
				"x": 1.0017953708,
				"y": -1.7690133146,
				"z": 0.7186470634,
				"element": "H" 
			}
		],
		 "valence_orbital": [ 
			{
				"type": "occ",
				"energy": -0.31698,
				"method": "rhf"
			},
			{
				"type": "occ",
				"energy": -0.31339,
				"method": "rhf"
			},
			{
				"type": "occ",
				"energy": -0.30758,
				"method": "rhf"
			},
			{
				"type": "occ",
				"energy": -0.29124,
				"method": "rhf"
			},
			{
				"type": "occ",
				"energy": -0.27117,
				"method": "rhf"
			},
			{
				"type": "unocc",
				"energy": -0.09458,
				"method": "rhf"
			},
			{
				"type": "unocc",
				"energy": -0.05991,
				"method": "rhf"
			},
			{
				"type": "unocc",
				"energy": -0.01458,
				"method": "rhf"
			},
			{
				"type": "unocc",
				"energy": 0.01456,
				"method": "rhf"
			},
			{
				"type": "unocc",
				"energy": 0.0632,
				"method": "rhf"
			}
		],
		"cosmo_sigma_profile": { 
			"-0.025": 0.0,
			"-0.024": 0.0,
			"-0.023": 0.0,
			"-0.022": 0.0,
			"-0.021": 0.0,
			"-0.02": 0.0,
			"-0.019": 0.313419572915,
			"-0.018": 1.18844895593,
			"-0.017": 0.824752648499,
			"-0.016": 0.414347526338,
			"-0.015": 0.63433778479,
			"-0.014": 0.661134750325,
			"-0.013": 0.52791285804,
			"-0.012": 1.12384108706,
			"-0.011": 0.886168792743,
			"-0.01": 0.660698340693,
			"-0.009": 3.39530106993,
			"-0.008": 6.01679616166,
			"-0.007": 5.65923922013,
			"-0.006": 5.90182858642,
			"-0.005": 6.04883857717,
			"-0.004": 11.0317747075,
			"-0.003": 13.407881255,
			"-0.002": 14.6045619976,
			"-0.001": 12.1109604748,
			"0.0": 10.2299899177,
			"0.001": 8.35710840247,
			"0.002": 7.34799581706,
			"0.003": 11.8370547259,
			"0.004": 8.11405934221,
			"0.005": 6.94764538435,
			"0.006": 6.17513997107,
			"0.007": 12.2108465671,
			"0.008": 10.8751529734,
			"0.009": 6.23096325871,
			"0.01": 2.05380217581,
			"0.011": 0.0403618036964,
			"0.012": 0.0,
			"0.013": 0.0,
			"0.014": 0.0,
			"0.015": 0.0,
			"0.016": 0.0,
			"0.017": 0.0,
			"0.018": 0.0,
			"0.019": 0.0,
			"0.02": 0.0,
			"0.021": 0.0,
			"0.022": 0.0,
			"0.023": 0.0,
			"0.024": 0.0,
			"0.025": 0.0
		}
	}
}
