{
	 "smiles": "CCCCCCC(=O)CCC", 
	 "Tm": 264.15, 
	 "num_atms": 31, 
	 "gaussian": { 
		 "optdone": 1, 
		 "sigma_profile": "yes", 
		 "theory": "DFT", 
		 "functional": "B3LYP", 
		 "basiset": "6-31G**", 
		 "properties": { 
			 "R2extent": 2915.8009, 
			 "electric_dipole_moment_norm": 2.36686697134, 
			 "electric_quadrupole_moment_norm": 2.80488293517, 
			 "total_energy": -468.36821513, 
			 "HOMO_LUMO_gap": 0.23271, 
			 "cosmo_polarized_energy": -5.99, 
			 "cosmo_cavitation_energy": 31.19, 
			 "cosmo_dispersion_energy": -21.85, 
			 "cosmo_repulsion_energy": 1.82, 
			 "cosmo_total_nonelectrostatic_energy": 11.15, 
			 "SMD_solvation_energy": 5.08 
		},
		"coords": [
			{
				"x": -1.0860960972,
				"y": -2.7444945236,
				"z": -2.9905449444,
				"element": "C" 
			},
			{
				"x": -0.2868715881,
				"y": -1.4906084601,
				"z": -2.6156047673,
				"element": "C" 
			},
			{
				"x": 0.8924263497,
				"y": -1.7525841622,
				"z": -1.6621851412,
				"element": "C" 
			},
			{
				"x": 0.5259999002,
				"y": -2.3108686712,
				"z": -0.2750826675,
				"element": "C" 
			},
			{
				"x": -0.2937427522,
				"y": -1.3884827737,
				"z": 0.64653515,
				"element": "C" 
			},
			{
				"x": 0.4422652185,
				"y": -0.1177653156,
				"z": 1.0994828845,
				"element": "C" 
			},
			{
				"x": 0.2953975312,
				"y": 1.0924149455,
				"z": 0.180735043,
				"element": "C" 
			},
			{
				"x": -0.6325357223,
				"y": 1.201553704,
				"z": -0.6017145147,
				"element": "O" 
			},
			{
				"x": 1.3620202894,
				"y": 2.1746498806,
				"z": 0.3177475068,
				"element": "C" 
			},
			{
				"x": 1.0121690628,
				"y": 3.5033591618,
				"z": -0.359777516,
				"element": "C" 
			},
			{
				"x": -0.0947086704,
				"y": 4.2812686497,
				"z": 0.3601743769,
				"element": "C" 
			},
			{
				"x": -1.5857154831,
				"y": -3.1888006303,
				"z": -2.1230661272,
				"element": "H" 
			},
			{
				"x": -1.8629562765,
				"y": -2.5080376946,
				"z": -3.7252276531,
				"element": "H" 
			},
			{
				"x": -0.4390649337,
				"y": -3.5143218567,
				"z": -3.4284796674,
				"element": "H" 
			},
			{
				"x": -0.9517435192,
				"y": -0.7383929492,
				"z": -2.1780659143,
				"element": "H" 
			},
			{
				"x": 0.1133203438,
				"y": -1.0389971211,
				"z": -3.5327014978,
				"element": "H" 
			},
			{
				"x": 1.4632552174,
				"y": -0.8215077804,
				"z": -1.5433080405,
				"element": "H" 
			},
			{
				"x": 1.582575979,
				"y": -2.46162443,
				"z": -2.1408662459,
				"element": "H" 
			},
			{
				"x": -0.0257695935,
				"y": -3.2508787954,
				"z": -0.3999609917,
				"element": "H" 
			},
			{
				"x": 1.4550579927,
				"y": -2.5825566841,
				"z": 0.2459546384,
				"element": "H" 
			},
			{
				"x": -1.2301853394,
				"y": -1.0898316105,
				"z": 0.1638821008,
				"element": "H" 
			},
			{
				"x": -0.5712921985,
				"y": -1.9640219112,
				"z": 1.5373132609,
				"element": "H" 
			},
			{
				"x": 1.5077347869,
				"y": -0.3126167603,
				"z": 1.2808689614,
				"element": "H" 
			},
			{
				"x": 0.0444523194,
				"y": 0.2194994834,
				"z": 2.0691413443,
				"element": "H" 
			},
			{
				"x": 1.5866807184,
				"y": 2.3163883341,
				"z": 1.3845479077,
				"element": "H" 
			},
			{
				"x": 2.2820909915,
				"y": 1.7512588701,
				"z": -0.1133722602,
				"element": "H" 
			},
			{
				"x": 0.7026547455,
				"y": 3.2972731042,
				"z": -1.3897680056,
				"element": "H" 
			},
			{
				"x": 1.9188345326,
				"y": 4.1177876056,
				"z": -0.41460714,
				"element": "H" 
			},
			{
				"x": -1.0246382257,
				"y": 3.7062262043,
				"z": 0.3825856369,
				"element": "H" 
			},
			{
				"x": -0.3011466006,
				"y": 5.2295427751,
				"z": -0.1464039056,
				"element": "H" 
			},
			{
				"x": 0.1896310214,
				"y": 4.5130694119,
				"z": 1.3936681886,
				"element": "H" 
			}
		],
		 "valence_orbital": [ 
			{
				"type": "occ",
				"energy": -0.32861,
				"method": "rhf"
			},
			{
				"type": "occ",
				"energy": -0.31165,
				"method": "rhf"
			},
			{
				"type": "occ",
				"energy": -0.30509,
				"method": "rhf"
			},
			{
				"type": "occ",
				"energy": -0.30346,
				"method": "rhf"
			},
			{
				"type": "occ",
				"energy": -0.24362,
				"method": "rhf"
			},
			{
				"type": "unocc",
				"energy": -0.01091,
				"method": "rhf"
			},
			{
				"type": "unocc",
				"energy": 0.06985,
				"method": "rhf"
			},
			{
				"type": "unocc",
				"energy": 0.0971,
				"method": "rhf"
			},
			{
				"type": "unocc",
				"energy": 0.11779,
				"method": "rhf"
			},
			{
				"type": "unocc",
				"energy": 0.12019,
				"method": "rhf"
			}
		],
		"cosmo_sigma_profile": { 
			"-0.025": 0.0,
			"-0.024": 0.0,
			"-0.023": 0.0,
			"-0.022": 0.0,
			"-0.021": 0.0,
			"-0.02": 0.0,
			"-0.019": 0.0,
			"-0.018": 0.0,
			"-0.017": 0.0,
			"-0.016": 0.0,
			"-0.015": 0.0,
			"-0.014": 0.0,
			"-0.013": 0.0,
			"-0.012": 0.0,
			"-0.011": 0.0,
			"-0.01": 0.0,
			"-0.009": 0.0,
			"-0.008": 0.0,
			"-0.007": 0.0,
			"-0.006": 1.45022007033,
			"-0.005": 9.67298045566,
			"-0.004": 11.5038222151,
			"-0.003": 16.2740308153,
			"-0.002": 35.1988910372,
			"-0.001": 39.025090079,
			"0.0": 42.0121130137,
			"0.001": 39.5512478482,
			"0.002": 20.2901534357,
			"0.003": 3.7440730515,
			"0.004": 2.35830832629,
			"0.005": 2.63777251646,
			"0.006": 2.61248709371,
			"0.007": 2.38958016802,
			"0.008": 2.41165831432,
			"0.009": 1.72784477869,
			"0.01": 1.67728120071,
			"0.011": 1.82374930855,
			"0.012": 2.52017327739,
			"0.013": 1.03770309722,
			"0.014": 0.00544370596121,
			"0.015": 0.0,
			"0.016": 0.0,
			"0.017": 0.0,
			"0.018": 0.0,
			"0.019": 0.0,
			"0.02": 0.0,
			"0.021": 0.0,
			"0.022": 0.0,
			"0.023": 0.0,
			"0.024": 0.0,
			"0.025": 0.0
		}
	}
}
