{
	 "smiles": "CN(C1CCCCC1)S(=O)(=O)C1=CC(=CC=C1)C(O)=O", 
	 "Tm": 419.15, 
	 "num_atms": 39, 
	 "gaussian": { 
		 "optdone": 1, 
		 "sigma_profile": "yes", 
		 "theory": "DFT", 
		 "functional": "B3LYP", 
		 "basiset": "6-31G**", 
		 "properties": { 
			 "R2extent": 7964.0636, 
			 "electric_dipole_moment_norm": 5.48870289322, 
			 "electric_quadrupole_moment_norm": 33.7761458479, 
			 "total_energy": -1298.71208974, 
			 "HOMO_LUMO_gap": 0.18199, 
			 "cosmo_polarized_energy": -22.5, 
			 "cosmo_cavitation_energy": 40.65, 
			 "cosmo_dispersion_energy": -28.81, 
			 "cosmo_repulsion_energy": 2.16, 
			 "cosmo_total_nonelectrostatic_energy": 14.0, 
			 "SMD_solvation_energy": 6.4 
		},
		"coords": [
			{
				"x": -1.9108910879,
				"y": -2.0108923257,
				"z": -1.369238409,
				"element": "C" 
			},
			{
				"x": -1.0056837274,
				"y": -1.3168631723,
				"z": -0.4336381368,
				"element": "N" 
			},
			{
				"x": -1.7390922377,
				"y": -0.7036282562,
				"z": 0.7346880034,
				"element": "C" 
			},
			{
				"x": -2.1243932724,
				"y": -1.6764381807,
				"z": 1.8788848418,
				"element": "C" 
			},
			{
				"x": -1.1311788399,
				"y": -1.7346921401,
				"z": 3.0507430773,
				"element": "C" 
			},
			{
				"x": -0.8315238131,
				"y": -0.3285535812,
				"z": 3.588960284,
				"element": "C" 
			},
			{
				"x": -0.2390387944,
				"y": 0.5661941945,
				"z": 2.490806373,
				"element": "C" 
			},
			{
				"x": -1.1500183754,
				"y": 0.6323492422,
				"z": 1.2529118099,
				"element": "C" 
			},
			{
				"x": 0.4332464508,
				"y": -2.1783502464,
				"z": -0.2097868611,
				"element": "S" 
			},
			{
				"x": 1.2414311701,
				"y": -1.4678503121,
				"z": 0.7839004369,
				"element": "O" 
			},
			{
				"x": 0.1859632171,
				"y": -3.6207476852,
				"z": -0.0552260954,
				"element": "O" 
			},
			{
				"x": 1.223496764,
				"y": -1.953902752,
				"z": -1.8181734614,
				"element": "C" 
			},
			{
				"x": 1.5050896486,
				"y": -0.6686426451,
				"z": -2.2739002476,
				"element": "C" 
			},
			{
				"x": 2.1683249065,
				"y": -0.5040974754,
				"z": -3.4947354519,
				"element": "C" 
			},
			{
				"x": 2.5784930949,
				"y": -1.6366926833,
				"z": -4.2156071267,
				"element": "C" 
			},
			{
				"x": 2.3070111636,
				"y": -2.9178060451,
				"z": -3.7379571536,
				"element": "C" 
			},
			{
				"x": 1.6176797281,
				"y": -3.0845393116,
				"z": -2.5355044698,
				"element": "C" 
			},
			{
				"x": 2.4356874353,
				"y": 0.9042689345,
				"z": -3.9459891871,
				"element": "C" 
			},
			{
				"x": 2.7210983932,
				"y": 1.0843513522,
				"z": -5.2622079195,
				"element": "O" 
			},
			{
				"x": 2.4026053117,
				"y": 1.8515433309,
				"z": -3.1981543805,
				"element": "O" 
			},
			{
				"x": -2.4332555953,
				"y": -2.8597099272,
				"z": -0.9114723469,
				"element": "H" 
			},
			{
				"x": -1.3515698544,
				"y": -2.378203047,
				"z": -2.2320633266,
				"element": "H" 
			},
			{
				"x": -2.6435184141,
				"y": -1.2857080124,
				"z": -1.732314185,
				"element": "H" 
			},
			{
				"x": -2.6739940618,
				"y": -0.428954091,
				"z": 0.2363347569,
				"element": "H" 
			},
			{
				"x": -3.0907796989,
				"y": -1.3316500504,
				"z": 2.272380286,
				"element": "H" 
			},
			{
				"x": -2.3005717238,
				"y": -2.6776036188,
				"z": 1.46985082,
				"element": "H" 
			},
			{
				"x": -0.19686562,
				"y": -2.2110979193,
				"z": 2.7383800012,
				"element": "H" 
			},
			{
				"x": -1.5586049618,
				"y": -2.3637645258,
				"z": 3.8409786286,
				"element": "H" 
			},
			{
				"x": -1.7606901942,
				"y": 0.1186374807,
				"z": 3.9741676475,
				"element": "H" 
			},
			{
				"x": -0.1397386166,
				"y": -0.3875250478,
				"z": 4.4372455387,
				"element": "H" 
			},
			{
				"x": -0.0973678484,
				"y": 1.5858477872,
				"z": 2.8699462963,
				"element": "H" 
			},
			{
				"x": 0.7444856496,
				"y": 0.1866365605,
				"z": 2.2099759255,
				"element": "H" 
			},
			{
				"x": -2.0196860204,
				"y": 1.2519000567,
				"z": 1.5134452536,
				"element": "H" 
			},
			{
				"x": -0.6496375055,
				"y": 1.1437203163,
				"z": 0.4240840522,
				"element": "H" 
			},
			{
				"x": 1.2162478401,
				"y": 0.2088415773,
				"z": -1.7069421975,
				"element": "H" 
			},
			{
				"x": 3.1464099624,
				"y": -1.5320638249,
				"z": -5.1369110609,
				"element": "H" 
			},
			{
				"x": 2.6373700691,
				"y": -3.7870731329,
				"z": -4.2976376488,
				"element": "H" 
			},
			{
				"x": 1.3898971831,
				"y": -4.0695363536,
				"z": -2.1429568499,
				"element": "H" 
			},
			{
				"x": 2.5510622752,
				"y": 0.2742955305,
				"z": -5.7619675171,
				"element": "H" 
			}
		],
		 "valence_orbital": [ 
			{
				"type": "occ",
				"energy": -0.29558,
				"method": "rhf"
			},
			{
				"type": "occ",
				"energy": -0.29146,
				"method": "rhf"
			},
			{
				"type": "occ",
				"energy": -0.28641,
				"method": "rhf"
			},
			{
				"type": "occ",
				"energy": -0.27986,
				"method": "rhf"
			},
			{
				"type": "occ",
				"energy": -0.25053,
				"method": "rhf"
			},
			{
				"type": "unocc",
				"energy": -0.06854,
				"method": "rhf"
			},
			{
				"type": "unocc",
				"energy": -0.05129,
				"method": "rhf"
			},
			{
				"type": "unocc",
				"energy": 0.02645,
				"method": "rhf"
			},
			{
				"type": "unocc",
				"energy": 0.04587,
				"method": "rhf"
			},
			{
				"type": "unocc",
				"energy": 0.05993,
				"method": "rhf"
			}
		],
		"cosmo_sigma_profile": { 
			"-0.025": 0.0,
			"-0.024": 0.0,
			"-0.023": 0.0,
			"-0.022": 0.0,
			"-0.021": 0.0,
			"-0.02": 0.0,
			"-0.019": 0.864903119255,
			"-0.018": 0.981760226567,
			"-0.017": 1.10313463576,
			"-0.016": 0.830769367489,
			"-0.015": 1.13248071538,
			"-0.014": 1.15769144789,
			"-0.013": 0.871687485338,
			"-0.012": 1.03165376984,
			"-0.011": 1.40335986826,
			"-0.01": 1.54488529654,
			"-0.009": 1.90703026413,
			"-0.008": 4.09306277025,
			"-0.007": 8.08767737351,
			"-0.006": 9.81916539629,
			"-0.005": 13.1001453455,
			"-0.004": 19.8755374093,
			"-0.003": 27.7578583211,
			"-0.002": 31.5824987273,
			"-0.001": 32.64730112,
			"0.0": 35.2633383409,
			"0.001": 33.7695957144,
			"0.002": 16.7906547996,
			"0.003": 7.52451356587,
			"0.004": 7.42315496176,
			"0.005": 6.61605314997,
			"0.006": 5.53685056273,
			"0.007": 6.35947377442,
			"0.008": 5.52206358125,
			"0.009": 7.81329763998,
			"0.01": 9.59621742675,
			"0.011": 11.3442048669,
			"0.012": 5.59211124844,
			"0.013": 0.625185263351,
			"0.014": 0.0,
			"0.015": 0.0,
			"0.016": 0.0,
			"0.017": 0.0,
			"0.018": 0.0,
			"0.019": 0.0,
			"0.02": 0.0,
			"0.021": 0.0,
			"0.022": 0.0,
			"0.023": 0.0,
			"0.024": 0.0,
			"0.025": 0.0
		}
	}
}
