{
	 "smiles": "CC(CS)C(=O)N1CCCC1C(O)=O", 
	 "Tm": 379.15, 
	 "num_atms": 29, 
	 "gaussian": { 
		 "optdone": 1, 
		 "sigma_profile": "yes", 
		 "theory": "DFT", 
		 "functional": "B3LYP", 
		 "basiset": "6-31G**", 
		 "properties": { 
			 "R2extent": 3759.5545, 
			 "electric_dipole_moment_norm": 5.81622301326, 
			 "electric_quadrupole_moment_norm": 7.91475161076, 
			 "total_energy": -1030.64106367, 
			 "HOMO_LUMO_gap": 0.21593, 
			 "cosmo_polarized_energy": -18.31, 
			 "cosmo_cavitation_energy": 32.53, 
			 "cosmo_dispersion_energy": -22.81, 
			 "cosmo_repulsion_energy": 1.78, 
			 "cosmo_total_nonelectrostatic_energy": 11.51, 
			 "SMD_solvation_energy": 5.72 
		},
		"coords": [
			{
				"x": 2.424038777,
				"y": -1.0435691846,
				"z": -0.500629514,
				"element": "C" 
			},
			{
				"x": 1.391145836,
				"y": 0.0757477321,
				"z": -0.7033013809,
				"element": "C" 
			},
			{
				"x": 1.7659251639,
				"y": 1.037174696,
				"z": -1.8512836775,
				"element": "C" 
			},
			{
				"x": 1.856892191,
				"y": 0.2685579019,
				"z": -3.522535868,
				"element": "S" 
			},
			{
				"x": 1.3145561166,
				"y": 0.9239241073,
				"z": 0.5736551046,
				"element": "C" 
			},
			{
				"x": 2.3064796217,
				"y": 1.5272798919,
				"z": 0.9758210332,
				"element": "O" 
			},
			{
				"x": 0.1307395183,
				"y": 0.9997092862,
				"z": 1.2598704979,
				"element": "N" 
			},
			{
				"x": 0.0469436519,
				"y": 1.866888054,
				"z": 2.4498255683,
				"element": "C" 
			},
			{
				"x": -1.4560421821,
				"y": 1.9311678145,
				"z": 2.7489156453,
				"element": "C" 
			},
			{
				"x": -1.9832000528,
				"y": 0.5907752962,
				"z": 2.2137078743,
				"element": "C" 
			},
			{
				"x": -1.1426651168,
				"y": 0.3751987472,
				"z": 0.9297170669,
				"element": "C" 
			},
			{
				"x": -1.8113138788,
				"y": 1.0217145385,
				"z": -0.288047313,
				"element": "C" 
			},
			{
				"x": -2.9352948488,
				"y": 0.3477364324,
				"z": -0.6272471879,
				"element": "O" 
			},
			{
				"x": -1.4196514491,
				"y": 1.996876945,
				"z": -0.88724636,
				"element": "O" 
			},
			{
				"x": 3.3803080793,
				"y": -0.6118842454,
				"z": -0.1928992541,
				"element": "H" 
			},
			{
				"x": 2.1010914206,
				"y": -1.7417850293,
				"z": 0.2788600343,
				"element": "H" 
			},
			{
				"x": 2.5664492143,
				"y": -1.6037678638,
				"z": -1.4279796339,
				"element": "H" 
			},
			{
				"x": 0.4208445404,
				"y": -0.3729719386,
				"z": -0.9389162654,
				"element": "H" 
			},
			{
				"x": 1.0618322732,
				"y": 1.8704806818,
				"z": -1.8924237603,
				"element": "H" 
			},
			{
				"x": 2.7596263279,
				"y": 1.4508247908,
				"z": -1.6642017467,
				"element": "H" 
			},
			{
				"x": 0.5287195955,
				"y": 0.1134244785,
				"z": -3.700095312,
				"element": "H" 
			},
			{
				"x": 0.614166316,
				"y": 1.4206327191,
				"z": 3.2760408306,
				"element": "H" 
			},
			{
				"x": 0.4961946977,
				"y": 2.8387701781,
				"z": 2.2344484243,
				"element": "H" 
			},
			{
				"x": -1.6652520356,
				"y": 2.0744000228,
				"z": 3.8119242487,
				"element": "H" 
			},
			{
				"x": -1.9144706022,
				"y": 2.7620989435,
				"z": 2.2018847977,
				"element": "H" 
			},
			{
				"x": -1.7610291155,
				"y": -0.2181676189,
				"z": 2.9171895016,
				"element": "H" 
			},
			{
				"x": -3.0561441107,
				"y": 0.5781624244,
				"z": 2.0120413448,
				"element": "H" 
			},
			{
				"x": -1.0395614974,
				"y": -0.6933768167,
				"z": 0.7139606937,
				"element": "H" 
			},
			{
				"x": -3.3157284515,
				"y": 0.8100770153,
				"z": -1.3932553925,
				"element": "H" 
			}
		],
		 "valence_orbital": [ 
			{
				"type": "occ",
				"energy": -0.31797,
				"method": "rhf"
			},
			{
				"type": "occ",
				"energy": -0.29477,
				"method": "rhf"
			},
			{
				"type": "occ",
				"energy": -0.24559,
				"method": "rhf"
			},
			{
				"type": "occ",
				"energy": -0.24539,
				"method": "rhf"
			},
			{
				"type": "occ",
				"energy": -0.23136,
				"method": "rhf"
			},
			{
				"type": "unocc",
				"energy": -0.01543,
				"method": "rhf"
			},
			{
				"type": "unocc",
				"energy": 0.01418,
				"method": "rhf"
			},
			{
				"type": "unocc",
				"energy": 0.04014,
				"method": "rhf"
			},
			{
				"type": "unocc",
				"energy": 0.05711,
				"method": "rhf"
			},
			{
				"type": "unocc",
				"energy": 0.07487,
				"method": "rhf"
			}
		],
		"cosmo_sigma_profile": { 
			"-0.025": 0.0,
			"-0.024": 0.0,
			"-0.023": 0.0,
			"-0.022": 0.0,
			"-0.021": 0.0,
			"-0.02": 0.0,
			"-0.019": 0.146622577169,
			"-0.018": 0.903169362136,
			"-0.017": 1.11644035488,
			"-0.016": 0.805368008907,
			"-0.015": 0.702463702833,
			"-0.014": 0.635131590615,
			"-0.013": 0.731098691705,
			"-0.012": 0.938587697325,
			"-0.011": 0.725156773483,
			"-0.01": 0.796544621583,
			"-0.009": 2.46016871603,
			"-0.008": 5.26683924506,
			"-0.007": 6.14364125805,
			"-0.006": 7.07086539865,
			"-0.005": 14.4600809269,
			"-0.004": 24.7049806955,
			"-0.003": 27.1390273057,
			"-0.002": 25.4195005958,
			"-0.001": 21.5856649141,
			"0.0": 15.7406972462,
			"0.001": 15.9099192166,
			"0.002": 9.10823439273,
			"0.003": 9.45693106331,
			"0.004": 7.91836240231,
			"0.005": 7.87416991446,
			"0.006": 8.23560840488,
			"0.007": 7.19732231019,
			"0.008": 6.90415845784,
			"0.009": 5.83451705224,
			"0.01": 4.80127030118,
			"0.011": 4.84520774618,
			"0.012": 2.68617777334,
			"0.013": 2.29354835564,
			"0.014": 4.88021465632,
			"0.015": 0.589566109171,
			"0.016": 0.0,
			"0.017": 0.0,
			"0.018": 0.0,
			"0.019": 0.0,
			"0.02": 0.0,
			"0.021": 0.0,
			"0.022": 0.0,
			"0.023": 0.0,
			"0.024": 0.0,
			"0.025": 0.0
		}
	}
}
