{
	 "smiles": "CC1=CC(Br)=C(N)C=C1OCC1=CC=CC=C1", 
	 "Tm": 411.15, 
	 "num_atms": 31, 
	 "gaussian": { 
		 "optdone": 1, 
		 "sigma_profile": "yes", 
		 "theory": "DFT", 
		 "functional": "B3LYP", 
		 "basiset": "6-31G**", 
		 "properties": { 
			 "R2extent": 9255.9999, 
			 "electric_dipole_moment_norm": 3.06047311865, 
			 "electric_quadrupole_moment_norm": 12.8315090851, 
			 "total_energy": -3243.31124111, 
			 "HOMO_LUMO_gap": 0.18541, 
			 "cosmo_polarized_energy": -11.24, 
			 "cosmo_cavitation_energy": 36.96, 
			 "cosmo_dispersion_energy": -26.9, 
			 "cosmo_repulsion_energy": 2.09, 
			 "cosmo_total_nonelectrostatic_energy": 12.15, 
			 "SMD_solvation_energy": 5.09 
		},
		"coords": [
			{
				"x": 0.8267914718,
				"y": 0.7530404453,
				"z": 2.5003249813,
				"element": "C" 
			},
			{
				"x": 1.1948511306,
				"y": 1.364871468,
				"z": 1.1732088219,
				"element": "C" 
			},
			{
				"x": 2.1350460709,
				"y": 2.3844853914,
				"z": 1.0634637068,
				"element": "C" 
			},
			{
				"x": 2.4718143347,
				"y": 2.9433816922,
				"z": -0.1690696463,
				"element": "C" 
			},
			{
				"x": 3.7940016495,
				"y": 4.3343047911,
				"z": -0.2287880668,
				"element": "Br" 
			},
			{
				"x": 1.869193756,
				"y": 2.5074186817,
				"z": -1.3566604259,
				"element": "C" 
			},
			{
				"x": 2.1396643068,
				"y": 3.0860311008,
				"z": -2.5897790646,
				"element": "N" 
			},
			{
				"x": 0.9154227752,
				"y": 1.47389554,
				"z": -1.2537292259,
				"element": "C" 
			},
			{
				"x": 0.5878341174,
				"y": 0.9149353651,
				"z": -0.0198854867,
				"element": "C" 
			},
			{
				"x": -0.3291786734,
				"y": -0.087035778,
				"z": 0.1408829611,
				"element": "O" 
			},
			{
				"x": -0.9837711863,
				"y": -0.6132409174,
				"z": -1.0116890343,
				"element": "C" 
			},
			{
				"x": -1.8960955918,
				"y": -1.7386284176,
				"z": -0.5875757177,
				"element": "C" 
			},
			{
				"x": -1.4515060073,
				"y": -2.7181696934,
				"z": 0.3098998442,
				"element": "C" 
			},
			{
				"x": -2.2837459248,
				"y": -3.7785520446,
				"z": 0.6652792278,
				"element": "C" 
			},
			{
				"x": -3.56727257,
				"y": -3.878307684,
				"z": 0.1216682484,
				"element": "C" 
			},
			{
				"x": -4.0160039456,
				"y": -2.9071174255,
				"z": -0.7734970892,
				"element": "C" 
			},
			{
				"x": -3.1847661573,
				"y": -1.8400796581,
				"z": -1.1210763251,
				"element": "C" 
			},
			{
				"x": 1.3693797969,
				"y": 1.2402239165,
				"z": 3.3148744108,
				"element": "H" 
			},
			{
				"x": -0.2466571262,
				"y": 0.843528814,
				"z": 2.6991640559,
				"element": "H" 
			},
			{
				"x": 1.0595141069,
				"y": -0.3177516443,
				"z": 2.5281322844,
				"element": "H" 
			},
			{
				"x": 2.6258437857,
				"y": 2.7535892852,
				"z": 1.9580369682,
				"element": "H" 
			},
			{
				"x": 1.995593061,
				"y": 2.4870322477,
				"z": -3.3898482229,
				"element": "H" 
			},
			{
				"x": 3.0028996868,
				"y": 3.6106417791,
				"z": -2.6343040785,
				"element": "H" 
			},
			{
				"x": 0.4308740217,
				"y": 1.1377899745,
				"z": -2.1631302676,
				"element": "H" 
			},
			{
				"x": -0.2275095629,
				"y": -0.9796496637,
				"z": -1.7230503197,
				"element": "H" 
			},
			{
				"x": -1.5584071912,
				"y": 0.1752113168,
				"z": -1.5167957865,
				"element": "H" 
			},
			{
				"x": -0.4568755808,
				"y": -2.6357020042,
				"z": 0.7367715731,
				"element": "H" 
			},
			{
				"x": -1.9305909745,
				"y": -4.5294915174,
				"z": 1.3664149803,
				"element": "H" 
			},
			{
				"x": -4.213934266,
				"y": -4.7060941055,
				"z": 0.3982202756,
				"element": "H" 
			},
			{
				"x": -5.0150561611,
				"y": -2.9727054905,
				"z": -1.1948607495,
				"element": "H" 
			},
			{
				"x": -3.543053153,
				"y": -1.0787557651,
				"z": -1.8099028327,
				"element": "H" 
			}
		],
		 "valence_orbital": [ 
			{
				"type": "occ",
				"energy": -0.27795,
				"method": "rhf"
			},
			{
				"type": "occ",
				"energy": -0.25344,
				"method": "rhf"
			},
			{
				"type": "occ",
				"energy": -0.24888,
				"method": "rhf"
			},
			{
				"type": "occ",
				"energy": -0.22684,
				"method": "rhf"
			},
			{
				"type": "occ",
				"energy": -0.19457,
				"method": "rhf"
			},
			{
				"type": "unocc",
				"energy": -0.00916,
				"method": "rhf"
			},
			{
				"type": "unocc",
				"energy": -0.00426,
				"method": "rhf"
			},
			{
				"type": "unocc",
				"energy": 0.00525,
				"method": "rhf"
			},
			{
				"type": "unocc",
				"energy": 0.01525,
				"method": "rhf"
			},
			{
				"type": "unocc",
				"energy": 0.01802,
				"method": "rhf"
			}
		],
		"cosmo_sigma_profile": { 
			"-0.025": 0.0,
			"-0.024": 0.0,
			"-0.023": 0.0,
			"-0.022": 0.0,
			"-0.021": 0.0,
			"-0.02": 0.0,
			"-0.019": 0.0,
			"-0.018": 0.0,
			"-0.017": 0.0,
			"-0.016": 0.0,
			"-0.015": 0.0,
			"-0.014": 0.0,
			"-0.013": 0.735546199728,
			"-0.012": 1.52250161889,
			"-0.011": 2.04697339009,
			"-0.01": 2.41599875903,
			"-0.009": 3.00527610951,
			"-0.008": 2.43304582217,
			"-0.007": 3.29647576262,
			"-0.006": 14.6253446745,
			"-0.005": 21.251850544,
			"-0.004": 21.05250094,
			"-0.003": 22.9000618398,
			"-0.002": 18.5741900375,
			"-0.001": 19.5052196358,
			"0.0": 21.0764654017,
			"0.001": 21.0650629194,
			"0.002": 18.3499835864,
			"0.003": 24.2132796698,
			"0.004": 27.7417845518,
			"0.005": 30.1893323125,
			"0.006": 12.2751527502,
			"0.007": 2.83333381202,
			"0.008": 1.96911917028,
			"0.009": 1.08016269472,
			"0.01": 0.290307674989,
			"0.011": 1.07927297183,
			"0.012": 0.566765172848,
			"0.013": 0.575707020615,
			"0.014": 0.339187959549,
			"0.015": 0.0178801797079,
			"0.016": 0.0,
			"0.017": 0.0,
			"0.018": 0.0,
			"0.019": 0.0,
			"0.02": 0.0,
			"0.021": 0.0,
			"0.022": 0.0,
			"0.023": 0.0,
			"0.024": 0.0,
			"0.025": 0.0
		}
	}
}
