{
	 "smiles": "[O-][N+](=O)C1=CC(F)=CC(F)=C1", 
	 "Tm": 290.15, 
	 "num_atms": 14, 
	 "gaussian": { 
		 "optdone": 1, 
		 "sigma_profile": "yes", 
		 "theory": "DFT", 
		 "functional": "B3LYP", 
		 "basiset": "6-31G**", 
		 "properties": { 
			 "R2extent": 2402.2196, 
			 "electric_dipole_moment_norm": 3.00066700252, 
			 "electric_quadrupole_moment_norm": 7.44950334385, 
			 "total_energy": -635.206767835, 
			 "HOMO_LUMO_gap": 0.17458, 
			 "cosmo_polarized_energy": -6.59, 
			 "cosmo_cavitation_energy": 20.69, 
			 "cosmo_dispersion_energy": -14.98, 
			 "cosmo_repulsion_energy": 1.15, 
			 "cosmo_total_nonelectrostatic_energy": 6.86, 
			 "SMD_solvation_energy": 6.99 
		},
		"coords": [
			{
				"x": 2.7439138202,
				"y": 1.4113891701,
				"z": 2.2315544315,
				"element": "O" 
			},
			{
				"x": 1.8541517127,
				"y": 1.5543462651,
				"z": 1.3961746422,
				"element": "N" 
			},
			{
				"x": 1.8451745284,
				"y": 2.4061814182,
				"z": 0.5105842064,
				"element": "O" 
			},
			{
				"x": 0.7050134155,
				"y": 0.6291070006,
				"z": 1.4614575487,
				"element": "C" 
			},
			{
				"x": -0.3140802009,
				"y": 0.7733774377,
				"z": 0.5240009342,
				"element": "C" 
			},
			{
				"x": -1.3809440047,
				"y": -0.1124818852,
				"z": 0.612283374,
				"element": "C" 
			},
			{
				"x": -2.3849337043,
				"y": -0.0083294274,
				"z": -0.2721531567,
				"element": "F" 
			},
			{
				"x": -1.4506082159,
				"y": -1.1065640511,
				"z": 1.5839315741,
				"element": "C" 
			},
			{
				"x": -0.3997567526,
				"y": -1.1984281555,
				"z": 2.4919209739,
				"element": "C" 
			},
			{
				"x": -0.4492197365,
				"y": -2.1507865594,
				"z": 3.436187602,
				"element": "F" 
			},
			{
				"x": 0.6951774542,
				"y": -0.343640841,
				"z": 2.4573790053,
				"element": "C" 
			},
			{
				"x": -0.2722364515,
				"y": 1.5414839293,
				"z": -0.236027377,
				"element": "H" 
			},
			{
				"x": -2.2934314979,
				"y": -1.7851970433,
				"z": 1.631826349,
				"element": "H" 
			},
			{
				"x": 1.5052796331,
				"y": -0.4257572581,
				"z": 3.1689798924,
				"element": "H" 
			}
		],
		 "valence_orbital": [ 
			{
				"type": "occ",
				"energy": -0.32301,
				"method": "rhf"
			},
			{
				"type": "occ",
				"energy": -0.32119,
				"method": "rhf"
			},
			{
				"type": "occ",
				"energy": -0.30473,
				"method": "rhf"
			},
			{
				"type": "occ",
				"energy": -0.29571,
				"method": "rhf"
			},
			{
				"type": "occ",
				"energy": -0.27865,
				"method": "rhf"
			},
			{
				"type": "unocc",
				"energy": -0.10407,
				"method": "rhf"
			},
			{
				"type": "unocc",
				"energy": -0.03156,
				"method": "rhf"
			},
			{
				"type": "unocc",
				"energy": -0.01271,
				"method": "rhf"
			},
			{
				"type": "unocc",
				"energy": 0.0574,
				"method": "rhf"
			},
			{
				"type": "unocc",
				"energy": 0.11726,
				"method": "rhf"
			}
		],
		"cosmo_sigma_profile": { 
			"-0.025": 0.0,
			"-0.024": 0.0,
			"-0.023": 0.0,
			"-0.022": 0.0,
			"-0.021": 0.0,
			"-0.02": 0.0,
			"-0.019": 0.0,
			"-0.018": 0.0,
			"-0.017": 0.0,
			"-0.016": 0.0,
			"-0.015": 0.0,
			"-0.014": 0.0,
			"-0.013": 0.0,
			"-0.012": 0.0,
			"-0.011": 0.0,
			"-0.01": 1.21091620302,
			"-0.009": 3.40358702418,
			"-0.008": 4.08700528129,
			"-0.007": 4.97828573391,
			"-0.006": 5.39624803929,
			"-0.005": 6.32253284111,
			"-0.004": 6.04998759257,
			"-0.003": 10.7208971914,
			"-0.002": 26.0565309184,
			"-0.001": 21.8130791276,
			"0.0": 8.74999244966,
			"0.001": 6.05495224796,
			"0.002": 8.29803462506,
			"0.003": 20.4523969912,
			"0.004": 6.91787765671,
			"0.005": 3.40636124194,
			"0.006": 5.22833762927,
			"0.007": 9.13726078361,
			"0.008": 5.07249820783,
			"0.009": 3.47926365209,
			"0.01": 0.711053579891,
			"0.011": 0.0,
			"0.012": 0.0,
			"0.013": 0.0,
			"0.014": 0.0,
			"0.015": 0.0,
			"0.016": 0.0,
			"0.017": 0.0,
			"0.018": 0.0,
			"0.019": 0.0,
			"0.02": 0.0,
			"0.021": 0.0,
			"0.022": 0.0,
			"0.023": 0.0,
			"0.024": 0.0,
			"0.025": 0.0
		}
	}
}
