{
	 "smiles": "C[C@]12ON([C@H](C=C1)C(C)(C)CC2=O)C1=CC=CC=C1", 
	 "Tm": 330.0, 
	 "num_atms": 38, 
	 "gaussian": { 
		 "optdone": 1, 
		 "sigma_profile": "yes", 
		 "theory": "DFT", 
		 "functional": "B3LYP", 
		 "basiset": "6-31G**", 
		 "properties": { 
			 "R2extent": 4722.7174, 
			 "electric_dipole_moment_norm": 2.48558572775, 
			 "electric_quadrupole_moment_norm": 13.3347880141, 
			 "total_energy": -826.267107584, 
			 "HOMO_LUMO_gap": 0.17226, 
			 "cosmo_polarized_energy": -11.2, 
			 "cosmo_cavitation_energy": 37.64, 
			 "cosmo_dispersion_energy": -26.01, 
			 "cosmo_repulsion_energy": 1.96, 
			 "cosmo_total_nonelectrostatic_energy": 13.59, 
			 "SMD_solvation_energy": 6.54 
		},
		"coords": [
			{
				"x": 2.2038775708,
				"y": 1.0243420592,
				"z": 1.7433117203,
				"element": "C" 
			},
			{
				"x": 0.9082270428,
				"y": 0.3368905323,
				"z": 1.3364423749,
				"element": "C" 
			},
			{
				"x": 1.1667544543,
				"y": -0.285992378,
				"z": 0.0338077975,
				"element": "O" 
			},
			{
				"x": 0.0469465744,
				"y": -0.5299889531,
				"z": -0.827432947,
				"element": "N" 
			},
			{
				"x": -1.2371788825,
				"y": -0.522414997,
				"z": -0.0802559176,
				"element": "C" 
			},
			{
				"x": -1.3637737077,
				"y": 0.8033935437,
				"z": 0.6434611864,
				"element": "C" 
			},
			{
				"x": -0.2884312372,
				"y": 1.2503926944,
				"z": 1.2930183105,
				"element": "C" 
			},
			{
				"x": -1.3703920912,
				"y": -1.7941845,
				"z": 0.8176624573,
				"element": "C" 
			},
			{
				"x": -2.6093987928,
				"y": -1.6396241251,
				"z": 1.7215362107,
				"element": "C" 
			},
			{
				"x": -1.5521117803,
				"y": -3.0229383586,
				"z": -0.0924197883,
				"element": "C" 
			},
			{
				"x": -0.1037930452,
				"y": -2.0298222837,
				"z": 1.7000179284,
				"element": "C" 
			},
			{
				"x": 0.5367716619,
				"y": -0.8015054541,
				"z": 2.3238736823,
				"element": "C" 
			},
			{
				"x": 0.7646121154,
				"y": -0.7012029491,
				"z": 3.5135325281,
				"element": "O" 
			},
			{
				"x": 0.1104457791,
				"y": 0.3024639094,
				"z": -1.986499062,
				"element": "C" 
			},
			{
				"x": 1.0837838901,
				"y": 1.2957164764,
				"z": -2.1540533862,
				"element": "C" 
			},
			{
				"x": 1.1263297754,
				"y": 2.041557821,
				"z": -3.3334285115,
				"element": "C" 
			},
			{
				"x": 0.211039729,
				"y": 1.8141245016,
				"z": -4.36009255,
				"element": "C" 
			},
			{
				"x": -0.7467451821,
				"y": 0.8090854943,
				"z": -4.2015674993,
				"element": "C" 
			},
			{
				"x": -0.7924678406,
				"y": 0.0505564714,
				"z": -3.0353634511,
				"element": "C" 
			},
			{
				"x": 2.3673510993,
				"y": 1.9239925109,
				"z": 1.1443641964,
				"element": "H" 
			},
			{
				"x": 3.0500867829,
				"y": 0.3472096143,
				"z": 1.6013442492,
				"element": "H" 
			},
			{
				"x": 2.1502888109,
				"y": 1.2921333548,
				"z": 2.8008531221,
				"element": "H" 
			},
			{
				"x": -2.0198126225,
				"y": -0.5885978442,
				"z": -0.8389152067,
				"element": "H" 
			},
			{
				"x": -2.2716284877,
				"y": 1.3913081401,
				"z": 0.5454162194,
				"element": "H" 
			},
			{
				"x": -0.2408664941,
				"y": 2.2112948866,
				"z": 1.7966023178,
				"element": "H" 
			},
			{
				"x": -2.4845267697,
				"y": -0.8361516012,
				"z": 2.4531197422,
				"element": "H" 
			},
			{
				"x": -3.5058473026,
				"y": -1.4222073702,
				"z": 1.129038605,
				"element": "H" 
			},
			{
				"x": -2.793807661,
				"y": -2.5686302446,
				"z": 2.270402278,
				"element": "H" 
			},
			{
				"x": -1.555585792,
				"y": -3.9449545607,
				"z": 0.4987624853,
				"element": "H" 
			},
			{
				"x": -2.5038042024,
				"y": -2.9732084331,
				"z": -0.6345471966,
				"element": "H" 
			},
			{
				"x": -0.7412367522,
				"y": -3.0852636936,
				"z": -0.8236179717,
				"element": "H" 
			},
			{
				"x": -0.3401147758,
				"y": -2.7266304658,
				"z": 2.5092715513,
				"element": "H" 
			},
			{
				"x": 0.6710988125,
				"y": -2.4851499438,
				"z": 1.0724904366,
				"element": "H" 
			},
			{
				"x": 1.8074521181,
				"y": 1.4666335417,
				"z": -1.3689912512,
				"element": "H" 
			},
			{
				"x": 1.8868815777,
				"y": 2.8098856174,
				"z": -3.4437426118,
				"element": "H" 
			},
			{
				"x": 0.2497491808,
				"y": 2.3984835407,
				"z": -5.274224461,
				"element": "H" 
			},
			{
				"x": -1.456000246,
				"y": 0.6005371049,
				"z": -4.9978111975,
				"element": "H" 
			},
			{
				"x": -1.51527331,
				"y": -0.7546336592,
				"z": -2.9461663904,
				"element": "H" 
			}
		],
		 "valence_orbital": [ 
			{
				"type": "occ",
				"energy": -0.27729,
				"method": "rhf"
			},
			{
				"type": "occ",
				"energy": -0.26929,
				"method": "rhf"
			},
			{
				"type": "occ",
				"energy": -0.24673,
				"method": "rhf"
			},
			{
				"type": "occ",
				"energy": -0.23525,
				"method": "rhf"
			},
			{
				"type": "occ",
				"energy": -0.1995,
				"method": "rhf"
			},
			{
				"type": "unocc",
				"energy": -0.02724,
				"method": "rhf"
			},
			{
				"type": "unocc",
				"energy": -0.00241,
				"method": "rhf"
			},
			{
				"type": "unocc",
				"energy": 0.00516,
				"method": "rhf"
			},
			{
				"type": "unocc",
				"energy": 0.0102,
				"method": "rhf"
			},
			{
				"type": "unocc",
				"energy": 0.06165,
				"method": "rhf"
			}
		],
		"cosmo_sigma_profile": { 
			"-0.025": 0.0,
			"-0.024": 0.0,
			"-0.023": 0.0,
			"-0.022": 0.0,
			"-0.021": 0.0,
			"-0.02": 0.0,
			"-0.019": 0.0,
			"-0.018": 0.0,
			"-0.017": 0.0,
			"-0.016": 0.0,
			"-0.015": 0.0,
			"-0.014": 0.0,
			"-0.013": 0.0,
			"-0.012": 0.0,
			"-0.011": 0.0,
			"-0.01": 0.0,
			"-0.009": 0.0,
			"-0.008": 0.0114106670383,
			"-0.007": 3.57315993461,
			"-0.006": 12.0882536593,
			"-0.005": 17.6060933285,
			"-0.004": 32.0378997378,
			"-0.003": 34.7025135179,
			"-0.002": 30.4837566767,
			"-0.001": 29.6149884779,
			"0.0": 26.8805033841,
			"0.001": 20.795763325,
			"0.002": 13.1271665376,
			"0.003": 10.3313425236,
			"0.004": 12.528981335,
			"0.005": 13.7503507245,
			"0.006": 13.5738747973,
			"0.007": 5.64624529158,
			"0.008": 2.72211102502,
			"0.009": 3.74402615604,
			"0.01": 3.32707575539,
			"0.011": 4.60509036686,
			"0.012": 3.46775288297,
			"0.013": 0.778213897067,
			"0.014": 0.0,
			"0.015": 0.0,
			"0.016": 0.0,
			"0.017": 0.0,
			"0.018": 0.0,
			"0.019": 0.0,
			"0.02": 0.0,
			"0.021": 0.0,
			"0.022": 0.0,
			"0.023": 0.0,
			"0.024": 0.0,
			"0.025": 0.0
		}
	}
}
