{
	 "smiles": "COC1=CC2=C(C=C1O)C(CC1=CC=CC=C1)=CN=C2", 
	 "Tm": 466.15, 
	 "num_atms": 35, 
	 "gaussian": { 
		 "optdone": 1, 
		 "sigma_profile": "yes", 
		 "theory": "DFT", 
		 "functional": "B3LYP", 
		 "basiset": "6-31G**", 
		 "properties": { 
			 "R2extent": 6456.6631, 
			 "electric_dipole_moment_norm": 3.82094967515, 
			 "electric_quadrupole_moment_norm": 8.82468548278, 
			 "total_energy": -862.038023231, 
			 "HOMO_LUMO_gap": 0.17471, 
			 "cosmo_polarized_energy": -15.06, 
			 "cosmo_cavitation_energy": 38.54, 
			 "cosmo_dispersion_energy": -27.05, 
			 "cosmo_repulsion_energy": 2.07, 
			 "cosmo_total_nonelectrostatic_energy": 13.55, 
			 "SMD_solvation_energy": 5.71 
		},
		"coords": [
			{
				"x": 4.334926832,
				"y": -1.2305750029,
				"z": -0.8972677003,
				"element": "C" 
			},
			{
				"x": 3.307502959,
				"y": -2.042314106,
				"z": -0.3183643172,
				"element": "O" 
			},
			{
				"x": 2.0250022887,
				"y": -1.5801512982,
				"z": -0.446636046,
				"element": "C" 
			},
			{
				"x": 1.1099329323,
				"y": -2.3060891979,
				"z": -1.1708663392,
				"element": "C" 
			},
			{
				"x": -0.2460338516,
				"y": -1.9001813427,
				"z": -1.2637136564,
				"element": "C" 
			},
			{
				"x": -0.6719543806,
				"y": -0.7047843355,
				"z": -0.6083847469,
				"element": "C" 
			},
			{
				"x": 0.2833242662,
				"y": 0.0295662617,
				"z": 0.1404857892,
				"element": "C" 
			},
			{
				"x": 1.5929269136,
				"y": -0.3954735197,
				"z": 0.233075325,
				"element": "C" 
			},
			{
				"x": 2.5341836435,
				"y": 0.2577004461,
				"z": 0.9712514869,
				"element": "O" 
			},
			{
				"x": -2.0425633071,
				"y": -0.3243379815,
				"z": -0.7537508765,
				"element": "C" 
			},
			{
				"x": -2.597430513,
				"y": 0.9425784549,
				"z": -0.1375590954,
				"element": "C" 
			},
			{
				"x": -2.6706842529,
				"y": 0.9690732692,
				"z": 1.3850615651,
				"element": "C" 
			},
			{
				"x": -2.379800326,
				"y": 2.1478573991,
				"z": 2.0846488054,
				"element": "C" 
			},
			{
				"x": -2.4849834217,
				"y": 2.2023856094,
				"z": 3.4760743615,
				"element": "C" 
			},
			{
				"x": -2.8827565997,
				"y": 1.0723592053,
				"z": 4.1915936673,
				"element": "C" 
			},
			{
				"x": -3.174554207,
				"y": -0.1082816971,
				"z": 3.5048505968,
				"element": "C" 
			},
			{
				"x": -3.0690433144,
				"y": -0.1590097672,
				"z": 2.1146730913,
				"element": "C" 
			},
			{
				"x": -2.8596450515,
				"y": -1.1445627577,
				"z": -1.5087204356,
				"element": "C" 
			},
			{
				"x": -2.470330776,
				"y": -2.289453875,
				"z": -2.1289348332,
				"element": "N" 
			},
			{
				"x": -1.2069017472,
				"y": -2.6385637473,
				"z": -2.0026488298,
				"element": "C" 
			},
			{
				"x": 4.3922298341,
				"y": -0.2493160386,
				"z": -0.4180643444,
				"element": "H" 
			},
			{
				"x": 5.2701355001,
				"y": -1.7701780503,
				"z": -0.7365878879,
				"element": "H" 
			},
			{
				"x": 4.1705068532,
				"y": -1.1057906048,
				"z": -1.9752811837,
				"element": "H" 
			},
			{
				"x": 1.4449901654,
				"y": -3.2117364426,
				"z": -1.6675701933,
				"element": "H" 
			},
			{
				"x": -0.0234371616,
				"y": 0.9198944422,
				"z": 0.6818950677,
				"element": "H" 
			},
			{
				"x": 2.1177351587,
				"y": 1.0083606406,
				"z": 1.4156919899,
				"element": "H" 
			},
			{
				"x": -2.0078355464,
				"y": 1.805166587,
				"z": -0.4741855634,
				"element": "H" 
			},
			{
				"x": -3.6066336324,
				"y": 1.0992346509,
				"z": -0.540193337,
				"element": "H" 
			},
			{
				"x": -2.0736352282,
				"y": 3.0342873381,
				"z": 1.5328345755,
				"element": "H" 
			},
			{
				"x": -2.2552171221,
				"y": 3.1267524011,
				"z": 3.9990588732,
				"element": "H" 
			},
			{
				"x": -2.9635063545,
				"y": 1.1101248062,
				"z": 5.274111686,
				"element": "H" 
			},
			{
				"x": -3.4836174029,
				"y": -0.9939302966,
				"z": 4.0530851073,
				"element": "H" 
			},
			{
				"x": -3.2912092247,
				"y": -1.0831845198,
				"z": 1.5886720021,
				"element": "H" 
			},
			{
				"x": -3.9072110472,
				"y": -0.877497436,
				"z": -1.6423439818,
				"element": "H" 
			},
			{
				"x": -0.8948128784,
				"y": -3.5553294943,
				"z": -2.5047906223,
				"element": "H" 
			}
		],
		 "valence_orbital": [ 
			{
				"type": "occ",
				"energy": -0.25184,
				"method": "rhf"
			},
			{
				"type": "occ",
				"energy": -0.24765,
				"method": "rhf"
			},
			{
				"type": "occ",
				"energy": -0.24233,
				"method": "rhf"
			},
			{
				"type": "occ",
				"energy": -0.23203,
				"method": "rhf"
			},
			{
				"type": "occ",
				"energy": -0.21899,
				"method": "rhf"
			},
			{
				"type": "unocc",
				"energy": -0.04428,
				"method": "rhf"
			},
			{
				"type": "unocc",
				"energy": -0.01547,
				"method": "rhf"
			},
			{
				"type": "unocc",
				"energy": -0.00454,
				"method": "rhf"
			},
			{
				"type": "unocc",
				"energy": -0.00232,
				"method": "rhf"
			},
			{
				"type": "unocc",
				"energy": 0.02935,
				"method": "rhf"
			}
		],
		"cosmo_sigma_profile": { 
			"-0.025": 0.0,
			"-0.024": 0.0,
			"-0.023": 0.0,
			"-0.022": 0.0,
			"-0.021": 0.0,
			"-0.02": 0.0,
			"-0.019": 0.123420786011,
			"-0.018": 0.932917356752,
			"-0.017": 1.44720922241,
			"-0.016": 0.640919866383,
			"-0.015": 0.751346437219,
			"-0.014": 1.22610231997,
			"-0.013": 0.796298753955,
			"-0.012": 1.39929493304,
			"-0.011": 0.684994870038,
			"-0.01": 0.832853167214,
			"-0.009": 0.930332089022,
			"-0.008": 0.517566781019,
			"-0.007": 2.96914707789,
			"-0.006": 11.9213041354,
			"-0.005": 25.4518464233,
			"-0.004": 24.6774384195,
			"-0.003": 29.1868487784,
			"-0.002": 23.9310325227,
			"-0.001": 20.1776492657,
			"0.0": 17.6984591975,
			"0.001": 20.8675934391,
			"0.002": 28.3866349035,
			"0.003": 26.3324646728,
			"0.004": 15.3155860251,
			"0.005": 12.9836988227,
			"0.006": 12.4886032677,
			"0.007": 4.19791549748,
			"0.008": 3.5453420015,
			"0.009": 4.52569783501,
			"0.01": 3.76167383346,
			"0.011": 2.59870421247,
			"0.012": 1.82981726263,
			"0.013": 1.01493276017,
			"0.014": 0.938951189062,
			"0.015": 0.585179466865,
			"0.016": 1.21927103514,
			"0.017": 0.624175116966,
			"0.018": 0.0566602948711,
			"0.019": 0.0,
			"0.02": 0.0,
			"0.021": 0.0,
			"0.022": 0.0,
			"0.023": 0.0,
			"0.024": 0.0,
			"0.025": 0.0
		}
	}
}
