{
	 "smiles": "O=C1C(=COC2=CC=CC=C12)C#N", 
	 "Tm": 449.15, 
	 "num_atms": 18, 
	 "gaussian": { 
		 "optdone": 1, 
		 "sigma_profile": "yes", 
		 "theory": "DFT", 
		 "functional": "B3LYP", 
		 "basiset": "6-31G**", 
		 "properties": { 
			 "R2extent": 2354.9492, 
			 "electric_dipole_moment_norm": 7.18668234654, 
			 "electric_quadrupole_moment_norm": 11.4865504043, 
			 "total_energy": -589.243628639, 
			 "HOMO_LUMO_gap": 0.18243, 
			 "cosmo_polarized_energy": -15.54, 
			 "cosmo_cavitation_energy": 24.24, 
			 "cosmo_dispersion_energy": -17.51, 
			 "cosmo_repulsion_energy": 1.35, 
			 "cosmo_total_nonelectrostatic_energy": 8.08, 
			 "SMD_solvation_energy": 6.88 
		},
		"coords": [
			{
				"x": 1.9481031179,
				"y": -0.7020959724,
				"z": 0.7600795325,
				"element": "O" 
			},
			{
				"x": 0.7394856584,
				"y": -0.6779694027,
				"z": 0.5737283591,
				"element": "C" 
			},
			{
				"x": -0.1110955695,
				"y": -1.8915662556,
				"z": 0.5841922393,
				"element": "C" 
			},
			{
				"x": -1.4512637462,
				"y": -1.8023255223,
				"z": 0.3704335904,
				"element": "C" 
			},
			{
				"x": -2.109575998,
				"y": -0.6595763113,
				"z": 0.1391187393,
				"element": "O" 
			},
			{
				"x": -1.4073093767,
				"y": 0.5284979194,
				"z": 0.1091900442,
				"element": "C" 
			},
			{
				"x": -2.1495074682,
				"y": 1.6851615605,
				"z": -0.1363768673,
				"element": "C" 
			},
			{
				"x": -1.4841376646,
				"y": 2.9044276165,
				"z": -0.1754868659,
				"element": "C" 
			},
			{
				"x": -0.0956294398,
				"y": 2.97012919,
				"z": 0.0277145604,
				"element": "C" 
			},
			{
				"x": 0.6262136475,
				"y": 1.8108666119,
				"z": 0.2704826401,
				"element": "C" 
			},
			{
				"x": -0.0220301117,
				"y": 0.5652254374,
				"z": 0.3152269375,
				"element": "C" 
			},
			{
				"x": 0.4752452821,
				"y": -3.1717988663,
				"z": 0.8204892545,
				"element": "C" 
			},
			{
				"x": 0.938172314,
				"y": -4.2212021563,
				"z": 1.01152006,
				"element": "N" 
			},
			{
				"x": -2.1168247682,
				"y": -2.6581069424,
				"z": 0.3677656526,
				"element": "H" 
			},
			{
				"x": -3.2203131033,
				"y": 1.6081515633,
				"z": -0.2900722311,
				"element": "H" 
			},
			{
				"x": -2.047433504,
				"y": 3.8128877012,
				"z": -0.3653762192,
				"element": "H" 
			},
			{
				"x": 0.410186444,
				"y": 3.9297555072,
				"z": -0.005761804,
				"element": "H" 
			},
			{
				"x": 1.6990142863,
				"y": 1.8239383219,
				"z": 0.4318323778,
				"element": "H" 
			}
		],
		 "valence_orbital": [ 
			{
				"type": "occ",
				"energy": -0.33553,
				"method": "rhf"
			},
			{
				"type": "occ",
				"energy": -0.29392,
				"method": "rhf"
			},
			{
				"type": "occ",
				"energy": -0.28362,
				"method": "rhf"
			},
			{
				"type": "occ",
				"energy": -0.2671,
				"method": "rhf"
			},
			{
				"type": "occ",
				"energy": -0.26077,
				"method": "rhf"
			},
			{
				"type": "unocc",
				"energy": -0.07834,
				"method": "rhf"
			},
			{
				"type": "unocc",
				"energy": -0.05845,
				"method": "rhf"
			},
			{
				"type": "unocc",
				"energy": -0.02245,
				"method": "rhf"
			},
			{
				"type": "unocc",
				"energy": 0.02314,
				"method": "rhf"
			},
			{
				"type": "unocc",
				"energy": 0.03042,
				"method": "rhf"
			}
		],
		"cosmo_sigma_profile": { 
			"-0.025": 0.0,
			"-0.024": 0.0,
			"-0.023": 0.0,
			"-0.022": 0.0,
			"-0.021": 0.0,
			"-0.02": 0.0,
			"-0.019": 0.0,
			"-0.018": 0.0,
			"-0.017": 0.0,
			"-0.016": 0.0,
			"-0.015": 0.0,
			"-0.014": 0.0,
			"-0.013": 0.112714465876,
			"-0.012": 2.60713932106,
			"-0.011": 2.34787759681,
			"-0.01": 1.62173996109,
			"-0.009": 2.07406417578,
			"-0.008": 4.02067061078,
			"-0.007": 9.63332476996,
			"-0.006": 12.9854222661,
			"-0.005": 13.4308803442,
			"-0.004": 13.912790282,
			"-0.003": 12.8819157223,
			"-0.002": 11.6739384358,
			"-0.001": 12.5205933919,
			"0.0": 13.8342019708,
			"0.001": 14.5296782589,
			"0.002": 14.0928917014,
			"0.003": 7.40644098142,
			"0.004": 4.40180689315,
			"0.005": 4.92809869574,
			"0.006": 4.48199938524,
			"0.007": 5.13258786697,
			"0.008": 4.72858048649,
			"0.009": 5.80171793086,
			"0.01": 4.8358762922,
			"0.011": 6.07920912003,
			"0.012": 6.62072234011,
			"0.013": 0.917667287054,
			"0.014": 0.0,
			"0.015": 0.0,
			"0.016": 0.0,
			"0.017": 0.0,
			"0.018": 0.0,
			"0.019": 0.0,
			"0.02": 0.0,
			"0.021": 0.0,
			"0.022": 0.0,
			"0.023": 0.0,
			"0.024": 0.0,
			"0.025": 0.0
		}
	}
}
