{
	 "smiles": "COC1=CC(NC(=O)NN)=C(Cl)C=C1", 
	 "Tm": 433.15, 
	 "num_atms": 24, 
	 "gaussian": { 
		 "optdone": 1, 
		 "sigma_profile": "yes", 
		 "theory": "DFT", 
		 "functional": "B3LYP", 
		 "basiset": "6-31G**", 
		 "properties": { 
			 "R2extent": 4682.3498, 
			 "electric_dipole_moment_norm": 0.684662354741, 
			 "electric_quadrupole_moment_norm": 4.91724766714, 
			 "total_energy": -1085.75471731, 
			 "HOMO_LUMO_gap": 0.2011, 
			 "cosmo_polarized_energy": -13.94, 
			 "cosmo_cavitation_energy": 30.0, 
			 "cosmo_dispersion_energy": -22.17, 
			 "cosmo_repulsion_energy": 1.76, 
			 "cosmo_total_nonelectrostatic_energy": 9.59, 
			 "SMD_solvation_energy": 6.66 
		},
		"coords": [
			{
				"x": 1.6328586546,
				"y": 0.9425765233,
				"z": 1.823766769,
				"element": "C" 
			},
			{
				"x": 1.555239931,
				"y": -0.475282258,
				"z": 1.8843885672,
				"element": "O" 
			},
			{
				"x": 0.5760943344,
				"y": -1.1008243275,
				"z": 1.1742922847,
				"element": "C" 
			},
			{
				"x": -0.3584353344,
				"y": -0.4255601125,
				"z": 0.3858444838,
				"element": "C" 
			},
			{
				"x": -1.3397548743,
				"y": -1.1463772636,
				"z": -0.3165188936,
				"element": "C" 
			},
			{
				"x": -2.2963917739,
				"y": -0.5260576488,
				"z": -1.1311076636,
				"element": "N" 
			},
			{
				"x": -2.4736105387,
				"y": 0.8259833831,
				"z": -1.3673861238,
				"element": "C" 
			},
			{
				"x": -1.832258259,
				"y": 1.7327564606,
				"z": -0.8492687009,
				"element": "O" 
			},
			{
				"x": -3.502540955,
				"y": 1.0755177286,
				"z": -2.2715057086,
				"element": "N" 
			},
			{
				"x": -3.6814834828,
				"y": 2.3992764082,
				"z": -2.7322023942,
				"element": "N" 
			},
			{
				"x": -1.3538312239,
				"y": -2.5476400738,
				"z": -0.2012349532,
				"element": "C" 
			},
			{
				"x": -2.571518991,
				"y": -3.4960939798,
				"z": -1.0659312788,
				"element": "Cl" 
			},
			{
				"x": -0.4188403246,
				"y": -3.213683338,
				"z": 0.5884069142,
				"element": "C" 
			},
			{
				"x": 0.5498374166,
				"y": -2.4995242049,
				"z": 1.2785510072,
				"element": "C" 
			},
			{
				"x": 2.4756874588,
				"y": 1.222916215,
				"z": 2.4572150998,
				"element": "H" 
			},
			{
				"x": 0.7187518701,
				"y": 1.4137352634,
				"z": 2.2053420297,
				"element": "H" 
			},
			{
				"x": 1.8148534522,
				"y": 1.2935242081,
				"z": 0.8005185681,
				"element": "H" 
			},
			{
				"x": -0.366453475,
				"y": 0.6496325651,
				"z": 0.2972470941,
				"element": "H" 
			},
			{
				"x": -2.9849649127,
				"y": -1.1546518789,
				"z": -1.5230108354,
				"element": "H" 
			},
			{
				"x": -3.6558408696,
				"y": 0.3922735256,
				"z": -3.0023642969,
				"element": "H" 
			},
			{
				"x": -2.7750306564,
				"y": 2.8666577661,
				"z": -2.6801399489,
				"element": "H" 
			},
			{
				"x": -4.2745180599,
				"y": 2.8755748164,
				"z": -2.0549625407,
				"element": "H" 
			},
			{
				"x": -0.4575340453,
				"y": -4.295252833,
				"z": 0.6561637591,
				"element": "H" 
			},
			{
				"x": 1.2855846586,
				"y": -2.9993769446,
				"z": 1.8980967615,
				"element": "H" 
			}
		],
		 "valence_orbital": [ 
			{
				"type": "occ",
				"energy": -0.29225,
				"method": "rhf"
			},
			{
				"type": "occ",
				"energy": -0.27764,
				"method": "rhf"
			},
			{
				"type": "occ",
				"energy": -0.26354,
				"method": "rhf"
			},
			{
				"type": "occ",
				"energy": -0.23667,
				"method": "rhf"
			},
			{
				"type": "occ",
				"energy": -0.21226,
				"method": "rhf"
			},
			{
				"type": "unocc",
				"energy": -0.01116,
				"method": "rhf"
			},
			{
				"type": "unocc",
				"energy": 0.00272,
				"method": "rhf"
			},
			{
				"type": "unocc",
				"energy": 0.02307,
				"method": "rhf"
			},
			{
				"type": "unocc",
				"energy": 0.05023,
				"method": "rhf"
			},
			{
				"type": "unocc",
				"energy": 0.07237,
				"method": "rhf"
			}
		],
		"cosmo_sigma_profile": { 
			"-0.025": 0.0,
			"-0.024": 0.0,
			"-0.023": 0.0,
			"-0.022": 0.0,
			"-0.021": 0.0,
			"-0.02": 0.0,
			"-0.019": 0.0,
			"-0.018": 0.00165367769353,
			"-0.017": 0.587094131209,
			"-0.016": 0.809626032944,
			"-0.015": 1.61380811041,
			"-0.014": 1.37942092046,
			"-0.013": 1.27168816303,
			"-0.012": 1.28437329571,
			"-0.011": 2.56904147619,
			"-0.01": 3.39445583354,
			"-0.009": 4.05363471502,
			"-0.008": 3.47564129129,
			"-0.007": 4.90963115948,
			"-0.006": 9.57184722296,
			"-0.005": 14.7529551085,
			"-0.004": 17.4804306631,
			"-0.003": 17.0258244828,
			"-0.002": 11.978832808,
			"-0.001": 10.9586231861,
			"0.0": 15.271200007,
			"0.001": 16.9349884903,
			"0.002": 16.7901444077,
			"0.003": 24.4598576731,
			"0.004": 21.498102743,
			"0.005": 9.78402881998,
			"0.006": 3.18711295433,
			"0.007": 4.0567980614,
			"0.008": 3.96645687677,
			"0.009": 3.35122259348,
			"0.01": 3.59938834336,
			"0.011": 2.1976197598,
			"0.012": 3.38698740425,
			"0.013": 2.7629304393,
			"0.014": 0.942852477625,
			"0.015": 0.430345831735,
			"0.016": 0.715522206227,
			"0.017": 0.216169166103,
			"0.018": 0.0,
			"0.019": 0.0,
			"0.02": 0.0,
			"0.021": 0.0,
			"0.022": 0.0,
			"0.023": 0.0,
			"0.024": 0.0,
			"0.025": 0.0
		}
	}
}
