{
	 "smiles": "CC(=O)C1(C)CC2=CC=CC=C2C(=O)O1", 
	 "Tm": 378.15, 
	 "num_atms": 27, 
	 "gaussian": { 
		 "optdone": 1, 
		 "sigma_profile": "yes", 
		 "theory": "DFT", 
		 "functional": "B3LYP", 
		 "basiset": "6-31G**", 
		 "properties": { 
			 "R2extent": 3622.4322, 
			 "electric_dipole_moment_norm": 2.7703299623, 
			 "electric_quadrupole_moment_norm": 17.3075622818, 
			 "total_energy": -690.200399249, 
			 "HOMO_LUMO_gap": 0.19818, 
			 "cosmo_polarized_energy": -12.71, 
			 "cosmo_cavitation_energy": 30.19, 
			 "cosmo_dispersion_energy": -21.24, 
			 "cosmo_repulsion_energy": 1.65, 
			 "cosmo_total_nonelectrostatic_energy": 10.6, 
			 "SMD_solvation_energy": 6.72 
		},
		"coords": [
			{
				"x": -0.8696777155,
				"y": 2.1333378489,
				"z": -3.5742661667,
				"element": "C" 
			},
			{
				"x": -1.5708524296,
				"y": 1.3446516278,
				"z": -2.4946642966,
				"element": "C" 
			},
			{
				"x": -2.7821578481,
				"y": 1.266597749,
				"z": -2.4121174503,
				"element": "O" 
			},
			{
				"x": -0.7205207809,
				"y": 0.6078997694,
				"z": -1.4356080957,
				"element": "C" 
			},
			{
				"x": -0.9363153127,
				"y": 1.295969776,
				"z": -0.0795234062,
				"element": "C" 
			},
			{
				"x": -1.1107851599,
				"y": -0.8790935294,
				"z": -1.4225201182,
				"element": "C" 
			},
			{
				"x": -0.1368559211,
				"y": -1.6795996687,
				"z": -0.5967459392,
				"element": "C" 
			},
			{
				"x": -0.5054491025,
				"y": -2.8285844523,
				"z": 0.1075626468,
				"element": "C" 
			},
			{
				"x": 0.4485214103,
				"y": -3.5529786297,
				"z": 0.8240488129,
				"element": "C" 
			},
			{
				"x": 1.7840123842,
				"y": -3.1381758553,
				"z": 0.8446398758,
				"element": "C" 
			},
			{
				"x": 2.1621888216,
				"y": -1.99478818,
				"z": 0.1472688197,
				"element": "C" 
			},
			{
				"x": 1.2045586699,
				"y": -1.2643047717,
				"z": -0.5675266619,
				"element": "C" 
			},
			{
				"x": 1.6422694393,
				"y": -0.0532946983,
				"z": -1.3159168996,
				"element": "C" 
			},
			{
				"x": 2.8010589059,
				"y": 0.2387372091,
				"z": -1.5094054659,
				"element": "O" 
			},
			{
				"x": 0.667866889,
				"y": 0.75402374,
				"z": -1.8313651953,
				"element": "O" 
			},
			{
				"x": -1.6158773778,
				"y": 2.6252957464,
				"z": -4.1990283671,
				"element": "H" 
			},
			{
				"x": -0.18905434,
				"y": 2.8685998192,
				"z": -3.1334788205,
				"element": "H" 
			},
			{
				"x": -0.2425385224,
				"y": 1.470655931,
				"z": -4.1795665119,
				"element": "H" 
			},
			{
				"x": -0.4071953934,
				"y": 0.7650458694,
				"z": 0.715942298,
				"element": "H" 
			},
			{
				"x": -0.5635860799,
				"y": 2.3234750254,
				"z": -0.1154688765,
				"element": "H" 
			},
			{
				"x": -2.0035446597,
				"y": 1.3163931147,
				"z": 0.1530754882,
				"element": "H" 
			},
			{
				"x": -2.1357953245,
				"y": -0.9745741703,
				"z": -1.0568388548,
				"element": "H" 
			},
			{
				"x": -1.110314489,
				"y": -1.2546209737,
				"z": -2.4553246213,
				"element": "H" 
			},
			{
				"x": -1.541500411,
				"y": -3.1564783487,
				"z": 0.0940760298,
				"element": "H" 
			},
			{
				"x": 0.1486275233,
				"y": -4.4428410617,
				"z": 1.3701746918,
				"element": "H" 
			},
			{
				"x": 2.5227545356,
				"y": -3.7054847464,
				"z": 1.4024393234,
				"element": "H" 
			},
			{
				"x": 3.1898622888,
				"y": -1.6475641403,
				"z": 0.1383377612,
				"element": "H" 
			}
		],
		 "valence_orbital": [ 
			{
				"type": "occ",
				"energy": -0.29989,
				"method": "rhf"
			},
			{
				"type": "occ",
				"energy": -0.27845,
				"method": "rhf"
			},
			{
				"type": "occ",
				"energy": -0.26688,
				"method": "rhf"
			},
			{
				"type": "occ",
				"energy": -0.26171,
				"method": "rhf"
			},
			{
				"type": "occ",
				"energy": -0.25243,
				"method": "rhf"
			},
			{
				"type": "unocc",
				"energy": -0.05425,
				"method": "rhf"
			},
			{
				"type": "unocc",
				"energy": -0.02659,
				"method": "rhf"
			},
			{
				"type": "unocc",
				"energy": -0.01864,
				"method": "rhf"
			},
			{
				"type": "unocc",
				"energy": 0.05053,
				"method": "rhf"
			},
			{
				"type": "unocc",
				"energy": 0.08213,
				"method": "rhf"
			}
		],
		"cosmo_sigma_profile": { 
			"-0.025": 0.0,
			"-0.024": 0.0,
			"-0.023": 0.0,
			"-0.022": 0.0,
			"-0.021": 0.0,
			"-0.02": 0.0,
			"-0.019": 0.0,
			"-0.018": 0.0,
			"-0.017": 0.0,
			"-0.016": 0.0,
			"-0.015": 0.0,
			"-0.014": 0.0,
			"-0.013": 0.0,
			"-0.012": 0.0,
			"-0.011": 0.0,
			"-0.01": 0.0,
			"-0.009": 0.0,
			"-0.008": 0.754417367989,
			"-0.007": 6.0211505285,
			"-0.006": 19.0136239394,
			"-0.005": 22.6294644082,
			"-0.004": 23.7972381344,
			"-0.003": 20.7314219966,
			"-0.002": 23.3076821088,
			"-0.001": 20.7590560934,
			"0.0": 13.5630069988,
			"0.001": 11.2045959007,
			"0.002": 13.6794649383,
			"0.003": 13.57159282,
			"0.004": 10.007254194,
			"0.005": 3.43353276729,
			"0.006": 3.37672041234,
			"0.007": 3.56015842541,
			"0.008": 3.10179259356,
			"0.009": 3.84994082272,
			"0.01": 5.26420946436,
			"0.011": 7.78142519434,
			"0.012": 7.34952977448,
			"0.013": 2.17620680069,
			"0.014": 0.332185494702,
			"0.015": 0.0,
			"0.016": 0.0,
			"0.017": 0.0,
			"0.018": 0.0,
			"0.019": 0.0,
			"0.02": 0.0,
			"0.021": 0.0,
			"0.022": 0.0,
			"0.023": 0.0,
			"0.024": 0.0,
			"0.025": 0.0
		}
	}
}
