{
	 "smiles": "CCC(=O)C1=CC=C(OC)C=C1", 
	 "Tm": 301.15, 
	 "num_atms": 24, 
	 "gaussian": { 
		 "optdone": 1, 
		 "sigma_profile": "yes", 
		 "theory": "DFT", 
		 "functional": "B3LYP", 
		 "basiset": "6-31G**", 
		 "properties": { 
			 "R2extent": 3187.9875, 
			 "electric_dipole_moment_norm": 4.48535927881, 
			 "electric_quadrupole_moment_norm": 6.28784001864, 
			 "total_energy": -538.742232061, 
			 "HOMO_LUMO_gap": 0.18551, 
			 "cosmo_polarized_energy": -10.12, 
			 "cosmo_cavitation_energy": 27.5, 
			 "cosmo_dispersion_energy": -20.19, 
			 "cosmo_repulsion_energy": 1.61, 
			 "cosmo_total_nonelectrostatic_energy": 8.91, 
			 "SMD_solvation_energy": 6.03 
		},
		"coords": [
			{
				"x": 0.689543143,
				"y": -2.2808967076,
				"z": 3.4497452417,
				"element": "C" 
			},
			{
				"x": 0.3715065586,
				"y": -1.6328288691,
				"z": 2.1036894154,
				"element": "C" 
			},
			{
				"x": 0.9229130366,
				"y": -0.2135953707,
				"z": 1.9796870239,
				"element": "C" 
			},
			{
				"x": 1.5474088847,
				"y": 0.2923981606,
				"z": 2.9029099546,
				"element": "O" 
			},
			{
				"x": 0.6871716518,
				"y": 0.5445938677,
				"z": 0.7143443299,
				"element": "C" 
			},
			{
				"x": -0.018521001,
				"y": 0.023469855,
				"z": -0.3775605187,
				"element": "C" 
			},
			{
				"x": -0.2134398039,
				"y": 0.7705023927,
				"z": -1.5398340499,
				"element": "C" 
			},
			{
				"x": 0.3060855002,
				"y": 2.0696404111,
				"z": -1.6203447249,
				"element": "C" 
			},
			{
				"x": 0.1781213768,
				"y": 2.8867714404,
				"z": -2.6989599133,
				"element": "O" 
			},
			{
				"x": -0.5288235854,
				"y": 2.4078491478,
				"z": -3.8343631113,
				"element": "C" 
			},
			{
				"x": 1.0169624762,
				"y": 2.6060800514,
				"z": -0.5315347153,
				"element": "C" 
			},
			{
				"x": 1.2012606033,
				"y": 1.8522004325,
				"z": 0.6133367978,
				"element": "C" 
			},
			{
				"x": 1.7690808654,
				"y": -2.3368305054,
				"z": 3.610909356,
				"element": "H" 
			},
			{
				"x": 0.2776091555,
				"y": -3.2934914115,
				"z": 3.4960767003,
				"element": "H" 
			},
			{
				"x": 0.2704974172,
				"y": -1.6969060148,
				"z": 4.2730700928,
				"element": "H" 
			},
			{
				"x": 0.7755819526,
				"y": -2.2342350799,
				"z": 1.2778423793,
				"element": "H" 
			},
			{
				"x": -0.7136811227,
				"y": -1.5981726563,
				"z": 1.935940042,
				"element": "H" 
			},
			{
				"x": -0.4291388313,
				"y": -0.9802558743,
				"z": -0.3362539872,
				"element": "H" 
			},
			{
				"x": -0.7640506585,
				"y": 0.3372421729,
				"z": -2.3661001344,
				"element": "H" 
			},
			{
				"x": -0.0484182636,
				"y": 1.5197312363,
				"z": -4.263681265,
				"element": "H" 
			},
			{
				"x": -1.571761853,
				"y": 2.1706124149,
				"z": -3.5897196067,
				"element": "H" 
			},
			{
				"x": -0.5062984085,
				"y": 3.217280656,
				"z": -4.5651768269,
				"element": "H" 
			},
			{
				"x": 1.4094470259,
				"y": 3.6140331648,
				"z": -0.6179646938,
				"element": "H" 
			},
			{
				"x": 1.7471438799,
				"y": 2.2516070854,
				"z": 1.4615422137,
				"element": "H" 
			}
		],
		 "valence_orbital": [ 
			{
				"type": "occ",
				"energy": -0.33146,
				"method": "rhf"
			},
			{
				"type": "occ",
				"energy": -0.32053,
				"method": "rhf"
			},
			{
				"type": "occ",
				"energy": -0.25908,
				"method": "rhf"
			},
			{
				"type": "occ",
				"energy": -0.24013,
				"method": "rhf"
			},
			{
				"type": "occ",
				"energy": -0.22849,
				"method": "rhf"
			},
			{
				"type": "unocc",
				"energy": -0.04298,
				"method": "rhf"
			},
			{
				"type": "unocc",
				"energy": -0.00745,
				"method": "rhf"
			},
			{
				"type": "unocc",
				"energy": 0.05242,
				"method": "rhf"
			},
			{
				"type": "unocc",
				"energy": 0.08583,
				"method": "rhf"
			},
			{
				"type": "unocc",
				"energy": 0.09893,
				"method": "rhf"
			}
		],
		"cosmo_sigma_profile": { 
			"-0.025": 0.0,
			"-0.024": 0.0,
			"-0.023": 0.0,
			"-0.022": 0.0,
			"-0.021": 0.0,
			"-0.02": 0.0,
			"-0.019": 0.0,
			"-0.018": 0.0,
			"-0.017": 0.0,
			"-0.016": 0.0,
			"-0.015": 0.0,
			"-0.014": 0.0,
			"-0.013": 0.0,
			"-0.012": 0.0,
			"-0.011": 0.0,
			"-0.01": 0.0,
			"-0.009": 0.0,
			"-0.008": 0.0,
			"-0.007": 2.55934335759,
			"-0.006": 14.0669548244,
			"-0.005": 21.4438671953,
			"-0.004": 19.2727583363,
			"-0.003": 21.0456512592,
			"-0.002": 18.0072541479,
			"-0.001": 18.6036718836,
			"0.0": 13.6939976577,
			"0.001": 14.706370197,
			"0.002": 14.7813810559,
			"0.003": 14.648842674,
			"0.004": 15.2287936619,
			"0.005": 5.26072442991,
			"0.006": 4.04550346886,
			"0.007": 2.5159282207,
			"0.008": 2.5466424716,
			"0.009": 3.4397708258,
			"0.01": 2.7982180438,
			"0.011": 2.40002866088,
			"0.012": 3.62357905568,
			"0.013": 2.64681666595,
			"0.014": 0.23055849809,
			"0.015": 0.0,
			"0.016": 0.0,
			"0.017": 0.0,
			"0.018": 0.0,
			"0.019": 0.0,
			"0.02": 0.0,
			"0.021": 0.0,
			"0.022": 0.0,
			"0.023": 0.0,
			"0.024": 0.0,
			"0.025": 0.0
		}
	}
}
