{
	 "smiles": "O=C1NC(CCSSCCC2NC(=O)NC2=O)C(=O)N1", 
	 "Tm": 510.15, 
	 "num_atms": 34, 
	 "gaussian": { 
		 "optdone": 1, 
		 "sigma_profile": "yes", 
		 "theory": "DFT", 
		 "functional": "B3LYP", 
		 "basiset": "6-31G**", 
		 "properties": { 
			 "R2extent": 11386.4221, 
			 "electric_dipole_moment_norm": 3.54124724638, 
			 "electric_quadrupole_moment_norm": 12.0002474829, 
			 "total_energy": -1705.86443292, 
			 "HOMO_LUMO_gap": 0.20841, 
			 "cosmo_polarized_energy": -31.95, 
			 "cosmo_cavitation_energy": 42.21, 
			 "cosmo_dispersion_energy": -30.0, 
			 "cosmo_repulsion_energy": 2.28, 
			 "cosmo_total_nonelectrostatic_energy": 14.49, 
			 "SMD_solvation_energy": 7.64 
		},
		"coords": [
			{
				"x": 2.1823528539,
				"y": -5.7115179391,
				"z": 2.9095940428,
				"element": "O" 
			},
			{
				"x": 2.3487871014,
				"y": -4.6871085016,
				"z": 2.2846321275,
				"element": "C" 
			},
			{
				"x": 1.5901689389,
				"y": -3.5332038231,
				"z": 2.3152037495,
				"element": "N" 
			},
			{
				"x": 1.9912592541,
				"y": -2.5722907859,
				"z": 1.2911360913,
				"element": "C" 
			},
			{
				"x": 2.2662886143,
				"y": -1.1568198843,
				"z": 1.813020064,
				"element": "C" 
			},
			{
				"x": 1.0517474834,
				"y": -0.4508169225,
				"z": 2.4159146532,
				"element": "C" 
			},
			{
				"x": -0.3808612449,
				"y": -0.196158057,
				"z": 1.2761339863,
				"element": "S" 
			},
			{
				"x": 0.3617896537,
				"y": 1.1069873042,
				"z": -0.1784594595,
				"element": "S" 
			},
			{
				"x": 0.0015502711,
				"y": 2.7983855909,
				"z": 0.5059359067,
				"element": "C" 
			},
			{
				"x": -1.2452576199,
				"y": 3.4898388079,
				"z": -0.0503686843,
				"element": "C" 
			},
			{
				"x": -2.5782979458,
				"y": 2.769018217,
				"z": 0.2127227955,
				"element": "C" 
			},
			{
				"x": -2.9385293991,
				"y": 1.7307341912,
				"z": -0.7398584173,
				"element": "N" 
			},
			{
				"x": -4.1203826726,
				"y": 1.9680153815,
				"z": -1.3921382002,
				"element": "C" 
			},
			{
				"x": -4.6546035212,
				"y": 1.3175072712,
				"z": -2.2645872,
				"element": "O" 
			},
			{
				"x": -4.6215000534,
				"y": 3.1683319294,
				"z": -0.8305262377,
				"element": "N" 
			},
			{
				"x": -3.7694777062,
				"y": 3.7405575798,
				"z": 0.0843529621,
				"element": "C" 
			},
			{
				"x": -3.9056184362,
				"y": 4.7934900698,
				"z": 0.6720700975,
				"element": "O" 
			},
			{
				"x": 3.2758802177,
				"y": -3.2106104895,
				"z": 0.7349093259,
				"element": "C" 
			},
			{
				"x": 4.0352121464,
				"y": -2.7275425923,
				"z": -0.0769352089,
				"element": "O" 
			},
			{
				"x": 3.3885405714,
				"y": -4.4313924179,
				"z": 1.3675888625,
				"element": "N" 
			},
			{
				"x": 0.638642473,
				"y": -3.6162425571,
				"z": 2.6414482174,
				"element": "H" 
			},
			{
				"x": 1.2530632599,
				"y": -2.5244164611,
				"z": 0.4789579418,
				"element": "H" 
			},
			{
				"x": 3.0425508443,
				"y": -1.2085593988,
				"z": 2.5865750878,
				"element": "H" 
			},
			{
				"x": 2.6751245018,
				"y": -0.5689870449,
				"z": 0.9847753399,
				"element": "H" 
			},
			{
				"x": 0.6183096124,
				"y": -1.0378023342,
				"z": 3.2349596298,
				"element": "H" 
			},
			{
				"x": 1.3410987736,
				"y": 0.5172330871,
				"z": 2.8331712332,
				"element": "H" 
			},
			{
				"x": 0.8904206281,
				"y": 3.391799027,
				"z": 0.2700530045,
				"element": "H" 
			},
			{
				"x": -0.0511674102,
				"y": 2.7006778821,
				"z": 1.5937177195,
				"element": "H" 
			},
			{
				"x": -1.1406153696,
				"y": 3.6604365383,
				"z": -1.1276614347,
				"element": "H" 
			},
			{
				"x": -1.3157034489,
				"y": 4.4752291753,
				"z": 0.4279202034,
				"element": "H" 
			},
			{
				"x": -2.5833938789,
				"y": 2.3810698369,
				"z": 1.2415746439,
				"element": "H" 
			},
			{
				"x": -2.3117267712,
				"y": 1.0031334542,
				"z": -1.0473359246,
				"element": "H" 
			},
			{
				"x": -5.4880279588,
				"y": 3.5838258672,
				"z": -1.1405341039,
				"element": "H" 
			},
			{
				"x": 4.1370762373,
				"y": -5.0897020017,
				"z": 1.2050371851,
				"element": "H" 
			}
		],
		 "valence_orbital": [ 
			{
				"type": "occ",
				"energy": -0.27474,
				"method": "rhf"
			},
			{
				"type": "occ",
				"energy": -0.26959,
				"method": "rhf"
			},
			{
				"type": "occ",
				"energy": -0.26775,
				"method": "rhf"
			},
			{
				"type": "occ",
				"energy": -0.26366,
				"method": "rhf"
			},
			{
				"type": "occ",
				"energy": -0.2629,
				"method": "rhf"
			},
			{
				"type": "unocc",
				"energy": -0.05449,
				"method": "rhf"
			},
			{
				"type": "unocc",
				"energy": -0.01752,
				"method": "rhf"
			},
			{
				"type": "unocc",
				"energy": -0.01411,
				"method": "rhf"
			},
			{
				"type": "unocc",
				"energy": 0.01473,
				"method": "rhf"
			},
			{
				"type": "unocc",
				"energy": 0.01668,
				"method": "rhf"
			}
		],
		"cosmo_sigma_profile": { 
			"-0.025": 0.0,
			"-0.024": 0.0,
			"-0.023": 0.0,
			"-0.022": 0.0,
			"-0.021": 0.0,
			"-0.02": 0.0,
			"-0.019": 0.0,
			"-0.018": 0.0,
			"-0.017": 0.849231901466,
			"-0.016": 2.828943614,
			"-0.015": 2.94999667118,
			"-0.014": 2.29293808496,
			"-0.013": 3.68493810963,
			"-0.012": 2.60961299115,
			"-0.011": 3.69538573405,
			"-0.01": 3.46720725534,
			"-0.009": 3.96866306723,
			"-0.008": 5.84432493868,
			"-0.007": 14.1640139987,
			"-0.006": 22.5413482897,
			"-0.005": 27.2600467633,
			"-0.004": 23.2374073147,
			"-0.003": 24.4760484134,
			"-0.002": 25.7902122949,
			"-0.001": 17.6022955214,
			"0.0": 12.8673380316,
			"0.001": 11.1718850588,
			"0.002": 12.9409885223,
			"0.003": 11.8196622469,
			"0.004": 14.1516763045,
			"0.005": 10.0461714962,
			"0.006": 8.74097066895,
			"0.007": 5.52061851247,
			"0.008": 3.78719994419,
			"0.009": 5.08023271496,
			"0.01": 7.92197473205,
			"0.011": 10.4951933068,
			"0.012": 19.3765197533,
			"0.013": 14.0798020437,
			"0.014": 1.2505915045,
			"0.015": 0.0,
			"0.016": 0.0,
			"0.017": 0.0,
			"0.018": 0.0,
			"0.019": 0.0,
			"0.02": 0.0,
			"0.021": 0.0,
			"0.022": 0.0,
			"0.023": 0.0,
			"0.024": 0.0,
			"0.025": 0.0
		}
	}
}
