{
	 "smiles": "C1=CC=C2C(=C1)C1=CC3=CC=CC=C3C3=CC4=C(C=CC=C4)C2=C13", 
	 "Tm": 505.15, 
	 "num_atms": 38, 
	 "gaussian": { 
		 "optdone": 1, 
		 "sigma_profile": "yes", 
		 "theory": "DFT", 
		 "functional": "B3LYP", 
		 "basiset": "6-31G**", 
		 "properties": { 
			 "R2extent": 7892.7285, 
			 "electric_dipole_moment_norm": 0.646721586156, 
			 "electric_quadrupole_moment_norm": 16.2190700606, 
			 "total_energy": -923.039091147, 
			 "HOMO_LUMO_gap": 0.12014, 
			 "cosmo_polarized_energy": -9.12, 
			 "cosmo_cavitation_energy": 40.38, 
			 "cosmo_dispersion_energy": -30.0, 
			 "cosmo_repulsion_energy": 2.13, 
			 "cosmo_total_nonelectrostatic_energy": 12.5, 
			 "SMD_solvation_energy": 5.19 
		},
		"coords": [
			{
				"x": -1.308326304,
				"y": -2.1545117136,
				"z": 3.2946344308,
				"element": "C" 
			},
			{
				"x": -0.0283015533,
				"y": -2.6992899566,
				"z": 3.1645412158,
				"element": "C" 
			},
			{
				"x": 0.8258320158,
				"y": -2.2995167497,
				"z": 2.129858698,
				"element": "C" 
			},
			{
				"x": 0.3926694451,
				"y": -1.3406157669,
				"z": 1.2120518143,
				"element": "C" 
			},
			{
				"x": -0.9181137155,
				"y": -0.7894428466,
				"z": 1.353663623,
				"element": "C" 
			},
			{
				"x": -1.7597355123,
				"y": -1.1928504237,
				"z": 2.3849378668,
				"element": "C" 
			},
			{
				"x": -1.121198898,
				"y": 0.183455311,
				"z": 0.2740324403,
				"element": "C" 
			},
			{
				"x": -2.1470857594,
				"y": 0.9997823722,
				"z": -0.0927706998,
				"element": "C" 
			},
			{
				"x": -2.0124470873,
				"y": 1.8613981725,
				"z": -1.2465169029,
				"element": "C" 
			},
			{
				"x": -3.0802736257,
				"y": 2.7062187263,
				"z": -1.6220015108,
				"element": "C" 
			},
			{
				"x": -2.9842894071,
				"y": 3.5432522919,
				"z": -2.720562826,
				"element": "C" 
			},
			{
				"x": -1.8046445024,
				"y": 3.5583781976,
				"z": -3.4820060265,
				"element": "C" 
			},
			{
				"x": -0.7404766334,
				"y": 2.7388443092,
				"z": -3.135668746,
				"element": "C" 
			},
			{
				"x": -0.808722071,
				"y": 1.8771635099,
				"z": -2.0241101453,
				"element": "C" 
			},
			{
				"x": 0.2949462901,
				"y": 1.0005430726,
				"z": -1.6318777608,
				"element": "C" 
			},
			{
				"x": 1.5332681415,
				"y": 0.8786765844,
				"z": -2.2608825747,
				"element": "C" 
			},
			{
				"x": 2.5206089459,
				"y": -0.0115233694,
				"z": -1.7783731874,
				"element": "C" 
			},
			{
				"x": 2.2878511871,
				"y": -0.8367376603,
				"z": -0.6076806712,
				"element": "C" 
			},
			{
				"x": 3.3326777825,
				"y": -1.7083010264,
				"z": -0.1846645326,
				"element": "C" 
			},
			{
				"x": 4.5285877192,
				"y": -1.772054649,
				"z": -0.8591695917,
				"element": "C" 
			},
			{
				"x": 4.7568904711,
				"y": -0.965370197,
				"z": -2.0039259463,
				"element": "C" 
			},
			{
				"x": 3.7775480919,
				"y": -0.1117889566,
				"z": -2.4459584842,
				"element": "C" 
			},
			{
				"x": 1.0288272435,
				"y": -0.711875139,
				"z": 0.0307364642,
				"element": "C" 
			},
			{
				"x": 0.093209765,
				"y": 0.1874290688,
				"z": -0.4958785049,
				"element": "C" 
			},
			{
				"x": -1.954968403,
				"y": -2.4786649071,
				"z": 4.1046955188,
				"element": "H" 
			},
			{
				"x": 0.3130058536,
				"y": -3.4455925003,
				"z": 3.8762772758,
				"element": "H" 
			},
			{
				"x": 1.8112712952,
				"y": -2.7453950145,
				"z": 2.0627500206,
				"element": "H" 
			},
			{
				"x": -2.7550768087,
				"y": -0.7680583059,
				"z": 2.4847639387,
				"element": "H" 
			},
			{
				"x": -3.0829990996,
				"y": 1.0290318563,
				"z": 0.4603865989,
				"element": "H" 
			},
			{
				"x": -3.9902540479,
				"y": 2.6888701091,
				"z": -1.0274784017,
				"element": "H" 
			},
			{
				"x": -3.8171552933,
				"y": 4.1850508855,
				"z": -2.9921523148,
				"element": "H" 
			},
			{
				"x": -1.7231319415,
				"y": 4.2128320859,
				"z": -4.3449173246,
				"element": "H" 
			},
			{
				"x": 0.1629203848,
				"y": 2.7649010368,
				"z": -3.7366465379,
				"element": "H" 
			},
			{
				"x": 1.7739538494,
				"y": 1.4663857169,
				"z": -3.1418543821,
				"element": "H" 
			},
			{
				"x": 3.1815566482,
				"y": -2.3334266755,
				"z": 0.686095949,
				"element": "H" 
			},
			{
				"x": 5.307565653,
				"y": -2.4458683099,
				"z": -0.5140108799,
				"element": "H" 
			},
			{
				"x": 5.7069745093,
				"y": -1.0267562945,
				"z": -2.5264094205,
				"element": "H" 
			},
			{
				"x": 3.9452353711,
				"y": 0.5093271557,
				"z": -3.3223084824,
				"element": "H" 
			}
		],
		 "valence_orbital": [ 
			{
				"type": "occ",
				"energy": -0.26539,
				"method": "rhf"
			},
			{
				"type": "occ",
				"energy": -0.25008,
				"method": "rhf"
			},
			{
				"type": "occ",
				"energy": -0.22587,
				"method": "rhf"
			},
			{
				"type": "occ",
				"energy": -0.21326,
				"method": "rhf"
			},
			{
				"type": "occ",
				"energy": -0.1958,
				"method": "rhf"
			},
			{
				"type": "unocc",
				"energy": -0.07566,
				"method": "rhf"
			},
			{
				"type": "unocc",
				"energy": -0.04023,
				"method": "rhf"
			},
			{
				"type": "unocc",
				"energy": -0.01115,
				"method": "rhf"
			},
			{
				"type": "unocc",
				"energy": -0.00224,
				"method": "rhf"
			},
			{
				"type": "unocc",
				"energy": 0.01021,
				"method": "rhf"
			}
		],
		"cosmo_sigma_profile": { 
			"-0.025": 0.0,
			"-0.024": 0.0,
			"-0.023": 0.0,
			"-0.022": 0.0,
			"-0.021": 0.0,
			"-0.02": 0.0,
			"-0.019": 0.0,
			"-0.018": 0.0,
			"-0.017": 0.0,
			"-0.016": 0.0,
			"-0.015": 0.0,
			"-0.014": 0.0,
			"-0.013": 0.0,
			"-0.012": 0.0,
			"-0.011": 0.0,
			"-0.01": 0.0,
			"-0.009": 0.156330808583,
			"-0.008": 2.40995933163,
			"-0.007": 6.13409214923,
			"-0.006": 23.5295573076,
			"-0.005": 25.8922988497,
			"-0.004": 26.2670185146,
			"-0.003": 22.6205471197,
			"-0.002": 16.9450783554,
			"-0.001": 15.3317138762,
			"0.0": 16.9376399734,
			"0.001": 19.035660675,
			"0.002": 26.9733915159,
			"0.003": 53.827816289,
			"0.004": 41.1741111377,
			"0.005": 24.7310075008,
			"0.006": 4.97983307575,
			"0.007": 0.0,
			"0.008": 0.0,
			"0.009": 0.0,
			"0.01": 0.0,
			"0.011": 0.0,
			"0.012": 0.0,
			"0.013": 0.0,
			"0.014": 0.0,
			"0.015": 0.0,
			"0.016": 0.0,
			"0.017": 0.0,
			"0.018": 0.0,
			"0.019": 0.0,
			"0.02": 0.0,
			"0.021": 0.0,
			"0.022": 0.0,
			"0.023": 0.0,
			"0.024": 0.0,
			"0.025": 0.0
		}
	}
}
