{
	 "smiles": "COC1=C(NC(=O)C2CCCCC2)C=C(N)C=C1", 
	 "Tm": 421.15, 
	 "num_atms": 38, 
	 "gaussian": { 
		 "optdone": 1, 
		 "sigma_profile": "yes", 
		 "theory": "DFT", 
		 "functional": "B3LYP", 
		 "basiset": "6-31G**", 
		 "properties": { 
			 "R2extent": 6690.3483, 
			 "electric_dipole_moment_norm": 3.40925404744, 
			 "electric_quadrupole_moment_norm": 15.4505711076, 
			 "total_energy": -805.523730812, 
			 "HOMO_LUMO_gap": 0.17578, 
			 "cosmo_polarized_energy": -14.21, 
			 "cosmo_cavitation_energy": 38.49, 
			 "cosmo_dispersion_energy": -28.29, 
			 "cosmo_repulsion_energy": 2.22, 
			 "cosmo_total_nonelectrostatic_energy": 12.42, 
			 "SMD_solvation_energy": 6.42 
		},
		"coords": [
			{
				"x": 1.1528228468,
				"y": -4.6657673838,
				"z": 2.2052250116,
				"element": "C" 
			},
			{
				"x": 0.6738857119,
				"y": -3.4244667402,
				"z": 1.7204305047,
				"element": "O" 
			},
			{
				"x": -0.3896269719,
				"y": -3.4406375068,
				"z": 0.8399098653,
				"element": "C" 
			},
			{
				"x": -0.8232522556,
				"y": -2.1673847369,
				"z": 0.3998028578,
				"element": "C" 
			},
			{
				"x": -0.1174967474,
				"y": -1.0636885088,
				"z": 0.9149553613,
				"element": "N" 
			},
			{
				"x": -0.2844846183,
				"y": 0.2737914606,
				"z": 0.6440473591,
				"element": "C" 
			},
			{
				"x": -1.1369443425,
				"y": 0.7053913436,
				"z": -0.129977215,
				"element": "O" 
			},
			{
				"x": 0.6988292203,
				"y": 1.1850045071,
				"z": 1.3842584139,
				"element": "C" 
			},
			{
				"x": -0.0349363276,
				"y": 2.2552700379,
				"z": 2.2312642881,
				"element": "C" 
			},
			{
				"x": -0.6583107707,
				"y": 3.3829679589,
				"z": 1.3936058925,
				"element": "C" 
			},
			{
				"x": 0.3779835554,
				"y": 4.0275372285,
				"z": 0.4606999416,
				"element": "C" 
			},
			{
				"x": 1.0469656445,
				"y": 2.9764045241,
				"z": -0.4378659896,
				"element": "C" 
			},
			{
				"x": 1.6884378889,
				"y": 1.8577462517,
				"z": 0.3971702632,
				"element": "C" 
			},
			{
				"x": -1.8902936135,
				"y": -2.0693061054,
				"z": -0.4923607473,
				"element": "C" 
			},
			{
				"x": -2.539145673,
				"y": -3.2262683404,
				"z": -0.9589160085,
				"element": "C" 
			},
			{
				"x": -3.6497300843,
				"y": -3.1064011522,
				"z": -1.8067517469,
				"element": "N" 
			},
			{
				"x": -2.1006973567,
				"y": -4.4798587809,
				"z": -0.5195556566,
				"element": "C" 
			},
			{
				"x": -1.0313227558,
				"y": -4.5825216449,
				"z": 0.3759977882,
				"element": "C" 
			},
			{
				"x": 1.9791678498,
				"y": -4.4332520571,
				"z": 2.8792415147,
				"element": "H" 
			},
			{
				"x": 1.5204893972,
				"y": -5.3022957079,
				"z": 1.3897034158,
				"element": "H" 
			},
			{
				"x": 0.3762596671,
				"y": -5.2088642353,
				"z": 2.7595529638,
				"element": "H" 
			},
			{
				"x": 0.6154740457,
				"y": -1.3228469844,
				"z": 1.5600105461,
				"element": "H" 
			},
			{
				"x": 1.2878781393,
				"y": 0.5642961185,
				"z": 2.0724204898,
				"element": "H" 
			},
			{
				"x": -0.7977121374,
				"y": 1.7759979053,
				"z": 2.8566795817,
				"element": "H" 
			},
			{
				"x": 0.7051134363,
				"y": 2.6875531215,
				"z": 2.9194325509,
				"element": "H" 
			},
			{
				"x": -1.4786979857,
				"y": 2.9739424995,
				"z": 0.796340364,
				"element": "H" 
			},
			{
				"x": -1.0859760296,
				"y": 4.1373436657,
				"z": 2.0656703616,
				"element": "H" 
			},
			{
				"x": -0.0972492094,
				"y": 4.801992698,
				"z": -0.15318962,
				"element": "H" 
			},
			{
				"x": 1.1473664094,
				"y": 4.5348349627,
				"z": 1.0623604124,
				"element": "H" 
			},
			{
				"x": 1.8145941328,
				"y": 3.444546416,
				"z": -1.0664503809,
				"element": "H" 
			},
			{
				"x": 0.2974187527,
				"y": 2.5427269412,
				"z": -1.1079110437,
				"element": "H" 
			},
			{
				"x": 2.137933527,
				"y": 1.0986186234,
				"z": -0.2547069125,
				"element": "H" 
			},
			{
				"x": 2.5086100345,
				"y": 2.2811040829,
				"z": 0.993843425,
				"element": "H" 
			},
			{
				"x": -2.2068303552,
				"y": -1.0861404152,
				"z": -0.8133680181,
				"element": "H" 
			},
			{
				"x": -3.8098590687,
				"y": -3.9083725203,
				"z": -2.401618897,
				"element": "H" 
			},
			{
				"x": -3.6738950196,
				"y": -2.2465173593,
				"z": -2.3386156388,
				"element": "H" 
			},
			{
				"x": -2.5959260361,
				"y": -5.3822435273,
				"z": -0.8675616333,
				"element": "H" 
			},
			{
				"x": -0.7088429007,
				"y": -5.5646366398,
				"z": 0.7017263349,
				"element": "H" 
			}
		],
		 "valence_orbital": [ 
			{
				"type": "occ",
				"energy": -0.29064,
				"method": "rhf"
			},
			{
				"type": "occ",
				"energy": -0.27046,
				"method": "rhf"
			},
			{
				"type": "occ",
				"energy": -0.23624,
				"method": "rhf"
			},
			{
				"type": "occ",
				"energy": -0.21807,
				"method": "rhf"
			},
			{
				"type": "occ",
				"energy": -0.18042,
				"method": "rhf"
			},
			{
				"type": "unocc",
				"energy": -0.00464,
				"method": "rhf"
			},
			{
				"type": "unocc",
				"energy": 0.02876,
				"method": "rhf"
			},
			{
				"type": "unocc",
				"energy": 0.05686,
				"method": "rhf"
			},
			{
				"type": "unocc",
				"energy": 0.07569,
				"method": "rhf"
			},
			{
				"type": "unocc",
				"energy": 0.08876,
				"method": "rhf"
			}
		],
		"cosmo_sigma_profile": { 
			"-0.025": 0.0,
			"-0.024": 0.0,
			"-0.023": 0.0,
			"-0.022": 0.0,
			"-0.021": 0.0,
			"-0.02": 0.0,
			"-0.019": 0.0,
			"-0.018": 0.0,
			"-0.017": 0.0,
			"-0.016": 0.0,
			"-0.015": 0.0,
			"-0.014": 0.0,
			"-0.013": 0.0,
			"-0.012": 1.26787908116,
			"-0.011": 3.67201793207,
			"-0.01": 4.37807960527,
			"-0.009": 3.2473623241,
			"-0.008": 4.28848147608,
			"-0.007": 4.47782413177,
			"-0.006": 7.90772879262,
			"-0.005": 15.6562670183,
			"-0.004": 14.9498028233,
			"-0.003": 26.9725332749,
			"-0.002": 29.8961269358,
			"-0.001": 28.4139990253,
			"0.0": 32.5083839039,
			"0.001": 27.1034004378,
			"0.002": 18.4012683868,
			"0.003": 13.6917286283,
			"0.004": 12.842678534,
			"0.005": 12.4771619917,
			"0.006": 12.9989040752,
			"0.007": 7.2163108843,
			"0.008": 3.44064850261,
			"0.009": 3.44094168783,
			"0.01": 2.07972637717,
			"0.011": 2.64051202714,
			"0.012": 3.12647795743,
			"0.013": 2.19697647829,
			"0.014": 0.408965373381,
			"0.015": 0.97646546284,
			"0.016": 0.140833533511,
			"0.017": 0.0,
			"0.018": 0.0,
			"0.019": 0.0,
			"0.02": 0.0,
			"0.021": 0.0,
			"0.022": 0.0,
			"0.023": 0.0,
			"0.024": 0.0,
			"0.025": 0.0
		}
	}
}
