{
	 "smiles": "NC1=NC2=C(N=CN2C2OC(CO)C(O)C2O)C(S)=N1", 
	 "Tm": 503.15, 
	 "num_atms": 33, 
	 "gaussian": { 
		 "optdone": 1, 
		 "sigma_profile": "yes", 
		 "theory": "DFT", 
		 "functional": "B3LYP", 
		 "basiset": "6-31G**", 
		 "properties": { 
			 "R2extent": 7548.7424, 
			 "electric_dipole_moment_norm": 4.83052927431, 
			 "electric_quadrupole_moment_norm": 13.479140335, 
			 "total_energy": -1361.73205589, 
			 "HOMO_LUMO_gap": 0.17904, 
			 "cosmo_polarized_energy": -21.14, 
			 "cosmo_cavitation_energy": 37.23, 
			 "cosmo_dispersion_energy": -28.27, 
			 "cosmo_repulsion_energy": 2.13, 
			 "cosmo_total_nonelectrostatic_energy": 11.09, 
			 "SMD_solvation_energy": 0.83 
		},
		"coords": [
			{
				"x": -2.9346347084,
				"y": -1.5038278111,
				"z": -2.4930371519,
				"element": "N" 
			},
			{
				"x": -2.1928623229,
				"y": -1.6169211805,
				"z": -1.3490594923,
				"element": "C" 
			},
			{
				"x": -1.3387041874,
				"y": -0.6117168803,
				"z": -1.073612946,
				"element": "N" 
			},
			{
				"x": -0.7102789904,
				"y": -0.7997268163,
				"z": 0.0833090008,
				"element": "C" 
			},
			{
				"x": -0.8583955901,
				"y": -1.8851000247,
				"z": 0.9577694126,
				"element": "C" 
			},
			{
				"x": -0.041170314,
				"y": -1.7456186455,
				"z": 2.068116,
				"element": "N" 
			},
			{
				"x": 0.5848735499,
				"y": -0.6161194494,
				"z": 1.875084114,
				"element": "C" 
			},
			{
				"x": 0.2394628099,
				"y": 0.0151433214,
				"z": 0.6766627455,
				"element": "N" 
			},
			{
				"x": 0.6201873756,
				"y": 1.3056309644,
				"z": 0.1773487275,
				"element": "C" 
			},
			{
				"x": 0.0815371533,
				"y": 2.3311103575,
				"z": 1.0182381941,
				"element": "O" 
			},
			{
				"x": 0.7006826045,
				"y": 3.5634413734,
				"z": 0.6220436748,
				"element": "C" 
			},
			{
				"x": 0.7230387151,
				"y": 4.4569314484,
				"z": 1.8544630068,
				"element": "C" 
			},
			{
				"x": 1.5330406509,
				"y": 3.8734963786,
				"z": 2.8789722802,
				"element": "O" 
			},
			{
				"x": 2.1136469983,
				"y": 3.1845882365,
				"z": 0.0551805239,
				"element": "C" 
			},
			{
				"x": 3.215076981,
				"y": 3.7182177369,
				"z": 0.767825034,
				"element": "O" 
			},
			{
				"x": 2.1174759296,
				"y": 1.6220547527,
				"z": 0.0982614053,
				"element": "C" 
			},
			{
				"x": 2.7724875808,
				"y": 1.1822715527,
				"z": 1.2684907202,
				"element": "O" 
			},
			{
				"x": -1.7675321312,
				"y": -2.8671241991,
				"z": 0.5412971446,
				"element": "C" 
			},
			{
				"x": -2.0894630148,
				"y": -4.3279974863,
				"z": 1.4865270386,
				"element": "S" 
			},
			{
				"x": -2.4260172291,
				"y": -2.72636818,
				"z": -0.6060681994,
				"element": "N" 
			},
			{
				"x": -3.3913232599,
				"y": -2.3408685968,
				"z": -2.8182663232,
				"element": "H" 
			},
			{
				"x": -2.6220503637,
				"y": -0.834351073,
				"z": -3.1776647959,
				"element": "H" 
			},
			{
				"x": 1.3252271352,
				"y": -0.1818865555,
				"z": 2.5276176506,
				"element": "H" 
			},
			{
				"x": 0.1799613984,
				"y": 1.3752272759,
				"z": -0.8273147437,
				"element": "H" 
			},
			{
				"x": 0.0983232597,
				"y": 4.0386639154,
				"z": -0.1669661792,
				"element": "H" 
			},
			{
				"x": -0.3026004618,
				"y": 4.6171465761,
				"z": 2.2099845236,
				"element": "H" 
			},
			{
				"x": 1.1651106359,
				"y": 5.4277231176,
				"z": 1.6154228276,
				"element": "H" 
			},
			{
				"x": 1.2331709851,
				"y": 2.9538194148,
				"z": 2.96213628,
				"element": "H" 
			},
			{
				"x": 2.2088422996,
				"y": 3.5344835333,
				"z": -0.9768639338,
				"element": "H" 
			},
			{
				"x": 2.9281746759,
				"y": 3.8088508763,
				"z": 1.6999698428,
				"element": "H" 
			},
			{
				"x": 2.5700980589,
				"y": 1.1806429535,
				"z": -0.8001679518,
				"element": "H" 
			},
			{
				"x": 3.52939891,
				"y": 1.7848342364,
				"z": 1.3701990461,
				"element": "H" 
			},
			{
				"x": -1.2272851337,
				"y": -4.0071511232,
				"z": 2.4738025237,
				"element": "H" 
			}
		],
		 "valence_orbital": [ 
			{
				"type": "occ",
				"energy": -0.28343,
				"method": "rhf"
			},
			{
				"type": "occ",
				"energy": -0.27073,
				"method": "rhf"
			},
			{
				"type": "occ",
				"energy": -0.2506,
				"method": "rhf"
			},
			{
				"type": "occ",
				"energy": -0.24703,
				"method": "rhf"
			},
			{
				"type": "occ",
				"energy": -0.20955,
				"method": "rhf"
			},
			{
				"type": "unocc",
				"energy": -0.03051,
				"method": "rhf"
			},
			{
				"type": "unocc",
				"energy": 0.00799,
				"method": "rhf"
			},
			{
				"type": "unocc",
				"energy": 0.03249,
				"method": "rhf"
			},
			{
				"type": "unocc",
				"energy": 0.03849,
				"method": "rhf"
			},
			{
				"type": "unocc",
				"energy": 0.04859,
				"method": "rhf"
			}
		],
		"cosmo_sigma_profile": { 
			"-0.025": 0.0,
			"-0.024": 0.0,
			"-0.023": 0.0,
			"-0.022": 0.0,
			"-0.021": 0.0,
			"-0.02": 0.0,
			"-0.019": 0.0,
			"-0.018": 0.0,
			"-0.017": 0.0,
			"-0.016": 0.0,
			"-0.015": 0.0,
			"-0.014": 0.719360619559,
			"-0.013": 2.43805526299,
			"-0.012": 2.94591696233,
			"-0.011": 2.98991478615,
			"-0.01": 4.82515275138,
			"-0.009": 6.38876042253,
			"-0.008": 7.58530427636,
			"-0.007": 11.9252737359,
			"-0.006": 22.7706046158,
			"-0.005": 18.8062913935,
			"-0.004": 14.8658168388,
			"-0.003": 15.0427287514,
			"-0.002": 14.6591621403,
			"-0.001": 17.5525647938,
			"0.0": 18.137428839,
			"0.001": 16.6106926886,
			"0.002": 16.7897169602,
			"0.003": 15.5314370426,
			"0.004": 14.6416418874,
			"0.005": 13.3108512367,
			"0.006": 12.1106776826,
			"0.007": 10.021855457,
			"0.008": 8.05387666162,
			"0.009": 6.75349335913,
			"0.01": 7.08062417631,
			"0.011": 6.1845453458,
			"0.012": 4.22480242455,
			"0.013": 3.23996373364,
			"0.014": 1.15828785299,
			"0.015": 0.0,
			"0.016": 0.0,
			"0.017": 0.0,
			"0.018": 0.0,
			"0.019": 0.0,
			"0.02": 0.0,
			"0.021": 0.0,
			"0.022": 0.0,
			"0.023": 0.0,
			"0.024": 0.0,
			"0.025": 0.0
		}
	}
}
