{
	 "smiles": "O=C1C(CC2=CC=CC=C12)=CC1=CC=CC=C1", 
	 "Tm": 383.15, 
	 "num_atms": 29, 
	 "gaussian": { 
		 "optdone": 1, 
		 "sigma_profile": "yes", 
		 "theory": "DFT", 
		 "functional": "B3LYP", 
		 "basiset": "6-31G**", 
		 "properties": { 
			 "R2extent": 5614.6531, 
			 "electric_dipole_moment_norm": 3.65411914694, 
			 "electric_quadrupole_moment_norm": 18.010812088, 
			 "total_energy": -692.160127794, 
			 "HOMO_LUMO_gap": 0.15261, 
			 "cosmo_polarized_energy": -11.18, 
			 "cosmo_cavitation_energy": 33.16, 
			 "cosmo_dispersion_energy": -24.2, 
			 "cosmo_repulsion_energy": 1.83, 
			 "cosmo_total_nonelectrostatic_energy": 10.8, 
			 "SMD_solvation_energy": 5.59 
		},
		"coords": [
			{
				"x": 2.2260023042,
				"y": -1.7807299,
				"z": 2.1142329999,
				"element": "O" 
			},
			{
				"x": 2.0743080986,
				"y": -0.9121351971,
				"z": 1.2657951288,
				"element": "C" 
			},
			{
				"x": 0.7715038124,
				"y": -0.322591346,
				"z": 0.8091735993,
				"element": "C" 
			},
			{
				"x": 1.0518254116,
				"y": 0.7199156805,
				"z": -0.2553740343,
				"element": "C" 
			},
			{
				"x": 2.5647430868,
				"y": 0.7012249559,
				"z": -0.3868972197,
				"element": "C" 
			},
			{
				"x": 3.3809986448,
				"y": 1.460736989,
				"z": -1.2231106916,
				"element": "C" 
			},
			{
				"x": 4.7643819914,
				"y": 1.2665411426,
				"z": -1.1673397683,
				"element": "C" 
			},
			{
				"x": 5.3320324442,
				"y": 0.3284714228,
				"z": -0.2910075632,
				"element": "C" 
			},
			{
				"x": 4.5177710854,
				"y": -0.4315308118,
				"z": 0.5454407645,
				"element": "C" 
			},
			{
				"x": 3.1370267844,
				"y": -0.2325354099,
				"z": 0.4846797498,
				"element": "C" 
			},
			{
				"x": -0.3807414398,
				"y": -0.7593123492,
				"z": 1.3587525096,
				"element": "C" 
			},
			{
				"x": -1.7715057446,
				"y": -0.380913027,
				"z": 1.1216358182,
				"element": "C" 
			},
			{
				"x": -2.1882842452,
				"y": 0.594786759,
				"z": 0.1918031706,
				"element": "C" 
			},
			{
				"x": -3.5383297246,
				"y": 0.8941664762,
				"z": 0.0295155481,
				"element": "C" 
			},
			{
				"x": -4.5077247385,
				"y": 0.2315346066,
				"z": 0.7871183244,
				"element": "C" 
			},
			{
				"x": -4.1154036497,
				"y": -0.7376035204,
				"z": 1.712842626,
				"element": "C" 
			},
			{
				"x": -2.7661904414,
				"y": -1.0376099226,
				"z": 1.8757949962,
				"element": "C" 
			},
			{
				"x": 0.5665243616,
				"y": 0.4774584908,
				"z": -1.2106341588,
				"element": "H" 
			},
			{
				"x": 0.6899894548,
				"y": 1.7157933593,
				"z": 0.0346724584,
				"element": "H" 
			},
			{
				"x": 2.9575291679,
				"y": 2.1913525302,
				"z": -1.9075236187,
				"element": "H" 
			},
			{
				"x": 5.4122979883,
				"y": 1.8520757849,
				"z": -1.8138628642,
				"element": "H" 
			},
			{
				"x": 6.4100891988,
				"y": 0.1986705938,
				"z": -0.2689748478,
				"element": "H" 
			},
			{
				"x": 4.9272694516,
				"y": -1.1647915385,
				"z": 1.2337964076,
				"element": "H" 
			},
			{
				"x": -0.2370709801,
				"y": -1.5330604542,
				"z": 2.1140577903,
				"element": "H" 
			},
			{
				"x": -1.4579923579,
				"y": 1.122959355,
				"z": -0.4078744292,
				"element": "H" 
			},
			{
				"x": -3.8368482709,
				"y": 1.6490763782,
				"z": -0.6923287153,
				"element": "H" 
			},
			{
				"x": -5.5593868727,
				"y": 0.4692063001,
				"z": 0.656311774,
				"element": "H" 
			},
			{
				"x": -4.8605162321,
				"y": -1.2587248007,
				"z": 2.3068803115,
				"element": "H" 
			},
			{
				"x": -2.4637985894,
				"y": -1.7922325478,
				"z": 2.5969239339,
				"element": "H" 
			}
		],
		 "valence_orbital": [ 
			{
				"type": "occ",
				"energy": -0.25945,
				"method": "rhf"
			},
			{
				"type": "occ",
				"energy": -0.25813,
				"method": "rhf"
			},
			{
				"type": "occ",
				"energy": -0.25212,
				"method": "rhf"
			},
			{
				"type": "occ",
				"energy": -0.23889,
				"method": "rhf"
			},
			{
				"type": "occ",
				"energy": -0.22842,
				"method": "rhf"
			},
			{
				"type": "unocc",
				"energy": -0.07581,
				"method": "rhf"
			},
			{
				"type": "unocc",
				"energy": -0.01928,
				"method": "rhf"
			},
			{
				"type": "unocc",
				"energy": -0.01169,
				"method": "rhf"
			},
			{
				"type": "unocc",
				"energy": -0.00655,
				"method": "rhf"
			},
			{
				"type": "unocc",
				"energy": 0.03814,
				"method": "rhf"
			}
		],
		"cosmo_sigma_profile": { 
			"-0.025": 0.0,
			"-0.024": 0.0,
			"-0.023": 0.0,
			"-0.022": 0.0,
			"-0.021": 0.0,
			"-0.02": 0.0,
			"-0.019": 0.0,
			"-0.018": 0.0,
			"-0.017": 0.0,
			"-0.016": 0.0,
			"-0.015": 0.0,
			"-0.014": 0.0,
			"-0.013": 0.0,
			"-0.012": 0.0,
			"-0.011": 0.0,
			"-0.01": 0.0,
			"-0.009": 0.0,
			"-0.008": 0.0,
			"-0.007": 2.34732374277,
			"-0.006": 22.7569382254,
			"-0.005": 24.7399751842,
			"-0.004": 26.8547089303,
			"-0.003": 19.1449514937,
			"-0.002": 17.7501730502,
			"-0.001": 15.0500442351,
			"0.0": 16.4196430603,
			"0.001": 19.2892199338,
			"0.002": 22.2622439572,
			"0.003": 24.4556359872,
			"0.004": 24.8186726115,
			"0.005": 11.485295415,
			"0.006": 1.56954389779,
			"0.007": 2.34587665954,
			"0.008": 1.13648322678,
			"0.009": 1.72397719469,
			"0.01": 1.44291603827,
			"0.011": 2.3705063635,
			"0.012": 3.80237528661,
			"0.013": 4.33526498876,
			"0.014": 0.361800530249,
			"0.015": 0.0,
			"0.016": 0.0,
			"0.017": 0.0,
			"0.018": 0.0,
			"0.019": 0.0,
			"0.02": 0.0,
			"0.021": 0.0,
			"0.022": 0.0,
			"0.023": 0.0,
			"0.024": 0.0,
			"0.025": 0.0
		}
	}
}
