{
	 "smiles": "CCOC(=O)C1=C(C#N)C(=S)NC(C)=C1", 
	 "Tm": 487.15, 
	 "num_atms": 25, 
	 "gaussian": { 
		 "optdone": 1, 
		 "sigma_profile": "yes", 
		 "theory": "DFT", 
		 "functional": "B3LYP", 
		 "basiset": "6-31G**", 
		 "properties": { 
			 "R2extent": 4274.2604, 
			 "electric_dipole_moment_norm": 7.02901007397, 
			 "electric_quadrupole_moment_norm": 29.8501478673, 
			 "total_energy": -1045.22913772, 
			 "HOMO_LUMO_gap": 0.11479, 
			 "cosmo_polarized_energy": -25.54, 
			 "cosmo_cavitation_energy": 32.56, 
			 "cosmo_dispersion_energy": -22.87, 
			 "cosmo_repulsion_energy": 1.76, 
			 "cosmo_total_nonelectrostatic_energy": 11.45, 
			 "SMD_solvation_energy": 6.83 
		},
		"coords": [
			{
				"x": 2.0696075802,
				"y": 1.4406818934,
				"z": -3.2382397086,
				"element": "C" 
			},
			{
				"x": 2.565067737,
				"y": 1.0120194428,
				"z": -1.8715641759,
				"element": "C" 
			},
			{
				"x": 1.4279085011,
				"y": 0.4562576779,
				"z": -1.1581628412,
				"element": "O" 
			},
			{
				"x": 1.6534545492,
				"y": 0.0057643831,
				"z": 0.0737039875,
				"element": "C" 
			},
			{
				"x": 2.7149038557,
				"y": 0.0866939509,
				"z": 0.660876439,
				"element": "O" 
			},
			{
				"x": 0.4305915094,
				"y": -0.6073909945,
				"z": 0.7132172611,
				"element": "C" 
			},
			{
				"x": -0.6688266644,
				"y": -1.1050211555,
				"z": 0.017677753,
				"element": "C" 
			},
			{
				"x": -0.7530934933,
				"y": -1.1152953126,
				"z": -1.4116643026,
				"element": "C" 
			},
			{
				"x": -0.824840479,
				"y": -1.1502024319,
				"z": -2.5716885502,
				"element": "N" 
			},
			{
				"x": -1.7925275601,
				"y": -1.6874172084,
				"z": 0.7366484775,
				"element": "C" 
			},
			{
				"x": -3.1824692944,
				"y": -2.3194471277,
				"z": 0.0639444343,
				"element": "S" 
			},
			{
				"x": -1.6378611612,
				"y": -1.6858748314,
				"z": 2.1169444488,
				"element": "N" 
			},
			{
				"x": -0.5685333589,
				"y": -1.2210272149,
				"z": 2.8229843386,
				"element": "C" 
			},
			{
				"x": -0.6310561022,
				"y": -1.3436581589,
				"z": 4.3165041908,
				"element": "C" 
			},
			{
				"x": 0.4813003323,
				"y": -0.6792597398,
				"z": 2.1281128429,
				"element": "C" 
			},
			{
				"x": 2.9056084336,
				"y": 1.8361727952,
				"z": -3.823358284,
				"element": "H" 
			},
			{
				"x": 1.6326416392,
				"y": 0.5948939384,
				"z": -3.774824047,
				"element": "H" 
			},
			{
				"x": 1.3088475601,
				"y": 2.2212122842,
				"z": -3.1514429979,
				"element": "H" 
			},
			{
				"x": 3.3403449277,
				"y": 0.2421449291,
				"z": -1.930509604,
				"element": "H" 
			},
			{
				"x": 2.965140966,
				"y": 1.8455572628,
				"z": -1.2863292991,
				"element": "H" 
			},
			{
				"x": -2.4264254492,
				"y": -2.0910449441,
				"z": 2.6113691936,
				"element": "H" 
			},
			{
				"x": -0.7371898806,
				"y": -2.3916088746,
				"z": 4.6194134173,
				"element": "H" 
			},
			{
				"x": 0.2774262813,
				"y": -0.9457241986,
				"z": 4.7702047981,
				"element": "H" 
			},
			{
				"x": -1.4880949144,
				"y": -0.792225869,
				"z": 4.7199783219,
				"element": "H" 
			},
			{
				"x": 1.3600744849,
				"y": -0.3107004958,
				"z": 2.6391039061,
				"element": "H" 
			}
		],
		 "valence_orbital": [ 
			{
				"type": "occ",
				"energy": -0.31268,
				"method": "rhf"
			},
			{
				"type": "occ",
				"energy": -0.29942,
				"method": "rhf"
			},
			{
				"type": "occ",
				"energy": -0.29657,
				"method": "rhf"
			},
			{
				"type": "occ",
				"energy": -0.21908,
				"method": "rhf"
			},
			{
				"type": "occ",
				"energy": -0.21773,
				"method": "rhf"
			},
			{
				"type": "unocc",
				"energy": -0.10294,
				"method": "rhf"
			},
			{
				"type": "unocc",
				"energy": -0.05032,
				"method": "rhf"
			},
			{
				"type": "unocc",
				"energy": 0.00724,
				"method": "rhf"
			},
			{
				"type": "unocc",
				"energy": 0.03427,
				"method": "rhf"
			},
			{
				"type": "unocc",
				"energy": 0.04792,
				"method": "rhf"
			}
		],
		"cosmo_sigma_profile": { 
			"-0.025": 0.0,
			"-0.024": 0.0,
			"-0.023": 0.0,
			"-0.022": 0.0,
			"-0.021": 0.0,
			"-0.02": 0.0,
			"-0.019": 0.0,
			"-0.018": 0.0,
			"-0.017": 0.636409409749,
			"-0.016": 1.10200663166,
			"-0.015": 1.09559705194,
			"-0.014": 1.31159686865,
			"-0.013": 0.948824655769,
			"-0.012": 1.1038092431,
			"-0.011": 1.3574641426,
			"-0.01": 1.2166684365,
			"-0.009": 3.01224870658,
			"-0.008": 5.5269729197,
			"-0.007": 9.20494920208,
			"-0.006": 13.8868107362,
			"-0.005": 22.1832972299,
			"-0.004": 26.6455596093,
			"-0.003": 28.2804330113,
			"-0.002": 18.1559672058,
			"-0.001": 15.0447842211,
			"0.0": 10.5874667925,
			"0.001": 6.97993813065,
			"0.002": 5.56481089465,
			"0.003": 7.43774687464,
			"0.004": 8.63769400656,
			"0.005": 8.0328376097,
			"0.006": 8.68849862424,
			"0.007": 9.22116255197,
			"0.008": 9.00468059017,
			"0.009": 13.8943790779,
			"0.01": 12.2118305626,
			"0.011": 8.66773787563,
			"0.012": 2.39500060803,
			"0.013": 0.929513219005,
			"0.014": 0.0,
			"0.015": 0.0,
			"0.016": 0.0,
			"0.017": 0.0,
			"0.018": 0.0,
			"0.019": 0.0,
			"0.02": 0.0,
			"0.021": 0.0,
			"0.022": 0.0,
			"0.023": 0.0,
			"0.024": 0.0,
			"0.025": 0.0
		}
	}
}
