{
	 "smiles": "NC1=CC=C(C=C1)S(=O)(=O)N1CCOCC1", 
	 "Tm": 490.15, 
	 "num_atms": 30, 
	 "gaussian": { 
		 "optdone": 1, 
		 "sigma_profile": "yes", 
		 "theory": "DFT", 
		 "functional": "B3LYP", 
		 "basiset": "6-31G**", 
		 "properties": { 
			 "R2extent": 4601.9292, 
			 "electric_dipole_moment_norm": 6.7823453672, 
			 "electric_quadrupole_moment_norm": 21.38254682, 
			 "total_energy": -1122.78417484, 
			 "HOMO_LUMO_gap": 0.20091, 
			 "cosmo_polarized_energy": -20.68, 
			 "cosmo_cavitation_energy": 33.22, 
			 "cosmo_dispersion_energy": -24.67, 
			 "cosmo_repulsion_energy": 1.88, 
			 "cosmo_total_nonelectrostatic_energy": 10.44, 
			 "SMD_solvation_energy": 3.44 
		},
		"coords": [
			{
				"x": -1.6113356219,
				"y": 0.7702685555,
				"z": 4.0170718521,
				"element": "N" 
			},
			{
				"x": -0.7853622673,
				"y": 0.6022276088,
				"z": 2.9200644551,
				"element": "C" 
			},
			{
				"x": -0.0117906857,
				"y": 1.6749764657,
				"z": 2.4326912544,
				"element": "C" 
			},
			{
				"x": 0.8552944912,
				"y": 1.494100895,
				"z": 1.3635104665,
				"element": "C" 
			},
			{
				"x": 0.9663262903,
				"y": 0.2369717506,
				"z": 0.7577211803,
				"element": "C" 
			},
			{
				"x": 0.212278446,
				"y": -0.8407220734,
				"z": 1.2370104534,
				"element": "C" 
			},
			{
				"x": -0.6548698491,
				"y": -0.6598476551,
				"z": 2.3061309439,
				"element": "C" 
			},
			{
				"x": 2.0464250311,
				"y": 0.0156819174,
				"z": -0.6464145428,
				"element": "S" 
			},
			{
				"x": 3.0661405483,
				"y": 1.0667934162,
				"z": -0.5925126288,
				"element": "O" 
			},
			{
				"x": 2.3893177372,
				"y": -1.407009888,
				"z": -0.7234753054,
				"element": "O" 
			},
			{
				"x": 1.1366361743,
				"y": 0.3384273532,
				"z": -2.0424865651,
				"element": "N" 
			},
			{
				"x": 0.0829142876,
				"y": -0.6286056714,
				"z": -2.3836461356,
				"element": "C" 
			},
			{
				"x": -0.346984227,
				"y": -0.3758624247,
				"z": -3.8291241247,
				"element": "C" 
			},
			{
				"x": -0.7761934183,
				"y": 0.9656805241,
				"z": -4.0148841668,
				"element": "O" 
			},
			{
				"x": 0.268570005,
				"y": 1.8786127208,
				"z": -3.709124342,
				"element": "C" 
			},
			{
				"x": 0.728071108,
				"y": 1.7343167753,
				"z": -2.2578809901,
				"element": "C" 
			},
			{
				"x": -2.3412791477,
				"y": 0.0864971687,
				"z": 4.1507454078,
				"element": "H" 
			},
			{
				"x": -1.8930887975,
				"y": 1.7134608533,
				"z": 4.238956354,
				"element": "H" 
			},
			{
				"x": -0.0858231783,
				"y": 2.6484444181,
				"z": 2.9102800735,
				"element": "H" 
			},
			{
				"x": 1.4683431427,
				"y": 2.3157354264,
				"z": 1.0094683639,
				"element": "H" 
			},
			{
				"x": 0.3294023772,
				"y": -1.8198618056,
				"z": 0.7855389887,
				"element": "H" 
			},
			{
				"x": -1.2287764348,
				"y": -1.5012916536,
				"z": 2.6853598128,
				"element": "H" 
			},
			{
				"x": 0.489062568,
				"y": -1.6367819084,
				"z": -2.2803375731,
				"element": "H" 
			},
			{
				"x": -0.7901508134,
				"y": -0.5210702359,
				"z": -1.719235303,
				"element": "H" 
			},
			{
				"x": -1.1956960777,
				"y": -1.0157819819,
				"z": -4.0870454243,
				"element": "H" 
			},
			{
				"x": 0.4913635673,
				"y": -0.6071381915,
				"z": -4.5047977944,
				"element": "H" 
			},
			{
				"x": 1.1263563543,
				"y": 1.718551802,
				"z": -4.381009561,
				"element": "H" 
			},
			{
				"x": -0.131400949,
				"y": 2.8822649149,
				"z": -3.8795355748,
				"element": "H" 
			},
			{
				"x": 1.5861948846,
				"y": 2.3816547521,
				"z": -2.0664516584,
				"element": "H" 
			},
			{
				"x": -0.0966455453,
				"y": 2.0190061715,
				"z": -1.5840879158,
				"element": "H" 
			}
		],
		 "valence_orbital": [ 
			{
				"type": "occ",
				"energy": -0.29254,
				"method": "rhf"
			},
			{
				"type": "occ",
				"energy": -0.27196,
				"method": "rhf"
			},
			{
				"type": "occ",
				"energy": -0.26819,
				"method": "rhf"
			},
			{
				"type": "occ",
				"energy": -0.2494,
				"method": "rhf"
			},
			{
				"type": "occ",
				"energy": -0.2217,
				"method": "rhf"
			},
			{
				"type": "unocc",
				"energy": -0.02079,
				"method": "rhf"
			},
			{
				"type": "unocc",
				"energy": -0.01818,
				"method": "rhf"
			},
			{
				"type": "unocc",
				"energy": 0.057,
				"method": "rhf"
			},
			{
				"type": "unocc",
				"energy": 0.0702,
				"method": "rhf"
			},
			{
				"type": "unocc",
				"energy": 0.09342,
				"method": "rhf"
			}
		],
		"cosmo_sigma_profile": { 
			"-0.025": 0.0,
			"-0.024": 0.0,
			"-0.023": 0.0,
			"-0.022": 0.0,
			"-0.021": 0.0,
			"-0.02": 0.0,
			"-0.019": 0.0,
			"-0.018": 0.0,
			"-0.017": 0.0,
			"-0.016": 0.0,
			"-0.015": 0.0,
			"-0.014": 0.207178727439,
			"-0.013": 2.81198582331,
			"-0.012": 2.76684701169,
			"-0.011": 3.18918246519,
			"-0.01": 3.18089291049,
			"-0.009": 3.75187094081,
			"-0.008": 2.66467108982,
			"-0.007": 5.04498026431,
			"-0.006": 14.4637527377,
			"-0.005": 20.8950107971,
			"-0.004": 29.6822647109,
			"-0.003": 24.5189444421,
			"-0.002": 17.3994848737,
			"-0.001": 10.8370606417,
			"0.0": 9.72114989025,
			"0.001": 9.58001064689,
			"0.002": 12.4517463903,
			"0.003": 13.9577516624,
			"0.004": 16.9452958548,
			"0.005": 6.09478328265,
			"0.006": 6.15893477524,
			"0.007": 6.69326798612,
			"0.008": 7.1097846653,
			"0.009": 5.40860583832,
			"0.01": 6.09311813258,
			"0.011": 9.86283115517,
			"0.012": 8.50131926394,
			"0.013": 1.72902303607,
			"0.014": 0.0145621727983,
			"0.015": 0.0,
			"0.016": 0.0,
			"0.017": 0.0,
			"0.018": 0.0,
			"0.019": 0.0,
			"0.02": 0.0,
			"0.021": 0.0,
			"0.022": 0.0,
			"0.023": 0.0,
			"0.024": 0.0,
			"0.025": 0.0
		}
	}
}
