{
	 "smiles": "CCC(CC(O)=O)C1=CC=CC=C1", 
	 "Tm": 333.15, 
	 "num_atms": 27, 
	 "gaussian": { 
		 "optdone": 1, 
		 "sigma_profile": "yes", 
		 "theory": "DFT", 
		 "functional": "B3LYP", 
		 "basiset": "6-31G**", 
		 "properties": { 
			 "R2extent": 3331.8458, 
			 "electric_dipole_moment_norm": 1.19712048266, 
			 "electric_quadrupole_moment_norm": 7.43491228597, 
			 "total_energy": -578.083294954, 
			 "HOMO_LUMO_gap": 0.23791, 
			 "cosmo_polarized_energy": -9.75, 
			 "cosmo_cavitation_energy": 29.67, 
			 "cosmo_dispersion_energy": -20.89, 
			 "cosmo_repulsion_energy": 1.68, 
			 "cosmo_total_nonelectrostatic_energy": 10.46, 
			 "SMD_solvation_energy": 6.05 
		},
		"coords": [
			{
				"x": -2.3367905599,
				"y": -2.0047188192,
				"z": -0.8965634873,
				"element": "C" 
			},
			{
				"x": -0.9845953467,
				"y": -2.134332207,
				"z": -1.606160845,
				"element": "C" 
			},
			{
				"x": 0.1268715728,
				"y": -1.1496967959,
				"z": -1.1447472618,
				"element": "C" 
			},
			{
				"x": 0.5412549863,
				"y": -1.370735541,
				"z": 0.3204956272,
				"element": "C" 
			},
			{
				"x": 1.2910076812,
				"y": -2.6688032789,
				"z": 0.5370107252,
				"element": "C" 
			},
			{
				"x": 1.3692705762,
				"y": -2.9801991841,
				"z": 1.8543054806,
				"element": "O" 
			},
			{
				"x": 1.7977612765,
				"y": -3.358676062,
				"z": -0.3214939923,
				"element": "O" 
			},
			{
				"x": -0.2355213339,
				"y": 0.2990146265,
				"z": -1.4455269362,
				"element": "C" 
			},
			{
				"x": -0.8837648828,
				"y": 1.1321338522,
				"z": -0.52204168,
				"element": "C" 
			},
			{
				"x": -1.2224697135,
				"y": 2.4468034909,
				"z": -0.8519197752,
				"element": "C" 
			},
			{
				"x": -0.92043644,
				"y": 2.9555754631,
				"z": -2.1149545981,
				"element": "C" 
			},
			{
				"x": -0.2750625152,
				"y": 2.1388284833,
				"z": -3.0458573731,
				"element": "C" 
			},
			{
				"x": 0.0626133724,
				"y": 0.8281106885,
				"z": -2.7106346356,
				"element": "C" 
			},
			{
				"x": -2.7582377681,
				"y": -1.0013330554,
				"z": -1.0114116709,
				"element": "H" 
			},
			{
				"x": -2.2649927126,
				"y": -2.216902326,
				"z": 0.1760604501,
				"element": "H" 
			},
			{
				"x": -3.0545396287,
				"y": -2.7170092843,
				"z": -1.3161410718,
				"element": "H" 
			},
			{
				"x": -1.1322976868,
				"y": -1.9843616098,
				"z": -2.6823621307,
				"element": "H" 
			},
			{
				"x": -0.5987737097,
				"y": -3.1533962364,
				"z": -1.4896122191,
				"element": "H" 
			},
			{
				"x": 1.0086391449,
				"y": -1.3949512604,
				"z": -1.7478282224,
				"element": "H" 
			},
			{
				"x": 1.2114104077,
				"y": -0.5659885907,
				"z": 0.6501782849,
				"element": "H" 
			},
			{
				"x": -0.3059461624,
				"y": -1.3495293316,
				"z": 1.0125531666,
				"element": "H" 
			},
			{
				"x": 1.8913992273,
				"y": -3.798641382,
				"z": 1.9064024438,
				"element": "H" 
			},
			{
				"x": -1.1279671374,
				"y": 0.7592727738,
				"z": 0.4683400068,
				"element": "H" 
			},
			{
				"x": -1.722280337,
				"y": 3.0728134454,
				"z": -0.117764002,
				"element": "H" 
			},
			{
				"x": -1.1813841142,
				"y": 3.9784837362,
				"z": -2.3706845033,
				"element": "H" 
			},
			{
				"x": -0.0278426619,
				"y": 2.524569083,
				"z": -4.0310874126,
				"element": "H" 
			},
			{
				"x": 0.5720744656,
				"y": 0.2016693219,
				"z": -3.4394543678,
				"element": "H" 
			}
		],
		 "valence_orbital": [ 
			{
				"type": "occ",
				"energy": -0.32116,
				"method": "rhf"
			},
			{
				"type": "occ",
				"energy": -0.31525,
				"method": "rhf"
			},
			{
				"type": "occ",
				"energy": -0.27691,
				"method": "rhf"
			},
			{
				"type": "occ",
				"energy": -0.24789,
				"method": "rhf"
			},
			{
				"type": "occ",
				"energy": -0.24026,
				"method": "rhf"
			},
			{
				"type": "unocc",
				"energy": -0.00235,
				"method": "rhf"
			},
			{
				"type": "unocc",
				"energy": 0.0009,
				"method": "rhf"
			},
			{
				"type": "unocc",
				"energy": 0.01019,
				"method": "rhf"
			},
			{
				"type": "unocc",
				"energy": 0.07649,
				"method": "rhf"
			},
			{
				"type": "unocc",
				"energy": 0.08789,
				"method": "rhf"
			}
		],
		"cosmo_sigma_profile": { 
			"-0.025": 0.0,
			"-0.024": 0.0,
			"-0.023": 0.0,
			"-0.022": 0.0,
			"-0.021": 0.0,
			"-0.02": 0.0,
			"-0.019": 0.0,
			"-0.018": 0.419907906802,
			"-0.017": 1.06394534772,
			"-0.016": 1.06487723074,
			"-0.015": 0.493944652343,
			"-0.014": 0.711458637987,
			"-0.013": 0.984515009875,
			"-0.012": 0.658953178483,
			"-0.011": 0.171725455799,
			"-0.01": 0.928885174042,
			"-0.009": 0.509061962448,
			"-0.008": 0.733783078444,
			"-0.007": 1.66366244443,
			"-0.006": 7.27019713155,
			"-0.005": 15.2711020121,
			"-0.004": 18.4392174913,
			"-0.003": 20.4302978455,
			"-0.002": 22.2159289305,
			"-0.001": 21.7042353795,
			"0.0": 21.9390257615,
			"0.001": 21.9970783804,
			"0.002": 12.0950441244,
			"0.003": 10.3362399828,
			"0.004": 9.60688001364,
			"0.005": 10.4998992342,
			"0.006": 10.1644463737,
			"0.007": 5.65087570112,
			"0.008": 2.89959471234,
			"0.009": 2.81049744952,
			"0.01": 2.79702249789,
			"0.011": 2.97173041986,
			"0.012": 4.29510824281,
			"0.013": 0.299049481335,
			"0.014": 0.0,
			"0.015": 0.0,
			"0.016": 0.0,
			"0.017": 0.0,
			"0.018": 0.0,
			"0.019": 0.0,
			"0.02": 0.0,
			"0.021": 0.0,
			"0.022": 0.0,
			"0.023": 0.0,
			"0.024": 0.0,
			"0.025": 0.0
		}
	}
}
