{
	 "smiles": "COC1=CC2=C(C=C1OC)C(N(CC2)C(C)=O)C1=C(C=CC=C1)[N+]([O-])=O", 
	 "Tm": 406.15, 
	 "num_atms": 46, 
	 "gaussian": { 
		 "optdone": 1, 
		 "sigma_profile": "yes", 
		 "theory": "DFT", 
		 "functional": "B3LYP", 
		 "basiset": "6-31G**", 
		 "properties": { 
			 "R2extent": 9484.0652, 
			 "electric_dipole_moment_norm": 6.6158946553, 
			 "electric_quadrupole_moment_norm": 18.4486561605, 
			 "total_energy": -1221.57470614, 
			 "HOMO_LUMO_gap": 0.14507, 
			 "cosmo_polarized_energy": -21.23, 
			 "cosmo_cavitation_energy": 47.85, 
			 "cosmo_dispersion_energy": -32.08, 
			 "cosmo_repulsion_energy": 2.42, 
			 "cosmo_total_nonelectrostatic_energy": 18.18, 
			 "SMD_solvation_energy": 12.03 
		},
		"coords": [
			{
				"x": -4.6757030406,
				"y": 3.3615580274,
				"z": 0.7584733795,
				"element": "C" 
			},
			{
				"x": -3.3064897943,
				"y": 3.6985267453,
				"z": 0.9158847353,
				"element": "O" 
			},
			{
				"x": -2.3688367914,
				"y": 2.7517412365,
				"z": 0.6170769829,
				"element": "C" 
			},
			{
				"x": -2.6619175308,
				"y": 1.4537073816,
				"z": 0.1839782065,
				"element": "C" 
			},
			{
				"x": -1.6336947879,
				"y": 0.5579590718,
				"z": -0.1262922539,
				"element": "C" 
			},
			{
				"x": -0.2981114079,
				"y": 0.9557999302,
				"z": 0.0086155118,
				"element": "C" 
			},
			{
				"x": -0.0029707129,
				"y": 2.2429497513,
				"z": 0.4636033704,
				"element": "C" 
			},
			{
				"x": -1.0195596534,
				"y": 3.147097753,
				"z": 0.7632723752,
				"element": "C" 
			},
			{
				"x": -0.6813598655,
				"y": 4.4230604847,
				"z": 1.1392712111,
				"element": "O" 
			},
			{
				"x": -0.9806006076,
				"y": 4.7762147949,
				"z": 2.4926695987,
				"element": "C" 
			},
			{
				"x": 0.7630780913,
				"y": -0.0888239859,
				"z": -0.2857801275,
				"element": "C" 
			},
			{
				"x": 0.3624528304,
				"y": -1.3423769049,
				"z": 0.3760298026,
				"element": "N" 
			},
			{
				"x": -0.9780314025,
				"y": -1.8810975842,
				"z": 0.089765784,
				"element": "C" 
			},
			{
				"x": -1.8798093506,
				"y": -0.8454625863,
				"z": -0.6244516168,
				"element": "C" 
			},
			{
				"x": 1.1018383379,
				"y": -1.7381020896,
				"z": 1.481924038,
				"element": "C" 
			},
			{
				"x": 0.673143839,
				"y": -3.0280970806,
				"z": 2.1609911998,
				"element": "C" 
			},
			{
				"x": 2.0758726201,
				"y": -1.1053684603,
				"z": 1.8690247085,
				"element": "O" 
			},
			{
				"x": 1.0197350922,
				"y": -0.2888096811,
				"z": -1.7895422817,
				"element": "C" 
			},
			{
				"x": 1.5539281531,
				"y": -1.4658620599,
				"z": -2.3327343007,
				"element": "C" 
			},
			{
				"x": 1.732182628,
				"y": -1.6605097095,
				"z": -3.7008627456,
				"element": "C" 
			},
			{
				"x": 1.4248346581,
				"y": -0.6276537442,
				"z": -4.5823705336,
				"element": "C" 
			},
			{
				"x": 0.9245097127,
				"y": 0.5722876506,
				"z": -4.0775611938,
				"element": "C" 
			},
			{
				"x": 0.7156779166,
				"y": 0.727664188,
				"z": -2.707022559,
				"element": "C" 
			},
			{
				"x": 1.9911057526,
				"y": -2.5841324517,
				"z": -1.4738422306,
				"element": "N" 
			},
			{
				"x": 2.9637486885,
				"y": -2.3890859129,
				"z": -0.7536546803,
				"element": "O" 
			},
			{
				"x": 1.3897240539,
				"y": -3.6541895336,
				"z": -1.592274514,
				"element": "O" 
			},
			{
				"x": -5.2382817609,
				"y": 4.2560421432,
				"z": 1.0298219414,
				"element": "H" 
			},
			{
				"x": -4.90764727,
				"y": 3.090447573,
				"z": -0.2793554859,
				"element": "H" 
			},
			{
				"x": -4.9700793029,
				"y": 2.5358080571,
				"z": 1.4191941606,
				"element": "H" 
			},
			{
				"x": -3.6922874026,
				"y": 1.1333788036,
				"z": 0.07541828,
				"element": "H" 
			},
			{
				"x": 1.0240251742,
				"y": 2.5711115282,
				"z": 0.5944848848,
				"element": "H" 
			},
			{
				"x": -0.4686790012,
				"y": 4.1047857497,
				"z": 3.1940291266,
				"element": "H" 
			},
			{
				"x": -0.6056215055,
				"y": 5.7924433173,
				"z": 2.6304109731,
				"element": "H" 
			},
			{
				"x": -2.0573857832,
				"y": 4.7550378787,
				"z": 2.6847282455,
				"element": "H" 
			},
			{
				"x": 1.7049397645,
				"y": 0.1912920568,
				"z": 0.1952411056,
				"element": "H" 
			},
			{
				"x": -1.452152867,
				"y": -2.1596352202,
				"z": 1.0343201067,
				"element": "H" 
			},
			{
				"x": -0.9019728321,
				"y": -2.7877489861,
				"z": -0.523652923,
				"element": "H" 
			},
			{
				"x": -2.9254624415,
				"y": -1.139254699,
				"z": -0.4892136204,
				"element": "H" 
			},
			{
				"x": -1.6830959914,
				"y": -0.884941691,
				"z": -1.7027778021,
				"element": "H" 
			},
			{
				"x": -0.2503705531,
				"y": -2.8919454613,
				"z": 2.7348254677,
				"element": "H" 
			},
			{
				"x": 1.4687646639,
				"y": -3.3143760671,
				"z": 2.8480515162,
				"element": "H" 
			},
			{
				"x": 0.5077957217,
				"y": -3.8298919455,
				"z": 1.435521683,
				"element": "H" 
			},
			{
				"x": 2.1186610865,
				"y": -2.6099012853,
				"z": -4.0555162004,
				"element": "H" 
			},
			{
				"x": 1.5738273372,
				"y": -0.7625571963,
				"z": -5.6489002918,
				"element": "H" 
			},
			{
				"x": 0.6808269116,
				"y": 1.388343265,
				"z": -4.7511392891,
				"element": "H" 
			},
			{
				"x": 0.2946486227,
				"y": 1.6541669485,
				"z": -2.3324837453,
				"element": "H" 
			}
		],
		 "valence_orbital": [ 
			{
				"type": "occ",
				"energy": -0.26108,
				"method": "rhf"
			},
			{
				"type": "occ",
				"energy": -0.24854,
				"method": "rhf"
			},
			{
				"type": "occ",
				"energy": -0.24177,
				"method": "rhf"
			},
			{
				"type": "occ",
				"energy": -0.23449,
				"method": "rhf"
			},
			{
				"type": "occ",
				"energy": -0.21504,
				"method": "rhf"
			},
			{
				"type": "unocc",
				"energy": -0.06997,
				"method": "rhf"
			},
			{
				"type": "unocc",
				"energy": -0.02216,
				"method": "rhf"
			},
			{
				"type": "unocc",
				"energy": -0.02042,
				"method": "rhf"
			},
			{
				"type": "unocc",
				"energy": -0.00431,
				"method": "rhf"
			},
			{
				"type": "unocc",
				"energy": 0.00124,
				"method": "rhf"
			}
		],
		"cosmo_sigma_profile": { 
			"-0.025": 0.0,
			"-0.024": 0.0,
			"-0.023": 0.0,
			"-0.022": 0.0,
			"-0.021": 0.0,
			"-0.02": 0.0,
			"-0.019": 0.0,
			"-0.018": 0.0,
			"-0.017": 0.0,
			"-0.016": 0.0,
			"-0.015": 0.0,
			"-0.014": 0.0,
			"-0.013": 0.0,
			"-0.012": 0.0,
			"-0.011": 0.0,
			"-0.01": 0.0,
			"-0.009": 0.478176541596,
			"-0.008": 3.15005294528,
			"-0.007": 10.3507880032,
			"-0.006": 21.8127186535,
			"-0.005": 33.4811175129,
			"-0.004": 37.4422120669,
			"-0.003": 39.0869314097,
			"-0.002": 36.3013466524,
			"-0.001": 26.8806128326,
			"0.0": 22.6462647322,
			"0.001": 21.2161780879,
			"0.002": 22.2920205148,
			"0.003": 22.7048238445,
			"0.004": 14.6277149026,
			"0.005": 9.01755729951,
			"0.006": 6.55365060086,
			"0.007": 10.554248672,
			"0.008": 10.3101977879,
			"0.009": 8.27655298329,
			"0.01": 5.10513842447,
			"0.011": 4.95116559155,
			"0.012": 4.0816407029,
			"0.013": 4.5621742067,
			"0.014": 2.7193132448,
			"0.015": 0.448362303929,
			"0.016": 0.0,
			"0.017": 0.0,
			"0.018": 0.0,
			"0.019": 0.0,
			"0.02": 0.0,
			"0.021": 0.0,
			"0.022": 0.0,
			"0.023": 0.0,
			"0.024": 0.0,
			"0.025": 0.0
		}
	}
}
