{
	 "smiles": "CC1=CC=C(O1)C(C1=CC=C(C)O1)C1=C(O)C(=CC(C)=C1)[N+]([O-])=O", 
	 "Tm": 366.15, 
	 "num_atms": 41, 
	 "gaussian": { 
		 "optdone": 1, 
		 "sigma_profile": "yes", 
		 "theory": "DFT", 
		 "functional": "B3LYP", 
		 "basiset": "6-31G**", 
		 "properties": { 
			 "R2extent": 8482.5313, 
			 "electric_dipole_moment_norm": 4.5962860159, 
			 "electric_quadrupole_moment_norm": 20.5771656882, 
			 "total_energy": -1126.91507995, 
			 "HOMO_LUMO_gap": 0.11243, 
			 "cosmo_polarized_energy": -11.56, 
			 "cosmo_cavitation_energy": 46.04, 
			 "cosmo_dispersion_energy": -30.58, 
			 "cosmo_repulsion_energy": 2.4, 
			 "cosmo_total_nonelectrostatic_energy": 17.86, 
			 "SMD_solvation_energy": 11.14 
		},
		"coords": [
			{
				"x": -2.5881603651,
				"y": 2.7673465353,
				"z": 2.4928320829,
				"element": "C" 
			},
			{
				"x": -2.7022783921,
				"y": 2.1556707773,
				"z": 1.1408727057,
				"element": "C" 
			},
			{
				"x": -3.7367588948,
				"y": 1.9707069677,
				"z": 0.2723653649,
				"element": "C" 
			},
			{
				"x": -3.194021785,
				"y": 1.3112063467,
				"z": -0.8802867922,
				"element": "C" 
			},
			{
				"x": -1.8640675955,
				"y": 1.1405225421,
				"z": -0.6381063344,
				"element": "C" 
			},
			{
				"x": -1.5504275583,
				"y": 1.6503124881,
				"z": 0.5942235437,
				"element": "O" 
			},
			{
				"x": -0.7562831804,
				"y": 0.5185784874,
				"z": -1.4462814033,
				"element": "C" 
			},
			{
				"x": 0.2583240215,
				"y": 1.515525932,
				"z": -1.9374104918,
				"element": "C" 
			},
			{
				"x": 0.6691719042,
				"y": 1.8544402224,
				"z": -3.1916592739,
				"element": "C" 
			},
			{
				"x": 1.6662425428,
				"y": 2.8739337966,
				"z": -3.03497873,
				"element": "C" 
			},
			{
				"x": 1.7977715895,
				"y": 3.0909192831,
				"z": -1.6958985792,
				"element": "C" 
			},
			{
				"x": 2.639525632,
				"y": 4.0046593559,
				"z": -0.8765397777,
				"element": "C" 
			},
			{
				"x": 0.940285701,
				"y": 2.2651547607,
				"z": -1.0131618047,
				"element": "O" 
			},
			{
				"x": -0.1289207078,
				"y": -0.6808440934,
				"z": -0.7239080562,
				"element": "C" 
			},
			{
				"x": -0.454263183,
				"y": -1.9852422337,
				"z": -1.1652143591,
				"element": "C" 
			},
			{
				"x": -1.2865873324,
				"y": -2.1234570462,
				"z": -2.2057925834,
				"element": "O" 
			},
			{
				"x": 0.1222048058,
				"y": -3.082381711,
				"z": -0.481059783,
				"element": "C" 
			},
			{
				"x": 0.9881737982,
				"y": -2.8974746732,
				"z": 0.6092921304,
				"element": "C" 
			},
			{
				"x": 1.3023305657,
				"y": -1.6214766976,
				"z": 1.0431193209,
				"element": "C" 
			},
			{
				"x": 2.2291788397,
				"y": -1.3885352629,
				"z": 2.2122032716,
				"element": "C" 
			},
			{
				"x": 0.7290785737,
				"y": -0.5288693446,
				"z": 0.3573845287,
				"element": "C" 
			},
			{
				"x": -0.1682569919,
				"y": -4.4363744156,
				"z": -0.8902260804,
				"element": "N" 
			},
			{
				"x": 0.3408888346,
				"y": -5.3719277013,
				"z": -0.2833365083,
				"element": "O" 
			},
			{
				"x": -0.9412472756,
				"y": -4.6138735472,
				"z": -1.8654794609,
				"element": "O" 
			},
			{
				"x": -3.5657163362,
				"y": 3.1309813659,
				"z": 2.8179207962,
				"element": "H" 
			},
			{
				"x": -1.8903388293,
				"y": 3.6128802428,
				"z": 2.4946333274,
				"element": "H" 
			},
			{
				"x": -2.2288113698,
				"y": 2.0437075011,
				"z": 3.2339328271,
				"element": "H" 
			},
			{
				"x": -4.7636582931,
				"y": 2.2666862611,
				"z": 0.4339906176,
				"element": "H" 
			},
			{
				"x": -3.7238489061,
				"y": 1.0023484691,
				"z": -1.7701680342,
				"element": "H" 
			},
			{
				"x": -1.2375933802,
				"y": 0.1303646794,
				"z": -2.3463442271,
				"element": "H" 
			},
			{
				"x": 0.3061302858,
				"y": 1.4293523252,
				"z": -4.116726534,
				"element": "H" 
			},
			{
				"x": 2.2114329749,
				"y": 3.3818608781,
				"z": -3.8179208832,
				"element": "H" 
			},
			{
				"x": 2.0260805219,
				"y": 4.680670537,
				"z": -0.2695679616,
				"element": "H" 
			},
			{
				"x": 3.2710001216,
				"y": 4.6108830403,
				"z": -1.5301603122,
				"element": "H" 
			},
			{
				"x": 3.2911411296,
				"y": 3.4490794429,
				"z": -0.1917325552,
				"element": "H" 
			},
			{
				"x": -1.3759428377,
				"y": -3.0992093254,
				"z": -2.3533670379,
				"element": "H" 
			},
			{
				"x": 1.3953128375,
				"y": -3.778057229,
				"z": 1.0910334866,
				"element": "H" 
			},
			{
				"x": 1.7290837286,
				"y": -0.8293510004,
				"z": 3.0111413166,
				"element": "H" 
			},
			{
				"x": 2.5814412941,
				"y": -2.3331446763,
				"z": 2.6345350213,
				"element": "H" 
			},
			{
				"x": 3.1083686248,
				"y": -0.8063084368,
				"z": 1.9133614566,
				"element": "H" 
			},
			{
				"x": 0.9661148867,
				"y": 0.4791351563,
				"z": 0.6820857659,
				"element": "H" 
			}
		],
		 "valence_orbital": [ 
			{
				"type": "occ",
				"energy": -0.27335,
				"method": "rhf"
			},
			{
				"type": "occ",
				"energy": -0.26944,
				"method": "rhf"
			},
			{
				"type": "occ",
				"energy": -0.23549,
				"method": "rhf"
			},
			{
				"type": "occ",
				"energy": -0.21842,
				"method": "rhf"
			},
			{
				"type": "occ",
				"energy": -0.20566,
				"method": "rhf"
			},
			{
				"type": "unocc",
				"energy": -0.09323,
				"method": "rhf"
			},
			{
				"type": "unocc",
				"energy": -0.01124,
				"method": "rhf"
			},
			{
				"type": "unocc",
				"energy": 0.00207,
				"method": "rhf"
			},
			{
				"type": "unocc",
				"energy": 0.00852,
				"method": "rhf"
			},
			{
				"type": "unocc",
				"energy": 0.03256,
				"method": "rhf"
			}
		],
		"cosmo_sigma_profile": { 
			"-0.025": 0.0,
			"-0.024": 0.0,
			"-0.023": 0.0,
			"-0.022": 0.0,
			"-0.021": 0.0,
			"-0.02": 0.0,
			"-0.019": 0.0,
			"-0.018": 0.0,
			"-0.017": 0.0,
			"-0.016": 0.0,
			"-0.015": 0.0,
			"-0.014": 0.0,
			"-0.013": 0.0,
			"-0.012": 0.0,
			"-0.011": 0.0,
			"-0.01": 0.172449211944,
			"-0.009": 0.445979945041,
			"-0.008": 0.647851795377,
			"-0.007": 5.65773691301,
			"-0.006": 15.4799499852,
			"-0.005": 25.7988511332,
			"-0.004": 34.4213311551,
			"-0.003": 30.9256883236,
			"-0.002": 31.3178970222,
			"-0.001": 38.5031091622,
			"0.0": 34.9384923464,
			"0.001": 22.7876246576,
			"0.002": 24.9517122843,
			"0.003": 23.4155752166,
			"0.004": 18.5901346112,
			"0.005": 17.9332953715,
			"0.006": 15.9484054746,
			"0.007": 10.9355489075,
			"0.008": 6.92309837067,
			"0.009": 4.8503425862,
			"0.01": 2.62318338614,
			"0.011": 0.0502063985641,
			"0.012": 0.0,
			"0.013": 0.0,
			"0.014": 0.0,
			"0.015": 0.0,
			"0.016": 0.0,
			"0.017": 0.0,
			"0.018": 0.0,
			"0.019": 0.0,
			"0.02": 0.0,
			"0.021": 0.0,
			"0.022": 0.0,
			"0.023": 0.0,
			"0.024": 0.0,
			"0.025": 0.0
		}
	}
}
