{
	 "smiles": "COC1=CC=C(C=C1)C1=NNC(NN=C2C(=O)NC3=C(C=CC=C3)N=C2C(F)(F)F)=C1", 
	 "Tm": 427.15, 
	 "num_atms": 46, 
	 "gaussian": { 
		 "optdone": 1, 
		 "sigma_profile": "yes", 
		 "theory": "DFT", 
		 "functional": "B3LYP", 
		 "basiset": "6-31G**", 
		 "properties": { 
			 "R2extent": 15213.3075, 
			 "electric_dipole_moment_norm": 5.69957547981, 
			 "electric_quadrupole_moment_norm": 22.7165436453, 
			 "total_energy": -1549.56124922, 
			 "HOMO_LUMO_gap": 0.13009, 
			 "cosmo_polarized_energy": -25.59, 
			 "cosmo_cavitation_energy": 52.91, 
			 "cosmo_dispersion_energy": -34.4, 
			 "cosmo_repulsion_energy": 2.52, 
			 "cosmo_total_nonelectrostatic_energy": 21.02, 
			 "SMD_solvation_energy": 8.19 
		},
		"coords": [
			{
				"x": 2.5798172078,
				"y": -4.5628440499,
				"z": -3.2460303404,
				"element": "C" 
			},
			{
				"x": 1.3624105184,
				"y": -3.9544633715,
				"z": -3.6447905532,
				"element": "O" 
			},
			{
				"x": 0.6725804207,
				"y": -3.2236122937,
				"z": -2.7219793394,
				"element": "C" 
			},
			{
				"x": 1.0795707027,
				"y": -3.0195861284,
				"z": -1.3988750113,
				"element": "C" 
			},
			{
				"x": 0.2870910024,
				"y": -2.2503361946,
				"z": -0.5438700267,
				"element": "C" 
			},
			{
				"x": -0.9122037975,
				"y": -1.6735720812,
				"z": -0.9762390205,
				"element": "C" 
			},
			{
				"x": -1.3045422415,
				"y": -1.8890913135,
				"z": -2.3118256247,
				"element": "C" 
			},
			{
				"x": -0.5281325654,
				"y": -2.6497228443,
				"z": -3.170764555,
				"element": "C" 
			},
			{
				"x": -1.7461035886,
				"y": -0.8637155176,
				"z": -0.0744471291,
				"element": "C" 
			},
			{
				"x": -2.8970553352,
				"y": -0.3230604656,
				"z": -0.5083889608,
				"element": "N" 
			},
			{
				"x": -3.3951009296,
				"y": 0.3377091669,
				"z": 0.5449798881,
				"element": "N" 
			},
			{
				"x": -2.5978036266,
				"y": 0.2548618296,
				"z": 1.6477025188,
				"element": "C" 
			},
			{
				"x": -2.9635753898,
				"y": 0.8384851482,
				"z": 2.8847345835,
				"element": "N" 
			},
			{
				"x": -2.3203087898,
				"y": 1.8924523319,
				"z": 3.4529284719,
				"element": "N" 
			},
			{
				"x": -1.7482873802,
				"y": 2.8186421356,
				"z": 2.7668409223,
				"element": "C" 
			},
			{
				"x": -1.0366323082,
				"y": 3.8614437398,
				"z": 3.5936088724,
				"element": "C" 
			},
			{
				"x": -1.5093095603,
				"y": 4.4142001946,
				"z": 4.5665391542,
				"element": "O" 
			},
			{
				"x": 0.2409379454,
				"y": 4.1637202374,
				"z": 3.1324202678,
				"element": "N" 
			},
			{
				"x": 1.0667799257,
				"y": 3.4074553705,
				"z": 2.2763623236,
				"element": "C" 
			},
			{
				"x": 0.6087699626,
				"y": 2.8759460138,
				"z": 1.0436964824,
				"element": "C" 
			},
			{
				"x": 1.5228961147,
				"y": 2.2100849972,
				"z": 0.2061029681,
				"element": "C" 
			},
			{
				"x": 2.8493406689,
				"y": 2.0420426338,
				"z": 0.5753111369,
				"element": "C" 
			},
			{
				"x": 3.3026536069,
				"y": 2.5837181862,
				"z": 1.7841761276,
				"element": "C" 
			},
			{
				"x": 2.4212949794,
				"y": 3.2615938573,
				"z": 2.6172255967,
				"element": "C" 
			},
			{
				"x": -0.6775016996,
				"y": 3.0752038784,
				"z": 0.5429774986,
				"element": "N" 
			},
			{
				"x": -1.7125590371,
				"y": 3.0525868138,
				"z": 1.2911970406,
				"element": "C" 
			},
			{
				"x": -3.0060906106,
				"y": 3.5409568823,
				"z": 0.6378379813,
				"element": "C" 
			},
			{
				"x": -3.0731786493,
				"y": 3.2358396065,
				"z": -0.6610215767,
				"element": "F" 
			},
			{
				"x": -4.1057221047,
				"y": 3.0167708266,
				"z": 1.2430492335,
				"element": "F" 
			},
			{
				"x": -3.0983163892,
				"y": 4.8798097161,
				"z": 0.7651657039,
				"element": "F" 
			},
			{
				"x": -1.5182439289,
				"y": -0.5306789931,
				"z": 1.2867851123,
				"element": "C" 
			},
			{
				"x": 2.4259853094,
				"y": -5.2823686837,
				"z": -2.4313101114,
				"element": "H" 
			},
			{
				"x": 3.3212650664,
				"y": -3.817668496,
				"z": -2.9293131684,
				"element": "H" 
			},
			{
				"x": 2.9555142481,
				"y": -5.0907276911,
				"z": -4.123927024,
				"element": "H" 
			},
			{
				"x": 2.0006151547,
				"y": -3.4498746483,
				"z": -1.0239883004,
				"element": "H" 
			},
			{
				"x": 0.6217211337,
				"y": -2.1050263004,
				"z": 0.4791022348,
				"element": "H" 
			},
			{
				"x": -2.2308735161,
				"y": -1.4474750147,
				"z": -2.662831937,
				"element": "H" 
			},
			{
				"x": -0.8279469324,
				"y": -2.8175336415,
				"z": -4.2001244494,
				"element": "H" 
			},
			{
				"x": -4.2429334657,
				"y": 0.8779384168,
				"z": 0.4570258518,
				"element": "H" 
			},
			{
				"x": -3.1867887567,
				"y": 0.1683295309,
				"z": 3.6093698637,
				"element": "H" 
			},
			{
				"x": 0.717507543,
				"y": 4.8057207174,
				"z": 3.7556274973,
				"element": "H" 
			},
			{
				"x": 1.1479886097,
				"y": 1.8336976666,
				"z": -0.7397469201,
				"element": "H" 
			},
			{
				"x": 3.5330616269,
				"y": 1.5126349423,
				"z": -0.0804653853,
				"element": "H" 
			},
			{
				"x": 4.3430852885,
				"y": 2.4797550942,
				"z": 2.0764606005,
				"element": "H" 
			},
			{
				"x": 2.7710475142,
				"y": 3.6799731039,
				"z": 3.5574212359,
				"element": "H" 
			},
			{
				"x": -0.6908239473,
				"y": -0.8087153093,
				"z": 1.9212902654,
				"element": "H" 
			}
		],
		 "valence_orbital": [ 
			{
				"type": "occ",
				"energy": -0.25914,
				"method": "rhf"
			},
			{
				"type": "occ",
				"energy": -0.25085,
				"method": "rhf"
			},
			{
				"type": "occ",
				"energy": -0.24299,
				"method": "rhf"
			},
			{
				"type": "occ",
				"energy": -0.23338,
				"method": "rhf"
			},
			{
				"type": "occ",
				"energy": -0.20646,
				"method": "rhf"
			},
			{
				"type": "unocc",
				"energy": -0.07637,
				"method": "rhf"
			},
			{
				"type": "unocc",
				"energy": -0.03981,
				"method": "rhf"
			},
			{
				"type": "unocc",
				"energy": -0.0212,
				"method": "rhf"
			},
			{
				"type": "unocc",
				"energy": -0.01775,
				"method": "rhf"
			},
			{
				"type": "unocc",
				"energy": -0.0052,
				"method": "rhf"
			}
		],
		"cosmo_sigma_profile": { 
			"-0.025": 0.0,
			"-0.024": 0.0,
			"-0.023": 0.0,
			"-0.022": 0.0,
			"-0.021": 0.0,
			"-0.02": 0.0,
			"-0.019": 0.0,
			"-0.018": 0.0,
			"-0.017": 0.0,
			"-0.016": 1.20665196211,
			"-0.015": 3.23983198814,
			"-0.014": 2.88822091852,
			"-0.013": 2.461902546,
			"-0.012": 3.1009859434,
			"-0.011": 3.29468650152,
			"-0.01": 2.75911541341,
			"-0.009": 3.76895031792,
			"-0.008": 6.86898474122,
			"-0.007": 8.37664746838,
			"-0.006": 19.746218329,
			"-0.005": 29.0550917645,
			"-0.004": 27.5049131038,
			"-0.003": 25.8573570429,
			"-0.002": 23.4231928367,
			"-0.001": 21.7306763884,
			"0.0": 25.0193354355,
			"0.001": 33.1155598142,
			"0.002": 47.641686511,
			"0.003": 34.0927156643,
			"0.004": 31.0742305776,
			"0.005": 19.0056375403,
			"0.006": 8.64105686408,
			"0.007": 5.96828584229,
			"0.008": 5.61314104096,
			"0.009": 5.60513612792,
			"0.01": 5.60000975575,
			"0.011": 6.69459235297,
			"0.012": 7.72049698359,
			"0.013": 3.38043963651,
			"0.014": 0.162172414187,
			"0.015": 0.0,
			"0.016": 0.0,
			"0.017": 0.0,
			"0.018": 0.0,
			"0.019": 0.0,
			"0.02": 0.0,
			"0.021": 0.0,
			"0.022": 0.0,
			"0.023": 0.0,
			"0.024": 0.0,
			"0.025": 0.0
		}
	}
}
