{
	 "smiles": "CC(=CC(O)=O)C(C)(C)C", 
	 "Tm": 357.15, 
	 "num_atms": 24, 
	 "gaussian": { 
		 "optdone": 1, 
		 "sigma_profile": "yes", 
		 "theory": "DFT", 
		 "functional": "B3LYP", 
		 "basiset": "6-31G**", 
		 "properties": { 
			 "R2extent": 2392.3602, 
			 "electric_dipole_moment_norm": 5.34065346095, 
			 "electric_quadrupole_moment_norm": 19.8422810279, 
			 "total_energy": -463.737665362, 
			 "HOMO_LUMO_gap": 0.22196, 
			 "cosmo_polarized_energy": -13.11, 
			 "cosmo_cavitation_energy": 25.6, 
			 "cosmo_dispersion_energy": -18.14, 
			 "cosmo_repulsion_energy": 1.46, 
			 "cosmo_total_nonelectrostatic_energy": 8.93, 
			 "SMD_solvation_energy": 5.92 
		},
		"coords": [
			{
				"x": -0.0814492652,
				"y": -0.1554914894,
				"z": 2.3229714393,
				"element": "C" 
			},
			{
				"x": -0.1327155385,
				"y": -0.8754445399,
				"z": 0.9883589472,
				"element": "C" 
			},
			{
				"x": -1.0177604943,
				"y": -1.8580833091,
				"z": 0.7264999441,
				"element": "C" 
			},
			{
				"x": -2.0977073938,
				"y": -2.3975453358,
				"z": 1.6019288224,
				"element": "C" 
			},
			{
				"x": -1.8287077955,
				"y": -2.554551483,
				"z": 2.9320555636,
				"element": "O" 
			},
			{
				"x": -3.1796797624,
				"y": -2.7196210242,
				"z": 1.1703196819,
				"element": "O" 
			},
			{
				"x": 0.8641890475,
				"y": -0.389590833,
				"z": -0.0816132306,
				"element": "C" 
			},
			{
				"x": 0.4558687215,
				"y": 1.0286137131,
				"z": -0.5542338082,
				"element": "C" 
			},
			{
				"x": 2.2875517982,
				"y": -0.3340507808,
				"z": 0.5257099145,
				"element": "C" 
			},
			{
				"x": 0.9091424094,
				"y": -1.3088350431,
				"z": -1.3171480475,
				"element": "C" 
			},
			{
				"x": 0.7535220049,
				"y": -0.5141017113,
				"z": 2.9395364884,
				"element": "H" 
			},
			{
				"x": -1.0022699017,
				"y": -0.2729324102,
				"z": 2.8956300696,
				"element": "H" 
			},
			{
				"x": 0.0846104913,
				"y": 0.9161908486,
				"z": 2.1850593872,
				"element": "H" 
			},
			{
				"x": -1.069673095,
				"y": -2.2898734691,
				"z": -0.2657839828,
				"element": "H" 
			},
			{
				"x": -0.8879667529,
				"y": -2.3975988004,
				"z": 3.0901479245,
				"element": "H" 
			},
			{
				"x": 1.1564477881,
				"y": 1.3828050847,
				"z": -1.3181415194,
				"element": "H" 
			},
			{
				"x": -0.547541226,
				"y": 1.0206451157,
				"z": -0.9911766172,
				"element": "H" 
			},
			{
				"x": 0.4649347268,
				"y": 1.7591892401,
				"z": 0.2599821303,
				"element": "H" 
			},
			{
				"x": 2.6067492921,
				"y": -1.3211575028,
				"z": 0.8778708752,
				"element": "H" 
			},
			{
				"x": 2.3545662906,
				"y": 0.3646351184,
				"z": 1.3642617398,
				"element": "H" 
			},
			{
				"x": 3.0032364405,
				"y": -0.0031758154,
				"z": -0.2339422109,
				"element": "H" 
			},
			{
				"x": 1.1619907215,
				"y": -2.3390398947,
				"z": -1.0469378184,
				"element": "H" 
			},
			{
				"x": -0.042364615,
				"y": -1.3192412171,
				"z": -1.8574422471,
				"element": "H" 
			},
			{
				"x": 1.6729261077,
				"y": -0.9482444614,
				"z": -2.0133134461,
				"element": "H" 
			}
		],
		 "valence_orbital": [ 
			{
				"type": "occ",
				"energy": -0.33959,
				"method": "rhf"
			},
			{
				"type": "occ",
				"energy": -0.33356,
				"method": "rhf"
			},
			{
				"type": "occ",
				"energy": -0.30905,
				"method": "rhf"
			},
			{
				"type": "occ",
				"energy": -0.27432,
				"method": "rhf"
			},
			{
				"type": "occ",
				"energy": -0.25607,
				"method": "rhf"
			},
			{
				"type": "unocc",
				"energy": -0.03411,
				"method": "rhf"
			},
			{
				"type": "unocc",
				"energy": 0.05147,
				"method": "rhf"
			},
			{
				"type": "unocc",
				"energy": 0.06838,
				"method": "rhf"
			},
			{
				"type": "unocc",
				"energy": 0.08631,
				"method": "rhf"
			},
			{
				"type": "unocc",
				"energy": 0.11552,
				"method": "rhf"
			}
		],
		"cosmo_sigma_profile": { 
			"-0.025": 0.0,
			"-0.024": 0.0,
			"-0.023": 0.0,
			"-0.022": 0.0,
			"-0.021": 0.0,
			"-0.02": 0.0,
			"-0.019": 0.0,
			"-0.018": 0.0128222341914,
			"-0.017": 0.416982786108,
			"-0.016": 0.827225224981,
			"-0.015": 1.18215400352,
			"-0.014": 0.513822287441,
			"-0.013": 0.639736137652,
			"-0.012": 0.407028516501,
			"-0.011": 1.73563427418,
			"-0.01": 1.0079874466,
			"-0.009": 0.618698910797,
			"-0.008": 1.16817676876,
			"-0.007": 1.58590625371,
			"-0.006": 2.08432271357,
			"-0.005": 7.48064222584,
			"-0.004": 11.59858414,
			"-0.003": 29.2721576542,
			"-0.002": 26.6167628642,
			"-0.001": 24.3596318447,
			"0.0": 22.8458448609,
			"0.001": 20.8438075388,
			"0.002": 6.36145213274,
			"0.003": 3.01239656248,
			"0.004": 2.173938449,
			"0.005": 2.04016791992,
			"0.006": 2.58394945536,
			"0.007": 1.94425694625,
			"0.008": 2.81461719323,
			"0.009": 2.65907471164,
			"0.01": 4.19364293531,
			"0.011": 5.11190368075,
			"0.012": 5.99506763978,
			"0.013": 4.29132019507,
			"0.014": 0.735594206931,
			"0.015": 0.0,
			"0.016": 0.0,
			"0.017": 0.0,
			"0.018": 0.0,
			"0.019": 0.0,
			"0.02": 0.0,
			"0.021": 0.0,
			"0.022": 0.0,
			"0.023": 0.0,
			"0.024": 0.0,
			"0.025": 0.0
		}
	}
}
