{
	 "smiles": "CCCOC(=O)C1=C(C)NC(C)=C(C1C1=CC=CC=C1)C(=O)OCCC", 
	 "Tm": 392.15, 
	 "num_atms": 53, 
	 "gaussian": { 
		 "optdone": 1, 
		 "sigma_profile": "yes", 
		 "theory": "DFT", 
		 "functional": "B3LYP", 
		 "basiset": "6-31G**", 
		 "properties": { 
			 "R2extent": 9423.3723, 
			 "electric_dipole_moment_norm": 1.23140138866, 
			 "electric_quadrupole_moment_norm": 20.4470319179, 
			 "total_energy": -1172.19621082, 
			 "HOMO_LUMO_gap": 0.15711, 
			 "cosmo_polarized_energy": -17.69, 
			 "cosmo_cavitation_energy": 54.03, 
			 "cosmo_dispersion_energy": -34.24, 
			 "cosmo_repulsion_energy": 2.69, 
			 "cosmo_total_nonelectrostatic_energy": 22.48, 
			 "SMD_solvation_energy": 10.6 
		},
		"coords": [
			{
				"x": 1.6514482261,
				"y": -1.0618620878,
				"z": 4.5754157348,
				"element": "C" 
			},
			{
				"x": 0.1388090708,
				"y": -1.2198632234,
				"z": 4.7551577101,
				"element": "C" 
			},
			{
				"x": -0.6858119035,
				"y": -0.2803652604,
				"z": 3.8786080188,
				"element": "C" 
			},
			{
				"x": -0.4237340733,
				"y": -0.4828242384,
				"z": 2.4728753559,
				"element": "O" 
			},
			{
				"x": -1.1586241438,
				"y": -1.4475504214,
				"z": 1.8513502979,
				"element": "C" 
			},
			{
				"x": -1.9903188997,
				"y": -2.116635321,
				"z": 2.4496842567,
				"element": "O" 
			},
			{
				"x": -0.8078080641,
				"y": -1.5682101744,
				"z": 0.4285518209,
				"element": "C" 
			},
			{
				"x": -1.372073062,
				"y": -2.5591661657,
				"z": -0.3183176079,
				"element": "C" 
			},
			{
				"x": -2.4286530558,
				"y": -3.5367872485,
				"z": 0.1269971536,
				"element": "C" 
			},
			{
				"x": -0.9327657802,
				"y": -2.7450181637,
				"z": -1.6197220163,
				"element": "N" 
			},
			{
				"x": 0.2300562402,
				"y": -2.1837475623,
				"z": -2.127868186,
				"element": "C" 
			},
			{
				"x": 0.7130891467,
				"y": -2.8141287154,
				"z": -3.4083075532,
				"element": "C" 
			},
			{
				"x": 0.8281712468,
				"y": -1.174530527,
				"z": -1.4347764767,
				"element": "C" 
			},
			{
				"x": 0.1518173064,
				"y": -0.5615196679,
				"z": -0.2114247875,
				"element": "C" 
			},
			{
				"x": -0.56758434,
				"y": 0.7572244727,
				"z": -0.5368957242,
				"element": "C" 
			},
			{
				"x": -0.400161019,
				"y": 1.8769041116,
				"z": 0.2885122356,
				"element": "C" 
			},
			{
				"x": -1.0683308546,
				"y": 3.0734008359,
				"z": 0.0206813308,
				"element": "C" 
			},
			{
				"x": -1.9197008713,
				"y": 3.169726463,
				"z": -1.0810762302,
				"element": "C" 
			},
			{
				"x": -2.0954231958,
				"y": 2.0607205799,
				"z": -1.9109977673,
				"element": "C" 
			},
			{
				"x": -1.4243597113,
				"y": 0.8676249958,
				"z": -1.6405663508,
				"element": "C" 
			},
			{
				"x": 2.127641323,
				"y": -0.6512299471,
				"z": -1.8888018614,
				"element": "C" 
			},
			{
				"x": 2.7642965074,
				"y": -1.0395789246,
				"z": -2.858831332,
				"element": "O" 
			},
			{
				"x": 2.5857361242,
				"y": 0.3399593012,
				"z": -1.0806119044,
				"element": "O" 
			},
			{
				"x": 3.8806685951,
				"y": 0.876496756,
				"z": -1.4245629146,
				"element": "C" 
			},
			{
				"x": 4.1757313279,
				"y": 2.0409131181,
				"z": -0.4906770231,
				"element": "C" 
			},
			{
				"x": 3.2497104116,
				"y": 3.2441273956,
				"z": -0.6943323156,
				"element": "C" 
			},
			{
				"x": 2.199296124,
				"y": -1.7602133581,
				"z": 5.2158408289,
				"element": "H" 
			},
			{
				"x": 1.9783299197,
				"y": -0.0473247157,
				"z": 4.8319108967,
				"element": "H" 
			},
			{
				"x": 1.9455785621,
				"y": -1.2533712946,
				"z": 3.5392480988,
				"element": "H" 
			},
			{
				"x": -0.1687557812,
				"y": -2.2493979517,
				"z": 4.5428665259,
				"element": "H" 
			},
			{
				"x": -0.1387977008,
				"y": -1.0204056755,
				"z": 5.7987937882,
				"element": "H" 
			},
			{
				"x": -0.4146827823,
				"y": 0.7645880028,
				"z": 4.0579510589,
				"element": "H" 
			},
			{
				"x": -1.7538230926,
				"y": -0.4173135516,
				"z": 4.0621038239,
				"element": "H" 
			},
			{
				"x": -2.7582037555,
				"y": -4.1582419167,
				"z": -0.7128318067,
				"element": "H" 
			},
			{
				"x": -3.2898010503,
				"y": -3.0187250791,
				"z": 0.550374351,
				"element": "H" 
			},
			{
				"x": -2.0495915705,
				"y": -4.1880853623,
				"z": 0.9188393052,
				"element": "H" 
			},
			{
				"x": -1.3370296784,
				"y": -3.5109920198,
				"z": -2.136344462,
				"element": "H" 
			},
			{
				"x": -0.062859737,
				"y": -3.4589971362,
				"z": -3.8356112089,
				"element": "H" 
			},
			{
				"x": 0.9968224506,
				"y": -2.0569727784,
				"z": -4.1387047037,
				"element": "H" 
			},
			{
				"x": 1.6091983094,
				"y": -3.4162548584,
				"z": -3.2323204089,
				"element": "H" 
			},
			{
				"x": 0.9264983492,
				"y": -0.3207367634,
				"z": 0.517757986,
				"element": "H" 
			},
			{
				"x": 0.2545938916,
				"y": 1.8023194552,
				"z": 1.151274293,
				"element": "H" 
			},
			{
				"x": -0.9219443917,
				"y": 3.930534099,
				"z": 0.6725853196,
				"element": "H" 
			},
			{
				"x": -2.4395887742,
				"y": 4.0999160713,
				"z": -1.2924649577,
				"element": "H" 
			},
			{
				"x": -2.7541046278,
				"y": 2.1252665113,
				"z": -2.773019126,
				"element": "H" 
			},
			{
				"x": -1.5641561743,
				"y": 0.0154098221,
				"z": -2.2990956609,
				"element": "H" 
			},
			{
				"x": 4.6273810363,
				"y": 0.0806202093,
				"z": -1.328205491,
				"element": "H" 
			},
			{
				"x": 3.8692095353,
				"y": 1.1893862338,
				"z": -2.473991082,
				"element": "H" 
			},
			{
				"x": 4.1159432097,
				"y": 1.6860351225,
				"z": 0.5456037925,
				"element": "H" 
			},
			{
				"x": 5.2192510619,
				"y": 2.3374746132,
				"z": -0.6582869278,
				"element": "H" 
			},
			{
				"x": 2.2037971231,
				"y": 2.9666681276,
				"z": -0.5388445476,
				"element": "H" 
			},
			{
				"x": 3.342029136,
				"y": 3.6419637163,
				"z": -1.7115128511,
				"element": "H" 
			},
			{
				"x": 3.4961838557,
				"y": 4.0517700963,
				"z": 0.0024193017,
				"element": "H" 
			}
		],
		 "valence_orbital": [ 
			{
				"type": "occ",
				"energy": -0.26177,
				"method": "rhf"
			},
			{
				"type": "occ",
				"energy": -0.24948,
				"method": "rhf"
			},
			{
				"type": "occ",
				"energy": -0.23893,
				"method": "rhf"
			},
			{
				"type": "occ",
				"energy": -0.23031,
				"method": "rhf"
			},
			{
				"type": "occ",
				"energy": -0.20317,
				"method": "rhf"
			},
			{
				"type": "unocc",
				"energy": -0.04606,
				"method": "rhf"
			},
			{
				"type": "unocc",
				"energy": 0.00522,
				"method": "rhf"
			},
			{
				"type": "unocc",
				"energy": 0.00946,
				"method": "rhf"
			},
			{
				"type": "unocc",
				"energy": 0.01189,
				"method": "rhf"
			},
			{
				"type": "unocc",
				"energy": 0.06103,
				"method": "rhf"
			}
		],
		"cosmo_sigma_profile": { 
			"-0.025": 0.0,
			"-0.024": 0.0,
			"-0.023": 0.0,
			"-0.022": 0.0,
			"-0.021": 0.0,
			"-0.02": 0.0,
			"-0.019": 0.0,
			"-0.018": 0.0,
			"-0.017": 0.0,
			"-0.016": 0.0983084628874,
			"-0.015": 1.26233714271,
			"-0.014": 1.64125086434,
			"-0.013": 0.993635406169,
			"-0.012": 1.6939913713,
			"-0.011": 1.56653130209,
			"-0.01": 1.54154856829,
			"-0.009": 1.46932915377,
			"-0.008": 1.71518056587,
			"-0.007": 1.66002582045,
			"-0.006": 3.69406548131,
			"-0.005": 15.2078989438,
			"-0.004": 29.87935952,
			"-0.003": 50.9707513591,
			"-0.002": 50.1391371008,
			"-0.001": 50.1695278043,
			"0.0": 45.1379985764,
			"0.001": 39.9467833412,
			"0.002": 32.5431384016,
			"0.003": 19.4417932197,
			"0.004": 15.6172466769,
			"0.005": 15.9521734071,
			"0.006": 13.6039066898,
			"0.007": 6.17993659432,
			"0.008": 3.17353136456,
			"0.009": 2.73905630039,
			"0.01": 3.55991493653,
			"0.011": 2.68352453036,
			"0.012": 4.28056195842,
			"0.013": 5.13191463169,
			"0.014": 0.621337996908,
			"0.015": 0.0,
			"0.016": 0.0,
			"0.017": 0.0,
			"0.018": 0.0,
			"0.019": 0.0,
			"0.02": 0.0,
			"0.021": 0.0,
			"0.022": 0.0,
			"0.023": 0.0,
			"0.024": 0.0,
			"0.025": 0.0
		}
	}
}
