{
	 "smiles": "CC1=CC=C(C=C1)S(=O)(=O)NN=CC1=COC(C=CC2=CC=CC=C2)=N1", 
	 "Tm": 451.15, 
	 "num_atms": 43, 
	 "gaussian": { 
		 "optdone": 1, 
		 "sigma_profile": "yes", 
		 "theory": "DFT", 
		 "functional": "B3LYP", 
		 "basiset": "6-31G**", 
		 "properties": { 
			 "R2extent": 22307.6132, 
			 "electric_dipole_moment_norm": 3.70118283931, 
			 "electric_quadrupole_moment_norm": 50.8839080322, 
			 "total_energy": -1522.24836001, 
			 "HOMO_LUMO_gap": 0.14473, 
			 "cosmo_polarized_energy": -22.63, 
			 "cosmo_cavitation_energy": 51.4, 
			 "cosmo_dispersion_energy": -37.12, 
			 "cosmo_repulsion_energy": 2.74, 
			 "cosmo_total_nonelectrostatic_energy": 17.02, 
			 "SMD_solvation_energy": 6.85 
		},
		"coords": [
			{
				"x": 0.0144086121,
				"y": -3.2078123844,
				"z": 8.7329837909,
				"element": "C" 
			},
			{
				"x": -0.5623990126,
				"y": -2.5523640392,
				"z": 7.501852871,
				"element": "C" 
			},
			{
				"x": -1.3887581714,
				"y": -3.2675837579,
				"z": 6.624970097,
				"element": "C" 
			},
			{
				"x": -1.9437073444,
				"y": -2.6591293466,
				"z": 5.4992208897,
				"element": "C" 
			},
			{
				"x": -1.6607283762,
				"y": -1.3162007507,
				"z": 5.2510302271,
				"element": "C" 
			},
			{
				"x": -0.8432818732,
				"y": -0.5745136548,
				"z": 6.1090752055,
				"element": "C" 
			},
			{
				"x": -0.2986625548,
				"y": -1.2002655648,
				"z": 7.2255068172,
				"element": "C" 
			},
			{
				"x": -2.379012532,
				"y": -0.5202546095,
				"z": 3.8195810057,
				"element": "S" 
			},
			{
				"x": -2.7658186499,
				"y": 0.8569705325,
				"z": 4.1461941937,
				"element": "O" 
			},
			{
				"x": -3.3602246239,
				"y": -1.4354856551,
				"z": 3.2222684355,
				"element": "O" 
			},
			{
				"x": -0.9368558009,
				"y": -0.4045844892,
				"z": 2.8440092153,
				"element": "N" 
			},
			{
				"x": -0.8994768524,
				"y": 0.1851382792,
				"z": 1.5943529372,
				"element": "N" 
			},
			{
				"x": -1.6543982404,
				"y": 1.1873084989,
				"z": 1.3144982448,
				"element": "C" 
			},
			{
				"x": -1.5511373487,
				"y": 1.8368706536,
				"z": 0.0174871504,
				"element": "C" 
			},
			{
				"x": -2.2982971405,
				"y": 2.9015364049,
				"z": -0.4095480558,
				"element": "C" 
			},
			{
				"x": -1.9059003334,
				"y": 3.2152907786,
				"z": -1.6748662946,
				"element": "O" 
			},
			{
				"x": -0.9156300712,
				"y": 2.3067151995,
				"z": -1.9662139355,
				"element": "C" 
			},
			{
				"x": -0.3061570603,
				"y": 2.4083166947,
				"z": -3.2723454597,
				"element": "C" 
			},
			{
				"x": 0.6759113728,
				"y": 1.576979979,
				"z": -3.6788132471,
				"element": "C" 
			},
			{
				"x": 1.3634069974,
				"y": 1.5839258838,
				"z": -4.9690547021,
				"element": "C" 
			},
			{
				"x": 1.0717556486,
				"y": 2.5003799086,
				"z": -5.9994518069,
				"element": "C" 
			},
			{
				"x": 1.7607019227,
				"y": 2.4577499712,
				"z": -7.2067405066,
				"element": "C" 
			},
			{
				"x": 2.7586012992,
				"y": 1.5004405988,
				"z": -7.4189879621,
				"element": "C" 
			},
			{
				"x": 3.060473162,
				"y": 0.5850157374,
				"z": -6.4099033684,
				"element": "C" 
			},
			{
				"x": 2.3702806594,
				"y": 0.6275739211,
				"z": -5.2002252496,
				"element": "C" 
			},
			{
				"x": -0.6738009439,
				"y": 1.4727826121,
				"z": -0.9939121516,
				"element": "N" 
			},
			{
				"x": 1.0515727631,
				"y": -2.9008129921,
				"z": 8.8996948266,
				"element": "H" 
			},
			{
				"x": -0.0113731777,
				"y": -4.2980050113,
				"z": 8.6568904154,
				"element": "H" 
			},
			{
				"x": -0.5541731789,
				"y": -2.9254380436,
				"z": 9.6274400514,
				"element": "H" 
			},
			{
				"x": -1.6039806689,
				"y": -4.3134584972,
				"z": 6.825924038,
				"element": "H" 
			},
			{
				"x": -2.5928211912,
				"y": -3.2061204871,
				"z": 4.8240125603,
				"element": "H" 
			},
			{
				"x": -0.6450100549,
				"y": 0.471426273,
				"z": 5.9016603275,
				"element": "H" 
			},
			{
				"x": 0.3401563013,
				"y": -0.6323550945,
				"z": 7.8966251967,
				"element": "H" 
			},
			{
				"x": -0.527583633,
				"y": -1.3336913077,
				"z": 2.7698805777,
				"element": "H" 
			},
			{
				"x": -2.3891852464,
				"y": 1.5980861431,
				"z": 2.0067294146,
				"element": "H" 
			},
			{
				"x": -3.0832232787,
				"y": 3.49867045,
				"z": 0.0260749266,
				"element": "H" 
			},
			{
				"x": -0.6942250693,
				"y": 3.2010514192,
				"z": -3.9042543767,
				"element": "H" 
			},
			{
				"x": 0.9974954772,
				"y": 0.8135040756,
				"z": -2.9728538537,
				"element": "H" 
			},
			{
				"x": 0.3007040427,
				"y": 3.2509964304,
				"z": -5.8552924481,
				"element": "H" 
			},
			{
				"x": 1.520356059,
				"y": 3.1732386438,
				"z": -7.988008181,
				"element": "H" 
			},
			{
				"x": 3.2940819873,
				"y": 1.4706786933,
				"z": -8.3633883094,
				"element": "H" 
			},
			{
				"x": 3.8332528622,
				"y": -0.1625030164,
				"z": -6.5642974917,
				"element": "H" 
			},
			{
				"x": 2.6077632621,
				"y": -0.0869690802,
				"z": -4.4164060154,
				"element": "H" 
			}
		],
		 "valence_orbital": [ 
			{
				"type": "occ",
				"energy": -0.26996,
				"method": "rhf"
			},
			{
				"type": "occ",
				"energy": -0.26216,
				"method": "rhf"
			},
			{
				"type": "occ",
				"energy": -0.25513,
				"method": "rhf"
			},
			{
				"type": "occ",
				"energy": -0.23664,
				"method": "rhf"
			},
			{
				"type": "occ",
				"energy": -0.20481,
				"method": "rhf"
			},
			{
				"type": "unocc",
				"energy": -0.06008,
				"method": "rhf"
			},
			{
				"type": "unocc",
				"energy": -0.04639,
				"method": "rhf"
			},
			{
				"type": "unocc",
				"energy": -0.03234,
				"method": "rhf"
			},
			{
				"type": "unocc",
				"energy": -0.02409,
				"method": "rhf"
			},
			{
				"type": "unocc",
				"energy": -0.0041,
				"method": "rhf"
			}
		],
		"cosmo_sigma_profile": { 
			"-0.025": 0.0,
			"-0.024": 0.0,
			"-0.023": 0.0,
			"-0.022": 0.0,
			"-0.021": 0.0,
			"-0.02": 0.0,
			"-0.019": 0.0,
			"-0.018": 0.0,
			"-0.017": 0.0,
			"-0.016": 0.432792603703,
			"-0.015": 0.894943236178,
			"-0.014": 1.3557324662,
			"-0.013": 1.13457664783,
			"-0.012": 0.684799920954,
			"-0.011": 1.70969404976,
			"-0.01": 4.17891391856,
			"-0.009": 3.79522358323,
			"-0.008": 5.88949183289,
			"-0.007": 11.3160956908,
			"-0.006": 23.6043878956,
			"-0.005": 27.8696468607,
			"-0.004": 28.6655719379,
			"-0.003": 25.4507847666,
			"-0.002": 26.7403993205,
			"-0.001": 33.7274427302,
			"0.0": 33.2766248666,
			"0.001": 29.2747794815,
			"0.002": 31.9207052853,
			"0.003": 32.3656094711,
			"0.004": 19.7512339044,
			"0.005": 16.2679981973,
			"0.006": 8.61349908092,
			"0.007": 6.6274944169,
			"0.008": 5.78417842998,
			"0.009": 7.17570792328,
			"0.01": 10.3238011256,
			"0.011": 6.90542768234,
			"0.012": 1.29076453917,
			"0.013": 1.99532238123,
			"0.014": 0.941819617633,
			"0.015": 1.46868481817,
			"0.016": 1.23627920871,
			"0.017": 0.217340195186,
			"0.018": 0.0,
			"0.019": 0.0,
			"0.02": 0.0,
			"0.021": 0.0,
			"0.022": 0.0,
			"0.023": 0.0,
			"0.024": 0.0,
			"0.025": 0.0
		}
	}
}
