{
	 "smiles": "NC1=NN2C=C(Cl)C=CC2=N1", 
	 "Tm": 457.15, 
	 "num_atms": 16, 
	 "gaussian": { 
		 "optdone": 1, 
		 "sigma_profile": "yes", 
		 "theory": "DFT", 
		 "functional": "B3LYP", 
		 "basiset": "6-31G**", 
		 "properties": { 
			 "R2extent": 2482.4425, 
			 "electric_dipole_moment_norm": 1.15971641792, 
			 "electric_quadrupole_moment_norm": 9.29402804977, 
			 "total_energy": -910.83901703, 
			 "HOMO_LUMO_gap": 0.17468, 
			 "cosmo_polarized_energy": -11.37, 
			 "cosmo_cavitation_energy": 22.6, 
			 "cosmo_dispersion_energy": -17.43, 
			 "cosmo_repulsion_energy": 1.4, 
			 "cosmo_total_nonelectrostatic_energy": 6.57, 
			 "SMD_solvation_energy": 0.86 
		},
		"coords": [
			{
				"x": -3.1175320916,
				"y": -2.6503234854,
				"z": -1.8191415641,
				"element": "N" 
			},
			{
				"x": -2.0221057833,
				"y": -2.0952576101,
				"z": -1.2137932908,
				"element": "C" 
			},
			{
				"x": -1.0837866677,
				"y": -1.444942218,
				"z": -1.9258762296,
				"element": "N" 
			},
			{
				"x": -0.244178194,
				"y": -1.0268516237,
				"z": -0.9415920637,
				"element": "N" 
			},
			{
				"x": 0.8934863695,
				"y": -0.305905446,
				"z": -1.1176650811,
				"element": "C" 
			},
			{
				"x": 1.621101127,
				"y": 0.0234559327,
				"z": 0.0020404111,
				"element": "C" 
			},
			{
				"x": 3.093877474,
				"y": 0.9520268809,
				"z": -0.1866178726,
				"element": "Cl" 
			},
			{
				"x": 1.1973016213,
				"y": -0.3749463942,
				"z": 1.2928107486,
				"element": "C" 
			},
			{
				"x": 0.0372409084,
				"y": -1.1061749692,
				"z": 1.4431095118,
				"element": "C" 
			},
			{
				"x": -0.7153544716,
				"y": -1.4498781177,
				"z": 0.3019521349,
				"element": "C" 
			},
			{
				"x": -1.8494302151,
				"y": -2.1334028959,
				"z": 0.1303012252,
				"element": "N" 
			},
			{
				"x": -3.0228767852,
				"y": -2.844862989,
				"z": -2.8045857138,
				"element": "H" 
			},
			{
				"x": -3.5853220739,
				"y": -3.3606185321,
				"z": -1.2768176763,
				"element": "H" 
			},
			{
				"x": 1.1530225198,
				"y": -0.0364086797,
				"z": -2.1319930506,
				"element": "H" 
			},
			{
				"x": 1.7928560874,
				"y": -0.098174782,
				"z": 2.1550918015,
				"element": "H" 
			},
			{
				"x": -0.3143998251,
				"y": -1.4250350705,
				"z": 2.4167767096,
				"element": "H" 
			}
		],
		 "valence_orbital": [ 
			{
				"type": "occ",
				"energy": -0.32597,
				"method": "rhf"
			},
			{
				"type": "occ",
				"energy": -0.2957,
				"method": "rhf"
			},
			{
				"type": "occ",
				"energy": -0.28088,
				"method": "rhf"
			},
			{
				"type": "occ",
				"energy": -0.23767,
				"method": "rhf"
			},
			{
				"type": "occ",
				"energy": -0.22077,
				"method": "rhf"
			},
			{
				"type": "unocc",
				"energy": -0.04609,
				"method": "rhf"
			},
			{
				"type": "unocc",
				"energy": -0.01175,
				"method": "rhf"
			},
			{
				"type": "unocc",
				"energy": 0.01564,
				"method": "rhf"
			},
			{
				"type": "unocc",
				"energy": 0.06725,
				"method": "rhf"
			},
			{
				"type": "unocc",
				"energy": 0.09066,
				"method": "rhf"
			}
		],
		"cosmo_sigma_profile": { 
			"-0.025": 0.0,
			"-0.024": 0.0,
			"-0.023": 0.0,
			"-0.022": 0.0,
			"-0.021": 0.0,
			"-0.02": 0.0,
			"-0.019": 0.0,
			"-0.018": 0.0,
			"-0.017": 0.0,
			"-0.016": 0.0,
			"-0.015": 0.0,
			"-0.014": 0.900935771535,
			"-0.013": 2.35167727434,
			"-0.012": 2.09079454738,
			"-0.011": 2.85183477229,
			"-0.01": 3.15996621844,
			"-0.009": 3.21745240136,
			"-0.008": 7.21866056253,
			"-0.007": 7.03263523169,
			"-0.006": 6.68720183886,
			"-0.005": 5.46126945076,
			"-0.004": 6.17565783744,
			"-0.003": 8.51658458492,
			"-0.002": 12.7852802909,
			"-0.001": 14.6614661657,
			"0.0": 16.8992319897,
			"0.001": 16.5738433209,
			"0.002": 12.7232199992,
			"0.003": 10.1935735599,
			"0.004": 11.9618457051,
			"0.005": 5.19151500285,
			"0.006": 3.55473911233,
			"0.007": 3.99918746419,
			"0.008": 4.08642152324,
			"0.009": 1.77707910095,
			"0.01": 2.29649053548,
			"0.011": 3.22676621004,
			"0.012": 2.32762512926,
			"0.013": 1.77826318057,
			"0.014": 2.20557435495,
			"0.015": 1.38502250548,
			"0.016": 0.730979994954,
			"0.017": 0.165124537822,
			"0.018": 0.0,
			"0.019": 0.0,
			"0.02": 0.0,
			"0.021": 0.0,
			"0.022": 0.0,
			"0.023": 0.0,
			"0.024": 0.0,
			"0.025": 0.0
		}
	}
}
