{
	 "smiles": "COC1=CC(=CC(OC)=C1OC)C1=NN=C2SCC(=NN12)C(C)C", 
	 "Tm": 430.15, 
	 "num_atms": 44, 
	 "gaussian": { 
		 "optdone": 1, 
		 "sigma_profile": "yes", 
		 "theory": "DFT", 
		 "functional": "B3LYP", 
		 "basiset": "6-31G**", 
		 "properties": { 
			 "R2extent": 10578.6239, 
			 "electric_dipole_moment_norm": 6.54300369173, 
			 "electric_quadrupole_moment_norm": 32.6114547225, 
			 "total_energy": -1464.51770852, 
			 "HOMO_LUMO_gap": 0.15366, 
			 "cosmo_polarized_energy": -20.87, 
			 "cosmo_cavitation_energy": 48.46, 
			 "cosmo_dispersion_energy": -33.04, 
			 "cosmo_repulsion_energy": 2.48, 
			 "cosmo_total_nonelectrostatic_energy": 17.9, 
			 "SMD_solvation_energy": 7.52 
		},
		"coords": [
			{
				"x": 3.3126595743,
				"y": -1.1750904851,
				"z": -1.9826964692,
				"element": "C" 
			},
			{
				"x": 2.8935655905,
				"y": -0.3581998824,
				"z": -0.8851918586,
				"element": "O" 
			},
			{
				"x": 1.9914327799,
				"y": -0.9320475707,
				"z": -0.0216084638,
				"element": "C" 
			},
			{
				"x": 0.7280743098,
				"y": -0.3491886993,
				"z": 0.091917423,
				"element": "C" 
			},
			{
				"x": -0.2016879911,
				"y": -0.843107456,
				"z": 1.0175012773,
				"element": "C" 
			},
			{
				"x": 0.1434381473,
				"y": -1.9481470914,
				"z": 1.8158691186,
				"element": "C" 
			},
			{
				"x": 1.3990002093,
				"y": -2.5323243666,
				"z": 1.7000417043,
				"element": "C" 
			},
			{
				"x": 1.7311739592,
				"y": -3.57402412,
				"z": 2.5366903049,
				"element": "O" 
			},
			{
				"x": 1.8527609527,
				"y": -4.8484429662,
				"z": 1.8952997713,
				"element": "C" 
			},
			{
				"x": 2.3433029997,
				"y": -2.0255163804,
				"z": 0.7860531251,
				"element": "C" 
			},
			{
				"x": 3.5912607453,
				"y": -2.5939987516,
				"z": 0.6696761352,
				"element": "O" 
			},
			{
				"x": 4.4921065806,
				"y": -2.2533422719,
				"z": 1.7339341604,
				"element": "C" 
			},
			{
				"x": -1.5357065792,
				"y": -0.265529906,
				"z": 1.2104296465,
				"element": "C" 
			},
			{
				"x": -2.3379230936,
				"y": -0.5838258067,
				"z": 2.2067329391,
				"element": "N" 
			},
			{
				"x": -3.4988088351,
				"y": 0.1582175156,
				"z": 2.1083116212,
				"element": "N" 
			},
			{
				"x": -3.3709383622,
				"y": 0.9261525361,
				"z": 1.0583047441,
				"element": "C" 
			},
			{
				"x": -4.5467804815,
				"y": 2.0182268611,
				"z": 0.357743637,
				"element": "S" 
			},
			{
				"x": -3.2680111014,
				"y": 3.0737226909,
				"z": -0.440554553,
				"element": "C" 
			},
			{
				"x": -2.2955033594,
				"y": 2.2385663215,
				"z": -1.2470922192,
				"element": "C" 
			},
			{
				"x": -1.7519551139,
				"y": 1.1591739948,
				"z": -0.8067301164,
				"element": "N" 
			},
			{
				"x": -2.1480139506,
				"y": 0.7210277454,
				"z": 0.4432276988,
				"element": "N" 
			},
			{
				"x": -1.9219615278,
				"y": 2.7202173001,
				"z": -2.6362349042,
				"element": "C" 
			},
			{
				"x": -1.1930330908,
				"y": 4.0804608923,
				"z": -2.5512805077,
				"element": "C" 
			},
			{
				"x": -1.1046648328,
				"y": 1.702139359,
				"z": -3.4376862053,
				"element": "C" 
			},
			{
				"x": 2.4554784572,
				"y": -1.4575431823,
				"z": -2.6078487675,
				"element": "H" 
			},
			{
				"x": 3.998633658,
				"y": -0.56222361,
				"z": -2.5715320422,
				"element": "H" 
			},
			{
				"x": 3.8272485629,
				"y": -2.0757935619,
				"z": -1.6373004061,
				"element": "H" 
			},
			{
				"x": 0.4976074205,
				"y": 0.4959923532,
				"z": -0.5412055987,
				"element": "H" 
			},
			{
				"x": -0.5641065174,
				"y": -2.3423718209,
				"z": 2.5352563403,
				"element": "H" 
			},
			{
				"x": 0.9007977337,
				"y": -5.1448633872,
				"z": 1.4371786876,
				"element": "H" 
			},
			{
				"x": 2.110690726,
				"y": -5.5617742238,
				"z": 2.6807418023,
				"element": "H" 
			},
			{
				"x": 2.6388510975,
				"y": -4.8381652242,
				"z": 1.1337406697,
				"element": "H" 
			},
			{
				"x": 5.4282636519,
				"y": -2.7731937758,
				"z": 1.5201932607,
				"element": "H" 
			},
			{
				"x": 4.6718124655,
				"y": -1.1723346501,
				"z": 1.7559081622,
				"element": "H" 
			},
			{
				"x": 4.0972719896,
				"y": -2.5845120521,
				"z": 2.6993665065,
				"element": "H" 
			},
			{
				"x": -2.7364389622,
				"y": 3.6365669872,
				"z": 0.3352675688,
				"element": "H" 
			},
			{
				"x": -3.7991088904,
				"y": 3.7829521065,
				"z": -1.0769665298,
				"element": "H" 
			},
			{
				"x": -2.8752879872,
				"y": 2.8904298461,
				"z": -3.1601144797,
				"element": "H" 
			},
			{
				"x": -0.9976081724,
				"y": 4.4630621127,
				"z": -3.5574121447,
				"element": "H" 
			},
			{
				"x": -1.7771747264,
				"y": 4.8370134854,
				"z": -2.0177144737,
				"element": "H" 
			},
			{
				"x": -0.2318070325,
				"y": 3.9696125781,
				"z": -2.0387232743,
				"element": "H" 
			},
			{
				"x": -1.6197252508,
				"y": 0.7409663505,
				"z": -3.5059426965,
				"element": "H" 
			},
			{
				"x": -0.9361300191,
				"y": 2.0802138271,
				"z": -4.4508304075,
				"element": "H" 
			},
			{
				"x": -0.1304557336,
				"y": 1.5238463793,
				"z": -2.9740201871,
				"element": "H" 
			}
		],
		 "valence_orbital": [ 
			{
				"type": "occ",
				"energy": -0.26105,
				"method": "rhf"
			},
			{
				"type": "occ",
				"energy": -0.25131,
				"method": "rhf"
			},
			{
				"type": "occ",
				"energy": -0.24729,
				"method": "rhf"
			},
			{
				"type": "occ",
				"energy": -0.23073,
				"method": "rhf"
			},
			{
				"type": "occ",
				"energy": -0.21076,
				"method": "rhf"
			},
			{
				"type": "unocc",
				"energy": -0.0571,
				"method": "rhf"
			},
			{
				"type": "unocc",
				"energy": -0.02006,
				"method": "rhf"
			},
			{
				"type": "unocc",
				"energy": 0.00554,
				"method": "rhf"
			},
			{
				"type": "unocc",
				"energy": 0.00935,
				"method": "rhf"
			},
			{
				"type": "unocc",
				"energy": 0.03888,
				"method": "rhf"
			}
		],
		"cosmo_sigma_profile": { 
			"-0.025": 0.0,
			"-0.024": 0.0,
			"-0.023": 0.0,
			"-0.022": 0.0,
			"-0.021": 0.0,
			"-0.02": 0.0,
			"-0.019": 0.0,
			"-0.018": 0.0,
			"-0.017": 0.0,
			"-0.016": 0.0,
			"-0.015": 0.0,
			"-0.014": 0.0,
			"-0.013": 0.0,
			"-0.012": 0.0,
			"-0.011": 0.0,
			"-0.01": 0.676347044783,
			"-0.009": 4.72692119593,
			"-0.008": 7.01143198342,
			"-0.007": 5.45053233238,
			"-0.006": 10.3145253993,
			"-0.005": 18.3639747905,
			"-0.004": 30.0906102214,
			"-0.003": 49.6703575041,
			"-0.002": 46.2437352168,
			"-0.001": 34.3384177301,
			"0.0": 36.4876494444,
			"0.001": 27.3152082881,
			"0.002": 21.7540955892,
			"0.003": 22.7220357894,
			"0.004": 13.9187072954,
			"0.005": 11.5684881703,
			"0.006": 8.27909100081,
			"0.007": 5.09382175435,
			"0.008": 5.36436283898,
			"0.009": 4.63798748274,
			"0.01": 4.45730985096,
			"0.011": 4.21913140604,
			"0.012": 4.35825736296,
			"0.013": 3.67248172724,
			"0.014": 2.55226761271,
			"0.015": 2.06037828324,
			"0.016": 0.641831351687,
			"0.017": 0.0287727015476,
			"0.018": 0.0,
			"0.019": 0.0,
			"0.02": 0.0,
			"0.021": 0.0,
			"0.022": 0.0,
			"0.023": 0.0,
			"0.024": 0.0,
			"0.025": 0.0
		}
	}
}
