{
	 "smiles": "CCN(CC)C#N", 
	 "Tm": 192.55, 
	 "num_atms": 17, 
	 "gaussian": { 
		 "optdone": 1, 
		 "sigma_profile": "yes", 
		 "theory": "DFT", 
		 "functional": "B3LYP", 
		 "basiset": "6-31G**", 
		 "properties": { 
			 "R2extent": 1047.382, 
			 "electric_dipole_moment_norm": 4.83597510953, 
			 "electric_quadrupole_moment_norm": 13.4906177609, 
			 "total_energy": -306.038325073, 
			 "HOMO_LUMO_gap": 0.27492, 
			 "cosmo_polarized_energy": -10.64, 
			 "cosmo_cavitation_energy": 20.33, 
			 "cosmo_dispersion_energy": -14.13, 
			 "cosmo_repulsion_energy": 1.22, 
			 "cosmo_total_nonelectrostatic_energy": 7.42, 
			 "SMD_solvation_energy": 4.96 
		},
		"coords": [
			{
				"x": 1.7803581992,
				"y": 1.5863895649,
				"z": 1.2308521423,
				"element": "C" 
			},
			{
				"x": 1.9821697529,
				"y": 0.900757707,
				"z": -0.1231950004,
				"element": "C" 
			},
			{
				"x": 0.7473106274,
				"y": 0.6479383168,
				"z": -0.8879007292,
				"element": "N" 
			},
			{
				"x": 0.0094832557,
				"y": -0.6207546084,
				"z": -0.7549679117,
				"element": "C" 
			},
			{
				"x": -0.9946048467,
				"y": -0.6739129253,
				"z": 0.3998275927,
				"element": "C" 
			},
			{
				"x": 0.0892647698,
				"y": 1.7039536819,
				"z": -1.3723938977,
				"element": "C" 
			},
			{
				"x": -0.4749651059,
				"y": 2.6263201239,
				"z": -1.8190903762,
				"element": "N" 
			},
			{
				"x": 1.1960390903,
				"y": 0.9672550601,
				"z": 1.9173104318,
				"element": "H" 
			},
			{
				"x": 1.26223928,
				"y": 2.5419663838,
				"z": 1.1051619451,
				"element": "H" 
			},
			{
				"x": 2.751244036,
				"y": 1.7864378549,
				"z": 1.6965176854,
				"element": "H" 
			},
			{
				"x": 2.4735797936,
				"y": -0.0695133452,
				"z": 0.0013621654,
				"element": "H" 
			},
			{
				"x": 2.6383242459,
				"y": 1.5119379037,
				"z": -0.7523653083,
				"element": "H" 
			},
			{
				"x": -0.5074324239,
				"y": -0.7955643773,
				"z": -1.7042010962,
				"element": "H" 
			},
			{
				"x": 0.761063271,
				"y": -1.4104949688,
				"z": -0.651848215,
				"element": "H" 
			},
			{
				"x": -1.7268179879,
				"y": 0.1345131961,
				"z": 0.3123273672,
				"element": "H" 
			},
			{
				"x": -0.5007984941,
				"y": -0.5869815646,
				"z": 1.3718974543,
				"element": "H" 
			},
			{
				"x": -1.5361574636,
				"y": -1.6257480035,
				"z": 0.3805057507,
				"element": "H" 
			}
		],
		 "valence_orbital": [ 
			{
				"type": "occ",
				"energy": -0.35561,
				"method": "rhf"
			},
			{
				"type": "occ",
				"energy": -0.34608,
				"method": "rhf"
			},
			{
				"type": "occ",
				"energy": -0.34077,
				"method": "rhf"
			},
			{
				"type": "occ",
				"energy": -0.31235,
				"method": "rhf"
			},
			{
				"type": "occ",
				"energy": -0.23248,
				"method": "rhf"
			},
			{
				"type": "unocc",
				"energy": 0.04244,
				"method": "rhf"
			},
			{
				"type": "unocc",
				"energy": 0.0646,
				"method": "rhf"
			},
			{
				"type": "unocc",
				"energy": 0.08607,
				"method": "rhf"
			},
			{
				"type": "unocc",
				"energy": 0.09933,
				"method": "rhf"
			},
			{
				"type": "unocc",
				"energy": 0.11072,
				"method": "rhf"
			}
		],
		"cosmo_sigma_profile": { 
			"-0.025": 0.0,
			"-0.024": 0.0,
			"-0.023": 0.0,
			"-0.022": 0.0,
			"-0.021": 0.0,
			"-0.02": 0.0,
			"-0.019": 0.0,
			"-0.018": 0.0,
			"-0.017": 0.0,
			"-0.016": 0.0,
			"-0.015": 0.0,
			"-0.014": 0.0,
			"-0.013": 0.0,
			"-0.012": 0.0,
			"-0.011": 0.0,
			"-0.01": 0.0,
			"-0.009": 0.0,
			"-0.008": 0.0618743086716,
			"-0.007": 2.00806657411,
			"-0.006": 6.04856715962,
			"-0.005": 12.9717381342,
			"-0.004": 19.6545828729,
			"-0.003": 24.2892286744,
			"-0.002": 18.8100068606,
			"-0.001": 15.364031807,
			"0.0": 17.9219199289,
			"0.001": 7.40232333719,
			"0.002": 3.11115288314,
			"0.003": 2.90530606656,
			"0.004": 2.06024597842,
			"0.005": 1.65891101648,
			"0.006": 1.97103619761,
			"0.007": 1.52553089394,
			"0.008": 1.92618297955,
			"0.009": 2.53612120626,
			"0.01": 2.30122661303,
			"0.011": 3.71835568759,
			"0.012": 3.18137215955,
			"0.013": 3.76846166085,
			"0.014": 2.78688150852,
			"0.015": 1.72221948934,
			"0.016": 0.0309334906497,
			"0.017": 0.0,
			"0.018": 0.0,
			"0.019": 0.0,
			"0.02": 0.0,
			"0.021": 0.0,
			"0.022": 0.0,
			"0.023": 0.0,
			"0.024": 0.0,
			"0.025": 0.0
		}
	}
}
