{
	 "smiles": "CCC1=C(N=C(N)S1)C1=CC=C(OC)C=C1", 
	 "Tm": 386.15, 
	 "num_atms": 30, 
	 "gaussian": { 
		 "optdone": 1, 
		 "sigma_profile": "yes", 
		 "theory": "DFT", 
		 "functional": "B3LYP", 
		 "basiset": "6-31G**", 
		 "properties": { 
			 "R2extent": 5858.5298, 
			 "electric_dipole_moment_norm": 2.08998810284, 
			 "electric_quadrupole_moment_norm": 15.7336442988, 
			 "total_energy": -1048.62678478, 
			 "HOMO_LUMO_gap": 0.17551, 
			 "cosmo_polarized_energy": -13.15, 
			 "cosmo_cavitation_energy": 34.76, 
			 "cosmo_dispersion_energy": -25.72, 
			 "cosmo_repulsion_energy": 1.98, 
			 "cosmo_total_nonelectrostatic_energy": 11.01, 
			 "SMD_solvation_energy": 4.91 
		},
		"coords": [
			{
				"x": 3.0893713199,
				"y": -0.4893587763,
				"z": -1.1875551558,
				"element": "C" 
			},
			{
				"x": 1.6807002815,
				"y": -0.7402818388,
				"z": -1.7566503338,
				"element": "C" 
			},
			{
				"x": 0.9298281196,
				"y": -1.8641489521,
				"z": -1.0986928766,
				"element": "C" 
			},
			{
				"x": -0.1521201877,
				"y": -1.8613821552,
				"z": -0.2498417977,
				"element": "C" 
			},
			{
				"x": -0.678740314,
				"y": -3.1119092379,
				"z": 0.0657836748,
				"element": "N" 
			},
			{
				"x": -0.0042050541,
				"y": -4.0685715513,
				"z": -0.4918283241,
				"element": "C" 
			},
			{
				"x": -0.2434989189,
				"y": -5.4103810315,
				"z": -0.2752164457,
				"element": "N" 
			},
			{
				"x": 1.3571992346,
				"y": -3.5354418411,
				"z": -1.4797203028,
				"element": "S" 
			},
			{
				"x": -0.8405884524,
				"y": -0.6789447613,
				"z": 0.3103906326,
				"element": "C" 
			},
			{
				"x": -0.1653726391,
				"y": 0.5042938586,
				"z": 0.6653088622,
				"element": "C" 
			},
			{
				"x": -0.8482155153,
				"y": 1.5974647292,
				"z": 1.1824194752,
				"element": "C" 
			},
			{
				"x": -2.2354696867,
				"y": 1.5380255435,
				"z": 1.3748439188,
				"element": "C" 
			},
			{
				"x": -2.8142182061,
				"y": 2.663780745,
				"z": 1.8875897456,
				"element": "O" 
			},
			{
				"x": -4.2124801557,
				"y": 2.6505765114,
				"z": 2.1225840177,
				"element": "C" 
			},
			{
				"x": -2.923278496,
				"y": 0.3612233933,
				"z": 1.0532002448,
				"element": "C" 
			},
			{
				"x": -2.2246247635,
				"y": -0.7277456306,
				"z": 0.5327973411,
				"element": "C" 
			},
			{
				"x": 3.5765376808,
				"y": 0.3400093397,
				"z": -1.7111131449,
				"element": "H" 
			},
			{
				"x": 3.0496478361,
				"y": -0.2448374075,
				"z": -0.1212541314,
				"element": "H" 
			},
			{
				"x": 3.7229241511,
				"y": -1.3755585416,
				"z": -1.2966157241,
				"element": "H" 
			},
			{
				"x": 1.7658210725,
				"y": -0.945087064,
				"z": -2.8320841173,
				"element": "H" 
			},
			{
				"x": 1.0776407511,
				"y": 0.1686885089,
				"z": -1.6689266943,
				"element": "H" 
			},
			{
				"x": -0.0650560814,
				"y": -6.0298641812,
				"z": -1.0535249885,
				"element": "H" 
			},
			{
				"x": -1.1366905222,
				"y": -5.5726108602,
				"z": 0.1726336625,
				"element": "H" 
			},
			{
				"x": 0.913440629,
				"y": 0.560591225,
				"z": 0.5694895991,
				"element": "H" 
			},
			{
				"x": -0.3245491463,
				"y": 2.5055918979,
				"z": 1.4629892839,
				"element": "H" 
			},
			{
				"x": -4.7789746933,
				"y": 2.4920546153,
				"z": 1.1956109952,
				"element": "H" 
			},
			{
				"x": -4.4598417193,
				"y": 3.6324978796,
				"z": 2.5293979383,
				"element": "H" 
			},
			{
				"x": -4.4949348219,
				"y": 1.877986506,
				"z": 2.8495936099,
				"element": "H" 
			},
			{
				"x": -3.9935748358,
				"y": 0.2811197489,
				"z": 1.2034680003,
				"element": "H" 
			},
			{
				"x": -2.7567768665,
				"y": -1.6422806718,
				"z": 0.294523035,
				"element": "H" 
			}
		],
		 "valence_orbital": [ 
			{
				"type": "occ",
				"energy": -0.26619,
				"method": "rhf"
			},
			{
				"type": "occ",
				"energy": -0.26353,
				"method": "rhf"
			},
			{
				"type": "occ",
				"energy": -0.24461,
				"method": "rhf"
			},
			{
				"type": "occ",
				"energy": -0.22292,
				"method": "rhf"
			},
			{
				"type": "occ",
				"energy": -0.18814,
				"method": "rhf"
			},
			{
				"type": "unocc",
				"energy": -0.01263,
				"method": "rhf"
			},
			{
				"type": "unocc",
				"energy": 0.00338,
				"method": "rhf"
			},
			{
				"type": "unocc",
				"energy": 0.0141,
				"method": "rhf"
			},
			{
				"type": "unocc",
				"energy": 0.02585,
				"method": "rhf"
			},
			{
				"type": "unocc",
				"energy": 0.07417,
				"method": "rhf"
			}
		],
		"cosmo_sigma_profile": { 
			"-0.025": 0.0,
			"-0.024": 0.0,
			"-0.023": 0.0,
			"-0.022": 0.0,
			"-0.021": 0.0,
			"-0.02": 0.0,
			"-0.019": 0.0,
			"-0.018": 0.0,
			"-0.017": 0.0,
			"-0.016": 0.0,
			"-0.015": 0.110356630181,
			"-0.014": 1.43278157895,
			"-0.013": 2.67511014409,
			"-0.012": 1.97472481601,
			"-0.011": 3.15100249258,
			"-0.01": 2.45457179476,
			"-0.009": 2.00662980424,
			"-0.008": 2.27502893279,
			"-0.007": 1.34680877728,
			"-0.006": 7.31762001431,
			"-0.005": 16.7405284174,
			"-0.004": 21.0791361665,
			"-0.003": 28.3850153297,
			"-0.002": 21.4832405236,
			"-0.001": 21.328769749,
			"0.0": 18.6777042812,
			"0.001": 17.8797846256,
			"0.002": 16.3480211426,
			"0.003": 19.5061232689,
			"0.004": 22.5631739498,
			"0.005": 18.6664181417,
			"0.006": 10.1750699592,
			"0.007": 4.40981697168,
			"0.008": 3.72068429302,
			"0.009": 3.99127871003,
			"0.01": 2.76685138873,
			"0.011": 2.37660819187,
			"0.012": 1.41052206224,
			"0.013": 0.64246655813,
			"0.014": 0.594449144608,
			"0.015": 0.223933860321,
			"0.016": 0.0,
			"0.017": 0.0,
			"0.018": 0.0,
			"0.019": 0.0,
			"0.02": 0.0,
			"0.021": 0.0,
			"0.022": 0.0,
			"0.023": 0.0,
			"0.024": 0.0,
			"0.025": 0.0
		}
	}
}
