{
	 "smiles": "BrC1=CN(N=C1)C1=CN=CC=C1", 
	 "Tm": 400.15, 
	 "num_atms": 18, 
	 "gaussian": { 
		 "optdone": 1, 
		 "sigma_profile": "yes", 
		 "theory": "DFT", 
		 "functional": "B3LYP", 
		 "basiset": "6-31G**", 
		 "properties": { 
			 "R2extent": 5495.1243, 
			 "electric_dipole_moment_norm": 1.03499109658, 
			 "electric_quadrupole_moment_norm": 6.41390990036, 
			 "total_energy": -3044.08658638, 
			 "HOMO_LUMO_gap": 0.19038, 
			 "cosmo_polarized_energy": -8.51, 
			 "cosmo_cavitation_energy": 25.17, 
			 "cosmo_dispersion_energy": -19.32, 
			 "cosmo_repulsion_energy": 1.51, 
			 "cosmo_total_nonelectrostatic_energy": 7.36, 
			 "SMD_solvation_energy": 1.63 
		},
		"coords": [
			{
				"x": -1.6876873363,
				"y": -5.0047827699,
				"z": -0.4196169706,
				"element": "Br" 
			},
			{
				"x": -1.0912245918,
				"y": -3.2641480481,
				"z": -0.8097150695,
				"element": "C" 
			},
			{
				"x": -0.1391768585,
				"y": -2.5445300921,
				"z": -0.1227680951,
				"element": "C" 
			},
			{
				"x": -0.0366950389,
				"y": -1.3409591431,
				"z": -0.7649034058,
				"element": "N" 
			},
			{
				"x": -0.8790506054,
				"y": -1.2608584632,
				"z": -1.8288481919,
				"element": "N" 
			},
			{
				"x": -1.5192250261,
				"y": -2.421902595,
				"z": -1.8601385325,
				"element": "C" 
			},
			{
				"x": 0.8037952829,
				"y": -0.2428816277,
				"z": -0.4525697017,
				"element": "C" 
			},
			{
				"x": 1.6866109845,
				"y": -0.2853019379,
				"z": 0.6345426079,
				"element": "C" 
			},
			{
				"x": 2.4931243338,
				"y": 0.7270148141,
				"z": 0.9606494221,
				"element": "N" 
			},
			{
				"x": 2.4497023167,
				"y": 1.8316748878,
				"z": 0.2073280177,
				"element": "C" 
			},
			{
				"x": 1.6038495549,
				"y": 1.9678404939,
				"z": -0.8950842244,
				"element": "C" 
			},
			{
				"x": 0.7629755862,
				"y": 0.91439188,
				"z": -1.2362812403,
				"element": "C" 
			},
			{
				"x": 0.4435751933,
				"y": -2.8061741848,
				"z": 0.7445126612,
				"element": "H" 
			},
			{
				"x": -2.2590414838,
				"y": -2.6230973365,
				"z": -2.6217588248,
				"element": "H" 
			},
			{
				"x": 1.7510387281,
				"y": -1.1650754239,
				"z": 1.2701351543,
				"element": "H" 
			},
			{
				"x": 3.1182205057,
				"y": 2.6392441286,
				"z": 0.497664125,
				"element": "H" 
			},
			{
				"x": 1.6030371852,
				"y": 2.8836807886,
				"z": -1.477466831,
				"element": "H" 
			},
			{
				"x": 0.0864712696,
				"y": 0.9639646291,
				"z": -2.0802809005,
				"element": "H" 
			}
		],
		 "valence_orbital": [ 
			{
				"type": "occ",
				"energy": -0.29155,
				"method": "rhf"
			},
			{
				"type": "occ",
				"energy": -0.29106,
				"method": "rhf"
			},
			{
				"type": "occ",
				"energy": -0.26675,
				"method": "rhf"
			},
			{
				"type": "occ",
				"energy": -0.26091,
				"method": "rhf"
			},
			{
				"type": "occ",
				"energy": -0.23619,
				"method": "rhf"
			},
			{
				"type": "unocc",
				"energy": -0.04581,
				"method": "rhf"
			},
			{
				"type": "unocc",
				"energy": -0.03337,
				"method": "rhf"
			},
			{
				"type": "unocc",
				"energy": 0.00861,
				"method": "rhf"
			},
			{
				"type": "unocc",
				"energy": 0.02142,
				"method": "rhf"
			},
			{
				"type": "unocc",
				"energy": 0.04816,
				"method": "rhf"
			}
		],
		"cosmo_sigma_profile": { 
			"-0.025": 0.0,
			"-0.024": 0.0,
			"-0.023": 0.0,
			"-0.022": 0.0,
			"-0.021": 0.0,
			"-0.02": 0.0,
			"-0.019": 0.0,
			"-0.018": 0.0,
			"-0.017": 0.0,
			"-0.016": 0.0,
			"-0.015": 0.0,
			"-0.014": 0.0,
			"-0.013": 0.033978569699,
			"-0.012": 1.14045001011,
			"-0.011": 1.91984127078,
			"-0.01": 2.21622555328,
			"-0.009": 2.47336314247,
			"-0.008": 4.48747527305,
			"-0.007": 7.26765645319,
			"-0.006": 11.2541051336,
			"-0.005": 9.56750245473,
			"-0.004": 10.4109129704,
			"-0.003": 8.97854167356,
			"-0.002": 11.0941232971,
			"-0.001": 14.3089103514,
			"0.0": 20.2775732334,
			"0.001": 23.1489877527,
			"0.002": 24.9760418954,
			"0.003": 13.8562038882,
			"0.004": 15.9022105172,
			"0.005": 5.00273273325,
			"0.006": 2.09328478116,
			"0.007": 3.50082415583,
			"0.008": 3.20070225559,
			"0.009": 2.06797810809,
			"0.01": 2.17316589786,
			"0.011": 1.86922921713,
			"0.012": 0.725262119663,
			"0.013": 1.21696617302,
			"0.014": 0.654811650576,
			"0.015": 0.814453872723,
			"0.016": 0.671098085815,
			"0.017": 0.0390096680019,
			"0.018": 0.0,
			"0.019": 0.0,
			"0.02": 0.0,
			"0.021": 0.0,
			"0.022": 0.0,
			"0.023": 0.0,
			"0.024": 0.0,
			"0.025": 0.0
		}
	}
}
