{
	 "smiles": "CC1=C(Cl)C(C)=C(C#N)C(Cl)=N1", 
	 "Tm": 355.65, 
	 "num_atms": 18, 
	 "gaussian": { 
		 "optdone": 1, 
		 "sigma_profile": "yes", 
		 "theory": "DFT", 
		 "functional": "B3LYP", 
		 "basiset": "6-31G**", 
		 "properties": { 
			 "R2extent": 3636.5811, 
			 "electric_dipole_moment_norm": 4.22949966545, 
			 "electric_quadrupole_moment_norm": 12.6078053265, 
			 "total_energy": -1338.34633652, 
			 "HOMO_LUMO_gap": 0.19219, 
			 "cosmo_polarized_energy": -8.74, 
			 "cosmo_cavitation_energy": 26.51, 
			 "cosmo_dispersion_energy": -19.1, 
			 "cosmo_repulsion_energy": 1.52, 
			 "cosmo_total_nonelectrostatic_energy": 8.93, 
			 "SMD_solvation_energy": 4.02 
		},
		"coords": [
			{
				"x": 1.5704671404,
				"y": 0.3777502181,
				"z": -3.4903584474,
				"element": "C" 
			},
			{
				"x": 1.1894206022,
				"y": -0.3666828522,
				"z": -2.2424530362,
				"element": "C" 
			},
			{
				"x": 1.1969299073,
				"y": 0.2265613094,
				"z": -0.9698796715,
				"element": "C" 
			},
			{
				"x": 1.6695103647,
				"y": 1.9087221961,
				"z": -0.8161029892,
				"element": "Cl" 
			},
			{
				"x": 0.8369328545,
				"y": -0.4911086029,
				"z": 0.1771465454,
				"element": "C" 
			},
			{
				"x": 0.8431971399,
				"y": 0.1389673471,
				"z": 1.5418775211,
				"element": "C" 
			},
			{
				"x": 0.4668405536,
				"y": -1.841282608,
				"z": -0.016527334,
				"element": "C" 
			},
			{
				"x": 0.082991681,
				"y": -2.6560771369,
				"z": 1.0945730486,
				"element": "C" 
			},
			{
				"x": -0.2244032097,
				"y": -3.2938548288,
				"z": 2.0174944938,
				"element": "N" 
			},
			{
				"x": 0.4882282413,
				"y": -2.3538281194,
				"z": -1.3287778511,
				"element": "C" 
			},
			{
				"x": 0.0366693941,
				"y": -4.0207326862,
				"z": -1.6088188969,
				"element": "Cl" 
			},
			{
				"x": 0.8316560146,
				"y": -1.6531823192,
				"z": -2.3874742281,
				"element": "N" 
			},
			{
				"x": 0.9214324816,
				"y": 1.2463823884,
				"z": -3.6439619062,
				"element": "H" 
			},
			{
				"x": 1.4853946405,
				"y": -0.2932779413,
				"z": -4.3450018894,
				"element": "H" 
			},
			{
				"x": 2.5963447537,
				"y": 0.755525901,
				"z": -3.42532587,
				"element": "H" 
			},
			{
				"x": 0.5352316658,
				"y": -0.5693017796,
				"z": 2.3110261205,
				"element": "H" 
			},
			{
				"x": 1.8435764058,
				"y": 0.5111669762,
				"z": 1.7850271316,
				"element": "H" 
			},
			{
				"x": 0.1695793687,
				"y": 1.0015525381,
				"z": 1.566337259,
				"element": "H" 
			}
		],
		 "valence_orbital": [ 
			{
				"type": "occ",
				"energy": -0.33972,
				"method": "rhf"
			},
			{
				"type": "occ",
				"energy": -0.32812,
				"method": "rhf"
			},
			{
				"type": "occ",
				"energy": -0.2994,
				"method": "rhf"
			},
			{
				"type": "occ",
				"energy": -0.29541,
				"method": "rhf"
			},
			{
				"type": "occ",
				"energy": -0.26801,
				"method": "rhf"
			},
			{
				"type": "unocc",
				"energy": -0.07582,
				"method": "rhf"
			},
			{
				"type": "unocc",
				"energy": -0.05621,
				"method": "rhf"
			},
			{
				"type": "unocc",
				"energy": -6e-05,
				"method": "rhf"
			},
			{
				"type": "unocc",
				"energy": 0.01798,
				"method": "rhf"
			},
			{
				"type": "unocc",
				"energy": 0.02951,
				"method": "rhf"
			}
		],
		"cosmo_sigma_profile": { 
			"-0.025": 0.0,
			"-0.024": 0.0,
			"-0.023": 0.0,
			"-0.022": 0.0,
			"-0.021": 0.0,
			"-0.02": 0.0,
			"-0.019": 0.0,
			"-0.018": 0.0,
			"-0.017": 0.0,
			"-0.016": 0.0,
			"-0.015": 0.0,
			"-0.014": 0.0,
			"-0.013": 0.0,
			"-0.012": 0.0,
			"-0.011": 0.0,
			"-0.01": 0.0,
			"-0.009": 0.0,
			"-0.008": 0.0,
			"-0.007": 0.625770880663,
			"-0.006": 7.40434964396,
			"-0.005": 14.1957169465,
			"-0.004": 26.1938653309,
			"-0.003": 29.9836468788,
			"-0.002": 23.8067277264,
			"-0.001": 17.5088926899,
			"0.0": 13.371393084,
			"0.001": 12.7597398408,
			"0.002": 16.1401260079,
			"0.003": 16.3479046666,
			"0.004": 8.48628770436,
			"0.005": 4.8852482749,
			"0.006": 4.014948189,
			"0.007": 4.61134212363,
			"0.008": 4.31946919577,
			"0.009": 3.58980916229,
			"0.01": 3.95601224579,
			"0.011": 3.07071703326,
			"0.012": 2.26856482267,
			"0.013": 0.175356964952,
			"0.014": 0.0,
			"0.015": 0.0,
			"0.016": 0.0,
			"0.017": 0.0,
			"0.018": 0.0,
			"0.019": 0.0,
			"0.02": 0.0,
			"0.021": 0.0,
			"0.022": 0.0,
			"0.023": 0.0,
			"0.024": 0.0,
			"0.025": 0.0
		}
	}
}
