{
	 "smiles": "OC(=O)C1=CN=C(OCC2=CC=CC=C2)C=C1", 
	 "Tm": 442.15, 
	 "num_atms": 28, 
	 "gaussian": { 
		 "optdone": 1, 
		 "sigma_profile": "yes", 
		 "theory": "DFT", 
		 "functional": "B3LYP", 
		 "basiset": "6-31G**", 
		 "properties": { 
			 "R2extent": 5656.3179, 
			 "electric_dipole_moment_norm": 1.74578974965, 
			 "electric_quadrupole_moment_norm": 13.8516327807, 
			 "total_energy": -782.452080616, 
			 "HOMO_LUMO_gap": 0.19569, 
			 "cosmo_polarized_energy": -11.53, 
			 "cosmo_cavitation_energy": 33.39, 
			 "cosmo_dispersion_energy": -23.93, 
			 "cosmo_repulsion_energy": 1.86, 
			 "cosmo_total_nonelectrostatic_energy": 11.32, 
			 "SMD_solvation_energy": 6.7 
		},
		"coords": [
			{
				"x": -2.8515695776,
				"y": 4.0542530409,
				"z": 2.0987089164,
				"element": "O" 
			},
			{
				"x": -1.9263728211,
				"y": 4.4148108613,
				"z": 1.1722351944,
				"element": "C" 
			},
			{
				"x": -1.8912142404,
				"y": 5.5334593018,
				"z": 0.6960753158,
				"element": "O" 
			},
			{
				"x": -0.9966743211,
				"y": 3.3201379802,
				"z": 0.8237125947,
				"element": "C" 
			},
			{
				"x": -1.0672713794,
				"y": 2.0483287135,
				"z": 1.3946974864,
				"element": "C" 
			},
			{
				"x": -0.231635854,
				"y": 1.0493093238,
				"z": 1.0839718449,
				"element": "N" 
			},
			{
				"x": 0.7176630353,
				"y": 1.2933989945,
				"z": 0.1812028673,
				"element": "C" 
			},
			{
				"x": 1.5963633699,
				"y": 0.3309624029,
				"z": -0.1519554881,
				"element": "O" 
			},
			{
				"x": 1.4431544939,
				"y": -0.9910443595,
				"z": 0.428231752,
				"element": "C" 
			},
			{
				"x": 0.5009572408,
				"y": -1.8570986427,
				"z": -0.373174929,
				"element": "C" 
			},
			{
				"x": 0.9176216024,
				"y": -2.4020773671,
				"z": -1.5952733348,
				"element": "C" 
			},
			{
				"x": 0.0566439597,
				"y": -3.200940106,
				"z": -2.3466581969,
				"element": "C" 
			},
			{
				"x": -1.232877597,
				"y": -3.4681132903,
				"z": -1.8799287287,
				"element": "C" 
			},
			{
				"x": -1.6562309359,
				"y": -2.9302631318,
				"z": -0.6634752821,
				"element": "C" 
			},
			{
				"x": -0.7946023395,
				"y": -2.1257305166,
				"z": 0.0842772976,
				"element": "C" 
			},
			{
				"x": 0.8836856702,
				"y": 2.5397043278,
				"z": -0.4608673146,
				"element": "C" 
			},
			{
				"x": 0.0132513162,
				"y": 3.5562864817,
				"z": -0.1295248942,
				"element": "C" 
			},
			{
				"x": -3.3974803857,
				"y": 4.8439593287,
				"z": 2.245309113,
				"element": "H" 
			},
			{
				"x": -1.8311093318,
				"y": 1.8237730197,
				"z": 2.1338254836,
				"element": "H" 
			},
			{
				"x": 2.4578116168,
				"y": -1.3958658311,
				"z": 0.40424537,
				"element": "H" 
			},
			{
				"x": 1.1119907584,
				"y": -0.896435251,
				"z": 1.4632217039,
				"element": "H" 
			},
			{
				"x": 1.9224682093,
				"y": -2.1979199864,
				"z": -1.9570109973,
				"element": "H" 
			},
			{
				"x": 0.3917478993,
				"y": -3.6193403068,
				"z": -3.2915082529,
				"element": "H" 
			},
			{
				"x": -1.9034069112,
				"y": -4.0940616355,
				"z": -2.4619529812,
				"element": "H" 
			},
			{
				"x": -2.6583156403,
				"y": -3.1347611354,
				"z": -0.2971992399,
				"element": "H" 
			},
			{
				"x": -1.1253408197,
				"y": -1.6904799847,
				"z": 1.0221322905,
				"element": "H" 
			},
			{
				"x": 1.6789632328,
				"y": 2.6650309892,
				"z": -1.1862797545,
				"element": "H" 
			},
			{
				"x": 0.0848797495,
				"y": 4.5382167789,
				"z": -0.5855378364,
				"element": "H" 
			}
		],
		 "valence_orbital": [ 
			{
				"type": "occ",
				"energy": -0.28504,
				"method": "rhf"
			},
			{
				"type": "occ",
				"energy": -0.27055,
				"method": "rhf"
			},
			{
				"type": "occ",
				"energy": -0.2522,
				"method": "rhf"
			},
			{
				"type": "occ",
				"energy": -0.24925,
				"method": "rhf"
			},
			{
				"type": "occ",
				"energy": -0.24045,
				"method": "rhf"
			},
			{
				"type": "unocc",
				"energy": -0.04476,
				"method": "rhf"
			},
			{
				"type": "unocc",
				"energy": -0.02873,
				"method": "rhf"
			},
			{
				"type": "unocc",
				"energy": -0.01124,
				"method": "rhf"
			},
			{
				"type": "unocc",
				"energy": -0.00186,
				"method": "rhf"
			},
			{
				"type": "unocc",
				"energy": 0.05736,
				"method": "rhf"
			}
		],
		"cosmo_sigma_profile": { 
			"-0.025": 0.0,
			"-0.024": 0.0,
			"-0.023": 0.0,
			"-0.022": 0.0,
			"-0.021": 0.0,
			"-0.02": 0.0,
			"-0.019": 0.0304946245329,
			"-0.018": 0.658744651211,
			"-0.017": 1.13191603056,
			"-0.016": 0.684410703838,
			"-0.015": 0.762091253934,
			"-0.014": 0.854080050159,
			"-0.013": 0.88000459047,
			"-0.012": 0.414529586687,
			"-0.011": 0.789165035067,
			"-0.01": 0.669458781966,
			"-0.009": 0.33989817139,
			"-0.008": 1.18434402885,
			"-0.007": 5.27343527784,
			"-0.006": 12.8848560451,
			"-0.005": 18.5070628285,
			"-0.004": 19.572608346,
			"-0.003": 20.5073776611,
			"-0.002": 17.4367052703,
			"-0.001": 20.6154948372,
			"0.0": 24.2209543464,
			"0.001": 22.9510690483,
			"0.002": 16.4710980209,
			"0.003": 16.2697849333,
			"0.004": 15.791400409,
			"0.005": 17.1793826826,
			"0.006": 10.1459061038,
			"0.007": 5.07192145804,
			"0.008": 3.27885709375,
			"0.009": 3.08894960229,
			"0.01": 2.15087163918,
			"0.011": 3.51332406053,
			"0.012": 4.04111043212,
			"0.013": 0.0994027591269,
			"0.014": 0.0,
			"0.015": 0.0,
			"0.016": 0.0,
			"0.017": 0.0,
			"0.018": 0.0,
			"0.019": 0.0,
			"0.02": 0.0,
			"0.021": 0.0,
			"0.022": 0.0,
			"0.023": 0.0,
			"0.024": 0.0,
			"0.025": 0.0
		}
	}
}
