{
	 "smiles": "OCC1=CSC(=N1)N1CCOCC1", 
	 "Tm": 393.15, 
	 "num_atms": 25, 
	 "gaussian": { 
		 "optdone": 1, 
		 "sigma_profile": "yes", 
		 "theory": "DFT", 
		 "functional": "B3LYP", 
		 "basiset": "6-31G**", 
		 "properties": { 
			 "R2extent": 3742.3078, 
			 "electric_dipole_moment_norm": 2.88302536062, 
			 "electric_quadrupole_moment_norm": 9.30050265523, 
			 "total_energy": -970.179519922, 
			 "HOMO_LUMO_gap": 0.20122, 
			 "cosmo_polarized_energy": -11.46, 
			 "cosmo_cavitation_energy": 28.62, 
			 "cosmo_dispersion_energy": -22.08, 
			 "cosmo_repulsion_energy": 1.73, 
			 "cosmo_total_nonelectrostatic_energy": 8.26, 
			 "SMD_solvation_energy": 3.16 
		},
		"coords": [
			{
				"x": -0.0845604821,
				"y": -1.0486806654,
				"z": 3.7610099684,
				"element": "O" 
			},
			{
				"x": 0.232857283,
				"y": 0.3085637031,
				"z": 3.5007871156,
				"element": "C" 
			},
			{
				"x": 0.2743857371,
				"y": 0.595853385,
				"z": 2.0219337437,
				"element": "C" 
			},
			{
				"x": -0.2806138558,
				"y": 1.6522816838,
				"z": 1.371692667,
				"element": "C" 
			},
			{
				"x": 0.070156018,
				"y": 1.5548746935,
				"z": -0.3431498757,
				"element": "S" 
			},
			{
				"x": 0.9549272028,
				"y": 0.0476490366,
				"z": -0.0194358593,
				"element": "C" 
			},
			{
				"x": 0.9701734511,
				"y": -0.3090867928,
				"z": 1.2409126984,
				"element": "N" 
			},
			{
				"x": 1.5528158193,
				"y": -0.6425252359,
				"z": -1.0279279485,
				"element": "N" 
			},
			{
				"x": 1.4801492416,
				"y": -0.1968956027,
				"z": -2.4166186787,
				"element": "C" 
			},
			{
				"x": 2.4709789079,
				"y": -1.0054791666,
				"z": -3.2513985217,
				"element": "C" 
			},
			{
				"x": 2.2292475968,
				"y": -2.4020444243,
				"z": -3.190336829,
				"element": "O" 
			},
			{
				"x": 1.8889957439,
				"y": -2.9021958499,
				"z": -1.8936462895,
				"element": "C" 
			},
			{
				"x": 2.2025670103,
				"y": -1.9267652103,
				"z": -0.7621631746,
				"element": "C" 
			},
			{
				"x": 0.4195878603,
				"y": -1.5588443796,
				"z": 3.1097895588,
				"element": "H" 
			},
			{
				"x": -0.5265137046,
				"y": 0.9267567147,
				"z": 3.9891564727,
				"element": "H" 
			},
			{
				"x": 1.2087469655,
				"y": 0.5743327277,
				"z": 3.9428201218,
				"element": "H" 
			},
			{
				"x": -0.8664817927,
				"y": 2.4672608467,
				"z": 1.7701963871,
				"element": "H" 
			},
			{
				"x": 0.4625208606,
				"y": -0.3201911086,
				"z": -2.8171035241,
				"element": "H" 
			},
			{
				"x": 1.7371127379,
				"y": 0.8692889024,
				"z": -2.483950739,
				"element": "H" 
			},
			{
				"x": 3.4967200579,
				"y": -0.7684544686,
				"z": -2.927861355,
				"element": "H" 
			},
			{
				"x": 2.381981242,
				"y": -0.7207077968,
				"z": -4.3035823399,
				"element": "H" 
			},
			{
				"x": 2.445285422,
				"y": -3.8344771583,
				"z": -1.7405405404,
				"element": "H" 
			},
			{
				"x": 0.8162438323,
				"y": -3.1421295428,
				"z": -1.8753772814,
				"element": "H" 
			},
			{
				"x": 1.8215163775,
				"y": -2.314037167,
				"z": 0.1843679245,
				"element": "H" 
			},
			{
				"x": 3.2880004676,
				"y": -1.7969471238,
				"z": -0.6497737013,
				"element": "H" 
			}
		],
		 "valence_orbital": [ 
			{
				"type": "occ",
				"energy": -0.27945,
				"method": "rhf"
			},
			{
				"type": "occ",
				"energy": -0.26841,
				"method": "rhf"
			},
			{
				"type": "occ",
				"energy": -0.26147,
				"method": "rhf"
			},
			{
				"type": "occ",
				"energy": -0.25628,
				"method": "rhf"
			},
			{
				"type": "occ",
				"energy": -0.20135,
				"method": "rhf"
			},
			{
				"type": "unocc",
				"energy": -0.00013,
				"method": "rhf"
			},
			{
				"type": "unocc",
				"energy": 0.01485,
				"method": "rhf"
			},
			{
				"type": "unocc",
				"energy": 0.0547,
				"method": "rhf"
			},
			{
				"type": "unocc",
				"energy": 0.07264,
				"method": "rhf"
			},
			{
				"type": "unocc",
				"energy": 0.07986,
				"method": "rhf"
			}
		],
		"cosmo_sigma_profile": { 
			"-0.025": 0.0,
			"-0.024": 0.0,
			"-0.023": 0.0,
			"-0.022": 0.0,
			"-0.021": 0.0,
			"-0.02": 0.0,
			"-0.019": 0.0,
			"-0.018": 0.0,
			"-0.017": 0.0,
			"-0.016": 0.0,
			"-0.015": 0.0,
			"-0.014": 0.0,
			"-0.013": 0.0,
			"-0.012": 0.104624456996,
			"-0.011": 0.466538368752,
			"-0.01": 0.52728304268,
			"-0.009": 0.511319708859,
			"-0.008": 1.94934583056,
			"-0.007": 3.10476465283,
			"-0.006": 10.8211312738,
			"-0.005": 27.7997181841,
			"-0.004": 28.4242632454,
			"-0.003": 22.9776608036,
			"-0.002": 16.846827907,
			"-0.001": 11.2517387795,
			"0.0": 11.4852455641,
			"0.001": 11.8259016076,
			"0.002": 11.5031376952,
			"0.003": 11.9277811217,
			"0.004": 12.9788623723,
			"0.005": 11.6046034769,
			"0.006": 5.29545036215,
			"0.007": 3.82396336794,
			"0.008": 2.39865869923,
			"0.009": 3.39931956378,
			"0.01": 3.07352505115,
			"0.011": 2.92473735014,
			"0.012": 3.24851868926,
			"0.013": 3.24041583218,
			"0.014": 2.90961842741,
			"0.015": 0.673021189705,
			"0.016": 0.0,
			"0.017": 0.0,
			"0.018": 0.0,
			"0.019": 0.0,
			"0.02": 0.0,
			"0.021": 0.0,
			"0.022": 0.0,
			"0.023": 0.0,
			"0.024": 0.0,
			"0.025": 0.0
		}
	}
}
