{
	 "smiles": "CC(=O)N(C1=NC(C=CC(O)=O)=CS1)C1=C(F)C=CC=C1", 
	 "Tm": 469.15, 
	 "num_atms": 32, 
	 "gaussian": { 
		 "optdone": 1, 
		 "sigma_profile": "yes", 
		 "theory": "DFT", 
		 "functional": "B3LYP", 
		 "basiset": "6-31G**", 
		 "properties": { 
			 "R2extent": 7782.9099, 
			 "electric_dipole_moment_norm": 4.54349722901, 
			 "electric_quadrupole_moment_norm": 13.8091905958, 
			 "total_energy": -1373.30428364, 
			 "HOMO_LUMO_gap": 0.15532, 
			 "cosmo_polarized_energy": -18.66, 
			 "cosmo_cavitation_energy": 39.61, 
			 "cosmo_dispersion_energy": -27.24, 
			 "cosmo_repulsion_energy": 2.04, 
			 "cosmo_total_nonelectrostatic_energy": 14.41, 
			 "SMD_solvation_energy": 8.3 
		},
		"coords": [
			{
				"x": -1.3071885275,
				"y": -2.7758772964,
				"z": -1.4677644268,
				"element": "C" 
			},
			{
				"x": -0.0280321428,
				"y": -2.2367268148,
				"z": -0.8774554024,
				"element": "C" 
			},
			{
				"x": 0.888913098,
				"y": -2.936971879,
				"z": -0.5009100798,
				"element": "O" 
			},
			{
				"x": 0.1177065082,
				"y": -0.8182418118,
				"z": -0.8076018372,
				"element": "N" 
			},
			{
				"x": -0.9266499208,
				"y": 0.0802417898,
				"z": -1.0164963724,
				"element": "C" 
			},
			{
				"x": -2.1314913989,
				"y": -0.0513456321,
				"z": -0.5590702852,
				"element": "N" 
			},
			{
				"x": -2.9531636654,
				"y": 0.9751128943,
				"z": -0.9843959904,
				"element": "C" 
			},
			{
				"x": -4.3496129021,
				"y": 1.1089685442,
				"z": -0.5929176158,
				"element": "C" 
			},
			{
				"x": -5.2097620448,
				"y": 0.2622361581,
				"z": 0.0096092495,
				"element": "C" 
			},
			{
				"x": -5.0320455592,
				"y": -1.1657168903,
				"z": 0.3518412567,
				"element": "C" 
			},
			{
				"x": -5.9099348119,
				"y": -1.5172292362,
				"z": 1.3317528411,
				"element": "O" 
			},
			{
				"x": -4.2878111719,
				"y": -1.9778286207,
				"z": -0.1579763301,
				"element": "O" 
			},
			{
				"x": -2.3288605085,
				"y": 1.9334101447,
				"z": -1.7540425557,
				"element": "C" 
			},
			{
				"x": -0.6744014549,
				"y": 1.5304882105,
				"z": -2.0250456295,
				"element": "S" 
			},
			{
				"x": 1.4035567524,
				"y": -0.2929965045,
				"z": -0.4555696509,
				"element": "C" 
			},
			{
				"x": 2.5060814079,
				"y": -0.5154714683,
				"z": -1.2864662015,
				"element": "C" 
			},
			{
				"x": 2.3371074328,
				"y": -1.2201826008,
				"z": -2.4183594543,
				"element": "F" 
			},
			{
				"x": 3.7648464839,
				"y": -0.0184750186,
				"z": -0.976034003,
				"element": "C" 
			},
			{
				"x": 3.9275502264,
				"y": 0.7356065965,
				"z": 0.1870293887,
				"element": "C" 
			},
			{
				"x": 2.8385280356,
				"y": 0.9782625024,
				"z": 1.0270566431,
				"element": "C" 
			},
			{
				"x": 1.5844937112,
				"y": 0.4576235078,
				"z": 0.7091293745,
				"element": "C" 
			},
			{
				"x": -2.1674623694,
				"y": -2.5856023707,
				"z": -0.8226391911,
				"element": "H" 
			},
			{
				"x": -1.5221435674,
				"y": -2.3036083291,
				"z": -2.4317486434,
				"element": "H" 
			},
			{
				"x": -1.1680717355,
				"y": -3.8480475017,
				"z": -1.6068676149,
				"element": "H" 
			},
			{
				"x": -4.7498202847,
				"y": 2.098222372,
				"z": -0.80948817,
				"element": "H" 
			},
			{
				"x": -6.1876094705,
				"y": 0.6523300257,
				"z": 0.2760223361,
				"element": "H" 
			},
			{
				"x": -5.768235008,
				"y": -2.4664048462,
				"z": 1.4834660284,
				"element": "H" 
			},
			{
				"x": -2.7539314605,
				"y": 2.8487648376,
				"z": -2.1420403282,
				"element": "H" 
			},
			{
				"x": 4.5905040515,
				"y": -0.2226377562,
				"z": -1.6488653751,
				"element": "H" 
			},
			{
				"x": 4.9074960486,
				"y": 1.1317496247,
				"z": 0.434693647,
				"element": "H" 
			},
			{
				"x": 2.9663642324,
				"y": 1.5607822522,
				"z": 1.9336885001,
				"element": "H" 
			},
			{
				"x": 0.7317800158,
				"y": 0.6206651169,
				"z": 1.3608658925,
				"element": "H" 
			}
		],
		 "valence_orbital": [ 
			{
				"type": "occ",
				"energy": -0.26885,
				"method": "rhf"
			},
			{
				"type": "occ",
				"energy": -0.26476,
				"method": "rhf"
			},
			{
				"type": "occ",
				"energy": -0.25668,
				"method": "rhf"
			},
			{
				"type": "occ",
				"energy": -0.25083,
				"method": "rhf"
			},
			{
				"type": "occ",
				"energy": -0.2239,
				"method": "rhf"
			},
			{
				"type": "unocc",
				"energy": -0.06858,
				"method": "rhf"
			},
			{
				"type": "unocc",
				"energy": -0.03594,
				"method": "rhf"
			},
			{
				"type": "unocc",
				"energy": -0.02375,
				"method": "rhf"
			},
			{
				"type": "unocc",
				"energy": -0.00614,
				"method": "rhf"
			},
			{
				"type": "unocc",
				"energy": 0.00643,
				"method": "rhf"
			}
		],
		"cosmo_sigma_profile": { 
			"-0.025": 0.0,
			"-0.024": 0.0,
			"-0.023": 0.0,
			"-0.022": 0.0,
			"-0.021": 0.0,
			"-0.02": 0.0,
			"-0.019": 0.0,
			"-0.018": 0.433342350742,
			"-0.017": 0.652391352616,
			"-0.016": 0.915670516261,
			"-0.015": 0.930538128109,
			"-0.014": 1.06302432819,
			"-0.013": 0.633124013095,
			"-0.012": 0.496097757473,
			"-0.011": 0.641065758442,
			"-0.01": 3.39574468266,
			"-0.009": 3.59393760524,
			"-0.008": 5.11961409108,
			"-0.007": 13.072852081,
			"-0.006": 16.8482940909,
			"-0.005": 19.338708325,
			"-0.004": 15.5677022184,
			"-0.003": 17.9332538787,
			"-0.002": 22.4079782252,
			"-0.001": 23.8787022413,
			"0.0": 27.1184258868,
			"0.001": 28.2657083192,
			"0.002": 24.9684331471,
			"0.003": 23.5889913004,
			"0.004": 16.6382250495,
			"0.005": 7.3624692669,
			"0.006": 6.47764518729,
			"0.007": 5.84958787515,
			"0.008": 6.52404941559,
			"0.009": 7.27791337725,
			"0.01": 7.03492279761,
			"0.011": 5.24819182853,
			"0.012": 5.43210998995,
			"0.013": 1.42850005058,
			"0.014": 0.0257953497848,
			"0.015": 0.0,
			"0.016": 0.0,
			"0.017": 0.0,
			"0.018": 0.0,
			"0.019": 0.0,
			"0.02": 0.0,
			"0.021": 0.0,
			"0.022": 0.0,
			"0.023": 0.0,
			"0.024": 0.0,
			"0.025": 0.0
		}
	}
}
