{
	 "smiles": "COC1=CC=C(OC(C)C(O)=O)C=C1", 
	 "Tm": 365.15, 
	 "num_atms": 26, 
	 "gaussian": { 
		 "optdone": 1, 
		 "sigma_profile": "yes", 
		 "theory": "DFT", 
		 "functional": "B3LYP", 
		 "basiset": "6-31G**", 
		 "properties": { 
			 "R2extent": 3949.759, 
			 "electric_dipole_moment_norm": 1.01716144736, 
			 "electric_quadrupole_moment_norm": 12.4782888675, 
			 "total_energy": -689.177954936, 
			 "HOMO_LUMO_gap": 0.19105, 
			 "cosmo_polarized_energy": -13.09, 
			 "cosmo_cavitation_energy": 29.74, 
			 "cosmo_dispersion_energy": -21.5, 
			 "cosmo_repulsion_energy": 1.72, 
			 "cosmo_total_nonelectrostatic_energy": 9.96, 
			 "SMD_solvation_energy": 7.17 
		},
		"coords": [
			{
				"x": -1.6456905361,
				"y": 2.2883302745,
				"z": -3.2601296896,
				"element": "C" 
			},
			{
				"x": -2.5082541108,
				"y": 2.1880320787,
				"z": -2.1413046418,
				"element": "O" 
			},
			{
				"x": -2.0182493527,
				"y": 1.6026836186,
				"z": -1.0046795275,
				"element": "C" 
			},
			{
				"x": -0.7286004479,
				"y": 1.0908099121,
				"z": -0.8595158042,
				"element": "C" 
			},
			{
				"x": -0.3280125653,
				"y": 0.5084259761,
				"z": 0.3522730327,
				"element": "C" 
			},
			{
				"x": -1.2176145661,
				"y": 0.4343982227,
				"z": 1.4239204477,
				"element": "C" 
			},
			{
				"x": -0.9479854052,
				"y": -0.0882729097,
				"z": 2.6700086566,
				"element": "O" 
			},
			{
				"x": 0.2515572781,
				"y": -0.8095349356,
				"z": 2.9246175839,
				"element": "C" 
			},
			{
				"x": 0.3420687622,
				"y": -2.1484257459,
				"z": 2.1957478965,
				"element": "C" 
			},
			{
				"x": 1.5181574567,
				"y": 0.043799379,
				"z": 2.7604491504,
				"element": "C" 
			},
			{
				"x": 1.3416317105,
				"y": 1.298508236,
				"z": 3.2176473334,
				"element": "O" 
			},
			{
				"x": 2.5740654534,
				"y": -0.3643739856,
				"z": 2.3272065852,
				"element": "O" 
			},
			{
				"x": -2.5144838728,
				"y": 0.9502493627,
				"z": 1.2733304888,
				"element": "C" 
			},
			{
				"x": -2.9097453702,
				"y": 1.5275924221,
				"z": 0.0775490066,
				"element": "C" 
			},
			{
				"x": -0.7570891728,
				"y": 2.8939283192,
				"z": -3.0363746775,
				"element": "H" 
			},
			{
				"x": -1.3219761142,
				"y": 1.3004423524,
				"z": -3.6147153524,
				"element": "H" 
			},
			{
				"x": -2.2230507221,
				"y": 2.7782259897,
				"z": -4.0460622902,
				"element": "H" 
			},
			{
				"x": -0.0155033015,
				"y": 1.1317414145,
				"z": -1.674292485,
				"element": "H" 
			},
			{
				"x": 0.681764191,
				"y": 0.1230101476,
				"z": 0.4252197709,
				"element": "H" 
			},
			{
				"x": 0.1915632245,
				"y": -1.0059964363,
				"z": 4.0031475482,
				"element": "H" 
			},
			{
				"x": 1.2436346639,
				"y": -2.6787853445,
				"z": 2.5096711882,
				"element": "H" 
			},
			{
				"x": 0.3810916342,
				"y": -2.026928445,
				"z": 1.1122223821,
				"element": "H" 
			},
			{
				"x": -0.5339093502,
				"y": -2.7515269147,
				"z": 2.4467375377,
				"element": "H" 
			},
			{
				"x": 2.1914227901,
				"y": 1.7546085394,
				"z": 3.0948342758,
				"element": "H" 
			},
			{
				"x": -3.1964190091,
				"y": 0.8890317695,
				"z": 2.1150825259,
				"element": "H" 
			},
			{
				"x": -3.9103732675,
				"y": 1.9291267027,
				"z": -0.0449909427,
				"element": "H" 
			}
		],
		 "valence_orbital": [ 
			{
				"type": "occ",
				"energy": -0.32053,
				"method": "rhf"
			},
			{
				"type": "occ",
				"energy": -0.29421,
				"method": "rhf"
			},
			{
				"type": "occ",
				"energy": -0.2752,
				"method": "rhf"
			},
			{
				"type": "occ",
				"energy": -0.2495,
				"method": "rhf"
			},
			{
				"type": "occ",
				"energy": -0.19907,
				"method": "rhf"
			},
			{
				"type": "unocc",
				"energy": -0.00802,
				"method": "rhf"
			},
			{
				"type": "unocc",
				"energy": 0.00095,
				"method": "rhf"
			},
			{
				"type": "unocc",
				"energy": 0.02545,
				"method": "rhf"
			},
			{
				"type": "unocc",
				"energy": 0.07228,
				"method": "rhf"
			},
			{
				"type": "unocc",
				"energy": 0.08896,
				"method": "rhf"
			}
		],
		"cosmo_sigma_profile": { 
			"-0.025": 0.0,
			"-0.024": 0.0,
			"-0.023": 0.0,
			"-0.022": 0.0,
			"-0.021": 0.0,
			"-0.02": 0.0,
			"-0.019": 0.309844597427,
			"-0.018": 1.04395661104,
			"-0.017": 0.804415662377,
			"-0.016": 1.23104360604,
			"-0.015": 0.379111380346,
			"-0.014": 0.720583248733,
			"-0.013": 0.314362169938,
			"-0.012": 0.910068825811,
			"-0.011": 1.09110428722,
			"-0.01": 0.478989788036,
			"-0.009": 1.62092719316,
			"-0.008": 3.23958850369,
			"-0.007": 3.70069734824,
			"-0.006": 10.1581927553,
			"-0.005": 19.7972446542,
			"-0.004": 23.1816662828,
			"-0.003": 21.1694030376,
			"-0.002": 16.6756424562,
			"-0.001": 14.8497805358,
			"0.0": 11.9229885737,
			"0.001": 10.359980023,
			"0.002": 10.7422650335,
			"0.003": 10.4143517725,
			"0.004": 14.7361293312,
			"0.005": 17.2888869792,
			"0.006": 7.88132233288,
			"0.007": 4.73190012618,
			"0.008": 5.87680825312,
			"0.009": 5.59106836499,
			"0.01": 6.661594276,
			"0.011": 5.77812663271,
			"0.012": 1.53720859296,
			"0.013": 0.0,
			"0.014": 0.0,
			"0.015": 0.0,
			"0.016": 0.0,
			"0.017": 0.0,
			"0.018": 0.0,
			"0.019": 0.0,
			"0.02": 0.0,
			"0.021": 0.0,
			"0.022": 0.0,
			"0.023": 0.0,
			"0.024": 0.0,
			"0.025": 0.0
		}
	}
}
