{
	 "smiles": "CC(=O)NC1=CC=C(Cl)C=C1", 
	 "Tm": 451.15, 
	 "num_atms": 19, 
	 "gaussian": { 
		 "optdone": 1, 
		 "sigma_profile": "yes", 
		 "theory": "DFT", 
		 "functional": "B3LYP", 
		 "basiset": "6-31G**", 
		 "properties": { 
			 "R2extent": 3520.3903, 
			 "electric_dipole_moment_norm": 0.983273746217, 
			 "electric_quadrupole_moment_norm": 17.8280673686, 
			 "total_energy": -899.855824363, 
			 "HOMO_LUMO_gap": 0.19871, 
			 "cosmo_polarized_energy": -11.62, 
			 "cosmo_cavitation_energy": 24.92, 
			 "cosmo_dispersion_energy": -18.6, 
			 "cosmo_repulsion_energy": 1.49, 
			 "cosmo_total_nonelectrostatic_energy": 7.81, 
			 "SMD_solvation_energy": 4.86 
		},
		"coords": [
			{
				"x": 1.3401112376,
				"y": -1.7916407426,
				"z": -0.832711713,
				"element": "C" 
			},
			{
				"x": 0.4816966477,
				"y": -1.6205500191,
				"z": 0.4018582947,
				"element": "C" 
			},
			{
				"x": 0.4567306209,
				"y": -2.4608441201,
				"z": 1.2895082786,
				"element": "O" 
			},
			{
				"x": -0.3072109275,
				"y": -0.4860207451,
				"z": 0.5510616237,
				"element": "N" 
			},
			{
				"x": -0.5658732965,
				"y": 0.6756939133,
				"z": -0.1962572798,
				"element": "C" 
			},
			{
				"x": -1.4743516497,
				"y": 1.5915635472,
				"z": 0.3692989432,
				"element": "C" 
			},
			{
				"x": -1.8093135363,
				"y": 2.7756097318,
				"z": -0.2754979981,
				"element": "C" 
			},
			{
				"x": -1.2349447903,
				"y": 3.0685094433,
				"z": -1.5121771412,
				"element": "C" 
			},
			{
				"x": -1.6499356684,
				"y": 4.5624178288,
				"z": -2.3382888632,
				"element": "Cl" 
			},
			{
				"x": -0.3346557305,
				"y": 2.1801331129,
				"z": -2.0920063741,
				"element": "C" 
			},
			{
				"x": 0.0000268472,
				"y": 0.9916021912,
				"z": -1.4422222085,
				"element": "C" 
			},
			{
				"x": 2.0743416931,
				"y": -0.9853031921,
				"z": -0.9251411746,
				"element": "H" 
			},
			{
				"x": 0.733350951,
				"y": -1.8097524764,
				"z": -1.7433901555,
				"element": "H" 
			},
			{
				"x": 1.8632389954,
				"y": -2.7421038361,
				"z": -0.7323647856,
				"element": "H" 
			},
			{
				"x": -0.8083194175,
				"y": -0.5431526948,
				"z": 1.429956132,
				"element": "H" 
			},
			{
				"x": -1.9251583407,
				"y": 1.3686179345,
				"z": 1.3329517017,
				"element": "H" 
			},
			{
				"x": -2.5112328728,
				"y": 3.4659808791,
				"z": 0.1788665864,
				"element": "H" 
			},
			{
				"x": 0.1107404881,
				"y": 2.4099654821,
				"z": -3.053698586,
				"element": "H" 
			},
			{
				"x": 0.7022587494,
				"y": 0.3296737621,
				"z": -1.9257452808,
				"element": "H" 
			}
		],
		 "valence_orbital": [ 
			{
				"type": "occ",
				"energy": -0.31621,
				"method": "rhf"
			},
			{
				"type": "occ",
				"energy": -0.29989,
				"method": "rhf"
			},
			{
				"type": "occ",
				"energy": -0.27404,
				"method": "rhf"
			},
			{
				"type": "occ",
				"energy": -0.26344,
				"method": "rhf"
			},
			{
				"type": "occ",
				"energy": -0.22447,
				"method": "rhf"
			},
			{
				"type": "unocc",
				"energy": -0.02576,
				"method": "rhf"
			},
			{
				"type": "unocc",
				"energy": -0.02442,
				"method": "rhf"
			},
			{
				"type": "unocc",
				"energy": 0.02476,
				"method": "rhf"
			},
			{
				"type": "unocc",
				"energy": 0.02944,
				"method": "rhf"
			},
			{
				"type": "unocc",
				"energy": 0.08164,
				"method": "rhf"
			}
		],
		"cosmo_sigma_profile": { 
			"-0.025": 0.0,
			"-0.024": 0.0,
			"-0.023": 0.0,
			"-0.022": 0.0,
			"-0.021": 0.0,
			"-0.02": 0.0,
			"-0.019": 0.0,
			"-0.018": 0.0,
			"-0.017": 0.0,
			"-0.016": 0.0,
			"-0.015": 0.0879861598153,
			"-0.014": 1.06331037134,
			"-0.013": 1.28754580868,
			"-0.012": 1.13031741815,
			"-0.011": 0.62629544179,
			"-0.01": 1.6164889693,
			"-0.009": 0.922244262242,
			"-0.008": 2.60984962745,
			"-0.007": 10.9226069808,
			"-0.006": 14.4213142031,
			"-0.005": 12.3063138393,
			"-0.004": 10.5902458725,
			"-0.003": 11.0272299658,
			"-0.002": 12.3607184734,
			"-0.001": 12.941298902,
			"0.0": 11.7472477214,
			"0.001": 14.4744053036,
			"0.002": 16.8768210938,
			"0.003": 18.3528124822,
			"0.004": 17.5088331489,
			"0.005": 9.24658408302,
			"0.006": 1.40616877061,
			"0.007": 1.61800374293,
			"0.008": 0.571679301,
			"0.009": 2.06318623046,
			"0.01": 1.21619075206,
			"0.011": 1.31886309292,
			"0.012": 3.25463493575,
			"0.013": 5.40563547322,
			"0.014": 2.32289130488,
			"0.015": 0.070784808717,
			"0.016": 0.0,
			"0.017": 0.0,
			"0.018": 0.0,
			"0.019": 0.0,
			"0.02": 0.0,
			"0.021": 0.0,
			"0.022": 0.0,
			"0.023": 0.0,
			"0.024": 0.0,
			"0.025": 0.0
		}
	}
}
