{
	 "smiles": "OC(=O)C1CCCCN1C(=O)C1=CC=CC=C1", 
	 "Tm": 402.15, 
	 "num_atms": 32, 
	 "gaussian": { 
		 "optdone": 1, 
		 "sigma_profile": "yes", 
		 "theory": "DFT", 
		 "functional": "B3LYP", 
		 "basiset": "6-31G**", 
		 "properties": { 
			 "R2extent": 3716.1275, 
			 "electric_dipole_moment_norm": 3.9013107605, 
			 "electric_quadrupole_moment_norm": 21.5700406096, 
			 "total_energy": -784.849988031, 
			 "HOMO_LUMO_gap": 0.21477, 
			 "cosmo_polarized_energy": -19.38, 
			 "cosmo_cavitation_energy": 33.51, 
			 "cosmo_dispersion_energy": -23.28, 
			 "cosmo_repulsion_energy": 1.79, 
			 "cosmo_total_nonelectrostatic_energy": 12.03, 
			 "SMD_solvation_energy": 5.38 
		},
		"coords": [
			{
				"x": 0.9131335075,
				"y": 1.8892913465,
				"z": -0.175473065,
				"element": "O" 
			},
			{
				"x": -0.2814738927,
				"y": 1.697326323,
				"z": 0.4259381862,
				"element": "C" 
			},
			{
				"x": -0.4926808614,
				"y": 2.1398944823,
				"z": 1.5271214653,
				"element": "O" 
			},
			{
				"x": -1.3972547223,
				"y": 1.0137457873,
				"z": -0.3941182891,
				"element": "C" 
			},
			{
				"x": -1.1830801004,
				"y": 0.8712052406,
				"z": -1.9170336388,
				"element": "C" 
			},
			{
				"x": -2.3084044195,
				"y": -0.0095931255,
				"z": -2.5232723303,
				"element": "C" 
			},
			{
				"x": -3.5940297551,
				"y": 0.0725016391,
				"z": -1.6857156123,
				"element": "C" 
			},
			{
				"x": -3.3352689166,
				"y": -0.4286554543,
				"z": -0.2395984936,
				"element": "C" 
			},
			{
				"x": -1.9177610359,
				"y": -0.2568453841,
				"z": 0.1470141562,
				"element": "N" 
			},
			{
				"x": -1.15398419,
				"y": -1.4174700523,
				"z": 0.2302395548,
				"element": "C" 
			},
			{
				"x": -1.6409996935,
				"y": -2.5326802642,
				"z": 0.0717806359,
				"element": "O" 
			},
			{
				"x": 0.3055369947,
				"y": -1.2929055329,
				"z": 0.5752980951,
				"element": "C" 
			},
			{
				"x": 1.2452207327,
				"y": -1.8854488683,
				"z": -0.2819406297,
				"element": "C" 
			},
			{
				"x": 2.5993362088,
				"y": -1.876923258,
				"z": 0.047728199,
				"element": "C" 
			},
			{
				"x": 3.0208426516,
				"y": -1.3107546501,
				"z": 1.2542227446,
				"element": "C" 
			},
			{
				"x": 2.0852173321,
				"y": -0.7531167352,
				"z": 2.1262616198,
				"element": "C" 
			},
			{
				"x": 0.7307924262,
				"y": -0.7397901576,
				"z": 1.7899942509,
				"element": "C" 
			},
			{
				"x": 0.9662395273,
				"y": 1.3827469441,
				"z": -0.9981344813,
				"element": "H" 
			},
			{
				"x": -2.2157026799,
				"y": 1.7243061356,
				"z": -0.2413278121,
				"element": "H" 
			},
			{
				"x": -0.2155692714,
				"y": 0.3982917198,
				"z": -2.1380097749,
				"element": "H" 
			},
			{
				"x": -1.169349528,
				"y": 1.8674774594,
				"z": -2.3748418157,
				"element": "H" 
			},
			{
				"x": -2.5000135555,
				"y": 0.2876365429,
				"z": -3.5588858235,
				"element": "H" 
			},
			{
				"x": -1.9787288175,
				"y": -1.0537786825,
				"z": -2.5518223886,
				"element": "H" 
			},
			{
				"x": -4.385112696,
				"y": -0.5297339082,
				"z": -2.1435506084,
				"element": "H" 
			},
			{
				"x": -3.9617376486,
				"y": 1.1062476627,
				"z": -1.675479579,
				"element": "H" 
			},
			{
				"x": -3.5506051206,
				"y": -1.4924398266,
				"z": -0.1540520013,
				"element": "H" 
			},
			{
				"x": -3.9591347883,
				"y": 0.1155482479,
				"z": 0.4787063591,
				"element": "H" 
			},
			{
				"x": 0.9036150651,
				"y": -2.3634398214,
				"z": -1.1954302041,
				"element": "H" 
			},
			{
				"x": 3.3232179822,
				"y": -2.3250048117,
				"z": -0.6269224702,
				"element": "H" 
			},
			{
				"x": 4.0751166491,
				"y": -1.3111956757,
				"z": 1.5155202222,
				"element": "H" 
			},
			{
				"x": 2.4074476937,
				"y": -0.3225550966,
				"z": 3.0694520918,
				"element": "H" 
			},
			{
				"x": 0.0068749224,
				"y": -0.2922882258,
				"z": 2.461731437,
				"element": "H" 
			}
		],
		 "valence_orbital": [ 
			{
				"type": "occ",
				"energy": -0.27803,
				"method": "rhf"
			},
			{
				"type": "occ",
				"energy": -0.27062,
				"method": "rhf"
			},
			{
				"type": "occ",
				"energy": -0.25702,
				"method": "rhf"
			},
			{
				"type": "occ",
				"energy": -0.24921,
				"method": "rhf"
			},
			{
				"type": "occ",
				"energy": -0.24233,
				"method": "rhf"
			},
			{
				"type": "unocc",
				"energy": -0.02756,
				"method": "rhf"
			},
			{
				"type": "unocc",
				"energy": -0.01443,
				"method": "rhf"
			},
			{
				"type": "unocc",
				"energy": -0.00093,
				"method": "rhf"
			},
			{
				"type": "unocc",
				"energy": 0.02932,
				"method": "rhf"
			},
			{
				"type": "unocc",
				"energy": 0.04968,
				"method": "rhf"
			}
		],
		"cosmo_sigma_profile": { 
			"-0.025": 0.0,
			"-0.024": 0.0,
			"-0.023": 0.0,
			"-0.022": 0.0,
			"-0.021": 0.0,
			"-0.02": 0.0,
			"-0.019": 0.0,
			"-0.018": 0.137297267667,
			"-0.017": 0.47310829188,
			"-0.016": 0.277066129977,
			"-0.015": 0.597004417728,
			"-0.014": 0.885023280564,
			"-0.013": 0.751994358328,
			"-0.012": 0.633249530064,
			"-0.011": 0.823325093424,
			"-0.01": 1.53907960762,
			"-0.009": 1.06365331612,
			"-0.008": 4.05747913204,
			"-0.007": 7.10209913059,
			"-0.006": 14.1567804236,
			"-0.005": 20.8067921748,
			"-0.004": 25.9973568037,
			"-0.003": 25.656316366,
			"-0.002": 24.0819015273,
			"-0.001": 20.6391086737,
			"0.0": 14.682355124,
			"0.001": 11.0026009751,
			"0.002": 10.3526731535,
			"0.003": 11.5584646513,
			"0.004": 10.5204110151,
			"0.005": 9.08827398881,
			"0.006": 5.35074765037,
			"0.007": 5.97136580527,
			"0.008": 5.08653125765,
			"0.009": 4.55733169733,
			"0.01": 5.5772228956,
			"0.011": 6.6875968639,
			"0.012": 6.67775077126,
			"0.013": 5.6459084709,
			"0.014": 1.34713678329,
			"0.015": 0.00951560939383,
			"0.016": 0.0,
			"0.017": 0.0,
			"0.018": 0.0,
			"0.019": 0.0,
			"0.02": 0.0,
			"0.021": 0.0,
			"0.022": 0.0,
			"0.023": 0.0,
			"0.024": 0.0,
			"0.025": 0.0
		}
	}
}
