{
	 "smiles": "BrC1=CN(N=C1)C1=NC=CS1", 
	 "Tm": 352.15, 
	 "num_atms": 15, 
	 "gaussian": { 
		 "optdone": 1, 
		 "sigma_profile": "yes", 
		 "theory": "DFT", 
		 "functional": "B3LYP", 
		 "basiset": "6-31G**", 
		 "properties": { 
			 "R2extent": 3992.7279, 
			 "electric_dipole_moment_norm": 2.89327072705, 
			 "electric_quadrupole_moment_norm": 11.1878652973, 
			 "total_energy": -3364.83758772, 
			 "HOMO_LUMO_gap": 0.17781, 
			 "cosmo_polarized_energy": -11.27, 
			 "cosmo_cavitation_energy": 24.15, 
			 "cosmo_dispersion_energy": -19.1, 
			 "cosmo_repulsion_energy": 1.47, 
			 "cosmo_total_nonelectrostatic_energy": 6.53, 
			 "SMD_solvation_energy": 1.39 
		},
		"coords": [
			{
				"x": -4.1604056154,
				"y": -0.3016341159,
				"z": -0.7215529914,
				"element": "Br" 
			},
			{
				"x": -2.4951495291,
				"y": 0.372273534,
				"z": -0.1689224354,
				"element": "C" 
			},
			{
				"x": -1.2914318232,
				"y": -0.2892398231,
				"z": -0.1843874176,
				"element": "C" 
			},
			{
				"x": -0.3689764587,
				"y": 0.5997980848,
				"z": 0.3083320697,
				"element": "N" 
			},
			{
				"x": -0.9291095936,
				"y": 1.7973775646,
				"z": 0.6375171544,
				"element": "N" 
			},
			{
				"x": -2.2136652841,
				"y": 1.6613766513,
				"z": 0.349628635,
				"element": "C" 
			},
			{
				"x": 1.0052132501,
				"y": 0.3896513283,
				"z": 0.4878683818,
				"element": "C" 
			},
			{
				"x": 1.8177751636,
				"y": 1.2793331978,
				"z": 0.961367373,
				"element": "N" 
			},
			{
				"x": 3.0968187657,
				"y": 0.774761825,
				"z": 1.0167328457,
				"element": "C" 
			},
			{
				"x": 3.2654602015,
				"y": -0.5061524399,
				"z": 0.5842452818,
				"element": "C" 
			},
			{
				"x": 1.7374867202,
				"y": -1.1584295215,
				"z": 0.0634356234,
				"element": "S" 
			},
			{
				"x": -1.0372054362,
				"y": -1.2893172543,
				"z": -0.4987420755,
				"element": "H" 
			},
			{
				"x": -2.9018768914,
				"y": 2.4779023634,
				"z": 0.5170513615,
				"element": "H" 
			},
			{
				"x": 3.8919181854,
				"y": 1.4068323213,
				"z": 1.3937420114,
				"element": "H" 
			},
			{
				"x": 4.1661483453,
				"y": -1.1006337157,
				"z": 0.5366841821,
				"element": "H" 
			}
		],
		 "valence_orbital": [ 
			{
				"type": "occ",
				"energy": -0.29575,
				"method": "rhf"
			},
			{
				"type": "occ",
				"energy": -0.29519,
				"method": "rhf"
			},
			{
				"type": "occ",
				"energy": -0.28525,
				"method": "rhf"
			},
			{
				"type": "occ",
				"energy": -0.25933,
				"method": "rhf"
			},
			{
				"type": "occ",
				"energy": -0.23366,
				"method": "rhf"
			},
			{
				"type": "unocc",
				"energy": -0.05585,
				"method": "rhf"
			},
			{
				"type": "unocc",
				"energy": -0.00522,
				"method": "rhf"
			},
			{
				"type": "unocc",
				"energy": 0.00787,
				"method": "rhf"
			},
			{
				"type": "unocc",
				"energy": 0.01164,
				"method": "rhf"
			},
			{
				"type": "unocc",
				"energy": 0.04609,
				"method": "rhf"
			}
		],
		"cosmo_sigma_profile": { 
			"-0.025": 0.0,
			"-0.024": 0.0,
			"-0.023": 0.0,
			"-0.022": 0.0,
			"-0.021": 0.0,
			"-0.02": 0.0,
			"-0.019": 0.0,
			"-0.018": 0.0,
			"-0.017": 0.0,
			"-0.016": 0.0,
			"-0.015": 0.0,
			"-0.014": 0.0,
			"-0.013": 0.0,
			"-0.012": 0.280430300546,
			"-0.011": 1.0997269439,
			"-0.01": 3.18577748535,
			"-0.009": 5.83385471086,
			"-0.008": 6.46972681255,
			"-0.007": 7.15134594077,
			"-0.006": 7.2358846226,
			"-0.005": 9.24855271132,
			"-0.004": 9.12404576126,
			"-0.003": 10.715040672,
			"-0.002": 12.188710684,
			"-0.001": 16.4163269727,
			"0.0": 18.2091454317,
			"0.001": 21.1692703902,
			"0.002": 21.3937927641,
			"0.003": 15.8494967718,
			"0.004": 12.7780789407,
			"0.005": 2.51246662507,
			"0.006": 2.7368949064,
			"0.007": 2.0924941288,
			"0.008": 1.8601747294,
			"0.009": 1.98633220257,
			"0.01": 1.60729217343,
			"0.011": 1.83400028298,
			"0.012": 1.42938569401,
			"0.013": 2.03923728947,
			"0.014": 1.19274743422,
			"0.015": 1.51856586945,
			"0.016": 1.35878802941,
			"0.017": 0.943889916827,
			"0.018": 0.129238970536,
			"0.019": 0.0,
			"0.02": 0.0,
			"0.021": 0.0,
			"0.022": 0.0,
			"0.023": 0.0,
			"0.024": 0.0,
			"0.025": 0.0
		}
	}
}
