{
	 "smiles": "ClC1=CC2=C(OC3=C2C=CC(Cl)=C3Cl)C(Cl)=C1", 
	 "Tm": 437.15, 
	 "num_atms": 21, 
	 "gaussian": { 
		 "optdone": 1, 
		 "sigma_profile": "yes", 
		 "theory": "DFT", 
		 "functional": "B3LYP", 
		 "basiset": "6-31G**", 
		 "properties": { 
			 "R2extent": 7251.2847, 
			 "electric_dipole_moment_norm": 2.54335323146, 
			 "electric_quadrupole_moment_norm": 11.1772790969, 
			 "total_energy": -2375.6785623, 
			 "HOMO_LUMO_gap": 0.17684, 
			 "cosmo_polarized_energy": -6.63, 
			 "cosmo_cavitation_energy": 33.51, 
			 "cosmo_dispersion_energy": -25.06, 
			 "cosmo_repulsion_energy": 1.93, 
			 "cosmo_total_nonelectrostatic_energy": 10.37, 
			 "SMD_solvation_energy": 4.51 
		},
		"coords": [
			{
				"x": -3.2572905972,
				"y": 4.1055992256,
				"z": -0.9643381443,
				"element": "Cl" 
			},
			{
				"x": -2.3471442674,
				"y": 2.7349524007,
				"z": -0.3508116281,
				"element": "C" 
			},
			{
				"x": -1.8062302224,
				"y": 1.8223907803,
				"z": -1.252036895,
				"element": "C" 
			},
			{
				"x": -1.0884699862,
				"y": 0.7448449929,
				"z": -0.7239565157,
				"element": "C" 
			},
			{
				"x": -0.9348837404,
				"y": 0.6131890323,
				"z": 0.6684389902,
				"element": "C" 
			},
			{
				"x": -0.2051776061,
				"y": -0.4979100722,
				"z": 1.0032997551,
				"element": "O" 
			},
			{
				"x": 0.1213762767,
				"y": -1.098463837,
				"z": -0.1836034949,
				"element": "C" 
			},
			{
				"x": -0.3859206066,
				"y": -0.3934838447,
				"z": -1.2893742769,
				"element": "C" 
			},
			{
				"x": -0.140690636,
				"y": -0.875203138,
				"z": -2.5791040405,
				"element": "C" 
			},
			{
				"x": 0.600847603,
				"y": -2.041790577,
				"z": -2.7241174507,
				"element": "C" 
			},
			{
				"x": 1.0992002097,
				"y": -2.7317964952,
				"z": -1.6047072897,
				"element": "C" 
			},
			{
				"x": 2.0209270597,
				"y": -4.1884234183,
				"z": -1.8712986336,
				"element": "Cl" 
			},
			{
				"x": 0.8670593901,
				"y": -2.2694348691,
				"z": -0.3014817146,
				"element": "C" 
			},
			{
				"x": 1.454007246,
				"y": -3.0743403961,
				"z": 1.1174001429,
				"element": "Cl" 
			},
			{
				"x": -1.4787038904,
				"y": 1.5296472449,
				"z": 1.5614691679,
				"element": "C" 
			},
			{
				"x": -1.2706801275,
				"y": 1.3383482391,
				"z": 3.2794027757,
				"element": "Cl" 
			},
			{
				"x": -2.1951853552,
				"y": 2.6056113807,
				"z": 1.0381221926,
				"element": "C" 
			},
			{
				"x": -1.9423187805,
				"y": 1.9518802474,
				"z": -2.3191937126,
				"element": "H" 
			},
			{
				"x": -0.5172648153,
				"y": -0.3560525273,
				"z": -3.454173657,
				"element": "H" 
			},
			{
				"x": 0.8089620944,
				"y": -2.4421574013,
				"z": -3.709461373,
				"element": "H" 
			},
			{
				"x": -2.6319192484,
				"y": 3.3377930323,
				"z": 1.7058258023,
				"element": "H" 
			}
		],
		 "valence_orbital": [ 
			{
				"type": "occ",
				"energy": -0.31945,
				"method": "rhf"
			},
			{
				"type": "occ",
				"energy": -0.29029,
				"method": "rhf"
			},
			{
				"type": "occ",
				"energy": -0.27237,
				"method": "rhf"
			},
			{
				"type": "occ",
				"energy": -0.24844,
				"method": "rhf"
			},
			{
				"type": "occ",
				"energy": -0.24415,
				"method": "rhf"
			},
			{
				"type": "unocc",
				"energy": -0.06731,
				"method": "rhf"
			},
			{
				"type": "unocc",
				"energy": -0.03228,
				"method": "rhf"
			},
			{
				"type": "unocc",
				"energy": -0.01917,
				"method": "rhf"
			},
			{
				"type": "unocc",
				"energy": -0.00939,
				"method": "rhf"
			},
			{
				"type": "unocc",
				"energy": -0.00225,
				"method": "rhf"
			}
		],
		"cosmo_sigma_profile": { 
			"-0.025": 0.0,
			"-0.024": 0.0,
			"-0.023": 0.0,
			"-0.022": 0.0,
			"-0.021": 0.0,
			"-0.02": 0.0,
			"-0.019": 0.0,
			"-0.018": 0.0,
			"-0.017": 0.0,
			"-0.016": 0.0,
			"-0.015": 0.0,
			"-0.014": 0.0,
			"-0.013": 0.0,
			"-0.012": 0.0,
			"-0.011": 0.0,
			"-0.01": 0.0,
			"-0.009": 2.70830521675,
			"-0.008": 8.00137144546,
			"-0.007": 7.02247455544,
			"-0.006": 7.55975055716,
			"-0.005": 5.71833816721,
			"-0.004": 8.33607578485,
			"-0.003": 13.6917225752,
			"-0.002": 20.9541592323,
			"-0.001": 33.0023172854,
			"0.0": 39.1706498741,
			"0.001": 36.3879615299,
			"0.002": 26.9971333386,
			"0.003": 32.1535994766,
			"0.004": 28.9306788026,
			"0.005": 7.0279864808,
			"0.006": 2.06604692475,
			"0.007": 1.10675137984,
			"0.008": 0.0,
			"0.009": 0.0,
			"0.01": 0.0,
			"0.011": 0.0,
			"0.012": 0.0,
			"0.013": 0.0,
			"0.014": 0.0,
			"0.015": 0.0,
			"0.016": 0.0,
			"0.017": 0.0,
			"0.018": 0.0,
			"0.019": 0.0,
			"0.02": 0.0,
			"0.021": 0.0,
			"0.022": 0.0,
			"0.023": 0.0,
			"0.024": 0.0,
			"0.025": 0.0
		}
	}
}
