{
	 "smiles": "FC1=CC=C(Br)C2=CC=CC=C12", 
	 "Tm": 308.15, 
	 "num_atms": 18, 
	 "gaussian": { 
		 "optdone": 1, 
		 "sigma_profile": "yes", 
		 "theory": "DFT", 
		 "functional": "B3LYP", 
		 "basiset": "6-31G**", 
		 "properties": { 
			 "R2extent": 3291.1441, 
			 "electric_dipole_moment_norm": 0.780426357833, 
			 "electric_quadrupole_moment_norm": 10.7154143938, 
			 "total_energy": -3055.92874722, 
			 "HOMO_LUMO_gap": 0.16897, 
			 "cosmo_polarized_energy": -3.96, 
			 "cosmo_cavitation_energy": 24.43, 
			 "cosmo_dispersion_energy": -18.68, 
			 "cosmo_repulsion_energy": 1.43, 
			 "cosmo_total_nonelectrostatic_energy": 7.18, 
			 "SMD_solvation_energy": 3.33 
		},
		"coords": [
			{
				"x": -0.60695289,
				"y": 0.6174321587,
				"z": -2.7266605431,
				"element": "F" 
			},
			{
				"x": 0.068138821,
				"y": 0.6558684845,
				"z": -1.5575680702,
				"element": "C" 
			},
			{
				"x": 0.6262069034,
				"y": 1.8343336742,
				"z": -1.1394655261,
				"element": "C" 
			},
			{
				"x": 1.3301303216,
				"y": 1.8600400111,
				"z": 0.0863857088,
				"element": "C" 
			},
			{
				"x": 1.4502382073,
				"y": 0.7180845642,
				"z": 0.8435977506,
				"element": "C" 
			},
			{
				"x": 2.4189703679,
				"y": 0.8339395393,
				"z": 2.4920312898,
				"element": "Br" 
			},
			{
				"x": 0.8790923139,
				"y": -0.5225451888,
				"z": 0.4321301833,
				"element": "C" 
			},
			{
				"x": 0.9702241274,
				"y": -1.7319190452,
				"z": 1.1704429465,
				"element": "C" 
			},
			{
				"x": 0.390318874,
				"y": -2.8908761353,
				"z": 0.7046054936,
				"element": "C" 
			},
			{
				"x": -0.3121115065,
				"y": -2.905951888,
				"z": -0.5234502068,
				"element": "C" 
			},
			{
				"x": -0.4231944651,
				"y": -1.7550172832,
				"z": -1.2689936403,
				"element": "C" 
			},
			{
				"x": 0.1642548682,
				"y": -0.5466328676,
				"z": -0.813555841,
				"element": "C" 
			},
			{
				"x": 0.5247389443,
				"y": 2.7276391585,
				"z": -1.7451189824,
				"element": "H" 
			},
			{
				"x": 1.7762299518,
				"y": 2.786575322,
				"z": 0.4280172077,
				"element": "H" 
			},
			{
				"x": 1.5069558077,
				"y": -1.7269388024,
				"z": 2.1119265107,
				"element": "H" 
			},
			{
				"x": 0.4731072209,
				"y": -3.8039437821,
				"z": 1.2866581057,
				"element": "H" 
			},
			{
				"x": -0.7633651954,
				"y": -3.8284919644,
				"z": -0.8760092315,
				"element": "H" 
			},
			{
				"x": -0.9576826725,
				"y": -1.7480959554,
				"z": -2.2122731554,
				"element": "H" 
			}
		],
		 "valence_orbital": [ 
			{
				"type": "occ",
				"energy": -0.31161,
				"method": "rhf"
			},
			{
				"type": "occ",
				"energy": -0.2898,
				"method": "rhf"
			},
			{
				"type": "occ",
				"energy": -0.27386,
				"method": "rhf"
			},
			{
				"type": "occ",
				"energy": -0.26013,
				"method": "rhf"
			},
			{
				"type": "occ",
				"energy": -0.21999,
				"method": "rhf"
			},
			{
				"type": "unocc",
				"energy": -0.05102,
				"method": "rhf"
			},
			{
				"type": "unocc",
				"energy": -0.02575,
				"method": "rhf"
			},
			{
				"type": "unocc",
				"energy": 0.00562,
				"method": "rhf"
			},
			{
				"type": "unocc",
				"energy": 0.02516,
				"method": "rhf"
			},
			{
				"type": "unocc",
				"energy": 0.08531,
				"method": "rhf"
			}
		],
		"cosmo_sigma_profile": { 
			"-0.025": 0.0,
			"-0.024": 0.0,
			"-0.023": 0.0,
			"-0.022": 0.0,
			"-0.021": 0.0,
			"-0.02": 0.0,
			"-0.019": 0.0,
			"-0.018": 0.0,
			"-0.017": 0.0,
			"-0.016": 0.0,
			"-0.015": 0.0,
			"-0.014": 0.0,
			"-0.013": 0.0,
			"-0.012": 0.0,
			"-0.011": 0.0,
			"-0.01": 0.0,
			"-0.009": 0.0,
			"-0.008": 1.74432044618,
			"-0.007": 5.09647837173,
			"-0.006": 10.1881067547,
			"-0.005": 11.8463917581,
			"-0.004": 11.2223020677,
			"-0.003": 9.61252331543,
			"-0.002": 10.5527082235,
			"-0.001": 12.6862762336,
			"0.0": 19.5154836885,
			"0.001": 25.3284873032,
			"0.002": 29.4971579113,
			"0.003": 25.3798002282,
			"0.004": 23.697756208,
			"0.005": 4.25456248071,
			"0.006": 0.0,
			"0.007": 0.0,
			"0.008": 0.0,
			"0.009": 0.0,
			"0.01": 0.0,
			"0.011": 0.0,
			"0.012": 0.0,
			"0.013": 0.0,
			"0.014": 0.0,
			"0.015": 0.0,
			"0.016": 0.0,
			"0.017": 0.0,
			"0.018": 0.0,
			"0.019": 0.0,
			"0.02": 0.0,
			"0.021": 0.0,
			"0.022": 0.0,
			"0.023": 0.0,
			"0.024": 0.0,
			"0.025": 0.0
		}
	}
}
