{
	 "smiles": "OCCSC1=C(C=CC=C1)C(O)=O", 
	 "Tm": 399.15, 
	 "num_atms": 23, 
	 "gaussian": { 
		 "optdone": 1, 
		 "sigma_profile": "yes", 
		 "theory": "DFT", 
		 "functional": "B3LYP", 
		 "basiset": "6-31G**", 
		 "properties": { 
			 "R2extent": 3608.0362, 
			 "electric_dipole_moment_norm": 4.18423313882, 
			 "electric_quadrupole_moment_norm": 14.6010832019, 
			 "total_energy": -972.832803461, 
			 "HOMO_LUMO_gap": 0.17315, 
			 "cosmo_polarized_energy": -17.88, 
			 "cosmo_cavitation_energy": 28.13, 
			 "cosmo_dispersion_energy": -20.81, 
			 "cosmo_repulsion_energy": 1.62, 
			 "cosmo_total_nonelectrostatic_energy": 8.94, 
			 "SMD_solvation_energy": 5.31 
		},
		"coords": [
			{
				"x": 1.0054864698,
				"y": 3.282684669,
				"z": 1.9890128932,
				"element": "O" 
			},
			{
				"x": 2.2436591383,
				"y": 2.640205682,
				"z": 2.2162690166,
				"element": "C" 
			},
			{
				"x": 2.2335107086,
				"y": 1.1615444193,
				"z": 1.8217799919,
				"element": "C" 
			},
			{
				"x": 2.069775094,
				"y": 1.0342313685,
				"z": -0.0126095672,
				"element": "S" 
			},
			{
				"x": 0.9596639238,
				"y": -0.3298188974,
				"z": -0.3159988132,
				"element": "C" 
			},
			{
				"x": 0.9609405055,
				"y": -1.5748610403,
				"z": 0.3537195335,
				"element": "C" 
			},
			{
				"x": 0.0346833464,
				"y": -2.5606582686,
				"z": -0.034394385,
				"element": "C" 
			},
			{
				"x": -0.859237448,
				"y": -2.3514886244,
				"z": -1.0793373853,
				"element": "C" 
			},
			{
				"x": -0.8490855614,
				"y": -1.126438931,
				"z": -1.7472381873,
				"element": "C" 
			},
			{
				"x": 0.0399192219,
				"y": -0.1282150248,
				"z": -1.3584860247,
				"element": "C" 
			},
			{
				"x": 1.9769695007,
				"y": -1.9471567823,
				"z": 1.3963403831,
				"element": "C" 
			},
			{
				"x": 1.5053461125,
				"y": -2.7059313714,
				"z": 2.4257350458,
				"element": "O" 
			},
			{
				"x": 3.1479969552,
				"y": -1.6575632999,
				"z": 1.3546992098,
				"element": "O" 
			},
			{
				"x": 0.8095621654,
				"y": 3.1862876605,
				"z": 1.0456404924,
				"element": "H" 
			},
			{
				"x": 3.0747717902,
				"y": 3.157459709,
				"z": 1.7092674265,
				"element": "H" 
			},
			{
				"x": 2.4339204125,
				"y": 2.7064799955,
				"z": 3.293151666,
				"element": "H" 
			},
			{
				"x": 1.3696920991,
				"y": 0.6706635819,
				"z": 2.2777193169,
				"element": "H" 
			},
			{
				"x": 3.1451487457,
				"y": 0.6495026309,
				"z": 2.134630158,
				"element": "H" 
			},
			{
				"x": 0.0564785636,
				"y": -3.5291222779,
				"z": 0.4584621272,
				"element": "H" 
			},
			{
				"x": -1.5498286436,
				"y": -3.1362464777,
				"z": -1.3710356306,
				"element": "H" 
			},
			{
				"x": -1.5435949165,
				"y": -0.9390849843,
				"z": -2.5607731942,
				"element": "H" 
			},
			{
				"x": 0.0210263297,
				"y": 0.8357528157,
				"z": -1.8572096925,
				"element": "H" 
			},
			{
				"x": 0.5385954866,
				"y": -2.7381265524,
				"z": 2.3922556191,
				"element": "H" 
			}
		],
		 "valence_orbital": [ 
			{
				"type": "occ",
				"energy": -0.2974,
				"method": "rhf"
			},
			{
				"type": "occ",
				"energy": -0.28226,
				"method": "rhf"
			},
			{
				"type": "occ",
				"energy": -0.2708,
				"method": "rhf"
			},
			{
				"type": "occ",
				"energy": -0.26991,
				"method": "rhf"
			},
			{
				"type": "occ",
				"energy": -0.22837,
				"method": "rhf"
			},
			{
				"type": "unocc",
				"energy": -0.05522,
				"method": "rhf"
			},
			{
				"type": "unocc",
				"energy": -0.03155,
				"method": "rhf"
			},
			{
				"type": "unocc",
				"energy": 0.02679,
				"method": "rhf"
			},
			{
				"type": "unocc",
				"energy": 0.02977,
				"method": "rhf"
			},
			{
				"type": "unocc",
				"energy": 0.05751,
				"method": "rhf"
			}
		],
		"cosmo_sigma_profile": { 
			"-0.025": 0.0,
			"-0.024": 0.0,
			"-0.023": 0.0,
			"-0.022": 0.0,
			"-0.021": 0.0,
			"-0.02": 0.0,
			"-0.019": 0.112398284529,
			"-0.018": 0.69574804363,
			"-0.017": 0.757641540521,
			"-0.016": 1.45450360651,
			"-0.015": 0.669781349571,
			"-0.014": 0.694533806302,
			"-0.013": 1.14886524277,
			"-0.012": 1.611677041,
			"-0.011": 1.93895584933,
			"-0.01": 1.33282582137,
			"-0.009": 2.17899095371,
			"-0.008": 2.93847393409,
			"-0.007": 8.80422077006,
			"-0.006": 13.6286334346,
			"-0.005": 18.8742793018,
			"-0.004": 19.0739013756,
			"-0.003": 13.9124454729,
			"-0.002": 13.6840045771,
			"-0.001": 10.959186177,
			"0.0": 11.9891365095,
			"0.001": 11.6660470062,
			"0.002": 13.5735127997,
			"0.003": 16.5264583121,
			"0.004": 7.02765121964,
			"0.005": 5.49568675948,
			"0.006": 5.21585566824,
			"0.007": 4.48093962903,
			"0.008": 5.27587045347,
			"0.009": 5.45662195131,
			"0.01": 6.08911357286,
			"0.011": 5.70578888511,
			"0.012": 5.96347487386,
			"0.013": 3.14148630164,
			"0.014": 2.40519279395,
			"0.015": 0.329610986387,
			"0.016": 0.0,
			"0.017": 0.0,
			"0.018": 0.0,
			"0.019": 0.0,
			"0.02": 0.0,
			"0.021": 0.0,
			"0.022": 0.0,
			"0.023": 0.0,
			"0.024": 0.0,
			"0.025": 0.0
		}
	}
}
