{
	 "smiles": "CCCC1=C(NC(C)=C1C(C)=O)C(O)=O", 
	 "Tm": 488.15, 
	 "num_atms": 30, 
	 "gaussian": { 
		 "optdone": 1, 
		 "sigma_profile": "yes", 
		 "theory": "DFT", 
		 "functional": "B3LYP", 
		 "basiset": "6-31G**", 
		 "properties": { 
			 "R2extent": 3579.7979, 
			 "electric_dipole_moment_norm": 1.87663239341, 
			 "electric_quadrupole_moment_norm": 11.2598629401, 
			 "total_energy": -708.675935165, 
			 "HOMO_LUMO_gap": 0.18946, 
			 "cosmo_polarized_energy": -13.84, 
			 "cosmo_cavitation_energy": 32.28, 
			 "cosmo_dispersion_energy": -22.82, 
			 "cosmo_repulsion_energy": 1.8, 
			 "cosmo_total_nonelectrostatic_energy": 11.26, 
			 "SMD_solvation_energy": 7.02 
		},
		"coords": [
			{
				"x": -2.6878998513,
				"y": -1.1361619169,
				"z": 1.1598498834,
				"element": "C" 
			},
			{
				"x": -2.7395151082,
				"y": -0.1964272706,
				"z": -0.0482933229,
				"element": "C" 
			},
			{
				"x": -1.4316696588,
				"y": -0.1456294661,
				"z": -0.8775715551,
				"element": "C" 
			},
			{
				"x": -0.2512635642,
				"y": 0.4289195093,
				"z": -0.1369450483,
				"element": "C" 
			},
			{
				"x": 0.7385821913,
				"y": -0.3191677722,
				"z": 0.4991501543,
				"element": "C" 
			},
			{
				"x": 1.6093536843,
				"y": 0.5632383015,
				"z": 1.1187469007,
				"element": "N" 
			},
			{
				"x": 1.2305621519,
				"y": 1.8394974864,
				"z": 0.917471268,
				"element": "C" 
			},
			{
				"x": 2.0101019884,
				"y": 2.9809637582,
				"z": 1.4820843517,
				"element": "C" 
			},
			{
				"x": 0.0630429087,
				"y": 1.8096545431,
				"z": 0.1228979511,
				"element": "C" 
			},
			{
				"x": -0.5750589772,
				"y": 3.0659817819,
				"z": -0.3197195055,
				"element": "C" 
			},
			{
				"x": -1.6655439701,
				"y": 3.0548426489,
				"z": -1.3791457596,
				"element": "C" 
			},
			{
				"x": -0.2010672066,
				"y": 4.1438036721,
				"z": 0.1380093127,
				"element": "O" 
			},
			{
				"x": 1.072021988,
				"y": -1.7286211282,
				"z": 0.6357217098,
				"element": "C" 
			},
			{
				"x": 0.2299281397,
				"y": -2.5849295438,
				"z": 0.0054397059,
				"element": "O" 
			},
			{
				"x": 2.0440865406,
				"y": -2.124377117,
				"z": 1.2641807885,
				"element": "O" 
			},
			{
				"x": -2.4559519051,
				"y": -2.1612555873,
				"z": 0.8544655205,
				"element": "H" 
			},
			{
				"x": -3.6489624545,
				"y": -1.1465124605,
				"z": 1.6843136935,
				"element": "H" 
			},
			{
				"x": -1.9214535322,
				"y": -0.8233756536,
				"z": 1.8758670042,
				"element": "H" 
			},
			{
				"x": -3.5476606215,
				"y": -0.511691775,
				"z": -0.7204631101,
				"element": "H" 
			},
			{
				"x": -2.9989417978,
				"y": 0.8134249027,
				"z": 0.29285951,
				"element": "H" 
			},
			{
				"x": -1.1852297353,
				"y": -1.159595494,
				"z": -1.2004400628,
				"element": "H" 
			},
			{
				"x": -1.6156139667,
				"y": 0.4348722303,
				"z": -1.7858206672,
				"element": "H" 
			},
			{
				"x": 2.4163412415,
				"y": 0.2384250866,
				"z": 1.6343573226,
				"element": "H" 
			},
			{
				"x": 1.4104782293,
				"y": 3.5447747576,
				"z": 2.2016983447,
				"element": "H" 
			},
			{
				"x": 2.2833267755,
				"y": 3.691387858,
				"z": 0.6980179671,
				"element": "H" 
			},
			{
				"x": 2.9184039729,
				"y": 2.6206405997,
				"z": 1.9759969426,
				"element": "H" 
			},
			{
				"x": -2.5463193126,
				"y": 2.4953518488,
				"z": -1.0515217168,
				"element": "H" 
			},
			{
				"x": -1.3069677913,
				"y": 2.5916250992,
				"z": -2.3048372807,
				"element": "H" 
			},
			{
				"x": -1.950600938,
				"y": 4.08848833,
				"z": -1.5796792695,
				"element": "H" 
			},
			{
				"x": 0.5862905795,
				"y": -3.471547229,
				"z": 0.1815089672,
				"element": "H" 
			}
		],
		 "valence_orbital": [ 
			{
				"type": "occ",
				"energy": -0.32041,
				"method": "rhf"
			},
			{
				"type": "occ",
				"energy": -0.28472,
				"method": "rhf"
			},
			{
				"type": "occ",
				"energy": -0.25358,
				"method": "rhf"
			},
			{
				"type": "occ",
				"energy": -0.23863,
				"method": "rhf"
			},
			{
				"type": "occ",
				"energy": -0.22586,
				"method": "rhf"
			},
			{
				"type": "unocc",
				"energy": -0.0364,
				"method": "rhf"
			},
			{
				"type": "unocc",
				"energy": -0.02362,
				"method": "rhf"
			},
			{
				"type": "unocc",
				"energy": 0.07085,
				"method": "rhf"
			},
			{
				"type": "unocc",
				"energy": 0.07819,
				"method": "rhf"
			},
			{
				"type": "unocc",
				"energy": 0.08741,
				"method": "rhf"
			}
		],
		"cosmo_sigma_profile": { 
			"-0.025": 0.0,
			"-0.024": 0.0,
			"-0.023": 0.0,
			"-0.022": 0.0,
			"-0.021": 0.0,
			"-0.02": 0.0,
			"-0.019": 0.0414252446653,
			"-0.018": 0.794284391667,
			"-0.017": 0.724970092108,
			"-0.016": 0.815849642584,
			"-0.015": 1.35717260674,
			"-0.014": 1.05940263454,
			"-0.013": 1.19593068401,
			"-0.012": 1.95194039534,
			"-0.011": 2.2602654229,
			"-0.01": 2.28322118568,
			"-0.009": 1.40192786075,
			"-0.008": 1.24374378888,
			"-0.007": 2.76750516066,
			"-0.006": 4.10165826105,
			"-0.005": 9.91421788584,
			"-0.004": 13.8841927679,
			"-0.003": 17.9679801339,
			"-0.002": 23.8569372184,
			"-0.001": 36.1699911646,
			"0.0": 32.3808857052,
			"0.001": 25.3438881281,
			"0.002": 15.7976030183,
			"0.003": 11.441653614,
			"0.004": 7.25671216822,
			"0.005": 5.1987622747,
			"0.006": 4.0770361377,
			"0.007": 2.44034487325,
			"0.008": 3.35757859869,
			"0.009": 2.96523039913,
			"0.01": 2.63106338756,
			"0.011": 4.62704532539,
			"0.012": 6.67185987278,
			"0.013": 3.70302117121,
			"0.014": 1.54431890282,
			"0.015": 0.280869280569,
			"0.016": 0.0,
			"0.017": 0.0,
			"0.018": 0.0,
			"0.019": 0.0,
			"0.02": 0.0,
			"0.021": 0.0,
			"0.022": 0.0,
			"0.023": 0.0,
			"0.024": 0.0,
			"0.025": 0.0
		}
	}
}
