{
	 "smiles": "CC1(CC(=O)NC1=O)C1=CC=C(Br)C=C1", 
	 "Tm": 418.15, 
	 "num_atms": 25, 
	 "gaussian": { 
		 "optdone": 1, 
		 "sigma_profile": "yes", 
		 "theory": "DFT", 
		 "functional": "B3LYP", 
		 "basiset": "6-31G**", 
		 "properties": { 
			 "R2extent": 5923.3243, 
			 "electric_dipole_moment_norm": 1.49092649383, 
			 "electric_quadrupole_moment_norm": 14.3638335705, 
			 "total_energy": -3201.83553848, 
			 "HOMO_LUMO_gap": 0.21132, 
			 "cosmo_polarized_energy": -14.17, 
			 "cosmo_cavitation_energy": 31.03, 
			 "cosmo_dispersion_energy": -22.71, 
			 "cosmo_repulsion_energy": 1.78, 
			 "cosmo_total_nonelectrostatic_energy": 10.09, 
			 "SMD_solvation_energy": 5.4 
		},
		"coords": [
			{
				"x": 2.3735875152,
				"y": 0.9771464049,
				"z": -0.3693448012,
				"element": "C" 
			},
			{
				"x": 0.8625384206,
				"y": 1.247817148,
				"z": -0.1346184611,
				"element": "C" 
			},
			{
				"x": 0.6563592,
				"y": 2.3777894108,
				"z": 0.9121568984,
				"element": "C" 
			},
			{
				"x": 0.2985522679,
				"y": 3.6321712314,
				"z": 0.1263953418,
				"element": "C" 
			},
			{
				"x": 0.1966103269,
				"y": 4.7677046396,
				"z": 0.5324017285,
				"element": "O" 
			},
			{
				"x": 0.0752306999,
				"y": 3.2252625563,
				"z": -1.1866096574,
				"element": "N" 
			},
			{
				"x": 0.3343524545,
				"y": 1.8862658366,
				"z": -1.4427079128,
				"element": "C" 
			},
			{
				"x": 0.2240643111,
				"y": 1.3684330624,
				"z": -2.5354418544,
				"element": "O" 
			},
			{
				"x": 0.1676204791,
				"y": -0.0676401365,
				"z": 0.2373230257,
				"element": "C" 
			},
			{
				"x": -0.3841883985,
				"y": -0.9269491146,
				"z": -0.723706232,
				"element": "C" 
			},
			{
				"x": -0.9639221038,
				"y": -2.141751202,
				"z": -0.3546208513,
				"element": "C" 
			},
			{
				"x": -0.9832283866,
				"y": -2.5152682487,
				"z": 0.9863613741,
				"element": "C" 
			},
			{
				"x": -1.7753946031,
				"y": -4.1779921079,
				"z": 1.496379925,
				"element": "Br" 
			},
			{
				"x": -0.4272208374,
				"y": -1.6909690427,
				"z": 1.9614929279,
				"element": "C" 
			},
			{
				"x": 0.1426810502,
				"y": -0.4770665552,
				"z": 1.5793282795,
				"element": "C" 
			},
			{
				"x": 2.5070109769,
				"y": 0.2805982376,
				"z": -1.2002370236,
				"element": "H" 
			},
			{
				"x": 2.9092550154,
				"y": 1.9038951758,
				"z": -0.6032062535,
				"element": "H" 
			},
			{
				"x": 2.815635373,
				"y": 0.5379497783,
				"z": 0.5294162093,
				"element": "H" 
			},
			{
				"x": -0.1816336502,
				"y": 2.1688081837,
				"z": 1.5841156533,
				"element": "H" 
			},
			{
				"x": 1.5335454908,
				"y": 2.571632299,
				"z": 1.5347156697,
				"element": "H" 
			},
			{
				"x": -0.204544814,
				"y": 3.8674294102,
				"z": -1.9181037214,
				"element": "H" 
			},
			{
				"x": -0.3638748563,
				"y": -0.644941385,
				"z": -1.7693290654,
				"element": "H" 
			},
			{
				"x": -1.3955655203,
				"y": -2.7910075109,
				"z": -1.1079947335,
				"element": "H" 
			},
			{
				"x": -0.439341446,
				"y": -1.9893512847,
				"z": 3.0035950164,
				"element": "H" 
			},
			{
				"x": 0.5786710347,
				"y": 0.1503332138,
				"z": 2.3513385179,
				"element": "H" 
			}
		],
		 "valence_orbital": [ 
			{
				"type": "occ",
				"energy": -0.2929,
				"method": "rhf"
			},
			{
				"type": "occ",
				"energy": -0.28964,
				"method": "rhf"
			},
			{
				"type": "occ",
				"energy": -0.26835,
				"method": "rhf"
			},
			{
				"type": "occ",
				"energy": -0.26753,
				"method": "rhf"
			},
			{
				"type": "occ",
				"energy": -0.24352,
				"method": "rhf"
			},
			{
				"type": "unocc",
				"energy": -0.0322,
				"method": "rhf"
			},
			{
				"type": "unocc",
				"energy": -0.02336,
				"method": "rhf"
			},
			{
				"type": "unocc",
				"energy": -0.01942,
				"method": "rhf"
			},
			{
				"type": "unocc",
				"energy": 0.00487,
				"method": "rhf"
			},
			{
				"type": "unocc",
				"energy": 0.02079,
				"method": "rhf"
			}
		],
		"cosmo_sigma_profile": { 
			"-0.025": 0.0,
			"-0.024": 0.0,
			"-0.023": 0.0,
			"-0.022": 0.0,
			"-0.021": 0.0,
			"-0.02": 0.0,
			"-0.019": 0.0,
			"-0.018": 0.0,
			"-0.017": 0.250397029393,
			"-0.016": 1.3524079517,
			"-0.015": 1.2932613943,
			"-0.014": 0.70599491691,
			"-0.013": 0.839118185347,
			"-0.012": 1.09814976676,
			"-0.011": 0.898690589244,
			"-0.01": 0.608367938187,
			"-0.009": 0.639072044726,
			"-0.008": 3.00206936778,
			"-0.007": 11.8600619931,
			"-0.006": 16.755511014,
			"-0.005": 15.6578971345,
			"-0.004": 16.4620343565,
			"-0.003": 16.0139748809,
			"-0.002": 17.5792506412,
			"-0.001": 16.9152971884,
			"0.0": 14.3651188701,
			"0.001": 15.9955926567,
			"0.002": 17.6362016535,
			"0.003": 20.0945140281,
			"0.004": 18.5397313691,
			"0.005": 10.3944896515,
			"0.006": 3.59592969536,
			"0.007": 1.49964187174,
			"0.008": 2.19645550596,
			"0.009": 4.06547342806,
			"0.01": 4.07449060956,
			"0.011": 7.71933873576,
			"0.012": 7.06477789707,
			"0.013": 1.19395320572,
			"0.014": 0.0,
			"0.015": 0.0,
			"0.016": 0.0,
			"0.017": 0.0,
			"0.018": 0.0,
			"0.019": 0.0,
			"0.02": 0.0,
			"0.021": 0.0,
			"0.022": 0.0,
			"0.023": 0.0,
			"0.024": 0.0,
			"0.025": 0.0
		}
	}
}
