{
	 "smiles": "OCC1=NC(C=CC2=CC=C(O2)[N+]([O-])=O)=CC=C1", 
	 "Tm": 443.15, 
	 "num_atms": 28, 
	 "gaussian": { 
		 "optdone": 1, 
		 "sigma_profile": "yes", 
		 "theory": "DFT", 
		 "functional": "B3LYP", 
		 "basiset": "6-31G**", 
		 "properties": { 
			 "R2extent": 8831.7105, 
			 "electric_dipole_moment_norm": 4.5429297089, 
			 "electric_quadrupole_moment_norm": 39.9535750453, 
			 "total_energy": -873.552894149, 
			 "HOMO_LUMO_gap": 0.12721, 
			 "cosmo_polarized_energy": -17.37, 
			 "cosmo_cavitation_energy": 34.88, 
			 "cosmo_dispersion_energy": -25.31, 
			 "cosmo_repulsion_energy": 1.95, 
			 "cosmo_total_nonelectrostatic_energy": 11.52, 
			 "SMD_solvation_energy": 8.2 
		},
		"coords": [
			{
				"x": -2.5251348904,
				"y": -2.2595533363,
				"z": -2.8159581113,
				"element": "O" 
			},
			{
				"x": -2.2852914055,
				"y": -3.3443364514,
				"z": -1.9605050929,
				"element": "C" 
			},
			{
				"x": -1.2323504617,
				"y": -3.0317825524,
				"z": -0.9078799671,
				"element": "C" 
			},
			{
				"x": -0.7131434445,
				"y": -1.8055385421,
				"z": -0.9700537838,
				"element": "N" 
			},
			{
				"x": 0.2319255622,
				"y": -1.4300326744,
				"z": -0.0777470809,
				"element": "C" 
			},
			{
				"x": 0.7249117972,
				"y": -0.0629162524,
				"z": -0.2466583094,
				"element": "C" 
			},
			{
				"x": 1.6615274163,
				"y": 0.5555410682,
				"z": 0.5044111571,
				"element": "C" 
			},
			{
				"x": 2.109779685,
				"y": 1.90667739,
				"z": 0.2920455893,
				"element": "C" 
			},
			{
				"x": 1.8009794967,
				"y": 2.9104401025,
				"z": -0.6106521479,
				"element": "C" 
			},
			{
				"x": 2.6068237907,
				"y": 4.0247511793,
				"z": -0.2795819405,
				"element": "C" 
			},
			{
				"x": 3.3507714268,
				"y": 3.6259885443,
				"z": 0.800131841,
				"element": "C" 
			},
			{
				"x": 3.067818104,
				"y": 2.3551010133,
				"z": 1.1607744771,
				"element": "O" 
			},
			{
				"x": 4.3320254116,
				"y": 4.3281598277,
				"z": 1.5582503961,
				"element": "N" 
			},
			{
				"x": 4.8675773891,
				"y": 3.7405357416,
				"z": 2.4982443077,
				"element": "O" 
			},
			{
				"x": 4.5618670568,
				"y": 5.4877864085,
				"z": 1.1965168299,
				"element": "O" 
			},
			{
				"x": 0.6797174718,
				"y": -2.3112232049,
				"z": 0.91855843,
				"element": "C" 
			},
			{
				"x": 0.1345890749,
				"y": -3.5916712843,
				"z": 0.9799836335,
				"element": "C" 
			},
			{
				"x": -0.8371348943,
				"y": -3.9670559041,
				"z": 0.0567483068,
				"element": "C" 
			},
			{
				"x": -1.9256013859,
				"y": -1.5564937881,
				"z": -2.5059988785,
				"element": "H" 
			},
			{
				"x": -1.9530440075,
				"y": -4.2241245385,
				"z": -2.5364697909,
				"element": "H" 
			},
			{
				"x": -3.2145352962,
				"y": -3.6435967303,
				"z": -1.4479010433,
				"element": "H" 
			},
			{
				"x": 0.2581414452,
				"y": 0.4655718774,
				"z": -1.0742278604,
				"element": "H" 
			},
			{
				"x": 2.1420469055,
				"y": 0.0484568396,
				"z": 1.3365140832,
				"element": "H" 
			},
			{
				"x": 1.0801088674,
				"y": 2.8458864229,
				"z": -1.4123200379,
				"element": "H" 
			},
			{
				"x": 2.6502845699,
				"y": 4.9926096625,
				"z": -0.7539487253,
				"element": "H" 
			},
			{
				"x": 1.4373782815,
				"y": -2.0050051412,
				"z": 1.6311652156,
				"element": "H" 
			},
			{
				"x": 0.4671080361,
				"y": -4.2890590367,
				"z": 1.7432535601,
				"element": "H" 
			},
			{
				"x": -1.2816460029,
				"y": -4.9576166407,
				"z": 0.0780049425,
				"element": "H" 
			}
		],
		 "valence_orbital": [ 
			{
				"type": "occ",
				"energy": -0.29179,
				"method": "rhf"
			},
			{
				"type": "occ",
				"energy": -0.28898,
				"method": "rhf"
			},
			{
				"type": "occ",
				"energy": -0.28887,
				"method": "rhf"
			},
			{
				"type": "occ",
				"energy": -0.25983,
				"method": "rhf"
			},
			{
				"type": "occ",
				"energy": -0.23195,
				"method": "rhf"
			},
			{
				"type": "unocc",
				"energy": -0.10474,
				"method": "rhf"
			},
			{
				"type": "unocc",
				"energy": -0.06642,
				"method": "rhf"
			},
			{
				"type": "unocc",
				"energy": -0.03784,
				"method": "rhf"
			},
			{
				"type": "unocc",
				"energy": -0.0014,
				"method": "rhf"
			},
			{
				"type": "unocc",
				"energy": 0.04274,
				"method": "rhf"
			}
		],
		"cosmo_sigma_profile": { 
			"-0.025": 0.0,
			"-0.024": 0.0,
			"-0.023": 0.0,
			"-0.022": 0.0,
			"-0.021": 0.0,
			"-0.02": 0.0,
			"-0.019": 0.0,
			"-0.018": 0.0,
			"-0.017": 0.0,
			"-0.016": 0.0,
			"-0.015": 0.0,
			"-0.014": 0.0,
			"-0.013": 0.0,
			"-0.012": 0.0,
			"-0.011": 0.0,
			"-0.01": 1.41542279044,
			"-0.009": 7.00327441814,
			"-0.008": 7.78014568835,
			"-0.007": 12.8860494722,
			"-0.006": 15.4690165916,
			"-0.005": 18.7007646836,
			"-0.004": 16.9713329629,
			"-0.003": 16.9914068923,
			"-0.002": 19.2030667578,
			"-0.001": 21.1227147361,
			"0.0": 23.0093996196,
			"0.001": 28.9756652881,
			"0.002": 21.5007065274,
			"0.003": 8.91578562527,
			"0.004": 5.4779312219,
			"0.005": 5.38578827761,
			"0.006": 5.72991221291,
			"0.007": 5.32922617895,
			"0.008": 13.8505066974,
			"0.009": 9.92591792458,
			"0.01": 5.53973382213,
			"0.011": 1.8332866723,
			"0.012": 1.94860182018,
			"0.013": 1.16747422458,
			"0.014": 2.67147951425,
			"0.015": 1.37883605055,
			"0.016": 0.0,
			"0.017": 0.0,
			"0.018": 0.0,
			"0.019": 0.0,
			"0.02": 0.0,
			"0.021": 0.0,
			"0.022": 0.0,
			"0.023": 0.0,
			"0.024": 0.0,
			"0.025": 0.0
		}
	}
}
