{
	 "smiles": "CC(OC1=NC=C(C=C1)C(O)=O)C1=CC=CC=C1", 
	 "Tm": 387.15, 
	 "num_atms": 31, 
	 "gaussian": { 
		 "optdone": 1, 
		 "sigma_profile": "yes", 
		 "theory": "DFT", 
		 "functional": "B3LYP", 
		 "basiset": "6-31G**", 
		 "properties": { 
			 "R2extent": 6219.0624, 
			 "electric_dipole_moment_norm": 1.77896327674, 
			 "electric_quadrupole_moment_norm": 12.4757908567, 
			 "total_energy": -821.772512944, 
			 "HOMO_LUMO_gap": 0.19653, 
			 "cosmo_polarized_energy": -12.04, 
			 "cosmo_cavitation_energy": 36.11, 
			 "cosmo_dispersion_energy": -25.22, 
			 "cosmo_repulsion_energy": 1.98, 
			 "cosmo_total_nonelectrostatic_energy": 12.88, 
			 "SMD_solvation_energy": 6.87 
		},
		"coords": [
			{
				"x": -0.9982628028,
				"y": 1.6577467684,
				"z": -2.7237690589,
				"element": "C" 
			},
			{
				"x": -0.577578023,
				"y": 0.9200021361,
				"z": -1.4547680412,
				"element": "C" 
			},
			{
				"x": -1.4468767472,
				"y": 1.4322407009,
				"z": -0.408666389,
				"element": "O" 
			},
			{
				"x": -1.6625561951,
				"y": 0.6784753799,
				"z": 0.6868471763,
				"element": "C" 
			},
			{
				"x": -1.1435078573,
				"y": -0.5456157709,
				"z": 0.7646103035,
				"element": "N" 
			},
			{
				"x": -1.3992511209,
				"y": -1.2603603132,
				"z": 1.8671243219,
				"element": "C" 
			},
			{
				"x": -2.1743072454,
				"y": -0.7909673742,
				"z": 2.9295953836,
				"element": "C" 
			},
			{
				"x": -2.7145377947,
				"y": 0.5054142364,
				"z": 2.8253727226,
				"element": "C" 
			},
			{
				"x": -2.4618614659,
				"y": 1.2559952252,
				"z": 1.6962579648,
				"element": "C" 
			},
			{
				"x": -2.4480004028,
				"y": -1.5875339769,
				"z": 4.1441316837,
				"element": "C" 
			},
			{
				"x": -1.869064041,
				"y": -2.8155568955,
				"z": 4.1183987117,
				"element": "O" 
			},
			{
				"x": -3.1191959367,
				"y": -1.20960514,
				"z": 5.0855183474,
				"element": "O" 
			},
			{
				"x": 0.8820525712,
				"y": 1.1403642394,
				"z": -1.1015100183,
				"element": "C" 
			},
			{
				"x": 1.8261808999,
				"y": 0.1416485062,
				"z": -1.3612563904,
				"element": "C" 
			},
			{
				"x": 3.1796261035,
				"y": 0.3568838622,
				"z": -1.0960915866,
				"element": "C" 
			},
			{
				"x": 3.6015091106,
				"y": 1.5729791352,
				"z": -0.5566498243,
				"element": "C" 
			},
			{
				"x": 2.6633612663,
				"y": 2.571616181,
				"z": -0.2847691933,
				"element": "C" 
			},
			{
				"x": 1.3126143131,
				"y": 2.3578825465,
				"z": -0.5588326881,
				"element": "C" 
			},
			{
				"x": -0.3941825393,
				"y": 1.3160759572,
				"z": -3.5689516457,
				"element": "H" 
			},
			{
				"x": -2.0528513314,
				"y": 1.4691267401,
				"z": -2.9446976316,
				"element": "H" 
			},
			{
				"x": -0.8513008143,
				"y": 2.7359017007,
				"z": -2.6118073606,
				"element": "H" 
			},
			{
				"x": -0.7623396541,
				"y": -0.151993404,
				"z": -1.5579825117,
				"element": "H" 
			},
			{
				"x": -0.9643298821,
				"y": -2.2551212913,
				"z": 1.9062231228,
				"element": "H" 
			},
			{
				"x": -3.3202384287,
				"y": 0.8885184694,
				"z": 3.6400025265,
				"element": "H" 
			},
			{
				"x": -2.8519811701,
				"y": 2.2582809871,
				"z": 1.5626235123,
				"element": "H" 
			},
			{
				"x": -2.1156394299,
				"y": -3.2393970723,
				"z": 4.9566638865,
				"element": "H" 
			},
			{
				"x": 1.4984091882,
				"y": -0.8128940517,
				"z": -1.7652908911,
				"element": "H" 
			},
			{
				"x": 3.9016218472,
				"y": -0.4285710014,
				"z": -1.3010024248,
				"element": "H" 
			},
			{
				"x": 4.6535060369,
				"y": 1.7400506279,
				"z": -0.343683179,
				"element": "H" 
			},
			{
				"x": 2.9843524102,
				"y": 3.5180916271,
				"z": 0.1413171708,
				"element": "H" 
			},
			{
				"x": 0.5829291355,
				"y": 3.1318212643,
				"z": -0.338958,
				"element": "H" 
			}
		],
		 "valence_orbital": [ 
			{
				"type": "occ",
				"energy": -0.28318,
				"method": "rhf"
			},
			{
				"type": "occ",
				"energy": -0.26743,
				"method": "rhf"
			},
			{
				"type": "occ",
				"energy": -0.25,
				"method": "rhf"
			},
			{
				"type": "occ",
				"energy": -0.24556,
				"method": "rhf"
			},
			{
				"type": "occ",
				"energy": -0.2406,
				"method": "rhf"
			},
			{
				"type": "unocc",
				"energy": -0.04407,
				"method": "rhf"
			},
			{
				"type": "unocc",
				"energy": -0.02788,
				"method": "rhf"
			},
			{
				"type": "unocc",
				"energy": -0.00408,
				"method": "rhf"
			},
			{
				"type": "unocc",
				"energy": -0.00111,
				"method": "rhf"
			},
			{
				"type": "unocc",
				"energy": 0.05818,
				"method": "rhf"
			}
		],
		"cosmo_sigma_profile": { 
			"-0.025": 0.0,
			"-0.024": 0.0,
			"-0.023": 0.0,
			"-0.022": 0.0,
			"-0.021": 0.0,
			"-0.02": 0.0,
			"-0.019": 0.0493300965864,
			"-0.018": 0.792397104866,
			"-0.017": 0.881337862822,
			"-0.016": 0.714970609541,
			"-0.015": 0.940928298509,
			"-0.014": 0.971610651427,
			"-0.013": 0.447314918429,
			"-0.012": 0.347311623702,
			"-0.011": 0.693235242316,
			"-0.01": 1.01575282745,
			"-0.009": 0.54568283703,
			"-0.008": 1.24342270702,
			"-0.007": 4.3516863254,
			"-0.006": 11.1373000331,
			"-0.005": 17.211252302,
			"-0.004": 21.715838523,
			"-0.003": 24.5623411121,
			"-0.002": 23.2200691241,
			"-0.001": 24.7710885725,
			"0.0": 31.409971507,
			"0.001": 25.6555113872,
			"0.002": 17.6183247352,
			"0.003": 14.0141867061,
			"0.004": 12.079831901,
			"0.005": 13.8920047958,
			"0.006": 12.1722703525,
			"0.007": 6.6842026045,
			"0.008": 4.78755440557,
			"0.009": 3.32151584235,
			"0.01": 2.95138404478,
			"0.011": 3.77091265343,
			"0.012": 4.03403380958,
			"0.013": 0.119991344028,
			"0.014": 0.0,
			"0.015": 0.0,
			"0.016": 0.0,
			"0.017": 0.0,
			"0.018": 0.0,
			"0.019": 0.0,
			"0.02": 0.0,
			"0.021": 0.0,
			"0.022": 0.0,
			"0.023": 0.0,
			"0.024": 0.0,
			"0.025": 0.0
		}
	}
}
