{
	 "smiles": "CC(C)C1=C(NC2=NC3=C(S2)C=CC=C3)C=CC=C1", 
	 "Tm": 389.15, 
	 "num_atms": 35, 
	 "gaussian": { 
		 "optdone": 1, 
		 "sigma_profile": "yes", 
		 "theory": "DFT", 
		 "functional": "B3LYP", 
		 "basiset": "6-31G**", 
		 "properties": { 
			 "R2extent": 7175.6912, 
			 "electric_dipole_moment_norm": 1.92474128651, 
			 "electric_quadrupole_moment_norm": 12.9582565463, 
			 "total_energy": -1127.06166012, 
			 "HOMO_LUMO_gap": 0.17396, 
			 "cosmo_polarized_energy": -10.01, 
			 "cosmo_cavitation_energy": 38.89, 
			 "cosmo_dispersion_energy": -28.48, 
			 "cosmo_repulsion_energy": 2.12, 
			 "cosmo_total_nonelectrostatic_energy": 12.53, 
			 "SMD_solvation_energy": 4.91 
		},
		"coords": [
			{
				"x": 1.3611561055,
				"y": -3.4326482869,
				"z": -0.8121638579,
				"element": "C" 
			},
			{
				"x": 2.0225881244,
				"y": -2.6419390534,
				"z": 0.3395852152,
				"element": "C" 
			},
			{
				"x": 3.1021029571,
				"y": -3.5009972554,
				"z": 1.0177200558,
				"element": "C" 
			},
			{
				"x": 2.5220153225,
				"y": -1.2793116912,
				"z": -0.1420467025,
				"element": "C" 
			},
			{
				"x": 1.6350176394,
				"y": -0.1830859965,
				"z": -0.312062544,
				"element": "C" 
			},
			{
				"x": 0.2704922901,
				"y": -0.3782217053,
				"z": 0.0018546326,
				"element": "N" 
			},
			{
				"x": -0.7757926722,
				"y": 0.5002028548,
				"z": -0.0395758379,
				"element": "C" 
			},
			{
				"x": -0.7498724865,
				"y": 1.7436282439,
				"z": -0.4039700758,
				"element": "N" 
			},
			{
				"x": -2.0100757093,
				"y": 2.3159950187,
				"z": -0.319481761,
				"element": "C" 
			},
			{
				"x": -3.0482924536,
				"y": 1.4646970113,
				"z": 0.1323395835,
				"element": "C" 
			},
			{
				"x": -2.3863497181,
				"y": -0.1328955536,
				"z": 0.4628908616,
				"element": "S" 
			},
			{
				"x": -4.36102445,
				"y": 1.9123079779,
				"z": 0.2634870921,
				"element": "C" 
			},
			{
				"x": -4.6401190927,
				"y": 3.2399612848,
				"z": -0.0648527374,
				"element": "C" 
			},
			{
				"x": -3.623651438,
				"y": 4.09536433,
				"z": -0.5136713634,
				"element": "C" 
			},
			{
				"x": -2.3124533899,
				"y": 3.6447599248,
				"z": -0.6434879543,
				"element": "C" 
			},
			{
				"x": 2.1103173472,
				"y": 1.0516668222,
				"z": -0.7778904079,
				"element": "C" 
			},
			{
				"x": 3.4597714091,
				"y": 1.2075018922,
				"z": -1.0873774562,
				"element": "C" 
			},
			{
				"x": 4.3458300125,
				"y": 0.1448099971,
				"z": -0.9350668026,
				"element": "C" 
			},
			{
				"x": 3.8677098569,
				"y": -1.0787969725,
				"z": -0.4649472737,
				"element": "C" 
			},
			{
				"x": 2.1039609269,
				"y": -3.6633768618,
				"z": -1.5827958189,
				"element": "H" 
			},
			{
				"x": 0.5573122416,
				"y": -2.8683000757,
				"z": -1.295534211,
				"element": "H" 
			},
			{
				"x": 0.9432857806,
				"y": -4.3779227142,
				"z": -0.4487026306,
				"element": "H" 
			},
			{
				"x": 1.2613776005,
				"y": -2.4703960551,
				"z": 1.1171553712,
				"element": "H" 
			},
			{
				"x": 3.6124754768,
				"y": -2.9519295528,
				"z": 1.8144636016,
				"element": "H" 
			},
			{
				"x": 2.6449008927,
				"y": -4.3933172953,
				"z": 1.456923114,
				"element": "H" 
			},
			{
				"x": 3.8565173142,
				"y": -3.8443915184,
				"z": 0.3023872952,
				"element": "H" 
			},
			{
				"x": 0.0326705576,
				"y": -1.3016382304,
				"z": 0.32538043,
				"element": "H" 
			},
			{
				"x": -5.14775678,
				"y": 1.2502149506,
				"z": 0.6108913584,
				"element": "H" 
			},
			{
				"x": -5.6563297812,
				"y": 3.6103592742,
				"z": 0.0297158383,
				"element": "H" 
			},
			{
				"x": -3.8621717259,
				"y": 5.1248545722,
				"z": -0.7638680064,
				"element": "H" 
			},
			{
				"x": -1.5188214373,
				"y": 4.2985849839,
				"z": -0.9898302482,
				"element": "H" 
			},
			{
				"x": 1.4144080614,
				"y": 1.8709403044,
				"z": -0.891233201,
				"element": "H" 
			},
			{
				"x": 3.8114838013,
				"y": 2.1697378758,
				"z": -1.448364158,
				"element": "H" 
			},
			{
				"x": 5.3985312827,
				"y": 0.2610850717,
				"z": -1.1743373455,
				"element": "H" 
			},
			{
				"x": 4.5656861336,
				"y": -1.900003572,
				"z": -0.3428340555,
				"element": "H" 
			}
		],
		 "valence_orbital": [ 
			{
				"type": "occ",
				"energy": -0.27224,
				"method": "rhf"
			},
			{
				"type": "occ",
				"energy": -0.2439,
				"method": "rhf"
			},
			{
				"type": "occ",
				"energy": -0.24201,
				"method": "rhf"
			},
			{
				"type": "occ",
				"energy": -0.23103,
				"method": "rhf"
			},
			{
				"type": "occ",
				"energy": -0.19826,
				"method": "rhf"
			},
			{
				"type": "unocc",
				"energy": -0.0243,
				"method": "rhf"
			},
			{
				"type": "unocc",
				"energy": -0.00668,
				"method": "rhf"
			},
			{
				"type": "unocc",
				"energy": -0.00107,
				"method": "rhf"
			},
			{
				"type": "unocc",
				"energy": 0.00252,
				"method": "rhf"
			},
			{
				"type": "unocc",
				"energy": 0.01779,
				"method": "rhf"
			}
		],
		"cosmo_sigma_profile": { 
			"-0.025": 0.0,
			"-0.024": 0.0,
			"-0.023": 0.0,
			"-0.022": 0.0,
			"-0.021": 0.0,
			"-0.02": 0.0,
			"-0.019": 0.0,
			"-0.018": 0.0,
			"-0.017": 0.0,
			"-0.016": 0.0,
			"-0.015": 0.312472462056,
			"-0.014": 0.68552890699,
			"-0.013": 1.12643361344,
			"-0.012": 1.02257942508,
			"-0.011": 1.03779213709,
			"-0.01": 1.36985007032,
			"-0.009": 1.23881682088,
			"-0.008": 1.13408245227,
			"-0.007": 4.20419785452,
			"-0.006": 8.66110153928,
			"-0.005": 15.9098966035,
			"-0.004": 18.9525869674,
			"-0.003": 29.9453939984,
			"-0.002": 27.6167558638,
			"-0.001": 26.5671915424,
			"0.0": 29.4986816233,
			"0.001": 29.9492447477,
			"0.002": 22.7254264093,
			"0.003": 22.3460169216,
			"0.004": 24.4425891269,
			"0.005": 23.1658307895,
			"0.006": 12.8068618943,
			"0.007": 4.57286874757,
			"0.008": 1.86895040805,
			"0.009": 1.20063322866,
			"0.01": 0.116992906669,
			"0.011": 0.0,
			"0.012": 0.0,
			"0.013": 0.0,
			"0.014": 0.0,
			"0.015": 0.0,
			"0.016": 0.0,
			"0.017": 0.0,
			"0.018": 0.0,
			"0.019": 0.0,
			"0.02": 0.0,
			"0.021": 0.0,
			"0.022": 0.0,
			"0.023": 0.0,
			"0.024": 0.0,
			"0.025": 0.0
		}
	}
}
