{
	 "smiles": "CC1=CN2C(S1)=NC=C(C(O)=O)C2=O", 
	 "Tm": 513.15, 
	 "num_atms": 20, 
	 "gaussian": { 
		 "optdone": 1, 
		 "sigma_profile": "yes", 
		 "theory": "DFT", 
		 "functional": "B3LYP", 
		 "basiset": "6-31G**", 
		 "properties": { 
			 "R2extent": 3437.8214, 
			 "electric_dipole_moment_norm": 7.36374420591, 
			 "electric_quadrupole_moment_norm": 16.3316692068, 
			 "total_energy": -1041.83064471, 
			 "HOMO_LUMO_gap": 0.16241, 
			 "cosmo_polarized_energy": -22.92, 
			 "cosmo_cavitation_energy": 27.1, 
			 "cosmo_dispersion_energy": -20.51, 
			 "cosmo_repulsion_energy": 1.54, 
			 "cosmo_total_nonelectrostatic_energy": 8.13, 
			 "SMD_solvation_energy": 4.89 
		},
		"coords": [
			{
				"x": -1.9999581625,
				"y": 1.9900798175,
				"z": 3.6898921455,
				"element": "C" 
			},
			{
				"x": -1.0870835136,
				"y": 1.527091228,
				"z": 2.5990962289,
				"element": "C" 
			},
			{
				"x": -1.2632777769,
				"y": 0.4957188173,
				"z": 1.7472658332,
				"element": "C" 
			},
			{
				"x": -0.2173038229,
				"y": 0.3284887471,
				"z": 0.8400735072,
				"element": "N" 
			},
			{
				"x": 0.8016384023,
				"y": 1.2342634999,
				"z": 0.9691582286,
				"element": "C" 
			},
			{
				"x": 0.4491968837,
				"y": 2.3486728617,
				"z": 2.2771214217,
				"element": "S" 
			},
			{
				"x": 1.8818796777,
				"y": 1.2720429723,
				"z": 0.2300369063,
				"element": "N" 
			},
			{
				"x": 1.944690509,
				"y": 0.3139443271,
				"z": -0.7265438437,
				"element": "C" 
			},
			{
				"x": 0.9934824266,
				"y": -0.6616477229,
				"z": -0.9686339639,
				"element": "C" 
			},
			{
				"x": 1.1306588348,
				"y": -1.5999281772,
				"z": -2.1256110568,
				"element": "C" 
			},
			{
				"x": 2.4053555913,
				"y": -2.0173141267,
				"z": -2.390048637,
				"element": "O" 
			},
			{
				"x": 0.2187269708,
				"y": -1.9532862559,
				"z": -2.8274157969,
				"element": "O" 
			},
			{
				"x": -0.2133930882,
				"y": -0.7189261132,
				"z": -0.1615807464,
				"element": "C" 
			},
			{
				"x": -1.1458691196,
				"y": -1.4979893594,
				"z": -0.1976230913,
				"element": "O" 
			},
			{
				"x": -2.3272481832,
				"y": 3.0227804417,
				"z": 3.5281206155,
				"element": "H" 
			},
			{
				"x": -2.887738996,
				"y": 1.3536845651,
				"z": 3.7239080448,
				"element": "H" 
			},
			{
				"x": -1.5110355714,
				"y": 1.9455922194,
				"z": 4.6690633443,
				"element": "H" 
			},
			{
				"x": -2.0926607637,
				"y": -0.1939168393,
				"z": 1.6864357017,
				"element": "H" 
			},
			{
				"x": 2.8270926701,
				"y": 0.3670226283,
				"z": -1.3619797108,
				"element": "H" 
			},
			{
				"x": 2.9793470317,
				"y": -1.8209735307,
				"z": -1.6366351309,
				"element": "H" 
			}
		],
		 "valence_orbital": [ 
			{
				"type": "occ",
				"energy": -0.30796,
				"method": "rhf"
			},
			{
				"type": "occ",
				"energy": -0.28943,
				"method": "rhf"
			},
			{
				"type": "occ",
				"energy": -0.28344,
				"method": "rhf"
			},
			{
				"type": "occ",
				"energy": -0.26421,
				"method": "rhf"
			},
			{
				"type": "occ",
				"energy": -0.23832,
				"method": "rhf"
			},
			{
				"type": "unocc",
				"energy": -0.07591,
				"method": "rhf"
			},
			{
				"type": "unocc",
				"energy": -0.02972,
				"method": "rhf"
			},
			{
				"type": "unocc",
				"energy": -0.02104,
				"method": "rhf"
			},
			{
				"type": "unocc",
				"energy": -0.00843,
				"method": "rhf"
			},
			{
				"type": "unocc",
				"energy": 0.02589,
				"method": "rhf"
			}
		],
		"cosmo_sigma_profile": { 
			"-0.025": 0.0,
			"-0.024": 0.0,
			"-0.023": 0.0,
			"-0.022": 0.0,
			"-0.021": 0.0,
			"-0.02": 0.0,
			"-0.019": 0.36604368882,
			"-0.018": 1.04771829161,
			"-0.017": 0.961320890257,
			"-0.016": 1.05113060566,
			"-0.015": 1.12529914215,
			"-0.014": 0.99496779964,
			"-0.013": 1.13126360023,
			"-0.012": 0.902862421544,
			"-0.011": 1.42405570237,
			"-0.01": 1.60898630705,
			"-0.009": 3.41969506973,
			"-0.008": 3.89848707453,
			"-0.007": 6.85406535846,
			"-0.006": 14.8447399198,
			"-0.005": 16.3390915795,
			"-0.004": 14.1900855363,
			"-0.003": 17.5686136248,
			"-0.002": 19.8439015894,
			"-0.001": 18.4899133655,
			"0.0": 14.0776000121,
			"0.001": 9.80901204663,
			"0.002": 7.58125758347,
			"0.003": 3.6831922391,
			"0.004": 3.88950415154,
			"0.005": 3.39759925442,
			"0.006": 4.37111963652,
			"0.007": 4.78212283519,
			"0.008": 4.21187674901,
			"0.009": 5.43064421606,
			"0.01": 7.1145963591,
			"0.011": 9.78950921044,
			"0.012": 9.34126486915,
			"0.013": 4.32405778274,
			"0.014": 1.99838244305,
			"0.015": 0.384601142005,
			"0.016": 0.0,
			"0.017": 0.0,
			"0.018": 0.0,
			"0.019": 0.0,
			"0.02": 0.0,
			"0.021": 0.0,
			"0.022": 0.0,
			"0.023": 0.0,
			"0.024": 0.0,
			"0.025": 0.0
		}
	}
}
