{
	 "smiles": "NC(=O)C(F)(F)C(F)F", 
	 "Tm": 331.15, 
	 "num_atms": 12, 
	 "gaussian": { 
		 "optdone": 1, 
		 "sigma_profile": "yes", 
		 "theory": "DFT", 
		 "functional": "B3LYP", 
		 "basiset": "6-31G**", 
		 "properties": { 
			 "R2extent": 1365.5926, 
			 "electric_dipole_moment_norm": 2.84589157559, 
			 "electric_quadrupole_moment_norm": 11.5987199639, 
			 "total_energy": -645.458633369, 
			 "HOMO_LUMO_gap": 0.26379, 
			 "cosmo_polarized_energy": -10.67, 
			 "cosmo_cavitation_energy": 18.38, 
			 "cosmo_dispersion_energy": -12.89, 
			 "cosmo_repulsion_energy": 1.02, 
			 "cosmo_total_nonelectrostatic_energy": 6.51, 
			 "SMD_solvation_energy": 5.69 
		},
		"coords": [
			{
				"x": -1.9943600738,
				"y": -0.7172180557,
				"z": 0.4018857887,
				"element": "N" 
			},
			{
				"x": -0.7486365135,
				"y": -0.2044472926,
				"z": 0.298397074,
				"element": "C" 
			},
			{
				"x": 0.2870289404,
				"y": -0.7523539753,
				"z": 0.6384568533,
				"element": "O" 
			},
			{
				"x": -0.683712103,
				"y": 1.2183389196,
				"z": -0.2925253715,
				"element": "C" 
			},
			{
				"x": -0.3454387641,
				"y": 2.0865176403,
				"z": 0.6991427234,
				"element": "F" 
			},
			{
				"x": -1.8980605375,
				"y": 1.6044903396,
				"z": -0.793716046,
				"element": "F" 
			},
			{
				"x": 0.3723032412,
				"y": 1.3190305586,
				"z": -1.3971307637,
				"element": "C" 
			},
			{
				"x": 0.0096154232,
				"y": 0.4753804139,
				"z": -2.4028528324,
				"element": "F" 
			},
			{
				"x": 0.3919008861,
				"y": 2.5872998825,
				"z": -1.8749757182,
				"element": "F" 
			},
			{
				"x": -2.7935007378,
				"y": -0.2136574815,
				"z": 0.0517701262,
				"element": "H" 
			},
			{
				"x": -2.1054315091,
				"y": -1.6467162563,
				"z": 0.7779663514,
				"element": "H" 
			},
			{
				"x": 1.3604917478,
				"y": 1.0425353069,
				"z": -1.0209181851,
				"element": "H" 
			}
		],
		 "valence_orbital": [ 
			{
				"type": "occ",
				"energy": -0.40436,
				"method": "rhf"
			},
			{
				"type": "occ",
				"energy": -0.39967,
				"method": "rhf"
			},
			{
				"type": "occ",
				"energy": -0.34927,
				"method": "rhf"
			},
			{
				"type": "occ",
				"energy": -0.29655,
				"method": "rhf"
			},
			{
				"type": "occ",
				"energy": -0.27829,
				"method": "rhf"
			},
			{
				"type": "unocc",
				"energy": -0.0145,
				"method": "rhf"
			},
			{
				"type": "unocc",
				"energy": 0.06211,
				"method": "rhf"
			},
			{
				"type": "unocc",
				"energy": 0.09408,
				"method": "rhf"
			},
			{
				"type": "unocc",
				"energy": 0.10581,
				"method": "rhf"
			},
			{
				"type": "unocc",
				"energy": 0.12204,
				"method": "rhf"
			}
		],
		"cosmo_sigma_profile": { 
			"-0.025": 0.0,
			"-0.024": 0.0,
			"-0.023": 0.0,
			"-0.022": 0.0,
			"-0.021": 0.0,
			"-0.02": 0.0,
			"-0.019": 0.0,
			"-0.018": 0.0,
			"-0.017": 0.0,
			"-0.016": 0.673651232365,
			"-0.015": 2.17221337556,
			"-0.014": 1.69605181076,
			"-0.013": 2.65191054018,
			"-0.012": 1.75320945295,
			"-0.011": 2.42898108219,
			"-0.01": 4.26744616598,
			"-0.009": 2.94939462795,
			"-0.008": 2.99627142658,
			"-0.007": 2.67318110929,
			"-0.006": 3.79472176801,
			"-0.005": 3.51877999427,
			"-0.004": 3.46118744633,
			"-0.003": 4.18324899411,
			"-0.002": 4.99146390287,
			"-0.001": 5.68169722522,
			"0.0": 7.44193803655,
			"0.001": 11.9375398803,
			"0.002": 22.6846079022,
			"0.003": 31.7142178724,
			"0.004": 5.97017331529,
			"0.005": 1.24603290879,
			"0.006": 1.31982066542,
			"0.007": 0.943983729821,
			"0.008": 1.09274040708,
			"0.009": 1.55602196024,
			"0.01": 1.93737181425,
			"0.011": 2.75343461216,
			"0.012": 4.53002130197,
			"0.013": 1.290308796,
			"0.014": 0.0,
			"0.015": 0.0,
			"0.016": 0.0,
			"0.017": 0.0,
			"0.018": 0.0,
			"0.019": 0.0,
			"0.02": 0.0,
			"0.021": 0.0,
			"0.022": 0.0,
			"0.023": 0.0,
			"0.024": 0.0,
			"0.025": 0.0
		}
	}
}
