{
	 "smiles": "CCOC1=C(OCC2=CN=CC=C2)C=CC(C=O)=C1", 
	 "Tm": 347.15, 
	 "num_atms": 34, 
	 "gaussian": { 
		 "optdone": 1, 
		 "sigma_profile": "yes", 
		 "theory": "DFT", 
		 "functional": "B3LYP", 
		 "basiset": "6-31G**", 
		 "properties": { 
			 "R2extent": 7468.7373, 
			 "electric_dipole_moment_norm": 1.26162501957, 
			 "electric_quadrupole_moment_norm": 26.8839657188, 
			 "total_energy": -861.02781033, 
			 "HOMO_LUMO_gap": 0.17168, 
			 "cosmo_polarized_energy": -14.05, 
			 "cosmo_cavitation_energy": 39.12, 
			 "cosmo_dispersion_energy": -26.67, 
			 "cosmo_repulsion_energy": 2.06, 
			 "cosmo_total_nonelectrostatic_energy": 14.51, 
			 "SMD_solvation_energy": 6.72 
		},
		"coords": [
			{
				"x": 2.2579209604,
				"y": -1.5310903539,
				"z": -1.5869946702,
				"element": "C" 
			},
			{
				"x": 1.8623871738,
				"y": -0.2257867651,
				"z": -2.252909067,
				"element": "C" 
			},
			{
				"x": 0.8292308066,
				"y": 0.3714433214,
				"z": -1.4601773788,
				"element": "O" 
			},
			{
				"x": 0.3226529733,
				"y": 1.5731452955,
				"z": -1.8583662856,
				"element": "C" 
			},
			{
				"x": -0.6828362455,
				"y": 2.1292580897,
				"z": -1.0220012938,
				"element": "C" 
			},
			{
				"x": -1.0648311532,
				"y": 1.5026566906,
				"z": 0.1334076865,
				"element": "O" 
			},
			{
				"x": -1.7847910817,
				"y": 0.2611407505,
				"z": -0.0087317402,
				"element": "C" 
			},
			{
				"x": -1.6952286151,
				"y": -0.4965469748,
				"z": 1.2882098001,
				"element": "C" 
			},
			{
				"x": -2.8292516145,
				"y": -1.0614583559,
				"z": 1.8787560185,
				"element": "C" 
			},
			{
				"x": -2.8117934272,
				"y": -1.7806406387,
				"z": 3.0077618541,
				"element": "N" 
			},
			{
				"x": -1.6269751777,
				"y": -1.9503848436,
				"z": 3.6048584314,
				"element": "C" 
			},
			{
				"x": -0.4317720993,
				"y": -1.4201376217,
				"z": 3.1115510217,
				"element": "C" 
			},
			{
				"x": -0.4668642984,
				"y": -0.6834968186,
				"z": 1.9315231585,
				"element": "C" 
			},
			{
				"x": -1.235910605,
				"y": 3.3710347163,
				"z": -1.3259435761,
				"element": "C" 
			},
			{
				"x": -0.8187746178,
				"y": 4.0745956615,
				"z": -2.4558502666,
				"element": "C" 
			},
			{
				"x": 0.1548667636,
				"y": 3.5224861569,
				"z": -3.291099758,
				"element": "C" 
			},
			{
				"x": 0.6002815872,
				"y": 4.2523601545,
				"z": -4.4949908171,
				"element": "C" 
			},
			{
				"x": 1.4416986384,
				"y": 3.8500520972,
				"z": -5.2783599389,
				"element": "O" 
			},
			{
				"x": 0.7249945144,
				"y": 2.2725148652,
				"z": -2.9904512221,
				"element": "C" 
			},
			{
				"x": 2.6342375197,
				"y": -1.3524003968,
				"z": -0.5758864604,
				"element": "H" 
			},
			{
				"x": 1.403237947,
				"y": -2.2103923312,
				"z": -1.5233607421,
				"element": "H" 
			},
			{
				"x": 3.0458445826,
				"y": -2.0206854985,
				"z": -2.1671721213,
				"element": "H" 
			},
			{
				"x": 2.7177730911,
				"y": 0.4597764257,
				"z": -2.3169136508,
				"element": "H" 
			},
			{
				"x": 1.4919807657,
				"y": -0.3989482357,
				"z": -3.2722822557,
				"element": "H" 
			},
			{
				"x": -2.8314135088,
				"y": 0.475567213,
				"z": -0.2628259932,
				"element": "H" 
			},
			{
				"x": -1.3455995873,
				"y": -0.3245108942,
				"z": -0.823170594,
				"element": "H" 
			},
			{
				"x": -3.8064331908,
				"y": -0.9247195641,
				"z": 1.415097308,
				"element": "H" 
			},
			{
				"x": -1.6319556018,
				"y": -2.5340750652,
				"z": 4.5239747565,
				"element": "H" 
			},
			{
				"x": 0.5004328309,
				"y": -1.5841308189,
				"z": 3.6434517068,
				"element": "H" 
			},
			{
				"x": 0.4317009224,
				"y": -0.2463276734,
				"z": 1.5075417113,
				"element": "H" 
			},
			{
				"x": -1.9888348563,
				"y": 3.7685177017,
				"z": -0.6533410992,
				"element": "H" 
			},
			{
				"x": -1.2514228707,
				"y": 5.0434125085,
				"z": -2.690994746,
				"element": "H" 
			},
			{
				"x": 0.0999552138,
				"y": 5.2341054853,
				"z": -4.6504198932,
				"element": "H" 
			},
			{
				"x": 1.4858922598,
				"y": 1.8940657166,
				"z": -3.6622898833,
				"element": "H" 
			}
		],
		 "valence_orbital": [ 
			{
				"type": "occ",
				"energy": -0.25905,
				"method": "rhf"
			},
			{
				"type": "occ",
				"energy": -0.25624,
				"method": "rhf"
			},
			{
				"type": "occ",
				"energy": -0.25422,
				"method": "rhf"
			},
			{
				"type": "occ",
				"energy": -0.25359,
				"method": "rhf"
			},
			{
				"type": "occ",
				"energy": -0.23273,
				"method": "rhf"
			},
			{
				"type": "unocc",
				"energy": -0.06105,
				"method": "rhf"
			},
			{
				"type": "unocc",
				"energy": -0.02675,
				"method": "rhf"
			},
			{
				"type": "unocc",
				"energy": -0.01394,
				"method": "rhf"
			},
			{
				"type": "unocc",
				"energy": -0.00566,
				"method": "rhf"
			},
			{
				"type": "unocc",
				"energy": 0.04264,
				"method": "rhf"
			}
		],
		"cosmo_sigma_profile": { 
			"-0.025": 0.0,
			"-0.024": 0.0,
			"-0.023": 0.0,
			"-0.022": 0.0,
			"-0.021": 0.0,
			"-0.02": 0.0,
			"-0.019": 0.0,
			"-0.018": 0.0,
			"-0.017": 0.0,
			"-0.016": 0.0,
			"-0.015": 0.0,
			"-0.014": 0.0,
			"-0.013": 0.0,
			"-0.012": 0.0,
			"-0.011": 0.0,
			"-0.01": 0.0,
			"-0.009": 0.0,
			"-0.008": 0.45096718059,
			"-0.007": 8.84444458619,
			"-0.006": 21.2295906411,
			"-0.005": 26.1117766662,
			"-0.004": 30.6839658278,
			"-0.003": 26.397015249,
			"-0.002": 22.1703171912,
			"-0.001": 22.1168093655,
			"0.0": 22.4024958625,
			"0.001": 23.0349106737,
			"0.002": 29.4935435377,
			"0.003": 25.1788142584,
			"0.004": 10.5265751104,
			"0.005": 6.5695252435,
			"0.006": 4.73114789414,
			"0.007": 4.21538828865,
			"0.008": 3.95717801016,
			"0.009": 4.94629206863,
			"0.01": 4.12886070041,
			"0.011": 4.98618572805,
			"0.012": 4.62147223138,
			"0.013": 2.17556924027,
			"0.014": 1.00281468329,
			"0.015": 0.629042219457,
			"0.016": 0.948247841427,
			"0.017": 0.376355295594,
			"0.018": 0.0,
			"0.019": 0.0,
			"0.02": 0.0,
			"0.021": 0.0,
			"0.022": 0.0,
			"0.023": 0.0,
			"0.024": 0.0,
			"0.025": 0.0
		}
	}
}
