{
	 "smiles": "COC(=O)C1=C(C)N(C)C(C)=C1", 
	 "Tm": 390.15, 
	 "num_atms": 25, 
	 "gaussian": { 
		 "optdone": 1, 
		 "sigma_profile": "yes", 
		 "theory": "DFT", 
		 "functional": "B3LYP", 
		 "basiset": "6-31G**", 
		 "properties": { 
			 "R2extent": 2640.6888, 
			 "electric_dipole_moment_norm": 3.39275202306, 
			 "electric_quadrupole_moment_norm": 13.0563898697, 
			 "total_energy": -556.010940408, 
			 "HOMO_LUMO_gap": 0.19862, 
			 "cosmo_polarized_energy": -10.48, 
			 "cosmo_cavitation_energy": 27.98, 
			 "cosmo_dispersion_energy": -20.29, 
			 "cosmo_repulsion_energy": 1.62, 
			 "cosmo_total_nonelectrostatic_energy": 9.31, 
			 "SMD_solvation_energy": 6.47 
		},
		"coords": [
			{
				"x": -1.095631032,
				"y": 3.7364931316,
				"z": -0.2455002214,
				"element": "C" 
			},
			{
				"x": -1.2891479744,
				"y": 2.3189559752,
				"z": -0.2933798114,
				"element": "O" 
			},
			{
				"x": -0.1509654005,
				"y": 1.5860111178,
				"z": -0.4435046692,
				"element": "C" 
			},
			{
				"x": 0.9483998707,
				"y": 2.113099109,
				"z": -0.5296566405,
				"element": "O" 
			},
			{
				"x": -0.4403275923,
				"y": 0.1534342067,
				"z": -0.4828747941,
				"element": "C" 
			},
			{
				"x": 0.5049844463,
				"y": -0.861814293,
				"z": -0.6276626023,
				"element": "C" 
			},
			{
				"x": 1.990332982,
				"y": -0.7771356845,
				"z": -0.7774847224,
				"element": "C" 
			},
			{
				"x": -0.1795970843,
				"y": -2.0547134006,
				"z": -0.6124133411,
				"element": "N" 
			},
			{
				"x": 0.4080209494,
				"y": -3.375822883,
				"z": -0.7505897908,
				"element": "C" 
			},
			{
				"x": -1.5470018116,
				"y": -1.8214993243,
				"z": -0.4634621848,
				"element": "C" 
			},
			{
				"x": -2.5407271078,
				"y": -2.9368301185,
				"z": -0.415482962,
				"element": "C" 
			},
			{
				"x": -1.7264376708,
				"y": -0.464994169,
				"z": -0.3810634103,
				"element": "C" 
			},
			{
				"x": -2.0906751615,
				"y": 4.166467193,
				"z": -0.1245531053,
				"element": "H" 
			},
			{
				"x": -0.4551245978,
				"y": 4.0154873368,
				"z": 0.5957965771,
				"element": "H" 
			},
			{
				"x": -0.6332108976,
				"y": 4.0993397472,
				"z": -1.1676540012,
				"element": "H" 
			},
			{
				"x": 2.5163697529,
				"y": -1.293459503,
				"z": 0.0357773295,
				"element": "H" 
			},
			{
				"x": 2.2786265691,
				"y": 0.2735754721,
				"z": -0.7594244363,
				"element": "H" 
			},
			{
				"x": 2.3345569689,
				"y": -1.214666051,
				"z": -1.7232391732,
				"element": "H" 
			},
			{
				"x": 0.1294478235,
				"y": -4.0146502843,
				"z": 0.0934384174,
				"element": "H" 
			},
			{
				"x": 0.0780133528,
				"y": -3.8606640428,
				"z": -1.676038617,
				"element": "H" 
			},
			{
				"x": 1.4938319649,
				"y": -3.2924143419,
				"z": -0.773840535,
				"element": "H" 
			},
			{
				"x": -3.5448763515,
				"y": -2.5223310056,
				"z": -0.3008378942,
				"element": "H" 
			},
			{
				"x": -2.5366447254,
				"y": -3.5442908289,
				"z": -1.3299728056,
				"element": "H" 
			},
			{
				"x": -2.3678131622,
				"y": -3.6195246318,
				"z": 0.4268734895,
				"element": "H" 
			},
			{
				"x": -2.6692041108,
				"y": 0.0471472727,
				"z": -0.2595500954,
				"element": "H" 
			}
		],
		 "valence_orbital": [ 
			{
				"type": "occ",
				"energy": -0.33748,
				"method": "rhf"
			},
			{
				"type": "occ",
				"energy": -0.28103,
				"method": "rhf"
			},
			{
				"type": "occ",
				"energy": -0.25188,
				"method": "rhf"
			},
			{
				"type": "occ",
				"energy": -0.23416,
				"method": "rhf"
			},
			{
				"type": "occ",
				"energy": -0.19957,
				"method": "rhf"
			},
			{
				"type": "unocc",
				"energy": -0.00095,
				"method": "rhf"
			},
			{
				"type": "unocc",
				"energy": 0.04641,
				"method": "rhf"
			},
			{
				"type": "unocc",
				"energy": 0.07907,
				"method": "rhf"
			},
			{
				"type": "unocc",
				"energy": 0.11563,
				"method": "rhf"
			},
			{
				"type": "unocc",
				"energy": 0.11889,
				"method": "rhf"
			}
		],
		"cosmo_sigma_profile": { 
			"-0.025": 0.0,
			"-0.024": 0.0,
			"-0.023": 0.0,
			"-0.022": 0.0,
			"-0.021": 0.0,
			"-0.02": 0.0,
			"-0.019": 0.0,
			"-0.018": 0.0,
			"-0.017": 0.0,
			"-0.016": 0.0,
			"-0.015": 0.0,
			"-0.014": 0.0,
			"-0.013": 0.0,
			"-0.012": 0.0,
			"-0.011": 0.0,
			"-0.01": 0.0,
			"-0.009": 0.0,
			"-0.008": 0.0,
			"-0.007": 0.166770178763,
			"-0.006": 6.84601916215,
			"-0.005": 22.656535061,
			"-0.004": 26.3226252562,
			"-0.003": 28.4737865727,
			"-0.002": 21.9655163521,
			"-0.001": 18.2923591168,
			"0.0": 16.4500519547,
			"0.001": 11.4764746724,
			"0.002": 8.26434594914,
			"0.003": 8.52153165164,
			"0.004": 9.89043169656,
			"0.005": 9.51466014795,
			"0.006": 8.33282012213,
			"0.007": 7.41241873709,
			"0.008": 4.30652268758,
			"0.009": 2.23643932683,
			"0.01": 1.66891987586,
			"0.011": 1.81546799412,
			"0.012": 2.67884009468,
			"0.013": 2.99600214288,
			"0.014": 0.277188313641,
			"0.015": 0.0,
			"0.016": 0.0,
			"0.017": 0.0,
			"0.018": 0.0,
			"0.019": 0.0,
			"0.02": 0.0,
			"0.021": 0.0,
			"0.022": 0.0,
			"0.023": 0.0,
			"0.024": 0.0,
			"0.025": 0.0
		}
	}
}
