{
	 "smiles": "[O-][N+](=O)C1=C(Cl)C(Br)=CN=C1", 
	 "Tm": 319.15, 
	 "num_atms": 13, 
	 "gaussian": { 
		 "optdone": 1, 
		 "sigma_profile": "yes", 
		 "theory": "DFT", 
		 "functional": "B3LYP", 
		 "basiset": "6-31G**", 
		 "properties": { 
			 "R2extent": 5011.6048, 
			 "electric_dipole_moment_norm": 2.76798771312, 
			 "electric_quadrupole_moment_norm": 7.57090805848, 
			 "total_energy": -3483.15082224, 
			 "HOMO_LUMO_gap": 0.17515, 
			 "cosmo_polarized_energy": -7.89, 
			 "cosmo_cavitation_energy": 22.72, 
			 "cosmo_dispersion_energy": -17.33, 
			 "cosmo_repulsion_energy": 1.38, 
			 "cosmo_total_nonelectrostatic_energy": 6.77, 
			 "SMD_solvation_energy": 3.55 
		},
		"coords": [
			{
				"x": 1.7044680538,
				"y": 0.7565013964,
				"z": -1.01549873,
				"element": "O" 
			},
			{
				"x": 0.7139314632,
				"y": 0.468003051,
				"z": -1.6845510968,
				"element": "N" 
			},
			{
				"x": 0.5379826773,
				"y": 0.7511172485,
				"z": -2.8635455007,
				"element": "O" 
			},
			{
				"x": -0.3661707668,
				"y": -0.2368248867,
				"z": -0.9729457365,
				"element": "C" 
			},
			{
				"x": -1.1650434936,
				"y": -1.2258281314,
				"z": -1.5674750088,
				"element": "C" 
			},
			{
				"x": -0.904593561,
				"y": -1.7958496668,
				"z": -3.1751499287,
				"element": "Cl" 
			},
			{
				"x": -2.1723338034,
				"y": -1.7776667796,
				"z": -0.7610441763,
				"element": "C" 
			},
			{
				"x": -3.3308161526,
				"y": -3.139530129,
				"z": -1.3822953029,
				"element": "Br" 
			},
			{
				"x": -2.3292776961,
				"y": -1.3178445174,
				"z": 0.5506319851,
				"element": "C" 
			},
			{
				"x": -1.5585359738,
				"y": -0.3794992403,
				"z": 1.1029303019,
				"element": "N" 
			},
			{
				"x": -0.5879994213,
				"y": 0.1400116755,
				"z": 0.3527931527,
				"element": "C" 
			},
			{
				"x": -3.1127554396,
				"y": -1.743558793,
				"z": 1.1714047382,
				"element": "H" 
			},
			{
				"x": 0.050744114,
				"y": 0.896068773,
				"z": 0.7984453027,
				"element": "H" 
			}
		],
		 "valence_orbital": [ 
			{
				"type": "occ",
				"energy": -0.32574,
				"method": "rhf"
			},
			{
				"type": "occ",
				"energy": -0.31275,
				"method": "rhf"
			},
			{
				"type": "occ",
				"energy": -0.3019,
				"method": "rhf"
			},
			{
				"type": "occ",
				"energy": -0.29621,
				"method": "rhf"
			},
			{
				"type": "occ",
				"energy": -0.28315,
				"method": "rhf"
			},
			{
				"type": "unocc",
				"energy": -0.108,
				"method": "rhf"
			},
			{
				"type": "unocc",
				"energy": -0.06983,
				"method": "rhf"
			},
			{
				"type": "unocc",
				"energy": -0.04254,
				"method": "rhf"
			},
			{
				"type": "unocc",
				"energy": -0.04085,
				"method": "rhf"
			},
			{
				"type": "unocc",
				"energy": 0.0243,
				"method": "rhf"
			}
		],
		"cosmo_sigma_profile": { 
			"-0.025": 0.0,
			"-0.024": 0.0,
			"-0.023": 0.0,
			"-0.022": 0.0,
			"-0.021": 0.0,
			"-0.02": 0.0,
			"-0.019": 0.0,
			"-0.018": 0.0,
			"-0.017": 0.0,
			"-0.016": 0.0,
			"-0.015": 0.0,
			"-0.014": 0.0,
			"-0.013": 0.0,
			"-0.012": 0.0,
			"-0.011": 0.0,
			"-0.01": 1.19407989936,
			"-0.009": 4.76543108211,
			"-0.008": 5.01080658524,
			"-0.007": 4.65438246626,
			"-0.006": 6.62063846174,
			"-0.005": 11.2244301569,
			"-0.004": 15.0016310831,
			"-0.003": 17.4505531844,
			"-0.002": 12.8933609696,
			"-0.001": 11.9314967043,
			"0.0": 11.2988420099,
			"0.001": 14.8280560257,
			"0.002": 17.4771328668,
			"0.003": 12.924097924,
			"0.004": 5.71498468441,
			"0.005": 5.48489681977,
			"0.006": 9.41394741558,
			"0.007": 10.4148547992,
			"0.008": 4.62554700874,
			"0.009": 2.77081726799,
			"0.01": 0.854767801487,
			"0.011": 0.799917602636,
			"0.012": 1.02085257417,
			"0.013": 0.720710031892,
			"0.014": 0.244721745547,
			"0.015": 0.0,
			"0.016": 0.0,
			"0.017": 0.0,
			"0.018": 0.0,
			"0.019": 0.0,
			"0.02": 0.0,
			"0.021": 0.0,
			"0.022": 0.0,
			"0.023": 0.0,
			"0.024": 0.0,
			"0.025": 0.0
		}
	}
}
