{
	 "smiles": "FC1=C(C=C(Br)C=C1)C(=O)C1=CC=CC=C1", 
	 "Tm": 341.15, 
	 "num_atms": 24, 
	 "gaussian": { 
		 "optdone": 1, 
		 "sigma_profile": "yes", 
		 "theory": "DFT", 
		 "functional": "B3LYP", 
		 "basiset": "6-31G**", 
		 "properties": { 
			 "R2extent": 6539.9977, 
			 "electric_dipole_moment_norm": 3.23333020429, 
			 "electric_quadrupole_moment_norm": 10.3655009797, 
			 "total_energy": -3246.66425104, 
			 "HOMO_LUMO_gap": 0.17413, 
			 "cosmo_polarized_energy": -8.74, 
			 "cosmo_cavitation_energy": 31.62, 
			 "cosmo_dispersion_energy": -23.08, 
			 "cosmo_repulsion_energy": 1.77, 
			 "cosmo_total_nonelectrostatic_energy": 10.31, 
			 "SMD_solvation_energy": 5.04 
		},
		"coords": [
			{
				"x": 1.4384963083,
				"y": 0.0915604325,
				"z": 1.0683917903,
				"element": "F" 
			},
			{
				"x": 0.258934075,
				"y": 0.7429509998,
				"z": 1.1165467422,
				"element": "C" 
			},
			{
				"x": -0.8742324187,
				"y": 0.1786829414,
				"z": 0.5227663667,
				"element": "C" 
			},
			{
				"x": -2.0915037227,
				"y": 0.8649692705,
				"z": 0.6594704097,
				"element": "C" 
			},
			{
				"x": -2.1415630049,
				"y": 2.0853071345,
				"z": 1.3212774804,
				"element": "C" 
			},
			{
				"x": -3.8034599232,
				"y": 3.0151019396,
				"z": 1.4638625125,
				"element": "Br" 
			},
			{
				"x": -0.9945999397,
				"y": 2.6414121115,
				"z": 1.8920611828,
				"element": "C" 
			},
			{
				"x": 0.2139832999,
				"y": 1.9563302462,
				"z": 1.7952998522,
				"element": "C" 
			},
			{
				"x": -0.9095529784,
				"y": -1.16533168,
				"z": -0.1637493686,
				"element": "C" 
			},
			{
				"x": -1.8796588786,
				"y": -1.887968563,
				"z": 0.0263542806,
				"element": "O" 
			},
			{
				"x": 0.1824575614,
				"y": -1.5820939678,
				"z": -1.0932506188,
				"element": "C" 
			},
			{
				"x": 1.0439693566,
				"y": -0.6652544499,
				"z": -1.7137061166,
				"element": "C" 
			},
			{
				"x": 1.9974390281,
				"y": -1.107512422,
				"z": -2.6292586033,
				"element": "C" 
			},
			{
				"x": 2.1074654469,
				"y": -2.468365606,
				"z": -2.9222502041,
				"element": "C" 
			},
			{
				"x": 1.250393886,
				"y": -3.3881370489,
				"z": -2.3099224153,
				"element": "C" 
			},
			{
				"x": 0.2858484541,
				"y": -2.9464157631,
				"z": -1.4099239333,
				"element": "C" 
			},
			{
				"x": -2.9855989961,
				"y": 0.4184251514,
				"z": 0.2411001126,
				"element": "H" 
			},
			{
				"x": -1.0468666989,
				"y": 3.5910112158,
				"z": 2.4118559817,
				"element": "H" 
			},
			{
				"x": 1.120907852,
				"y": 2.3442117694,
				"z": 2.2460300766,
				"element": "H" 
			},
			{
				"x": 0.9565381811,
				"y": 0.3946205107,
				"z": -1.4999125571,
				"element": "H" 
			},
			{
				"x": 2.6538570096,
				"y": -0.3909965868,
				"z": -3.1139580439,
				"element": "H" 
			},
			{
				"x": 2.8569722082,
				"y": -2.8119003572,
				"z": -3.6295910298,
				"element": "H" 
			},
			{
				"x": 1.3333527399,
				"y": -4.4462296209,
				"z": -2.5400860117,
				"element": "H" 
			},
			{
				"x": -0.4018788461,
				"y": -3.6393776577,
				"z": -0.9371078858,
				"element": "H" 
			}
		],
		 "valence_orbital": [ 
			{
				"type": "occ",
				"energy": -0.28268,
				"method": "rhf"
			},
			{
				"type": "occ",
				"energy": -0.26459,
				"method": "rhf"
			},
			{
				"type": "occ",
				"energy": -0.26269,
				"method": "rhf"
			},
			{
				"type": "occ",
				"energy": -0.25532,
				"method": "rhf"
			},
			{
				"type": "occ",
				"energy": -0.24822,
				"method": "rhf"
			},
			{
				"type": "unocc",
				"energy": -0.07409,
				"method": "rhf"
			},
			{
				"type": "unocc",
				"energy": -0.02848,
				"method": "rhf"
			},
			{
				"type": "unocc",
				"energy": -0.02042,
				"method": "rhf"
			},
			{
				"type": "unocc",
				"energy": -0.01047,
				"method": "rhf"
			},
			{
				"type": "unocc",
				"energy": -0.00021,
				"method": "rhf"
			}
		],
		"cosmo_sigma_profile": { 
			"-0.025": 0.0,
			"-0.024": 0.0,
			"-0.023": 0.0,
			"-0.022": 0.0,
			"-0.021": 0.0,
			"-0.02": 0.0,
			"-0.019": 0.0,
			"-0.018": 0.0,
			"-0.017": 0.0,
			"-0.016": 0.0,
			"-0.015": 0.0,
			"-0.014": 0.0,
			"-0.013": 0.0,
			"-0.012": 0.0,
			"-0.011": 0.0,
			"-0.01": 0.0,
			"-0.009": 0.805251050858,
			"-0.008": 3.75891206536,
			"-0.007": 7.49818918718,
			"-0.006": 14.3885749441,
			"-0.005": 15.525701198,
			"-0.004": 19.3813166089,
			"-0.003": 16.7648591319,
			"-0.002": 16.1009689485,
			"-0.001": 19.6350424744,
			"0.0": 21.4305586237,
			"0.001": 27.1103861153,
			"0.002": 21.6519259403,
			"0.003": 23.9555698481,
			"0.004": 29.4319374759,
			"0.005": 5.69184484772,
			"0.006": 1.87763703657,
			"0.007": 1.62506918712,
			"0.008": 1.73122489021,
			"0.009": 2.03728146686,
			"0.01": 2.01821484703,
			"0.011": 4.16129047753,
			"0.012": 1.90638788817,
			"0.013": 0.00426628746408,
			"0.014": 0.0,
			"0.015": 0.0,
			"0.016": 0.0,
			"0.017": 0.0,
			"0.018": 0.0,
			"0.019": 0.0,
			"0.02": 0.0,
			"0.021": 0.0,
			"0.022": 0.0,
			"0.023": 0.0,
			"0.024": 0.0,
			"0.025": 0.0
		}
	}
}
