{
	 "smiles": "CC(C)C(Br)C(=O)C1=CC=CC=C1", 
	 "Tm": 323.15, 
	 "num_atms": 26, 
	 "gaussian": { 
		 "optdone": 1, 
		 "sigma_profile": "yes", 
		 "theory": "DFT", 
		 "functional": "B3LYP", 
		 "basiset": "6-31G**", 
		 "properties": { 
			 "R2extent": 6944.3581, 
			 "electric_dipole_moment_norm": 2.90945218555, 
			 "electric_quadrupole_moment_norm": 14.6806465225, 
			 "total_energy": -3073.6466434, 
			 "HOMO_LUMO_gap": 0.1829, 
			 "cosmo_polarized_energy": -8.17, 
			 "cosmo_cavitation_energy": 30.62, 
			 "cosmo_dispersion_energy": -21.98, 
			 "cosmo_repulsion_energy": 1.73, 
			 "cosmo_total_nonelectrostatic_energy": 10.37, 
			 "SMD_solvation_energy": 4.67 
		},
		"coords": [
			{
				"x": 4.390752586,
				"y": -0.1711961989,
				"z": 0.0031636852,
				"element": "C" 
			},
			{
				"x": 3.3720402647,
				"y": -0.3189741622,
				"z": -1.1343420118,
				"element": "C" 
			},
			{
				"x": 2.5637892592,
				"y": -1.6213262638,
				"z": -0.9557802012,
				"element": "C" 
			},
			{
				"x": 2.3990213637,
				"y": 0.8611744635,
				"z": -1.2159717284,
				"element": "C" 
			},
			{
				"x": 3.3555855756,
				"y": 2.6231293903,
				"z": -1.388422571,
				"element": "Br" 
			},
			{
				"x": 1.4695254981,
				"y": 0.822136479,
				"z": -2.4395133981,
				"element": "C" 
			},
			{
				"x": 1.8090027963,
				"y": 0.1934250753,
				"z": -3.4298493574,
				"element": "O" 
			},
			{
				"x": 0.1486799576,
				"y": 1.5243464303,
				"z": -2.3854750976,
				"element": "C" 
			},
			{
				"x": -0.7351503315,
				"y": 1.3169761823,
				"z": -3.4577717021,
				"element": "C" 
			},
			{
				"x": -1.9899524683,
				"y": 1.9175008523,
				"z": -3.4656268659,
				"element": "C" 
			},
			{
				"x": -2.3771868442,
				"y": 2.7396568713,
				"z": -2.4032626195,
				"element": "C" 
			},
			{
				"x": -1.5029105745,
				"y": 2.9600847626,
				"z": -1.3371121815,
				"element": "C" 
			},
			{
				"x": -0.2465582169,
				"y": 2.3558600946,
				"z": -1.3253643965,
				"element": "C" 
			},
			{
				"x": 5.044858976,
				"y": -1.0482774652,
				"z": 0.0331896039,
				"element": "H" 
			},
			{
				"x": 3.8899603974,
				"y": -0.0984026302,
				"z": 0.9764744583,
				"element": "H" 
			},
			{
				"x": 5.0156518291,
				"y": 0.7153725914,
				"z": -0.1221558208,
				"element": "H" 
			},
			{
				"x": 3.8980181917,
				"y": -0.3717133521,
				"z": -2.0931271927,
				"element": "H" 
			},
			{
				"x": 1.980691542,
				"y": -1.6015122222,
				"z": -0.026780293,
				"element": "H" 
			},
			{
				"x": 1.8840069593,
				"y": -1.7970743328,
				"z": -1.7917197394,
				"element": "H" 
			},
			{
				"x": 3.247671085,
				"y": -2.4736426334,
				"z": -0.895230431,
				"element": "H" 
			},
			{
				"x": 1.8382926734,
				"y": 0.9674402469,
				"z": -0.2862216648,
				"element": "H" 
			},
			{
				"x": -0.4120278961,
				"y": 0.6769294355,
				"z": -4.2716506106,
				"element": "H" 
			},
			{
				"x": -2.6672647177,
				"y": 1.7470280181,
				"z": -4.2972819015,
				"element": "H" 
			},
			{
				"x": -3.3564026097,
				"y": 3.2099491237,
				"z": -2.4081600705,
				"element": "H" 
			},
			{
				"x": -1.7972002242,
				"y": 3.6067884827,
				"z": -0.5159327105,
				"element": "H" 
			},
			{
				"x": 0.429804928,
				"y": 2.561320761,
				"z": -0.5030751814,
				"element": "H" 
			}
		],
		 "valence_orbital": [ 
			{
				"type": "occ",
				"energy": -0.28625,
				"method": "rhf"
			},
			{
				"type": "occ",
				"energy": -0.28071,
				"method": "rhf"
			},
			{
				"type": "occ",
				"energy": -0.26305,
				"method": "rhf"
			},
			{
				"type": "occ",
				"energy": -0.26177,
				"method": "rhf"
			},
			{
				"type": "occ",
				"energy": -0.25521,
				"method": "rhf"
			},
			{
				"type": "unocc",
				"energy": -0.07231,
				"method": "rhf"
			},
			{
				"type": "unocc",
				"energy": -0.01394,
				"method": "rhf"
			},
			{
				"type": "unocc",
				"energy": -0.01088,
				"method": "rhf"
			},
			{
				"type": "unocc",
				"energy": 0.04826,
				"method": "rhf"
			},
			{
				"type": "unocc",
				"energy": 0.08605,
				"method": "rhf"
			}
		],
		"cosmo_sigma_profile": { 
			"-0.025": 0.0,
			"-0.024": 0.0,
			"-0.023": 0.0,
			"-0.022": 0.0,
			"-0.021": 0.0,
			"-0.02": 0.0,
			"-0.019": 0.0,
			"-0.018": 0.0,
			"-0.017": 0.0,
			"-0.016": 0.0,
			"-0.015": 0.0,
			"-0.014": 0.0,
			"-0.013": 0.0,
			"-0.012": 0.0,
			"-0.011": 0.0,
			"-0.01": 0.00945413258831,
			"-0.009": 1.04195290648,
			"-0.008": 2.14106091779,
			"-0.007": 5.01243616361,
			"-0.006": 11.4831670827,
			"-0.005": 12.894540273,
			"-0.004": 15.1692374901,
			"-0.003": 22.6313271636,
			"-0.002": 19.9351729915,
			"-0.001": 21.0730787554,
			"0.0": 23.923826811,
			"0.001": 25.7773238977,
			"0.002": 18.3904098309,
			"0.003": 21.0784829807,
			"0.004": 20.2911057714,
			"0.005": 9.13290293218,
			"0.006": 3.39249680915,
			"0.007": 1.75743353271,
			"0.008": 1.66650577956,
			"0.009": 1.87023145013,
			"0.01": 2.19119552287,
			"0.011": 3.53049109143,
			"0.012": 0.706104284306,
			"0.013": 0.0,
			"0.014": 0.0,
			"0.015": 0.0,
			"0.016": 0.0,
			"0.017": 0.0,
			"0.018": 0.0,
			"0.019": 0.0,
			"0.02": 0.0,
			"0.021": 0.0,
			"0.022": 0.0,
			"0.023": 0.0,
			"0.024": 0.0,
			"0.025": 0.0
		}
	}
}
