{
	 "smiles": "CCOC(=O)C1=C(N=C(N)S1)C(F)(F)F", 
	 "Tm": 459.15, 
	 "num_atms": 22, 
	 "gaussian": { 
		 "optdone": 1, 
		 "sigma_profile": "yes", 
		 "theory": "DFT", 
		 "functional": "B3LYP", 
		 "basiset": "6-31G**", 
		 "properties": { 
			 "R2extent": 4194.3984, 
			 "electric_dipole_moment_norm": 2.6943317576, 
			 "electric_quadrupole_moment_norm": 25.9888633901, 
			 "total_energy": -1228.63309882, 
			 "HOMO_LUMO_gap": 0.17219, 
			 "cosmo_polarized_energy": -14.57, 
			 "cosmo_cavitation_energy": 30.08, 
			 "cosmo_dispersion_energy": -21.49, 
			 "cosmo_repulsion_energy": 1.62, 
			 "cosmo_total_nonelectrostatic_energy": 10.21, 
			 "SMD_solvation_energy": 5.82 
		},
		"coords": [
			{
				"x": 2.6884408876,
				"y": -1.5890821747,
				"z": 1.044227325,
				"element": "C" 
			},
			{
				"x": 1.9711495796,
				"y": -1.6509500403,
				"z": -0.2903950034,
				"element": "C" 
			},
			{
				"x": 1.0629421999,
				"y": -0.5252852961,
				"z": -0.3349809894,
				"element": "O" 
			},
			{
				"x": 0.3271147876,
				"y": -0.3995836476,
				"z": -1.4496837693,
				"element": "C" 
			},
			{
				"x": 0.3791371869,
				"y": -1.1604484383,
				"z": -2.4013116536,
				"element": "O" 
			},
			{
				"x": -0.5667130062,
				"y": 0.767257717,
				"z": -1.4129033365,
				"element": "C" 
			},
			{
				"x": -0.8131557948,
				"y": 1.7679766042,
				"z": -0.4984761525,
				"element": "C" 
			},
			{
				"x": -1.7357919534,
				"y": 2.7106257142,
				"z": -0.8488032027,
				"element": "N" 
			},
			{
				"x": -2.2257230586,
				"y": 2.4525636639,
				"z": -2.0402263225,
				"element": "C" 
			},
			{
				"x": -3.2061889609,
				"y": 3.2088225694,
				"z": -2.6097501872,
				"element": "N" 
			},
			{
				"x": -1.582776606,
				"y": 1.0197720231,
				"z": -2.8237130339,
				"element": "S" 
			},
			{
				"x": -0.1476829323,
				"y": 1.9251143051,
				"z": 0.8571106062,
				"element": "C" 
			},
			{
				"x": -0.6167932241,
				"y": 3.0073292077,
				"z": 1.4974954237,
				"element": "F" 
			},
			{
				"x": 1.1880205455,
				"y": 2.0725877575,
				"z": 0.7389608284,
				"element": "F" 
			},
			{
				"x": -0.3754231984,
				"y": 0.8566525424,
				"z": 1.6476506847,
				"element": "F" 
			},
			{
				"x": 3.2462044343,
				"y": -0.6536697742,
				"z": 1.1419696085,
				"element": "H" 
			},
			{
				"x": 3.3910530829,
				"y": -2.4239615061,
				"z": 1.1273922193,
				"element": "H" 
			},
			{
				"x": 1.975617463,
				"y": -1.6504063194,
				"z": 1.8711190858,
				"element": "H" 
			},
			{
				"x": 2.6609420496,
				"y": -1.579723189,
				"z": -1.137199059,
				"element": "H" 
			},
			{
				"x": 1.3938152676,
				"y": -2.5730718207,
				"z": -0.4101572474,
				"element": "H" 
			},
			{
				"x": -3.3794858273,
				"y": 4.0942334505,
				"z": -2.1548229734,
				"element": "H" 
			},
			{
				"x": -3.3269029225,
				"y": 3.1890466513,
				"z": -3.6103028507,
				"element": "H" 
			}
		],
		 "valence_orbital": [ 
			{
				"type": "occ",
				"energy": -0.30471,
				"method": "rhf"
			},
			{
				"type": "occ",
				"energy": -0.30346,
				"method": "rhf"
			},
			{
				"type": "occ",
				"energy": -0.29424,
				"method": "rhf"
			},
			{
				"type": "occ",
				"energy": -0.27252,
				"method": "rhf"
			},
			{
				"type": "occ",
				"energy": -0.23328,
				"method": "rhf"
			},
			{
				"type": "unocc",
				"energy": -0.06109,
				"method": "rhf"
			},
			{
				"type": "unocc",
				"energy": -0.00599,
				"method": "rhf"
			},
			{
				"type": "unocc",
				"energy": 0.01814,
				"method": "rhf"
			},
			{
				"type": "unocc",
				"energy": 0.05886,
				"method": "rhf"
			},
			{
				"type": "unocc",
				"energy": 0.07666,
				"method": "rhf"
			}
		],
		"cosmo_sigma_profile": { 
			"-0.025": 0.0,
			"-0.024": 0.0,
			"-0.023": 0.0,
			"-0.022": 0.0,
			"-0.021": 0.0,
			"-0.02": 0.0,
			"-0.019": 0.0,
			"-0.018": 0.0,
			"-0.017": 0.03773050966,
			"-0.016": 1.15516329634,
			"-0.015": 2.26681221977,
			"-0.014": 2.72703692892,
			"-0.013": 2.90873495329,
			"-0.012": 3.21972301391,
			"-0.011": 2.04958018763,
			"-0.01": 1.56258669308,
			"-0.009": 2.4158252385,
			"-0.008": 1.53518213821,
			"-0.007": 1.75940618744,
			"-0.006": 2.44141826966,
			"-0.005": 8.9411778964,
			"-0.004": 14.4265731772,
			"-0.003": 16.3401464946,
			"-0.002": 18.7142265714,
			"-0.001": 21.3664891444,
			"0.0": 21.8279988855,
			"0.001": 16.6459419541,
			"0.002": 26.1560958075,
			"0.003": 29.8903821088,
			"0.004": 9.84872282832,
			"0.005": 7.2886801773,
			"0.006": 4.18217884262,
			"0.007": 3.3858964942,
			"0.008": 3.56647530738,
			"0.009": 2.31583910963,
			"0.01": 3.43635039807,
			"0.011": 4.46691302869,
			"0.012": 4.45118013385,
			"0.013": 0.481151137559,
			"0.014": 0.0,
			"0.015": 0.0,
			"0.016": 0.0,
			"0.017": 0.0,
			"0.018": 0.0,
			"0.019": 0.0,
			"0.02": 0.0,
			"0.021": 0.0,
			"0.022": 0.0,
			"0.023": 0.0,
			"0.024": 0.0,
			"0.025": 0.0
		}
	}
}
