{
	 "smiles": "CCCCSC1=C2C(CCCC2=O)=C(S1)C(=O)OCC", 
	 "Tm": 344.65, 
	 "num_atms": 40, 
	 "gaussian": { 
		 "optdone": 1, 
		 "sigma_profile": "yes", 
		 "theory": "DFT", 
		 "functional": "B3LYP", 
		 "basiset": "6-31G**", 
		 "properties": { 
			 "R2extent": 8291.0206, 
			 "electric_dipole_moment_norm": 2.43770260902, 
			 "electric_quadrupole_moment_norm": 18.1738346644, 
			 "total_energy": -1605.72808373, 
			 "HOMO_LUMO_gap": 0.15645, 
			 "cosmo_polarized_energy": -13.57, 
			 "cosmo_cavitation_energy": 44.26, 
			 "cosmo_dispersion_energy": -32.0, 
			 "cosmo_repulsion_energy": 2.46, 
			 "cosmo_total_nonelectrostatic_energy": 14.72, 
			 "SMD_solvation_energy": 7.79 
		},
		"coords": [
			{
				"x": 3.5090838848,
				"y": 0.0846163217,
				"z": 4.6442169622,
				"element": "C" 
			},
			{
				"x": 2.8488171066,
				"y": -0.6263900904,
				"z": 3.4584515819,
				"element": "C" 
			},
			{
				"x": 3.7200057453,
				"y": -1.7520900224,
				"z": 2.8908527654,
				"element": "C" 
			},
			{
				"x": 3.1309786288,
				"y": -2.5059622797,
				"z": 1.6916410361,
				"element": "C" 
			},
			{
				"x": 3.0372157412,
				"y": -1.5100444432,
				"z": 0.1337858576,
				"element": "S" 
			},
			{
				"x": 1.3499923533,
				"y": -1.0683360535,
				"z": 0.0073020105,
				"element": "C" 
			},
			{
				"x": 0.8115907497,
				"y": -0.3132331499,
				"z": -1.0412251584,
				"element": "C" 
			},
			{
				"x": -0.6042800251,
				"y": -0.1093583079,
				"z": -0.9302612207,
				"element": "C" 
			},
			{
				"x": -1.3455672278,
				"y": 0.6878644317,
				"z": -1.9762541216,
				"element": "C" 
			},
			{
				"x": -0.4086606888,
				"y": 1.6762949008,
				"z": -2.6880844031,
				"element": "C" 
			},
			{
				"x": 0.8400287989,
				"y": 0.9725582214,
				"z": -3.2346178488,
				"element": "C" 
			},
			{
				"x": 1.606353654,
				"y": 0.2093658206,
				"z": -2.1601251208,
				"element": "C" 
			},
			{
				"x": 2.8169977623,
				"y": 0.0260858284,
				"z": -2.2418165776,
				"element": "O" 
			},
			{
				"x": -1.1307202505,
				"y": -0.7130086153,
				"z": 0.1908945828,
				"element": "C" 
			},
			{
				"x": 0.111072007,
				"y": -1.5280727053,
				"z": 1.1330095581,
				"element": "S" 
			},
			{
				"x": -2.4853668734,
				"y": -0.7999702407,
				"z": 0.7403810862,
				"element": "C" 
			},
			{
				"x": -2.7467296155,
				"y": -1.3698942583,
				"z": 1.7876590337,
				"element": "O" 
			},
			{
				"x": -3.4146509055,
				"y": -0.1955127552,
				"z": -0.0391852558,
				"element": "O" 
			},
			{
				"x": -4.7797157768,
				"y": -0.2386432859,
				"z": 0.4452726467,
				"element": "C" 
			},
			{
				"x": -5.0566098148,
				"y": 0.8845962386,
				"z": 1.4329916651,
				"element": "C" 
			},
			{
				"x": 3.7106227131,
				"y": -0.6127855356,
				"z": 5.465460463,
				"element": "H" 
			},
			{
				"x": 2.8686640189,
				"y": 0.8814600016,
				"z": 5.0351960299,
				"element": "H" 
			},
			{
				"x": 4.463583639,
				"y": 0.5376879803,
				"z": 4.3531215731,
				"element": "H" 
			},
			{
				"x": 2.6366766294,
				"y": 0.103012541,
				"z": 2.6673482582,
				"element": "H" 
			},
			{
				"x": 1.8792324397,
				"y": -1.0363933432,
				"z": 3.7686240305,
				"element": "H" 
			},
			{
				"x": 4.7012423716,
				"y": -1.3487667779,
				"z": 2.6084490759,
				"element": "H" 
			},
			{
				"x": 3.9112587639,
				"y": -2.4955226102,
				"z": 3.6780030894,
				"element": "H" 
			},
			{
				"x": 3.7839396799,
				"y": -3.3409053077,
				"z": 1.4201451013,
				"element": "H" 
			},
			{
				"x": 2.1503171956,
				"y": -2.9346478579,
				"z": 1.9163012574,
				"element": "H" 
			},
			{
				"x": -2.1947488078,
				"y": 1.2025396922,
				"z": -1.5242635792,
				"element": "H" 
			},
			{
				"x": -1.7716430626,
				"y": -0.0082280531,
				"z": -2.7136147919,
				"element": "H" 
			},
			{
				"x": -0.9470698681,
				"y": 2.1745103223,
				"z": -3.5013205315,
				"element": "H" 
			},
			{
				"x": -0.1056419677,
				"y": 2.4607042069,
				"z": -1.9831193911,
				"element": "H" 
			},
			{
				"x": 1.5374209441,
				"y": 1.6674949979,
				"z": -3.7106665686,
				"element": "H" 
			},
			{
				"x": 0.5472917618,
				"y": 0.2416033935,
				"z": -4.0033458539,
				"element": "H" 
			},
			{
				"x": -4.95985058,
				"y": -1.2157025261,
				"z": 0.8990173969,
				"element": "H" 
			},
			{
				"x": -5.3874182387,
				"y": -0.1386597045,
				"z": -0.4572637416,
				"element": "H" 
			},
			{
				"x": -4.8352715968,
				"y": 1.8596009913,
				"z": 0.9885967812,
				"element": "H" 
			},
			{
				"x": -4.4524780474,
				"y": 0.7595984692,
				"z": 2.3346171124,
				"element": "H" 
			},
			{
				"x": -6.1127632415,
				"y": 0.8712335647,
				"z": 1.7224252091,
				"element": "H" 
			}
		],
		 "valence_orbital": [ 
			{
				"type": "occ",
				"energy": -0.28633,
				"method": "rhf"
			},
			{
				"type": "occ",
				"energy": -0.27834,
				"method": "rhf"
			},
			{
				"type": "occ",
				"energy": -0.25909,
				"method": "rhf"
			},
			{
				"type": "occ",
				"energy": -0.23864,
				"method": "rhf"
			},
			{
				"type": "occ",
				"energy": -0.21438,
				"method": "rhf"
			},
			{
				"type": "unocc",
				"energy": -0.05793,
				"method": "rhf"
			},
			{
				"type": "unocc",
				"energy": -0.03567,
				"method": "rhf"
			},
			{
				"type": "unocc",
				"energy": 0.01621,
				"method": "rhf"
			},
			{
				"type": "unocc",
				"energy": 0.02751,
				"method": "rhf"
			},
			{
				"type": "unocc",
				"energy": 0.06626,
				"method": "rhf"
			}
		],
		"cosmo_sigma_profile": { 
			"-0.025": 0.0,
			"-0.024": 0.0,
			"-0.023": 0.0,
			"-0.022": 0.0,
			"-0.021": 0.0,
			"-0.02": 0.0,
			"-0.019": 0.0,
			"-0.018": 0.0,
			"-0.017": 0.0,
			"-0.016": 0.0,
			"-0.015": 0.0,
			"-0.014": 0.0,
			"-0.013": 0.0,
			"-0.012": 0.0,
			"-0.011": 0.0,
			"-0.01": 0.0,
			"-0.009": 0.0,
			"-0.008": 0.0,
			"-0.007": 0.887677965634,
			"-0.006": 7.99728130546,
			"-0.005": 18.3632799253,
			"-0.004": 31.1868537837,
			"-0.003": 43.8038321732,
			"-0.002": 46.2959399031,
			"-0.001": 43.2548133148,
			"0.0": 40.7891996303,
			"0.001": 34.5634829321,
			"0.002": 20.3899378156,
			"0.003": 10.7426094085,
			"0.004": 7.10948252024,
			"0.005": 5.39908968347,
			"0.006": 5.96075498589,
			"0.007": 5.19182790702,
			"0.008": 4.24417851799,
			"0.009": 3.10957967386,
			"0.01": 4.68063862542,
			"0.011": 5.12608639749,
			"0.012": 7.94390932493,
			"0.013": 3.14619068894,
			"0.014": 0.463851428152,
			"0.015": 0.0,
			"0.016": 0.0,
			"0.017": 0.0,
			"0.018": 0.0,
			"0.019": 0.0,
			"0.02": 0.0,
			"0.021": 0.0,
			"0.022": 0.0,
			"0.023": 0.0,
			"0.024": 0.0,
			"0.025": 0.0
		}
	}
}
