{
	 "smiles": "OCCOCCOCCOCCO", 
	 "Tm": 268.05, 
	 "num_atms": 31, 
	 "gaussian": { 
		 "optdone": 1, 
		 "sigma_profile": "yes", 
		 "theory": "DFT", 
		 "functional": "B3LYP", 
		 "basiset": "6-31G**", 
		 "properties": { 
			 "R2extent": 5265.7391, 
			 "electric_dipole_moment_norm": 2.7193549088, 
			 "electric_quadrupole_moment_norm": 8.39358035286, 
			 "total_energy": -691.749775512, 
			 "HOMO_LUMO_gap": 0.3159, 
			 "cosmo_polarized_energy": -15.11, 
			 "cosmo_cavitation_energy": 34.0, 
			 "cosmo_dispersion_energy": -23.72, 
			 "cosmo_repulsion_energy": 2.01, 
			 "cosmo_total_nonelectrostatic_energy": 12.29, 
			 "SMD_solvation_energy": 5.86 
		},
		"coords": [
			{
				"x": -0.8454861932,
				"y": 4.3609977625,
				"z": -1.822532714,
				"element": "O" 
			},
			{
				"x": 0.21763063,
				"y": 3.7382633277,
				"z": -2.5306971412,
				"element": "C" 
			},
			{
				"x": 0.1348882779,
				"y": 2.2423470491,
				"z": -2.2361577984,
				"element": "C" 
			},
			{
				"x": 1.1604993524,
				"y": 1.5334202266,
				"z": -2.9169955134,
				"element": "O" 
			},
			{
				"x": 2.3617177371,
				"y": 1.356883427,
				"z": -2.1795026951,
				"element": "C" 
			},
			{
				"x": 2.3185505242,
				"y": 0.0600253779,
				"z": -1.3740614371,
				"element": "C" 
			},
			{
				"x": 3.5538596687,
				"y": -0.0372646771,
				"z": -0.676605017,
				"element": "O" 
			},
			{
				"x": 3.7977781213,
				"y": -1.2736592253,
				"z": -0.0351582359,
				"element": "C" 
			},
			{
				"x": 3.12506257,
				"y": -1.4183317656,
				"z": 1.3234514344,
				"element": "C" 
			},
			{
				"x": 1.7347550503,
				"y": -1.6456578312,
				"z": 1.1543112459,
				"element": "O" 
			},
			{
				"x": 1.0210383752,
				"y": -1.7731028303,
				"z": 2.377893052,
				"element": "C" 
			},
			{
				"x": -0.3978698768,
				"y": -2.1837531833,
				"z": 2.0161590701,
				"element": "C" 
			},
			{
				"x": -0.4143969219,
				"y": -3.4119602597,
				"z": 1.3130805029,
				"element": "O" 
			},
			{
				"x": -0.8396706186,
				"y": 5.3018964243,
				"z": -2.0341684149,
				"element": "H" 
			},
			{
				"x": 0.1386857232,
				"y": 3.8895393531,
				"z": -3.6178331974,
				"element": "H" 
			},
			{
				"x": 1.2003245726,
				"y": 4.1234412612,
				"z": -2.2136147978,
				"element": "H" 
			},
			{
				"x": -0.8253249907,
				"y": 1.856225487,
				"z": -2.5935007113,
				"element": "H" 
			},
			{
				"x": 0.1736814623,
				"y": 2.080694722,
				"z": -1.1499636307,
				"element": "H" 
			},
			{
				"x": 2.557405489,
				"y": 2.2025227348,
				"z": -1.5050802777,
				"element": "H" 
			},
			{
				"x": 3.1845389428,
				"y": 1.3127383985,
				"z": -2.9003924049,
				"element": "H" 
			},
			{
				"x": 1.4677331704,
				"y": 0.0598061793,
				"z": -0.6810438095,
				"element": "H" 
			},
			{
				"x": 2.1876273536,
				"y": -0.7922046427,
				"z": -2.05912366,
				"element": "H" 
			},
			{
				"x": 3.5014997921,
				"y": -2.117803253,
				"z": -0.6779399528,
				"element": "H" 
			},
			{
				"x": 4.8821490077,
				"y": -1.3281836555,
				"z": 0.1164940806,
				"element": "H" 
			},
			{
				"x": 3.2978236359,
				"y": -0.5040387292,
				"z": 1.9126797757,
				"element": "H" 
			},
			{
				"x": 3.5844956874,
				"y": -2.2618233585,
				"z": 1.8673758574,
				"element": "H" 
			},
			{
				"x": 1.028153667,
				"y": -0.8236265484,
				"z": 2.9374882034,
				"element": "H" 
			},
			{
				"x": 1.486405297,
				"y": -2.5484089871,
				"z": 3.0070511785,
				"element": "H" 
			},
			{
				"x": -0.867716527,
				"y": -1.3753341244,
				"z": 1.4326601298,
				"element": "H" 
			},
			{
				"x": -0.986120595,
				"y": -2.3228216302,
				"z": 2.9292611899,
				"element": "H" 
			},
			{
				"x": 0.2300816148,
				"y": -3.3101270294,
				"z": 0.5982656884,
				"element": "H" 
			}
		],
		 "valence_orbital": [ 
			{
				"type": "occ",
				"energy": -0.27236,
				"method": "rhf"
			},
			{
				"type": "occ",
				"energy": -0.26959,
				"method": "rhf"
			},
			{
				"type": "occ",
				"energy": -0.26353,
				"method": "rhf"
			},
			{
				"type": "occ",
				"energy": -0.25754,
				"method": "rhf"
			},
			{
				"type": "occ",
				"energy": -0.24722,
				"method": "rhf"
			},
			{
				"type": "unocc",
				"energy": 0.06868,
				"method": "rhf"
			},
			{
				"type": "unocc",
				"energy": 0.07603,
				"method": "rhf"
			},
			{
				"type": "unocc",
				"energy": 0.08668,
				"method": "rhf"
			},
			{
				"type": "unocc",
				"energy": 0.10258,
				"method": "rhf"
			},
			{
				"type": "unocc",
				"energy": 0.10862,
				"method": "rhf"
			}
		],
		"cosmo_sigma_profile": { 
			"-0.025": 0.0,
			"-0.024": 0.0,
			"-0.023": 0.0,
			"-0.022": 0.0,
			"-0.021": 0.0,
			"-0.02": 0.0,
			"-0.019": 0.0,
			"-0.018": 0.0,
			"-0.017": 0.0,
			"-0.016": 0.62325177585,
			"-0.015": 1.01952694393,
			"-0.014": 1.05653006449,
			"-0.013": 0.858795354736,
			"-0.012": 1.63390191383,
			"-0.011": 1.31913651682,
			"-0.01": 1.33487875323,
			"-0.009": 1.53219231098,
			"-0.008": 0.927504206233,
			"-0.007": 1.32670111992,
			"-0.006": 2.36483392723,
			"-0.005": 13.6809887618,
			"-0.004": 41.0296188513,
			"-0.003": 41.8897603582,
			"-0.002": 29.0316474685,
			"-0.001": 20.1443384201,
			"0.0": 13.4017038806,
			"0.001": 10.5170463447,
			"0.002": 9.20274078319,
			"0.003": 8.44371079022,
			"0.004": 8.83098488652,
			"0.005": 6.61535625837,
			"0.006": 6.02356305399,
			"0.007": 5.19175716312,
			"0.008": 5.0545057694,
			"0.009": 3.43655584477,
			"0.01": 4.9508768681,
			"0.011": 4.91254770668,
			"0.012": 5.40064912714,
			"0.013": 4.92060930039,
			"0.014": 4.72956566255,
			"0.015": 1.02479605908,
			"0.016": 0.0,
			"0.017": 0.0,
			"0.018": 0.0,
			"0.019": 0.0,
			"0.02": 0.0,
			"0.021": 0.0,
			"0.022": 0.0,
			"0.023": 0.0,
			"0.024": 0.0,
			"0.025": 0.0
		}
	}
}
