{
	 "smiles": "ClC1=CC=C(CN2C=C(Br)C=N2)C=C1", 
	 "Tm": 345.15, 
	 "num_atms": 22, 
	 "gaussian": { 
		 "optdone": 1, 
		 "sigma_profile": "yes", 
		 "theory": "DFT", 
		 "functional": "B3LYP", 
		 "basiset": "6-31G**", 
		 "properties": { 
			 "R2extent": 7113.8724, 
			 "electric_dipole_moment_norm": 2.30346010384, 
			 "electric_quadrupole_moment_norm": 12.7475411378, 
			 "total_energy": -3526.95833168, 
			 "HOMO_LUMO_gap": 0.21135, 
			 "cosmo_polarized_energy": -9.32, 
			 "cosmo_cavitation_energy": 31.1, 
			 "cosmo_dispersion_energy": -22.84, 
			 "cosmo_repulsion_energy": 1.81, 
			 "cosmo_total_nonelectrostatic_energy": 10.08, 
			 "SMD_solvation_energy": 3.37 
		},
		"coords": [
			{
				"x": -0.533594843,
				"y": 3.788671478,
				"z": 3.3974704307,
				"element": "Cl" 
			},
			{
				"x": -0.2919626794,
				"y": 2.3206223652,
				"z": 2.4621580226,
				"element": "C" 
			},
			{
				"x": -1.2361173644,
				"y": 1.9570279915,
				"z": 1.4999730306,
				"element": "C" 
			},
			{
				"x": -1.0415155043,
				"y": 0.7915122486,
				"z": 0.7627396048,
				"element": "C" 
			},
			{
				"x": 0.0889983039,
				"y": -0.0092707839,
				"z": 0.9737561224,
				"element": "C" 
			},
			{
				"x": 0.2835466623,
				"y": -1.2907396621,
				"z": 0.183756176,
				"element": "C" 
			},
			{
				"x": 0.1883156477,
				"y": -1.1098432902,
				"z": -1.2613196052,
				"element": "N" 
			},
			{
				"x": 1.1498660122,
				"y": -0.6624576084,
				"z": -2.1112155788,
				"element": "C" 
			},
			{
				"x": 0.5475596771,
				"y": -0.5718915475,
				"z": -3.3515041827,
				"element": "C" 
			},
			{
				"x": 1.3596995477,
				"y": -0.0353869717,
				"z": -4.9643001691,
				"element": "Br" 
			},
			{
				"x": -0.7876672535,
				"y": -0.9768867889,
				"z": -3.1535733421,
				"element": "C" 
			},
			{
				"x": -1.0009791092,
				"y": -1.2989926682,
				"z": -1.8780884356,
				"element": "N" 
			},
			{
				"x": 1.0217905342,
				"y": 0.3780502236,
				"z": 1.9397454252,
				"element": "C" 
			},
			{
				"x": 0.8385119451,
				"y": 1.5401116647,
				"z": 2.6917791314,
				"element": "C" 
			},
			{
				"x": -2.109753937,
				"y": 2.5778293436,
				"z": 1.3350396127,
				"element": "H" 
			},
			{
				"x": -1.7681875632,
				"y": 0.500588075,
				"z": 0.0098262484,
				"element": "H" 
			},
			{
				"x": -0.4849754529,
				"y": -2.0264658194,
				"z": 0.4363451003,
				"element": "H" 
			},
			{
				"x": 1.2579740665,
				"y": -1.7330256408,
				"z": 0.4104926362,
				"element": "H" 
			},
			{
				"x": 2.1582625909,
				"y": -0.44878423,
				"z": -1.7918031572,
				"element": "H" 
			},
			{
				"x": -1.5817655996,
				"y": -1.0519729258,
				"z": -3.8825884844,
				"element": "H" 
			},
			{
				"x": 1.9053586459,
				"y": -0.2308962074,
				"z": 2.1146668006,
				"element": "H" 
			},
			{
				"x": 1.564435673,
				"y": 1.838100754,
				"z": 3.4400446134,
				"element": "H" 
			}
		],
		 "valence_orbital": [ 
			{
				"type": "occ",
				"energy": -0.28397,
				"method": "rhf"
			},
			{
				"type": "occ",
				"energy": -0.27164,
				"method": "rhf"
			},
			{
				"type": "occ",
				"energy": -0.26671,
				"method": "rhf"
			},
			{
				"type": "occ",
				"energy": -0.25061,
				"method": "rhf"
			},
			{
				"type": "occ",
				"energy": -0.23811,
				"method": "rhf"
			},
			{
				"type": "unocc",
				"energy": -0.02676,
				"method": "rhf"
			},
			{
				"type": "unocc",
				"energy": -0.02198,
				"method": "rhf"
			},
			{
				"type": "unocc",
				"energy": 0.00303,
				"method": "rhf"
			},
			{
				"type": "unocc",
				"energy": 0.01545,
				"method": "rhf"
			},
			{
				"type": "unocc",
				"energy": 0.02491,
				"method": "rhf"
			}
		],
		"cosmo_sigma_profile": { 
			"-0.025": 0.0,
			"-0.024": 0.0,
			"-0.023": 0.0,
			"-0.022": 0.0,
			"-0.021": 0.0,
			"-0.02": 0.0,
			"-0.019": 0.0,
			"-0.018": 0.0,
			"-0.017": 0.0,
			"-0.016": 0.0,
			"-0.015": 0.0,
			"-0.014": 0.0,
			"-0.013": 0.0,
			"-0.012": 0.0,
			"-0.011": 0.0211796228164,
			"-0.01": 1.51193677236,
			"-0.009": 2.9145972566,
			"-0.008": 6.90585301351,
			"-0.007": 12.6338382134,
			"-0.006": 12.2662931639,
			"-0.005": 13.9835552699,
			"-0.004": 13.6773315688,
			"-0.003": 11.9269601368,
			"-0.002": 12.4257988161,
			"-0.001": 14.3429799671,
			"0.0": 16.2670029966,
			"0.001": 22.2514015728,
			"0.002": 27.8689360416,
			"0.003": 34.1328793956,
			"0.004": 29.4103415476,
			"0.005": 13.6620826265,
			"0.006": 1.51401050748,
			"0.007": 1.82689214886,
			"0.008": 0.670590951836,
			"0.009": 1.24340182111,
			"0.01": 0.918833165652,
			"0.011": 1.19115540251,
			"0.012": 0.420634137934,
			"0.013": 0.726955607951,
			"0.014": 0.965338894187,
			"0.015": 0.0527345276569,
			"0.016": 0.0,
			"0.017": 0.0,
			"0.018": 0.0,
			"0.019": 0.0,
			"0.02": 0.0,
			"0.021": 0.0,
			"0.022": 0.0,
			"0.023": 0.0,
			"0.024": 0.0,
			"0.025": 0.0
		}
	}
}
