{
	 "smiles": "CCS(=O)(=O)NC1=CC(C)=C(C=C1)S(Cl)(=O)=O", 
	 "Tm": 356.15, 
	 "num_atms": 29, 
	 "gaussian": { 
		 "optdone": 1, 
		 "sigma_profile": "yes", 
		 "theory": "DFT", 
		 "functional": "B3LYP", 
		 "basiset": "6-31G**", 
		 "properties": { 
			 "R2extent": 9652.6955, 
			 "electric_dipole_moment_norm": 5.03637359615, 
			 "electric_quadrupole_moment_norm": 25.6143584507, 
			 "total_energy": -1962.28312434, 
			 "HOMO_LUMO_gap": 0.17087, 
			 "cosmo_polarized_energy": -20.5, 
			 "cosmo_cavitation_energy": 36.98, 
			 "cosmo_dispersion_energy": -27.28, 
			 "cosmo_repulsion_energy": 2.04, 
			 "cosmo_total_nonelectrostatic_energy": 11.73, 
			 "SMD_solvation_energy": 4.48 
		},
		"coords": [
			{
				"x": 1.3167973675,
				"y": 0.287768623,
				"z": -4.1050013205,
				"element": "C" 
			},
			{
				"x": 1.0568453574,
				"y": -0.1583779789,
				"z": -2.6669845939,
				"element": "C" 
			},
			{
				"x": 0.5931015049,
				"y": -1.9136651347,
				"z": -2.6056363726,
				"element": "S" 
			},
			{
				"x": 1.7763832099,
				"y": -2.7338632595,
				"z": -2.8593011733,
				"element": "O" 
			},
			{
				"x": -0.6416854862,
				"y": -2.0802238418,
				"z": -3.3718525876,
				"element": "O" 
			},
			{
				"x": 0.2594437163,
				"y": -2.1947036568,
				"z": -0.9645563751,
				"element": "N" 
			},
			{
				"x": -0.756939216,
				"y": -1.6375256903,
				"z": -0.1765337761,
				"element": "C" 
			},
			{
				"x": -1.9491286962,
				"y": -1.1423145758,
				"z": -0.7310222636,
				"element": "C" 
			},
			{
				"x": -2.9570016776,
				"y": -0.5905140266,
				"z": 0.0645089737,
				"element": "C" 
			},
			{
				"x": -4.215469144,
				"y": -0.0837401224,
				"z": -0.5966907037,
				"element": "C" 
			},
			{
				"x": -2.7321024967,
				"y": -0.5599357878,
				"z": 1.4567104503,
				"element": "C" 
			},
			{
				"x": -1.5641398022,
				"y": -1.0765035756,
				"z": 2.027587272,
				"element": "C" 
			},
			{
				"x": -0.5728454758,
				"y": -1.6039000131,
				"z": 1.2158620776,
				"element": "C" 
			},
			{
				"x": -3.9047907006,
				"y": 0.1472860298,
				"z": 2.5991685474,
				"element": "S" 
			},
			{
				"x": -5.427231809,
				"y": -1.3619814923,
				"z": 2.6719204719,
				"element": "Cl" 
			},
			{
				"x": -3.315015823,
				"y": 0.1772479035,
				"z": 3.9326705878,
				"element": "O" 
			},
			{
				"x": -4.5426812449,
				"y": 1.3257487464,
				"z": 2.0233472888,
				"element": "O" 
			},
			{
				"x": 0.4224468504,
				"y": 0.1624223415,
				"z": -4.7193140269,
				"element": "H" 
			},
			{
				"x": 1.5975332018,
				"y": 1.3446933546,
				"z": -4.1093213595,
				"element": "H" 
			},
			{
				"x": 2.1322746996,
				"y": -0.2869914887,
				"z": -4.5508903712,
				"element": "H" 
			},
			{
				"x": 1.9443497673,
				"y": -0.0631254171,
				"z": -2.0357768038,
				"element": "H" 
			},
			{
				"x": 0.2307312528,
				"y": 0.3915678518,
				"z": -2.2068406643,
				"element": "H" 
			},
			{
				"x": 1.0598430214,
				"y": -2.594271971,
				"z": -0.4893177783,
				"element": "H" 
			},
			{
				"x": -2.1072312673,
				"y": -1.216255422,
				"z": -1.8001093724,
				"element": "H" 
			},
			{
				"x": -4.3199187177,
				"y": 0.9967195631,
				"z": -0.4684646148,
				"element": "H" 
			},
			{
				"x": -4.1978937825,
				"y": -0.3144814997,
				"z": -1.6636488029,
				"element": "H" 
			},
			{
				"x": -5.1091292313,
				"y": -0.5399360044,
				"z": -0.1607528258,
				"element": "H" 
			},
			{
				"x": -1.4348169112,
				"y": -1.0434631344,
				"z": 3.1028413265,
				"element": "H" 
			},
			{
				"x": 0.3425715329,
				"y": -1.9871803209,
				"z": 1.6569987901,
				"element": "H" 
			}
		],
		 "valence_orbital": [ 
			{
				"type": "occ",
				"energy": -0.32469,
				"method": "rhf"
			},
			{
				"type": "occ",
				"energy": -0.32227,
				"method": "rhf"
			},
			{
				"type": "occ",
				"energy": -0.31163,
				"method": "rhf"
			},
			{
				"type": "occ",
				"energy": -0.28363,
				"method": "rhf"
			},
			{
				"type": "occ",
				"energy": -0.25905,
				"method": "rhf"
			},
			{
				"type": "unocc",
				"energy": -0.08818,
				"method": "rhf"
			},
			{
				"type": "unocc",
				"energy": -0.04434,
				"method": "rhf"
			},
			{
				"type": "unocc",
				"energy": -0.03872,
				"method": "rhf"
			},
			{
				"type": "unocc",
				"energy": 0.03261,
				"method": "rhf"
			},
			{
				"type": "unocc",
				"energy": 0.04122,
				"method": "rhf"
			}
		],
		"cosmo_sigma_profile": { 
			"-0.025": 0.0,
			"-0.024": 0.0,
			"-0.023": 0.0,
			"-0.022": 0.0,
			"-0.021": 0.0,
			"-0.02": 0.0,
			"-0.019": 0.0,
			"-0.018": 0.0,
			"-0.017": 0.32891436819,
			"-0.016": 1.47254815956,
			"-0.015": 1.13790356834,
			"-0.014": 1.18500778754,
			"-0.013": 0.854135702796,
			"-0.012": 1.55943137954,
			"-0.011": 1.64113962299,
			"-0.01": 1.58983833792,
			"-0.009": 3.12035607832,
			"-0.008": 5.59336689781,
			"-0.007": 10.1705332443,
			"-0.006": 11.4995294789,
			"-0.005": 17.6111477351,
			"-0.004": 18.9299300353,
			"-0.003": 20.9907046428,
			"-0.002": 23.4548596321,
			"-0.001": 28.396419104,
			"0.0": 18.2886273963,
			"0.001": 24.2807800048,
			"0.002": 17.729985002,
			"0.003": 14.276486248,
			"0.004": 14.238475799,
			"0.005": 5.8955916298,
			"0.006": 7.10039498376,
			"0.007": 7.08861206888,
			"0.008": 11.6578430429,
			"0.009": 10.6871115898,
			"0.01": 8.58892216218,
			"0.011": 6.83490506483,
			"0.012": 0.540244695344,
			"0.013": 0.0,
			"0.014": 0.0,
			"0.015": 0.0,
			"0.016": 0.0,
			"0.017": 0.0,
			"0.018": 0.0,
			"0.019": 0.0,
			"0.02": 0.0,
			"0.021": 0.0,
			"0.022": 0.0,
			"0.023": 0.0,
			"0.024": 0.0,
			"0.025": 0.0
		}
	}
}
