{
	 "smiles": "CC1=C(C#N)C(Cl)=NC=C1Cl", 
	 "Tm": 350.15, 
	 "num_atms": 15, 
	 "gaussian": { 
		 "optdone": 1, 
		 "sigma_profile": "yes", 
		 "theory": "DFT", 
		 "functional": "B3LYP", 
		 "basiset": "6-31G**", 
		 "properties": { 
			 "R2extent": 4002.627, 
			 "electric_dipole_moment_norm": 3.60096885018, 
			 "electric_quadrupole_moment_norm": 12.3760750369, 
			 "total_energy": -1299.02192092, 
			 "HOMO_LUMO_gap": 0.19186, 
			 "cosmo_polarized_energy": -8.81, 
			 "cosmo_cavitation_energy": 24.03, 
			 "cosmo_dispersion_energy": -17.43, 
			 "cosmo_repulsion_energy": 1.4, 
			 "cosmo_total_nonelectrostatic_energy": 7.99, 
			 "SMD_solvation_energy": 3.48 
		},
		"coords": [
			{
				"x": -2.2043285059,
				"y": 0.0568892639,
				"z": 0.8306803367,
				"element": "C" 
			},
			{
				"x": -1.2571826732,
				"y": 1.1683121777,
				"z": 0.4780252408,
				"element": "C" 
			},
			{
				"x": -1.5602434537,
				"y": 2.1290703307,
				"z": -0.5129082027,
				"element": "C" 
			},
			{
				"x": -2.8030850454,
				"y": 2.0660446155,
				"z": -1.2201135923,
				"element": "C" 
			},
			{
				"x": -3.8210065478,
				"y": 1.9880059519,
				"z": -1.7771748566,
				"element": "N" 
			},
			{
				"x": -0.6177569862,
				"y": 3.1444265187,
				"z": -0.7879975919,
				"element": "C" 
			},
			{
				"x": -0.9751893426,
				"y": 4.3405787046,
				"z": -2.0097455012,
				"element": "Cl" 
			},
			{
				"x": 0.5416420403,
				"y": 3.2557882434,
				"z": -0.172421378,
				"element": "N" 
			},
			{
				"x": 0.8423056609,
				"y": 2.3546864967,
				"z": 0.7670784398,
				"element": "C" 
			},
			{
				"x": -0.0163411729,
				"y": 1.3142073172,
				"z": 1.1144709224,
				"element": "C" 
			},
			{
				"x": 0.4830748048,
				"y": 0.193079296,
				"z": 2.3598654983,
				"element": "Cl" 
			},
			{
				"x": -1.7256578741,
				"y": -0.9147294882,
				"z": 0.6709966124,
				"element": "H" 
			},
			{
				"x": -2.4715696515,
				"y": 0.1080726142,
				"z": 1.8911620961,
				"element": "H" 
			},
			{
				"x": -3.1162571085,
				"y": 0.1019967909,
				"z": 0.2353526011,
				"element": "H" 
			},
			{
				"x": 1.8025958559,
				"y": 2.4625711669,
				"z": 1.2638293752,
				"element": "H" 
			}
		],
		 "valence_orbital": [ 
			{
				"type": "occ",
				"energy": -0.34563,
				"method": "rhf"
			},
			{
				"type": "occ",
				"energy": -0.33258,
				"method": "rhf"
			},
			{
				"type": "occ",
				"energy": -0.30576,
				"method": "rhf"
			},
			{
				"type": "occ",
				"energy": -0.30224,
				"method": "rhf"
			},
			{
				"type": "occ",
				"energy": -0.27519,
				"method": "rhf"
			},
			{
				"type": "unocc",
				"energy": -0.08333,
				"method": "rhf"
			},
			{
				"type": "unocc",
				"energy": -0.06123,
				"method": "rhf"
			},
			{
				"type": "unocc",
				"energy": -0.00483,
				"method": "rhf"
			},
			{
				"type": "unocc",
				"energy": 0.01557,
				"method": "rhf"
			},
			{
				"type": "unocc",
				"energy": 0.02479,
				"method": "rhf"
			}
		],
		"cosmo_sigma_profile": { 
			"-0.025": 0.0,
			"-0.024": 0.0,
			"-0.023": 0.0,
			"-0.022": 0.0,
			"-0.021": 0.0,
			"-0.02": 0.0,
			"-0.019": 0.0,
			"-0.018": 0.0,
			"-0.017": 0.0,
			"-0.016": 0.0,
			"-0.015": 0.0,
			"-0.014": 0.0,
			"-0.013": 0.0,
			"-0.012": 0.0,
			"-0.011": 0.0,
			"-0.01": 0.496049968612,
			"-0.009": 1.92297874108,
			"-0.008": 1.39853733105,
			"-0.007": 3.47875787109,
			"-0.006": 6.7215836407,
			"-0.005": 13.2413142922,
			"-0.004": 24.3115727248,
			"-0.003": 21.9948287727,
			"-0.002": 18.4461144558,
			"-0.001": 11.2201451695,
			"0.0": 10.9181254979,
			"0.001": 14.6181360377,
			"0.002": 14.4267762954,
			"0.003": 18.5697296499,
			"0.004": 7.35590795294,
			"0.005": 4.44486281138,
			"0.006": 3.53281573371,
			"0.007": 4.75768534365,
			"0.008": 4.10072867726,
			"0.009": 3.90750242859,
			"0.01": 3.57589222649,
			"0.011": 3.2715268691,
			"0.012": 2.24725587127,
			"0.013": 0.166272466242,
			"0.014": 0.0,
			"0.015": 0.0,
			"0.016": 0.0,
			"0.017": 0.0,
			"0.018": 0.0,
			"0.019": 0.0,
			"0.02": 0.0,
			"0.021": 0.0,
			"0.022": 0.0,
			"0.023": 0.0,
			"0.024": 0.0,
			"0.025": 0.0
		}
	}
}
