{
	 "smiles": "OC(=O)C1=C(NC2=CC=C(OC(F)F)C=C2)C=CC=C1", 
	 "Tm": 427.15, 
	 "num_atms": 31, 
	 "gaussian": { 
		 "optdone": 1, 
		 "sigma_profile": "yes", 
		 "theory": "DFT", 
		 "functional": "B3LYP", 
		 "basiset": "6-31G**", 
		 "properties": { 
			 "R2extent": 8764.1364, 
			 "electric_dipole_moment_norm": 3.87956274469, 
			 "electric_quadrupole_moment_norm": 19.5353580837, 
			 "total_energy": -1020.23249813, 
			 "HOMO_LUMO_gap": 0.14844, 
			 "cosmo_polarized_energy": -15.52, 
			 "cosmo_cavitation_energy": 36.57, 
			 "cosmo_dispersion_energy": -26.54, 
			 "cosmo_repulsion_energy": 1.97, 
			 "cosmo_total_nonelectrostatic_energy": 12.0, 
			 "SMD_solvation_energy": 8.15 
		},
		"coords": [
			{
				"x": 0.4398002883,
				"y": -3.2619902912,
				"z": -4.8690729412,
				"element": "O" 
			},
			{
				"x": 0.6693122252,
				"y": -2.6653288687,
				"z": -3.6722196349,
				"element": "C" 
			},
			{
				"x": 1.0433492168,
				"y": -3.3662446883,
				"z": -2.7443389166,
				"element": "O" 
			},
			{
				"x": 0.4446020887,
				"y": -1.2012179902,
				"z": -3.5814846929,
				"element": "C" 
			},
			{
				"x": 0.278333497,
				"y": -0.5718739458,
				"z": -2.3065714462,
				"element": "C" 
			},
			{
				"x": 0.3620931722,
				"y": -1.3228171588,
				"z": -1.1568678004,
				"element": "N" 
			},
			{
				"x": -0.0170053004,
				"y": -0.9807359126,
				"z": 0.1524907184,
				"element": "C" 
			},
			{
				"x": -1.1448576623,
				"y": -0.2000983001,
				"z": 0.4472574447,
				"element": "C" 
			},
			{
				"x": -1.4968954092,
				"y": 0.0789078421,
				"z": 1.7683907564,
				"element": "C" 
			},
			{
				"x": -0.744334062,
				"y": -0.462344164,
				"z": 2.811610352,
				"element": "C" 
			},
			{
				"x": -1.0190503141,
				"y": -0.2259562354,
				"z": 4.1536411845,
				"element": "O" 
			},
			{
				"x": -2.3335559591,
				"y": -0.1218889347,
				"z": 4.5276649705,
				"element": "C" 
			},
			{
				"x": -2.377860477,
				"y": -0.3034156136,
				"z": 5.8593824393,
				"element": "F" 
			},
			{
				"x": -2.8150896555,
				"y": 1.1328695688,
				"z": 4.272756652,
				"element": "F" 
			},
			{
				"x": 0.3672906481,
				"y": -1.260818007,
				"z": 2.5374139824,
				"element": "C" 
			},
			{
				"x": 0.7334465781,
				"y": -1.5058665445,
				"z": 1.2198172533,
				"element": "C" 
			},
			{
				"x": 0.0673466546,
				"y": 0.8261471888,
				"z": -2.2808657469,
				"element": "C" 
			},
			{
				"x": 0.0340868981,
				"y": 1.5693539468,
				"z": -3.4502033667,
				"element": "C" 
			},
			{
				"x": 0.2179208235,
				"y": 0.9619434195,
				"z": -4.6989969897,
				"element": "C" 
			},
			{
				"x": 0.4279458024,
				"y": -0.4075366734,
				"z": -4.7440686292,
				"element": "C" 
			},
			{
				"x": -0.0211597307,
				"y": -2.6525982711,
				"z": -5.4613356643,
				"element": "H" 
			},
			{
				"x": 0.7484733825,
				"y": -2.2530335968,
				"z": -1.3086229746,
				"element": "H" 
			},
			{
				"x": -1.7624306357,
				"y": 0.1850284829,
				"z": -0.3561474264,
				"element": "H" 
			},
			{
				"x": -2.3476221712,
				"y": 0.7157517945,
				"z": 1.979328303,
				"element": "H" 
			},
			{
				"x": -2.9819213257,
				"y": -0.8462318165,
				"z": 4.019739647,
				"element": "H" 
			},
			{
				"x": 0.9382906902,
				"y": -1.671722038,
				"z": 3.3631005275,
				"element": "H" 
			},
			{
				"x": 1.6084174468,
				"y": -2.1124214084,
				"z": 1.0052552542,
				"element": "H" 
			},
			{
				"x": -0.0307902434,
				"y": 1.3261397017,
				"z": -1.3253925775,
				"element": "H" 
			},
			{
				"x": -0.1134346039,
				"y": 2.6438609615,
				"z": -3.3868258983,
				"element": "H" 
			},
			{
				"x": 0.2166333273,
				"y": 1.5503675443,
				"z": -5.610026599,
				"element": "H" 
			},
			{
				"x": 0.6302648102,
				"y": -0.8683299919,
				"z": -5.7082081805,
				"element": "H" 
			}
		],
		 "valence_orbital": [ 
			{
				"type": "occ",
				"energy": -0.2844,
				"method": "rhf"
			},
			{
				"type": "occ",
				"energy": -0.27165,
				"method": "rhf"
			},
			{
				"type": "occ",
				"energy": -0.26696,
				"method": "rhf"
			},
			{
				"type": "occ",
				"energy": -0.25765,
				"method": "rhf"
			},
			{
				"type": "occ",
				"energy": -0.20287,
				"method": "rhf"
			},
			{
				"type": "unocc",
				"energy": -0.05443,
				"method": "rhf"
			},
			{
				"type": "unocc",
				"energy": -0.02364,
				"method": "rhf"
			},
			{
				"type": "unocc",
				"energy": -0.01826,
				"method": "rhf"
			},
			{
				"type": "unocc",
				"energy": 0.01355,
				"method": "rhf"
			},
			{
				"type": "unocc",
				"energy": 0.04227,
				"method": "rhf"
			}
		],
		"cosmo_sigma_profile": { 
			"-0.025": 0.0,
			"-0.024": 0.0,
			"-0.023": 0.0,
			"-0.022": 0.0,
			"-0.021": 0.0,
			"-0.02": 0.0,
			"-0.019": 0.198098525512,
			"-0.018": 0.715129724761,
			"-0.017": 0.714712857888,
			"-0.016": 1.1204638464,
			"-0.015": 0.676074421788,
			"-0.014": 0.729179806365,
			"-0.013": 1.14569193224,
			"-0.012": 1.67332324874,
			"-0.011": 0.879510319311,
			"-0.01": 3.28151128559,
			"-0.009": 3.90418571323,
			"-0.008": 4.33742239224,
			"-0.007": 8.09090544329,
			"-0.006": 16.2932101714,
			"-0.005": 18.1921473535,
			"-0.004": 16.9007392782,
			"-0.003": 15.0913476314,
			"-0.002": 16.4876731907,
			"-0.001": 13.5130043533,
			"0.0": 16.5949440423,
			"0.001": 20.5876628655,
			"0.002": 25.3281881293,
			"0.003": 35.437336,
			"0.004": 36.2667229797,
			"0.005": 8.57956764739,
			"0.006": 3.73567289699,
			"0.007": 4.43683844986,
			"0.008": 3.48942049575,
			"0.009": 3.4020489789,
			"0.01": 4.1936144395,
			"0.011": 3.9609518486,
			"0.012": 2.41029157233,
			"0.013": 1.46506936034,
			"0.014": 0.0763975498969,
			"0.015": 0.0,
			"0.016": 0.0,
			"0.017": 0.0,
			"0.018": 0.0,
			"0.019": 0.0,
			"0.02": 0.0,
			"0.021": 0.0,
			"0.022": 0.0,
			"0.023": 0.0,
			"0.024": 0.0,
			"0.025": 0.0
		}
	}
}
