{
	 "smiles": "OC1=CC=C(C=C1)C(C1=CC=CC=C1)(C1=CC=CC=C1)C1=CC=CC=C1", 
	 "Tm": 559.15, 
	 "num_atms": 46, 
	 "gaussian": { 
		 "optdone": 1, 
		 "sigma_profile": "yes", 
		 "theory": "DFT", 
		 "functional": "B3LYP", 
		 "basiset": "6-31G**", 
		 "properties": { 
			 "R2extent": 8312.213, 
			 "electric_dipole_moment_norm": 1.30797029401, 
			 "electric_quadrupole_moment_norm": 9.61482254438, 
			 "total_energy": -1039.92240673, 
			 "HOMO_LUMO_gap": 0.19676, 
			 "cosmo_polarized_energy": -12.2, 
			 "cosmo_cavitation_energy": 47.09, 
			 "cosmo_dispersion_energy": -31.71, 
			 "cosmo_repulsion_energy": 2.42, 
			 "cosmo_total_nonelectrostatic_energy": 17.81, 
			 "SMD_solvation_energy": 8.2 
		},
		"coords": [
			{
				"x": 1.7071696,
				"y": 3.2993141422,
				"z": -3.5906130414,
				"element": "O" 
			},
			{
				"x": 1.1684979907,
				"y": 2.4316128342,
				"z": -2.6824237289,
				"element": "C" 
			},
			{
				"x": -0.0343940358,
				"y": 2.786664303,
				"z": -2.0718066829,
				"element": "C" 
			},
			{
				"x": -0.6230511234,
				"y": 1.9358955466,
				"z": -1.1350856578,
				"element": "C" 
			},
			{
				"x": -0.0391809698,
				"y": 0.7131672858,
				"z": -0.7779452712,
				"element": "C" 
			},
			{
				"x": 1.1617710747,
				"y": 0.3685943153,
				"z": -1.4231604668,
				"element": "C" 
			},
			{
				"x": 1.7665263431,
				"y": 1.2098667339,
				"z": -2.3522829287,
				"element": "C" 
			},
			{
				"x": -0.6592673416,
				"y": -0.2881646507,
				"z": 0.2393030028,
				"element": "C" 
			},
			{
				"x": -2.0702259957,
				"y": 0.1801885343,
				"z": 0.7042630459,
				"element": "C" 
			},
			{
				"x": -2.1655671037,
				"y": 1.323398442,
				"z": 1.5206800743,
				"element": "C" 
			},
			{
				"x": -3.3951030773,
				"y": 1.7897666785,
				"z": 1.9785427428,
				"element": "C" 
			},
			{
				"x": -4.5718280605,
				"y": 1.1125535009,
				"z": 1.6473257017,
				"element": "C" 
			},
			{
				"x": -4.4939082671,
				"y": -0.0315987804,
				"z": 0.8584140298,
				"element": "C" 
			},
			{
				"x": -3.2574139608,
				"y": -0.4923840374,
				"z": 0.3919833574,
				"element": "C" 
			},
			{
				"x": -0.7303873797,
				"y": -1.6568477989,
				"z": -0.5015063852,
				"element": "C" 
			},
			{
				"x": -0.180772981,
				"y": -2.8433509831,
				"z": -0.0018899339,
				"element": "C" 
			},
			{
				"x": -0.2566189448,
				"y": -4.0378909613,
				"z": -0.7275172514,
				"element": "C" 
			},
			{
				"x": -0.8849771263,
				"y": -4.0739527661,
				"z": -1.9689608609,
				"element": "C" 
			},
			{
				"x": -1.429443998,
				"y": -2.8960516497,
				"z": -2.488112154,
				"element": "C" 
			},
			{
				"x": -1.3431700011,
				"y": -1.707290618,
				"z": -1.7683312327,
				"element": "C" 
			},
			{
				"x": 0.1983475762,
				"y": -0.3906933616,
				"z": 1.5356742737,
				"element": "C" 
			},
			{
				"x": -0.3016676307,
				"y": -1.1351250471,
				"z": 2.621159593,
				"element": "C" 
			},
			{
				"x": 0.4126974977,
				"y": -1.2569164277,
				"z": 3.8101866296,
				"element": "C" 
			},
			{
				"x": 1.6478054396,
				"y": -0.6196757441,
				"z": 3.9571226362,
				"element": "C" 
			},
			{
				"x": 2.1477726584,
				"y": 0.1370511105,
				"z": 2.9011776608,
				"element": "C" 
			},
			{
				"x": 1.4312895915,
				"y": 0.2499741755,
				"z": 1.7042208058,
				"element": "C" 
			},
			{
				"x": 2.5261300935,
				"y": 2.9232573586,
				"z": -3.9382505828,
				"element": "H" 
			},
			{
				"x": -0.5033306755,
				"y": 3.727663594,
				"z": -2.3404503283,
				"element": "H" 
			},
			{
				"x": -1.5618091733,
				"y": 2.2399946528,
				"z": -0.6892907322,
				"element": "H" 
			},
			{
				"x": 1.6325135859,
				"y": -0.584004694,
				"z": -1.2011167378,
				"element": "H" 
			},
			{
				"x": 2.6979896043,
				"y": 0.9106419139,
				"z": -2.8293154394,
				"element": "H" 
			},
			{
				"x": -1.2595629447,
				"y": 1.8482155368,
				"z": 1.8073039445,
				"element": "H" 
			},
			{
				"x": -3.4327303403,
				"y": 2.6782346846,
				"z": 2.6028679101,
				"element": "H" 
			},
			{
				"x": -5.5321877971,
				"y": 1.4696189276,
				"z": 2.0080849416,
				"element": "H" 
			},
			{
				"x": -5.3960608642,
				"y": -0.5799990686,
				"z": 0.6013534593,
				"element": "H" 
			},
			{
				"x": -3.2306991629,
				"y": -1.3908409974,
				"z": -0.2116970963,
				"element": "H" 
			},
			{
				"x": 0.3226146446,
				"y": -2.8478569186,
				"z": 0.9567480123,
				"element": "H" 
			},
			{
				"x": 0.1849338376,
				"y": -4.9399159058,
				"z": -0.3126298937,
				"element": "H" 
			},
			{
				"x": -0.9441779848,
				"y": -5.0017848352,
				"z": -2.5307454646,
				"element": "H" 
			},
			{
				"x": -1.914422777,
				"y": -2.9000167917,
				"z": -3.4604451821,
				"element": "H" 
			},
			{
				"x": -1.749642676,
				"y": -0.7968259843,
				"z": -2.1974511066,
				"element": "H" 
			},
			{
				"x": -1.2699944516,
				"y": -1.6178659089,
				"z": 2.5327971535,
				"element": "H" 
			},
			{
				"x": -0.0008186584,
				"y": -1.8426768329,
				"z": 4.6265797278,
				"element": "H" 
			},
			{
				"x": 2.2047041425,
				"y": -0.7067736759,
				"z": 4.885691333,
				"element": "H" 
			},
			{
				"x": 3.0996554994,
				"y": 0.6515610998,
				"z": 3.001034179,
				"element": "H" 
			},
			{
				"x": 1.8418963233,
				"y": 0.8551690683,
				"z": 0.9057139447,
				"element": "H" 
			}
		],
		 "valence_orbital": [ 
			{
				"type": "occ",
				"energy": -0.24482,
				"method": "rhf"
			},
			{
				"type": "occ",
				"energy": -0.24272,
				"method": "rhf"
			},
			{
				"type": "occ",
				"energy": -0.24025,
				"method": "rhf"
			},
			{
				"type": "occ",
				"energy": -0.22812,
				"method": "rhf"
			},
			{
				"type": "occ",
				"energy": -0.21248,
				"method": "rhf"
			},
			{
				"type": "unocc",
				"energy": -0.01572,
				"method": "rhf"
			},
			{
				"type": "unocc",
				"energy": -0.0046,
				"method": "rhf"
			},
			{
				"type": "unocc",
				"energy": -0.00273,
				"method": "rhf"
			},
			{
				"type": "unocc",
				"energy": 0.00094,
				"method": "rhf"
			},
			{
				"type": "unocc",
				"energy": 0.00474,
				"method": "rhf"
			}
		],
		"cosmo_sigma_profile": { 
			"-0.025": 0.0,
			"-0.024": 0.0,
			"-0.023": 0.0,
			"-0.022": 0.0,
			"-0.021": 0.0,
			"-0.02": 0.0,
			"-0.019": 0.0,
			"-0.018": 0.195833937319,
			"-0.017": 1.35051789717,
			"-0.016": 0.706451270528,
			"-0.015": 1.09398712754,
			"-0.014": 1.2029475943,
			"-0.013": 1.17700056148,
			"-0.012": 0.724406259793,
			"-0.011": 0.726534696965,
			"-0.01": 1.00580007878,
			"-0.009": 1.40948503369,
			"-0.008": 1.12107990261,
			"-0.007": 1.11625481565,
			"-0.006": 8.44530858556,
			"-0.005": 25.8464636204,
			"-0.004": 32.5313262607,
			"-0.003": 36.2602466127,
			"-0.002": 26.8954868243,
			"-0.001": 31.999457502,
			"0.0": 28.074284691,
			"0.001": 28.7237480831,
			"0.002": 27.1479229407,
			"0.003": 27.9909090446,
			"0.004": 32.4179593372,
			"0.005": 31.9145735566,
			"0.006": 17.5535246833,
			"0.007": 1.22060699996,
			"0.008": 1.25123520946,
			"0.009": 1.60819530186,
			"0.01": 2.19559832044,
			"0.011": 1.45977650705,
			"0.012": 1.05788722533,
			"0.013": 0.0,
			"0.014": 0.0,
			"0.015": 0.0,
			"0.016": 0.0,
			"0.017": 0.0,
			"0.018": 0.0,
			"0.019": 0.0,
			"0.02": 0.0,
			"0.021": 0.0,
			"0.022": 0.0,
			"0.023": 0.0,
			"0.024": 0.0,
			"0.025": 0.0
		}
	}
}
