{
	 "smiles": "OC(=O)C1=CC2=C(S1)C1=C(OC2)C=CC=C1", 
	 "Tm": 510.15, 
	 "num_atms": 24, 
	 "gaussian": { 
		 "optdone": 1, 
		 "sigma_profile": "yes", 
		 "theory": "DFT", 
		 "functional": "B3LYP", 
		 "basiset": "6-31G**", 
		 "properties": { 
			 "R2extent": 4647.6264, 
			 "electric_dipole_moment_norm": 4.63101139925, 
			 "electric_quadrupole_moment_norm": 15.4150152167, 
			 "total_energy": -1085.94933445, 
			 "HOMO_LUMO_gap": 0.14269, 
			 "cosmo_polarized_energy": -14.82, 
			 "cosmo_cavitation_energy": 29.92, 
			 "cosmo_dispersion_energy": -22.93, 
			 "cosmo_repulsion_energy": 1.71, 
			 "cosmo_total_nonelectrostatic_energy": 8.7, 
			 "SMD_solvation_energy": 5.85 
		},
		"coords": [
			{
				"x": 1.4484775315,
				"y": -1.4166583651,
				"z": -3.947053864,
				"element": "O" 
			},
			{
				"x": 1.4885155388,
				"y": -1.9627079078,
				"z": -2.7013071828,
				"element": "C" 
			},
			{
				"x": 1.7958289203,
				"y": -3.1242695856,
				"z": -2.5593389891,
				"element": "O" 
			},
			{
				"x": 1.15027137,
				"y": -1.0900842447,
				"z": -1.5567032736,
				"element": "C" 
			},
			{
				"x": 0.9859456063,
				"y": -1.5372961912,
				"z": -0.264640902,
				"element": "C" 
			},
			{
				"x": 0.664217074,
				"y": -0.5018571249,
				"z": 0.6438533467,
				"element": "C" 
			},
			{
				"x": 0.5873705055,
				"y": 0.7418243578,
				"z": 0.0505997614,
				"element": "C" 
			},
			{
				"x": 0.9076392714,
				"y": 0.6459856919,
				"z": -1.6556979514,
				"element": "S" 
			},
			{
				"x": 0.2399282256,
				"y": 1.928682121,
				"z": 0.8096100639,
				"element": "C" 
			},
			{
				"x": -0.2728978707,
				"y": 1.6957313596,
				"z": 2.1082519559,
				"element": "C" 
			},
			{
				"x": -0.4300041533,
				"y": 0.4324921423,
				"z": 2.6071859569,
				"element": "O" 
			},
			{
				"x": 0.4664669702,
				"y": -0.5852906269,
				"z": 2.1325761286,
				"element": "C" 
			},
			{
				"x": -0.7056299735,
				"y": 2.7619394913,
				"z": 2.897048191,
				"element": "C" 
			},
			{
				"x": -0.6125206268,
				"y": 4.0652564466,
				"z": 2.4109474581,
				"element": "C" 
			},
			{
				"x": -0.0878127394,
				"y": 4.3135724302,
				"z": 1.1380723256,
				"element": "C" 
			},
			{
				"x": 0.3315970905,
				"y": 3.2495395462,
				"z": 0.3454909725,
				"element": "C" 
			},
			{
				"x": 1.0727952262,
				"y": -0.5246988564,
				"z": -3.9361152677,
				"element": "H" 
			},
			{
				"x": 1.1001268705,
				"y": -2.585024238,
				"z": -0.0122116482,
				"element": "H" 
			},
			{
				"x": 1.4284665442,
				"y": -0.4863436379,
				"z": 2.6607687447,
				"element": "H" 
			},
			{
				"x": 0.0145477301,
				"y": -1.5341700197,
				"z": 2.4310398441,
				"element": "H" 
			},
			{
				"x": -1.1069198387,
				"y": 2.5494338894,
				"z": 3.8822307475,
				"element": "H" 
			},
			{
				"x": -0.9430919808,
				"y": 4.8915174341,
				"z": 3.0331547293,
				"element": "H" 
			},
			{
				"x": -0.0085164194,
				"y": 5.3303504307,
				"z": 0.7673125089,
				"element": "H" 
			},
			{
				"x": 0.7368991275,
				"y": 3.4364754572,
				"z": -0.6454736564,
				"element": "H" 
			}
		],
		 "valence_orbital": [ 
			{
				"type": "occ",
				"energy": -0.2944,
				"method": "rhf"
			},
			{
				"type": "occ",
				"energy": -0.27814,
				"method": "rhf"
			},
			{
				"type": "occ",
				"energy": -0.27426,
				"method": "rhf"
			},
			{
				"type": "occ",
				"energy": -0.24876,
				"method": "rhf"
			},
			{
				"type": "occ",
				"energy": -0.21904,
				"method": "rhf"
			},
			{
				"type": "unocc",
				"energy": -0.07635,
				"method": "rhf"
			},
			{
				"type": "unocc",
				"energy": -0.0155,
				"method": "rhf"
			},
			{
				"type": "unocc",
				"energy": -0.01043,
				"method": "rhf"
			},
			{
				"type": "unocc",
				"energy": -0.00618,
				"method": "rhf"
			},
			{
				"type": "unocc",
				"energy": 0.03867,
				"method": "rhf"
			}
		],
		"cosmo_sigma_profile": { 
			"-0.025": 0.0,
			"-0.024": 0.0,
			"-0.023": 0.0,
			"-0.022": 0.0,
			"-0.021": 0.0,
			"-0.02": 0.0,
			"-0.019": 0.0,
			"-0.018": 0.674235883085,
			"-0.017": 0.670855311526,
			"-0.016": 0.65922291995,
			"-0.015": 1.01984373238,
			"-0.014": 0.962006056991,
			"-0.013": 1.02509531822,
			"-0.012": 1.31999025165,
			"-0.011": 0.87408991875,
			"-0.01": 0.846990732661,
			"-0.009": 0.539929468114,
			"-0.008": 3.58842360152,
			"-0.007": 9.06256374868,
			"-0.006": 15.8268623896,
			"-0.005": 17.0237418758,
			"-0.004": 17.3713660792,
			"-0.003": 12.1941800335,
			"-0.002": 12.4146704014,
			"-0.001": 13.466938302,
			"0.0": 16.3701391138,
			"0.001": 25.0428269595,
			"0.002": 20.5962056857,
			"0.003": 15.4168828776,
			"0.004": 14.2440341046,
			"0.005": 8.3399083582,
			"0.006": 2.75715276952,
			"0.007": 4.2014853374,
			"0.008": 3.69651882373,
			"0.009": 4.88514185516,
			"0.01": 5.98513332807,
			"0.011": 5.02136228299,
			"0.012": 5.02519959851,
			"0.013": 1.51099360959,
			"0.014": 0.0621428767902,
			"0.015": 0.0,
			"0.016": 0.0,
			"0.017": 0.0,
			"0.018": 0.0,
			"0.019": 0.0,
			"0.02": 0.0,
			"0.021": 0.0,
			"0.022": 0.0,
			"0.023": 0.0,
			"0.024": 0.0,
			"0.025": 0.0
		}
	}
}
