{
	 "smiles": "CC1=CC2=C(N=C(O)C=C2C(O)=O)C(F)=C1", 
	 "Tm": 611.15, 
	 "num_atms": 24, 
	 "gaussian": { 
		 "optdone": 1, 
		 "sigma_profile": "yes", 
		 "theory": "DFT", 
		 "functional": "B3LYP", 
		 "basiset": "6-31G**", 
		 "properties": { 
			 "R2extent": 4052.7045, 
			 "electric_dipole_moment_norm": 2.77297778931, 
			 "electric_quadrupole_moment_norm": 8.59981764923, 
			 "total_energy": -804.280464678, 
			 "HOMO_LUMO_gap": 0.1462, 
			 "cosmo_polarized_energy": -12.8, 
			 "cosmo_cavitation_energy": 29.36, 
			 "cosmo_dispersion_energy": -21.62, 
			 "cosmo_repulsion_energy": 1.65, 
			 "cosmo_total_nonelectrostatic_energy": 9.38, 
			 "SMD_solvation_energy": 5.86 
		},
		"coords": [
			{
				"x": -0.9906321079,
				"y": 0.7024456333,
				"z": 3.7438577276,
				"element": "C" 
			},
			{
				"x": -0.5010111747,
				"y": 1.0312847392,
				"z": 2.3545056131,
				"element": "C" 
			},
			{
				"x": -1.0611023132,
				"y": 0.4388352877,
				"z": 1.2378713619,
				"element": "C" 
			},
			{
				"x": -0.6082861302,
				"y": 0.7404707091,
				"z": -0.0752345801,
				"element": "C" 
			},
			{
				"x": 0.4666751325,
				"y": 1.6779556316,
				"z": -0.2352492658,
				"element": "C" 
			},
			{
				"x": 0.9999249392,
				"y": 2.03567381,
				"z": -1.434655748,
				"element": "N" 
			},
			{
				"x": 0.5074425341,
				"y": 1.4765847032,
				"z": -2.5111588316,
				"element": "C" 
			},
			{
				"x": 1.0260669257,
				"y": 1.8137055969,
				"z": -3.7114813349,
				"element": "O" 
			},
			{
				"x": -0.5483783809,
				"y": 0.5315875362,
				"z": -2.5008324311,
				"element": "C" 
			},
			{
				"x": -1.1146041867,
				"y": 0.170026113,
				"z": -1.2983228853,
				"element": "C" 
			},
			{
				"x": -2.2350994539,
				"y": -0.8224725062,
				"z": -1.4281897893,
				"element": "C" 
			},
			{
				"x": -3.0123678598,
				"y": -0.9603293623,
				"z": -0.3294427107,
				"element": "O" 
			},
			{
				"x": -2.4635453379,
				"y": -1.4452989076,
				"z": -2.4449995623,
				"element": "O" 
			},
			{
				"x": 1.0107237922,
				"y": 2.2678263477,
				"z": 0.9372072988,
				"element": "C" 
			},
			{
				"x": 2.0136893671,
				"y": 3.1491106576,
				"z": 0.7894864907,
				"element": "F" 
			},
			{
				"x": 0.5534203553,
				"y": 1.9652484944,
				"z": 2.1919925738,
				"element": "C" 
			},
			{
				"x": -0.1833509423,
				"y": 0.2936517906,
				"z": 4.3627903218,
				"element": "H" 
			},
			{
				"x": -1.7997123928,
				"y": -0.0316552208,
				"z": 3.7173692522,
				"element": "H" 
			},
			{
				"x": -1.3637953918,
				"y": 1.5976569083,
				"z": 4.2550367316,
				"element": "H" 
			},
			{
				"x": -1.8660603605,
				"y": -0.2700993037,
				"z": 1.3658575483,
				"element": "H" 
			},
			{
				"x": 1.7271074496,
				"y": 2.4605814042,
				"z": -3.5303073367,
				"element": "H" 
			},
			{
				"x": -0.9080857069,
				"y": 0.1018128687,
				"z": -3.4270467075,
				"element": "H" 
			},
			{
				"x": -3.6892192358,
				"y": -1.6149336995,
				"z": -0.5723009734,
				"element": "H" 
			},
			{
				"x": 1.0124004795,
				"y": 2.4477307683,
				"z": 3.0493472368,
				"element": "H" 
			}
		],
		 "valence_orbital": [ 
			{
				"type": "occ",
				"energy": -0.30948,
				"method": "rhf"
			},
			{
				"type": "occ",
				"energy": -0.29175,
				"method": "rhf"
			},
			{
				"type": "occ",
				"energy": -0.28141,
				"method": "rhf"
			},
			{
				"type": "occ",
				"energy": -0.24791,
				"method": "rhf"
			},
			{
				"type": "occ",
				"energy": -0.22507,
				"method": "rhf"
			},
			{
				"type": "unocc",
				"energy": -0.07887,
				"method": "rhf"
			},
			{
				"type": "unocc",
				"energy": -0.02222,
				"method": "rhf"
			},
			{
				"type": "unocc",
				"energy": -0.00173,
				"method": "rhf"
			},
			{
				"type": "unocc",
				"energy": 0.05189,
				"method": "rhf"
			},
			{
				"type": "unocc",
				"energy": 0.06765,
				"method": "rhf"
			}
		],
		"cosmo_sigma_profile": { 
			"-0.025": 0.0,
			"-0.024": 0.0,
			"-0.023": 0.0,
			"-0.022": 0.0,
			"-0.021": 0.0,
			"-0.02": 0.0,
			"-0.019": 0.319997524589,
			"-0.018": 1.33362586938,
			"-0.017": 1.53933656858,
			"-0.016": 1.86342154737,
			"-0.015": 1.34100942829,
			"-0.014": 1.63923070596,
			"-0.013": 0.930444273075,
			"-0.012": 0.60737166937,
			"-0.011": 2.26198659981,
			"-0.01": 1.38241644155,
			"-0.009": 0.877348886659,
			"-0.008": 1.7452905146,
			"-0.007": 4.24815467213,
			"-0.006": 4.15064355182,
			"-0.005": 8.6024949378,
			"-0.004": 13.5636321674,
			"-0.003": 15.4160888176,
			"-0.002": 17.1239662543,
			"-0.001": 24.4671974466,
			"0.0": 27.6056181511,
			"0.001": 20.4052035235,
			"0.002": 16.0503447975,
			"0.003": 14.625238324,
			"0.004": 14.4125313365,
			"0.005": 7.39397759366,
			"0.006": 5.36315188359,
			"0.007": 4.66294480945,
			"0.008": 3.71145368733,
			"0.009": 5.01321515453,
			"0.01": 5.71181196513,
			"0.011": 5.55280100575,
			"0.012": 1.16459744679,
			"0.013": 0.187635544218,
			"0.014": 0.0,
			"0.015": 0.0,
			"0.016": 0.0,
			"0.017": 0.0,
			"0.018": 0.0,
			"0.019": 0.0,
			"0.02": 0.0,
			"0.021": 0.0,
			"0.022": 0.0,
			"0.023": 0.0,
			"0.024": 0.0,
			"0.025": 0.0
		}
	}
}
