{
	 "smiles": "CS(=O)(=O)C1=C(C(N)=O)C(Cl)=CC=C1", 
	 "Tm": 474.15, 
	 "num_atms": 22, 
	 "gaussian": { 
		 "optdone": 1, 
		 "sigma_profile": "yes", 
		 "theory": "DFT", 
		 "functional": "B3LYP", 
		 "basiset": "6-31G**", 
		 "properties": { 
			 "R2extent": 3663.0443, 
			 "electric_dipole_moment_norm": 2.71078531057, 
			 "electric_quadrupole_moment_norm": 17.5305315949, 
			 "total_energy": -1448.42197991, 
			 "HOMO_LUMO_gap": 0.20659, 
			 "cosmo_polarized_energy": -18.71, 
			 "cosmo_cavitation_energy": 29.0, 
			 "cosmo_dispersion_energy": -21.33, 
			 "cosmo_repulsion_energy": 1.64, 
			 "cosmo_total_nonelectrostatic_energy": 9.31, 
			 "SMD_solvation_energy": 5.21 
		},
		"coords": [
			{
				"x": 1.5272721328,
				"y": 1.1467590364,
				"z": 0.9991630695,
				"element": "C" 
			},
			{
				"x": -0.2415670957,
				"y": 1.3284562931,
				"z": 0.6996669306,
				"element": "S" 
			},
			{
				"x": -0.5853191858,
				"y": 2.752977806,
				"z": 0.8326327143,
				"element": "O" 
			},
			{
				"x": -0.9582303547,
				"y": 0.3118947127,
				"z": 1.4879731381,
				"element": "O" 
			},
			{
				"x": -0.4440319825,
				"y": 0.8984902273,
				"z": -1.0546577666,
				"element": "C" 
			},
			{
				"x": -0.417345914,
				"y": -0.4396783431,
				"z": -1.4879916757,
				"element": "C" 
			},
			{
				"x": -0.0771090631,
				"y": -1.5863259628,
				"z": -0.5451460082,
				"element": "C" 
			},
			{
				"x": -1.1253120657,
				"y": -2.3587439732,
				"z": -0.1647328636,
				"element": "N" 
			},
			{
				"x": 1.0836506574,
				"y": -1.798961724,
				"z": -0.2204495111,
				"element": "O" 
			},
			{
				"x": -0.6163263226,
				"y": -0.6694951376,
				"z": -2.856048809,
				"element": "C" 
			},
			{
				"x": -0.5658187273,
				"y": -2.3017631699,
				"z": -3.5007036416,
				"element": "Cl" 
			},
			{
				"x": -0.8498535217,
				"y": 0.3780782749,
				"z": -3.75072043,
				"element": "C" 
			},
			{
				"x": -0.8872922062,
				"y": 1.6889835207,
				"z": -3.2852871195,
				"element": "C" 
			},
			{
				"x": -0.6839590431,
				"y": 1.9545117002,
				"z": -1.9311599473,
				"element": "C" 
			},
			{
				"x": 1.8228839137,
				"y": 0.1310928925,
				"z": 0.731979309,
				"element": "H" 
			},
			{
				"x": 2.0562303191,
				"y": 1.8931210148,
				"z": 0.4048038383,
				"element": "H" 
			},
			{
				"x": 1.6716580148,
				"y": 1.3359730798,
				"z": 2.065081247,
				"element": "H" 
			},
			{
				"x": -2.0629881005,
				"y": -1.9915754606,
				"z": -0.2246355595,
				"element": "H" 
			},
			{
				"x": -0.9404610051,
				"y": -3.038541539,
				"z": 0.5602021458,
				"element": "H" 
			},
			{
				"x": -1.0000285637,
				"y": 0.1550868277,
				"z": -4.8011545832,
				"element": "H" 
			},
			{
				"x": -1.0761078916,
				"y": 2.50264057,
				"z": -3.9783527811,
				"element": "H" 
			},
			{
				"x": -0.7222439944,
				"y": 2.9643193542,
				"z": -1.5385616964,
				"element": "H" 
			}
		],
		 "valence_orbital": [ 
			{
				"type": "occ",
				"energy": -0.29632,
				"method": "rhf"
			},
			{
				"type": "occ",
				"energy": -0.29373,
				"method": "rhf"
			},
			{
				"type": "occ",
				"energy": -0.28471,
				"method": "rhf"
			},
			{
				"type": "occ",
				"energy": -0.27325,
				"method": "rhf"
			},
			{
				"type": "occ",
				"energy": -0.26306,
				"method": "rhf"
			},
			{
				"type": "unocc",
				"energy": -0.05647,
				"method": "rhf"
			},
			{
				"type": "unocc",
				"energy": -0.04008,
				"method": "rhf"
			},
			{
				"type": "unocc",
				"energy": 0.00281,
				"method": "rhf"
			},
			{
				"type": "unocc",
				"energy": 0.01018,
				"method": "rhf"
			},
			{
				"type": "unocc",
				"energy": 0.07029,
				"method": "rhf"
			}
		],
		"cosmo_sigma_profile": { 
			"-0.025": 0.0,
			"-0.024": 0.0,
			"-0.023": 0.0,
			"-0.022": 0.0,
			"-0.021": 0.0,
			"-0.02": 0.0,
			"-0.019": 0.0,
			"-0.018": 0.0,
			"-0.017": 0.0,
			"-0.016": 0.0670173233518,
			"-0.015": 1.3414214832,
			"-0.014": 2.21294009428,
			"-0.013": 2.506831248,
			"-0.012": 2.06906555978,
			"-0.011": 2.64606400882,
			"-0.01": 1.96576501939,
			"-0.009": 4.97520246561,
			"-0.008": 10.446705595,
			"-0.007": 11.3876776797,
			"-0.006": 10.4638067689,
			"-0.005": 9.10695653639,
			"-0.004": 12.4701074719,
			"-0.003": 14.4428139895,
			"-0.002": 11.1326112045,
			"-0.001": 13.7433187994,
			"0.0": 18.8374303072,
			"0.001": 16.6361200689,
			"0.002": 11.1429697548,
			"0.003": 11.1905133666,
			"0.004": 12.1856517901,
			"0.005": 5.54181182762,
			"0.006": 4.67320369801,
			"0.007": 4.86272919057,
			"0.008": 4.93003262465,
			"0.009": 5.86900114615,
			"0.01": 6.6395675697,
			"0.011": 9.55262010495,
			"0.012": 9.43132491057,
			"0.013": 1.33967270169,
			"0.014": 0.00123899293464,
			"0.015": 0.0,
			"0.016": 0.0,
			"0.017": 0.0,
			"0.018": 0.0,
			"0.019": 0.0,
			"0.02": 0.0,
			"0.021": 0.0,
			"0.022": 0.0,
			"0.023": 0.0,
			"0.024": 0.0,
			"0.025": 0.0
		}
	}
}
