{
	 "smiles": "N#CC1=CN=C(OCC2=CC=CC=C2)C=C1", 
	 "Tm": 345.15, 
	 "num_atms": 26, 
	 "gaussian": { 
		 "optdone": 1, 
		 "sigma_profile": "yes", 
		 "theory": "DFT", 
		 "functional": "B3LYP", 
		 "basiset": "6-31G**", 
		 "properties": { 
			 "R2extent": 5859.7096, 
			 "electric_dipole_moment_norm": 5.08216391904, 
			 "electric_quadrupole_moment_norm": 23.3694599471, 
			 "total_energy": -686.116285052, 
			 "HOMO_LUMO_gap": 0.2009, 
			 "cosmo_polarized_energy": -11.81, 
			 "cosmo_cavitation_energy": 32.5, 
			 "cosmo_dispersion_energy": -22.98, 
			 "cosmo_repulsion_energy": 1.79, 
			 "cosmo_total_nonelectrostatic_energy": 11.31, 
			 "SMD_solvation_energy": 6.25 
		},
		"coords": [
			{
				"x": 5.1328315346,
				"y": 4.2329020494,
				"z": 2.3550774216,
				"element": "N" 
			},
			{
				"x": 4.3351223422,
				"y": 3.5391924125,
				"z": 1.8683151566,
				"element": "C" 
			},
			{
				"x": 3.3547479054,
				"y": 2.686897194,
				"z": 1.2727882466,
				"element": "C" 
			},
			{
				"x": 2.397851215,
				"y": 2.0385101271,
				"z": 2.0627036836,
				"element": "C" 
			},
			{
				"x": 1.4569754303,
				"y": 1.2306021473,
				"z": 1.5657425194,
				"element": "N" 
			},
			{
				"x": 1.4344786327,
				"y": 1.0365007023,
				"z": 0.2470215432,
				"element": "C" 
			},
			{
				"x": 0.5054757489,
				"y": 0.2323841417,
				"z": -0.2923189487,
				"element": "O" 
			},
			{
				"x": -0.4450138515,
				"y": -0.3958721022,
				"z": 0.6066105773,
				"element": "C" 
			},
			{
				"x": -1.3744599256,
				"y": -1.2374164324,
				"z": -0.2246430487,
				"element": "C" 
			},
			{
				"x": -1.0675841116,
				"y": -2.5758223491,
				"z": -0.49855339,
				"element": "C" 
			},
			{
				"x": -1.9200434185,
				"y": -3.3529854143,
				"z": -1.2830457141,
				"element": "C" 
			},
			{
				"x": -3.0907522705,
				"y": -2.7968703054,
				"z": -1.8027923943,
				"element": "C" 
			},
			{
				"x": -3.4053094567,
				"y": -1.4628646609,
				"z": -1.5354969439,
				"element": "C" 
			},
			{
				"x": -2.5504564787,
				"y": -0.6887920348,
				"z": -0.7505756179,
				"element": "C" 
			},
			{
				"x": 2.3482160338,
				"y": 1.6370080145,
				"z": -0.6462559896,
				"element": "C" 
			},
			{
				"x": 3.3151716939,
				"y": 2.469036882,
				"z": -0.1225219182,
				"element": "C" 
			},
			{
				"x": 2.3958397012,
				"y": 2.1811480303,
				"z": 3.1407590781,
				"element": "H" 
			},
			{
				"x": -0.9816658318,
				"y": 0.3844279677,
				"z": 1.1545126564,
				"element": "H" 
			},
			{
				"x": 0.1043655459,
				"y": -0.9961213209,
				"z": 1.3380202627,
				"element": "H" 
			},
			{
				"x": -0.1569539745,
				"y": -3.0096926636,
				"z": -0.0931446068,
				"element": "H" 
			},
			{
				"x": -1.6732128916,
				"y": -4.3911101124,
				"z": -1.4858734174,
				"element": "H" 
			},
			{
				"x": -3.75729961,
				"y": -3.4018458318,
				"z": -2.4107498654,
				"element": "H" 
			},
			{
				"x": -4.3165184343,
				"y": -1.0272884254,
				"z": -1.9351719709,
				"element": "H" 
			},
			{
				"x": -2.7965510399,
				"y": 0.3493203789,
				"z": -0.5417441646,
				"element": "H" 
			},
			{
				"x": 2.2710370456,
				"y": 1.4341885114,
				"z": -1.7078407758,
				"element": "H" 
			},
			{
				"x": 4.0405084658,
				"y": 2.9543630939,
				"z": -0.7672223793,
				"element": "H" 
			}
		],
		 "valence_orbital": [ 
			{
				"type": "occ",
				"energy": -0.30614,
				"method": "rhf"
			},
			{
				"type": "occ",
				"energy": -0.28709,
				"method": "rhf"
			},
			{
				"type": "occ",
				"energy": -0.2598,
				"method": "rhf"
			},
			{
				"type": "occ",
				"energy": -0.25758,
				"method": "rhf"
			},
			{
				"type": "occ",
				"energy": -0.24796,
				"method": "rhf"
			},
			{
				"type": "unocc",
				"energy": -0.04706,
				"method": "rhf"
			},
			{
				"type": "unocc",
				"energy": -0.04235,
				"method": "rhf"
			},
			{
				"type": "unocc",
				"energy": -0.01857,
				"method": "rhf"
			},
			{
				"type": "unocc",
				"energy": -0.00991,
				"method": "rhf"
			},
			{
				"type": "unocc",
				"energy": 0.03299,
				"method": "rhf"
			}
		],
		"cosmo_sigma_profile": { 
			"-0.025": 0.0,
			"-0.024": 0.0,
			"-0.023": 0.0,
			"-0.022": 0.0,
			"-0.021": 0.0,
			"-0.02": 0.0,
			"-0.019": 0.0,
			"-0.018": 0.0,
			"-0.017": 0.0,
			"-0.016": 0.0,
			"-0.015": 0.0,
			"-0.014": 0.0,
			"-0.013": 0.0,
			"-0.012": 0.0,
			"-0.011": 0.0,
			"-0.01": 0.0,
			"-0.009": 2.26596126592,
			"-0.008": 6.69331358786,
			"-0.007": 5.92513742895,
			"-0.006": 18.0041117875,
			"-0.005": 21.7339443674,
			"-0.004": 19.3083286375,
			"-0.003": 17.3543076722,
			"-0.002": 20.7952306257,
			"-0.001": 23.091781729,
			"0.0": 21.1072381099,
			"0.001": 16.1871079475,
			"0.002": 11.7921942334,
			"0.003": 12.1188824714,
			"0.004": 12.4836334012,
			"0.005": 15.1461282154,
			"0.006": 9.61773050179,
			"0.007": 5.86317793179,
			"0.008": 5.55772298546,
			"0.009": 5.66169896277,
			"0.01": 3.7946781224,
			"0.011": 3.2180709231,
			"0.012": 2.82665288468,
			"0.013": 1.61487242667,
			"0.014": 0.0578715485331,
			"0.015": 0.0,
			"0.016": 0.0,
			"0.017": 0.0,
			"0.018": 0.0,
			"0.019": 0.0,
			"0.02": 0.0,
			"0.021": 0.0,
			"0.022": 0.0,
			"0.023": 0.0,
			"0.024": 0.0,
			"0.025": 0.0
		}
	}
}
