{
	 "smiles": "CC1=CC=C(C=C1)N1C(C(CCC1=O)C(O)=O)C1=CC=CS1", 
	 "Tm": 523.15, 
	 "num_atms": 39, 
	 "gaussian": { 
		 "optdone": 1, 
		 "sigma_profile": "yes", 
		 "theory": "DFT", 
		 "functional": "B3LYP", 
		 "basiset": "6-31G**", 
		 "properties": { 
			 "R2extent": 6823.9377, 
			 "electric_dipole_moment_norm": 4.12840119901, 
			 "electric_quadrupole_moment_norm": 21.4239687621, 
			 "total_energy": -1336.66707094, 
			 "HOMO_LUMO_gap": 0.20519, 
			 "cosmo_polarized_energy": -20.27, 
			 "cosmo_cavitation_energy": 41.64, 
			 "cosmo_dispersion_energy": -28.7, 
			 "cosmo_repulsion_energy": 2.16, 
			 "cosmo_total_nonelectrostatic_energy": 15.1, 
			 "SMD_solvation_energy": 8.12 
		},
		"coords": [
			{
				"x": -1.7158979434,
				"y": -0.3314603731,
				"z": 5.3354294795,
				"element": "C" 
			},
			{
				"x": -1.3838099191,
				"y": -0.3164485032,
				"z": 3.8623036461,
				"element": "C" 
			},
			{
				"x": -0.3967731388,
				"y": -1.1642175069,
				"z": 3.338958867,
				"element": "C" 
			},
			{
				"x": -0.0996689645,
				"y": -1.174489186,
				"z": 1.9795484949,
				"element": "C" 
			},
			{
				"x": -0.7949288956,
				"y": -0.3338618154,
				"z": 1.1037530851,
				"element": "C" 
			},
			{
				"x": -1.7856163982,
				"y": 0.510853789,
				"z": 1.6071335829,
				"element": "C" 
			},
			{
				"x": -2.0665251306,
				"y": 0.5213427172,
				"z": 2.9736988707,
				"element": "C" 
			},
			{
				"x": -0.4866034643,
				"y": -0.329907542,
				"z": -0.3100564029,
				"element": "N" 
			},
			{
				"x": 0.3693939123,
				"y": 0.7598645871,
				"z": -0.9201831815,
				"element": "C" 
			},
			{
				"x": -0.1674097961,
				"y": 1.0641337529,
				"z": -2.3451409349,
				"element": "C" 
			},
			{
				"x": -0.2453994425,
				"y": -0.2599996008,
				"z": -3.1791360327,
				"element": "C" 
			},
			{
				"x": 0.1604386935,
				"y": -1.50515832,
				"z": -2.3707267734,
				"element": "C" 
			},
			{
				"x": -0.4704891492,
				"y": -1.5634296797,
				"z": -0.9862592713,
				"element": "C" 
			},
			{
				"x": -0.9360152069,
				"y": -2.583662043,
				"z": -0.5124148073,
				"element": "O" 
			},
			{
				"x": -1.5358063495,
				"y": 1.7532463753,
				"z": -2.3864853688,
				"element": "C" 
			},
			{
				"x": -2.5220154683,
				"y": 1.1548830932,
				"z": -1.6787740055,
				"element": "O" 
			},
			{
				"x": -1.7591732925,
				"y": 2.7405318209,
				"z": -3.045687461,
				"element": "O" 
			},
			{
				"x": 0.5597259107,
				"y": 1.9758503268,
				"z": -0.0512119218,
				"element": "C" 
			},
			{
				"x": -0.062928887,
				"y": 3.2003246578,
				"z": -0.074534279,
				"element": "C" 
			},
			{
				"x": 0.4533270287,
				"y": 4.1170176992,
				"z": 0.8893955194,
				"element": "C" 
			},
			{
				"x": 1.4699088515,
				"y": 3.5881706396,
				"z": 1.6347344949,
				"element": "C" 
			},
			{
				"x": 1.8142378896,
				"y": 1.9585767052,
				"z": 1.1707398964,
				"element": "S" 
			},
			{
				"x": -0.8166737075,
				"y": -0.4546653766,
				"z": 5.9473566856,
				"element": "H" 
			},
			{
				"x": -2.2119268935,
				"y": 0.5932650337,
				"z": 5.6436619551,
				"element": "H" 
			},
			{
				"x": -2.3895037371,
				"y": -1.1622130534,
				"z": 5.5799308481,
				"element": "H" 
			},
			{
				"x": 0.1502964974,
				"y": -1.8250885457,
				"z": 4.006611136,
				"element": "H" 
			},
			{
				"x": 0.6613897128,
				"y": -1.8443113469,
				"z": 1.5946409344,
				"element": "H" 
			},
			{
				"x": -2.3310242205,
				"y": 1.1681684124,
				"z": 0.9385647884,
				"element": "H" 
			},
			{
				"x": -2.8354322232,
				"y": 1.1905990064,
				"z": 3.3506166739,
				"element": "H" 
			},
			{
				"x": 1.3701423943,
				"y": 0.3321237338,
				"z": -1.0642787128,
				"element": "H" 
			},
			{
				"x": 0.5254727863,
				"y": 1.7644340082,
				"z": -2.8144158608,
				"element": "H" 
			},
			{
				"x": 0.3912110644,
				"y": -0.1725366182,
				"z": -4.0634315591,
				"element": "H" 
			},
			{
				"x": -1.2648904809,
				"y": -0.404154199,
				"z": -3.5496251744,
				"element": "H" 
			},
			{
				"x": 1.2512679915,
				"y": -1.5337964051,
				"z": -2.242696908,
				"element": "H" 
			},
			{
				"x": -0.1203993215,
				"y": -2.4242134442,
				"z": -2.8880298327,
				"element": "H" 
			},
			{
				"x": -2.1399099602,
				"y": 0.4217141251,
				"z": -1.1565559863,
				"element": "H" 
			},
			{
				"x": -0.8492264884,
				"y": 3.466934936,
				"z": -0.7688683288,
				"element": "H" 
			},
			{
				"x": 0.0831380001,
				"y": 5.1281244446,
				"z": 1.0129438691,
				"element": "H" 
			},
			{
				"x": 2.0354977461,
				"y": 4.0559536949,
				"z": 2.4286899754,
				"element": "H" 
			}
		],
		 "valence_orbital": [ 
			{
				"type": "occ",
				"energy": -0.26628,
				"method": "rhf"
			},
			{
				"type": "occ",
				"energy": -0.25899,
				"method": "rhf"
			},
			{
				"type": "occ",
				"energy": -0.25161,
				"method": "rhf"
			},
			{
				"type": "occ",
				"energy": -0.24312,
				"method": "rhf"
			},
			{
				"type": "occ",
				"energy": -0.23555,
				"method": "rhf"
			},
			{
				"type": "unocc",
				"energy": -0.03036,
				"method": "rhf"
			},
			{
				"type": "unocc",
				"energy": -0.01592,
				"method": "rhf"
			},
			{
				"type": "unocc",
				"energy": -0.0078,
				"method": "rhf"
			},
			{
				"type": "unocc",
				"energy": 0.00372,
				"method": "rhf"
			},
			{
				"type": "unocc",
				"energy": 0.00794,
				"method": "rhf"
			}
		],
		"cosmo_sigma_profile": { 
			"-0.025": 0.0,
			"-0.024": 0.0,
			"-0.023": 0.0,
			"-0.022": 0.0,
			"-0.021": 0.0,
			"-0.02": 0.0,
			"-0.019": 0.0,
			"-0.018": 0.0,
			"-0.017": 0.0,
			"-0.016": 0.0,
			"-0.015": 0.0,
			"-0.014": 0.0,
			"-0.013": 0.0,
			"-0.012": 0.10730851719,
			"-0.011": 1.21168149196,
			"-0.01": 2.1012725549,
			"-0.009": 5.07612427674,
			"-0.008": 7.058914108,
			"-0.007": 9.92313864198,
			"-0.006": 20.2339134393,
			"-0.005": 28.1728565078,
			"-0.004": 31.247314263,
			"-0.003": 27.077033056,
			"-0.002": 24.3872655769,
			"-0.001": 21.0702904717,
			"0.0": 20.1117807541,
			"0.001": 16.9590709324,
			"0.002": 15.327881117,
			"0.003": 15.4029853488,
			"0.004": 19.9027319228,
			"0.005": 16.9110733659,
			"0.006": 8.20794273616,
			"0.007": 3.51879727964,
			"0.008": 4.50707740628,
			"0.009": 4.9210062078,
			"0.01": 5.68371683043,
			"0.011": 7.06887467088,
			"0.012": 8.69170598288,
			"0.013": 6.50369801244,
			"0.014": 0.836753032229,
			"0.015": 0.0,
			"0.016": 0.0,
			"0.017": 0.0,
			"0.018": 0.0,
			"0.019": 0.0,
			"0.02": 0.0,
			"0.021": 0.0,
			"0.022": 0.0,
			"0.023": 0.0,
			"0.024": 0.0,
			"0.025": 0.0
		}
	}
}
