{
	 "smiles": "O=C1NCCN1", 
	 "Tm": 404.15, 
	 "num_atms": 12, 
	 "gaussian": { 
		 "optdone": 1, 
		 "sigma_profile": "yes", 
		 "theory": "DFT", 
		 "functional": "B3LYP", 
		 "basiset": "6-31G**", 
		 "properties": { 
			 "R2extent": 851.2428, 
			 "electric_dipole_moment_norm": 4.09126555115, 
			 "electric_quadrupole_moment_norm": 11.9857950738, 
			 "total_energy": -302.679565273, 
			 "HOMO_LUMO_gap": 0.30626, 
			 "cosmo_polarized_energy": -12.93, 
			 "cosmo_cavitation_energy": 15.08, 
			 "cosmo_dispersion_energy": -11.92, 
			 "cosmo_repulsion_energy": 1.06, 
			 "cosmo_total_nonelectrostatic_energy": 4.22, 
			 "SMD_solvation_energy": 1.43 
		},
		"coords": [
			{
				"x": -1.5505479973,
				"y": 0.9867688492,
				"z": 2.45325554,
				"element": "O" 
			},
			{
				"x": -0.6098499932,
				"y": 0.4723681304,
				"z": 1.8768422698,
				"element": "C" 
			},
			{
				"x": -0.6726513469,
				"y": -0.4691711618,
				"z": 0.8515159164,
				"element": "N" 
			},
			{
				"x": 0.6439701792,
				"y": -1.0404818769,
				"z": 0.596733276,
				"element": "C" 
			},
			{
				"x": 1.5587626425,
				"y": 0.1144497517,
				"z": 1.0592192225,
				"element": "C" 
			},
			{
				"x": 0.7432840238,
				"y": 0.7086596368,
				"z": 2.111206577,
				"element": "N" 
			},
			{
				"x": -1.5041034793,
				"y": -1.0413694494,
				"z": 0.8206579165,
				"element": "H" 
			},
			{
				"x": 0.8309439371,
				"y": -1.9440509309,
				"z": 1.1958739911,
				"element": "H" 
			},
			{
				"x": 0.7899628444,
				"y": -1.2857151674,
				"z": -0.4590066931,
				"element": "H" 
			},
			{
				"x": 2.5201334701,
				"y": -0.245626621,
				"z": 1.4362511087,
				"element": "H" 
			},
			{
				"x": 1.7464680347,
				"y": 0.8131805457,
				"z": 0.2304171461,
				"element": "H" 
			},
			{
				"x": 0.9778276849,
				"y": 1.6071882934,
				"z": 2.5078337289,
				"element": "H" 
			}
		],
		 "valence_orbital": [ 
			{
				"type": "occ",
				"energy": -0.39037,
				"method": "rhf"
			},
			{
				"type": "occ",
				"energy": -0.3856,
				"method": "rhf"
			},
			{
				"type": "occ",
				"energy": -0.25799,
				"method": "rhf"
			},
			{
				"type": "occ",
				"energy": -0.24815,
				"method": "rhf"
			},
			{
				"type": "occ",
				"energy": -0.24552,
				"method": "rhf"
			},
			{
				"type": "unocc",
				"energy": 0.06074,
				"method": "rhf"
			},
			{
				"type": "unocc",
				"energy": 0.07638,
				"method": "rhf"
			},
			{
				"type": "unocc",
				"energy": 0.10817,
				"method": "rhf"
			},
			{
				"type": "unocc",
				"energy": 0.10883,
				"method": "rhf"
			},
			{
				"type": "unocc",
				"energy": 0.13854,
				"method": "rhf"
			}
		],
		"cosmo_sigma_profile": { 
			"-0.025": 0.0,
			"-0.024": 0.0,
			"-0.023": 0.0,
			"-0.022": 0.0,
			"-0.021": 0.0,
			"-0.02": 0.0,
			"-0.019": 0.0,
			"-0.018": 0.0,
			"-0.017": 0.0,
			"-0.016": 0.0,
			"-0.015": 0.0,
			"-0.014": 0.623497871862,
			"-0.013": 2.53650090887,
			"-0.012": 1.94564059474,
			"-0.011": 2.35728711712,
			"-0.01": 2.41438983719,
			"-0.009": 1.30840617883,
			"-0.008": 1.73392867612,
			"-0.007": 1.91163981385,
			"-0.006": 3.3858099218,
			"-0.005": 10.4298184589,
			"-0.004": 18.4385054732,
			"-0.003": 13.8683241901,
			"-0.002": 9.7022022244,
			"-0.001": 3.52524266091,
			"0.0": 2.76035066371,
			"0.001": 2.25945378246,
			"0.002": 2.16744502899,
			"0.003": 2.41827834117,
			"0.004": 2.27624710116,
			"0.005": 2.29212388093,
			"0.006": 2.42048350716,
			"0.007": 3.58248167955,
			"0.008": 2.70424367036,
			"0.009": 2.30106715746,
			"0.01": 2.74412242348,
			"0.011": 1.85918151677,
			"0.012": 1.09527914973,
			"0.013": 1.97836167259,
			"0.014": 7.03084701691,
			"0.015": 4.01311879627,
			"0.016": 0.087830313362,
			"0.017": 0.0,
			"0.018": 0.0,
			"0.019": 0.0,
			"0.02": 0.0,
			"0.021": 0.0,
			"0.022": 0.0,
			"0.023": 0.0,
			"0.024": 0.0,
			"0.025": 0.0
		}
	}
}
