{
	 "smiles": "C(NC1=CC=CC=C1)C1=CC2=C(OCO2)C=C1", 
	 "Tm": 352.15, 
	 "num_atms": 30, 
	 "gaussian": { 
		 "optdone": 1, 
		 "sigma_profile": "yes", 
		 "theory": "DFT", 
		 "functional": "B3LYP", 
		 "basiset": "6-31G**", 
		 "properties": { 
			 "R2extent": 5346.6897, 
			 "electric_dipole_moment_norm": 1.28747161522, 
			 "electric_quadrupole_moment_norm": 8.18525679744, 
			 "total_energy": -746.49568287, 
			 "HOMO_LUMO_gap": 0.19481, 
			 "cosmo_polarized_energy": -10.71, 
			 "cosmo_cavitation_energy": 33.53, 
			 "cosmo_dispersion_energy": -24.6, 
			 "cosmo_repulsion_energy": 1.91, 
			 "cosmo_total_nonelectrostatic_energy": 10.85, 
			 "SMD_solvation_energy": 5.75 
		},
		"coords": [
			{
				"x": 1.1275233291,
				"y": -0.4854300175,
				"z": -1.1327458694,
				"element": "C" 
			},
			{
				"x": -0.0786052218,
				"y": 0.2179989979,
				"z": -1.5447353406,
				"element": "N" 
			},
			{
				"x": -1.3554206651,
				"y": -0.2610802151,
				"z": -1.2398064318,
				"element": "C" 
			},
			{
				"x": -1.5829921597,
				"y": -1.1819786323,
				"z": -0.2014571634,
				"element": "C" 
			},
			{
				"x": -2.8800350823,
				"y": -1.6134337786,
				"z": 0.080488796,
				"element": "C" 
			},
			{
				"x": -3.9711420645,
				"y": -1.1472376977,
				"z": -0.6522949595,
				"element": "C" 
			},
			{
				"x": -3.7478888907,
				"y": -0.2294457695,
				"z": -1.6829703888,
				"element": "C" 
			},
			{
				"x": -2.4609672844,
				"y": 0.2094034014,
				"z": -1.9752537578,
				"element": "C" 
			},
			{
				"x": 1.5788835341,
				"y": -0.1884622784,
				"z": 0.2919968361,
				"element": "C" 
			},
			{
				"x": 1.3774734619,
				"y": 1.0949080035,
				"z": 0.8417733437,
				"element": "C" 
			},
			{
				"x": 1.8607486738,
				"y": 1.3190631762,
				"z": 2.1137935151,
				"element": "C" 
			},
			{
				"x": 2.5274370538,
				"y": 0.3343056538,
				"z": 2.8407048648,
				"element": "C" 
			},
			{
				"x": 2.9109539943,
				"y": 0.8380256428,
				"z": 4.0618628946,
				"element": "O" 
			},
			{
				"x": 2.3180524025,
				"y": 2.139100286,
				"z": 4.145590549,
				"element": "C" 
			},
			{
				"x": 1.8038111141,
				"y": 2.4776377884,
				"z": 2.8534285167,
				"element": "O" 
			},
			{
				"x": 2.7367278087,
				"y": -0.9282609256,
				"z": 2.3247208181,
				"element": "C" 
			},
			{
				"x": 2.2424946677,
				"y": -1.1727597106,
				"z": 1.0293786191,
				"element": "C" 
			},
			{
				"x": 1.0189087419,
				"y": -1.5747036913,
				"z": -1.2534306992,
				"element": "H" 
			},
			{
				"x": 1.9207039278,
				"y": -0.1753774749,
				"z": -1.8244106135,
				"element": "H" 
			},
			{
				"x": -0.0173211264,
				"y": 0.6380930328,
				"z": -2.4604639009,
				"element": "H" 
			},
			{
				"x": -0.7541100714,
				"y": -1.5447544348,
				"z": 0.395430022,
				"element": "H" 
			},
			{
				"x": -3.0328935299,
				"y": -2.3245104154,
				"z": 0.8881041696,
				"element": "H" 
			},
			{
				"x": -4.976212353,
				"y": -1.4891253,
				"z": -0.4258886667,
				"element": "H" 
			},
			{
				"x": -4.5827641411,
				"y": 0.1469287475,
				"z": -2.2681166078,
				"element": "H" 
			},
			{
				"x": -2.2996817873,
				"y": 0.9241015618,
				"z": -2.7797658432,
				"element": "H" 
			},
			{
				"x": 0.8467137668,
				"y": 1.858924204,
				"z": 0.2860080997,
				"element": "H" 
			},
			{
				"x": 3.0800293787,
				"y": 2.8687280612,
				"z": 4.4375688861,
				"element": "H" 
			},
			{
				"x": 1.4956683591,
				"y": 2.1214176287,
				"z": 4.8756378411,
				"element": "H" 
			},
			{
				"x": 3.2496640796,
				"y": -1.6944452403,
				"z": 2.8950405292,
				"element": "H" 
			},
			{
				"x": 2.3808400836,
				"y": -2.1590306038,
				"z": 0.5940119414,
				"element": "H" 
			}
		],
		 "valence_orbital": [ 
			{
				"type": "occ",
				"energy": -0.28921,
				"method": "rhf"
			},
			{
				"type": "occ",
				"energy": -0.24297,
				"method": "rhf"
			},
			{
				"type": "occ",
				"energy": -0.23805,
				"method": "rhf"
			},
			{
				"type": "occ",
				"energy": -0.203,
				"method": "rhf"
			},
			{
				"type": "occ",
				"energy": -0.19398,
				"method": "rhf"
			},
			{
				"type": "unocc",
				"energy": 0.00083,
				"method": "rhf"
			},
			{
				"type": "unocc",
				"energy": 0.006,
				"method": "rhf"
			},
			{
				"type": "unocc",
				"energy": 0.01455,
				"method": "rhf"
			},
			{
				"type": "unocc",
				"energy": 0.02465,
				"method": "rhf"
			},
			{
				"type": "unocc",
				"energy": 0.08243,
				"method": "rhf"
			}
		],
		"cosmo_sigma_profile": { 
			"-0.025": 0.0,
			"-0.024": 0.0,
			"-0.023": 0.0,
			"-0.022": 0.0,
			"-0.021": 0.0,
			"-0.02": 0.0,
			"-0.019": 0.0,
			"-0.018": 0.0,
			"-0.017": 0.0,
			"-0.016": 0.0,
			"-0.015": 0.0,
			"-0.014": 0.0,
			"-0.013": 0.392808113448,
			"-0.012": 1.48566136608,
			"-0.011": 0.956023977955,
			"-0.01": 1.87478617841,
			"-0.009": 1.45085747329,
			"-0.008": 3.66975846088,
			"-0.007": 8.44650167199,
			"-0.006": 13.9298172973,
			"-0.005": 18.6217390492,
			"-0.004": 19.6592793255,
			"-0.003": 21.382333149,
			"-0.002": 20.815122893,
			"-0.001": 15.6601379017,
			"0.0": 16.8639720258,
			"0.001": 12.535069044,
			"0.002": 17.0908891198,
			"0.003": 20.0823355004,
			"0.004": 17.705947639,
			"0.005": 19.7614383495,
			"0.006": 12.8283882025,
			"0.007": 11.2310441309,
			"0.008": 5.12995776996,
			"0.009": 3.41149907764,
			"0.01": 2.47941701363,
			"0.011": 0.0271814629503,
			"0.012": 0.0,
			"0.013": 0.0,
			"0.014": 0.0,
			"0.015": 0.0,
			"0.016": 0.0,
			"0.017": 0.0,
			"0.018": 0.0,
			"0.019": 0.0,
			"0.02": 0.0,
			"0.021": 0.0,
			"0.022": 0.0,
			"0.023": 0.0,
			"0.024": 0.0,
			"0.025": 0.0
		}
	}
}
