{
	 "smiles": "CCOC(=O)C1=C(C)OC2=C1C=C(O)C=C2", 
	 "Tm": 410.15, 
	 "num_atms": 28, 
	 "gaussian": { 
		 "optdone": 1, 
		 "sigma_profile": "yes", 
		 "theory": "DFT", 
		 "functional": "B3LYP", 
		 "basiset": "6-31G**", 
		 "properties": { 
			 "R2extent": 4563.9022, 
			 "electric_dipole_moment_norm": 1.9011878024, 
			 "electric_quadrupole_moment_norm": 9.46433353755, 
			 "total_energy": -765.419989253, 
			 "HOMO_LUMO_gap": 0.18332, 
			 "cosmo_polarized_energy": -12.49, 
			 "cosmo_cavitation_energy": 32.5, 
			 "cosmo_dispersion_energy": -23.42, 
			 "cosmo_repulsion_energy": 1.83, 
			 "cosmo_total_nonelectrostatic_energy": 10.91, 
			 "SMD_solvation_energy": 7.2 
		},
		"coords": [
			{
				"x": 2.8787341948,
				"y": -1.8548963828,
				"z": -1.7970203962,
				"element": "C" 
			},
			{
				"x": 2.0802119648,
				"y": -0.8428497024,
				"z": -2.5966422416,
				"element": "C" 
			},
			{
				"x": 0.9215048315,
				"y": -0.4844348155,
				"z": -1.8118930305,
				"element": "O" 
			},
			{
				"x": 0.0863923903,
				"y": 0.42030239,
				"z": -2.3776219188,
				"element": "C" 
			},
			{
				"x": 0.2822798007,
				"y": 0.9121244514,
				"z": -3.4772577842,
				"element": "O" 
			},
			{
				"x": -1.0588628803,
				"y": 0.7262558163,
				"z": -1.5176206603,
				"element": "C" 
			},
			{
				"x": -2.0461148921,
				"y": 1.6161642714,
				"z": -1.8724931867,
				"element": "C" 
			},
			{
				"x": -2.2545911249,
				"y": 2.4534415088,
				"z": -3.0844574771,
				"element": "C" 
			},
			{
				"x": -2.9917420944,
				"y": 1.7176380996,
				"z": -0.8975450439,
				"element": "O" 
			},
			{
				"x": -2.6124510335,
				"y": 0.870570309,
				"z": 0.1233661643,
				"element": "C" 
			},
			{
				"x": -1.4106711077,
				"y": 0.2205491261,
				"z": -0.2033510549,
				"element": "C" 
			},
			{
				"x": -0.8543268096,
				"y": -0.6859223427,
				"z": 0.7057605555,
				"element": "C" 
			},
			{
				"x": -1.5281342583,
				"y": -0.9039152802,
				"z": 1.9088701921,
				"element": "C" 
			},
			{
				"x": -0.9647894519,
				"y": -1.795547639,
				"z": 2.7834871774,
				"element": "O" 
			},
			{
				"x": -2.7329784687,
				"y": -0.2374334176,
				"z": 2.2105199817,
				"element": "C" 
			},
			{
				"x": -3.2959516505,
				"y": 0.6679792259,
				"z": 1.311320965,
				"element": "C" 
			},
			{
				"x": 3.7689780309,
				"y": -2.1532240252,
				"z": -2.3596095952,
				"element": "H" 
			},
			{
				"x": 2.2845803741,
				"y": -2.7506772469,
				"z": -1.5942411072,
				"element": "H" 
			},
			{
				"x": 3.202191864,
				"y": -1.4318696654,
				"z": -0.8415181257,
				"element": "H" 
			},
			{
				"x": 2.6583448719,
				"y": 0.0623288394,
				"z": -2.8083906397,
				"element": "H" 
			},
			{
				"x": 1.7458921464,
				"y": -1.2488699441,
				"z": -3.5567500589,
				"element": "H" 
			},
			{
				"x": -2.3133517092,
				"y": 1.8282744533,
				"z": -3.9800936099,
				"element": "H" 
			},
			{
				"x": -3.1733407932,
				"y": 3.0340442139,
				"z": -2.9812270719,
				"element": "H" 
			},
			{
				"x": -1.4079401632,
				"y": 3.128922806,
				"z": -3.2372677186,
				"element": "H" 
			},
			{
				"x": 0.0693657943,
				"y": -1.2093913618,
				"z": 0.4964181464,
				"element": "H" 
			},
			{
				"x": -1.5194657971,
				"y": -1.859168934,
				"z": 3.5711306462,
				"element": "H" 
			},
			{
				"x": -3.2299188321,
				"y": -0.432576803,
				"z": 3.1580145099,
				"element": "H" 
			},
			{
				"x": -4.2221451969,
				"y": 1.1876820496,
				"z": 1.5303123828,
				"element": "H" 
			}
		],
		 "valence_orbital": [ 
			{
				"type": "occ",
				"energy": -0.29354,
				"method": "rhf"
			},
			{
				"type": "occ",
				"energy": -0.28943,
				"method": "rhf"
			},
			{
				"type": "occ",
				"energy": -0.267,
				"method": "rhf"
			},
			{
				"type": "occ",
				"energy": -0.22154,
				"method": "rhf"
			},
			{
				"type": "occ",
				"energy": -0.21472,
				"method": "rhf"
			},
			{
				"type": "unocc",
				"energy": -0.0314,
				"method": "rhf"
			},
			{
				"type": "unocc",
				"energy": -0.00214,
				"method": "rhf"
			},
			{
				"type": "unocc",
				"energy": 0.02463,
				"method": "rhf"
			},
			{
				"type": "unocc",
				"energy": 0.06956,
				"method": "rhf"
			},
			{
				"type": "unocc",
				"energy": 0.09748,
				"method": "rhf"
			}
		],
		"cosmo_sigma_profile": { 
			"-0.025": 0.0,
			"-0.024": 0.0,
			"-0.023": 0.0,
			"-0.022": 0.0,
			"-0.021": 0.0,
			"-0.02": 0.0,
			"-0.019": 0.0,
			"-0.018": 0.279610620889,
			"-0.017": 0.962227038256,
			"-0.016": 1.32670579233,
			"-0.015": 1.07287511445,
			"-0.014": 1.28422805811,
			"-0.013": 0.500728769502,
			"-0.012": 0.736379925917,
			"-0.011": 1.10463732532,
			"-0.01": 1.19378724534,
			"-0.009": 1.40226866373,
			"-0.008": 1.77543006209,
			"-0.007": 3.38895825244,
			"-0.006": 5.33106908786,
			"-0.005": 14.3812545148,
			"-0.004": 21.2080144435,
			"-0.003": 22.0105340928,
			"-0.002": 25.0944242161,
			"-0.001": 22.8044527101,
			"0.0": 21.9973007379,
			"0.001": 18.1212125507,
			"0.002": 16.2306100631,
			"0.003": 16.3494459641,
			"0.004": 20.6050961064,
			"0.005": 10.1970391372,
			"0.006": 5.56739826479,
			"0.007": 4.19516529319,
			"0.008": 2.98082255128,
			"0.009": 2.91055271557,
			"0.01": 3.1003954399,
			"0.011": 4.10772902609,
			"0.012": 4.33074488871,
			"0.013": 1.55080671238,
			"0.014": 0.0,
			"0.015": 0.0,
			"0.016": 0.0,
			"0.017": 0.0,
			"0.018": 0.0,
			"0.019": 0.0,
			"0.02": 0.0,
			"0.021": 0.0,
			"0.022": 0.0,
			"0.023": 0.0,
			"0.024": 0.0,
			"0.025": 0.0
		}
	}
}
