{
	 "smiles": "OCC1=C2N=CC=CC2=C(F)C=C1", 
	 "Tm": 405.15, 
	 "num_atms": 21, 
	 "gaussian": { 
		 "optdone": 1, 
		 "sigma_profile": "yes", 
		 "theory": "DFT", 
		 "functional": "B3LYP", 
		 "basiset": "6-31G**", 
		 "properties": { 
			 "R2extent": 2954.4601, 
			 "electric_dipole_moment_norm": 2.77191716687, 
			 "electric_quadrupole_moment_norm": 10.6056922381, 
			 "total_energy": -615.694381947, 
			 "HOMO_LUMO_gap": 0.16834, 
			 "cosmo_polarized_energy": -8.41, 
			 "cosmo_cavitation_energy": 24.94, 
			 "cosmo_dispersion_energy": -18.7, 
			 "cosmo_repulsion_energy": 1.44, 
			 "cosmo_total_nonelectrostatic_energy": 7.67, 
			 "SMD_solvation_energy": 3.9 
		},
		"coords": [
			{
				"x": -0.9761004641,
				"y": 1.1910753989,
				"z": -1.4180436497,
				"element": "O" 
			},
			{
				"x": -0.3921560675,
				"y": 0.0885752406,
				"z": -2.0835968883,
				"element": "C" 
			},
			{
				"x": -0.2193276145,
				"y": -1.1403217616,
				"z": -1.2077001536,
				"element": "C" 
			},
			{
				"x": 0.456409855,
				"y": -1.0293273871,
				"z": 0.0479162838,
				"element": "C" 
			},
			{
				"x": 0.8836437576,
				"y": 0.2038514117,
				"z": 0.4572010181,
				"element": "N" 
			},
			{
				"x": 1.5158639313,
				"y": 0.3034264895,
				"z": 1.6109170254,
				"element": "C" 
			},
			{
				"x": 1.7817882636,
				"y": -0.7930134406,
				"z": 2.4654467338,
				"element": "C" 
			},
			{
				"x": 1.3555781172,
				"y": -2.0443299192,
				"z": 2.0857697406,
				"element": "C" 
			},
			{
				"x": 0.6747846793,
				"y": -2.1913010558,
				"z": 0.8533853277,
				"element": "C" 
			},
			{
				"x": 0.1980215077,
				"y": -3.4349318912,
				"z": 0.3723060639,
				"element": "C" 
			},
			{
				"x": 0.4078151122,
				"y": -4.5268888855,
				"z": 1.1403003244,
				"element": "F" 
			},
			{
				"x": -0.4569405084,
				"y": -3.5492620678,
				"z": -0.8241516165,
				"element": "C" 
			},
			{
				"x": -0.6604630413,
				"y": -2.3857801132,
				"z": -1.6064875106,
				"element": "C" 
			},
			{
				"x": -0.3744048308,
				"y": 1.3748104217,
				"z": -0.6765843198,
				"element": "H" 
			},
			{
				"x": 0.5913516372,
				"y": 0.3551081304,
				"z": -2.5077833413,
				"element": "H" 
			},
			{
				"x": -1.0458265145,
				"y": -0.1603230236,
				"z": -2.9260415283,
				"element": "H" 
			},
			{
				"x": 1.8378248579,
				"y": 1.3027904918,
				"z": 1.8997548275,
				"element": "H" 
			},
			{
				"x": 2.3074955515,
				"y": -0.6339372968,
				"z": 3.4010575119,
				"element": "H" 
			},
			{
				"x": 1.5283878649,
				"y": -2.9174126762,
				"z": 2.7059904664,
				"element": "H" 
			},
			{
				"x": -0.8114776309,
				"y": -4.5194845056,
				"z": -1.1539792799,
				"element": "H" 
			},
			{
				"x": -1.1812684634,
				"y": -2.4853235604,
				"z": -2.5549770355,
				"element": "H" 
			}
		],
		 "valence_orbital": [ 
			{
				"type": "occ",
				"energy": -0.30873,
				"method": "rhf"
			},
			{
				"type": "occ",
				"energy": -0.27268,
				"method": "rhf"
			},
			{
				"type": "occ",
				"energy": -0.26658,
				"method": "rhf"
			},
			{
				"type": "occ",
				"energy": -0.24912,
				"method": "rhf"
			},
			{
				"type": "occ",
				"energy": -0.23372,
				"method": "rhf"
			},
			{
				"type": "unocc",
				"energy": -0.06538,
				"method": "rhf"
			},
			{
				"type": "unocc",
				"energy": -0.03099,
				"method": "rhf"
			},
			{
				"type": "unocc",
				"energy": 0.01352,
				"method": "rhf"
			},
			{
				"type": "unocc",
				"energy": 0.07621,
				"method": "rhf"
			},
			{
				"type": "unocc",
				"energy": 0.08871,
				"method": "rhf"
			}
		],
		"cosmo_sigma_profile": { 
			"-0.025": 0.0,
			"-0.024": 0.0,
			"-0.023": 0.0,
			"-0.022": 0.0,
			"-0.021": 0.0,
			"-0.02": 0.0,
			"-0.019": 0.0,
			"-0.018": 0.0,
			"-0.017": 0.0,
			"-0.016": 0.0,
			"-0.015": 0.0,
			"-0.014": 0.0,
			"-0.013": 0.0,
			"-0.012": 0.0,
			"-0.011": 0.0,
			"-0.01": 0.0,
			"-0.009": 0.0,
			"-0.008": 1.93282333653,
			"-0.007": 9.4289549682,
			"-0.006": 13.4831890753,
			"-0.005": 12.5273473174,
			"-0.004": 10.647087586,
			"-0.003": 12.1542312011,
			"-0.002": 12.8225761705,
			"-0.001": 15.7244589271,
			"0.0": 22.649766015,
			"0.001": 25.6024130284,
			"0.002": 17.6152791858,
			"0.003": 13.9307653082,
			"0.004": 11.1319883481,
			"0.005": 3.32034689063,
			"0.006": 1.79069543738,
			"0.007": 2.11953912847,
			"0.008": 2.11112006204,
			"0.009": 1.27976524076,
			"0.01": 0.781176432388,
			"0.011": 1.3963199971,
			"0.012": 1.9442231582,
			"0.013": 1.39980028413,
			"0.014": 2.01028955199,
			"0.015": 2.23137864004,
			"0.016": 0.0202088811826,
			"0.017": 0.0,
			"0.018": 0.0,
			"0.019": 0.0,
			"0.02": 0.0,
			"0.021": 0.0,
			"0.022": 0.0,
			"0.023": 0.0,
			"0.024": 0.0,
			"0.025": 0.0
		}
	}
}
