{
	 "smiles": "CCC1=NN=C(O1)C1=CC(N)=CC=C1", 
	 "Tm": 362.15, 
	 "num_atms": 25, 
	 "gaussian": { 
		 "optdone": 1, 
		 "sigma_profile": "yes", 
		 "theory": "DFT", 
		 "functional": "B3LYP", 
		 "basiset": "6-31G**", 
		 "properties": { 
			 "R2extent": 3702.1409, 
			 "electric_dipole_moment_norm": 3.11536826234, 
			 "electric_quadrupole_moment_norm": 20.5089852262, 
			 "total_energy": -627.162402774, 
			 "HOMO_LUMO_gap": 0.16849, 
			 "cosmo_polarized_energy": -14.83, 
			 "cosmo_cavitation_energy": 29.62, 
			 "cosmo_dispersion_energy": -21.71, 
			 "cosmo_repulsion_energy": 1.73, 
			 "cosmo_total_nonelectrostatic_energy": 9.64, 
			 "SMD_solvation_energy": 3.39 
		},
		"coords": [
			{
				"x": 2.3458420216,
				"y": -4.0594213447,
				"z": 1.028784711,
				"element": "C" 
			},
			{
				"x": 1.1578501533,
				"y": -4.1724555823,
				"z": 0.0575101153,
				"element": "C" 
			},
			{
				"x": 0.2348643296,
				"y": -3.0054574386,
				"z": 0.1173190506,
				"element": "C" 
			},
			{
				"x": -1.0152811229,
				"y": -2.972687111,
				"z": 0.4587752891,
				"element": "N" 
			},
			{
				"x": -1.421318791,
				"y": -1.6425559579,
				"z": 0.3572322039,
				"element": "N" 
			},
			{
				"x": -0.3836113146,
				"y": -0.9646389399,
				"z": -0.0373044021,
				"element": "C" 
			},
			{
				"x": 0.7113137504,
				"y": -1.7674112595,
				"z": -0.2119673406,
				"element": "O" 
			},
			{
				"x": -0.2749390992,
				"y": 0.4673863493,
				"z": -0.2981353224,
				"element": "C" 
			},
			{
				"x": -1.4058693563,
				"y": 1.2695050301,
				"z": -0.0995204619,
				"element": "C" 
			},
			{
				"x": -1.3506309163,
				"y": 2.6487312835,
				"z": -0.3413306454,
				"element": "C" 
			},
			{
				"x": -2.4567220417,
				"y": 3.4580657739,
				"z": -0.0903791921,
				"element": "N" 
			},
			{
				"x": -0.1381200622,
				"y": 3.2083590681,
				"z": -0.7883735238,
				"element": "C" 
			},
			{
				"x": 0.9808169524,
				"y": 2.4035289944,
				"z": -0.983412806,
				"element": "C" 
			},
			{
				"x": 0.9301155011,
				"y": 1.0312571354,
				"z": -0.7428782788,
				"element": "C" 
			},
			{
				"x": 2.9470861236,
				"y": -3.1715419599,
				"z": 0.8136542416,
				"element": "H" 
			},
			{
				"x": 2.991706536,
				"y": -4.9376313666,
				"z": 0.9399225752,
				"element": "H" 
			},
			{
				"x": 1.9995054094,
				"y": -3.9936489455,
				"z": 2.0643121488,
				"element": "H" 
			},
			{
				"x": 1.5289379336,
				"y": -4.2796396865,
				"z": -0.9695416088,
				"element": "H" 
			},
			{
				"x": 0.5567234769,
				"y": -5.0578570693,
				"z": 0.2800586331,
				"element": "H" 
			},
			{
				"x": -2.3243654827,
				"y": 0.80631048,
				"z": 0.2474832306,
				"element": "H" 
			},
			{
				"x": -2.4861023809,
				"y": 4.3279445965,
				"z": -0.603253502,
				"element": "H" 
			},
			{
				"x": -3.3493353865,
				"y": 2.9846571941,
				"z": -0.0870325606,
				"element": "H" 
			},
			{
				"x": -0.0799511272,
				"y": 4.2776547779,
				"z": -0.9757367823,
				"element": "H" 
			},
			{
				"x": 1.906096342,
				"y": 2.8546552729,
				"z": -1.3301426937,
				"element": "H" 
			},
			{
				"x": 1.8017885516,
				"y": 0.4061907056,
				"z": -0.8971430786,
				"element": "H" 
			}
		],
		 "valence_orbital": [ 
			{
				"type": "occ",
				"energy": -0.30961,
				"method": "rhf"
			},
			{
				"type": "occ",
				"energy": -0.28423,
				"method": "rhf"
			},
			{
				"type": "occ",
				"energy": -0.2673,
				"method": "rhf"
			},
			{
				"type": "occ",
				"energy": -0.23347,
				"method": "rhf"
			},
			{
				"type": "occ",
				"energy": -0.20901,
				"method": "rhf"
			},
			{
				"type": "unocc",
				"energy": -0.04052,
				"method": "rhf"
			},
			{
				"type": "unocc",
				"energy": 0.00569,
				"method": "rhf"
			},
			{
				"type": "unocc",
				"energy": 0.02391,
				"method": "rhf"
			},
			{
				"type": "unocc",
				"energy": 0.06848,
				"method": "rhf"
			},
			{
				"type": "unocc",
				"energy": 0.08157,
				"method": "rhf"
			}
		],
		"cosmo_sigma_profile": { 
			"-0.025": 0.0,
			"-0.024": 0.0,
			"-0.023": 0.0,
			"-0.022": 0.0,
			"-0.021": 0.0,
			"-0.02": 0.0,
			"-0.019": 0.0,
			"-0.018": 0.0,
			"-0.017": 0.0,
			"-0.016": 0.0,
			"-0.015": 0.0,
			"-0.014": 0.0,
			"-0.013": 0.772295378608,
			"-0.012": 2.96520802295,
			"-0.011": 2.83341503206,
			"-0.01": 3.22630471479,
			"-0.009": 3.38402719188,
			"-0.008": 2.80428531772,
			"-0.007": 3.5898379783,
			"-0.006": 10.1761703571,
			"-0.005": 11.2787320764,
			"-0.004": 21.0938976329,
			"-0.003": 23.4166864049,
			"-0.002": 19.2035704332,
			"-0.001": 17.6626358367,
			"0.0": 19.3725914849,
			"0.001": 12.8843308086,
			"0.002": 11.4112071244,
			"0.003": 11.8578945109,
			"0.004": 13.3378179787,
			"0.005": 12.8488954926,
			"0.006": 4.29789416253,
			"0.007": 2.73393203771,
			"0.008": 3.44180503145,
			"0.009": 2.28465856872,
			"0.01": 3.0654635742,
			"0.011": 3.89011250308,
			"0.012": 3.34215811002,
			"0.013": 3.83316576052,
			"0.014": 2.85111775864,
			"0.015": 1.45808928703,
			"0.016": 0.334197216478,
			"0.017": 0.0,
			"0.018": 0.0,
			"0.019": 0.0,
			"0.02": 0.0,
			"0.021": 0.0,
			"0.022": 0.0,
			"0.023": 0.0,
			"0.024": 0.0,
			"0.025": 0.0
		}
	}
}
