{
	 "smiles": "C1=CC2=NC=NN=C2C=C1", 
	 "Tm": 348.95, 
	 "num_atms": 15, 
	 "gaussian": { 
		 "optdone": 1, 
		 "sigma_profile": "yes", 
		 "theory": "DFT", 
		 "functional": "B3LYP", 
		 "basiset": "6-31G**", 
		 "properties": { 
			 "R2extent": 1538.4638, 
			 "electric_dipole_moment_norm": 3.50009505871, 
			 "electric_quadrupole_moment_norm": 4.4299957088, 
			 "total_energy": -433.966736144, 
			 "HOMO_LUMO_gap": 0.14091, 
			 "cosmo_polarized_energy": -8.98, 
			 "cosmo_cavitation_energy": 19.52, 
			 "cosmo_dispersion_energy": -14.94, 
			 "cosmo_repulsion_energy": 1.18, 
			 "cosmo_total_nonelectrostatic_energy": 5.77, 
			 "SMD_solvation_energy": 0.09 
		},
		"coords": [
			{
				"x": -1.5378040942,
				"y": -0.3543657635,
				"z": 1.0253049732,
				"element": "C" 
			},
			{
				"x": -1.4655438361,
				"y": 1.0195139223,
				"z": 1.0053453231,
				"element": "C" 
			},
			{
				"x": -0.3963360689,
				"y": 1.6488271732,
				"z": 0.3162822972,
				"element": "C" 
			},
			{
				"x": -0.2904891654,
				"y": 3.0024802475,
				"z": 0.2738166853,
				"element": "N" 
			},
			{
				"x": 0.7466718483,
				"y": 3.4559984877,
				"z": -0.3978659838,
				"element": "C" 
			},
			{
				"x": 1.7061231433,
				"y": 2.7252848015,
				"z": -1.0418656158,
				"element": "N" 
			},
			{
				"x": 1.6213250579,
				"y": 1.4229541943,
				"z": -1.0122892548,
				"element": "N" 
			},
			{
				"x": 0.581670785,
				"y": 0.8478636759,
				"z": -0.3415243206,
				"element": "C" 
			},
			{
				"x": 0.484606343,
				"y": -0.5683933112,
				"z": -0.3061386779,
				"element": "C" 
			},
			{
				"x": -0.5603582828,
				"y": -1.1534478621,
				"z": 0.3678982441,
				"element": "C" 
			},
			{
				"x": -2.3524421188,
				"y": -0.8447937367,
				"z": 1.5500916295,
				"element": "H" 
			},
			{
				"x": -2.1997619427,
				"y": 1.6470400444,
				"z": 1.4996943119,
				"element": "H" 
			},
			{
				"x": 0.8806566793,
				"y": 4.5328838225,
				"z": -0.4638342225,
				"element": "H" 
			},
			{
				"x": 1.2471213854,
				"y": -1.1463510245,
				"z": -0.8180596322,
				"element": "H" 
			},
			{
				"x": -0.649139733,
				"y": -2.2348946714,
				"z": 0.4045442433,
				"element": "H" 
			}
		],
		 "valence_orbital": [ 
			{
				"type": "occ",
				"energy": -0.33649,
				"method": "rhf"
			},
			{
				"type": "occ",
				"energy": -0.31538,
				"method": "rhf"
			},
			{
				"type": "occ",
				"energy": -0.28619,
				"method": "rhf"
			},
			{
				"type": "occ",
				"energy": -0.26259,
				"method": "rhf"
			},
			{
				"type": "occ",
				"energy": -0.23413,
				"method": "rhf"
			},
			{
				"type": "unocc",
				"energy": -0.09322,
				"method": "rhf"
			},
			{
				"type": "unocc",
				"energy": -0.04374,
				"method": "rhf"
			},
			{
				"type": "unocc",
				"energy": -0.00691,
				"method": "rhf"
			},
			{
				"type": "unocc",
				"energy": 0.05883,
				"method": "rhf"
			},
			{
				"type": "unocc",
				"energy": 0.08381,
				"method": "rhf"
			}
		],
		"cosmo_sigma_profile": { 
			"-0.025": 0.0,
			"-0.024": 0.0,
			"-0.023": 0.0,
			"-0.022": 0.0,
			"-0.021": 0.0,
			"-0.02": 0.0,
			"-0.019": 0.0,
			"-0.018": 0.0,
			"-0.017": 0.0,
			"-0.016": 0.0,
			"-0.015": 0.0,
			"-0.014": 0.0,
			"-0.013": 0.0,
			"-0.012": 0.0,
			"-0.011": 0.0,
			"-0.01": 0.0,
			"-0.009": 0.80454174925,
			"-0.008": 3.83280499125,
			"-0.007": 10.659636147,
			"-0.006": 11.5859260206,
			"-0.005": 10.1159839913,
			"-0.004": 9.26008876403,
			"-0.003": 9.40027837556,
			"-0.002": 12.7136085334,
			"-0.001": 13.1326784371,
			"0.0": 14.5983068864,
			"0.001": 14.8801058648,
			"0.002": 12.2111589329,
			"0.003": 3.50715014749,
			"0.004": 3.06334615686,
			"0.005": 2.83522140731,
			"0.006": 3.11084327402,
			"0.007": 2.08690883974,
			"0.008": 3.76396193802,
			"0.009": 2.11264785534,
			"0.01": 2.97717460586,
			"0.011": 3.53866643025,
			"0.012": 2.39414072409,
			"0.013": 3.40734069781,
			"0.014": 2.07430753277,
			"0.015": 0.390677168827,
			"0.016": 0.0,
			"0.017": 0.0,
			"0.018": 0.0,
			"0.019": 0.0,
			"0.02": 0.0,
			"0.021": 0.0,
			"0.022": 0.0,
			"0.023": 0.0,
			"0.024": 0.0,
			"0.025": 0.0
		}
	}
}
