{
	 "smiles": "CC1=NC2=CC(Cl)=CC=C2S1", 
	 "Tm": 342.15, 
	 "num_atms": 17, 
	 "gaussian": { 
		 "optdone": 1, 
		 "sigma_profile": "yes", 
		 "theory": "DFT", 
		 "functional": "B3LYP", 
		 "basiset": "6-31G**", 
		 "properties": { 
			 "R2extent": 3750.4222, 
			 "electric_dipole_moment_norm": 2.72641988879, 
			 "electric_quadrupole_moment_norm": 10.2573334444, 
			 "total_energy": -1221.61307227, 
			 "HOMO_LUMO_gap": 0.19384, 
			 "cosmo_polarized_energy": -6.26, 
			 "cosmo_cavitation_energy": 24.61, 
			 "cosmo_dispersion_energy": -19.1, 
			 "cosmo_repulsion_energy": 1.48, 
			 "cosmo_total_nonelectrostatic_energy": 6.98, 
			 "SMD_solvation_energy": 1.8 
		},
		"coords": [
			{
				"x": 0.2043640964,
				"y": -3.1448708292,
				"z": -2.5423713572,
				"element": "C" 
			},
			{
				"x": 0.50674896,
				"y": -2.2899295568,
				"z": -1.3515745322,
				"element": "C" 
			},
			{
				"x": 1.6701828585,
				"y": -2.2014425512,
				"z": -0.7940568946,
				"element": "N" 
			},
			{
				"x": 1.6500049392,
				"y": -1.3343685137,
				"z": 0.288228617,
				"element": "C" 
			},
			{
				"x": 2.7619081732,
				"y": -1.037011583,
				"z": 1.0886580735,
				"element": "C" 
			},
			{
				"x": 2.5901929048,
				"y": -0.1479257159,
				"z": 2.1404942728,
				"element": "C" 
			},
			{
				"x": 3.9666267484,
				"y": 0.2459238134,
				"z": 3.1638189065,
				"element": "Cl" 
			},
			{
				"x": 1.3512904454,
				"y": 0.4513610751,
				"z": 2.4185436632,
				"element": "C" 
			},
			{
				"x": 0.2439378067,
				"y": 0.1595943624,
				"z": 1.6269014925,
				"element": "C" 
			},
			{
				"x": 0.39851991,
				"y": -0.7327711249,
				"z": 0.5643749266,
				"element": "C" 
			},
			{
				"x": -0.7784119299,
				"y": -1.3012997421,
				"z": -0.6019421264,
				"element": "S" 
			},
			{
				"x": 1.1175540649,
				"y": -3.6617053992,
				"z": -2.841710043,
				"element": "H" 
			},
			{
				"x": -0.1564315801,
				"y": -2.5417851253,
				"z": -3.3823278817,
				"element": "H" 
			},
			{
				"x": -0.5671133304,
				"y": -3.8872908871,
				"z": -2.3120565631,
				"element": "H" 
			},
			{
				"x": 3.720736108,
				"y": -1.4958576263,
				"z": 0.8797215022,
				"element": "H" 
			},
			{
				"x": 1.264296283,
				"y": 1.1401016348,
				"z": 3.2510111051,
				"element": "H" 
			},
			{
				"x": -0.7141064579,
				"y": 0.621977769,
				"z": 1.8405868388,
				"element": "H" 
			}
		],
		 "valence_orbital": [ 
			{
				"type": "occ",
				"energy": -0.31332,
				"method": "rhf"
			},
			{
				"type": "occ",
				"energy": -0.30167,
				"method": "rhf"
			},
			{
				"type": "occ",
				"energy": -0.28226,
				"method": "rhf"
			},
			{
				"type": "occ",
				"energy": -0.24688,
				"method": "rhf"
			},
			{
				"type": "occ",
				"energy": -0.23645,
				"method": "rhf"
			},
			{
				"type": "unocc",
				"energy": -0.04261,
				"method": "rhf"
			},
			{
				"type": "unocc",
				"energy": -0.01706,
				"method": "rhf"
			},
			{
				"type": "unocc",
				"energy": 0.00117,
				"method": "rhf"
			},
			{
				"type": "unocc",
				"energy": 0.02587,
				"method": "rhf"
			},
			{
				"type": "unocc",
				"energy": 0.03267,
				"method": "rhf"
			}
		],
		"cosmo_sigma_profile": { 
			"-0.025": 0.0,
			"-0.024": 0.0,
			"-0.023": 0.0,
			"-0.022": 0.0,
			"-0.021": 0.0,
			"-0.02": 0.0,
			"-0.019": 0.0,
			"-0.018": 0.0,
			"-0.017": 0.0,
			"-0.016": 0.0,
			"-0.015": 0.0,
			"-0.014": 0.0,
			"-0.013": 0.0,
			"-0.012": 0.0,
			"-0.011": 0.0,
			"-0.01": 0.0,
			"-0.009": 0.00565195822571,
			"-0.008": 2.65907355731,
			"-0.007": 7.11119497304,
			"-0.006": 11.1876874215,
			"-0.005": 12.3925661034,
			"-0.004": 12.6123032511,
			"-0.003": 11.5041725466,
			"-0.002": 14.4503680743,
			"-0.001": 15.3173586974,
			"0.0": 14.1209755616,
			"0.001": 21.1861026168,
			"0.002": 27.6695571787,
			"0.003": 20.622798593,
			"0.004": 13.4277203973,
			"0.005": 9.39982401323,
			"0.006": 0.692302600499,
			"0.007": 1.13916688166,
			"0.008": 1.48503938912,
			"0.009": 0.984161295706,
			"0.01": 0.968031407105,
			"0.011": 0.817986998584,
			"0.012": 0.952599736171,
			"0.013": 0.736447482269,
			"0.014": 0.761231659759,
			"0.015": 0.206722635623,
			"0.016": 0.0,
			"0.017": 0.0,
			"0.018": 0.0,
			"0.019": 0.0,
			"0.02": 0.0,
			"0.021": 0.0,
			"0.022": 0.0,
			"0.023": 0.0,
			"0.024": 0.0,
			"0.025": 0.0
		}
	}
}
