{
	 "smiles": "CN(C)C(=O)C1=C(Cl)C=CC(N)=C1", 
	 "Tm": 432.15, 
	 "num_atms": 24, 
	 "gaussian": { 
		 "optdone": 1, 
		 "sigma_profile": "yes", 
		 "theory": "DFT", 
		 "functional": "B3LYP", 
		 "basiset": "6-31G**", 
		 "properties": { 
			 "R2extent": 3441.8666, 
			 "electric_dipole_moment_norm": 5.12756220733, 
			 "electric_quadrupole_moment_norm": 11.9399048129, 
			 "total_energy": -994.515992206, 
			 "HOMO_LUMO_gap": 0.19009, 
			 "cosmo_polarized_energy": -15.95, 
			 "cosmo_cavitation_energy": 29.11, 
			 "cosmo_dispersion_energy": -20.77, 
			 "cosmo_repulsion_energy": 1.66, 
			 "cosmo_total_nonelectrostatic_energy": 10.0, 
			 "SMD_solvation_energy": 5.49 
		},
		"coords": [
			{
				"x": 2.1874828813,
				"y": -3.1462311094,
				"z": 0.3698404665,
				"element": "C" 
			},
			{
				"x": 1.4034278824,
				"y": -2.0314388775,
				"z": 0.881104786,
				"element": "N" 
			},
			{
				"x": 0.7406598151,
				"y": -2.252369638,
				"z": 2.1547317961,
				"element": "C" 
			},
			{
				"x": 1.3303421483,
				"y": -0.8815706247,
				"z": 0.1393833367,
				"element": "C" 
			},
			{
				"x": 1.8241548795,
				"y": -0.7773122368,
				"z": -0.9801031249,
				"element": "O" 
			},
			{
				"x": 0.5680602812,
				"y": 0.2930010868,
				"z": 0.7183517532,
				"element": "C" 
			},
			{
				"x": 1.0222173404,
				"y": 1.0687775918,
				"z": 1.7922634861,
				"element": "C" 
			},
			{
				"x": 2.5165830424,
				"y": 0.66518148,
				"z": 2.6381364845,
				"element": "Cl" 
			},
			{
				"x": 0.3103887204,
				"y": 2.1967864178,
				"z": 2.2009278216,
				"element": "C" 
			},
			{
				"x": -0.8600231235,
				"y": 2.5622637953,
				"z": 1.5460882445,
				"element": "C" 
			},
			{
				"x": -1.3331073059,
				"y": 1.811263634,
				"z": 0.4553595015,
				"element": "C" 
			},
			{
				"x": -2.4669085263,
				"y": 2.2100140498,
				"z": -0.2473850178,
				"element": "N" 
			},
			{
				"x": -0.5972308817,
				"y": 0.6864010989,
				"z": 0.0534946838,
				"element": "C" 
			},
			{
				"x": 2.9768439131,
				"y": -3.4152719604,
				"z": 1.0826880778,
				"element": "H" 
			},
			{
				"x": 1.5503704901,
				"y": -4.0258164197,
				"z": 0.2120657653,
				"element": "H" 
			},
			{
				"x": 2.6338991915,
				"y": -2.8477393413,
				"z": -0.5771722217,
				"element": "H" 
			},
			{
				"x": 0.0925109208,
				"y": -1.4126892598,
				"z": 2.40014441,
				"element": "H" 
			},
			{
				"x": 1.4710665425,
				"y": -2.3769948758,
				"z": 2.9635554944,
				"element": "H" 
			},
			{
				"x": 0.1268133722,
				"y": -3.1608430872,
				"z": 2.1021216039,
				"element": "H" 
			},
			{
				"x": 0.6785532236,
				"y": 2.7897326437,
				"z": 3.031154812,
				"element": "H" 
			},
			{
				"x": -1.4042965663,
				"y": 3.4448029982,
				"z": 1.8716387155,
				"element": "H" 
			},
			{
				"x": -2.9214901979,
				"y": 1.4917292918,
				"z": -0.7927759436,
				"element": "H" 
			},
			{
				"x": -3.1242151579,
				"y": 2.7807635301,
				"z": 0.264746377,
				"element": "H" 
			},
			{
				"x": -0.9226028852,
				"y": 0.1077598124,
				"z": -0.8065613083,
				"element": "H" 
			}
		],
		 "valence_orbital": [ 
			{
				"type": "occ",
				"energy": -0.29621,
				"method": "rhf"
			},
			{
				"type": "occ",
				"energy": -0.26872,
				"method": "rhf"
			},
			{
				"type": "occ",
				"energy": -0.23718,
				"method": "rhf"
			},
			{
				"type": "occ",
				"energy": -0.23509,
				"method": "rhf"
			},
			{
				"type": "occ",
				"energy": -0.20825,
				"method": "rhf"
			},
			{
				"type": "unocc",
				"energy": -0.01816,
				"method": "rhf"
			},
			{
				"type": "unocc",
				"energy": 0.00143,
				"method": "rhf"
			},
			{
				"type": "unocc",
				"energy": 0.03152,
				"method": "rhf"
			},
			{
				"type": "unocc",
				"energy": 0.04031,
				"method": "rhf"
			},
			{
				"type": "unocc",
				"energy": 0.0761,
				"method": "rhf"
			}
		],
		"cosmo_sigma_profile": { 
			"-0.025": 0.0,
			"-0.024": 0.0,
			"-0.023": 0.0,
			"-0.022": 0.0,
			"-0.021": 0.0,
			"-0.02": 0.0,
			"-0.019": 0.0,
			"-0.018": 0.0,
			"-0.017": 0.0,
			"-0.016": 0.0,
			"-0.015": 0.0,
			"-0.014": 0.0,
			"-0.013": 1.26756095197,
			"-0.012": 3.04505730789,
			"-0.011": 3.26358735701,
			"-0.01": 3.56960144343,
			"-0.009": 2.96623732338,
			"-0.008": 2.9059349616,
			"-0.007": 6.06630644803,
			"-0.006": 5.93000856272,
			"-0.005": 14.6964940412,
			"-0.004": 18.8801623958,
			"-0.003": 18.2231811715,
			"-0.002": 21.7755466079,
			"-0.001": 15.8336654071,
			"0.0": 12.1485994345,
			"0.001": 12.8230087647,
			"0.002": 14.7555825618,
			"0.003": 16.6613142847,
			"0.004": 18.8655913644,
			"0.005": 11.384851278,
			"0.006": 3.04485096239,
			"0.007": 2.29948047333,
			"0.008": 3.10871157895,
			"0.009": 2.11190209943,
			"0.01": 2.28690754711,
			"0.011": 2.06693466876,
			"0.012": 2.7556126208,
			"0.013": 4.74565123232,
			"0.014": 4.01230716903,
			"0.015": 0.933610118165,
			"0.016": 0.0,
			"0.017": 0.0,
			"0.018": 0.0,
			"0.019": 0.0,
			"0.02": 0.0,
			"0.021": 0.0,
			"0.022": 0.0,
			"0.023": 0.0,
			"0.024": 0.0,
			"0.025": 0.0
		}
	}
}
