{
	 "smiles": "O=C(CC(C1=CC=CC=C1)C1=CC=CC=C1)C1=CC=CC=C1", 
	 "Tm": 369.15, 
	 "num_atms": 40, 
	 "gaussian": { 
		 "optdone": 1, 
		 "sigma_profile": "yes", 
		 "theory": "DFT", 
		 "functional": "B3LYP", 
		 "basiset": "6-31G**", 
		 "properties": { 
			 "R2extent": 7148.089, 
			 "electric_dipole_moment_norm": 2.93195705801, 
			 "electric_quadrupole_moment_norm": 8.71674726317, 
			 "total_energy": -886.309178266, 
			 "HOMO_LUMO_gap": 0.16947, 
			 "cosmo_polarized_energy": -11.36, 
			 "cosmo_cavitation_energy": 42.57, 
			 "cosmo_dispersion_energy": -28.59, 
			 "cosmo_repulsion_energy": 2.19, 
			 "cosmo_total_nonelectrostatic_energy": 16.17, 
			 "SMD_solvation_energy": 7.19 
		},
		"coords": [
			{
				"x": -2.5443935468,
				"y": -0.6188908627,
				"z": -0.8388352468,
				"element": "O" 
			},
			{
				"x": -1.6158451037,
				"y": 0.1201847139,
				"z": -1.145938653,
				"element": "C" 
			},
			{
				"x": -0.1937903144,
				"y": -0.4351770969,
				"z": -1.2605150287,
				"element": "C" 
			},
			{
				"x": 0.5953307135,
				"y": -0.6873626623,
				"z": 0.0698371488,
				"element": "C" 
			},
			{
				"x": 0.4550467561,
				"y": 0.4686582538,
				"z": 1.0616559786,
				"element": "C" 
			},
			{
				"x": -0.6535520059,
				"y": 0.5725554664,
				"z": 1.9146497385,
				"element": "C" 
			},
			{
				"x": -0.7752051649,
				"y": 1.6479521206,
				"z": 2.7943213414,
				"element": "C" 
			},
			{
				"x": 0.2113816781,
				"y": 2.635560972,
				"z": 2.843768729,
				"element": "C" 
			},
			{
				"x": 1.3229542278,
				"y": 2.5386901706,
				"z": 2.0066862128,
				"element": "C" 
			},
			{
				"x": 1.4410129427,
				"y": 1.4620345695,
				"z": 1.1248344419,
				"element": "C" 
			},
			{
				"x": 0.3692496721,
				"y": -2.0498833109,
				"z": 0.730244122,
				"element": "C" 
			},
			{
				"x": 1.387976397,
				"y": -2.5452358375,
				"z": 1.5608709059,
				"element": "C" 
			},
			{
				"x": 1.2644383197,
				"y": -3.777841533,
				"z": 2.1975525902,
				"element": "C" 
			},
			{
				"x": 0.1112058282,
				"y": -4.545805925,
				"z": 2.0156097008,
				"element": "C" 
			},
			{
				"x": -0.9075913214,
				"y": -4.063848984,
				"z": 1.1960316674,
				"element": "C" 
			},
			{
				"x": -0.783290675,
				"y": -2.8258384061,
				"z": 0.5564083347,
				"element": "C" 
			},
			{
				"x": -1.8937064648,
				"y": 1.5592792937,
				"z": -1.4659458808,
				"element": "C" 
			},
			{
				"x": -0.8912752807,
				"y": 2.5219629191,
				"z": -1.6616837816,
				"element": "C" 
			},
			{
				"x": -1.2286549051,
				"y": 3.843891416,
				"z": -1.9527277702,
				"element": "C" 
			},
			{
				"x": -2.5687744257,
				"y": 4.2174965903,
				"z": -2.0612319078,
				"element": "C" 
			},
			{
				"x": -3.5758060897,
				"y": 3.2667522135,
				"z": -1.8663418718,
				"element": "C" 
			},
			{
				"x": -3.2403370333,
				"y": 1.9511423973,
				"z": -1.5660830042,
				"element": "C" 
			},
			{
				"x": -0.2761559588,
				"y": -1.3844022135,
				"z": -1.7994385587,
				"element": "H" 
			},
			{
				"x": 0.4084222699,
				"y": 0.2310453281,
				"z": -1.8817771372,
				"element": "H" 
			},
			{
				"x": 1.6467590232,
				"y": -0.6894780916,
				"z": -0.2423708238,
				"element": "H" 
			},
			{
				"x": -1.4193394367,
				"y": -0.1966229806,
				"z": 1.8929860684,
				"element": "H" 
			},
			{
				"x": -1.6412312363,
				"y": 1.711622741,
				"z": 3.4472013947,
				"element": "H" 
			},
			{
				"x": 0.1166326459,
				"y": 3.4694152216,
				"z": 3.5334089486,
				"element": "H" 
			},
			{
				"x": 2.1019629256,
				"y": 3.2953429778,
				"z": 2.0426436315,
				"element": "H" 
			},
			{
				"x": 2.3151928414,
				"y": 1.3885351031,
				"z": 0.4809298367,
				"element": "H" 
			},
			{
				"x": 2.2885768872,
				"y": -1.9535707498,
				"z": 1.7094633031,
				"element": "H" 
			},
			{
				"x": 2.0689068158,
				"y": -4.1412078053,
				"z": 2.8312160057,
				"element": "H" 
			},
			{
				"x": 0.0113743753,
				"y": -5.5091068639,
				"z": 2.5078731611,
				"element": "H" 
			},
			{
				"x": -1.8105019531,
				"y": -4.6502639008,
				"z": 1.0484676612,
				"element": "H" 
			},
			{
				"x": -1.5919467277,
				"y": -2.4582780233,
				"z": -0.0658819135,
				"element": "H" 
			},
			{
				"x": 0.154713419,
				"y": 2.2563029074,
				"z": -1.5618405068,
				"element": "H" 
			},
			{
				"x": -0.444223489,
				"y": 4.5816145919,
				"z": -2.093578698,
				"element": "H" 
			},
			{
				"x": -2.828955459,
				"y": 5.2461624936,
				"z": -2.2945304543,
				"element": "H" 
			},
			{
				"x": -4.6197904716,
				"y": 3.5552763916,
				"z": -1.9478156116,
				"element": "H" 
			},
			{
				"x": -4.004270675,
				"y": 1.1983363942,
				"z": -1.4047240739,
				"element": "H" 
			}
		],
		 "valence_orbital": [ 
			{
				"type": "occ",
				"energy": -0.24895,
				"method": "rhf"
			},
			{
				"type": "occ",
				"energy": -0.24782,
				"method": "rhf"
			},
			{
				"type": "occ",
				"energy": -0.24676,
				"method": "rhf"
			},
			{
				"type": "occ",
				"energy": -0.2396,
				"method": "rhf"
			},
			{
				"type": "occ",
				"energy": -0.22853,
				"method": "rhf"
			},
			{
				"type": "unocc",
				"energy": -0.05906,
				"method": "rhf"
			},
			{
				"type": "unocc",
				"energy": -0.00834,
				"method": "rhf"
			},
			{
				"type": "unocc",
				"energy": -0.00483,
				"method": "rhf"
			},
			{
				"type": "unocc",
				"energy": -0.00021,
				"method": "rhf"
			},
			{
				"type": "unocc",
				"energy": 0.00464,
				"method": "rhf"
			}
		],
		"cosmo_sigma_profile": { 
			"-0.025": 0.0,
			"-0.024": 0.0,
			"-0.023": 0.0,
			"-0.022": 0.0,
			"-0.021": 0.0,
			"-0.02": 0.0,
			"-0.019": 0.0,
			"-0.018": 0.0,
			"-0.017": 0.0,
			"-0.016": 0.0,
			"-0.015": 0.0,
			"-0.014": 0.0,
			"-0.013": 0.0,
			"-0.012": 0.0,
			"-0.011": 0.0,
			"-0.01": 0.0,
			"-0.009": 0.0,
			"-0.008": 0.0986458167271,
			"-0.007": 2.65419209039,
			"-0.006": 15.2165595299,
			"-0.005": 34.7535859314,
			"-0.004": 35.3760104647,
			"-0.003": 32.3461140526,
			"-0.002": 25.2002396538,
			"-0.001": 21.3585962823,
			"0.0": 20.4867715654,
			"0.001": 21.3817411202,
			"0.002": 22.7414422039,
			"0.003": 25.7779733682,
			"0.004": 30.7363551531,
			"0.005": 24.0930832381,
			"0.006": 14.3618399264,
			"0.007": 4.99667503157,
			"0.008": 1.38097326267,
			"0.009": 1.67826108682,
			"0.01": 1.69215235324,
			"0.011": 2.57056805918,
			"0.012": 1.31308982065,
			"0.013": 0.00592235877611,
			"0.014": 0.0,
			"0.015": 0.0,
			"0.016": 0.0,
			"0.017": 0.0,
			"0.018": 0.0,
			"0.019": 0.0,
			"0.02": 0.0,
			"0.021": 0.0,
			"0.022": 0.0,
			"0.023": 0.0,
			"0.024": 0.0,
			"0.025": 0.0
		}
	}
}
