{
	 "smiles": "CC(C)CN1C(=O)CC(=O)NC1=O", 
	 "Tm": 418.15, 
	 "num_atms": 25, 
	 "gaussian": { 
		 "optdone": 1, 
		 "sigma_profile": "yes", 
		 "theory": "DFT", 
		 "functional": "B3LYP", 
		 "basiset": "6-31G**", 
		 "properties": { 
			 "R2extent": 2512.3082, 
			 "electric_dipole_moment_norm": 1.13336202954, 
			 "electric_quadrupole_moment_norm": 7.31636075382, 
			 "total_energy": -647.320399655, 
			 "HOMO_LUMO_gap": 0.21924, 
			 "cosmo_polarized_energy": -14.63, 
			 "cosmo_cavitation_energy": 27.67, 
			 "cosmo_dispersion_energy": -19.87, 
			 "cosmo_repulsion_energy": 1.57, 
			 "cosmo_total_nonelectrostatic_energy": 9.37, 
			 "SMD_solvation_energy": 6.58 
		},
		"coords": [
			{
				"x": -1.4138934206,
				"y": 0.1409770834,
				"z": 2.6244904658,
				"element": "C" 
			},
			{
				"x": -0.3421798256,
				"y": -0.9566596035,
				"z": 2.5541442413,
				"element": "C" 
			},
			{
				"x": -0.9309472393,
				"y": -2.2739209915,
				"z": 2.0286287977,
				"element": "C" 
			},
			{
				"x": 0.9291804857,
				"y": -0.5148365253,
				"z": 1.7992318139,
				"element": "C" 
			},
			{
				"x": 0.731465781,
				"y": -0.1844790894,
				"z": 0.3667846643,
				"element": "N" 
			},
			{
				"x": 0.5017660072,
				"y": 1.1519218908,
				"z": 0.0189388902,
				"element": "C" 
			},
			{
				"x": 0.483263024,
				"y": 2.0377841474,
				"z": 0.8521986743,
				"element": "O" 
			},
			{
				"x": 0.221526173,
				"y": 1.4529754361,
				"z": -1.4427705944,
				"element": "C" 
			},
			{
				"x": 0.5668646879,
				"y": 0.3901100483,
				"z": -2.4600217499,
				"element": "C" 
			},
			{
				"x": 0.5583876114,
				"y": 0.5750693526,
				"z": -3.6599390705,
				"element": "O" 
			},
			{
				"x": 0.8761909576,
				"y": -0.8439637678,
				"z": -1.912738415,
				"element": "N" 
			},
			{
				"x": 0.9909734492,
				"y": -1.1958102934,
				"z": -0.5673507244,
				"element": "C" 
			},
			{
				"x": 1.312169826,
				"y": -2.3255098957,
				"z": -0.2517591382,
				"element": "O" 
			},
			{
				"x": -1.0097853182,
				"y": 1.0820694835,
				"z": 3.0065609925,
				"element": "H" 
			},
			{
				"x": -2.2364493521,
				"y": -0.1735283567,
				"z": 3.2753618473,
				"element": "H" 
			},
			{
				"x": -1.8414372879,
				"y": 0.3420529897,
				"z": 1.6356529018,
				"element": "H" 
			},
			{
				"x": 0.0146383304,
				"y": -1.1378624451,
				"z": 3.5790545413,
				"element": "H" 
			},
			{
				"x": -1.7515199015,
				"y": -2.6056265237,
				"z": 2.6735628294,
				"element": "H" 
			},
			{
				"x": -0.1805234935,
				"y": -3.0675777149,
				"z": 1.9867366814,
				"element": "H" 
			},
			{
				"x": -1.3383392889,
				"y": -2.1529158482,
				"z": 1.0187731511,
				"element": "H" 
			},
			{
				"x": 1.3378843087,
				"y": 0.3854826962,
				"z": 2.2600486255,
				"element": "H" 
			},
			{
				"x": 1.6751242368,
				"y": -1.3094832101,
				"z": 1.8332503999,
				"element": "H" 
			},
			{
				"x": 0.7296989255,
				"y": 2.3828272438,
				"z": -1.7084693586,
				"element": "H" 
			},
			{
				"x": -0.8520304525,
				"y": 1.6632728675,
				"z": -1.5325946571,
				"element": "H" 
			},
			{
				"x": 1.0996717756,
				"y": -1.5914689741,
				"z": -2.5595758094,
				"element": "H" 
			}
		],
		 "valence_orbital": [ 
			{
				"type": "occ",
				"energy": -0.31156,
				"method": "rhf"
			},
			{
				"type": "occ",
				"energy": -0.30334,
				"method": "rhf"
			},
			{
				"type": "occ",
				"energy": -0.30259,
				"method": "rhf"
			},
			{
				"type": "occ",
				"energy": -0.28532,
				"method": "rhf"
			},
			{
				"type": "occ",
				"energy": -0.26702,
				"method": "rhf"
			},
			{
				"type": "unocc",
				"energy": -0.04778,
				"method": "rhf"
			},
			{
				"type": "unocc",
				"energy": -0.00785,
				"method": "rhf"
			},
			{
				"type": "unocc",
				"energy": 0.04558,
				"method": "rhf"
			},
			{
				"type": "unocc",
				"energy": 0.07582,
				"method": "rhf"
			},
			{
				"type": "unocc",
				"energy": 0.09003,
				"method": "rhf"
			}
		],
		"cosmo_sigma_profile": { 
			"-0.025": 0.0,
			"-0.024": 0.0,
			"-0.023": 0.0,
			"-0.022": 0.0,
			"-0.021": 0.0,
			"-0.02": 0.0,
			"-0.019": 0.0,
			"-0.018": 0.0,
			"-0.017": 0.117470657623,
			"-0.016": 0.896862998125,
			"-0.015": 0.909930925214,
			"-0.014": 0.521731847574,
			"-0.013": 0.825120887811,
			"-0.012": 0.941259331505,
			"-0.011": 1.27884530923,
			"-0.01": 4.6659139705,
			"-0.009": 6.10897917711,
			"-0.008": 6.51862631943,
			"-0.007": 5.23595837028,
			"-0.006": 5.99602448534,
			"-0.005": 7.65232119896,
			"-0.004": 12.7340565016,
			"-0.003": 23.5316093571,
			"-0.002": 22.5631645761,
			"-0.001": 16.6334868818,
			"0.0": 13.7711671209,
			"0.001": 17.8551504004,
			"0.002": 10.4074145181,
			"0.003": 4.06382205885,
			"0.004": 4.81810034802,
			"0.005": 4.91816903088,
			"0.006": 4.31608462768,
			"0.007": 4.14616969259,
			"0.008": 3.97021907075,
			"0.009": 4.93587693735,
			"0.01": 5.90016880883,
			"0.011": 11.5755029365,
			"0.012": 8.36617201563,
			"0.013": 0.686971407229,
			"0.014": 0.0,
			"0.015": 0.0,
			"0.016": 0.0,
			"0.017": 0.0,
			"0.018": 0.0,
			"0.019": 0.0,
			"0.02": 0.0,
			"0.021": 0.0,
			"0.022": 0.0,
			"0.023": 0.0,
			"0.024": 0.0,
			"0.025": 0.0
		}
	}
}
