{
	 "smiles": "O=C1NC(CC#N)=NC2=C1C(=CS2)C1=CC=CC=C1", 
	 "Tm": 553.15, 
	 "num_atms": 28, 
	 "gaussian": { 
		 "optdone": 1, 
		 "sigma_profile": "yes", 
		 "theory": "DFT", 
		 "functional": "B3LYP", 
		 "basiset": "6-31G**", 
		 "properties": { 
			 "R2extent": 6495.5813, 
			 "electric_dipole_moment_norm": 3.27543095333, 
			 "electric_quadrupole_moment_norm": 20.9006979259, 
			 "total_energy": -1176.57848583, 
			 "HOMO_LUMO_gap": 0.16356, 
			 "cosmo_polarized_energy": -18.48, 
			 "cosmo_cavitation_energy": 35.43, 
			 "cosmo_dispersion_energy": -25.81, 
			 "cosmo_repulsion_energy": 1.92, 
			 "cosmo_total_nonelectrostatic_energy": 11.54, 
			 "SMD_solvation_energy": 5.66 
		},
		"coords": [
			{
				"x": 1.3821957413,
				"y": -0.8807420661,
				"z": -0.0457571451,
				"element": "O" 
			},
			{
				"x": 1.0699269333,
				"y": 0.1541354039,
				"z": -0.61288847,
				"element": "C" 
			},
			{
				"x": 1.9026539136,
				"y": 0.6441944103,
				"z": -1.6591340403,
				"element": "N" 
			},
			{
				"x": 1.6910716273,
				"y": 1.789320809,
				"z": -2.3652290463,
				"element": "C" 
			},
			{
				"x": 2.6513673311,
				"y": 2.1511558085,
				"z": -3.4889712869,
				"element": "C" 
			},
			{
				"x": 3.9503906829,
				"y": 1.4829416895,
				"z": -3.409966405,
				"element": "C" 
			},
			{
				"x": 4.9620645819,
				"y": 0.9203395609,
				"z": -3.3288902696,
				"element": "N" 
			},
			{
				"x": 0.6802277677,
				"y": 2.5799298212,
				"z": -2.1587193921,
				"element": "N" 
			},
			{
				"x": -0.1728710998,
				"y": 2.1749157723,
				"z": -1.1739009567,
				"element": "C" 
			},
			{
				"x": -0.0772151195,
				"y": 1.0229882726,
				"z": -0.3885749928,
				"element": "C" 
			},
			{
				"x": -1.1394601258,
				"y": 0.9179496286,
				"z": 0.588435015,
				"element": "C" 
			},
			{
				"x": -1.9901455014,
				"y": 1.9911440069,
				"z": 0.4912143958,
				"element": "C" 
			},
			{
				"x": -1.5565339478,
				"y": 3.1383881565,
				"z": -0.7407559072,
				"element": "S" 
			},
			{
				"x": -1.3580620981,
				"y": -0.1556623911,
				"z": 1.588750308,
				"element": "C" 
			},
			{
				"x": -1.7467729798,
				"y": 0.1873484605,
				"z": 2.8949528075,
				"element": "C" 
			},
			{
				"x": -2.0258237318,
				"y": -0.7987411955,
				"z": 3.8403281372,
				"element": "C" 
			},
			{
				"x": -1.9189231642,
				"y": -2.1469115359,
				"z": 3.4964573605,
				"element": "C" 
			},
			{
				"x": -1.5274823605,
				"y": -2.4991240796,
				"z": 2.2030393177,
				"element": "C" 
			},
			{
				"x": -1.2480582748,
				"y": -1.5154369878,
				"z": 1.256509523,
				"element": "C" 
			},
			{
				"x": 2.7293645356,
				"y": 0.0796902784,
				"z": -1.8303700854,
				"element": "H" 
			},
			{
				"x": 2.7858514472,
				"y": 3.2366550264,
				"z": -3.4812968099,
				"element": "H" 
			},
			{
				"x": 2.1847266105,
				"y": 1.8977308563,
				"z": -4.4494765462,
				"element": "H" 
			},
			{
				"x": -2.8865678351,
				"y": 2.1531150458,
				"z": 1.0732831339,
				"element": "H" 
			},
			{
				"x": -1.8078420301,
				"y": 1.2353717821,
				"z": 3.1737196302,
				"element": "H" 
			},
			{
				"x": -2.317407345,
				"y": -0.5124225908,
				"z": 4.8468496298,
				"element": "H" 
			},
			{
				"x": -2.131779934,
				"y": -2.9173763801,
				"z": 4.2319510927,
				"element": "H" 
			},
			{
				"x": -1.4379339989,
				"y": -3.5460261166,
				"z": 1.9278181755,
				"element": "H" 
			},
			{
				"x": -0.9357616256,
				"y": -1.801171446,
				"z": 0.2597228267,
				"element": "H" 
			}
		],
		 "valence_orbital": [ 
			{
				"type": "occ",
				"energy": -0.28003,
				"method": "rhf"
			},
			{
				"type": "occ",
				"energy": -0.27348,
				"method": "rhf"
			},
			{
				"type": "occ",
				"energy": -0.24888,
				"method": "rhf"
			},
			{
				"type": "occ",
				"energy": -0.24556,
				"method": "rhf"
			},
			{
				"type": "occ",
				"energy": -0.22172,
				"method": "rhf"
			},
			{
				"type": "unocc",
				"energy": -0.05816,
				"method": "rhf"
			},
			{
				"type": "unocc",
				"energy": -0.02905,
				"method": "rhf"
			},
			{
				"type": "unocc",
				"energy": -0.01501,
				"method": "rhf"
			},
			{
				"type": "unocc",
				"energy": 0.00026,
				"method": "rhf"
			},
			{
				"type": "unocc",
				"energy": 0.00162,
				"method": "rhf"
			}
		],
		"cosmo_sigma_profile": { 
			"-0.025": 0.0,
			"-0.024": 0.0,
			"-0.023": 0.0,
			"-0.022": 0.0,
			"-0.021": 0.0,
			"-0.02": 0.0,
			"-0.019": 0.0,
			"-0.018": 0.0,
			"-0.017": 0.0,
			"-0.016": 0.0,
			"-0.015": 0.0,
			"-0.014": 0.346398437366,
			"-0.013": 0.882901799698,
			"-0.012": 1.58285778304,
			"-0.011": 5.75285010213,
			"-0.01": 6.93676198114,
			"-0.009": 6.30754496804,
			"-0.008": 8.2096166035,
			"-0.007": 7.63616091233,
			"-0.006": 9.55147299918,
			"-0.005": 17.6766768301,
			"-0.004": 19.0409198757,
			"-0.003": 17.8962806403,
			"-0.002": 15.3471853671,
			"-0.001": 15.37133056,
			"0.0": 19.6085026774,
			"0.001": 24.2266935973,
			"0.002": 23.081879661,
			"0.003": 16.8423590207,
			"0.004": 12.2131676268,
			"0.005": 12.9207975346,
			"0.006": 10.7328879457,
			"0.007": 5.59428834089,
			"0.008": 5.33836399761,
			"0.009": 5.55195430029,
			"0.01": 5.09524536134,
			"0.011": 5.48786971246,
			"0.012": 5.95437185417,
			"0.013": 3.6794339684,
			"0.014": 0.0427811637702,
			"0.015": 0.0,
			"0.016": 0.0,
			"0.017": 0.0,
			"0.018": 0.0,
			"0.019": 0.0,
			"0.02": 0.0,
			"0.021": 0.0,
			"0.022": 0.0,
			"0.023": 0.0,
			"0.024": 0.0,
			"0.025": 0.0
		}
	}
}
