{
	 "smiles": "COCCCNC1=C(N)N(CC(C)C)C(=O)NC1=O", 
	 "Tm": 453.15, 
	 "num_atms": 41, 
	 "gaussian": { 
		 "optdone": 1, 
		 "sigma_profile": "yes", 
		 "theory": "DFT", 
		 "functional": "B3LYP", 
		 "basiset": "6-31G**", 
		 "properties": { 
			 "R2extent": 6967.4883, 
			 "electric_dipole_moment_norm": 5.13788228845, 
			 "electric_quadrupole_moment_norm": 13.2584030335, 
			 "total_energy": -915.25061266, 
			 "HOMO_LUMO_gap": 0.184, 
			 "cosmo_polarized_energy": -20.4, 
			 "cosmo_cavitation_energy": 41.75, 
			 "cosmo_dispersion_energy": -28.89, 
			 "cosmo_repulsion_energy": 2.27, 
			 "cosmo_total_nonelectrostatic_energy": 15.13, 
			 "SMD_solvation_energy": 7.51 
		},
		"coords": [
			{
				"x": -1.3400947876,
				"y": 3.0640241674,
				"z": 4.0341867456,
				"element": "C" 
			},
			{
				"x": -2.2669930675,
				"y": 2.0908922617,
				"z": 3.6086335843,
				"element": "O" 
			},
			{
				"x": -1.7787220629,
				"y": 1.3027849416,
				"z": 2.5330418345,
				"element": "C" 
			},
			{
				"x": -2.8187439807,
				"y": 0.2259029679,
				"z": 2.2449830159,
				"element": "C" 
			},
			{
				"x": -2.6177519298,
				"y": -0.5789925887,
				"z": 0.9521570807,
				"element": "C" 
			},
			{
				"x": -1.4864279245,
				"y": -1.5343680409,
				"z": 0.9030194998,
				"element": "N" 
			},
			{
				"x": -0.2093333227,
				"y": -1.0607256279,
				"z": 0.4985196581,
				"element": "C" 
			},
			{
				"x": 0.0825871955,
				"y": -0.9975930772,
				"z": -0.8485584847,
				"element": "C" 
			},
			{
				"x": -0.8908917446,
				"y": -1.3035225626,
				"z": -1.774328033,
				"element": "N" 
			},
			{
				"x": 1.3181144259,
				"y": -0.5681504448,
				"z": -1.3181591834,
				"element": "N" 
			},
			{
				"x": 1.5601101985,
				"y": -0.3203415452,
				"z": -2.7504663468,
				"element": "C" 
			},
			{
				"x": 1.9715138978,
				"y": -1.5571377075,
				"z": -3.5785305749,
				"element": "C" 
			},
			{
				"x": 2.1448485948,
				"y": -1.1303449764,
				"z": -5.0441359569,
				"element": "C" 
			},
			{
				"x": 3.2378784712,
				"y": -2.2343384471,
				"z": -3.038331591,
				"element": "C" 
			},
			{
				"x": 2.3621043478,
				"y": -0.2485186946,
				"z": -0.4346555855,
				"element": "C" 
			},
			{
				"x": 3.4468838024,
				"y": 0.1662582659,
				"z": -0.8175306265,
				"element": "O" 
			},
			{
				"x": 2.0646506977,
				"y": -0.4459634945,
				"z": 0.8953320756,
				"element": "N" 
			},
			{
				"x": 0.8350868903,
				"y": -0.832778065,
				"z": 1.4625625544,
				"element": "C" 
			},
			{
				"x": 0.7358305969,
				"y": -0.9740487877,
				"z": 2.6812237204,
				"element": "O" 
			},
			{
				"x": -1.0966040317,
				"y": 3.780156968,
				"z": 3.2317079811,
				"element": "H" 
			},
			{
				"x": -1.7973974298,
				"y": 3.6108328252,
				"z": 4.8631348381,
				"element": "H" 
			},
			{
				"x": -0.3987762511,
				"y": 2.6110783881,
				"z": 4.3835580474,
				"element": "H" 
			},
			{
				"x": -1.6238311524,
				"y": 1.9348121314,
				"z": 1.6389727953,
				"element": "H" 
			},
			{
				"x": -0.8144645714,
				"y": 0.8502819133,
				"z": 2.7990906854,
				"element": "H" 
			},
			{
				"x": -3.7971377579,
				"y": 0.7195709352,
				"z": 2.1805612466,
				"element": "H" 
			},
			{
				"x": -2.8745123181,
				"y": -0.4561417975,
				"z": 3.1029894216,
				"element": "H" 
			},
			{
				"x": -3.5341610794,
				"y": -1.1571452967,
				"z": 0.7766954229,
				"element": "H" 
			},
			{
				"x": -2.5105897262,
				"y": 0.1001186803,
				"z": 0.0987052502,
				"element": "H" 
			},
			{
				"x": -1.3917223125,
				"y": -2.0151057994,
				"z": 1.7941027668,
				"element": "H" 
			},
			{
				"x": -1.6334890297,
				"y": -1.8375982302,
				"z": -1.3291230197,
				"element": "H" 
			},
			{
				"x": -0.5749769018,
				"y": -1.6950958216,
				"z": -2.6505224551,
				"element": "H" 
			},
			{
				"x": 2.3614274506,
				"y": 0.4192657733,
				"z": -2.792175162,
				"element": "H" 
			},
			{
				"x": 0.6546491438,
				"y": 0.1331638132,
				"z": -3.1656883598,
				"element": "H" 
			},
			{
				"x": 1.1581155873,
				"y": -2.2994160939,
				"z": -3.5410660927,
				"element": "H" 
			},
			{
				"x": 2.9592830725,
				"y": -0.4034779617,
				"z": -5.1431664797,
				"element": "H" 
			},
			{
				"x": 1.2350037843,
				"y": -0.6699556132,
				"z": -5.4456689996,
				"element": "H" 
			},
			{
				"x": 2.3903287013,
				"y": -1.9910983012,
				"z": -5.6735174812,
				"element": "H" 
			},
			{
				"x": 4.0806127927,
				"y": -1.5367631697,
				"z": -3.0262232726,
				"element": "H" 
			},
			{
				"x": 3.5065349666,
				"y": -3.092361007,
				"z": -3.6632979861,
				"element": "H" 
			},
			{
				"x": 3.0967366149,
				"y": -2.5978165581,
				"z": -2.0165212567,
				"element": "H" 
			},
			{
				"x": 2.8179201493,
				"y": -0.2509443221,
				"z": 1.5428887231,
				"element": "H" 
			}
		],
		 "valence_orbital": [ 
			{
				"type": "occ",
				"energy": -0.27611,
				"method": "rhf"
			},
			{
				"type": "occ",
				"energy": -0.26362,
				"method": "rhf"
			},
			{
				"type": "occ",
				"energy": -0.25362,
				"method": "rhf"
			},
			{
				"type": "occ",
				"energy": -0.23978,
				"method": "rhf"
			},
			{
				"type": "occ",
				"energy": -0.19864,
				"method": "rhf"
			},
			{
				"type": "unocc",
				"energy": -0.01464,
				"method": "rhf"
			},
			{
				"type": "unocc",
				"energy": 0.01813,
				"method": "rhf"
			},
			{
				"type": "unocc",
				"energy": 0.05044,
				"method": "rhf"
			},
			{
				"type": "unocc",
				"energy": 0.08804,
				"method": "rhf"
			},
			{
				"type": "unocc",
				"energy": 0.09677,
				"method": "rhf"
			}
		],
		"cosmo_sigma_profile": { 
			"-0.025": 0.0,
			"-0.024": 0.0,
			"-0.023": 0.0,
			"-0.022": 0.0,
			"-0.021": 0.0,
			"-0.02": 0.0,
			"-0.019": 0.0,
			"-0.018": 0.0,
			"-0.017": 0.0,
			"-0.016": 0.0910165008637,
			"-0.015": 0.839219864686,
			"-0.014": 0.72553820872,
			"-0.013": 1.68743939645,
			"-0.012": 2.14376608176,
			"-0.011": 3.23973229668,
			"-0.01": 3.56447638409,
			"-0.009": 3.86725042154,
			"-0.008": 3.67298709282,
			"-0.007": 4.26571684193,
			"-0.006": 4.93062537938,
			"-0.005": 7.68930429669,
			"-0.004": 18.3113380232,
			"-0.003": 43.3357939994,
			"-0.002": 50.5646053649,
			"-0.001": 39.9678334913,
			"0.0": 29.9686208877,
			"0.001": 22.2596258453,
			"0.002": 11.3833664774,
			"0.003": 7.9948315928,
			"0.004": 7.99888373802,
			"0.005": 5.43943956568,
			"0.006": 5.57630371305,
			"0.007": 5.48966797009,
			"0.008": 5.14606320258,
			"0.009": 5.64631416425,
			"0.01": 5.11665926197,
			"0.011": 4.07959242269,
			"0.012": 5.31758834548,
			"0.013": 8.42250455632,
			"0.014": 5.50339809,
			"0.015": 0.639504581299,
			"0.016": 0.0,
			"0.017": 0.0,
			"0.018": 0.0,
			"0.019": 0.0,
			"0.02": 0.0,
			"0.021": 0.0,
			"0.022": 0.0,
			"0.023": 0.0,
			"0.024": 0.0,
			"0.025": 0.0
		}
	}
}
