{
	 "smiles": "OCCC(O)CO", 
	 "Tm": 253.15, 
	 "num_atms": 17, 
	 "gaussian": { 
		 "optdone": 1, 
		 "sigma_profile": "yes", 
		 "theory": "DFT", 
		 "functional": "B3LYP", 
		 "basiset": "6-31G**", 
		 "properties": { 
			 "R2extent": 1563.2119, 
			 "electric_dipole_moment_norm": 3.68390007872, 
			 "electric_quadrupole_moment_norm": 13.1125356808, 
			 "total_energy": -384.097324835, 
			 "HOMO_LUMO_gap": 0.31524, 
			 "cosmo_polarized_energy": -13.82, 
			 "cosmo_cavitation_energy": 19.41, 
			 "cosmo_dispersion_energy": -14.5, 
			 "cosmo_repulsion_energy": 1.26, 
			 "cosmo_total_nonelectrostatic_energy": 6.17, 
			 "SMD_solvation_energy": 3.39 
		},
		"coords": [
			{
				"x": -0.578690286,
				"y": 1.6174849031,
				"z": -3.3894343631,
				"element": "O" 
			},
			{
				"x": -1.347676924,
				"y": 1.0918638697,
				"z": -2.3133857452,
				"element": "C" 
			},
			{
				"x": -0.5681245372,
				"y": 0.9195477117,
				"z": -1.0057533703,
				"element": "C" 
			},
			{
				"x": 0.5536922036,
				"y": -0.1266755154,
				"z": -1.0342414061,
				"element": "C" 
			},
			{
				"x": 1.0869103612,
				"y": -0.3265590016,
				"z": 0.2854341889,
				"element": "O" 
			},
			{
				"x": 1.767682069,
				"y": 0.2597113187,
				"z": -1.8789951744,
				"element": "C" 
			},
			{
				"x": 2.7714810278,
				"y": -0.7338233266,
				"z": -1.8043006394,
				"element": "O" 
			},
			{
				"x": -0.2821720647,
				"y": 2.5019792184,
				"z": -3.1378154312,
				"element": "H" 
			},
			{
				"x": -1.7114116294,
				"y": 0.1196037069,
				"z": -2.6649580421,
				"element": "H" 
			},
			{
				"x": -2.2347723136,
				"y": 1.7160121211,
				"z": -2.1238617765,
				"element": "H" 
			},
			{
				"x": -1.28685147,
				"y": 0.6289528365,
				"z": -0.2261077234,
				"element": "H" 
			},
			{
				"x": -0.151104594,
				"y": 1.8846663613,
				"z": -0.6846310438,
				"element": "H" 
			},
			{
				"x": 0.158761284,
				"y": -1.0791435974,
				"z": -1.4228793429,
				"element": "H" 
			},
			{
				"x": 0.4465868078,
				"y": -0.829375244,
				"z": 0.8034076901,
				"element": "H" 
			},
			{
				"x": 1.4743327322,
				"y": 0.3712086517,
				"z": -2.9242209592,
				"element": "H" 
			},
			{
				"x": 2.1389081342,
				"y": 1.2376908031,
				"z": -1.5238190962,
				"element": "H" 
			},
			{
				"x": 2.865449199,
				"y": -0.9251448172,
				"z": -0.8594377653,
				"element": "H" 
			}
		],
		 "valence_orbital": [ 
			{
				"type": "occ",
				"energy": -0.33184,
				"method": "rhf"
			},
			{
				"type": "occ",
				"energy": -0.31215,
				"method": "rhf"
			},
			{
				"type": "occ",
				"energy": -0.28746,
				"method": "rhf"
			},
			{
				"type": "occ",
				"energy": -0.26835,
				"method": "rhf"
			},
			{
				"type": "occ",
				"energy": -0.25178,
				"method": "rhf"
			},
			{
				"type": "unocc",
				"energy": 0.06346,
				"method": "rhf"
			},
			{
				"type": "unocc",
				"energy": 0.06641,
				"method": "rhf"
			},
			{
				"type": "unocc",
				"energy": 0.10616,
				"method": "rhf"
			},
			{
				"type": "unocc",
				"energy": 0.1238,
				"method": "rhf"
			},
			{
				"type": "unocc",
				"energy": 0.13279,
				"method": "rhf"
			}
		],
		"cosmo_sigma_profile": { 
			"-0.025": 0.0,
			"-0.024": 0.0,
			"-0.023": 0.0,
			"-0.022": 0.0,
			"-0.021": 0.0,
			"-0.02": 0.0,
			"-0.019": 0.0,
			"-0.018": 0.0,
			"-0.017": 0.0,
			"-0.016": 0.589961439529,
			"-0.015": 1.62544657534,
			"-0.014": 2.03423245886,
			"-0.013": 2.27410895395,
			"-0.012": 1.79303270994,
			"-0.011": 2.17906043723,
			"-0.01": 2.06349895316,
			"-0.009": 2.16972751856,
			"-0.008": 2.69905497001,
			"-0.007": 3.66690994866,
			"-0.006": 3.74406292815,
			"-0.005": 3.65974220499,
			"-0.004": 14.217332572,
			"-0.003": 17.356382017,
			"-0.002": 13.1956014895,
			"-0.001": 10.0738170904,
			"0.0": 9.37537642803,
			"0.001": 6.06166897231,
			"0.002": 4.62029978542,
			"0.003": 4.67481881157,
			"0.004": 4.254781172,
			"0.005": 3.70396274337,
			"0.006": 3.58805467241,
			"0.007": 3.44518352035,
			"0.008": 2.43447354756,
			"0.009": 4.10315414576,
			"0.01": 3.20304297534,
			"0.011": 2.06650631981,
			"0.012": 3.97408166679,
			"0.013": 3.59528735347,
			"0.014": 4.23428310533,
			"0.015": 2.36519974721,
			"0.016": 0.0,
			"0.017": 0.0,
			"0.018": 0.0,
			"0.019": 0.0,
			"0.02": 0.0,
			"0.021": 0.0,
			"0.022": 0.0,
			"0.023": 0.0,
			"0.024": 0.0,
			"0.025": 0.0
		}
	}
}
