{
	 "smiles": "COC(=O)[C@]12C=C[C@@H]3[C@H](C4=CC=CC=C14)[C@]23C(=O)C1=CC=CC=C1", 
	 "Tm": 435.5, 
	 "num_atms": 40, 
	 "gaussian": { 
		 "optdone": 1, 
		 "sigma_profile": "yes", 
		 "theory": "DFT", 
		 "functional": "B3LYP", 
		 "basiset": "6-31G**", 
		 "properties": { 
			 "R2extent": 6349.2933, 
			 "electric_dipole_moment_norm": 1.15603323482, 
			 "electric_quadrupole_moment_norm": 16.7455111621, 
			 "total_energy": -1035.49595766, 
			 "HOMO_LUMO_gap": 0.17464, 
			 "cosmo_polarized_energy": -13.13, 
			 "cosmo_cavitation_energy": 42.42, 
			 "cosmo_dispersion_energy": -28.2, 
			 "cosmo_repulsion_energy": 2.14, 
			 "cosmo_total_nonelectrostatic_energy": 16.35, 
			 "SMD_solvation_energy": 8.37 
		},
		"coords": [
			{
				"x": 1.6201106415,
				"y": 3.0126023097,
				"z": -2.1540814171,
				"element": "C" 
			},
			{
				"x": 0.8703739982,
				"y": 2.4793549103,
				"z": -1.0487271071,
				"element": "O" 
			},
			{
				"x": 1.5089299345,
				"y": 1.5564120602,
				"z": -0.3031103317,
				"element": "C" 
			},
			{
				"x": 2.6575577115,
				"y": 1.2164824639,
				"z": -0.4931033712,
				"element": "O" 
			},
			{
				"x": 0.6190807562,
				"y": 1.0771189589,
				"z": 0.831093695,
				"element": "C" 
			},
			{
				"x": 0.482717731,
				"y": 2.1453241709,
				"z": 1.9322142595,
				"element": "C" 
			},
			{
				"x": -0.7592764383,
				"y": 2.1706567609,
				"z": 2.4296717056,
				"element": "C" 
			},
			{
				"x": -1.65244167,
				"y": 1.255420567,
				"z": 1.6840829619,
				"element": "C" 
			},
			{
				"x": -1.2904696466,
				"y": -0.2587228122,
				"z": 1.5600810081,
				"element": "C" 
			},
			{
				"x": -0.042482708,
				"y": -0.828586307,
				"z": 2.1206714128,
				"element": "C" 
			},
			{
				"x": 0.1114673474,
				"y": -1.9136204255,
				"z": 2.9819039321,
				"element": "C" 
			},
			{
				"x": 1.4020049971,
				"y": -2.3252614966,
				"z": 3.3288077729,
				"element": "C" 
			},
			{
				"x": 2.5204468216,
				"y": -1.6507449477,
				"z": 2.8303930375,
				"element": "C" 
			},
			{
				"x": 2.3736579977,
				"y": -0.5459838426,
				"z": 1.9838327408,
				"element": "C" 
			},
			{
				"x": 1.0880064208,
				"y": -0.1496914475,
				"z": 1.6211253775,
				"element": "C" 
			},
			{
				"x": -0.884938385,
				"y": 0.7531313756,
				"z": 0.4926968788,
				"element": "C" 
			},
			{
				"x": -1.5377157076,
				"y": 0.6949305524,
				"z": -0.8638726791,
				"element": "C" 
			},
			{
				"x": -2.6614055705,
				"y": 1.1581343452,
				"z": -1.0105608869,
				"element": "O" 
			},
			{
				"x": -0.8537987579,
				"y": -0.0043750222,
				"z": -1.9980220939,
				"element": "C" 
			},
			{
				"x": -1.3373921267,
				"y": 0.2241440955,
				"z": -3.2967047887,
				"element": "C" 
			},
			{
				"x": -0.7623685892,
				"y": -0.4222002825,
				"z": -4.3862109877,
				"element": "C" 
			},
			{
				"x": 0.2933305233,
				"y": -1.3191328878,
				"z": -4.189841876,
				"element": "C" 
			},
			{
				"x": 0.7686422854,
				"y": -1.5654172694,
				"z": -2.9010545948,
				"element": "C" 
			},
			{
				"x": 0.2009960715,
				"y": -0.909262575,
				"z": -1.8075311808,
				"element": "C" 
			},
			{
				"x": 0.967714336,
				"y": 3.7495857426,
				"z": -2.6212199085,
				"element": "H" 
			},
			{
				"x": 1.8701162785,
				"y": 2.2177536381,
				"z": -2.860813963,
				"element": "H" 
			},
			{
				"x": 2.542190876,
				"y": 3.4804595856,
				"z": -1.8013364097,
				"element": "H" 
			},
			{
				"x": 1.3545679081,
				"y": 2.651837425,
				"z": 2.3321922815,
				"element": "H" 
			},
			{
				"x": -1.0790885299,
				"y": 2.7477742696,
				"z": 3.2905685912,
				"element": "H" 
			},
			{
				"x": -2.7077424044,
				"y": 1.4767738898,
				"z": 1.5659414402,
				"element": "H" 
			},
			{
				"x": -2.1409010867,
				"y": -0.9107719701,
				"z": 1.381643152,
				"element": "H" 
			},
			{
				"x": -0.757601447,
				"y": -2.4402781297,
				"z": 3.3666972695,
				"element": "H" 
			},
			{
				"x": 1.5356833516,
				"y": -3.1805661751,
				"z": 3.9850156103,
				"element": "H" 
			},
			{
				"x": 3.5169819478,
				"y": -1.9897927368,
				"z": 3.0986821901,
				"element": "H" 
			},
			{
				"x": 3.2377522437,
				"y": -0.0249758036,
				"z": 1.5886672866,
				"element": "H" 
			},
			{
				"x": -2.1680566136,
				"y": 0.9106702955,
				"z": -3.4221091749,
				"element": "H" 
			},
			{
				"x": -1.1366904827,
				"y": -0.2337515176,
				"z": -5.3883957272,
				"element": "H" 
			},
			{
				"x": 0.740702768,
				"y": -1.8266760684,
				"z": -5.0398642358,
				"element": "H" 
			},
			{
				"x": 1.5812987842,
				"y": -2.2681717313,
				"z": -2.7437003747,
				"element": "H" 
			},
			{
				"x": 0.5719384326,
				"y": -1.1220839683,
				"z": -0.8101214952,
				"element": "H" 
			}
		],
		 "valence_orbital": [ 
			{
				"type": "occ",
				"energy": -0.25825,
				"method": "rhf"
			},
			{
				"type": "occ",
				"energy": -0.2563,
				"method": "rhf"
			},
			{
				"type": "occ",
				"energy": -0.24927,
				"method": "rhf"
			},
			{
				"type": "occ",
				"energy": -0.23306,
				"method": "rhf"
			},
			{
				"type": "occ",
				"energy": -0.22895,
				"method": "rhf"
			},
			{
				"type": "unocc",
				"energy": -0.05431,
				"method": "rhf"
			},
			{
				"type": "unocc",
				"energy": -0.01541,
				"method": "rhf"
			},
			{
				"type": "unocc",
				"energy": -0.00951,
				"method": "rhf"
			},
			{
				"type": "unocc",
				"energy": -0.00402,
				"method": "rhf"
			},
			{
				"type": "unocc",
				"energy": 0.00528,
				"method": "rhf"
			}
		],
		"cosmo_sigma_profile": { 
			"-0.025": 0.0,
			"-0.024": 0.0,
			"-0.023": 0.0,
			"-0.022": 0.0,
			"-0.021": 0.0,
			"-0.02": 0.0,
			"-0.019": 0.0,
			"-0.018": 0.0,
			"-0.017": 0.0,
			"-0.016": 0.0,
			"-0.015": 0.0,
			"-0.014": 0.0,
			"-0.013": 0.0,
			"-0.012": 0.0,
			"-0.011": 0.0,
			"-0.01": 0.0,
			"-0.009": 0.0,
			"-0.008": 0.233425598764,
			"-0.007": 7.46580506306,
			"-0.006": 22.7338464799,
			"-0.005": 30.2793499069,
			"-0.004": 34.2505095051,
			"-0.003": 30.1645304318,
			"-0.002": 22.9110552468,
			"-0.001": 23.2721680442,
			"0.0": 19.06221806,
			"0.001": 21.5632235565,
			"0.002": 24.4619983752,
			"0.003": 26.2380644355,
			"0.004": 23.5237530347,
			"0.005": 17.0444793194,
			"0.006": 9.30207007281,
			"0.007": 4.14262111671,
			"0.008": 4.98694502514,
			"0.009": 2.78985494356,
			"0.01": 4.3798652165,
			"0.011": 6.12812690234,
			"0.012": 4.29241651195,
			"0.013": 0.0217154551617,
			"0.014": 0.0,
			"0.015": 0.0,
			"0.016": 0.0,
			"0.017": 0.0,
			"0.018": 0.0,
			"0.019": 0.0,
			"0.02": 0.0,
			"0.021": 0.0,
			"0.022": 0.0,
			"0.023": 0.0,
			"0.024": 0.0,
			"0.025": 0.0
		}
	}
}
