{
	 "smiles": "ClC1=C(Cl)C2=C(C=C1)C(=O)C=CC2=O", 
	 "Tm": 454.15, 
	 "num_atms": 18, 
	 "gaussian": { 
		 "optdone": 1, 
		 "sigma_profile": "yes", 
		 "theory": "DFT", 
		 "functional": "B3LYP", 
		 "basiset": "6-31G**", 
		 "properties": { 
			 "R2extent": 5097.0999, 
			 "electric_dipole_moment_norm": 1.592430931, 
			 "electric_quadrupole_moment_norm": 14.129134689, 
			 "total_energy": -1454.27788844, 
			 "HOMO_LUMO_gap": 0.13913, 
			 "cosmo_polarized_energy": -9.9, 
			 "cosmo_cavitation_energy": 26.5, 
			 "cosmo_dispersion_energy": -19.99, 
			 "cosmo_repulsion_energy": 1.53, 
			 "cosmo_total_nonelectrostatic_energy": 8.04, 
			 "SMD_solvation_energy": 5.03 
		},
		"coords": [
			{
				"x": 4.6122479128,
				"y": 0.6539886755,
				"z": -0.0445274791,
				"element": "Cl" 
			},
			{
				"x": 2.9845772359,
				"y": 0.2654340942,
				"z": 0.442203956,
				"element": "C" 
			},
			{
				"x": 2.3192185248,
				"y": 1.0110067454,
				"z": 1.4363858574,
				"element": "C" 
			},
			{
				"x": 3.1683917376,
				"y": 2.3365203853,
				"z": 2.1697249794,
				"element": "Cl" 
			},
			{
				"x": 0.9992600066,
				"y": 0.6611644659,
				"z": 1.8004734781,
				"element": "C" 
			},
			{
				"x": 0.3860577629,
				"y": -0.4357044792,
				"z": 1.1480302795,
				"element": "C" 
			},
			{
				"x": 1.0641648953,
				"y": -1.1587029678,
				"z": 0.1671998373,
				"element": "C" 
			},
			{
				"x": 2.3593873669,
				"y": -0.8113707195,
				"z": -0.1864761981,
				"element": "C" 
			},
			{
				"x": -1.0090206993,
				"y": -0.8742384378,
				"z": 1.4723832713,
				"element": "C" 
			},
			{
				"x": -1.5289398623,
				"y": -1.8256036919,
				"z": 0.9007242734,
				"element": "O" 
			},
			{
				"x": -1.7394735379,
				"y": -0.1198790191,
				"z": 2.5083164561,
				"element": "C" 
			},
			{
				"x": -1.1703653807,
				"y": 0.9204075937,
				"z": 3.1335612047,
				"element": "C" 
			},
			{
				"x": 0.2098090642,
				"y": 1.397072123,
				"z": 2.84923136,
				"element": "C" 
			},
			{
				"x": 0.6330276332,
				"y": 2.3558423003,
				"z": 3.4779778996,
				"element": "O" 
			},
			{
				"x": 0.5537782443,
				"y": -1.9907874993,
				"z": -0.3047497754,
				"element": "H" 
			},
			{
				"x": 2.8989697606,
				"y": -1.3642368728,
				"z": -0.9471359198,
				"element": "H" 
			},
			{
				"x": -2.7484441162,
				"y": -0.457412967,
				"z": 2.7255309103,
				"element": "H" 
			},
			{
				"x": -1.6849465486,
				"y": 1.4930002711,
				"z": 3.8995456094,
				"element": "H" 
			}
		],
		 "valence_orbital": [ 
			{
				"type": "occ",
				"energy": -0.30805,
				"method": "rhf"
			},
			{
				"type": "occ",
				"energy": -0.28474,
				"method": "rhf"
			},
			{
				"type": "occ",
				"energy": -0.28135,
				"method": "rhf"
			},
			{
				"type": "occ",
				"energy": -0.26706,
				"method": "rhf"
			},
			{
				"type": "occ",
				"energy": -0.26584,
				"method": "rhf"
			},
			{
				"type": "unocc",
				"energy": -0.12671,
				"method": "rhf"
			},
			{
				"type": "unocc",
				"energy": -0.06165,
				"method": "rhf"
			},
			{
				"type": "unocc",
				"energy": -0.04206,
				"method": "rhf"
			},
			{
				"type": "unocc",
				"energy": -0.00722,
				"method": "rhf"
			},
			{
				"type": "unocc",
				"energy": 0.02559,
				"method": "rhf"
			}
		],
		"cosmo_sigma_profile": { 
			"-0.025": 0.0,
			"-0.024": 0.0,
			"-0.023": 0.0,
			"-0.022": 0.0,
			"-0.021": 0.0,
			"-0.02": 0.0,
			"-0.019": 0.0,
			"-0.018": 0.0,
			"-0.017": 0.0,
			"-0.016": 0.0,
			"-0.015": 0.0,
			"-0.014": 0.0,
			"-0.013": 0.0,
			"-0.012": 0.0,
			"-0.011": 0.0,
			"-0.01": 0.0173501983783,
			"-0.009": 2.81436441198,
			"-0.008": 7.03828641407,
			"-0.007": 8.5611083018,
			"-0.006": 9.1334350402,
			"-0.005": 9.21810398905,
			"-0.004": 11.9385011839,
			"-0.003": 16.1806932401,
			"-0.002": 25.363829118,
			"-0.001": 25.7244414864,
			"0.0": 18.6235503217,
			"0.001": 10.7904498265,
			"0.002": 11.3604318147,
			"0.003": 17.7120502963,
			"0.004": 11.2394799257,
			"0.005": 3.90868540758,
			"0.006": 3.32800581748,
			"0.007": 3.64854802262,
			"0.008": 3.74958958247,
			"0.009": 4.7209341438,
			"0.01": 7.48860453458,
			"0.011": 5.70984861836,
			"0.012": 0.899442744191,
			"0.013": 0.0,
			"0.014": 0.0,
			"0.015": 0.0,
			"0.016": 0.0,
			"0.017": 0.0,
			"0.018": 0.0,
			"0.019": 0.0,
			"0.02": 0.0,
			"0.021": 0.0,
			"0.022": 0.0,
			"0.023": 0.0,
			"0.024": 0.0,
			"0.025": 0.0
		}
	}
}
