{
	 "smiles": "O=C(CN1CCNCC1)NCC1=CC=CC=C1", 
	 "Tm": 323.15, 
	 "num_atms": 36, 
	 "gaussian": { 
		 "optdone": 1, 
		 "sigma_profile": "yes", 
		 "theory": "DFT", 
		 "functional": "B3LYP", 
		 "basiset": "6-31G**", 
		 "properties": { 
			 "R2extent": 6393.006, 
			 "electric_dipole_moment_norm": 3.76196219146, 
			 "electric_quadrupole_moment_norm": 10.496583095, 
			 "total_energy": -746.305828507, 
			 "HOMO_LUMO_gap": 0.2112, 
			 "cosmo_polarized_energy": -14.5, 
			 "cosmo_cavitation_energy": 37.48, 
			 "cosmo_dispersion_energy": -26.65, 
			 "cosmo_repulsion_energy": 2.1, 
			 "cosmo_total_nonelectrostatic_energy": 12.93, 
			 "SMD_solvation_energy": 2.51 
		},
		"coords": [
			{
				"x": -0.0180361,
				"y": -0.2894657228,
				"z": -1.779112566,
				"element": "O" 
			},
			{
				"x": -0.3047471708,
				"y": -0.39244982,
				"z": -0.5895573128,
				"element": "C" 
			},
			{
				"x": -0.2929690444,
				"y": -1.7556209133,
				"z": 0.1160092395,
				"element": "C" 
			},
			{
				"x": -1.0233345013,
				"y": -1.7805368221,
				"z": 1.3778930439,
				"element": "N" 
			},
			{
				"x": -2.4965673945,
				"y": -1.856807621,
				"z": 1.2093201855,
				"element": "C" 
			},
			{
				"x": -3.0468922036,
				"y": -3.2321372124,
				"z": 1.6086982044,
				"element": "C" 
			},
			{
				"x": -2.7143531236,
				"y": -3.6010808853,
				"z": 2.9938163217,
				"element": "N" 
			},
			{
				"x": -1.464216712,
				"y": -2.9904415689,
				"z": 3.4769500376,
				"element": "C" 
			},
			{
				"x": -0.5001117319,
				"y": -2.7925441523,
				"z": 2.3123560952,
				"element": "C" 
			},
			{
				"x": -0.6153830859,
				"y": 0.652646676,
				"z": 0.2212980338,
				"element": "N" 
			},
			{
				"x": -0.5668841323,
				"y": 2.0378040487,
				"z": -0.2310539627,
				"element": "C" 
			},
			{
				"x": 0.7333370463,
				"y": 2.7452350577,
				"z": 0.1079038584,
				"element": "C" 
			},
			{
				"x": 1.9212823474,
				"y": 2.3801971596,
				"z": -0.543753912,
				"element": "C" 
			},
			{
				"x": 3.1215329425,
				"y": 3.0161317205,
				"z": -0.2307134887,
				"element": "C" 
			},
			{
				"x": 3.1524183549,
				"y": 4.0267451782,
				"z": 0.7350956336,
				"element": "C" 
			},
			{
				"x": 1.9755289895,
				"y": 4.3977622533,
				"z": 1.3851249566,
				"element": "C" 
			},
			{
				"x": 0.7734088486,
				"y": 3.7579003031,
				"z": 1.0715922825,
				"element": "C" 
			},
			{
				"x": -0.6361886575,
				"y": -2.5022508394,
				"z": -0.6184974544,
				"element": "H" 
			},
			{
				"x": 0.7612351288,
				"y": -1.9832823935,
				"z": 0.3174068859,
				"element": "H" 
			},
			{
				"x": -2.9783168997,
				"y": -1.0826269854,
				"z": 1.8227923052,
				"element": "H" 
			},
			{
				"x": -2.7501514362,
				"y": -1.6335684063,
				"z": 0.1673521503,
				"element": "H" 
			},
			{
				"x": -2.6455372648,
				"y": -3.9905941915,
				"z": 0.9223488531,
				"element": "H" 
			},
			{
				"x": -4.1347457215,
				"y": -3.2529630906,
				"z": 1.486054957,
				"element": "H" 
			},
			{
				"x": -3.4773664247,
				"y": -3.3446902749,
				"z": 3.6108296921,
				"element": "H" 
			},
			{
				"x": -1.6196166324,
				"y": -2.0099715785,
				"z": 3.9586194459,
				"element": "H" 
			},
			{
				"x": -1.0011290069,
				"y": -3.6461351956,
				"z": 4.2246402054,
				"element": "H" 
			},
			{
				"x": -0.3366544362,
				"y": -3.7690369629,
				"z": 1.8227118521,
				"element": "H" 
			},
			{
				"x": 0.4729214463,
				"y": -2.4541158318,
				"z": 2.6866705192,
				"element": "H" 
			},
			{
				"x": -0.7416476198,
				"y": 0.4241996681,
				"z": 1.2003622694,
				"element": "H" 
			},
			{
				"x": -1.4129779483,
				"y": 2.5794036514,
				"z": 0.205632977,
				"element": "H" 
			},
			{
				"x": -0.7072460764,
				"y": 2.0058287195,
				"z": -1.3150596012,
				"element": "H" 
			},
			{
				"x": 1.890184245,
				"y": 1.5977702231,
				"z": -1.2971222858,
				"element": "H" 
			},
			{
				"x": 4.0345598863,
				"y": 2.7280193512,
				"z": -0.7445376145,
				"element": "H" 
			},
			{
				"x": 4.0883612426,
				"y": 4.5231901124,
				"z": 0.9754762232,
				"element": "H" 
			},
			{
				"x": 1.9905360234,
				"y": 5.1840553182,
				"z": 2.1348517545,
				"element": "H" 
			},
			{
				"x": -0.1429331767,
				"y": 4.0520310275,
				"z": 1.5790002153,
				"element": "H" 
			}
		],
		 "valence_orbital": [ 
			{
				"type": "occ",
				"energy": -0.24662,
				"method": "rhf"
			},
			{
				"type": "occ",
				"energy": -0.24281,
				"method": "rhf"
			},
			{
				"type": "occ",
				"energy": -0.23544,
				"method": "rhf"
			},
			{
				"type": "occ",
				"energy": -0.2258,
				"method": "rhf"
			},
			{
				"type": "occ",
				"energy": -0.21313,
				"method": "rhf"
			},
			{
				"type": "unocc",
				"energy": -0.00193,
				"method": "rhf"
			},
			{
				"type": "unocc",
				"energy": 0.00323,
				"method": "rhf"
			},
			{
				"type": "unocc",
				"energy": 0.03468,
				"method": "rhf"
			},
			{
				"type": "unocc",
				"energy": 0.06498,
				"method": "rhf"
			},
			{
				"type": "unocc",
				"energy": 0.09398,
				"method": "rhf"
			}
		],
		"cosmo_sigma_profile": { 
			"-0.025": 0.0,
			"-0.024": 0.0,
			"-0.023": 0.0,
			"-0.022": 0.0,
			"-0.021": 0.0,
			"-0.02": 0.0,
			"-0.019": 0.0,
			"-0.018": 0.0,
			"-0.017": 0.0,
			"-0.016": 0.0,
			"-0.015": 0.0,
			"-0.014": 0.0,
			"-0.013": 0.0,
			"-0.012": 0.0,
			"-0.011": 0.223932870053,
			"-0.01": 1.3198268568,
			"-0.009": 2.47803423483,
			"-0.008": 1.82971645873,
			"-0.007": 2.45512559699,
			"-0.006": 8.98693169657,
			"-0.005": 19.915118172,
			"-0.004": 27.4000803549,
			"-0.003": 38.7941193304,
			"-0.002": 40.6443109316,
			"-0.001": 29.4931682925,
			"0.0": 17.8622043578,
			"0.001": 14.3078965172,
			"0.002": 13.2582854896,
			"0.003": 12.9411552064,
			"0.004": 12.5562158302,
			"0.005": 12.263914056,
			"0.006": 11.1128008724,
			"0.007": 2.63405688151,
			"0.008": 1.99874011263,
			"0.009": 2.01654902043,
			"0.01": 2.25651786409,
			"0.011": 2.20342367442,
			"0.012": 1.71610555728,
			"0.013": 2.91233047797,
			"0.014": 4.57311304585,
			"0.015": 2.95524102001,
			"0.016": 0.932259698409,
			"0.017": 0.486933530062,
			"0.018": 0.549446736974,
			"0.019": 0.177447101388,
			"0.02": 0.0,
			"0.021": 0.0,
			"0.022": 0.0,
			"0.023": 0.0,
			"0.024": 0.0,
			"0.025": 0.0
		}
	}
}
