{
	 "smiles": "CCCC1=NOC(N)=C1", 
	 "Tm": 329.15, 
	 "num_atms": 19, 
	 "gaussian": { 
		 "optdone": 1, 
		 "sigma_profile": "yes", 
		 "theory": "DFT", 
		 "functional": "B3LYP", 
		 "basiset": "6-31G**", 
		 "properties": { 
			 "R2extent": 1544.5896, 
			 "electric_dipole_moment_norm": 3.63587726003, 
			 "electric_quadrupole_moment_norm": 13.8517676547, 
			 "total_energy": -419.351551414, 
			 "HOMO_LUMO_gap": 0.22892, 
			 "cosmo_polarized_energy": -12.42, 
			 "cosmo_cavitation_energy": 22.39, 
			 "cosmo_dispersion_energy": -16.47, 
			 "cosmo_repulsion_energy": 1.39, 
			 "cosmo_total_nonelectrostatic_energy": 7.31, 
			 "SMD_solvation_energy": 3.77 
		},
		"coords": [
			{
				"x": -0.2266505439,
				"y": -3.2373787634,
				"z": -0.7909697103,
				"element": "C" 
			},
			{
				"x": -1.0772423636,
				"y": -2.3241970354,
				"z": -1.6788672476,
				"element": "C" 
			},
			{
				"x": -0.547744302,
				"y": -0.8789888963,
				"z": -1.8092068289,
				"element": "C" 
			},
			{
				"x": -0.5926461925,
				"y": -0.0885524551,
				"z": -0.5298933793,
				"element": "C" 
			},
			{
				"x": -1.6275996781,
				"y": 0.6914944712,
				"z": -0.2994346357,
				"element": "N" 
			},
			{
				"x": -1.3779970896,
				"y": 1.264074729,
				"z": 0.9787541514,
				"element": "O" 
			},
			{
				"x": -0.204040952,
				"y": 0.8031827002,
				"z": 1.4384233785,
				"element": "C" 
			},
			{
				"x": 0.2167679151,
				"y": 1.316247285,
				"z": 2.6432444798,
				"element": "N" 
			},
			{
				"x": 0.3541191732,
				"y": -0.0642664447,
				"z": 0.5354594376,
				"element": "C" 
			},
			{
				"x": 0.8022493694,
				"y": -3.3071637973,
				"z": -1.1641551035,
				"element": "H" 
			},
			{
				"x": -0.6382268802,
				"y": -4.2516493935,
				"z": -0.7649032727,
				"element": "H" 
			},
			{
				"x": -0.1840823505,
				"y": -2.8689262569,
				"z": 0.238709805,
				"element": "H" 
			},
			{
				"x": -1.1365653588,
				"y": -2.7521147247,
				"z": -2.6873958419,
				"element": "H" 
			},
			{
				"x": -2.1042179957,
				"y": -2.2851899782,
				"z": -1.2967465872,
				"element": "H" 
			},
			{
				"x": -1.1500802288,
				"y": -0.3455226446,
				"z": -2.5511737956,
				"element": "H" 
			},
			{
				"x": 0.483937617,
				"y": -0.8980523531,
				"z": -2.1820686501,
				"element": "H" 
			},
			{
				"x": -0.524948574,
				"y": 1.7013381664,
				"z": 3.2128265757,
				"element": "H" 
			},
			{
				"x": 0.8537855786,
				"y": 0.7278275663,
				"z": 3.1603843718,
				"element": "H" 
			},
			{
				"x": 1.2955828563,
				"y": -0.5858621749,
				"z": 0.6054128528,
				"element": "H" 
			}
		],
		 "valence_orbital": [ 
			{
				"type": "occ",
				"energy": -0.33089,
				"method": "rhf"
			},
			{
				"type": "occ",
				"energy": -0.32931,
				"method": "rhf"
			},
			{
				"type": "occ",
				"energy": -0.28873,
				"method": "rhf"
			},
			{
				"type": "occ",
				"energy": -0.27282,
				"method": "rhf"
			},
			{
				"type": "occ",
				"energy": -0.21337,
				"method": "rhf"
			},
			{
				"type": "unocc",
				"energy": 0.01555,
				"method": "rhf"
			},
			{
				"type": "unocc",
				"energy": 0.05901,
				"method": "rhf"
			},
			{
				"type": "unocc",
				"energy": 0.08183,
				"method": "rhf"
			},
			{
				"type": "unocc",
				"energy": 0.10308,
				"method": "rhf"
			},
			{
				"type": "unocc",
				"energy": 0.11128,
				"method": "rhf"
			}
		],
		"cosmo_sigma_profile": { 
			"-0.025": 0.0,
			"-0.024": 0.0,
			"-0.023": 0.0,
			"-0.022": 0.0,
			"-0.021": 0.0,
			"-0.02": 0.0,
			"-0.019": 0.0,
			"-0.018": 0.0,
			"-0.017": 0.0,
			"-0.016": 0.0,
			"-0.015": 0.177170114384,
			"-0.014": 2.42699886586,
			"-0.013": 3.16468191576,
			"-0.012": 2.13085407022,
			"-0.011": 2.95173726473,
			"-0.01": 2.27595797975,
			"-0.009": 2.36165449561,
			"-0.008": 1.68947349349,
			"-0.007": 2.54752207617,
			"-0.006": 3.9912356272,
			"-0.005": 2.85190417689,
			"-0.004": 7.11919707937,
			"-0.003": 13.0864236345,
			"-0.002": 19.7951443452,
			"-0.001": 19.2325512661,
			"0.0": 19.0535552247,
			"0.001": 15.5321139966,
			"0.002": 9.20143726947,
			"0.003": 7.85558722601,
			"0.004": 6.04731443585,
			"0.005": 4.47036614124,
			"0.006": 3.10468323731,
			"0.007": 2.73978832295,
			"0.008": 3.47656486785,
			"0.009": 5.64718162559,
			"0.01": 3.44313257695,
			"0.011": 2.12499298405,
			"0.012": 1.71850357876,
			"0.013": 1.8911847389,
			"0.014": 1.1999539218,
			"0.015": 1.40297811364,
			"0.016": 0.785319134037,
			"0.017": 0.0,
			"0.018": 0.0,
			"0.019": 0.0,
			"0.02": 0.0,
			"0.021": 0.0,
			"0.022": 0.0,
			"0.023": 0.0,
			"0.024": 0.0,
			"0.025": 0.0
		}
	}
}
