{
	 "smiles": "CC(=O)OC1CCC2(C)C3CCC4(C)C(CCC4C(C)=O)C3CC=C2C1", 
	 "Tm": 423.15, 
	 "num_atms": 60, 
	 "gaussian": { 
		 "optdone": 1, 
		 "sigma_profile": "yes", 
		 "theory": "DFT", 
		 "functional": "B3LYP", 
		 "basiset": "6-31G**", 
		 "properties": { 
			 "R2extent": 12362.6415, 
			 "electric_dipole_moment_norm": 3.23534226165, 
			 "electric_quadrupole_moment_norm": 24.1596301977, 
			 "total_energy": -1122.6358161, 
			 "HOMO_LUMO_gap": 0.21966, 
			 "cosmo_polarized_energy": -13.6, 
			 "cosmo_cavitation_energy": 52.76, 
			 "cosmo_dispersion_energy": -35.79, 
			 "cosmo_repulsion_energy": 2.66, 
			 "cosmo_total_nonelectrostatic_energy": 19.63, 
			 "SMD_solvation_energy": 9.2 
		},
		"coords": [
			{
				"x": 2.8195656559,
				"y": 0.444888974,
				"z": 4.9991627373,
				"element": "C" 
			},
			{
				"x": 2.0462619691,
				"y": -0.8175014556,
				"z": 4.694997395,
				"element": "C" 
			},
			{
				"x": 1.3655021267,
				"y": -1.429156286,
				"z": 5.4908967682,
				"element": "O" 
			},
			{
				"x": 2.2148426557,
				"y": -1.1818703865,
				"z": 3.404010843,
				"element": "O" 
			},
			{
				"x": 1.5213127235,
				"y": -2.3821063212,
				"z": 2.9572224699,
				"element": "C" 
			},
			{
				"x": 2.2695199446,
				"y": -2.8739010445,
				"z": 1.7217442076,
				"element": "C" 
			},
			{
				"x": 2.1319440089,
				"y": -1.8982081392,
				"z": 0.5433802828,
				"element": "C" 
			},
			{
				"x": 0.6611564415,
				"y": -1.5602631441,
				"z": 0.1497579119,
				"element": "C" 
			},
			{
				"x": -0.0044570038,
				"y": -2.8105172849,
				"z": -0.476238719,
				"element": "C" 
			},
			{
				"x": 0.6704823921,
				"y": -0.3553392361,
				"z": -0.8403103385,
				"element": "C" 
			},
			{
				"x": 1.2453891585,
				"y": -0.6224118317,
				"z": -2.2425993184,
				"element": "C" 
			},
			{
				"x": 1.5095268424,
				"y": 0.696791995,
				"z": -3.0206845425,
				"element": "C" 
			},
			{
				"x": 0.4672314542,
				"y": 1.8155942721,
				"z": -2.7229255908,
				"element": "C" 
			},
			{
				"x": 1.0439841663,
				"y": 2.8458034979,
				"z": -1.7259955392,
				"element": "C" 
			},
			{
				"x": -0.8511518883,
				"y": 1.1534257515,
				"z": -2.2316496547,
				"element": "C" 
			},
			{
				"x": -1.9047678774,
				"y": 2.2689842444,
				"z": -2.3108960645,
				"element": "C" 
			},
			{
				"x": -1.486360901,
				"y": 3.0936393027,
				"z": -3.560824271,
				"element": "C" 
			},
			{
				"x": -0.0889757658,
				"y": 2.5693998108,
				"z": -3.9934888547,
				"element": "C" 
			},
			{
				"x": 0.8275373135,
				"y": 3.6652812254,
				"z": -4.5349922336,
				"element": "C" 
			},
			{
				"x": 1.923687967,
				"y": 3.2402474634,
				"z": -5.4974427158,
				"element": "C" 
			},
			{
				"x": 0.6994087461,
				"y": 4.833104351,
				"z": -4.2107144497,
				"element": "O" 
			},
			{
				"x": -0.737430278,
				"y": 0.2865523057,
				"z": -0.9540409574,
				"element": "C" 
			},
			{
				"x": -1.0884584441,
				"y": 0.9398954949,
				"z": 0.3879006736,
				"element": "C" 
			},
			{
				"x": -0.811693971,
				"y": -0.0166888882,
				"z": 1.5202276051,
				"element": "C" 
			},
			{
				"x": -0.0855653888,
				"y": -1.1406887036,
				"z": 1.4269995075,
				"element": "C" 
			},
			{
				"x": 0.059114276,
				"y": -2.0581889929,
				"z": 2.6237982622,
				"element": "C" 
			},
			{
				"x": 2.702797257,
				"y": 0.6972640156,
				"z": 6.0526095059,
				"element": "H" 
			},
			{
				"x": 2.4498751188,
				"y": 1.2655469131,
				"z": 4.3769206077,
				"element": "H" 
			},
			{
				"x": 3.8781149904,
				"y": 0.3069389133,
				"z": 4.7607433022,
				"element": "H" 
			},
			{
				"x": 1.5634827575,
				"y": -3.1103828708,
				"z": 3.771631575,
				"element": "H" 
			},
			{
				"x": 3.3278020761,
				"y": -3.014996658,
				"z": 1.9679777679,
				"element": "H" 
			},
			{
				"x": 1.8740067149,
				"y": -3.8624221395,
				"z": 1.4586054293,
				"element": "H" 
			},
			{
				"x": 2.6410137914,
				"y": -0.9658752371,
				"z": 0.8136303692,
				"element": "H" 
			},
			{
				"x": 2.6592482032,
				"y": -2.308123929,
				"z": -0.325603692,
				"element": "H" 
			},
			{
				"x": 0.5724915062,
				"y": -3.1732759088,
				"z": -1.3334020575,
				"element": "H" 
			},
			{
				"x": -1.0213030765,
				"y": -2.5968901184,
				"z": -0.8178286047,
				"element": "H" 
			},
			{
				"x": -0.0748606149,
				"y": -3.6347662474,
				"z": 0.2387544423,
				"element": "H" 
			},
			{
				"x": 1.3258879359,
				"y": 0.3872355067,
				"z": -0.3650612019,
				"element": "H" 
			},
			{
				"x": 2.1806401601,
				"y": -1.1894702057,
				"z": -2.1867966383,
				"element": "H" 
			},
			{
				"x": 0.5454667402,
				"y": -1.2487402727,
				"z": -2.809474875,
				"element": "H" 
			},
			{
				"x": 1.5218095879,
				"y": 0.4645312247,
				"z": -4.0925017005,
				"element": "H" 
			},
			{
				"x": 2.5149767633,
				"y": 1.0607583171,
				"z": -2.7761549836,
				"element": "H" 
			},
			{
				"x": 0.3437064671,
				"y": 3.6585442485,
				"z": -1.5165966871,
				"element": "H" 
			},
			{
				"x": 1.9498207167,
				"y": 3.3070804228,
				"z": -2.1329425603,
				"element": "H" 
			},
			{
				"x": 1.3184302514,
				"y": 2.3824081929,
				"z": -0.7764567564,
				"element": "H" 
			},
			{
				"x": -1.1072615792,
				"y": 0.4483746691,
				"z": -3.0366495307,
				"element": "H" 
			},
			{
				"x": -1.8870865204,
				"y": 2.8946119544,
				"z": -1.4128356866,
				"element": "H" 
			},
			{
				"x": -2.920811992,
				"y": 1.8697044348,
				"z": -2.3950590019,
				"element": "H" 
			},
			{
				"x": -2.2030152476,
				"y": 2.979828815,
				"z": -4.3800092065,
				"element": "H" 
			},
			{
				"x": -1.4206217304,
				"y": 4.1612295972,
				"z": -3.3398405354,
				"element": "H" 
			},
			{
				"x": -0.201455646,
				"y": 1.8115462253,
				"z": -4.779613325,
				"element": "H" 
			},
			{
				"x": 2.5490522029,
				"y": 4.0985195861,
				"z": -5.7476457353,
				"element": "H" 
			},
			{
				"x": 1.4795416935,
				"y": 2.8324079805,
				"z": -6.4135636343,
				"element": "H" 
			},
			{
				"x": 2.5391816758,
				"y": 2.444314181,
				"z": -5.0642399316,
				"element": "H" 
			},
			{
				"x": -1.4606569144,
				"y": -0.5309030763,
				"z": -1.0811401713,
				"element": "H" 
			},
			{
				"x": -0.5267839758,
				"y": 1.8733504944,
				"z": 0.5396079731,
				"element": "H" 
			},
			{
				"x": -2.1476392809,
				"y": 1.2289330138,
				"z": 0.4104561056,
				"element": "H" 
			},
			{
				"x": -1.2662271091,
				"y": 0.2259171875,
				"z": 2.4808983351,
				"element": "H" 
			},
			{
				"x": -0.4299379445,
				"y": -1.6312334034,
				"z": 3.5032533822,
				"element": "H" 
			},
			{
				"x": -0.4384913022,
				"y": -3.0194328009,
				"z": 2.4284323063,
				"element": "H" 
			}
		],
		 "valence_orbital": [ 
			{
				"type": "occ",
				"energy": -0.28014,
				"method": "rhf"
			},
			{
				"type": "occ",
				"energy": -0.27632,
				"method": "rhf"
			},
			{
				"type": "occ",
				"energy": -0.2655,
				"method": "rhf"
			},
			{
				"type": "occ",
				"energy": -0.23858,
				"method": "rhf"
			},
			{
				"type": "occ",
				"energy": -0.23193,
				"method": "rhf"
			},
			{
				"type": "unocc",
				"energy": -0.01227,
				"method": "rhf"
			},
			{
				"type": "unocc",
				"energy": 0.01635,
				"method": "rhf"
			},
			{
				"type": "unocc",
				"energy": 0.02461,
				"method": "rhf"
			},
			{
				"type": "unocc",
				"energy": 0.06613,
				"method": "rhf"
			},
			{
				"type": "unocc",
				"energy": 0.07881,
				"method": "rhf"
			}
		],
		"cosmo_sigma_profile": { 
			"-0.025": 0.0,
			"-0.024": 0.0,
			"-0.023": 0.0,
			"-0.022": 0.0,
			"-0.021": 0.0,
			"-0.02": 0.0,
			"-0.019": 0.0,
			"-0.018": 0.0,
			"-0.017": 0.0,
			"-0.016": 0.0,
			"-0.015": 0.0,
			"-0.014": 0.0,
			"-0.013": 0.0,
			"-0.012": 0.0,
			"-0.011": 0.0,
			"-0.01": 0.0,
			"-0.009": 0.0,
			"-0.008": 0.0,
			"-0.007": 0.448781794216,
			"-0.006": 5.68123456272,
			"-0.005": 13.0302709233,
			"-0.004": 27.9941963423,
			"-0.003": 46.4924427655,
			"-0.002": 70.3393122526,
			"-0.001": 69.9168515214,
			"0.0": 54.1198967797,
			"0.001": 35.0316291258,
			"0.002": 17.5213643504,
			"0.003": 8.64207558829,
			"0.004": 7.18407744807,
			"0.005": 7.89724190804,
			"0.006": 6.7682774536,
			"0.007": 6.80111455413,
			"0.008": 3.90850867691,
			"0.009": 2.62819838284,
			"0.01": 4.40023111982,
			"0.011": 4.38075521676,
			"0.012": 8.09647712984,
			"0.013": 4.8128526021,
			"0.014": 0.593192103518,
			"0.015": 0.0,
			"0.016": 0.0,
			"0.017": 0.0,
			"0.018": 0.0,
			"0.019": 0.0,
			"0.02": 0.0,
			"0.021": 0.0,
			"0.022": 0.0,
			"0.023": 0.0,
			"0.024": 0.0,
			"0.025": 0.0
		}
	}
}
