{
	 "smiles": "ClC1=CC(=NC(=C1)C1=CC=CC=N1)C1=CC=CC=N1", 
	 "Tm": 423.15, 
	 "num_atms": 29, 
	 "gaussian": { 
		 "optdone": 1, 
		 "sigma_profile": "yes", 
		 "theory": "DFT", 
		 "functional": "B3LYP", 
		 "basiset": "6-31G**", 
		 "properties": { 
			 "R2extent": 8878.102, 
			 "electric_dipole_moment_norm": 4.02575495901, 
			 "electric_quadrupole_moment_norm": 18.9068532871, 
			 "total_energy": -1202.08105937, 
			 "HOMO_LUMO_gap": 0.17489, 
			 "cosmo_polarized_energy": -8.7, 
			 "cosmo_cavitation_energy": 36.11, 
			 "cosmo_dispersion_energy": -26.52, 
			 "cosmo_repulsion_energy": 2.01, 
			 "cosmo_total_nonelectrostatic_energy": 11.6, 
			 "SMD_solvation_energy": 3.11 
		},
		"coords": [
			{
				"x": -2.3413873197,
				"y": -2.8823193738,
				"z": -4.2793248209,
				"element": "Cl" 
			},
			{
				"x": -1.4444083928,
				"y": -1.7127583427,
				"z": -3.3308236472,
				"element": "C" 
			},
			{
				"x": -2.1073061585,
				"y": -0.9399724289,
				"z": -2.3850656909,
				"element": "C" 
			},
			{
				"x": -1.345413723,
				"y": -0.0186918191,
				"z": -1.6518853011,
				"element": "C" 
			},
			{
				"x": -0.0256051176,
				"y": 0.1371367654,
				"z": -1.8305444295,
				"element": "N" 
			},
			{
				"x": 0.5954109582,
				"y": -0.6181499902,
				"z": -2.748136247,
				"element": "C" 
			},
			{
				"x": -0.0771026026,
				"y": -1.5671017193,
				"z": -3.5317106866,
				"element": "C" 
			},
			{
				"x": 2.0635659757,
				"y": -0.4194997505,
				"z": -2.9216567453,
				"element": "C" 
			},
			{
				"x": 2.7604119665,
				"y": 0.522590007,
				"z": -2.1522041298,
				"element": "C" 
			},
			{
				"x": 4.1299651982,
				"y": 0.6695647787,
				"z": -2.3525767845,
				"element": "C" 
			},
			{
				"x": 4.7626734123,
				"y": -0.1230755102,
				"z": -3.3097486612,
				"element": "C" 
			},
			{
				"x": 3.9836600713,
				"y": -1.0338414071,
				"z": -4.0268602022,
				"element": "C" 
			},
			{
				"x": 2.6703742137,
				"y": -1.185487745,
				"z": -3.8455050305,
				"element": "N" 
			},
			{
				"x": -2.0049766541,
				"y": 0.8369619441,
				"z": -0.6233380562,
				"element": "C" 
			},
			{
				"x": -1.2671551212,
				"y": 1.7653346933,
				"z": 0.1242825561,
				"element": "C" 
			},
			{
				"x": -1.9299327821,
				"y": 2.5398772845,
				"z": 1.0720360512,
				"element": "C" 
			},
			{
				"x": -3.3027659852,
				"y": 2.3676268498,
				"z": 1.2465164301,
				"element": "C" 
			},
			{
				"x": -3.9510674761,
				"y": 1.4175212126,
				"z": 0.4543125175,
				"element": "C" 
			},
			{
				"x": -3.3288121831,
				"y": 0.668159034,
				"z": -0.4577514727,
				"element": "N" 
			},
			{
				"x": -3.169941431,
				"y": -1.0269256531,
				"z": -2.2025218915,
				"element": "H" 
			},
			{
				"x": 0.4706075592,
				"y": -2.151527372,
				"z": -4.2587174984,
				"element": "H" 
			},
			{
				"x": 2.2209893778,
				"y": 1.1128054057,
				"z": -1.4221595245,
				"element": "H" 
			},
			{
				"x": 4.6947580565,
				"y": 1.3920629706,
				"z": -1.7702072209,
				"element": "H" 
			},
			{
				"x": 5.828193689,
				"y": -0.0420709345,
				"z": -3.4991528321,
				"element": "H" 
			},
			{
				"x": 4.4388617068,
				"y": -1.6713267189,
				"z": -4.78307448,
				"element": "H" 
			},
			{
				"x": -0.2028150653,
				"y": 1.8594382471,
				"z": -0.0506927743,
				"element": "H" 
			},
			{
				"x": -1.3828569917,
				"y": 3.2669970915,
				"z": 1.6654624668,
				"element": "H" 
			},
			{
				"x": -3.8597328036,
				"y": 2.9497028101,
				"z": 1.9736638601,
				"element": "H" 
			},
			{
				"x": -5.0220923774,
				"y": 1.2521696711,
				"z": 0.5592842457,
				"element": "H" 
			}
		],
		 "valence_orbital": [ 
			{
				"type": "occ",
				"energy": -0.27544,
				"method": "rhf"
			},
			{
				"type": "occ",
				"energy": -0.26071,
				"method": "rhf"
			},
			{
				"type": "occ",
				"energy": -0.25676,
				"method": "rhf"
			},
			{
				"type": "occ",
				"energy": -0.25545,
				"method": "rhf"
			},
			{
				"type": "occ",
				"energy": -0.23472,
				"method": "rhf"
			},
			{
				"type": "unocc",
				"energy": -0.05983,
				"method": "rhf"
			},
			{
				"type": "unocc",
				"energy": -0.05526,
				"method": "rhf"
			},
			{
				"type": "unocc",
				"energy": -0.02631,
				"method": "rhf"
			},
			{
				"type": "unocc",
				"energy": -0.02098,
				"method": "rhf"
			},
			{
				"type": "unocc",
				"energy": 0.00823,
				"method": "rhf"
			}
		],
		"cosmo_sigma_profile": { 
			"-0.025": 0.0,
			"-0.024": 0.0,
			"-0.023": 0.0,
			"-0.022": 0.0,
			"-0.021": 0.0,
			"-0.02": 0.0,
			"-0.019": 0.0,
			"-0.018": 0.0,
			"-0.017": 0.0,
			"-0.016": 0.0,
			"-0.015": 0.0,
			"-0.014": 0.0,
			"-0.013": 0.0,
			"-0.012": 0.0,
			"-0.011": 0.0,
			"-0.01": 0.0,
			"-0.009": 0.0,
			"-0.008": 0.624963802522,
			"-0.007": 9.6138516205,
			"-0.006": 17.6897622293,
			"-0.005": 19.9130285526,
			"-0.004": 15.2095495039,
			"-0.003": 14.144538978,
			"-0.002": 15.9497088422,
			"-0.001": 17.1859347992,
			"0.0": 37.5693568625,
			"0.001": 40.4461549934,
			"0.002": 42.5341920404,
			"0.003": 22.9972708753,
			"0.004": 17.1231820346,
			"0.005": 6.8466668067,
			"0.006": 3.89786475918,
			"0.007": 3.95223615486,
			"0.008": 2.99531651953,
			"0.009": 2.29412960011,
			"0.01": 1.88935829838,
			"0.011": 1.83402271275,
			"0.012": 0.0,
			"0.013": 0.0,
			"0.014": 0.0,
			"0.015": 0.0,
			"0.016": 0.0,
			"0.017": 0.0,
			"0.018": 0.0,
			"0.019": 0.0,
			"0.02": 0.0,
			"0.021": 0.0,
			"0.022": 0.0,
			"0.023": 0.0,
			"0.024": 0.0,
			"0.025": 0.0
		}
	}
}
