{
	 "smiles": "O=C1CCCC1=C1C(=O)NC2=CC=CC=C12", 
	 "Tm": 540.15, 
	 "num_atms": 27, 
	 "gaussian": { 
		 "optdone": 1, 
		 "sigma_profile": "yes", 
		 "theory": "DFT", 
		 "functional": "B3LYP", 
		 "basiset": "6-31G**", 
		 "properties": { 
			 "R2extent": 4472.8859, 
			 "electric_dipole_moment_norm": 5.09131554119, 
			 "electric_quadrupole_moment_norm": 24.0480544974, 
			 "total_energy": -707.21176612, 
			 "HOMO_LUMO_gap": 0.12457, 
			 "cosmo_polarized_energy": -19.0, 
			 "cosmo_cavitation_energy": 30.29, 
			 "cosmo_dispersion_energy": -22.55, 
			 "cosmo_repulsion_energy": 1.74, 
			 "cosmo_total_nonelectrostatic_energy": 9.48, 
			 "SMD_solvation_energy": 5.48 
		},
		"coords": [
			{
				"x": 0.8327933392,
				"y": -2.5439021092,
				"z": 1.7261843129,
				"element": "O" 
			},
			{
				"x": 0.6569299867,
				"y": -1.3589299846,
				"z": 1.5425153617,
				"element": "C" 
			},
			{
				"x": 0.6504296172,
				"y": -0.3033220985,
				"z": 2.6573201868,
				"element": "C" 
			},
			{
				"x": 0.5876774197,
				"y": 1.0475337691,
				"z": 1.9374945154,
				"element": "C" 
			},
			{
				"x": -0.1481830201,
				"y": 0.7406770853,
				"z": 0.6103274335,
				"element": "C" 
			},
			{
				"x": 0.2815261829,
				"y": -0.665955812,
				"z": 0.2511751684,
				"element": "C" 
			},
			{
				"x": 0.2922209366,
				"y": -1.1799566929,
				"z": -1.0071718822,
				"element": "C" 
			},
			{
				"x": 0.9834962683,
				"y": -2.4697512279,
				"z": -1.4467272412,
				"element": "C" 
			},
			{
				"x": 1.6545844649,
				"y": -3.2650678981,
				"z": -0.8246118801,
				"element": "O" 
			},
			{
				"x": 0.7623129375,
				"y": -2.5469374459,
				"z": -2.8229956588,
				"element": "N" 
			},
			{
				"x": 0.0410208046,
				"y": -1.4650727331,
				"z": -3.3078650163,
				"element": "C" 
			},
			{
				"x": -0.3720282935,
				"y": -1.2119906783,
				"z": -4.6100306559,
				"element": "C" 
			},
			{
				"x": -1.1219568538,
				"y": -0.0540080425,
				"z": -4.8446353014,
				"element": "C" 
			},
			{
				"x": -1.4585290949,
				"y": 0.8107019955,
				"z": -3.7998721803,
				"element": "C" 
			},
			{
				"x": -1.039599112,
				"y": 0.5425309872,
				"z": -2.4927035113,
				"element": "C" 
			},
			{
				"x": -0.264044956,
				"y": -0.5925970203,
				"z": -2.2327753454,
				"element": "C" 
			},
			{
				"x": -0.2446121283,
				"y": -0.477739003,
				"z": 3.2693847549,
				"element": "H" 
			},
			{
				"x": 1.5152661352,
				"y": -0.4385213561,
				"z": 3.3120586122,
				"element": "H" 
			},
			{
				"x": 1.5999480203,
				"y": 1.4026313952,
				"z": 1.7152798339,
				"element": "H" 
			},
			{
				"x": 0.0870571626,
				"y": 1.8277042545,
				"z": 2.516681066,
				"element": "H" 
			},
			{
				"x": 0.0946475802,
				"y": 1.4632817599,
				"z": -0.1729190397,
				"element": "H" 
			},
			{
				"x": -1.2373361428,
				"y": 0.7841202997,
				"z": 0.7632959627,
				"element": "H" 
			},
			{
				"x": 1.1558333124,
				"y": -3.2937829218,
				"z": -3.3746165195,
				"element": "H" 
			},
			{
				"x": -0.1254054436,
				"y": -1.8930712577,
				"z": -5.4186961133,
				"element": "H" 
			},
			{
				"x": -1.4540399723,
				"y": 0.1668802764,
				"z": -5.8548537985,
				"element": "H" 
			},
			{
				"x": -2.0548408793,
				"y": 1.6949370278,
				"z": -4.0009108106,
				"element": "H" 
			},
			{
				"x": -1.3327682719,
				"y": 1.2128074313,
				"z": -1.694632254,
				"element": "H" 
			}
		],
		 "valence_orbital": [ 
			{
				"type": "occ",
				"energy": -0.30078,
				"method": "rhf"
			},
			{
				"type": "occ",
				"energy": -0.2657,
				"method": "rhf"
			},
			{
				"type": "occ",
				"energy": -0.24741,
				"method": "rhf"
			},
			{
				"type": "occ",
				"energy": -0.2279,
				"method": "rhf"
			},
			{
				"type": "occ",
				"energy": -0.21625,
				"method": "rhf"
			},
			{
				"type": "unocc",
				"energy": -0.09168,
				"method": "rhf"
			},
			{
				"type": "unocc",
				"energy": -0.01024,
				"method": "rhf"
			},
			{
				"type": "unocc",
				"energy": 0.00873,
				"method": "rhf"
			},
			{
				"type": "unocc",
				"energy": 0.03282,
				"method": "rhf"
			},
			{
				"type": "unocc",
				"energy": 0.08188,
				"method": "rhf"
			}
		],
		"cosmo_sigma_profile": { 
			"-0.025": 0.0,
			"-0.024": 0.0,
			"-0.023": 0.0,
			"-0.022": 0.0,
			"-0.021": 0.0,
			"-0.02": 0.0,
			"-0.019": 0.0,
			"-0.018": 0.0,
			"-0.017": 0.0,
			"-0.016": 0.414362361834,
			"-0.015": 1.57947423646,
			"-0.014": 1.14333011271,
			"-0.013": 0.855686124401,
			"-0.012": 1.25480675662,
			"-0.011": 1.18615611105,
			"-0.01": 1.32409245665,
			"-0.009": 0.649947009505,
			"-0.008": 1.37297766415,
			"-0.007": 3.38114601546,
			"-0.006": 12.9869290566,
			"-0.005": 20.7587075081,
			"-0.004": 25.0224479502,
			"-0.003": 23.2375772129,
			"-0.002": 20.226675374,
			"-0.001": 18.4198063912,
			"0.0": 16.9075754536,
			"0.001": 13.9001721618,
			"0.002": 11.4795127621,
			"0.003": 9.99221214905,
			"0.004": 12.2217611127,
			"0.005": 7.93092171569,
			"0.006": 2.59116986901,
			"0.007": 2.79692877444,
			"0.008": 1.46044931736,
			"0.009": 2.86774336839,
			"0.01": 3.02277407935,
			"0.011": 3.72386351197,
			"0.012": 6.27005745601,
			"0.013": 6.60782464359,
			"0.014": 2.33054956698,
			"0.015": 1.68939799692,
			"0.016": 1.52799908259,
			"0.017": 0.458378101637,
			"0.018": 0.0,
			"0.019": 0.0,
			"0.02": 0.0,
			"0.021": 0.0,
			"0.022": 0.0,
			"0.023": 0.0,
			"0.024": 0.0,
			"0.025": 0.0
		}
	}
}
