{
	 "smiles": "SC1=CC=C(Br)C=C1", 
	 "Tm": 347.15, 
	 "num_atms": 13, 
	 "gaussian": { 
		 "optdone": 1, 
		 "sigma_profile": "yes", 
		 "theory": "DFT", 
		 "functional": "B3LYP", 
		 "basiset": "6-31G**", 
		 "properties": { 
			 "R2extent": 2980.093, 
			 "electric_dipole_moment_norm": 1.34924398831, 
			 "electric_quadrupole_moment_norm": 9.81558563561, 
			 "total_energy": -3201.23867785, 
			 "HOMO_LUMO_gap": 0.20217, 
			 "cosmo_polarized_energy": -6.16, 
			 "cosmo_cavitation_energy": 21.07, 
			 "cosmo_dispersion_energy": -16.7, 
			 "cosmo_repulsion_energy": 1.33, 
			 "cosmo_total_nonelectrostatic_energy": 5.7, 
			 "SMD_solvation_energy": 1.97 
		},
		"coords": [
			{
				"x": -2.2086589777,
				"y": 1.3395483254,
				"z": 2.9936373785,
				"element": "S" 
			},
			{
				"x": -1.8274136616,
				"y": 0.6855619836,
				"z": 1.3764094836,
				"element": "C" 
			},
			{
				"x": -2.3907219983,
				"y": 1.1903603543,
				"z": 0.1977469218,
				"element": "C" 
			},
			{
				"x": -2.0554866844,
				"y": 0.6394379961,
				"z": -1.0388878623,
				"element": "C" 
			},
			{
				"x": -1.1535066954,
				"y": -0.4203328939,
				"z": -1.0975615985,
				"element": "C" 
			},
			{
				"x": -0.6925809366,
				"y": -1.1766700105,
				"z": -2.7905088296,
				"element": "Br" 
			},
			{
				"x": -0.5835282236,
				"y": -0.9348855387,
				"z": 0.0658390938,
				"element": "C" 
			},
			{
				"x": -0.9214596646,
				"y": -0.3813220586,
				"z": 1.2988926051,
				"element": "C" 
			},
			{
				"x": -3.070576104,
				"y": 2.2894272928,
				"z": 2.5844446288,
				"element": "H" 
			},
			{
				"x": -3.0948284627,
				"y": 2.016377656,
				"z": 0.2334816217,
				"element": "H" 
			},
			{
				"x": -2.4948227308,
				"y": 1.0344564964,
				"z": -1.9478927331,
				"element": "H" 
			},
			{
				"x": 0.1176790488,
				"y": -1.7598700744,
				"z": 0.0119716358,
				"element": "H" 
			},
			{
				"x": -0.4751949092,
				"y": -0.7850895286,
				"z": 2.2029276544,
				"element": "H" 
			}
		],
		 "valence_orbital": [ 
			{
				"type": "occ",
				"energy": -0.33469,
				"method": "rhf"
			},
			{
				"type": "occ",
				"energy": -0.28914,
				"method": "rhf"
			},
			{
				"type": "occ",
				"energy": -0.28077,
				"method": "rhf"
			},
			{
				"type": "occ",
				"energy": -0.27071,
				"method": "rhf"
			},
			{
				"type": "occ",
				"energy": -0.22297,
				"method": "rhf"
			},
			{
				"type": "unocc",
				"energy": -0.0208,
				"method": "rhf"
			},
			{
				"type": "unocc",
				"energy": -0.0182,
				"method": "rhf"
			},
			{
				"type": "unocc",
				"energy": -0.00314,
				"method": "rhf"
			},
			{
				"type": "unocc",
				"energy": 0.01775,
				"method": "rhf"
			},
			{
				"type": "unocc",
				"energy": 0.06305,
				"method": "rhf"
			}
		],
		"cosmo_sigma_profile": { 
			"-0.025": 0.0,
			"-0.024": 0.0,
			"-0.023": 0.0,
			"-0.022": 0.0,
			"-0.021": 0.0,
			"-0.02": 0.0,
			"-0.019": 0.0,
			"-0.018": 0.0,
			"-0.017": 0.0,
			"-0.016": 0.0,
			"-0.015": 0.0,
			"-0.014": 0.0,
			"-0.013": 0.0,
			"-0.012": 0.0,
			"-0.011": 2.15127576058,
			"-0.01": 2.67719911641,
			"-0.009": 2.06107028915,
			"-0.008": 2.80316831121,
			"-0.007": 8.52315935785,
			"-0.006": 9.40610263662,
			"-0.005": 8.43482778572,
			"-0.004": 7.51285923173,
			"-0.003": 7.82525140392,
			"-0.002": 8.45565933598,
			"-0.001": 9.84281891075,
			"0.0": 9.33020935161,
			"0.001": 12.2954525067,
			"0.002": 17.6021391605,
			"0.003": 24.8124660429,
			"0.004": 21.3872610054,
			"0.005": 11.0653757861,
			"0.006": 2.91002503153,
			"0.007": 2.84463228181,
			"0.008": 2.40690082237,
			"0.009": 0.665993119177,
			"0.01": 0.0,
			"0.011": 0.0,
			"0.012": 0.0,
			"0.013": 0.0,
			"0.014": 0.0,
			"0.015": 0.0,
			"0.016": 0.0,
			"0.017": 0.0,
			"0.018": 0.0,
			"0.019": 0.0,
			"0.02": 0.0,
			"0.021": 0.0,
			"0.022": 0.0,
			"0.023": 0.0,
			"0.024": 0.0,
			"0.025": 0.0
		}
	}
}
