{
	 "smiles": "NS(=O)(=O)CC(O)=O", 
	 "Tm": 393.15, 
	 "num_atms": 13, 
	 "gaussian": { 
		 "optdone": 1, 
		 "sigma_profile": "yes", 
		 "theory": "DFT", 
		 "functional": "B3LYP", 
		 "basiset": "6-31G**", 
		 "properties": { 
			 "R2extent": 2465.4944, 
			 "electric_dipole_moment_norm": 5.29677950173, 
			 "electric_quadrupole_moment_norm": 20.6503726724, 
			 "total_energy": -833.002927397, 
			 "HOMO_LUMO_gap": 0.2675, 
			 "cosmo_polarized_energy": -20.96, 
			 "cosmo_cavitation_energy": 18.82, 
			 "cosmo_dispersion_energy": -14.74, 
			 "cosmo_repulsion_energy": 1.2, 
			 "cosmo_total_nonelectrostatic_energy": 5.27, 
			 "SMD_solvation_energy": 4.03 
		},
		"coords": [
			{
				"x": -2.5446159339,
				"y": 0.0138062747,
				"z": 2.2633529048,
				"element": "N" 
			},
			{
				"x": -1.1841549738,
				"y": -0.3809507454,
				"z": 3.1439195306,
				"element": "S" 
			},
			{
				"x": -0.9104731572,
				"y": -1.7988095732,
				"z": 2.9366439175,
				"element": "O" 
			},
			{
				"x": -1.3528298484,
				"y": 0.2065684569,
				"z": 4.4707521234,
				"element": "O" 
			},
			{
				"x": 0.2081520066,
				"y": 0.5198542108,
				"z": 2.3589207744,
				"element": "C" 
			},
			{
				"x": 0.3819612409,
				"y": 0.1327078617,
				"z": 0.9055613662,
				"element": "C" 
			},
			{
				"x": 1.6704880413,
				"y": -0.0758017137,
				"z": 0.596368645,
				"element": "O" 
			},
			{
				"x": -0.5223735415,
				"y": 0.0373408548,
				"z": 0.1002055425,
				"element": "O" 
			},
			{
				"x": -2.3920752312,
				"y": -0.1201974064,
				"z": 1.2643900405,
				"element": "H" 
			},
			{
				"x": -2.8849932117,
				"y": 0.941974912,
				"z": 2.4946532744,
				"element": "H" 
			},
			{
				"x": -0.0058530024,
				"y": 1.5893444561,
				"z": 2.4378553816,
				"element": "H" 
			},
			{
				"x": 1.0972069336,
				"y": 0.28760376,
				"z": 2.9467608541,
				"element": "H" 
			},
			{
				"x": 1.7011606777,
				"y": -0.315441348,
				"z": -0.3465843552,
				"element": "H" 
			}
		],
		 "valence_orbital": [ 
			{
				"type": "occ",
				"energy": -0.3275,
				"method": "rhf"
			},
			{
				"type": "occ",
				"energy": -0.32487,
				"method": "rhf"
			},
			{
				"type": "occ",
				"energy": -0.31298,
				"method": "rhf"
			},
			{
				"type": "occ",
				"energy": -0.30851,
				"method": "rhf"
			},
			{
				"type": "occ",
				"energy": -0.30311,
				"method": "rhf"
			},
			{
				"type": "unocc",
				"energy": -0.03561,
				"method": "rhf"
			},
			{
				"type": "unocc",
				"energy": 0.04442,
				"method": "rhf"
			},
			{
				"type": "unocc",
				"energy": 0.05979,
				"method": "rhf"
			},
			{
				"type": "unocc",
				"energy": 0.07208,
				"method": "rhf"
			},
			{
				"type": "unocc",
				"energy": 0.08588,
				"method": "rhf"
			}
		],
		"cosmo_sigma_profile": { 
			"-0.025": 0.0,
			"-0.024": 0.0,
			"-0.023": 0.0,
			"-0.022": 0.0,
			"-0.021": 0.0,
			"-0.02": 0.294635384893,
			"-0.019": 0.778318717489,
			"-0.018": 1.17056370631,
			"-0.017": 0.860952528951,
			"-0.016": 0.933837131803,
			"-0.015": 2.61674996959,
			"-0.014": 2.73106851198,
			"-0.013": 2.26766124511,
			"-0.012": 2.78500485672,
			"-0.011": 5.15136132715,
			"-0.01": 6.43201210891,
			"-0.009": 5.01091296149,
			"-0.008": 5.5706095827,
			"-0.007": 5.00572939788,
			"-0.006": 4.86108959532,
			"-0.005": 4.6294198678,
			"-0.004": 4.22325290776,
			"-0.003": 3.91405076723,
			"-0.002": 4.63370559204,
			"-0.001": 4.052497635,
			"0.0": 4.36544057114,
			"0.001": 5.12583262943,
			"0.002": 5.37752197596,
			"0.003": 3.90625512817,
			"0.004": 4.37339845595,
			"0.005": 5.07522896201,
			"0.006": 6.7540271346,
			"0.007": 6.58396587982,
			"0.008": 6.17534595356,
			"0.009": 6.60792389833,
			"0.01": 12.8074437351,
			"0.011": 11.6018708973,
			"0.012": 2.09418391369,
			"0.013": 0.108040824784,
			"0.014": 0.0,
			"0.015": 0.0,
			"0.016": 0.0,
			"0.017": 0.0,
			"0.018": 0.0,
			"0.019": 0.0,
			"0.02": 0.0,
			"0.021": 0.0,
			"0.022": 0.0,
			"0.023": 0.0,
			"0.024": 0.0,
			"0.025": 0.0
		}
	}
}
