{
	 "smiles": "COC(C)(C)OC", 
	 "Tm": 226.15, 
	 "num_atms": 19, 
	 "gaussian": { 
		 "optdone": 1, 
		 "sigma_profile": "yes", 
		 "theory": "DFT", 
		 "functional": "B3LYP", 
		 "basiset": "6-31G**", 
		 "properties": { 
			 "R2extent": 1174.6532, 
			 "electric_dipole_moment_norm": 0.165410942806, 
			 "electric_quadrupole_moment_norm": 4.25972628463, 
			 "total_energy": -348.198408652, 
			 "HOMO_LUMO_gap": 0.34653, 
			 "cosmo_polarized_energy": -4.65, 
			 "cosmo_cavitation_energy": 20.56, 
			 "cosmo_dispersion_energy": -14.91, 
			 "cosmo_repulsion_energy": 1.25, 
			 "cosmo_total_nonelectrostatic_energy": 6.9, 
			 "SMD_solvation_energy": 4.7 
		},
		"coords": [
			{
				"x": 2.2804330012,
				"y": 1.7163836714,
				"z": 0.0928766232,
				"element": "C" 
			},
			{
				"x": 0.8686588372,
				"y": 1.8753448447,
				"z": 0.1006527351,
				"element": "O" 
			},
			{
				"x": 0.1648966267,
				"y": 1.3141350546,
				"z": -1.0022487207,
				"element": "C" 
			},
			{
				"x": 0.6688068497,
				"y": 1.8339790431,
				"z": -2.3509135888,
				"element": "C" 
			},
			{
				"x": -1.2971581971,
				"y": 1.6985042296,
				"z": -0.7618044369,
				"element": "C" 
			},
			{
				"x": 0.359253293,
				"y": -0.094666428,
				"z": -1.0662658989,
				"element": "O" 
			},
			{
				"x": -0.0909658465,
				"y": -0.8434292051,
				"z": 0.0540550159,
				"element": "C" 
			},
			{
				"x": 2.6259100991,
				"y": 1.9674338905,
				"z": 1.0988769844,
				"element": "H" 
			},
			{
				"x": 2.7689739389,
				"y": 2.3927998024,
				"z": -0.6214763691,
				"element": "H" 
			},
			{
				"x": 2.5706386504,
				"y": 0.6853455514,
				"z": -0.140084818,
				"element": "H" 
			},
			{
				"x": 0.6777680001,
				"y": 2.9272216588,
				"z": -2.3541236839,
				"element": "H" 
			},
			{
				"x": 0.0142846516,
				"y": 1.4824616185,
				"z": -3.1523531501,
				"element": "H" 
			},
			{
				"x": 1.6760509905,
				"y": 1.4651641786,
				"z": -2.5574119876,
				"element": "H" 
			},
			{
				"x": -1.6129457759,
				"y": 1.4143908431,
				"z": 0.2445697128,
				"element": "H" 
			},
			{
				"x": -1.4168322308,
				"y": 2.7807054213,
				"z": -0.8556034495,
				"element": "H" 
			},
			{
				"x": -1.941954003,
				"y": 1.2055744199,
				"z": -1.4942956094,
				"element": "H" 
			},
			{
				"x": 0.2333882836,
				"y": -0.392743606,
				"z": 0.999140518,
				"element": "H" 
			},
			{
				"x": 0.3524033835,
				"y": -1.8379445916,
				"z": -0.0396555121,
				"element": "H" 
			},
			{
				"x": -1.1841105522,
				"y": -0.9499603975,
				"z": 0.0681656355,
				"element": "H" 
			}
		],
		 "valence_orbital": [ 
			{
				"type": "occ",
				"energy": -0.35435,
				"method": "rhf"
			},
			{
				"type": "occ",
				"energy": -0.34147,
				"method": "rhf"
			},
			{
				"type": "occ",
				"energy": -0.28707,
				"method": "rhf"
			},
			{
				"type": "occ",
				"energy": -0.26377,
				"method": "rhf"
			},
			{
				"type": "occ",
				"energy": -0.25645,
				"method": "rhf"
			},
			{
				"type": "unocc",
				"energy": 0.09008,
				"method": "rhf"
			},
			{
				"type": "unocc",
				"energy": 0.12217,
				"method": "rhf"
			},
			{
				"type": "unocc",
				"energy": 0.12648,
				"method": "rhf"
			},
			{
				"type": "unocc",
				"energy": 0.12698,
				"method": "rhf"
			},
			{
				"type": "unocc",
				"energy": 0.14118,
				"method": "rhf"
			}
		],
		"cosmo_sigma_profile": { 
			"-0.025": 0.0,
			"-0.024": 0.0,
			"-0.023": 0.0,
			"-0.022": 0.0,
			"-0.021": 0.0,
			"-0.02": 0.0,
			"-0.019": 0.0,
			"-0.018": 0.0,
			"-0.017": 0.0,
			"-0.016": 0.0,
			"-0.015": 0.0,
			"-0.014": 0.0,
			"-0.013": 0.0,
			"-0.012": 0.0,
			"-0.011": 0.0,
			"-0.01": 0.0,
			"-0.009": 0.0,
			"-0.008": 0.0,
			"-0.007": 0.0,
			"-0.006": 0.0,
			"-0.005": 2.39588167404,
			"-0.004": 12.9622791679,
			"-0.003": 26.8030320189,
			"-0.002": 29.5618865026,
			"-0.001": 23.742494138,
			"0.0": 19.3138113607,
			"0.001": 12.3567889975,
			"0.002": 3.6363813734,
			"0.003": 3.98743736171,
			"0.004": 3.3360279683,
			"0.005": 2.6412414653,
			"0.006": 2.47758652641,
			"0.007": 3.07856648839,
			"0.008": 2.54975913694,
			"0.009": 1.51310726384,
			"0.01": 1.67860868167,
			"0.011": 2.44408797234,
			"0.012": 2.51882896604,
			"0.013": 1.9495037273,
			"0.014": 0.0283247766974,
			"0.015": 0.0,
			"0.016": 0.0,
			"0.017": 0.0,
			"0.018": 0.0,
			"0.019": 0.0,
			"0.02": 0.0,
			"0.021": 0.0,
			"0.022": 0.0,
			"0.023": 0.0,
			"0.024": 0.0,
			"0.025": 0.0
		}
	}
}
