{
	 "smiles": "[O-][N+](=O)C1=C(F)C=CC(NS(=O)(=O)C2=CC3=C(OCCCO3)C=C2)=C1", 
	 "Tm": 419.15, 
	 "num_atms": 38, 
	 "gaussian": { 
		 "optdone": 1, 
		 "sigma_profile": "yes", 
		 "theory": "DFT", 
		 "functional": "B3LYP", 
		 "basiset": "6-31G**", 
		 "properties": { 
			 "R2extent": 10312.6857, 
			 "electric_dipole_moment_norm": 9.5984334451, 
			 "electric_quadrupole_moment_norm": 27.3333793827, 
			 "total_energy": -1638.09227925, 
			 "HOMO_LUMO_gap": 0.15183, 
			 "cosmo_polarized_energy": -24.65, 
			 "cosmo_cavitation_energy": 44.57, 
			 "cosmo_dispersion_energy": -31.23, 
			 "cosmo_repulsion_energy": 2.31, 
			 "cosmo_total_nonelectrostatic_energy": 15.65, 
			 "SMD_solvation_energy": 9.47 
		},
		"coords": [
			{
				"x": 0.0571622933,
				"y": 4.1991554952,
				"z": -0.5449981786,
				"element": "O" 
			},
			{
				"x": 0.8813975457,
				"y": 4.2669207373,
				"z": 0.367270183,
				"element": "N" 
			},
			{
				"x": 1.1064696399,
				"y": 5.2653844813,
				"z": 1.0444411927,
				"element": "O" 
			},
			{
				"x": 1.6569819353,
				"y": 3.0517249813,
				"z": 0.6553740759,
				"element": "C" 
			},
			{
				"x": 2.2882503521,
				"y": 2.8578297062,
				"z": 1.8894977976,
				"element": "C" 
			},
			{
				"x": 2.2002631747,
				"y": 3.7437904827,
				"z": 2.8850473353,
				"element": "F" 
			},
			{
				"x": 3.0035026053,
				"y": 1.6845926269,
				"z": 2.1084242265,
				"element": "C" 
			},
			{
				"x": 3.0812031304,
				"y": 0.7159312143,
				"z": 1.1145834379,
				"element": "C" 
			},
			{
				"x": 2.457613686,
				"y": 0.9104801238,
				"z": -0.129751471,
				"element": "C" 
			},
			{
				"x": 2.5937321892,
				"y": -0.0734346948,
				"z": -1.1294995114,
				"element": "N" 
			},
			{
				"x": 1.3822775485,
				"y": -0.5277100554,
				"z": -2.2437874249,
				"element": "S" 
			},
			{
				"x": 1.0025774475,
				"y": 0.677033067,
				"z": -2.9781913188,
				"element": "O" 
			},
			{
				"x": 1.9660561414,
				"y": -1.7002489226,
				"z": -2.8926839896,
				"element": "O" 
			},
			{
				"x": -0.0288624224,
				"y": -1.0409291636,
				"z": -1.2727264696,
				"element": "C" 
			},
			{
				"x": -0.0841734301,
				"y": -2.3559921647,
				"z": -0.808969834,
				"element": "C" 
			},
			{
				"x": -1.1693912969,
				"y": -2.7839007317,
				"z": -0.0430828827,
				"element": "C" 
			},
			{
				"x": -2.1988923515,
				"y": -1.8652628021,
				"z": 0.2693585373,
				"element": "C" 
			},
			{
				"x": -3.3403419593,
				"y": -2.2055417041,
				"z": 0.9381359915,
				"element": "O" 
			},
			{
				"x": -3.2294179133,
				"y": -2.8353057268,
				"z": 2.2215766843,
				"element": "C" 
			},
			{
				"x": -2.8112148716,
				"y": -4.2977876765,
				"z": 2.1446564274,
				"element": "C" 
			},
			{
				"x": -1.3841849267,
				"y": -4.4869097579,
				"z": 1.6469060178,
				"element": "C" 
			},
			{
				"x": -1.2138737009,
				"y": -4.1155209328,
				"z": 0.2738800713,
				"element": "O" 
			},
			{
				"x": -2.1164475208,
				"y": -0.5506419891,
				"z": -0.204415334,
				"element": "C" 
			},
			{
				"x": -1.0437966449,
				"y": -0.1257287545,
				"z": -0.9818490932,
				"element": "C" 
			},
			{
				"x": 1.7500569677,
				"y": 2.09504909,
				"z": -0.35451497,
				"element": "C" 
			},
			{
				"x": 3.4787124116,
				"y": 1.5408292244,
				"z": 3.07237909,
				"element": "H" 
			},
			{
				"x": 3.6328394861,
				"y": -0.2005520702,
				"z": 1.3050271855,
				"element": "H" 
			},
			{
				"x": 3.1653003675,
				"y": -0.8763791724,
				"z": -0.8926254132,
				"element": "H" 
			},
			{
				"x": 0.6808468419,
				"y": -3.0773881387,
				"z": -1.0734635519,
				"element": "H" 
			},
			{
				"x": -2.5295070843,
				"y": -2.2644179665,
				"z": 2.8492620951,
				"element": "H" 
			},
			{
				"x": -4.2277094078,
				"y": -2.7447444411,
				"z": 2.6567227471,
				"element": "H" 
			},
			{
				"x": -3.5012926672,
				"y": -4.8423886172,
				"z": 1.4909319572,
				"element": "H" 
			},
			{
				"x": -2.8918729315,
				"y": -4.7348208674,
				"z": 3.1489229295,
				"element": "H" 
			},
			{
				"x": -1.1022990759,
				"y": -5.5422519777,
				"z": 1.6836326211,
				"element": "H" 
			},
			{
				"x": -0.677424265,
				"y": -3.9214421188,
				"z": 2.2724894767,
				"element": "H" 
			},
			{
				"x": -2.9325278447,
				"y": 0.1226778537,
				"z": 0.0353070232,
				"element": "H" 
			},
			{
				"x": -1.0028263607,
				"y": 0.8860111611,
				"z": -1.3671000836,
				"element": "H" 
			},
			{
				"x": 1.2765129112,
				"y": 2.2927902016,
				"z": -1.3069675773,
				"element": "H" 
			}
		],
		 "valence_orbital": [ 
			{
				"type": "occ",
				"energy": -0.30191,
				"method": "rhf"
			},
			{
				"type": "occ",
				"energy": -0.28683,
				"method": "rhf"
			},
			{
				"type": "occ",
				"energy": -0.27042,
				"method": "rhf"
			},
			{
				"type": "occ",
				"energy": -0.25127,
				"method": "rhf"
			},
			{
				"type": "occ",
				"energy": -0.24433,
				"method": "rhf"
			},
			{
				"type": "unocc",
				"energy": -0.0925,
				"method": "rhf"
			},
			{
				"type": "unocc",
				"energy": -0.04844,
				"method": "rhf"
			},
			{
				"type": "unocc",
				"energy": -0.02997,
				"method": "rhf"
			},
			{
				"type": "unocc",
				"energy": -0.02598,
				"method": "rhf"
			},
			{
				"type": "unocc",
				"energy": -0.01097,
				"method": "rhf"
			}
		],
		"cosmo_sigma_profile": { 
			"-0.025": 0.0,
			"-0.024": 0.0,
			"-0.023": 0.0,
			"-0.022": 0.0,
			"-0.021": 0.0,
			"-0.02": 0.0,
			"-0.019": 0.0,
			"-0.018": 0.0,
			"-0.017": 0.100867882948,
			"-0.016": 1.16350782215,
			"-0.015": 1.28364614157,
			"-0.014": 1.48135045157,
			"-0.013": 1.43776041641,
			"-0.012": 1.43203534047,
			"-0.011": 0.8835368338,
			"-0.01": 1.63272773256,
			"-0.009": 3.73611740665,
			"-0.008": 5.76546384786,
			"-0.007": 9.70588602587,
			"-0.006": 19.9791579045,
			"-0.005": 28.4757391313,
			"-0.004": 26.4691800532,
			"-0.003": 24.4891204253,
			"-0.002": 23.3434011801,
			"-0.001": 24.4226909187,
			"0.0": 24.9444651595,
			"0.001": 27.0696453181,
			"0.002": 20.9972243767,
			"0.003": 17.1741224571,
			"0.004": 11.3369167667,
			"0.005": 11.0923130514,
			"0.006": 10.8922948586,
			"0.007": 14.664788416,
			"0.008": 13.8186369826,
			"0.009": 10.9486436242,
			"0.01": 11.9468946171,
			"0.011": 5.66310653463,
			"0.012": 0.0533512912762,
			"0.013": 0.0,
			"0.014": 0.0,
			"0.015": 0.0,
			"0.016": 0.0,
			"0.017": 0.0,
			"0.018": 0.0,
			"0.019": 0.0,
			"0.02": 0.0,
			"0.021": 0.0,
			"0.022": 0.0,
			"0.023": 0.0,
			"0.024": 0.0,
			"0.025": 0.0
		}
	}
}
