{
	 "smiles": "CCCCOCCOCCO", 
	 "Tm": 205.15, 
	 "num_atms": 29, 
	 "gaussian": { 
		 "optdone": 1, 
		 "sigma_profile": "yes", 
		 "theory": "DFT", 
		 "functional": "B3LYP", 
		 "basiset": "6-31G**", 
		 "properties": { 
			 "R2extent": 2911.258, 
			 "electric_dipole_moment_norm": 2.01084314903, 
			 "electric_quadrupole_moment_norm": 12.1499981872, 
			 "total_energy": -541.341155611, 
			 "HOMO_LUMO_gap": 0.30506, 
			 "cosmo_polarized_energy": -9.45, 
			 "cosmo_cavitation_energy": 30.65, 
			 "cosmo_dispersion_energy": -21.04, 
			 "cosmo_repulsion_energy": 1.76, 
			 "cosmo_total_nonelectrostatic_energy": 11.36, 
			 "SMD_solvation_energy": 5.13 
		},
		"coords": [
			{
				"x": 1.7227033806,
				"y": 0.0750128319,
				"z": 2.1962257803,
				"element": "C" 
			},
			{
				"x": 2.3125959372,
				"y": 1.2412996237,
				"z": 1.3925337368,
				"element": "C" 
			},
			{
				"x": 1.7987965482,
				"y": 1.3444562202,
				"z": -0.0533652375,
				"element": "C" 
			},
			{
				"x": 0.3205717104,
				"y": 1.7320050649,
				"z": -0.1564215758,
				"element": "C" 
			},
			{
				"x": -0.0916466051,
				"y": 1.9238308484,
				"z": -1.5118926437,
				"element": "O" 
			},
			{
				"x": -0.4966090217,
				"y": 0.7569423849,
				"z": -2.2038174016,
				"element": "C" 
			},
			{
				"x": -1.9724217274,
				"y": 0.4133949408,
				"z": -1.9942667806,
				"element": "C" 
			},
			{
				"x": -2.2781506362,
				"y": -0.1122101007,
				"z": -0.7058444353,
				"element": "O" 
			},
			{
				"x": -2.0267920562,
				"y": -1.5042217194,
				"z": -0.5450626311,
				"element": "C" 
			},
			{
				"x": -2.6590794526,
				"y": -1.9036494838,
				"z": 0.7802365872,
				"element": "C" 
			},
			{
				"x": -4.0463418146,
				"y": -1.629749788,
				"z": 0.7904200726,
				"element": "O" 
			},
			{
				"x": 0.6389949024,
				"y": 0.1680490698,
				"z": 2.3223418457,
				"element": "H" 
			},
			{
				"x": 1.9173720359,
				"y": -0.8829168803,
				"z": 1.6994745222,
				"element": "H" 
			},
			{
				"x": 2.1640915186,
				"y": 0.0236353529,
				"z": 3.1968768963,
				"element": "H" 
			},
			{
				"x": 3.4044373658,
				"y": 1.1393031931,
				"z": 1.3679939108,
				"element": "H" 
			},
			{
				"x": 2.1108997435,
				"y": 2.1858004753,
				"z": 1.9165428062,
				"element": "H" 
			},
			{
				"x": 1.96860145,
				"y": 0.3883354793,
				"z": -0.5678843537,
				"element": "H" 
			},
			{
				"x": 2.3789030796,
				"y": 2.0974770375,
				"z": -0.5999680605,
				"element": "H" 
			},
			{
				"x": 0.1616954729,
				"y": 2.6979058695,
				"z": 0.3379963825,
				"element": "H" 
			},
			{
				"x": -0.3298980904,
				"y": 1.0022750771,
				"z": 0.3378044852,
				"element": "H" 
			},
			{
				"x": 0.1389996629,
				"y": -0.1060128498,
				"z": -1.9537450511,
				"element": "H" 
			},
			{
				"x": -0.3487917889,
				"y": 0.9655449096,
				"z": -3.2710238942,
				"element": "H" 
			},
			{
				"x": -2.5585787577,
				"y": 1.3324665594,
				"z": -2.0944919626,
				"element": "H" 
			},
			{
				"x": -2.2986520509,
				"y": -0.2927369443,
				"z": -2.7757592473,
				"element": "H" 
			},
			{
				"x": -2.4935896874,
				"y": -2.0660843084,
				"z": -1.3691972944,
				"element": "H" 
			},
			{
				"x": -0.9484801039,
				"y": -1.7274717655,
				"z": -0.5410544573,
				"element": "H" 
			},
			{
				"x": -2.5355620021,
				"y": -2.9803169849,
				"z": 0.9383711558,
				"element": "H" 
			},
			{
				"x": -2.1359653523,
				"y": -1.3818981908,
				"z": 1.5987488631,
				"element": "H" 
			},
			{
				"x": -4.1296036606,
				"y": -0.7170659223,
				"z": 0.4779279819,
				"element": "H" 
			}
		],
		 "valence_orbital": [ 
			{
				"type": "occ",
				"energy": -0.32409,
				"method": "rhf"
			},
			{
				"type": "occ",
				"energy": -0.30354,
				"method": "rhf"
			},
			{
				"type": "occ",
				"energy": -0.2806,
				"method": "rhf"
			},
			{
				"type": "occ",
				"energy": -0.26266,
				"method": "rhf"
			},
			{
				"type": "occ",
				"energy": -0.23823,
				"method": "rhf"
			},
			{
				"type": "unocc",
				"energy": 0.06683,
				"method": "rhf"
			},
			{
				"type": "unocc",
				"energy": 0.08609,
				"method": "rhf"
			},
			{
				"type": "unocc",
				"energy": 0.09418,
				"method": "rhf"
			},
			{
				"type": "unocc",
				"energy": 0.10523,
				"method": "rhf"
			},
			{
				"type": "unocc",
				"energy": 0.11646,
				"method": "rhf"
			}
		],
		"cosmo_sigma_profile": { 
			"-0.025": 0.0,
			"-0.024": 0.0,
			"-0.023": 0.0,
			"-0.022": 0.0,
			"-0.021": 0.0,
			"-0.02": 0.0,
			"-0.019": 0.0,
			"-0.018": 0.0,
			"-0.017": 0.0,
			"-0.016": 0.0,
			"-0.015": 0.0,
			"-0.014": 0.0,
			"-0.013": 0.0,
			"-0.012": 0.605544383763,
			"-0.011": 0.302689521739,
			"-0.01": 0.728903387846,
			"-0.009": 0.577385473741,
			"-0.008": 0.491371919131,
			"-0.007": 0.39905513282,
			"-0.006": 1.23526739536,
			"-0.005": 10.5424905355,
			"-0.004": 26.8037201655,
			"-0.003": 29.8204806493,
			"-0.002": 35.9260598443,
			"-0.001": 28.3585660163,
			"0.0": 26.4597210937,
			"0.001": 21.3560673116,
			"0.002": 10.355923923,
			"0.003": 4.74732093702,
			"0.004": 4.3174328698,
			"0.005": 4.24894667558,
			"0.006": 3.95759080835,
			"0.007": 3.39690929487,
			"0.008": 3.04021436926,
			"0.009": 3.35191239962,
			"0.01": 2.58900830209,
			"0.011": 2.09454931708,
			"0.012": 2.86130309222,
			"0.013": 2.82057193792,
			"0.014": 3.84056244792,
			"0.015": 1.04250821466,
			"0.016": 0.0,
			"0.017": 0.0,
			"0.018": 0.0,
			"0.019": 0.0,
			"0.02": 0.0,
			"0.021": 0.0,
			"0.022": 0.0,
			"0.023": 0.0,
			"0.024": 0.0,
			"0.025": 0.0
		}
	}
}
