{
	 "smiles": "CC1=C(C=C(C=C1)C(O)=O)S(=O)(=O)N1CCOCC1", 
	 "Tm": 450.15, 
	 "num_atms": 34, 
	 "gaussian": { 
		 "optdone": 1, 
		 "sigma_profile": "yes", 
		 "theory": "DFT", 
		 "functional": "B3LYP", 
		 "basiset": "6-31G**", 
		 "properties": { 
			 "R2extent": 6464.2183, 
			 "electric_dipole_moment_norm": 6.29924531829, 
			 "electric_quadrupole_moment_norm": 27.4763527092, 
			 "total_energy": -1295.29982057, 
			 "HOMO_LUMO_gap": 0.17225, 
			 "cosmo_polarized_energy": -23.47, 
			 "cosmo_cavitation_energy": 37.17, 
			 "cosmo_dispersion_energy": -26.83, 
			 "cosmo_repulsion_energy": 2.0, 
			 "cosmo_total_nonelectrostatic_energy": 12.34, 
			 "SMD_solvation_energy": 6.45 
		},
		"coords": [
			{
				"x": -2.3243484551,
				"y": 0.8526720966,
				"z": 1.3094842521,
				"element": "C" 
			},
			{
				"x": -2.293353437,
				"y": 0.7182218414,
				"z": -0.1905724065,
				"element": "C" 
			},
			{
				"x": -1.1019106071,
				"y": 0.586120346,
				"z": -0.9393935825,
				"element": "C" 
			},
			{
				"x": -1.1142773873,
				"y": 0.4620585782,
				"z": -2.3256255338,
				"element": "C" 
			},
			{
				"x": -2.3272927962,
				"y": 0.4731560218,
				"z": -3.0244215727,
				"element": "C" 
			},
			{
				"x": -3.5190397007,
				"y": 0.5887065036,
				"z": -2.3014474433,
				"element": "C" 
			},
			{
				"x": -3.4933343438,
				"y": 0.7070545288,
				"z": -0.9131305189,
				"element": "C" 
			},
			{
				"x": -2.2760206443,
				"y": 0.3089663582,
				"z": -4.5143172393,
				"element": "C" 
			},
			{
				"x": -3.3556712662,
				"y": 0.7496333994,
				"z": -5.2139402909,
				"element": "O" 
			},
			{
				"x": -1.3413867711,
				"y": -0.1924197711,
				"z": -5.0914161258,
				"element": "O" 
			},
			{
				"x": 0.526566861,
				"y": 0.6289395206,
				"z": -0.1565746015,
				"element": "S" 
			},
			{
				"x": 0.5789144503,
				"y": 1.7436596275,
				"z": 0.7971231146,
				"element": "O" 
			},
			{
				"x": 1.5180261831,
				"y": 0.5418993841,
				"z": -1.2376498328,
				"element": "O" 
			},
			{
				"x": 0.4949272842,
				"y": -0.7918328623,
				"z": 0.7661189561,
				"element": "N" 
			},
			{
				"x": 1.1849246964,
				"y": -0.7628257769,
				"z": 2.0749931531,
				"element": "C" 
			},
			{
				"x": 2.6483599695,
				"y": -1.189770641,
				"z": 1.950344699,
				"element": "C" 
			},
			{
				"x": 2.7549005833,
				"y": -2.4579104901,
				"z": 1.3150220826,
				"element": "O" 
			},
			{
				"x": 2.2163864417,
				"y": -2.4221408781,
				"z": -0.0026292708,
				"element": "C" 
			},
			{
				"x": 0.7310316096,
				"y": -2.0538957275,
				"z": 0.0293980431,
				"element": "C" 
			},
			{
				"x": -3.3532486807,
				"y": 0.9441774964,
				"z": 1.6645553667,
				"element": "H" 
			},
			{
				"x": -1.8664130358,
				"y": -0.0211802965,
				"z": 1.7836604101,
				"element": "H" 
			},
			{
				"x": -1.753577242,
				"y": 1.7255993908,
				"z": 1.6359386947,
				"element": "H" 
			},
			{
				"x": -0.1840224307,
				"y": 0.3625869373,
				"z": -2.8728079792,
				"element": "H" 
			},
			{
				"x": -4.4821615507,
				"y": 0.551003311,
				"z": -2.8047657386,
				"element": "H" 
			},
			{
				"x": -4.4293882388,
				"y": 0.7883742091,
				"z": -0.3683315658,
				"element": "H" 
			},
			{
				"x": -3.9308032736,
				"y": 1.2814379571,
				"z": -4.6467252519,
				"element": "H" 
			},
			{
				"x": 0.6524867889,
				"y": -1.4699315845,
				"z": 2.7227336494,
				"element": "H" 
			},
			{
				"x": 1.0942746833,
				"y": 0.2378429494,
				"z": 2.5002236612,
				"element": "H" 
			},
			{
				"x": 3.098780558,
				"y": -1.2976669703,
				"z": 2.9419428786,
				"element": "H" 
			},
			{
				"x": 3.2162233674,
				"y": -0.4298102752,
				"z": 1.3901074012,
				"element": "H" 
			},
			{
				"x": 2.7633006309,
				"y": -1.6995100377,
				"z": -0.6248052582,
				"element": "H" 
			},
			{
				"x": 2.3502016932,
				"y": -3.4240682749,
				"z": -0.4215763806,
				"element": "H" 
			},
			{
				"x": 0.3243259287,
				"y": -1.9715860816,
				"z": -0.9817849503,
				"element": "H" 
			},
			{
				"x": 0.1681181314,
				"y": -2.8337607897,
				"z": 0.555869181,
				"element": "H" 
			}
		],
		 "valence_orbital": [ 
			{
				"type": "occ",
				"energy": -0.29569,
				"method": "rhf"
			},
			{
				"type": "occ",
				"energy": -0.28578,
				"method": "rhf"
			},
			{
				"type": "occ",
				"energy": -0.28381,
				"method": "rhf"
			},
			{
				"type": "occ",
				"energy": -0.27249,
				"method": "rhf"
			},
			{
				"type": "occ",
				"energy": -0.2402,
				"method": "rhf"
			},
			{
				"type": "unocc",
				"energy": -0.06795,
				"method": "rhf"
			},
			{
				"type": "unocc",
				"energy": -0.04649,
				"method": "rhf"
			},
			{
				"type": "unocc",
				"energy": 0.02352,
				"method": "rhf"
			},
			{
				"type": "unocc",
				"energy": 0.04875,
				"method": "rhf"
			},
			{
				"type": "unocc",
				"energy": 0.0584,
				"method": "rhf"
			}
		],
		"cosmo_sigma_profile": { 
			"-0.025": 0.0,
			"-0.024": 0.0,
			"-0.023": 0.0,
			"-0.022": 0.0,
			"-0.021": 0.0,
			"-0.02": 0.0,
			"-0.019": 0.414625294143,
			"-0.018": 0.79445441753,
			"-0.017": 1.32619445819,
			"-0.016": 1.29110906918,
			"-0.015": 0.774256843075,
			"-0.014": 0.887966837736,
			"-0.013": 1.11230363455,
			"-0.012": 1.21541890419,
			"-0.011": 1.57357722191,
			"-0.01": 1.64626097968,
			"-0.009": 1.38676323282,
			"-0.008": 2.54938212707,
			"-0.007": 6.26012878801,
			"-0.006": 15.3747255218,
			"-0.005": 24.7054617296,
			"-0.004": 25.4347470565,
			"-0.003": 27.3083624862,
			"-0.002": 25.4888342135,
			"-0.001": 23.1701616733,
			"0.0": 21.4991091707,
			"0.001": 17.6224396625,
			"0.002": 11.589091729,
			"0.003": 7.14761979028,
			"0.004": 6.45190681091,
			"0.005": 5.16318562642,
			"0.006": 6.54741371348,
			"0.007": 5.76680402426,
			"0.008": 7.685412711,
			"0.009": 8.95303214007,
			"0.01": 11.3097166296,
			"0.011": 12.0408475485,
			"0.012": 7.2356293986,
			"0.013": 2.42491768662,
			"0.014": 0.0,
			"0.015": 0.0,
			"0.016": 0.0,
			"0.017": 0.0,
			"0.018": 0.0,
			"0.019": 0.0,
			"0.02": 0.0,
			"0.021": 0.0,
			"0.022": 0.0,
			"0.023": 0.0,
			"0.024": 0.0,
			"0.0": 0.0
		}
	}
}
