{
	 "smiles": "CCCCC(=O)NC", 
	 "Tm": 247.15, 
	 "num_atms": 21, 
	 "gaussian": { 
		 "optdone": 1, 
		 "sigma_profile": "yes", 
		 "theory": "DFT", 
		 "functional": "B3LYP", 
		 "basiset": "6-31G**", 
		 "properties": { 
			 "R2extent": 2579.9445, 
			 "electric_dipole_moment_norm": 3.40460412089, 
			 "electric_quadrupole_moment_norm": 16.6136227175, 
			 "total_energy": -366.477378585, 
			 "HOMO_LUMO_gap": 0.27778, 
			 "cosmo_polarized_energy": -10.7, 
			 "cosmo_cavitation_energy": 23.38, 
			 "cosmo_dispersion_energy": -17.16, 
			 "cosmo_repulsion_energy": 1.48, 
			 "cosmo_total_nonelectrostatic_energy": 7.69, 
			 "SMD_solvation_energy": 4.31 
		},
		"coords": [
			{
				"x": -1.9018297935,
				"y": 2.7841915083,
				"z": -1.0715591328,
				"element": "C" 
			},
			{
				"x": -0.6196144881,
				"y": 2.2332811208,
				"z": -0.4357783856,
				"element": "C" 
			},
			{
				"x": 0.1994730958,
				"y": 1.3083906031,
				"z": -1.3495050556,
				"element": "C" 
			},
			{
				"x": -0.4964445881,
				"y": -0.0156281819,
				"z": -1.6951236954,
				"element": "C" 
			},
			{
				"x": 0.311389507,
				"y": -0.8365196985,
				"z": -2.6984987771,
				"element": "C" 
			},
			{
				"x": 0.875489729,
				"y": -0.3208486664,
				"z": -3.6574071445,
				"element": "O" 
			},
			{
				"x": 0.3395716506,
				"y": -2.1840014269,
				"z": -2.4587872177,
				"element": "N" 
			},
			{
				"x": 1.0182597944,
				"y": -3.1192759569,
				"z": -3.3369292338,
				"element": "C" 
			},
			{
				"x": -2.6165318313,
				"y": 1.9902927429,
				"z": -1.3134538529,
				"element": "H" 
			},
			{
				"x": -2.4078902932,
				"y": 3.4808630004,
				"z": -0.3951586089,
				"element": "H" 
			},
			{
				"x": -1.6801367318,
				"y": 3.3227277538,
				"z": -1.9999685681,
				"element": "H" 
			},
			{
				"x": -0.8695448403,
				"y": 1.7043471998,
				"z": 0.4947583755,
				"element": "H" 
			},
			{
				"x": 0.0186458544,
				"y": 3.0753640178,
				"z": -0.13983749,
				"element": "H" 
			},
			{
				"x": 0.4416941175,
				"y": 1.8180885117,
				"z": -2.2882572081,
				"element": "H" 
			},
			{
				"x": 1.1594672595,
				"y": 1.0850013303,
				"z": -0.8669965109,
				"element": "H" 
			},
			{
				"x": -1.4691706872,
				"y": 0.1835280638,
				"z": -2.1627977089,
				"element": "H" 
			},
			{
				"x": -0.6991557635,
				"y": -0.5935703268,
				"z": -0.7837302435,
				"element": "H" 
			},
			{
				"x": -0.1458577924,
				"y": -2.5402015081,
				"z": -1.6501992721,
				"element": "H" 
			},
			{
				"x": 0.3171619155,
				"y": -3.8371996114,
				"z": -3.7784801301,
				"element": "H" 
			},
			{
				"x": 1.4785912517,
				"y": -2.534990511,
				"z": -4.1344487787,
				"element": "H" 
			},
			{
				"x": 1.798532634,
				"y": -3.6736399648,
				"z": -2.8030413608,
				"element": "H" 
			}
		],
		 "valence_orbital": [ 
			{
				"type": "occ",
				"energy": -0.32759,
				"method": "rhf"
			},
			{
				"type": "occ",
				"energy": -0.32316,
				"method": "rhf"
			},
			{
				"type": "occ",
				"energy": -0.31828,
				"method": "rhf"
			},
			{
				"type": "occ",
				"energy": -0.24647,
				"method": "rhf"
			},
			{
				"type": "occ",
				"energy": -0.24075,
				"method": "rhf"
			},
			{
				"type": "unocc",
				"energy": 0.03703,
				"method": "rhf"
			},
			{
				"type": "unocc",
				"energy": 0.07562,
				"method": "rhf"
			},
			{
				"type": "unocc",
				"energy": 0.09684,
				"method": "rhf"
			},
			{
				"type": "unocc",
				"energy": 0.12481,
				"method": "rhf"
			},
			{
				"type": "unocc",
				"energy": 0.12656,
				"method": "rhf"
			}
		],
		"cosmo_sigma_profile": { 
			"-0.025": 0.0,
			"-0.024": 0.0,
			"-0.023": 0.0,
			"-0.022": 0.0,
			"-0.021": 0.0,
			"-0.02": 0.0,
			"-0.019": 0.0,
			"-0.018": 0.0,
			"-0.017": 0.0,
			"-0.016": 0.0,
			"-0.015": 0.0,
			"-0.014": 0.5005795115,
			"-0.013": 1.36019042574,
			"-0.012": 1.33258886233,
			"-0.011": 1.32446895671,
			"-0.01": 1.22543924533,
			"-0.009": 1.42063846077,
			"-0.008": 1.4164180866,
			"-0.007": 1.19774466511,
			"-0.006": 1.85545979068,
			"-0.005": 4.83289829693,
			"-0.004": 11.27136714,
			"-0.003": 16.7000314798,
			"-0.002": 26.5883461364,
			"-0.001": 28.0387744297,
			"0.0": 24.2030569276,
			"0.001": 18.5515046703,
			"0.002": 9.04811042146,
			"0.003": 4.75648392571,
			"0.004": 2.42920843255,
			"0.005": 1.87533175034,
			"0.006": 1.37542990213,
			"0.007": 1.6532480781,
			"0.008": 2.20856729168,
			"0.009": 1.69636333002,
			"0.01": 1.44569215547,
			"0.011": 1.11881119365,
			"0.012": 2.18610201933,
			"0.013": 1.70017593956,
			"0.014": 4.95423653232,
			"0.015": 2.88870482461,
			"0.016": 0.0494475876274,
			"0.017": 0.0,
			"0.018": 0.0,
			"0.019": 0.0,
			"0.02": 0.0,
			"0.021": 0.0,
			"0.022": 0.0,
			"0.023": 0.0,
			"0.024": 0.0,
			"0.025": 0.0
		}
	}
}
