{
	 "smiles": "ClC1=CC=C(C=C(C#N)C2=NC3=C(C=CC=C3)C(=O)N2)C(Cl)=C1", 
	 "Tm": 572.15, 
	 "num_atms": 32, 
	 "gaussian": { 
		 "optdone": 1, 
		 "sigma_profile": "yes", 
		 "theory": "DFT", 
		 "functional": "B3LYP", 
		 "basiset": "6-31G**", 
		 "properties": { 
			 "R2extent": 10993.0506, 
			 "electric_dipole_moment_norm": 5.04212202748, 
			 "electric_quadrupole_moment_norm": 20.5486340729, 
			 "total_energy": -1813.09143259, 
			 "HOMO_LUMO_gap": 0.12775, 
			 "cosmo_polarized_energy": -15.83, 
			 "cosmo_cavitation_energy": 42.37, 
			 "cosmo_dispersion_energy": -29.4, 
			 "cosmo_repulsion_energy": 2.22, 
			 "cosmo_total_nonelectrostatic_energy": 15.19, 
			 "SMD_solvation_energy": 7.48 
		},
		"coords": [
			{
				"x": 5.6405995682,
				"y": 0.9205299926,
				"z": -2.0834343354,
				"element": "Cl" 
			},
			{
				"x": 4.0933224591,
				"y": 0.1197652241,
				"z": -2.2377589874,
				"element": "C" 
			},
			{
				"x": 2.9330350113,
				"y": 0.7665008471,
				"z": -1.8064526539,
				"element": "C" 
			},
			{
				"x": 1.7136500859,
				"y": 0.1145856538,
				"z": -1.9221745039,
				"element": "C" 
			},
			{
				"x": 1.6060401791,
				"y": -1.1768868248,
				"z": -2.4757137152,
				"element": "C" 
			},
			{
				"x": 0.3243472129,
				"y": -1.8321842753,
				"z": -2.7280937883,
				"element": "C" 
			},
			{
				"x": -0.859336421,
				"y": -1.8383266046,
				"z": -2.0491309357,
				"element": "C" 
			},
			{
				"x": -1.9497298164,
				"y": -2.5099148341,
				"z": -2.7035431284,
				"element": "C" 
			},
			{
				"x": -2.8622413592,
				"y": -3.0285630987,
				"z": -3.2074369979,
				"element": "N" 
			},
			{
				"x": -1.1640429975,
				"y": -1.3087549869,
				"z": -0.6920795346,
				"element": "C" 
			},
			{
				"x": -0.211819981,
				"y": -0.9017064199,
				"z": 0.0887132325,
				"element": "N" 
			},
			{
				"x": -0.5533482933,
				"y": -0.4593207306,
				"z": 1.3568037301,
				"element": "C" 
			},
			{
				"x": -1.8904709233,
				"y": -0.4314559242,
				"z": 1.822277639,
				"element": "C" 
			},
			{
				"x": -2.185944324,
				"y": 0.0266735631,
				"z": 3.114006432,
				"element": "C" 
			},
			{
				"x": -1.1620367824,
				"y": 0.4564651435,
				"z": 3.9457630406,
				"element": "C" 
			},
			{
				"x": 0.1690700785,
				"y": 0.4300614345,
				"z": 3.4916106702,
				"element": "C" 
			},
			{
				"x": 0.4742428042,
				"y": -0.020776321,
				"z": 2.2163621964,
				"element": "C" 
			},
			{
				"x": -2.9650237776,
				"y": -0.8922524604,
				"z": 0.9360362095,
				"element": "C" 
			},
			{
				"x": -4.1581318397,
				"y": -0.927687112,
				"z": 1.1940218179,
				"element": "O" 
			},
			{
				"x": -2.4910597776,
				"y": -1.3195086027,
				"z": -0.3153598963,
				"element": "N" 
			},
			{
				"x": 2.80314394,
				"y": -1.780204244,
				"z": -2.920372845,
				"element": "C" 
			},
			{
				"x": 2.7824828711,
				"y": -3.3849609776,
				"z": -3.6312402826,
				"element": "Cl" 
			},
			{
				"x": 4.0416418703,
				"y": -1.155331009,
				"z": -2.7954857102,
				"element": "C" 
			},
			{
				"x": 2.9882849756,
				"y": 1.7652847808,
				"z": -1.3894841938,
				"element": "H" 
			},
			{
				"x": 0.8142704012,
				"y": 0.6140169932,
				"z": -1.5896374924,
				"element": "H" 
			},
			{
				"x": 0.310583118,
				"y": -2.4151964759,
				"z": -3.6454302578,
				"element": "H" 
			},
			{
				"x": -3.2230080385,
				"y": 0.0317336367,
				"z": 3.432872572,
				"element": "H" 
			},
			{
				"x": -1.385672063,
				"y": 0.8115295719,
				"z": 4.9469444808,
				"element": "H" 
			},
			{
				"x": 0.9672817769,
				"y": 0.7651646128,
				"z": 4.1476890703,
				"element": "H" 
			},
			{
				"x": 1.4957624106,
				"y": -0.0516458873,
				"z": 1.8521940875,
				"element": "H" 
			},
			{
				"x": -3.2047489914,
				"y": -1.6660342848,
				"z": -0.9487479234,
				"element": "H" 
			},
			{
				"x": 4.943256623,
				"y": -1.6538003805,
				"z": -3.1284179964,
				"element": "H" 
			}
		],
		 "valence_orbital": [ 
			{
				"type": "occ",
				"energy": -0.27654,
				"method": "rhf"
			},
			{
				"type": "occ",
				"energy": -0.27268,
				"method": "rhf"
			},
			{
				"type": "occ",
				"energy": -0.2713,
				"method": "rhf"
			},
			{
				"type": "occ",
				"energy": -0.26369,
				"method": "rhf"
			},
			{
				"type": "occ",
				"energy": -0.23614,
				"method": "rhf"
			},
			{
				"type": "unocc",
				"energy": -0.10839,
				"method": "rhf"
			},
			{
				"type": "unocc",
				"energy": -0.05128,
				"method": "rhf"
			},
			{
				"type": "unocc",
				"energy": -0.04053,
				"method": "rhf"
			},
			{
				"type": "unocc",
				"energy": -0.03924,
				"method": "rhf"
			},
			{
				"type": "unocc",
				"energy": -0.01325,
				"method": "rhf"
			}
		],
		"cosmo_sigma_profile": { 
			"-0.025": 0.0,
			"-0.024": 0.0,
			"-0.023": 0.0,
			"-0.022": 0.0,
			"-0.021": 0.0,
			"-0.02": 0.0,
			"-0.019": 0.0,
			"-0.018": 0.0,
			"-0.017": 0.0,
			"-0.016": 0.0,
			"-0.015": 0.0,
			"-0.014": 0.0,
			"-0.013": 0.382015123448,
			"-0.012": 0.85395620935,
			"-0.011": 1.11620135557,
			"-0.01": 1.40828374133,
			"-0.009": 3.62989598979,
			"-0.008": 6.28031535872,
			"-0.007": 11.8809934807,
			"-0.006": 17.633868881,
			"-0.005": 20.6906666512,
			"-0.004": 21.4403279394,
			"-0.003": 22.9611788596,
			"-0.002": 24.5909839677,
			"-0.001": 26.4992100533,
			"0.0": 36.71210598,
			"0.001": 31.8918118184,
			"0.002": 28.8460436995,
			"0.003": 31.5711739565,
			"0.004": 16.1679675606,
			"0.005": 4.54565025555,
			"0.006": 5.48604482077,
			"0.007": 4.11020821558,
			"0.008": 5.50301106845,
			"0.009": 4.34171268632,
			"0.01": 4.96617169597,
			"0.011": 4.6598399111,
			"0.012": 6.28033475964,
			"0.013": 3.70067246533,
			"0.014": 0.0717418112865,
			"0.015": 0.0,
			"0.016": 0.0,
			"0.017": 0.0,
			"0.018": 0.0,
			"0.019": 0.0,
			"0.02": 0.0,
			"0.021": 0.0,
			"0.022": 0.0,
			"0.023": 0.0,
			"0.024": 0.0,
			"0.025": 0.0
		}
	}
}
