{
	 "smiles": "COC(=O)C(C)N(C(=O)C1=CC=CC=C1)C1=CC=C(F)C(Cl)=C1", 
	 "Tm": 358.15, 
	 "num_atms": 38, 
	 "gaussian": { 
		 "optdone": 1, 
		 "sigma_profile": "yes", 
		 "theory": "DFT", 
		 "functional": "B3LYP", 
		 "basiset": "6-31G**", 
		 "properties": { 
			 "R2extent": 9105.5326, 
			 "electric_dipole_moment_norm": 1.73942609788, 
			 "electric_quadrupole_moment_norm": 18.3194999102, 
			 "total_energy": -1497.31056802, 
			 "HOMO_LUMO_gap": 0.19956, 
			 "cosmo_polarized_energy": -14.88, 
			 "cosmo_cavitation_energy": 44.32, 
			 "cosmo_dispersion_energy": -28.44, 
			 "cosmo_repulsion_energy": 2.19, 
			 "cosmo_total_nonelectrostatic_energy": 18.08, 
			 "SMD_solvation_energy": 9.63 
		},
		"coords": [
			{
				"x": -2.420869279,
				"y": 0.6136167452,
				"z": 3.3768203876,
				"element": "C" 
			},
			{
				"x": -1.7334077102,
				"y": 0.242714755,
				"z": 2.1679772549,
				"element": "O" 
			},
			{
				"x": -1.5395965657,
				"y": -1.081413657,
				"z": 2.0004224115,
				"element": "C" 
			},
			{
				"x": -1.906570866,
				"y": -1.91991368,
				"z": 2.7942550997,
				"element": "O" 
			},
			{
				"x": -0.8636951299,
				"y": -1.3939792113,
				"z": 0.661417803,
				"element": "C" 
			},
			{
				"x": -0.5082684654,
				"y": -2.8778461594,
				"z": 0.5621666494,
				"element": "C" 
			},
			{
				"x": 0.2621827686,
				"y": -0.4801896454,
				"z": 0.3712381526,
				"element": "N" 
			},
			{
				"x": 0.053080374,
				"y": 0.4588718696,
				"z": -0.6413273993,
				"element": "C" 
			},
			{
				"x": -1.017243197,
				"y": 0.5239648229,
				"z": -1.237049179,
				"element": "O" 
			},
			{
				"x": 1.1770818395,
				"y": 1.377917944,
				"z": -1.0304292843,
				"element": "C" 
			},
			{
				"x": 0.8256073567,
				"y": 2.6844765537,
				"z": -1.4006053735,
				"element": "C" 
			},
			{
				"x": 1.7980746553,
				"y": 3.5784002572,
				"z": -1.8425245102,
				"element": "C" 
			},
			{
				"x": 3.1284764889,
				"y": 3.1665862449,
				"z": -1.9520902489,
				"element": "C" 
			},
			{
				"x": 3.4799423686,
				"y": 1.857600615,
				"z": -1.6178645788,
				"element": "C" 
			},
			{
				"x": 2.5118584989,
				"y": 0.967619424,
				"z": -1.1527174155,
				"element": "C" 
			},
			{
				"x": 1.3075650817,
				"y": -0.3597299545,
				"z": 1.3455145243,
				"element": "C" 
			},
			{
				"x": 2.2662542479,
				"y": -1.3705726572,
				"z": 1.4954781676,
				"element": "C" 
			},
			{
				"x": 3.2614639547,
				"y": -1.2592618798,
				"z": 2.4645916436,
				"element": "C" 
			},
			{
				"x": 3.3087574752,
				"y": -0.1320871041,
				"z": 3.2758267791,
				"element": "C" 
			},
			{
				"x": 4.2736060743,
				"y": -0.0239932807,
				"z": 4.1995152131,
				"element": "F" 
			},
			{
				"x": 2.3641985199,
				"y": 0.8866265371,
				"z": 3.1335035669,
				"element": "C" 
			},
			{
				"x": 2.4455355181,
				"y": 2.290801481,
				"z": 4.1668568697,
				"element": "Cl" 
			},
			{
				"x": 1.3588805782,
				"y": 0.766832939,
				"z": 2.1773281263,
				"element": "C" 
			},
			{
				"x": -3.4086793339,
				"y": 0.1483656035,
				"z": 3.4122016,
				"element": "H" 
			},
			{
				"x": -1.8499944764,
				"y": 0.3003046443,
				"z": 4.2541963786,
				"element": "H" 
			},
			{
				"x": -2.5089928967,
				"y": 1.6991680999,
				"z": 3.3433027921,
				"element": "H" 
			},
			{
				"x": -1.6014646054,
				"y": -1.1435424688,
				"z": -0.108866033,
				"element": "H" 
			},
			{
				"x": -1.4174415314,
				"y": -3.4761894301,
				"z": 0.6526901751,
				"element": "H" 
			},
			{
				"x": -0.0459584185,
				"y": -3.0854601196,
				"z": -0.4065816212,
				"element": "H" 
			},
			{
				"x": 0.1659772254,
				"y": -3.1924201977,
				"z": 1.3618602545,
				"element": "H" 
			},
			{
				"x": -0.2166922563,
				"y": 2.9797162442,
				"z": -1.3432863195,
				"element": "H" 
			},
			{
				"x": 1.5172809166,
				"y": 4.5924632216,
				"z": -2.1114949531,
				"element": "H" 
			},
			{
				"x": 3.8865072762,
				"y": 3.8602731586,
				"z": -2.3042821037,
				"element": "H" 
			},
			{
				"x": 4.5093975832,
				"y": 1.5268750849,
				"z": -1.719927854,
				"element": "H" 
			},
			{
				"x": 2.7950277801,
				"y": -0.0479570816,
				"z": -0.9013633169,
				"element": "H" 
			},
			{
				"x": 2.2442904326,
				"y": -2.2338463358,
				"z": 0.8411043812,
				"element": "H" 
			},
			{
				"x": 4.0139248148,
				"y": -2.0290250224,
				"z": 2.5963439255,
				"element": "H" 
			},
			{
				"x": 0.613402902,
				"y": 1.54533164,
				"z": 2.0781980345,
				"element": "H" 
			}
		],
		 "valence_orbital": [ 
			{
				"type": "occ",
				"energy": -0.27371,
				"method": "rhf"
			},
			{
				"type": "occ",
				"energy": -0.26297,
				"method": "rhf"
			},
			{
				"type": "occ",
				"energy": -0.25916,
				"method": "rhf"
			},
			{
				"type": "occ",
				"energy": -0.24956,
				"method": "rhf"
			},
			{
				"type": "occ",
				"energy": -0.24237,
				"method": "rhf"
			},
			{
				"type": "unocc",
				"energy": -0.04281,
				"method": "rhf"
			},
			{
				"type": "unocc",
				"energy": -0.03136,
				"method": "rhf"
			},
			{
				"type": "unocc",
				"energy": -0.02363,
				"method": "rhf"
			},
			{
				"type": "unocc",
				"energy": -0.00812,
				"method": "rhf"
			},
			{
				"type": "unocc",
				"energy": 0.00029,
				"method": "rhf"
			}
		],
		"cosmo_sigma_profile": { 
			"-0.025": 0.0,
			"-0.024": 0.0,
			"-0.023": 0.0,
			"-0.022": 0.0,
			"-0.021": 0.0,
			"-0.02": 0.0,
			"-0.019": 0.0,
			"-0.018": 0.0,
			"-0.017": 0.0,
			"-0.016": 0.0,
			"-0.015": 0.0,
			"-0.014": 0.0,
			"-0.013": 0.0,
			"-0.012": 0.0,
			"-0.011": 0.0,
			"-0.01": 0.0,
			"-0.009": 0.5505981013,
			"-0.008": 2.29733380854,
			"-0.007": 6.98013843533,
			"-0.006": 20.4289547784,
			"-0.005": 27.5942712357,
			"-0.004": 33.1811683171,
			"-0.003": 29.7929914082,
			"-0.002": 29.8856370498,
			"-0.001": 30.5313585799,
			"0.0": 30.0353039758,
			"0.001": 23.4623785094,
			"0.002": 19.6560340774,
			"0.003": 27.4070858342,
			"0.004": 29.0742820745,
			"0.005": 10.8521758175,
			"0.006": 3.77156623809,
			"0.007": 3.71712407664,
			"0.008": 4.13956909561,
			"0.009": 3.58520299765,
			"0.01": 3.80577477621,
			"0.011": 6.36370366175,
			"0.012": 6.11944205724,
			"0.013": 2.5350306293,
			"0.014": 0.226467285378,
			"0.015": 0.0,
			"0.016": 0.0,
			"0.017": 0.0,
			"0.018": 0.0,
			"0.019": 0.0,
			"0.02": 0.0,
			"0.021": 0.0,
			"0.022": 0.0,
			"0.023": 0.0,
			"0.024": 0.0,
			"0.025": 0.0
		}
	}
}
