{
	 "smiles": "CC1=C(N)C=C(C=C1N(=O)=O)N(=O)=O", 
	 "Tm": 447.15, 
	 "num_atms": 21, 
	 "gaussian": { 
		 "optdone": 1, 
		 "sigma_profile": "yes", 
		 "theory": "DFT", 
		 "functional": "B3LYP", 
		 "basiset": "6-31G**", 
		 "properties": { 
			 "R2extent": 3075.054, 
			 "electric_dipole_moment_norm": 6.63499661643, 
			 "electric_quadrupole_moment_norm": 13.5968620137, 
			 "total_energy": -735.914306775, 
			 "HOMO_LUMO_gap": 0.14222, 
			 "cosmo_polarized_energy": -16.41, 
			 "cosmo_cavitation_energy": 26.42, 
			 "cosmo_dispersion_energy": -19.41, 
			 "cosmo_repulsion_energy": 1.52, 
			 "cosmo_total_nonelectrostatic_energy": 8.53, 
			 "SMD_solvation_energy": 8.99 
		},
		"coords": [
			{
				"x": 2.2755506895,
				"y": 0.5026738336,
				"z": -0.4103628462,
				"element": "C" 
			},
			{
				"x": 0.8744475451,
				"y": 0.2193319145,
				"z": 0.0677651126,
				"element": "C" 
			},
			{
				"x": 0.2570004686,
				"y": 1.166539331,
				"z": 0.9325639793,
				"element": "C" 
			},
			{
				"x": 0.9008296717,
				"y": 2.3529895592,
				"z": 1.238072739,
				"element": "N" 
			},
			{
				"x": -1.0299202745,
				"y": 0.9321407911,
				"z": 1.4370493862,
				"element": "C" 
			},
			{
				"x": -1.6950587915,
				"y": -0.2377658895,
				"z": 1.0991751259,
				"element": "C" 
			},
			{
				"x": -1.1366522628,
				"y": -1.1976162273,
				"z": 0.2700744298,
				"element": "C" 
			},
			{
				"x": 0.1322602105,
				"y": -0.9316120133,
				"z": -0.2400231738,
				"element": "C" 
			},
			{
				"x": 0.6556468421,
				"y": -1.9616610059,
				"z": -1.1639022426,
				"element": "N" 
			},
			{
				"x": 0.3474732699,
				"y": -3.1277128092,
				"z": -0.9312062316,
				"element": "O" 
			},
			{
				"x": 1.3338030705,
				"y": -1.5924353077,
				"z": -2.1226283797,
				"element": "O" 
			},
			{
				"x": -3.0436245892,
				"y": -0.4681161661,
				"z": 1.6474235741,
				"element": "N" 
			},
			{
				"x": -3.6192262736,
				"y": -1.503979015,
				"z": 1.3232466653,
				"element": "O" 
			},
			{
				"x": -3.5060242216,
				"y": 0.3921002604,
				"z": 2.3959618799,
				"element": "O" 
			},
			{
				"x": 2.2868196879,
				"y": 1.386523219,
				"z": -1.0599760031,
				"element": "H" 
			},
			{
				"x": 2.703442261,
				"y": -0.3220612178,
				"z": -0.9716474093,
				"element": "H" 
			},
			{
				"x": 2.931234093,
				"y": 0.7143297938,
				"z": 0.4448494356,
				"element": "H" 
			},
			{
				"x": 1.903471746,
				"y": 2.3853441916,
				"z": 1.1423715157,
				"element": "H" 
			},
			{
				"x": 0.5511319428,
				"y": 2.8640005983,
				"z": 2.0347129398,
				"element": "H" 
			},
			{
				"x": -1.5167993589,
				"y": 1.6477664584,
				"z": 2.0887523142,
				"element": "H" 
			},
			{
				"x": -1.6631057266,
				"y": -2.1080802991,
				"z": 0.0239271887,
				"element": "H" 
			}
		],
		 "valence_orbital": [ 
			{
				"type": "occ",
				"energy": -0.31307,
				"method": "rhf"
			},
			{
				"type": "occ",
				"energy": -0.30878,
				"method": "rhf"
			},
			{
				"type": "occ",
				"energy": -0.29954,
				"method": "rhf"
			},
			{
				"type": "occ",
				"energy": -0.28627,
				"method": "rhf"
			},
			{
				"type": "occ",
				"energy": -0.24323,
				"method": "rhf"
			},
			{
				"type": "unocc",
				"energy": -0.10101,
				"method": "rhf"
			},
			{
				"type": "unocc",
				"energy": -0.08953,
				"method": "rhf"
			},
			{
				"type": "unocc",
				"energy": -0.01723,
				"method": "rhf"
			},
			{
				"type": "unocc",
				"energy": -0.0038,
				"method": "rhf"
			},
			{
				"type": "unocc",
				"energy": 0.04974,
				"method": "rhf"
			}
		],
		"cosmo_sigma_profile": { 
			"-0.025": 0.0,
			"-0.024": 0.0,
			"-0.023": 0.0,
			"-0.022": 0.0,
			"-0.021": 0.0,
			"-0.02": 0.0,
			"-0.019": 0.0,
			"-0.018": 0.0,
			"-0.017": 0.0,
			"-0.016": 0.0,
			"-0.015": 0.0538235028313,
			"-0.014": 1.79778156503,
			"-0.013": 2.92946259323,
			"-0.012": 2.61286620187,
			"-0.011": 3.21015502373,
			"-0.01": 3.69657156792,
			"-0.009": 3.07371117381,
			"-0.008": 4.06977265092,
			"-0.007": 6.05557910911,
			"-0.006": 8.87804778307,
			"-0.005": 9.58218702346,
			"-0.004": 12.1345314831,
			"-0.003": 11.6813783272,
			"-0.002": 16.9805110079,
			"-0.001": 21.0374265265,
			"0.0": 15.3225581548,
			"0.001": 8.01119874106,
			"0.002": 6.64729302419,
			"0.003": 7.20351325523,
			"0.004": 5.17220862777,
			"0.005": 7.35414049205,
			"0.006": 10.0526177626,
			"0.007": 19.2376408887,
			"0.008": 11.9903611549,
			"0.009": 8.76398942217,
			"0.01": 2.96373282755,
			"0.011": 0.506827204513,
			"0.012": 0.0580798908104,
			"0.013": 0.0,
			"0.014": 0.0,
			"0.015": 0.0,
			"0.016": 0.0,
			"0.017": 0.0,
			"0.018": 0.0,
			"0.019": 0.0,
			"0.02": 0.0,
			"0.021": 0.0,
			"0.022": 0.0,
			"0.023": 0.0,
			"0.024": 0.0,
			"0.025": 0.0
		}
	}
}
