{
	 "smiles": "OC(=O)CN1N=C(OC1=O)C1=CC=C(F)C=C1", 
	 "Tm": 384.15, 
	 "num_atms": 24, 
	 "gaussian": { 
		 "optdone": 1, 
		 "sigma_profile": "yes", 
		 "theory": "DFT", 
		 "functional": "B3LYP", 
		 "basiset": "6-31G**", 
		 "properties": { 
			 "R2extent": 5717.4215, 
			 "electric_dipole_moment_norm": 2.99802674104, 
			 "electric_quadrupole_moment_norm": 15.5736233908, 
			 "total_energy": -895.522307906, 
			 "HOMO_LUMO_gap": 0.17708, 
			 "cosmo_polarized_energy": -15.95, 
			 "cosmo_cavitation_energy": 31.43, 
			 "cosmo_dispersion_energy": -22.4, 
			 "cosmo_repulsion_energy": 1.72, 
			 "cosmo_total_nonelectrostatic_energy": 10.75, 
			 "SMD_solvation_energy": 7.55 
		},
		"coords": [
			{
				"x": -0.0209511287,
				"y": 2.4930389009,
				"z": 3.6171439412,
				"element": "O" 
			},
			{
				"x": 0.5158796348,
				"y": 1.842602903,
				"z": 2.5628259047,
				"element": "C" 
			},
			{
				"x": 1.3841415144,
				"y": 1.0098150882,
				"z": 2.6468594004,
				"element": "O" 
			},
			{
				"x": -0.1217893365,
				"y": 2.3313212714,
				"z": 1.2639148292,
				"element": "C" 
			},
			{
				"x": 0.2980711855,
				"y": 1.5547790553,
				"z": 0.1326153732,
				"element": "N" 
			},
			{
				"x": -0.2068946236,
				"y": 0.2891282576,
				"z": -0.0971261318,
				"element": "N" 
			},
			{
				"x": 0.5602572952,
				"y": -0.1889273924,
				"z": -1.022967104,
				"element": "C" 
			},
			{
				"x": 1.5587565988,
				"y": 0.6680055352,
				"z": -1.4043085955,
				"element": "O" 
			},
			{
				"x": 1.421902689,
				"y": 1.8107786987,
				"z": -0.6160713028,
				"element": "C" 
			},
			{
				"x": 2.1388514124,
				"y": 2.7779135389,
				"z": -0.6517288489,
				"element": "O" 
			},
			{
				"x": 0.4603792768,
				"y": -1.4911693133,
				"z": -1.6680841246,
				"element": "C" 
			},
			{
				"x": 1.3804329656,
				"y": -1.8684516579,
				"z": -2.6585530692,
				"element": "C" 
			},
			{
				"x": 1.2815411909,
				"y": -3.1157247389,
				"z": -3.2697618683,
				"element": "C" 
			},
			{
				"x": 0.2583769318,
				"y": -3.9729797649,
				"z": -2.8800168659,
				"element": "C" 
			},
			{
				"x": 0.1580887559,
				"y": -5.1793763937,
				"z": -3.4682239131,
				"element": "F" 
			},
			{
				"x": -0.6682328616,
				"y": -3.6240419743,
				"z": -1.8996007012,
				"element": "C" 
			},
			{
				"x": -0.5638954447,
				"y": -2.3781081141,
				"z": -1.293759558,
				"element": "C" 
			},
			{
				"x": 0.4361929928,
				"y": 2.1656307491,
				"z": 4.4101918156,
				"element": "H" 
			},
			{
				"x": 0.1804398406,
				"y": 3.3688912606,
				"z": 1.0936741084,
				"element": "H" 
			},
			{
				"x": -1.2105635025,
				"y": 2.3016651876,
				"z": 1.3523043867,
				"element": "H" 
			},
			{
				"x": 2.1707506511,
				"y": -1.1841492066,
				"z": -2.9461028345,
				"element": "H" 
			},
			{
				"x": 1.9808954902,
				"y": -3.4289812918,
				"z": -4.0368206729,
				"element": "H" 
			},
			{
				"x": -1.4492387583,
				"y": -4.3252804227,
				"z": -1.627440163,
				"element": "H" 
			},
			{
				"x": -1.2708927699,
				"y": -2.0802801758,
				"z": -0.5270640058,
				"element": "H" 
			}
		],
		 "valence_orbital": [ 
			{
				"type": "occ",
				"energy": -0.29716,
				"method": "rhf"
			},
			{
				"type": "occ",
				"energy": -0.29134,
				"method": "rhf"
			},
			{
				"type": "occ",
				"energy": -0.28025,
				"method": "rhf"
			},
			{
				"type": "occ",
				"energy": -0.27672,
				"method": "rhf"
			},
			{
				"type": "occ",
				"energy": -0.23002,
				"method": "rhf"
			},
			{
				"type": "unocc",
				"energy": -0.05294,
				"method": "rhf"
			},
			{
				"type": "unocc",
				"energy": -0.02535,
				"method": "rhf"
			},
			{
				"type": "unocc",
				"energy": -0.00636,
				"method": "rhf"
			},
			{
				"type": "unocc",
				"energy": 0.03337,
				"method": "rhf"
			},
			{
				"type": "unocc",
				"energy": 0.0483,
				"method": "rhf"
			}
		],
		"cosmo_sigma_profile": { 
			"-0.025": 0.0,
			"-0.024": 0.0,
			"-0.023": 0.0,
			"-0.022": 0.0,
			"-0.021": 0.0,
			"-0.02": 0.0,
			"-0.019": 0.605309490147,
			"-0.018": 1.05869402265,
			"-0.017": 0.800486190988,
			"-0.016": 0.888834130654,
			"-0.015": 1.02719610162,
			"-0.014": 0.521606887939,
			"-0.013": 0.397212918963,
			"-0.012": 0.899868047335,
			"-0.011": 0.949117327002,
			"-0.01": 1.90721507391,
			"-0.009": 4.34723809415,
			"-0.008": 7.4330466131,
			"-0.007": 11.4163178254,
			"-0.006": 11.8247099668,
			"-0.005": 12.863211347,
			"-0.004": 10.8501482161,
			"-0.003": 14.0958826054,
			"-0.002": 14.0145221311,
			"-0.001": 17.8395193294,
			"0.0": 20.7625470628,
			"0.001": 20.2229259668,
			"0.002": 20.9408824222,
			"0.003": 13.9515165109,
			"0.004": 16.0234351382,
			"0.005": 5.78622195156,
			"0.006": 5.50270477372,
			"0.007": 6.2291947998,
			"0.008": 6.1254822635,
			"0.009": 4.82598717604,
			"0.01": 6.21611598179,
			"0.011": 10.0052909977,
			"0.012": 2.56737883474,
			"0.013": 0.0269191606167,
			"0.014": 0.0,
			"0.015": 0.0,
			"0.016": 0.0,
			"0.017": 0.0,
			"0.018": 0.0,
			"0.019": 0.0,
			"0.02": 0.0,
			"0.021": 0.0,
			"0.022": 0.0,
			"0.023": 0.0,
			"0.024": 0.0,
			"0.025": 0.0
		}
	}
}
