{
	 "smiles": "FC1=CC(=CC=C1C(F)(F)F)C(=O)C1=CC=CC=C1", 
	 "Tm": 339.15, 
	 "num_atms": 27, 
	 "gaussian": { 
		 "optdone": 1, 
		 "sigma_profile": "yes", 
		 "theory": "DFT", 
		 "functional": "B3LYP", 
		 "basiset": "6-31G**", 
		 "properties": { 
			 "R2extent": 6789.9411, 
			 "electric_dipole_moment_norm": 3.11676777768, 
			 "electric_quadrupole_moment_norm": 16.5083784694, 
			 "total_energy": -1012.89534647, 
			 "HOMO_LUMO_gap": 0.17582, 
			 "cosmo_polarized_energy": -8.46, 
			 "cosmo_cavitation_energy": 33.94, 
			 "cosmo_dispersion_energy": -23.83, 
			 "cosmo_repulsion_energy": 1.73, 
			 "cosmo_total_nonelectrostatic_energy": 11.84, 
			 "SMD_solvation_energy": 7.73 
		},
		"coords": [
			{
				"x": 3.3289787473,
				"y": 0.8810743013,
				"z": 0.884439411,
				"element": "F" 
			},
			{
				"x": 1.9922891949,
				"y": 1.0271233045,
				"z": 0.8503292444,
				"element": "C" 
			},
			{
				"x": 1.2221828096,
				"y": 0.0072224149,
				"z": 0.3099163925,
				"element": "C" 
			},
			{
				"x": -0.1726227659,
				"y": 0.1452779179,
				"z": 0.2825632429,
				"element": "C" 
			},
			{
				"x": -0.7608919239,
				"y": 1.3029336467,
				"z": 0.8123511422,
				"element": "C" 
			},
			{
				"x": 0.030496607,
				"y": 2.3218130103,
				"z": 1.3323201542,
				"element": "C" 
			},
			{
				"x": 1.4228385524,
				"y": 2.1959047422,
				"z": 1.3583328952,
				"element": "C" 
			},
			{
				"x": 2.3052036454,
				"y": 3.2790780962,
				"z": 1.9225096826,
				"element": "C" 
			},
			{
				"x": 3.0378874862,
				"y": 2.8317725129,
				"z": 2.9626905292,
				"element": "F" 
			},
			{
				"x": 3.1684338795,
				"y": 3.7472756896,
				"z": 0.9971684862,
				"element": "F" 
			},
			{
				"x": 1.5770302957,
				"y": 4.3280749419,
				"z": 2.3624107781,
				"element": "F" 
			},
			{
				"x": -1.0876559424,
				"y": -0.9450617459,
				"z": -0.2128025494,
				"element": "C" 
			},
			{
				"x": -2.2015283587,
				"y": -1.0547494168,
				"z": 0.2849103669,
				"element": "O" 
			},
			{
				"x": -0.6443240682,
				"y": -1.883441051,
				"z": -1.2915801725,
				"element": "C" 
			},
			{
				"x": -1.2582663696,
				"y": -3.1458891235,
				"z": -1.34851851,
				"element": "C" 
			},
			{
				"x": -0.9218037858,
				"y": -4.0482708689,
				"z": -2.3523342389,
				"element": "C" 
			},
			{
				"x": 0.0141322172,
				"y": -3.6915577992,
				"z": -3.3285745893,
				"element": "C" 
			},
			{
				"x": 0.6100936556,
				"y": -2.429859615,
				"z": -3.296479477,
				"element": "C" 
			},
			{
				"x": 0.2883583719,
				"y": -1.5299744337,
				"z": -2.2798573123,
				"element": "C" 
			},
			{
				"x": 1.7175660251,
				"y": -0.8835809303,
				"z": -0.0572956272,
				"element": "H" 
			},
			{
				"x": -1.8418489538,
				"y": 1.3829661646,
				"z": 0.8115339731,
				"element": "H" 
			},
			{
				"x": -0.4226770034,
				"y": 3.2228727515,
				"z": 1.7288185054,
				"element": "H" 
			},
			{
				"x": -1.9967975983,
				"y": -3.3951315792,
				"z": -0.5939696031,
				"element": "H" 
			},
			{
				"x": -1.3907734365,
				"y": -5.0273762762,
				"z": -2.3803959255,
				"element": "H" 
			},
			{
				"x": 0.2727177943,
				"y": -4.3940011722,
				"z": -4.1157187074,
				"element": "H" 
			},
			{
				"x": 1.3231597402,
				"y": -2.1439176153,
				"z": -4.0639268605,
				"element": "H" 
			},
			{
				"x": 0.7418211842,
				"y": -0.5444778674,
				"z": -2.2731412308,
				"element": "H" 
			}
		],
		 "valence_orbital": [ 
			{
				"type": "occ",
				"energy": -0.28652,
				"method": "rhf"
			},
			{
				"type": "occ",
				"energy": -0.27377,
				"method": "rhf"
			},
			{
				"type": "occ",
				"energy": -0.26916,
				"method": "rhf"
			},
			{
				"type": "occ",
				"energy": -0.26848,
				"method": "rhf"
			},
			{
				"type": "occ",
				"energy": -0.25779,
				"method": "rhf"
			},
			{
				"type": "unocc",
				"energy": -0.08197,
				"method": "rhf"
			},
			{
				"type": "unocc",
				"energy": -0.03625,
				"method": "rhf"
			},
			{
				"type": "unocc",
				"energy": -0.02405,
				"method": "rhf"
			},
			{
				"type": "unocc",
				"energy": -0.0167,
				"method": "rhf"
			},
			{
				"type": "unocc",
				"energy": 0.03744,
				"method": "rhf"
			}
		],
		"cosmo_sigma_profile": { 
			"-0.025": 0.0,
			"-0.024": 0.0,
			"-0.023": 0.0,
			"-0.022": 0.0,
			"-0.021": 0.0,
			"-0.02": 0.0,
			"-0.019": 0.0,
			"-0.018": 0.0,
			"-0.017": 0.0,
			"-0.016": 0.0,
			"-0.015": 0.0,
			"-0.014": 0.0,
			"-0.013": 0.0,
			"-0.012": 0.0,
			"-0.011": 0.0,
			"-0.01": 0.0,
			"-0.009": 0.0543025316794,
			"-0.008": 2.05119211886,
			"-0.007": 6.34885481079,
			"-0.006": 15.4311537777,
			"-0.005": 17.7189150705,
			"-0.004": 18.978549678,
			"-0.003": 16.7793150216,
			"-0.002": 19.3486358819,
			"-0.001": 23.8625920709,
			"0.0": 20.5872991477,
			"0.001": 22.7406339717,
			"0.002": 37.8820291421,
			"0.003": 41.0472477546,
			"0.004": 13.610627971,
			"0.005": 2.41673282649,
			"0.006": 1.52933225617,
			"0.007": 1.84525848404,
			"0.008": 1.5518141297,
			"0.009": 2.25661687949,
			"0.01": 1.91771267208,
			"0.011": 4.06855662191,
			"0.012": 2.01408231209,
			"0.013": 0.0,
			"0.014": 0.0,
			"0.015": 0.0,
			"0.016": 0.0,
			"0.017": 0.0,
			"0.018": 0.0,
			"0.019": 0.0,
			"0.02": 0.0,
			"0.021": 0.0,
			"0.022": 0.0,
			"0.023": 0.0,
			"0.024": 0.0,
			"0.025": 0.0
		}
	}
}
