{
	 "smiles": "CC(C)(C)OC(=O)N1CCC(CC1)OC(=O)C1=CC(N)=CC=C1", 
	 "Tm": 398.15, 
	 "num_atms": 47, 
	 "gaussian": { 
		 "optdone": 1, 
		 "sigma_profile": "yes", 
		 "theory": "DFT", 
		 "functional": "B3LYP", 
		 "basiset": "6-31G**", 
		 "properties": { 
			 "R2extent": 11952.9804, 
			 "electric_dipole_moment_norm": 3.6807937989, 
			 "electric_quadrupole_moment_norm": 15.2916216279, 
			 "total_energy": -1072.73435879, 
			 "HOMO_LUMO_gap": 0.169, 
			 "cosmo_polarized_energy": -17.84, 
			 "cosmo_cavitation_energy": 48.53, 
			 "cosmo_dispersion_energy": -33.59, 
			 "cosmo_repulsion_energy": 2.59, 
			 "cosmo_total_nonelectrostatic_energy": 17.53, 
			 "SMD_solvation_energy": 8.81 
		},
		"coords": [
			{
				"x": -3.1586711384,
				"y": 3.5126392655,
				"z": 1.9981575458,
				"element": "C" 
			},
			{
				"x": -1.8857932225,
				"y": 4.0703219325,
				"z": 1.3549186288,
				"element": "C" 
			},
			{
				"x": -0.7915225755,
				"y": 4.2755965661,
				"z": 2.4083956943,
				"element": "C" 
			},
			{
				"x": -2.1899766199,
				"y": 5.3551048835,
				"z": 0.5765402299,
				"element": "C" 
			},
			{
				"x": -1.4994846881,
				"y": 2.9959537027,
				"z": 0.4295014699,
				"element": "O" 
			},
			{
				"x": -0.4010933755,
				"y": 3.1185562784,
				"z": -0.3597680042,
				"element": "C" 
			},
			{
				"x": 0.3684121567,
				"y": 4.0714075307,
				"z": -0.3650460451,
				"element": "O" 
			},
			{
				"x": -0.264384335,
				"y": 2.0179987604,
				"z": -1.16202502,
				"element": "N" 
			},
			{
				"x": -1.1873064282,
				"y": 0.8740707391,
				"z": -1.1075215959,
				"element": "C" 
			},
			{
				"x": -0.9850070647,
				"y": -0.0104849918,
				"z": -2.337962188,
				"element": "C" 
			},
			{
				"x": 0.4509726568,
				"y": -0.5450612182,
				"z": -2.44919799,
				"element": "C" 
			},
			{
				"x": 1.4853749471,
				"y": 0.4986936818,
				"z": -1.9842798615,
				"element": "C" 
			},
			{
				"x": 0.9206648805,
				"y": 1.9216386478,
				"z": -2.0186981023,
				"element": "C" 
			},
			{
				"x": 0.6322478637,
				"y": -1.7016142568,
				"z": -1.5875578049,
				"element": "O" 
			},
			{
				"x": 0.2316560851,
				"y": -2.9003947979,
				"z": -2.0800296501,
				"element": "C" 
			},
			{
				"x": -0.2756718787,
				"y": -3.0332510073,
				"z": -3.1783733551,
				"element": "O" 
			},
			{
				"x": 0.4838018622,
				"y": -4.0228900751,
				"z": -1.131061919,
				"element": "C" 
			},
			{
				"x": 1.0728463517,
				"y": -3.8123547735,
				"z": 0.1201182334,
				"element": "C" 
			},
			{
				"x": 1.2948152992,
				"y": -4.889421659,
				"z": 0.9918535492,
				"element": "C" 
			},
			{
				"x": 1.9349243663,
				"y": -4.6931104468,
				"z": 2.2163556604,
				"element": "N" 
			},
			{
				"x": 0.9117441063,
				"y": -6.1787657168,
				"z": 0.5800264003,
				"element": "C" 
			},
			{
				"x": 0.3251137031,
				"y": -6.3800250609,
				"z": -0.6678946028,
				"element": "C" 
			},
			{
				"x": 0.1051820503,
				"y": -5.310681445,
				"z": -1.5328939267,
				"element": "C" 
			},
			{
				"x": -3.9261405619,
				"y": 3.3285454755,
				"z": 1.2405419355,
				"element": "H" 
			},
			{
				"x": -2.950005306,
				"y": 2.570380043,
				"z": 2.5133249466,
				"element": "H" 
			},
			{
				"x": -3.5556880271,
				"y": 4.2256527263,
				"z": 2.7268879794,
				"element": "H" 
			},
			{
				"x": -1.1333324547,
				"y": 4.9958067316,
				"z": 3.1590671405,
				"element": "H" 
			},
			{
				"x": -0.5746882015,
				"y": 3.3313260703,
				"z": 2.9183151285,
				"element": "H" 
			},
			{
				"x": 0.1240454999,
				"y": 4.6488135119,
				"z": 1.9495555811,
				"element": "H" 
			},
			{
				"x": -1.2902241459,
				"y": 5.7436385724,
				"z": 0.0994134549,
				"element": "H" 
			},
			{
				"x": -2.9455695307,
				"y": 5.1629926591,
				"z": -0.1920563287,
				"element": "H" 
			},
			{
				"x": -2.5862859359,
				"y": 6.1137330681,
				"z": 1.259471617,
				"element": "H" 
			},
			{
				"x": -2.2141869926,
				"y": 1.2436797868,
				"z": -1.0675710995,
				"element": "H" 
			},
			{
				"x": -1.0221539059,
				"y": 0.2873508738,
				"z": -0.1930968001,
				"element": "H" 
			},
			{
				"x": -1.2092140273,
				"y": 0.56854101,
				"z": -3.241586812,
				"element": "H" 
			},
			{
				"x": -1.6864144567,
				"y": -0.8481646271,
				"z": -2.3242933939,
				"element": "H" 
			},
			{
				"x": 0.6315244704,
				"y": -0.8726510736,
				"z": -3.4751892872,
				"element": "H" 
			},
			{
				"x": 1.7717259546,
				"y": 0.2597731502,
				"z": -0.9546302529,
				"element": "H" 
			},
			{
				"x": 2.3935833487,
				"y": 0.4417784987,
				"z": -2.5924496095,
				"element": "H" 
			},
			{
				"x": 0.6766065283,
				"y": 2.2139882235,
				"z": -3.0505585609,
				"element": "H" 
			},
			{
				"x": 1.6495375064,
				"y": 2.6427518192,
				"z": -1.6480658545,
				"element": "H" 
			},
			{
				"x": 1.3628194827,
				"y": -2.8090493991,
				"z": 0.4131942212,
				"element": "H" 
			},
			{
				"x": 1.7467920199,
				"y": -5.3934732581,
				"z": 2.9200892859,
				"element": "H" 
			},
			{
				"x": 1.8742892169,
				"y": -3.755913852,
				"z": 2.5894073342,
				"element": "H" 
			},
			{
				"x": 1.0817202386,
				"y": -7.0229833086,
				"z": 1.2440525719,
				"element": "H" 
			},
			{
				"x": 0.036180526,
				"y": -7.3844941021,
				"z": -0.9635842792,
				"element": "H" 
			},
			{
				"x": -0.3505662486,
				"y": -5.446649139,
				"z": -2.5064962648,
				"element": "H" 
			}
		],
		 "valence_orbital": [ 
			{
				"type": "occ",
				"energy": -0.2697,
				"method": "rhf"
			},
			{
				"type": "occ",
				"energy": -0.25594,
				"method": "rhf"
			},
			{
				"type": "occ",
				"energy": -0.25479,
				"method": "rhf"
			},
			{
				"type": "occ",
				"energy": -0.2311,
				"method": "rhf"
			},
			{
				"type": "occ",
				"energy": -0.21005,
				"method": "rhf"
			},
			{
				"type": "unocc",
				"energy": -0.04105,
				"method": "rhf"
			},
			{
				"type": "unocc",
				"energy": 0.00806,
				"method": "rhf"
			},
			{
				"type": "unocc",
				"energy": 0.058,
				"method": "rhf"
			},
			{
				"type": "unocc",
				"energy": 0.06194,
				"method": "rhf"
			},
			{
				"type": "unocc",
				"energy": 0.0783,
				"method": "rhf"
			}
		],
		"cosmo_sigma_profile": { 
			"-0.025": 0.0,
			"-0.024": 0.0,
			"-0.023": 0.0,
			"-0.022": 0.0,
			"-0.021": 0.0,
			"-0.02": 0.0,
			"-0.019": 0.0,
			"-0.018": 0.0,
			"-0.017": 0.0,
			"-0.016": 0.0,
			"-0.015": 0.0,
			"-0.014": 0.0,
			"-0.013": 0.60170670754,
			"-0.012": 2.92724491425,
			"-0.011": 2.92049240942,
			"-0.01": 2.791687752,
			"-0.009": 3.47351169281,
			"-0.008": 2.81712890958,
			"-0.007": 4.55514469341,
			"-0.006": 5.48099238395,
			"-0.005": 17.8628561869,
			"-0.004": 35.7100006771,
			"-0.003": 42.4640976006,
			"-0.002": 37.0848046399,
			"-0.001": 33.4000785563,
			"0.0": 35.6971344386,
			"0.001": 33.4745626975,
			"0.002": 22.1627416381,
			"0.003": 18.7636976231,
			"0.004": 17.9534891475,
			"0.005": 17.7400183938,
			"0.006": 8.26611364213,
			"0.007": 5.2059222076,
			"0.008": 4.00582265762,
			"0.009": 3.71003435521,
			"0.01": 3.2516295657,
			"0.011": 4.3055154308,
			"0.012": 6.82126652699,
			"0.013": 3.56925305679,
			"0.014": 2.71365842968,
			"0.015": 0.101526596206,
			"0.016": 0.0,
			"0.017": 0.0,
			"0.018": 0.0,
			"0.019": 0.0,
			"0.02": 0.0,
			"0.021": 0.0,
			"0.022": 0.0,
			"0.023": 0.0,
			"0.024": 0.0,
			"0.025": 0.0
		}
	}
}
