{
	 "smiles": "OC(=O)C1=NN(C(=O)C=C1)C1=CC=C(F)C=C1", 
	 "Tm": 513.15, 
	 "num_atms": 24, 
	 "gaussian": { 
		 "optdone": 1, 
		 "sigma_profile": "yes", 
		 "theory": "DFT", 
		 "functional": "B3LYP", 
		 "basiset": "6-31G**", 
		 "properties": { 
			 "R2extent": 4725.1748, 
			 "electric_dipole_moment_norm": 1.83643924212, 
			 "electric_quadrupole_moment_norm": 18.1574176278, 
			 "total_energy": -858.381497067, 
			 "HOMO_LUMO_gap": 0.14931, 
			 "cosmo_polarized_energy": -15.43, 
			 "cosmo_cavitation_energy": 30.45, 
			 "cosmo_dispersion_energy": -21.93, 
			 "cosmo_repulsion_energy": 1.65, 
			 "cosmo_total_nonelectrostatic_energy": 10.17, 
			 "SMD_solvation_energy": 7.4 
		},
		"coords": [
			{
				"x": -1.8368527159,
				"y": -2.4270594273,
				"z": -1.9792017036,
				"element": "O" 
			},
			{
				"x": -2.6075518635,
				"y": -1.3408605568,
				"z": -2.1578987658,
				"element": "C" 
			},
			{
				"x": -3.5621875645,
				"y": -1.3290164395,
				"z": -2.9005780933,
				"element": "O" 
			},
			{
				"x": -2.1999143656,
				"y": -0.1311760031,
				"z": -1.366459146,
				"element": "C" 
			},
			{
				"x": -1.1314111517,
				"y": -0.2616562587,
				"z": -0.6207844716,
				"element": "N" 
			},
			{
				"x": -0.7133743971,
				"y": 0.7723527871,
				"z": 0.1206462638,
				"element": "N" 
			},
			{
				"x": -1.3709605403,
				"y": 2.0496848437,
				"z": 0.166984641,
				"element": "C" 
			},
			{
				"x": -0.9497170917,
				"y": 2.9542543635,
				"z": 0.8710412831,
				"element": "O" 
			},
			{
				"x": -2.5440083518,
				"y": 2.1316664359,
				"z": -0.6907481847,
				"element": "C" 
			},
			{
				"x": -2.9554468178,
				"y": 1.0779974746,
				"z": -1.437821616,
				"element": "C" 
			},
			{
				"x": 0.5130295619,
				"y": 0.5468829792,
				"z": 0.8403754103,
				"element": "C" 
			},
			{
				"x": 0.6680487211,
				"y": 0.9987840327,
				"z": 2.1556736555,
				"element": "C" 
			},
			{
				"x": 1.8550938306,
				"y": 0.738859293,
				"z": 2.8363301089,
				"element": "C" 
			},
			{
				"x": 2.8657232521,
				"y": 0.0325210945,
				"z": 2.1932509558,
				"element": "C" 
			},
			{
				"x": 4.0117752695,
				"y": -0.2164481655,
				"z": 2.8534342737,
				"element": "F" 
			},
			{
				"x": 2.728396512,
				"y": -0.4216798617,
				"z": 0.8859170225,
				"element": "C" 
			},
			{
				"x": 1.5427163376,
				"y": -0.1563583006,
				"z": 0.2063951851,
				"element": "C" 
			},
			{
				"x": -1.1448702382,
				"y": -2.1985053875,
				"z": -1.3313530034,
				"element": "H" 
			},
			{
				"x": -3.0546539583,
				"y": 3.0880481395,
				"z": -0.6901962823,
				"element": "H" 
			},
			{
				"x": -3.8262954897,
				"y": 1.1095201335,
				"z": -2.0829315537,
				"element": "H" 
			},
			{
				"x": -0.1235497104,
				"y": 1.5551402065,
				"z": 2.6376418419,
				"element": "H" 
			},
			{
				"x": 2.0018653673,
				"y": 1.0756632422,
				"z": 3.8563480094,
				"element": "H" 
			},
			{
				"x": 3.5417196288,
				"y": -0.9621431041,
				"z": 0.4149453665,
				"element": "H" 
			},
			{
				"x": 1.4134257756,
				"y": -0.4916715211,
				"z": -0.8161111972,
				"element": "H" 
			}
		],
		 "valence_orbital": [ 
			{
				"type": "occ",
				"energy": -0.2927,
				"method": "rhf"
			},
			{
				"type": "occ",
				"energy": -0.28141,
				"method": "rhf"
			},
			{
				"type": "occ",
				"energy": -0.28081,
				"method": "rhf"
			},
			{
				"type": "occ",
				"energy": -0.27289,
				"method": "rhf"
			},
			{
				"type": "occ",
				"energy": -0.24658,
				"method": "rhf"
			},
			{
				"type": "unocc",
				"energy": -0.09727,
				"method": "rhf"
			},
			{
				"type": "unocc",
				"energy": -0.05437,
				"method": "rhf"
			},
			{
				"type": "unocc",
				"energy": -0.0294,
				"method": "rhf"
			},
			{
				"type": "unocc",
				"energy": -0.01553,
				"method": "rhf"
			},
			{
				"type": "unocc",
				"energy": 0.04168,
				"method": "rhf"
			}
		],
		"cosmo_sigma_profile": { 
			"-0.025": 0.0,
			"-0.024": 0.0,
			"-0.023": 0.0,
			"-0.022": 0.0,
			"-0.021": 0.0,
			"-0.02": 0.0,
			"-0.019": 0.0,
			"-0.018": 0.0,
			"-0.017": 0.0,
			"-0.016": 0.0,
			"-0.015": 0.240649124952,
			"-0.014": 0.662177690147,
			"-0.013": 0.519130451466,
			"-0.012": 0.642390693901,
			"-0.011": 0.717277988432,
			"-0.01": 0.680486139871,
			"-0.009": 2.81971358983,
			"-0.008": 7.71684898172,
			"-0.007": 12.8072064035,
			"-0.006": 15.9093202799,
			"-0.005": 18.0466005181,
			"-0.004": 16.0660044206,
			"-0.003": 16.6065861698,
			"-0.002": 14.5154385616,
			"-0.001": 14.9095474197,
			"0.0": 18.130707791,
			"0.001": 15.0372842082,
			"0.002": 17.2842411534,
			"0.003": 13.3650896469,
			"0.004": 13.7966562507,
			"0.005": 4.36931915789,
			"0.006": 4.38678147787,
			"0.007": 3.76131193125,
			"0.008": 4.02493237136,
			"0.009": 6.600896237,
			"0.01": 6.614173418,
			"0.011": 7.46496209826,
			"0.012": 6.18888475668,
			"0.013": 2.2086004088,
			"0.014": 0.0473085382163,
			"0.015": 0.0,
			"0.016": 0.0,
			"0.017": 0.0,
			"0.018": 0.0,
			"0.019": 0.0,
			"0.02": 0.0,
			"0.021": 0.0,
			"0.022": 0.0,
			"0.023": 0.0,
			"0.024": 0.0,
			"0.025": 0.0
		}
	}
}
