{
	 "smiles": "COC1=CC=C(C=C1)C1=CC(=O)C2=C(O)C=C(O)C=C2O1", 
	 "Tm": 536.15, 
	 "num_atms": 33, 
	 "gaussian": { 
		 "optdone": 1, 
		 "sigma_profile": "yes", 
		 "theory": "DFT", 
		 "functional": "B3LYP", 
		 "basiset": "6-31G**", 
		 "properties": { 
			 "R2extent": 9153.0531, 
			 "electric_dipole_moment_norm": 5.55097804806, 
			 "electric_quadrupole_moment_norm": 25.6717352557, 
			 "total_energy": -993.055280841, 
			 "HOMO_LUMO_gap": 0.15239, 
			 "cosmo_polarized_energy": -16.68, 
			 "cosmo_cavitation_energy": 37.6, 
			 "cosmo_dispersion_energy": -28.15, 
			 "cosmo_repulsion_energy": 2.08, 
			 "cosmo_total_nonelectrostatic_energy": 11.54, 
			 "SMD_solvation_energy": 8.4 
		},
		"coords": [
			{
				"x": -6.0474270662,
				"y": -1.946438475,
				"z": -3.2023973025,
				"element": "C" 
			},
			{
				"x": -5.5244811624,
				"y": -2.5915400888,
				"z": -2.048589682,
				"element": "O" 
			},
			{
				"x": -4.4707648387,
				"y": -2.0216988863,
				"z": -1.4086293107,
				"element": "C" 
			},
			{
				"x": -3.9962903935,
				"y": -2.712952988,
				"z": -0.2803349951,
				"element": "C" 
			},
			{
				"x": -2.9261992963,
				"y": -2.2170226522,
				"z": 0.4432220545,
				"element": "C" 
			},
			{
				"x": -2.2926757854,
				"y": -1.0132857545,
				"z": 0.0720777898,
				"element": "C" 
			},
			{
				"x": -2.7706753233,
				"y": -0.3394283426,
				"z": -1.0616576661,
				"element": "C" 
			},
			{
				"x": -3.8478647072,
				"y": -0.8289184613,
				"z": -1.7979280761,
				"element": "C" 
			},
			{
				"x": -1.1660158441,
				"y": -0.475370232,
				"z": 0.8474624779,
				"element": "C" 
			},
			{
				"x": -0.7969682832,
				"y": -0.8554149385,
				"z": 2.1020475179,
				"element": "C" 
			},
			{
				"x": 0.3399004822,
				"y": -0.2599328068,
				"z": 2.7711337415,
				"element": "C" 
			},
			{
				"x": 0.7061364866,
				"y": -0.5986271012,
				"z": 3.9217652865,
				"element": "O" 
			},
			{
				"x": 1.0283720073,
				"y": 0.7737449545,
				"z": 2.0175120544,
				"element": "C" 
			},
			{
				"x": 2.1550202554,
				"y": 1.4541176271,
				"z": 2.5581540088,
				"element": "C" 
			},
			{
				"x": 2.6035220832,
				"y": 1.1442509731,
				"z": 3.7781049027,
				"element": "O" 
			},
			{
				"x": 2.7897956786,
				"y": 2.4466533634,
				"z": 1.8102778503,
				"element": "C" 
			},
			{
				"x": 2.3112868126,
				"y": 2.7659760291,
				"z": 0.5327717069,
				"element": "C" 
			},
			{
				"x": 2.8998468915,
				"y": 3.7258175935,
				"z": -0.2298036482,
				"element": "O" 
			},
			{
				"x": 1.204337865,
				"y": 2.1153243609,
				"z": -0.0261263622,
				"element": "C" 
			},
			{
				"x": 0.5863311533,
				"y": 1.1310820879,
				"z": 0.7330144324,
				"element": "C" 
			},
			{
				"x": -0.4930880282,
				"y": 0.4986957349,
				"z": 0.1696862529,
				"element": "O" 
			},
			{
				"x": -5.2950110664,
				"y": -1.8708817508,
				"z": -3.9971600733,
				"element": "H" 
			},
			{
				"x": -6.8728395459,
				"y": -2.5708687053,
				"z": -3.5462654757,
				"element": "H" 
			},
			{
				"x": -6.4257608655,
				"y": -0.9441025102,
				"z": -2.9664425352,
				"element": "H" 
			},
			{
				"x": -4.4814089131,
				"y": -3.6420364022,
				"z": -0.0008542134,
				"element": "H" 
			},
			{
				"x": -2.5655112468,
				"y": -2.7817529992,
				"z": 1.296174986,
				"element": "H" 
			},
			{
				"x": -2.2968494101,
				"y": 0.5853020149,
				"z": -1.3690708675,
				"element": "H" 
			},
			{
				"x": -4.1912254732,
				"y": -0.2761610253,
				"z": -2.663947447,
				"element": "H" 
			},
			{
				"x": -1.3594396753,
				"y": -1.6065166102,
				"z": 2.6403603268,
				"element": "H" 
			},
			{
				"x": 1.9995456584,
				"y": 0.4196648995,
				"z": 4.116265452,
				"element": "H" 
			},
			{
				"x": 3.6487895127,
				"y": 2.9569879501,
				"z": 2.2357351443,
				"element": "H" 
			},
			{
				"x": 3.6475622539,
				"y": 4.1015661257,
				"z": 0.2533876533,
				"element": "H" 
			},
			{
				"x": 0.8497497842,
				"y": 2.3731670157,
				"z": -1.0156459837,
				"element": "H" 
			}
		],
		 "valence_orbital": [ 
			{
				"type": "occ",
				"energy": -0.26674,
				"method": "rhf"
			},
			{
				"type": "occ",
				"energy": -0.25079,
				"method": "rhf"
			},
			{
				"type": "occ",
				"energy": -0.23662,
				"method": "rhf"
			},
			{
				"type": "occ",
				"energy": -0.22832,
				"method": "rhf"
			},
			{
				"type": "occ",
				"energy": -0.21513,
				"method": "rhf"
			},
			{
				"type": "unocc",
				"energy": -0.06274,
				"method": "rhf"
			},
			{
				"type": "unocc",
				"energy": -0.02152,
				"method": "rhf"
			},
			{
				"type": "unocc",
				"energy": -0.01479,
				"method": "rhf"
			},
			{
				"type": "unocc",
				"energy": 0.00921,
				"method": "rhf"
			},
			{
				"type": "unocc",
				"energy": 0.03456,
				"method": "rhf"
			}
		],
		"cosmo_sigma_profile": { 
			"-0.025": 0.0,
			"-0.024": 0.0,
			"-0.023": 0.0,
			"-0.022": 0.0,
			"-0.021": 0.0,
			"-0.02": 0.0,
			"-0.019": 0.158629159099,
			"-0.018": 1.4036024494,
			"-0.017": 0.718694222643,
			"-0.016": 1.05588952607,
			"-0.015": 1.30106853057,
			"-0.014": 0.922219522258,
			"-0.013": 0.956708074341,
			"-0.012": 1.19916238574,
			"-0.011": 0.613158293926,
			"-0.01": 1.15327927212,
			"-0.009": 2.16189087592,
			"-0.008": 3.76092589432,
			"-0.007": 8.26976550757,
			"-0.006": 16.7022811704,
			"-0.005": 18.3197395201,
			"-0.004": 19.2004373718,
			"-0.003": 18.1368159233,
			"-0.002": 15.7694817715,
			"-0.001": 21.7817206616,
			"0.0": 22.5037311379,
			"0.001": 27.7922930073,
			"0.002": 29.5176199007,
			"0.003": 27.199176541,
			"0.004": 17.5998088752,
			"0.005": 6.46860070207,
			"0.006": 5.00852029364,
			"0.007": 4.77030869753,
			"0.008": 5.64353758565,
			"0.009": 5.83955857592,
			"0.01": 5.80696502462,
			"0.011": 4.13332816133,
			"0.012": 2.61042377236,
			"0.013": 1.74692508985,
			"0.014": 1.57086771232,
			"0.015": 0.145888925031,
			"0.016": 0.0,
			"0.017": 0.0,
			"0.018": 0.0,
			"0.019": 0.0,
			"0.02": 0.0,
			"0.021": 0.0,
			"0.022": 0.0,
			"0.023": 0.0,
			"0.024": 0.0,
			"0.025": 0.0
		}
	}
}
