{
	 "smiles": "ClC1=NN=C(Cl)C2=C1C1CCC2CC1", 
	 "Tm": 482.65, 
	 "num_atms": 24, 
	 "gaussian": { 
		 "optdone": 1, 
		 "sigma_profile": "yes", 
		 "theory": "DFT", 
		 "functional": "B3LYP", 
		 "basiset": "6-31G**", 
		 "properties": { 
			 "R2extent": 3720.4602, 
			 "electric_dipole_moment_norm": 6.00639892531, 
			 "electric_quadrupole_moment_norm": 16.6758161228, 
			 "total_energy": -1416.95051128, 
			 "HOMO_LUMO_gap": 0.18923, 
			 "cosmo_polarized_energy": -10.31, 
			 "cosmo_cavitation_energy": 28.77, 
			 "cosmo_dispersion_energy": -21.54, 
			 "cosmo_repulsion_energy": 1.69, 
			 "cosmo_total_nonelectrostatic_energy": 8.92, 
			 "SMD_solvation_energy": 1.7 
		},
		"coords": [
			{
				"x": 0.8576707512,
				"y": 1.8622332045,
				"z": 3.4901736286,
				"element": "Cl" 
			},
			{
				"x": 0.6324658957,
				"y": 2.0274013781,
				"z": 1.7576905843,
				"element": "C" 
			},
			{
				"x": 0.7334307595,
				"y": 3.2626226218,
				"z": 1.2890923752,
				"element": "N" 
			},
			{
				"x": 0.5764083594,
				"y": 3.4820659963,
				"z": -0.0187831071,
				"element": "N" 
			},
			{
				"x": 0.322656493,
				"y": 2.46046157,
				"z": -0.8234563006,
				"element": "C" 
			},
			{
				"x": 0.1362073109,
				"y": 2.870541119,
				"z": -2.5194890035,
				"element": "Cl" 
			},
			{
				"x": 0.2027253444,
				"y": 1.1314898854,
				"z": -0.399053674,
				"element": "C" 
			},
			{
				"x": 0.3667000786,
				"y": 0.9021705331,
				"z": 0.9678283441,
				"element": "C" 
			},
			{
				"x": 0.2266228686,
				"y": -0.5433535054,
				"z": 1.3621600083,
				"element": "C" 
			},
			{
				"x": -1.1843714696,
				"y": -1.0163364729,
				"z": 0.9140322749,
				"element": "C" 
			},
			{
				"x": -1.3671125141,
				"y": -0.7607331468,
				"z": -0.6102298881,
				"element": "C" 
			},
			{
				"x": -0.0798925308,
				"y": -0.1145138921,
				"z": -1.1941472505,
				"element": "C" 
			},
			{
				"x": 1.1025966197,
				"y": -1.0961072415,
				"z": -0.9626335961,
				"element": "C" 
			},
			{
				"x": 1.285452531,
				"y": -1.3517059944,
				"z": 0.5616205525,
				"element": "C" 
			},
			{
				"x": 0.361418607,
				"y": -0.6796418698,
				"z": 2.4365551737,
				"element": "H" 
			},
			{
				"x": -1.2829459521,
				"y": -2.0816856834,
				"z": 1.1474444998,
				"element": "H" 
			},
			{
				"x": -1.9502187634,
				"y": -0.4916708883,
				"z": 1.4927407896,
				"element": "H" 
			},
			{
				"x": -1.5575521699,
				"y": -1.6973382263,
				"z": -1.1446958254,
				"element": "H" 
			},
			{
				"x": -2.2247643809,
				"y": -0.1078116747,
				"z": -0.7968263166,
				"element": "H" 
			},
			{
				"x": -0.2012321986,
				"y": 0.1074391814,
				"z": -2.2557889339,
				"element": "H" 
			},
			{
				"x": 0.8870037069,
				"y": -2.0293435915,
				"z": -1.4934335644,
				"element": "H" 
			},
			{
				"x": 2.0156346453,
				"y": -0.6837426876,
				"z": -1.4019532055,
				"element": "H" 
			},
			{
				"x": 2.2902189901,
				"y": -1.0674239147,
				"z": 0.8876902721,
				"element": "H" 
			},
			{
				"x": 1.162277018,
				"y": -2.4137167005,
				"z": 0.7985621624,
				"element": "H" 
			}
		],
		 "valence_orbital": [ 
			{
				"type": "occ",
				"energy": -0.32367,
				"method": "rhf"
			},
			{
				"type": "occ",
				"energy": -0.31517,
				"method": "rhf"
			},
			{
				"type": "occ",
				"energy": -0.29802,
				"method": "rhf"
			},
			{
				"type": "occ",
				"energy": -0.27005,
				"method": "rhf"
			},
			{
				"type": "occ",
				"energy": -0.25114,
				"method": "rhf"
			},
			{
				"type": "unocc",
				"energy": -0.06191,
				"method": "rhf"
			},
			{
				"type": "unocc",
				"energy": -0.03876,
				"method": "rhf"
			},
			{
				"type": "unocc",
				"energy": 0.02183,
				"method": "rhf"
			},
			{
				"type": "unocc",
				"energy": 0.02908,
				"method": "rhf"
			},
			{
				"type": "unocc",
				"energy": 0.05981,
				"method": "rhf"
			}
		],
		"cosmo_sigma_profile": { 
			"-0.025": 0.0,
			"-0.024": 0.0,
			"-0.023": 0.0,
			"-0.022": 0.0,
			"-0.021": 0.0,
			"-0.02": 0.0,
			"-0.019": 0.0,
			"-0.018": 0.0,
			"-0.017": 0.0,
			"-0.016": 0.0,
			"-0.015": 0.0,
			"-0.014": 0.0,
			"-0.013": 0.0,
			"-0.012": 0.0,
			"-0.011": 0.0,
			"-0.01": 0.0,
			"-0.009": 0.0,
			"-0.008": 0.0,
			"-0.007": 0.0,
			"-0.006": 0.0,
			"-0.005": 2.01819144246,
			"-0.004": 36.0165150548,
			"-0.003": 44.917783427,
			"-0.002": 28.815514223,
			"-0.001": 22.4393382464,
			"0.0": 21.0945127952,
			"0.001": 11.1531063484,
			"0.002": 11.8687860626,
			"0.003": 14.0124019783,
			"0.004": 12.5912156688,
			"0.005": 4.64912381274,
			"0.006": 3.13661489765,
			"0.007": 2.75325602616,
			"0.008": 2.30381286979,
			"0.009": 2.3180541484,
			"0.01": 2.48649355984,
			"0.011": 2.69899521982,
			"0.012": 2.8323630404,
			"0.013": 2.35620023095,
			"0.014": 1.47413053699,
			"0.015": 0.114439329324,
			"0.016": 0.0,
			"0.017": 0.0,
			"0.018": 0.0,
			"0.019": 0.0,
			"0.02": 0.0,
			"0.021": 0.0,
			"0.022": 0.0,
			"0.023": 0.0,
			"0.024": 0.0,
			"0.025": 0.0
		}
	}
}
