{
	 "smiles": "OCC1OC(OC2=CC=C(O)C=C2)C(O)C(O)C1O", 
	 "Tm": 473.15, 
	 "num_atms": 35, 
	 "gaussian": { 
		 "optdone": 1, 
		 "sigma_profile": "yes", 
		 "theory": "DFT", 
		 "functional": "B3LYP", 
		 "basiset": "6-31G**", 
		 "properties": { 
			 "R2extent": 6076.8392, 
			 "electric_dipole_moment_norm": 5.45436945393, 
			 "electric_quadrupole_moment_norm": 18.5443863304, 
			 "total_energy": -993.421385138, 
			 "HOMO_LUMO_gap": 0.19634, 
			 "cosmo_polarized_energy": -27.28, 
			 "cosmo_cavitation_energy": 36.49, 
			 "cosmo_dispersion_energy": -26.48, 
			 "cosmo_repulsion_energy": 2.04, 
			 "cosmo_total_nonelectrostatic_energy": 12.05, 
			 "SMD_solvation_energy": 6.38 
		},
		"coords": [
			{
				"x": -2.670678311,
				"y": -3.0248502203,
				"z": -2.5075410702,
				"element": "O" 
			},
			{
				"x": -1.5612328193,
				"y": -2.6900015093,
				"z": -1.6853413265,
				"element": "C" 
			},
			{
				"x": -0.659206297,
				"y": -1.6503151455,
				"z": -2.3728081155,
				"element": "C" 
			},
			{
				"x": 0.4668806302,
				"y": -1.3312156556,
				"z": -1.5395876916,
				"element": "O" 
			},
			{
				"x": 0.4007626001,
				"y": -0.2281301353,
				"z": -0.6945018605,
				"element": "C" 
			},
			{
				"x": -0.4656481355,
				"y": -0.5514261151,
				"z": 0.3954422118,
				"element": "O" 
			},
			{
				"x": -0.3140854033,
				"y": 0.1084169867,
				"z": 1.5922774479,
				"element": "C" 
			},
			{
				"x": -1.0456405563,
				"y": -0.4135470304,
				"z": 2.6697790784,
				"element": "C" 
			},
			{
				"x": -0.9687230329,
				"y": 0.1702326651,
				"z": 3.926708689,
				"element": "C" 
			},
			{
				"x": -0.1525014269,
				"y": 1.2904634442,
				"z": 4.1317708909,
				"element": "C" 
			},
			{
				"x": -0.1144814782,
				"y": 1.8231545512,
				"z": 5.395004507,
				"element": "O" 
			},
			{
				"x": 0.5721652446,
				"y": 1.8131058487,
				"z": 3.0620336789,
				"element": "C" 
			},
			{
				"x": 0.494558108,
				"y": 1.2322715832,
				"z": 1.7900916275,
				"element": "C" 
			},
			{
				"x": -0.0470605793,
				"y": 1.0915032234,
				"z": -1.4000071768,
				"element": "C" 
			},
			{
				"x": 0.994690258,
				"y": 2.0501534083,
				"z": -1.4243014878,
				"element": "O" 
			},
			{
				"x": -0.551042369,
				"y": 0.8324062142,
				"z": -2.8286423531,
				"element": "C" 
			},
			{
				"x": 0.6036934124,
				"y": 0.6678620266,
				"z": -3.6543752232,
				"element": "O" 
			},
			{
				"x": -1.4417589742,
				"y": -0.4144926569,
				"z": -2.867593647,
				"element": "C" 
			},
			{
				"x": -2.5975037705,
				"y": -0.2191602242,
				"z": -2.0423203401,
				"element": "O" 
			},
			{
				"x": -3.2729537586,
				"y": -2.2709735589,
				"z": -2.4320863967,
				"element": "H" 
			},
			{
				"x": -0.9801813384,
				"y": -3.6030794282,
				"z": -1.527691691,
				"element": "H" 
			},
			{
				"x": -1.8691203655,
				"y": -2.3095404485,
				"z": -0.706733614,
				"element": "H" 
			},
			{
				"x": -0.208456056,
				"y": -2.1091049874,
				"z": -3.2575974571,
				"element": "H" 
			},
			{
				"x": 1.421185121,
				"y": -0.0882974289,
				"z": -0.3188889438,
				"element": "H" 
			},
			{
				"x": -1.6680355356,
				"y": -1.2860851955,
				"z": 2.5001984676,
				"element": "H" 
			},
			{
				"x": -1.5301274071,
				"y": -0.2314158794,
				"z": 4.7638975252,
				"element": "H" 
			},
			{
				"x": 0.4864526321,
				"y": 2.5789428507,
				"z": 5.3968839553,
				"element": "H" 
			},
			{
				"x": 1.2031052617,
				"y": 2.6879161966,
				"z": 3.2070128351,
				"element": "H" 
			},
			{
				"x": 1.0521486336,
				"y": 1.6787176373,
				"z": 0.9745333267,
				"element": "H" 
			},
			{
				"x": -0.8652471799,
				"y": 1.5187478695,
				"z": -0.8161643934,
				"element": "H" 
			},
			{
				"x": 1.5407283937,
				"y": 1.8183308223,
				"z": -2.1928400065,
				"element": "H" 
			},
			{
				"x": -1.1237007296,
				"y": 1.7143569096,
				"z": -3.1560923434,
				"element": "H" 
			},
			{
				"x": 0.3684087382,
				"y": 0.8724749739,
				"z": -4.567119989,
				"element": "H" 
			},
			{
				"x": -1.7562090172,
				"y": -0.6110299694,
				"z": -3.9027539927,
				"element": "H" 
			},
			{
				"x": -3.0993844924,
				"y": 0.5291083772,
				"z": -2.3916451213,
				"element": "H" 
			}
		],
		 "valence_orbital": [ 
			{
				"type": "occ",
				"energy": -0.2816,
				"method": "rhf"
			},
			{
				"type": "occ",
				"energy": -0.2637,
				"method": "rhf"
			},
			{
				"type": "occ",
				"energy": -0.24595,
				"method": "rhf"
			},
			{
				"type": "occ",
				"energy": -0.24536,
				"method": "rhf"
			},
			{
				"type": "occ",
				"energy": -0.19433,
				"method": "rhf"
			},
			{
				"type": "unocc",
				"energy": 0.00201,
				"method": "rhf"
			},
			{
				"type": "unocc",
				"energy": 0.03146,
				"method": "rhf"
			},
			{
				"type": "unocc",
				"energy": 0.03665,
				"method": "rhf"
			},
			{
				"type": "unocc",
				"energy": 0.03776,
				"method": "rhf"
			},
			{
				"type": "unocc",
				"energy": 0.07711,
				"method": "rhf"
			}
		],
		"cosmo_sigma_profile": { 
			"-0.025": 0.0,
			"-0.024": 0.0,
			"-0.023": 0.0,
			"-0.022": 0.0,
			"-0.021": 0.0,
			"-0.02": 0.0,
			"-0.019": 0.0,
			"-0.018": 0.315306284541,
			"-0.017": 2.34132782256,
			"-0.016": 3.34199536706,
			"-0.015": 3.16018924431,
			"-0.014": 3.53337819198,
			"-0.013": 2.66112560139,
			"-0.012": 2.33632061843,
			"-0.011": 3.37979368261,
			"-0.01": 5.53040035256,
			"-0.009": 4.81715696156,
			"-0.008": 6.52525916609,
			"-0.007": 6.53132984015,
			"-0.006": 11.5921350086,
			"-0.005": 17.1021291345,
			"-0.004": 18.5784417581,
			"-0.003": 15.0993971306,
			"-0.002": 13.4719279889,
			"-0.001": 14.5444994853,
			"0.0": 13.2702613177,
			"0.001": 12.4764054531,
			"0.002": 12.5520853311,
			"0.003": 15.7704750658,
			"0.004": 18.2227105529,
			"0.005": 17.9874017242,
			"0.006": 9.66933639025,
			"0.007": 8.87529332,
			"0.008": 6.1468359972,
			"0.009": 7.34412195919,
			"0.01": 6.9391493551,
			"0.011": 7.30822037323,
			"0.012": 6.4514781709,
			"0.013": 3.5495010622,
			"0.014": 3.01050963173,
			"0.015": 0.707522789968,
			"0.016": 0.0,
			"0.017": 0.0,
			"0.018": 0.0,
			"0.019": 0.0,
			"0.02": 0.0,
			"0.021": 0.0,
			"0.022": 0.0,
			"0.023": 0.0,
			"0.024": 0.0,
			"0.025": 0.0
		}
	}
}
