{
	 "smiles": "NC1=C(C=CC=C1)C(=O)NC1=CC(Cl)=CC=C1", 
	 "Tm": 406.15, 
	 "num_atms": 28, 
	 "gaussian": { 
		 "optdone": 1, 
		 "sigma_profile": "yes", 
		 "theory": "DFT", 
		 "functional": "B3LYP", 
		 "basiset": "6-31G**", 
		 "properties": { 
			 "R2extent": 5182.6448, 
			 "electric_dipole_moment_norm": 2.66486448811, 
			 "electric_quadrupole_moment_norm": 14.2478766618, 
			 "total_energy": -1146.94854287, 
			 "HOMO_LUMO_gap": 0.16892, 
			 "cosmo_polarized_energy": -15.37, 
			 "cosmo_cavitation_energy": 33.85, 
			 "cosmo_dispersion_energy": -24.1, 
			 "cosmo_repulsion_energy": 1.89, 
			 "cosmo_total_nonelectrostatic_energy": 11.64, 
			 "SMD_solvation_energy": 6.19 
		},
		"coords": [
			{
				"x": -1.55360652,
				"y": -1.113356898,
				"z": -0.0960758506,
				"element": "N" 
			},
			{
				"x": -1.8295236205,
				"y": -0.114537864,
				"z": 0.8209425478,
				"element": "C" 
			},
			{
				"x": -1.6217976927,
				"y": 1.2625271122,
				"z": 0.5453540706,
				"element": "C" 
			},
			{
				"x": -1.956319792,
				"y": 2.2182820794,
				"z": 1.5206671628,
				"element": "C" 
			},
			{
				"x": -2.4268575193,
				"y": 1.8513160594,
				"z": 2.7736891233,
				"element": "C" 
			},
			{
				"x": -2.6054131656,
				"y": 0.4909263034,
				"z": 3.0529209128,
				"element": "C" 
			},
			{
				"x": -2.3212280684,
				"y": -0.4708757644,
				"z": 2.094040465,
				"element": "C" 
			},
			{
				"x": -1.1893061298,
				"y": 1.8033226808,
				"z": -0.7774778693,
				"element": "C" 
			},
			{
				"x": -1.695517278,
				"y": 2.809385421,
				"z": -1.2598002321,
				"element": "O" 
			},
			{
				"x": -0.2219957347,
				"y": 1.1194495843,
				"z": -1.524783864,
				"element": "N" 
			},
			{
				"x": 0.9364718351,
				"y": 0.425327402,
				"z": -1.0891206485,
				"element": "C" 
			},
			{
				"x": 1.5940803202,
				"y": -0.3778522021,
				"z": -2.0326991582,
				"element": "C" 
			},
			{
				"x": 2.7562281539,
				"y": -1.0508599348,
				"z": -1.669161251,
				"element": "C" 
			},
			{
				"x": 3.5712520538,
				"y": -2.0464713944,
				"z": -2.8689657473,
				"element": "Cl" 
			},
			{
				"x": 3.2797226285,
				"y": -0.9637209418,
				"z": -0.3804192743,
				"element": "C" 
			},
			{
				"x": 2.613203167,
				"y": -0.1628264309,
				"z": 0.5474869161,
				"element": "C" 
			},
			{
				"x": 1.4601066966,
				"y": 0.5410353076,
				"z": 0.2053191749,
				"element": "C" 
			},
			{
				"x": -1.4620406879,
				"y": -0.844878883,
				"z": -1.0641535071,
				"element": "H" 
			},
			{
				"x": -2.0221149304,
				"y": -1.9946207177,
				"z": 0.0504898875,
				"element": "H" 
			},
			{
				"x": -1.8337464079,
				"y": 3.2641492558,
				"z": 1.2584401159,
				"element": "H" 
			},
			{
				"x": -2.6616901371,
				"y": 2.6058090414,
				"z": 3.5170922338,
				"element": "H" 
			},
			{
				"x": -2.9797357431,
				"y": 0.1777201892,
				"z": 4.0237088341,
				"element": "H" 
			},
			{
				"x": -2.4799084855,
				"y": -1.5235524746,
				"z": 2.3151394578,
				"element": "H" 
			},
			{
				"x": -0.1404801473,
				"y": 1.5434010448,
				"z": -2.4430894696,
				"element": "H" 
			},
			{
				"x": 1.1977667253,
				"y": -0.477639923,
				"z": -3.0377504485,
				"element": "H" 
			},
			{
				"x": 4.1833462033,
				"y": -1.500761289,
				"z": -0.1170225992,
				"element": "H" 
			},
			{
				"x": 3.0111206016,
				"y": -0.0710737495,
				"z": 1.5536660452,
				"element": "H" 
			},
			{
				"x": 0.973083675,
				"y": 1.1750769855,
				"z": 0.9353629721,
				"element": "H" 
			}
		],
		 "valence_orbital": [ 
			{
				"type": "occ",
				"energy": -0.26878,
				"method": "rhf"
			},
			{
				"type": "occ",
				"energy": -0.2561,
				"method": "rhf"
			},
			{
				"type": "occ",
				"energy": -0.24808,
				"method": "rhf"
			},
			{
				"type": "occ",
				"energy": -0.23265,
				"method": "rhf"
			},
			{
				"type": "occ",
				"energy": -0.21048,
				"method": "rhf"
			},
			{
				"type": "unocc",
				"energy": -0.04156,
				"method": "rhf"
			},
			{
				"type": "unocc",
				"energy": -0.01959,
				"method": "rhf"
			},
			{
				"type": "unocc",
				"energy": -0.0076,
				"method": "rhf"
			},
			{
				"type": "unocc",
				"energy": 0.00818,
				"method": "rhf"
			},
			{
				"type": "unocc",
				"energy": 0.0251,
				"method": "rhf"
			}
		],
		"cosmo_sigma_profile": { 
			"-0.025": 0.0,
			"-0.024": 0.0,
			"-0.023": 0.0,
			"-0.022": 0.0,
			"-0.021": 0.0,
			"-0.02": 0.0,
			"-0.019": 0.0,
			"-0.018": 0.0,
			"-0.017": 0.0,
			"-0.016": 0.0,
			"-0.015": 0.0463301763318,
			"-0.014": 1.00612926401,
			"-0.013": 2.03616846829,
			"-0.012": 2.81029414887,
			"-0.011": 2.56272399735,
			"-0.01": 3.36303619873,
			"-0.009": 5.15765737394,
			"-0.008": 3.95200233492,
			"-0.007": 7.86624214324,
			"-0.006": 12.5049598784,
			"-0.005": 16.9024364062,
			"-0.004": 17.5263476371,
			"-0.003": 17.4745322009,
			"-0.002": 16.4870639469,
			"-0.001": 13.7580621835,
			"0.0": 16.0699570283,
			"0.001": 18.5503296931,
			"0.002": 20.812210738,
			"0.003": 20.6502969964,
			"0.004": 24.8426510237,
			"0.005": 18.6534535343,
			"0.006": 7.27268412768,
			"0.007": 2.49176557552,
			"0.008": 3.00610518325,
			"0.009": 2.43430696432,
			"0.01": 2.85770115771,
			"0.011": 2.35691703977,
			"0.012": 3.49465783493,
			"0.013": 4.93474836058,
			"0.014": 1.01752476174,
			"0.015": 0.0,
			"0.016": 0.0,
			"0.017": 0.0,
			"0.018": 0.0,
			"0.019": 0.0,
			"0.02": 0.0,
			"0.021": 0.0,
			"0.022": 0.0,
			"0.023": 0.0,
			"0.024": 0.0,
			"0.025": 0.0
		}
	}
}
