{
	 "smiles": "N#CC1=CN=C(C=C1)N1CCOCC1", 
	 "Tm": 397.15, 
	 "num_atms": 25, 
	 "gaussian": { 
		 "optdone": 1, 
		 "sigma_profile": "yes", 
		 "theory": "DFT", 
		 "functional": "B3LYP", 
		 "basiset": "6-31G**", 
		 "properties": { 
			 "R2extent": 3915.3898, 
			 "electric_dipole_moment_norm": 5.34774661329, 
			 "electric_quadrupole_moment_norm": 27.4829543124, 
			 "total_energy": -627.141006063, 
			 "HOMO_LUMO_gap": 0.1792, 
			 "cosmo_polarized_energy": -13.75, 
			 "cosmo_cavitation_energy": 28.65, 
			 "cosmo_dispersion_energy": -21.07, 
			 "cosmo_repulsion_energy": 1.65, 
			 "cosmo_total_nonelectrostatic_energy": 9.23, 
			 "SMD_solvation_energy": 4.55 
		},
		"coords": [
			{
				"x": -4.1197036122,
				"y": -2.588941387,
				"z": -2.4722657091,
				"element": "N" 
			},
			{
				"x": -3.2426338745,
				"y": -1.8986218996,
				"z": -2.1400978431,
				"element": "C" 
			},
			{
				"x": -2.1682247902,
				"y": -1.0545046408,
				"z": -1.7297365196,
				"element": "C" 
			},
			{
				"x": -1.9329716315,
				"y": -0.7870019149,
				"z": -0.3720075646,
				"element": "C" 
			},
			{
				"x": -0.9517849943,
				"y": -0.0121365833,
				"z": 0.071533139,
				"element": "N" 
			},
			{
				"x": -0.1088252641,
				"y": 0.5610978092,
				"z": -0.8155797021,
				"element": "C" 
			},
			{
				"x": -0.280082731,
				"y": 0.3701746089,
				"z": -2.2133134777,
				"element": "C" 
			},
			{
				"x": -1.3052041013,
				"y": -0.4400056394,
				"z": -2.6581188512,
				"element": "C" 
			},
			{
				"x": 0.9166623457,
				"y": 1.3109293455,
				"z": -0.2856198194,
				"element": "N" 
			},
			{
				"x": 1.8243765727,
				"y": 2.1017624754,
				"z": -1.1127690055,
				"element": "C" 
			},
			{
				"x": 3.1931320693,
				"y": 2.2102041137,
				"z": -0.4330078572,
				"element": "C" 
			},
			{
				"x": 3.0899224892,
				"y": 2.7097371814,
				"z": 0.8877434942,
				"element": "O" 
			},
			{
				"x": 2.2823369197,
				"y": 1.8482374036,
				"z": 1.681247072,
				"element": "C" 
			},
			{
				"x": 0.8694346645,
				"y": 1.7382863623,
				"z": 1.1184446062,
				"element": "C" 
			},
			{
				"x": -2.5806110427,
				"y": -1.2259889382,
				"z": 0.3845034101,
				"element": "H" 
			},
			{
				"x": 0.3621613308,
				"y": 0.8545551772,
				"z": -2.9365266718,
				"element": "H" 
			},
			{
				"x": -1.453913288,
				"y": -0.5978333577,
				"z": -3.7215175812,
				"element": "H" 
			},
			{
				"x": 1.4144947292,
				"y": 3.1102288832,
				"z": -1.2818103569,
				"element": "H" 
			},
			{
				"x": 1.965029861,
				"y": 1.6246386004,
				"z": -2.0839461645,
				"element": "H" 
			},
			{
				"x": 3.8294775382,
				"y": 2.9053153796,
				"z": -0.9882710921,
				"element": "H" 
			},
			{
				"x": 3.6748521394,
				"y": 1.2183408585,
				"z": -0.4299003782,
				"element": "H" 
			},
			{
				"x": 2.7407651475,
				"y": 0.8477191281,
				"z": 1.7401644772,
				"element": "H" 
			},
			{
				"x": 2.2549245365,
				"y": 2.280005161,
				"z": 2.6854669972,
				"element": "H" 
			},
			{
				"x": 0.373606027,
				"y": 2.7190518451,
				"z": 1.1890419311,
				"element": "H" 
			},
			{
				"x": 0.2781789592,
				"y": 1.0159500279,
				"z": 1.6792434673,
				"element": "H" 
			}
		],
		 "valence_orbital": [ 
			{
				"type": "occ",
				"energy": -0.30525,
				"method": "rhf"
			},
			{
				"type": "occ",
				"energy": -0.30038,
				"method": "rhf"
			},
			{
				"type": "occ",
				"energy": -0.27412,
				"method": "rhf"
			},
			{
				"type": "occ",
				"energy": -0.26951,
				"method": "rhf"
			},
			{
				"type": "occ",
				"energy": -0.22018,
				"method": "rhf"
			},
			{
				"type": "unocc",
				"energy": -0.04098,
				"method": "rhf"
			},
			{
				"type": "unocc",
				"energy": -0.03457,
				"method": "rhf"
			},
			{
				"type": "unocc",
				"energy": 0.03917,
				"method": "rhf"
			},
			{
				"type": "unocc",
				"energy": 0.07123,
				"method": "rhf"
			},
			{
				"type": "unocc",
				"energy": 0.07864,
				"method": "rhf"
			}
		],
		"cosmo_sigma_profile": { 
			"-0.025": 0.0,
			"-0.024": 0.0,
			"-0.023": 0.0,
			"-0.022": 0.0,
			"-0.021": 0.0,
			"-0.02": 0.0,
			"-0.019": 0.0,
			"-0.018": 0.0,
			"-0.017": 0.0,
			"-0.016": 0.0,
			"-0.015": 0.0,
			"-0.014": 0.0,
			"-0.013": 0.0,
			"-0.012": 0.0,
			"-0.011": 0.0,
			"-0.01": 0.0874877707394,
			"-0.009": 1.98993230906,
			"-0.008": 5.46243289072,
			"-0.007": 7.68943471899,
			"-0.006": 11.1026790208,
			"-0.005": 17.2563821423,
			"-0.004": 30.7599222846,
			"-0.003": 19.9512031011,
			"-0.002": 16.880285318,
			"-0.001": 13.1806113514,
			"0.0": 17.7174671486,
			"0.001": 15.2657280049,
			"0.002": 11.3334461186,
			"0.003": 7.62684890354,
			"0.004": 5.70920879008,
			"0.005": 4.64378724283,
			"0.006": 5.92036639513,
			"0.007": 5.17241637983,
			"0.008": 5.65456292935,
			"0.009": 5.95158683521,
			"0.01": 5.93698601387,
			"0.011": 4.39137400644,
			"0.012": 4.35044127137,
			"0.013": 3.8190823869,
			"0.014": 0.714918312818,
			"0.015": 0.0,
			"0.016": 0.0,
			"0.017": 0.0,
			"0.018": 0.0,
			"0.019": 0.0,
			"0.02": 0.0,
			"0.021": 0.0,
			"0.022": 0.0,
			"0.023": 0.0,
			"0.024": 0.0,
			"0.025": 0.0
		}
	}
}
