{
	 "smiles": "ClC1=CC(C(=O)C2=CC=CC=C2)=C(NC=O)C=C1", 
	 "Tm": 363.15, 
	 "num_atms": 28, 
	 "gaussian": { 
		 "optdone": 1, 
		 "sigma_profile": "yes", 
		 "theory": "DFT", 
		 "functional": "B3LYP", 
		 "basiset": "6-31G**", 
		 "properties": { 
			 "R2extent": 5967.5685, 
			 "electric_dipole_moment_norm": 4.31485784239, 
			 "electric_quadrupole_moment_norm": 22.7918339558, 
			 "total_energy": -1204.92010822, 
			 "HOMO_LUMO_gap": 0.15003, 
			 "cosmo_polarized_energy": -13.68, 
			 "cosmo_cavitation_energy": 34.83, 
			 "cosmo_dispersion_energy": -25.03, 
			 "cosmo_repulsion_energy": 1.93, 
			 "cosmo_total_nonelectrostatic_energy": 11.73, 
			 "SMD_solvation_energy": 7.28 
		},
		"coords": [
			{
				"x": -0.0437338008,
				"y": -1.7102274753,
				"z": 4.3779421934,
				"element": "Cl" 
			},
			{
				"x": 0.03732038,
				"y": -0.3718875354,
				"z": 3.244301348,
				"element": "C" 
			},
			{
				"x": 0.1849958075,
				"y": -0.6239841034,
				"z": 1.8875709856,
				"element": "C" 
			},
			{
				"x": 0.2565421963,
				"y": 0.4299323549,
				"z": 0.95993106,
				"element": "C" 
			},
			{
				"x": 0.4418505161,
				"y": 0.1309273758,
				"z": -0.4931911881,
				"element": "C" 
			},
			{
				"x": 0.995449385,
				"y": 0.9445378225,
				"z": -1.2377493819,
				"element": "O" 
			},
			{
				"x": -0.0386500595,
				"y": -1.1636252544,
				"z": -1.0733185282,
				"element": "C" 
			},
			{
				"x": -1.196443275,
				"y": -1.8207367898,
				"z": -0.6259455023,
				"element": "C" 
			},
			{
				"x": -1.6377045525,
				"y": -2.9794365759,
				"z": -1.2652231344,
				"element": "C" 
			},
			{
				"x": -0.9222393252,
				"y": -3.4990234342,
				"z": -2.3452465428,
				"element": "C" 
			},
			{
				"x": 0.2268691112,
				"y": -2.8459997505,
				"z": -2.8017050837,
				"element": "C" 
			},
			{
				"x": 0.6574127207,
				"y": -1.6781722228,
				"z": -2.1798443136,
				"element": "C" 
			},
			{
				"x": 0.218459765,
				"y": 1.7725406527,
				"z": 1.4363624756,
				"element": "C" 
			},
			{
				"x": 0.3400072442,
				"y": 2.8379054595,
				"z": 0.5450541499,
				"element": "N" 
			},
			{
				"x": -0.1415168319,
				"y": 4.117554526,
				"z": 0.7104262826,
				"element": "C" 
			},
			{
				"x": 0.0126869627,
				"y": 5.0008299228,
				"z": -0.1090222821,
				"element": "O" 
			},
			{
				"x": 0.0726033387,
				"y": 1.9965152787,
				"z": 2.8172254876,
				"element": "C" 
			},
			{
				"x": -0.0304194333,
				"y": 0.9401223104,
				"z": 3.7136526818,
				"element": "C" 
			},
			{
				"x": 0.2622897606,
				"y": -1.646894626,
				"z": 1.5415241044,
				"element": "H" 
			},
			{
				"x": -1.7677121093,
				"y": -1.4131145489,
				"z": 0.2013465587,
				"element": "H" 
			},
			{
				"x": -2.5414576331,
				"y": -3.4733427264,
				"z": -0.9212088325,
				"element": "H" 
			},
			{
				"x": -1.2624081527,
				"y": -4.4066559522,
				"z": -2.8354038972,
				"element": "H" 
			},
			{
				"x": 0.7807076435,
				"y": -3.2452578536,
				"z": -3.6461404034,
				"element": "H" 
			},
			{
				"x": 1.5328658844,
				"y": -1.1457770792,
				"z": -2.5360544197,
				"element": "H" 
			},
			{
				"x": 0.7414732089,
				"y": 2.6049405578,
				"z": -0.36255975,
				"element": "H" 
			},
			{
				"x": -0.7000353038,
				"y": 4.2623260946,
				"z": 1.652420761,
				"element": "H" 
			},
			{
				"x": 0.0835082639,
				"y": 3.0085311063,
				"z": 3.2040134137,
				"element": "H" 
			},
			{
				"x": -0.1297217117,
				"y": 1.1343724659,
				"z": 4.7759417576,
				"element": "H" 
			}
		],
		 "valence_orbital": [ 
			{
				"type": "occ",
				"energy": -0.2789,
				"method": "rhf"
			},
			{
				"type": "occ",
				"energy": -0.27053,
				"method": "rhf"
			},
			{
				"type": "occ",
				"energy": -0.26614,
				"method": "rhf"
			},
			{
				"type": "occ",
				"energy": -0.2615,
				"method": "rhf"
			},
			{
				"type": "occ",
				"energy": -0.23459,
				"method": "rhf"
			},
			{
				"type": "unocc",
				"energy": -0.08456,
				"method": "rhf"
			},
			{
				"type": "unocc",
				"energy": -0.03805,
				"method": "rhf"
			},
			{
				"type": "unocc",
				"energy": -0.03116,
				"method": "rhf"
			},
			{
				"type": "unocc",
				"energy": -0.0187,
				"method": "rhf"
			},
			{
				"type": "unocc",
				"energy": 0.01714,
				"method": "rhf"
			}
		],
		"cosmo_sigma_profile": { 
			"-0.025": 0.0,
			"-0.024": 0.0,
			"-0.023": 0.0,
			"-0.022": 0.0,
			"-0.021": 0.0,
			"-0.02": 0.0,
			"-0.019": 0.0,
			"-0.018": 0.0,
			"-0.017": 0.0,
			"-0.016": 0.0,
			"-0.015": 0.0,
			"-0.014": 0.0,
			"-0.013": 0.0,
			"-0.012": 0.0,
			"-0.011": 0.0846376605931,
			"-0.01": 1.29170459791,
			"-0.009": 2.77086444479,
			"-0.008": 5.52555309088,
			"-0.007": 8.79403806803,
			"-0.006": 16.775400265,
			"-0.005": 19.6026828113,
			"-0.004": 22.10147137,
			"-0.003": 18.5524197201,
			"-0.002": 19.936103316,
			"-0.001": 19.2862349171,
			"0.0": 22.6350572651,
			"0.001": 28.3517169781,
			"0.002": 20.4843526371,
			"0.003": 18.489599285,
			"0.004": 22.6324634809,
			"0.005": 6.27537809171,
			"0.006": 3.12202301487,
			"0.007": 2.93597998818,
			"0.008": 3.29853280233,
			"0.009": 2.4024141649,
			"0.01": 3.71384717231,
			"0.011": 4.25107364539,
			"0.012": 5.45276142642,
			"0.013": 3.88724184413,
			"0.014": 0.553707586834,
			"0.015": 0.0,
			"0.016": 0.0,
			"0.017": 0.0,
			"0.018": 0.0,
			"0.019": 0.0,
			"0.02": 0.0,
			"0.021": 0.0,
			"0.022": 0.0,
			"0.023": 0.0,
			"0.024": 0.0,
			"0.025": 0.0
		}
	}
}
