{
	 "smiles": "CC(C)CNC(=O)C(C(F)(F)F)C(F)(F)F", 
	 "Tm": 384.15, 
	 "num_atms": 27, 
	 "gaussian": { 
		 "optdone": 1, 
		 "sigma_profile": "yes", 
		 "theory": "DFT", 
		 "functional": "B3LYP", 
		 "basiset": "6-31G**", 
		 "properties": { 
			 "R2extent": 5503.8672, 
			 "electric_dipole_moment_norm": 5.20071857631, 
			 "electric_quadrupole_moment_norm": 12.2822556511, 
			 "total_energy": -1040.52952914, 
			 "HOMO_LUMO_gap": 0.26489, 
			 "cosmo_polarized_energy": -12.84, 
			 "cosmo_cavitation_energy": 32.41, 
			 "cosmo_dispersion_energy": -21.05, 
			 "cosmo_repulsion_energy": 1.56, 
			 "cosmo_total_nonelectrostatic_energy": 12.92, 
			 "SMD_solvation_energy": 7.95 
		},
		"coords": [
			{
				"x": 1.7887068859,
				"y": 1.5871967919,
				"z": 0.3639205827,
				"element": "C" 
			},
			{
				"x": 1.0375614675,
				"y": 0.2511140731,
				"z": 0.2895482348,
				"element": "C" 
			},
			{
				"x": 1.9991528992,
				"y": -0.9246955653,
				"z": 0.073127733,
				"element": "C" 
			},
			{
				"x": -0.0340282728,
				"y": 0.3159680515,
				"z": -0.8188437741,
				"element": "C" 
			},
			{
				"x": -0.894088769,
				"y": -0.8617829072,
				"z": -0.9080051506,
				"element": "N" 
			},
			{
				"x": -2.0159213411,
				"y": -1.1800947397,
				"z": -0.2024929531,
				"element": "C" 
			},
			{
				"x": -2.619358572,
				"y": -2.2281764139,
				"z": -0.3653855765,
				"element": "O" 
			},
			{
				"x": -2.5212167049,
				"y": -0.1410029446,
				"z": 0.8235674514,
				"element": "C" 
			},
			{
				"x": -3.841752062,
				"y": 0.4676511912,
				"z": 0.3476114555,
				"element": "C" 
			},
			{
				"x": -4.8350878002,
				"y": -0.4210632519,
				"z": 0.2647710378,
				"element": "F" 
			},
			{
				"x": -4.2382226529,
				"y": 1.4605059876,
				"z": 1.1689522968,
				"element": "F" 
			},
			{
				"x": -3.655165828,
				"y": 1.008239695,
				"z": -0.8799296889,
				"element": "F" 
			},
			{
				"x": -2.6125328021,
				"y": -0.7721763282,
				"z": 2.2144195935,
				"element": "C" 
			},
			{
				"x": -3.5404542611,
				"y": -1.7260858387,
				"z": 2.309500346,
				"element": "F" 
			},
			{
				"x": -2.8847975759,
				"y": 0.1669140226,
				"z": 3.1439107947,
				"element": "F" 
			},
			{
				"x": -1.4120936883,
				"y": -1.3149166962,
				"z": 2.5319520565,
				"element": "F" 
			},
			{
				"x": 1.1087790103,
				"y": 2.425149741,
				"z": 0.5545101976,
				"element": "H" 
			},
			{
				"x": 2.5324878241,
				"y": 1.5727335031,
				"z": 1.1663751121,
				"element": "H" 
			},
			{
				"x": 2.3186063715,
				"y": 1.7940847648,
				"z": -0.5738483866,
				"element": "H" 
			},
			{
				"x": 0.5171999386,
				"y": 0.0873536581,
				"z": 1.2434731328,
				"element": "H" 
			},
			{
				"x": 1.4653767443,
				"y": -1.8795533076,
				"z": 0.0421206517,
				"element": "H" 
			},
			{
				"x": 2.7322445886,
				"y": -0.9823512467,
				"z": 0.8836042062,
				"element": "H" 
			},
			{
				"x": 2.5527491532,
				"y": -0.8113543923,
				"z": -0.8675660713,
				"element": "H" 
			},
			{
				"x": 0.4571759026,
				"y": 0.42495696,
				"z": -1.7927620259,
				"element": "H" 
			},
			{
				"x": -0.6571156265,
				"y": 1.2086131865,
				"z": -0.7005888573,
				"element": "H" 
			},
			{
				"x": -0.6233693683,
				"y": -1.6014605508,
				"z": -1.5432529074,
				"element": "H" 
			},
			{
				"x": -1.8336354608,
				"y": 0.6981325567,
				"z": 0.9330105083,
				"element": "H" 
			}
		],
		 "valence_orbital": [ 
			{
				"type": "occ",
				"energy": -0.36033,
				"method": "rhf"
			},
			{
				"type": "occ",
				"energy": -0.35332,
				"method": "rhf"
			},
			{
				"type": "occ",
				"energy": -0.3469,
				"method": "rhf"
			},
			{
				"type": "occ",
				"energy": -0.26988,
				"method": "rhf"
			},
			{
				"type": "occ",
				"energy": -0.26759,
				"method": "rhf"
			},
			{
				"type": "unocc",
				"energy": -0.0027,
				"method": "rhf"
			},
			{
				"type": "unocc",
				"energy": 0.05617,
				"method": "rhf"
			},
			{
				"type": "unocc",
				"energy": 0.06985,
				"method": "rhf"
			},
			{
				"type": "unocc",
				"energy": 0.09445,
				"method": "rhf"
			},
			{
				"type": "unocc",
				"energy": 0.1036,
				"method": "rhf"
			}
		],
		"cosmo_sigma_profile": { 
			"-0.025": 0.0,
			"-0.024": 0.0,
			"-0.023": 0.0,
			"-0.022": 0.0,
			"-0.021": 0.0,
			"-0.02": 0.0,
			"-0.019": 0.0,
			"-0.018": 0.0,
			"-0.017": 0.0,
			"-0.016": 0.0,
			"-0.015": 0.0662961210822,
			"-0.014": 1.01667552053,
			"-0.013": 0.944151105378,
			"-0.012": 1.03354894382,
			"-0.011": 2.4289569855,
			"-0.01": 3.78667421649,
			"-0.009": 3.22444790432,
			"-0.008": 2.61978313218,
			"-0.007": 3.08771016902,
			"-0.006": 5.07646925512,
			"-0.005": 7.13396221606,
			"-0.004": 9.34428421615,
			"-0.003": 18.7966074741,
			"-0.002": 20.4679233409,
			"-0.001": 22.8001632764,
			"0.0": 24.0573311367,
			"0.001": 35.2610503752,
			"0.002": 55.254339969,
			"0.003": 14.6490363018,
			"0.004": 2.64418717112,
			"0.005": 1.85781054391,
			"0.006": 1.72284997155,
			"0.007": 1.63081911877,
			"0.008": 2.0934603888,
			"0.009": 1.873540451,
			"0.01": 1.90490725018,
			"0.011": 2.38804139053,
			"0.012": 4.18735899388,
			"0.013": 3.17783135231,
			"0.014": 0.199355998245,
			"0.015": 0.0,
			"0.016": 0.0,
			"0.017": 0.0,
			"0.018": 0.0,
			"0.019": 0.0,
			"0.02": 0.0,
			"0.021": 0.0,
			"0.022": 0.0,
			"0.023": 0.0,
			"0.024": 0.0,
			"0.025": 0.0
		}
	}
}
