{
	 "smiles": "CC1(C)CC(=O)C(Cl)C(=O)C1", 
	 "Tm": 436.15, 
	 "num_atms": 22, 
	 "gaussian": { 
		 "optdone": 1, 
		 "sigma_profile": "yes", 
		 "theory": "DFT", 
		 "functional": "B3LYP", 
		 "basiset": "6-31G**", 
		 "properties": { 
			 "R2extent": 2395.7914, 
			 "electric_dipole_moment_norm": 3.49515702795, 
			 "electric_quadrupole_moment_norm": 8.83340053434, 
			 "total_energy": -922.112326607, 
			 "HOMO_LUMO_gap": 0.18522, 
			 "cosmo_polarized_energy": -10.89, 
			 "cosmo_cavitation_energy": 25.66, 
			 "cosmo_dispersion_energy": -18.27, 
			 "cosmo_repulsion_energy": 1.46, 
			 "cosmo_total_nonelectrostatic_energy": 8.84, 
			 "SMD_solvation_energy": 5.18 
		},
		"coords": [
			{
				"x": 0.460459048,
				"y": -0.6740843343,
				"z": -2.7091321413,
				"element": "C" 
			},
			{
				"x": -0.1086651717,
				"y": -0.7209016068,
				"z": -1.2766784316,
				"element": "C" 
			},
			{
				"x": -0.8579494753,
				"y": -2.050546427,
				"z": -1.0741710598,
				"element": "C" 
			},
			{
				"x": -1.1154447041,
				"y": 0.4473957651,
				"z": -1.0810031139,
				"element": "C" 
			},
			{
				"x": -0.4632323323,
				"y": 1.8143789254,
				"z": -1.1479612316,
				"element": "C" 
			},
			{
				"x": -0.8771124649,
				"y": 2.7370323129,
				"z": -1.8114170192,
				"element": "O" 
			},
			{
				"x": 0.789721612,
				"y": 1.9679641555,
				"z": -0.2528316018,
				"element": "C" 
			},
			{
				"x": 2.2332673682,
				"y": 2.3906103045,
				"z": -1.277286943,
				"element": "Cl" 
			},
			{
				"x": 1.0975072542,
				"y": 0.6964698374,
				"z": 0.5444761351,
				"element": "C" 
			},
			{
				"x": 1.3295707438,
				"y": 0.7627589514,
				"z": 1.7339536569,
				"element": "O" 
			},
			{
				"x": 1.0441657801,
				"y": -0.6178660568,
				"z": -0.2174037402,
				"element": "C" 
			},
			{
				"x": -0.3442811437,
				"y": -0.7345276442,
				"z": -3.4495655838,
				"element": "H" 
			},
			{
				"x": 1.1368192169,
				"y": -1.518639144,
				"z": -2.8791206159,
				"element": "H" 
			},
			{
				"x": 1.02272619,
				"y": 0.2452496121,
				"z": -2.8991159482,
				"element": "H" 
			},
			{
				"x": -0.1783917833,
				"y": -2.9001978063,
				"z": -1.2005098116,
				"element": "H" 
			},
			{
				"x": -1.2939312056,
				"y": -2.1145791276,
				"z": -0.0712398753,
				"element": "H" 
			},
			{
				"x": -1.66797579,
				"y": -2.1587052513,
				"z": -1.803572356,
				"element": "H" 
			},
			{
				"x": -1.5803724718,
				"y": 0.3558389135,
				"z": -0.0865711047,
				"element": "H" 
			},
			{
				"x": -1.9168486479,
				"y": 0.4131076557,
				"z": -1.8236503396,
				"element": "H" 
			},
			{
				"x": 0.6533241835,
				"y": 2.8006502279,
				"z": 0.4394539587,
				"element": "H" 
			},
			{
				"x": 0.969248948,
				"y": -1.4048992655,
				"z": 0.5374600281,
				"element": "H" 
			},
			{
				"x": 2.0148948459,
				"y": -0.7472099975,
				"z": -0.7122128614,
				"element": "H" 
			}
		],
		 "valence_orbital": [ 
			{
				"type": "occ",
				"energy": -0.34185,
				"method": "rhf"
			},
			{
				"type": "occ",
				"energy": -0.32255,
				"method": "rhf"
			},
			{
				"type": "occ",
				"energy": -0.31952,
				"method": "rhf"
			},
			{
				"type": "occ",
				"energy": -0.27566,
				"method": "rhf"
			},
			{
				"type": "occ",
				"energy": -0.25668,
				"method": "rhf"
			},
			{
				"type": "unocc",
				"energy": -0.07146,
				"method": "rhf"
			},
			{
				"type": "unocc",
				"energy": -0.03576,
				"method": "rhf"
			},
			{
				"type": "unocc",
				"energy": 0.03837,
				"method": "rhf"
			},
			{
				"type": "unocc",
				"energy": 0.06989,
				"method": "rhf"
			},
			{
				"type": "unocc",
				"energy": 0.10873,
				"method": "rhf"
			}
		],
		"cosmo_sigma_profile": { 
			"-0.025": 0.0,
			"-0.024": 0.0,
			"-0.023": 0.0,
			"-0.022": 0.0,
			"-0.021": 0.0,
			"-0.02": 0.0,
			"-0.019": 0.0,
			"-0.018": 0.0,
			"-0.017": 0.0,
			"-0.016": 0.0,
			"-0.015": 0.0,
			"-0.014": 0.0,
			"-0.013": 0.0,
			"-0.012": 0.152773853318,
			"-0.011": 0.786833735305,
			"-0.01": 2.57262176093,
			"-0.009": 2.8774623282,
			"-0.008": 4.17087835593,
			"-0.007": 3.758552622,
			"-0.006": 6.20435950473,
			"-0.005": 10.2409080079,
			"-0.004": 19.4914360465,
			"-0.003": 22.7177164508,
			"-0.002": 19.729872873,
			"-0.001": 16.5515815551,
			"0.0": 18.1550315611,
			"0.001": 13.2160369337,
			"0.002": 7.69721963709,
			"0.003": 7.39981111016,
			"0.004": 7.98567291325,
			"0.005": 6.29194795362,
			"0.006": 3.84433051666,
			"0.007": 3.06854064103,
			"0.008": 4.13747848697,
			"0.009": 5.32719338445,
			"0.01": 7.5724312472,
			"0.011": 7.35567842858,
			"0.012": 1.31807275551,
			"0.013": 0.0,
			"0.014": 0.0,
			"0.015": 0.0,
			"0.016": 0.0,
			"0.017": 0.0,
			"0.018": 0.0,
			"0.019": 0.0,
			"0.02": 0.0,
			"0.021": 0.0,
			"0.022": 0.0,
			"0.023": 0.0,
			"0.024": 0.0,
			"0.025": 0.0
		}
	}
}
