{
	 "smiles": "OC(=O)C1=CC(O)=CC(O)=C1", 
	 "Tm": 511.15, 
	 "num_atms": 17, 
	 "gaussian": { 
		 "optdone": 1, 
		 "sigma_profile": "yes", 
		 "theory": "DFT", 
		 "functional": "B3LYP", 
		 "basiset": "6-31G**", 
		 "properties": { 
			 "R2extent": 1985.7016, 
			 "electric_dipole_moment_norm": 2.98364061844, 
			 "electric_quadrupole_moment_norm": 13.618867023, 
			 "total_energy": -571.265479713, 
			 "HOMO_LUMO_gap": 0.17736, 
			 "cosmo_polarized_energy": -17.57, 
			 "cosmo_cavitation_energy": 22.26, 
			 "cosmo_dispersion_energy": -16.67, 
			 "cosmo_repulsion_energy": 1.34, 
			 "cosmo_total_nonelectrostatic_energy": 6.93, 
			 "SMD_solvation_energy": 5.85 
		},
		"coords": [
			{
				"x": -0.3741500947,
				"y": -2.4405708988,
				"z": -2.6938457032,
				"element": "O" 
			},
			{
				"x": -0.2049108497,
				"y": -1.1017704402,
				"z": -2.5388812668,
				"element": "C" 
			},
			{
				"x": -0.2457420606,
				"y": -0.3375193543,
				"z": -3.4818019033,
				"element": "O" 
			},
			{
				"x": 0.028269051,
				"y": -0.7029251055,
				"z": -1.1229870543,
				"element": "C" 
			},
			{
				"x": 0.0600354154,
				"y": -1.6541665576,
				"z": -0.0934514321,
				"element": "C" 
			},
			{
				"x": 0.2824443888,
				"y": -1.2243154712,
				"z": 1.2154963858,
				"element": "C" 
			},
			{
				"x": 0.3284950666,
				"y": -2.08286309,
				"z": 2.2754414985,
				"element": "O" 
			},
			{
				"x": 0.4707104264,
				"y": 0.1335129055,
				"z": 1.4959244715,
				"element": "C" 
			},
			{
				"x": 0.4357576449,
				"y": 1.0669142924,
				"z": 0.4574174747,
				"element": "C" 
			},
			{
				"x": 0.6128012343,
				"y": 2.4014790767,
				"z": 0.6734029571,
				"element": "O" 
			},
			{
				"x": 0.2140984875,
				"y": 0.6548304224,
				"z": -0.8603267386,
				"element": "C" 
			},
			{
				"x": -0.5160817634,
				"y": -2.5771502584,
				"z": -3.6446723781,
				"element": "H" 
			},
			{
				"x": -0.0866086082,
				"y": -2.70527002,
				"z": -0.3177346462,
				"element": "H" 
			},
			{
				"x": 0.1859075506,
				"y": -2.983937396,
				"z": 1.9578035853,
				"element": "H" 
			},
			{
				"x": 0.6418273925,
				"y": 0.4373174314,
				"z": 2.5250299808,
				"element": "H" 
			},
			{
				"x": 0.7558511189,
				"y": 2.557423635,
				"z": 1.6158615593,
				"element": "H" 
			},
			{
				"x": 0.1865955998,
				"y": 1.3767108288,
				"z": -1.6668767904,
				"element": "H" 
			}
		],
		 "valence_orbital": [ 
			{
				"type": "occ",
				"energy": -0.3267,
				"method": "rhf"
			},
			{
				"type": "occ",
				"energy": -0.31268,
				"method": "rhf"
			},
			{
				"type": "occ",
				"energy": -0.27656,
				"method": "rhf"
			},
			{
				"type": "occ",
				"energy": -0.24638,
				"method": "rhf"
			},
			{
				"type": "occ",
				"energy": -0.22416,
				"method": "rhf"
			},
			{
				"type": "unocc",
				"energy": -0.0468,
				"method": "rhf"
			},
			{
				"type": "unocc",
				"energy": 0.01179,
				"method": "rhf"
			},
			{
				"type": "unocc",
				"energy": 0.0641,
				"method": "rhf"
			},
			{
				"type": "unocc",
				"energy": 0.06516,
				"method": "rhf"
			},
			{
				"type": "unocc",
				"energy": 0.06632,
				"method": "rhf"
			}
		],
		"cosmo_sigma_profile": { 
			"-0.025": 0.0,
			"-0.024": 0.0,
			"-0.023": 0.0,
			"-0.022": 0.0,
			"-0.021": 0.0,
			"-0.02": 0.0,
			"-0.019": 0.116963796432,
			"-0.018": 2.48769540303,
			"-0.017": 3.03511131741,
			"-0.016": 3.14199520604,
			"-0.015": 3.27716856621,
			"-0.014": 2.88317932038,
			"-0.013": 1.88893594655,
			"-0.012": 1.49244884954,
			"-0.011": 2.75897035412,
			"-0.01": 3.92660762364,
			"-0.009": 3.05163861733,
			"-0.008": 2.77633646386,
			"-0.007": 3.3571609932,
			"-0.006": 3.47809176838,
			"-0.005": 3.96901291568,
			"-0.004": 5.59208446034,
			"-0.003": 5.56705762373,
			"-0.002": 6.97370515023,
			"-0.001": 8.09372532374,
			"0.0": 6.91049552718,
			"0.001": 9.38876540829,
			"0.002": 14.9480186177,
			"0.003": 23.3644095026,
			"0.004": 10.9337625771,
			"0.005": 6.65882306877,
			"0.006": 4.77547559087,
			"0.007": 6.63553938647,
			"0.008": 4.07684204931,
			"0.009": 4.84632920871,
			"0.01": 5.74939322948,
			"0.011": 6.980600347,
			"0.012": 4.00009509988,
			"0.013": 0.050257596701,
			"0.014": 0.0,
			"0.015": 0.0,
			"0.016": 0.0,
			"0.017": 0.0,
			"0.018": 0.0,
			"0.019": 0.0,
			"0.02": 0.0,
			"0.021": 0.0,
			"0.022": 0.0,
			"0.023": 0.0,
			"0.024": 0.0,
			"0.025": 0.0
		}
	}
}
