{
	 "smiles": "CN(C)C(=O)NC1=CC=C(N2N=C(OC2=O)C(C)(C)C)C(Cl)=C1", 
	 "Tm": 466.15, 
	 "num_atms": 42, 
	 "gaussian": { 
		 "optdone": 1, 
		 "sigma_profile": "yes", 
		 "theory": "DFT", 
		 "functional": "B3LYP", 
		 "basiset": "6-31G**", 
		 "properties": { 
			 "R2extent": 13263.525, 
			 "electric_dipole_moment_norm": 7.50169192783, 
			 "electric_quadrupole_moment_norm": 39.3315949003, 
			 "total_energy": -1487.94074842, 
			 "HOMO_LUMO_gap": 0.19805, 
			 "cosmo_polarized_energy": -22.77, 
			 "cosmo_cavitation_energy": 47.43, 
			 "cosmo_dispersion_energy": -32.89, 
			 "cosmo_repulsion_energy": 2.53, 
			 "cosmo_total_nonelectrostatic_energy": 17.07, 
			 "SMD_solvation_energy": 9.05 
		},
		"coords": [
			{
				"x": -0.3822525533,
				"y": -2.3024478923,
				"z": 5.3068238087,
				"element": "C" 
			},
			{
				"x": -1.6089268914,
				"y": -2.4804811301,
				"z": 4.546443827,
				"element": "N" 
			},
			{
				"x": -2.7087666895,
				"y": -3.183195436,
				"z": 5.1961314398,
				"element": "C" 
			},
			{
				"x": -1.7287467582,
				"y": -2.195408025,
				"z": 3.1986696786,
				"element": "C" 
			},
			{
				"x": -2.7636718005,
				"y": -2.3918553939,
				"z": 2.5689553043,
				"element": "O" 
			},
			{
				"x": -0.5811107033,
				"y": -1.656155107,
				"z": 2.6191667313,
				"element": "N" 
			},
			{
				"x": -0.4040413811,
				"y": -1.2386540937,
				"z": 1.291500579,
				"element": "C" 
			},
			{
				"x": 0.8597834554,
				"y": -0.7279286353,
				"z": 0.9430096235,
				"element": "C" 
			},
			{
				"x": 1.1151759375,
				"y": -0.3080192955,
				"z": -0.3528442849,
				"element": "C" 
			},
			{
				"x": 0.1233735975,
				"y": -0.365909256,
				"z": -1.3364231383,
				"element": "C" 
			},
			{
				"x": 0.4129812079,
				"y": 0.0862989828,
				"z": -2.6474894816,
				"element": "N" 
			},
			{
				"x": 0.7959434977,
				"y": 1.4050590634,
				"z": -2.8887865778,
				"element": "N" 
			},
			{
				"x": 1.0442923196,
				"y": 1.4339985388,
				"z": -4.1526165211,
				"element": "C" 
			},
			{
				"x": 0.8683753841,
				"y": 0.2285523962,
				"z": -4.7759277054,
				"element": "O" 
			},
			{
				"x": 0.476367407,
				"y": -0.6838412557,
				"z": -3.7892067618,
				"element": "C" 
			},
			{
				"x": 0.2729005406,
				"y": -1.8540169476,
				"z": -3.976116315,
				"element": "O" 
			},
			{
				"x": 1.4842069415,
				"y": 2.6100146683,
				"z": -4.9816601395,
				"element": "C" 
			},
			{
				"x": 2.8369995555,
				"y": 2.2697201136,
				"z": -5.6498068478,
				"element": "C" 
			},
			{
				"x": 0.4182932387,
				"y": 2.8719425529,
				"z": -6.0719243077,
				"element": "C" 
			},
			{
				"x": 1.6326613249,
				"y": 3.8446089818,
				"z": -4.0762455202,
				"element": "C" 
			},
			{
				"x": -1.1416461563,
				"y": -0.8502633175,
				"z": -0.9753854604,
				"element": "C" 
			},
			{
				"x": -2.4409830723,
				"y": -0.8849733484,
				"z": -2.1452872658,
				"element": "Cl" 
			},
			{
				"x": -1.4105596227,
				"y": -1.2987357062,
				"z": 0.316149002,
				"element": "C" 
			},
			{
				"x": -0.6023840734,
				"y": -2.4578102601,
				"z": 6.3645268086,
				"element": "H" 
			},
			{
				"x": 0.0084916032,
				"y": -1.2817708433,
				"z": 5.213071731,
				"element": "H" 
			},
			{
				"x": 0.4068185311,
				"y": -3.0156924785,
				"z": 5.024908907,
				"element": "H" 
			},
			{
				"x": -3.0045725704,
				"y": -2.6607180982,
				"z": 6.1129005534,
				"element": "H" 
			},
			{
				"x": -2.4273467374,
				"y": -4.2125635982,
				"z": 5.4548451396,
				"element": "H" 
			},
			{
				"x": -3.5512208593,
				"y": -3.2083839123,
				"z": 4.5078131581,
				"element": "H" 
			},
			{
				"x": 0.2435799041,
				"y": -1.5763846294,
				"z": 3.1917284209,
				"element": "H" 
			},
			{
				"x": 1.6469315725,
				"y": -0.6692588498,
				"z": 1.6905067855,
				"element": "H" 
			},
			{
				"x": 2.0918233931,
				"y": 0.0790900916,
				"z": -0.6227859334,
				"element": "H" 
			},
			{
				"x": 2.7567185671,
				"y": 1.3779123239,
				"z": -6.2772937391,
				"element": "H" 
			},
			{
				"x": 3.6138390107,
				"y": 2.0924541069,
				"z": -4.8990599547,
				"element": "H" 
			},
			{
				"x": 3.1579391586,
				"y": 3.1052680902,
				"z": -6.2800510653,
				"element": "H" 
			},
			{
				"x": 0.2799164289,
				"y": 1.9950780248,
				"z": -6.7103120936,
				"element": "H" 
			},
			{
				"x": -0.5475649271,
				"y": 3.1265995863,
				"z": -5.6244792052,
				"element": "H" 
			},
			{
				"x": 0.7335985902,
				"y": 3.7095555206,
				"z": -6.7023389838,
				"element": "H" 
			},
			{
				"x": 1.9486854789,
				"y": 4.7020232283,
				"z": -4.6784975092,
				"element": "H" 
			},
			{
				"x": 0.6876146314,
				"y": 4.0944807691,
				"z": -3.5868469581,
				"element": "H" 
			},
			{
				"x": 2.3791348677,
				"y": 3.6774924187,
				"z": -3.2949148528,
				"element": "H" 
			},
			{
				"x": -2.3865513491,
				"y": -1.6803819481,
				"z": 0.5750491242,
				"element": "H" 
			}
		],
		 "valence_orbital": [ 
			{
				"type": "occ",
				"energy": -0.26756,
				"method": "rhf"
			},
			{
				"type": "occ",
				"energy": -0.25352,
				"method": "rhf"
			},
			{
				"type": "occ",
				"energy": -0.2477,
				"method": "rhf"
			},
			{
				"type": "occ",
				"energy": -0.24224,
				"method": "rhf"
			},
			{
				"type": "occ",
				"energy": -0.21854,
				"method": "rhf"
			},
			{
				"type": "unocc",
				"energy": -0.02049,
				"method": "rhf"
			},
			{
				"type": "unocc",
				"energy": -0.01548,
				"method": "rhf"
			},
			{
				"type": "unocc",
				"energy": 0.01086,
				"method": "rhf"
			},
			{
				"type": "unocc",
				"energy": 0.03533,
				"method": "rhf"
			},
			{
				"type": "unocc",
				"energy": 0.04758,
				"method": "rhf"
			}
		],
		"cosmo_sigma_profile": { 
			"-0.025": 0.0,
			"-0.024": 0.0,
			"-0.023": 0.0,
			"-0.022": 0.0,
			"-0.021": 0.0,
			"-0.02": 0.0,
			"-0.019": 0.0,
			"-0.018": 0.0,
			"-0.017": 0.0,
			"-0.016": 0.00962105346309,
			"-0.015": 0.683236883704,
			"-0.014": 1.29619755839,
			"-0.013": 1.25127980187,
			"-0.012": 1.2065976589,
			"-0.011": 1.62476489158,
			"-0.01": 1.73777018796,
			"-0.009": 1.74176301167,
			"-0.008": 3.58810197108,
			"-0.007": 5.91234941468,
			"-0.006": 10.8651376897,
			"-0.005": 15.8101922013,
			"-0.004": 33.2684519171,
			"-0.003": 42.2368568308,
			"-0.002": 35.8621778196,
			"-0.001": 31.8368979116,
			"0.0": 38.9556545728,
			"0.001": 31.0228315168,
			"0.002": 29.788223137,
			"0.003": 19.4335195375,
			"0.004": 14.1477079824,
			"0.005": 8.9308223976,
			"0.006": 6.94987764992,
			"0.007": 5.93736672996,
			"0.008": 5.40346476538,
			"0.009": 4.11674731305,
			"0.01": 5.00868311817,
			"0.011": 7.4186826576,
			"0.012": 7.19689828852,
			"0.013": 3.1664659505,
			"0.014": 1.01204118926,
			"0.015": 0.0,
			"0.016": 0.0,
			"0.017": 0.0,
			"0.018": 0.0,
			"0.019": 0.0,
			"0.02": 0.0,
			"0.021": 0.0,
			"0.022": 0.0,
			"0.023": 0.0,
			"0.024": 0.0,
			"0.025": 0.0
		}
	}
}
