{
	 "smiles": "CC1=C2NC(=O)C(=O)C2=CC(Br)=C1", 
	 "Tm": 572.15, 
	 "num_atms": 19, 
	 "gaussian": { 
		 "optdone": 1, 
		 "sigma_profile": "yes", 
		 "theory": "DFT", 
		 "functional": "B3LYP", 
		 "basiset": "6-31G**", 
		 "properties": { 
			 "R2extent": 5940.2933, 
			 "electric_dipole_moment_norm": 5.63651322805, 
			 "electric_quadrupole_moment_norm": 21.5436436514, 
			 "total_energy": -3123.18314914, 
			 "HOMO_LUMO_gap": 0.13254, 
			 "cosmo_polarized_energy": -15.39, 
			 "cosmo_cavitation_energy": 26.69, 
			 "cosmo_dispersion_energy": -19.81, 
			 "cosmo_repulsion_energy": 1.56, 
			 "cosmo_total_nonelectrostatic_energy": 8.44, 
			 "SMD_solvation_energy": 4.73 
		},
		"coords": [
			{
				"x": 0.8813960519,
				"y": 0.7861666012,
				"z": 0.0053978815,
				"element": "C" 
			},
			{
				"x": 0.0246842456,
				"y": -0.4032951385,
				"z": 0.3581617185,
				"element": "C" 
			},
			{
				"x": 0.4111617197,
				"y": -1.3277812283,
				"z": 1.3309765923,
				"element": "C" 
			},
			{
				"x": 1.5818080263,
				"y": -1.3245249195,
				"z": 2.1055714619,
				"element": "N" 
			},
			{
				"x": 1.6353926614,
				"y": -2.403335772,
				"z": 2.9766708294,
				"element": "C" 
			},
			{
				"x": 2.5159483547,
				"y": -2.6643212794,
				"z": 3.763235669,
				"element": "O" 
			},
			{
				"x": 0.3079171416,
				"y": -3.1995598187,
				"z": 2.7125279026,
				"element": "C" 
			},
			{
				"x": -0.0106613192,
				"y": -4.2156325641,
				"z": 3.2878442606,
				"element": "O" 
			},
			{
				"x": -0.3883823179,
				"y": -2.4373052114,
				"z": 1.6597001683,
				"element": "C" 
			},
			{
				"x": -1.6071996975,
				"y": -2.6668434937,
				"z": 1.0282751596,
				"element": "C" 
			},
			{
				"x": -2.0031079433,
				"y": -1.7514692053,
				"z": 0.0562554627,
				"element": "C" 
			},
			{
				"x": -3.6637211208,
				"y": -1.9976950752,
				"z": -0.8555582833,
				"element": "Br" 
			},
			{
				"x": -1.2064425738,
				"y": -0.648004465,
				"z": -0.2696610214,
				"element": "C" 
			},
			{
				"x": 0.4121698414,
				"y": 1.3905349999,
				"z": -0.7740539994,
				"element": "H" 
			},
			{
				"x": 1.8669368719,
				"y": 0.4768224599,
				"z": -0.3636661501,
				"element": "H" 
			},
			{
				"x": 1.0456182711,
				"y": 1.435468398,
				"z": 0.8740930901,
				"element": "H" 
			},
			{
				"x": 2.3128379444,
				"y": -0.630878275,
				"z": 2.0534419609,
				"element": "H" 
			},
			{
				"x": -2.2145280211,
				"y": -3.5255732167,
				"z": 1.2903556685,
				"element": "H" 
			},
			{
				"x": -1.5514281364,
				"y": 0.041727204,
				"z": -1.0330683717,
				"element": "H" 
			}
		],
		 "valence_orbital": [ 
			{
				"type": "occ",
				"energy": -0.3003,
				"method": "rhf"
			},
			{
				"type": "occ",
				"energy": -0.29874,
				"method": "rhf"
			},
			{
				"type": "occ",
				"energy": -0.28241,
				"method": "rhf"
			},
			{
				"type": "occ",
				"energy": -0.25344,
				"method": "rhf"
			},
			{
				"type": "occ",
				"energy": -0.23726,
				"method": "rhf"
			},
			{
				"type": "unocc",
				"energy": -0.10472,
				"method": "rhf"
			},
			{
				"type": "unocc",
				"energy": -0.03233,
				"method": "rhf"
			},
			{
				"type": "unocc",
				"energy": -0.00536,
				"method": "rhf"
			},
			{
				"type": "unocc",
				"energy": -0.00265,
				"method": "rhf"
			},
			{
				"type": "unocc",
				"energy": 0.05529,
				"method": "rhf"
			}
		],
		"cosmo_sigma_profile": { 
			"-0.025": 0.0,
			"-0.024": 0.0,
			"-0.023": 0.0,
			"-0.022": 0.0,
			"-0.021": 0.0,
			"-0.02": 0.0,
			"-0.019": 0.0,
			"-0.018": 0.0,
			"-0.017": 0.161588594183,
			"-0.016": 0.760120888078,
			"-0.015": 1.00041795241,
			"-0.014": 1.45784907545,
			"-0.013": 0.901061750389,
			"-0.012": 0.587587412875,
			"-0.011": 1.89115637286,
			"-0.01": 1.3676288563,
			"-0.009": 1.37362203262,
			"-0.008": 4.95522499571,
			"-0.007": 7.51848169879,
			"-0.006": 10.1773743696,
			"-0.005": 11.4112968581,
			"-0.004": 12.9485283862,
			"-0.003": 13.8064494371,
			"-0.002": 16.7836740485,
			"-0.001": 21.175862714,
			"0.0": 16.5494966823,
			"0.001": 20.2527327746,
			"0.002": 10.4680588118,
			"0.003": 9.15082103459,
			"0.004": 13.6028572649,
			"0.005": 5.70870970377,
			"0.006": 2.17874798803,
			"0.007": 3.25743269767,
			"0.008": 3.8653205029,
			"0.009": 5.12278938017,
			"0.01": 8.82220838818,
			"0.011": 7.72054655781,
			"0.012": 2.7056200638,
			"0.013": 0.0771801782961,
			"0.014": 0.0,
			"0.015": 0.0,
			"0.016": 0.0,
			"0.017": 0.0,
			"0.018": 0.0,
			"0.019": 0.0,
			"0.02": 0.0,
			"0.021": 0.0,
			"0.022": 0.0,
			"0.023": 0.0,
			"0.024": 0.0,
			"0.025": 0.0
		}
	}
}
