{
	 "smiles": "NS(=O)(=O)C1=CC=C(SCCCCCO)C=C1", 
	 "Tm": 376.15, 
	 "num_atms": 34, 
	 "gaussian": { 
		 "optdone": 1, 
		 "sigma_profile": "yes", 
		 "theory": "DFT", 
		 "functional": "B3LYP", 
		 "basiset": "6-31G**", 
		 "properties": { 
			 "R2extent": 9441.2968, 
			 "electric_dipole_moment_norm": 6.76655445629, 
			 "electric_quadrupole_moment_norm": 40.3551745878, 
			 "total_energy": -1506.14394466, 
			 "HOMO_LUMO_gap": 0.18601, 
			 "cosmo_polarized_energy": -22.45, 
			 "cosmo_cavitation_energy": 38.95, 
			 "cosmo_dispersion_energy": -28.53, 
			 "cosmo_repulsion_energy": 2.14, 
			 "cosmo_total_nonelectrostatic_energy": 12.57, 
			 "SMD_solvation_energy": 5.54 
		},
		"coords": [
			{
				"x": -2.1691723966,
				"y": 1.8598228342,
				"z": -6.0142182846,
				"element": "N" 
			},
			{
				"x": -0.6837076042,
				"y": 2.274553257,
				"z": -5.3324519716,
				"element": "S" 
			},
			{
				"x": -0.4636891865,
				"y": 3.6714473613,
				"z": -5.7050121062,
				"element": "O" 
			},
			{
				"x": 0.230209032,
				"y": 1.1960637926,
				"z": -5.7091679197,
				"element": "O" 
			},
			{
				"x": -0.886884214,
				"y": 2.2120727038,
				"z": -3.5533048289,
				"element": "C" 
			},
			{
				"x": -1.3311608004,
				"y": 3.3445080574,
				"z": -2.8625509284,
				"element": "C" 
			},
			{
				"x": -1.5096847808,
				"y": 3.278709218,
				"z": -1.4864500614,
				"element": "C" 
			},
			{
				"x": -1.2473509251,
				"y": 2.0872615819,
				"z": -0.7830120516,
				"element": "C" 
			},
			{
				"x": -1.5634335318,
				"y": 2.1323624236,
				"z": 0.9662075189,
				"element": "S" 
			},
			{
				"x": -0.9615152062,
				"y": 0.5240759458,
				"z": 1.6154296444,
				"element": "C" 
			},
			{
				"x": 0.5589025791,
				"y": 0.4192139619,
				"z": 1.7774952815,
				"element": "C" 
			},
			{
				"x": 0.9985611028,
				"y": -0.8489206574,
				"z": 2.535163575,
				"element": "C" 
			},
			{
				"x": 0.7022857749,
				"y": -2.2069373614,
				"z": 1.8716470373,
				"element": "C" 
			},
			{
				"x": 1.4710343004,
				"y": -2.4989196722,
				"z": 0.5871371165,
				"element": "C" 
			},
			{
				"x": 0.9490196616,
				"y": -1.6932585493,
				"z": -0.4709475928,
				"element": "O" 
			},
			{
				"x": -0.7856251049,
				"y": 0.9631831289,
				"z": -1.4854450454,
				"element": "C" 
			},
			{
				"x": -0.6070113359,
				"y": 1.0302167127,
				"z": -2.8667022177,
				"element": "C" 
			},
			{
				"x": -2.4446119041,
				"y": 0.9080329409,
				"z": -5.7919888861,
				"element": "H" 
			},
			{
				"x": -2.8951258556,
				"y": 2.5364621742,
				"z": -5.7989752771,
				"element": "H" 
			},
			{
				"x": -1.507717093,
				"y": 4.2711414127,
				"z": -3.3987058278,
				"element": "H" 
			},
			{
				"x": -1.8449668304,
				"y": 4.1596660301,
				"z": -0.9467019669,
				"element": "H" 
			},
			{
				"x": -1.455665239,
				"y": 0.4585272833,
				"z": 2.5914286688,
				"element": "H" 
			},
			{
				"x": -1.3716146612,
				"y": -0.2799136634,
				"z": 0.9990707936,
				"element": "H" 
			},
			{
				"x": 0.9069051848,
				"y": 1.2956328795,
				"z": 2.3361156502,
				"element": "H" 
			},
			{
				"x": 1.0375770665,
				"y": 0.4530671459,
				"z": 0.7959236461,
				"element": "H" 
			},
			{
				"x": 0.5292255962,
				"y": -0.8443502596,
				"z": 3.5286503572,
				"element": "H" 
			},
			{
				"x": 2.0798585002,
				"y": -0.7809313874,
				"z": 2.715989383,
				"element": "H" 
			},
			{
				"x": -0.368995278,
				"y": -2.3199742661,
				"z": 1.664079763,
				"element": "H" 
			},
			{
				"x": 0.9565316239,
				"y": -2.9989020932,
				"z": 2.5876475228,
				"element": "H" 
			},
			{
				"x": 2.5425692932,
				"y": -2.2948976506,
				"z": 0.7416710233,
				"element": "H" 
			},
			{
				"x": 1.3715668816,
				"y": -3.5666885532,
				"z": 0.3376138318,
				"element": "H" 
			},
			{
				"x": 1.5123337959,
				"y": -1.8041377661,
				"z": -1.2467965375,
				"element": "H" 
			},
			{
				"x": -0.5379982699,
				"y": 0.0393790083,
				"z": -0.9760494892,
				"element": "H" 
			},
			{
				"x": -0.2300501753,
				"y": 0.170932026,
				"z": -3.4116898205,
				"element": "H" 
			}
		],
		 "valence_orbital": [ 
			{
				"type": "occ",
				"energy": -0.2959,
				"method": "rhf"
			},
			{
				"type": "occ",
				"energy": -0.28656,
				"method": "rhf"
			},
			{
				"type": "occ",
				"energy": -0.2822,
				"method": "rhf"
			},
			{
				"type": "occ",
				"energy": -0.26808,
				"method": "rhf"
			},
			{
				"type": "occ",
				"energy": -0.21893,
				"method": "rhf"
			},
			{
				"type": "unocc",
				"energy": -0.03292,
				"method": "rhf"
			},
			{
				"type": "unocc",
				"energy": -0.0189,
				"method": "rhf"
			},
			{
				"type": "unocc",
				"energy": 0.0304,
				"method": "rhf"
			},
			{
				"type": "unocc",
				"energy": 0.04914,
				"method": "rhf"
			},
			{
				"type": "unocc",
				"energy": 0.06036,
				"method": "rhf"
			}
		],
		"cosmo_sigma_profile": { 
			"-0.025": 0.0,
			"-0.024": 0.0,
			"-0.023": 0.0,
			"-0.022": 0.0,
			"-0.021": 0.0,
			"-0.02": 0.0,
			"-0.019": 0.0,
			"-0.018": 0.0,
			"-0.017": 0.0,
			"-0.016": 0.201312074864,
			"-0.015": 2.70786412595,
			"-0.014": 4.228087353,
			"-0.013": 2.94823984096,
			"-0.012": 3.8541803719,
			"-0.011": 3.87720110008,
			"-0.01": 3.32996112105,
			"-0.009": 3.16231319977,
			"-0.008": 3.06479388902,
			"-0.007": 5.59184277273,
			"-0.006": 9.93286438394,
			"-0.005": 12.6260784725,
			"-0.004": 13.8340367549,
			"-0.003": 26.7310305371,
			"-0.002": 31.2392798441,
			"-0.001": 26.8847947395,
			"0.0": 23.0340381033,
			"0.001": 18.5726188964,
			"0.002": 16.1051197194,
			"0.003": 23.3152688755,
			"0.004": 9.9950453939,
			"0.005": 9.0431738748,
			"0.006": 7.2952887568,
			"0.007": 6.68590266331,
			"0.008": 8.85961784381,
			"0.009": 4.83232474159,
			"0.01": 6.76407945385,
			"0.011": 11.5680850095,
			"0.012": 7.14372910519,
			"0.013": 0.666158952231,
			"0.014": 0.0,
			"0.015": 0.0,
			"0.016": 0.0,
			"0.017": 0.0,
			"0.018": 0.0,
			"0.019": 0.0,
			"0.02": 0.0,
			"0.021": 0.0,
			"0.022": 0.0,
			"0.023": 0.0,
			"0.024": 0.0,
			"0.025": 0.0
		}
	}
}
