{
	 "smiles": "O=CC1=CC=C(OCC2=NOC=N2)C=C1", 
	 "Tm": 372.15, 
	 "num_atms": 23, 
	 "gaussian": { 
		 "optdone": 1, 
		 "sigma_profile": "yes", 
		 "theory": "DFT", 
		 "functional": "B3LYP", 
		 "basiset": "6-31G**", 
		 "properties": { 
			 "R2extent": 4132.8419, 
			 "electric_dipole_moment_norm": 4.75484787349, 
			 "electric_quadrupole_moment_norm": 16.8131727607, 
			 "total_energy": -720.987146356, 
			 "HOMO_LUMO_gap": 0.18519, 
			 "cosmo_polarized_energy": -14.63, 
			 "cosmo_cavitation_energy": 29.03, 
			 "cosmo_dispersion_energy": -20.84, 
			 "cosmo_repulsion_energy": 1.61, 
			 "cosmo_total_nonelectrostatic_energy": 9.81, 
			 "SMD_solvation_energy": 5.17 
		},
		"coords": [
			{
				"x": 5.4135203215,
				"y": 1.1111522485,
				"z": 1.0793031753,
				"element": "O" 
			},
			{
				"x": 4.6438098735,
				"y": 0.2289610278,
				"z": 0.7432661768,
				"element": "C" 
			},
			{
				"x": 3.2835100404,
				"y": 0.4520300727,
				"z": 0.2211275545,
				"element": "C" 
			},
			{
				"x": 2.4775033311,
				"y": -0.6337739381,
				"z": -0.1350366479,
				"element": "C" 
			},
			{
				"x": 1.187325996,
				"y": -0.4462713558,
				"z": -0.6302726503,
				"element": "C" 
			},
			{
				"x": 0.7006944666,
				"y": 0.8601706644,
				"z": -0.7732562969,
				"element": "C" 
			},
			{
				"x": -0.5326406357,
				"y": 1.1880145369,
				"z": -1.2609032136,
				"element": "O" 
			},
			{
				"x": -1.4077062729,
				"y": 0.1682278384,
				"z": -1.7271428989,
				"element": "C" 
			},
			{
				"x": -2.1017178164,
				"y": -0.5620542979,
				"z": -0.6117238941,
				"element": "C" 
			},
			{
				"x": -1.9841986995,
				"y": -1.8573568635,
				"z": -0.4569950313,
				"element": "N" 
			},
			{
				"x": -2.7888486569,
				"y": -2.1244871694,
				"z": 0.6592773987,
				"element": "O" 
			},
			{
				"x": -3.291160789,
				"y": -0.9428926649,
				"z": 1.0432728103,
				"element": "C" 
			},
			{
				"x": -2.9175135439,
				"y": 0.0594497854,
				"z": 0.3115631278,
				"element": "N" 
			},
			{
				"x": 1.5000353656,
				"y": 1.961504617,
				"z": -0.4129894331,
				"element": "C" 
			},
			{
				"x": 2.7764460451,
				"y": 1.7571087552,
				"z": 0.0777413353,
				"element": "C" 
			},
			{
				"x": 4.9395962124,
				"y": -0.8424413475,
				"z": 0.8153901449,
				"element": "H" 
			},
			{
				"x": 2.860783196,
				"y": -1.6452290031,
				"z": -0.0200641275,
				"element": "H" 
			},
			{
				"x": 0.5778515214,
				"y": -1.3070883658,
				"z": -0.8747374573,
				"element": "H" 
			},
			{
				"x": -2.1562432844,
				"y": 0.6963424944,
				"z": -2.3228844341,
				"element": "H" 
			},
			{
				"x": -0.8896676772,
				"y": -0.5510913535,
				"z": -2.3699679605,
				"element": "H" 
			},
			{
				"x": -3.9467953684,
				"y": -0.9413571117,
				"z": 1.9033144876,
				"element": "H" 
			},
			{
				"x": 1.0881135694,
				"y": 2.9577210436,
				"z": -0.5350585483,
				"element": "H" 
			},
			{
				"x": 3.4101028053,
				"y": 2.5922603869,
				"z": 0.3589763828,
				"element": "H" 
			}
		],
		 "valence_orbital": [ 
			{
				"type": "occ",
				"energy": -0.32106,
				"method": "rhf"
			},
			{
				"type": "occ",
				"energy": -0.31671,
				"method": "rhf"
			},
			{
				"type": "occ",
				"energy": -0.26708,
				"method": "rhf"
			},
			{
				"type": "occ",
				"energy": -0.2485,
				"method": "rhf"
			},
			{
				"type": "occ",
				"energy": -0.23886,
				"method": "rhf"
			},
			{
				"type": "unocc",
				"energy": -0.05367,
				"method": "rhf"
			},
			{
				"type": "unocc",
				"energy": -0.04897,
				"method": "rhf"
			},
			{
				"type": "unocc",
				"energy": -0.01582,
				"method": "rhf"
			},
			{
				"type": "unocc",
				"energy": 0.00623,
				"method": "rhf"
			},
			{
				"type": "unocc",
				"energy": 0.04824,
				"method": "rhf"
			}
		],
		"cosmo_sigma_profile": { 
			"-0.025": 0.0,
			"-0.024": 0.0,
			"-0.023": 0.0,
			"-0.022": 0.0,
			"-0.021": 0.0,
			"-0.02": 0.0,
			"-0.019": 0.0,
			"-0.018": 0.0,
			"-0.017": 0.0,
			"-0.016": 0.0,
			"-0.015": 0.0,
			"-0.014": 0.0,
			"-0.013": 1.69408658655,
			"-0.012": 2.36462382544,
			"-0.011": 1.72723569141,
			"-0.01": 1.57585566544,
			"-0.009": 3.20754985473,
			"-0.008": 6.91110288459,
			"-0.007": 11.8315383575,
			"-0.006": 15.0787375417,
			"-0.005": 16.376753012,
			"-0.004": 14.8363867729,
			"-0.003": 12.5092384271,
			"-0.002": 11.8820624155,
			"-0.001": 11.7601381945,
			"0.0": 12.9532661215,
			"0.001": 15.8031601347,
			"0.002": 17.776898375,
			"0.003": 17.9307912722,
			"0.004": 8.70041199914,
			"0.005": 8.21016953881,
			"0.006": 6.97170468064,
			"0.007": 6.18038574084,
			"0.008": 5.26354240379,
			"0.009": 4.65894358738,
			"0.01": 3.79166226417,
			"0.011": 5.63213844097,
			"0.012": 5.80770675852,
			"0.013": 2.27221741485,
			"0.014": 0.379663504034,
			"0.015": 0.0,
			"0.016": 0.0,
			"0.017": 0.0,
			"0.018": 0.0,
			"0.019": 0.0,
			"0.02": 0.0,
			"0.021": 0.0,
			"0.022": 0.0,
			"0.023": 0.0,
			"0.024": 0.0,
			"0.025": 0.0
		}
	}
}
