{
	 "smiles": "CCCCN(CCC(=O)OCC)C(C)=O", 
	 "Tm": 253.15, 
	 "num_atms": 36, 
	 "gaussian": { 
		 "optdone": 1, 
		 "sigma_profile": "yes", 
		 "theory": "DFT", 
		 "functional": "B3LYP", 
		 "basiset": "6-31G**", 
		 "properties": { 
			 "R2extent": 5934.9347, 
			 "electric_dipole_moment_norm": 3.76235605572, 
			 "electric_quadrupole_moment_norm": 13.277096761, 
			 "total_energy": -712.294588985, 
			 "HOMO_LUMO_gap": 0.25166, 
			 "cosmo_polarized_energy": -13.82, 
			 "cosmo_cavitation_energy": 38.19, 
			 "cosmo_dispersion_energy": -26.04, 
			 "cosmo_repulsion_energy": 2.11, 
			 "cosmo_total_nonelectrostatic_energy": 14.26, 
			 "SMD_solvation_energy": 7.68 
		},
		"coords": [
			{
				"x": 3.1771339457,
				"y": 3.0730492003,
				"z": 0.9693773654,
				"element": "C" 
			},
			{
				"x": 2.4407318213,
				"y": 2.11637592,
				"z": 1.9158334638,
				"element": "C" 
			},
			{
				"x": 1.259261091,
				"y": 1.3682903066,
				"z": 1.2760008185,
				"element": "C" 
			},
			{
				"x": 1.6796277288,
				"y": 0.3611788412,
				"z": 0.1922752401,
				"element": "C" 
			},
			{
				"x": 0.5645516519,
				"y": -0.3819974651,
				"z": -0.3931794776,
				"element": "N" 
			},
			{
				"x": -0.0151501698,
				"y": -1.4863385006,
				"z": 0.379699783,
				"element": "C" 
			},
			{
				"x": -1.4200733042,
				"y": -1.1857782085,
				"z": 0.9154046223,
				"element": "C" 
			},
			{
				"x": -1.9252098079,
				"y": -2.2933233731,
				"z": 1.8148929238,
				"element": "C" 
			},
			{
				"x": -1.2725298127,
				"y": -3.2520607605,
				"z": 2.175779491,
				"element": "O" 
			},
			{
				"x": -3.2091678612,
				"y": -2.0742544269,
				"z": 2.1759029288,
				"element": "O" 
			},
			{
				"x": -3.8149164907,
				"y": -3.0586833057,
				"z": 3.0478646093,
				"element": "C" 
			},
			{
				"x": -3.5127163885,
				"y": -2.765590084,
				"z": 4.5099374078,
				"element": "C" 
			},
			{
				"x": 0.0487230871,
				"y": -0.1593176492,
				"z": -1.6477737385,
				"element": "C" 
			},
			{
				"x": 0.6575187329,
				"y": 0.9532495958,
				"z": -2.4927814193,
				"element": "C" 
			},
			{
				"x": -0.8776509291,
				"y": -0.84166302,
				"z": -2.0812805099,
				"element": "O" 
			},
			{
				"x": 3.652930238,
				"y": 2.5463219991,
				"z": 0.1353962072,
				"element": "H" 
			},
			{
				"x": 2.4900288932,
				"y": 3.8143903696,
				"z": 0.5451484335,
				"element": "H" 
			},
			{
				"x": 3.9652131323,
				"y": 3.6177480387,
				"z": 1.4989725445,
				"element": "H" 
			},
			{
				"x": 2.0649871598,
				"y": 2.6854218064,
				"z": 2.7747277738,
				"element": "H" 
			},
			{
				"x": 3.1515987935,
				"y": 1.386362172,
				"z": 2.3268353816,
				"element": "H" 
			},
			{
				"x": 0.5537043038,
				"y": 2.0880298486,
				"z": 0.8394127519,
				"element": "H" 
			},
			{
				"x": 0.7098840251,
				"y": 0.8330298269,
				"z": 2.0601135238,
				"element": "H" 
			},
			{
				"x": 2.217939779,
				"y": 0.8726948708,
				"z": -0.6062574366,
				"element": "H" 
			},
			{
				"x": 2.385205384,
				"y": -0.3616465757,
				"z": 0.624255295,
				"element": "H" 
			},
			{
				"x": -0.0640045791,
				"y": -2.3733181198,
				"z": -0.2575236838,
				"element": "H" 
			},
			{
				"x": 0.6592032523,
				"y": -1.7128322111,
				"z": 1.2086233943,
				"element": "H" 
			},
			{
				"x": -2.1141336135,
				"y": -1.0542596394,
				"z": 0.080955413,
				"element": "H" 
			},
			{
				"x": -1.4369106616,
				"y": -0.2496810498,
				"z": 1.4867930963,
				"element": "H" 
			},
			{
				"x": -3.4561419135,
				"y": -4.0506408065,
				"z": 2.7631902055,
				"element": "H" 
			},
			{
				"x": -4.8847427373,
				"y": -2.9854945553,
				"z": 2.8380345555,
				"element": "H" 
			},
			{
				"x": -3.8328143515,
				"y": -1.7545969213,
				"z": 4.7792588117,
				"element": "H" 
			},
			{
				"x": -2.4423666457,
				"y": -2.8635072224,
				"z": 4.7074421283,
				"element": "H" 
			},
			{
				"x": -4.0456871766,
				"y": -3.4764416224,
				"z": 5.1503162655,
				"element": "H" 
			},
			{
				"x": 1.6869627702,
				"y": 0.7187086421,
				"z": -2.7850487145,
				"element": "H" 
			},
			{
				"x": 0.051059623,
				"y": 1.0393146908,
				"z": -3.3939477797,
				"element": "H" 
			},
			{
				"x": 0.6682510297,
				"y": 1.9162593884,
				"z": -1.9728516753,
				"element": "H" 
			}
		],
		 "valence_orbital": [ 
			{
				"type": "occ",
				"energy": -0.33272,
				"method": "rhf"
			},
			{
				"type": "occ",
				"energy": -0.29411,
				"method": "rhf"
			},
			{
				"type": "occ",
				"energy": -0.26855,
				"method": "rhf"
			},
			{
				"type": "occ",
				"energy": -0.24043,
				"method": "rhf"
			},
			{
				"type": "occ",
				"energy": -0.23435,
				"method": "rhf"
			},
			{
				"type": "unocc",
				"energy": 0.01731,
				"method": "rhf"
			},
			{
				"type": "unocc",
				"energy": 0.03041,
				"method": "rhf"
			},
			{
				"type": "unocc",
				"energy": 0.06981,
				"method": "rhf"
			},
			{
				"type": "unocc",
				"energy": 0.09475,
				"method": "rhf"
			},
			{
				"type": "unocc",
				"energy": 0.10039,
				"method": "rhf"
			}
		],
		"cosmo_sigma_profile": { 
			"-0.025": 0.0,
			"-0.024": 0.0,
			"-0.023": 0.0,
			"-0.022": 0.0,
			"-0.021": 0.0,
			"-0.02": 0.0,
			"-0.019": 0.0,
			"-0.018": 0.0,
			"-0.017": 0.0,
			"-0.016": 0.0,
			"-0.015": 0.0,
			"-0.014": 0.0,
			"-0.013": 0.0,
			"-0.012": 0.0,
			"-0.011": 0.0,
			"-0.01": 0.0,
			"-0.009": 0.0,
			"-0.008": 0.0,
			"-0.007": 0.0820503432106,
			"-0.006": 5.94899722084,
			"-0.005": 18.7287902974,
			"-0.004": 31.3490885801,
			"-0.003": 37.096603164,
			"-0.002": 41.573757818,
			"-0.001": 39.3465171512,
			"0.0": 37.295508056,
			"0.001": 23.1933514196,
			"0.002": 9.60015833918,
			"0.003": 4.66282723199,
			"0.004": 4.43486472655,
			"0.005": 4.96320636394,
			"0.006": 4.61337137017,
			"0.007": 4.18737298052,
			"0.008": 4.88561948843,
			"0.009": 2.95965288796,
			"0.01": 3.82667287042,
			"0.011": 3.37249131387,
			"0.012": 5.13366962243,
			"0.013": 2.84284305368,
			"0.014": 3.71972359147,
			"0.015": 2.36387535859,
			"0.016": 0.392551597388,
			"0.017": 0.0,
			"0.018": 0.0,
			"0.019": 0.0,
			"0.02": 0.0,
			"0.021": 0.0,
			"0.022": 0.0,
			"0.023": 0.0,
			"0.024": 0.0,
			"0.025": 0.0
		}
	}
}
