{
	 "smiles": "NC1=C(N=C2C=CC=CN12)C1=CC=CS1", 
	 "Tm": 462.15, 
	 "num_atms": 24, 
	 "gaussian": { 
		 "optdone": 1, 
		 "sigma_profile": "yes", 
		 "theory": "DFT", 
		 "functional": "B3LYP", 
		 "basiset": "6-31G**", 
		 "properties": { 
			 "R2extent": 4292.6555, 
			 "electric_dipole_moment_norm": 2.1130958213, 
			 "electric_quadrupole_moment_norm": 14.1714960766, 
			 "total_energy": -987.022581522, 
			 "HOMO_LUMO_gap": 0.15753, 
			 "cosmo_polarized_energy": -11.96, 
			 "cosmo_cavitation_energy": 29.58, 
			 "cosmo_dispersion_energy": -22.61, 
			 "cosmo_repulsion_energy": 1.69, 
			 "cosmo_total_nonelectrostatic_energy": 8.66, 
			 "SMD_solvation_energy": 3.8 
		},
		"coords": [
			{
				"x": -0.0544539321,
				"y": -0.7842549995,
				"z": -1.9211978238,
				"element": "N" 
			},
			{
				"x": 0.7206466933,
				"y": -0.7265223848,
				"z": -0.7489517507,
				"element": "C" 
			},
			{
				"x": 0.4465908845,
				"y": -0.7762112441,
				"z": 0.6179669852,
				"element": "C" 
			},
			{
				"x": 1.5917866542,
				"y": -0.6751063491,
				"z": 1.3648968749,
				"element": "N" 
			},
			{
				"x": 2.5820040695,
				"y": -0.5624795292,
				"z": 0.4855390972,
				"element": "C" 
			},
			{
				"x": 3.9780416918,
				"y": -0.4272181415,
				"z": 0.6757339925,
				"element": "C" 
			},
			{
				"x": 4.8036418684,
				"y": -0.3272965509,
				"z": -0.4186963939,
				"element": "C" 
			},
			{
				"x": 4.2640870658,
				"y": -0.3590044497,
				"z": -1.7372259186,
				"element": "C" 
			},
			{
				"x": 2.9164406105,
				"y": -0.4894572548,
				"z": -1.9287293942,
				"element": "C" 
			},
			{
				"x": 2.0980276132,
				"y": -0.5887141614,
				"z": -0.8329577898,
				"element": "N" 
			},
			{
				"x": -0.8461394965,
				"y": -0.9146857142,
				"z": 1.2662784558,
				"element": "C" 
			},
			{
				"x": -1.0883067447,
				"y": -0.96105432,
				"z": 2.6196159027,
				"element": "C" 
			},
			{
				"x": -2.4679637475,
				"y": -1.1023909496,
				"z": 2.9433056705,
				"element": "C" 
			},
			{
				"x": -3.2736945407,
				"y": -1.1636203541,
				"z": 1.8395165329,
				"element": "C" 
			},
			{
				"x": -2.3517816276,
				"y": -1.0484075218,
				"z": 0.3727328566,
				"element": "S" 
			},
			{
				"x": -0.5594409851,
				"y": -1.6605406642,
				"z": -2.0194292167,
				"element": "H" 
			},
			{
				"x": -0.7219360347,
				"y": -0.0214560062,
				"z": -1.9927451412,
				"element": "H" 
			},
			{
				"x": 4.3533890094,
				"y": -0.4067606539,
				"z": 1.692301912,
				"element": "H" 
			},
			{
				"x": 5.8753447397,
				"y": -0.2232812092,
				"z": -0.2837291714,
				"element": "H" 
			},
			{
				"x": 4.9138740362,
				"y": -0.2803069696,
				"z": -2.6012908545,
				"element": "H" 
			},
			{
				"x": 2.4170714113,
				"y": -0.5230371381,
				"z": -2.8887313611,
				"element": "H" 
			},
			{
				"x": -0.2836365108,
				"y": -0.8936399992,
				"z": 3.3409961315,
				"element": "H" 
			},
			{
				"x": -2.8457438014,
				"y": -1.1564860526,
				"z": 3.9581607686,
				"element": "H" 
			},
			{
				"x": -4.3485489268,
				"y": -1.2689673823,
				"z": 1.7927396353,
				"element": "H" 
			}
		],
		 "valence_orbital": [ 
			{
				"type": "occ",
				"energy": -0.26794,
				"method": "rhf"
			},
			{
				"type": "occ",
				"energy": -0.25489,
				"method": "rhf"
			},
			{
				"type": "occ",
				"energy": -0.24813,
				"method": "rhf"
			},
			{
				"type": "occ",
				"energy": -0.21201,
				"method": "rhf"
			},
			{
				"type": "occ",
				"energy": -0.19692,
				"method": "rhf"
			},
			{
				"type": "unocc",
				"energy": -0.03939,
				"method": "rhf"
			},
			{
				"type": "unocc",
				"energy": -0.01094,
				"method": "rhf"
			},
			{
				"type": "unocc",
				"energy": 0.01492,
				"method": "rhf"
			},
			{
				"type": "unocc",
				"energy": 0.031,
				"method": "rhf"
			},
			{
				"type": "unocc",
				"energy": 0.05463,
				"method": "rhf"
			}
		],
		"cosmo_sigma_profile": { 
			"-0.025": 0.0,
			"-0.024": 0.0,
			"-0.023": 0.0,
			"-0.022": 0.0,
			"-0.021": 0.0,
			"-0.02": 0.0,
			"-0.019": 0.0,
			"-0.018": 0.0,
			"-0.017": 0.0,
			"-0.016": 0.0,
			"-0.015": 0.0,
			"-0.014": 0.0,
			"-0.013": 0.0,
			"-0.012": 0.721653124628,
			"-0.011": 2.17450353884,
			"-0.01": 2.85635734832,
			"-0.009": 2.52853080946,
			"-0.008": 4.69864606282,
			"-0.007": 9.16193187684,
			"-0.006": 15.3113138469,
			"-0.005": 14.903977207,
			"-0.004": 15.4844794406,
			"-0.003": 11.0888034961,
			"-0.002": 12.200729191,
			"-0.001": 14.7404532263,
			"0.0": 19.3800630531,
			"0.001": 16.0791860469,
			"0.002": 18.7277379511,
			"0.003": 19.3563883977,
			"0.004": 21.8899887562,
			"0.005": 15.6398641366,
			"0.006": 6.12127400383,
			"0.007": 3.18681764224,
			"0.008": 2.85359962265,
			"0.009": 2.10791441517,
			"0.01": 1.52522808612,
			"0.011": 1.97109536474,
			"0.012": 1.68519184464,
			"0.013": 0.859861762056,
			"0.014": 0.650979164678,
			"0.015": 1.43221558505,
			"0.016": 0.531425546767,
			"0.017": 0.00132116372276,
			"0.018": 0.0,
			"0.019": 0.0,
			"0.02": 0.0,
			"0.021": 0.0,
			"0.022": 0.0,
			"0.023": 0.0,
			"0.024": 0.0,
			"0.025": 0.0
		}
	}
}
