{
	 "smiles": "CC1=NN(C(O)=C1)C(C)(C)C", 
	 "Tm": 399.15, 
	 "num_atms": 25, 
	 "gaussian": { 
		 "optdone": 1, 
		 "sigma_profile": "yes", 
		 "theory": "DFT", 
		 "functional": "B3LYP", 
		 "basiset": "6-31G**", 
		 "properties": { 
			 "R2extent": 2089.7372, 
			 "electric_dipole_moment_norm": 2.32762752604, 
			 "electric_quadrupole_moment_norm": 6.34335748874, 
			 "total_energy": -498.005131714, 
			 "HOMO_LUMO_gap": 0.25081, 
			 "cosmo_polarized_energy": -10.09, 
			 "cosmo_cavitation_energy": 26.73, 
			 "cosmo_dispersion_energy": -19.22, 
			 "cosmo_repulsion_energy": 1.56, 
			 "cosmo_total_nonelectrostatic_energy": 9.07, 
			 "SMD_solvation_energy": 4.71 
		},
		"coords": [
			{
				"x": 0.5779662452,
				"y": -2.6419657913,
				"z": 1.4364932535,
				"element": "C" 
			},
			{
				"x": 0.4501643889,
				"y": -1.5089637264,
				"z": 0.4593711795,
				"element": "C" 
			},
			{
				"x": -0.7475781402,
				"y": -1.0927107847,
				"z": 0.0563916416,
				"element": "N" 
			},
			{
				"x": -0.5082801832,
				"y": -0.0651109159,
				"z": -0.816173664,
				"element": "N" 
			},
			{
				"x": 0.8267782002,
				"y": 0.1473391078,
				"z": -0.9473355618,
				"element": "C" 
			},
			{
				"x": 1.2853017526,
				"y": 1.129178615,
				"z": -1.7719649992,
				"element": "O" 
			},
			{
				"x": 1.4902359967,
				"y": -0.7610953556,
				"z": -0.1424760068,
				"element": "C" 
			},
			{
				"x": -1.6283083451,
				"y": 0.6583880338,
				"z": -1.4791255364,
				"element": "C" 
			},
			{
				"x": -2.9559852491,
				"y": 0.0493622217,
				"z": -1.0079529259,
				"element": "C" 
			},
			{
				"x": -1.5691503679,
				"y": 2.1456482259,
				"z": -1.0788736624,
				"element": "C" 
			},
			{
				"x": -1.4954054291,
				"y": 0.4941916214,
				"z": -3.0058760092,
				"element": "C" 
			},
			{
				"x": 0.1257021839,
				"y": -3.5582215383,
				"z": 1.0427129656,
				"element": "H" 
			},
			{
				"x": 0.0745985593,
				"y": -2.4098748574,
				"z": 2.3808930184,
				"element": "H" 
			},
			{
				"x": 1.6290491397,
				"y": -2.8491299516,
				"z": 1.6544233754,
				"element": "H" 
			},
			{
				"x": 2.2496303988,
				"y": 1.1248108305,
				"z": -1.7312967147,
				"element": "H" 
			},
			{
				"x": 2.5578789703,
				"y": -0.8664866943,
				"z": -0.0111552386,
				"element": "H" 
			},
			{
				"x": -3.7744833965,
				"y": 0.5855031246,
				"z": -1.4985595409,
				"element": "H" 
			},
			{
				"x": -3.0735659581,
				"y": 0.1374398353,
				"z": 0.0736438284,
				"element": "H" 
			},
			{
				"x": -3.0225328922,
				"y": -1.0094266053,
				"z": -1.2648312235,
				"element": "H" 
			},
			{
				"x": -0.6325425613,
				"y": 2.608217598,
				"z": -1.3971325872,
				"element": "H" 
			},
			{
				"x": -1.6603029475,
				"y": 2.2517031372,
				"z": 0.0064303252,
				"element": "H" 
			},
			{
				"x": -2.3968379167,
				"y": 2.6882048,
				"z": -1.5468877923,
				"element": "H" 
			},
			{
				"x": -2.3220962429,
				"y": 1.0080784818,
				"z": -3.5068456072,
				"element": "H" 
			},
			{
				"x": -0.5571466041,
				"y": 0.9153841717,
				"z": -3.3729599949,
				"element": "H" 
			},
			{
				"x": -1.5340896018,
				"y": -0.5645635841,
				"z": -3.2797125225,
				"element": "H" 
			}
		],
		 "valence_orbital": [ 
			{
				"type": "occ",
				"energy": -0.32888,
				"method": "rhf"
			},
			{
				"type": "occ",
				"energy": -0.32683,
				"method": "rhf"
			},
			{
				"type": "occ",
				"energy": -0.26483,
				"method": "rhf"
			},
			{
				"type": "occ",
				"energy": -0.2281,
				"method": "rhf"
			},
			{
				"type": "occ",
				"energy": -0.20722,
				"method": "rhf"
			},
			{
				"type": "unocc",
				"energy": 0.04359,
				"method": "rhf"
			},
			{
				"type": "unocc",
				"energy": 0.05586,
				"method": "rhf"
			},
			{
				"type": "unocc",
				"energy": 0.09159,
				"method": "rhf"
			},
			{
				"type": "unocc",
				"energy": 0.09989,
				"method": "rhf"
			},
			{
				"type": "unocc",
				"energy": 0.11904,
				"method": "rhf"
			}
		],
		"cosmo_sigma_profile": { 
			"-0.025": 0.0,
			"-0.024": 0.0,
			"-0.023": 0.0,
			"-0.022": 0.0,
			"-0.021": 0.0,
			"-0.02": 0.00787138756497,
			"-0.019": 0.539574477069,
			"-0.018": 1.34133363382,
			"-0.017": 0.258585231225,
			"-0.016": 1.30440804198,
			"-0.015": 1.04484613506,
			"-0.014": 0.683240313651,
			"-0.013": 0.310997717581,
			"-0.012": 1.00875793842,
			"-0.011": 1.18001596386,
			"-0.01": 0.964289978386,
			"-0.009": 0.69291923777,
			"-0.008": 1.1441933644,
			"-0.007": 1.32823122524,
			"-0.006": 2.37300853083,
			"-0.005": 1.98648943012,
			"-0.004": 12.697497681,
			"-0.003": 19.4553076371,
			"-0.002": 22.5831853847,
			"-0.001": 22.205964984,
			"0.0": 28.3330508807,
			"0.001": 27.0640883389,
			"0.002": 11.7901651615,
			"0.003": 8.42411675326,
			"0.004": 7.58514585375,
			"0.005": 7.97628103801,
			"0.006": 7.90607549336,
			"0.007": 5.36315391326,
			"0.008": 2.12903521691,
			"0.009": 1.09095799245,
			"0.01": 1.61216593342,
			"0.011": 1.89730883889,
			"0.012": 1.33450975376,
			"0.013": 1.13468444277,
			"0.014": 0.712364509605,
			"0.015": 0.780444952217,
			"0.016": 0.205990644607,
			"0.017": 0.0,
			"0.018": 0.0,
			"0.019": 0.0,
			"0.02": 0.0,
			"0.021": 0.0,
			"0.022": 0.0,
			"0.023": 0.0,
			"0.024": 0.0,
			"0.025": 0.0
		}
	}
}
