{
	 "smiles": "C(CN1CCOCC1)N1CCOCC1", 
	 "Tm": 348.15, 
	 "num_atms": 34, 
	 "gaussian": { 
		 "optdone": 1, 
		 "sigma_profile": "yes", 
		 "theory": "DFT", 
		 "functional": "B3LYP", 
		 "basiset": "6-31G**", 
		 "properties": { 
			 "R2extent": 3762.5311, 
			 "electric_dipole_moment_norm": 3.29364739764, 
			 "electric_quadrupole_moment_norm": 9.87543385477, 
			 "total_energy": -652.998128734, 
			 "HOMO_LUMO_gap": 0.27577, 
			 "cosmo_polarized_energy": -11.87, 
			 "cosmo_cavitation_energy": 32.84, 
			 "cosmo_dispersion_energy": -23.72, 
			 "cosmo_repulsion_energy": 1.89, 
			 "cosmo_total_nonelectrostatic_energy": 11.01, 
			 "SMD_solvation_energy": 2.87 
		},
		"coords": [
			{
				"x": -0.4576185866,
				"y": 1.8233196937,
				"z": -0.7502842203,
				"element": "C" 
			},
			{
				"x": 0.6969793159,
				"y": 0.9499376344,
				"z": -1.262733261,
				"element": "C" 
			},
			{
				"x": 0.8604834489,
				"y": -0.3062548833,
				"z": -0.5495162878,
				"element": "N" 
			},
			{
				"x": 1.0233402631,
				"y": -0.1509552634,
				"z": 0.9017284796,
				"element": "C" 
			},
			{
				"x": 1.7187451345,
				"y": -1.3883918799,
				"z": 1.4992187272,
				"element": "C" 
			},
			{
				"x": 1.3259100971,
				"y": -2.5713687654,
				"z": 0.830180758,
				"element": "O" 
			},
			{
				"x": 1.7384259026,
				"y": -2.5804129051,
				"z": -0.534455307,
				"element": "C" 
			},
			{
				"x": 1.8905956552,
				"y": -1.1637514587,
				"z": -1.1159403716,
				"element": "C" 
			},
			{
				"x": -1.7148699657,
				"y": 1.1139837741,
				"z": -0.578319452,
				"element": "N" 
			},
			{
				"x": -2.7660159213,
				"y": 1.9317199014,
				"z": 0.0079197769,
				"element": "C" 
			},
			{
				"x": -3.91053921,
				"y": 1.0158297236,
				"z": 0.4759720547,
				"element": "C" 
			},
			{
				"x": -4.1153064506,
				"y": -0.0944947265,
				"z": -0.3946482548,
				"element": "O" 
			},
			{
				"x": -3.6980616659,
				"y": 0.1798431043,
				"z": -1.7183055126,
				"element": "C" 
			},
			{
				"x": -2.1786280554,
				"y": 0.4208240372,
				"z": -1.7871536757,
				"element": "C" 
			},
			{
				"x": -0.5463843109,
				"y": 2.6761807261,
				"z": -1.4564009943,
				"element": "H" 
			},
			{
				"x": -0.1871640745,
				"y": 2.2562255799,
				"z": 0.2203974973,
				"element": "H" 
			},
			{
				"x": 1.611055266,
				"y": 1.5799242208,
				"z": -1.224503826,
				"element": "H" 
			},
			{
				"x": 0.5341331268,
				"y": 0.7104085211,
				"z": -2.3205139143,
				"element": "H" 
			},
			{
				"x": 1.6313578187,
				"y": 0.7395749642,
				"z": 1.1587862818,
				"element": "H" 
			},
			{
				"x": 0.0301395331,
				"y": -0.0152612257,
				"z": 1.3416416362,
				"element": "H" 
			},
			{
				"x": 1.4368084925,
				"y": -1.5113732147,
				"z": 2.5486498834,
				"element": "H" 
			},
			{
				"x": 2.8141845154,
				"y": -1.2684103698,
				"z": 1.4670886477,
				"element": "H" 
			},
			{
				"x": 2.6883329836,
				"y": -3.1292711053,
				"z": -0.6440322014,
				"element": "H" 
			},
			{
				"x": 0.9619243517,
				"y": -3.1276795506,
				"z": -1.0785997817,
				"element": "H" 
			},
			{
				"x": 2.9138443546,
				"y": -0.7745998777,
				"z": -0.9407504094,
				"element": "H" 
			},
			{
				"x": 1.7627998735,
				"y": -1.2102969289,
				"z": -2.2033546772,
				"element": "H" 
			},
			{
				"x": -2.3636993725,
				"y": 2.4686286482,
				"z": 0.8744382292,
				"element": "H" 
			},
			{
				"x": -3.142851419,
				"y": 2.7070737012,
				"z": -0.6891793496,
				"element": "H" 
			},
			{
				"x": -3.6720631152,
				"y": 0.5887562719,
				"z": 1.4554237421,
				"element": "H" 
			},
			{
				"x": -4.83855596,
				"y": 1.6032019116,
				"z": 0.5725292899,
				"element": "H" 
			},
			{
				"x": -4.2447652686,
				"y": 1.045357583,
				"z": -2.1274240661,
				"element": "H" 
			},
			{
				"x": -3.9710557962,
				"y": -0.6905162316,
				"z": -2.3215297003,
				"element": "H" 
			},
			{
				"x": -1.9667485232,
				"y": 1.002314787,
				"z": -2.7067821812,
				"element": "H" 
			},
			{
				"x": -1.6393324377,
				"y": -0.5289663973,
				"z": -1.8612475599,
				"element": "H" 
			}
		],
		 "valence_orbital": [ 
			{
				"type": "occ",
				"energy": -0.29745,
				"method": "rhf"
			},
			{
				"type": "occ",
				"energy": -0.24226,
				"method": "rhf"
			},
			{
				"type": "occ",
				"energy": -0.24125,
				"method": "rhf"
			},
			{
				"type": "occ",
				"energy": -0.20549,
				"method": "rhf"
			},
			{
				"type": "occ",
				"energy": -0.20542,
				"method": "rhf"
			},
			{
				"type": "unocc",
				"energy": 0.07035,
				"method": "rhf"
			},
			{
				"type": "unocc",
				"energy": 0.0861,
				"method": "rhf"
			},
			{
				"type": "unocc",
				"energy": 0.1036,
				"method": "rhf"
			},
			{
				"type": "unocc",
				"energy": 0.10772,
				"method": "rhf"
			},
			{
				"type": "unocc",
				"energy": 0.12002,
				"method": "rhf"
			}
		],
		"cosmo_sigma_profile": { 
			"-0.025": 0.0,
			"-0.024": 0.0,
			"-0.023": 0.0,
			"-0.022": 0.0,
			"-0.021": 0.0,
			"-0.02": 0.0,
			"-0.019": 0.0,
			"-0.018": 0.0,
			"-0.017": 0.0,
			"-0.016": 0.0,
			"-0.015": 0.0,
			"-0.014": 0.0,
			"-0.013": 0.0,
			"-0.012": 0.0,
			"-0.011": 0.0,
			"-0.01": 0.0,
			"-0.009": 0.0,
			"-0.008": 0.0,
			"-0.007": 0.0,
			"-0.006": 0.0845140323389,
			"-0.005": 5.55437405633,
			"-0.004": 23.9564117643,
			"-0.003": 48.8082813063,
			"-0.002": 58.9729209959,
			"-0.001": 39.8568302947,
			"0.0": 18.1079064576,
			"0.001": 5.84050256648,
			"0.002": 4.81005039721,
			"0.003": 3.64619231831,
			"0.004": 3.58464005856,
			"0.005": 3.36090061214,
			"0.006": 3.7976821294,
			"0.007": 3.04352230488,
			"0.008": 3.7756642188,
			"0.009": 3.3227451442,
			"0.01": 3.10256032017,
			"0.011": 3.93635575278,
			"0.012": 4.38616851416,
			"0.013": 5.59072259268,
			"0.014": 3.43950597765,
			"0.015": 0.878454047307,
			"0.016": 0.368347655956,
			"0.017": 0.0902845168834,
			"0.018": 0.0,
			"0.019": 0.0,
			"0.02": 0.0,
			"0.021": 0.0,
			"0.022": 0.0,
			"0.023": 0.0,
			"0.024": 0.0,
			"0.025": 0.0
		}
	}
}
