{
	 "smiles": "CC(=O)NC(CC1=CNC2=C1C=CC(F)=C2)C(O)=O", 
	 "Tm": 455.15, 
	 "num_atms": 32, 
	 "gaussian": { 
		 "optdone": 1, 
		 "sigma_profile": "yes", 
		 "theory": "DFT", 
		 "functional": "B3LYP", 
		 "basiset": "6-31G**", 
		 "properties": { 
			 "R2extent": 5963.5467, 
			 "electric_dipole_moment_norm": 3.88922213302, 
			 "electric_quadrupole_moment_norm": 33.8902955455, 
			 "total_energy": -938.262882502, 
			 "HOMO_LUMO_gap": 0.1904, 
			 "cosmo_polarized_energy": -23.75, 
			 "cosmo_cavitation_energy": 36.62, 
			 "cosmo_dispersion_energy": -25.07, 
			 "cosmo_repulsion_energy": 1.92, 
			 "cosmo_total_nonelectrostatic_energy": 13.46, 
			 "SMD_solvation_energy": 7.66 
		},
		"coords": [
			{
				"x": 0.1379696033,
				"y": 3.6509178479,
				"z": 2.477137038,
				"element": "C" 
			},
			{
				"x": 0.4538389945,
				"y": 3.3556769068,
				"z": 1.0203473944,
				"element": "C" 
			},
			{
				"x": 1.0340278648,
				"y": 4.155275182,
				"z": 0.3016462221,
				"element": "O" 
			},
			{
				"x": 0.0222472639,
				"y": 2.1451545143,
				"z": 0.5144535997,
				"element": "N" 
			},
			{
				"x": -0.4410069375,
				"y": 0.997602722,
				"z": 1.255240533,
				"element": "C" 
			},
			{
				"x": -1.2935469762,
				"y": 0.0704396883,
				"z": 0.3379930024,
				"element": "C" 
			},
			{
				"x": -0.5930633298,
				"y": -0.4194603651,
				"z": -0.8986567779,
				"element": "C" 
			},
			{
				"x": -0.5773778335,
				"y": 0.2083497017,
				"z": -2.1222895082,
				"element": "C" 
			},
			{
				"x": 0.1652408599,
				"y": -0.5315392359,
				"z": -3.0242827355,
				"element": "N" 
			},
			{
				"x": 0.6450577905,
				"y": -1.6610958579,
				"z": -2.4003124308,
				"element": "C" 
			},
			{
				"x": 0.1871133824,
				"y": -1.6276311646,
				"z": -1.0533802443,
				"element": "C" 
			},
			{
				"x": 0.5235535571,
				"y": -2.6937435394,
				"z": -0.1995744954,
				"element": "C" 
			},
			{
				"x": 1.295134515,
				"y": -3.7402754648,
				"z": -0.6857980483,
				"element": "C" 
			},
			{
				"x": 1.7303730957,
				"y": -3.72310569,
				"z": -2.0205089982,
				"element": "C" 
			},
			{
				"x": 2.4817847035,
				"y": -4.7584187879,
				"z": -2.4579082475,
				"element": "F" 
			},
			{
				"x": 1.4270894232,
				"y": -2.7056078244,
				"z": -2.9076084351,
				"element": "C" 
			},
			{
				"x": 0.71146519,
				"y": 0.2536207042,
				"z": 1.9451429676,
				"element": "C" 
			},
			{
				"x": 0.2550314451,
				"y": -0.8098818119,
				"z": 2.6574708712,
				"element": "O" 
			},
			{
				"x": 1.875761564,
				"y": 0.5718588463,
				"z": 1.9174210556,
				"element": "O" 
			},
			{
				"x": -0.9277019677,
				"y": 3.5293287556,
				"z": 2.699213993,
				"element": "H" 
			},
			{
				"x": 0.4317728344,
				"y": 4.6801340529,
				"z": 2.6808182459,
				"element": "H" 
			},
			{
				"x": 0.70194797,
				"y": 2.9826179028,
				"z": 3.1361950942,
				"element": "H" 
			},
			{
				"x": 0.4100668096,
				"y": 1.9442326951,
				"z": -0.4006318104,
				"element": "H" 
			},
			{
				"x": -1.102237405,
				"y": 1.3291977296,
				"z": 2.0640586439,
				"element": "H" 
			},
			{
				"x": -2.1783943341,
				"y": 0.648855178,
				"z": 0.0541914813,
				"element": "H" 
			},
			{
				"x": -1.6404814525,
				"y": -0.7751654176,
				"z": 0.9383204012,
				"element": "H" 
			},
			{
				"x": -1.0612567525,
				"y": 1.1247277434,
				"z": -2.4309806659,
				"element": "H" 
			},
			{
				"x": 0.3301449366,
				"y": -0.2794640336,
				"z": -3.9850563584,
				"element": "H" 
			},
			{
				"x": 0.1885159275,
				"y": -2.6975615473,
				"z": 0.8325119052,
				"element": "H" 
			},
			{
				"x": 1.5751896163,
				"y": -4.5795281444,
				"z": -0.0588366238,
				"element": "H" 
			},
			{
				"x": 1.7835315967,
				"y": -2.7398192197,
				"z": -3.9311342249,
				"element": "H" 
			},
			{
				"x": 1.0362080447,
				"y": -1.2075920665,
				"z": 3.0783971561,
				"element": "H" 
			}
		],
		 "valence_orbital": [ 
			{
				"type": "occ",
				"energy": -0.28267,
				"method": "rhf"
			},
			{
				"type": "occ",
				"energy": -0.2528,
				"method": "rhf"
			},
			{
				"type": "occ",
				"energy": -0.24024,
				"method": "rhf"
			},
			{
				"type": "occ",
				"energy": -0.23187,
				"method": "rhf"
			},
			{
				"type": "occ",
				"energy": -0.2117,
				"method": "rhf"
			},
			{
				"type": "unocc",
				"energy": -0.0213,
				"method": "rhf"
			},
			{
				"type": "unocc",
				"energy": -0.00667,
				"method": "rhf"
			},
			{
				"type": "unocc",
				"energy": 0.01844,
				"method": "rhf"
			},
			{
				"type": "unocc",
				"energy": 0.03009,
				"method": "rhf"
			},
			{
				"type": "unocc",
				"energy": 0.04518,
				"method": "rhf"
			}
		],
		"cosmo_sigma_profile": { 
			"-0.025": 0.0,
			"-0.024": 0.0,
			"-0.023": 0.0,
			"-0.022": 0.0,
			"-0.021": 0.0,
			"-0.02": 0.0,
			"-0.019": 0.078098610061,
			"-0.018": 0.844139875577,
			"-0.017": 0.948520320518,
			"-0.016": 1.73628552915,
			"-0.015": 2.27597693039,
			"-0.014": 2.48880111224,
			"-0.013": 1.79068557509,
			"-0.012": 1.50491842076,
			"-0.011": 1.43396982042,
			"-0.01": 3.07011950073,
			"-0.009": 2.39894361273,
			"-0.008": 9.43267545934,
			"-0.007": 10.6853125673,
			"-0.006": 12.7935959136,
			"-0.005": 17.2766336647,
			"-0.004": 17.3854012417,
			"-0.003": 20.5378889303,
			"-0.002": 17.9872278252,
			"-0.001": 16.0086346012,
			"0.0": 12.7335311154,
			"0.001": 12.6851292588,
			"0.002": 17.0420853896,
			"0.003": 17.1024987537,
			"0.004": 25.7380236096,
			"0.005": 24.3744350058,
			"0.006": 5.79803661617,
			"0.007": 3.55887358147,
			"0.008": 4.48493307249,
			"0.009": 2.50336092755,
			"0.01": 3.50937894458,
			"0.011": 6.58799008782,
			"0.012": 3.36809582558,
			"0.013": 4.22984315656,
			"0.014": 5.09842917001,
			"0.015": 1.08350603888,
			"0.016": 0.0,
			"0.017": 0.0,
			"0.018": 0.0,
			"0.019": 0.0,
			"0.02": 0.0,
			"0.021": 0.0,
			"0.022": 0.0,
			"0.023": 0.0,
			"0.024": 0.0,
			"0.025": 0.0
		}
	}
}
