{
	 "smiles": "BrCC1=NC(=CC=C1)N1CCCC1", 
	 "Tm": 343.95, 
	 "num_atms": 26, 
	 "gaussian": { 
		 "optdone": 1, 
		 "sigma_profile": "yes", 
		 "theory": "DFT", 
		 "functional": "B3LYP", 
		 "basiset": "6-31G**", 
		 "properties": { 
			 "R2extent": 6472.0757, 
			 "electric_dipole_moment_norm": 3.94326849961, 
			 "electric_quadrupole_moment_norm": 15.7515239628, 
			 "total_energy": -3069.82000969, 
			 "HOMO_LUMO_gap": 0.16344, 
			 "cosmo_polarized_energy": -8.6, 
			 "cosmo_cavitation_energy": 30.52, 
			 "cosmo_dispersion_energy": -22.67, 
			 "cosmo_repulsion_energy": 1.83, 
			 "cosmo_total_nonelectrostatic_energy": 9.68, 
			 "SMD_solvation_energy": 1.68 
		},
		"coords": [
			{
				"x": 3.0070225109,
				"y": 4.1850180791,
				"z": 1.8626175969,
				"element": "Br" 
			},
			{
				"x": 1.1634811671,
				"y": 3.4688699444,
				"z": 2.1756048081,
				"element": "C" 
			},
			{
				"x": 1.1398501827,
				"y": 1.9703987131,
				"z": 2.1633070324,
				"element": "C" 
			},
			{
				"x": 0.8745486196,
				"y": 1.4068619138,
				"z": 0.9769984767,
				"element": "N" 
			},
			{
				"x": 0.8343946585,
				"y": 0.0623994172,
				"z": 0.8946953469,
				"element": "C" 
			},
			{
				"x": 1.0594528323,
				"y": -0.7639577828,
				"z": 2.026508292,
				"element": "C" 
			},
			{
				"x": 1.3209100196,
				"y": -0.1546397781,
				"z": 3.2425997723,
				"element": "C" 
			},
			{
				"x": 1.3650211829,
				"y": 1.2401577074,
				"z": 3.3316408236,
				"element": "C" 
			},
			{
				"x": 0.5640290382,
				"y": -0.462759209,
				"z": -0.3376336257,
				"element": "N" 
			},
			{
				"x": 0.4374983522,
				"y": -1.8913959889,
				"z": -0.6135108132,
				"element": "C" 
			},
			{
				"x": -0.0744714313,
				"y": -1.9327935603,
				"z": -2.0628322524,
				"element": "C" 
			},
			{
				"x": 0.5087414882,
				"y": -0.6512948073,
				"z": -2.6815891334,
				"element": "C" 
			},
			{
				"x": 0.4194588559,
				"y": 0.3685451781,
				"z": -1.5372387839,
				"element": "C" 
			},
			{
				"x": 0.8685430925,
				"y": 3.8910255444,
				"z": 3.1343700797,
				"element": "H" 
			},
			{
				"x": 0.5676667347,
				"y": 3.8762376927,
				"z": 1.3627197949,
				"element": "H" 
			},
			{
				"x": 1.0347761101,
				"y": -1.8437875456,
				"z": 1.9426899334,
				"element": "H" 
			},
			{
				"x": 1.4944391655,
				"y": -0.7650818485,
				"z": 4.1246145642,
				"element": "H" 
			},
			{
				"x": 1.576605524,
				"y": 1.7423377819,
				"z": 4.2692892825,
				"element": "H" 
			},
			{
				"x": -0.2587725673,
				"y": -2.3730168562,
				"z": 0.0846085897,
				"element": "H" 
			},
			{
				"x": 1.4077852601,
				"y": -2.4038684733,
				"z": -0.5158514766,
				"element": "H" 
			},
			{
				"x": 0.2271244868,
				"y": -2.8451801414,
				"z": -2.5841940788,
				"element": "H" 
			},
			{
				"x": -1.1694276701,
				"y": -1.889449679,
				"z": -2.0702337109,
				"element": "H" 
			},
			{
				"x": 1.5569951299,
				"y": -0.8109096453,
				"z": -2.9590355826,
				"element": "H" 
			},
			{
				"x": -0.0272647259,
				"y": -0.3236840497,
				"z": -3.576382867,
				"element": "H" 
			},
			{
				"x": 1.1998916389,
				"y": 1.1329647288,
				"z": -1.5703422205,
				"element": "H" 
			},
			{
				"x": -0.5461996561,
				"y": 0.8941026646,
				"z": -1.5335198484,
				"element": "H" 
			}
		],
		 "valence_orbital": [ 
			{
				"type": "occ",
				"energy": -0.27357,
				"method": "rhf"
			},
			{
				"type": "occ",
				"energy": -0.26201,
				"method": "rhf"
			},
			{
				"type": "occ",
				"energy": -0.25955,
				"method": "rhf"
			},
			{
				"type": "occ",
				"energy": -0.25119,
				"method": "rhf"
			},
			{
				"type": "occ",
				"energy": -0.19647,
				"method": "rhf"
			},
			{
				"type": "unocc",
				"energy": -0.03303,
				"method": "rhf"
			},
			{
				"type": "unocc",
				"energy": 0.00237,
				"method": "rhf"
			},
			{
				"type": "unocc",
				"energy": 0.04098,
				"method": "rhf"
			},
			{
				"type": "unocc",
				"energy": 0.07978,
				"method": "rhf"
			},
			{
				"type": "unocc",
				"energy": 0.09985,
				"method": "rhf"
			}
		],
		"cosmo_sigma_profile": { 
			"-0.025": 0.0,
			"-0.024": 0.0,
			"-0.023": 0.0,
			"-0.022": 0.0,
			"-0.021": 0.0,
			"-0.02": 0.0,
			"-0.019": 0.0,
			"-0.018": 0.0,
			"-0.017": 0.0,
			"-0.016": 0.0,
			"-0.015": 0.0,
			"-0.014": 0.0,
			"-0.013": 0.0,
			"-0.012": 0.0,
			"-0.011": 0.0,
			"-0.01": 0.0,
			"-0.009": 0.0,
			"-0.008": 0.92942752694,
			"-0.007": 4.41899421386,
			"-0.006": 9.60470566519,
			"-0.005": 10.1838065431,
			"-0.004": 20.8507395725,
			"-0.003": 29.363301404,
			"-0.002": 32.3156146733,
			"-0.001": 23.6969982941,
			"0.0": 17.6312315544,
			"0.001": 11.8621882949,
			"0.002": 10.9346998369,
			"0.003": 14.8526543644,
			"0.004": 16.1101544577,
			"0.005": 13.1070960835,
			"0.006": 13.4216889128,
			"0.007": 8.24454198321,
			"0.008": 1.45531751447,
			"0.009": 2.12776533771,
			"0.01": 1.29854685131,
			"0.011": 0.680447048634,
			"0.012": 0.893107167253,
			"0.013": 0.00895442588433,
			"0.014": 0.0,
			"0.015": 0.0,
			"0.016": 0.0,
			"0.017": 0.0,
			"0.018": 0.0,
			"0.019": 0.0,
			"0.02": 0.0,
			"0.021": 0.0,
			"0.022": 0.0,
			"0.023": 0.0,
			"0.024": 0.0,
			"0.025": 0.0
		}
	}
}
