{
	 "smiles": "O=C1CCCC(=O)N1", 
	 "Tm": 429.15, 
	 "num_atms": 15, 
	 "gaussian": { 
		 "optdone": 1, 
		 "sigma_profile": "yes", 
		 "theory": "DFT", 
		 "functional": "B3LYP", 
		 "basiset": "6-31G**", 
		 "properties": { 
			 "R2extent": 1030.201, 
			 "electric_dipole_moment_norm": 3.17978915339, 
			 "electric_quadrupole_moment_norm": 11.5371489186, 
			 "total_energy": -399.986577165, 
			 "HOMO_LUMO_gap": 0.23291, 
			 "cosmo_polarized_energy": -12.66, 
			 "cosmo_cavitation_energy": 18.39, 
			 "cosmo_dispersion_energy": -14.01, 
			 "cosmo_repulsion_energy": 1.19, 
			 "cosmo_total_nonelectrostatic_energy": 5.56, 
			 "SMD_solvation_energy": 4.39 
		},
		"coords": [
			{
				"x": -0.691575965,
				"y": -1.0057471648,
				"z": 3.0077502586,
				"element": "O" 
			},
			{
				"x": -0.2042815488,
				"y": -0.7178142368,
				"z": 1.9318808054,
				"element": "C" 
			},
			{
				"x": 1.2376161938,
				"y": -1.0020836735,
				"z": 1.5475951609,
				"element": "C" 
			},
			{
				"x": 1.7728469292,
				"y": -0.0328502159,
				"z": 0.4877332597,
				"element": "C" 
			},
			{
				"x": 0.8349789559,
				"y": 0.0071533266,
				"z": -0.7238850044,
				"element": "C" 
			},
			{
				"x": -0.6075969228,
				"y": 0.2931010439,
				"z": -0.3435654647,
				"element": "C" 
			},
			{
				"x": -1.4172418951,
				"y": 0.8132969429,
				"z": -1.0863467145,
				"element": "O" 
			},
			{
				"x": -0.9791072606,
				"y": -0.104611749,
				"z": 0.9436263143,
				"element": "N" 
			},
			{
				"x": 1.2721286066,
				"y": -2.0335074134,
				"z": 1.1695151298,
				"element": "H" 
			},
			{
				"x": 1.8245072473,
				"y": -0.9844736053,
				"z": 2.4687674627,
				"element": "H" 
			},
			{
				"x": 1.860652861,
				"y": 0.9718011207,
				"z": 0.9185321657,
				"element": "H" 
			},
			{
				"x": 2.7785180267,
				"y": -0.3313395209,
				"z": 0.1768344736,
				"element": "H" 
			},
			{
				"x": 0.8445791444,
				"y": -0.9618578995,
				"z": -1.2424284962,
				"element": "H" 
			},
			{
				"x": 1.1283569658,
				"y": 0.7604557391,
				"z": -1.4585806372,
				"element": "H" 
			},
			{
				"x": -1.9459813381,
				"y": 0.076277306,
				"z": 1.1953712862,
				"element": "H" 
			}
		],
		 "valence_orbital": [ 
			{
				"type": "occ",
				"energy": -0.36539,
				"method": "rhf"
			},
			{
				"type": "occ",
				"energy": -0.36192,
				"method": "rhf"
			},
			{
				"type": "occ",
				"energy": -0.28703,
				"method": "rhf"
			},
			{
				"type": "occ",
				"energy": -0.28193,
				"method": "rhf"
			},
			{
				"type": "occ",
				"energy": -0.26101,
				"method": "rhf"
			},
			{
				"type": "unocc",
				"energy": -0.0281,
				"method": "rhf"
			},
			{
				"type": "unocc",
				"energy": 0.02688,
				"method": "rhf"
			},
			{
				"type": "unocc",
				"energy": 0.07698,
				"method": "rhf"
			},
			{
				"type": "unocc",
				"energy": 0.10832,
				"method": "rhf"
			},
			{
				"type": "unocc",
				"energy": 0.11809,
				"method": "rhf"
			}
		],
		"cosmo_sigma_profile": { 
			"-0.025": 0.0,
			"-0.024": 0.0,
			"-0.023": 0.0,
			"-0.022": 0.0,
			"-0.021": 0.0,
			"-0.02": 0.0,
			"-0.019": 0.0,
			"-0.018": 0.0,
			"-0.017": 0.0,
			"-0.016": 0.0,
			"-0.015": 0.41145410275,
			"-0.014": 1.12004369205,
			"-0.013": 0.84761611752,
			"-0.012": 0.26545699864,
			"-0.011": 0.962835431051,
			"-0.01": 1.02689417128,
			"-0.009": 0.701806068377,
			"-0.008": 2.04869072778,
			"-0.007": 6.5367783911,
			"-0.006": 10.1252952306,
			"-0.005": 15.0715171471,
			"-0.004": 18.0485924256,
			"-0.003": 14.371179293,
			"-0.002": 12.9877417612,
			"-0.001": 8.45322013553,
			"0.0": 3.89917094871,
			"0.001": 2.24725119975,
			"0.002": 2.39331299663,
			"0.003": 2.86350712624,
			"0.004": 1.45849077834,
			"0.005": 2.81122632569,
			"0.006": 3.70132366281,
			"0.007": 1.63611778845,
			"0.008": 1.95639052386,
			"0.009": 3.29036436026,
			"0.01": 3.48896810117,
			"0.011": 6.00389944804,
			"0.012": 10.6469003256,
			"0.013": 4.83560476411,
			"0.014": 0.297174575808,
			"0.015": 0.0,
			"0.016": 0.0,
			"0.017": 0.0,
			"0.018": 0.0,
			"0.019": 0.0,
			"0.02": 0.0,
			"0.021": 0.0,
			"0.022": 0.0,
			"0.023": 0.0,
			"0.024": 0.0,
			"0.025": 0.0
		}
	}
}
