{
	 "smiles": "ClP1(=O)OCCO1", 
	 "Tm": 285.15, 
	 "num_atms": 11, 
	 "gaussian": { 
		 "optdone": 1, 
		 "sigma_profile": "yes", 
		 "theory": "DFT", 
		 "functional": "B3LYP", 
		 "basiset": "6-31G**", 
		 "properties": { 
			 "R2extent": 1798.6922, 
			 "electric_dipole_moment_norm": 5.59920270485, 
			 "electric_quadrupole_moment_norm": 16.5482382503, 
			 "total_energy": -1105.89944037, 
			 "HOMO_LUMO_gap": 0.28918, 
			 "cosmo_polarized_energy": -12.63, 
			 "cosmo_cavitation_energy": 17.9, 
			 "cosmo_dispersion_energy": -14.47, 
			 "cosmo_repulsion_energy": 1.21, 
			 "cosmo_total_nonelectrostatic_energy": 4.64, 
			 "SMD_solvation_energy": 4.59 
		},
		"coords": [
			{
				"x": -1.6265923113,
				"y": 2.3945776874,
				"z": 0.1708469024,
				"element": "Cl" 
			},
			{
				"x": -2.3617137633,
				"y": 0.5059284513,
				"z": 0.4699137189,
				"element": "P" 
			},
			{
				"x": -3.7658281725,
				"y": 0.4982788958,
				"z": 0.9025997466,
				"element": "O" 
			},
			{
				"x": -1.233880654,
				"y": -0.1740383471,
				"z": 1.4207629416,
				"element": "O" 
			},
			{
				"x": -0.5585805051,
				"y": -1.2465251927,
				"z": 0.7242282585,
				"element": "C" 
			},
			{
				"x": -0.7085083784,
				"y": -0.9269709545,
				"z": -0.7696710602,
				"element": "C" 
			},
			{
				"x": -2.0031939867,
				"y": -0.3003352307,
				"z": -0.8918317473,
				"element": "O" 
			},
			{
				"x": 0.4821342378,
				"y": -1.2619583551,
				"z": 1.0524144914,
				"element": "H" 
			},
			{
				"x": -1.0433363034,
				"y": -2.1921095162,
				"z": 0.9869319377,
				"element": "H" 
			},
			{
				"x": -0.7086248485,
				"y": -1.818546589,
				"z": -1.3986713081,
				"element": "H" 
			},
			{
				"x": 0.0619246853,
				"y": -0.2301008491,
				"z": -1.1172238815,
				"element": "H" 
			}
		],
		 "valence_orbital": [ 
			{
				"type": "occ",
				"energy": -0.35898,
				"method": "rhf"
			},
			{
				"type": "occ",
				"energy": -0.34719,
				"method": "rhf"
			},
			{
				"type": "occ",
				"energy": -0.33992,
				"method": "rhf"
			},
			{
				"type": "occ",
				"energy": -0.3112,
				"method": "rhf"
			},
			{
				"type": "occ",
				"energy": -0.30656,
				"method": "rhf"
			},
			{
				"type": "unocc",
				"energy": -0.01738,
				"method": "rhf"
			},
			{
				"type": "unocc",
				"energy": 0.05485,
				"method": "rhf"
			},
			{
				"type": "unocc",
				"energy": 0.0592,
				"method": "rhf"
			},
			{
				"type": "unocc",
				"energy": 0.07479,
				"method": "rhf"
			},
			{
				"type": "unocc",
				"energy": 0.0989,
				"method": "rhf"
			}
		],
		"cosmo_sigma_profile": { 
			"-0.025": 0.0,
			"-0.024": 0.0,
			"-0.023": 0.0,
			"-0.022": 0.0,
			"-0.021": 0.0,
			"-0.02": 0.0,
			"-0.019": 0.0,
			"-0.018": 0.0,
			"-0.017": 0.0,
			"-0.016": 0.0,
			"-0.015": 0.0,
			"-0.014": 0.0,
			"-0.013": 0.0,
			"-0.012": 0.0,
			"-0.011": 0.0,
			"-0.01": 0.0,
			"-0.009": 4.26983616552,
			"-0.008": 14.3276370888,
			"-0.007": 12.159845519,
			"-0.006": 9.03422928678,
			"-0.005": 6.34727304788,
			"-0.004": 4.92258930913,
			"-0.003": 4.70349645897,
			"-0.002": 4.92080501213,
			"-0.001": 6.40148177661,
			"0.0": 6.42777495125,
			"0.001": 8.14639810042,
			"0.002": 10.7680490598,
			"0.003": 14.4994888631,
			"0.004": 4.84379033532,
			"0.005": 3.01200308782,
			"0.006": 4.11149481255,
			"0.007": 3.73912376986,
			"0.008": 3.66222263479,
			"0.009": 2.73228620532,
			"0.01": 1.80342283626,
			"0.011": 4.69128972842,
			"0.012": 7.0276623214,
			"0.013": 0.301251425879,
			"0.014": 0.0,
			"0.015": 0.0,
			"0.016": 0.0,
			"0.017": 0.0,
			"0.018": 0.0,
			"0.019": 0.0,
			"0.02": 0.0,
			"0.021": 0.0,
			"0.022": 0.0,
			"0.023": 0.0,
			"0.024": 0.0,
			"0.025": 0.0
		}
	}
}
