{
	 "smiles": "NC1=CC=C(CC2NC(=O)NC2=O)C=C1", 
	 "Tm": 426.15, 
	 "num_atms": 26, 
	 "gaussian": { 
		 "optdone": 1, 
		 "sigma_profile": "yes", 
		 "theory": "DFT", 
		 "functional": "B3LYP", 
		 "basiset": "6-31G**", 
		 "properties": { 
			 "R2extent": 4938.0261, 
			 "electric_dipole_moment_norm": 3.6901388944, 
			 "electric_quadrupole_moment_norm": 15.6716216669, 
			 "total_energy": -702.440377031, 
			 "HOMO_LUMO_gap": 0.18714, 
			 "cosmo_polarized_energy": -20.86, 
			 "cosmo_cavitation_energy": 30.24, 
			 "cosmo_dispersion_energy": -22.23, 
			 "cosmo_repulsion_energy": 1.76, 
			 "cosmo_total_nonelectrostatic_energy": 9.78, 
			 "SMD_solvation_energy": 5.79 
		},
		"coords": [
			{
				"x": 3.2109835638,
				"y": 2.7903000838,
				"z": 0.5800747217,
				"element": "N" 
			},
			{
				"x": 2.2499141243,
				"y": 1.7911114494,
				"z": 0.4127623672,
				"element": "C" 
			},
			{
				"x": 2.4938579385,
				"y": 0.6863090996,
				"z": -0.4187200226,
				"element": "C" 
			},
			{
				"x": 1.5057576286,
				"y": -0.273733166,
				"z": -0.6240419988,
				"element": "C" 
			},
			{
				"x": 0.2465923123,
				"y": -0.1757675716,
				"z": -0.0185920755,
				"element": "C" 
			},
			{
				"x": -0.8066765879,
				"y": -1.2367946767,
				"z": -0.2693090689,
				"element": "C" 
			},
			{
				"x": -1.2078803518,
				"y": -2.0692846746,
				"z": 0.978996162,
				"element": "C" 
			},
			{
				"x": -1.6325932403,
				"y": -3.4291549968,
				"z": 0.6628213961,
				"element": "N" 
			},
			{
				"x": -2.8179028752,
				"y": -3.7897317331,
				"z": 1.2546874471,
				"element": "C" 
			},
			{
				"x": -3.3668490622,
				"y": -4.8709881718,
				"z": 1.2605242627,
				"element": "O" 
			},
			{
				"x": -3.2958127408,
				"y": -2.6108097984,
				"z": 1.8674033443,
				"element": "N" 
			},
			{
				"x": -2.4498852709,
				"y": -1.5331267639,
				"z": 1.7206946051,
				"element": "C" 
			},
			{
				"x": -2.6579487776,
				"y": -0.3966454472,
				"z": 2.0950403089,
				"element": "O" 
			},
			{
				"x": 0.0087077156,
				"y": 0.9301674721,
				"z": 0.812392858,
				"element": "C" 
			},
			{
				"x": 0.9890133971,
				"y": 1.8937008136,
				"z": 1.0265313305,
				"element": "C" 
			},
			{
				"x": 4.1662298768,
				"y": 2.4988645438,
				"z": 0.424834042,
				"element": "H" 
			},
			{
				"x": 3.1174351277,
				"y": 3.3381816399,
				"z": 1.424254185,
				"element": "H" 
			},
			{
				"x": 3.4590061949,
				"y": 0.5851814166,
				"z": -0.9094838408,
				"element": "H" 
			},
			{
				"x": 1.723061876,
				"y": -1.1173381611,
				"z": -1.2759703257,
				"element": "H" 
			},
			{
				"x": -0.4240633956,
				"y": -1.9448204206,
				"z": -1.0121860249,
				"element": "H" 
			},
			{
				"x": -1.7123418488,
				"y": -0.7981654245,
				"z": -0.7050217453,
				"element": "H" 
			},
			{
				"x": -0.3694690427,
				"y": -2.0717020338,
				"z": 1.6901271691,
				"element": "H" 
			},
			{
				"x": -1.0038194553,
				"y": -4.1499402413,
				"z": 0.343408261,
				"element": "H" 
			},
			{
				"x": -4.2071043957,
				"y": -2.5590553373,
				"z": 2.299593148,
				"element": "H" 
			},
			{
				"x": -0.9524794044,
				"y": 1.0250026069,
				"z": 1.3081833271,
				"element": "H" 
			},
			{
				"x": 0.7773666938,
				"y": 2.742439493,
				"z": 1.6728961669,
				"element": "H" 
			}
		],
		 "valence_orbital": [ 
			{
				"type": "occ",
				"energy": -0.2905,
				"method": "rhf"
			},
			{
				"type": "occ",
				"energy": -0.26892,
				"method": "rhf"
			},
			{
				"type": "occ",
				"energy": -0.26508,
				"method": "rhf"
			},
			{
				"type": "occ",
				"energy": -0.24499,
				"method": "rhf"
			},
			{
				"type": "occ",
				"energy": -0.19994,
				"method": "rhf"
			},
			{
				"type": "unocc",
				"energy": -0.0128,
				"method": "rhf"
			},
			{
				"type": "unocc",
				"energy": 0.00256,
				"method": "rhf"
			},
			{
				"type": "unocc",
				"energy": 0.01591,
				"method": "rhf"
			},
			{
				"type": "unocc",
				"energy": 0.05775,
				"method": "rhf"
			},
			{
				"type": "unocc",
				"energy": 0.07666,
				"method": "rhf"
			}
		],
		"cosmo_sigma_profile": { 
			"-0.025": 0.0,
			"-0.024": 0.0,
			"-0.023": 0.0,
			"-0.022": 0.0,
			"-0.021": 0.0,
			"-0.02": 0.0,
			"-0.019": 0.0,
			"-0.018": 0.0,
			"-0.017": 0.385317896535,
			"-0.016": 1.29007716601,
			"-0.015": 2.35682566569,
			"-0.014": 2.68958076621,
			"-0.013": 1.38443521934,
			"-0.012": 3.14121313223,
			"-0.011": 5.80649625386,
			"-0.01": 4.43219673442,
			"-0.009": 5.1751982222,
			"-0.008": 5.81263859207,
			"-0.007": 7.94064558484,
			"-0.006": 10.2899124037,
			"-0.005": 15.8517390702,
			"-0.004": 13.3128930449,
			"-0.003": 12.5246411481,
			"-0.002": 16.2447537784,
			"-0.001": 12.1272010708,
			"0.0": 10.700867538,
			"0.001": 10.5825353112,
			"0.002": 9.37079441215,
			"0.003": 9.25907309686,
			"0.004": 11.5043466603,
			"0.005": 9.91368463971,
			"0.006": 11.9285130976,
			"0.007": 10.4841234094,
			"0.008": 4.89866419935,
			"0.009": 3.58987368811,
			"0.01": 4.60108830945,
			"0.011": 5.09086406791,
			"0.012": 8.06459510573,
			"0.013": 7.04719791365,
			"0.014": 1.37433475447,
			"0.015": 0.35336921447,
			"0.016": 0.0121718082025,
			"0.017": 0.0,
			"0.018": 0.0,
			"0.019": 0.0,
			"0.02": 0.0,
			"0.021": 0.0,
			"0.022": 0.0,
			"0.023": 0.0,
			"0.024": 0.0,
			"0.025": 0.0
		}
	}
}
