{
	 "smiles": "COC1=CC=C2C(=O)C(=O)C2=C1", 
	 "Tm": 375.15, 
	 "num_atms": 18, 
	 "gaussian": { 
		 "optdone": 1, 
		 "sigma_profile": "yes", 
		 "theory": "DFT", 
		 "functional": "B3LYP", 
		 "basiset": "6-31G**", 
		 "properties": { 
			 "R2extent": 2903.941, 
			 "electric_dipole_moment_norm": 6.75047375597, 
			 "electric_quadrupole_moment_norm": 20.6588126009, 
			 "total_energy": -572.18096959, 
			 "HOMO_LUMO_gap": 0.14689, 
			 "cosmo_polarized_energy": -13.47, 
			 "cosmo_cavitation_energy": 23.82, 
			 "cosmo_dispersion_energy": -17.35, 
			 "cosmo_repulsion_energy": 1.39, 
			 "cosmo_total_nonelectrostatic_energy": 7.86, 
			 "SMD_solvation_energy": 6.39 
		},
		"coords": [
			{
				"x": 3.6313638951,
				"y": -3.0765071285,
				"z": -0.5887051298,
				"element": "C" 
			},
			{
				"x": 2.9993507332,
				"y": -1.8955517096,
				"z": -1.0753935011,
				"element": "O" 
			},
			{
				"x": 1.9988371605,
				"y": -1.3491292695,
				"z": -0.3476682207,
				"element": "C" 
			},
			{
				"x": 1.4370189114,
				"y": -0.1726476591,
				"z": -0.9244037461,
				"element": "C" 
			},
			{
				"x": 0.4022634634,
				"y": 0.5229321353,
				"z": -0.3199393646,
				"element": "C" 
			},
			{
				"x": -0.0673164399,
				"y": 0.0083903436,
				"z": 0.8948791732,
				"element": "C" 
			},
			{
				"x": -1.0563782867,
				"y": 0.2008629235,
				"z": 2.0076244815,
				"element": "C" 
			},
			{
				"x": -1.9246635786,
				"y": 0.9833353051,
				"z": 2.2894470126,
				"element": "O" 
			},
			{
				"x": -0.4303840109,
				"y": -1.1142438322,
				"z": 2.6552766647,
				"element": "C" 
			},
			{
				"x": -0.6038265009,
				"y": -1.7785085374,
				"z": 3.6411911536,
				"element": "O" 
			},
			{
				"x": 0.4894643023,
				"y": -1.149394274,
				"z": 1.4573355338,
				"element": "C" 
			},
			{
				"x": 1.5283376058,
				"y": -1.8642415513,
				"z": 0.869163609,
				"element": "C" 
			},
			{
				"x": 4.3931053114,
				"y": -3.3314667792,
				"z": -1.3256045964,
				"element": "H" 
			},
			{
				"x": 4.1074403729,
				"y": -2.9014185927,
				"z": 0.3832094646,
				"element": "H" 
			},
			{
				"x": 2.9165844282,
				"y": -3.9031566095,
				"z": -0.5011571954,
				"element": "H" 
			},
			{
				"x": 1.8602381424,
				"y": 0.1573962633,
				"z": -1.8679257309,
				"element": "H" 
			},
			{
				"x": -0.0117940096,
				"y": 1.4167393848,
				"z": -0.7753699476,
				"element": "H" 
			},
			{
				"x": 1.9422585,
				"y": -2.7561904126,
				"z": 1.3226403396,
				"element": "H" 
			}
		],
		 "valence_orbital": [ 
			{
				"type": "occ",
				"energy": -0.34522,
				"method": "rhf"
			},
			{
				"type": "occ",
				"energy": -0.31158,
				"method": "rhf"
			},
			{
				"type": "occ",
				"energy": -0.28909,
				"method": "rhf"
			},
			{
				"type": "occ",
				"energy": -0.25555,
				"method": "rhf"
			},
			{
				"type": "occ",
				"energy": -0.2318,
				"method": "rhf"
			},
			{
				"type": "unocc",
				"energy": -0.08491,
				"method": "rhf"
			},
			{
				"type": "unocc",
				"energy": -0.05505,
				"method": "rhf"
			},
			{
				"type": "unocc",
				"energy": 0.00892,
				"method": "rhf"
			},
			{
				"type": "unocc",
				"energy": 0.06362,
				"method": "rhf"
			},
			{
				"type": "unocc",
				"energy": 0.07776,
				"method": "rhf"
			}
		],
		"cosmo_sigma_profile": { 
			"-0.025": 0.0,
			"-0.024": 0.0,
			"-0.023": 0.0,
			"-0.022": 0.0,
			"-0.021": 0.0,
			"-0.02": 0.0,
			"-0.019": 0.0,
			"-0.018": 0.0,
			"-0.017": 0.0,
			"-0.016": 0.0,
			"-0.015": 0.0,
			"-0.014": 0.0,
			"-0.013": 0.0,
			"-0.012": 0.0,
			"-0.011": 0.0,
			"-0.01": 0.0,
			"-0.009": 0.967090896698,
			"-0.008": 6.91116040473,
			"-0.007": 9.81419805321,
			"-0.006": 16.0078828778,
			"-0.005": 14.1904623452,
			"-0.004": 15.1778350845,
			"-0.003": 12.095654501,
			"-0.002": 12.7076906061,
			"-0.001": 16.1019702459,
			"0.0": 18.127298191,
			"0.001": 12.6234399357,
			"0.002": 4.8664885864,
			"0.003": 3.57162585926,
			"0.004": 4.15255530735,
			"0.005": 4.75027215793,
			"0.006": 5.1708490954,
			"0.007": 4.02301598696,
			"0.008": 6.33899018848,
			"0.009": 5.26317149882,
			"0.01": 9.83431238405,
			"0.011": 8.24076099648,
			"0.012": 1.34832632293,
			"0.013": 0.0,
			"0.014": 0.0,
			"0.015": 0.0,
			"0.016": 0.0,
			"0.017": 0.0,
			"0.018": 0.0,
			"0.019": 0.0,
			"0.02": 0.0,
			"0.021": 0.0,
			"0.022": 0.0,
			"0.023": 0.0,
			"0.024": 0.0,
			"0.025": 0.0
		}
	}
}
