{
	 "smiles": "OCC1=CN2C=CN=C2C(Cl)=C1", 
	 "Tm": 443.15, 
	 "num_atms": 19, 
	 "gaussian": { 
		 "optdone": 1, 
		 "sigma_profile": "yes", 
		 "theory": "DFT", 
		 "functional": "B3LYP", 
		 "basiset": "6-31G**", 
		 "properties": { 
			 "R2extent": 2813.9188, 
			 "electric_dipole_moment_norm": 4.66801265422, 
			 "electric_quadrupole_moment_norm": 9.95438586755, 
			 "total_energy": -953.963597372, 
			 "HOMO_LUMO_gap": 0.17511, 
			 "cosmo_polarized_energy": -15.66, 
			 "cosmo_cavitation_energy": 25.14, 
			 "cosmo_dispersion_energy": -18.76, 
			 "cosmo_repulsion_energy": 1.49, 
			 "cosmo_total_nonelectrostatic_energy": 7.86, 
			 "SMD_solvation_energy": 3.12 
		},
		"coords": [
			{
				"x": 0.9516251552,
				"y": 4.3805924091,
				"z": 0.0315572579,
				"element": "O" 
			},
			{
				"x": 1.0538200842,
				"y": 3.2560772552,
				"z": -0.8292337,
				"element": "C" 
			},
			{
				"x": 0.7771938555,
				"y": 1.9451331126,
				"z": -0.1250529437,
				"element": "C" 
			},
			{
				"x": 1.5912560697,
				"y": 0.8623405994,
				"z": -0.3118537236,
				"element": "C" 
			},
			{
				"x": 1.3014366859,
				"y": -0.3255806742,
				"z": 0.3170942492,
				"element": "N" 
			},
			{
				"x": 1.9459750662,
				"y": -1.5449161786,
				"z": 0.295746872,
				"element": "C" 
			},
			{
				"x": 1.2056854711,
				"y": -2.3636418003,
				"z": 1.1240054454,
				"element": "C" 
			},
			{
				"x": 0.1330726112,
				"y": -1.7166470551,
				"z": 1.6627443736,
				"element": "N" 
			},
			{
				"x": 0.1934650049,
				"y": -0.4856949326,
				"z": 1.1732498766,
				"element": "C" 
			},
			{
				"x": -0.6368610574,
				"y": 0.6516421033,
				"z": 1.3688444385,
				"element": "C" 
			},
			{
				"x": -2.0084255206,
				"y": 0.4926580348,
				"z": 2.4280173926,
				"element": "Cl" 
			},
			{
				"x": -0.3555187071,
				"y": 1.8366633356,
				"z": 0.7400545397,
				"element": "C" 
			},
			{
				"x": 1.5746813767,
				"y": 4.2531731432,
				"z": 0.7596310819,
				"element": "H" 
			},
			{
				"x": 2.0336529201,
				"y": 3.2080724313,
				"z": -1.3296438181,
				"element": "H" 
			},
			{
				"x": 0.3037642346,
				"y": 3.4280343258,
				"z": -1.6095011542,
				"element": "H" 
			},
			{
				"x": 2.472496192,
				"y": 0.8739584617,
				"z": -0.9429220972,
				"element": "H" 
			},
			{
				"x": 2.8376087909,
				"y": -1.7087455382,
				"z": -0.2889441117,
				"element": "H" 
			},
			{
				"x": 1.4054220381,
				"y": -3.4018733187,
				"z": 1.3541470424,
				"element": "H" 
			},
			{
				"x": -0.9803502712,
				"y": 2.7071542859,
				"z": 0.9022589785,
				"element": "H" 
			}
		],
		 "valence_orbital": [ 
			{
				"type": "occ",
				"energy": -0.30201,
				"method": "rhf"
			},
			{
				"type": "occ",
				"energy": -0.28669,
				"method": "rhf"
			},
			{
				"type": "occ",
				"energy": -0.27537,
				"method": "rhf"
			},
			{
				"type": "occ",
				"energy": -0.24786,
				"method": "rhf"
			},
			{
				"type": "occ",
				"energy": -0.21916,
				"method": "rhf"
			},
			{
				"type": "unocc",
				"energy": -0.04405,
				"method": "rhf"
			},
			{
				"type": "unocc",
				"energy": -0.01164,
				"method": "rhf"
			},
			{
				"type": "unocc",
				"energy": 0.03204,
				"method": "rhf"
			},
			{
				"type": "unocc",
				"energy": 0.05851,
				"method": "rhf"
			},
			{
				"type": "unocc",
				"energy": 0.07629,
				"method": "rhf"
			}
		],
		"cosmo_sigma_profile": { 
			"-0.025": 0.0,
			"-0.024": 0.0,
			"-0.023": 0.0,
			"-0.022": 0.0,
			"-0.021": 0.0,
			"-0.02": 0.0,
			"-0.019": 0.0,
			"-0.018": 0.0,
			"-0.017": 0.0,
			"-0.016": 0.385590760421,
			"-0.015": 1.08059275005,
			"-0.014": 0.691876105033,
			"-0.013": 1.1149084842,
			"-0.012": 1.11061332125,
			"-0.011": 1.00609904416,
			"-0.01": 2.78082648816,
			"-0.009": 6.16949604911,
			"-0.008": 4.87247391289,
			"-0.007": 7.61916258646,
			"-0.006": 8.34106081194,
			"-0.005": 11.5555328133,
			"-0.004": 11.3046662801,
			"-0.003": 11.3381174271,
			"-0.002": 11.7675461557,
			"-0.001": 13.8004131327,
			"0.0": 16.6969636104,
			"0.001": 18.24844315,
			"0.002": 11.5503367779,
			"0.003": 12.5412530218,
			"0.004": 14.5384205793,
			"0.005": 6.38463953579,
			"0.006": 3.59410444913,
			"0.007": 2.55154673584,
			"0.008": 3.02847948398,
			"0.009": 3.63885429703,
			"0.01": 1.65715046765,
			"0.011": 2.35356613475,
			"0.012": 3.55683211559,
			"0.013": 3.02303836864,
			"0.014": 2.16873071848,
			"0.015": 1.25242043338,
			"0.016": 0.915681352947,
			"0.017": 0.887661323173,
			"0.018": 0.032344016575,
			"0.019": 0.0,
			"0.02": 0.0,
			"0.021": 0.0,
			"0.022": 0.0,
			"0.023": 0.0,
			"0.024": 0.0,
			"0.025": 0.0
		}
	}
}
