{
	 "smiles": "CC(=O)NC1=CC=C(C=NNC(N)=S)C=C1", 
	 "Tm": 501.15, 
	 "num_atms": 28, 
	 "gaussian": { 
		 "optdone": 1, 
		 "sigma_profile": "yes", 
		 "theory": "DFT", 
		 "functional": "B3LYP", 
		 "basiset": "6-31G**", 
		 "properties": { 
			 "R2extent": 7739.4505, 
			 "electric_dipole_moment_norm": 9.52980666383, 
			 "electric_quadrupole_moment_norm": 33.6909372228, 
			 "total_energy": -1080.70296057, 
			 "HOMO_LUMO_gap": 0.13985, 
			 "cosmo_polarized_energy": -33.56, 
			 "cosmo_cavitation_energy": 35.0, 
			 "cosmo_dispersion_energy": -25.76, 
			 "cosmo_repulsion_energy": 2.0, 
			 "cosmo_total_nonelectrostatic_energy": 11.23, 
			 "SMD_solvation_energy": 5.45 
		},
		"coords": [
			{
				"x": 1.2189295425,
				"y": -5.4319954413,
				"z": -1.2040573113,
				"element": "C" 
			},
			{
				"x": 1.582828053,
				"y": -4.0121255633,
				"z": -0.7967648664,
				"element": "C" 
			},
			{
				"x": 2.5894523849,
				"y": -3.7651024175,
				"z": -0.1507793595,
				"element": "O" 
			},
			{
				"x": 0.6952271306,
				"y": -3.0477247649,
				"z": -1.2383561777,
				"element": "N" 
			},
			{
				"x": 0.753386647,
				"y": -1.6530326022,
				"z": -1.068085039,
				"element": "C" 
			},
			{
				"x": 1.8054226018,
				"y": -0.9964017235,
				"z": -0.4092749345,
				"element": "C" 
			},
			{
				"x": 1.7788816646,
				"y": 0.3903150815,
				"z": -0.2796780063,
				"element": "C" 
			},
			{
				"x": 0.7203573169,
				"y": 1.166429469,
				"z": -0.7887436369,
				"element": "C" 
			},
			{
				"x": 0.6546799107,
				"y": 2.6394296571,
				"z": -0.6990447996,
				"element": "C" 
			},
			{
				"x": 1.0020761083,
				"y": 3.4418807733,
				"z": 0.2473765713,
				"element": "N" 
			},
			{
				"x": 1.4743225439,
				"y": 2.9262884181,
				"z": 1.4092961237,
				"element": "N" 
			},
			{
				"x": 1.9256905002,
				"y": 3.7319314924,
				"z": 2.4314377113,
				"element": "C" 
			},
			{
				"x": 2.1590508677,
				"y": 3.0129796512,
				"z": 3.5803604396,
				"element": "N" 
			},
			{
				"x": 2.2468741646,
				"y": 5.359212034,
				"z": 2.3117374755,
				"element": "S" 
			},
			{
				"x": -0.3067187468,
				"y": 0.49205187,
				"z": -1.4741212438,
				"element": "C" 
			},
			{
				"x": -0.2976281929,
				"y": -0.8886486686,
				"z": -1.6049596692,
				"element": "C" 
			},
			{
				"x": 1.3821080432,
				"y": -6.0890868879,
				"z": -0.3475788169,
				"element": "H" 
			},
			{
				"x": 0.189305532,
				"y": -5.5460995028,
				"z": -1.5546613119,
				"element": "H" 
			},
			{
				"x": 1.8965727421,
				"y": -5.7560121471,
				"z": -2.0004855073,
				"element": "H" 
			},
			{
				"x": -0.1040313231,
				"y": -3.3814640973,
				"z": -1.7572964527,
				"element": "H" 
			},
			{
				"x": 2.6294417847,
				"y": -1.5761940964,
				"z": -0.0190183309,
				"element": "H" 
			},
			{
				"x": 2.6316819869,
				"y": 0.8755664645,
				"z": 0.1860025187,
				"element": "H" 
			},
			{
				"x": 0.2141189672,
				"y": 3.1511629921,
				"z": -1.5541214543,
				"element": "H" 
			},
			{
				"x": 1.4250103582,
				"y": 1.9225786591,
				"z": 1.5657964432,
				"element": "H" 
			},
			{
				"x": 2.4090674267,
				"y": 3.5807679308,
				"z": 4.3763672163,
				"element": "H" 
			},
			{
				"x": 1.5873473135,
				"y": 2.2026527319,
				"z": 3.7850340635,
				"element": "H" 
			},
			{
				"x": -1.1267385818,
				"y": 1.0629486376,
				"z": -1.901125638,
				"element": "H" 
			},
			{
				"x": -1.1103167468,
				"y": -1.3841079498,
				"z": -2.131656007,
				"element": "H" 
			}
		],
		 "valence_orbital": [ 
			{
				"type": "occ",
				"energy": -0.26856,
				"method": "rhf"
			},
			{
				"type": "occ",
				"energy": -0.26263,
				"method": "rhf"
			},
			{
				"type": "occ",
				"energy": -0.23212,
				"method": "rhf"
			},
			{
				"type": "occ",
				"energy": -0.20844,
				"method": "rhf"
			},
			{
				"type": "occ",
				"energy": -0.19513,
				"method": "rhf"
			},
			{
				"type": "unocc",
				"energy": -0.05528,
				"method": "rhf"
			},
			{
				"type": "unocc",
				"energy": -0.02607,
				"method": "rhf"
			},
			{
				"type": "unocc",
				"energy": -0.00989,
				"method": "rhf"
			},
			{
				"type": "unocc",
				"energy": 0.01623,
				"method": "rhf"
			},
			{
				"type": "unocc",
				"energy": 0.04682,
				"method": "rhf"
			}
		],
		"cosmo_sigma_profile": { 
			"-0.025": 0.0,
			"-0.024": 0.0,
			"-0.023": 0.0,
			"-0.022": 0.0,
			"-0.021": 0.0,
			"-0.02": 0.0,
			"-0.019": 0.0,
			"-0.018": 0.373725052096,
			"-0.017": 0.976140043093,
			"-0.016": 1.55699290003,
			"-0.015": 3.69344762205,
			"-0.014": 3.75129636568,
			"-0.013": 4.12560969838,
			"-0.012": 4.46408499338,
			"-0.011": 4.87707878393,
			"-0.01": 4.42754022215,
			"-0.009": 3.6229668696,
			"-0.008": 5.73921210941,
			"-0.007": 11.4561892902,
			"-0.006": 14.087109135,
			"-0.005": 14.5909888943,
			"-0.004": 14.5488975521,
			"-0.003": 14.5924675646,
			"-0.002": 16.6311872203,
			"-0.001": 13.3251988517,
			"0.0": 13.8209803134,
			"0.001": 15.3964432589,
			"0.002": 14.3310576197,
			"0.003": 18.28165275,
			"0.004": 13.6432440279,
			"0.005": 6.50915669747,
			"0.006": 6.86792860369,
			"0.007": 7.04660929178,
			"0.008": 6.7690338301,
			"0.009": 6.74532422018,
			"0.01": 9.46983362469,
			"0.011": 7.49966696254,
			"0.012": 6.72468437027,
			"0.013": 4.88048578678,
			"0.014": 2.64678397396,
			"0.015": 1.49206521386,
			"0.016": 1.08976370016,
			"0.017": 1.16664664298,
			"0.018": 0.526624141081,
			"0.019": 0.0192988936479,
			"0.02": 0.0,
			"0.021": 0.0,
			"0.022": 0.0,
			"0.023": 0.0,
			"0.024": 0.0,
			"0.025": 0.0
		}
	}
}
