{
	 "smiles": "FC(F)(F)C1=CSC(=O)N1", 
	 "Tm": 365.15, 
	 "num_atms": 12, 
	 "gaussian": { 
		 "optdone": 1, 
		 "sigma_profile": "yes", 
		 "theory": "DFT", 
		 "functional": "B3LYP", 
		 "basiset": "6-31G**", 
		 "properties": { 
			 "R2extent": 1861.5182, 
			 "electric_dipole_moment_norm": 2.14574717523, 
			 "electric_quadrupole_moment_norm": 10.8461694206, 
			 "total_energy": -981.315152092, 
			 "HOMO_LUMO_gap": 0.21174, 
			 "cosmo_polarized_energy": -9.63, 
			 "cosmo_cavitation_energy": 20.22, 
			 "cosmo_dispersion_energy": -15.07, 
			 "cosmo_repulsion_energy": 1.12, 
			 "cosmo_total_nonelectrostatic_energy": 6.28, 
			 "SMD_solvation_energy": 5.69 
		},
		"coords": [
			{
				"x": 0.4768060359,
				"y": -2.4123290998,
				"z": -0.4217654114,
				"element": "F" 
			},
			{
				"x": 0.6464380848,
				"y": -1.0967571402,
				"z": -0.2195288104,
				"element": "C" 
			},
			{
				"x": 1.319043532,
				"y": -0.5875087017,
				"z": -1.2763108296,
				"element": "F" 
			},
			{
				"x": 1.4441575961,
				"y": -0.9320062855,
				"z": 0.8598312825,
				"element": "F" 
			},
			{
				"x": -0.6658467474,
				"y": -0.4080467017,
				"z": -0.0315388931,
				"element": "C" 
			},
			{
				"x": -1.8842996713,
				"y": -0.97920424,
				"z": -0.0523015002,
				"element": "C" 
			},
			{
				"x": -3.1522831756,
				"y": 0.2002312711,
				"z": 0.2122676511,
				"element": "S" 
			},
			{
				"x": -1.9280949914,
				"y": 1.5484929445,
				"z": 0.3584842531,
				"element": "C" 
			},
			{
				"x": -2.1646129591,
				"y": 2.7148177925,
				"z": 0.5604648985,
				"element": "O" 
			},
			{
				"x": -0.6838532386,
				"y": 0.9633215648,
				"z": 0.1909145212,
				"element": "N" 
			},
			{
				"x": -2.0968998721,
				"y": -2.0256849208,
				"z": -0.2087201511,
				"element": "H" 
			},
			{
				"x": 0.1432454066,
				"y": 1.5428735169,
				"z": 0.2360029895,
				"element": "H" 
			}
		],
		 "valence_orbital": [ 
			{
				"type": "occ",
				"energy": -0.37795,
				"method": "rhf"
			},
			{
				"type": "occ",
				"energy": -0.36778,
				"method": "rhf"
			},
			{
				"type": "occ",
				"energy": -0.31796,
				"method": "rhf"
			},
			{
				"type": "occ",
				"energy": -0.28719,
				"method": "rhf"
			},
			{
				"type": "occ",
				"energy": -0.24002,
				"method": "rhf"
			},
			{
				"type": "unocc",
				"energy": -0.02828,
				"method": "rhf"
			},
			{
				"type": "unocc",
				"energy": -0.00509,
				"method": "rhf"
			},
			{
				"type": "unocc",
				"energy": 0.01258,
				"method": "rhf"
			},
			{
				"type": "unocc",
				"energy": 0.05415,
				"method": "rhf"
			},
			{
				"type": "unocc",
				"energy": 0.08306,
				"method": "rhf"
			}
		],
		"cosmo_sigma_profile": { 
			"-0.025": 0.0,
			"-0.024": 0.0,
			"-0.023": 0.0,
			"-0.022": 0.0,
			"-0.021": 0.0,
			"-0.02": 0.0,
			"-0.019": 0.0,
			"-0.018": 0.365450049133,
			"-0.017": 1.19248207986,
			"-0.016": 0.778353293141,
			"-0.015": 1.12615419595,
			"-0.014": 0.92814266176,
			"-0.013": 0.980991039059,
			"-0.012": 1.07995329431,
			"-0.011": 1.97887111573,
			"-0.01": 2.39588547523,
			"-0.009": 2.14969362371,
			"-0.008": 2.5459227764,
			"-0.007": 2.98413613496,
			"-0.006": 2.61117111106,
			"-0.005": 3.33499036035,
			"-0.004": 3.50317516434,
			"-0.003": 9.23995255552,
			"-0.002": 12.6521620102,
			"-0.001": 13.8145524749,
			"0.0": 16.6149076589,
			"0.001": 20.18512074,
			"0.002": 31.3872860828,
			"0.003": 11.6133451087,
			"0.004": 3.16175280359,
			"0.005": 1.31891644747,
			"0.006": 1.45002941082,
			"0.007": 1.08219976457,
			"0.008": 0.902572023618,
			"0.009": 2.13070648996,
			"0.01": 2.0244980251,
			"0.011": 5.32832453194,
			"0.012": 4.2275551433,
			"0.013": 0.0966368026226,
			"0.014": 0.0,
			"0.015": 0.0,
			"0.016": 0.0,
			"0.017": 0.0,
			"0.018": 0.0,
			"0.019": 0.0,
			"0.02": 0.0,
			"0.021": 0.0,
			"0.022": 0.0,
			"0.023": 0.0,
			"0.024": 0.0,
			"0.025": 0.0
		}
	}
}
