{
	 "smiles": "CC12C3C(C(O)=O)C45CC(=C)C(O)(C4)CCC5C3(OC1=O)C=CC2O", 
	 "Tm": 500.15, 
	 "num_atms": 47, 
	 "gaussian": { 
		 "optdone": 1, 
		 "sigma_profile": "yes", 
		 "theory": "DFT", 
		 "functional": "B3LYP", 
		 "basiset": "6-31G**", 
		 "properties": { 
			 "R2extent": 8362.3375, 
			 "electric_dipole_moment_norm": 5.50807123592, 
			 "electric_quadrupole_moment_norm": 14.1968668293, 
			 "total_energy": -1188.58408129, 
			 "HOMO_LUMO_gap": 0.22621, 
			 "cosmo_polarized_energy": -22.25, 
			 "cosmo_cavitation_energy": 44.56, 
			 "cosmo_dispersion_energy": -30.14, 
			 "cosmo_repulsion_energy": 2.21, 
			 "cosmo_total_nonelectrostatic_energy": 16.63, 
			 "SMD_solvation_energy": 8.73 
		},
		"coords": [
			{
				"x": 0.6224329948,
				"y": 2.8348475075,
				"z": 2.6767072914,
				"element": "C" 
			},
			{
				"x": 1.5057632809,
				"y": 1.6858533501,
				"z": 2.1948859286,
				"element": "C" 
			},
			{
				"x": 0.8164373483,
				"y": 0.5591408887,
				"z": 1.4114226889,
				"element": "C" 
			},
			{
				"x": 0.0631482519,
				"y": -0.6946594387,
				"z": 1.8511146266,
				"element": "C" 
			},
			{
				"x": -1.3350946529,
				"y": -0.4334634655,
				"z": 2.3584467453,
				"element": "C" 
			},
			{
				"x": -1.8562877595,
				"y": -1.5238747749,
				"z": 2.9759533897,
				"element": "O" 
			},
			{
				"x": -1.9569723932,
				"y": 0.5993587238,
				"z": 2.2339751617,
				"element": "O" 
			},
			{
				"x": 0.086877615,
				"y": -1.5274042617,
				"z": 0.5033487421,
				"element": "C" 
			},
			{
				"x": 0.0597883496,
				"y": -3.065120308,
				"z": 0.6410081816,
				"element": "C" 
			},
			{
				"x": -0.3374038797,
				"y": -3.5252574605,
				"z": -0.7547398552,
				"element": "C" 
			},
			{
				"x": -0.3479446973,
				"y": -4.7727613229,
				"z": -1.2238755998,
				"element": "C" 
			},
			{
				"x": -0.8165247122,
				"y": -2.3008945027,
				"z": -1.5542661625,
				"element": "C" 
			},
			{
				"x": -1.8936325694,
				"y": -2.5968468561,
				"z": -2.4290166036,
				"element": "O" 
			},
			{
				"x": -1.1389410351,
				"y": -1.3059942093,
				"z": -0.417683626,
				"element": "C" 
			},
			{
				"x": 0.300666289,
				"y": -1.6880804946,
				"z": -2.4470271731,
				"element": "C" 
			},
			{
				"x": 1.1414680599,
				"y": -0.6307949722,
				"z": -1.7029345911,
				"element": "C" 
			},
			{
				"x": 1.4213347139,
				"y": -1.0775675803,
				"z": -0.2625980103,
				"element": "C" 
			},
			{
				"x": 2.0172385073,
				"y": -0.0230833264,
				"z": 0.6772747717,
				"element": "C" 
			},
			{
				"x": 2.6351867545,
				"y": 1.1809436419,
				"z": 0.1130258027,
				"element": "O" 
			},
			{
				"x": 2.4828760081,
				"y": 2.1529731223,
				"z": 1.0705131081,
				"element": "C" 
			},
			{
				"x": 3.0856873303,
				"y": 3.197491018,
				"z": 1.0310843279,
				"element": "O" 
			},
			{
				"x": 3.0338997129,
				"y": -0.6043651833,
				"z": 1.6511716141,
				"element": "C" 
			},
			{
				"x": 3.2045020069,
				"y": -0.0678523451,
				"z": 2.863244692,
				"element": "C" 
			},
			{
				"x": 2.3904068752,
				"y": 1.1155375584,
				"z": 3.3426225505,
				"element": "C" 
			},
			{
				"x": 3.2177668614,
				"y": 2.1062771322,
				"z": 3.9346223777,
				"element": "O" 
			},
			{
				"x": 0.0329209195,
				"y": 3.2462148607,
				"z": 1.8527488308,
				"element": "H" 
			},
			{
				"x": -0.0750469095,
				"y": 2.4816212747,
				"z": 3.4412475258,
				"element": "H" 
			},
			{
				"x": 1.2361161697,
				"y": 3.6313530591,
				"z": 3.1007714795,
				"element": "H" 
			},
			{
				"x": 0.1758165189,
				"y": 1.0502480628,
				"z": 0.6679998885,
				"element": "H" 
			},
			{
				"x": 0.6067488264,
				"y": -1.2551494871,
				"z": 2.6181319584,
				"element": "H" 
			},
			{
				"x": -2.7572804432,
				"y": -1.2781242653,
				"z": 3.2478966785,
				"element": "H" 
			},
			{
				"x": 1.0142977121,
				"y": -3.4806399191,
				"z": 0.9817828151,
				"element": "H" 
			},
			{
				"x": -0.70369273,
				"y": -3.3597758898,
				"z": 1.3724643993,
				"element": "H" 
			},
			{
				"x": -0.6848147301,
				"y": -4.9811833115,
				"z": -2.2357727566,
				"element": "H" 
			},
			{
				"x": -0.0259118679,
				"y": -5.619209694,
				"z": -0.6235839912,
				"element": "H" 
			},
			{
				"x": -2.5156505811,
				"y": -3.1575619162,
				"z": -1.9448764395,
				"element": "H" 
			},
			{
				"x": -2.0560375641,
				"y": -1.6154277642,
				"z": 0.0986466214,
				"element": "H" 
			},
			{
				"x": -1.2843775104,
				"y": -0.2820117596,
				"z": -0.7673282039,
				"element": "H" 
			},
			{
				"x": -0.195764263,
				"y": -1.2299551257,
				"z": -3.3081755518,
				"element": "H" 
			},
			{
				"x": 0.9361499627,
				"y": -2.4927278706,
				"z": -2.8302800729,
				"element": "H" 
			},
			{
				"x": 0.6203791512,
				"y": 0.3321849973,
				"z": -1.7001693203,
				"element": "H" 
			},
			{
				"x": 2.0862099954,
				"y": -0.4560748818,
				"z": -2.2267499319,
				"element": "H" 
			},
			{
				"x": 2.0950916676,
				"y": -1.9408976402,
				"z": -0.3125863826,
				"element": "H" 
			},
			{
				"x": 3.6495808352,
				"y": -1.432063764,
				"z": 1.3068342698,
				"element": "H" 
			},
			{
				"x": 3.9600011259,
				"y": -0.4402952961,
				"z": 3.5511455699,
				"element": "H" 
			},
			{
				"x": 1.7197250891,
				"y": 0.7914296461,
				"z": 4.15128891,
				"element": "H" 
			},
			{
				"x": 3.6735593645,
				"y": 2.5800442438,
				"z": 3.2210833246,
				"element": "H" 
			}
		],
		 "valence_orbital": [ 
			{
				"type": "occ",
				"energy": -0.28149,
				"method": "rhf"
			},
			{
				"type": "occ",
				"energy": -0.27746,
				"method": "rhf"
			},
			{
				"type": "occ",
				"energy": -0.27224,
				"method": "rhf"
			},
			{
				"type": "occ",
				"energy": -0.26784,
				"method": "rhf"
			},
			{
				"type": "occ",
				"energy": -0.2518,
				"method": "rhf"
			},
			{
				"type": "unocc",
				"energy": -0.02559,
				"method": "rhf"
			},
			{
				"type": "unocc",
				"energy": -0.01194,
				"method": "rhf"
			},
			{
				"type": "unocc",
				"energy": 0.00022,
				"method": "rhf"
			},
			{
				"type": "unocc",
				"energy": 0.00325,
				"method": "rhf"
			},
			{
				"type": "unocc",
				"energy": 0.05786,
				"method": "rhf"
			}
		],
		"cosmo_sigma_profile": { 
			"-0.025": 0.0,
			"-0.024": 0.0,
			"-0.023": 0.0,
			"-0.022": 0.0,
			"-0.021": 0.0,
			"-0.02": 0.0,
			"-0.019": 0.16181630157,
			"-0.018": 0.641588580658,
			"-0.017": 0.942171796644,
			"-0.016": 0.977424108986,
			"-0.015": 1.2226125893,
			"-0.014": 1.54288095112,
			"-0.013": 0.844931627149,
			"-0.012": 1.18234010559,
			"-0.011": 2.56148149067,
			"-0.01": 2.27803010532,
			"-0.009": 1.95333307738,
			"-0.008": 2.47314512515,
			"-0.007": 8.94934590676,
			"-0.006": 16.9262287271,
			"-0.005": 20.3811727968,
			"-0.004": 28.0323978588,
			"-0.003": 31.1752292439,
			"-0.002": 33.8500082318,
			"-0.001": 29.9814762629,
			"0.0": 25.8555478732,
			"0.001": 19.2115834669,
			"0.002": 16.987243872,
			"0.003": 14.0699666188,
			"0.004": 12.4169801203,
			"0.005": 9.83512131789,
			"0.006": 8.40194848661,
			"0.007": 7.37166928476,
			"0.008": 7.17204964228,
			"0.009": 9.5685179698,
			"0.01": 8.20388673828,
			"0.011": 9.43655733235,
			"0.012": 6.1532299564,
			"0.013": 4.26648503057,
			"0.014": 1.33084613411,
			"0.015": 0.0,
			"0.016": 0.0,
			"0.017": 0.0,
			"0.018": 0.0,
			"0.019": 0.0,
			"0.02": 0.0,
			"0.021": 0.0,
			"0.022": 0.0,
			"0.023": 0.0,
			"0.024": 0.0,
			"0.025": 0.0
		}
	}
}
