{
	 "smiles": "BrC1=CC=C(C=C1)C(=O)C1=CC=CO1", 
	 "Tm": 337.15, 
	 "num_atms": 21, 
	 "gaussian": { 
		 "optdone": 1, 
		 "sigma_profile": "yes", 
		 "theory": "DFT", 
		 "functional": "B3LYP", 
		 "basiset": "6-31G**", 
		 "properties": { 
			 "R2extent": 5622.5123, 
			 "electric_dipole_moment_norm": 3.3222407935, 
			 "electric_quadrupole_moment_norm": 13.1214319211, 
			 "total_energy": -3145.21340662, 
			 "HOMO_LUMO_gap": 0.16915, 
			 "cosmo_polarized_energy": -8.65, 
			 "cosmo_cavitation_energy": 28.62, 
			 "cosmo_dispersion_energy": -21.45, 
			 "cosmo_repulsion_energy": 1.66, 
			 "cosmo_total_nonelectrostatic_energy": 8.83, 
			 "SMD_solvation_energy": 5.17 
		},
		"coords": [
			{
				"x": 2.1998421358,
				"y": 2.9868940386,
				"z": -2.7044945979,
				"element": "Br" 
			},
			{
				"x": 0.9593752851,
				"y": 2.0417275305,
				"z": -1.6040916486,
				"element": "C" 
			},
			{
				"x": -0.1735953226,
				"y": 2.7017675834,
				"z": -1.1249842918,
				"element": "C" 
			},
			{
				"x": -1.0715982256,
				"y": 2.0031507763,
				"z": -0.3268075694,
				"element": "C" 
			},
			{
				"x": -0.8493823442,
				"y": 0.6575365136,
				"z": 0.0122693272,
				"element": "C" 
			},
			{
				"x": 0.2961263481,
				"y": 0.0164703213,
				"z": -0.4857394887,
				"element": "C" 
			},
			{
				"x": 1.1992173712,
				"y": 0.7042040909,
				"z": -1.2955475929,
				"element": "C" 
			},
			{
				"x": -1.9021426528,
				"y": 0.0052986367,
				"z": 0.8582425684,
				"element": "C" 
			},
			{
				"x": -2.9900036788,
				"y": 0.556436243,
				"z": 1.0222056769,
				"element": "O" 
			},
			{
				"x": -1.6967085349,
				"y": -1.288231858,
				"z": 1.5321808867,
				"element": "C" 
			},
			{
				"x": -2.603808688,
				"y": -2.0173254988,
				"z": 2.2610241947,
				"element": "C" 
			},
			{
				"x": -1.9208963328,
				"y": -3.1736416564,
				"z": 2.7314517805,
				"element": "C" 
			},
			{
				"x": -0.641440303,
				"y": -3.071735389,
				"z": 2.2633880482,
				"element": "C" 
			},
			{
				"x": -0.4846902534,
				"y": -1.9383906401,
				"z": 1.5355431739,
				"element": "O" 
			},
			{
				"x": -0.3468248041,
				"y": 3.7418687821,
				"z": -1.3763481658,
				"element": "H" 
			},
			{
				"x": -1.9674591199,
				"y": 2.4849616754,
				"z": 0.0492434282,
				"element": "H" 
			},
			{
				"x": 0.4897975046,
				"y": -1.0218379512,
				"z": -0.2523154673,
				"element": "H" 
			},
			{
				"x": 2.079607972,
				"y": 0.2051306426,
				"z": -1.6838318329,
				"element": "H" 
			},
			{
				"x": -3.6321840381,
				"y": -1.7339076014,
				"z": 2.4260086361,
				"element": "H" 
			},
			{
				"x": -2.3199633969,
				"y": -3.9730342449,
				"z": 3.3386267556,
				"element": "H" 
			},
			{
				"x": 0.2353310782,
				"y": -3.6939419947,
				"z": 2.3598761791,
				"element": "H" 
			}
		],
		 "valence_orbital": [ 
			{
				"type": "occ",
				"energy": -0.29173,
				"method": "rhf"
			},
			{
				"type": "occ",
				"energy": -0.26918,
				"method": "rhf"
			},
			{
				"type": "occ",
				"energy": -0.26069,
				"method": "rhf"
			},
			{
				"type": "occ",
				"energy": -0.24852,
				"method": "rhf"
			},
			{
				"type": "occ",
				"energy": -0.24477,
				"method": "rhf"
			},
			{
				"type": "unocc",
				"energy": -0.07562,
				"method": "rhf"
			},
			{
				"type": "unocc",
				"energy": -0.01781,
				"method": "rhf"
			},
			{
				"type": "unocc",
				"energy": -0.01291,
				"method": "rhf"
			},
			{
				"type": "unocc",
				"energy": 0.00394,
				"method": "rhf"
			},
			{
				"type": "unocc",
				"energy": 0.03739,
				"method": "rhf"
			}
		],
		"cosmo_sigma_profile": { 
			"-0.025": 0.0,
			"-0.024": 0.0,
			"-0.023": 0.0,
			"-0.022": 0.0,
			"-0.021": 0.0,
			"-0.02": 0.0,
			"-0.019": 0.0,
			"-0.018": 0.0,
			"-0.017": 0.0,
			"-0.016": 0.0,
			"-0.015": 0.0,
			"-0.014": 0.0,
			"-0.013": 0.0,
			"-0.012": 0.0,
			"-0.011": 0.0,
			"-0.01": 1.26037095449,
			"-0.009": 2.41326508144,
			"-0.008": 4.70204792964,
			"-0.007": 8.62384191377,
			"-0.006": 10.5415046396,
			"-0.005": 12.2497017387,
			"-0.004": 12.4670818421,
			"-0.003": 14.1850489706,
			"-0.002": 14.0157652693,
			"-0.001": 16.2941069334,
			"0.0": 21.4273775302,
			"0.001": 27.3357703008,
			"0.002": 31.8028027391,
			"0.003": 22.5487411236,
			"0.004": 14.8734162482,
			"0.005": 4.22249071103,
			"0.006": 2.36164594393,
			"0.007": 1.42528246961,
			"0.008": 1.33043441006,
			"0.009": 1.5525050289,
			"0.01": 2.11741197795,
			"0.011": 2.54138389305,
			"0.012": 4.15155003361,
			"0.013": 0.511270948836,
			"0.014": 0.0,
			"0.015": 0.0,
			"0.016": 0.0,
			"0.017": 0.0,
			"0.018": 0.0,
			"0.019": 0.0,
			"0.02": 0.0,
			"0.021": 0.0,
			"0.022": 0.0,
			"0.023": 0.0,
			"0.024": 0.0,
			"0.025": 0.0
		}
	}
}
