{
	 "smiles": "COCCOC1=NC=C(C=C1)C(O)=O", 
	 "Tm": 408.15, 
	 "num_atms": 25, 
	 "gaussian": { 
		 "optdone": 1, 
		 "sigma_profile": "yes", 
		 "theory": "DFT", 
		 "functional": "B3LYP", 
		 "basiset": "6-31G**", 
		 "properties": { 
			 "R2extent": 4139.2176, 
			 "electric_dipole_moment_norm": 4.09868774854, 
			 "electric_quadrupole_moment_norm": 23.0882888712, 
			 "total_energy": -705.2167301, 
			 "HOMO_LUMO_gap": 0.19147, 
			 "cosmo_polarized_energy": -17.53, 
			 "cosmo_cavitation_energy": 29.59, 
			 "cosmo_dispersion_energy": -21.3, 
			 "cosmo_repulsion_energy": 1.69, 
			 "cosmo_total_nonelectrostatic_energy": 9.98, 
			 "SMD_solvation_energy": 6.43 
		},
		"coords": [
			{
				"x": 1.9787781573,
				"y": 2.1406549482,
				"z": 2.0826337168,
				"element": "C" 
			},
			{
				"x": 0.8666056585,
				"y": 2.7962456697,
				"z": 2.6669720086,
				"element": "O" 
			},
			{
				"x": -0.3844352087,
				"y": 2.4772243888,
				"z": 2.0914769725,
				"element": "C" 
			},
			{
				"x": -0.9833488563,
				"y": 1.1591220562,
				"z": 2.5764719901,
				"element": "C" 
			},
			{
				"x": -0.3196565674,
				"y": -0.006023807,
				"z": 2.0353912242,
				"element": "O" 
			},
			{
				"x": -0.7071617595,
				"y": -0.4727593868,
				"z": 0.8343816666,
				"element": "C" 
			},
			{
				"x": -1.6611631218,
				"y": 0.1585377666,
				"z": 0.1500975677,
				"element": "N" 
			},
			{
				"x": -2.0202903076,
				"y": -0.3516499919,
				"z": -1.0322362695,
				"element": "C" 
			},
			{
				"x": -1.4408467456,
				"y": -1.4893008524,
				"z": -1.6018466873,
				"element": "C" 
			},
			{
				"x": -0.4418805118,
				"y": -2.1431021482,
				"z": -0.8549300933,
				"element": "C" 
			},
			{
				"x": -0.0640355816,
				"y": -1.6402260122,
				"z": 0.3754854737,
				"element": "C" 
			},
			{
				"x": -1.9445108082,
				"y": -1.9424480201,
				"z": -2.9312894508,
				"element": "C" 
			},
			{
				"x": -1.1587172435,
				"y": -2.8132149527,
				"z": -3.623975179,
				"element": "O" 
			},
			{
				"x": -2.9953143671,
				"y": -1.5757275196,
				"z": -3.4033599383,
				"element": "O" 
			},
			{
				"x": 2.8746322568,
				"y": 2.5951742455,
				"z": 2.5135192365,
				"element": "H" 
			},
			{
				"x": 2.0016206027,
				"y": 2.2835049305,
				"z": 0.9907668008,
				"element": "H" 
			},
			{
				"x": 1.9881203786,
				"y": 1.0634237575,
				"z": 2.2911780932,
				"element": "H" 
			},
			{
				"x": -0.335305315,
				"y": 2.4823595349,
				"z": 0.9925792395,
				"element": "H" 
			},
			{
				"x": -1.0693449614,
				"y": 3.2768247243,
				"z": 2.3984527588,
				"element": "H" 
			},
			{
				"x": -0.84834968,
				"y": 1.0706427846,
				"z": 3.6569294871,
				"element": "H" 
			},
			{
				"x": -2.0465040187,
				"y": 1.1195673702,
				"z": 2.327002418,
				"element": "H" 
			},
			{
				"x": -2.8077333252,
				"y": 0.1655527396,
				"z": -1.5737216789,
				"element": "H" 
			},
			{
				"x": 0.0176372466,
				"y": -3.0624926035,
				"z": -1.210872428,
				"element": "H" 
			},
			{
				"x": 0.6874184136,
				"y": -2.1180322169,
				"z": 0.9929039418,
				"element": "H" 
			},
			{
				"x": -0.2853143347,
				"y": -2.8825574054,
				"z": -3.2155108707,
				"element": "H" 
			}
		],
		 "valence_orbital": [ 
			{
				"type": "occ",
				"energy": -0.3106,
				"method": "rhf"
			},
			{
				"type": "occ",
				"energy": -0.28929,
				"method": "rhf"
			},
			{
				"type": "occ",
				"energy": -0.27489,
				"method": "rhf"
			},
			{
				"type": "occ",
				"energy": -0.26523,
				"method": "rhf"
			},
			{
				"type": "occ",
				"energy": -0.24422,
				"method": "rhf"
			},
			{
				"type": "unocc",
				"energy": -0.05275,
				"method": "rhf"
			},
			{
				"type": "unocc",
				"energy": -0.04427,
				"method": "rhf"
			},
			{
				"type": "unocc",
				"energy": 0.04312,
				"method": "rhf"
			},
			{
				"type": "unocc",
				"energy": 0.05307,
				"method": "rhf"
			},
			{
				"type": "unocc",
				"energy": 0.09507,
				"method": "rhf"
			}
		],
		"cosmo_sigma_profile": { 
			"-0.025": 0.0,
			"-0.024": 0.0,
			"-0.023": 0.0,
			"-0.022": 0.0,
			"-0.021": 0.0,
			"-0.02": 0.00930480733346,
			"-0.019": 0.741359859001,
			"-0.018": 1.14682000508,
			"-0.017": 0.828930281811,
			"-0.016": 0.898205844157,
			"-0.015": 1.11273205523,
			"-0.014": 0.970017721636,
			"-0.013": 1.03776604544,
			"-0.012": 1.28598472914,
			"-0.011": 1.12457210833,
			"-0.01": 1.62242693758,
			"-0.009": 1.73156483469,
			"-0.008": 2.7527904598,
			"-0.007": 5.55805569213,
			"-0.006": 9.01454609568,
			"-0.005": 13.52424199,
			"-0.004": 17.2280166209,
			"-0.003": 19.6105469116,
			"-0.002": 21.5905045217,
			"-0.001": 21.3447043006,
			"0.0": 19.9087671609,
			"0.001": 16.7598018227,
			"0.002": 10.2965583478,
			"0.003": 7.87379167127,
			"0.004": 5.69899629948,
			"0.005": 6.31942691024,
			"0.006": 5.58518945496,
			"0.007": 5.99098969281,
			"0.008": 4.90902544546,
			"0.009": 5.79272015159,
			"0.01": 5.74692450278,
			"0.011": 6.74031433089,
			"0.012": 6.37787629322,
			"0.013": 3.32629487851,
			"0.014": 0.473332340571,
			"0.015": 0.0,
			"0.016": 0.0,
			"0.017": 0.0,
			"0.018": 0.0,
			"0.019": 0.0,
			"0.02": 0.0,
			"0.021": 0.0,
			"0.022": 0.0,
			"0.023": 0.0,
			"0.024": 0.0,
			"0.025": 0.0
		}
	}
}
