{
	 "smiles": "OC(=O)CCCNC(=O)C1=CSC=C1", 
	 "Tm": 509.15, 
	 "num_atms": 25, 
	 "gaussian": { 
		 "optdone": 1, 
		 "sigma_profile": "yes", 
		 "theory": "DFT", 
		 "functional": "B3LYP", 
		 "basiset": "6-31G**", 
		 "properties": { 
			 "R2extent": 4038.4782, 
			 "electric_dipole_moment_norm": 3.0701489117, 
			 "electric_quadrupole_moment_norm": 21.090285202, 
			 "total_energy": -1028.21083867, 
			 "HOMO_LUMO_gap": 0.20585, 
			 "cosmo_polarized_energy": -18.57, 
			 "cosmo_cavitation_energy": 30.89, 
			 "cosmo_dispersion_energy": -22.11, 
			 "cosmo_repulsion_energy": 1.71, 
			 "cosmo_total_nonelectrostatic_energy": 10.49, 
			 "SMD_solvation_energy": 6.59 
		},
		"coords": [
			{
				"x": 1.410789161,
				"y": 0.6149472984,
				"z": -2.0761875619,
				"element": "O" 
			},
			{
				"x": 2.1596667134,
				"y": -0.518515154,
				"z": -2.1535336547,
				"element": "C" 
			},
			{
				"x": 2.1300589114,
				"y": -1.2443281072,
				"z": -3.1208918283,
				"element": "O" 
			},
			{
				"x": 3.0242775335,
				"y": -0.7183841293,
				"z": -0.9252515463,
				"element": "C" 
			},
			{
				"x": 2.3208008637,
				"y": -0.457815034,
				"z": 0.4161183424,
				"element": "C" 
			},
			{
				"x": 1.1573577384,
				"y": -1.4233681319,
				"z": 0.6857509734,
				"element": "C" 
			},
			{
				"x": 0.5391414064,
				"y": -1.1921809298,
				"z": 1.9852786037,
				"element": "N" 
			},
			{
				"x": -0.7835569691,
				"y": -0.9704411948,
				"z": 2.3026651865,
				"element": "C" 
			},
			{
				"x": -1.1885310019,
				"y": -1.2016776518,
				"z": 3.4390395429,
				"element": "O" 
			},
			{
				"x": -1.7080032964,
				"y": -0.4199944591,
				"z": 1.2623195164,
				"element": "C" 
			},
			{
				"x": -3.0553217868,
				"y": -0.6658449927,
				"z": 1.3797556793,
				"element": "C" 
			},
			{
				"x": -3.9683880638,
				"y": 0.1046237817,
				"z": 0.1389344241,
				"element": "S" 
			},
			{
				"x": -2.5339186976,
				"y": 0.7968376688,
				"z": -0.55156382,
				"element": "C" 
			},
			{
				"x": -1.4149466792,
				"y": 0.4339125236,
				"z": 0.1432155027,
				"element": "C" 
			},
			{
				"x": 0.9117486563,
				"y": 0.6612569939,
				"z": -2.9092909498,
				"element": "H" 
			},
			{
				"x": 3.4207689601,
				"y": -1.7356209912,
				"z": -0.9835836835,
				"element": "H" 
			},
			{
				"x": 3.8765800916,
				"y": -0.0341088317,
				"z": -1.0232018363,
				"element": "H" 
			},
			{
				"x": 3.0596181489,
				"y": -0.5564965321,
				"z": 1.2205247883,
				"element": "H" 
			},
			{
				"x": 1.9553200713,
				"y": 0.5728570284,
				"z": 0.4533636862,
				"element": "H" 
			},
			{
				"x": 1.522919268,
				"y": -2.4590722901,
				"z": 0.636949227,
				"element": "H" 
			},
			{
				"x": 0.3925097501,
				"y": -1.3311699515,
				"z": -0.0876245606,
				"element": "H" 
			},
			{
				"x": 1.0365570358,
				"y": -1.5576275513,
				"z": 2.7886649641,
				"element": "H" 
			},
			{
				"x": -3.5331381688,
				"y": -1.2532643363,
				"z": 2.1503513402,
				"element": "H" 
			},
			{
				"x": -2.6043207827,
				"y": 1.4392151014,
				"z": -1.4183351906,
				"element": "H" 
			},
			{
				"x": -0.4264888638,
				"y": 0.7861598726,
				"z": -0.1236671452,
				"element": "H" 
			}
		],
		 "valence_orbital": [ 
			{
				"type": "occ",
				"energy": -0.28399,
				"method": "rhf"
			},
			{
				"type": "occ",
				"energy": -0.26093,
				"method": "rhf"
			},
			{
				"type": "occ",
				"energy": -0.25584,
				"method": "rhf"
			},
			{
				"type": "occ",
				"energy": -0.24914,
				"method": "rhf"
			},
			{
				"type": "occ",
				"energy": -0.23646,
				"method": "rhf"
			},
			{
				"type": "unocc",
				"energy": -0.03061,
				"method": "rhf"
			},
			{
				"type": "unocc",
				"energy": -0.00449,
				"method": "rhf"
			},
			{
				"type": "unocc",
				"energy": 0.00912,
				"method": "rhf"
			},
			{
				"type": "unocc",
				"energy": 0.02783,
				"method": "rhf"
			},
			{
				"type": "unocc",
				"energy": 0.05519,
				"method": "rhf"
			}
		],
		"cosmo_sigma_profile": { 
			"-0.025": 0.0,
			"-0.024": 0.0,
			"-0.023": 0.0,
			"-0.022": 0.0,
			"-0.021": 0.0,
			"-0.02": 0.0,
			"-0.019": 0.0,
			"-0.018": 0.43308561543,
			"-0.017": 1.21763258573,
			"-0.016": 0.805468449806,
			"-0.015": 0.456453224595,
			"-0.014": 0.671569774583,
			"-0.013": 1.21983177947,
			"-0.012": 1.85489845442,
			"-0.011": 2.0103957163,
			"-0.01": 1.82835086966,
			"-0.009": 2.5024748639,
			"-0.008": 5.67577236097,
			"-0.007": 7.72366195718,
			"-0.006": 10.3067796748,
			"-0.005": 18.526266854,
			"-0.004": 18.4619062799,
			"-0.003": 19.499122166,
			"-0.002": 18.5052179662,
			"-0.001": 16.7674569061,
			"0.0": 13.0929274789,
			"0.001": 13.3784081879,
			"0.002": 15.534825878,
			"0.003": 19.7339029244,
			"0.004": 11.1836692064,
			"0.005": 5.79558067155,
			"0.006": 3.86959419872,
			"0.007": 2.44501237165,
			"0.008": 3.71838727698,
			"0.009": 3.526993262,
			"0.01": 3.66071963474,
			"0.011": 4.76110532657,
			"0.012": 7.06088619021,
			"0.013": 4.06984594552,
			"0.014": 5.47363820468,
			"0.015": 1.12963417579,
			"0.016": 0.0,
			"0.017": 0.0,
			"0.018": 0.0,
			"0.019": 0.0,
			"0.02": 0.0,
			"0.021": 0.0,
			"0.022": 0.0,
			"0.023": 0.0,
			"0.024": 0.0,
			"0.025": 0.0
		}
	}
}
