{
	 "smiles": "CC1=CC(=O)N(C1=O)C1=C(F)C=CC=C1", 
	 "Tm": 357.15, 
	 "num_atms": 23, 
	 "gaussian": { 
		 "optdone": 1, 
		 "sigma_profile": "yes", 
		 "theory": "DFT", 
		 "functional": "B3LYP", 
		 "basiset": "6-31G**", 
		 "properties": { 
			 "R2extent": 3227.5069, 
			 "electric_dipole_moment_norm": 1.67577954696, 
			 "electric_quadrupole_moment_norm": 20.6597839952, 
			 "total_energy": -729.032389754, 
			 "HOMO_LUMO_gap": 0.15315, 
			 "cosmo_polarized_energy": -11.69, 
			 "cosmo_cavitation_energy": 28.75, 
			 "cosmo_dispersion_energy": -20.25, 
			 "cosmo_repulsion_energy": 1.57, 
			 "cosmo_total_nonelectrostatic_energy": 10.06, 
			 "SMD_solvation_energy": 7.05 
		},
		"coords": [
			{
				"x": -3.2104540198,
				"y": -0.1520344619,
				"z": -1.8412162939,
				"element": "C" 
			},
			{
				"x": -2.0612806693,
				"y": -0.2354714105,
				"z": -0.8972524839,
				"element": "C" 
			},
			{
				"x": -1.8278714253,
				"y": -1.044421992,
				"z": 0.1459376695,
				"element": "C" 
			},
			{
				"x": -0.5151418352,
				"y": -0.7005345202,
				"z": 0.7673081082,
				"element": "C" 
			},
			{
				"x": 0.0089682245,
				"y": -1.1881475355,
				"z": 1.7428835779,
				"element": "O" 
			},
			{
				"x": 0.0145329046,
				"y": 0.3613503643,
				"z": -0.007810146,
				"element": "N" 
			},
			{
				"x": -0.887298941,
				"y": 0.7058900898,
				"z": -1.0277325874,
				"element": "C" 
			},
			{
				"x": -0.7480065256,
				"y": 1.5922616296,
				"z": -1.8440324714,
				"element": "O" 
			},
			{
				"x": 1.2675164217,
				"y": 0.9854744502,
				"z": 0.2208569214,
				"element": "C" 
			},
			{
				"x": 2.4356428195,
				"y": 0.216777376,
				"z": 0.2485091789,
				"element": "C" 
			},
			{
				"x": 2.3520834407,
				"y": -1.1076412041,
				"z": 0.0319595913,
				"element": "F" 
			},
			{
				"x": 3.6787396731,
				"y": 0.7899320892,
				"z": 0.4817212416,
				"element": "C" 
			},
			{
				"x": 3.7649949865,
				"y": 2.1705595536,
				"z": 0.6638940591,
				"element": "C" 
			},
			{
				"x": 2.6136653577,
				"y": 2.959318146,
				"z": 0.6157266708,
				"element": "C" 
			},
			{
				"x": 1.3692092417,
				"y": 2.3676022274,
				"z": 0.4031434235,
				"element": "C" 
			},
			{
				"x": -2.8710775201,
				"y": -0.3080995235,
				"z": -2.8711657596,
				"element": "H" 
			},
			{
				"x": -3.6575428972,
				"y": 0.8476753503,
				"z": -1.8120291709,
				"element": "H" 
			},
			{
				"x": -3.9774584389,
				"y": -0.892239678,
				"z": -1.6042798566,
				"element": "H" 
			},
			{
				"x": -2.4499909111,
				"y": -1.836637825,
				"z": 0.5423064923,
				"element": "H" 
			},
			{
				"x": 4.5545329115,
				"y": 0.1507459409,
				"z": 0.5046515269,
				"element": "H" 
			},
			{
				"x": 4.7338045652,
				"y": 2.6275075785,
				"z": 0.8402496051,
				"element": "H" 
			},
			{
				"x": 2.6811999692,
				"y": 4.0337819836,
				"z": 0.7518153967,
				"element": "H" 
			},
			{
				"x": 0.4673326677,
				"y": 2.9682513713,
				"z": 0.3680553063,
				"element": "H" 
			}
		],
		 "valence_orbital": [ 
			{
				"type": "occ",
				"energy": -0.2959,
				"method": "rhf"
			},
			{
				"type": "occ",
				"energy": -0.29354,
				"method": "rhf"
			},
			{
				"type": "occ",
				"energy": -0.26929,
				"method": "rhf"
			},
			{
				"type": "occ",
				"energy": -0.25648,
				"method": "rhf"
			},
			{
				"type": "occ",
				"energy": -0.24329,
				"method": "rhf"
			},
			{
				"type": "unocc",
				"energy": -0.09014,
				"method": "rhf"
			},
			{
				"type": "unocc",
				"energy": -0.02003,
				"method": "rhf"
			},
			{
				"type": "unocc",
				"energy": -0.00428,
				"method": "rhf"
			},
			{
				"type": "unocc",
				"energy": 0.05411,
				"method": "rhf"
			},
			{
				"type": "unocc",
				"energy": 0.07033,
				"method": "rhf"
			}
		],
		"cosmo_sigma_profile": { 
			"-0.025": 0.0,
			"-0.024": 0.0,
			"-0.023": 0.0,
			"-0.022": 0.0,
			"-0.021": 0.0,
			"-0.02": 0.0,
			"-0.019": 0.0,
			"-0.018": 0.0,
			"-0.017": 0.0,
			"-0.016": 0.0,
			"-0.015": 0.0,
			"-0.014": 0.0,
			"-0.013": 0.0,
			"-0.012": 0.0,
			"-0.011": 0.0,
			"-0.01": 0.0527929333132,
			"-0.009": 1.63711803396,
			"-0.008": 2.22507305314,
			"-0.007": 7.96168693759,
			"-0.006": 17.0266696247,
			"-0.005": 21.1072901876,
			"-0.004": 17.7756402265,
			"-0.003": 17.9819148137,
			"-0.002": 19.4554987407,
			"-0.001": 17.0488951753,
			"0.0": 14.7808662941,
			"0.001": 11.1795889483,
			"0.002": 13.2216963611,
			"0.003": 16.3114032815,
			"0.004": 14.563163224,
			"0.005": 4.54436551559,
			"0.006": 4.40469624663,
			"0.007": 3.84477269287,
			"0.008": 4.03185519474,
			"0.009": 5.62281439889,
			"0.01": 6.97308100064,
			"0.011": 8.40359959935,
			"0.012": 1.02343809979,
			"0.013": 0.0,
			"0.014": 0.0,
			"0.015": 0.0,
			"0.016": 0.0,
			"0.017": 0.0,
			"0.018": 0.0,
			"0.019": 0.0,
			"0.02": 0.0,
			"0.021": 0.0,
			"0.022": 0.0,
			"0.023": 0.0,
			"0.024": 0.0,
			"0.025": 0.0
		}
	}
}
