{
	 "smiles": "CCN1C(S)=NC2=C1C=CC=C2", 
	 "Tm": 409.15, 
	 "num_atms": 22, 
	 "gaussian": { 
		 "optdone": 1, 
		 "sigma_profile": "yes", 
		 "theory": "DFT", 
		 "functional": "B3LYP", 
		 "basiset": "6-31G**", 
		 "properties": { 
			 "R2extent": 3564.5801, 
			 "electric_dipole_moment_norm": 2.77200247114, 
			 "electric_quadrupole_moment_norm": 8.35285706031, 
			 "total_energy": -856.687122391, 
			 "HOMO_LUMO_gap": 0.19981, 
			 "cosmo_polarized_energy": -9.67, 
			 "cosmo_cavitation_energy": 27.0, 
			 "cosmo_dispersion_energy": -20.1, 
			 "cosmo_repulsion_energy": 1.54, 
			 "cosmo_total_nonelectrostatic_energy": 8.44, 
			 "SMD_solvation_energy": 2.11 
		},
		"coords": [
			{
				"x": 2.3232951069,
				"y": -0.1875530498,
				"z": -3.142982707,
				"element": "C" 
			},
			{
				"x": 3.1611227321,
				"y": 0.0063331717,
				"z": -1.8758870391,
				"element": "C" 
			},
			{
				"x": 2.3897623591,
				"y": 0.5213134122,
				"z": -0.7500104876,
				"element": "N" 
			},
			{
				"x": 2.2038990296,
				"y": 1.8380970636,
				"z": -0.3774442968,
				"element": "C" 
			},
			{
				"x": 3.0063929798,
				"y": 3.1493389915,
				"z": -1.2599228318,
				"element": "S" 
			},
			{
				"x": 1.4127026948,
				"y": 2.0067075061,
				"z": 0.6521537443,
				"element": "N" 
			},
			{
				"x": 1.025327603,
				"y": 0.7193978324,
				"z": 1.0034132948,
				"element": "C" 
			},
			{
				"x": 1.6180995806,
				"y": -0.2271588595,
				"z": 0.1349347869,
				"element": "C" 
			},
			{
				"x": 1.3987882705,
				"y": -1.5997243245,
				"z": 0.2587616987,
				"element": "C" 
			},
			{
				"x": 0.5593042131,
				"y": -2.0102568732,
				"z": 1.2940346073,
				"element": "C" 
			},
			{
				"x": -0.0373771474,
				"y": -1.0817141586,
				"z": 2.1681880687,
				"element": "C" 
			},
			{
				"x": 0.1862113158,
				"y": 0.2865477326,
				"z": 2.036426664,
				"element": "C" 
			},
			{
				"x": 2.9457899573,
				"y": -0.5928397413,
				"z": -3.9470119184,
				"element": "H" 
			},
			{
				"x": 1.4985768922,
				"y": -0.8828504991,
				"z": -2.9624746566,
				"element": "H" 
			},
			{
				"x": 1.9015990477,
				"y": 0.7632302013,
				"z": -3.4810251989,
				"element": "H" 
			},
			{
				"x": 3.6098647723,
				"y": -0.9407223751,
				"z": -1.5589149477,
				"element": "H" 
			},
			{
				"x": 3.9892962354,
				"y": 0.6977512457,
				"z": -2.0604969168,
				"element": "H" 
			},
			{
				"x": 2.5363026745,
				"y": 4.0892236283,
				"z": -0.4201303955,
				"element": "H" 
			},
			{
				"x": 1.8538563032,
				"y": -2.3206140304,
				"z": -0.4137238588,
				"element": "H" 
			},
			{
				"x": 0.3609497824,
				"y": -3.0696682623,
				"z": 1.4266753931,
				"element": "H" 
			},
			{
				"x": -0.6856613341,
				"y": -1.4437529521,
				"z": 2.9607020081,
				"element": "H" 
			},
			{
				"x": -0.2701030689,
				"y": 1.0070143405,
				"z": 2.707434989,
				"element": "H" 
			}
		],
		 "valence_orbital": [ 
			{
				"type": "occ",
				"energy": -0.29767,
				"method": "rhf"
			},
			{
				"type": "occ",
				"energy": -0.2805,
				"method": "rhf"
			},
			{
				"type": "occ",
				"energy": -0.27264,
				"method": "rhf"
			},
			{
				"type": "occ",
				"energy": -0.22258,
				"method": "rhf"
			},
			{
				"type": "occ",
				"energy": -0.2109,
				"method": "rhf"
			},
			{
				"type": "unocc",
				"energy": -0.01109,
				"method": "rhf"
			},
			{
				"type": "unocc",
				"energy": 0.007,
				"method": "rhf"
			},
			{
				"type": "unocc",
				"energy": 0.02303,
				"method": "rhf"
			},
			{
				"type": "unocc",
				"energy": 0.05329,
				"method": "rhf"
			},
			{
				"type": "unocc",
				"energy": 0.06403,
				"method": "rhf"
			}
		],
		"cosmo_sigma_profile": { 
			"-0.025": 0.0,
			"-0.024": 0.0,
			"-0.023": 0.0,
			"-0.022": 0.0,
			"-0.021": 0.0,
			"-0.02": 0.0,
			"-0.019": 0.0,
			"-0.018": 0.0,
			"-0.017": 0.0,
			"-0.016": 0.0,
			"-0.015": 0.0,
			"-0.014": 0.0,
			"-0.013": 0.0,
			"-0.012": 0.819859831767,
			"-0.011": 1.47997000448,
			"-0.01": 1.21424138775,
			"-0.009": 1.22242072797,
			"-0.008": 1.0271688585,
			"-0.007": 3.42511373562,
			"-0.006": 9.74043249299,
			"-0.005": 14.8930565725,
			"-0.004": 20.0431472712,
			"-0.003": 20.825825864,
			"-0.002": 18.9080621789,
			"-0.001": 16.6089071072,
			"0.0": 18.0623265793,
			"0.001": 12.0622377332,
			"0.002": 13.1439561202,
			"0.003": 11.863461499,
			"0.004": 12.9910197799,
			"0.005": 13.5851615785,
			"0.006": 11.743232502,
			"0.007": 3.87032422193,
			"0.008": 2.0327160604,
			"0.009": 1.02365686703,
			"0.01": 0.783703727231,
			"0.011": 0.955591151448,
			"0.012": 1.3607745876,
			"0.013": 0.982314135428,
			"0.014": 1.20594171683,
			"0.015": 0.59105024174,
			"0.016": 0.652843756683,
			"0.017": 0.427580540606,
			"0.018": 0.0,
			"0.019": 0.0,
			"0.02": 0.0,
			"0.021": 0.0,
			"0.022": 0.0,
			"0.023": 0.0,
			"0.024": 0.0,
			"0.025": 0.0
		}
	}
}
