{
	 "smiles": "CNC(=O)NC1(CCCC1)C(O)=O", 
	 "Tm": 439.15, 
	 "num_atms": 27, 
	 "gaussian": { 
		 "optdone": 1, 
		 "sigma_profile": "yes", 
		 "theory": "DFT", 
		 "functional": "B3LYP", 
		 "basiset": "6-31G**", 
		 "properties": { 
			 "R2extent": 2943.211, 
			 "electric_dipole_moment_norm": 4.16213904021, 
			 "electric_quadrupole_moment_norm": 13.3746145851, 
			 "total_energy": -648.504564462, 
			 "HOMO_LUMO_gap": 0.22233, 
			 "cosmo_polarized_energy": -15.2, 
			 "cosmo_cavitation_energy": 28.58, 
			 "cosmo_dispersion_energy": -20.62, 
			 "cosmo_repulsion_energy": 1.66, 
			 "cosmo_total_nonelectrostatic_energy": 9.62, 
			 "SMD_solvation_energy": 5.9 
		},
		"coords": [
			{
				"x": 0.2048397179,
				"y": 1.9597325767,
				"z": -1.9759627577,
				"element": "C" 
			},
			{
				"x": 0.4048948819,
				"y": 0.9720352451,
				"z": -0.9286406584,
				"element": "N" 
			},
			{
				"x": 1.657388175,
				"y": 0.8087104273,
				"z": -0.3981436669,
				"element": "C" 
			},
			{
				"x": 2.6149520108,
				"y": 1.5276683921,
				"z": -0.671924311,
				"element": "O" 
			},
			{
				"x": 1.8260968701,
				"y": -0.257695899,
				"z": 0.4952927204,
				"element": "N" 
			},
			{
				"x": 0.8500844934,
				"y": -0.9304825541,
				"z": 1.3683571256,
				"element": "C" 
			},
			{
				"x": -0.1214884222,
				"y": 0.0470369016,
				"z": 2.0799156526,
				"element": "C" 
			},
			{
				"x": 0.7401135756,
				"y": 0.6998874643,
				"z": 3.1815792854,
				"element": "C" 
			},
			{
				"x": 1.8547390885,
				"y": -0.3340471323,
				"z": 3.5196680879,
				"element": "C" 
			},
			{
				"x": 1.6191782221,
				"y": -1.5288613024,
				"z": 2.5655217792,
				"element": "C" 
			},
			{
				"x": 0.0907220683,
				"y": -1.9568301756,
				"z": 0.5191474369,
				"element": "C" 
			},
			{
				"x": 0.3845246953,
				"y": -3.2383503291,
				"z": 0.8062741345,
				"element": "O" 
			},
			{
				"x": -0.7043387221,
				"y": -1.6649218967,
				"z": -0.3570184537,
				"element": "O" 
			},
			{
				"x": -0.857622098,
				"y": 2.2098803205,
				"z": -2.0362605707,
				"element": "H" 
			},
			{
				"x": 0.5410300885,
				"y": 1.606772263,
				"z": -2.9602845687,
				"element": "H" 
			},
			{
				"x": 0.7738698223,
				"y": 2.8572727295,
				"z": -1.7308548317,
				"element": "H" 
			},
			{
				"x": -0.2193482746,
				"y": 0.17192973,
				"z": -0.8996377425,
				"element": "H" 
			},
			{
				"x": 2.7806209675,
				"y": -0.2670181728,
				"z": 0.8266363222,
				"element": "H" 
			},
			{
				"x": -0.5661727329,
				"y": 0.7666739205,
				"z": 1.3920115351,
				"element": "H" 
			},
			{
				"x": -0.9366011213,
				"y": -0.5391408798,
				"z": 2.5219017962,
				"element": "H" 
			},
			{
				"x": 0.1352437474,
				"y": 0.9608409911,
				"z": 4.0545246078,
				"element": "H" 
			},
			{
				"x": 1.182810022,
				"y": 1.62913106,
				"z": 2.8123917188,
				"element": "H" 
			},
			{
				"x": 2.8453448599,
				"y": 0.1042931089,
				"z": 3.3642018663,
				"element": "H" 
			},
			{
				"x": 1.8192211127,
				"y": -0.6582235794,
				"z": 4.5636176416,
				"element": "H" 
			},
			{
				"x": 2.5368892783,
				"y": -2.0370798413,
				"z": 2.2537637881,
				"element": "H" 
			},
			{
				"x": 0.9869332403,
				"y": -2.2826333692,
				"z": 3.0419977149,
				"element": "H" 
			},
			{
				"x": -0.1325255667,
				"y": -3.7832799988,
				"z": 0.1873243478,
				"element": "H" 
			}
		],
		 "valence_orbital": [ 
			{
				"type": "occ",
				"energy": -0.32583,
				"method": "rhf"
			},
			{
				"type": "occ",
				"energy": -0.29591,
				"method": "rhf"
			},
			{
				"type": "occ",
				"energy": -0.25258,
				"method": "rhf"
			},
			{
				"type": "occ",
				"energy": -0.23914,
				"method": "rhf"
			},
			{
				"type": "occ",
				"energy": -0.23322,
				"method": "rhf"
			},
			{
				"type": "unocc",
				"energy": -0.01089,
				"method": "rhf"
			},
			{
				"type": "unocc",
				"energy": 0.05916,
				"method": "rhf"
			},
			{
				"type": "unocc",
				"energy": 0.06304,
				"method": "rhf"
			},
			{
				"type": "unocc",
				"energy": 0.07039,
				"method": "rhf"
			},
			{
				"type": "unocc",
				"energy": 0.09475,
				"method": "rhf"
			}
		],
		"cosmo_sigma_profile": { 
			"-0.025": 0.0,
			"-0.024": 0.0,
			"-0.023": 0.0,
			"-0.022": 0.0,
			"-0.021": 0.0,
			"-0.02": 0.0,
			"-0.019": 0.380292971464,
			"-0.018": 0.910432378997,
			"-0.017": 1.19003367564,
			"-0.016": 0.907031282301,
			"-0.015": 0.53793404391,
			"-0.014": 0.314973661056,
			"-0.013": 0.502450176813,
			"-0.012": 1.66892127965,
			"-0.011": 1.64600707971,
			"-0.01": 1.36440643305,
			"-0.009": 1.38320465283,
			"-0.008": 2.48414712091,
			"-0.007": 2.68439658083,
			"-0.006": 4.62986692799,
			"-0.005": 9.49659065343,
			"-0.004": 14.9570188497,
			"-0.003": 22.0942921507,
			"-0.002": 27.8731020331,
			"-0.001": 28.7702572659,
			"0.0": 23.210443399,
			"0.001": 15.1284984273,
			"0.002": 8.08473892709,
			"0.003": 6.72804188778,
			"0.004": 6.19322283289,
			"0.005": 4.6281336678,
			"0.006": 4.5321914306,
			"0.007": 4.03245124137,
			"0.008": 3.12982305835,
			"0.009": 3.71566025866,
			"0.01": 3.52490107683,
			"0.011": 2.71324418111,
			"0.012": 2.31051001067,
			"0.013": 1.41662294871,
			"0.014": 3.80547951423,
			"0.015": 5.56579710171,
			"0.016": 0.189326180047,
			"0.017": 0.0,
			"0.018": 0.0,
			"0.019": 0.0,
			"0.02": 0.0,
			"0.021": 0.0,
			"0.022": 0.0,
			"0.023": 0.0,
			"0.024": 0.0,
			"0.025": 0.0
		}
	}
}
