{
	 "smiles": "CC1CCCC(C)C1C", 
	 "Tm": 206.25, 
	 "num_atms": 27, 
	 "gaussian": { 
		 "optdone": 1, 
		 "sigma_profile": "yes", 
		 "theory": "DFT", 
		 "functional": "B3LYP", 
		 "basiset": "6-31G**", 
		 "properties": { 
			 "R2extent": 1437.064, 
			 "electric_dipole_moment_norm": 0.0627851893363, 
			 "electric_quadrupole_moment_norm": 0.523397076797, 
			 "total_energy": -353.831138436, 
			 "HOMO_LUMO_gap": 0.35441, 
			 "cosmo_polarized_energy": -0.73, 
			 "cosmo_cavitation_energy": 24.99, 
			 "cosmo_dispersion_energy": -18.51, 
			 "cosmo_repulsion_energy": 1.49, 
			 "cosmo_total_nonelectrostatic_energy": 7.98, 
			 "SMD_solvation_energy": 3.85 
		},
		"coords": [
			{
				"x": 1.3167819942,
				"y": -1.3849384452,
				"z": -2.2280354959,
				"element": "C" 
			},
			{
				"x": 1.1588058979,
				"y": -1.2984776109,
				"z": -0.6991610201,
				"element": "C" 
			},
			{
				"x": 1.5418839226,
				"y": 0.0998841618,
				"z": -0.1632060261,
				"element": "C" 
			},
			{
				"x": 0.4483572098,
				"y": 1.1504714477,
				"z": -0.405479678,
				"element": "C" 
			},
			{
				"x": -0.881074562,
				"y": 0.7044689857,
				"z": 0.2206822911,
				"element": "C" 
			},
			{
				"x": -1.3576867183,
				"y": -0.6699932626,
				"z": -0.3012198491,
				"element": "C" 
			},
			{
				"x": -1.9743342206,
				"y": -0.5623733665,
				"z": -1.7076703373,
				"element": "C" 
			},
			{
				"x": -0.2404299107,
				"y": -1.7511964548,
				"z": -0.1806106581,
				"element": "C" 
			},
			{
				"x": -0.1389125141,
				"y": -2.2632391246,
				"z": 1.2694636867,
				"element": "C" 
			},
			{
				"x": 2.3647658191,
				"y": -1.231979469,
				"z": -2.5101581631,
				"element": "H" 
			},
			{
				"x": 1.0132878619,
				"y": -2.3693720286,
				"z": -2.6010840389,
				"element": "H" 
			},
			{
				"x": 0.7262556601,
				"y": -0.6359072875,
				"z": -2.7621219295,
				"element": "H" 
			},
			{
				"x": 1.8840601155,
				"y": -2.0127163178,
				"z": -0.2840221263,
				"element": "H" 
			},
			{
				"x": 1.7304345641,
				"y": 0.0363290932,
				"z": 0.9168447743,
				"element": "H" 
			},
			{
				"x": 2.4880016029,
				"y": 0.4187203025,
				"z": -0.6186719763,
				"element": "H" 
			},
			{
				"x": 0.3206030973,
				"y": 1.3219968294,
				"z": -1.4818652704,
				"element": "H" 
			},
			{
				"x": 0.7560017294,
				"y": 2.1137039917,
				"z": 0.0192767095,
				"element": "H" 
			},
			{
				"x": -1.6613406555,
				"y": 1.4545042256,
				"z": 0.0393254085,
				"element": "H" 
			},
			{
				"x": -0.7535981675,
				"y": 0.6555209088,
				"z": 1.3103856549,
				"element": "H" 
			},
			{
				"x": -2.1738837982,
				"y": -0.9997279737,
				"z": 0.35726477,
				"element": "H" 
			},
			{
				"x": -2.2792394635,
				"y": -1.5461745536,
				"z": -2.0812287584,
				"element": "H" 
			},
			{
				"x": -1.2903258154,
				"y": -0.1303873418,
				"z": -2.4429154113,
				"element": "H" 
			},
			{
				"x": -2.8663704035,
				"y": 0.0739471305,
				"z": -1.6828166656,
				"element": "H" 
			},
			{
				"x": -0.5517085521,
				"y": -2.6094916928,
				"z": -0.7934816401,
				"element": "H" 
			},
			{
				"x": -1.1028587217,
				"y": -2.6503501348,
				"z": 1.617365197,
				"element": "H" 
			},
			{
				"x": 0.5932430872,
				"y": -3.0742516431,
				"z": 1.3488587545,
				"element": "H" 
			},
			{
				"x": 0.1681809411,
				"y": -1.4761703696,
				"z": 1.9664817979,
				"element": "H" 
			}
		],
		 "valence_orbital": [ 
			{
				"type": "occ",
				"energy": -0.32475,
				"method": "rhf"
			},
			{
				"type": "occ",
				"energy": -0.32158,
				"method": "rhf"
			},
			{
				"type": "occ",
				"energy": -0.29467,
				"method": "rhf"
			},
			{
				"type": "occ",
				"energy": -0.28437,
				"method": "rhf"
			},
			{
				"type": "occ",
				"energy": -0.28136,
				"method": "rhf"
			},
			{
				"type": "unocc",
				"energy": 0.07305,
				"method": "rhf"
			},
			{
				"type": "unocc",
				"energy": 0.09517,
				"method": "rhf"
			},
			{
				"type": "unocc",
				"energy": 0.12015,
				"method": "rhf"
			},
			{
				"type": "unocc",
				"energy": 0.12286,
				"method": "rhf"
			},
			{
				"type": "unocc",
				"energy": 0.12892,
				"method": "rhf"
			}
		],
		"cosmo_sigma_profile": { 
			"-0.025": 0.0,
			"-0.024": 0.0,
			"-0.023": 0.0,
			"-0.022": 0.0,
			"-0.021": 0.0,
			"-0.02": 0.0,
			"-0.019": 0.0,
			"-0.018": 0.0,
			"-0.017": 0.0,
			"-0.016": 0.0,
			"-0.015": 0.0,
			"-0.014": 0.0,
			"-0.013": 0.0,
			"-0.012": 0.0,
			"-0.011": 0.0,
			"-0.01": 0.0,
			"-0.009": 0.0,
			"-0.008": 0.0,
			"-0.007": 0.0,
			"-0.006": 0.00537297560393,
			"-0.005": 0.109813367915,
			"-0.004": 1.28284748962,
			"-0.003": 3.97262866823,
			"-0.002": 25.351921413,
			"-0.001": 40.506314808,
			"0.0": 43.7037849269,
			"0.001": 44.5253998389,
			"0.002": 29.0082654246,
			"0.003": 2.18163995126,
			"0.004": 0.0,
			"0.005": 0.0,
			"0.006": 0.0,
			"0.007": 0.0,
			"0.008": 0.0,
			"0.009": 0.0,
			"0.01": 0.0,
			"0.011": 0.0,
			"0.012": 0.0,
			"0.013": 0.0,
			"0.014": 0.0,
			"0.015": 0.0,
			"0.016": 0.0,
			"0.017": 0.0,
			"0.018": 0.0,
			"0.019": 0.0,
			"0.02": 0.0,
			"0.021": 0.0,
			"0.022": 0.0,
			"0.023": 0.0,
			"0.024": 0.0,
			"0.025": 0.0
		}
	}
}
