{
	 "smiles": "COC1=CC(OC)=C(C=C1)C(=O)CCl", 
	 "Tm": 322.15, 
	 "num_atms": 25, 
	 "gaussian": { 
		 "optdone": 1, 
		 "sigma_profile": "yes", 
		 "theory": "DFT", 
		 "functional": "B3LYP", 
		 "basiset": "6-31G**", 
		 "properties": { 
			 "R2extent": 4643.2, 
			 "electric_dipole_moment_norm": 6.89006781824, 
			 "electric_quadrupole_moment_norm": 23.4231454506, 
			 "total_energy": -1073.53208977, 
			 "HOMO_LUMO_gap": 0.18311, 
			 "cosmo_polarized_energy": -14.17, 
			 "cosmo_cavitation_energy": 30.58, 
			 "cosmo_dispersion_energy": -22.44, 
			 "cosmo_repulsion_energy": 1.77, 
			 "cosmo_total_nonelectrostatic_energy": 9.9, 
			 "SMD_solvation_energy": 7.02 
		},
		"coords": [
			{
				"x": -3.6012652351,
				"y": -1.6107216302,
				"z": 1.5990454729,
				"element": "C" 
			},
			{
				"x": -2.7622662246,
				"y": -1.3003809105,
				"z": 0.4926495087,
				"element": "O" 
			},
			{
				"x": -1.5119779726,
				"y": -0.8329239089,
				"z": 0.7396219693,
				"element": "C" 
			},
			{
				"x": -0.747298893,
				"y": -0.551328959,
				"z": -0.4014825081,
				"element": "C" 
			},
			{
				"x": 0.5532161197,
				"y": -0.065495712,
				"z": -0.2790587237,
				"element": "C" 
			},
			{
				"x": 1.3269224726,
				"y": 0.2197571154,
				"z": -1.3639844404,
				"element": "O" 
			},
			{
				"x": 0.7961473519,
				"y": 0.0161100063,
				"z": -2.6685314429,
				"element": "C" 
			},
			{
				"x": 1.1225625388,
				"y": 0.1512746825,
				"z": 1.0045903042,
				"element": "C" 
			},
			{
				"x": 0.3236272399,
				"y": -0.1431571926,
				"z": 2.1194085056,
				"element": "C" 
			},
			{
				"x": -0.9737186937,
				"y": -0.6277074034,
				"z": 2.0169787241,
				"element": "C" 
			},
			{
				"x": 2.4975258019,
				"y": 0.6651559426,
				"z": 1.3065113524,
				"element": "C" 
			},
			{
				"x": 2.8623979545,
				"y": 0.8051236426,
				"z": 2.4611485424,
				"element": "O" 
			},
			{
				"x": 3.4320177478,
				"y": 1.0100607263,
				"z": 0.1425725475,
				"element": "C" 
			},
			{
				"x": 5.0343308075,
				"y": 1.6088885551,
				"z": 0.6898908822,
				"element": "Cl" 
			},
			{
				"x": -3.7937768579,
				"y": -0.7260587052,
				"z": 2.2178057463,
				"element": "H" 
			},
			{
				"x": -4.5406509753,
				"y": -1.9631564772,
				"z": 1.1714259965,
				"element": "H" 
			},
			{
				"x": -3.1674496541,
				"y": -2.401467327,
				"z": 2.2228022904,
				"element": "H" 
			},
			{
				"x": -1.2054297977,
				"y": -0.7255546809,
				"z": -1.3658219213,
				"element": "H" 
			},
			{
				"x": -0.0881743456,
				"y": 0.6401876971,
				"z": -2.8426240826,
				"element": "H" 
			},
			{
				"x": 1.5875799522,
				"y": 0.308696923,
				"z": -3.3595797156,
				"element": "H" 
			},
			{
				"x": 0.5376372242,
				"y": -1.0360591416,
				"z": -2.8355516571,
				"element": "H" 
			},
			{
				"x": 0.768735751,
				"y": 0.0261939956,
				"z": 3.0938659297,
				"element": "H" 
			},
			{
				"x": -1.5441420186,
				"y": -0.8376232116,
				"z": 2.9128037774,
				"element": "H" 
			},
			{
				"x": 3.5973140677,
				"y": 0.1324305262,
				"z": -0.4833887573,
				"element": "H" 
			},
			{
				"x": 2.9835356388,
				"y": 1.7786554477,
				"z": -0.4879983004,
				"element": "H" 
			}
		],
		 "valence_orbital": [ 
			{
				"type": "occ",
				"energy": -0.28389,
				"method": "rhf"
			},
			{
				"type": "occ",
				"energy": -0.28301,
				"method": "rhf"
			},
			{
				"type": "occ",
				"energy": -0.25051,
				"method": "rhf"
			},
			{
				"type": "occ",
				"energy": -0.24717,
				"method": "rhf"
			},
			{
				"type": "occ",
				"energy": -0.23092,
				"method": "rhf"
			},
			{
				"type": "unocc",
				"energy": -0.04781,
				"method": "rhf"
			},
			{
				"type": "unocc",
				"energy": -0.0028,
				"method": "rhf"
			},
			{
				"type": "unocc",
				"energy": 0.04265,
				"method": "rhf"
			},
			{
				"type": "unocc",
				"energy": 0.04319,
				"method": "rhf"
			},
			{
				"type": "unocc",
				"energy": 0.0819,
				"method": "rhf"
			}
		],
		"cosmo_sigma_profile": { 
			"-0.025": 0.0,
			"-0.024": 0.0,
			"-0.023": 0.0,
			"-0.022": 0.0,
			"-0.021": 0.0,
			"-0.02": 0.0,
			"-0.019": 0.0,
			"-0.018": 0.0,
			"-0.017": 0.0,
			"-0.016": 0.0,
			"-0.015": 0.0,
			"-0.014": 0.0,
			"-0.013": 0.0,
			"-0.012": 0.0,
			"-0.011": 0.0,
			"-0.01": 0.0,
			"-0.009": 0.0138886795019,
			"-0.008": 2.23484712829,
			"-0.007": 7.63597530423,
			"-0.006": 21.108374821,
			"-0.005": 24.5333931506,
			"-0.004": 22.7912681434,
			"-0.003": 20.1620501881,
			"-0.002": 12.3899539493,
			"-0.001": 12.0671603386,
			"0.0": 15.2595924624,
			"0.001": 13.4554998503,
			"0.002": 17.6850823508,
			"0.003": 19.2380970552,
			"0.004": 12.2225579274,
			"0.005": 8.13172632172,
			"0.006": 10.2592995044,
			"0.007": 6.00016336383,
			"0.008": 3.88249848322,
			"0.009": 3.84986365382,
			"0.01": 2.65762205264,
			"0.011": 3.74540684296,
			"0.012": 3.07712813847,
			"0.013": 2.15562712014,
			"0.014": 0.84601752476,
			"0.015": 0.0,
			"0.016": 0.0,
			"0.017": 0.0,
			"0.018": 0.0,
			"0.019": 0.0,
			"0.02": 0.0,
			"0.021": 0.0,
			"0.022": 0.0,
			"0.023": 0.0,
			"0.024": 0.0,
			"0.025": 0.0
		}
	}
}
