{
	 "smiles": "CC(Cl)C(=O)NC1=CC=C(NC(=O)C2=CC=CS2)C=C1", 
	 "Tm": 501.15, 
	 "num_atms": 33, 
	 "gaussian": { 
		 "optdone": 1, 
		 "sigma_profile": "yes", 
		 "theory": "DFT", 
		 "functional": "B3LYP", 
		 "basiset": "6-31G**", 
		 "properties": { 
			 "R2extent": 10439.4894, 
			 "electric_dipole_moment_norm": 1.76089033446, 
			 "electric_quadrupole_moment_norm": 37.9399976317, 
			 "total_energy": -1659.6689915, 
			 "HOMO_LUMO_gap": 0.17063, 
			 "cosmo_polarized_energy": -20.79, 
			 "cosmo_cavitation_energy": 40.95, 
			 "cosmo_dispersion_energy": -29.22, 
			 "cosmo_repulsion_energy": 2.22, 
			 "cosmo_total_nonelectrostatic_energy": 13.95, 
			 "SMD_solvation_energy": 7.77 
		},
		"coords": [
			{
				"x": -1.6436846256,
				"y": 6.1631026018,
				"z": -0.6270329273,
				"element": "C" 
			},
			{
				"x": -0.6308981381,
				"y": 5.0363966411,
				"z": -0.5080097782,
				"element": "C" 
			},
			{
				"x": 0.9797777694,
				"y": 5.5721672079,
				"z": -1.2102089893,
				"element": "Cl" 
			},
			{
				"x": -0.400787147,
				"y": 4.6579229025,
				"z": 0.9611728903,
				"element": "C" 
			},
			{
				"x": -0.4060528176,
				"y": 5.5047870984,
				"z": 1.8406632627,
				"element": "O" 
			},
			{
				"x": -0.2402096904,
				"y": 3.3252120975,
				"z": 1.278452969,
				"element": "N" 
			},
			{
				"x": -0.2256696179,
				"y": 2.1499694015,
				"z": 0.4835668046,
				"element": "C" 
			},
			{
				"x": -0.9631401536,
				"y": 1.0387058761,
				"z": 0.9198840049,
				"element": "C" 
			},
			{
				"x": -0.9583579336,
				"y": -0.1492251757,
				"z": 0.1976316519,
				"element": "C" 
			},
			{
				"x": -0.199611258,
				"y": -0.2585872651,
				"z": -0.9773448981,
				"element": "C" 
			},
			{
				"x": -0.2025671597,
				"y": -1.4318348338,
				"z": -1.7723507523,
				"element": "N" 
			},
			{
				"x": -0.2851944327,
				"y": -2.7705973484,
				"z": -1.4167034081,
				"element": "C" 
			},
			{
				"x": -0.713191032,
				"y": -3.5885338002,
				"z": -2.2257524299,
				"element": "O" 
			},
			{
				"x": 0.2179524115,
				"y": -3.198995678,
				"z": -0.0930439622,
				"element": "C" 
			},
			{
				"x": 1.1061505458,
				"y": -2.6195535538,
				"z": 0.7876436407,
				"element": "C" 
			},
			{
				"x": 1.4006882152,
				"y": -3.4480948662,
				"z": 1.9043415706,
				"element": "C" 
			},
			{
				"x": 0.7347193124,
				"y": -4.647117064,
				"z": 1.8561051523,
				"element": "C" 
			},
			{
				"x": -0.2417044508,
				"y": -4.7961542818,
				"z": 0.4418796735,
				"element": "S" 
			},
			{
				"x": 0.5400406001,
				"y": 0.8491422678,
				"z": -1.4094493981,
				"element": "C" 
			},
			{
				"x": 0.5375878779,
				"y": 2.0402770842,
				"z": -0.6857347573,
				"element": "C" 
			},
			{
				"x": -2.6184997825,
				"y": 5.81154771,
				"z": -0.2706690369,
				"element": "H" 
			},
			{
				"x": -1.338023881,
				"y": 7.0087877125,
				"z": -0.0098146151,
				"element": "H" 
			},
			{
				"x": -1.7453684659,
				"y": 6.4786137149,
				"z": -1.667473452,
				"element": "H" 
			},
			{
				"x": -0.919412702,
				"y": 4.1708145413,
				"z": -1.1042088162,
				"element": "H" 
			},
			{
				"x": -0.2176656078,
				"y": 3.1919704873,
				"z": 2.2829328408,
				"element": "H" 
			},
			{
				"x": -1.5684760399,
				"y": 1.1192541411,
				"z": 1.8184402682,
				"element": "H" 
			},
			{
				"x": -1.5552051119,
				"y": -0.9888625985,
				"z": 0.5354165066,
				"element": "H" 
			},
			{
				"x": -0.4156887505,
				"y": -1.3092133693,
				"z": -2.7553799288,
				"element": "H" 
			},
			{
				"x": 1.5418994345,
				"y": -1.6403559986,
				"z": 0.6349391102,
				"element": "H" 
			},
			{
				"x": 2.0769250933,
				"y": -3.1679000424,
				"z": 2.7037502022,
				"element": "H" 
			},
			{
				"x": 0.7701557591,
				"y": -5.4541621563,
				"z": 2.5755127979,
				"element": "H" 
			},
			{
				"x": 1.1458595615,
				"y": 0.7666480323,
				"z": -2.3070672911,
				"element": "H" 
			},
			{
				"x": 1.1519522178,
				"y": 2.8709685138,
				"z": -1.0141889054,
				"element": "H" 
			}
		],
		 "valence_orbital": [ 
			{
				"type": "occ",
				"energy": -0.26958,
				"method": "rhf"
			},
			{
				"type": "occ",
				"energy": -0.26848,
				"method": "rhf"
			},
			{
				"type": "occ",
				"energy": -0.26107,
				"method": "rhf"
			},
			{
				"type": "occ",
				"energy": -0.24748,
				"method": "rhf"
			},
			{
				"type": "occ",
				"energy": -0.22903,
				"method": "rhf"
			},
			{
				"type": "unocc",
				"energy": -0.0584,
				"method": "rhf"
			},
			{
				"type": "unocc",
				"energy": -0.03668,
				"method": "rhf"
			},
			{
				"type": "unocc",
				"energy": -0.02902,
				"method": "rhf"
			},
			{
				"type": "unocc",
				"energy": -0.01305,
				"method": "rhf"
			},
			{
				"type": "unocc",
				"energy": 0.02572,
				"method": "rhf"
			}
		],
		"cosmo_sigma_profile": { 
			"-0.025": 0.0,
			"-0.024": 0.0,
			"-0.023": 0.0,
			"-0.022": 0.0,
			"-0.021": 0.0,
			"-0.02": 0.0,
			"-0.019": 0.0,
			"-0.018": 0.0,
			"-0.017": 0.0,
			"-0.016": 0.0,
			"-0.015": 0.801247346014,
			"-0.014": 1.97508080067,
			"-0.013": 2.37821750843,
			"-0.012": 1.1472991421,
			"-0.011": 1.80661496124,
			"-0.01": 2.80974568356,
			"-0.009": 3.96742450654,
			"-0.008": 5.53569309893,
			"-0.007": 13.7133478322,
			"-0.006": 17.2789437905,
			"-0.005": 18.7249678692,
			"-0.004": 22.0683646361,
			"-0.003": 18.9043612222,
			"-0.002": 20.4943909196,
			"-0.001": 23.9939892842,
			"0.0": 23.1312096038,
			"0.001": 24.3559744273,
			"0.002": 27.963093632,
			"0.003": 29.7399516445,
			"0.004": 17.4906811852,
			"0.005": 10.6168216626,
			"0.006": 7.64449329623,
			"0.007": 3.99649381444,
			"0.008": 2.98562248357,
			"0.009": 3.07684469622,
			"0.01": 3.29263861893,
			"0.011": 3.37154574894,
			"0.012": 8.10951892082,
			"0.013": 8.9674953489,
			"0.014": 0.823380051989,
			"0.015": 0.0,
			"0.016": 0.0,
			"0.017": 0.0,
			"0.018": 0.0,
			"0.019": 0.0,
			"0.02": 0.0,
			"0.021": 0.0,
			"0.022": 0.0,
			"0.023": 0.0,
			"0.024": 0.0,
			"0.025": 0.0
		}
	}
}
