{
	 "smiles": "COC1=C(OCC2=CC=C(Cl)C=C2)C=CC(=C1)C(O)=O", 
	 "Tm": 495.15, 
	 "num_atms": 33, 
	 "gaussian": { 
		 "optdone": 1, 
		 "sigma_profile": "yes", 
		 "theory": "DFT", 
		 "functional": "B3LYP", 
		 "basiset": "6-31G**", 
		 "properties": { 
			 "R2extent": 11201.2622, 
			 "electric_dipole_moment_norm": 3.98344078028, 
			 "electric_quadrupole_moment_norm": 20.7564972262, 
			 "total_energy": -1340.51337492, 
			 "HOMO_LUMO_gap": 0.18174, 
			 "cosmo_polarized_energy": -14.29, 
			 "cosmo_cavitation_energy": 40.2, 
			 "cosmo_dispersion_energy": -28.73, 
			 "cosmo_repulsion_energy": 2.22, 
			 "cosmo_total_nonelectrostatic_energy": 13.68, 
			 "SMD_solvation_energy": 8.57 
		},
		"coords": [
			{
				"x": -0.1969651109,
				"y": 1.9653377789,
				"z": -2.4595611885,
				"element": "C" 
			},
			{
				"x": 0.0187219404,
				"y": 0.9680071276,
				"z": -1.4702441398,
				"element": "O" 
			},
			{
				"x": -1.0095341461,
				"y": 0.1201794514,
				"z": -1.1757232669,
				"element": "C" 
			},
			{
				"x": -0.7657844616,
				"y": -0.8211625007,
				"z": -0.1458513725,
				"element": "C" 
			},
			{
				"x": 0.4181609354,
				"y": -0.8475782115,
				"z": 0.5421482943,
				"element": "O" 
			},
			{
				"x": 1.5991707572,
				"y": -1.1859636831,
				"z": -0.2003644415,
				"element": "C" 
			},
			{
				"x": 2.750188731,
				"y": -1.3768909814,
				"z": 0.7584879878,
				"element": "C" 
			},
			{
				"x": 4.0629443419,
				"y": -1.2213877452,
				"z": 0.2985473594,
				"element": "C" 
			},
			{
				"x": 5.1521529609,
				"y": -1.4414230158,
				"z": 1.1406782139,
				"element": "C" 
			},
			{
				"x": 4.9187107568,
				"y": -1.8108106141,
				"z": 2.4646112141,
				"element": "C" 
			},
			{
				"x": 6.2843065018,
				"y": -2.0820240516,
				"z": 3.5405731801,
				"element": "Cl" 
			},
			{
				"x": 3.6208435963,
				"y": -1.9619514398,
				"z": 2.9496710507,
				"element": "C" 
			},
			{
				"x": 2.5424814307,
				"y": -1.7477627324,
				"z": 2.0909878282,
				"element": "C" 
			},
			{
				"x": -1.7759518874,
				"y": -1.7011306473,
				"z": 0.2395795151,
				"element": "C" 
			},
			{
				"x": -3.0227072527,
				"y": -1.6736734708,
				"z": -0.3801737767,
				"element": "C" 
			},
			{
				"x": -3.2603016659,
				"y": -0.7579687537,
				"z": -1.4079472638,
				"element": "C" 
			},
			{
				"x": -2.2534436336,
				"y": 0.1382542749,
				"z": -1.8044161733,
				"element": "C" 
			},
			{
				"x": -4.5962594354,
				"y": -0.7610859257,
				"z": -2.053685166,
				"element": "C" 
			},
			{
				"x": -4.7174423453,
				"y": 0.1692933629,
				"z": -3.0380220953,
				"element": "O" 
			},
			{
				"x": -5.5121689726,
				"y": -1.5044444166,
				"z": -1.7599627455,
				"element": "O" 
			},
			{
				"x": -0.408907717,
				"y": 1.5227384438,
				"z": -3.4409688949,
				"element": "H" 
			},
			{
				"x": -1.0202152282,
				"y": 2.6343971284,
				"z": -2.1808913504,
				"element": "H" 
			},
			{
				"x": 0.7300132931,
				"y": 2.5375329924,
				"z": -2.5142739688,
				"element": "H" 
			},
			{
				"x": 1.4110811244,
				"y": -2.1156475624,
				"z": -0.7590355038,
				"element": "H" 
			},
			{
				"x": 1.8301470581,
				"y": -0.4001355586,
				"z": -0.9260370999,
				"element": "H" 
			},
			{
				"x": 4.2432503512,
				"y": -0.9214373352,
				"z": -0.7309555857,
				"element": "H" 
			},
			{
				"x": 6.1673356902,
				"y": -1.3190115294,
				"z": 0.7797810191,
				"element": "H" 
			},
			{
				"x": 3.4569335326,
				"y": -2.2432333423,
				"z": 3.9841489982,
				"element": "H" 
			},
			{
				"x": 1.5287614026,
				"y": -1.8549245951,
				"z": 2.4598013871,
				"element": "H" 
			},
			{
				"x": -1.5596356347,
				"y": -2.4014158116,
				"z": 1.0397021563,
				"element": "H" 
			},
			{
				"x": -3.8137749011,
				"y": -2.3544173322,
				"z": -0.0875203263,
				"element": "H" 
			},
			{
				"x": -2.4650131249,
				"y": 0.846094266,
				"z": -2.5943203338,
				"element": "H" 
			},
			{
				"x": -5.6218988875,
				"y": 0.0712464302,
				"z": -3.3776635107,
				"element": "H" 
			}
		],
		 "valence_orbital": [ 
			{
				"type": "occ",
				"energy": -0.27634,
				"method": "rhf"
			},
			{
				"type": "occ",
				"energy": -0.26271,
				"method": "rhf"
			},
			{
				"type": "occ",
				"energy": -0.25603,
				"method": "rhf"
			},
			{
				"type": "occ",
				"energy": -0.2403,
				"method": "rhf"
			},
			{
				"type": "occ",
				"energy": -0.22928,
				"method": "rhf"
			},
			{
				"type": "unocc",
				"energy": -0.04754,
				"method": "rhf"
			},
			{
				"type": "unocc",
				"energy": -0.01419,
				"method": "rhf"
			},
			{
				"type": "unocc",
				"energy": -0.01265,
				"method": "rhf"
			},
			{
				"type": "unocc",
				"energy": -0.00377,
				"method": "rhf"
			},
			{
				"type": "unocc",
				"energy": 0.03181,
				"method": "rhf"
			}
		],
		"cosmo_sigma_profile": { 
			"-0.025": 0.0,
			"-0.024": 0.0,
			"-0.023": 0.0,
			"-0.022": 0.0,
			"-0.021": 0.0,
			"-0.02": 0.0,
			"-0.019": 0.0300872398374,
			"-0.018": 0.615057560697,
			"-0.017": 0.936038802564,
			"-0.016": 0.979150147608,
			"-0.015": 0.372410448629,
			"-0.014": 0.770896381788,
			"-0.013": 0.845662141704,
			"-0.012": 0.579025475724,
			"-0.011": 0.929155997039,
			"-0.01": 0.862385752588,
			"-0.009": 0.525451185513,
			"-0.008": 0.603537734842,
			"-0.007": 7.88049101441,
			"-0.006": 19.9640338878,
			"-0.005": 25.6270577441,
			"-0.004": 23.1649615172,
			"-0.003": 19.9905900578,
			"-0.002": 19.6813882681,
			"-0.001": 17.3072428003,
			"0.0": 21.8883615634,
			"0.001": 26.2156548828,
			"0.002": 32.7048783035,
			"0.003": 31.7505007282,
			"0.004": 25.4263594315,
			"0.005": 14.9746326265,
			"0.006": 5.66473920604,
			"0.007": 4.63940227919,
			"0.008": 4.37430281614,
			"0.009": 3.35032022998,
			"0.01": 2.30796426388,
			"0.011": 3.7975886123,
			"0.012": 4.52993486754,
			"0.013": 0.240238390848,
			"0.014": 0.0,
			"0.015": 0.0,
			"0.016": 0.0,
			"0.017": 0.0,
			"0.018": 0.0,
			"0.019": 0.0,
			"0.02": 0.0,
			"0.021": 0.0,
			"0.022": 0.0,
			"0.023": 0.0,
			"0.024": 0.0,
			"0.025": 0.0
		}
	}
}
