{
	 "smiles": "CC(N1C(=O)C2=CC=CC=C2C1=O)C(O)=O", 
	 "Tm": 436.15, 
	 "num_atms": 25, 
	 "gaussian": { 
		 "optdone": 1, 
		 "sigma_profile": "yes", 
		 "theory": "DFT", 
		 "functional": "B3LYP", 
		 "basiset": "6-31G**", 
		 "properties": { 
			 "R2extent": 4174.1405, 
			 "electric_dipole_moment_norm": 1.5996581166, 
			 "electric_quadrupole_moment_norm": 18.4018022462, 
			 "total_energy": -780.289448562, 
			 "HOMO_LUMO_gap": 0.187, 
			 "cosmo_polarized_energy": -15.48, 
			 "cosmo_cavitation_energy": 30.27, 
			 "cosmo_dispersion_energy": -21.31, 
			 "cosmo_repulsion_energy": 1.65, 
			 "cosmo_total_nonelectrostatic_energy": 10.61, 
			 "SMD_solvation_energy": 7.68 
		},
		"coords": [
			{
				"x": 0.1852341712,
				"y": 0.6159173053,
				"z": -4.0686376079,
				"element": "C" 
			},
			{
				"x": -0.6492416432,
				"y": 1.2705054896,
				"z": -2.9581824071,
				"element": "C" 
			},
			{
				"x": -0.7678424073,
				"y": 0.4408208282,
				"z": -1.7724996074,
				"element": "N" 
			},
			{
				"x": -2.010543251,
				"y": 0.111860185,
				"z": -1.1992869891,
				"element": "C" 
			},
			{
				"x": -3.0936417088,
				"y": 0.3831121761,
				"z": -1.6783335787,
				"element": "O" 
			},
			{
				"x": -1.6914957719,
				"y": -0.6168504249,
				"z": 0.0617457166,
				"element": "C" 
			},
			{
				"x": -2.5354764765,
				"y": -1.1895784848,
				"z": 1.0023385547,
				"element": "C" 
			},
			{
				"x": -1.9398470541,
				"y": -1.8115762432,
				"z": 2.1074669312,
				"element": "C" 
			},
			{
				"x": -0.546688217,
				"y": -1.8509461619,
				"z": 2.2514404625,
				"element": "C" 
			},
			{
				"x": 0.2964589385,
				"y": -1.2699333724,
				"z": 1.2950404924,
				"element": "C" 
			},
			{
				"x": -0.3030537428,
				"y": -0.6560446759,
				"z": 0.2049950005,
				"element": "C" 
			},
			{
				"x": 0.3118420001,
				"y": 0.043479,
				"z": -0.9615724452,
				"element": "C" 
			},
			{
				"x": 1.4860009018,
				"y": 0.2370371807,
				"z": -1.2041101196,
				"element": "O" 
			},
			{
				"x": -0.162436419,
				"y": 2.66610482,
				"z": -2.5505407501,
				"element": "C" 
			},
			{
				"x": 0.1754404289,
				"y": 3.4032905179,
				"z": -3.6318718122,
				"element": "O" 
			},
			{
				"x": -0.1261836979,
				"y": 3.0913933634,
				"z": -1.4204463842,
				"element": "O" 
			},
			{
				"x": 0.1883486787,
				"y": 1.2521104352,
				"z": -4.9553348666,
				"element": "H" 
			},
			{
				"x": -0.2530517097,
				"y": -0.3505549339,
				"z": -4.331113142,
				"element": "H" 
			},
			{
				"x": 1.2131921665,
				"y": 0.4590639447,
				"z": -3.7383529305,
				"element": "H" 
			},
			{
				"x": -1.6794964149,
				"y": 1.4054666479,
				"z": -3.3116061254,
				"element": "H" 
			},
			{
				"x": -3.6131503368,
				"y": -1.1511698815,
				"z": 0.8810500932,
				"element": "H" 
			},
			{
				"x": -2.5662821343,
				"y": -2.2699975247,
				"z": 2.8668093093,
				"element": "H" 
			},
			{
				"x": -0.1155054607,
				"y": -2.3392883066,
				"z": 3.1202479818,
				"element": "H" 
			},
			{
				"x": 1.3765720345,
				"y": -1.2924644224,
				"z": 1.3969804453,
				"element": "H" 
			},
			{
				"x": 0.4341471257,
				"y": 4.2770425386,
				"z": -3.2933262214,
				"element": "H" 
			}
		],
		 "valence_orbital": [ 
			{
				"type": "occ",
				"energy": -0.28849,
				"method": "rhf"
			},
			{
				"type": "occ",
				"energy": -0.28134,
				"method": "rhf"
			},
			{
				"type": "occ",
				"energy": -0.27732,
				"method": "rhf"
			},
			{
				"type": "occ",
				"energy": -0.26881,
				"method": "rhf"
			},
			{
				"type": "occ",
				"energy": -0.26824,
				"method": "rhf"
			},
			{
				"type": "unocc",
				"energy": -0.08124,
				"method": "rhf"
			},
			{
				"type": "unocc",
				"energy": -0.04093,
				"method": "rhf"
			},
			{
				"type": "unocc",
				"energy": 0.00345,
				"method": "rhf"
			},
			{
				"type": "unocc",
				"energy": 0.02891,
				"method": "rhf"
			},
			{
				"type": "unocc",
				"energy": 0.06418,
				"method": "rhf"
			}
		],
		"cosmo_sigma_profile": { 
			"-0.025": 0.0,
			"-0.024": 0.0,
			"-0.023": 0.0,
			"-0.022": 0.0,
			"-0.021": 0.0,
			"-0.02": 0.0,
			"-0.019": 0.341616058789,
			"-0.018": 0.912924198789,
			"-0.017": 1.04826981326,
			"-0.016": 1.00538477406,
			"-0.015": 0.539311325429,
			"-0.014": 0.614302953986,
			"-0.013": 0.947453981301,
			"-0.012": 0.748629592393,
			"-0.011": 0.82288238583,
			"-0.01": 0.379901137605,
			"-0.009": 0.578409419672,
			"-0.008": 5.01853297479,
			"-0.007": 9.94534371552,
			"-0.006": 12.0663317229,
			"-0.005": 15.0259993439,
			"-0.004": 15.5348507962,
			"-0.003": 17.7601062,
			"-0.002": 17.916893917,
			"-0.001": 21.3980725819,
			"0.0": 19.0719845473,
			"0.001": 18.0156068582,
			"0.002": 17.4596549293,
			"0.003": 7.44638753788,
			"0.004": 5.89196097902,
			"0.005": 5.62508817513,
			"0.006": 5.25306861706,
			"0.007": 6.87682864739,
			"0.008": 6.34597874824,
			"0.009": 4.87482954673,
			"0.01": 9.07807850533,
			"0.011": 11.6835454133,
			"0.012": 1.87990980779,
			"0.013": 0.0,
			"0.014": 0.0,
			"0.015": 0.0,
			"0.016": 0.0,
			"0.017": 0.0,
			"0.018": 0.0,
			"0.019": 0.0,
			"0.02": 0.0,
			"0.021": 0.0,
			"0.022": 0.0,
			"0.023": 0.0,
			"0.024": 0.0,
			"0.025": 0.0
		}
	}
}
