{
	 "smiles": "CC(=O)NC(CC=C)C(O)=O", 
	 "Tm": 388.15, 
	 "num_atms": 22, 
	 "gaussian": { 
		 "optdone": 1, 
		 "sigma_profile": "yes", 
		 "theory": "DFT", 
		 "functional": "B3LYP", 
		 "basiset": "6-31G**", 
		 "properties": { 
			 "R2extent": 2352.8539, 
			 "electric_dipole_moment_norm": 2.25381479718, 
			 "electric_quadrupole_moment_norm": 23.7243176749, 
			 "total_energy": -553.800620702, 
			 "HOMO_LUMO_gap": 0.2482, 
			 "cosmo_polarized_energy": -18.05, 
			 "cosmo_cavitation_energy": 26.21, 
			 "cosmo_dispersion_energy": -17.8, 
			 "cosmo_repulsion_energy": 1.46, 
			 "cosmo_total_nonelectrostatic_energy": 9.88, 
			 "SMD_solvation_energy": 7.14 
		},
		"coords": [
			{
				"x": -0.7738396115,
				"y": -1.2408861428,
				"z": -1.6755347689,
				"element": "C" 
			},
			{
				"x": -0.9279046859,
				"y": -0.5762475683,
				"z": -0.3187731393,
				"element": "C" 
			},
			{
				"x": -2.0130561425,
				"y": -0.3750161651,
				"z": 0.1978718565,
				"element": "O" 
			},
			{
				"x": 0.2432236023,
				"y": -0.2353455485,
				"z": 0.3573982249,
				"element": "N" 
			},
			{
				"x": 1.5698963912,
				"y": -0.0436989659,
				"z": -0.2265881876,
				"element": "C" 
			},
			{
				"x": 2.1300297241,
				"y": 1.3703731447,
				"z": 0.0698586675,
				"element": "C" 
			},
			{
				"x": 2.2128918109,
				"y": 1.6667151513,
				"z": 1.5429441696,
				"element": "C" 
			},
			{
				"x": 1.4454074218,
				"y": 2.5530737394,
				"z": 2.1815651533,
				"element": "C" 
			},
			{
				"x": 2.5752196894,
				"y": -1.1270838786,
				"z": 0.2329947386,
				"element": "C" 
			},
			{
				"x": 2.0463970415,
				"y": -2.1341299514,
				"z": 0.9472901309,
				"element": "O" 
			},
			{
				"x": 3.7473104043,
				"y": -1.0753801977,
				"z": -0.0532930721,
				"element": "O" 
			},
			{
				"x": -0.4785130144,
				"y": -0.5100514944,
				"z": -2.437007701,
				"element": "H" 
			},
			{
				"x": -1.7415223561,
				"y": -1.6565230935,
				"z": -1.9548441251,
				"element": "H" 
			},
			{
				"x": -0.0213125964,
				"y": -2.0353478986,
				"z": -1.6639572611,
				"element": "H" 
			},
			{
				"x": 0.0544533802,
				"y": 0.3238866467,
				"z": 1.1859857979,
				"element": "H" 
			},
			{
				"x": 1.5040229657,
				"y": -0.154007499,
				"z": -1.3126634515,
				"element": "H" 
			},
			{
				"x": 1.4939388133,
				"y": 2.1076911443,
				"z": -0.4309385812,
				"element": "H" 
			},
			{
				"x": 3.1267473321,
				"y": 1.4123511122,
				"z": -0.381092513,
				"element": "H" 
			},
			{
				"x": 2.9497758584,
				"y": 1.0926529218,
				"z": 2.1050314144,
				"element": "H" 
			},
			{
				"x": 1.541047929,
				"y": 2.7256953688,
				"z": 3.2493455454,
				"element": "H" 
			},
			{
				"x": 0.7084628258,
				"y": 3.1552510005,
				"z": 1.6544864926,
				"element": "H" 
			},
			{
				"x": 1.1018232166,
				"y": -1.9201718261,
				"z": 1.0776206092,
				"element": "H" 
			}
		],
		 "valence_orbital": [ 
			{
				"type": "occ",
				"energy": -0.31989,
				"method": "rhf"
			},
			{
				"type": "occ",
				"energy": -0.30441,
				"method": "rhf"
			},
			{
				"type": "occ",
				"energy": -0.28329,
				"method": "rhf"
			},
			{
				"type": "occ",
				"energy": -0.27222,
				"method": "rhf"
			},
			{
				"type": "occ",
				"energy": -0.25747,
				"method": "rhf"
			},
			{
				"type": "unocc",
				"energy": -0.00927,
				"method": "rhf"
			},
			{
				"type": "unocc",
				"energy": -0.00017,
				"method": "rhf"
			},
			{
				"type": "unocc",
				"energy": 0.00412,
				"method": "rhf"
			},
			{
				"type": "unocc",
				"energy": 0.06662,
				"method": "rhf"
			},
			{
				"type": "unocc",
				"energy": 0.09152,
				"method": "rhf"
			}
		],
		"cosmo_sigma_profile": { 
			"-0.025": 0.0,
			"-0.024": 0.0,
			"-0.023": 0.0,
			"-0.022": 0.0,
			"-0.021": 0.0,
			"-0.02": 0.0,
			"-0.019": 0.0,
			"-0.018": 0.0,
			"-0.017": 0.0,
			"-0.016": 0.0,
			"-0.015": 0.0,
			"-0.014": 0.542145853576,
			"-0.013": 0.708627941244,
			"-0.012": 0.776745135881,
			"-0.011": 2.16008316986,
			"-0.01": 2.40636355311,
			"-0.009": 6.25540745674,
			"-0.008": 5.70434011614,
			"-0.007": 7.84764799691,
			"-0.006": 10.6281854448,
			"-0.005": 20.0438836857,
			"-0.004": 17.542197613,
			"-0.003": 16.3030069954,
			"-0.002": 16.8630601399,
			"-0.001": 14.4437531841,
			"0.0": 8.07174268055,
			"0.001": 7.86557147947,
			"0.002": 6.43524399606,
			"0.003": 5.11344726997,
			"0.004": 5.86320647336,
			"0.005": 4.0906278005,
			"0.006": 4.13120480932,
			"0.007": 3.98665440203,
			"0.008": 4.08477012259,
			"0.009": 5.43207173724,
			"0.01": 5.63648417884,
			"0.011": 5.59136010142,
			"0.012": 8.71901876541,
			"0.013": 7.18451030612,
			"0.014": 1.90634839526,
			"0.015": 0.0966182023967,
			"0.016": 0.0,
			"0.017": 0.0,
			"0.018": 0.0,
			"0.019": 0.0,
			"0.02": 0.0,
			"0.021": 0.0,
			"0.022": 0.0,
			"0.023": 0.0,
			"0.024": 0.0,
			"0.025": 0.0
		}
	}
}
