{
	 "smiles": "CC1=CC=CC(O)=C1O", 
	 "Tm": 339.65, 
	 "num_atms": 17, 
	 "gaussian": { 
		 "optdone": 1, 
		 "sigma_profile": "yes", 
		 "theory": "DFT", 
		 "functional": "B3LYP", 
		 "basiset": "6-31G**", 
		 "properties": { 
			 "R2extent": 1234.9898, 
			 "electric_dipole_moment_norm": 2.12667789992, 
			 "electric_quadrupole_moment_norm": 8.37607461941, 
			 "total_energy": -422.013065012, 
			 "HOMO_LUMO_gap": 0.21518, 
			 "cosmo_polarized_energy": -9.43, 
			 "cosmo_cavitation_energy": 20.4, 
			 "cosmo_dispersion_energy": -15.51, 
			 "cosmo_repulsion_energy": 1.27, 
			 "cosmo_total_nonelectrostatic_energy": 6.16, 
			 "SMD_solvation_energy": 4.16 
		},
		"coords": [
			{
				"x": -0.1958962677,
				"y": -0.2238671371,
				"z": 2.845555765,
				"element": "C" 
			},
			{
				"x": -0.1495505117,
				"y": -0.1451902522,
				"z": 1.3411233485,
				"element": "C" 
			},
			{
				"x": -1.1605165504,
				"y": 0.4698714206,
				"z": 0.5898750621,
				"element": "C" 
			},
			{
				"x": -1.0966640184,
				"y": 0.5308785418,
				"z": -0.8015217418,
				"element": "C" 
			},
			{
				"x": -0.0084840997,
				"y": -0.0281693558,
				"z": -1.476791095,
				"element": "C" 
			},
			{
				"x": 1.0028697589,
				"y": -0.6420856448,
				"z": -0.7446620404,
				"element": "C" 
			},
			{
				"x": 2.1232554732,
				"y": -1.2275838795,
				"z": -1.2959172887,
				"element": "O" 
			},
			{
				"x": 0.9361897047,
				"y": -0.7021512035,
				"z": 0.6555931931,
				"element": "C" 
			},
			{
				"x": 1.9360521995,
				"y": -1.3080455214,
				"z": 1.3643610252,
				"element": "O" 
			},
			{
				"x": -1.0998846665,
				"y": 0.2524991566,
				"z": 3.2339277162,
				"element": "H" 
			},
			{
				"x": -0.1781908133,
				"y": -1.2640349029,
				"z": 3.1894460796,
				"element": "H" 
			},
			{
				"x": 0.6741959836,
				"y": 0.2668075169,
				"z": 3.2957775711,
				"element": "H" 
			},
			{
				"x": -2.0081062087,
				"y": 0.905595685,
				"z": 1.1116984843,
				"element": "H" 
			},
			{
				"x": -1.8900863308,
				"y": 1.0117494975,
				"z": -1.3649163771,
				"element": "H" 
			},
			{
				"x": 0.0551147349,
				"y": 0.0117506884,
				"z": -2.562193486,
				"element": "H" 
			},
			{
				"x": 2.0941488851,
				"y": -1.1444766543,
				"z": -2.2565111382,
				"element": "H" 
			},
			{
				"x": 2.5896527273,
				"y": -1.6274479552,
				"z": 0.724654922,
				"element": "H" 
			}
		],
		 "valence_orbital": [ 
			{
				"type": "occ",
				"energy": -0.34893,
				"method": "rhf"
			},
			{
				"type": "occ",
				"energy": -0.3343,
				"method": "rhf"
			},
			{
				"type": "occ",
				"energy": -0.31798,
				"method": "rhf"
			},
			{
				"type": "occ",
				"energy": -0.22709,
				"method": "rhf"
			},
			{
				"type": "occ",
				"energy": -0.20343,
				"method": "rhf"
			},
			{
				"type": "unocc",
				"energy": 0.01175,
				"method": "rhf"
			},
			{
				"type": "unocc",
				"energy": 0.02373,
				"method": "rhf"
			},
			{
				"type": "unocc",
				"energy": 0.05596,
				"method": "rhf"
			},
			{
				"type": "unocc",
				"energy": 0.09591,
				"method": "rhf"
			},
			{
				"type": "unocc",
				"energy": 0.11991,
				"method": "rhf"
			}
		],
		"cosmo_sigma_profile": { 
			"-0.025": 0.0,
			"-0.024": 0.0,
			"-0.023": 0.0,
			"-0.022": 0.0,
			"-0.021": 0.0,
			"-0.02": 0.0,
			"-0.019": 0.0105682497664,
			"-0.018": 0.689915976045,
			"-0.017": 1.28501027739,
			"-0.016": 0.393117228817,
			"-0.015": 1.50972662111,
			"-0.014": 1.54323003289,
			"-0.013": 1.54574611115,
			"-0.012": 1.24180274932,
			"-0.011": 1.14278260539,
			"-0.01": 1.79500203056,
			"-0.009": 1.96453982958,
			"-0.008": 1.5663143488,
			"-0.007": 1.68483976746,
			"-0.006": 2.6909334912,
			"-0.005": 6.21502229598,
			"-0.004": 11.3621099644,
			"-0.003": 11.5918756826,
			"-0.002": 10.8319410884,
			"-0.001": 10.7947239378,
			"0.0": 11.2484419155,
			"0.001": 12.2348749902,
			"0.002": 8.69582629642,
			"0.003": 12.3689317622,
			"0.004": 10.9655091177,
			"0.005": 10.6583334243,
			"0.006": 9.62414486709,
			"0.007": 7.83321802084,
			"0.008": 2.79959544852,
			"0.009": 1.05843716705,
			"0.01": 2.10510863105,
			"0.011": 1.77300371816,
			"0.012": 0.0892164032429,
			"0.013": 0.0,
			"0.014": 0.0,
			"0.015": 0.0,
			"0.016": 0.0,
			"0.017": 0.0,
			"0.018": 0.0,
			"0.019": 0.0,
			"0.02": 0.0,
			"0.021": 0.0,
			"0.022": 0.0,
			"0.023": 0.0,
			"0.024": 0.0,
			"0.025": 0.0
		}
	}
}
