{
	 "smiles": "OC(=O)C1CCN(CC1)S(=O)(=O)N1CCCCC1", 
	 "Tm": 405.15, 
	 "num_atms": 38, 
	 "gaussian": { 
		 "optdone": 1, 
		 "sigma_profile": "yes", 
		 "theory": "DFT", 
		 "functional": "B3LYP", 
		 "basiset": "6-31G**", 
		 "properties": { 
			 "R2extent": 5671.3562, 
			 "electric_dipole_moment_norm": 9.02114783162, 
			 "electric_quadrupole_moment_norm": 22.4190437718, 
			 "total_energy": -1239.7466773, 
			 "HOMO_LUMO_gap": 0.26821, 
			 "cosmo_polarized_energy": -21.16, 
			 "cosmo_cavitation_energy": 37.88, 
			 "cosmo_dispersion_energy": -27.01, 
			 "cosmo_repulsion_energy": 2.02, 
			 "cosmo_total_nonelectrostatic_energy": 12.9, 
			 "SMD_solvation_energy": 5.31 
		},
		"coords": [
			{
				"x": -1.4361782987,
				"y": -3.9251702331,
				"z": -0.4600763523,
				"element": "O" 
			},
			{
				"x": -0.823790761,
				"y": -4.1907432404,
				"z": -1.630927105,
				"element": "C" 
			},
			{
				"x": -1.2061705205,
				"y": -5.0888166079,
				"z": -2.3452637642,
				"element": "O" 
			},
			{
				"x": 0.3662028069,
				"y": -3.2955767366,
				"z": -2.0168399565,
				"element": "C" 
			},
			{
				"x": -0.1038679934,
				"y": -1.9123914391,
				"z": -2.521743155,
				"element": "C" 
			},
			{
				"x": -0.7495007356,
				"y": -1.0521088518,
				"z": -1.415391919,
				"element": "C" 
			},
			{
				"x": -0.171161476,
				"y": -1.4155100575,
				"z": -0.0938557225,
				"element": "N" 
			},
			{
				"x": 1.2665783259,
				"y": -1.7550925487,
				"z": -0.1589924223,
				"element": "C" 
			},
			{
				"x": 1.4082441811,
				"y": -3.1124439761,
				"z": -0.874612897,
				"element": "C" 
			},
			{
				"x": -0.6859196573,
				"y": -0.4167328479,
				"z": 1.1940602045,
				"element": "S" 
			},
			{
				"x": 0.0368847377,
				"y": -0.8985700303,
				"z": 2.3699272079,
				"element": "O" 
			},
			{
				"x": -2.1432414042,
				"y": -0.4234452704,
				"z": 1.1131732023,
				"element": "O" 
			},
			{
				"x": -0.1608749018,
				"y": 1.1393044373,
				"z": 0.8149552921,
				"element": "N" 
			},
			{
				"x": -1.1688945407,
				"y": 2.2166998603,
				"z": 0.7165333996,
				"element": "C" 
			},
			{
				"x": -0.6856331387,
				"y": 3.2643552879,
				"z": -0.3031954346,
				"element": "C" 
			},
			{
				"x": 0.8502119305,
				"y": 3.4503272813,
				"z": -0.2478048626,
				"element": "C" 
			},
			{
				"x": 1.3901678309,
				"y": 3.0458110734,
				"z": 1.1284529961,
				"element": "C" 
			},
			{
				"x": 1.1400226033,
				"y": 1.5517307214,
				"z": 1.4054359945,
				"element": "C" 
			},
			{
				"x": -1.0534271881,
				"y": -3.1189432137,
				"z": -0.0482515301,
				"element": "H" 
			},
			{
				"x": 0.8294454139,
				"y": -3.8221945711,
				"z": -2.8535589853,
				"element": "H" 
			},
			{
				"x": -0.8148056532,
				"y": -2.0282804312,
				"z": -3.3451553617,
				"element": "H" 
			},
			{
				"x": 0.7690204575,
				"y": -1.3924495854,
				"z": -2.9322614705,
				"element": "H" 
			},
			{
				"x": -1.8253755464,
				"y": -1.2257528999,
				"z": -1.3560109556,
				"element": "H" 
			},
			{
				"x": -0.5827773142,
				"y": 0.0136674989,
				"z": -1.6237960695,
				"element": "H" 
			},
			{
				"x": 1.8204181887,
				"y": -0.9690307837,
				"z": -0.692981828,
				"element": "H" 
			},
			{
				"x": 1.6525031543,
				"y": -1.8135335456,
				"z": 0.8587055356,
				"element": "H" 
			},
			{
				"x": 2.4198008804,
				"y": -3.1832379014,
				"z": -1.2876214034,
				"element": "H" 
			},
			{
				"x": 1.3089876778,
				"y": -3.9213681638,
				"z": -0.144275041,
				"element": "H" 
			},
			{
				"x": -1.3255170361,
				"y": 2.676360979,
				"z": 1.7026176265,
				"element": "H" 
			},
			{
				"x": -2.1185598685,
				"y": 1.7771424332,
				"z": 0.4165704535,
				"element": "H" 
			},
			{
				"x": -1.1966055814,
				"y": 4.2090933505,
				"z": -0.0842458255,
				"element": "H" 
			},
			{
				"x": -0.9887729889,
				"y": 2.9682033537,
				"z": -1.3130370929,
				"element": "H" 
			},
			{
				"x": 1.3275153925,
				"y": 2.8261772995,
				"z": -1.0127062762,
				"element": "H" 
			},
			{
				"x": 1.1205186717,
				"y": 4.4858219674,
				"z": -0.4777827523,
				"element": "H" 
			},
			{
				"x": 0.9137810213,
				"y": 3.6558551192,
				"z": 1.9049434896,
				"element": "H" 
			},
			{
				"x": 2.4659358104,
				"y": 3.2348469588,
				"z": 1.2048732196,
				"element": "H" 
			},
			{
				"x": 1.164156724,
				"y": 1.3440433996,
				"z": 2.4811766629,
				"element": "H" 
			},
			{
				"x": 1.9303787957,
				"y": 0.9555519143,
				"z": 0.9376628983,
				"element": "H" 
			}
		],
		 "valence_orbital": [ 
			{
				"type": "occ",
				"energy": -0.31512,
				"method": "rhf"
			},
			{
				"type": "occ",
				"energy": -0.29558,
				"method": "rhf"
			},
			{
				"type": "occ",
				"energy": -0.28686,
				"method": "rhf"
			},
			{
				"type": "occ",
				"energy": -0.25749,
				"method": "rhf"
			},
			{
				"type": "occ",
				"energy": -0.24839,
				"method": "rhf"
			},
			{
				"type": "unocc",
				"energy": 0.01982,
				"method": "rhf"
			},
			{
				"type": "unocc",
				"energy": 0.03303,
				"method": "rhf"
			},
			{
				"type": "unocc",
				"energy": 0.05348,
				"method": "rhf"
			},
			{
				"type": "unocc",
				"energy": 0.06476,
				"method": "rhf"
			},
			{
				"type": "unocc",
				"energy": 0.07207,
				"method": "rhf"
			}
		],
		"cosmo_sigma_profile": { 
			"-0.025": 0.0,
			"-0.024": 0.0,
			"-0.023": 0.0,
			"-0.022": 0.0,
			"-0.021": 0.0,
			"-0.02": 0.0,
			"-0.019": 0.0,
			"-0.018": 0.0,
			"-0.017": 0.0,
			"-0.016": 0.0,
			"-0.015": 0.0,
			"-0.014": 0.0,
			"-0.013": 0.0,
			"-0.012": 0.0,
			"-0.011": 0.0,
			"-0.01": 0.0,
			"-0.009": 0.0,
			"-0.008": 0.450029139016,
			"-0.007": 1.73179604815,
			"-0.006": 8.6653101935,
			"-0.005": 33.0546254215,
			"-0.004": 43.1139233501,
			"-0.003": 44.991391609,
			"-0.002": 35.9662224862,
			"-0.001": 24.3327640653,
			"0.0": 17.4018167294,
			"0.001": 8.47677355183,
			"0.002": 5.30083330179,
			"0.003": 4.36567182617,
			"0.004": 4.27466986189,
			"0.005": 4.96819899762,
			"0.006": 5.10484149914,
			"0.007": 5.55538794256,
			"0.008": 5.18684603511,
			"0.009": 6.82299187911,
			"0.01": 10.6649984626,
			"0.011": 11.5736744261,
			"0.012": 6.50923945376,
			"0.013": 4.72201331844,
			"0.014": 1.1360120087,
			"0.015": 0.0,
			"0.016": 0.0,
			"0.017": 0.0,
			"0.018": 0.0,
			"0.019": 0.0,
			"0.02": 0.0,
			"0.021": 0.0,
			"0.022": 0.0,
			"0.023": 0.0,
			"0.024": 0.0,
			"0.025": 0.0
		}
	}
}
