{
	 "smiles": "CC1=C(N=NN1C1=CC(=CC=C1)C(F)(F)F)C(O)=O", 
	 "Tm": 429.15, 
	 "num_atms": 27, 
	 "gaussian": { 
		 "optdone": 1, 
		 "sigma_profile": "yes", 
		 "theory": "DFT", 
		 "functional": "B3LYP", 
		 "basiset": "6-31G**", 
		 "properties": { 
			 "R2extent": 7258.0129, 
			 "electric_dipole_moment_norm": 5.30542588488, 
			 "electric_quadrupole_moment_norm": 20.9204106927, 
			 "total_energy": -1038.20439529, 
			 "HOMO_LUMO_gap": 0.20945, 
			 "cosmo_polarized_energy": -15.66, 
			 "cosmo_cavitation_energy": 33.94, 
			 "cosmo_dispersion_energy": -23.98, 
			 "cosmo_repulsion_energy": 1.77, 
			 "cosmo_total_nonelectrostatic_energy": 11.72, 
			 "SMD_solvation_energy": 7.04 
		},
		"coords": [
			{
				"x": 0.7534839728,
				"y": -1.6466825782,
				"z": -0.9747489242,
				"element": "C" 
			},
			{
				"x": 0.5535682047,
				"y": -0.1754222041,
				"z": -1.1187343337,
				"element": "C" 
			},
			{
				"x": 0.9295520854,
				"y": 0.6878396297,
				"z": -2.1348866067,
				"element": "C" 
			},
			{
				"x": 0.5730664087,
				"y": 1.9616798291,
				"z": -1.7973846653,
				"element": "N" 
			},
			{
				"x": -0.0029287449,
				"y": 1.9609111658,
				"z": -0.640360155,
				"element": "N" 
			},
			{
				"x": -0.0296373141,
				"y": 0.6585008501,
				"z": -0.2068966112,
				"element": "N" 
			},
			{
				"x": -0.5838891704,
				"y": 0.3744378054,
				"z": 1.0757187222,
				"element": "C" 
			},
			{
				"x": -0.2937150828,
				"y": 1.2397906359,
				"z": 2.1334256265,
				"element": "C" 
			},
			{
				"x": -0.8458476656,
				"y": 0.9860438861,
				"z": 3.3872938904,
				"element": "C" 
			},
			{
				"x": -1.6717890794,
				"y": -0.1235759477,
				"z": 3.591567953,
				"element": "C" 
			},
			{
				"x": -1.9554920596,
				"y": -0.9759091271,
				"z": 2.5268217485,
				"element": "C" 
			},
			{
				"x": -1.4214802168,
				"y": -0.7278533867,
				"z": 1.2620253032,
				"element": "C" 
			},
			{
				"x": -0.4979027699,
				"y": 1.8778350885,
				"z": 4.5527631078,
				"element": "C" 
			},
			{
				"x": -0.1366170468,
				"y": 3.1129803123,
				"z": 4.151483992,
				"element": "F" 
			},
			{
				"x": -1.5387241126,
				"y": 2.0074534934,
				"z": 5.4031519296,
				"element": "F" 
			},
			{
				"x": 0.5331147518,
				"y": 1.3707450046,
				"z": 5.2656600162,
				"element": "F" 
			},
			{
				"x": 1.6340444405,
				"y": 0.4055506008,
				"z": -3.4047275666,
				"element": "C" 
			},
			{
				"x": 1.8518097328,
				"y": 1.4976844547,
				"z": -4.1637788119,
				"element": "O" 
			},
			{
				"x": 1.9937206299,
				"y": -0.7007396782,
				"z": -3.7461735036,
				"element": "O" 
			},
			{
				"x": 1.5270641115,
				"y": -1.9561667707,
				"z": -1.6783981272,
				"element": "H" 
			},
			{
				"x": 1.0447032269,
				"y": -1.9140552979,
				"z": 0.0451024704,
				"element": "H" 
			},
			{
				"x": -0.1570985863,
				"y": -2.2030981879,
				"z": -1.2232771828,
				"element": "H" 
			},
			{
				"x": 0.34040463,
				"y": 2.1012224735,
				"z": 1.9662557489,
				"element": "H" 
			},
			{
				"x": -2.0970144493,
				"y": -0.3066545165,
				"z": 4.5721542433,
				"element": "H" 
			},
			{
				"x": -2.6091315489,
				"y": -1.8294341481,
				"z": 2.6742208342,
				"element": "H" 
			},
			{
				"x": -1.6730862693,
				"y": -1.3703301886,
				"z": 0.4264152794,
				"element": "H" 
			},
			{
				"x": 1.4871219215,
				"y": 2.273146802,
				"z": -3.6986943773,
				"element": "H" 
			}
		],
		 "valence_orbital": [ 
			{
				"type": "occ",
				"energy": -0.30083,
				"method": "rhf"
			},
			{
				"type": "occ",
				"energy": -0.29522,
				"method": "rhf"
			},
			{
				"type": "occ",
				"energy": -0.28504,
				"method": "rhf"
			},
			{
				"type": "occ",
				"energy": -0.27777,
				"method": "rhf"
			},
			{
				"type": "occ",
				"energy": -0.27398,
				"method": "rhf"
			},
			{
				"type": "unocc",
				"energy": -0.06453,
				"method": "rhf"
			},
			{
				"type": "unocc",
				"energy": -0.05109,
				"method": "rhf"
			},
			{
				"type": "unocc",
				"energy": -0.03405,
				"method": "rhf"
			},
			{
				"type": "unocc",
				"energy": -0.01534,
				"method": "rhf"
			},
			{
				"type": "unocc",
				"energy": 0.06096,
				"method": "rhf"
			}
		],
		"cosmo_sigma_profile": { 
			"-0.025": 0.0,
			"-0.024": 0.0,
			"-0.023": 0.0,
			"-0.022": 0.0,
			"-0.021": 0.0,
			"-0.02": 0.0,
			"-0.019": 0.0,
			"-0.018": 0.0,
			"-0.017": 0.0,
			"-0.016": 0.0,
			"-0.015": 0.277679248818,
			"-0.014": 0.662887914886,
			"-0.013": 0.600667771883,
			"-0.012": 0.584451750264,
			"-0.011": 0.671578787973,
			"-0.01": 0.916800344976,
			"-0.009": 3.04934582617,
			"-0.008": 6.8387040904,
			"-0.007": 11.4971253573,
			"-0.006": 14.6349732227,
			"-0.005": 13.8835024037,
			"-0.004": 17.7037385176,
			"-0.003": 20.4263023957,
			"-0.002": 20.2138635635,
			"-0.001": 16.9033756636,
			"0.0": 19.0752686951,
			"0.001": 23.0681375995,
			"0.002": 29.7179351843,
			"0.003": 24.0390799477,
			"0.004": 4.64381145202,
			"0.005": 4.7458943151,
			"0.006": 4.55448181188,
			"0.007": 4.60744022547,
			"0.008": 6.18046264755,
			"0.009": 7.08961366604,
			"0.01": 7.13841645417,
			"0.011": 5.1278502744,
			"0.012": 3.07319571219,
			"0.013": 1.23483422752,
			"0.014": 0.000842003559233,
			"0.015": 0.0,
			"0.016": 0.0,
			"0.017": 0.0,
			"0.018": 0.0,
			"0.019": 0.0,
			"0.02": 0.0,
			"0.021": 0.0,
			"0.022": 0.0,
			"0.023": 0.0,
			"0.024": 0.0,
			"0.025": 0.0
		}
	}
}
