{
	 "smiles": "BrC1=CC=C(C=C1)C(C#N)N1CCNCC1", 
	 "Tm": 357.15, 
	 "num_atms": 30, 
	 "gaussian": { 
		 "optdone": 1, 
		 "sigma_profile": "yes", 
		 "theory": "DFT", 
		 "functional": "B3LYP", 
		 "basiset": "6-31G**", 
		 "properties": { 
			 "R2extent": 6983.7109, 
			 "electric_dipole_moment_norm": 2.10737649935, 
			 "electric_quadrupole_moment_norm": 9.53450414652, 
			 "total_energy": -3201.33731276, 
			 "HOMO_LUMO_gap": 0.19528, 
			 "cosmo_polarized_energy": -12.26, 
			 "cosmo_cavitation_energy": 34.91, 
			 "cosmo_dispersion_energy": -24.77, 
			 "cosmo_repulsion_energy": 1.93, 
			 "cosmo_total_nonelectrostatic_energy": 12.08, 
			 "SMD_solvation_energy": 1.68 
		},
		"coords": [
			{
				"x": -4.0950224166,
				"y": -1.6998419621,
				"z": -2.4342461822,
				"element": "Br" 
			},
			{
				"x": -2.7533753586,
				"y": -1.0499116711,
				"z": -1.2393666827,
				"element": "C" 
			},
			{
				"x": -3.0769921202,
				"y": -0.0606049578,
				"z": -0.3154049743,
				"element": "C" 
			},
			{
				"x": -2.0903735518,
				"y": 0.4109232318,
				"z": 0.5539484734,
				"element": "C" 
			},
			{
				"x": -0.7915178851,
				"y": -0.1008824025,
				"z": 0.5033823077,
				"element": "C" 
			},
			{
				"x": -0.4877793446,
				"y": -1.0957995385,
				"z": -0.4352596558,
				"element": "C" 
			},
			{
				"x": -1.4615974202,
				"y": -1.5733349424,
				"z": -1.3086833421,
				"element": "C" 
			},
			{
				"x": 0.3124154048,
				"y": 0.3438910006,
				"z": 1.4665706121,
				"element": "C" 
			},
			{
				"x": -0.1171849756,
				"y": 1.4765579586,
				"z": 2.3348951356,
				"element": "C" 
			},
			{
				"x": -0.3740962186,
				"y": 2.3885694196,
				"z": 3.0065347178,
				"element": "N" 
			},
			{
				"x": 1.5741834982,
				"y": 0.6170364506,
				"z": 0.7777314357,
				"element": "N" 
			},
			{
				"x": 2.7276133551,
				"y": 0.6777334632,
				"z": 1.6859589434,
				"element": "C" 
			},
			{
				"x": 4.0250536426,
				"y": 0.7742742087,
				"z": 0.870321373,
				"element": "C" 
			},
			{
				"x": 4.0396667823,
				"y": 1.8875111111,
				"z": -0.0791805387,
				"element": "N" 
			},
			{
				"x": 2.8375385673,
				"y": 1.8730842354,
				"z": -0.9145777074,
				"element": "C" 
			},
			{
				"x": 1.5309574764,
				"y": 1.7865549325,
				"z": -0.1137184054,
				"element": "C" 
			},
			{
				"x": -4.0826142678,
				"y": 0.3417482183,
				"z": -0.2740913265,
				"element": "H" 
			},
			{
				"x": -2.3437651178,
				"y": 1.1850871061,
				"z": 1.2717241914,
				"element": "H" 
			},
			{
				"x": 0.525024754,
				"y": -1.4821016794,
				"z": -0.4875881021,
				"element": "H" 
			},
			{
				"x": -1.2226905084,
				"y": -2.3421418242,
				"z": -2.0346634026,
				"element": "H" 
			},
			{
				"x": 0.5121726744,
				"y": -0.4922418039,
				"z": 2.1519530619,
				"element": "H" 
			},
			{
				"x": 2.7361016658,
				"y": -0.2306283702,
				"z": 2.3012521615,
				"element": "H" 
			},
			{
				"x": 2.6583939665,
				"y": 1.5421775402,
				"z": 2.3732653288,
				"element": "H" 
			},
			{
				"x": 4.880761546,
				"y": 0.8684060234,
				"z": 1.5472915175,
				"element": "H" 
			},
			{
				"x": 4.1539470595,
				"y": -0.1557956148,
				"z": 0.30216208,
				"element": "H" 
			},
			{
				"x": 4.0801476224,
				"y": 2.7662453404,
				"z": 0.4347716327,
				"element": "H" 
			},
			{
				"x": 2.8268207631,
				"y": 2.7710374282,
				"z": -1.5412656218,
				"element": "H" 
			},
			{
				"x": 2.90138704,
				"y": 1.0052646312,
				"z": -1.5832433876,
				"element": "H" 
			},
			{
				"x": 1.3866074513,
				"y": 2.7210700792,
				"z": 0.4600658014,
				"element": "H" 
			},
			{
				"x": 0.6779159155,
				"y": 1.6796123877,
				"z": -0.7912394448,
				"element": "H" 
			}
		],
		 "valence_orbital": [ 
			{
				"type": "occ",
				"energy": -0.29218,
				"method": "rhf"
			},
			{
				"type": "occ",
				"energy": -0.27256,
				"method": "rhf"
			},
			{
				"type": "occ",
				"energy": -0.25137,
				"method": "rhf"
			},
			{
				"type": "occ",
				"energy": -0.2477,
				"method": "rhf"
			},
			{
				"type": "occ",
				"energy": -0.22505,
				"method": "rhf"
			},
			{
				"type": "unocc",
				"energy": -0.02977,
				"method": "rhf"
			},
			{
				"type": "unocc",
				"energy": -0.02349,
				"method": "rhf"
			},
			{
				"type": "unocc",
				"energy": 0.00164,
				"method": "rhf"
			},
			{
				"type": "unocc",
				"energy": 0.02401,
				"method": "rhf"
			},
			{
				"type": "unocc",
				"energy": 0.03008,
				"method": "rhf"
			}
		],
		"cosmo_sigma_profile": { 
			"-0.025": 0.0,
			"-0.024": 0.0,
			"-0.023": 0.0,
			"-0.022": 0.0,
			"-0.021": 0.0,
			"-0.02": 0.0,
			"-0.019": 0.0,
			"-0.018": 0.0,
			"-0.017": 0.0,
			"-0.016": 0.0,
			"-0.015": 0.0,
			"-0.014": 0.0,
			"-0.013": 0.0,
			"-0.012": 0.0,
			"-0.011": 0.0,
			"-0.01": 0.625380963553,
			"-0.009": 4.17975750005,
			"-0.008": 4.85723629334,
			"-0.007": 7.68265294948,
			"-0.006": 11.5068993158,
			"-0.005": 12.9916879769,
			"-0.004": 22.4382257156,
			"-0.003": 29.6460029725,
			"-0.002": 29.9821592674,
			"-0.001": 23.2108107804,
			"0.0": 16.4161315963,
			"0.001": 18.3336823064,
			"0.002": 21.2459791533,
			"0.003": 21.6079700772,
			"0.004": 15.4582212718,
			"0.005": 9.13646522039,
			"0.006": 4.18962064737,
			"0.007": 3.50108114785,
			"0.008": 3.76504566277,
			"0.009": 3.69813515387,
			"0.01": 3.29770602441,
			"0.011": 3.28531043435,
			"0.012": 3.81769370632,
			"0.013": 1.68423092725,
			"0.014": 0.623693176136,
			"0.015": 0.951421695495,
			"0.016": 0.149779007771,
			"0.017": 0.524931475275,
			"0.018": 0.736206932725,
			"0.019": 0.0,
			"0.02": 0.0,
			"0.021": 0.0,
			"0.022": 0.0,
			"0.023": 0.0,
			"0.024": 0.0,
			"0.025": 0.0
		}
	}
}
