{
	 "smiles": "CN(CC(N)=O)C1CCCC1", 
	 "Tm": 352.15, 
	 "num_atms": 27, 
	 "gaussian": { 
		 "optdone": 1, 
		 "sigma_profile": "yes", 
		 "theory": "DFT", 
		 "functional": "B3LYP", 
		 "basiset": "6-31G**", 
		 "properties": { 
			 "R2extent": 3411.8396, 
			 "electric_dipole_moment_norm": 4.00113270337, 
			 "electric_quadrupole_moment_norm": 26.076317713, 
			 "total_energy": -499.23234998, 
			 "HOMO_LUMO_gap": 0.25405, 
			 "cosmo_polarized_energy": -11.13, 
			 "cosmo_cavitation_energy": 27.59, 
			 "cosmo_dispersion_energy": -20.06, 
			 "cosmo_repulsion_energy": 1.64, 
			 "cosmo_total_nonelectrostatic_energy": 9.16, 
			 "SMD_solvation_energy": 4.6 
		},
		"coords": [
			{
				"x": -1.4321712367,
				"y": -1.2512242569,
				"z": 1.4396570483,
				"element": "C" 
			},
			{
				"x": -1.6291372052,
				"y": -1.1875019117,
				"z": -0.0090355794,
				"element": "N" 
			},
			{
				"x": -3.0233231946,
				"y": -1.4582748736,
				"z": -0.358525574,
				"element": "C" 
			},
			{
				"x": -3.389861232,
				"y": -2.9515874245,
				"z": -0.3459709338,
				"element": "C" 
			},
			{
				"x": -2.32560485,
				"y": -3.7806966677,
				"z": -0.515515107,
				"element": "N" 
			},
			{
				"x": -4.5495315075,
				"y": -3.3255321784,
				"z": -0.2431646369,
				"element": "O" 
			},
			{
				"x": -1.0718563273,
				"y": -0.0021857249,
				"z": -0.6771161258,
				"element": "C" 
			},
			{
				"x": 0.4629051915,
				"y": 0.1089963728,
				"z": -0.6355168515,
				"element": "C" 
			},
			{
				"x": 0.7394045052,
				"y": 1.5118896743,
				"z": -1.2124612589,
				"element": "C" 
			},
			{
				"x": -0.5147716753,
				"y": 2.3719870241,
				"z": -0.8539438954,
				"element": "C" 
			},
			{
				"x": -1.5268069809,
				"y": 1.3998297463,
				"z": -0.2005868794,
				"element": "C" 
			},
			{
				"x": -1.743599681,
				"y": -2.2370845024,
				"z": 1.7974483268,
				"element": "H" 
			},
			{
				"x": -0.3759764991,
				"y": -1.1288879936,
				"z": 1.6901854833,
				"element": "H" 
			},
			{
				"x": -2.0114111598,
				"y": -0.4961663687,
				"z": 1.9971313066,
				"element": "H" 
			},
			{
				"x": -3.7536115411,
				"y": -0.9480459556,
				"z": 0.2886247067,
				"element": "H" 
			},
			{
				"x": -3.2097315041,
				"y": -1.1080403256,
				"z": -1.3805495914,
				"element": "H" 
			},
			{
				"x": -1.4008905587,
				"y": -3.3766316105,
				"z": -0.5592039555,
				"element": "H" 
			},
			{
				"x": -2.4733157546,
				"y": -4.7771132251,
				"z": -0.5333421141,
				"element": "H" 
			},
			{
				"x": -1.3549653606,
				"y": -0.1028998125,
				"z": -1.7343979815,
				"element": "H" 
			},
			{
				"x": 0.9541487254,
				"y": -0.6953916591,
				"z": -1.1913564502,
				"element": "H" 
			},
			{
				"x": 0.8171813807,
				"y": 0.0548257507,
				"z": 0.4006923767,
				"element": "H" 
			},
			{
				"x": 0.8573211617,
				"y": 1.4528717564,
				"z": -2.299939117,
				"element": "H" 
			},
			{
				"x": 1.6652274033,
				"y": 1.9424854689,
				"z": -0.8202997657,
				"element": "H" 
			},
			{
				"x": -0.264155067,
				"y": 3.1975908331,
				"z": -0.1812963907,
				"element": "H" 
			},
			{
				"x": -0.9370498348,
				"y": 2.8245336704,
				"z": -1.7568090202,
				"element": "H" 
			},
			{
				"x": -1.453650845,
				"y": 1.4557450815,
				"z": 0.8917040037,
				"element": "H" 
			},
			{
				"x": -2.5648663523,
				"y": 1.6232091126,
				"z": -0.4661120237,
				"element": "H" 
			}
		],
		 "valence_orbital": [ 
			{
				"type": "occ",
				"energy": -0.32619,
				"method": "rhf"
			},
			{
				"type": "occ",
				"energy": -0.31932,
				"method": "rhf"
			},
			{
				"type": "occ",
				"energy": -0.25583,
				"method": "rhf"
			},
			{
				"type": "occ",
				"energy": -0.24247,
				"method": "rhf"
			},
			{
				"type": "occ",
				"energy": -0.21616,
				"method": "rhf"
			},
			{
				"type": "unocc",
				"energy": 0.03789,
				"method": "rhf"
			},
			{
				"type": "unocc",
				"energy": 0.07192,
				"method": "rhf"
			},
			{
				"type": "unocc",
				"energy": 0.08616,
				"method": "rhf"
			},
			{
				"type": "unocc",
				"energy": 0.09198,
				"method": "rhf"
			},
			{
				"type": "unocc",
				"energy": 0.1141,
				"method": "rhf"
			}
		],
		"cosmo_sigma_profile": { 
			"-0.025": 0.0,
			"-0.024": 0.0,
			"-0.023": 0.0,
			"-0.022": 0.0,
			"-0.021": 0.0,
			"-0.02": 0.0,
			"-0.019": 0.0,
			"-0.018": 0.0,
			"-0.017": 0.0,
			"-0.016": 0.0,
			"-0.015": 0.0,
			"-0.014": 0.245376211908,
			"-0.013": 1.58890721676,
			"-0.012": 0.39023606981,
			"-0.011": 1.40690436583,
			"-0.01": 2.44541563342,
			"-0.009": 1.41377771752,
			"-0.008": 1.62088251091,
			"-0.007": 1.76196295433,
			"-0.006": 4.03723507233,
			"-0.005": 4.61016299524,
			"-0.004": 7.73287663771,
			"-0.003": 17.5479468149,
			"-0.002": 37.107457051,
			"-0.001": 39.016738301,
			"0.0": 28.1246674393,
			"0.001": 18.563943294,
			"0.002": 12.2217893067,
			"0.003": 4.41989999375,
			"0.004": 3.43196006262,
			"0.005": 3.07716738203,
			"0.006": 1.75230280633,
			"0.007": 1.21626040233,
			"0.008": 1.47066602265,
			"0.009": 1.6306496441,
			"0.01": 0.679339155425,
			"0.011": 1.31372650639,
			"0.012": 1.44626296527,
			"0.013": 2.64985718202,
			"0.014": 5.46348327365,
			"0.015": 4.15285348387,
			"0.016": 0.56742271686,
			"0.017": 0.0,
			"0.018": 0.0,
			"0.019": 0.0,
			"0.02": 0.0,
			"0.021": 0.0,
			"0.022": 0.0,
			"0.023": 0.0,
			"0.024": 0.0,
			"0.025": 0.0
		}
	}
}
