{
	 "smiles": "CC(=O)C1=CC=C(C)C=C1", 
	 "Tm": 301.15, 
	 "num_atms": 20, 
	 "gaussian": { 
		 "optdone": 1, 
		 "sigma_profile": "yes", 
		 "theory": "DFT", 
		 "functional": "B3LYP", 
		 "basiset": "6-31G**", 
		 "properties": { 
			 "R2extent": 1807.3364, 
			 "electric_dipole_moment_norm": 3.33457138775, 
			 "electric_quadrupole_moment_norm": 8.30297590325, 
			 "total_energy": -424.220951701, 
			 "HOMO_LUMO_gap": 0.19303, 
			 "cosmo_polarized_energy": -8.02, 
			 "cosmo_cavitation_energy": 23.59, 
			 "cosmo_dispersion_energy": -17.24, 
			 "cosmo_repulsion_energy": 1.39, 
			 "cosmo_total_nonelectrostatic_energy": 7.75, 
			 "SMD_solvation_energy": 4.86 
		},
		"coords": [
			{
				"x": 1.2301367498,
				"y": -0.5570426815,
				"z": 3.3844644377,
				"element": "C" 
			},
			{
				"x": 0.2669452458,
				"y": 0.2679608508,
				"z": 2.5457137172,
				"element": "C" 
			},
			{
				"x": -0.5326638661,
				"y": 1.0207106105,
				"z": 3.0830734731,
				"element": "O" 
			},
			{
				"x": 0.3162312633,
				"y": 0.1419937122,
				"z": 1.0546437249,
				"element": "C" 
			},
			{
				"x": 1.2112145198,
				"y": -0.7056854326,
				"z": 0.3877739339,
				"element": "C" 
			},
			{
				"x": 1.2099793528,
				"y": -0.7824970233,
				"z": -1.004729974,
				"element": "C" 
			},
			{
				"x": 0.3203948506,
				"y": -0.0180223916,
				"z": -1.7694669829,
				"element": "C" 
			},
			{
				"x": 0.3276858757,
				"y": -0.0853256776,
				"z": -3.2773588557,
				"element": "C" 
			},
			{
				"x": -0.5761834354,
				"y": 0.8286221121,
				"z": -1.095374562,
				"element": "C" 
			},
			{
				"x": -0.5791481521,
				"y": 0.9090824307,
				"z": 0.2906288346,
				"element": "C" 
			},
			{
				"x": 2.2706772715,
				"y": -0.3212000321,
				"z": 3.1353710999,
				"element": "H" 
			},
			{
				"x": 1.0873848304,
				"y": -1.6288775461,
				"z": 3.2078894112,
				"element": "H" 
			},
			{
				"x": 1.051405134,
				"y": -0.3369634096,
				"z": 4.4372619542,
				"element": "H" 
			},
			{
				"x": 1.9139294917,
				"y": -1.3134778871,
				"z": 0.948995552,
				"element": "H" 
			},
			{
				"x": 1.9096976662,
				"y": -1.446689558,
				"z": -1.5055350018,
				"element": "H" 
			},
			{
				"x": 0.9447939096,
				"y": -0.9117011044,
				"z": -3.6401122214,
				"element": "H" 
			},
			{
				"x": -0.6843380326,
				"y": -0.2171375054,
				"z": -3.6749215462,
				"element": "H" 
			},
			{
				"x": 0.7241305635,
				"y": 0.8408499857,
				"z": -3.7110331119,
				"element": "H" 
			},
			{
				"x": -1.2780209154,
				"y": 1.4279349663,
				"z": -1.6705387912,
				"element": "H" 
			},
			{
				"x": -1.269952323,
				"y": 1.5606655808,
				"z": 0.8154549083,
				"element": "H" 
			}
		],
		 "valence_orbital": [ 
			{
				"type": "occ",
				"energy": -0.34239,
				"method": "rhf"
			},
			{
				"type": "occ",
				"energy": -0.34117,
				"method": "rhf"
			},
			{
				"type": "occ",
				"energy": -0.2573,
				"method": "rhf"
			},
			{
				"type": "occ",
				"energy": -0.24791,
				"method": "rhf"
			},
			{
				"type": "occ",
				"energy": -0.24357,
				"method": "rhf"
			},
			{
				"type": "unocc",
				"energy": -0.05054,
				"method": "rhf"
			},
			{
				"type": "unocc",
				"energy": -0.007,
				"method": "rhf"
			},
			{
				"type": "unocc",
				"energy": 0.04203,
				"method": "rhf"
			},
			{
				"type": "unocc",
				"energy": 0.0905,
				"method": "rhf"
			},
			{
				"type": "unocc",
				"energy": 0.10764,
				"method": "rhf"
			}
		],
		"cosmo_sigma_profile": { 
			"-0.025": 0.0,
			"-0.024": 0.0,
			"-0.023": 0.0,
			"-0.022": 0.0,
			"-0.021": 0.0,
			"-0.02": 0.0,
			"-0.019": 0.0,
			"-0.018": 0.0,
			"-0.017": 0.0,
			"-0.016": 0.0,
			"-0.015": 0.0,
			"-0.014": 0.0,
			"-0.013": 0.0,
			"-0.012": 0.0,
			"-0.011": 0.0,
			"-0.01": 0.0,
			"-0.009": 0.0,
			"-0.008": 0.0,
			"-0.007": 0.172092625516,
			"-0.006": 8.82461300613,
			"-0.005": 17.8607777192,
			"-0.004": 19.5959389569,
			"-0.003": 18.5098461156,
			"-0.002": 17.1414954183,
			"-0.001": 20.357344253,
			"0.0": 16.3087919976,
			"0.001": 10.4551087261,
			"0.002": 9.52200415231,
			"0.003": 9.96230399664,
			"0.004": 13.2094422201,
			"0.005": 6.89607793612,
			"0.006": 2.40472183889,
			"0.007": 1.65202121384,
			"0.008": 0.456413172041,
			"0.009": 2.3041042087,
			"0.01": 2.32444393236,
			"0.011": 2.29568489054,
			"0.012": 4.24621151809,
			"0.013": 2.30520502255,
			"0.014": 0.341499102579,
			"0.015": 0.0,
			"0.016": 0.0,
			"0.017": 0.0,
			"0.018": 0.0,
			"0.019": 0.0,
			"0.02": 0.0,
			"0.021": 0.0,
			"0.022": 0.0,
			"0.023": 0.0,
			"0.024": 0.0,
			"0.025": 0.0
		}
	}
}
