{
	 "smiles": "COC1=CC=CC(OC)=C1SC", 
	 "Tm": 352.65, 
	 "num_atms": 24, 
	 "gaussian": { 
		 "optdone": 1, 
		 "sigma_profile": "yes", 
		 "theory": "DFT", 
		 "functional": "B3LYP", 
		 "basiset": "6-31G**", 
		 "properties": { 
			 "R2extent": 2573.8217, 
			 "electric_dipole_moment_norm": 1.64975093272, 
			 "electric_quadrupole_moment_norm": 5.52942098506, 
			 "total_energy": -898.787649348, 
			 "HOMO_LUMO_gap": 0.19915, 
			 "cosmo_polarized_energy": -7.66, 
			 "cosmo_cavitation_energy": 28.44, 
			 "cosmo_dispersion_energy": -20.53, 
			 "cosmo_repulsion_energy": 1.62, 
			 "cosmo_total_nonelectrostatic_energy": 9.52, 
			 "SMD_solvation_energy": 6.71 
		},
		"coords": [
			{
				"x": -2.0394012332,
				"y": 2.3841572929,
				"z": -1.3437346896,
				"element": "C" 
			},
			{
				"x": -2.2433093144,
				"y": 1.8789962522,
				"z": -0.0252814397,
				"element": "O" 
			},
			{
				"x": -1.1014142443,
				"y": 1.6552555389,
				"z": 0.705213506,
				"element": "C" 
			},
			{
				"x": -0.7050532281,
				"y": 2.6360229083,
				"z": 1.6201745266,
				"element": "C" 
			},
			{
				"x": 0.3992323807,
				"y": 2.4230233611,
				"z": 2.441851098,
				"element": "C" 
			},
			{
				"x": 1.122732901,
				"y": 1.2350730378,
				"z": 2.3460949897,
				"element": "C" 
			},
			{
				"x": 0.7396745646,
				"y": 0.2596693845,
				"z": 1.4236599057,
				"element": "C" 
			},
			{
				"x": 1.4426703357,
				"y": -0.9253591551,
				"z": 1.3843231554,
				"element": "O" 
			},
			{
				"x": 2.5504846605,
				"y": -0.9292905428,
				"z": 0.4799655136,
				"element": "C" 
			},
			{
				"x": -0.3810890832,
				"y": 0.4477943394,
				"z": 0.5883251445,
				"element": "C" 
			},
			{
				"x": -0.8717545808,
				"y": -0.7988648305,
				"z": -0.5976765438,
				"element": "S" 
			},
			{
				"x": -1.3533312945,
				"y": -2.1757913926,
				"z": 0.5129445286,
				"element": "C" 
			},
			{
				"x": -3.0320917398,
				"y": 2.5486004703,
				"z": -1.7675609286,
				"element": "H" 
			},
			{
				"x": -1.4905504217,
				"y": 3.335188405,
				"z": -1.3226895316,
				"element": "H" 
			},
			{
				"x": -1.4971418208,
				"y": 1.6664615468,
				"z": -1.9706873905,
				"element": "H" 
			},
			{
				"x": -1.2947914287,
				"y": 3.5443937926,
				"z": 1.6877051026,
				"element": "H" 
			},
			{
				"x": 0.6934111589,
				"y": 3.1806182951,
				"z": 3.1621662152,
				"element": "H" 
			},
			{
				"x": 1.9777089543,
				"y": 1.0388914903,
				"z": 2.9851450713,
				"element": "H" 
			},
			{
				"x": 3.2785595345,
				"y": -0.1521340719,
				"z": 0.7460478787,
				"element": "H" 
			},
			{
				"x": 2.216944193,
				"y": -0.7804777287,
				"z": -0.5530750876,
				"element": "H" 
			},
			{
				"x": 3.0205815465,
				"y": -1.9105373779,
				"z": 0.5716056333,
				"element": "H" 
			},
			{
				"x": -0.506395142,
				"y": -2.4718539178,
				"z": 1.132227496,
				"element": "H" 
			},
			{
				"x": -2.2042655927,
				"y": -1.8874641122,
				"z": 1.1327574366,
				"element": "H" 
			},
			{
				"x": -1.6447111055,
				"y": -3.0039729857,
				"z": -0.1376015904,
				"element": "H" 
			}
		],
		 "valence_orbital": [ 
			{
				"type": "occ",
				"energy": -0.27661,
				"method": "rhf"
			},
			{
				"type": "occ",
				"energy": -0.26658,
				"method": "rhf"
			},
			{
				"type": "occ",
				"energy": -0.25159,
				"method": "rhf"
			},
			{
				"type": "occ",
				"energy": -0.23726,
				"method": "rhf"
			},
			{
				"type": "occ",
				"energy": -0.21465,
				"method": "rhf"
			},
			{
				"type": "unocc",
				"energy": -0.0155,
				"method": "rhf"
			},
			{
				"type": "unocc",
				"energy": 0.00072,
				"method": "rhf"
			},
			{
				"type": "unocc",
				"energy": 0.05164,
				"method": "rhf"
			},
			{
				"type": "unocc",
				"energy": 0.07246,
				"method": "rhf"
			},
			{
				"type": "unocc",
				"energy": 0.10728,
				"method": "rhf"
			}
		],
		"cosmo_sigma_profile": { 
			"-0.025": 0.0,
			"-0.024": 0.0,
			"-0.023": 0.0,
			"-0.022": 0.0,
			"-0.021": 0.0,
			"-0.02": 0.0,
			"-0.019": 0.0,
			"-0.018": 0.0,
			"-0.017": 0.0,
			"-0.016": 0.0,
			"-0.015": 0.0,
			"-0.014": 0.0,
			"-0.013": 0.0,
			"-0.012": 0.0,
			"-0.011": 0.0,
			"-0.01": 0.0,
			"-0.009": 0.0,
			"-0.008": 0.0,
			"-0.007": 1.11083879402,
			"-0.006": 9.19881526369,
			"-0.005": 16.3325092682,
			"-0.004": 22.5903059211,
			"-0.003": 29.2530162509,
			"-0.002": 26.2318851294,
			"-0.001": 19.4614692635,
			"0.0": 14.1318816516,
			"0.001": 12.6165079789,
			"0.002": 12.362098881,
			"0.003": 15.8786458895,
			"0.004": 13.9764633728,
			"0.005": 9.10695339694,
			"0.006": 6.15214681112,
			"0.007": 4.26350020414,
			"0.008": 3.70949900901,
			"0.009": 2.60544309212,
			"0.01": 2.1289237449,
			"0.011": 2.90260133998,
			"0.012": 2.29692803515,
			"0.013": 0.585334043174,
			"0.014": 0.0,
			"0.015": 0.0,
			"0.016": 0.0,
			"0.017": 0.0,
			"0.018": 0.0,
			"0.019": 0.0,
			"0.02": 0.0,
			"0.021": 0.0,
			"0.022": 0.0,
			"0.023": 0.0,
			"0.024": 0.0,
			"0.025": 0.0
		}
	}
}
