{
	 "smiles": "CC(C)(C)[Si](C)(C)OC1=C2C=CC=CC2=CC(=C1)C(O)=O", 
	 "Tm": 427.15, 
	 "num_atms": 43, 
	 "gaussian": { 
		 "optdone": 1, 
		 "sigma_profile": "yes", 
		 "theory": "DFT", 
		 "functional": "B3LYP", 
		 "basiset": "6-31G**", 
		 "properties": { 
			 "R2extent": 8710.3413, 
			 "electric_dipole_moment_norm": 4.04639256005, 
			 "electric_quadrupole_moment_norm": 29.2672015504, 
			 "total_energy": -1176.34268713, 
			 "HOMO_LUMO_gap": 0.15802, 
			 "cosmo_polarized_energy": -14.85, 
			 "cosmo_cavitation_energy": 46.27, 
			 "cosmo_dispersion_energy": -28.99, 
			 "cosmo_repulsion_energy": 2.26, 
			 "cosmo_total_nonelectrostatic_energy": 19.54, 
			 "SMD_solvation_energy": 9.75 
		},
		"coords": [
			{
				"x": 2.4868275113,
				"y": -1.5931265212,
				"z": 0.280684164,
				"element": "C" 
			},
			{
				"x": 2.4136101291,
				"y": -0.283503815,
				"z": -0.5344280843,
				"element": "C" 
			},
			{
				"x": 3.7965094891,
				"y": 0.4054403159,
				"z": -0.5074066032,
				"element": "C" 
			},
			{
				"x": 2.0452056512,
				"y": -0.6191536488,
				"z": -1.9961218708,
				"element": "C" 
			},
			{
				"x": 1.1014645056,
				"y": 0.883098092,
				"z": 0.2189617902,
				"element": "Si" 
			},
			{
				"x": 1.4535353045,
				"y": 1.2647590121,
				"z": 2.0310841543,
				"element": "C" 
			},
			{
				"x": 0.9218580433,
				"y": 2.4710342201,
				"z": -0.7827011697,
				"element": "C" 
			},
			{
				"x": -0.332737287,
				"y": -0.0353917,
				"z": 0.0963648672,
				"element": "O" 
			},
			{
				"x": -1.6083070131,
				"y": 0.1938218532,
				"z": 0.4952122319,
				"element": "C" 
			},
			{
				"x": -2.5397688651,
				"y": -0.8818416898,
				"z": 0.2989499735,
				"element": "C" 
			},
			{
				"x": -2.1512274646,
				"y": -2.1152078473,
				"z": -0.2813887395,
				"element": "C" 
			},
			{
				"x": -3.0659979163,
				"y": -3.1335113696,
				"z": -0.4444650746,
				"element": "C" 
			},
			{
				"x": -4.4086843906,
				"y": -2.9635678792,
				"z": -0.0319491099,
				"element": "C" 
			},
			{
				"x": -4.8131416651,
				"y": -1.7755810177,
				"z": 0.5341935062,
				"element": "C" 
			},
			{
				"x": -3.8986325852,
				"y": -0.702586181,
				"z": 0.7122629355,
				"element": "C" 
			},
			{
				"x": -4.2984184881,
				"y": 0.5324411492,
				"z": 1.2868496592,
				"element": "C" 
			},
			{
				"x": -3.3844783203,
				"y": 1.5558643265,
				"z": 1.4470722365,
				"element": "C" 
			},
			{
				"x": -2.0313980099,
				"y": 1.37803753,
				"z": 1.0622597228,
				"element": "C" 
			},
			{
				"x": -3.7388875119,
				"y": 2.8743182729,
				"z": 2.0653787645,
				"element": "C" 
			},
			{
				"x": -5.055445522,
				"y": 3.2152532469,
				"z": 2.0676295681,
				"element": "O" 
			},
			{
				"x": -2.9205262284,
				"y": 3.6247515731,
				"z": 2.5456664379,
				"element": "O" 
			},
			{
				"x": 3.2267647279,
				"y": -2.274391261,
				"z": -0.160851492,
				"element": "H" 
			},
			{
				"x": 2.7892869541,
				"y": -1.4137934374,
				"z": 1.3184239991,
				"element": "H" 
			},
			{
				"x": 1.5244401521,
				"y": -2.1145640971,
				"z": 0.2987552378,
				"element": "H" 
			},
			{
				"x": 4.1181454716,
				"y": 0.6471354472,
				"z": 0.5120497299,
				"element": "H" 
			},
			{
				"x": 3.8084088499,
				"y": 1.3322123598,
				"z": -1.0922768738,
				"element": "H" 
			},
			{
				"x": 4.5582379914,
				"y": -0.258224362,
				"z": -0.9379143687,
				"element": "H" 
			},
			{
				"x": 2.786837407,
				"y": -1.3055701049,
				"z": -2.4267441679,
				"element": "H" 
			},
			{
				"x": 1.0651691111,
				"y": -1.1017909329,
				"z": -2.0669942703,
				"element": "H" 
			},
			{
				"x": 2.024326887,
				"y": 0.2747821108,
				"z": -2.6294301684,
				"element": "H" 
			},
			{
				"x": 1.4944646167,
				"y": 0.350031179,
				"z": 2.630851052,
				"element": "H" 
			},
			{
				"x": 2.4169589111,
				"y": 1.7761272949,
				"z": 2.1359113372,
				"element": "H" 
			},
			{
				"x": 0.6897185109,
				"y": 1.9139791751,
				"z": 2.4695531878,
				"element": "H" 
			},
			{
				"x": 0.1681717458,
				"y": 3.1407997483,
				"z": -0.3578073908,
				"element": "H" 
			},
			{
				"x": 0.6328236774,
				"y": 2.2599608674,
				"z": -1.8171244489,
				"element": "H" 
			},
			{
				"x": 1.8696394879,
				"y": 3.0203626981,
				"z": -0.8062497604,
				"element": "H" 
			},
			{
				"x": -1.120783587,
				"y": -2.2391655568,
				"z": -0.5927732103,
				"element": "H" 
			},
			{
				"x": -2.7562279751,
				"y": -4.074090048,
				"z": -0.8905110283,
				"element": "H" 
			},
			{
				"x": -5.119796072,
				"y": -3.7738469661,
				"z": -0.1636021072,
				"element": "H" 
			},
			{
				"x": -5.8436189399,
				"y": -1.6404871857,
				"z": 0.852614933,
				"element": "H" 
			},
			{
				"x": -5.3245584287,
				"y": 0.6255858517,
				"z": 1.634844188,
				"element": "H" 
			},
			{
				"x": -1.3509436883,
				"y": 2.2025490995,
				"z": 1.2318089834,
				"element": "H" 
			},
			{
				"x": -5.5518251776,
				"y": 2.6024501977,
				"z": 1.5073572791,
				"element": "H" 
			}
		],
		 "valence_orbital": [ 
			{
				"type": "occ",
				"energy": -0.27299,
				"method": "rhf"
			},
			{
				"type": "occ",
				"energy": -0.27101,
				"method": "rhf"
			},
			{
				"type": "occ",
				"energy": -0.2699,
				"method": "rhf"
			},
			{
				"type": "occ",
				"energy": -0.25282,
				"method": "rhf"
			},
			{
				"type": "occ",
				"energy": -0.21504,
				"method": "rhf"
			},
			{
				"type": "unocc",
				"energy": -0.05702,
				"method": "rhf"
			},
			{
				"type": "unocc",
				"energy": -0.03077,
				"method": "rhf"
			},
			{
				"type": "unocc",
				"energy": 0.01666,
				"method": "rhf"
			},
			{
				"type": "unocc",
				"energy": 0.04532,
				"method": "rhf"
			},
			{
				"type": "unocc",
				"energy": 0.05857,
				"method": "rhf"
			}
		],
		"cosmo_sigma_profile": { 
			"-0.025": 0.0,
			"-0.024": 0.0,
			"-0.023": 0.0,
			"-0.022": 0.0,
			"-0.021": 0.0,
			"-0.02": 0.0,
			"-0.019": 0.0,
			"-0.018": 0.547765219041,
			"-0.017": 1.14187455673,
			"-0.016": 0.804618385806,
			"-0.015": 1.13573565339,
			"-0.014": 0.739611253901,
			"-0.013": 0.798316459559,
			"-0.012": 1.16619161929,
			"-0.011": 1.24005687924,
			"-0.01": 0.9134252541,
			"-0.009": 1.38130285375,
			"-0.008": 2.52443309183,
			"-0.007": 3.90249729966,
			"-0.006": 9.12875155449,
			"-0.005": 11.1023782336,
			"-0.004": 20.3459450276,
			"-0.003": 30.9735367918,
			"-0.002": 40.0314031134,
			"-0.001": 37.6383598045,
			"0.0": 37.2144027545,
			"0.001": 41.6938371315,
			"0.002": 38.3290978885,
			"0.003": 26.8191940327,
			"0.004": 16.6377278645,
			"0.005": 6.69593113313,
			"0.006": 2.39359423105,
			"0.007": 2.33959293816,
			"0.008": 3.46412170723,
			"0.009": 2.75624506618,
			"0.01": 4.81157530237,
			"0.011": 5.08729508095,
			"0.012": 4.91305074406,
			"0.013": 1.75821754543,
			"0.014": 0.117171453885,
			"0.015": 0.0,
			"0.016": 0.0,
			"0.017": 0.0,
			"0.018": 0.0,
			"0.019": 0.0,
			"0.02": 0.0,
			"0.021": 0.0,
			"0.022": 0.0,
			"0.023": 0.0,
			"0.024": 0.0,
			"0.025": 0.0
		}
	}
}
