{
	 "smiles": "CCOC(=O)C1=C2N=CC(Br)=CN2N=C1", 
	 "Tm": 415.15, 
	 "num_atms": 23, 
	 "gaussian": { 
		 "optdone": 1, 
		 "sigma_profile": "yes", 
		 "theory": "DFT", 
		 "functional": "B3LYP", 
		 "basiset": "6-31G**", 
		 "properties": { 
			 "R2extent": 7321.2808, 
			 "electric_dipole_moment_norm": 1.73056393121, 
			 "electric_quadrupole_moment_norm": 14.8050469499, 
			 "total_energy": -3233.86250939, 
			 "HOMO_LUMO_gap": 0.16544, 
			 "cosmo_polarized_energy": -13.82, 
			 "cosmo_cavitation_energy": 30.91, 
			 "cosmo_dispersion_energy": -22.99, 
			 "cosmo_repulsion_energy": 1.8, 
			 "cosmo_total_nonelectrostatic_energy": 9.72, 
			 "SMD_solvation_energy": 3.37 
		},
		"coords": [
			{
				"x": -4.2834385127,
				"y": -1.582001411,
				"z": -0.1173601067,
				"element": "C" 
			},
			{
				"x": -3.0013708185,
				"y": -2.3000892334,
				"z": -0.5126788835,
				"element": "C" 
			},
			{
				"x": -1.8520186502,
				"y": -1.7378708566,
				"z": 0.1609935037,
				"element": "O" 
			},
			{
				"x": -1.2787894725,
				"y": -0.6558888527,
				"z": -0.4321315104,
				"element": "C" 
			},
			{
				"x": -1.6709821056,
				"y": -0.1621953502,
				"z": -1.4698191561,
				"element": "O" 
			},
			{
				"x": -0.1329477424,
				"y": -0.1887106791,
				"z": 0.3568385744,
				"element": "C" 
			},
			{
				"x": 0.7098018533,
				"y": 0.8985492821,
				"z": 0.0750073107,
				"element": "C" 
			},
			{
				"x": 0.7664855095,
				"y": 1.8089522995,
				"z": -0.9151665475,
				"element": "N" 
			},
			{
				"x": 1.7184828305,
				"y": 2.7154048971,
				"z": -0.860901097,
				"element": "C" 
			},
			{
				"x": 2.6794607208,
				"y": 2.7718828109,
				"z": 0.1893140757,
				"element": "C" 
			},
			{
				"x": 4.0190524059,
				"y": 4.1139638749,
				"z": 0.1879888816,
				"element": "Br" 
			},
			{
				"x": 2.6242388402,
				"y": 1.8472751206,
				"z": 1.1980947308,
				"element": "C" 
			},
			{
				"x": 1.6366045272,
				"y": 0.9166723012,
				"z": 1.1308242513,
				"element": "N" 
			},
			{
				"x": 1.4330551143,
				"y": -0.0686404624,
				"z": 2.0391080854,
				"element": "N" 
			},
			{
				"x": 0.370645521,
				"y": -0.7220426791,
				"z": 1.5615586922,
				"element": "C" 
			},
			{
				"x": -4.4218920204,
				"y": -1.5993425019,
				"z": 0.9677978474,
				"element": "H" 
			},
			{
				"x": -5.1441748885,
				"y": -2.0749844868,
				"z": -0.5817623289,
				"element": "H" 
			},
			{
				"x": -4.259848317,
				"y": -0.5432622557,
				"z": -0.4554761789,
				"element": "H" 
			},
			{
				"x": -3.0154805882,
				"y": -3.3467948938,
				"z": -0.1987060351,
				"element": "H" 
			},
			{
				"x": -2.8387350147,
				"y": -2.2467071131,
				"z": -1.5917891232,
				"element": "H" 
			},
			{
				"x": 1.7598923628,
				"y": 3.4482573888,
				"z": -1.6627873459,
				"element": "H" 
			},
			{
				"x": 3.2954231102,
				"y": 1.7894834176,
				"z": 2.0448728543,
				"element": "H" 
			},
			{
				"x": -0.0155646648,
				"y": -1.574410617,
				"z": 2.1024795058,
				"element": "H" 
			}
		],
		 "valence_orbital": [ 
			{
				"type": "occ",
				"energy": -0.29294,
				"method": "rhf"
			},
			{
				"type": "occ",
				"energy": -0.2843,
				"method": "rhf"
			},
			{
				"type": "occ",
				"energy": -0.27169,
				"method": "rhf"
			},
			{
				"type": "occ",
				"energy": -0.26608,
				"method": "rhf"
			},
			{
				"type": "occ",
				"energy": -0.24214,
				"method": "rhf"
			},
			{
				"type": "unocc",
				"energy": -0.0767,
				"method": "rhf"
			},
			{
				"type": "unocc",
				"energy": -0.03996,
				"method": "rhf"
			},
			{
				"type": "unocc",
				"energy": -0.01899,
				"method": "rhf"
			},
			{
				"type": "unocc",
				"energy": -0.00537,
				"method": "rhf"
			},
			{
				"type": "unocc",
				"energy": 0.07789,
				"method": "rhf"
			}
		],
		"cosmo_sigma_profile": { 
			"-0.025": 0.0,
			"-0.024": 0.0,
			"-0.023": 0.0,
			"-0.022": 0.0,
			"-0.021": 0.0,
			"-0.02": 0.0,
			"-0.019": 0.0,
			"-0.018": 0.0,
			"-0.017": 0.0,
			"-0.016": 0.0,
			"-0.015": 0.0,
			"-0.014": 0.0,
			"-0.013": 0.0,
			"-0.012": 1.01412712991,
			"-0.011": 1.56720081148,
			"-0.01": 1.59928379715,
			"-0.009": 3.40283515799,
			"-0.008": 5.12096878524,
			"-0.007": 4.80281630281,
			"-0.006": 8.40077211569,
			"-0.005": 13.6933749947,
			"-0.004": 20.4278934068,
			"-0.003": 24.7266579764,
			"-0.002": 24.258378613,
			"-0.001": 22.3662656569,
			"0.0": 26.001766089,
			"0.001": 16.7142364107,
			"0.002": 15.3046056117,
			"0.003": 15.5568944921,
			"0.004": 6.97847497656,
			"0.005": 4.94649594145,
			"0.006": 4.99379651828,
			"0.007": 3.47454518874,
			"0.008": 3.0754911224,
			"0.009": 3.68193737634,
			"0.01": 2.8830941021,
			"0.011": 3.37730556342,
			"0.012": 6.31001270006,
			"0.013": 2.7401044422,
			"0.014": 2.17565654227,
			"0.015": 1.42114680064,
			"0.016": 0.603440302804,
			"0.017": 0.0,
			"0.018": 0.0,
			"0.019": 0.0,
			"0.02": 0.0,
			"0.021": 0.0,
			"0.022": 0.0,
			"0.023": 0.0,
			"0.024": 0.0,
			"0.025": 0.0
		}
	}
}
