{
	 "smiles": "CN(C)C(=O)OC1=NC(=NC(C)=C1C)N(C)C", 
	 "Tm": 364.75, 
	 "num_atms": 35, 
	 "gaussian": { 
		 "optdone": 1, 
		 "sigma_profile": "yes", 
		 "theory": "DFT", 
		 "functional": "B3LYP", 
		 "basiset": "6-31G**", 
		 "properties": { 
			 "R2extent": 5520.8636, 
			 "electric_dipole_moment_norm": 2.12739049777, 
			 "electric_quadrupole_moment_norm": 10.6507166444, 
			 "total_energy": -799.512389716, 
			 "HOMO_LUMO_gap": 0.18292, 
			 "cosmo_polarized_energy": -12.1, 
			 "cosmo_cavitation_energy": 37.56, 
			 "cosmo_dispersion_energy": -26.45, 
			 "cosmo_repulsion_energy": 2.1, 
			 "cosmo_total_nonelectrostatic_energy": 13.2, 
			 "SMD_solvation_energy": 5.73 
		},
		"coords": [
			{
				"x": 2.7764331332,
				"y": 1.9001971361,
				"z": 1.7311881056,
				"element": "C" 
			},
			{
				"x": 2.430325562,
				"y": 0.6979233924,
				"z": 0.9897574102,
				"element": "N" 
			},
			{
				"x": 3.4354770419,
				"y": -0.3528832533,
				"z": 0.9418199395,
				"element": "C" 
			},
			{
				"x": 1.200338099,
				"y": 0.6252823312,
				"z": 0.4044114128,
				"element": "C" 
			},
			{
				"x": 0.3367990273,
				"y": 1.4810805973,
				"z": 0.4570260104,
				"element": "O" 
			},
			{
				"x": 1.0486613304,
				"y": -0.561461385,
				"z": -0.2816243908,
				"element": "O" 
			},
			{
				"x": -0.1938996608,
				"y": -0.8123779578,
				"z": -0.8566271227,
				"element": "C" 
			},
			{
				"x": -0.9046038461,
				"y": -1.7265020447,
				"z": -0.2274026255,
				"element": "N" 
			},
			{
				"x": -2.0841048025,
				"y": -2.0512588983,
				"z": -0.7964852933,
				"element": "C" 
			},
			{
				"x": -2.5681401934,
				"y": -1.4992296424,
				"z": -1.9271424807,
				"element": "N" 
			},
			{
				"x": -1.8141266254,
				"y": -0.579175652,
				"z": -2.5372512848,
				"element": "C" 
			},
			{
				"x": -2.3926606299,
				"y": 0.0179131518,
				"z": -3.7962946315,
				"element": "C" 
			},
			{
				"x": -0.5562286622,
				"y": -0.1778886802,
				"z": -2.0467919298,
				"element": "C" 
			},
			{
				"x": 0.3102209895,
				"y": 0.8581512516,
				"z": -2.7111314346,
				"element": "C" 
			},
			{
				"x": -2.8366351393,
				"y": -3.020687019,
				"z": -0.1840579509,
				"element": "N" 
			},
			{
				"x": -2.4441164382,
				"y": -3.5991847166,
				"z": 1.0883718992,
				"element": "C" 
			},
			{
				"x": -4.1616417144,
				"y": -3.3705701231,
				"z": -0.6632964381,
				"element": "C" 
			},
			{
				"x": 3.6678448752,
				"y": 2.3740679471,
				"z": 1.300655929,
				"element": "H" 
			},
			{
				"x": 2.9892507134,
				"y": 1.6570639753,
				"z": 2.7799145684,
				"element": "H" 
			},
			{
				"x": 1.9392963705,
				"y": 2.5943309909,
				"z": 1.6848819749,
				"element": "H" 
			},
			{
				"x": 4.3345023764,
				"y": -0.0040448917,
				"z": 0.4166684902,
				"element": "H" 
			},
			{
				"x": 3.7271159762,
				"y": -0.6394361882,
				"z": 1.9601788076,
				"element": "H" 
			},
			{
				"x": 3.0419856561,
				"y": -1.2267486985,
				"z": 0.4294945518,
				"element": "H" 
			},
			{
				"x": -3.3892223134,
				"y": -0.3909554344,
				"z": -3.9661709921,
				"element": "H" 
			},
			{
				"x": -1.7669801969,
				"y": -0.2082977102,
				"z": -4.6677435232,
				"element": "H" 
			},
			{
				"x": -2.460589728,
				"y": 1.1088624101,
				"z": -3.7241924815,
				"element": "H" 
			},
			{
				"x": 0.1497417001,
				"y": 0.884819641,
				"z": -3.7918649322,
				"element": "H" 
			},
			{
				"x": 0.1090922802,
				"y": 1.8589614087,
				"z": -2.3116965691,
				"element": "H" 
			},
			{
				"x": 1.3687984704,
				"y": 0.6470909909,
				"z": -2.5360936197,
				"element": "H" 
			},
			{
				"x": -1.4133546492,
				"y": -3.3308121319,
				"z": 1.3083318001,
				"element": "H" 
			},
			{
				"x": -3.0877842924,
				"y": -3.2374472492,
				"z": 1.9036854098,
				"element": "H" 
			},
			{
				"x": -2.5365164842,
				"y": -4.6914819142,
				"z": 1.044098123,
				"element": "H" 
			},
			{
				"x": -4.2598747984,
				"y": -4.4617288088,
				"z": -0.7219330891,
				"element": "H" 
			},
			{
				"x": -4.9405963863,
				"y": -2.9964701023,
				"z": 0.0173000202,
				"element": "H" 
			},
			{
				"x": -4.3160070411,
				"y": -2.9374027224,
				"z": -1.6487836631,
				"element": "H" 
			}
		],
		 "valence_orbital": [ 
			{
				"type": "occ",
				"energy": -0.27928,
				"method": "rhf"
			},
			{
				"type": "occ",
				"energy": -0.26775,
				"method": "rhf"
			},
			{
				"type": "occ",
				"energy": -0.24208,
				"method": "rhf"
			},
			{
				"type": "occ",
				"energy": -0.23737,
				"method": "rhf"
			},
			{
				"type": "occ",
				"energy": -0.19671,
				"method": "rhf"
			},
			{
				"type": "unocc",
				"energy": -0.01379,
				"method": "rhf"
			},
			{
				"type": "unocc",
				"energy": 0.01357,
				"method": "rhf"
			},
			{
				"type": "unocc",
				"energy": 0.05537,
				"method": "rhf"
			},
			{
				"type": "unocc",
				"energy": 0.09064,
				"method": "rhf"
			},
			{
				"type": "unocc",
				"energy": 0.10396,
				"method": "rhf"
			}
		],
		"cosmo_sigma_profile": { 
			"-0.025": 0.0,
			"-0.024": 0.0,
			"-0.023": 0.0,
			"-0.022": 0.0,
			"-0.021": 0.0,
			"-0.02": 0.0,
			"-0.019": 0.0,
			"-0.018": 0.0,
			"-0.017": 0.0,
			"-0.016": 0.0,
			"-0.015": 0.0,
			"-0.014": 0.0,
			"-0.013": 0.0,
			"-0.012": 0.0,
			"-0.011": 0.0,
			"-0.01": 0.0,
			"-0.009": 0.0,
			"-0.008": 0.0,
			"-0.007": 0.0,
			"-0.006": 0.556498738025,
			"-0.005": 18.2111504463,
			"-0.004": 31.9682027012,
			"-0.003": 39.2052166186,
			"-0.002": 44.4154550303,
			"-0.001": 37.2385084416,
			"0.0": 28.9497184941,
			"0.001": 21.5921483901,
			"0.002": 12.4811524938,
			"0.003": 9.5025943003,
			"0.004": 8.88173667824,
			"0.005": 6.65511674658,
			"0.006": 5.99217558735,
			"0.007": 5.59320072948,
			"0.008": 5.12577230565,
			"0.009": 4.55709212661,
			"0.01": 4.68417081834,
			"0.011": 2.93922272723,
			"0.012": 2.95638840513,
			"0.013": 4.07046007888,
			"0.014": 0.105430573255,
			"0.015": 0.0,
			"0.016": 0.0,
			"0.017": 0.0,
			"0.018": 0.0,
			"0.019": 0.0,
			"0.02": 0.0,
			"0.021": 0.0,
			"0.022": 0.0,
			"0.023": 0.0,
			"0.024": 0.0,
			"0.025": 0.0
		}
	}
}
