{
	 "smiles": "NC1=C(C=C(NC(=O)C2=CC=CC=C2)C=C1)C(F)(F)F", 
	 "Tm": 404.15, 
	 "num_atms": 31, 
	 "gaussian": { 
		 "optdone": 1, 
		 "sigma_profile": "yes", 
		 "theory": "DFT", 
		 "functional": "B3LYP", 
		 "basiset": "6-31G**", 
		 "properties": { 
			 "R2extent": 7604.3087, 
			 "electric_dipole_moment_norm": 4.52431006342, 
			 "electric_quadrupole_moment_norm": 6.16870332485, 
			 "total_energy": -1024.39234359, 
			 "HOMO_LUMO_gap": 0.17224, 
			 "cosmo_polarized_energy": -15.39, 
			 "cosmo_cavitation_energy": 36.77, 
			 "cosmo_dispersion_energy": -25.52, 
			 "cosmo_repulsion_energy": 1.91, 
			 "cosmo_total_nonelectrostatic_energy": 13.17, 
			 "SMD_solvation_energy": 7.74 
		},
		"coords": [
			{
				"x": 2.9655424463,
				"y": -2.4928458044,
				"z": -1.6372887584,
				"element": "N" 
			},
			{
				"x": 2.0290863135,
				"y": -1.4736460698,
				"z": -1.5780234668,
				"element": "C" 
			},
			{
				"x": 1.4867537899,
				"y": -0.8768295648,
				"z": -2.740744898,
				"element": "C" 
			},
			{
				"x": 0.5715990195,
				"y": 0.1729165401,
				"z": -2.6377530639,
				"element": "C" 
			},
			{
				"x": 0.1866068643,
				"y": 0.6810669738,
				"z": -1.3965616551,
				"element": "C" 
			},
			{
				"x": -0.7070123395,
				"y": 1.7862749296,
				"z": -1.346010276,
				"element": "N" 
			},
			{
				"x": -1.7018993356,
				"y": 2.0804178511,
				"z": -0.4285428071,
				"element": "C" 
			},
			{
				"x": -2.0619773097,
				"y": 3.2428782089,
				"z": -0.2753175223,
				"element": "O" 
			},
			{
				"x": -2.3657802084,
				"y": 0.9605532808,
				"z": 0.3188997212,
				"element": "C" 
			},
			{
				"x": -2.8996854586,
				"y": 1.2626003792,
				"z": 1.5797234381,
				"element": "C" 
			},
			{
				"x": -3.5870240344,
				"y": 0.2919609386,
				"z": 2.3049775504,
				"element": "C" 
			},
			{
				"x": -3.772243993,
				"y": -0.983189614,
				"z": 1.764598633,
				"element": "C" 
			},
			{
				"x": -3.267878981,
				"y": -1.2822708524,
				"z": 0.4971723543,
				"element": "C" 
			},
			{
				"x": -2.5622235413,
				"y": -0.3180775975,
				"z": -0.2224967891,
				"element": "C" 
			},
			{
				"x": 0.7432037799,
				"y": 0.1126215436,
				"z": -0.2416653092,
				"element": "C" 
			},
			{
				"x": 1.628203756,
				"y": -0.9517011379,
				"z": -0.333494927,
				"element": "C" 
			},
			{
				"x": 1.9115761384,
				"y": -1.3520518042,
				"z": -4.0996243628,
				"element": "C" 
			},
			{
				"x": 1.7618206787,
				"y": -2.7056936976,
				"z": -4.2315538122,
				"element": "F" 
			},
			{
				"x": 1.2017862956,
				"y": -0.7856530281,
				"z": -5.0942597276,
				"element": "F" 
			},
			{
				"x": 3.2181047097,
				"y": -1.1019488641,
				"z": -4.3447886197,
				"element": "F" 
			},
			{
				"x": 3.0912710578,
				"y": -3.0197901736,
				"z": -0.7857363739,
				"element": "H" 
			},
			{
				"x": 2.9625507523,
				"y": -3.0663118187,
				"z": -2.4675726929,
				"element": "H" 
			},
			{
				"x": 0.1519264433,
				"y": 0.5979360606,
				"z": -3.5425219938,
				"element": "H" 
			},
			{
				"x": -0.4257230749,
				"y": 2.618678502,
				"z": -1.8517486867,
				"element": "H" 
			},
			{
				"x": -2.7731825815,
				"y": 2.2677851525,
				"z": 1.9677293625,
				"element": "H" 
			},
			{
				"x": -3.9872996955,
				"y": 0.5316359742,
				"z": 3.2858181342,
				"element": "H" 
			},
			{
				"x": -4.3154107839,
				"y": -1.7385620721,
				"z": 2.3254825666,
				"element": "H" 
			},
			{
				"x": -3.4267613134,
				"y": -2.2664789554,
				"z": 0.0660761527,
				"element": "H" 
			},
			{
				"x": -2.1799376746,
				"y": -0.5552788055,
				"z": -1.2091494616,
				"element": "H" 
			},
			{
				"x": 0.4745889242,
				"y": 0.5041494458,
				"z": 0.7335946356,
				"element": "H" 
			},
			{
				"x": 2.0420193558,
				"y": -1.3831459206,
				"z": 0.5740826557,
				"element": "H" 
			}
		],
		 "valence_orbital": [ 
			{
				"type": "occ",
				"energy": -0.27342,
				"method": "rhf"
			},
			{
				"type": "occ",
				"energy": -0.26233,
				"method": "rhf"
			},
			{
				"type": "occ",
				"energy": -0.25639,
				"method": "rhf"
			},
			{
				"type": "occ",
				"energy": -0.24562,
				"method": "rhf"
			},
			{
				"type": "occ",
				"energy": -0.21084,
				"method": "rhf"
			},
			{
				"type": "unocc",
				"energy": -0.0386,
				"method": "rhf"
			},
			{
				"type": "unocc",
				"energy": -0.0305,
				"method": "rhf"
			},
			{
				"type": "unocc",
				"energy": -0.00888,
				"method": "rhf"
			},
			{
				"type": "unocc",
				"energy": -0.00104,
				"method": "rhf"
			},
			{
				"type": "unocc",
				"energy": 0.05376,
				"method": "rhf"
			}
		],
		"cosmo_sigma_profile": { 
			"-0.025": 0.0,
			"-0.024": 0.0,
			"-0.023": 0.0,
			"-0.022": 0.0,
			"-0.021": 0.0,
			"-0.02": 0.0,
			"-0.019": 0.0,
			"-0.018": 0.0,
			"-0.017": 0.0,
			"-0.016": 0.0,
			"-0.015": 0.0,
			"-0.014": 0.85219555664,
			"-0.013": 2.25975487224,
			"-0.012": 2.86368388576,
			"-0.011": 3.80501367119,
			"-0.01": 3.20333452632,
			"-0.009": 3.01101951862,
			"-0.008": 4.13345595144,
			"-0.007": 6.12456964595,
			"-0.006": 13.7186274254,
			"-0.005": 17.7306089491,
			"-0.004": 18.3046281648,
			"-0.003": 15.1804286552,
			"-0.002": 15.8562513586,
			"-0.001": 19.0382794836,
			"0.0": 20.244900347,
			"0.001": 20.8972061208,
			"0.002": 33.0402554335,
			"0.003": 39.744927947,
			"0.004": 20.697803106,
			"0.005": 9.44459547392,
			"0.006": 2.22335987513,
			"0.007": 2.38900614033,
			"0.008": 2.47971255144,
			"0.009": 2.17764137652,
			"0.01": 1.5237224706,
			"0.011": 2.7060641228,
			"0.012": 2.84146748296,
			"0.013": 5.20900634198,
			"0.014": 2.61726848415,
			"0.015": 0.0,
			"0.016": 0.0,
			"0.017": 0.0,
			"0.018": 0.0,
			"0.019": 0.0,
			"0.02": 0.0,
			"0.021": 0.0,
			"0.022": 0.0,
			"0.023": 0.0,
			"0.024": 0.0,
			"0.025": 0.0
		}
	}
}
