{
	 "smiles": "COC1=C(C=O)N2C=CSC2=N1", 
	 "Tm": 404.15, 
	 "num_atms": 18, 
	 "gaussian": { 
		 "optdone": 1, 
		 "sigma_profile": "yes", 
		 "theory": "DFT", 
		 "functional": "B3LYP", 
		 "basiset": "6-31G**", 
		 "properties": { 
			 "R2extent": 2834.392, 
			 "electric_dipole_moment_norm": 4.59352104055, 
			 "electric_quadrupole_moment_norm": 18.1671784323, 
			 "total_energy": -928.448861871, 
			 "HOMO_LUMO_gap": 0.17396, 
			 "cosmo_polarized_energy": -16.06, 
			 "cosmo_cavitation_energy": 24.88, 
			 "cosmo_dispersion_energy": -18.84, 
			 "cosmo_repulsion_energy": 1.44, 
			 "cosmo_total_nonelectrostatic_energy": 7.48, 
			 "SMD_solvation_energy": 5.19 
		},
		"coords": [
			{
				"x": 2.9716496721,
				"y": 0.3001268534,
				"z": 0.9563785127,
				"element": "C" 
			},
			{
				"x": 1.8194253625,
				"y": 0.7473084342,
				"z": 0.2299941349,
				"element": "O" 
			},
			{
				"x": 1.0050374324,
				"y": -0.1957050279,
				"z": -0.2349116082,
				"element": "C" 
			},
			{
				"x": -0.1678027396,
				"y": 0.0718389734,
				"z": -0.9672532021,
				"element": "C" 
			},
			{
				"x": -0.7935278603,
				"y": 1.2936827892,
				"z": -1.3997107804,
				"element": "C" 
			},
			{
				"x": -0.3729588357,
				"y": 2.4207377593,
				"z": -1.184460338,
				"element": "O" 
			},
			{
				"x": -0.6728552501,
				"y": -1.2177102375,
				"z": -1.2284768316,
				"element": "N" 
			},
			{
				"x": -1.7538130329,
				"y": -1.8056717887,
				"z": -1.8713817721,
				"element": "C" 
			},
			{
				"x": -1.7182786372,
				"y": -3.1559629059,
				"z": -1.7975511152,
				"element": "C" 
			},
			{
				"x": -0.3155291137,
				"y": -3.7479230517,
				"z": -0.9111170015,
				"element": "S" 
			},
			{
				"x": 0.1998405702,
				"y": -2.1020290374,
				"z": -0.657114819,
				"element": "C" 
			},
			{
				"x": 1.2257044749,
				"y": -1.525655772,
				"z": -0.0477834475,
				"element": "N" 
			},
			{
				"x": 3.6095486098,
				"y": -0.3279556695,
				"z": 0.3280148312,
				"element": "H" 
			},
			{
				"x": 3.4991766282,
				"y": 1.2087116061,
				"z": 1.2458652509,
				"element": "H" 
			},
			{
				"x": 2.6774862708,
				"y": -0.2693538449,
				"z": 1.8426096056,
				"element": "H" 
			},
			{
				"x": -1.7376210447,
				"y": 1.1393382486,
				"z": -1.9752745564,
				"element": "H" 
			},
			{
				"x": -2.502402895,
				"y": -1.1958088025,
				"z": -2.3557152951,
				"element": "H" 
			},
			{
				"x": -2.4331796118,
				"y": -3.8509685262,
				"z": -2.2109115683,
				"element": "H" 
			}
		],
		 "valence_orbital": [ 
			{
				"type": "occ",
				"energy": -0.32322,
				"method": "rhf"
			},
			{
				"type": "occ",
				"energy": -0.3051,
				"method": "rhf"
			},
			{
				"type": "occ",
				"energy": -0.24282,
				"method": "rhf"
			},
			{
				"type": "occ",
				"energy": -0.23954,
				"method": "rhf"
			},
			{
				"type": "occ",
				"energy": -0.21834,
				"method": "rhf"
			},
			{
				"type": "unocc",
				"energy": -0.04438,
				"method": "rhf"
			},
			{
				"type": "unocc",
				"energy": -0.01513,
				"method": "rhf"
			},
			{
				"type": "unocc",
				"energy": -0.00573,
				"method": "rhf"
			},
			{
				"type": "unocc",
				"energy": 0.03864,
				"method": "rhf"
			},
			{
				"type": "unocc",
				"energy": 0.06643,
				"method": "rhf"
			}
		],
		"cosmo_sigma_profile": { 
			"-0.025": 0.0,
			"-0.024": 0.0,
			"-0.023": 0.0,
			"-0.022": 0.0,
			"-0.021": 0.0,
			"-0.02": 0.0,
			"-0.019": 0.0,
			"-0.018": 0.0,
			"-0.017": 0.0,
			"-0.016": 0.0,
			"-0.015": 0.0,
			"-0.014": 0.0,
			"-0.013": 0.0,
			"-0.012": 0.0,
			"-0.011": 1.04640441368,
			"-0.01": 6.72602405866,
			"-0.009": 4.67977661474,
			"-0.008": 5.15695940782,
			"-0.007": 6.0675455007,
			"-0.006": 8.70982289636,
			"-0.005": 11.0358055608,
			"-0.004": 14.3634424669,
			"-0.003": 15.9050096578,
			"-0.002": 15.2036223093,
			"-0.001": 17.9562359426,
			"0.0": 17.0683645664,
			"0.001": 16.5274681828,
			"0.002": 12.9433195307,
			"0.003": 6.43501444554,
			"0.004": 4.15777966979,
			"0.005": 3.94311706457,
			"0.006": 2.61736814976,
			"0.007": 3.1510193806,
			"0.008": 3.50229562078,
			"0.009": 2.94249634941,
			"0.01": 4.02820260676,
			"0.011": 3.58096134546,
			"0.012": 4.99793618932,
			"0.013": 6.09798125304,
			"0.014": 3.64225037975,
			"0.015": 0.289015545947,
			"0.016": 0.0,
			"0.017": 0.0,
			"0.018": 0.0,
			"0.019": 0.0,
			"0.02": 0.0,
			"0.021": 0.0,
			"0.022": 0.0,
			"0.023": 0.0,
			"0.024": 0.0,
			"0.025": 0.0
		}
	}
}
