{
	 "smiles": "CC(=O)C1=CC=C2OCCOC2=C1", 
	 "Tm": 356.15, 
	 "num_atms": 23, 
	 "gaussian": { 
		 "optdone": 1, 
		 "sigma_profile": "yes", 
		 "theory": "DFT", 
		 "functional": "B3LYP", 
		 "basiset": "6-31G**", 
		 "properties": { 
			 "R2extent": 3153.2987, 
			 "electric_dipole_moment_norm": 4.87456661561, 
			 "electric_quadrupole_moment_norm": 13.3241918303, 
			 "total_energy": -612.747668252, 
			 "HOMO_LUMO_gap": 0.17471, 
			 "cosmo_polarized_energy": -11.4, 
			 "cosmo_cavitation_energy": 26.44, 
			 "cosmo_dispersion_energy": -19.94, 
			 "cosmo_repulsion_energy": 1.57, 
			 "cosmo_total_nonelectrostatic_energy": 8.07, 
			 "SMD_solvation_energy": 5.54 
		},
		"coords": [
			{
				"x": -2.8758926487,
				"y": -1.5570569692,
				"z": 2.7331068555,
				"element": "C" 
			},
			{
				"x": -3.3708034879,
				"y": -1.0963643726,
				"z": 1.3707497498,
				"element": "C" 
			},
			{
				"x": -4.5559096669,
				"y": -1.1855886933,
				"z": 1.081230756,
				"element": "O" 
			},
			{
				"x": -2.3860064328,
				"y": -0.5341503112,
				"z": 0.397261693,
				"element": "C" 
			},
			{
				"x": -2.856512342,
				"y": -0.104420364,
				"z": -0.8559087886,
				"element": "C" 
			},
			{
				"x": -1.9845272355,
				"y": 0.4344449659,
				"z": -1.7905737318,
				"element": "C" 
			},
			{
				"x": -0.622187518,
				"y": 0.5511802886,
				"z": -1.4951995678,
				"element": "C" 
			},
			{
				"x": 0.2021036849,
				"y": 1.1006242293,
				"z": -2.4387146956,
				"element": "O" 
			},
			{
				"x": 1.4944925188,
				"y": 1.4679889067,
				"z": -1.9496148964,
				"element": "C" 
			},
			{
				"x": 2.0502555646,
				"y": 0.3697122824,
				"z": -1.0582214874,
				"element": "C" 
			},
			{
				"x": 1.1980719142,
				"y": 0.1765082167,
				"z": 0.0702649935,
				"element": "O" 
			},
			{
				"x": -0.1361576634,
				"y": 0.1021690909,
				"z": -0.2534969876,
				"element": "C" 
			},
			{
				"x": -1.0175311922,
				"y": -0.4300617498,
				"z": 0.683385914,
				"element": "C" 
			},
			{
				"x": -2.1319226191,
				"y": -2.3551199032,
				"z": 2.6326793278,
				"element": "H" 
			},
			{
				"x": -3.7270983743,
				"y": -1.9272673321,
				"z": 3.3050975984,
				"element": "H" 
			},
			{
				"x": -2.400742965,
				"y": -0.7346766707,
				"z": 3.2791486407,
				"element": "H" 
			},
			{
				"x": -3.9160007368,
				"y": -0.1976569648,
				"z": -1.0659568778,
				"element": "H" 
			},
			{
				"x": -2.3306382752,
				"y": 0.7832905359,
				"z": -2.7582392567,
				"element": "H" 
			},
			{
				"x": 2.1238925042,
				"y": 1.6259440959,
				"z": -2.8288417224,
				"element": "H" 
			},
			{
				"x": 1.4230860307,
				"y": 2.4077930768,
				"z": -1.38609004,
				"element": "H" 
			},
			{
				"x": 2.1372610495,
				"y": -0.566226402,
				"z": -1.6271342784,
				"element": "H" 
			},
			{
				"x": 3.0330241552,
				"y": 0.639260116,
				"z": -0.6636312469,
				"element": "H" 
			},
			{
				"x": -0.6028562643,
				"y": -0.7615260721,
				"z": 1.6289980487,
				"element": "H" 
			}
		],
		 "valence_orbital": [ 
			{
				"type": "occ",
				"energy": -0.31573,
				"method": "rhf"
			},
			{
				"type": "occ",
				"energy": -0.31303,
				"method": "rhf"
			},
			{
				"type": "occ",
				"energy": -0.24486,
				"method": "rhf"
			},
			{
				"type": "occ",
				"energy": -0.24032,
				"method": "rhf"
			},
			{
				"type": "occ",
				"energy": -0.2195,
				"method": "rhf"
			},
			{
				"type": "unocc",
				"energy": -0.04479,
				"method": "rhf"
			},
			{
				"type": "unocc",
				"energy": -0.00159,
				"method": "rhf"
			},
			{
				"type": "unocc",
				"energy": 0.0516,
				"method": "rhf"
			},
			{
				"type": "unocc",
				"energy": 0.07728,
				"method": "rhf"
			},
			{
				"type": "unocc",
				"energy": 0.09706,
				"method": "rhf"
			}
		],
		"cosmo_sigma_profile": { 
			"-0.025": 0.0,
			"-0.024": 0.0,
			"-0.023": 0.0,
			"-0.022": 0.0,
			"-0.021": 0.0,
			"-0.02": 0.0,
			"-0.019": 0.0,
			"-0.018": 0.0,
			"-0.017": 0.0,
			"-0.016": 0.0,
			"-0.015": 0.0,
			"-0.014": 0.0,
			"-0.013": 0.0,
			"-0.012": 0.0,
			"-0.011": 0.0,
			"-0.01": 0.0,
			"-0.009": 0.0,
			"-0.008": 0.825054887196,
			"-0.007": 9.59816153074,
			"-0.006": 21.1425739948,
			"-0.005": 19.2651586954,
			"-0.004": 19.1035012482,
			"-0.003": 13.0410148345,
			"-0.002": 12.3944860773,
			"-0.001": 13.8184885365,
			"0.0": 11.5132169565,
			"0.001": 11.5270097872,
			"0.002": 13.1959719811,
			"0.003": 16.1535163028,
			"0.004": 12.8043929381,
			"0.005": 4.67225664624,
			"0.006": 4.43012843724,
			"0.007": 4.52748197613,
			"0.008": 3.24434171396,
			"0.009": 5.14356710678,
			"0.01": 3.88463094893,
			"0.011": 2.80648056376,
			"0.012": 4.1821354541,
			"0.013": 2.45554844307,
			"0.014": 0.446564405661,
			"0.015": 0.0,
			"0.016": 0.0,
			"0.017": 0.0,
			"0.018": 0.0,
			"0.019": 0.0,
			"0.02": 0.0,
			"0.021": 0.0,
			"0.022": 0.0,
			"0.023": 0.0,
			"0.024": 0.0,
			"0.025": 0.0
		}
	}
}
