{
	 "smiles": "COC1=CC=C(C=C1)C1=NOC(C)=C1C(O)=O", 
	 "Tm": 465.15, 
	 "num_atms": 28, 
	 "gaussian": { 
		 "optdone": 1, 
		 "sigma_profile": "yes", 
		 "theory": "DFT", 
		 "functional": "B3LYP", 
		 "basiset": "6-31G**", 
		 "properties": { 
			 "R2extent": 5312.5366, 
			 "electric_dipole_moment_norm": 3.10385554754, 
			 "electric_quadrupole_moment_norm": 12.4002048265, 
			 "total_energy": -819.516728036, 
			 "HOMO_LUMO_gap": 0.18217, 
			 "cosmo_polarized_energy": -14.34, 
			 "cosmo_cavitation_energy": 32.86, 
			 "cosmo_dispersion_energy": -24.02, 
			 "cosmo_repulsion_energy": 1.86, 
			 "cosmo_total_nonelectrostatic_energy": 10.71, 
			 "SMD_solvation_energy": 7.71 
		},
		"coords": [
			{
				"x": -2.8326108299,
				"y": -3.9119627789,
				"z": 0.4700505244,
				"element": "C" 
			},
			{
				"x": -2.183513745,
				"y": -3.21998306,
				"z": 1.5256605273,
				"element": "O" 
			},
			{
				"x": -1.4270015051,
				"y": -2.1299230203,
				"z": 1.2168648014,
				"element": "C" 
			},
			{
				"x": -1.2354749612,
				"y": -1.6340032481,
				"z": -0.0788495299,
				"element": "C" 
			},
			{
				"x": -0.4319045241,
				"y": -0.5112311933,
				"z": -0.2784503821,
				"element": "C" 
			},
			{
				"x": 0.191349826,
				"y": 0.134610142,
				"z": 0.7945855147,
				"element": "C" 
			},
			{
				"x": -0.0204655237,
				"y": -0.3689494374,
				"z": 2.092051101,
				"element": "C" 
			},
			{
				"x": -0.8127056586,
				"y": -1.4866074823,
				"z": 2.3026168261,
				"element": "C" 
			},
			{
				"x": 0.9881852705,
				"y": 1.3664375525,
				"z": 0.6214778874,
				"element": "C" 
			},
			{
				"x": 0.8278416421,
				"y": 2.3222213479,
				"z": 1.5134280317,
				"element": "N" 
			},
			{
				"x": 1.6921206529,
				"y": 3.363017933,
				"z": 1.1299200434,
				"element": "O" 
			},
			{
				"x": 2.3421605836,
				"y": 3.0262088567,
				"z": 0.0126978683,
				"element": "C" 
			},
			{
				"x": 3.2952508715,
				"y": 4.0280088568,
				"z": -0.5357607257,
				"element": "C" 
			},
			{
				"x": 1.9563600633,
				"y": 1.7619709856,
				"z": -0.3790216372,
				"element": "C" 
			},
			{
				"x": 2.5593462765,
				"y": 1.0547850776,
				"z": -1.5150827276,
				"element": "C" 
			},
			{
				"x": 2.2071030413,
				"y": -0.2498865809,
				"z": -1.5959614724,
				"element": "O" 
			},
			{
				"x": 3.3278307873,
				"y": 1.5555118502,
				"z": -2.3187768903,
				"element": "O" 
			},
			{
				"x": -3.5470252371,
				"y": -3.2672909643,
				"z": -0.0576898187,
				"element": "H" 
			},
			{
				"x": -3.3719767191,
				"y": -4.7368887389,
				"z": 0.9378289938,
				"element": "H" 
			},
			{
				"x": -2.1120416581,
				"y": -4.3157933376,
				"z": -0.2526691934,
				"element": "H" 
			},
			{
				"x": -1.7064326656,
				"y": -2.1056945961,
				"z": -0.9328780043,
				"element": "H" 
			},
			{
				"x": -0.2965319997,
				"y": -0.1363522724,
				"z": -1.2859451037,
				"element": "H" 
			},
			{
				"x": 0.4480044169,
				"y": 0.1292914995,
				"z": 2.9339750682,
				"element": "H" 
			},
			{
				"x": -0.9720407484,
				"y": -1.884671897,
				"z": 3.2992091746,
				"element": "H" 
			},
			{
				"x": 3.889507236,
				"y": 4.4642348559,
				"z": 0.2721525769,
				"element": "H" 
			},
			{
				"x": 3.9390330165,
				"y": 3.5561155724,
				"z": -1.2764065201,
				"element": "H" 
			},
			{
				"x": 2.7464083321,
				"y": 4.842500741,
				"z": -1.0226606429,
				"element": "H" 
			},
			{
				"x": 2.6854237591,
				"y": -0.5991766633,
				"z": -2.3666662912,
				"element": "H" 
			}
		],
		 "valence_orbital": [ 
			{
				"type": "occ",
				"energy": -0.29735,
				"method": "rhf"
			},
			{
				"type": "occ",
				"energy": -0.28177,
				"method": "rhf"
			},
			{
				"type": "occ",
				"energy": -0.26382,
				"method": "rhf"
			},
			{
				"type": "occ",
				"energy": -0.25383,
				"method": "rhf"
			},
			{
				"type": "occ",
				"energy": -0.21905,
				"method": "rhf"
			},
			{
				"type": "unocc",
				"energy": -0.03688,
				"method": "rhf"
			},
			{
				"type": "unocc",
				"energy": -0.02584,
				"method": "rhf"
			},
			{
				"type": "unocc",
				"energy": -0.00336,
				"method": "rhf"
			},
			{
				"type": "unocc",
				"energy": 0.02888,
				"method": "rhf"
			},
			{
				"type": "unocc",
				"energy": 0.07578,
				"method": "rhf"
			}
		],
		"cosmo_sigma_profile": { 
			"-0.025": 0.0,
			"-0.024": 0.0,
			"-0.023": 0.0,
			"-0.022": 0.0,
			"-0.021": 0.0,
			"-0.02": 0.0,
			"-0.019": 0.0244219415454,
			"-0.018": 0.820682716421,
			"-0.017": 0.865335415086,
			"-0.016": 0.891951099788,
			"-0.015": 0.898531576279,
			"-0.014": 0.559208968474,
			"-0.013": 0.834620436943,
			"-0.012": 0.463598679619,
			"-0.011": 0.746318948302,
			"-0.01": 0.448203834902,
			"-0.009": 0.761099901672,
			"-0.008": 0.872869845412,
			"-0.007": 4.63501553145,
			"-0.006": 16.3819208353,
			"-0.005": 22.3847130371,
			"-0.004": 20.9812216572,
			"-0.003": 24.6207406395,
			"-0.002": 22.6380913578,
			"-0.001": 18.1943432473,
			"0.0": 15.5263618065,
			"0.001": 9.97761210289,
			"0.002": 12.5712162763,
			"0.003": 15.2906942525,
			"0.004": 16.1413609209,
			"0.005": 12.4631016179,
			"0.006": 7.61838350102,
			"0.007": 8.27107913916,
			"0.008": 8.03484347775,
			"0.009": 5.00374129342,
			"0.01": 4.38161482373,
			"0.011": 4.86233707947,
			"0.012": 2.96827885173,
			"0.013": 1.08683959628,
			"0.014": 0.301588909332,
			"0.015": 0.0,
			"0.016": 0.0,
			"0.017": 0.0,
			"0.018": 0.0,
			"0.019": 0.0,
			"0.02": 0.0,
			"0.021": 0.0,
			"0.022": 0.0,
			"0.023": 0.0,
			"0.024": 0.0,
			"0.025": 0.0
		}
	}
}
