{
	 "smiles": "NS(=O)(=O)C1=CC2=C(CCC2)N=C1", 
	 "Tm": 462.15, 
	 "num_atms": 23, 
	 "gaussian": { 
		 "optdone": 1, 
		 "sigma_profile": "yes", 
		 "theory": "DFT", 
		 "functional": "B3LYP", 
		 "basiset": "6-31G**", 
		 "properties": { 
			 "R2extent": 3912.6384, 
			 "electric_dipole_moment_norm": 6.14685252955, 
			 "electric_quadrupole_moment_norm": 24.9735301361, 
			 "total_energy": -968.949500369, 
			 "HOMO_LUMO_gap": 0.21187, 
			 "cosmo_polarized_energy": -19.54, 
			 "cosmo_cavitation_energy": 27.65, 
			 "cosmo_dispersion_energy": -21.19, 
			 "cosmo_repulsion_energy": 1.64, 
			 "cosmo_total_nonelectrostatic_energy": 8.1, 
			 "SMD_solvation_energy": 2.2 
		},
		"coords": [
			{
				"x": -2.0257559956,
				"y": 2.6323766327,
				"z": -2.0520534402,
				"element": "N" 
			},
			{
				"x": -0.5746485619,
				"y": 2.1975313253,
				"z": -2.7797917782,
				"element": "S" 
			},
			{
				"x": -0.9452252553,
				"y": 1.5115804037,
				"z": -4.0164597173,
				"element": "O" 
			},
			{
				"x": 0.2558715678,
				"y": 3.3989703545,
				"z": -2.7481007773,
				"element": "O" 
			},
			{
				"x": 0.202719845,
				"y": 0.9783718945,
				"z": -1.7135458345,
				"element": "C" 
			},
			{
				"x": -0.0035521057,
				"y": -0.3860393504,
				"z": -1.951702788,
				"element": "C" 
			},
			{
				"x": 0.6030032194,
				"y": -1.2761491809,
				"z": -1.0760233265,
				"element": "C" 
			},
			{
				"x": 1.3789104407,
				"y": -0.7600685215,
				"z": -0.0227438416,
				"element": "C" 
			},
			{
				"x": 1.9638309469,
				"y": -1.8784898447,
				"z": 0.8088428237,
				"element": "C" 
			},
			{
				"x": 1.1235214452,
				"y": -3.1085430929,
				"z": 0.3837569469,
				"element": "C" 
			},
			{
				"x": 0.6130660691,
				"y": -2.786728198,
				"z": -1.0487774885,
				"element": "C" 
			},
			{
				"x": 1.596796556,
				"y": 0.5377217053,
				"z": 0.1980558025,
				"element": "N" 
			},
			{
				"x": 1.0104544256,
				"y": 1.3946211418,
				"z": -0.6501244024,
				"element": "C" 
			},
			{
				"x": -1.8991474611,
				"y": 3.1161599111,
				"z": -1.1688575326,
				"element": "H" 
			},
			{
				"x": -2.6919008308,
				"y": 1.8684461584,
				"z": -2.0015412539,
				"element": "H" 
			},
			{
				"x": -0.6012224687,
				"y": -0.7081835773,
				"z": -2.7991871812,
				"element": "H" 
			},
			{
				"x": 3.0244211611,
				"y": -2.0063098847,
				"z": 0.552062142,
				"element": "H" 
			},
			{
				"x": 1.9216644149,
				"y": -1.6645248589,
				"z": 1.880445055,
				"element": "H" 
			},
			{
				"x": 0.2652634881,
				"y": -3.2109766235,
				"z": 1.0568018535,
				"element": "H" 
			},
			{
				"x": 1.6856839196,
				"y": -4.0445420516,
				"z": 0.4274705574,
				"element": "H" 
			},
			{
				"x": 1.3066983223,
				"y": -3.1701970504,
				"z": -1.8096089817,
				"element": "H" 
			},
			{
				"x": -0.3649016449,
				"y": -3.2303301116,
				"z": -1.2612510883,
				"element": "H" 
			},
			{
				"x": 1.2001485026,
				"y": 2.453302819,
				"z": -0.4923657489,
				"element": "H" 
			}
		],
		 "valence_orbital": [ 
			{
				"type": "occ",
				"energy": -0.3107,
				"method": "rhf"
			},
			{
				"type": "occ",
				"energy": -0.30703,
				"method": "rhf"
			},
			{
				"type": "occ",
				"energy": -0.29525,
				"method": "rhf"
			},
			{
				"type": "occ",
				"energy": -0.26656,
				"method": "rhf"
			},
			{
				"type": "occ",
				"energy": -0.26205,
				"method": "rhf"
			},
			{
				"type": "unocc",
				"energy": -0.05018,
				"method": "rhf"
			},
			{
				"type": "unocc",
				"energy": -0.03605,
				"method": "rhf"
			},
			{
				"type": "unocc",
				"energy": 0.04975,
				"method": "rhf"
			},
			{
				"type": "unocc",
				"energy": 0.07842,
				"method": "rhf"
			},
			{
				"type": "unocc",
				"energy": 0.08183,
				"method": "rhf"
			}
		],
		"cosmo_sigma_profile": { 
			"-0.025": 0.0,
			"-0.024": 0.0,
			"-0.023": 0.0,
			"-0.022": 0.0,
			"-0.021": 0.0,
			"-0.02": 0.0,
			"-0.019": 0.0,
			"-0.018": 0.0,
			"-0.017": 0.0,
			"-0.016": 0.229890695687,
			"-0.015": 2.34748740047,
			"-0.014": 3.21102918663,
			"-0.013": 2.54162220598,
			"-0.012": 3.41336968824,
			"-0.011": 2.6284191389,
			"-0.01": 2.37843992516,
			"-0.009": 1.90590629895,
			"-0.008": 1.86188570238,
			"-0.007": 4.57580424436,
			"-0.006": 5.38003835231,
			"-0.005": 8.32446370437,
			"-0.004": 17.064580066,
			"-0.003": 24.0790285256,
			"-0.002": 21.5199879939,
			"-0.001": 18.3580733257,
			"0.0": 21.8960898771,
			"0.001": 10.3621513072,
			"0.002": 4.30761203264,
			"0.003": 4.75330498437,
			"0.004": 3.88853342369,
			"0.005": 4.10818809231,
			"0.006": 4.47162213651,
			"0.007": 5.48373838895,
			"0.008": 6.89398033312,
			"0.009": 4.72853437125,
			"0.01": 9.18384954879,
			"0.011": 11.7867592002,
			"0.012": 4.71719772516,
			"0.013": 0.423207820917,
			"0.014": 1.09229988757,
			"0.015": 0.926640124857,
			"0.016": 0.25635262682,
			"0.017": 0.0,
			"0.018": 0.0,
			"0.019": 0.0,
			"0.02": 0.0,
			"0.021": 0.0,
			"0.022": 0.0,
			"0.023": 0.0,
			"0.024": 0.0,
			"0.025": 0.0
		}
	}
}
