{
	 "smiles": "CC1=CC(C)=NC(Cl)=N1", 
	 "Tm": 308.15, 
	 "num_atms": 16, 
	 "gaussian": { 
		 "optdone": 1, 
		 "sigma_profile": "yes", 
		 "theory": "DFT", 
		 "functional": "B3LYP", 
		 "basiset": "6-31G**", 
		 "properties": { 
			 "R2extent": 1665.5496, 
			 "electric_dipole_moment_norm": 4.48828642357, 
			 "electric_quadrupole_moment_norm": 4.64504113868, 
			 "total_energy": -802.564692815, 
			 "HOMO_LUMO_gap": 0.21934, 
			 "cosmo_polarized_energy": -8.72, 
			 "cosmo_cavitation_energy": 21.9, 
			 "cosmo_dispersion_energy": -16.47, 
			 "cosmo_repulsion_energy": 1.38, 
			 "cosmo_total_nonelectrostatic_energy": 6.81, 
			 "SMD_solvation_energy": 1.04 
		},
		"coords": [
			{
				"x": -0.132081073,
				"y": -2.5063326438,
				"z": 1.8925469193,
				"element": "C" 
			},
			{
				"x": -0.4952636724,
				"y": -1.2022944511,
				"z": 1.2339191203,
				"element": "C" 
			},
			{
				"x": -1.3345816103,
				"y": -0.2685984079,
				"z": 1.8467523551,
				"element": "C" 
			},
			{
				"x": -1.6163506354,
				"y": 0.9148452092,
				"z": 1.1598258649,
				"element": "C" 
			},
			{
				"x": -2.5087522681,
				"y": 1.9818416825,
				"z": 1.7354488053,
				"element": "C" 
			},
			{
				"x": -1.0926790511,
				"y": 1.1464218042,
				"z": -0.0583588592,
				"element": "N" 
			},
			{
				"x": -0.3118079142,
				"y": 0.1894906261,
				"z": -0.538931855,
				"element": "C" 
			},
			{
				"x": 0.3717817491,
				"y": 0.4958435483,
				"z": -2.1297148627,
				"element": "Cl" 
			},
			{
				"x": 0.0258750761,
				"y": -0.9659014642,
				"z": 0.0155751289,
				"element": "N" 
			},
			{
				"x": -1.0284135878,
				"y": -3.1007002513,
				"z": 2.1012636424,
				"element": "H" 
			},
			{
				"x": 0.372221703,
				"y": -2.3326948144,
				"z": 2.8495088419,
				"element": "H" 
			},
			{
				"x": 0.5295309967,
				"y": -3.0780683152,
				"z": 1.2409272134,
				"element": "H" 
			},
			{
				"x": -1.7559140458,
				"y": -0.4573028726,
				"z": 2.8291187453,
				"element": "H" 
			},
			{
				"x": -3.5100786986,
				"y": 1.5857196664,
				"z": 1.9371548427,
				"element": "H" 
			},
			{
				"x": -2.5902184938,
				"y": 2.8134643254,
				"z": 1.034744732,
				"element": "H" 
			},
			{
				"x": -2.1093684745,
				"y": 2.3534663583,
				"z": 2.6855193653,
				"element": "H" 
			}
		],
		 "valence_orbital": [ 
			{
				"type": "occ",
				"energy": -0.31567,
				"method": "rhf"
			},
			{
				"type": "occ",
				"energy": -0.3112,
				"method": "rhf"
			},
			{
				"type": "occ",
				"energy": -0.31009,
				"method": "rhf"
			},
			{
				"type": "occ",
				"energy": -0.26846,
				"method": "rhf"
			},
			{
				"type": "occ",
				"energy": -0.26139,
				"method": "rhf"
			},
			{
				"type": "unocc",
				"energy": -0.04205,
				"method": "rhf"
			},
			{
				"type": "unocc",
				"energy": -0.03518,
				"method": "rhf"
			},
			{
				"type": "unocc",
				"energy": 0.04383,
				"method": "rhf"
			},
			{
				"type": "unocc",
				"energy": 0.10003,
				"method": "rhf"
			},
			{
				"type": "unocc",
				"energy": 0.10566,
				"method": "rhf"
			}
		],
		"cosmo_sigma_profile": { 
			"-0.025": 0.0,
			"-0.024": 0.0,
			"-0.023": 0.0,
			"-0.022": 0.0,
			"-0.021": 0.0,
			"-0.02": 0.0,
			"-0.019": 0.0,
			"-0.018": 0.0,
			"-0.017": 0.0,
			"-0.016": 0.0,
			"-0.015": 0.0,
			"-0.014": 0.0,
			"-0.013": 0.0,
			"-0.012": 0.0,
			"-0.011": 0.0,
			"-0.01": 0.0,
			"-0.009": 0.0,
			"-0.008": 1.11504405368,
			"-0.007": 2.1149521489,
			"-0.006": 7.81880366001,
			"-0.005": 14.8316828591,
			"-0.004": 14.9022968817,
			"-0.003": 15.3551860306,
			"-0.002": 21.2101948644,
			"-0.001": 23.9429000173,
			"0.0": 12.9340794451,
			"0.001": 8.22749245882,
			"0.002": 6.29615719976,
			"0.003": 8.01043274968,
			"0.004": 11.4410616834,
			"0.005": 7.72456675824,
			"0.006": 4.72327966401,
			"0.007": 3.33542647865,
			"0.008": 2.49018624332,
			"0.009": 2.50431020047,
			"0.01": 2.36618794299,
			"0.011": 1.1598344599,
			"0.012": 2.40527192372,
			"0.013": 1.22300954892,
			"0.014": 0.813597372428,
			"0.015": 0.0,
			"0.016": 0.0,
			"0.017": 0.0,
			"0.018": 0.0,
			"0.019": 0.0,
			"0.02": 0.0,
			"0.021": 0.0,
			"0.022": 0.0,
			"0.023": 0.0,
			"0.024": 0.0,
			"0.025": 0.0
		}
	}
}
