{
	 "smiles": "COC(=O)C1=CC(I)=CN=C1", 
	 "Tm": 353.15, 
	 "num_atms": 17, 
	 "gaussian": { 
		 "optdone": 1, 
		 "sigma_profile": "yes", 
		 "theory": "DFT", 
		 "functional": "B3LYP", 
		 "basiset": "6-31G**", 
		 "properties": { 
			 "R2extent": 3462.3781, 
			 "electric_dipole_moment_norm": 2.76082325041, 
			 "electric_quadrupole_moment_norm": 9.94792800688, 
			 "total_energy": -486.945282498, 
			 "HOMO_LUMO_gap": 0.18853, 
			 "cosmo_polarized_energy": -8.27, 
			 "cosmo_cavitation_energy": 25.37, 
			 "cosmo_dispersion_energy": -20.03, 
			 "cosmo_repulsion_energy": 1.58, 
			 "cosmo_total_nonelectrostatic_energy": 6.91, 
			 "SMD_solvation_energy": 3.75 
		},
		"coords": [
			{
				"x": 1.2145429947,
				"y": -2.2009601479,
				"z": -0.2040408434,
				"element": "C" 
			},
			{
				"x": 1.0700347748,
				"y": -0.7768191455,
				"z": -0.3441094304,
				"element": "O" 
			},
			{
				"x": 2.1395704498,
				"y": -0.1373120286,
				"z": -0.8623866105,
				"element": "C" 
			},
			{
				"x": 3.1638926048,
				"y": -0.6977910581,
				"z": -1.1955767438,
				"element": "O" 
			},
			{
				"x": 1.9153478802,
				"y": 1.332905956,
				"z": -0.9769550358,
				"element": "C" 
			},
			{
				"x": 0.7228355519,
				"y": 1.9518384867,
				"z": -0.5841800066,
				"element": "C" 
			},
			{
				"x": 0.6237610489,
				"y": 3.331614083,
				"z": -0.7364422336,
				"element": "C" 
			},
			{
				"x": -1.1387782539,
				"y": 4.3564625886,
				"z": -0.1711238799,
				"element": "I" 
			},
			{
				"x": 1.7045468163,
				"y": 4.0435719642,
				"z": -1.269578267,
				"element": "C" 
			},
			{
				"x": 2.8440864315,
				"y": 3.4526618576,
				"z": -1.6449417328,
				"element": "N" 
			},
			{
				"x": 2.9424100932,
				"y": 2.1286241308,
				"z": -1.500142489,
				"element": "C" 
			},
			{
				"x": 2.0500685259,
				"y": -2.4370084343,
				"z": 0.4592294894,
				"element": "H" 
			},
			{
				"x": 1.3932472291,
				"y": -2.6645861689,
				"z": -1.1771110174,
				"element": "H" 
			},
			{
				"x": 0.2745237558,
				"y": -2.5503233452,
				"z": 0.221868248,
				"element": "H" 
			},
			{
				"x": -0.089141889,
				"y": 1.362951043,
				"z": -0.1760724969,
				"element": "H" 
			},
			{
				"x": 1.6483920393,
				"y": 5.1216741047,
				"z": -1.3970859033,
				"element": "H" 
			},
			{
				"x": 3.8730599468,
				"y": 1.6606961138,
				"z": -1.808751047,
				"element": "H" 
			}
		],
		 "valence_orbital": [ 
			{
				"type": "occ",
				"energy": -0.298,
				"method": "rhf"
			},
			{
				"type": "occ",
				"energy": -0.29283,
				"method": "rhf"
			},
			{
				"type": "occ",
				"energy": -0.28401,
				"method": "rhf"
			},
			{
				"type": "occ",
				"energy": -0.26934,
				"method": "rhf"
			},
			{
				"type": "occ",
				"energy": -0.2574,
				"method": "rhf"
			},
			{
				"type": "unocc",
				"energy": -0.06887,
				"method": "rhf"
			},
			{
				"type": "unocc",
				"energy": -0.05073,
				"method": "rhf"
			},
			{
				"type": "unocc",
				"energy": -0.04372,
				"method": "rhf"
			},
			{
				"type": "unocc",
				"energy": 0.02968,
				"method": "rhf"
			},
			{
				"type": "unocc",
				"energy": 0.03838,
				"method": "rhf"
			}
		],
		"cosmo_sigma_profile": { 
			"-0.025": 0.0,
			"-0.024": 0.0,
			"-0.023": 0.0,
			"-0.022": 0.0,
			"-0.021": 0.0,
			"-0.02": 0.0,
			"-0.019": 0.0,
			"-0.018": 0.0,
			"-0.017": 0.0,
			"-0.016": 0.0,
			"-0.015": 0.0,
			"-0.014": 0.0,
			"-0.013": 0.0,
			"-0.012": 0.0,
			"-0.011": 0.0,
			"-0.01": 0.0,
			"-0.009": 0.0,
			"-0.008": 2.26675906532,
			"-0.007": 6.02637927954,
			"-0.006": 11.5263583411,
			"-0.005": 13.1075403585,
			"-0.004": 18.0472846871,
			"-0.003": 17.5324651898,
			"-0.002": 18.6043239092,
			"-0.001": 22.4618220438,
			"0.0": 19.4726829233,
			"0.001": 13.5406847727,
			"0.002": 10.4209847617,
			"0.003": 15.8319392618,
			"0.004": 13.1782396837,
			"0.005": 3.62168732882,
			"0.006": 2.72520975668,
			"0.007": 2.79639256824,
			"0.008": 2.17340393978,
			"0.009": 2.53730480233,
			"0.01": 3.56761544119,
			"0.011": 4.6860743685,
			"0.012": 2.56369976974,
			"0.013": 1.05358143174,
			"0.014": 0.680327588566,
			"0.015": 0.571534839921,
			"0.016": 0.0,
			"0.017": 0.0,
			"0.018": 0.0,
			"0.019": 0.0,
			"0.02": 0.0,
			"0.021": 0.0,
			"0.022": 0.0,
			"0.023": 0.0,
			"0.024": 0.0,
			"0.025": 0.0
		}
	}
}
