{
	 "smiles": "NCC1=NN=C2C=CC=CN12", 
	 "Tm": 405.15, 
	 "num_atms": 19, 
	 "gaussian": { 
		 "optdone": 1, 
		 "sigma_profile": "yes", 
		 "theory": "DFT", 
		 "functional": "B3LYP", 
		 "basiset": "6-31G**", 
		 "properties": { 
			 "R2extent": 2174.7116, 
			 "electric_dipole_moment_norm": 6.39651882277, 
			 "electric_quadrupole_moment_norm": 14.3599969262, 
			 "total_energy": -490.530744174, 
			 "HOMO_LUMO_gap": 0.17239, 
			 "cosmo_polarized_energy": -21.35, 
			 "cosmo_cavitation_energy": 23.05, 
			 "cosmo_dispersion_energy": -17.14, 
			 "cosmo_repulsion_energy": 1.37, 
			 "cosmo_total_nonelectrostatic_energy": 7.28, 
			 "SMD_solvation_energy": 0.7 
		},
		"coords": [
			{
				"x": 1.5470362779,
				"y": 1.4703897421,
				"z": -1.8582259275,
				"element": "N" 
			},
			{
				"x": 2.4865822889,
				"y": 1.2880839342,
				"z": -0.7401464548,
				"element": "C" 
			},
			{
				"x": 1.7902826584,
				"y": 0.9052434105,
				"z": 0.5257587504,
				"element": "C" 
			},
			{
				"x": 1.5853721797,
				"y": 1.6895448593,
				"z": 1.5676660831,
				"element": "N" 
			},
			{
				"x": 0.9171181396,
				"y": 0.9987725916,
				"z": 2.5358001427,
				"element": "N" 
			},
			{
				"x": 0.7142555393,
				"y": -0.2269019691,
				"z": 2.0705309025,
				"element": "C" 
			},
			{
				"x": 0.0795971931,
				"y": -1.3597082013,
				"z": 2.6427546937,
				"element": "C" 
			},
			{
				"x": 0.0289129969,
				"y": -2.5265185352,
				"z": 1.9270692681,
				"element": "C" 
			},
			{
				"x": 0.6096321482,
				"y": -2.605188535,
				"z": 0.6213168355,
				"element": "C" 
			},
			{
				"x": 1.2153206296,
				"y": -1.5174813044,
				"z": 0.0669507711,
				"element": "C" 
			},
			{
				"x": 1.2592788115,
				"y": -0.3410773996,
				"z": 0.7846564746,
				"element": "N" 
			},
			{
				"x": 2.0494526129,
				"y": 1.8366144827,
				"z": -2.6629619032,
				"element": "H" 
			},
			{
				"x": 1.1527325754,
				"y": 0.579018976,
				"z": -2.148550014,
				"element": "H" 
			},
			{
				"x": 3.2957138102,
				"y": 0.5614779718,
				"z": -0.9414168914,
				"element": "H" 
			},
			{
				"x": 2.9650110468,
				"y": 2.2494971376,
				"z": -0.5380034282,
				"element": "H" 
			},
			{
				"x": -0.3446322996,
				"y": -1.2625050601,
				"z": 3.6351582477,
				"element": "H" 
			},
			{
				"x": -0.4520526094,
				"y": -3.4041070895,
				"z": 2.3461013541,
				"element": "H" 
			},
			{
				"x": 0.5737696171,
				"y": -3.5317083774,
				"z": 0.0598882905,
				"element": "H" 
			},
			{
				"x": 1.6772163834,
				"y": -1.5115466342,
				"z": -0.9127471949,
				"element": "H" 
			}
		],
		 "valence_orbital": [ 
			{
				"type": "occ",
				"energy": -0.30766,
				"method": "rhf"
			},
			{
				"type": "occ",
				"energy": -0.27075,
				"method": "rhf"
			},
			{
				"type": "occ",
				"energy": -0.24908,
				"method": "rhf"
			},
			{
				"type": "occ",
				"energy": -0.24585,
				"method": "rhf"
			},
			{
				"type": "occ",
				"energy": -0.22159,
				"method": "rhf"
			},
			{
				"type": "unocc",
				"energy": -0.0492,
				"method": "rhf"
			},
			{
				"type": "unocc",
				"energy": -0.00696,
				"method": "rhf"
			},
			{
				"type": "unocc",
				"energy": 0.03746,
				"method": "rhf"
			},
			{
				"type": "unocc",
				"energy": 0.06718,
				"method": "rhf"
			},
			{
				"type": "unocc",
				"energy": 0.09452,
				"method": "rhf"
			}
		],
		"cosmo_sigma_profile": { 
			"-0.025": 0.0,
			"-0.024": 0.0,
			"-0.023": 0.0,
			"-0.022": 0.0,
			"-0.021": 0.0,
			"-0.02": 0.0,
			"-0.019": 0.0,
			"-0.018": 0.0,
			"-0.017": 0.0,
			"-0.016": 0.0,
			"-0.015": 0.0,
			"-0.014": 0.0,
			"-0.013": 0.0,
			"-0.012": 0.0,
			"-0.011": 0.675345541853,
			"-0.01": 5.36553173232,
			"-0.009": 5.88668604957,
			"-0.008": 7.48867881315,
			"-0.007": 13.732805913,
			"-0.006": 12.7536958574,
			"-0.005": 12.5251204186,
			"-0.004": 11.4642423691,
			"-0.003": 13.0926321023,
			"-0.002": 11.6948605251,
			"-0.001": 8.88153552812,
			"0.0": 9.51409736741,
			"0.001": 10.4917603429,
			"0.002": 11.9358077864,
			"0.003": 5.64645903828,
			"0.004": 2.97215810416,
			"0.005": 2.11314474611,
			"0.006": 2.73305747582,
			"0.007": 2.94859959428,
			"0.008": 2.40690095645,
			"0.009": 2.69162299185,
			"0.01": 2.78763021964,
			"0.011": 3.56804487165,
			"0.012": 2.61805209815,
			"0.013": 3.52917736494,
			"0.014": 4.52803403415,
			"0.015": 2.90376099448,
			"0.016": 3.8816522466,
			"0.017": 1.8599913356,
			"0.018": 0.744279054843,
			"0.019": 0.424023360735,
			"0.02": 0.0132521040235,
			"0.021": 0.0,
			"0.022": 0.0,
			"0.023": 0.0,
			"0.024": 0.0,
			"0.025": 0.0
		}
	}
}
