{
	 "smiles": "NC1=C(F)C=C(O)C=C1F", 
	 "Tm": 422.15, 
	 "num_atms": 15, 
	 "gaussian": { 
		 "optdone": 1, 
		 "sigma_profile": "yes", 
		 "theory": "DFT", 
		 "functional": "B3LYP", 
		 "basiset": "6-31G**", 
		 "properties": { 
			 "R2extent": 2243.3179, 
			 "electric_dipole_moment_norm": 1.7476202734, 
			 "electric_quadrupole_moment_norm": 11.2811378597, 
			 "total_energy": -561.286817851, 
			 "HOMO_LUMO_gap": 0.19712, 
			 "cosmo_polarized_energy": -10.57, 
			 "cosmo_cavitation_energy": 20.24, 
			 "cosmo_dispersion_energy": -15.07, 
			 "cosmo_repulsion_energy": 1.18, 
			 "cosmo_total_nonelectrostatic_energy": 6.36, 
			 "SMD_solvation_energy": 4.69 
		},
		"coords": [
			{
				"x": -0.8760353679,
				"y": -2.0017979387,
				"z": 0.7814190487,
				"element": "N" 
			},
			{
				"x": -1.1137402929,
				"y": -0.6343789749,
				"z": 0.9435264543,
				"element": "C" 
			},
			{
				"x": -0.1173634009,
				"y": 0.2550895656,
				"z": 1.363435997,
				"element": "C" 
			},
			{
				"x": 1.1275754347,
				"y": -0.2571862765,
				"z": 1.5240283041,
				"element": "F" 
			},
			{
				"x": -0.334681425,
				"y": 1.6023224613,
				"z": 1.6010042831,
				"element": "C" 
			},
			{
				"x": -1.6216434906,
				"y": 2.1183470246,
				"z": 1.4157403853,
				"element": "C" 
			},
			{
				"x": -1.804920455,
				"y": 3.4515534554,
				"z": 1.6615363159,
				"element": "O" 
			},
			{
				"x": -2.6544974347,
				"y": 1.2777880517,
				"z": 0.9887739566,
				"element": "C" 
			},
			{
				"x": -2.3762742146,
				"y": -0.0649428659,
				"z": 0.7666003857,
				"element": "C" 
			},
			{
				"x": -3.3681250178,
				"y": -0.8848559807,
				"z": 0.3381911332,
				"element": "F" 
			},
			{
				"x": 0.0894897799,
				"y": -2.2150532174,
				"z": 0.5688660103,
				"element": "H" 
			},
			{
				"x": -1.5180725163,
				"y": -2.4451350429,
				"z": 0.1379211649,
				"element": "H" 
			},
			{
				"x": 0.4782287054,
				"y": 2.2410391763,
				"z": 1.9236467017,
				"element": "H" 
			},
			{
				"x": -2.7303992176,
				"y": 3.6782362893,
				"z": 1.5060191469,
				"element": "H" 
			},
			{
				"x": -3.6641410868,
				"y": 1.6411742729,
				"z": 0.8249907124,
				"element": "H" 
			}
		],
		 "valence_orbital": [ 
			{
				"type": "occ",
				"energy": -0.3636,
				"method": "rhf"
			},
			{
				"type": "occ",
				"energy": -0.352,
				"method": "rhf"
			},
			{
				"type": "occ",
				"energy": -0.29068,
				"method": "rhf"
			},
			{
				"type": "occ",
				"energy": -0.24618,
				"method": "rhf"
			},
			{
				"type": "occ",
				"energy": -0.19586,
				"method": "rhf"
			},
			{
				"type": "unocc",
				"energy": 0.00126,
				"method": "rhf"
			},
			{
				"type": "unocc",
				"energy": 0.02038,
				"method": "rhf"
			},
			{
				"type": "unocc",
				"energy": 0.0633,
				"method": "rhf"
			},
			{
				"type": "unocc",
				"energy": 0.06898,
				"method": "rhf"
			},
			{
				"type": "unocc",
				"energy": 0.10835,
				"method": "rhf"
			}
		],
		"cosmo_sigma_profile": { 
			"-0.025": 0.0,
			"-0.024": 0.0,
			"-0.023": 0.0,
			"-0.022": 0.0,
			"-0.021": 0.0,
			"-0.02": 0.0,
			"-0.019": 0.0275266744794,
			"-0.018": 0.717764194825,
			"-0.017": 1.17847182958,
			"-0.016": 1.09879765509,
			"-0.015": 0.978288379021,
			"-0.014": 0.967813136473,
			"-0.013": 1.07587712113,
			"-0.012": 2.09349996545,
			"-0.011": 2.62919132165,
			"-0.01": 4.11912440101,
			"-0.009": 3.60747971056,
			"-0.008": 3.79132348395,
			"-0.007": 5.17267807461,
			"-0.006": 4.65025741376,
			"-0.005": 5.49829253528,
			"-0.004": 5.18011686414,
			"-0.003": 3.64871872012,
			"-0.002": 5.35104871203,
			"-0.001": 5.84222951593,
			"0.0": 7.30080593632,
			"0.001": 11.8327905908,
			"0.002": 17.8868083159,
			"0.003": 22.1619217233,
			"0.004": 22.9913046138,
			"0.005": 5.79786390877,
			"0.006": 1.5556168689,
			"0.007": 2.33947020137,
			"0.008": 2.71641909878,
			"0.009": 1.62289770997,
			"0.01": 2.39497296935,
			"0.011": 2.68928536727,
			"0.012": 1.41002414511,
			"0.013": 0.524239369681,
			"0.014": 0.502552489909,
			"0.015": 0.301644822634,
			"0.016": 0.0,
			"0.017": 0.0,
			"0.018": 0.0,
			"0.019": 0.0,
			"0.02": 0.0,
			"0.021": 0.0,
			"0.022": 0.0,
			"0.023": 0.0,
			"0.024": 0.0,
			"0.025": 0.0
		}
	}
}
