{
	 "smiles": "NC1=C(F)C=C(C=C1)C(O)=O", 
	 "Tm": 488.15, 
	 "num_atms": 17, 
	 "gaussian": { 
		 "optdone": 1, 
		 "sigma_profile": "yes", 
		 "theory": "DFT", 
		 "functional": "B3LYP", 
		 "basiset": "6-31G**", 
		 "properties": { 
			 "R2extent": 1940.8715, 
			 "electric_dipole_moment_norm": 5.96863540686, 
			 "electric_quadrupole_moment_norm": 9.89110561818, 
			 "total_energy": -575.406246815, 
			 "HOMO_LUMO_gap": 0.18292, 
			 "cosmo_polarized_energy": -17.82, 
			 "cosmo_cavitation_energy": 22.15, 
			 "cosmo_dispersion_energy": -16.5, 
			 "cosmo_repulsion_energy": 1.3, 
			 "cosmo_total_nonelectrostatic_energy": 6.95, 
			 "SMD_solvation_energy": 5.4 
		},
		"coords": [
			{
				"x": -1.8503452065,
				"y": -0.1356044382,
				"z": 2.8314007438,
				"element": "N" 
			},
			{
				"x": -1.0923730024,
				"y": -0.0975242746,
				"z": 1.6803079439,
				"element": "C" 
			},
			{
				"x": -0.7065643797,
				"y": -1.2985264628,
				"z": 1.0593931495,
				"element": "C" 
			},
			{
				"x": -1.0718594091,
				"y": -2.4549343971,
				"z": 1.6717734873,
				"element": "F" 
			},
			{
				"x": 0.0100388535,
				"y": -1.3397983172,
				"z": -0.1183288469,
				"element": "C" 
			},
			{
				"x": 0.3846006606,
				"y": -0.1366453829,
				"z": -0.7426604236,
				"element": "C" 
			},
			{
				"x": -0.0027707726,
				"y": 1.0739916921,
				"z": -0.1503969306,
				"element": "C" 
			},
			{
				"x": -0.7182101176,
				"y": 1.0975540097,
				"z": 1.0395904437,
				"element": "C" 
			},
			{
				"x": 1.148625629,
				"y": -0.0771167424,
				"z": -2.0222159397,
				"element": "C" 
			},
			{
				"x": 1.8048106834,
				"y": -1.2096987809,
				"z": -2.4040138266,
				"element": "O" 
			},
			{
				"x": 1.2099037245,
				"y": 0.9114846467,
				"z": -2.7171980392,
				"element": "O" 
			},
			{
				"x": -1.8524505372,
				"y": -1.0108615929,
				"z": 3.3333925172,
				"element": "H" 
			},
			{
				"x": -1.8445695701,
				"y": 0.6874460952,
				"z": 3.4141889475,
				"element": "H" 
			},
			{
				"x": 0.2271334968,
				"y": -2.3165671274,
				"z": -0.5407823712,
				"element": "H" 
			},
			{
				"x": 0.2739926111,
				"y": 1.9972999888,
				"z": -0.6469538224,
				"element": "H" 
			},
			{
				"x": -1.0049769217,
				"y": 2.0460568606,
				"z": 1.4853401088,
				"element": "H" 
			},
			{
				"x": 1.8210142579,
				"y": -1.8479557767,
				"z": -1.6782371416,
				"element": "H" 
			}
		],
		 "valence_orbital": [ 
			{
				"type": "occ",
				"energy": -0.33424,
				"method": "rhf"
			},
			{
				"type": "occ",
				"energy": -0.30669,
				"method": "rhf"
			},
			{
				"type": "occ",
				"energy": -0.26785,
				"method": "rhf"
			},
			{
				"type": "occ",
				"energy": -0.2653,
				"method": "rhf"
			},
			{
				"type": "occ",
				"energy": -0.22383,
				"method": "rhf"
			},
			{
				"type": "unocc",
				"energy": -0.04091,
				"method": "rhf"
			},
			{
				"type": "unocc",
				"energy": -0.01532,
				"method": "rhf"
			},
			{
				"type": "unocc",
				"energy": 0.05218,
				"method": "rhf"
			},
			{
				"type": "unocc",
				"energy": 0.06456,
				"method": "rhf"
			},
			{
				"type": "unocc",
				"energy": 0.07043,
				"method": "rhf"
			}
		],
		"cosmo_sigma_profile": { 
			"-0.025": 0.0,
			"-0.024": 0.0,
			"-0.023": 0.0,
			"-0.022": 0.0,
			"-0.021": 0.0,
			"-0.02": 0.0,
			"-0.019": 0.0592575459239,
			"-0.018": 0.793492541208,
			"-0.017": 0.844776303605,
			"-0.016": 1.49969049939,
			"-0.015": 1.06431998592,
			"-0.014": 1.40880576904,
			"-0.013": 2.65016989776,
			"-0.012": 3.71733866689,
			"-0.011": 4.7518429695,
			"-0.01": 4.12543154769,
			"-0.009": 3.11585135751,
			"-0.008": 3.49237593694,
			"-0.007": 5.75572744445,
			"-0.006": 6.00056183109,
			"-0.005": 6.41391814379,
			"-0.004": 5.68526193019,
			"-0.003": 6.61146943396,
			"-0.002": 7.26255798935,
			"-0.001": 7.77494551385,
			"0.0": 11.6436669132,
			"0.001": 13.0211598251,
			"0.002": 13.2457235525,
			"0.003": 15.4707938609,
			"0.004": 14.0599449996,
			"0.005": 3.7373946213,
			"0.006": 3.07129822848,
			"0.007": 3.4375387446,
			"0.008": 3.33930495607,
			"0.009": 3.22090952349,
			"0.01": 4.59284759049,
			"0.011": 5.71604967112,
			"0.012": 5.96827865983,
			"0.013": 2.94436243899,
			"0.014": 0.637115702277,
			"0.015": 0.0,
			"0.016": 0.0,
			"0.017": 0.0,
			"0.018": 0.0,
			"0.019": 0.0,
			"0.02": 0.0,
			"0.021": 0.0,
			"0.022": 0.0,
			"0.023": 0.0,
			"0.024": 0.0,
			"0.025": 0.0
		}
	}
}
