{
	 "smiles": "NCC1=CC=C(NC(=O)CCCOC2=CC=CC=C2)C=C1", 
	 "Tm": 370.15, 
	 "num_atms": 41, 
	 "gaussian": { 
		 "optdone": 1, 
		 "sigma_profile": "yes", 
		 "theory": "DFT", 
		 "functional": "B3LYP", 
		 "basiset": "6-31G**", 
		 "properties": { 
			 "R2extent": 7310.7096, 
			 "electric_dipole_moment_norm": 2.89134303914, 
			 "electric_quadrupole_moment_norm": 23.2230660801, 
			 "total_energy": -919.816078789, 
			 "HOMO_LUMO_gap": 0.20214, 
			 "cosmo_polarized_energy": -19.87, 
			 "cosmo_cavitation_energy": 43.82, 
			 "cosmo_dispersion_energy": -28.27, 
			 "cosmo_repulsion_energy": 2.2, 
			 "cosmo_total_nonelectrostatic_energy": 17.75, 
			 "SMD_solvation_energy": 6.2 
		},
		"coords": [
			{
				"x": 3.2366547258,
				"y": -2.6997211852,
				"z": 0.4216577781,
				"element": "N" 
			},
			{
				"x": 3.61229359,
				"y": -1.8774303385,
				"z": -0.7411880386,
				"element": "C" 
			},
			{
				"x": 2.5027037079,
				"y": -1.0178009783,
				"z": -1.3213836138,
				"element": "C" 
			},
			{
				"x": 1.6485169809,
				"y": -1.5155373946,
				"z": -2.3146543463,
				"element": "C" 
			},
			{
				"x": 0.6017596248,
				"y": -0.7467422564,
				"z": -2.8209305695,
				"element": "C" 
			},
			{
				"x": 0.3615898793,
				"y": 0.5384769695,
				"z": -2.3156499429,
				"element": "C" 
			},
			{
				"x": -0.6803120773,
				"y": 1.3529334436,
				"z": -2.8360877778,
				"element": "N" 
			},
			{
				"x": -2.0434727095,
				"y": 1.125703582,
				"z": -2.9132861198,
				"element": "C" 
			},
			{
				"x": -2.7666247533,
				"y": 1.93565968,
				"z": -3.4743076342,
				"element": "O" 
			},
			{
				"x": -2.6071869146,
				"y": -0.1300747018,
				"z": -2.2523070869,
				"element": "C" 
			},
			{
				"x": -2.5986282593,
				"y": -0.1084882645,
				"z": -0.7091701013,
				"element": "C" 
			},
			{
				"x": -3.3959029463,
				"y": 1.0395541291,
				"z": -0.0822506781,
				"element": "C" 
			},
			{
				"x": -2.7898677095,
				"y": 2.3184642062,
				"z": -0.2702687565,
				"element": "O" 
			},
			{
				"x": -1.7364760777,
				"y": 2.7028655546,
				"z": 0.5084573241,
				"element": "C" 
			},
			{
				"x": -1.1589410746,
				"y": 3.9349014723,
				"z": 0.1595886154,
				"element": "C" 
			},
			{
				"x": -0.0881082035,
				"y": 4.437551708,
				"z": 0.8915528356,
				"element": "C" 
			},
			{
				"x": 0.4270894447,
				"y": 3.7241912101,
				"z": 1.9803798156,
				"element": "C" 
			},
			{
				"x": -0.1495929818,
				"y": 2.5031787777,
				"z": 2.3234986817,
				"element": "C" 
			},
			{
				"x": -1.2259936399,
				"y": 1.9833119872,
				"z": 1.5969822759,
				"element": "C" 
			},
			{
				"x": 1.212859364,
				"y": 1.0502050085,
				"z": -1.3262537712,
				"element": "C" 
			},
			{
				"x": 2.2727412513,
				"y": 0.281647874,
				"z": -0.8487608608,
				"element": "C" 
			},
			{
				"x": 2.8780726658,
				"y": -2.0936560482,
				"z": 1.1574220865,
				"element": "H" 
			},
			{
				"x": 2.4593036045,
				"y": -3.3057660854,
				"z": 0.1653715341,
				"element": "H" 
			},
			{
				"x": 4.4508775702,
				"y": -1.240491747,
				"z": -0.437671202,
				"element": "H" 
			},
			{
				"x": 3.9960518067,
				"y": -2.5540655445,
				"z": -1.5133138182,
				"element": "H" 
			},
			{
				"x": 1.8226889107,
				"y": -2.5093368312,
				"z": -2.7217287195,
				"element": "H" 
			},
			{
				"x": -0.0123033705,
				"y": -1.1259059152,
				"z": -3.6318065014,
				"element": "H" 
			},
			{
				"x": -0.4333874627,
				"y": 2.2863836287,
				"z": -3.1413652475,
				"element": "H" 
			},
			{
				"x": -3.634072807,
				"y": -0.210635488,
				"z": -2.6185019126,
				"element": "H" 
			},
			{
				"x": -2.0649062309,
				"y": -1.01863837,
				"z": -2.5877867875,
				"element": "H" 
			},
			{
				"x": -3.0401065715,
				"y": -1.0497096639,
				"z": -0.3568831319,
				"element": "H" 
			},
			{
				"x": -1.5697747997,
				"y": -0.0896386838,
				"z": -0.335852921,
				"element": "H" 
			},
			{
				"x": -3.5680968137,
				"y": 0.8527203844,
				"z": 0.9854001868,
				"element": "H" 
			},
			{
				"x": -4.3739043245,
				"y": 1.129460966,
				"z": -0.5639648997,
				"element": "H" 
			},
			{
				"x": -1.5766422827,
				"y": 4.4757127191,
				"z": -0.6835454179,
				"element": "H" 
			},
			{
				"x": 0.3451571107,
				"y": 5.3942705963,
				"z": 0.6129780008,
				"element": "H" 
			},
			{
				"x": 1.2620057038,
				"y": 4.1183861087,
				"z": 2.5512666159,
				"element": "H" 
			},
			{
				"x": 0.2371649269,
				"y": 1.9373049468,
				"z": 3.1667239209,
				"element": "H" 
			},
			{
				"x": -1.6484577916,
				"y": 1.0280882869,
				"z": 1.885077048,
				"element": "H" 
			},
			{
				"x": 1.0330864233,
				"y": 2.045796789,
				"z": -0.9315760565,
				"element": "H" 
			},
			{
				"x": 2.9280425111,
				"y": 0.698769468,
				"z": -0.0872608059,
				"element": "H" 
			}
		],
		 "valence_orbital": [ 
			{
				"type": "occ",
				"energy": -0.2527,
				"method": "rhf"
			},
			{
				"type": "occ",
				"energy": -0.24647,
				"method": "rhf"
			},
			{
				"type": "occ",
				"energy": -0.24242,
				"method": "rhf"
			},
			{
				"type": "occ",
				"energy": -0.22378,
				"method": "rhf"
			},
			{
				"type": "occ",
				"energy": -0.21898,
				"method": "rhf"
			},
			{
				"type": "unocc",
				"energy": -0.01684,
				"method": "rhf"
			},
			{
				"type": "unocc",
				"energy": -0.01361,
				"method": "rhf"
			},
			{
				"type": "unocc",
				"energy": -0.00395,
				"method": "rhf"
			},
			{
				"type": "unocc",
				"energy": 0.01071,
				"method": "rhf"
			},
			{
				"type": "unocc",
				"energy": 0.03215,
				"method": "rhf"
			}
		],
		"cosmo_sigma_profile": { 
			"-0.025": 0.0,
			"-0.024": 0.0,
			"-0.023": 0.0,
			"-0.022": 0.0,
			"-0.021": 0.0,
			"-0.02": 0.0,
			"-0.019": 0.0,
			"-0.018": 0.0,
			"-0.017": 0.0,
			"-0.016": 0.0,
			"-0.015": 0.0,
			"-0.014": 0.154376387457,
			"-0.013": 0.962101147097,
			"-0.012": 0.807027381936,
			"-0.011": 1.09595769883,
			"-0.01": 0.521812515812,
			"-0.009": 2.97081838095,
			"-0.008": 4.50517300471,
			"-0.007": 6.53343389354,
			"-0.006": 16.3364265715,
			"-0.005": 31.6205510112,
			"-0.004": 37.589851884,
			"-0.003": 33.5329263536,
			"-0.002": 25.9882261014,
			"-0.001": 22.2757768569,
			"0.0": 21.4611748069,
			"0.001": 20.2829171392,
			"0.002": 20.8116923357,
			"0.003": 19.8567846436,
			"0.004": 22.1020622309,
			"0.005": 14.6386382489,
			"0.006": 7.56512451493,
			"0.007": 3.54685359656,
			"0.008": 2.68804456871,
			"0.009": 2.97092794425,
			"0.01": 2.68807902537,
			"0.011": 2.22213083925,
			"0.012": 3.6071817089,
			"0.013": 5.45916607785,
			"0.014": 6.12920150542,
			"0.015": 1.76962025178,
			"0.016": 0.67934143515,
			"0.017": 0.415478327557,
			"0.018": 0.849856915954,
			"0.019": 0.592025650879,
			"0.02": 0.346967036355,
			"0.021": 0.0,
			"0.022": 0.0,
			"0.023": 0.0,
			"0.024": 0.0,
			"0.025": 0.0
		}
	}
}
