{
	 "smiles": "ClCC1=NC2=C(S1)C=CC(Cl)=C2", 
	 "Tm": 373.15, 
	 "num_atms": 17, 
	 "gaussian": { 
		 "optdone": 1, 
		 "sigma_profile": "yes", 
		 "theory": "DFT", 
		 "functional": "B3LYP", 
		 "basiset": "6-31G**", 
		 "properties": { 
			 "R2extent": 4886.8369, 
			 "electric_dipole_moment_norm": 2.17572631781, 
			 "electric_quadrupole_moment_norm": 13.0962330867, 
			 "total_energy": -1681.19623627, 
			 "HOMO_LUMO_gap": 0.17967, 
			 "cosmo_polarized_energy": -7.65, 
			 "cosmo_cavitation_energy": 26.86, 
			 "cosmo_dispersion_energy": -20.68, 
			 "cosmo_repulsion_energy": 1.61, 
			 "cosmo_total_nonelectrostatic_energy": 7.78, 
			 "SMD_solvation_energy": 1.64 
		},
		"coords": [
			{
				"x": 1.0710732584,
				"y": 4.2885533434,
				"z": -1.0258110247,
				"element": "Cl" 
			},
			{
				"x": 1.4839280808,
				"y": 2.7096725201,
				"z": -0.2164014994,
				"element": "C" 
			},
			{
				"x": 0.2699264582,
				"y": 1.9223833428,
				"z": 0.1546952884,
				"element": "C" 
			},
			{
				"x": -0.0329791919,
				"y": 0.7997061129,
				"z": -0.4149325319,
				"element": "N" 
			},
			{
				"x": -1.1843341468,
				"y": 0.259190628,
				"z": 0.1320216635,
				"element": "C" 
			},
			{
				"x": -1.7789487974,
				"y": 1.0210890562,
				"z": 1.1673850565,
				"element": "C" 
			},
			{
				"x": -0.8299840946,
				"y": 2.465262535,
				"z": 1.4404117374,
				"element": "S" 
			},
			{
				"x": -2.947182295,
				"y": 0.5898178713,
				"z": 1.800969974,
				"element": "C" 
			},
			{
				"x": -3.5173931291,
				"y": -0.6120591784,
				"z": 1.3948781952,
				"element": "C" 
			},
			{
				"x": -2.9227515446,
				"y": -1.3654993965,
				"z": 0.3677168444,
				"element": "C" 
			},
			{
				"x": -3.6775312717,
				"y": -2.8776240302,
				"z": -0.1132314825,
				"element": "Cl" 
			},
			{
				"x": -1.7645847078,
				"y": -0.9519861952,
				"z": -0.2734693393,
				"element": "C" 
			},
			{
				"x": 2.0709162948,
				"y": 2.1260315753,
				"z": -0.923862115,
				"element": "H" 
			},
			{
				"x": 2.0877243616,
				"y": 2.9674289698,
				"z": 0.6546933623,
				"element": "H" 
			},
			{
				"x": -3.4074683789,
				"y": 1.1708540776,
				"z": 2.5930783882,
				"element": "H" 
			},
			{
				"x": -4.4230977538,
				"y": -0.9749170372,
				"z": 1.8672394366,
				"element": "H" 
			},
			{
				"x": -1.3105131425,
				"y": -1.5347041949,
				"z": -1.0657819537,
				"element": "H" 
			}
		],
		 "valence_orbital": [ 
			{
				"type": "occ",
				"energy": -0.31145,
				"method": "rhf"
			},
			{
				"type": "occ",
				"energy": -0.30575,
				"method": "rhf"
			},
			{
				"type": "occ",
				"energy": -0.29504,
				"method": "rhf"
			},
			{
				"type": "occ",
				"energy": -0.25768,
				"method": "rhf"
			},
			{
				"type": "occ",
				"energy": -0.24518,
				"method": "rhf"
			},
			{
				"type": "unocc",
				"energy": -0.06551,
				"method": "rhf"
			},
			{
				"type": "unocc",
				"energy": -0.02581,
				"method": "rhf"
			},
			{
				"type": "unocc",
				"energy": -0.00736,
				"method": "rhf"
			},
			{
				"type": "unocc",
				"energy": 0.00275,
				"method": "rhf"
			},
			{
				"type": "unocc",
				"energy": 0.02631,
				"method": "rhf"
			}
		],
		"cosmo_sigma_profile": { 
			"-0.025": 0.0,
			"-0.024": 0.0,
			"-0.023": 0.0,
			"-0.022": 0.0,
			"-0.021": 0.0,
			"-0.02": 0.0,
			"-0.019": 0.0,
			"-0.018": 0.0,
			"-0.017": 0.0,
			"-0.016": 0.0,
			"-0.015": 0.0,
			"-0.014": 0.0,
			"-0.013": 0.0,
			"-0.012": 0.0,
			"-0.011": 0.0,
			"-0.01": 0.719301022741,
			"-0.009": 4.16937433668,
			"-0.008": 9.67313602371,
			"-0.007": 9.49422668663,
			"-0.006": 9.64373496902,
			"-0.005": 8.45605586919,
			"-0.004": 7.88028983922,
			"-0.003": 7.7951454776,
			"-0.002": 12.1713607828,
			"-0.001": 13.9897273364,
			"0.0": 19.9398302278,
			"0.001": 29.3548465272,
			"0.002": 26.6126480486,
			"0.003": 19.553575589,
			"0.004": 17.1910034824,
			"0.005": 14.711394688,
			"0.006": 5.67991916584,
			"0.007": 1.05406628459,
			"0.008": 1.3917493198,
			"0.009": 0.674523842684,
			"0.01": 0.660349821053,
			"0.011": 1.01001262933,
			"0.012": 0.788217322616,
			"0.013": 0.519858300293,
			"0.014": 0.108224902733,
			"0.015": 0.0,
			"0.016": 0.0,
			"0.017": 0.0,
			"0.018": 0.0,
			"0.019": 0.0,
			"0.02": 0.0,
			"0.021": 0.0,
			"0.022": 0.0,
			"0.023": 0.0,
			"0.024": 0.0,
			"0.025": 0.0
		}
	}
}
