{
	 "smiles": "CC(=O)CC(=O)NC1=CC2=C(C=C1)N=C(C)S2", 
	 "Tm": 403.15, 
	 "num_atms": 29, 
	 "gaussian": { 
		 "optdone": 1, 
		 "sigma_profile": "yes", 
		 "theory": "DFT", 
		 "functional": "B3LYP", 
		 "basiset": "6-31G**", 
		 "properties": { 
			 "R2extent": 7221.0379, 
			 "electric_dipole_moment_norm": 2.77482694235, 
			 "electric_quadrupole_moment_norm": 19.3377399807, 
			 "total_energy": -1122.67709576, 
			 "HOMO_LUMO_gap": 0.18299, 
			 "cosmo_polarized_energy": -15.36, 
			 "cosmo_cavitation_energy": 34.92, 
			 "cosmo_dispersion_energy": -25.66, 
			 "cosmo_repulsion_energy": 1.94, 
			 "cosmo_total_nonelectrostatic_energy": 11.2, 
			 "SMD_solvation_energy": 5.11 
		},
		"coords": [
			{
				"x": 2.8953700532,
				"y": 1.8657921078,
				"z": -4.4513737192,
				"element": "C" 
			},
			{
				"x": 2.7314428148,
				"y": 1.1342653754,
				"z": -3.1416979193,
				"element": "C" 
			},
			{
				"x": 3.667577629,
				"y": 0.6710883114,
				"z": -2.5169916208,
				"element": "O" 
			},
			{
				"x": 1.2967758448,
				"y": 1.0364627368,
				"z": -2.5972289951,
				"element": "C" 
			},
			{
				"x": 0.9431521734,
				"y": 2.336749996,
				"z": -1.8758073581,
				"element": "C" 
			},
			{
				"x": 0.7600530295,
				"y": 3.3739264187,
				"z": -2.5024791943,
				"element": "O" 
			},
			{
				"x": 0.8271709206,
				"y": 2.3274288265,
				"z": -0.5046723529,
				"element": "N" 
			},
			{
				"x": 0.9868086601,
				"y": 1.2966468659,
				"z": 0.4595528872,
				"element": "C" 
			},
			{
				"x": 0.0331246929,
				"y": 1.2124995272,
				"z": 1.4809516851,
				"element": "C" 
			},
			{
				"x": 0.2023489742,
				"y": 0.2457227321,
				"z": 2.4698195984,
				"element": "C" 
			},
			{
				"x": 1.295828262,
				"y": -0.6537844826,
				"z": 2.44660164,
				"element": "C" 
			},
			{
				"x": 2.2390411116,
				"y": -0.5537111494,
				"z": 1.4162213862,
				"element": "C" 
			},
			{
				"x": 2.0969334909,
				"y": 0.4253752283,
				"z": 0.4405850285,
				"element": "C" 
			},
			{
				"x": 1.3337840026,
				"y": -1.5735968046,
				"z": 3.4844301023,
				"element": "N" 
			},
			{
				"x": 0.3345511797,
				"y": -1.4239907945,
				"z": 4.2894254899,
				"element": "C" 
			},
			{
				"x": 0.0910088115,
				"y": -2.2619688436,
				"z": 5.5050822258,
				"element": "C" 
			},
			{
				"x": -0.7993718332,
				"y": -0.1057382636,
				"z": 3.863482399,
				"element": "S" 
			},
			{
				"x": 2.3763654762,
				"y": 2.8286464784,
				"z": -4.3889139665,
				"element": "H" 
			},
			{
				"x": 2.4156645164,
				"y": 1.2957004511,
				"z": -5.2564281535,
				"element": "H" 
			},
			{
				"x": 3.9531578487,
				"y": 2.0026579686,
				"z": -4.6791581957,
				"element": "H" 
			},
			{
				"x": 1.2140097775,
				"y": 0.1597945129,
				"z": -1.9560404866,
				"element": "H" 
			},
			{
				"x": 0.5892143978,
				"y": 0.9589776554,
				"z": -3.4274441985,
				"element": "H" 
			},
			{
				"x": 0.4969596713,
				"y": 3.2216441531,
				"z": -0.1605101849,
				"element": "H" 
			},
			{
				"x": -0.8196958683,
				"y": 1.8841943565,
				"z": 1.4855569286,
				"element": "H" 
			},
			{
				"x": 3.0869736616,
				"y": -1.2302498266,
				"z": 1.4040403493,
				"element": "H" 
			},
			{
				"x": 2.8463327867,
				"y": 0.521887458,
				"z": -0.3380184322,
				"element": "H" 
			},
			{
				"x": 0.0851155095,
				"y": -1.6510347752,
				"z": 6.4141385888,
				"element": "H" 
			},
			{
				"x": -0.8737146432,
				"y": -2.7771597189,
				"z": 5.4459299683,
				"element": "H" 
			},
			{
				"x": 0.8865170484,
				"y": -3.0050265011,
				"z": 5.5820465004,
				"element": "H" 
			}
		],
		 "valence_orbital": [ 
			{
				"type": "occ",
				"energy": -0.27954,
				"method": "rhf"
			},
			{
				"type": "occ",
				"energy": -0.26752,
				"method": "rhf"
			},
			{
				"type": "occ",
				"energy": -0.25485,
				"method": "rhf"
			},
			{
				"type": "occ",
				"energy": -0.24279,
				"method": "rhf"
			},
			{
				"type": "occ",
				"energy": -0.22694,
				"method": "rhf"
			},
			{
				"type": "unocc",
				"energy": -0.04395,
				"method": "rhf"
			},
			{
				"type": "unocc",
				"energy": -0.02661,
				"method": "rhf"
			},
			{
				"type": "unocc",
				"energy": -0.01543,
				"method": "rhf"
			},
			{
				"type": "unocc",
				"energy": 0.00385,
				"method": "rhf"
			},
			{
				"type": "unocc",
				"energy": 0.01282,
				"method": "rhf"
			}
		],
		"cosmo_sigma_profile": { 
			"-0.025": 0.0,
			"-0.024": 0.0,
			"-0.023": 0.0,
			"-0.022": 0.0,
			"-0.021": 0.0,
			"-0.02": 0.0,
			"-0.019": 0.0,
			"-0.018": 0.0,
			"-0.017": 0.0,
			"-0.016": 0.0,
			"-0.015": 0.376594027253,
			"-0.014": 1.16361549224,
			"-0.013": 1.11295357164,
			"-0.012": 0.78182945444,
			"-0.011": 1.33841965703,
			"-0.01": 1.44997905524,
			"-0.009": 1.1392923606,
			"-0.008": 4.25917590243,
			"-0.007": 8.89214667937,
			"-0.006": 14.0641015859,
			"-0.005": 19.5035983813,
			"-0.004": 22.0378827873,
			"-0.003": 22.5916972089,
			"-0.002": 23.8373437023,
			"-0.001": 22.9236526697,
			"0.0": 18.9816992857,
			"0.001": 17.1247504992,
			"0.002": 22.8479704823,
			"0.003": 21.1005084005,
			"0.004": 10.3994919154,
			"0.005": 5.86999319865,
			"0.006": 5.1794317228,
			"0.007": 3.40145791988,
			"0.008": 3.37566924709,
			"0.009": 4.16384365024,
			"0.01": 5.35190163173,
			"0.011": 5.21254935386,
			"0.012": 5.03671226249,
			"0.013": 5.85253797701,
			"0.014": 1.19604744447,
			"0.015": 0.394096012582,
			"0.016": 0.00384235939683,
			"0.017": 0.0,
			"0.018": 0.0,
			"0.019": 0.0,
			"0.02": 0.0,
			"0.021": 0.0,
			"0.022": 0.0,
			"0.023": 0.0,
			"0.024": 0.0,
			"0.025": 0.0
		}
	}
}
