{
	 "smiles": "OCC1=CC=C(OCC(F)(F)F)C=C1", 
	 "Tm": 338.15, 
	 "num_atms": 23, 
	 "gaussian": { 
		 "optdone": 1, 
		 "sigma_profile": "yes", 
		 "theory": "DFT", 
		 "functional": "B3LYP", 
		 "basiset": "6-31G**", 
		 "properties": { 
			 "R2extent": 4344.0636, 
			 "electric_dipole_moment_norm": 0.592701619704, 
			 "electric_quadrupole_moment_norm": 12.7503305836, 
			 "total_energy": -798.330884446, 
			 "HOMO_LUMO_gap": 0.22041, 
			 "cosmo_polarized_energy": -10.4, 
			 "cosmo_cavitation_energy": 28.71, 
			 "cosmo_dispersion_energy": -20.1, 
			 "cosmo_repulsion_energy": 1.55, 
			 "cosmo_total_nonelectrostatic_energy": 10.17, 
			 "SMD_solvation_energy": 6.26 
		},
		"coords": [
			{
				"x": -2.4578822989,
				"y": -1.1303083797,
				"z": -4.0751819943,
				"element": "O" 
			},
			{
				"x": -1.7741329043,
				"y": 0.0869624158,
				"z": -3.8101723574,
				"element": "C" 
			},
			{
				"x": -1.2791960452,
				"y": 0.2074548667,
				"z": -2.3815942216,
				"element": "C" 
			},
			{
				"x": -0.8732933444,
				"y": -0.9304099184,
				"z": -1.6741746854,
				"element": "C" 
			},
			{
				"x": -0.3862603957,
				"y": -0.8317677313,
				"z": -0.3712637215,
				"element": "C" 
			},
			{
				"x": -0.3128157352,
				"y": 0.4210562582,
				"z": 0.2436489146,
				"element": "C" 
			},
			{
				"x": 0.224016665,
				"y": 0.5986812742,
				"z": 1.5079226254,
				"element": "O" 
			},
			{
				"x": -0.2652591865,
				"y": -0.1992060195,
				"z": 2.5646858041,
				"element": "C" 
			},
			{
				"x": -1.4244269782,
				"y": 0.4881609709,
				"z": 3.2743934167,
				"element": "C" 
			},
			{
				"x": -1.0686229091,
				"y": 1.6852637406,
				"z": 3.7716702196,
				"element": "F" 
			},
			{
				"x": -1.8443936254,
				"y": -0.2838510466,
				"z": 4.3022641601,
				"element": "F" 
			},
			{
				"x": -2.4694552883,
				"y": 0.6807562312,
				"z": 2.445479133,
				"element": "F" 
			},
			{
				"x": -0.7104921399,
				"y": 1.5664873535,
				"z": -0.4470533718,
				"element": "C" 
			},
			{
				"x": -1.1903178974,
				"y": 1.4538022784,
				"z": -1.7505866893,
				"element": "C" 
			},
			{
				"x": -3.2015980981,
				"y": -1.1834711918,
				"z": -3.4598499119,
				"element": "H" 
			},
			{
				"x": -0.9264369883,
				"y": 0.0922465345,
				"z": -4.506167202,
				"element": "H" 
			},
			{
				"x": -2.3932965454,
				"y": 0.9631710068,
				"z": -4.0603254083,
				"element": "H" 
			},
			{
				"x": -0.9381715049,
				"y": -1.9001003892,
				"z": -2.1581035273,
				"element": "H" 
			},
			{
				"x": -0.0498839742,
				"y": -1.7225350787,
				"z": 0.1506959985,
				"element": "H" 
			},
			{
				"x": 0.5436601398,
				"y": -0.3298789408,
				"z": 3.2880133985,
				"element": "H" 
			},
			{
				"x": -0.6092749554,
				"y": -1.1841943415,
				"z": 2.2347459635,
				"element": "H" 
			},
			{
				"x": -0.6496505843,
				"y": 2.5269869264,
				"z": 0.0535537104,
				"element": "H" 
			},
			{
				"x": -1.5099154057,
				"y": 2.3490931804,
				"z": -2.2790002536,
				"element": "H" 
			}
		],
		 "valence_orbital": [ 
			{
				"type": "occ",
				"energy": -0.32868,
				"method": "rhf"
			},
			{
				"type": "occ",
				"energy": -0.30776,
				"method": "rhf"
			},
			{
				"type": "occ",
				"energy": -0.27877,
				"method": "rhf"
			},
			{
				"type": "occ",
				"energy": -0.25878,
				"method": "rhf"
			},
			{
				"type": "occ",
				"energy": -0.23197,
				"method": "rhf"
			},
			{
				"type": "unocc",
				"energy": -0.01156,
				"method": "rhf"
			},
			{
				"type": "unocc",
				"energy": -0.0047,
				"method": "rhf"
			},
			{
				"type": "unocc",
				"energy": 0.08384,
				"method": "rhf"
			},
			{
				"type": "unocc",
				"energy": 0.08536,
				"method": "rhf"
			},
			{
				"type": "unocc",
				"energy": 0.09098,
				"method": "rhf"
			}
		],
		"cosmo_sigma_profile": { 
			"-0.025": 0.0,
			"-0.024": 0.0,
			"-0.023": 0.0,
			"-0.022": 0.0,
			"-0.021": 0.0,
			"-0.02": 0.0,
			"-0.019": 0.0,
			"-0.018": 0.0,
			"-0.017": 0.0,
			"-0.016": 0.24409247544,
			"-0.015": 0.754809840839,
			"-0.014": 1.02085676111,
			"-0.013": 1.12297541504,
			"-0.012": 0.495461103116,
			"-0.011": 0.616421608517,
			"-0.01": 0.553417624551,
			"-0.009": 3.57057768861,
			"-0.008": 6.92581019743,
			"-0.007": 7.0965035489,
			"-0.006": 8.82363147854,
			"-0.005": 14.7435491869,
			"-0.004": 16.3691705098,
			"-0.003": 13.4830436631,
			"-0.002": 10.9577784093,
			"-0.001": 10.5869457987,
			"0.0": 11.1731429247,
			"0.001": 14.1101676795,
			"0.002": 23.3499989971,
			"0.003": 38.2768069562,
			"0.004": 14.1460566102,
			"0.005": 11.2976985256,
			"0.006": 2.81668636983,
			"0.007": 2.57849755806,
			"0.008": 2.1757538549,
			"0.009": 2.183481642,
			"0.01": 1.8540101559,
			"0.011": 1.99991537126,
			"0.012": 0.781730562245,
			"0.013": 1.89108446398,
			"0.014": 1.87014918803,
			"0.015": 0.0882980845879,
			"0.016": 0.0,
			"0.017": 0.0,
			"0.018": 0.0,
			"0.019": 0.0,
			"0.02": 0.0,
			"0.021": 0.0,
			"0.022": 0.0,
			"0.023": 0.0,
			"0.024": 0.0,
			"0.025": 0.0
		}
	}
}
