{
	 "smiles": "COC1=CC=CC=C1C1=NN=C2SC(NN12)C1=CC=C(C=C1)N(C)C", 
	 "Tm": 502.15, 
	 "num_atms": 44, 
	 "gaussian": { 
		 "optdone": 1, 
		 "sigma_profile": "yes", 
		 "theory": "DFT", 
		 "functional": "B3LYP", 
		 "basiset": "6-31G**", 
		 "properties": { 
			 "R2extent": 11589.0933, 
			 "electric_dipole_moment_norm": 8.84187720905, 
			 "electric_quadrupole_moment_norm": 34.7485464624, 
			 "total_energy": -1444.44179755, 
			 "HOMO_LUMO_gap": 0.16696, 
			 "cosmo_polarized_energy": -25.78, 
			 "cosmo_cavitation_energy": 47.6, 
			 "cosmo_dispersion_energy": -33.27, 
			 "cosmo_repulsion_energy": 2.43, 
			 "cosmo_total_nonelectrostatic_energy": 16.76, 
			 "SMD_solvation_energy": 5.3 
		},
		"coords": [
			{
				"x": -0.3279828721,
				"y": -0.640083833,
				"z": 3.0699116913,
				"element": "C" 
			},
			{
				"x": 0.5552886662,
				"y": 0.4198730968,
				"z": 2.7364739642,
				"element": "O" 
			},
			{
				"x": 1.2430002621,
				"y": 1.0439505723,
				"z": 3.7317118789,
				"element": "C" 
			},
			{
				"x": 1.0360237074,
				"y": 0.7991788992,
				"z": 5.0939395485,
				"element": "C" 
			},
			{
				"x": 1.7399510712,
				"y": 1.5329718912,
				"z": 6.0512910785,
				"element": "C" 
			},
			{
				"x": 2.6489784596,
				"y": 2.5155721709,
				"z": 5.6639973633,
				"element": "C" 
			},
			{
				"x": 2.8689155133,
				"y": 2.7452169815,
				"z": 4.306844764,
				"element": "C" 
			},
			{
				"x": 2.1919816239,
				"y": 2.0093799999,
				"z": 3.3251260147,
				"element": "C" 
			},
			{
				"x": 2.4709780039,
				"y": 2.3194412951,
				"z": 1.9161644353,
				"element": "C" 
			},
			{
				"x": 2.6658954418,
				"y": 3.5413604207,
				"z": 1.4493877282,
				"element": "N" 
			},
			{
				"x": 3.0047528776,
				"y": 3.4717794212,
				"z": 0.1033998158,
				"element": "N" 
			},
			{
				"x": 3.0274542651,
				"y": 2.1996919407,
				"z": -0.1996118823,
				"element": "C" 
			},
			{
				"x": 3.395179536,
				"y": 1.23029904,
				"z": -1.6165786515,
				"element": "S" 
			},
			{
				"x": 2.6162879826,
				"y": -0.2745800437,
				"z": -0.6626418511,
				"element": "C" 
			},
			{
				"x": 2.7814614248,
				"y": 0.0314544347,
				"z": 0.7633055257,
				"element": "N" 
			},
			{
				"x": 2.6873954302,
				"y": 1.4307894653,
				"z": 0.8830776314,
				"element": "N" 
			},
			{
				"x": 1.2093977589,
				"y": -0.5473240939,
				"z": -1.1075263788,
				"element": "C" 
			},
			{
				"x": 0.0885634973,
				"y": 0.0749828433,
				"z": -0.5411553257,
				"element": "C" 
			},
			{
				"x": -1.1935215846,
				"y": -0.1868102464,
				"z": -1.009560724,
				"element": "C" 
			},
			{
				"x": -1.4175980308,
				"y": -1.0797103043,
				"z": -2.0852399172,
				"element": "C" 
			},
			{
				"x": -0.2838920936,
				"y": -1.7179834088,
				"z": -2.6396612145,
				"element": "C" 
			},
			{
				"x": 0.9909710554,
				"y": -1.447443658,
				"z": -2.1571554735,
				"element": "C" 
			},
			{
				"x": -2.6912575573,
				"y": -1.3174497012,
				"z": -2.5729911746,
				"element": "N" 
			},
			{
				"x": -2.8985001774,
				"y": -2.3471498891,
				"z": -3.5759985226,
				"element": "C" 
			},
			{
				"x": -3.8432979569,
				"y": -0.75666502,
				"z": -1.8886446665,
				"element": "C" 
			},
			{
				"x": -0.7079870763,
				"y": -1.0167837316,
				"z": 2.1197285525,
				"element": "H" 
			},
			{
				"x": -1.1657138751,
				"y": -0.2887482743,
				"z": 3.6857858184,
				"element": "H" 
			},
			{
				"x": 0.1951225217,
				"y": -1.4464932253,
				"z": 3.5985899472,
				"element": "H" 
			},
			{
				"x": 0.3168830432,
				"y": 0.0547236807,
				"z": 5.4133537477,
				"element": "H" 
			},
			{
				"x": 1.565164188,
				"y": 1.3331359295,
				"z": 7.1046782245,
				"element": "H" 
			},
			{
				"x": 3.1888308599,
				"y": 3.0923911932,
				"z": 6.4080143306,
				"element": "H" 
			},
			{
				"x": 3.5740096114,
				"y": 3.5007620085,
				"z": 3.9774341295,
				"element": "H" 
			},
			{
				"x": 3.2567044037,
				"y": -1.1256179601,
				"z": -0.8996080016,
				"element": "H" 
			},
			{
				"x": 3.7328567566,
				"y": -0.2187282195,
				"z": 1.0389661903,
				"element": "H" 
			},
			{
				"x": 0.2095714012,
				"y": 0.7576796719,
				"z": 0.2921015044,
				"element": "H" 
			},
			{
				"x": -2.0268258648,
				"y": 0.3161783224,
				"z": -0.5346369067,
				"element": "H" 
			},
			{
				"x": -0.3937556176,
				"y": -2.4313424889,
				"z": -3.4468122691,
				"element": "H" 
			},
			{
				"x": 1.8371510741,
				"y": -1.9569729856,
				"z": -2.6140157292,
				"element": "H" 
			},
			{
				"x": -2.3216463647,
				"y": -2.1386629419,
				"z": -4.4852580894,
				"element": "H" 
			},
			{
				"x": -2.6174312613,
				"y": -3.350162942,
				"z": -3.2199215639,
				"element": "H" 
			},
			{
				"x": -3.9530291801,
				"y": -2.3698766734,
				"z": -3.853976123,
				"element": "H" 
			},
			{
				"x": -4.7493386315,
				"y": -1.0259504816,
				"z": -2.4331039679,
				"element": "H" 
			},
			{
				"x": -3.7916132871,
				"y": 0.3381033844,
				"z": -1.8540541214,
				"element": "H" 
			},
			{
				"x": -3.944179006,
				"y": -1.1232765408,
				"z": -0.8555313305,
				"element": "H" 
			}
		],
		 "valence_orbital": [ 
			{
				"type": "occ",
				"energy": -0.25052,
				"method": "rhf"
			},
			{
				"type": "occ",
				"energy": -0.24027,
				"method": "rhf"
			},
			{
				"type": "occ",
				"energy": -0.22874,
				"method": "rhf"
			},
			{
				"type": "occ",
				"energy": -0.20761,
				"method": "rhf"
			},
			{
				"type": "occ",
				"energy": -0.19346,
				"method": "rhf"
			},
			{
				"type": "unocc",
				"energy": -0.0265,
				"method": "rhf"
			},
			{
				"type": "unocc",
				"energy": -0.01898,
				"method": "rhf"
			},
			{
				"type": "unocc",
				"energy": -0.00418,
				"method": "rhf"
			},
			{
				"type": "unocc",
				"energy": 0.00812,
				"method": "rhf"
			},
			{
				"type": "unocc",
				"energy": 0.02556,
				"method": "rhf"
			}
		],
		"cosmo_sigma_profile": { 
			"-0.025": 0.0,
			"-0.024": 0.0,
			"-0.023": 0.0,
			"-0.022": 0.0,
			"-0.021": 0.0,
			"-0.02": 0.0,
			"-0.019": 0.0,
			"-0.018": 0.0,
			"-0.017": 0.0,
			"-0.016": 0.0257689966852,
			"-0.015": 1.75441453434,
			"-0.014": 1.86130934975,
			"-0.013": 1.99108076867,
			"-0.012": 1.30345172821,
			"-0.011": 1.51604724997,
			"-0.01": 2.52286269586,
			"-0.009": 4.08609059145,
			"-0.008": 3.22301955468,
			"-0.007": 5.46429516154,
			"-0.006": 17.1383429499,
			"-0.005": 27.7826847399,
			"-0.004": 33.335143878,
			"-0.003": 35.3106257748,
			"-0.002": 33.9462670121,
			"-0.001": 27.8337359885,
			"0.0": 22.4932828948,
			"0.001": 20.0303057362,
			"0.002": 22.3337555922,
			"0.003": 22.1794345866,
			"0.004": 22.5729118711,
			"0.005": 22.6366155735,
			"0.006": 15.5620450631,
			"0.007": 6.7985417351,
			"0.008": 4.48464953007,
			"0.009": 2.45329999845,
			"0.01": 2.59740764147,
			"0.011": 2.84026952693,
			"0.012": 2.35974466184,
			"0.013": 4.04916857894,
			"0.014": 3.61562636006,
			"0.015": 2.17468320031,
			"0.016": 2.57860276333,
			"0.017": 0.710094998684,
			"0.018": 0.0,
			"0.019": 0.0,
			"0.02": 0.0,
			"0.021": 0.0,
			"0.022": 0.0,
			"0.023": 0.0,
			"0.024": 0.0,
			"0.025": 0.0
		}
	}
}
