{
	 "smiles": "COC1=CC=C(C=C1N)[N+]([O-])=O", 
	 "Tm": 391.15, 
	 "num_atms": 20, 
	 "gaussian": { 
		 "optdone": 1, 
		 "sigma_profile": "yes", 
		 "theory": "DFT", 
		 "functional": "B3LYP", 
		 "basiset": "6-31G**", 
		 "properties": { 
			 "R2extent": 2779.9521, 
			 "electric_dipole_moment_norm": 6.75340320801, 
			 "electric_quadrupole_moment_norm": 8.2482384586, 
			 "total_energy": -606.63414146, 
			 "HOMO_LUMO_gap": 0.13953, 
			 "cosmo_polarized_energy": -13.62, 
			 "cosmo_cavitation_energy": 24.66, 
			 "cosmo_dispersion_energy": -18.4, 
			 "cosmo_repulsion_energy": 1.47, 
			 "cosmo_total_nonelectrostatic_energy": 7.73, 
			 "SMD_solvation_energy": 7.28 
		},
		"coords": [
			{
				"x": -0.4689157945,
				"y": 4.210130965,
				"z": -0.7434855281,
				"element": "C" 
			},
			{
				"x": -0.7892252278,
				"y": 3.054554634,
				"z": -1.5072902483,
				"element": "O" 
			},
			{
				"x": -0.1955646425,
				"y": 1.8707798765,
				"z": -1.1796983279,
				"element": "C" 
			},
			{
				"x": 0.7125468426,
				"y": 1.6918518373,
				"z": -0.1364594852,
				"element": "C" 
			},
			{
				"x": 1.2523987308,
				"y": 0.4305118999,
				"z": 0.1223815861,
				"element": "C" 
			},
			{
				"x": 0.8584531979,
				"y": -0.6322424363,
				"z": -0.6808126531,
				"element": "C" 
			},
			{
				"x": -0.048696134,
				"y": -0.4785178352,
				"z": -1.7323446337,
				"element": "C" 
			},
			{
				"x": -0.5876878745,
				"y": 0.7778846871,
				"z": -2.001123307,
				"element": "C" 
			},
			{
				"x": -1.4467727345,
				"y": 1.0098891426,
				"z": -3.0648763561,
				"element": "N" 
			},
			{
				"x": 1.4081461432,
				"y": -1.9636865406,
				"z": -0.4191852265,
				"element": "N" 
			},
			{
				"x": 2.2124245724,
				"y": -2.083692296,
				"z": 0.5072296592,
				"element": "O" 
			},
			{
				"x": 1.0349815773,
				"y": -2.8923333395,
				"z": -1.1396954785,
				"element": "O" 
			},
			{
				"x": 0.599477872,
				"y": 4.4478461707,
				"z": -0.8100129596,
				"element": "H" 
			},
			{
				"x": -0.7478008323,
				"y": 4.0837446455,
				"z": 0.3097738668,
				"element": "H" 
			},
			{
				"x": -1.0481237887,
				"y": 5.0268618802,
				"z": -1.1758428521,
				"element": "H" 
			},
			{
				"x": 1.0045228443,
				"y": 2.5301064703,
				"z": 0.4842649691,
				"element": "H" 
			},
			{
				"x": 1.9578992598,
				"y": 0.2678937224,
				"z": 0.9260112267,
				"element": "H" 
			},
			{
				"x": -0.3171843875,
				"y": -1.3411181519,
				"z": -2.3300043671,
				"element": "H" 
			},
			{
				"x": -1.9661595964,
				"y": 0.209599126,
				"z": -3.3944419193,
				"element": "H" 
			},
			{
				"x": -1.9954200274,
				"y": 1.854335542,
				"z": -2.9911879653,
				"element": "H" 
			}
		],
		 "valence_orbital": [ 
			{
				"type": "occ",
				"energy": -0.29474,
				"method": "rhf"
			},
			{
				"type": "occ",
				"energy": -0.29373,
				"method": "rhf"
			},
			{
				"type": "occ",
				"energy": -0.27565,
				"method": "rhf"
			},
			{
				"type": "occ",
				"energy": -0.25462,
				"method": "rhf"
			},
			{
				"type": "occ",
				"energy": -0.21211,
				"method": "rhf"
			},
			{
				"type": "unocc",
				"energy": -0.07258,
				"method": "rhf"
			},
			{
				"type": "unocc",
				"energy": -0.00676,
				"method": "rhf"
			},
			{
				"type": "unocc",
				"energy": 0.02577,
				"method": "rhf"
			},
			{
				"type": "unocc",
				"energy": 0.07203,
				"method": "rhf"
			},
			{
				"type": "unocc",
				"energy": 0.08282,
				"method": "rhf"
			}
		],
		"cosmo_sigma_profile": { 
			"-0.025": 0.0,
			"-0.024": 0.0,
			"-0.023": 0.0,
			"-0.022": 0.0,
			"-0.021": 0.0,
			"-0.02": 0.0,
			"-0.019": 0.0,
			"-0.018": 0.0,
			"-0.017": 0.0,
			"-0.016": 0.0,
			"-0.015": 0.0,
			"-0.014": 0.104218767351,
			"-0.013": 1.22339755697,
			"-0.012": 1.83093370324,
			"-0.011": 2.08957992319,
			"-0.01": 2.34382779016,
			"-0.009": 2.66587390406,
			"-0.008": 3.34925092494,
			"-0.007": 7.13282129724,
			"-0.006": 13.5425122208,
			"-0.005": 13.6072356799,
			"-0.004": 13.4121193509,
			"-0.003": 12.4091235859,
			"-0.002": 9.40602821044,
			"-0.001": 8.49622413548,
			"0.0": 10.9352126618,
			"0.001": 15.4665583128,
			"0.002": 14.9293613936,
			"0.003": 14.4048723557,
			"0.004": 7.4951601611,
			"0.005": 4.48599661794,
			"0.006": 5.76172227816,
			"0.007": 4.29106632465,
			"0.008": 10.8800381226,
			"0.009": 6.92315984629,
			"0.01": 5.18199605681,
			"0.011": 2.90244006303,
			"0.012": 0.446696964126,
			"0.013": 0.515156001627,
			"0.014": 0.105025779392,
			"0.015": 0.0,
			"0.016": 0.0,
			"0.017": 0.0,
			"0.018": 0.0,
			"0.019": 0.0,
			"0.02": 0.0,
			"0.021": 0.0,
			"0.022": 0.0,
			"0.023": 0.0,
			"0.024": 0.0,
			"0.025": 0.0
		}
	}
}
