{
	 "smiles": "CC1=NOC(C2=C(C)N=NS2)=C1C(Cl)=O", 
	 "Tm": 341.15, 
	 "num_atms": 21, 
	 "gaussian": { 
		 "optdone": 1, 
		 "sigma_profile": "yes", 
		 "theory": "DFT", 
		 "functional": "B3LYP", 
		 "basiset": "6-31G**", 
		 "properties": { 
			 "R2extent": 4311.8106, 
			 "electric_dipole_moment_norm": 3.07183861067, 
			 "electric_quadrupole_moment_norm": 11.7735976286, 
			 "total_energy": -1481.46474983, 
			 "HOMO_LUMO_gap": 0.16574, 
			 "cosmo_polarized_energy": -10.39, 
			 "cosmo_cavitation_energy": 29.57, 
			 "cosmo_dispersion_energy": -21.86, 
			 "cosmo_repulsion_energy": 1.66, 
			 "cosmo_total_nonelectrostatic_energy": 9.36, 
			 "SMD_solvation_energy": 3.39 
		},
		"coords": [
			{
				"x": 2.0958076139,
				"y": 1.7243067407,
				"z": 1.4950537977,
				"element": "C" 
			},
			{
				"x": 1.2936155553,
				"y": 0.4738664839,
				"z": 1.3077520302,
				"element": "C" 
			},
			{
				"x": 1.704492902,
				"y": -0.609082989,
				"z": 1.9213248994,
				"element": "N" 
			},
			{
				"x": 0.7932792203,
				"y": -1.6235359006,
				"z": 1.5906637119,
				"element": "O" 
			},
			{
				"x": -0.157456424,
				"y": -1.1372116278,
				"z": 0.7809719249,
				"element": "C" 
			},
			{
				"x": -1.1756947158,
				"y": -2.083526963,
				"z": 0.3670303592,
				"element": "C" 
			},
			{
				"x": -1.6830472538,
				"y": -2.3388817069,
				"z": -0.8969926675,
				"element": "C" 
			},
			{
				"x": -1.3344636348,
				"y": -1.687524176,
				"z": -2.196826564,
				"element": "C" 
			},
			{
				"x": -2.5995222198,
				"y": -3.3648208708,
				"z": -0.8984244188,
				"element": "N" 
			},
			{
				"x": -2.8347039732,
				"y": -3.9092551672,
				"z": 0.2304315212,
				"element": "N" 
			},
			{
				"x": -1.8862435403,
				"y": -3.1905030578,
				"z": 1.4829996625,
				"element": "S" 
			},
			{
				"x": 0.0873162799,
				"y": 0.2115642922,
				"z": 0.5562839624,
				"element": "C" 
			},
			{
				"x": -0.825124712,
				"y": 1.0847081426,
				"z": -0.1756475084,
				"element": "C" 
			},
			{
				"x": -0.2300162026,
				"y": 2.7874207946,
				"z": -0.4219652349,
				"element": "Cl" 
			},
			{
				"x": -1.8993346468,
				"y": 0.7829272612,
				"z": -0.6097057257,
				"element": "O" 
			},
			{
				"x": 1.4922872732,
				"y": 2.5172952646,
				"z": 1.9431798114,
				"element": "H" 
			},
			{
				"x": 2.4706942188,
				"y": 2.0984519769,
				"z": 0.5394229927,
				"element": "H" 
			},
			{
				"x": 2.9395433839,
				"y": 1.5007976486,
				"z": 2.1505660373,
				"element": "H" 
			},
			{
				"x": -1.4172384344,
				"y": -2.4206991388,
				"z": -3.0019911102,
				"element": "H" 
			},
			{
				"x": -0.319181066,
				"y": -1.2841494965,
				"z": -2.1826997223,
				"element": "H" 
			},
			{
				"x": -2.0197096237,
				"y": -0.8604475108,
				"z": -2.4071277592,
				"element": "H" 
			}
		],
		 "valence_orbital": [ 
			{
				"type": "occ",
				"energy": -0.32524,
				"method": "rhf"
			},
			{
				"type": "occ",
				"energy": -0.3105,
				"method": "rhf"
			},
			{
				"type": "occ",
				"energy": -0.30142,
				"method": "rhf"
			},
			{
				"type": "occ",
				"energy": -0.28048,
				"method": "rhf"
			},
			{
				"type": "occ",
				"energy": -0.27173,
				"method": "rhf"
			},
			{
				"type": "unocc",
				"energy": -0.10599,
				"method": "rhf"
			},
			{
				"type": "unocc",
				"energy": -0.0646,
				"method": "rhf"
			},
			{
				"type": "unocc",
				"energy": -0.03665,
				"method": "rhf"
			},
			{
				"type": "unocc",
				"energy": -0.02211,
				"method": "rhf"
			},
			{
				"type": "unocc",
				"energy": 0.00189,
				"method": "rhf"
			}
		],
		"cosmo_sigma_profile": { 
			"-0.025": 0.0,
			"-0.024": 0.0,
			"-0.023": 0.0,
			"-0.022": 0.0,
			"-0.021": 0.0,
			"-0.02": 0.0,
			"-0.019": 0.0,
			"-0.018": 0.0,
			"-0.017": 0.0,
			"-0.016": 0.0,
			"-0.015": 0.0,
			"-0.014": 0.0,
			"-0.013": 0.0,
			"-0.012": 0.0,
			"-0.011": 0.0,
			"-0.01": 0.0,
			"-0.009": 0.0397092899188,
			"-0.008": 0.672464154653,
			"-0.007": 4.9537356994,
			"-0.006": 13.1628139145,
			"-0.005": 19.7027253524,
			"-0.004": 21.2815957004,
			"-0.003": 23.6305935544,
			"-0.002": 30.2222009884,
			"-0.001": 23.3963239837,
			"0.0": 16.7933654917,
			"0.001": 10.1135377869,
			"0.002": 10.7522225535,
			"0.003": 11.0898655782,
			"0.004": 12.4122831311,
			"0.005": 9.28525558563,
			"0.006": 6.0735127717,
			"0.007": 6.55368643219,
			"0.008": 7.02996945424,
			"0.009": 6.10729090748,
			"0.01": 3.2766357097,
			"0.011": 3.41761549433,
			"0.012": 2.26649704442,
			"0.013": 0.267004382369,
			"0.014": 0.0,
			"0.015": 0.0,
			"0.016": 0.0,
			"0.017": 0.0,
			"0.018": 0.0,
			"0.019": 0.0,
			"0.02": 0.0,
			"0.021": 0.0,
			"0.022": 0.0,
			"0.023": 0.0,
			"0.024": 0.0,
			"0.025": 0.0
		}
	}
}
