{
	 "smiles": "CN1CCC(CC1)(NC(C)=O)C(N)=NO", 
	 "Tm": 476.15, 
	 "num_atms": 33, 
	 "gaussian": { 
		 "optdone": 1, 
		 "sigma_profile": "yes", 
		 "theory": "DFT", 
		 "functional": "B3LYP", 
		 "basiset": "6-31G**", 
		 "properties": { 
			 "R2extent": 3388.7873, 
			 "electric_dipole_moment_norm": 2.7567562025, 
			 "electric_quadrupole_moment_norm": 9.40660000425, 
			 "total_energy": -723.210578277, 
			 "HOMO_LUMO_gap": 0.21216, 
			 "cosmo_polarized_energy": -15.48, 
			 "cosmo_cavitation_energy": 32.56, 
			 "cosmo_dispersion_energy": -23.34, 
			 "cosmo_repulsion_energy": 1.83, 
			 "cosmo_total_nonelectrostatic_energy": 11.05, 
			 "SMD_solvation_energy": 2.78 
		},
		"coords": [
			{
				"x": -2.6102322854,
				"y": 2.2291928654,
				"z": 1.5219111049,
				"element": "C" 
			},
			{
				"x": -2.817171544,
				"y": 0.8384710699,
				"z": 1.1404810092,
				"element": "N" 
			},
			{
				"x": -1.9269220875,
				"y": -0.1084993378,
				"z": 1.8158942782,
				"element": "C" 
			},
			{
				"x": -0.4832145167,
				"y": -0.1285423727,
				"z": 1.2675249445,
				"element": "C" 
			},
			{
				"x": -0.4046801,
				"y": -0.3631743133,
				"z": -0.2671068147,
				"element": "C" 
			},
			{
				"x": -1.3720065664,
				"y": 0.6615038379,
				"z": -0.9225732642,
				"element": "C" 
			},
			{
				"x": -2.7821780094,
				"y": 0.6073598218,
				"z": -0.302899365,
				"element": "C" 
			},
			{
				"x": 0.9631846457,
				"y": -0.0627351471,
				"z": -0.7367950079,
				"element": "N" 
			},
			{
				"x": 2.0320509646,
				"y": -0.8439922569,
				"z": -0.3849860699,
				"element": "C" 
			},
			{
				"x": 3.3222549658,
				"y": -0.5581760798,
				"z": -1.1374681841,
				"element": "C" 
			},
			{
				"x": 1.9690550651,
				"y": -1.7161853837,
				"z": 0.4785990111,
				"element": "O" 
			},
			{
				"x": -0.7392321312,
				"y": -1.8086734869,
				"z": -0.7078613744,
				"element": "C" 
			},
			{
				"x": -1.0544729778,
				"y": -2.7366732073,
				"z": 0.2879878748,
				"element": "N" 
			},
			{
				"x": -0.7642984082,
				"y": -2.2568252169,
				"z": -1.9159141777,
				"element": "N" 
			},
			{
				"x": -0.4883796067,
				"y": -1.2617645155,
				"z": -2.8983494602,
				"element": "O" 
			},
			{
				"x": -1.6195082625,
				"y": 2.6512244115,
				"z": 1.2715783211,
				"element": "H" 
			},
			{
				"x": -2.744696307,
				"y": 2.3291583301,
				"z": 2.6042165682,
				"element": "H" 
			},
			{
				"x": -3.3664032818,
				"y": 2.8539246693,
				"z": 1.0339943051,
				"element": "H" 
			},
			{
				"x": -1.902196651,
				"y": 0.1344925864,
				"z": 2.8841821914,
				"element": "H" 
			},
			{
				"x": -2.3613923586,
				"y": -1.1085337676,
				"z": 1.7186928594,
				"element": "H" 
			},
			{
				"x": -0.0088404735,
				"y": 0.8443006645,
				"z": 1.4408056125,
				"element": "H" 
			},
			{
				"x": 0.1244255843,
				"y": -0.8569014468,
				"z": 1.807013996,
				"element": "H" 
			},
			{
				"x": -0.9386006161,
				"y": 1.6573325637,
				"z": -0.7646636283,
				"element": "H" 
			},
			{
				"x": -1.4321209174,
				"y": 0.4915265246,
				"z": -1.9981480268,
				"element": "H" 
			},
			{
				"x": -3.4237538808,
				"y": 1.3462202347,
				"z": -0.7961133377,
				"element": "H" 
			},
			{
				"x": -3.2245309286,
				"y": -0.3781988555,
				"z": -0.499641644,
				"element": "H" 
			},
			{
				"x": 1.0172040201,
				"y": 0.3976372961,
				"z": -1.635487953,
				"element": "H" 
			},
			{
				"x": 3.3238893124,
				"y": 0.4114321617,
				"z": -1.6425133358,
				"element": "H" 
			},
			{
				"x": 3.4777398917,
				"y": -1.3441315368,
				"z": -1.8840462704,
				"element": "H" 
			},
			{
				"x": 4.1550308409,
				"y": -0.602598088,
				"z": -0.4328879957,
				"element": "H" 
			},
			{
				"x": -1.1747289874,
				"y": -3.6594885043,
				"z": -0.118923636,
				"element": "H" 
			},
			{
				"x": -0.3304521769,
				"y": -2.7592970284,
				"z": 1.0006489853,
				"element": "H" 
			},
			{
				"x": -0.5964222159,
				"y": -1.7707864923,
				"z": -3.7112515158,
				"element": "H" 
			}
		],
		 "valence_orbital": [ 
			{
				"type": "occ",
				"energy": -0.27623,
				"method": "rhf"
			},
			{
				"type": "occ",
				"energy": -0.25032,
				"method": "rhf"
			},
			{
				"type": "occ",
				"energy": -0.24591,
				"method": "rhf"
			},
			{
				"type": "occ",
				"energy": -0.21557,
				"method": "rhf"
			},
			{
				"type": "occ",
				"energy": -0.19716,
				"method": "rhf"
			},
			{
				"type": "unocc",
				"energy": 0.015,
				"method": "rhf"
			},
			{
				"type": "unocc",
				"energy": 0.03081,
				"method": "rhf"
			},
			{
				"type": "unocc",
				"energy": 0.06942,
				"method": "rhf"
			},
			{
				"type": "unocc",
				"energy": 0.08157,
				"method": "rhf"
			},
			{
				"type": "unocc",
				"energy": 0.09347,
				"method": "rhf"
			}
		],
		"cosmo_sigma_profile": { 
			"-0.025": 0.0,
			"-0.024": 0.0,
			"-0.023": 0.0,
			"-0.022": 0.0,
			"-0.021": 0.0,
			"-0.02": 0.0,
			"-0.019": 0.0,
			"-0.018": 0.0,
			"-0.017": 0.258077580131,
			"-0.016": 0.836082134998,
			"-0.015": 1.08652918748,
			"-0.014": 0.674397636149,
			"-0.013": 1.35710700584,
			"-0.012": 1.22399418747,
			"-0.011": 3.25759488762,
			"-0.01": 2.62572036164,
			"-0.009": 4.36833139583,
			"-0.008": 4.23454916926,
			"-0.007": 3.26454660075,
			"-0.006": 5.59892179159,
			"-0.005": 7.96014701665,
			"-0.004": 14.5788035333,
			"-0.003": 26.8475626967,
			"-0.002": 27.7317813051,
			"-0.001": 31.2649239619,
			"0.0": 27.1402967734,
			"0.001": 11.6067269735,
			"0.002": 8.853161812,
			"0.003": 8.08064756683,
			"0.004": 8.04107080892,
			"0.005": 10.5275333795,
			"0.006": 8.02182592045,
			"0.007": 5.70202104154,
			"0.008": 4.09233815433,
			"0.009": 3.54979377991,
			"0.01": 3.68566940289,
			"0.011": 3.38706437959,
			"0.012": 3.69275941523,
			"0.013": 3.15044308615,
			"0.014": 2.94041025136,
			"0.015": 1.61916471889,
			"0.016": 0.541680901593,
			"0.017": 0.340404760522,
			"0.018": 0.0188738049192,
			"0.019": 0.0,
			"0.02": 0.0,
			"0.021": 0.0,
			"0.022": 0.0,
			"0.023": 0.0,
			"0.024": 0.0,
			"0.025": 0.0
		}
	}
}
