{
	 "smiles": "CC1=C(C=O)C(=NO1)C1=C(Cl)C=CC=C1Cl", 
	 "Tm": 375.15, 
	 "num_atms": 23, 
	 "gaussian": { 
		 "optdone": 1, 
		 "sigma_profile": "yes", 
		 "theory": "DFT", 
		 "functional": "B3LYP", 
		 "basiset": "6-31G**", 
		 "properties": { 
			 "R2extent": 4277.1238, 
			 "electric_dipole_moment_norm": 2.262950733, 
			 "electric_quadrupole_moment_norm": 22.3970251723, 
			 "total_energy": -1548.91315479, 
			 "HOMO_LUMO_gap": 0.20173, 
			 "cosmo_polarized_energy": -11.54, 
			 "cosmo_cavitation_energy": 32.53, 
			 "cosmo_dispersion_energy": -22.2, 
			 "cosmo_repulsion_energy": 1.75, 
			 "cosmo_total_nonelectrostatic_energy": 12.07, 
			 "SMD_solvation_energy": 5.94 
		},
		"coords": [
			{
				"x": 0.4141075471,
				"y": -3.1024172168,
				"z": 2.6249602255,
				"element": "C" 
			},
			{
				"x": -0.0158570724,
				"y": -2.1313979053,
				"z": 1.5855741919,
				"element": "C" 
			},
			{
				"x": 0.0129434818,
				"y": -0.7549373361,
				"z": 1.5232355804,
				"element": "C" 
			},
			{
				"x": 0.5130901059,
				"y": 0.1583027546,
				"z": 2.5453771524,
				"element": "C" 
			},
			{
				"x": 0.9802464991,
				"y": -0.2087116309,
				"z": 3.6120758583,
				"element": "O" 
			},
			{
				"x": -0.5557123284,
				"y": -0.4640669987,
				"z": 0.2395151056,
				"element": "C" 
			},
			{
				"x": -0.8931231398,
				"y": -1.5545419073,
				"z": -0.4064526951,
				"element": "N" 
			},
			{
				"x": -0.5467304767,
				"y": -2.6128780331,
				"z": 0.4560656275,
				"element": "O" 
			},
			{
				"x": -0.782412604,
				"y": 0.8649935818,
				"z": -0.3832549753,
				"element": "C" 
			},
			{
				"x": -1.9856476673,
				"y": 1.5675807311,
				"z": -0.1972602892,
				"element": "C" 
			},
			{
				"x": -3.250035119,
				"y": 0.8790649195,
				"z": 0.8033852711,
				"element": "Cl" 
			},
			{
				"x": -2.2115951519,
				"y": 2.8120889545,
				"z": -0.7826529807,
				"element": "C" 
			},
			{
				"x": -1.21758811,
				"y": 3.3818034879,
				"z": -1.5753518792,
				"element": "C" 
			},
			{
				"x": -0.0085277147,
				"y": 2.7205572967,
				"z": -1.7800946289,
				"element": "C" 
			},
			{
				"x": 0.1965520867,
				"y": 1.4769265948,
				"z": -1.1852248872,
				"element": "C" 
			},
			{
				"x": 1.7312579337,
				"y": 0.672202754,
				"z": -1.4518177382,
				"element": "Cl" 
			},
			{
				"x": 0.2210879447,
				"y": -4.1238499689,
				"z": 2.2924949528,
				"element": "H" 
			},
			{
				"x": -0.1168309211,
				"y": -2.911358807,
				"z": 3.5620686559,
				"element": "H" 
			},
			{
				"x": 1.4794720365,
				"y": -2.9778759295,
				"z": 2.8395778091,
				"element": "H" 
			},
			{
				"x": 0.4423917277,
				"y": 1.2360186676,
				"z": 2.2910353839,
				"element": "H" 
			},
			{
				"x": -3.1545528687,
				"y": 3.3194451236,
				"z": -0.6160422004,
				"element": "H" 
			},
			{
				"x": -1.3859576512,
				"y": 4.3501142889,
				"z": -2.0361097161,
				"element": "H" 
			},
			{
				"x": 0.7713214623,
				"y": 3.1563365787,
				"z": -2.3935038241,
				"element": "H" 
			}
		],
		 "valence_orbital": [ 
			{
				"type": "occ",
				"energy": -0.30637,
				"method": "rhf"
			},
			{
				"type": "occ",
				"energy": -0.27851,
				"method": "rhf"
			},
			{
				"type": "occ",
				"energy": -0.26956,
				"method": "rhf"
			},
			{
				"type": "occ",
				"energy": -0.26264,
				"method": "rhf"
			},
			{
				"type": "occ",
				"energy": -0.25977,
				"method": "rhf"
			},
			{
				"type": "unocc",
				"energy": -0.05804,
				"method": "rhf"
			},
			{
				"type": "unocc",
				"energy": -0.04338,
				"method": "rhf"
			},
			{
				"type": "unocc",
				"energy": -0.03622,
				"method": "rhf"
			},
			{
				"type": "unocc",
				"energy": -0.01935,
				"method": "rhf"
			},
			{
				"type": "unocc",
				"energy": -0.0035,
				"method": "rhf"
			}
		],
		"cosmo_sigma_profile": { 
			"-0.025": 0.0,
			"-0.024": 0.0,
			"-0.023": 0.0,
			"-0.022": 0.0,
			"-0.021": 0.0,
			"-0.02": 0.0,
			"-0.019": 0.0,
			"-0.018": 0.0,
			"-0.017": 0.0,
			"-0.016": 0.0,
			"-0.015": 0.0,
			"-0.014": 0.0,
			"-0.013": 0.0,
			"-0.012": 0.0,
			"-0.011": 0.0,
			"-0.01": 0.0,
			"-0.009": 0.326009767352,
			"-0.008": 4.90643231632,
			"-0.007": 11.7017589058,
			"-0.006": 16.6031555426,
			"-0.005": 15.6113079732,
			"-0.004": 16.1571647252,
			"-0.003": 20.5822618287,
			"-0.002": 19.2520031418,
			"-0.001": 18.7331897246,
			"0.0": 25.2565559312,
			"0.001": 23.7860591018,
			"0.002": 22.8305177097,
			"0.003": 18.8880250648,
			"0.004": 15.8615951326,
			"0.005": 5.51635010154,
			"0.006": 5.94981643518,
			"0.007": 4.51834069903,
			"0.008": 3.01733589083,
			"0.009": 3.66487948113,
			"0.01": 3.62688444671,
			"0.011": 4.8893835897,
			"0.012": 3.04099665048,
			"0.013": 1.4596795167,
			"0.014": 0.00781319005927,
			"0.015": 0.0,
			"0.016": 0.0,
			"0.017": 0.0,
			"0.018": 0.0,
			"0.019": 0.0,
			"0.02": 0.0,
			"0.021": 0.0,
			"0.022": 0.0,
			"0.023": 0.0,
			"0.024": 0.0,
			"0.025": 0.0
		}
	}
}
