{
	 "smiles": "CC(C)COC1=NC=C(C=C1)C(O)=O", 
	 "Tm": 379.15, 
	 "num_atms": 27, 
	 "gaussian": { 
		 "optdone": 1, 
		 "sigma_profile": "yes", 
		 "theory": "DFT", 
		 "functional": "B3LYP", 
		 "basiset": "6-31G**", 
		 "properties": { 
			 "R2extent": 4604.0047, 
			 "electric_dipole_moment_norm": 1.76915499886, 
			 "electric_quadrupole_moment_norm": 6.72110638511, 
			 "total_energy": -669.35168258, 
			 "HOMO_LUMO_gap": 0.19713, 
			 "cosmo_polarized_energy": -9.87, 
			 "cosmo_cavitation_energy": 31.14, 
			 "cosmo_dispersion_energy": -22.33, 
			 "cosmo_repulsion_energy": 1.78, 
			 "cosmo_total_nonelectrostatic_energy": 10.59, 
			 "SMD_solvation_energy": 6.0 
		},
		"coords": [
			{
				"x": -2.9663091478,
				"y": 1.8036371744,
				"z": 2.6920189943,
				"element": "C" 
			},
			{
				"x": -2.5704454453,
				"y": 0.3202531817,
				"z": 2.740306045,
				"element": "C" 
			},
			{
				"x": -1.4715116939,
				"y": 0.0579965434,
				"z": 3.780982007,
				"element": "C" 
			},
			{
				"x": -2.1813367857,
				"y": -0.2077000311,
				"z": 1.3598425335,
				"element": "C" 
			},
			{
				"x": -1.0139001153,
				"y": 0.5153630473,
				"z": 0.915474246,
				"element": "O" 
			},
			{
				"x": -0.4950990999,
				"y": 0.2081894733,
				"z": -0.2847631981,
				"element": "C" 
			},
			{
				"x": -1.0659431792,
				"y": -0.74362881,
				"z": -1.022895356,
				"element": "N" 
			},
			{
				"x": -0.516052527,
				"y": -1.0180600944,
				"z": -2.21284544,
				"element": "C" 
			},
			{
				"x": 0.6119085622,
				"y": -0.3644488795,
				"z": -2.7124971305,
				"element": "C" 
			},
			{
				"x": 1.1981203899,
				"y": 0.6377936387,
				"z": -1.9146121772,
				"element": "C" 
			},
			{
				"x": 0.6466649256,
				"y": 0.9348767697,
				"z": -0.6863270579,
				"element": "C" 
			},
			{
				"x": 1.2100058975,
				"y": -0.6761573651,
				"z": -4.0277034729,
				"element": "C" 
			},
			{
				"x": 0.5501422164,
				"y": -1.6577562359,
				"z": -4.6947267562,
				"element": "O" 
			},
			{
				"x": 2.1913872347,
				"y": -0.1272643853,
				"z": -4.4915212404,
				"element": "O" 
			},
			{
				"x": -2.1178453207,
				"y": 2.4226248139,
				"z": 2.3848827394,
				"element": "H" 
			},
			{
				"x": -3.2993484538,
				"y": 2.149949824,
				"z": 3.6757155396,
				"element": "H" 
			},
			{
				"x": -3.7824050256,
				"y": 1.9756857361,
				"z": 1.9815216395,
				"element": "H" 
			},
			{
				"x": -3.4587386693,
				"y": -0.2618606793,
				"z": 3.0265128686,
				"element": "H" 
			},
			{
				"x": -0.5552434445,
				"y": 0.5978307268,
				"z": 3.5232996357,
				"element": "H" 
			},
			{
				"x": -1.2272062663,
				"y": -1.008255779,
				"z": 3.8429103807,
				"element": "H" 
			},
			{
				"x": -1.7901789525,
				"y": 0.3874058487,
				"z": 4.775188029,
				"element": "H" 
			},
			{
				"x": -1.9485415453,
				"y": -1.2776302146,
				"z": 1.3893931296,
				"element": "H" 
			},
			{
				"x": -2.9878517923,
				"y": -0.0644194846,
				"z": 0.6325978234,
				"element": "H" 
			},
			{
				"x": -0.9986509568,
				"y": -1.7971232859,
				"z": -2.7963696252,
				"element": "H" 
			},
			{
				"x": 2.0755447116,
				"y": 1.157166857,
				"z": -2.2856092816,
				"element": "H" 
			},
			{
				"x": 1.0555414358,
				"y": 1.6955210424,
				"z": -0.0314172123,
				"element": "H" 
			},
			{
				"x": 1.0283930472,
				"y": -1.7731894327,
				"z": -5.5320576629,
				"element": "H" 
			}
		],
		 "valence_orbital": [ 
			{
				"type": "occ",
				"energy": -0.31799,
				"method": "rhf"
			},
			{
				"type": "occ",
				"energy": -0.29348,
				"method": "rhf"
			},
			{
				"type": "occ",
				"energy": -0.28377,
				"method": "rhf"
			},
			{
				"type": "occ",
				"energy": -0.26756,
				"method": "rhf"
			},
			{
				"type": "occ",
				"energy": -0.24179,
				"method": "rhf"
			},
			{
				"type": "unocc",
				"energy": -0.04466,
				"method": "rhf"
			},
			{
				"type": "unocc",
				"energy": -0.02763,
				"method": "rhf"
			},
			{
				"type": "unocc",
				"energy": 0.05768,
				"method": "rhf"
			},
			{
				"type": "unocc",
				"energy": 0.07822,
				"method": "rhf"
			},
			{
				"type": "unocc",
				"energy": 0.08285,
				"method": "rhf"
			}
		],
		"cosmo_sigma_profile": { 
			"-0.025": 0.0,
			"-0.024": 0.0,
			"-0.023": 0.0,
			"-0.022": 0.0,
			"-0.021": 0.0,
			"-0.02": 0.0,
			"-0.019": 0.0085285131245,
			"-0.018": 0.729425283216,
			"-0.017": 1.14959317551,
			"-0.016": 0.415253789685,
			"-0.015": 1.04064217429,
			"-0.014": 0.398495340174,
			"-0.013": 0.768204329714,
			"-0.012": 0.463430938582,
			"-0.011": 1.07855493013,
			"-0.01": 1.13272594474,
			"-0.009": 0.458841284084,
			"-0.008": 0.864668039365,
			"-0.007": 4.08053817112,
			"-0.006": 5.50355065581,
			"-0.005": 6.9307459406,
			"-0.004": 12.1209346166,
			"-0.003": 23.4476407784,
			"-0.002": 24.5167945498,
			"-0.001": 28.8692578082,
			"0.0": 31.4948761556,
			"0.001": 32.6021738939,
			"0.002": 17.265932981,
			"0.003": 7.45115940114,
			"0.004": 8.0526925025,
			"0.005": 6.49133026494,
			"0.006": 5.97545684159,
			"0.007": 3.90547430828,
			"0.008": 3.37144838122,
			"0.009": 2.37435466254,
			"0.01": 2.72805800851,
			"0.011": 4.35384449746,
			"0.012": 5.02838201885,
			"0.013": 0.419700093439,
			"0.014": 0.0,
			"0.015": 0.0,
			"0.016": 0.0,
			"0.017": 0.0,
			"0.018": 0.0,
			"0.019": 0.0,
			"0.02": 0.0,
			"0.021": 0.0,
			"0.022": 0.0,
			"0.023": 0.0,
			"0.024": 0.0,
			"0.025": 0.0
		}
	}
}
