{
	 "smiles": "CC(=O)C1=CC=C(OCC2=C(C)C=CC=C2)C=C1", 
	 "Tm": 372.15, 
	 "num_atms": 34, 
	 "gaussian": { 
		 "optdone": 1, 
		 "sigma_profile": "yes", 
		 "theory": "DFT", 
		 "functional": "B3LYP", 
		 "basiset": "6-31G**", 
		 "properties": { 
			 "R2extent": 8006.5432, 
			 "electric_dipole_moment_norm": 4.54499744554, 
			 "electric_quadrupole_moment_norm": 21.408961774, 
			 "total_energy": -769.798391346, 
			 "HOMO_LUMO_gap": 0.18563, 
			 "cosmo_polarized_energy": -12.4, 
			 "cosmo_cavitation_energy": 37.77, 
			 "cosmo_dispersion_energy": -27.07, 
			 "cosmo_repulsion_energy": 2.06, 
			 "cosmo_total_nonelectrostatic_energy": 12.76, 
			 "SMD_solvation_energy": 7.1 
		},
		"coords": [
			{
				"x": 1.1927459186,
				"y": -6.3757811366,
				"z": -1.0752618106,
				"element": "C" 
			},
			{
				"x": 0.7613952653,
				"y": -5.7798765374,
				"z": 0.2564907457,
				"element": "C" 
			},
			{
				"x": 0.5586657766,
				"y": -6.505588817,
				"z": 1.220425562,
				"element": "O" 
			},
			{
				"x": 0.5913509151,
				"y": -4.3008491319,
				"z": 0.3637795754,
				"element": "C" 
			},
			{
				"x": 0.1916760001,
				"y": -3.7598778071,
				"z": 1.6012757307,
				"element": "C" 
			},
			{
				"x": 0.0177503437,
				"y": -2.3973037152,
				"z": 1.76118479,
				"element": "C" 
			},
			{
				"x": 0.2403673371,
				"y": -1.5271432938,
				"z": 0.6784993517,
				"element": "C" 
			},
			{
				"x": 0.0427159627,
				"y": -0.207302246,
				"z": 0.9368194058,
				"element": "O" 
			},
			{
				"x": 0.2483740512,
				"y": 0.7368923219,
				"z": -0.1072731098,
				"element": "C" 
			},
			{
				"x": -0.0262410628,
				"y": 2.1353659723,
				"z": 0.3990780983,
				"element": "C" 
			},
			{
				"x": 0.1219411335,
				"y": 3.2219716324,
				"z": -0.4887914127,
				"element": "C" 
			},
			{
				"x": 0.5469934074,
				"y": 3.0092797244,
				"z": -1.9235805278,
				"element": "C" 
			},
			{
				"x": -0.1335148904,
				"y": 4.5132341375,
				"z": -0.0150989191,
				"element": "C" 
			},
			{
				"x": -0.5272962252,
				"y": 4.7390221647,
				"z": 1.3045380212,
				"element": "C" 
			},
			{
				"x": -0.6709379579,
				"y": 3.6599255959,
				"z": 2.1738271348,
				"element": "C" 
			},
			{
				"x": -0.4205959744,
				"y": 2.3638576882,
				"z": 1.7198538427,
				"element": "C" 
			},
			{
				"x": 0.6386244355,
				"y": -2.0458356854,
				"z": -0.5611666379,
				"element": "C" 
			},
			{
				"x": 0.8094499048,
				"y": -3.4233444121,
				"z": -0.7051935926,
				"element": "C" 
			},
			{
				"x": 2.1645748951,
				"y": -5.9788721532,
				"z": -1.3890727597,
				"element": "H" 
			},
			{
				"x": 0.4720265607,
				"y": -6.1387792239,
				"z": -1.8657447099,
				"element": "H" 
			},
			{
				"x": 1.2638067728,
				"y": -7.4581137608,
				"z": -0.9644642785,
				"element": "H" 
			},
			{
				"x": 0.024046145,
				"y": -4.4440207826,
				"z": 2.4263503122,
				"element": "H" 
			},
			{
				"x": -0.2899222367,
				"y": -1.9720873754,
				"z": 2.7109366796,
				"element": "H" 
			},
			{
				"x": 1.2824368479,
				"y": 0.6592948084,
				"z": -0.4768114473,
				"element": "H" 
			},
			{
				"x": -0.4125982494,
				"y": 0.4997294318,
				"z": -0.9550606057,
				"element": "H" 
			},
			{
				"x": -0.1577452244,
				"y": 2.3692374353,
				"z": -2.4695584957,
				"element": "H" 
			},
			{
				"x": 0.607917196,
				"y": 3.9604530841,
				"z": -2.4582091013,
				"element": "H" 
			},
			{
				"x": 1.5313239958,
				"y": 2.5289735474,
				"z": -1.9928506221,
				"element": "H" 
			},
			{
				"x": -0.0208473689,
				"y": 5.3540357162,
				"z": -0.6951398578,
				"element": "H" 
			},
			{
				"x": -0.7196013175,
				"y": 5.751531845,
				"z": 1.6476269819,
				"element": "H" 
			},
			{
				"x": -0.9767497864,
				"y": 3.8210050171,
				"z": 3.2035465767,
				"element": "H" 
			},
			{
				"x": -0.5299547894,
				"y": 1.519160992,
				"z": 2.3893883786,
				"element": "H" 
			},
			{
				"x": 0.8159824408,
				"y": -1.3957339969,
				"z": -1.4089851415,
				"element": "H" 
			},
			{
				"x": 1.1181397776,
				"y": -3.8060610393,
				"z": -1.6728581575,
				"element": "H" 
			}
		],
		 "valence_orbital": [ 
			{
				"type": "occ",
				"energy": -0.26164,
				"method": "rhf"
			},
			{
				"type": "occ",
				"energy": -0.24787,
				"method": "rhf"
			},
			{
				"type": "occ",
				"energy": -0.24162,
				"method": "rhf"
			},
			{
				"type": "occ",
				"energy": -0.24157,
				"method": "rhf"
			},
			{
				"type": "occ",
				"energy": -0.2312,
				"method": "rhf"
			},
			{
				"type": "unocc",
				"energy": -0.04557,
				"method": "rhf"
			},
			{
				"type": "unocc",
				"energy": -0.01112,
				"method": "rhf"
			},
			{
				"type": "unocc",
				"energy": -0.00289,
				"method": "rhf"
			},
			{
				"type": "unocc",
				"energy": 0.00123,
				"method": "rhf"
			},
			{
				"type": "unocc",
				"energy": 0.05002,
				"method": "rhf"
			}
		],
		"cosmo_sigma_profile": { 
			"-0.025": 0.0,
			"-0.024": 0.0,
			"-0.023": 0.0,
			"-0.022": 0.0,
			"-0.021": 0.0,
			"-0.02": 0.0,
			"-0.019": 0.0,
			"-0.018": 0.0,
			"-0.017": 0.0,
			"-0.016": 0.0,
			"-0.015": 0.0,
			"-0.014": 0.0,
			"-0.013": 0.0,
			"-0.012": 0.0,
			"-0.011": 0.0,
			"-0.01": 0.0,
			"-0.009": 0.0,
			"-0.008": 0.213196417328,
			"-0.007": 4.38169901633,
			"-0.006": 19.4814311834,
			"-0.005": 27.0326476535,
			"-0.004": 28.030932172,
			"-0.003": 25.7204640205,
			"-0.002": 21.4548623901,
			"-0.001": 24.6181507524,
			"0.0": 22.9191320507,
			"0.001": 18.6408938325,
			"0.002": 18.6970870397,
			"0.003": 24.6278798964,
			"0.004": 22.3214722526,
			"0.005": 11.4792474953,
			"0.006": 11.4791195105,
			"0.007": 4.67002445537,
			"0.008": 1.00788264914,
			"0.009": 1.59838595138,
			"0.01": 2.23980369077,
			"0.011": 2.25580022667,
			"0.012": 4.21471738967,
			"0.013": 2.55753427829,
			"0.014": 0.637094097358,
			"0.015": 0.0,
			"0.016": 0.0,
			"0.017": 0.0,
			"0.018": 0.0,
			"0.019": 0.0,
			"0.02": 0.0,
			"0.021": 0.0,
			"0.022": 0.0,
			"0.023": 0.0,
			"0.024": 0.0,
			"0.025": 0.0
		}
	}
}
