{
	 "smiles": "OC(=O)CC1=CC2=C(C=CC=C2)N=C1", 
	 "Tm": 475.15, 
	 "num_atms": 23, 
	 "gaussian": { 
		 "optdone": 1, 
		 "sigma_profile": "yes", 
		 "theory": "DFT", 
		 "functional": "B3LYP", 
		 "basiset": "6-31G**", 
		 "properties": { 
			 "R2extent": 3594.4908, 
			 "electric_dipole_moment_norm": 5.20512818766, 
			 "electric_quadrupole_moment_norm": 21.0242830273, 
			 "total_energy": -629.809637271, 
			 "HOMO_LUMO_gap": 0.17556, 
			 "cosmo_polarized_energy": -16.65, 
			 "cosmo_cavitation_energy": 27.62, 
			 "cosmo_dispersion_energy": -20.11, 
			 "cosmo_repulsion_energy": 1.57, 
			 "cosmo_total_nonelectrostatic_energy": 9.08, 
			 "SMD_solvation_energy": 4.14 
		},
		"coords": [
			{
				"x": -0.1636516391,
				"y": 1.025709612,
				"z": -3.7443744204,
				"element": "O" 
			},
			{
				"x": -1.4787069404,
				"y": 1.1807080791,
				"z": -3.4683471245,
				"element": "C" 
			},
			{
				"x": -2.2470147473,
				"y": 1.5814583537,
				"z": -4.3050253026,
				"element": "O" 
			},
			{
				"x": -1.9197457443,
				"y": 0.8709555709,
				"z": -2.025349806,
				"element": "C" 
			},
			{
				"x": -1.0191581972,
				"y": -0.0506211112,
				"z": -1.2395304277,
				"element": "C" 
			},
			{
				"x": -0.0327028524,
				"y": 0.4166876512,
				"z": -0.3931198643,
				"element": "C" 
			},
			{
				"x": 0.8009549386,
				"y": -0.4948805376,
				"z": 0.3043777644,
				"element": "C" 
			},
			{
				"x": 0.5719171887,
				"y": -1.8916853132,
				"z": 0.0926655246,
				"element": "C" 
			},
			{
				"x": 1.3836944865,
				"y": -2.8359494958,
				"z": 0.7731993285,
				"element": "C" 
			},
			{
				"x": 2.3779173349,
				"y": -2.4105109144,
				"z": 1.6260915567,
				"element": "C" 
			},
			{
				"x": 2.6037062984,
				"y": -1.0271326176,
				"z": 1.8371955464,
				"element": "C" 
			},
			{
				"x": 1.8318215249,
				"y": -0.08731215,
				"z": 1.1910244082,
				"element": "C" 
			},
			{
				"x": -0.4074554882,
				"y": -2.3510403638,
				"z": -0.742739763,
				"element": "N" 
			},
			{
				"x": -1.1519668545,
				"y": -1.4668153665,
				"z": -1.3679287883,
				"element": "C" 
			},
			{
				"x": 0.2918527645,
				"y": 0.6583314962,
				"z": -2.9699894731,
				"element": "H" 
			},
			{
				"x": -2.0027661409,
				"y": 1.8411262113,
				"z": -1.5205824754,
				"element": "H" 
			},
			{
				"x": -2.9350821259,
				"y": 0.4726965304,
				"z": -2.0984849335,
				"element": "H" 
			},
			{
				"x": 0.1058827805,
				"y": 1.485964832,
				"z": -0.2414716285,
				"element": "H" 
			},
			{
				"x": 1.1898338298,
				"y": -3.8885359966,
				"z": 0.5953590568,
				"element": "H" 
			},
			{
				"x": 2.9967571951,
				"y": -3.1370520939,
				"z": 2.144278209,
				"element": "H" 
			},
			{
				"x": 3.3915841405,
				"y": -0.7104120496,
				"z": 2.5140660127,
				"element": "H" 
			},
			{
				"x": 2.0017146275,
				"y": 0.9743872577,
				"z": 1.3508349057,
				"element": "H" 
			},
			{
				"x": -1.9265863798,
				"y": -1.8634775843,
				"z": -2.0255483056,
				"element": "H" 
			}
		],
		 "valence_orbital": [ 
			{
				"type": "occ",
				"energy": -0.31478,
				"method": "rhf"
			},
			{
				"type": "occ",
				"energy": -0.27962,
				"method": "rhf"
			},
			{
				"type": "occ",
				"energy": -0.26838,
				"method": "rhf"
			},
			{
				"type": "occ",
				"energy": -0.25959,
				"method": "rhf"
			},
			{
				"type": "occ",
				"energy": -0.24603,
				"method": "rhf"
			},
			{
				"type": "unocc",
				"energy": -0.07047,
				"method": "rhf"
			},
			{
				"type": "unocc",
				"energy": -0.03538,
				"method": "rhf"
			},
			{
				"type": "unocc",
				"energy": 0.00139,
				"method": "rhf"
			},
			{
				"type": "unocc",
				"energy": 0.01272,
				"method": "rhf"
			},
			{
				"type": "unocc",
				"energy": 0.06414,
				"method": "rhf"
			}
		],
		"cosmo_sigma_profile": { 
			"-0.025": 0.0,
			"-0.024": 0.0,
			"-0.023": 0.0,
			"-0.022": 0.0,
			"-0.021": 0.0,
			"-0.02": 0.0,
			"-0.019": 0.0,
			"-0.018": 0.0,
			"-0.017": 0.0,
			"-0.016": 0.0,
			"-0.015": 0.173205364205,
			"-0.014": 0.871529205358,
			"-0.013": 0.5611895986,
			"-0.012": 1.16157470259,
			"-0.011": 1.41023254433,
			"-0.01": 1.96113995186,
			"-0.009": 2.76597766102,
			"-0.008": 7.81898291806,
			"-0.007": 14.3530960732,
			"-0.006": 16.5769779936,
			"-0.005": 15.0202176443,
			"-0.004": 14.8306923417,
			"-0.003": 11.4892550125,
			"-0.002": 10.8050183891,
			"-0.001": 8.93195280762,
			"0.0": 12.6443191986,
			"0.001": 13.7642054782,
			"0.002": 14.1209585288,
			"0.003": 15.2569100158,
			"0.004": 12.9548936361,
			"0.005": 4.46012543044,
			"0.006": 3.59727393547,
			"0.007": 4.37445368621,
			"0.008": 4.02612839593,
			"0.009": 3.59618801489,
			"0.01": 6.31367157676,
			"0.011": 5.62385046303,
			"0.012": 6.60448363461,
			"0.013": 3.23758326193,
			"0.014": 0.864746795617,
			"0.015": 0.731667345944,
			"0.016": 0.394419434667,
			"0.017": 0.0,
			"0.018": 0.0,
			"0.019": 0.0,
			"0.02": 0.0,
			"0.021": 0.0,
			"0.022": 0.0,
			"0.023": 0.0,
			"0.024": 0.0,
			"0.025": 0.0
		}
	}
}
