{
	 "smiles": "[O-][N+](=O)C1=C(Cl)C=CC(=C1)C#N", 
	 "Tm": 372.65, 
	 "num_atms": 15, 
	 "gaussian": { 
		 "optdone": 1, 
		 "sigma_profile": "yes", 
		 "theory": "DFT", 
		 "functional": "B3LYP", 
		 "basiset": "6-31G**", 
		 "properties": { 
			 "R2extent": 2616.8075, 
			 "electric_dipole_moment_norm": 3.79005240465, 
			 "electric_quadrupole_moment_norm": 17.0304421302, 
			 "total_energy": -988.559437194, 
			 "HOMO_LUMO_gap": 0.17713, 
			 "cosmo_polarized_energy": -12.67, 
			 "cosmo_cavitation_energy": 23.76, 
			 "cosmo_dispersion_energy": -16.93, 
			 "cosmo_repulsion_energy": 1.35, 
			 "cosmo_total_nonelectrostatic_energy": 8.18, 
			 "SMD_solvation_energy": 7.57 
		},
		"coords": [
			{
				"x": 0.1040647351,
				"y": -2.3587073683,
				"z": 0.250562212,
				"element": "O" 
			},
			{
				"x": -0.1350000264,
				"y": -1.4495922535,
				"z": 1.0430264682,
				"element": "N" 
			},
			{
				"x": -0.6841423088,
				"y": -1.5756165192,
				"z": 2.1305595975,
				"element": "O" 
			},
			{
				"x": 0.3214386316,
				"y": -0.0999543927,
				"z": 0.6511537966,
				"element": "C" 
			},
			{
				"x": -0.3459087588,
				"y": 1.0768033222,
				"z": 1.0278618363,
				"element": "C" 
			},
			{
				"x": -1.8353886894,
				"y": 1.0965943448,
				"z": 1.9188101887,
				"element": "Cl" 
			},
			{
				"x": 0.1823307077,
				"y": 2.3075497816,
				"z": 0.6194783548,
				"element": "C" 
			},
			{
				"x": 1.3498829296,
				"y": 2.3696740022,
				"z": -0.1291994655,
				"element": "C" 
			},
			{
				"x": 2.0077213579,
				"y": 1.1868281897,
				"z": -0.5078009337,
				"element": "C" 
			},
			{
				"x": 1.4779388088,
				"y": -0.0486642421,
				"z": -0.1224723181,
				"element": "C" 
			},
			{
				"x": 3.2095165562,
				"y": 1.2433005029,
				"z": -1.287506121,
				"element": "C" 
			},
			{
				"x": 4.1840073216,
				"y": 1.2979938712,
				"z": -1.9193679226,
				"element": "N" 
			},
			{
				"x": -0.3389572393,
				"y": 3.2161630685,
				"z": 0.8971891552,
				"element": "H" 
			},
			{
				"x": 1.7519180397,
				"y": 3.3308870143,
				"z": -0.4295924217,
				"element": "H" 
			},
			{
				"x": 1.9512779346,
				"y": -0.9779593217,
				"z": -0.4134024268,
				"element": "H" 
			}
		],
		 "valence_orbital": [ 
			{
				"type": "occ",
				"energy": -0.33016,
				"method": "rhf"
			},
			{
				"type": "occ",
				"energy": -0.3288,
				"method": "rhf"
			},
			{
				"type": "occ",
				"energy": -0.31919,
				"method": "rhf"
			},
			{
				"type": "occ",
				"energy": -0.30254,
				"method": "rhf"
			},
			{
				"type": "occ",
				"energy": -0.28765,
				"method": "rhf"
			},
			{
				"type": "unocc",
				"energy": -0.11052,
				"method": "rhf"
			},
			{
				"type": "unocc",
				"energy": -0.08237,
				"method": "rhf"
			},
			{
				"type": "unocc",
				"energy": -0.04344,
				"method": "rhf"
			},
			{
				"type": "unocc",
				"energy": -0.00833,
				"method": "rhf"
			},
			{
				"type": "unocc",
				"energy": 0.01218,
				"method": "rhf"
			}
		],
		"cosmo_sigma_profile": { 
			"-0.025": 0.0,
			"-0.024": 0.0,
			"-0.023": 0.0,
			"-0.022": 0.0,
			"-0.021": 0.0,
			"-0.02": 0.0,
			"-0.019": 0.0,
			"-0.018": 0.0,
			"-0.017": 0.0,
			"-0.016": 0.0,
			"-0.015": 0.0,
			"-0.014": 0.0,
			"-0.013": 0.0,
			"-0.012": 0.0,
			"-0.011": 0.297901895349,
			"-0.01": 3.70475377032,
			"-0.009": 8.39156073771,
			"-0.008": 7.93715701382,
			"-0.007": 6.16579188559,
			"-0.006": 7.49549389094,
			"-0.005": 6.9885045038,
			"-0.004": 12.4014429039,
			"-0.003": 19.8991459235,
			"-0.002": 18.5834863746,
			"-0.001": 11.3791341659,
			"0.0": 8.26477941984,
			"0.001": 8.77845246889,
			"0.002": 10.6005452354,
			"0.003": 7.56270891999,
			"0.004": 6.46277162737,
			"0.005": 6.40306697942,
			"0.006": 9.63872620636,
			"0.007": 13.801290512,
			"0.008": 7.91962936827,
			"0.009": 5.56475951039,
			"0.01": 2.72549082867,
			"0.011": 2.60779924027,
			"0.012": 1.75757733671,
			"0.013": 0.223691961996,
			"0.014": 0.0,
			"0.015": 0.0,
			"0.016": 0.0,
			"0.017": 0.0,
			"0.018": 0.0,
			"0.019": 0.0,
			"0.02": 0.0,
			"0.021": 0.0,
			"0.022": 0.0,
			"0.023": 0.0,
			"0.024": 0.0,
			"0.025": 0.0
		}
	}
}
