{
	 "smiles": "CSC1=NC(=CC(C)=N1)C(O)=O", 
	 "Tm": 426.15, 
	 "num_atms": 20, 
	 "gaussian": { 
		 "optdone": 1, 
		 "sigma_profile": "yes", 
		 "theory": "DFT", 
		 "functional": "B3LYP", 
		 "basiset": "6-31G**", 
		 "properties": { 
			 "R2extent": 3901.1179, 
			 "electric_dipole_moment_norm": 1.13120295703, 
			 "electric_quadrupole_moment_norm": 13.1369287686, 
			 "total_energy": -929.724221518, 
			 "HOMO_LUMO_gap": 0.15612, 
			 "cosmo_polarized_energy": -12.82, 
			 "cosmo_cavitation_energy": 26.78, 
			 "cosmo_dispersion_energy": -19.87, 
			 "cosmo_repulsion_energy": 1.57, 
			 "cosmo_total_nonelectrostatic_energy": 8.48, 
			 "SMD_solvation_energy": 4.04 
		},
		"coords": [
			{
				"x": 3.3565174747,
				"y": -3.0803465228,
				"z": -2.0362375039,
				"element": "C" 
			},
			{
				"x": 2.7454161556,
				"y": -2.9544301338,
				"z": -0.3218610097,
				"element": "S" 
			},
			{
				"x": 1.295213355,
				"y": -1.9623725852,
				"z": -0.5415709239,
				"element": "C" 
			},
			{
				"x": 0.96385874,
				"y": -1.5464476492,
				"z": -1.7646507328,
				"element": "N" 
			},
			{
				"x": -0.1488081218,
				"y": -0.8004239496,
				"z": -1.8370468394,
				"element": "C" 
			},
			{
				"x": -0.9136814034,
				"y": -0.4748474581,
				"z": -0.7251135964,
				"element": "C" 
			},
			{
				"x": -0.4715621858,
				"y": -0.9666369666,
				"z": 0.5156848109,
				"element": "C" 
			},
			{
				"x": -1.2187504196,
				"y": -0.6789927428,
				"z": 1.7898670978,
				"element": "C" 
			},
			{
				"x": 0.6342719301,
				"y": -1.7105528882,
				"z": 0.6029972837,
				"element": "N" 
			},
			{
				"x": -0.5906265506,
				"y": -0.2919221971,
				"z": -3.1829440561,
				"element": "C" 
			},
			{
				"x": 0.2195545858,
				"y": -0.6645264199,
				"z": -4.188948582,
				"element": "O" 
			},
			{
				"x": -1.5835680211,
				"y": 0.3890154036,
				"z": -3.3418370184,
				"element": "O" 
			},
			{
				"x": 3.5902248669,
				"y": -2.0939528076,
				"z": -2.4375660736,
				"element": "H" 
			},
			{
				"x": 4.2630441222,
				"y": -3.6872262953,
				"z": -1.9829931203,
				"element": "H" 
			},
			{
				"x": 2.618871727,
				"y": -3.5657657459,
				"z": -2.6756871915,
				"element": "H" 
			},
			{
				"x": -1.805474959,
				"y": 0.1306459089,
				"z": -0.8301950271,
				"element": "H" 
			},
			{
				"x": -1.2828363732,
				"y": 0.4003202744,
				"z": 1.9668398984,
				"element": "H" 
			},
			{
				"x": -0.7110208472,
				"y": -1.1496917961,
				"z": 2.6324228776,
				"element": "H" 
			},
			{
				"x": -2.2449982844,
				"y": -1.0582001964,
				"z": 1.731854612,
				"element": "H" 
			},
			{
				"x": -0.1664457911,
				"y": -0.2800452323,
				"z": -4.9940149053,
				"element": "H" 
			}
		],
		 "valence_orbital": [ 
			{
				"type": "occ",
				"energy": -0.30915,
				"method": "rhf"
			},
			{
				"type": "occ",
				"energy": -0.30229,
				"method": "rhf"
			},
			{
				"type": "occ",
				"energy": -0.2926,
				"method": "rhf"
			},
			{
				"type": "occ",
				"energy": -0.26065,
				"method": "rhf"
			},
			{
				"type": "occ",
				"energy": -0.2307,
				"method": "rhf"
			},
			{
				"type": "unocc",
				"energy": -0.07458,
				"method": "rhf"
			},
			{
				"type": "unocc",
				"energy": -0.03326,
				"method": "rhf"
			},
			{
				"type": "unocc",
				"energy": 0.03798,
				"method": "rhf"
			},
			{
				"type": "unocc",
				"energy": 0.03841,
				"method": "rhf"
			},
			{
				"type": "unocc",
				"energy": 0.07178,
				"method": "rhf"
			}
		],
		"cosmo_sigma_profile": { 
			"-0.025": 0.0,
			"-0.024": 0.0,
			"-0.023": 0.0,
			"-0.022": 0.0,
			"-0.021": 0.0,
			"-0.02": 0.0,
			"-0.019": 0.581636792164,
			"-0.018": 0.762437440759,
			"-0.017": 0.86234509422,
			"-0.016": 1.39708424218,
			"-0.015": 0.502442595818,
			"-0.014": 0.549781548901,
			"-0.013": 0.850359557356,
			"-0.012": 0.589060300717,
			"-0.011": 0.820234357217,
			"-0.01": 0.322277067918,
			"-0.009": 0.544885052906,
			"-0.008": 1.58611627821,
			"-0.007": 4.44887391332,
			"-0.006": 10.1436187814,
			"-0.005": 14.7361472038,
			"-0.004": 16.7025685556,
			"-0.003": 18.8573638591,
			"-0.002": 24.0491609597,
			"-0.001": 20.9490886947,
			"0.0": 12.4786629513,
			"0.001": 8.25030775124,
			"0.002": 8.41477089764,
			"0.003": 7.85197048799,
			"0.004": 9.79394013723,
			"0.005": 9.19587017262,
			"0.006": 7.51222856661,
			"0.007": 7.51362679671,
			"0.008": 5.187852686,
			"0.009": 4.90760392675,
			"0.01": 4.97690112513,
			"0.011": 6.44161174755,
			"0.012": 2.31608289027,
			"0.013": 1.29021145216,
			"0.014": 0.140864172838,
			"0.015": 0.0,
			"0.016": 0.0,
			"0.017": 0.0,
			"0.018": 0.0,
			"0.019": 0.0,
			"0.02": 0.0,
			"0.021": 0.0,
			"0.022": 0.0,
			"0.023": 0.0,
			"0.024": 0.0,
			"0.025": 0.0
		}
	}
}
