{
	 "smiles": "[O-][N+](=O)C1=CC=CC=C1C=C1/C(=O)NC2=C1C=CC=C2", 
	 "Tm": 355.15, 
	 "num_atms": 30, 
	 "gaussian": { 
		 "optdone": 1, 
		 "sigma_profile": "yes", 
		 "theory": "DFT", 
		 "functional": "B3LYP", 
		 "basiset": "6-31G**", 
		 "properties": { 
			 "R2extent": 6267.5422, 
			 "electric_dipole_moment_norm": 3.60099814774, 
			 "electric_quadrupole_moment_norm": 25.2133919041, 
			 "total_energy": -912.702494549, 
			 "HOMO_LUMO_gap": 0.1191, 
			 "cosmo_polarized_energy": -15.64, 
			 "cosmo_cavitation_energy": 35.37, 
			 "cosmo_dispersion_energy": -25.55, 
			 "cosmo_repulsion_energy": 1.92, 
			 "cosmo_total_nonelectrostatic_energy": 11.73, 
			 "SMD_solvation_energy": 8.17 
		},
		"coords": [
			{
				"x": -3.1533766175,
				"y": 1.1856299055,
				"z": 0.1624708429,
				"element": "O" 
			},
			{
				"x": -3.0098270731,
				"y": 2.3353524646,
				"z": -0.2603556738,
				"element": "N" 
			},
			{
				"x": -3.9418163282,
				"y": 3.1104397719,
				"z": -0.4745868285,
				"element": "O" 
			},
			{
				"x": -1.6430936047,
				"y": 2.8234753292,
				"z": -0.5125583689,
				"element": "C" 
			},
			{
				"x": -1.4998376586,
				"y": 4.2075161551,
				"z": -0.6145995788,
				"element": "C" 
			},
			{
				"x": -0.2377958775,
				"y": 4.7564646293,
				"z": -0.8090453212,
				"element": "C" 
			},
			{
				"x": 0.869651058,
				"y": 3.9113540652,
				"z": -0.908345737,
				"element": "C" 
			},
			{
				"x": 0.7159606915,
				"y": 2.5318492214,
				"z": -0.815709729,
				"element": "C" 
			},
			{
				"x": -0.5427651995,
				"y": 1.9372980613,
				"z": -0.6069018333,
				"element": "C" 
			},
			{
				"x": -0.6954868369,
				"y": 0.4760867377,
				"z": -0.6259441803,
				"element": "C" 
			},
			{
				"x": 0.1210148281,
				"y": -0.4860613802,
				"z": -0.1347310289,
				"element": "C" 
			},
			{
				"x": 1.3573737906,
				"y": -0.3284671165,
				"z": 0.7251224287,
				"element": "C" 
			},
			{
				"x": 1.9455998422,
				"y": 0.6788647916,
				"z": 1.0865952525,
				"element": "O" 
			},
			{
				"x": 1.7346106094,
				"y": -1.6213530003,
				"z": 1.0624639617,
				"element": "N" 
			},
			{
				"x": 0.8976253969,
				"y": -2.5871064488,
				"z": 0.4975338206,
				"element": "C" 
			},
			{
				"x": -0.1067880538,
				"y": -1.9325682309,
				"z": -0.2471141797,
				"element": "C" 
			},
			{
				"x": -1.0702333962,
				"y": -2.6898176049,
				"z": -0.910002885,
				"element": "C" 
			},
			{
				"x": -1.02026087,
				"y": -4.0852038472,
				"z": -0.82284834,
				"element": "C" 
			},
			{
				"x": -0.016031421,
				"y": -4.7140881466,
				"z": -0.0805794387,
				"element": "C" 
			},
			{
				"x": 0.9619826833,
				"y": -3.970951945,
				"z": 0.5929033558,
				"element": "C" 
			},
			{
				"x": -2.3836786524,
				"y": 4.8263948917,
				"z": -0.5299106397,
				"element": "H" 
			},
			{
				"x": -0.1209843525,
				"y": 5.833092845,
				"z": -0.8791320616,
				"element": "H" 
			},
			{
				"x": 1.8606722856,
				"y": 4.3266263441,
				"z": -1.0636944246,
				"element": "H" 
			},
			{
				"x": 1.5808074793,
				"y": 1.8895175019,
				"z": -0.9017590289,
				"element": "H" 
			},
			{
				"x": -1.599522372,
				"y": 0.1188074148,
				"z": -1.1084530122,
				"element": "H" 
			},
			{
				"x": 2.5396542694,
				"y": -1.8006139815,
				"z": 1.6430856794,
				"element": "H" 
			},
			{
				"x": -1.8531071657,
				"y": -2.2074459369,
				"z": -1.4883097053,
				"element": "H" 
			},
			{
				"x": -1.7671455923,
				"y": -4.6833845061,
				"z": -1.3350026444,
				"element": "H" 
			},
			{
				"x": 0.0097002399,
				"y": -5.7981729813,
				"z": -0.0218275217,
				"element": "H" 
			},
			{
				"x": 1.7397978976,
				"y": -4.4620350041,
				"z": 1.1696368196,
				"element": "H" 
			}
		],
		 "valence_orbital": [ 
			{
				"type": "occ",
				"energy": -0.2806,
				"method": "rhf"
			},
			{
				"type": "occ",
				"energy": -0.27643,
				"method": "rhf"
			},
			{
				"type": "occ",
				"energy": -0.25958,
				"method": "rhf"
			},
			{
				"type": "occ",
				"energy": -0.24026,
				"method": "rhf"
			},
			{
				"type": "occ",
				"energy": -0.21576,
				"method": "rhf"
			},
			{
				"type": "unocc",
				"energy": -0.09666,
				"method": "rhf"
			},
			{
				"type": "unocc",
				"energy": -0.07064,
				"method": "rhf"
			},
			{
				"type": "unocc",
				"energy": -0.0125,
				"method": "rhf"
			},
			{
				"type": "unocc",
				"energy": -0.00772,
				"method": "rhf"
			},
			{
				"type": "unocc",
				"energy": 0.0013,
				"method": "rhf"
			}
		],
		"cosmo_sigma_profile": { 
			"-0.025": 0.0,
			"-0.024": 0.0,
			"-0.023": 0.0,
			"-0.022": 0.0,
			"-0.021": 0.0,
			"-0.02": 0.0,
			"-0.019": 0.0,
			"-0.018": 0.0,
			"-0.017": 0.0,
			"-0.016": 0.453016486919,
			"-0.015": 1.50354439975,
			"-0.014": 1.23202509419,
			"-0.013": 0.479716532329,
			"-0.012": 1.44018015794,
			"-0.011": 0.998312889177,
			"-0.01": 1.52700379208,
			"-0.009": 1.81634457456,
			"-0.008": 5.31923389149,
			"-0.007": 12.4749913012,
			"-0.006": 17.83550482,
			"-0.005": 17.1105824282,
			"-0.004": 19.1381634599,
			"-0.003": 15.7064372541,
			"-0.002": 17.1631380421,
			"-0.001": 17.6645802154,
			"0.0": 21.6906947392,
			"0.001": 25.802443369,
			"0.002": 21.0190214601,
			"0.003": 13.6282001424,
			"0.004": 13.9614342164,
			"0.005": 13.877581634,
			"0.006": 7.33651452692,
			"0.007": 8.52357822523,
			"0.008": 8.57671717535,
			"0.009": 5.57171923752,
			"0.01": 4.44041455114,
			"0.011": 2.27254037702,
			"0.012": 3.31129704667,
			"0.013": 2.8885378008,
			"0.014": 0.444558124943,
			"0.015": 0.0,
			"0.016": 0.0,
			"0.017": 0.0,
			"0.018": 0.0,
			"0.019": 0.0,
			"0.02": 0.0,
			"0.021": 0.0,
			"0.022": 0.0,
			"0.023": 0.0,
			"0.024": 0.0,
			"0.025": 0.0
		}
	}
}
