{
	 "smiles": "CN(C)C1=CC2=C(C=CC=C2)C(=O)N1", 
	 "Tm": 459.15, 
	 "num_atms": 26, 
	 "gaussian": { 
		 "optdone": 1, 
		 "sigma_profile": "yes", 
		 "theory": "DFT", 
		 "functional": "B3LYP", 
		 "basiset": "6-31G**", 
		 "properties": { 
			 "R2extent": 3754.9232, 
			 "electric_dipole_moment_norm": 4.74766674273, 
			 "electric_quadrupole_moment_norm": 15.7898986463, 
			 "total_energy": -611.150512825, 
			 "HOMO_LUMO_gap": 0.1653, 
			 "cosmo_polarized_energy": -13.28, 
			 "cosmo_cavitation_energy": 28.92, 
			 "cosmo_dispersion_energy": -21.36, 
			 "cosmo_repulsion_energy": 1.65, 
			 "cosmo_total_nonelectrostatic_energy": 9.2, 
			 "SMD_solvation_energy": 4.48 
		},
		"coords": [
			{
				"x": 0.7778045395,
				"y": -2.1573209697,
				"z": 1.450199322,
				"element": "C" 
			},
			{
				"x": 0.8002952166,
				"y": -1.7873081606,
				"z": 0.03110992,
				"element": "N" 
			},
			{
				"x": -0.1118595285,
				"y": -2.5915129794,
				"z": -0.7691130776,
				"element": "C" 
			},
			{
				"x": 0.8648074394,
				"y": -0.4234725839,
				"z": -0.2777698095,
				"element": "C" 
			},
			{
				"x": 0.0116104659,
				"y": 0.2555346734,
				"z": -1.1004662229,
				"element": "C" 
			},
			{
				"x": 0.2358751876,
				"y": 1.6490348653,
				"z": -1.380001658,
				"element": "C" 
			},
			{
				"x": 1.3266443541,
				"y": 2.3279217027,
				"z": -0.7777337059,
				"element": "C" 
			},
			{
				"x": 1.5511951923,
				"y": 3.6904737447,
				"z": -1.0288932188,
				"element": "C" 
			},
			{
				"x": 0.7008231564,
				"y": 4.3968078159,
				"z": -1.8654031133,
				"element": "C" 
			},
			{
				"x": -0.3872201285,
				"y": 3.736945581,
				"z": -2.4644698723,
				"element": "C" 
			},
			{
				"x": -0.6167939042,
				"y": 2.3905816079,
				"z": -2.2291800845,
				"element": "C" 
			},
			{
				"x": 2.2526358743,
				"y": 1.6025294901,
				"z": 0.1034616512,
				"element": "C" 
			},
			{
				"x": 3.2482127444,
				"y": 2.0754197891,
				"z": 0.6444118947,
				"element": "O" 
			},
			{
				"x": 1.9352374876,
				"y": 0.2536224722,
				"z": 0.2866718326,
				"element": "N" 
			},
			{
				"x": 1.4707820578,
				"y": -1.5447756548,
				"z": 2.0283325231,
				"element": "H" 
			},
			{
				"x": 1.0804938481,
				"y": -3.2032360393,
				"z": 1.5548950132,
				"element": "H" 
			},
			{
				"x": -0.2248778629,
				"y": -2.0380397113,
				"z": 1.8916194631,
				"element": "H" 
			},
			{
				"x": -1.1735502274,
				"y": -2.4052183035,
				"z": -0.5354807856,
				"element": "H" 
			},
			{
				"x": 0.0529705984,
				"y": -2.3923544031,
				"z": -1.8300846026,
				"element": "H" 
			},
			{
				"x": 0.0955540714,
				"y": -3.6483293182,
				"z": -0.578437738,
				"element": "H" 
			},
			{
				"x": -0.8550630527,
				"y": -0.2365475238,
				"z": -1.5207223055,
				"element": "H" 
			},
			{
				"x": 2.4027259262,
				"y": 4.1614869991,
				"z": -0.5488257764,
				"element": "H" 
			},
			{
				"x": 0.8710729433,
				"y": 5.4516681843,
				"z": -2.0577222082,
				"element": "H" 
			},
			{
				"x": -1.0556562132,
				"y": 4.2875475625,
				"z": -3.1210361045,
				"element": "H" 
			},
			{
				"x": -1.4596612435,
				"y": 1.8899505258,
				"z": -2.6985415504,
				"element": "H" 
			},
			{
				"x": 2.6419410574,
				"y": -0.2695093664,
				"z": 0.7863802141,
				"element": "H" 
			}
		],
		 "valence_orbital": [ 
			{
				"type": "occ",
				"energy": -0.27355,
				"method": "rhf"
			},
			{
				"type": "occ",
				"energy": -0.25296,
				"method": "rhf"
			},
			{
				"type": "occ",
				"energy": -0.24812,
				"method": "rhf"
			},
			{
				"type": "occ",
				"energy": -0.24644,
				"method": "rhf"
			},
			{
				"type": "occ",
				"energy": -0.1927,
				"method": "rhf"
			},
			{
				"type": "unocc",
				"energy": -0.0274,
				"method": "rhf"
			},
			{
				"type": "unocc",
				"energy": -0.01611,
				"method": "rhf"
			},
			{
				"type": "unocc",
				"energy": 0.04951,
				"method": "rhf"
			},
			{
				"type": "unocc",
				"energy": 0.07092,
				"method": "rhf"
			},
			{
				"type": "unocc",
				"energy": 0.0877,
				"method": "rhf"
			}
		],
		"cosmo_sigma_profile": { 
			"-0.025": 0.0,
			"-0.024": 0.0,
			"-0.023": 0.0,
			"-0.022": 0.0,
			"-0.021": 0.0,
			"-0.02": 0.0,
			"-0.019": 0.0,
			"-0.018": 0.0,
			"-0.017": 0.0,
			"-0.016": 0.0,
			"-0.015": 0.370421050584,
			"-0.014": 0.99439637279,
			"-0.013": 0.883442749922,
			"-0.012": 0.935200164457,
			"-0.011": 0.95737393543,
			"-0.01": 1.02090384942,
			"-0.009": 0.987773375717,
			"-0.008": 1.3613086998,
			"-0.007": 1.21293397591,
			"-0.006": 7.69923427333,
			"-0.005": 19.0190605236,
			"-0.004": 22.6158412409,
			"-0.003": 24.8692008446,
			"-0.002": 24.6254490456,
			"-0.001": 17.8691246714,
			"0.0": 11.7476971626,
			"0.001": 13.3876444302,
			"0.002": 12.2646394104,
			"0.003": 13.7570427583,
			"0.004": 17.0043133646,
			"0.005": 12.7986506699,
			"0.006": 2.97939528475,
			"0.007": 1.96446902713,
			"0.008": 2.18287335973,
			"0.009": 2.30840692025,
			"0.01": 0.836040327705,
			"0.011": 1.28068603032,
			"0.012": 1.89524434626,
			"0.013": 3.06918554174,
			"0.014": 6.18759144727,
			"0.015": 0.593452423398,
			"0.016": 0.0,
			"0.017": 0.0,
			"0.018": 0.0,
			"0.019": 0.0,
			"0.02": 0.0,
			"0.021": 0.0,
			"0.022": 0.0,
			"0.023": 0.0,
			"0.024": 0.0,
			"0.025": 0.0
		}
	}
}
