{
	 "smiles": "CNC(=O)N(C)C1=NN=C(S1)C(F)(F)F", 
	 "Tm": 409.15, 
	 "num_atms": 22, 
	 "gaussian": { 
		 "optdone": 1, 
		 "sigma_profile": "yes", 
		 "theory": "DFT", 
		 "functional": "B3LYP", 
		 "basiset": "6-31G**", 
		 "properties": { 
			 "R2extent": 4705.892, 
			 "electric_dipole_moment_norm": 3.7921127027, 
			 "electric_quadrupole_moment_norm": 15.0117449812, 
			 "total_energy": -1224.76599855, 
			 "HOMO_LUMO_gap": 0.19468, 
			 "cosmo_polarized_energy": -14.13, 
			 "cosmo_cavitation_energy": 29.56, 
			 "cosmo_dispersion_energy": -21.3, 
			 "cosmo_repulsion_energy": 1.58, 
			 "cosmo_total_nonelectrostatic_energy": 9.84, 
			 "SMD_solvation_energy": 5.34 
		},
		"coords": [
			{
				"x": -0.2331638638,
				"y": -1.8133605587,
				"z": 1.5667016261,
				"element": "C" 
			},
			{
				"x": -1.4200654316,
				"y": -1.0209427204,
				"z": 1.8467313273,
				"element": "N" 
			},
			{
				"x": -1.6590712962,
				"y": 0.2940927499,
				"z": 1.6265188396,
				"element": "C" 
			},
			{
				"x": -2.5914842979,
				"y": 0.9039602861,
				"z": 2.1253016568,
				"element": "O" 
			},
			{
				"x": -0.6886489326,
				"y": 1.00369005,
				"z": 0.8187626945,
				"element": "N" 
			},
			{
				"x": -0.5338502722,
				"y": 2.4291350703,
				"z": 1.1413751824,
				"element": "C" 
			},
			{
				"x": -0.3699726822,
				"y": 0.5940850011,
				"z": -0.4523856552,
				"element": "C" 
			},
			{
				"x": -0.7846075925,
				"y": -0.5180835269,
				"z": -1.0181666851,
				"element": "N" 
			},
			{
				"x": -0.2968300906,
				"y": -0.6833978888,
				"z": -2.2758401773,
				"element": "N" 
			},
			{
				"x": 0.4644644705,
				"y": 0.28824196,
				"z": -2.6680615564,
				"element": "C" 
			},
			{
				"x": 0.6868500215,
				"y": 1.5663918692,
				"z": -1.4889080081,
				"element": "S" 
			},
			{
				"x": 1.0514488241,
				"y": 0.3688601048,
				"z": -4.0498854479,
				"element": "C" 
			},
			{
				"x": 0.288067446,
				"y": 1.1276245835,
				"z": -4.8630043842,
				"element": "F" 
			},
			{
				"x": 1.1696508726,
				"y": -0.843055059,
				"z": -4.6003216959,
				"element": "F" 
			},
			{
				"x": 2.2749572468,
				"y": 0.944245805,
				"z": -4.0060616432,
				"element": "F" 
			},
			{
				"x": 0.6449933274,
				"y": -1.1654982497,
				"z": 1.5303168895,
				"element": "H" 
			},
			{
				"x": -0.093324706,
				"y": -2.5291848158,
				"z": 2.3812096262,
				"element": "H" 
			},
			{
				"x": -0.3139644006,
				"y": -2.3447769287,
				"z": 0.6148925991,
				"element": "H" 
			},
			{
				"x": -2.1770530613,
				"y": -1.4611255212,
				"z": 2.350026179,
				"element": "H" 
			},
			{
				"x": -0.9008935387,
				"y": 2.589142837,
				"z": 2.1523636745,
				"element": "H" 
			},
			{
				"x": -1.1104001496,
				"y": 3.0629249203,
				"z": 0.459248754,
				"element": "H" 
			},
			{
				"x": 0.5241981067,
				"y": 2.704530032,
				"z": 1.0894862043,
				"element": "H" 
			}
		],
		 "valence_orbital": [ 
			{
				"type": "occ",
				"energy": -0.31368,
				"method": "rhf"
			},
			{
				"type": "occ",
				"energy": -0.28912,
				"method": "rhf"
			},
			{
				"type": "occ",
				"energy": -0.27872,
				"method": "rhf"
			},
			{
				"type": "occ",
				"energy": -0.26423,
				"method": "rhf"
			},
			{
				"type": "occ",
				"energy": -0.24834,
				"method": "rhf"
			},
			{
				"type": "unocc",
				"energy": -0.05366,
				"method": "rhf"
			},
			{
				"type": "unocc",
				"energy": -0.01778,
				"method": "rhf"
			},
			{
				"type": "unocc",
				"energy": 0.00357,
				"method": "rhf"
			},
			{
				"type": "unocc",
				"energy": 0.03403,
				"method": "rhf"
			},
			{
				"type": "unocc",
				"energy": 0.06013,
				"method": "rhf"
			}
		],
		"cosmo_sigma_profile": { 
			"-0.025": 0.0,
			"-0.024": 0.0,
			"-0.023": 0.0,
			"-0.022": 0.0,
			"-0.021": 0.0,
			"-0.02": 0.0,
			"-0.019": 0.0,
			"-0.018": 0.0,
			"-0.017": 0.0,
			"-0.016": 0.0,
			"-0.015": 0.426280092758,
			"-0.014": 1.33511506549,
			"-0.013": 1.21667721781,
			"-0.012": 1.29123564007,
			"-0.011": 0.555597079616,
			"-0.01": 0.668270344802,
			"-0.009": 1.03214614804,
			"-0.008": 1.89457925123,
			"-0.007": 5.19462332156,
			"-0.006": 12.1555664066,
			"-0.005": 14.5422243973,
			"-0.004": 20.5357222792,
			"-0.003": 22.4123612642,
			"-0.002": 22.0533899416,
			"-0.001": 17.7593441136,
			"0.0": 13.5641008701,
			"0.001": 20.1941512746,
			"0.002": 31.4232632452,
			"0.003": 7.45597036153,
			"0.004": 4.51998486128,
			"0.005": 3.05563944629,
			"0.006": 3.05459048545,
			"0.007": 4.12205917798,
			"0.008": 3.51222686181,
			"0.009": 3.66326931143,
			"0.01": 4.55922626781,
			"0.011": 4.34033756963,
			"0.012": 5.42054927364,
			"0.013": 5.60054218015,
			"0.014": 0.421161685092,
			"0.015": 0.0,
			"0.016": 0.0,
			"0.017": 0.0,
			"0.018": 0.0,
			"0.019": 0.0,
			"0.02": 0.0,
			"0.021": 0.0,
			"0.022": 0.0,
			"0.023": 0.0,
			"0.024": 0.0,
			"0.025": 0.0
		}
	}
}
