{
	 "smiles": "OC(=O)C(CC1=CC(=CC=C1)C#N)NC(=O)OCC1C2=C(C=CC=C2)C2=C1C=CC=C2", 
	 "Tm": 389.15, 
	 "num_atms": 51, 
	 "gaussian": { 
		 "optdone": 1, 
		 "sigma_profile": "yes", 
		 "theory": "DFT", 
		 "functional": "B3LYP", 
		 "basiset": "6-31G**", 
		 "properties": { 
			 "R2extent": 15880.174, 
			 "electric_dipole_moment_norm": 4.10465283063, 
			 "electric_quadrupole_moment_norm": 45.5545422556, 
			 "total_energy": -1375.15301541, 
			 "HOMO_LUMO_gap": 0.16241, 
			 "cosmo_polarized_energy": -26.31, 
			 "cosmo_cavitation_energy": 57.64, 
			 "cosmo_dispersion_energy": -36.66, 
			 "cosmo_repulsion_energy": 2.74, 
			 "cosmo_total_nonelectrostatic_energy": 23.72, 
			 "SMD_solvation_energy": 12.64 
		},
		"coords": [
			{
				"x": -0.6138635664,
				"y": 3.6286753492,
				"z": -0.8520041009,
				"element": "O" 
			},
			{
				"x": 0.5007999429,
				"y": 3.6976662659,
				"z": -0.0914780163,
				"element": "C" 
			},
			{
				"x": 1.4524041608,
				"y": 4.3892057009,
				"z": -0.3769156464,
				"element": "O" 
			},
			{
				"x": 0.4395024068,
				"y": 2.7766639786,
				"z": 1.1373926051,
				"element": "C" 
			},
			{
				"x": 1.2347868671,
				"y": 3.4065450293,
				"z": 2.3075028824,
				"element": "C" 
			},
			{
				"x": 1.5427495523,
				"y": 2.4207018856,
				"z": 3.4117732854,
				"element": "C" 
			},
			{
				"x": 2.7362797675,
				"y": 1.6932673161,
				"z": 3.3883245438,
				"element": "C" 
			},
			{
				"x": 3.0237624605,
				"y": 0.7567100659,
				"z": 4.3942088036,
				"element": "C" 
			},
			{
				"x": 2.1110194687,
				"y": 0.5416711417,
				"z": 5.4398425662,
				"element": "C" 
			},
			{
				"x": 0.9236179555,
				"y": 1.2674769787,
				"z": 5.4661692993,
				"element": "C" 
			},
			{
				"x": 0.642866631,
				"y": 2.1969420824,
				"z": 4.4632648831,
				"element": "C" 
			},
			{
				"x": 4.2563100692,
				"y": 0.0232272186,
				"z": 4.3548570122,
				"element": "C" 
			},
			{
				"x": 5.255009312,
				"y": -0.5723917069,
				"z": 4.3229604814,
				"element": "N" 
			},
			{
				"x": -0.9066947162,
				"y": 2.4136484564,
				"z": 1.5271430567,
				"element": "N" 
			},
			{
				"x": -1.5652798787,
				"y": 1.2484256307,
				"z": 1.2244496901,
				"element": "C" 
			},
			{
				"x": -2.7349202023,
				"y": 1.0487830673,
				"z": 1.4958719131,
				"element": "O" 
			},
			{
				"x": -0.7451071666,
				"y": 0.3528358586,
				"z": 0.6185988437,
				"element": "O" 
			},
			{
				"x": -1.3220259273,
				"y": -0.9466736442,
				"z": 0.3638894427,
				"element": "C" 
			},
			{
				"x": -2.1525999348,
				"y": -0.9850202942,
				"z": -0.9306043392,
				"element": "C" 
			},
			{
				"x": -1.3351182672,
				"y": -0.8120614932,
				"z": -2.2015970792,
				"element": "C" 
			},
			{
				"x": -1.4309490423,
				"y": -1.9693554105,
				"z": -3.0039168993,
				"element": "C" 
			},
			{
				"x": -0.7526139503,
				"y": -2.0474101678,
				"z": -4.2219746719,
				"element": "C" 
			},
			{
				"x": 0.0206805089,
				"y": -0.9597843375,
				"z": -4.6335137677,
				"element": "C" 
			},
			{
				"x": 0.1091316634,
				"y": 0.1906119325,
				"z": -3.8425021038,
				"element": "C" 
			},
			{
				"x": -0.5707952055,
				"y": 0.2724532837,
				"z": -2.6212338934,
				"element": "C" 
			},
			{
				"x": -2.3175307314,
				"y": -2.931767732,
				"z": -2.3363834534,
				"element": "C" 
			},
			{
				"x": -2.766237986,
				"y": -2.3633146445,
				"z": -1.1265637276,
				"element": "C" 
			},
			{
				"x": -3.6395644438,
				"y": -3.0604519957,
				"z": -0.2983243514,
				"element": "C" 
			},
			{
				"x": -4.0644094951,
				"y": -4.3376077278,
				"z": -0.6837224885,
				"element": "C" 
			},
			{
				"x": -3.6176141699,
				"y": -4.9036574135,
				"z": -1.8826141864,
				"element": "C" 
			},
			{
				"x": -2.7431735105,
				"y": -4.2055521273,
				"z": -2.7189348818,
				"element": "C" 
			},
			{
				"x": -0.4575907189,
				"y": 4.2068060295,
				"z": -1.6185284235,
				"element": "H" 
			},
			{
				"x": 0.9400827411,
				"y": 1.8526081359,
				"z": 0.8319639192,
				"element": "H" 
			},
			{
				"x": 2.1571692108,
				"y": 3.817835587,
				"z": 1.8909981689,
				"element": "H" 
			},
			{
				"x": 0.6628918809,
				"y": 4.2545311444,
				"z": 2.7042837564,
				"element": "H" 
			},
			{
				"x": 3.4563220043,
				"y": 1.8517499194,
				"z": 2.5908380961,
				"element": "H" 
			},
			{
				"x": 2.3408799627,
				"y": -0.1809065409,
				"z": 6.2153805104,
				"element": "H" 
			},
			{
				"x": 0.213767222,
				"y": 1.1106974894,
				"z": 6.2723704219,
				"element": "H" 
			},
			{
				"x": -0.286237055,
				"y": 2.7580666397,
				"z": 4.4988507506,
				"element": "H" 
			},
			{
				"x": -1.5308864146,
				"y": 3.1434937925,
				"z": 1.8404450751,
				"element": "H" 
			},
			{
				"x": -0.46719858,
				"y": -1.6218544283,
				"z": 0.2929671992,
				"element": "H" 
			},
			{
				"x": -1.9448944239,
				"y": -1.224783083,
				"z": 1.2161793221,
				"element": "H" 
			},
			{
				"x": -2.9313780847,
				"y": -0.2172764541,
				"z": -0.8412099412,
				"element": "H" 
			},
			{
				"x": -0.8248818283,
				"y": -2.9355442424,
				"z": -4.8437499242,
				"element": "H" 
			},
			{
				"x": 0.554247318,
				"y": -1.0054228419,
				"z": -5.5786897224,
				"element": "H" 
			},
			{
				"x": 0.710670107,
				"y": 1.0296552369,
				"z": -4.1810192306,
				"element": "H" 
			},
			{
				"x": -0.5075370346,
				"y": 1.1714000122,
				"z": -2.0165619353,
				"element": "H" 
			},
			{
				"x": -3.997679455,
				"y": -2.6220012824,
				"z": 0.6295869134,
				"element": "H" 
			},
			{
				"x": -4.7488514378,
				"y": -4.892081237,
				"z": -0.0482919313,
				"element": "H" 
			},
			{
				"x": -3.9572659055,
				"y": -5.8953632267,
				"z": -2.1676654435,
				"element": "H" 
			},
			{
				"x": -2.4043520813,
				"y": -4.6497731978,
				"z": -3.6508132826,
				"element": "H" 
			}
		],
		 "valence_orbital": [ 
			{
				"type": "occ",
				"energy": -0.26643,
				"method": "rhf"
			},
			{
				"type": "occ",
				"energy": -0.26244,
				"method": "rhf"
			},
			{
				"type": "occ",
				"energy": -0.25113,
				"method": "rhf"
			},
			{
				"type": "occ",
				"energy": -0.2443,
				"method": "rhf"
			},
			{
				"type": "occ",
				"energy": -0.21632,
				"method": "rhf"
			},
			{
				"type": "unocc",
				"energy": -0.05391,
				"method": "rhf"
			},
			{
				"type": "unocc",
				"energy": -0.03198,
				"method": "rhf"
			},
			{
				"type": "unocc",
				"energy": -0.03014,
				"method": "rhf"
			},
			{
				"type": "unocc",
				"energy": -0.01593,
				"method": "rhf"
			},
			{
				"type": "unocc",
				"energy": -0.01292,
				"method": "rhf"
			}
		],
		"cosmo_sigma_profile": { 
			"-0.025": 0.0,
			"-0.024": 0.0,
			"-0.023": 0.0,
			"-0.022": 0.0,
			"-0.021": 0.0,
			"-0.02": 0.0,
			"-0.019": 0.311111798519,
			"-0.018": 0.782517963266,
			"-0.017": 1.22382161073,
			"-0.016": 0.876020062426,
			"-0.015": 1.00736704321,
			"-0.014": 2.03354740225,
			"-0.013": 1.68792158018,
			"-0.012": 2.09526629212,
			"-0.011": 2.21541255278,
			"-0.01": 1.54197187192,
			"-0.009": 1.41439027218,
			"-0.008": 6.37195520254,
			"-0.007": 14.0740425453,
			"-0.006": 26.7021632277,
			"-0.005": 33.3430276953,
			"-0.004": 33.3040064871,
			"-0.003": 35.1697478525,
			"-0.002": 30.2421944907,
			"-0.001": 29.8848568744,
			"0.0": 28.6777440559,
			"0.001": 28.9135465077,
			"0.002": 33.3427748798,
			"0.003": 31.0302441717,
			"0.004": 26.1445508667,
			"0.005": 23.1710674884,
			"0.006": 17.5653170116,
			"0.007": 6.85136107348,
			"0.008": 5.50468299732,
			"0.009": 6.11946915535,
			"0.01": 7.28145619166,
			"0.011": 9.55946859398,
			"0.012": 5.86826635718,
			"0.013": 6.4042960614,
			"0.014": 0.492870764643,
			"0.015": 0.0,
			"0.016": 0.0,
			"0.017": 0.0,
			"0.018": 0.0,
			"0.019": 0.0,
			"0.02": 0.0,
			"0.021": 0.0,
			"0.022": 0.0,
			"0.023": 0.0,
			"0.024": 0.0,
			"0.025": 0.0
		}
	}
}
