{
	 "smiles": "CC1=CC=C(C=C1)C(=O)O[C@H]1C[C@@H](O[C@@H]1OC(=O)C1=CC=C(C)C=C1)C#N", 
	 "Tm": 383.15, 
	 "num_atms": 46, 
	 "gaussian": { 
		 "optdone": 1, 
		 "sigma_profile": "yes", 
		 "theory": "DFT", 
		 "functional": "B3LYP", 
		 "basiset": "6-31G**", 
		 "properties": { 
			 "R2extent": 16326.9483, 
			 "electric_dipole_moment_norm": 4.3058313332, 
			 "electric_quadrupole_moment_norm": 44.0168821934, 
			 "total_energy": -1242.57222306, 
			 "HOMO_LUMO_gap": 0.1972, 
			 "cosmo_polarized_energy": -19.98, 
			 "cosmo_cavitation_energy": 52.7, 
			 "cosmo_dispersion_energy": -35.16, 
			 "cosmo_repulsion_energy": 2.66, 
			 "cosmo_total_nonelectrostatic_energy": 20.21, 
			 "SMD_solvation_energy": 11.66 
		},
		"coords": [
			{
				"x": -5.8747222993,
				"y": -4.0771408951,
				"z": -3.2589111038,
				"element": "C" 
			},
			{
				"x": -4.6784362815,
				"y": -3.2705965004,
				"z": -2.8161387704,
				"element": "C" 
			},
			{
				"x": -3.5197773327,
				"y": -3.9061948831,
				"z": -2.3428653088,
				"element": "C" 
			},
			{
				"x": -2.4052559976,
				"y": -3.1697631563,
				"z": -1.958770993,
				"element": "C" 
			},
			{
				"x": -2.423493322,
				"y": -1.7697820463,
				"z": -2.0381279878,
				"element": "C" 
			},
			{
				"x": -3.5757857887,
				"y": -1.1229392392,
				"z": -2.5052416979,
				"element": "C" 
			},
			{
				"x": -4.6868116999,
				"y": -1.8700380235,
				"z": -2.886962121,
				"element": "C" 
			},
			{
				"x": -1.2070013932,
				"y": -1.0357493857,
				"z": -1.6108142454,
				"element": "C" 
			},
			{
				"x": -0.190077225,
				"y": -1.5537982638,
				"z": -1.193585641,
				"element": "O" 
			},
			{
				"x": -1.3391257565,
				"y": 0.3175978987,
				"z": -1.7411415415,
				"element": "O" 
			},
			{
				"x": -0.1914402381,
				"y": 1.0982446368,
				"z": -1.3655489886,
				"element": "C" 
			},
			{
				"x": -0.3961941639,
				"y": 2.5085145566,
				"z": -1.9150720737,
				"element": "C" 
			},
			{
				"x": -1.239435473,
				"y": 3.193161902,
				"z": -0.801918805,
				"element": "C" 
			},
			{
				"x": -1.1633299021,
				"y": 2.3460059286,
				"z": 0.3546097533,
				"element": "O" 
			},
			{
				"x": -0.1997672043,
				"y": 1.3428910204,
				"z": 0.147003888,
				"element": "C" 
			},
			{
				"x": 1.106182578,
				"y": 1.8140816764,
				"z": 0.4897877946,
				"element": "O" 
			},
			{
				"x": 1.5358349261,
				"y": 1.5610468432,
				"z": 1.7711909302,
				"element": "C" 
			},
			{
				"x": 0.8962831007,
				"y": 0.8977345845,
				"z": 2.5584055511,
				"element": "O" 
			},
			{
				"x": 2.8553473958,
				"y": 2.1770262258,
				"z": 2.0526164127,
				"element": "C" 
			},
			{
				"x": 3.441635868,
				"y": 1.9251281808,
				"z": 3.3014833696,
				"element": "C" 
			},
			{
				"x": 4.6770552572,
				"y": 2.4776711274,
				"z": 3.6180949073,
				"element": "C" 
			},
			{
				"x": 5.3571020965,
				"y": 3.2985407485,
				"z": 2.7048753957,
				"element": "C" 
			},
			{
				"x": 6.6818683241,
				"y": 3.9243405749,
				"z": 3.0670661058,
				"element": "C" 
			},
			{
				"x": 4.7616763306,
				"y": 3.5432464431,
				"z": 1.4591568758,
				"element": "C" 
			},
			{
				"x": 3.5258822691,
				"y": 2.9926405436,
				"z": 1.1311027114,
				"element": "C" 
			},
			{
				"x": -0.7581518057,
				"y": 4.5509150581,
				"z": -0.4883757113,
				"element": "C" 
			},
			{
				"x": -0.3834140188,
				"y": 5.6262974768,
				"z": -0.2659274251,
				"element": "N" 
			},
			{
				"x": -5.7604271934,
				"y": -4.4075088155,
				"z": -4.2990076557,
				"element": "H" 
			},
			{
				"x": -6.0002745076,
				"y": -4.9752394233,
				"z": -2.6466658881,
				"element": "H" 
			},
			{
				"x": -6.7969373041,
				"y": -3.4921998824,
				"z": -3.201429384,
				"element": "H" 
			},
			{
				"x": -3.4961294267,
				"y": -4.9906498629,
				"z": -2.2732853502,
				"element": "H" 
			},
			{
				"x": -1.5098587765,
				"y": -3.6583779142,
				"z": -1.5896165811,
				"element": "H" 
			},
			{
				"x": -3.5989037183,
				"y": -0.0408216158,
				"z": -2.5622397577,
				"element": "H" 
			},
			{
				"x": -5.5776252035,
				"y": -1.3595711262,
				"z": -3.2435907149,
				"element": "H" 
			},
			{
				"x": 0.7217791226,
				"y": 0.6044640043,
				"z": -1.6970253792,
				"element": "H" 
			},
			{
				"x": -0.9076986088,
				"y": 2.5042981381,
				"z": -2.8784840117,
				"element": "H" 
			},
			{
				"x": 0.5698069787,
				"y": 3.0036548085,
				"z": -2.0280438641,
				"element": "H" 
			},
			{
				"x": -2.2958827175,
				"y": 3.2652187068,
				"z": -1.0821529499,
				"element": "H" 
			},
			{
				"x": -0.4590305864,
				"y": 0.4866811139,
				"z": 0.7663839595,
				"element": "H" 
			},
			{
				"x": 2.913231529,
				"y": 1.2917877811,
				"z": 4.0060103978,
				"element": "H" 
			},
			{
				"x": 5.1245127154,
				"y": 2.2718575146,
				"z": 4.5870904414,
				"element": "H" 
			},
			{
				"x": 7.2796035077,
				"y": 4.1421518179,
				"z": 2.1773918168,
				"element": "H" 
			},
			{
				"x": 7.2672365825,
				"y": 3.2719263268,
				"z": 3.7219191178,
				"element": "H" 
			},
			{
				"x": 6.5334067824,
				"y": 4.8714349955,
				"z": 3.6009144455,
				"element": "H" 
			},
			{
				"x": 5.2735803826,
				"y": 4.1751425528,
				"z": 0.7380844619,
				"element": "H" 
			},
			{
				"x": 3.0767621983,
				"y": 3.1953678471,
				"z": 0.1660556147,
				"element": "H" 
			}
		],
		 "valence_orbital": [ 
			{
				"type": "occ",
				"energy": -0.27771,
				"method": "rhf"
			},
			{
				"type": "occ",
				"energy": -0.26447,
				"method": "rhf"
			},
			{
				"type": "occ",
				"energy": -0.25763,
				"method": "rhf"
			},
			{
				"type": "occ",
				"energy": -0.25724,
				"method": "rhf"
			},
			{
				"type": "occ",
				"energy": -0.25065,
				"method": "rhf"
			},
			{
				"type": "unocc",
				"energy": -0.05345,
				"method": "rhf"
			},
			{
				"type": "unocc",
				"energy": -0.047,
				"method": "rhf"
			},
			{
				"type": "unocc",
				"energy": -0.01403,
				"method": "rhf"
			},
			{
				"type": "unocc",
				"energy": -0.00718,
				"method": "rhf"
			},
			{
				"type": "unocc",
				"energy": 0.00869,
				"method": "rhf"
			}
		],
		"cosmo_sigma_profile": { 
			"-0.025": 0.0,
			"-0.024": 0.0,
			"-0.023": 0.0,
			"-0.022": 0.0,
			"-0.021": 0.0,
			"-0.02": 0.0,
			"-0.019": 0.0,
			"-0.018": 0.0,
			"-0.017": 0.0,
			"-0.016": 0.0,
			"-0.015": 0.0,
			"-0.014": 0.0,
			"-0.013": 0.0,
			"-0.012": 0.0,
			"-0.011": 0.084810467971,
			"-0.01": 2.78899788933,
			"-0.009": 3.38518671022,
			"-0.008": 4.431148737,
			"-0.007": 8.85007842013,
			"-0.006": 19.5836989604,
			"-0.005": 31.6345058039,
			"-0.004": 39.0900888901,
			"-0.003": 31.2337429329,
			"-0.002": 32.110289272,
			"-0.001": 36.7386468688,
			"0.0": 35.9215836643,
			"0.001": 32.0328983026,
			"0.002": 27.2768630365,
			"0.003": 28.9033479013,
			"0.004": 28.0160347982,
			"0.005": 6.95693447273,
			"0.006": 7.69930613975,
			"0.007": 6.68747160887,
			"0.008": 7.64379919017,
			"0.009": 7.23101888689,
			"0.01": 8.5338123432,
			"0.011": 9.67260499456,
			"0.012": 3.93447826638,
			"0.013": 0.41621952887,
			"0.014": 0.0,
			"0.015": 0.0,
			"0.016": 0.0,
			"0.017": 0.0,
			"0.018": 0.0,
			"0.019": 0.0,
			"0.02": 0.0,
			"0.021": 0.0,
			"0.022": 0.0,
			"0.023": 0.0,
			"0.024": 0.0,
			"0.025": 0.0
		}
	}
}
