{
	 "smiles": "CCC1=NOC2=C1C=C(C=N2)C(O)=O", 
	 "Tm": 467.15, 
	 "num_atms": 22, 
	 "gaussian": { 
		 "optdone": 1, 
		 "sigma_profile": "yes", 
		 "theory": "DFT", 
		 "functional": "B3LYP", 
		 "basiset": "6-31G**", 
		 "properties": { 
			 "R2extent": 3194.9906, 
			 "electric_dipole_moment_norm": 5.15167119486, 
			 "electric_quadrupole_moment_norm": 5.98872939696, 
			 "total_energy": -682.931523903, 
			 "HOMO_LUMO_gap": 0.20154, 
			 "cosmo_polarized_energy": -14.71, 
			 "cosmo_cavitation_energy": 27.41, 
			 "cosmo_dispersion_energy": -19.94, 
			 "cosmo_repulsion_energy": 1.56, 
			 "cosmo_total_nonelectrostatic_energy": 9.04, 
			 "SMD_solvation_energy": 4.15 
		},
		"coords": [
			{
				"x": 1.5512386038,
				"y": -3.5222895396,
				"z": 0.0278884665,
				"element": "C" 
			},
			{
				"x": 0.0240243078,
				"y": -3.3496581164,
				"z": -0.0527102324,
				"element": "C" 
			},
			{
				"x": -0.4944679319,
				"y": -2.2845129528,
				"z": 0.867849037,
				"element": "C" 
			},
			{
				"x": -1.2050282858,
				"y": -2.6098988501,
				"z": 1.9177154058,
				"element": "N" 
			},
			{
				"x": -1.5382011122,
				"y": -1.4176597036,
				"z": 2.6063275072,
				"element": "O" 
			},
			{
				"x": -1.0048137662,
				"y": -0.3826088064,
				"z": 1.929503019,
				"element": "C" 
			},
			{
				"x": -0.3175116341,
				"y": -0.8562329311,
				"z": 0.7993601309,
				"element": "C" 
			},
			{
				"x": 0.2933238563,
				"y": 0.0828262473,
				"z": -0.030780407,
				"element": "C" 
			},
			{
				"x": 0.1676345089,
				"y": 1.4232325465,
				"z": 0.3460814871,
				"element": "C" 
			},
			{
				"x": -0.5533506346,
				"y": 1.759221619,
				"z": 1.5180312406,
				"element": "C" 
			},
			{
				"x": -1.1474688295,
				"y": 0.8772223692,
				"z": 2.3223589251,
				"element": "N" 
			},
			{
				"x": 0.764824043,
				"y": 2.5324006784,
				"z": -0.4381893583,
				"element": "C" 
			},
			{
				"x": 1.4307077219,
				"y": 2.0973125962,
				"z": -1.5374418386,
				"element": "O" 
			},
			{
				"x": 0.682356548,
				"y": 3.7092636377,
				"z": -0.1509250355,
				"element": "O" 
			},
			{
				"x": 2.0777830319,
				"y": -2.5991898397,
				"z": -0.2340975173,
				"element": "H" 
			},
			{
				"x": 1.8812721913,
				"y": -4.3041709094,
				"z": -0.6622430083,
				"element": "H" 
			},
			{
				"x": 1.8568637168,
				"y": -3.8081652814,
				"z": 1.0384512182,
				"element": "H" 
			},
			{
				"x": -0.4751889653,
				"y": -4.2879646849,
				"z": 0.2058629261,
				"element": "H" 
			},
			{
				"x": -0.2681657581,
				"y": -3.1008040991,
				"z": -1.0804910854,
				"element": "H" 
			},
			{
				"x": 0.8399385301,
				"y": -0.1918870323,
				"z": -0.925832014,
				"element": "H" 
			},
			{
				"x": -0.6351526017,
				"y": 2.8080042428,
				"z": 1.7894270873,
				"element": "H" 
			},
			{
				"x": 1.7767824597,
				"y": 2.8941588094,
				"z": -1.972045954,
				"element": "H" 
			}
		],
		 "valence_orbital": [ 
			{
				"type": "occ",
				"energy": -0.32465,
				"method": "rhf"
			},
			{
				"type": "occ",
				"energy": -0.29529,
				"method": "rhf"
			},
			{
				"type": "occ",
				"energy": -0.28375,
				"method": "rhf"
			},
			{
				"type": "occ",
				"energy": -0.28004,
				"method": "rhf"
			},
			{
				"type": "occ",
				"energy": -0.27492,
				"method": "rhf"
			},
			{
				"type": "unocc",
				"energy": -0.07338,
				"method": "rhf"
			},
			{
				"type": "unocc",
				"energy": -0.05504,
				"method": "rhf"
			},
			{
				"type": "unocc",
				"energy": 0.01099,
				"method": "rhf"
			},
			{
				"type": "unocc",
				"energy": 0.05243,
				"method": "rhf"
			},
			{
				"type": "unocc",
				"energy": 0.06482,
				"method": "rhf"
			}
		],
		"cosmo_sigma_profile": { 
			"-0.025": 0.0,
			"-0.024": 0.0,
			"-0.023": 0.0,
			"-0.022": 0.0,
			"-0.021": 0.0,
			"-0.02": 0.0,
			"-0.019": 0.168648378141,
			"-0.018": 0.853524880132,
			"-0.017": 1.25760665723,
			"-0.016": 0.65578660677,
			"-0.015": 0.471436305515,
			"-0.014": 1.13401452473,
			"-0.013": 0.605211825704,
			"-0.012": 0.492760576141,
			"-0.011": 0.685766010639,
			"-0.01": 0.739135907372,
			"-0.009": 0.887970422865,
			"-0.008": 2.67432473081,
			"-0.007": 5.46874067658,
			"-0.006": 7.65539727563,
			"-0.005": 8.53523833304,
			"-0.004": 16.9062729662,
			"-0.003": 25.1850471644,
			"-0.002": 32.1745521062,
			"-0.001": 22.4900874183,
			"0.0": 13.2531885135,
			"0.001": 8.6103013805,
			"0.002": 5.83692313661,
			"0.003": 6.28744250788,
			"0.004": 4.54337217849,
			"0.005": 6.37007208897,
			"0.006": 8.90799190095,
			"0.007": 9.41799326525,
			"0.008": 5.33255915084,
			"0.009": 4.37647227046,
			"0.01": 4.51100417635,
			"0.011": 6.92606999204,
			"0.012": 3.66164822064,
			"0.013": 1.76679800544,
			"0.014": 0.451643132724,
			"0.015": 0.0,
			"0.016": 0.0,
			"0.017": 0.0,
			"0.018": 0.0,
			"0.019": 0.0,
			"0.02": 0.0,
			"0.021": 0.0,
			"0.022": 0.0,
			"0.023": 0.0,
			"0.024": 0.0,
			"0.025": 0.0
		}
	}
}
