{
	 "smiles": "CC1=CN=C(N)S1", 
	 "Tm": 370.15, 
	 "num_atms": 13, 
	 "gaussian": { 
		 "optdone": 1, 
		 "sigma_profile": "yes", 
		 "theory": "DFT", 
		 "functional": "B3LYP", 
		 "basiset": "6-31G**", 
		 "properties": { 
			 "R2extent": 1339.4933, 
			 "electric_dipole_moment_norm": 1.50204149077, 
			 "electric_quadrupole_moment_norm": 10.6415178654, 
			 "total_energy": -663.728729372, 
			 "HOMO_LUMO_gap": 0.20346, 
			 "cosmo_polarized_energy": -9.38, 
			 "cosmo_cavitation_energy": 18.37, 
			 "cosmo_dispersion_energy": -14.45, 
			 "cosmo_repulsion_energy": 1.18, 
			 "cosmo_total_nonelectrostatic_energy": 5.1, 
			 "SMD_solvation_energy": 1.49 
		},
		"coords": [
			{
				"x": -2.3932860894,
				"y": -1.1022689418,
				"z": 0.0867986441,
				"element": "C" 
			},
			{
				"x": -0.9383542518,
				"y": -1.0200456756,
				"z": -0.2527208489,
				"element": "C" 
			},
			{
				"x": 0.0188352813,
				"y": -0.1895644622,
				"z": 0.2439723531,
				"element": "C" 
			},
			{
				"x": 1.2994412461,
				"y": -0.3047353425,
				"z": -0.2616468862,
				"element": "N" 
			},
			{
				"x": 1.3491868837,
				"y": -1.2446797496,
				"z": -1.1579769404,
				"element": "C" 
			},
			{
				"x": 2.5061888541,
				"y": -1.6513635267,
				"z": -1.7911633191,
				"element": "N" 
			},
			{
				"x": -0.1886319377,
				"y": -2.0739506933,
				"z": -1.4541405977,
				"element": "S" 
			},
			{
				"x": -2.671618555,
				"y": -2.0863220938,
				"z": 0.4820038924,
				"element": "H" 
			},
			{
				"x": -2.6299897884,
				"y": -0.3569570376,
				"z": 0.8519479556,
				"element": "H" 
			},
			{
				"x": -3.032780411,
				"y": -0.9041767545,
				"z": -0.7815533218,
				"element": "H" 
			},
			{
				"x": -0.1749309471,
				"y": 0.5609241368,
				"z": 1.0033827798,
				"element": "H" 
			},
			{
				"x": 3.2612213008,
				"y": -0.9881079219,
				"z": -1.6688325165,
				"element": "H" 
			},
			{
				"x": 2.4072184144,
				"y": -1.9744519375,
				"z": -2.7435711942,
				"element": "H" 
			}
		],
		 "valence_orbital": [ 
			{
				"type": "occ",
				"energy": -0.34334,
				"method": "rhf"
			},
			{
				"type": "occ",
				"energy": -0.30911,
				"method": "rhf"
			},
			{
				"type": "occ",
				"energy": -0.267,
				"method": "rhf"
			},
			{
				"type": "occ",
				"energy": -0.26574,
				"method": "rhf"
			},
			{
				"type": "occ",
				"energy": -0.2025,
				"method": "rhf"
			},
			{
				"type": "unocc",
				"energy": 0.00096,
				"method": "rhf"
			},
			{
				"type": "unocc",
				"energy": 0.01538,
				"method": "rhf"
			},
			{
				"type": "unocc",
				"energy": 0.07201,
				"method": "rhf"
			},
			{
				"type": "unocc",
				"energy": 0.07613,
				"method": "rhf"
			},
			{
				"type": "unocc",
				"energy": 0.10597,
				"method": "rhf"
			}
		],
		"cosmo_sigma_profile": { 
			"-0.025": 0.0,
			"-0.024": 0.0,
			"-0.023": 0.0,
			"-0.022": 0.0,
			"-0.021": 0.0,
			"-0.02": 0.0,
			"-0.019": 0.0,
			"-0.018": 0.0,
			"-0.017": 0.0,
			"-0.016": 0.0,
			"-0.015": 0.100728975119,
			"-0.014": 1.33155792443,
			"-0.013": 2.40742054154,
			"-0.012": 2.55487970031,
			"-0.011": 3.20868459497,
			"-0.01": 2.21214932902,
			"-0.009": 1.88605664669,
			"-0.008": 1.21194883759,
			"-0.007": 2.23249410947,
			"-0.006": 4.25850290646,
			"-0.005": 6.38209345075,
			"-0.004": 10.220895959,
			"-0.003": 11.6020514342,
			"-0.002": 10.2681991779,
			"-0.001": 11.361015938,
			"0.0": 8.62492973067,
			"0.001": 7.21114263576,
			"0.002": 9.1627740966,
			"0.003": 10.6600738239,
			"0.004": 10.9535753128,
			"0.005": 10.1692751239,
			"0.006": 4.22869763502,
			"0.007": 2.0311060449,
			"0.008": 2.90936387494,
			"0.009": 1.88131036196,
			"0.01": 1.11125593143,
			"0.011": 2.47830627906,
			"0.012": 1.40083588523,
			"0.013": 1.03209653573,
			"0.014": 1.22332091239,
			"0.015": 0.764885363883,
			"0.016": 0.803488002921,
			"0.017": 0.0375615523115,
			"0.018": 0.0,
			"0.019": 0.0,
			"0.02": 0.0,
			"0.021": 0.0,
			"0.022": 0.0,
			"0.023": 0.0,
			"0.024": 0.0,
			"0.025": 0.0
		}
	}
}
