{
	 "smiles": "CC1=NSC(NS(=O)(=O)C2=CC=C(N)C=C2)=C1", 
	 "Tm": 465.15, 
	 "num_atms": 28, 
	 "gaussian": { 
		 "optdone": 1, 
		 "sigma_profile": "yes", 
		 "theory": "DFT", 
		 "functional": "B3LYP", 
		 "basiset": "6-31G**", 
		 "properties": { 
			 "R2extent": 5644.7713, 
			 "electric_dipole_moment_norm": 6.20776453242, 
			 "electric_quadrupole_moment_norm": 37.8503327358, 
			 "total_energy": -1498.6907094, 
			 "HOMO_LUMO_gap": 0.18701, 
			 "cosmo_polarized_energy": -22.06, 
			 "cosmo_cavitation_energy": 35.65, 
			 "cosmo_dispersion_energy": -25.75, 
			 "cosmo_repulsion_energy": 1.94, 
			 "cosmo_total_nonelectrostatic_energy": 11.83, 
			 "SMD_solvation_energy": 3.77 
		},
		"coords": [
			{
				"x": -3.4166672652,
				"y": 2.1662268083,
				"z": -1.6462610894,
				"element": "C" 
			},
			{
				"x": -2.3340832954,
				"y": 1.1536320824,
				"z": -1.3937023863,
				"element": "C" 
			},
			{
				"x": -1.5780445468,
				"y": 0.7615349372,
				"z": -2.4035895434,
				"element": "N" 
			},
			{
				"x": -0.4471398027,
				"y": -0.3559642668,
				"z": -1.8484123042,
				"element": "S" 
			},
			{
				"x": -1.0410339378,
				"y": -0.3412001924,
				"z": -0.2037916191,
				"element": "C" 
			},
			{
				"x": -0.4903800606,
				"y": -1.1317002291,
				"z": 0.8029693928,
				"element": "N" 
			},
			{
				"x": -0.0251979248,
				"y": -0.5012461378,
				"z": 2.335235002,
				"element": "S" 
			},
			{
				"x": -1.1832264277,
				"y": 0.2343931912,
				"z": 2.8383205411,
				"element": "O" 
			},
			{
				"x": 0.5306604327,
				"y": -1.6731680488,
				"z": 3.0113750896,
				"element": "O" 
			},
			{
				"x": 1.285176563,
				"y": 0.657944661,
				"z": 2.0295982093,
				"element": "C" 
			},
			{
				"x": 0.9862548854,
				"y": 2.0000217395,
				"z": 1.7653652464,
				"element": "C" 
			},
			{
				"x": 2.0127197158,
				"y": 2.8919479312,
				"z": 1.4905838894,
				"element": "C" 
			},
			{
				"x": 3.3556476129,
				"y": 2.4620673407,
				"z": 1.4768409483,
				"element": "C" 
			},
			{
				"x": 4.3787256709,
				"y": 3.3603948608,
				"z": 1.2496334226,
				"element": "N" 
			},
			{
				"x": 3.6379239753,
				"y": 1.1082375252,
				"z": 1.7560105684,
				"element": "C" 
			},
			{
				"x": 2.6131308138,
				"y": 0.2142134225,
				"z": 2.0275429394,
				"element": "C" 
			},
			{
				"x": -2.0783863255,
				"y": 0.554293671,
				"z": -0.1204677364,
				"element": "C" 
			},
			{
				"x": -3.2603146721,
				"y": 3.0661965997,
				"z": -1.0410026857,
				"element": "H" 
			},
			{
				"x": -3.4235767047,
				"y": 2.4478111716,
				"z": -2.7005032816,
				"element": "H" 
			},
			{
				"x": -4.4001187839,
				"y": 1.7621599465,
				"z": -1.3822044309,
				"element": "H" 
			},
			{
				"x": 0.135678673,
				"y": -1.8780618149,
				"z": 0.5210212887,
				"element": "H" 
			},
			{
				"x": -0.0429704502,
				"y": 2.3385588826,
				"z": 1.7915782286,
				"element": "H" 
			},
			{
				"x": 1.7828699856,
				"y": 3.9355264649,
				"z": 1.2938345923,
				"element": "H" 
			},
			{
				"x": 4.1414725431,
				"y": 4.2275739898,
				"z": 0.791858668,
				"element": "H" 
			},
			{
				"x": 5.2750656521,
				"y": 2.9846419138,
				"z": 0.9791603022,
				"element": "H" 
			},
			{
				"x": 4.6698294907,
				"y": 0.767989464,
				"z": 1.7683664093,
				"element": "H" 
			},
			{
				"x": 2.8348910907,
				"y": -0.8222862758,
				"z": 2.2583672528,
				"element": "H" 
			},
			{
				"x": -2.6329069076,
				"y": 0.7481603619,
				"z": 0.7876730856,
				"element": "H" 
			}
		],
		 "valence_orbital": [ 
			{
				"type": "occ",
				"energy": -0.28294,
				"method": "rhf"
			},
			{
				"type": "occ",
				"energy": -0.27455,
				"method": "rhf"
			},
			{
				"type": "occ",
				"energy": -0.25241,
				"method": "rhf"
			},
			{
				"type": "occ",
				"energy": -0.24162,
				"method": "rhf"
			},
			{
				"type": "occ",
				"energy": -0.22549,
				"method": "rhf"
			},
			{
				"type": "unocc",
				"energy": -0.03848,
				"method": "rhf"
			},
			{
				"type": "unocc",
				"energy": -0.02356,
				"method": "rhf"
			},
			{
				"type": "unocc",
				"energy": -0.017,
				"method": "rhf"
			},
			{
				"type": "unocc",
				"energy": 4e-05,
				"method": "rhf"
			},
			{
				"type": "unocc",
				"energy": 0.03968,
				"method": "rhf"
			}
		],
		"cosmo_sigma_profile": { 
			"-0.025": 0.0,
			"-0.024": 0.0,
			"-0.023": 0.0,
			"-0.022": 0.0,
			"-0.021": 0.0,
			"-0.02": 0.0,
			"-0.019": 0.0,
			"-0.018": 0.0,
			"-0.017": 0.651506296297,
			"-0.016": 1.40130671889,
			"-0.015": 1.03841587685,
			"-0.014": 1.83694002605,
			"-0.013": 3.94520508665,
			"-0.012": 3.90733180452,
			"-0.011": 4.49458737663,
			"-0.01": 4.51629563309,
			"-0.009": 3.66145416455,
			"-0.008": 5.3520479613,
			"-0.007": 6.63590141694,
			"-0.006": 10.3265225686,
			"-0.005": 15.4773817938,
			"-0.004": 15.2056270965,
			"-0.003": 14.0386292237,
			"-0.002": 16.281916641,
			"-0.001": 19.4042838721,
			"0.0": 18.5680036496,
			"0.001": 22.5008065311,
			"0.002": 19.7129623424,
			"0.003": 23.7427996471,
			"0.004": 20.2017293782,
			"0.005": 7.16303323959,
			"0.006": 6.53749390633,
			"0.007": 5.88761388006,
			"0.008": 5.13695176745,
			"0.009": 6.52786593379,
			"0.01": 9.21677916107,
			"0.011": 8.99838169849,
			"0.012": 1.54316254606,
			"0.013": 1.00170629488,
			"0.014": 1.23052490299,
			"0.015": 0.64201190945,
			"0.016": 0.0,
			"0.017": 0.0,
			"0.018": 0.0,
			"0.019": 0.0,
			"0.02": 0.0,
			"0.021": 0.0,
			"0.022": 0.0,
			"0.023": 0.0,
			"0.024": 0.0,
			"0.025": 0.0
		}
	}
}
