{
	 "smiles": "CC1=NC(=CS1)C1=CC=C(N)C=C1", 
	 "Tm": 413.15, 
	 "num_atms": 23, 
	 "gaussian": { 
		 "optdone": 1, 
		 "sigma_profile": "yes", 
		 "theory": "DFT", 
		 "functional": "B3LYP", 
		 "basiset": "6-31G**", 
		 "properties": { 
			 "R2extent": 4296.8668, 
			 "electric_dipole_moment_norm": 1.59994996797, 
			 "electric_quadrupole_moment_norm": 16.8635049607, 
			 "total_energy": -894.790147086, 
			 "HOMO_LUMO_gap": 0.16143, 
			 "cosmo_polarized_energy": -11.85, 
			 "cosmo_cavitation_energy": 28.56, 
			 "cosmo_dispersion_energy": -21.79, 
			 "cosmo_repulsion_energy": 1.67, 
			 "cosmo_total_nonelectrostatic_energy": 8.45, 
			 "SMD_solvation_energy": 3.52 
		},
		"coords": [
			{
				"x": -0.2934706484,
				"y": 2.1701223828,
				"z": 2.6332709308,
				"element": "C" 
			},
			{
				"x": 0.6665366862,
				"y": 1.234831672,
				"z": 1.9626924325,
				"element": "C" 
			},
			{
				"x": 0.3605461879,
				"y": 0.4617647261,
				"z": 0.966267791,
				"element": "N" 
			},
			{
				"x": 1.4358569316,
				"y": -0.3044358843,
				"z": 0.53557154,
				"element": "C" 
			},
			{
				"x": 2.593787205,
				"y": -0.0911135102,
				"z": 1.2425097024,
				"element": "C" 
			},
			{
				"x": 2.3463259041,
				"y": 1.0942302676,
				"z": 2.481911166,
				"element": "S" 
			},
			{
				"x": 1.242587374,
				"y": -1.2328169238,
				"z": -0.591705611,
				"element": "C" 
			},
			{
				"x": 2.2690282884,
				"y": -2.0709117393,
				"z": -1.0590236172,
				"element": "C" 
			},
			{
				"x": 2.0679852499,
				"y": -2.9402828,
				"z": -2.1231606183,
				"element": "C" 
			},
			{
				"x": 0.8203384328,
				"y": -3.0081655703,
				"z": -2.7693548791,
				"element": "C" 
			},
			{
				"x": 0.6312919021,
				"y": -3.8393846671,
				"z": -3.8732563815,
				"element": "N" 
			},
			{
				"x": -0.2112139344,
				"y": -2.1735809766,
				"z": -2.3064157752,
				"element": "C" 
			},
			{
				"x": -0.0011866572,
				"y": -1.3065304792,
				"z": -1.2412772774,
				"element": "C" 
			},
			{
				"x": -0.4191603474,
				"y": 1.9255664356,
				"z": 3.6934493736,
				"element": "H" 
			},
			{
				"x": -1.2618242441,
				"y": 2.0865982416,
				"z": 2.1365691052,
				"element": "H" 
			},
			{
				"x": 0.0466306221,
				"y": 3.2092577412,
				"z": 2.5702662386,
				"element": "H" 
			},
			{
				"x": 3.5628623912,
				"y": -0.5482509217,
				"z": 1.1090894665,
				"element": "H" 
			},
			{
				"x": 3.2454856942,
				"y": -2.0528982466,
				"z": -0.5834719562,
				"element": "H" 
			},
			{
				"x": 2.8829389457,
				"y": -3.5743313167,
				"z": -2.4642412539,
				"element": "H" 
			},
			{
				"x": -0.3280969021,
				"y": -4.095370882,
				"z": -4.061265192,
				"element": "H" 
			},
			{
				"x": 1.253437297,
				"y": -4.6338384969,
				"z": -3.9284717654,
				"element": "H" 
			},
			{
				"x": -1.183804015,
				"y": -2.2060029234,
				"z": -2.7920540027,
				"element": "H" 
			},
			{
				"x": -0.8064823638,
				"y": -0.6699561288,
				"z": -0.8922994168,
				"element": "H" 
			}
		],
		 "valence_orbital": [ 
			{
				"type": "occ",
				"energy": -0.27461,
				"method": "rhf"
			},
			{
				"type": "occ",
				"energy": -0.26387,
				"method": "rhf"
			},
			{
				"type": "occ",
				"energy": -0.24356,
				"method": "rhf"
			},
			{
				"type": "occ",
				"energy": -0.24213,
				"method": "rhf"
			},
			{
				"type": "occ",
				"energy": -0.18562,
				"method": "rhf"
			},
			{
				"type": "unocc",
				"energy": -0.02419,
				"method": "rhf"
			},
			{
				"type": "unocc",
				"energy": 0.00605,
				"method": "rhf"
			},
			{
				"type": "unocc",
				"energy": 0.01303,
				"method": "rhf"
			},
			{
				"type": "unocc",
				"energy": 0.02504,
				"method": "rhf"
			},
			{
				"type": "unocc",
				"energy": 0.07849,
				"method": "rhf"
			}
		],
		"cosmo_sigma_profile": { 
			"-0.025": 0.0,
			"-0.024": 0.0,
			"-0.023": 0.0,
			"-0.022": 0.0,
			"-0.021": 0.0,
			"-0.02": 0.0,
			"-0.019": 0.0,
			"-0.018": 0.0,
			"-0.017": 0.0,
			"-0.016": 0.0,
			"-0.015": 0.0,
			"-0.014": 0.0,
			"-0.013": 0.305624727916,
			"-0.012": 2.64913012616,
			"-0.011": 2.70734058325,
			"-0.01": 2.79314709552,
			"-0.009": 4.67744141764,
			"-0.008": 5.23273936714,
			"-0.007": 5.58723102062,
			"-0.006": 9.25865264628,
			"-0.005": 13.9911146871,
			"-0.004": 15.0815834117,
			"-0.003": 16.1111080873,
			"-0.002": 15.1014772028,
			"-0.001": 13.6952562337,
			"0.0": 11.2472310333,
			"0.001": 12.3706616919,
			"0.002": 15.462293523,
			"0.003": 17.9087943055,
			"0.004": 19.721477775,
			"0.005": 15.0572384387,
			"0.006": 13.8802407531,
			"0.007": 5.79490050559,
			"0.008": 2.91069948989,
			"0.009": 2.15759712516,
			"0.01": 1.28325390046,
			"0.011": 2.83894284947,
			"0.012": 1.30678580391,
			"0.013": 0.29848450849,
			"0.014": 0.564770481593,
			"0.015": 0.129058481979,
			"0.016": 0.0,
			"0.017": 0.0,
			"0.018": 0.0,
			"0.019": 0.0,
			"0.02": 0.0,
			"0.021": 0.0,
			"0.022": 0.0,
			"0.023": 0.0,
			"0.024": 0.0,
			"0.025": 0.0
		}
	}
}
