{
	 "smiles": "ClC1=CC(Cl)=C(Cl)C(Br)=C1", 
	 "Tm": 332.15, 
	 "num_atms": 12, 
	 "gaussian": { 
		 "optdone": 1, 
		 "sigma_profile": "yes", 
		 "theory": "DFT", 
		 "functional": "B3LYP", 
		 "basiset": "6-31G**", 
		 "properties": { 
			 "R2extent": 4739.786, 
			 "electric_dipole_moment_norm": 0.90044307427, 
			 "electric_quadrupole_moment_norm": 2.82743500014, 
			 "total_energy": -4181.81303038, 
			 "HOMO_LUMO_gap": 0.21279, 
			 "cosmo_polarized_energy": -3.52, 
			 "cosmo_cavitation_energy": 24.2, 
			 "cosmo_dispersion_energy": -18.79, 
			 "cosmo_repulsion_energy": 1.52, 
			 "cosmo_total_nonelectrostatic_energy": 6.93, 
			 "SMD_solvation_energy": 2.3 
		},
		"coords": [
			{
				"x": -2.9276383316,
				"y": 1.1250749713,
				"z": -3.9869786717,
				"element": "Cl" 
			},
			{
				"x": -2.2893414491,
				"y": 0.4140821462,
				"z": -2.521121902,
				"element": "C" 
			},
			{
				"x": -1.780276054,
				"y": -0.8806036796,
				"z": -2.5559707289,
				"element": "C" 
			},
			{
				"x": -1.2732787863,
				"y": -1.4409097155,
				"z": -1.3840675911,
				"element": "C" 
			},
			{
				"x": -0.6433527434,
				"y": -3.0648051673,
				"z": -1.4630998536,
				"element": "Cl" 
			},
			{
				"x": -1.2690018865,
				"y": -0.7214543645,
				"z": -0.1757974783,
				"element": "C" 
			},
			{
				"x": -0.6344532232,
				"y": -1.4334688286,
				"z": 1.2732168716,
				"element": "Cl" 
			},
			{
				"x": -1.7906120681,
				"y": 0.5826312594,
				"z": -0.1773219207,
				"element": "C" 
			},
			{
				"x": -1.8270887866,
				"y": 1.6303359349,
				"z": 1.4058043399,
				"element": "Br" 
			},
			{
				"x": -2.300359317,
				"y": 1.1539991478,
				"z": -1.3422470955,
				"element": "C" 
			},
			{
				"x": -1.7739533283,
				"y": -1.4520321974,
				"z": -3.475409657,
				"element": "H" 
			},
			{
				"x": -2.6981440261,
				"y": 2.1602504933,
				"z": -1.3238063127,
				"element": "H" 
			}
		],
		 "valence_orbital": [ 
			{
				"type": "occ",
				"energy": -0.32878,
				"method": "rhf"
			},
			{
				"type": "occ",
				"energy": -0.31397,
				"method": "rhf"
			},
			{
				"type": "occ",
				"energy": -0.299,
				"method": "rhf"
			},
			{
				"type": "occ",
				"energy": -0.26824,
				"method": "rhf"
			},
			{
				"type": "occ",
				"energy": -0.26027,
				"method": "rhf"
			},
			{
				"type": "unocc",
				"energy": -0.04748,
				"method": "rhf"
			},
			{
				"type": "unocc",
				"energy": -0.04569,
				"method": "rhf"
			},
			{
				"type": "unocc",
				"energy": -0.04348,
				"method": "rhf"
			},
			{
				"type": "unocc",
				"energy": 0.01941,
				"method": "rhf"
			},
			{
				"type": "unocc",
				"energy": 0.0237,
				"method": "rhf"
			}
		],
		"cosmo_sigma_profile": { 
			"-0.025": 0.0,
			"-0.024": 0.0,
			"-0.023": 0.0,
			"-0.022": 0.0,
			"-0.021": 0.0,
			"-0.02": 0.0,
			"-0.019": 0.0,
			"-0.018": 0.0,
			"-0.017": 0.0,
			"-0.016": 0.0,
			"-0.015": 0.0,
			"-0.014": 0.0,
			"-0.013": 0.0,
			"-0.012": 0.0,
			"-0.011": 0.0,
			"-0.01": 0.332606716914,
			"-0.009": 2.28160101348,
			"-0.008": 3.14931071251,
			"-0.007": 2.98969768518,
			"-0.006": 3.76947700559,
			"-0.005": 5.12461945684,
			"-0.004": 6.76301704588,
			"-0.003": 10.5921455598,
			"-0.002": 19.0808285992,
			"-0.001": 31.0158502378,
			"0.0": 26.7825008029,
			"0.001": 17.6379498757,
			"0.002": 21.377510449,
			"0.003": 34.8639765151,
			"0.004": 18.3316236356,
			"0.005": 1.30277855052,
			"0.006": 0.0,
			"0.007": 0.0,
			"0.008": 0.0,
			"0.009": 0.0,
			"0.01": 0.0,
			"0.011": 0.0,
			"0.012": 0.0,
			"0.013": 0.0,
			"0.014": 0.0,
			"0.015": 0.0,
			"0.016": 0.0,
			"0.017": 0.0,
			"0.018": 0.0,
			"0.019": 0.0,
			"0.02": 0.0,
			"0.021": 0.0,
			"0.022": 0.0,
			"0.023": 0.0,
			"0.024": 0.0,
			"0.025": 0.0
		}
	}
}
