{
	 "smiles": "FC1=CC(F)=C(F)C(F)=C1", 
	 "Tm": 225.15, 
	 "num_atms": 12, 
	 "gaussian": { 
		 "optdone": 1, 
		 "sigma_profile": "yes", 
		 "theory": "DFT", 
		 "functional": "B3LYP", 
		 "basiset": "6-31G**", 
		 "properties": { 
			 "R2extent": 2704.9959, 
			 "electric_dipole_moment_norm": 1.2448038962, 
			 "electric_quadrupole_moment_norm": 6.17428426135, 
			 "total_energy": -629.159664679, 
			 "HOMO_LUMO_gap": 0.23088, 
			 "cosmo_polarized_energy": -2.97, 
			 "cosmo_cavitation_energy": 18.88, 
			 "cosmo_dispersion_energy": -13.44, 
			 "cosmo_repulsion_energy": 1.0, 
			 "cosmo_total_nonelectrostatic_energy": 6.44, 
			 "SMD_solvation_energy": 5.4 
		},
		"coords": [
			{
				"x": 2.2101706766,
				"y": -1.8010652981,
				"z": -0.4393441235,
				"element": "F" 
			},
			{
				"x": 1.8654038706,
				"y": -0.5903588318,
				"z": -0.9116346017,
				"element": "C" 
			},
			{
				"x": 0.6818833783,
				"y": -0.01217829,
				"z": -0.4648487127,
				"element": "C" 
			},
			{
				"x": 0.3432245074,
				"y": 1.2398941744,
				"z": -0.9650616522,
				"element": "C" 
			},
			{
				"x": -0.7866445054,
				"y": 1.8387827098,
				"z": -0.565718977,
				"element": "F" 
			},
			{
				"x": 1.1555700984,
				"y": 1.9023335642,
				"z": -1.8839613173,
				"element": "C" 
			},
			{
				"x": 0.8121853621,
				"y": 3.108270836,
				"z": -2.3543851667,
				"element": "F" 
			},
			{
				"x": 2.3325349337,
				"y": 1.2843200636,
				"z": -2.3033895413,
				"element": "C" 
			},
			{
				"x": 3.1091561496,
				"y": 1.9258335454,
				"z": -3.1866040996,
				"element": "F" 
			},
			{
				"x": 2.7067680832,
				"y": 0.033035586,
				"z": -1.8271158985,
				"element": "C" 
			},
			{
				"x": 0.0408399115,
				"y": -0.5144957538,
				"z": 0.248502304,
				"element": "H" 
			},
			{
				"x": 3.6240075339,
				"y": -0.4344723056,
				"z": -2.1621382137,
				"element": "H" 
			}
		],
		 "valence_orbital": [ 
			{
				"type": "occ",
				"energy": -0.39044,
				"method": "rhf"
			},
			{
				"type": "occ",
				"energy": -0.37754,
				"method": "rhf"
			},
			{
				"type": "occ",
				"energy": -0.35572,
				"method": "rhf"
			},
			{
				"type": "occ",
				"energy": -0.2711,
				"method": "rhf"
			},
			{
				"type": "occ",
				"energy": -0.25549,
				"method": "rhf"
			},
			{
				"type": "unocc",
				"energy": -0.02461,
				"method": "rhf"
			},
			{
				"type": "unocc",
				"energy": -0.01409,
				"method": "rhf"
			},
			{
				"type": "unocc",
				"energy": 0.03664,
				"method": "rhf"
			},
			{
				"type": "unocc",
				"energy": 0.11252,
				"method": "rhf"
			},
			{
				"type": "unocc",
				"energy": 0.12815,
				"method": "rhf"
			}
		],
		"cosmo_sigma_profile": { 
			"-0.025": 0.0,
			"-0.024": 0.0,
			"-0.023": 0.0,
			"-0.022": 0.0,
			"-0.021": 0.0,
			"-0.02": 0.0,
			"-0.019": 0.0,
			"-0.018": 0.0,
			"-0.017": 0.0,
			"-0.016": 0.0,
			"-0.015": 0.0,
			"-0.014": 0.0,
			"-0.013": 0.0,
			"-0.012": 0.0,
			"-0.011": 0.0,
			"-0.01": 0.689607954161,
			"-0.009": 3.1095147094,
			"-0.008": 2.85229321149,
			"-0.007": 3.1597546017,
			"-0.006": 2.69983440869,
			"-0.005": 2.86110723115,
			"-0.004": 3.66337816946,
			"-0.003": 5.75513386549,
			"-0.002": 16.8101986696,
			"-0.001": 19.5014591223,
			"0.0": 19.8794035082,
			"0.001": 10.5845135412,
			"0.002": 12.8267402015,
			"0.003": 38.4295787205,
			"0.004": 10.5778315801,
			"0.005": 0.0,
			"0.006": 0.0,
			"0.007": 0.0,
			"0.008": 0.0,
			"0.009": 0.0,
			"0.01": 0.0,
			"0.011": 0.0,
			"0.012": 0.0,
			"0.013": 0.0,
			"0.014": 0.0,
			"0.015": 0.0,
			"0.016": 0.0,
			"0.017": 0.0,
			"0.018": 0.0,
			"0.019": 0.0,
			"0.02": 0.0,
			"0.021": 0.0,
			"0.022": 0.0,
			"0.023": 0.0,
			"0.024": 0.0,
			"0.025": 0.0
		}
	}
}
