{
	 "smiles": "COC(=O)C1=CC=C(C)C(=C1)[N+]([O-])=O", 
	 "Tm": 324.15, 
	 "num_atms": 23, 
	 "gaussian": { 
		 "optdone": 1, 
		 "sigma_profile": "yes", 
		 "theory": "DFT", 
		 "functional": "B3LYP", 
		 "basiset": "6-31G**", 
		 "properties": { 
			 "R2extent": 4119.9727, 
			 "electric_dipole_moment_norm": 2.35619312876, 
			 "electric_quadrupole_moment_norm": 23.1128877891, 
			 "total_energy": -703.943397112, 
			 "HOMO_LUMO_gap": 0.18438, 
			 "cosmo_polarized_energy": -10.39, 
			 "cosmo_cavitation_energy": 28.15, 
			 "cosmo_dispersion_energy": -20.52, 
			 "cosmo_repulsion_energy": 1.61, 
			 "cosmo_total_nonelectrostatic_energy": 9.24, 
			 "SMD_solvation_energy": 8.6 
		},
		"coords": [
			{
				"x": 3.088848789,
				"y": -1.1120299081,
				"z": -0.3245427669,
				"element": "C" 
			},
			{
				"x": 1.6613988945,
				"y": -1.1549569457,
				"z": -0.1601357744,
				"element": "O" 
			},
			{
				"x": 0.9986702764,
				"y": -0.057757908,
				"z": -0.5793745438,
				"element": "C" 
			},
			{
				"x": 1.5437219912,
				"y": 0.9127675655,
				"z": -1.0671653107,
				"element": "O" 
			},
			{
				"x": -0.4748926456,
				"y": -0.171948046,
				"z": -0.3765023105,
				"element": "C" 
			},
			{
				"x": -1.2859644003,
				"y": 0.898111154,
				"z": -0.77382704,
				"element": "C" 
			},
			{
				"x": -2.6626670897,
				"y": 0.832143895,
				"z": -0.6006659509,
				"element": "C" 
			},
			{
				"x": -3.300413072,
				"y": -0.2884752365,
				"z": -0.0416021231,
				"element": "C" 
			},
			{
				"x": -4.8007323639,
				"y": -0.2656514553,
				"z": 0.1073645585,
				"element": "C" 
			},
			{
				"x": -2.4534062973,
				"y": -1.3475868556,
				"z": 0.3486507112,
				"element": "C" 
			},
			{
				"x": -1.0681180513,
				"y": -1.2968843833,
				"z": 0.1936171172,
				"element": "C" 
			},
			{
				"x": -2.9857511594,
				"y": -2.5863737855,
				"z": 0.950180784,
				"element": "N" 
			},
			{
				"x": -4.1979041144,
				"y": -2.7932899077,
				"z": 0.8839454629,
				"element": "O" 
			},
			{
				"x": -2.1832979366,
				"y": -3.3534824215,
				"z": 1.4809495765,
				"element": "O" 
			},
			{
				"x": 3.514068567,
				"y": -0.2774049275,
				"z": 0.2380594086,
				"element": "H" 
			},
			{
				"x": 3.349392167,
				"y": -0.9965038937,
				"z": -1.3794017908,
				"element": "H" 
			},
			{
				"x": 3.4565436082,
				"y": -2.062554412,
				"z": 0.0606776554,
				"element": "H" 
			},
			{
				"x": -0.8170031092,
				"y": 1.7721349786,
				"z": -1.2130410288,
				"element": "H" 
			},
			{
				"x": -3.2781490711,
				"y": 1.6729772123,
				"z": -0.9058969966,
				"element": "H" 
			},
			{
				"x": -5.1811188798,
				"y": 0.72307129,
				"z": -0.1610581828,
				"element": "H" 
			},
			{
				"x": -5.1117637415,
				"y": -0.5014597325,
				"z": 1.1278279021,
				"element": "H" 
			},
			{
				"x": -5.2740197132,
				"y": -1.0140655939,
				"z": -0.533337816,
				"element": "H" 
			},
			{
				"x": -0.4716426478,
				"y": -2.1371806826,
				"z": 0.5206784588,
				"element": "H" 
			}
		],
		 "valence_orbital": [ 
			{
				"type": "occ",
				"energy": -0.30928,
				"method": "rhf"
			},
			{
				"type": "occ",
				"energy": -0.2947,
				"method": "rhf"
			},
			{
				"type": "occ",
				"energy": -0.28599,
				"method": "rhf"
			},
			{
				"type": "occ",
				"energy": -0.2827,
				"method": "rhf"
			},
			{
				"type": "occ",
				"energy": -0.27513,
				"method": "rhf"
			},
			{
				"type": "unocc",
				"energy": -0.09075,
				"method": "rhf"
			},
			{
				"type": "unocc",
				"energy": -0.06041,
				"method": "rhf"
			},
			{
				"type": "unocc",
				"energy": -0.01083,
				"method": "rhf"
			},
			{
				"type": "unocc",
				"energy": 0.04421,
				"method": "rhf"
			},
			{
				"type": "unocc",
				"energy": 0.08542,
				"method": "rhf"
			}
		],
		"cosmo_sigma_profile": { 
			"-0.025": 0.0,
			"-0.024": 0.0,
			"-0.023": 0.0,
			"-0.022": 0.0,
			"-0.021": 0.0,
			"-0.02": 0.0,
			"-0.019": 0.0,
			"-0.018": 0.0,
			"-0.017": 0.0,
			"-0.016": 0.0,
			"-0.015": 0.0,
			"-0.014": 0.0,
			"-0.013": 0.0,
			"-0.012": 0.0,
			"-0.011": 0.0,
			"-0.01": 0.0,
			"-0.009": 0.0,
			"-0.008": 0.79437071371,
			"-0.007": 7.05603232741,
			"-0.006": 12.3665371294,
			"-0.005": 16.8641944557,
			"-0.004": 19.8534425467,
			"-0.003": 22.4116168096,
			"-0.002": 20.3729016333,
			"-0.001": 24.780214203,
			"0.0": 22.3174618286,
			"0.001": 13.3736192815,
			"0.002": 8.26370402131,
			"0.003": 5.84558478314,
			"0.004": 6.57286653998,
			"0.005": 5.78926083046,
			"0.006": 5.32725019538,
			"0.007": 7.47356998082,
			"0.008": 8.07875288836,
			"0.009": 5.91733011431,
			"0.01": 4.78075811671,
			"0.011": 3.96106809437,
			"0.012": 2.5322381907,
			"0.013": 0.00814339157358,
			"0.014": 0.0,
			"0.015": 0.0,
			"0.016": 0.0,
			"0.017": 0.0,
			"0.018": 0.0,
			"0.019": 0.0,
			"0.02": 0.0,
			"0.021": 0.0,
			"0.022": 0.0,
			"0.023": 0.0,
			"0.024": 0.0,
			"0.025": 0.0
		}
	}
}
