{
	 "smiles": "CC(=O)CC(=O)NC1=CC=C(I)C=C1", 
	 "Tm": 416.15, 
	 "num_atms": 24, 
	 "gaussian": { 
		 "optdone": 1, 
		 "sigma_profile": "yes", 
		 "theory": "DFT", 
		 "functional": "B3LYP", 
		 "basiset": "6-31G**", 
		 "properties": { 
			 "R2extent": 4116.5225, 
			 "electric_dipole_moment_norm": 5.64455351024, 
			 "electric_quadrupole_moment_norm": 11.4296642348, 
			 "total_energy": -603.698652706, 
			 "HOMO_LUMO_gap": 0.16913, 
			 "cosmo_polarized_energy": -13.51, 
			 "cosmo_cavitation_energy": 31.79, 
			 "cosmo_dispersion_energy": -24.58, 
			 "cosmo_repulsion_energy": 1.9, 
			 "cosmo_total_nonelectrostatic_energy": 9.11, 
			 "SMD_solvation_energy": 5.59 
		},
		"coords": [
			{
				"x": -3.9138649136,
				"y": 2.929168978,
				"z": -1.8133256592,
				"element": "C" 
			},
			{
				"x": -2.7286682601,
				"y": 2.2139236495,
				"z": -1.199199501,
				"element": "C" 
			},
			{
				"x": -1.7273527211,
				"y": 2.8337795678,
				"z": -0.8707103043,
				"element": "O" 
			},
			{
				"x": -2.8826087504,
				"y": 0.7074362553,
				"z": -1.0301990973,
				"element": "C" 
			},
			{
				"x": -1.7768543869,
				"y": -0.1744303766,
				"z": -0.4236543293,
				"element": "C" 
			},
			{
				"x": -1.985773775,
				"y": -1.3769877179,
				"z": -0.3251025193,
				"element": "O" 
			},
			{
				"x": -0.6369137983,
				"y": 0.4700342556,
				"z": -0.0394219329,
				"element": "N" 
			},
			{
				"x": 0.5218327196,
				"y": -0.0814737069,
				"z": 0.5384758286,
				"element": "C" 
			},
			{
				"x": 1.5676178134,
				"y": 0.8042812411,
				"z": 0.8454962435,
				"element": "C" 
			},
			{
				"x": 2.7490510693,
				"y": 0.3436897081,
				"z": 1.4188414675,
				"element": "C" 
			},
			{
				"x": 2.8929900907,
				"y": -1.0179589287,
				"z": 1.6910913988,
				"element": "C" 
			},
			{
				"x": 4.6895757017,
				"y": -1.7321564364,
				"z": 2.5652131344,
				"element": "I" 
			},
			{
				"x": 1.8627474997,
				"y": -1.9091602353,
				"z": 1.3914872996,
				"element": "C" 
			},
			{
				"x": 0.6778956425,
				"y": -1.4485323961,
				"z": 0.8166766843,
				"element": "C" 
			},
			{
				"x": -4.1303764329,
				"y": 2.5241621769,
				"z": -2.8083513074,
				"element": "H" 
			},
			{
				"x": -3.700651393,
				"y": 3.9959750251,
				"z": -1.8885184101,
				"element": "H" 
			},
			{
				"x": -4.8113845811,
				"y": 2.7733028786,
				"z": -1.204113514,
				"element": "H" 
			},
			{
				"x": -3.1179183417,
				"y": 0.2767857514,
				"z": -2.0121424201,
				"element": "H" 
			},
			{
				"x": -3.7869818609,
				"y": 0.5218258357,
				"z": -0.4363176397,
				"element": "H" 
			},
			{
				"x": -0.6450743061,
				"y": 1.4771159449,
				"z": -0.1990971875,
				"element": "H" 
			},
			{
				"x": 1.4560634769,
				"y": 1.8646998572,
				"z": 0.6337068597,
				"element": "H" 
			},
			{
				"x": 3.5448662595,
				"y": 1.0431431294,
				"z": 1.6484957002,
				"element": "H" 
			},
			{
				"x": 1.9722471936,
				"y": -2.9672180022,
				"z": 1.6019721852,
				"element": "H" 
			},
			{
				"x": -0.1240639458,
				"y": -2.1341064543,
				"z": 0.5821970203,
				"element": "H" 
			}
		],
		 "valence_orbital": [ 
			{
				"type": "occ",
				"energy": -0.26816,
				"method": "rhf"
			},
			{
				"type": "occ",
				"energy": -0.26264,
				"method": "rhf"
			},
			{
				"type": "occ",
				"energy": -0.25954,
				"method": "rhf"
			},
			{
				"type": "occ",
				"energy": -0.25888,
				"method": "rhf"
			},
			{
				"type": "occ",
				"energy": -0.2169,
				"method": "rhf"
			},
			{
				"type": "unocc",
				"energy": -0.04777,
				"method": "rhf"
			},
			{
				"type": "unocc",
				"energy": -0.03196,
				"method": "rhf"
			},
			{
				"type": "unocc",
				"energy": -0.0229,
				"method": "rhf"
			},
			{
				"type": "unocc",
				"energy": -0.00969,
				"method": "rhf"
			},
			{
				"type": "unocc",
				"energy": 0.03511,
				"method": "rhf"
			}
		],
		"cosmo_sigma_profile": { 
			"-0.025": 0.0,
			"-0.024": 0.0,
			"-0.023": 0.0,
			"-0.022": 0.0,
			"-0.021": 0.0,
			"-0.02": 0.0,
			"-0.019": 0.0,
			"-0.018": 0.0,
			"-0.017": 0.0,
			"-0.016": 0.0,
			"-0.015": 0.0,
			"-0.014": 0.0,
			"-0.013": 0.0,
			"-0.012": 0.0,
			"-0.011": 0.0,
			"-0.01": 0.0635516772737,
			"-0.009": 3.79550286908,
			"-0.008": 9.42252905019,
			"-0.007": 12.950204545,
			"-0.006": 16.7174174999,
			"-0.005": 17.2602748076,
			"-0.004": 16.5347382535,
			"-0.003": 15.4172169328,
			"-0.002": 16.5751376261,
			"-0.001": 15.4271912627,
			"0.0": 14.0848166665,
			"0.001": 14.3951517393,
			"0.002": 19.4272002991,
			"0.003": 21.8754883237,
			"0.004": 26.8267165392,
			"0.005": 12.0815299384,
			"0.006": 3.21168157577,
			"0.007": 2.99601359836,
			"0.008": 2.51480056354,
			"0.009": 2.97056588153,
			"0.01": 3.89520236236,
			"0.011": 2.89685560712,
			"0.012": 3.50891804923,
			"0.013": 3.05573801408,
			"0.014": 1.23036577852,
			"0.015": 0.0201657260709,
			"0.016": 0.0,
			"0.017": 0.0,
			"0.018": 0.0,
			"0.019": 0.0,
			"0.02": 0.0,
			"0.021": 0.0,
			"0.022": 0.0,
			"0.023": 0.0,
			"0.024": 0.0,
			"0.025": 0.0
		}
	}
}
