{
	 "smiles": "NC1=C(C=CC=C1)N1C=CN=C1", 
	 "Tm": 379.15, 
	 "num_atms": 21, 
	 "gaussian": { 
		 "optdone": 1, 
		 "sigma_profile": "yes", 
		 "theory": "DFT", 
		 "functional": "B3LYP", 
		 "basiset": "6-31G**", 
		 "properties": { 
			 "R2extent": 2022.7644, 
			 "electric_dipole_moment_norm": 4.02722215677, 
			 "electric_quadrupole_moment_norm": 11.4844863708, 
			 "total_energy": -512.627127081, 
			 "HOMO_LUMO_gap": 0.19982, 
			 "cosmo_polarized_energy": -12.68, 
			 "cosmo_cavitation_energy": 25.02, 
			 "cosmo_dispersion_energy": -18.14, 
			 "cosmo_repulsion_energy": 1.44, 
			 "cosmo_total_nonelectrostatic_energy": 8.32, 
			 "SMD_solvation_energy": 3.62 
		},
		"coords": [
			{
				"x": 2.1512535911,
				"y": 0.3210353158,
				"z": 1.0043789811,
				"element": "N" 
			},
			{
				"x": 1.602414274,
				"y": -0.230110927,
				"z": -0.141717732,
				"element": "C" 
			},
			{
				"x": 0.2126220444,
				"y": -0.1629299059,
				"z": -0.3890434561,
				"element": "C" 
			},
			{
				"x": -0.3288751644,
				"y": -0.6518075935,
				"z": -1.5784263957,
				"element": "C" 
			},
			{
				"x": 0.4906869328,
				"y": -1.2225243406,
				"z": -2.5501856697,
				"element": "C" 
			},
			{
				"x": 1.8651723351,
				"y": -1.3054702551,
				"z": -2.3106577963,
				"element": "C" 
			},
			{
				"x": 2.4142677005,
				"y": -0.8203866425,
				"z": -1.1280870171,
				"element": "C" 
			},
			{
				"x": -0.6416472569,
				"y": 0.4280943505,
				"z": 0.5960562719,
				"element": "N" 
			},
			{
				"x": -1.0321560708,
				"y": -0.1320406481,
				"z": 1.805409066,
				"element": "C" 
			},
			{
				"x": -1.8060829742,
				"y": 0.8215155342,
				"z": 2.4193577294,
				"element": "C" 
			},
			{
				"x": -1.9041256538,
				"y": 1.94983853,
				"z": 1.6363039848,
				"element": "N" 
			},
			{
				"x": -1.1979781333,
				"y": 1.6830832289,
				"z": 0.5595538268,
				"element": "C" 
			},
			{
				"x": 1.5216934319,
				"y": 0.4777483768,
				"z": 1.7785229912,
				"element": "H" 
			},
			{
				"x": 3.0591970717,
				"y": -0.0241653292,
				"z": 1.2768901308,
				"element": "H" 
			},
			{
				"x": -1.4029443653,
				"y": -0.5828198256,
				"z": -1.7222166827,
				"element": "H" 
			},
			{
				"x": 0.0645029443,
				"y": -1.6006764145,
				"z": -3.4733074948,
				"element": "H" 
			},
			{
				"x": 2.5197396251,
				"y": -1.7527936261,
				"z": -3.0533468002,
				"element": "H" 
			},
			{
				"x": 3.4864571984,
				"y": -0.8804160484,
				"z": -0.9594366414,
				"element": "H" 
			},
			{
				"x": -0.7543220838,
				"y": -1.1399496081,
				"z": 2.0740161935,
				"element": "H" 
			},
			{
				"x": -2.3043436745,
				"y": 0.754891186,
				"z": 3.3770586916,
				"element": "H" 
			},
			{
				"x": -1.0331317723,
				"y": 2.3455846423,
				"z": -0.2792221812,
				"element": "H" 
			}
		],
		 "valence_orbital": [ 
			{
				"type": "occ",
				"energy": -0.27756,
				"method": "rhf"
			},
			{
				"type": "occ",
				"energy": -0.26615,
				"method": "rhf"
			},
			{
				"type": "occ",
				"energy": -0.25145,
				"method": "rhf"
			},
			{
				"type": "occ",
				"energy": -0.22657,
				"method": "rhf"
			},
			{
				"type": "occ",
				"energy": -0.21242,
				"method": "rhf"
			},
			{
				"type": "unocc",
				"energy": -0.0126,
				"method": "rhf"
			},
			{
				"type": "unocc",
				"energy": 0.00497,
				"method": "rhf"
			},
			{
				"type": "unocc",
				"energy": 0.02893,
				"method": "rhf"
			},
			{
				"type": "unocc",
				"energy": 0.06864,
				"method": "rhf"
			},
			{
				"type": "unocc",
				"energy": 0.08433,
				"method": "rhf"
			}
		],
		"cosmo_sigma_profile": { 
			"-0.025": 0.0,
			"-0.024": 0.0,
			"-0.023": 0.0,
			"-0.022": 0.0,
			"-0.021": 0.0,
			"-0.02": 0.0,
			"-0.019": 0.0,
			"-0.018": 0.0,
			"-0.017": 0.0,
			"-0.016": 0.0,
			"-0.015": 0.0,
			"-0.014": 0.00793780507043,
			"-0.013": 0.955226244898,
			"-0.012": 1.39418280019,
			"-0.011": 1.87136085551,
			"-0.01": 2.47834240005,
			"-0.009": 3.17925226367,
			"-0.008": 5.34922870119,
			"-0.007": 6.77236924377,
			"-0.006": 11.9456827011,
			"-0.005": 14.3407318268,
			"-0.004": 13.4038060851,
			"-0.003": 15.4682034533,
			"-0.002": 12.5529873307,
			"-0.001": 11.9215513104,
			"0.0": 10.2692585438,
			"0.001": 10.8919153336,
			"0.002": 10.5821192465,
			"0.003": 11.2168765528,
			"0.004": 11.9797189004,
			"0.005": 13.8803250526,
			"0.006": 9.76230728713,
			"0.007": 2.52235288987,
			"0.008": 2.27738703489,
			"0.009": 2.43807091973,
			"0.01": 2.14505158327,
			"0.011": 2.11121484139,
			"0.012": 1.91516118156,
			"0.013": 1.4242290843,
			"0.014": 1.08241471393,
			"0.015": 1.32519535657,
			"0.016": 1.06616632608,
			"0.017": 1.14831272008,
			"0.018": 0.727079880533,
			"0.019": 0.0548260391078,
			"0.02": 0.0,
			"0.021": 0.0,
			"0.022": 0.0,
			"0.023": 0.0,
			"0.024": 0.0,
			"0.025": 0.0
		}
	}
}
