{
	 "smiles": "CC1=CC=C(Cl)C=C1[N+]([O-])=O", 
	 "Tm": 310.65, 
	 "num_atms": 17, 
	 "gaussian": { 
		 "optdone": 1, 
		 "sigma_profile": "yes", 
		 "theory": "DFT", 
		 "functional": "B3LYP", 
		 "basiset": "6-31G**", 
		 "properties": { 
			 "R2extent": 2598.4055, 
			 "electric_dipole_moment_norm": 3.90122665581, 
			 "electric_quadrupole_moment_norm": 4.90879027765, 
			 "total_energy": -935.654601773, 
			 "HOMO_LUMO_gap": 0.16958, 
			 "cosmo_polarized_energy": -7.37, 
			 "cosmo_cavitation_energy": 23.36, 
			 "cosmo_dispersion_energy": -17.47, 
			 "cosmo_repulsion_energy": 1.4, 
			 "cosmo_total_nonelectrostatic_energy": 7.28, 
			 "SMD_solvation_energy": 5.87 
		},
		"coords": [
			{
				"x": 1.9363698597,
				"y": -1.0082238661,
				"z": -0.161719589,
				"element": "C" 
			},
			{
				"x": 1.0744845269,
				"y": 0.2157103816,
				"z": -0.3507023546,
				"element": "C" 
			},
			{
				"x": 1.6856079251,
				"y": 1.4797851813,
				"z": -0.3193950338,
				"element": "C" 
			},
			{
				"x": 0.9794227851,
				"y": 2.6675579394,
				"z": -0.4843554264,
				"element": "C" 
			},
			{
				"x": -0.3979035733,
				"y": 2.6146423859,
				"z": -0.6985091443,
				"element": "C" 
			},
			{
				"x": -1.3074897838,
				"y": 4.0971868943,
				"z": -0.9096187954,
				"element": "Cl" 
			},
			{
				"x": -1.0539987725,
				"y": 1.3932385069,
				"z": -0.7470972883,
				"element": "C" 
			},
			{
				"x": -0.3175926021,
				"y": 0.2188047161,
				"z": -0.5703842595,
				"element": "C" 
			},
			{
				"x": -1.1008727611,
				"y": -1.0331219216,
				"z": -0.6301568444,
				"element": "N" 
			},
			{
				"x": -0.5403616964,
				"y": -2.0858991943,
				"z": -0.3264493861,
				"element": "O" 
			},
			{
				"x": -2.2785223581,
				"y": -0.953648631,
				"z": -0.977280568,
				"element": "O" 
			},
			{
				"x": 2.985420916,
				"y": -0.7092134028,
				"z": -0.0928580171,
				"element": "H" 
			},
			{
				"x": 1.8234490558,
				"y": -1.7156394359,
				"z": -0.9866291951,
				"element": "H" 
			},
			{
				"x": 1.6635784894,
				"y": -1.5534805248,
				"z": 0.7451777092,
				"element": "H" 
			},
			{
				"x": 2.7583636091,
				"y": 1.5279943725,
				"z": -0.158576491,
				"element": "H" 
			},
			{
				"x": 1.4898555511,
				"y": 3.6236596273,
				"z": -0.4494669299,
				"element": "H" 
			},
			{
				"x": -2.1196111708,
				"y": 1.326846971,
				"z": -0.9188783864,
				"element": "H" 
			}
		],
		 "valence_orbital": [ 
			{
				"type": "occ",
				"energy": -0.31473,
				"method": "rhf"
			},
			{
				"type": "occ",
				"energy": -0.31122,
				"method": "rhf"
			},
			{
				"type": "occ",
				"energy": -0.29642,
				"method": "rhf"
			},
			{
				"type": "occ",
				"energy": -0.28955,
				"method": "rhf"
			},
			{
				"type": "occ",
				"energy": -0.2646,
				"method": "rhf"
			},
			{
				"type": "unocc",
				"energy": -0.09502,
				"method": "rhf"
			},
			{
				"type": "unocc",
				"energy": -0.03464,
				"method": "rhf"
			},
			{
				"type": "unocc",
				"energy": -0.01196,
				"method": "rhf"
			},
			{
				"type": "unocc",
				"energy": 0.01335,
				"method": "rhf"
			},
			{
				"type": "unocc",
				"energy": 0.09663,
				"method": "rhf"
			}
		],
		"cosmo_sigma_profile": { 
			"-0.025": 0.0,
			"-0.024": 0.0,
			"-0.023": 0.0,
			"-0.022": 0.0,
			"-0.021": 0.0,
			"-0.02": 0.0,
			"-0.019": 0.0,
			"-0.018": 0.0,
			"-0.017": 0.0,
			"-0.016": 0.0,
			"-0.015": 0.0,
			"-0.014": 0.0,
			"-0.013": 0.0,
			"-0.012": 0.0,
			"-0.011": 0.0,
			"-0.01": 0.0,
			"-0.009": 0.483799207211,
			"-0.008": 3.40387504625,
			"-0.007": 7.00986410241,
			"-0.006": 7.89094761539,
			"-0.005": 9.64341695949,
			"-0.004": 11.8243554477,
			"-0.003": 13.8605902737,
			"-0.002": 15.777954097,
			"-0.001": 21.4133492213,
			"0.0": 23.1917941694,
			"0.001": 15.8919780101,
			"0.002": 9.86677235706,
			"0.003": 9.46415538453,
			"0.004": 12.2612485274,
			"0.005": 4.02746512258,
			"0.006": 3.95393349521,
			"0.007": 6.05474244715,
			"0.008": 6.30911831393,
			"0.009": 4.47592149707,
			"0.01": 2.52560435119,
			"0.011": 0.117173578994,
			"0.012": 0.0,
			"0.013": 0.0,
			"0.014": 0.0,
			"0.015": 0.0,
			"0.016": 0.0,
			"0.017": 0.0,
			"0.018": 0.0,
			"0.019": 0.0,
			"0.02": 0.0,
			"0.021": 0.0,
			"0.022": 0.0,
			"0.023": 0.0,
			"0.024": 0.0,
			"0.025": 0.0
		}
	}
}
