{
	 "smiles": "OS(=O)(=O)C1=C2C=CC=CC2=NC=C1", 
	 "Tm": 591.15, 
	 "num_atms": 21, 
	 "gaussian": { 
		 "optdone": 1, 
		 "sigma_profile": "yes", 
		 "theory": "DFT", 
		 "functional": "B3LYP", 
		 "basiset": "6-31G**", 
		 "properties": { 
			 "R2extent": 2994.2905, 
			 "electric_dipole_moment_norm": 2.94991334449, 
			 "electric_quadrupole_moment_norm": 15.9127003262, 
			 "total_energy": -1025.71593748, 
			 "HOMO_LUMO_gap": 0.16829, 
			 "cosmo_polarized_energy": -14.22, 
			 "cosmo_cavitation_energy": 26.58, 
			 "cosmo_dispersion_energy": -20.52, 
			 "cosmo_repulsion_energy": 1.54, 
			 "cosmo_total_nonelectrostatic_energy": 7.59, 
			 "SMD_solvation_energy": 2.15 
		},
		"coords": [
			{
				"x": 1.5991621596,
				"y": -0.5362265376,
				"z": -2.6129170448,
				"element": "O" 
			},
			{
				"x": 0.1485338287,
				"y": -1.2918879089,
				"z": -2.4485258285,
				"element": "S" 
			},
			{
				"x": 0.3439291448,
				"y": -2.6788081584,
				"z": -2.8681760552,
				"element": "O" 
			},
			{
				"x": -0.8384414248,
				"y": -0.4296358869,
				"z": -3.0788345842,
				"element": "O" 
			},
			{
				"x": -0.0755251644,
				"y": -1.2558224965,
				"z": -0.6654992077,
				"element": "C" 
			},
			{
				"x": -0.2015221027,
				"y": -0.0357399144,
				"z": 0.0614792469,
				"element": "C" 
			},
			{
				"x": -0.1587821857,
				"y": 1.2682546272,
				"z": -0.4995165241,
				"element": "C" 
			},
			{
				"x": -0.2773241759,
				"y": 2.3748562807,
				"z": 0.3119449745,
				"element": "C" 
			},
			{
				"x": -0.4458314463,
				"y": 2.2387256889,
				"z": 1.7110026159,
				"element": "C" 
			},
			{
				"x": -0.4964954864,
				"y": 0.9891974233,
				"z": 2.2833311969,
				"element": "C" 
			},
			{
				"x": -0.3774959853,
				"y": -0.1762469902,
				"z": 1.4813225854,
				"element": "C" 
			},
			{
				"x": -0.438350089,
				"y": -1.3860350225,
				"z": 2.1109719269,
				"element": "N" 
			},
			{
				"x": -0.3272106703,
				"y": -2.4746812612,
				"z": 1.3817621957,
				"element": "C" 
			},
			{
				"x": -0.1381897536,
				"y": -2.4692022285,
				"z": -0.0229442814,
				"element": "C" 
			},
			{
				"x": 2.2485031263,
				"y": -1.2227969274,
				"z": -2.8415790665,
				"element": "H" 
			},
			{
				"x": -0.0463256037,
				"y": 1.3908725607,
				"z": -1.5695796717,
				"element": "H" 
			},
			{
				"x": -0.2448047961,
				"y": 3.3663681381,
				"z": -0.1293906091,
				"element": "H" 
			},
			{
				"x": -0.5377832747,
				"y": 3.1263881037,
				"z": 2.3296190043,
				"element": "H" 
			},
			{
				"x": -0.6277936592,
				"y": 0.8471480211,
				"z": 3.3506565809,
				"element": "H" 
			},
			{
				"x": -0.3834230858,
				"y": -3.4261394908,
				"z": 1.9079974687,
				"element": "H" 
			},
			{
				"x": -0.0456293555,
				"y": -3.3953880204,
				"z": -0.5777249229,
				"element": "H" 
			}
		],
		 "valence_orbital": [ 
			{
				"type": "occ",
				"energy": -0.32313,
				"method": "rhf"
			},
			{
				"type": "occ",
				"energy": -0.31615,
				"method": "rhf"
			},
			{
				"type": "occ",
				"energy": -0.27333,
				"method": "rhf"
			},
			{
				"type": "occ",
				"energy": -0.27016,
				"method": "rhf"
			},
			{
				"type": "occ",
				"energy": -0.2509,
				"method": "rhf"
			},
			{
				"type": "unocc",
				"energy": -0.08261,
				"method": "rhf"
			},
			{
				"type": "unocc",
				"energy": -0.03557,
				"method": "rhf"
			},
			{
				"type": "unocc",
				"energy": -0.00635,
				"method": "rhf"
			},
			{
				"type": "unocc",
				"energy": 0.03089,
				"method": "rhf"
			},
			{
				"type": "unocc",
				"energy": 0.05826,
				"method": "rhf"
			}
		],
		"cosmo_sigma_profile": { 
			"-0.025": 0.0,
			"-0.024": 0.0,
			"-0.023": 0.0,
			"-0.022": 0.0,
			"-0.021": 0.0420869110778,
			"-0.02": 0.832291809876,
			"-0.019": 1.16679459389,
			"-0.018": 0.384457150808,
			"-0.017": 1.15155848396,
			"-0.016": 0.872275857753,
			"-0.015": 0.885144855813,
			"-0.014": 0.671359005759,
			"-0.013": 0.621632111527,
			"-0.012": 1.21755821043,
			"-0.011": 0.468646065297,
			"-0.01": 0.66563316269,
			"-0.009": 1.61175776124,
			"-0.008": 4.1149012295,
			"-0.007": 9.3072924017,
			"-0.006": 11.1885695057,
			"-0.005": 12.2542167316,
			"-0.004": 11.6770045852,
			"-0.003": 10.8277007897,
			"-0.002": 12.3473594501,
			"-0.001": 17.0635431356,
			"0.0": 15.0269365634,
			"0.001": 13.7109134447,
			"0.002": 17.1414179799,
			"0.003": 16.2299078252,
			"0.004": 6.52608543316,
			"0.005": 5.42866956128,
			"0.006": 6.79849299595,
			"0.007": 6.56530717115,
			"0.008": 6.41827289989,
			"0.009": 9.8874242098,
			"0.01": 7.59193924764,
			"0.011": 1.08344172614,
			"0.012": 0.827623876351,
			"0.013": 0.829875965226,
			"0.014": 0.544417897487,
			"0.015": 0.34148476954,
			"0.016": 0.0,
			"0.017": 0.0,
			"0.018": 0.0,
			"0.019": 0.0,
			"0.02": 0.0,
			"0.021": 0.0,
			"0.022": 0.0,
			"0.023": 0.0,
			"0.024": 0.0,
			"0.025": 0.0
		}
	}
}
