{
	 "smiles": "[O-][N+](=O)C1=CC=C(O1)C#N", 
	 "Tm": 336.15, 
	 "num_atms": 12, 
	 "gaussian": { 
		 "optdone": 1, 
		 "sigma_profile": "yes", 
		 "theory": "DFT", 
		 "functional": "B3LYP", 
		 "basiset": "6-31G**", 
		 "properties": { 
			 "R2extent": 1765.1034, 
			 "electric_dipole_moment_norm": 4.14334837299, 
			 "electric_quadrupole_moment_norm": 13.617092469, 
			 "total_energy": -526.743350436, 
			 "HOMO_LUMO_gap": 0.16825, 
			 "cosmo_polarized_energy": -12.22, 
			 "cosmo_cavitation_energy": 19.64, 
			 "cosmo_dispersion_energy": -13.81, 
			 "cosmo_repulsion_energy": 1.13, 
			 "cosmo_total_nonelectrostatic_energy": 6.96, 
			 "SMD_solvation_energy": 8.28 
		},
		"coords": [
			{
				"x": -3.1173058835,
				"y": 1.2240960579,
				"z": -1.4683727837,
				"element": "O" 
			},
			{
				"x": -2.4068572559,
				"y": 1.8266121435,
				"z": -0.6706232536,
				"element": "N" 
			},
			{
				"x": -2.6150235277,
				"y": 2.9430756831,
				"z": -0.1916868194,
				"element": "O" 
			},
			{
				"x": -1.198006502,
				"y": 1.1859981436,
				"z": -0.2308630153,
				"element": "C" 
			},
			{
				"x": -0.2358380449,
				"y": 1.6192388999,
				"z": 0.6390311324,
				"element": "C" 
			},
			{
				"x": 0.7192401192,
				"y": 0.5698367378,
				"z": 0.6870592876,
				"element": "C" 
			},
			{
				"x": 0.2552018616,
				"y": -0.4117101364,
				"z": -0.1585051573,
				"element": "C" 
			},
			{
				"x": -0.9285042435,
				"y": -0.0368314842,
				"z": -0.7281442424,
				"element": "O" 
			},
			{
				"x": 0.7827345122,
				"y": -1.6777567008,
				"z": -0.510420693,
				"element": "C" 
			},
			{
				"x": 1.2443483245,
				"y": -2.7115932587,
				"z": -0.7775304413,
				"element": "N" 
			},
			{
				"x": -0.2301679657,
				"y": 2.5622031693,
				"z": 1.162537071,
				"element": "H" 
			},
			{
				"x": 1.6314786056,
				"y": 0.5304307452,
				"z": 1.263718915,
				"element": "H" 
			}
		],
		 "valence_orbital": [ 
			{
				"type": "occ",
				"energy": -0.34618,
				"method": "rhf"
			},
			{
				"type": "occ",
				"energy": -0.33147,
				"method": "rhf"
			},
			{
				"type": "occ",
				"energy": -0.32915,
				"method": "rhf"
			},
			{
				"type": "occ",
				"energy": -0.3162,
				"method": "rhf"
			},
			{
				"type": "occ",
				"energy": -0.28917,
				"method": "rhf"
			},
			{
				"type": "unocc",
				"energy": -0.12092,
				"method": "rhf"
			},
			{
				"type": "unocc",
				"energy": -0.05586,
				"method": "rhf"
			},
			{
				"type": "unocc",
				"energy": -0.02128,
				"method": "rhf"
			},
			{
				"type": "unocc",
				"energy": 0.02348,
				"method": "rhf"
			},
			{
				"type": "unocc",
				"energy": 0.07782,
				"method": "rhf"
			}
		],
		"cosmo_sigma_profile": { 
			"-0.025": 0.0,
			"-0.024": 0.0,
			"-0.023": 0.0,
			"-0.022": 0.0,
			"-0.021": 0.0,
			"-0.02": 0.0,
			"-0.019": 0.0,
			"-0.018": 0.0,
			"-0.017": 0.0,
			"-0.016": 0.0,
			"-0.015": 0.0,
			"-0.014": 0.0,
			"-0.013": 0.0,
			"-0.012": 0.102633121395,
			"-0.011": 3.74481903465,
			"-0.01": 3.65834930921,
			"-0.009": 4.43040678814,
			"-0.008": 5.19547164941,
			"-0.007": 6.27923250696,
			"-0.006": 7.23675875511,
			"-0.005": 11.807585391,
			"-0.004": 11.7964867883,
			"-0.003": 12.2803461756,
			"-0.002": 11.0380312186,
			"-0.001": 7.07695328881,
			"0.0": 4.96617300065,
			"0.001": 4.52783392599,
			"0.002": 4.1999100881,
			"0.003": 6.57607835984,
			"0.004": 5.15091083376,
			"0.005": 6.47560398683,
			"0.006": 10.8882489816,
			"0.007": 14.4079505372,
			"0.008": 8.96167546585,
			"0.009": 5.30205855442,
			"0.01": 2.63996642268,
			"0.011": 1.71933885152,
			"0.012": 0.167524828397,
			"0.013": 0.0,
			"0.014": 0.0,
			"0.015": 0.0,
			"0.016": 0.0,
			"0.017": 0.0,
			"0.018": 0.0,
			"0.019": 0.0,
			"0.02": 0.0,
			"0.021": 0.0,
			"0.022": 0.0,
			"0.023": 0.0,
			"0.024": 0.0,
			"0.025": 0.0
		}
	}
}
