{
	 "smiles": "NC1=CC=C(C=C1)S(=O)(=O)NC1=CC=C(Cl)C=C1", 
	 "Tm": 454.15, 
	 "num_atms": 29, 
	 "gaussian": { 
		 "optdone": 1, 
		 "sigma_profile": "yes", 
		 "theory": "DFT", 
		 "functional": "B3LYP", 
		 "basiset": "6-31G**", 
		 "properties": { 
			 "R2extent": 7765.2828, 
			 "electric_dipole_moment_norm": 6.41266949951, 
			 "electric_quadrupole_moment_norm": 24.3253039755, 
			 "total_energy": -1582.17256952, 
			 "HOMO_LUMO_gap": 0.19269, 
			 "cosmo_polarized_energy": -21.05, 
			 "cosmo_cavitation_energy": 36.76, 
			 "cosmo_dispersion_energy": -26.83, 
			 "cosmo_repulsion_energy": 2.04, 
			 "cosmo_total_nonelectrostatic_energy": 11.97, 
			 "SMD_solvation_energy": 5.05 
		},
		"coords": [
			{
				"x": 3.4346596225,
				"y": 3.422223268,
				"z": -0.3023690308,
				"element": "N" 
			},
			{
				"x": 2.5064471095,
				"y": 2.4210033323,
				"z": -0.5113322425,
				"element": "C" 
			},
			{
				"x": 2.4140000144,
				"y": 1.3289846447,
				"z": 0.3738606195,
				"element": "C" 
			},
			{
				"x": 1.5119120658,
				"y": 0.2996246391,
				"z": 0.1357432059,
				"element": "C" 
			},
			{
				"x": 0.6826286221,
				"y": 0.3492012827,
				"z": -0.9880066064,
				"element": "C" 
			},
			{
				"x": 0.7687048105,
				"y": 1.4201985056,
				"z": -1.8852204971,
				"element": "C" 
			},
			{
				"x": 1.6677391126,
				"y": 2.4475757665,
				"z": -1.6466744653,
				"element": "C" 
			},
			{
				"x": -0.4365154211,
				"y": -0.9937835423,
				"z": -1.3127818051,
				"element": "S" 
			},
			{
				"x": -0.3397640204,
				"y": -1.3766221453,
				"z": -2.7251931618,
				"element": "O" 
			},
			{
				"x": -0.2828567391,
				"y": -1.9725186061,
				"z": -0.2346360188,
				"element": "O" 
			},
			{
				"x": -1.9868524175,
				"y": -0.2623332213,
				"z": -1.2409808677,
				"element": "N" 
			},
			{
				"x": -2.7757947604,
				"y": -0.2163368994,
				"z": -0.0664750353,
				"element": "C" 
			},
			{
				"x": -4.138684798,
				"y": -0.534000028,
				"z": -0.1428609821,
				"element": "C" 
			},
			{
				"x": -4.9584292716,
				"y": -0.4289844409,
				"z": 0.9785993752,
				"element": "C" 
			},
			{
				"x": -4.4072622257,
				"y": -0.0238451657,
				"z": 2.1923884145,
				"element": "C" 
			},
			{
				"x": -5.431899997,
				"y": 0.0993585159,
				"z": 3.6165612131,
				"element": "Cl" 
			},
			{
				"x": -3.0513276584,
				"y": 0.2863154571,
				"z": 2.2882140225,
				"element": "C" 
			},
			{
				"x": -2.2402504003,
				"y": 0.20101923,
				"z": 1.1596267062,
				"element": "C" 
			},
			{
				"x": 3.2842212926,
				"y": 4.299990198,
				"z": -0.7764029181,
				"element": "H" 
			},
			{
				"x": 3.8106178353,
				"y": 3.5181404691,
				"z": 0.6289280499,
				"element": "H" 
			},
			{
				"x": 3.0621481311,
				"y": 1.2885673615,
				"z": 1.2450729864,
				"element": "H" 
			},
			{
				"x": 1.4453258889,
				"y": -0.5468015073,
				"z": 0.8105476169,
				"element": "H" 
			},
			{
				"x": 0.1338714555,
				"y": 1.4458902822,
				"z": -2.7644638194,
				"element": "H" 
			},
			{
				"x": 1.7363540061,
				"y": 3.279060261,
				"z": -2.342883022,
				"element": "H" 
			},
			{
				"x": -2.4854354688,
				"y": -0.5558807304,
				"z": -2.0757521109,
				"element": "H" 
			},
			{
				"x": -4.5639134837,
				"y": -0.8663159758,
				"z": -1.0862511308,
				"element": "H" 
			},
			{
				"x": -6.0129871047,
				"y": -0.6719679193,
				"z": 0.9113285178,
				"element": "H" 
			},
			{
				"x": -2.6331967573,
				"y": 0.6034293914,
				"z": 3.2371050876,
				"element": "H" 
			},
			{
				"x": -1.1924594432,
				"y": 0.4662075768,
				"z": 1.2351078987,
				"element": "H" 
			}
		],
		 "valence_orbital": [ 
			{
				"type": "occ",
				"energy": -0.2959,
				"method": "rhf"
			},
			{
				"type": "occ",
				"energy": -0.27295,
				"method": "rhf"
			},
			{
				"type": "occ",
				"energy": -0.26495,
				"method": "rhf"
			},
			{
				"type": "occ",
				"energy": -0.23106,
				"method": "rhf"
			},
			{
				"type": "occ",
				"energy": -0.22087,
				"method": "rhf"
			},
			{
				"type": "unocc",
				"energy": -0.02818,
				"method": "rhf"
			},
			{
				"type": "unocc",
				"energy": -0.02199,
				"method": "rhf"
			},
			{
				"type": "unocc",
				"energy": -0.01541,
				"method": "rhf"
			},
			{
				"type": "unocc",
				"energy": -0.01027,
				"method": "rhf"
			},
			{
				"type": "unocc",
				"energy": 0.03047,
				"method": "rhf"
			}
		],
		"cosmo_sigma_profile": { 
			"-0.025": 0.0,
			"-0.024": 0.0,
			"-0.023": 0.0,
			"-0.022": 0.0,
			"-0.021": 0.0,
			"-0.02": 0.0,
			"-0.019": 0.0,
			"-0.018": 0.0,
			"-0.017": 0.0,
			"-0.016": 0.0163031729836,
			"-0.015": 0.696963900972,
			"-0.014": 2.0363824075,
			"-0.013": 3.89144517736,
			"-0.012": 3.98787746685,
			"-0.011": 4.72009977765,
			"-0.01": 4.05507777133,
			"-0.009": 4.50900747787,
			"-0.008": 6.27257770786,
			"-0.007": 11.9521931494,
			"-0.006": 14.1527938709,
			"-0.005": 14.9372052579,
			"-0.004": 13.5762748245,
			"-0.003": 13.9310469412,
			"-0.002": 13.5079704767,
			"-0.001": 13.917285787,
			"0.0": 15.8538601441,
			"0.001": 17.5575066593,
			"0.002": 24.7937188782,
			"0.003": 33.102863885,
			"0.004": 26.6327306181,
			"0.005": 13.1251549493,
			"0.006": 4.93281102022,
			"0.007": 4.93651003354,
			"0.008": 4.85944025382,
			"0.009": 3.82139330152,
			"0.01": 9.39971508649,
			"0.011": 9.15839126659,
			"0.012": 2.20189132674,
			"0.013": 0.0,
			"0.014": 0.0,
			"0.015": 0.0,
			"0.016": 0.0,
			"0.017": 0.0,
			"0.018": 0.0,
			"0.019": 0.0,
			"0.02": 0.0,
			"0.021": 0.0,
			"0.022": 0.0,
			"0.023": 0.0,
			"0.024": 0.0,
			"0.025": 0.0
		}
	}
}
