{
	 "smiles": "CC1=CC=CC=C1NC(N)=O", 
	 "Tm": 465.15, 
	 "num_atms": 21, 
	 "gaussian": { 
		 "optdone": 1, 
		 "sigma_profile": "yes", 
		 "theory": "DFT", 
		 "functional": "B3LYP", 
		 "basiset": "6-31G**", 
		 "properties": { 
			 "R2extent": 2507.1351, 
			 "electric_dipole_moment_norm": 3.47414487176, 
			 "electric_quadrupole_moment_norm": 18.7087494424, 
			 "total_energy": -495.636827332, 
			 "HOMO_LUMO_gap": 0.22279, 
			 "cosmo_polarized_energy": -15.73, 
			 "cosmo_cavitation_energy": 24.53, 
			 "cosmo_dispersion_energy": -18.0, 
			 "cosmo_repulsion_energy": 1.46, 
			 "cosmo_total_nonelectrostatic_energy": 7.99, 
			 "SMD_solvation_energy": 5.01 
		},
		"coords": [
			{
				"x": 0.8666694261,
				"y": -0.4758633167,
				"z": 0.5270436917,
				"element": "C" 
			},
			{
				"x": 0.1905129274,
				"y": 0.798380976,
				"z": 0.0923273369,
				"element": "C" 
			},
			{
				"x": -0.3475612954,
				"y": 1.6757395611,
				"z": 1.0431238691,
				"element": "C" 
			},
			{
				"x": -1.0241515543,
				"y": 2.8395404085,
				"z": 0.6797853742,
				"element": "C" 
			},
			{
				"x": -1.176738432,
				"y": 3.1539851385,
				"z": -0.6701853262,
				"element": "C" 
			},
			{
				"x": -0.6316928558,
				"y": 2.3102617523,
				"z": -1.6350391522,
				"element": "C" 
			},
			{
				"x": 0.0519431038,
				"y": 1.1454341365,
				"z": -1.2666106316,
				"element": "C" 
			},
			{
				"x": 0.5317972654,
				"y": 0.2899454169,
				"z": -2.3006540372,
				"element": "N" 
			},
			{
				"x": 1.8811507358,
				"y": -0.0096161952,
				"z": -2.479471398,
				"element": "C" 
			},
			{
				"x": 2.1202854938,
				"y": -0.7232111327,
				"z": -3.6505921901,
				"element": "N" 
			},
			{
				"x": 2.771146849,
				"y": 0.3278411991,
				"z": -1.7162444552,
				"element": "O" 
			},
			{
				"x": 0.535718136,
				"y": -1.3229061714,
				"z": -0.0843845904,
				"element": "H" 
			},
			{
				"x": 1.9514774089,
				"y": -0.4018859532,
				"z": 0.4075267372,
				"element": "H" 
			},
			{
				"x": 0.638292697,
				"y": -0.6977394778,
				"z": 1.5729905724,
				"element": "H" 
			},
			{
				"x": -0.2451297485,
				"y": 1.4226909052,
				"z": 2.0953892079,
				"element": "H" 
			},
			{
				"x": -1.4363656934,
				"y": 3.4898726528,
				"z": 1.4457191758,
				"element": "H" 
			},
			{
				"x": -1.704878926,
				"y": 4.0532592825,
				"z": -0.9730529077,
				"element": "H" 
			},
			{
				"x": -0.7237858297,
				"y": 2.5572911189,
				"z": -2.6901350664,
				"element": "H" 
			},
			{
				"x": -0.0103363213,
				"y": 0.3203843293,
				"z": -3.1541393932,
				"element": "H" 
			},
			{
				"x": 3.0613140301,
				"y": -1.0884981619,
				"z": -3.6908987812,
				"element": "H" 
			},
			{
				"x": 1.4102325832,
				"y": -1.3752064686,
				"z": -3.9550980359,
				"element": "H" 
			}
		],
		 "valence_orbital": [ 
			{
				"type": "occ",
				"energy": -0.28838,
				"method": "rhf"
			},
			{
				"type": "occ",
				"energy": -0.27747,
				"method": "rhf"
			},
			{
				"type": "occ",
				"energy": -0.2573,
				"method": "rhf"
			},
			{
				"type": "occ",
				"energy": -0.23876,
				"method": "rhf"
			},
			{
				"type": "occ",
				"energy": -0.22207,
				"method": "rhf"
			},
			{
				"type": "unocc",
				"energy": 0.00072,
				"method": "rhf"
			},
			{
				"type": "unocc",
				"energy": 0.00677,
				"method": "rhf"
			},
			{
				"type": "unocc",
				"energy": 0.04996,
				"method": "rhf"
			},
			{
				"type": "unocc",
				"energy": 0.06839,
				"method": "rhf"
			},
			{
				"type": "unocc",
				"energy": 0.09665,
				"method": "rhf"
			}
		],
		"cosmo_sigma_profile": { 
			"-0.025": 0.0,
			"-0.024": 0.0,
			"-0.023": 0.0,
			"-0.022": 0.0,
			"-0.021": 0.0,
			"-0.02": 0.0,
			"-0.019": 0.0,
			"-0.018": 0.0,
			"-0.017": 0.0,
			"-0.016": 0.0,
			"-0.015": 0.166739702239,
			"-0.014": 2.81633303288,
			"-0.013": 4.50624767345,
			"-0.012": 2.89216543131,
			"-0.011": 2.73717098943,
			"-0.01": 3.49319823719,
			"-0.009": 3.59105524391,
			"-0.008": 3.28794488597,
			"-0.007": 3.0412863006,
			"-0.006": 4.89424081637,
			"-0.005": 9.46170980951,
			"-0.004": 11.4419312448,
			"-0.003": 14.078092007,
			"-0.002": 10.9784651543,
			"-0.001": 12.883929936,
			"0.0": 13.5045306236,
			"0.001": 14.1341281653,
			"0.002": 11.2488887244,
			"0.003": 9.80364295494,
			"0.004": 10.1880659567,
			"0.005": 10.0244166022,
			"0.006": 10.8293138352,
			"0.007": 4.1253208269,
			"0.008": 2.89685264266,
			"0.009": 1.94692288748,
			"0.01": 1.77984968372,
			"0.011": 2.63051966073,
			"0.012": 2.40078891442,
			"0.013": 3.04248124478,
			"0.014": 4.37807666417,
			"0.015": 0.639737984868,
			"0.016": 0.0,
			"0.017": 0.0,
			"0.018": 0.0,
			"0.019": 0.0,
			"0.02": 0.0,
			"0.021": 0.0,
			"0.022": 0.0,
			"0.023": 0.0,
			"0.024": 0.0,
			"0.025": 0.0
		}
	}
}
