{
	 "smiles": "CCC1CCC2(CC1)NC(=O)N(CC(O)=O)C2=O", 
	 "Tm": 488.15, 
	 "num_atms": 36, 
	 "gaussian": { 
		 "optdone": 1, 
		 "sigma_profile": "yes", 
		 "theory": "DFT", 
		 "functional": "B3LYP", 
		 "basiset": "6-31G**", 
		 "properties": { 
			 "R2extent": 5750.7965, 
			 "electric_dipole_moment_norm": 1.48072728414, 
			 "electric_quadrupole_moment_norm": 15.8672309717, 
			 "total_energy": -878.603447974, 
			 "HOMO_LUMO_gap": 0.25005, 
			 "cosmo_polarized_energy": -18.54, 
			 "cosmo_cavitation_energy": 37.21, 
			 "cosmo_dispersion_energy": -25.88, 
			 "cosmo_repulsion_energy": 2.01, 
			 "cosmo_total_nonelectrostatic_energy": 13.34, 
			 "SMD_solvation_energy": 7.44 
		},
		"coords": [
			{
				"x": 1.8850881701,
				"y": -4.2789934537,
				"z": -0.0751410721,
				"element": "C" 
			},
			{
				"x": 0.6790562596,
				"y": -3.3450911953,
				"z": 0.0816361584,
				"element": "C" 
			},
			{
				"x": 0.7234373246,
				"y": -2.0889337344,
				"z": -0.8158724024,
				"element": "C" 
			},
			{
				"x": -0.6105313835,
				"y": -1.3114996901,
				"z": -0.8033883619,
				"element": "C" 
			},
			{
				"x": -0.8578489187,
				"y": -0.558597618,
				"z": 0.5139678469,
				"element": "C" 
			},
			{
				"x": 0.3100818147,
				"y": 0.3868907358,
				"z": 0.8952783442,
				"element": "C" 
			},
			{
				"x": 1.6608900339,
				"y": -0.3605422518,
				"z": 0.839430431,
				"element": "C" 
			},
			{
				"x": 1.8758436593,
				"y": -1.115711732,
				"z": -0.4827768694,
				"element": "C" 
			},
			{
				"x": 0.0911711899,
				"y": 1.0005782635,
				"z": 2.2091344487,
				"element": "N" 
			},
			{
				"x": -0.2236809649,
				"y": 2.3306658989,
				"z": 2.1493347345,
				"element": "C" 
			},
			{
				"x": -0.5873674426,
				"y": 3.0763791592,
				"z": 3.0368044618,
				"element": "O" 
			},
			{
				"x": -0.0062176197,
				"y": 2.7137934548,
				"z": 0.8044485939,
				"element": "N" 
			},
			{
				"x": -0.3600822348,
				"y": 4.0159645976,
				"z": 0.3088694329,
				"element": "C" 
			},
			{
				"x": -1.8156302459,
				"y": 4.0529188039,
				"z": -0.1470019685,
				"element": "C" 
			},
			{
				"x": -2.1329906458,
				"y": 5.2786989861,
				"z": -0.6123664432,
				"element": "O" 
			},
			{
				"x": -2.5885608832,
				"y": 3.1253306495,
				"z": -0.1043723422,
				"element": "O" 
			},
			{
				"x": 0.2923855896,
				"y": 1.6360741243,
				"z": -0.0063986903,
				"element": "C" 
			},
			{
				"x": 0.4893429379,
				"y": 1.6952604061,
				"z": -1.2064857006,
				"element": "O" 
			},
			{
				"x": 2.8191237758,
				"y": -3.8032899525,
				"z": 0.2411179196,
				"element": "H" 
			},
			{
				"x": 2.0100079017,
				"y": -4.5899245154,
				"z": -1.1188008612,
				"element": "H" 
			},
			{
				"x": 1.760873041,
				"y": -5.1844575508,
				"z": 0.5278187896,
				"element": "H" 
			},
			{
				"x": 0.5789895743,
				"y": -3.0633838164,
				"z": 1.1379245759,
				"element": "H" 
			},
			{
				"x": -0.2340368697,
				"y": -3.9040921891,
				"z": -0.1630268855,
				"element": "H" 
			},
			{
				"x": 0.8831102618,
				"y": -2.4438450045,
				"z": -1.8439680327,
				"element": "H" 
			},
			{
				"x": -1.448864342,
				"y": -1.9952061037,
				"z": -0.9848804996,
				"element": "H" 
			},
			{
				"x": -0.6064814411,
				"y": -0.5865850814,
				"z": -1.6236931525,
				"element": "H" 
			},
			{
				"x": -1.7845610843,
				"y": 0.0235261633,
				"z": 0.458434052,
				"element": "H" 
			},
			{
				"x": -0.979640661,
				"y": -1.2710851981,
				"z": 1.340916932,
				"element": "H" 
			},
			{
				"x": 1.6775239201,
				"y": -1.0601753913,
				"z": 1.6852631134,
				"element": "H" 
			},
			{
				"x": 2.4752861069,
				"y": 0.3513225098,
				"z": 1.0144665867,
				"element": "H" 
			},
			{
				"x": 2.833233619,
				"y": -1.6464194866,
				"z": -0.4382881656,
				"element": "H" 
			},
			{
				"x": 1.958403138,
				"y": -0.3842716522,
				"z": -1.2928403263,
				"element": "H" 
			},
			{
				"x": -0.1828524889,
				"y": 0.4691475599,
				"z": 3.0220085368,
				"element": "H" 
			},
			{
				"x": 0.2840359222,
				"y": 4.2748366933,
				"z": -0.5355239562,
				"element": "H" 
			},
			{
				"x": -0.217242044,
				"y": 4.7504539524,
				"z": 1.1053871109,
				"element": "H" 
			},
			{
				"x": -3.0654949703,
				"y": 5.240963659,
				"z": -0.8840163392,
				"element": "H" 
			}
		],
		 "valence_orbital": [ 
			{
				"type": "occ",
				"energy": -0.29401,
				"method": "rhf"
			},
			{
				"type": "occ",
				"energy": -0.28555,
				"method": "rhf"
			},
			{
				"type": "occ",
				"energy": -0.27586,
				"method": "rhf"
			},
			{
				"type": "occ",
				"energy": -0.26124,
				"method": "rhf"
			},
			{
				"type": "occ",
				"energy": -0.25827,
				"method": "rhf"
			},
			{
				"type": "unocc",
				"energy": -0.00822,
				"method": "rhf"
			},
			{
				"type": "unocc",
				"energy": 0.00145,
				"method": "rhf"
			},
			{
				"type": "unocc",
				"energy": 0.05219,
				"method": "rhf"
			},
			{
				"type": "unocc",
				"energy": 0.06536,
				"method": "rhf"
			},
			{
				"type": "unocc",
				"energy": 0.07333,
				"method": "rhf"
			}
		],
		"cosmo_sigma_profile": { 
			"-0.025": 0.0,
			"-0.024": 0.0,
			"-0.023": 0.0,
			"-0.022": 0.0,
			"-0.021": 0.0,
			"-0.02": 0.000911102939625,
			"-0.019": 0.591901335173,
			"-0.018": 0.806630563665,
			"-0.017": 1.20318437282,
			"-0.016": 0.744245709697,
			"-0.015": 1.29730209768,
			"-0.014": 1.94375096503,
			"-0.013": 1.61522072805,
			"-0.012": 1.99778621876,
			"-0.011": 2.37399773252,
			"-0.01": 1.67095341347,
			"-0.009": 2.66527251877,
			"-0.008": 4.97295752065,
			"-0.007": 5.65731488838,
			"-0.006": 6.72905121324,
			"-0.005": 8.69340687622,
			"-0.004": 11.767990345,
			"-0.003": 20.2765487502,
			"-0.002": 33.9249636903,
			"-0.001": 36.4045591198,
			"0.0": 35.2495979662,
			"0.001": 26.0967128103,
			"0.002": 13.1550266868,
			"0.003": 7.27231920436,
			"0.004": 8.02529583206,
			"0.005": 7.11271064745,
			"0.006": 5.29619145789,
			"0.007": 6.47780519783,
			"0.008": 5.78387526574,
			"0.009": 4.78884060715,
			"0.01": 6.1567264747,
			"0.011": 7.19593903676,
			"0.012": 7.46503886536,
			"0.013": 3.7372824275,
			"0.014": 0.381595204499,
			"0.015": 0.0,
			"0.016": 0.0,
			"0.017": 0.0,
			"0.018": 0.0,
			"0.019": 0.0,
			"0.02": 0.0,
			"0.021": 0.0,
			"0.022": 0.0,
			"0.023": 0.0,
			"0.024": 0.0,
			"0.025": 0.0
		}
	}
}
