{
	 "smiles": "CC(C)OC(=O)C1(CC1)S(=O)(=O)C1=CC=C(Cl)C=C1", 
	 "Tm": 362.95, 
	 "num_atms": 34, 
	 "gaussian": { 
		 "optdone": 1, 
		 "sigma_profile": "yes", 
		 "theory": "DFT", 
		 "functional": "B3LYP", 
		 "basiset": "6-31G**", 
		 "properties": { 
			 "R2extent": 6952.0062, 
			 "electric_dipole_moment_norm": 3.49413050987, 
			 "electric_quadrupole_moment_norm": 19.6400536244, 
			 "total_energy": -1663.62556418, 
			 "HOMO_LUMO_gap": 0.21639, 
			 "cosmo_polarized_energy": -15.13, 
			 "cosmo_cavitation_energy": 40.62, 
			 "cosmo_dispersion_energy": -27.01, 
			 "cosmo_repulsion_energy": 2.03, 
			 "cosmo_total_nonelectrostatic_energy": 15.65, 
			 "SMD_solvation_energy": 6.68 
		},
		"coords": [
			{
				"x": -0.656287371,
				"y": -2.3554943986,
				"z": -1.3464194082,
				"element": "C" 
			},
			{
				"x": 0.359681125,
				"y": -1.6375714242,
				"z": -2.2268504507,
				"element": "C" 
			},
			{
				"x": -0.1921150499,
				"y": -1.1957011879,
				"z": -3.57383009,
				"element": "C" 
			},
			{
				"x": 0.8014162195,
				"y": -0.4132773284,
				"z": -1.5512418754,
				"element": "O" 
			},
			{
				"x": 1.8078133987,
				"y": -0.5276772929,
				"z": -0.6767089307,
				"element": "C" 
			},
			{
				"x": 2.3522308532,
				"y": -1.5728431787,
				"z": -0.3777682394,
				"element": "O" 
			},
			{
				"x": 2.2142190202,
				"y": 0.7820733113,
				"z": -0.0615306198,
				"element": "C" 
			},
			{
				"x": 2.6473404959,
				"y": 0.719823362,
				"z": 1.4011556723,
				"element": "C" 
			},
			{
				"x": 3.6830665959,
				"y": 0.883464933,
				"z": 0.3476297826,
				"element": "C" 
			},
			{
				"x": 1.5034700104,
				"y": 2.3501952339,
				"z": -0.6482217641,
				"element": "S" 
			},
			{
				"x": 2.1111134562,
				"y": 3.3878044417,
				"z": 0.2059428141,
				"element": "O" 
			},
			{
				"x": 1.6279609436,
				"y": 2.4147784421,
				"z": -2.1100062523,
				"element": "O" 
			},
			{
				"x": -0.2482881921,
				"y": 2.2999718786,
				"z": -0.2361107761,
				"element": "C" 
			},
			{
				"x": -1.1775147204,
				"y": 2.0063925084,
				"z": -1.2345009137,
				"element": "C" 
			},
			{
				"x": -2.537144267,
				"y": 2.0091689653,
				"z": -0.9282322339,
				"element": "C" 
			},
			{
				"x": -2.9405451329,
				"y": 2.3048764973,
				"z": 0.3753971322,
				"element": "C" 
			},
			{
				"x": -4.6498510741,
				"y": 2.3013375136,
				"z": 0.7646173371,
				"element": "Cl" 
			},
			{
				"x": -2.0148576918,
				"y": 2.6150788658,
				"z": 1.3734283245,
				"element": "C" 
			},
			{
				"x": -0.6567529346,
				"y": 2.6200047622,
				"z": 1.0604856565,
				"element": "C" 
			},
			{
				"x": -1.515035656,
				"y": -1.7082459537,
				"z": -1.141865062,
				"element": "H" 
			},
			{
				"x": -0.2019452814,
				"y": -2.6547825276,
				"z": -0.3990680283,
				"element": "H" 
			},
			{
				"x": -1.0168201405,
				"y": -3.2570007202,
				"z": -1.8520821008,
				"element": "H" 
			},
			{
				"x": 1.2454057016,
				"y": -2.2644996054,
				"z": -2.3583661933,
				"element": "H" 
			},
			{
				"x": -0.4749073246,
				"y": -2.0729039906,
				"z": -4.1638229268,
				"element": "H" 
			},
			{
				"x": -1.0812812102,
				"y": -0.5698628049,
				"z": -3.4475653181,
				"element": "H" 
			},
			{
				"x": 0.5559794531,
				"y": -0.627043141,
				"z": -4.1320470911,
				"element": "H" 
			},
			{
				"x": 2.4181704373,
				"y": 1.5865196537,
				"z": 2.010674271,
				"element": "H" 
			},
			{
				"x": 2.5311872372,
				"y": -0.2512790242,
				"z": 1.8698848625,
				"element": "H" 
			},
			{
				"x": 4.2852192098,
				"y": 0.0251291946,
				"z": 0.0723879716,
				"element": "H" 
			},
			{
				"x": 4.1427684033,
				"y": 1.8597155699,
				"z": 0.2432620841,
				"element": "H" 
			},
			{
				"x": -0.8312879828,
				"y": 1.7929643757,
				"z": -2.2385697502,
				"element": "H" 
			},
			{
				"x": -3.2777215705,
				"y": 1.791719106,
				"z": -1.68964745,
				"element": "H" 
			},
			{
				"x": -2.3543121018,
				"y": 2.8605853159,
				"z": 2.3732681125,
				"element": "H" 
			},
			{
				"x": 0.0761251408,
				"y": 2.8952786474,
				"z": 1.8104214539,
				"element": "H" 
			}
		],
		 "valence_orbital": [ 
			{
				"type": "occ",
				"energy": -0.30679,
				"method": "rhf"
			},
			{
				"type": "occ",
				"energy": -0.29399,
				"method": "rhf"
			},
			{
				"type": "occ",
				"energy": -0.28368,
				"method": "rhf"
			},
			{
				"type": "occ",
				"energy": -0.28051,
				"method": "rhf"
			},
			{
				"type": "occ",
				"energy": -0.26776,
				"method": "rhf"
			},
			{
				"type": "unocc",
				"energy": -0.05137,
				"method": "rhf"
			},
			{
				"type": "unocc",
				"energy": -0.03356,
				"method": "rhf"
			},
			{
				"type": "unocc",
				"energy": -0.00607,
				"method": "rhf"
			},
			{
				"type": "unocc",
				"energy": 0.01386,
				"method": "rhf"
			},
			{
				"type": "unocc",
				"energy": 0.04855,
				"method": "rhf"
			}
		],
		"cosmo_sigma_profile": { 
			"-0.025": 0.0,
			"-0.024": 0.0,
			"-0.023": 0.0,
			"-0.022": 0.0,
			"-0.021": 0.0,
			"-0.02": 0.0,
			"-0.019": 0.0,
			"-0.018": 0.0,
			"-0.017": 0.0,
			"-0.016": 0.0,
			"-0.015": 0.0,
			"-0.014": 0.0,
			"-0.013": 0.0,
			"-0.012": 0.0,
			"-0.011": 0.0,
			"-0.01": 0.0,
			"-0.009": 0.525829758588,
			"-0.008": 4.89826078226,
			"-0.007": 10.3970813949,
			"-0.006": 11.9086663616,
			"-0.005": 16.8947778759,
			"-0.004": 27.1317062513,
			"-0.003": 33.4860991375,
			"-0.002": 31.3375483718,
			"-0.001": 32.7722105385,
			"0.0": 36.2781171868,
			"0.001": 30.0263104191,
			"0.002": 15.4526116414,
			"0.003": 12.5514410706,
			"0.004": 14.1033265995,
			"0.005": 4.46702153384,
			"0.006": 3.89814226055,
			"0.007": 4.70615541335,
			"0.008": 4.71282296869,
			"0.009": 5.86179618984,
			"0.01": 8.05582745824,
			"0.011": 11.2445353035,
			"0.012": 3.96725602803,
			"0.013": 0.0,
			"0.014": 0.0,
			"0.015": 0.0,
			"0.016": 0.0,
			"0.017": 0.0,
			"0.018": 0.0,
			"0.019": 0.0,
			"0.02": 0.0,
			"0.021": 0.0,
			"0.022": 0.0,
			"0.023": 0.0,
			"0.024": 0.0,
			"0.025": 0.0
		}
	}
}
