{
	 "smiles": "ON=CC1=C(CCC1)C#CC1=CC=CC=C1", 
	 "Tm": 378.15, 
	 "num_atms": 29, 
	 "gaussian": { 
		 "optdone": 1, 
		 "sigma_profile": "yes", 
		 "theory": "DFT", 
		 "functional": "B3LYP", 
		 "basiset": "6-31G**", 
		 "properties": { 
			 "R2extent": 5689.1655, 
			 "electric_dipole_moment_norm": 0.580869787474, 
			 "electric_quadrupole_moment_norm": 12.4536581887, 
			 "total_energy": -671.183373972, 
			 "HOMO_LUMO_gap": 0.13934, 
			 "cosmo_polarized_energy": -9.4, 
			 "cosmo_cavitation_energy": 34.64, 
			 "cosmo_dispersion_energy": -24.6, 
			 "cosmo_repulsion_energy": 1.98, 
			 "cosmo_total_nonelectrostatic_energy": 12.03, 
			 "SMD_solvation_energy": 5.93 
		},
		"coords": [
			{
				"x": -2.8787430607,
				"y": -3.5297968103,
				"z": -0.6737440553,
				"element": "O" 
			},
			{
				"x": -3.175802156,
				"y": -2.1895704049,
				"z": -0.9441226953,
				"element": "N" 
			},
			{
				"x": -2.1647596556,
				"y": -1.4373635541,
				"z": -0.6759077354,
				"element": "C" 
			},
			{
				"x": -2.255707944,
				"y": -0.0119813404,
				"z": -0.8837834861,
				"element": "C" 
			},
			{
				"x": -1.2439042587,
				"y": 0.8765292902,
				"z": -0.660580598,
				"element": "C" 
			},
			{
				"x": -1.669397613,
				"y": 2.2908293231,
				"z": -1.028819474,
				"element": "C" 
			},
			{
				"x": -3.2074099085,
				"y": 2.1784142328,
				"z": -1.1511914022,
				"element": "C" 
			},
			{
				"x": -3.4857658148,
				"y": 0.6815230089,
				"z": -1.4263904413,
				"element": "C" 
			},
			{
				"x": 0.0538452234,
				"y": 0.5756207341,
				"z": -0.1976933089,
				"element": "C" 
			},
			{
				"x": 1.1853243858,
				"y": 0.3620917198,
				"z": 0.2032864406,
				"element": "C" 
			},
			{
				"x": 2.5035455695,
				"y": 0.1002650414,
				"z": 0.6713454799,
				"element": "C" 
			},
			{
				"x": 3.42783361,
				"y": 1.1529246307,
				"z": 0.8365967535,
				"element": "C" 
			},
			{
				"x": 4.7163380773,
				"y": 0.8928169547,
				"z": 1.2941705423,
				"element": "C" 
			},
			{
				"x": 5.1076200132,
				"y": -0.4145206866,
				"z": 1.5953158513,
				"element": "C" 
			},
			{
				"x": 4.1999704409,
				"y": -1.4650060215,
				"z": 1.4355269829,
				"element": "C" 
			},
			{
				"x": 2.9093667789,
				"y": -1.2154259667,
				"z": 0.9779682282,
				"element": "C" 
			},
			{
				"x": -3.7010763856,
				"y": -3.9784809713,
				"z": -0.911790113,
				"element": "H" 
			},
			{
				"x": -1.2352071499,
				"y": -1.862133993,
				"z": -0.2919090027,
				"element": "H" 
			},
			{
				"x": -1.3489312869,
				"y": 3.026891825,
				"z": -0.2840354713,
				"element": "H" 
			},
			{
				"x": -1.2003907556,
				"y": 2.5816988025,
				"z": -1.9794350143,
				"element": "H" 
			},
			{
				"x": -3.6184233567,
				"y": 2.8354417192,
				"z": -1.922629398,
				"element": "H" 
			},
			{
				"x": -3.6678251806,
				"y": 2.4648456299,
				"z": -0.1996193964,
				"element": "H" 
			},
			{
				"x": -3.586915552,
				"y": 0.4719739424,
				"z": -2.5006891629,
				"element": "H" 
			},
			{
				"x": -4.4055070546,
				"y": 0.3188702079,
				"z": -0.9571510493,
				"element": "H" 
			},
			{
				"x": 3.1204116824,
				"y": 2.1669529191,
				"z": 0.6020973652,
				"element": "H" 
			},
			{
				"x": 5.418309029,
				"y": 1.712600063,
				"z": 1.4167881622,
				"element": "H" 
			},
			{
				"x": 6.1138184053,
				"y": -0.6134884246,
				"z": 1.9523270403,
				"element": "H" 
			},
			{
				"x": 4.4994512908,
				"y": -2.4828185485,
				"z": 1.6682221558,
				"element": "H" 
			},
			{
				"x": 2.2023326265,
				"y": -2.0291033229,
				"z": 0.8524468022,
				"element": "H" 
			}
		],
		 "valence_orbital": [ 
			{
				"type": "occ",
				"energy": -0.27699,
				"method": "rhf"
			},
			{
				"type": "occ",
				"energy": -0.26209,
				"method": "rhf"
			},
			{
				"type": "occ",
				"energy": -0.25615,
				"method": "rhf"
			},
			{
				"type": "occ",
				"energy": -0.25212,
				"method": "rhf"
			},
			{
				"type": "occ",
				"energy": -0.19933,
				"method": "rhf"
			},
			{
				"type": "unocc",
				"energy": -0.05999,
				"method": "rhf"
			},
			{
				"type": "unocc",
				"energy": -0.00634,
				"method": "rhf"
			},
			{
				"type": "unocc",
				"energy": -0.00466,
				"method": "rhf"
			},
			{
				"type": "unocc",
				"energy": 0.047,
				"method": "rhf"
			},
			{
				"type": "unocc",
				"energy": 0.06215,
				"method": "rhf"
			}
		],
		"cosmo_sigma_profile": { 
			"-0.025": 0.0,
			"-0.024": 0.0,
			"-0.023": 0.0,
			"-0.022": 0.0,
			"-0.021": 0.0,
			"-0.02": 0.0,
			"-0.019": 0.0,
			"-0.018": 0.136446014649,
			"-0.017": 0.921317203355,
			"-0.016": 1.18417852134,
			"-0.015": 0.5921479979,
			"-0.014": 1.09170860863,
			"-0.013": 0.510094007846,
			"-0.012": 0.670757172123,
			"-0.011": 0.630619814781,
			"-0.01": 0.457143121903,
			"-0.009": 0.842573529896,
			"-0.008": 0.86456404792,
			"-0.007": 1.41102038971,
			"-0.006": 9.75629347434,
			"-0.005": 13.5761197665,
			"-0.004": 20.4049704396,
			"-0.003": 23.7289654851,
			"-0.002": 27.9647844719,
			"-0.001": 23.8402019934,
			"0.0": 25.6726885362,
			"0.001": 20.2478920842,
			"0.002": 19.139682665,
			"0.003": 22.2706983293,
			"0.004": 22.7844774802,
			"0.005": 17.159210225,
			"0.006": 5.69083937014,
			"0.007": 2.70485819015,
			"0.008": 3.60745363271,
			"0.009": 2.45585603871,
			"0.01": 3.49599743353,
			"0.011": 1.5302056171,
			"0.012": 0.792176088493,
			"0.013": 0.170187244455,
			"0.014": 0.0,
			"0.015": 0.0,
			"0.016": 0.0,
			"0.017": 0.0,
			"0.018": 0.0,
			"0.019": 0.0,
			"0.02": 0.0,
			"0.021": 0.0,
			"0.022": 0.0,
			"0.023": 0.0,
			"0.024": 0.0,
			"0.025": 0.0
		}
	}
}
