{
	 "smiles": "NS(=O)(=O)C1=CC(=CS1)S(=O)(=O)C1=CC=C(O)C=C1", 
	 "Tm": 466.15, 
	 "num_atms": 28, 
	 "gaussian": { 
		 "optdone": 1, 
		 "sigma_profile": "yes", 
		 "theory": "DFT", 
		 "functional": "B3LYP", 
		 "basiset": "6-31G**", 
		 "properties": { 
			 "R2extent": 8299.9072, 
			 "electric_dipole_moment_norm": 1.60528817039, 
			 "electric_quadrupole_moment_norm": 46.7354297368, 
			 "total_energy": -2011.75310379, 
			 "HOMO_LUMO_gap": 0.18173, 
			 "cosmo_polarized_energy": -30.8, 
			 "cosmo_cavitation_energy": 38.32, 
			 "cosmo_dispersion_energy": -28.21, 
			 "cosmo_repulsion_energy": 2.07, 
			 "cosmo_total_nonelectrostatic_energy": 12.17, 
			 "SMD_solvation_energy": 5.79 
		},
		"coords": [
			{
				"x": 0.0669440506,
				"y": 4.7106715839,
				"z": -1.7763761491,
				"element": "N" 
			},
			{
				"x": -1.0348584146,
				"y": 4.0662795145,
				"z": -0.6963317497,
				"element": "S" 
			},
			{
				"x": -0.4270036827,
				"y": 4.1936580431,
				"z": 0.6235695784,
				"element": "O" 
			},
			{
				"x": -2.3281703208,
				"y": 4.6381247984,
				"z": -1.0581284475,
				"element": "O" 
			},
			{
				"x": -1.1401222152,
				"y": 2.3178655869,
				"z": -1.0290181966,
				"element": "C" 
			},
			{
				"x": -0.3970126648,
				"y": 1.3414892294,
				"z": -0.4228322377,
				"element": "C" 
			},
			{
				"x": -0.7081395276,
				"y": 0.0531789391,
				"z": -0.9478859956,
				"element": "C" 
			},
			{
				"x": -1.6635784276,
				"y": 0.0743998916,
				"z": -1.930256028,
				"element": "C" 
			},
			{
				"x": -2.2305023944,
				"y": 1.675826395,
				"z": -2.2319024,
				"element": "S" 
			},
			{
				"x": 0.0904107995,
				"y": -1.4645661955,
				"z": -0.4246348379,
				"element": "S" 
			},
			{
				"x": 1.5028337508,
				"y": -1.1331837922,
				"z": -0.1829622807,
				"element": "O" 
			},
			{
				"x": -0.3167964806,
				"y": -2.495683672,
				"z": -1.3914211422,
				"element": "O" 
			},
			{
				"x": -0.6550762745,
				"y": -1.8530850836,
				"z": 1.1525786723,
				"element": "C" 
			},
			{
				"x": -1.844899208,
				"y": -2.5897659224,
				"z": 1.1943514364,
				"element": "C" 
			},
			{
				"x": -2.4246175012,
				"y": -2.8888544009,
				"z": 2.4193601328,
				"element": "C" 
			},
			{
				"x": -1.8134207752,
				"y": -2.4523557783,
				"z": 3.6048195664,
				"element": "C" 
			},
			{
				"x": -2.429169541,
				"y": -2.773869568,
				"z": 4.7712365455,
				"element": "O" 
			},
			{
				"x": -0.6160271441,
				"y": -1.725125422,
				"z": 3.5569117633,
				"element": "C" 
			},
			{
				"x": -0.0351317872,
				"y": -1.4253953976,
				"z": 2.328374247,
				"element": "C" 
			},
			{
				"x": -0.2496994361,
				"y": 4.689624834,
				"z": -2.7401765688,
				"element": "H" 
			},
			{
				"x": 1.0124659555,
				"y": 4.3657944904,
				"z": -1.6464994199,
				"element": "H" 
			},
			{
				"x": 0.3317616912,
				"y": 1.5360160382,
				"z": 0.3535876964,
				"element": "H" 
			},
			{
				"x": -2.0495836434,
				"y": -0.7731139936,
				"z": -2.4798297753,
				"element": "H" 
			},
			{
				"x": -2.2959296525,
				"y": -2.938839712,
				"z": 0.2717614085,
				"element": "H" 
			},
			{
				"x": -3.3426620971,
				"y": -3.462503667,
				"z": 2.4844808727,
				"element": "H" 
			},
			{
				"x": -1.9213286517,
				"y": -2.4246961931,
				"z": 5.5157561649,
				"element": "H" 
			},
			{
				"x": -0.1377963568,
				"y": -1.4011081428,
				"z": 4.4782098554,
				"element": "H" 
			},
			{
				"x": 0.9028099496,
				"y": -0.8832824034,
				"z": 2.2777572888,
				"element": "H" 
			}
		],
		 "valence_orbital": [ 
			{
				"type": "occ",
				"energy": -0.29914,
				"method": "rhf"
			},
			{
				"type": "occ",
				"energy": -0.29239,
				"method": "rhf"
			},
			{
				"type": "occ",
				"energy": -0.28138,
				"method": "rhf"
			},
			{
				"type": "occ",
				"energy": -0.27526,
				"method": "rhf"
			},
			{
				"type": "occ",
				"energy": -0.25064,
				"method": "rhf"
			},
			{
				"type": "unocc",
				"energy": -0.06891,
				"method": "rhf"
			},
			{
				"type": "unocc",
				"energy": -0.03969,
				"method": "rhf"
			},
			{
				"type": "unocc",
				"energy": -0.02991,
				"method": "rhf"
			},
			{
				"type": "unocc",
				"energy": -0.0075,
				"method": "rhf"
			},
			{
				"type": "unocc",
				"energy": 0.00316,
				"method": "rhf"
			}
		],
		"cosmo_sigma_profile": { 
			"-0.025": 0.0,
			"-0.024": 0.0,
			"-0.023": 0.0,
			"-0.022": 0.0,
			"-0.021": 0.0,
			"-0.02": 0.0,
			"-0.019": 0.312504012532,
			"-0.018": 1.42598440379,
			"-0.017": 0.961544768272,
			"-0.016": 2.34545043834,
			"-0.015": 4.12889192489,
			"-0.014": 3.49250640276,
			"-0.013": 5.03654064715,
			"-0.012": 3.23685668831,
			"-0.011": 4.35110461978,
			"-0.01": 4.89150986191,
			"-0.009": 5.50230651787,
			"-0.008": 7.7542770182,
			"-0.007": 11.8889198154,
			"-0.006": 12.8872290539,
			"-0.005": 11.5198341765,
			"-0.004": 11.6767748802,
			"-0.003": 12.762204297,
			"-0.002": 13.8346897508,
			"-0.001": 22.486628395,
			"0.0": 23.2941800518,
			"0.001": 20.0798126129,
			"0.002": 21.4299093837,
			"0.003": 14.1980073151,
			"0.004": 7.68012676411,
			"0.005": 7.67311700111,
			"0.006": 8.39296641537,
			"0.007": 9.47919689098,
			"0.008": 6.8521886678,
			"0.009": 10.772677561,
			"0.01": 19.055690286,
			"0.011": 16.2376458054,
			"0.012": 3.83415331825,
			"0.013": 0.0,
			"0.014": 0.0,
			"0.015": 0.0,
			"0.016": 0.0,
			"0.017": 0.0,
			"0.018": 0.0,
			"0.019": 0.0,
			"0.02": 0.0,
			"0.021": 0.0,
			"0.022": 0.0,
			"0.023": 0.0,
			"0.024": 0.0,
			"0.025": 0.0
		}
	}
}
