{
	 "smiles": "CC1(C)CCCCC1CC(O)=O", 
	 "Tm": 315.15, 
	 "num_atms": 30, 
	 "gaussian": { 
		 "optdone": 1, 
		 "sigma_profile": "yes", 
		 "theory": "DFT", 
		 "functional": "B3LYP", 
		 "basiset": "6-31G**", 
		 "properties": { 
			 "R2extent": 2476.2052, 
			 "electric_dipole_moment_norm": 4.31643445682, 
			 "electric_quadrupole_moment_norm": 16.5091887605, 
			 "total_energy": -542.390695367, 
			 "HOMO_LUMO_gap": 0.27035, 
			 "cosmo_polarized_energy": -12.21, 
			 "cosmo_cavitation_energy": 28.54, 
			 "cosmo_dispersion_energy": -20.6, 
			 "cosmo_repulsion_energy": 1.6, 
			 "cosmo_total_nonelectrostatic_energy": 9.54, 
			 "SMD_solvation_energy": 5.06 
		},
		"coords": [
			{
				"x": -1.179663142,
				"y": -1.7841245973,
				"z": -1.2588071658,
				"element": "C" 
			},
			{
				"x": -0.2690305778,
				"y": -0.9157113929,
				"z": -0.3684406158,
				"element": "C" 
			},
			{
				"x": 1.0487479103,
				"y": -1.6864357811,
				"z": -0.1323111181,
				"element": "C" 
			},
			{
				"x": -0.9960170942,
				"y": -0.6884691044,
				"z": 0.986312291,
				"element": "C" 
			},
			{
				"x": -0.2752290687,
				"y": 0.2792562235,
				"z": 1.9354644508,
				"element": "C" 
			},
			{
				"x": -0.0256638078,
				"y": 1.6345565681,
				"z": 1.2612864153,
				"element": "C" 
			},
			{
				"x": 0.6962477171,
				"y": 1.4615728996,
				"z": -0.0832881793,
				"element": "C" 
			},
			{
				"x": -0.0605270925,
				"y": 0.4946195016,
				"z": -1.0190330864,
				"element": "C" 
			},
			{
				"x": 0.4911340592,
				"y": 0.5106512909,
				"z": -2.4739501822,
				"element": "C" 
			},
			{
				"x": 1.9247405244,
				"y": 0.0481695409,
				"z": -2.7039495143,
				"element": "C" 
			},
			{
				"x": 2.9055113816,
				"y": 0.8889638458,
				"z": -2.2689192707,
				"element": "O" 
			},
			{
				"x": 2.2272144083,
				"y": -0.9844124784,
				"z": -3.2509819073,
				"element": "O" 
			},
			{
				"x": -1.451420995,
				"y": -2.7076211099,
				"z": -0.7355387967,
				"element": "H" 
			},
			{
				"x": -2.1103186836,
				"y": -1.2619002797,
				"z": -1.5120650992,
				"element": "H" 
			},
			{
				"x": -0.683389562,
				"y": -2.0734941616,
				"z": -2.1900078719,
				"element": "H" 
			},
			{
				"x": 1.5280218269,
				"y": -1.9639764151,
				"z": -1.0732503727,
				"element": "H" 
			},
			{
				"x": 0.8377610874,
				"y": -2.6129541367,
				"z": 0.4138406601,
				"element": "H" 
			},
			{
				"x": 1.7751355295,
				"y": -1.1226461542,
				"z": 0.4597746599,
				"element": "H" 
			},
			{
				"x": -1.1393723682,
				"y": -1.6592631173,
				"z": 1.4772129244,
				"element": "H" 
			},
			{
				"x": -2.0027553504,
				"y": -0.2962142413,
				"z": 0.7806188448,
				"element": "H" 
			},
			{
				"x": -0.8694575085,
				"y": 0.4160614105,
				"z": 2.8468277163,
				"element": "H" 
			},
			{
				"x": 0.681494959,
				"y": -0.1521823363,
				"z": 2.2561315589,
				"element": "H" 
			},
			{
				"x": -0.9883943215,
				"y": 2.1349669979,
				"z": 1.0858527086,
				"element": "H" 
			},
			{
				"x": 0.5533549145,
				"y": 2.2930803115,
				"z": 1.9193854652,
				"element": "H" 
			},
			{
				"x": 0.7886737814,
				"y": 2.4435171032,
				"z": -0.5721573708,
				"element": "H" 
			},
			{
				"x": 1.7157533823,
				"y": 1.0987970538,
				"z": 0.0986750689,
				"element": "H" 
			},
			{
				"x": -1.0743951898,
				"y": 0.9104361038,
				"z": -1.1250123172,
				"element": "H" 
			},
			{
				"x": -0.1346775562,
				"y": -0.1087396839,
				"z": -3.1175104788,
				"element": "H" 
			},
			{
				"x": 0.407064971,
				"y": 1.5419893789,
				"z": -2.844648217,
				"element": "H" 
			},
			{
				"x": 2.5142558654,
				"y": 1.6775067602,
				"z": -1.8682111999,
				"element": "H" 
			}
		],
		 "valence_orbital": [ 
			{
				"type": "occ",
				"energy": -0.31744,
				"method": "rhf"
			},
			{
				"type": "occ",
				"energy": -0.31095,
				"method": "rhf"
			},
			{
				"type": "occ",
				"energy": -0.30013,
				"method": "rhf"
			},
			{
				"type": "occ",
				"energy": -0.294,
				"method": "rhf"
			},
			{
				"type": "occ",
				"energy": -0.26409,
				"method": "rhf"
			},
			{
				"type": "unocc",
				"energy": 0.00626,
				"method": "rhf"
			},
			{
				"type": "unocc",
				"energy": 0.05573,
				"method": "rhf"
			},
			{
				"type": "unocc",
				"energy": 0.08187,
				"method": "rhf"
			},
			{
				"type": "unocc",
				"energy": 0.09158,
				"method": "rhf"
			},
			{
				"type": "unocc",
				"energy": 0.10201,
				"method": "rhf"
			}
		],
		"cosmo_sigma_profile": { 
			"-0.025": 0.0,
			"-0.024": 0.0,
			"-0.023": 0.0,
			"-0.022": 0.0,
			"-0.021": 0.0,
			"-0.02": 0.0,
			"-0.019": 0.0,
			"-0.018": 0.0,
			"-0.017": 0.127446535086,
			"-0.016": 0.533048777597,
			"-0.015": 1.17965359301,
			"-0.014": 1.24925813611,
			"-0.013": 1.0600649177,
			"-0.012": 1.37719290038,
			"-0.011": 0.718389376701,
			"-0.01": 1.11710626268,
			"-0.009": 1.16760506105,
			"-0.008": 1.18340833313,
			"-0.007": 2.477328494,
			"-0.006": 3.31744283921,
			"-0.005": 3.34126575014,
			"-0.004": 6.59376203198,
			"-0.003": 18.6294175855,
			"-0.002": 39.1866201776,
			"-0.001": 30.0946643847,
			"0.0": 28.7751457964,
			"0.001": 28.6036362553,
			"0.002": 13.7076493876,
			"0.003": 2.68610634262,
			"0.004": 2.86314533619,
			"0.005": 1.99805205913,
			"0.006": 1.98027153731,
			"0.007": 2.23687932626,
			"0.008": 2.56613098523,
			"0.009": 2.88639996644,
			"0.01": 3.8630430158,
			"0.011": 5.03861550683,
			"0.012": 5.11890632508,
			"0.013": 3.09738407645,
			"0.014": 0.281218582848,
			"0.015": 0.0,
			"0.016": 0.0,
			"0.017": 0.0,
			"0.018": 0.0,
			"0.019": 0.0,
			"0.02": 0.0,
			"0.021": 0.0,
			"0.022": 0.0,
			"0.023": 0.0,
			"0.024": 0.0,
			"0.025": 0.0
		}
	}
}
