{
	 "smiles": "[O-][N+](=O)C1=CC=C(S)C=C1", 
	 "Tm": 348.65, 
	 "num_atms": 15, 
	 "gaussian": { 
		 "optdone": 1, 
		 "sigma_profile": "yes", 
		 "theory": "DFT", 
		 "functional": "B3LYP", 
		 "basiset": "6-31G**", 
		 "properties": { 
			 "R2extent": 2175.855, 
			 "electric_dipole_moment_norm": 4.36760922359, 
			 "electric_quadrupole_moment_norm": 13.4710894897, 
			 "total_energy": -834.934448354, 
			 "HOMO_LUMO_gap": 0.1579, 
			 "cosmo_polarized_energy": -10.4, 
			 "cosmo_cavitation_energy": 21.81, 
			 "cosmo_dispersion_energy": -16.73, 
			 "cosmo_repulsion_energy": 1.3, 
			 "cosmo_total_nonelectrostatic_energy": 6.38, 
			 "SMD_solvation_energy": 5.57 
		},
		"coords": [
			{
				"x": 1.8052831774,
				"y": 3.0627654518,
				"z": -1.8960571599,
				"element": "O" 
			},
			{
				"x": 2.2052747137,
				"y": 2.1544094412,
				"z": -1.1669379345,
				"element": "N" 
			},
			{
				"x": 3.3810292368,
				"y": 1.9809004418,
				"z": -0.8434985081,
				"element": "O" 
			},
			{
				"x": 1.2104865202,
				"y": 1.2119316458,
				"z": -0.6467278214,
				"element": "C" 
			},
			{
				"x": 1.6281224083,
				"y": 0.1724617306,
				"z": 0.1823020015,
				"element": "C" 
			},
			{
				"x": 0.6839626697,
				"y": -0.7209011738,
				"z": 0.6748784073,
				"element": "C" 
			},
			{
				"x": -0.6718460793,
				"y": -0.5742672734,
				"z": 0.3396745244,
				"element": "C" 
			},
			{
				"x": -1.9347368675,
				"y": -1.6763404573,
				"z": 0.9301042721,
				"element": "S" 
			},
			{
				"x": -1.0698631983,
				"y": 0.4818196511,
				"z": -0.498115472,
				"element": "C" 
			},
			{
				"x": -0.1303814015,
				"y": 1.3768098866,
				"z": -0.9931474601,
				"element": "C" 
			},
			{
				"x": 2.6784185944,
				"y": 0.0775788217,
				"z": 0.4284174465,
				"element": "H" 
			},
			{
				"x": 1.0050678081,
				"y": -1.5321578406,
				"z": 1.3205641999,
				"element": "H" 
			},
			{
				"x": -1.1282438484,
				"y": -2.4754329971,
				"z": 1.6539454672,
				"element": "H" 
			},
			{
				"x": -2.1160182491,
				"y": 0.6019245469,
				"z": -0.7617861558,
				"element": "H" 
			},
			{
				"x": -0.4160554846,
				"y": 2.1969981247,
				"z": -1.6398158071,
				"element": "H" 
			}
		],
		 "valence_orbital": [ 
			{
				"type": "occ",
				"energy": -0.30917,
				"method": "rhf"
			},
			{
				"type": "occ",
				"energy": -0.30711,
				"method": "rhf"
			},
			{
				"type": "occ",
				"energy": -0.29025,
				"method": "rhf"
			},
			{
				"type": "occ",
				"energy": -0.28591,
				"method": "rhf"
			},
			{
				"type": "occ",
				"energy": -0.24772,
				"method": "rhf"
			},
			{
				"type": "unocc",
				"energy": -0.08982,
				"method": "rhf"
			},
			{
				"type": "unocc",
				"energy": -0.03428,
				"method": "rhf"
			},
			{
				"type": "unocc",
				"energy": -0.00637,
				"method": "rhf"
			},
			{
				"type": "unocc",
				"energy": -0.00404,
				"method": "rhf"
			},
			{
				"type": "unocc",
				"energy": 0.05074,
				"method": "rhf"
			}
		],
		"cosmo_sigma_profile": { 
			"-0.025": 0.0,
			"-0.024": 0.0,
			"-0.023": 0.0,
			"-0.022": 0.0,
			"-0.021": 0.0,
			"-0.02": 0.0,
			"-0.019": 0.0,
			"-0.018": 0.0,
			"-0.017": 0.0,
			"-0.016": 0.0,
			"-0.015": 0.0,
			"-0.014": 0.0,
			"-0.013": 0.0,
			"-0.012": 1.18097144155,
			"-0.011": 3.41402720198,
			"-0.01": 2.25891214434,
			"-0.009": 2.17423859781,
			"-0.008": 6.04072832334,
			"-0.007": 7.99240947111,
			"-0.006": 9.5678209302,
			"-0.005": 8.23954288881,
			"-0.004": 7.39680020787,
			"-0.003": 8.08882333162,
			"-0.002": 9.98038631522,
			"-0.001": 12.330040759,
			"0.0": 12.8011596927,
			"0.001": 18.8250332654,
			"0.002": 16.3074938739,
			"0.003": 6.9921097838,
			"0.004": 5.87498665592,
			"0.005": 4.95342884873,
			"0.006": 6.81703085598,
			"0.007": 8.2121852064,
			"0.008": 9.70250321414,
			"0.009": 4.55275731462,
			"0.01": 3.58669423294,
			"0.011": 0.569191449626,
			"0.012": 0.0,
			"0.013": 0.0,
			"0.014": 0.0,
			"0.015": 0.0,
			"0.016": 0.0,
			"0.017": 0.0,
			"0.018": 0.0,
			"0.019": 0.0,
			"0.02": 0.0,
			"0.021": 0.0,
			"0.022": 0.0,
			"0.023": 0.0,
			"0.024": 0.0,
			"0.025": 0.0
		}
	}
}
