{
	 "smiles": "NC(=S)CS(=O)(=O)C1=CC=C(Cl)C=C1", 
	 "Tm": 463.15, 
	 "num_atms": 22, 
	 "gaussian": { 
		 "optdone": 1, 
		 "sigma_profile": "yes", 
		 "theory": "DFT", 
		 "functional": "B3LYP", 
		 "basiset": "6-31G**", 
		 "properties": { 
			 "R2extent": 5000.3549, 
			 "electric_dipole_moment_norm": 1.68203672671, 
			 "electric_quadrupole_moment_norm": 23.7301541889, 
			 "total_energy": -1771.38093752, 
			 "HOMO_LUMO_gap": 0.161, 
			 "cosmo_polarized_energy": -18.87, 
			 "cosmo_cavitation_energy": 31.43, 
			 "cosmo_dispersion_energy": -23.02, 
			 "cosmo_repulsion_energy": 1.75, 
			 "cosmo_total_nonelectrostatic_energy": 10.15, 
			 "SMD_solvation_energy": 3.32 
		},
		"coords": [
			{
				"x": -0.4599221684,
				"y": -0.0423819242,
				"z": 4.2553156818,
				"element": "N" 
			},
			{
				"x": 0.2236072404,
				"y": 0.7459728912,
				"z": 3.4095605798,
				"element": "C" 
			},
			{
				"x": 1.8814112532,
				"y": 0.8356006586,
				"z": 3.3474146605,
				"element": "S" 
			},
			{
				"x": -0.6345257268,
				"y": 1.6407078906,
				"z": 2.5301643923,
				"element": "C" 
			},
			{
				"x": -2.0080772761,
				"y": 0.8400053235,
				"z": 1.6089863471,
				"element": "S" 
			},
			{
				"x": -2.7506990813,
				"y": 0.0006502005,
				"z": 2.5760832167,
				"element": "O" 
			},
			{
				"x": -2.6857128165,
				"y": 1.9135675518,
				"z": 0.8702940166,
				"element": "O" 
			},
			{
				"x": -1.215604406,
				"y": -0.2462104784,
				"z": 0.4217901378,
				"element": "C" 
			},
			{
				"x": -0.8995501358,
				"y": 0.2552487177,
				"z": -0.8428527313,
				"element": "C" 
			},
			{
				"x": -0.2801524069,
				"y": -0.5780164603,
				"z": -1.7713221073,
				"element": "C" 
			},
			{
				"x": 0.0087237474,
				"y": -1.8976101686,
				"z": -1.4157837252,
				"element": "C" 
			},
			{
				"x": 0.7864937841,
				"y": -2.9457053487,
				"z": -2.5816639251,
				"element": "Cl" 
			},
			{
				"x": -0.3156319511,
				"y": -2.4028197315,
				"z": -0.1549624728,
				"element": "C" 
			},
			{
				"x": -0.9356883387,
				"y": -1.5683045036,
				"z": 0.7724654566,
				"element": "C" 
			},
			{
				"x": -1.4656508301,
				"y": -0.1519904648,
				"z": 4.1606182043,
				"element": "H" 
			},
			{
				"x": 0.0609544964,
				"y": -0.6536015877,
				"z": 4.8675849159,
				"element": "H" 
			},
			{
				"x": -1.1631946735,
				"y": 2.3832646874,
				"z": 3.139971777,
				"element": "H" 
			},
			{
				"x": -0.0182134269,
				"y": 2.1569007915,
				"z": 1.7960940975,
				"element": "H" 
			},
			{
				"x": -1.1540423066,
				"y": 1.2776191579,
				"z": -1.1005218248,
				"element": "H" 
			},
			{
				"x": -0.0286016472,
				"y": -0.213868168,
				"z": -2.7608074425,
				"element": "H" 
			},
			{
				"x": -0.0898303772,
				"y": -3.4337550256,
				"z": 0.0921521218,
				"element": "H" 
			},
			{
				"x": -1.2136929523,
				"y": -1.9430740091,
				"z": 1.7508186233,
				"element": "H" 
			}
		],
		 "valence_orbital": [ 
			{
				"type": "occ",
				"energy": -0.30912,
				"method": "rhf"
			},
			{
				"type": "occ",
				"energy": -0.29285,
				"method": "rhf"
			},
			{
				"type": "occ",
				"energy": -0.27779,
				"method": "rhf"
			},
			{
				"type": "occ",
				"energy": -0.24697,
				"method": "rhf"
			},
			{
				"type": "occ",
				"energy": -0.22377,
				"method": "rhf"
			},
			{
				"type": "unocc",
				"energy": -0.06277,
				"method": "rhf"
			},
			{
				"type": "unocc",
				"energy": -0.05562,
				"method": "rhf"
			},
			{
				"type": "unocc",
				"energy": -0.04206,
				"method": "rhf"
			},
			{
				"type": "unocc",
				"energy": 0.00961,
				"method": "rhf"
			},
			{
				"type": "unocc",
				"energy": 0.05059,
				"method": "rhf"
			}
		],
		"cosmo_sigma_profile": { 
			"-0.025": 0.0,
			"-0.024": 0.0,
			"-0.023": 0.0,
			"-0.022": 0.0,
			"-0.021": 0.0,
			"-0.02": 0.0,
			"-0.019": 0.0,
			"-0.018": 0.0,
			"-0.017": 0.0,
			"-0.016": 0.0813817690373,
			"-0.015": 1.29644832843,
			"-0.014": 1.10803495718,
			"-0.013": 1.51394518292,
			"-0.012": 2.49461571044,
			"-0.011": 3.07464847131,
			"-0.01": 4.22878012124,
			"-0.009": 7.90359537673,
			"-0.008": 11.351306641,
			"-0.007": 11.4513346654,
			"-0.006": 11.6271279168,
			"-0.005": 9.57512588617,
			"-0.004": 11.0270624863,
			"-0.003": 9.09316249944,
			"-0.002": 12.6811951101,
			"-0.001": 15.629697641,
			"0.0": 22.3443448879,
			"0.001": 22.0158782524,
			"0.002": 12.8002590655,
			"0.003": 14.1307786018,
			"0.004": 12.7130894227,
			"0.005": 5.12798444234,
			"0.006": 7.04998114902,
			"0.007": 7.94358137806,
			"0.008": 9.90620478772,
			"0.009": 8.34163145108,
			"0.01": 10.856790804,
			"0.011": 8.60737855487,
			"0.012": 0.843614873207,
			"0.013": 0.0,
			"0.014": 0.0,
			"0.015": 0.0,
			"0.016": 0.0,
			"0.017": 0.0,
			"0.018": 0.0,
			"0.019": 0.0,
			"0.02": 0.0,
			"0.021": 0.0,
			"0.022": 0.0,
			"0.023": 0.0,
			"0.024": 0.0,
			"0.025": 0.0
		}
	}
}
