{
	 "smiles": "CC1=CC(Br)=CC=C1C(O)=O", 
	 "Tm": 456.15, 
	 "num_atms": 18, 
	 "gaussian": { 
		 "optdone": 1, 
		 "sigma_profile": "yes", 
		 "theory": "DFT", 
		 "functional": "B3LYP", 
		 "basiset": "6-31G**", 
		 "properties": { 
			 "R2extent": 4925.9943, 
			 "electric_dipole_moment_norm": 3.60710731335, 
			 "electric_quadrupole_moment_norm": 14.4007514137, 
			 "total_energy": -3030.93315373, 
			 "HOMO_LUMO_gap": 0.19897, 
			 "cosmo_polarized_energy": -12.97, 
			 "cosmo_cavitation_energy": 24.43, 
			 "cosmo_dispersion_energy": -18.49, 
			 "cosmo_repulsion_energy": 1.47, 
			 "cosmo_total_nonelectrostatic_energy": 7.42, 
			 "SMD_solvation_energy": 4.11 
		},
		"coords": [
			{
				"x": 0.8308557971,
				"y": 0.6499251487,
				"z": 0.7155614344,
				"element": "C" 
			},
			{
				"x": -0.6360421203,
				"y": 0.7001376292,
				"z": 0.3333097359,
				"element": "C" 
			},
			{
				"x": -1.5799028494,
				"y": 0.4177890104,
				"z": 1.330255483,
				"element": "C" 
			},
			{
				"x": -2.9427690619,
				"y": 0.4229673174,
				"z": 1.0483128782,
				"element": "C" 
			},
			{
				"x": -4.1854225789,
				"y": 0.0486853751,
				"z": 2.446383405,
				"element": "Br" 
			},
			{
				"x": -3.4114362937,
				"y": 0.682382643,
				"z": -0.2381453905,
				"element": "C" 
			},
			{
				"x": -2.4822805504,
				"y": 0.9458420497,
				"z": -1.236689983,
				"element": "C" 
			},
			{
				"x": -1.1046715765,
				"y": 0.981975637,
				"z": -0.9702360843,
				"element": "C" 
			},
			{
				"x": -0.2379389253,
				"y": 1.2804443534,
				"z": -2.1635335385,
				"element": "C" 
			},
			{
				"x": 0.9432768604,
				"y": 1.9187119882,
				"z": -1.9459016821,
				"element": "O" 
			},
			{
				"x": -0.560596622,
				"y": 0.9970592784,
				"z": -3.2929271488,
				"element": "O" 
			},
			{
				"x": 1.230998175,
				"y": 1.6463821275,
				"z": 0.9541066768,
				"element": "H" 
			},
			{
				"x": 1.4537868101,
				"y": 0.2181539805,
				"z": -0.0712416062,
				"element": "H" 
			},
			{
				"x": 0.9647443206,
				"y": 0.04853359,
				"z": 1.6178170988,
				"element": "H" 
			},
			{
				"x": -1.2435017658,
				"y": 0.1831532052,
				"z": 2.3343305398,
				"element": "H" 
			},
			{
				"x": -4.4734600412,
				"y": 0.6701570045,
				"z": -0.452929735,
				"element": "H" 
			},
			{
				"x": -2.8088699117,
				"y": 1.1279604017,
				"z": -2.2547585815,
				"element": "H" 
			},
			{
				"x": 1.0090303339,
				"y": 2.2065392602,
				"z": -1.0259135021,
				"element": "H" 
			}
		],
		 "valence_orbital": [ 
			{
				"type": "occ",
				"energy": -0.31516,
				"method": "rhf"
			},
			{
				"type": "occ",
				"energy": -0.2989,
				"method": "rhf"
			},
			{
				"type": "occ",
				"energy": -0.28085,
				"method": "rhf"
			},
			{
				"type": "occ",
				"energy": -0.27275,
				"method": "rhf"
			},
			{
				"type": "occ",
				"energy": -0.25576,
				"method": "rhf"
			},
			{
				"type": "unocc",
				"energy": -0.05679,
				"method": "rhf"
			},
			{
				"type": "unocc",
				"energy": -0.02921,
				"method": "rhf"
			},
			{
				"type": "unocc",
				"energy": -0.00423,
				"method": "rhf"
			},
			{
				"type": "unocc",
				"energy": 0.03283,
				"method": "rhf"
			},
			{
				"type": "unocc",
				"energy": 0.05723,
				"method": "rhf"
			}
		],
		"cosmo_sigma_profile": { 
			"-0.025": 0.0,
			"-0.024": 0.0,
			"-0.023": 0.0,
			"-0.022": 0.0,
			"-0.021": 0.0,
			"-0.02": 0.0,
			"-0.019": 0.0,
			"-0.018": 0.0891564193725,
			"-0.017": 0.986291302064,
			"-0.016": 0.758698081325,
			"-0.015": 1.12178739602,
			"-0.014": 0.999613589192,
			"-0.013": 0.936839981573,
			"-0.012": 0.707114971958,
			"-0.011": 1.17443429917,
			"-0.01": 1.14020610719,
			"-0.009": 0.640605705339,
			"-0.008": 1.83640681097,
			"-0.007": 7.66376964867,
			"-0.006": 10.6585030494,
			"-0.005": 11.2316052882,
			"-0.004": 12.0890992085,
			"-0.003": 14.0324950166,
			"-0.002": 13.9250585514,
			"-0.001": 12.964353654,
			"0.0": 12.0484397149,
			"0.001": 16.9545749954,
			"0.002": 20.817449442,
			"0.003": 12.7775198984,
			"0.004": 12.5179903004,
			"0.005": 3.66316801645,
			"0.006": 2.42623696149,
			"0.007": 2.81481498927,
			"0.008": 2.60225102494,
			"0.009": 3.30974821847,
			"0.01": 4.70093786881,
			"0.011": 5.35992350883,
			"0.012": 4.46068382075,
			"0.013": 1.31070153799,
			"0.014": 0.0,
			"0.015": 0.0,
			"0.016": 0.0,
			"0.017": 0.0,
			"0.018": 0.0,
			"0.019": 0.0,
			"0.02": 0.0,
			"0.021": 0.0,
			"0.022": 0.0,
			"0.023": 0.0,
			"0.024": 0.0,
			"0.025": 0.0
		}
	}
}
