{
	 "smiles": "C1CNCCN1", 
	 "Tm": 381.15, 
	 "num_atms": 16, 
	 "gaussian": { 
		 "optdone": 1, 
		 "sigma_profile": "yes", 
		 "theory": "DFT", 
		 "functional": "B3LYP", 
		 "basiset": "6-31G**", 
		 "properties": { 
			 "R2extent": 707.4633, 
			 "electric_dipole_moment_norm": 1.65876417854, 
			 "electric_quadrupole_moment_norm": 2.1621993872, 
			 "total_energy": -267.929680248, 
			 "HOMO_LUMO_gap": 0.2852, 
			 "cosmo_polarized_energy": -5.8, 
			 "cosmo_cavitation_energy": 16.98, 
			 "cosmo_dispersion_energy": -13.46, 
			 "cosmo_repulsion_energy": 1.16, 
			 "cosmo_total_nonelectrostatic_energy": 4.67, 
			 "SMD_solvation_energy": -2.02 
		},
		"coords": [
			{
				"x": 0.1136515902,
				"y": 1.1135858142,
				"z": -0.8442843825,
				"element": "C" 
			},
			{
				"x": 0.3129790071,
				"y": 0.12266931,
				"z": 0.340530213,
				"element": "C" 
			},
			{
				"x": -0.557444371,
				"y": -1.0582478982,
				"z": 0.253867453,
				"element": "N" 
			},
			{
				"x": -0.6740376434,
				"y": -1.5102920604,
				"z": -1.1327594982,
				"element": "C" 
			},
			{
				"x": -1.2713419872,
				"y": -0.4255805007,
				"z": -2.0820846902,
				"element": "C" 
			},
			{
				"x": -1.2154498083,
				"y": 0.8737252301,
				"z": -1.4041982825,
				"element": "N" 
			},
			{
				"x": 0.1754487018,
				"y": 2.1499997604,
				"z": -0.4959164386,
				"element": "H" 
			},
			{
				"x": 0.9197985696,
				"y": 0.9778912225,
				"z": -1.5910986691,
				"element": "H" 
			},
			{
				"x": 1.3592934025,
				"y": -0.2083333193,
				"z": 0.372829707,
				"element": "H" 
			},
			{
				"x": 0.1035174748,
				"y": 0.6187041084,
				"z": 1.2934305033,
				"element": "H" 
			},
			{
				"x": -1.4843879282,
				"y": -0.7770037152,
				"z": 0.5645799626,
				"element": "H" 
			},
			{
				"x": -1.2820984449,
				"y": -2.4201739436,
				"z": -1.1639937575,
				"element": "H" 
			},
			{
				"x": 0.3299879408,
				"y": -1.793217693,
				"z": -1.4720059654,
				"element": "H" 
			},
			{
				"x": -0.719115408,
				"y": -0.43727686,
				"z": -3.0410972593,
				"element": "H" 
			},
			{
				"x": -2.3207567535,
				"y": -0.6467790582,
				"z": -2.3120090136,
				"element": "H" 
			},
			{
				"x": -1.4759443424,
				"y": 1.615129603,
				"z": -2.0466898819,
				"element": "H" 
			}
		],
		 "valence_orbital": [ 
			{
				"type": "occ",
				"energy": -0.36915,
				"method": "rhf"
			},
			{
				"type": "occ",
				"energy": -0.34218,
				"method": "rhf"
			},
			{
				"type": "occ",
				"energy": -0.32092,
				"method": "rhf"
			},
			{
				"type": "occ",
				"energy": -0.21923,
				"method": "rhf"
			},
			{
				"type": "occ",
				"energy": -0.21136,
				"method": "rhf"
			},
			{
				"type": "unocc",
				"energy": 0.07384,
				"method": "rhf"
			},
			{
				"type": "unocc",
				"energy": 0.11238,
				"method": "rhf"
			},
			{
				"type": "unocc",
				"energy": 0.12558,
				"method": "rhf"
			},
			{
				"type": "unocc",
				"energy": 0.13352,
				"method": "rhf"
			},
			{
				"type": "unocc",
				"energy": 0.13583,
				"method": "rhf"
			}
		],
		"cosmo_sigma_profile": { 
			"-0.025": 0.0,
			"-0.024": 0.0,
			"-0.023": 0.0,
			"-0.022": 0.0,
			"-0.021": 0.0,
			"-0.02": 0.0,
			"-0.019": 0.0,
			"-0.018": 0.0,
			"-0.017": 0.0,
			"-0.016": 0.0,
			"-0.015": 0.0,
			"-0.014": 0.0,
			"-0.013": 0.0,
			"-0.012": 0.0,
			"-0.011": 0.00722867820413,
			"-0.01": 0.753768405725,
			"-0.009": 1.73337501714,
			"-0.008": 1.9057492811,
			"-0.007": 1.75092463225,
			"-0.006": 2.22932296071,
			"-0.005": 2.49382391304,
			"-0.004": 5.92013145227,
			"-0.003": 16.6462396805,
			"-0.002": 22.0840619784,
			"-0.001": 26.4411012335,
			"0.0": 17.761444833,
			"0.001": 5.49614254907,
			"0.002": 2.47446723444,
			"0.003": 2.4039978846,
			"0.004": 2.96271313836,
			"0.005": 1.05804696698,
			"0.006": 1.99349111355,
			"0.007": 1.4120046015,
			"0.008": 1.29077628606,
			"0.009": 1.52055658051,
			"0.01": 1.6084683025,
			"0.011": 0.969621475506,
			"0.012": 0.745726920644,
			"0.013": 1.45798737783,
			"0.014": 1.38267058137,
			"0.015": 0.81836640477,
			"0.016": 1.14613867697,
			"0.017": 0.813624789669,
			"0.018": 0.667060111401,
			"0.019": 0.483440374402,
			"0.02": 0.00955725593788,
			"0.021": 0.0,
			"0.022": 0.0,
			"0.023": 0.0,
			"0.024": 0.0,
			"0.025": 0.0
		}
	}
}
