{
	 "smiles": "ClC1=CC(Cl)=C(N2N=C(SC2=N)C(=O)C2=CC=CS2)C(Cl)=C1", 
	 "Tm": 482.15, 
	 "num_atms": 28, 
	 "gaussian": { 
		 "optdone": 1, 
		 "sigma_profile": "yes", 
		 "theory": "DFT", 
		 "functional": "B3LYP", 
		 "basiset": "6-31G**", 
		 "properties": { 
			 "R2extent": 11518.5739, 
			 "electric_dipole_moment_norm": 6.11989534633, 
			 "electric_quadrupole_moment_norm": 21.6695884753, 
			 "total_energy": -2915.36161805, 
			 "HOMO_LUMO_gap": 0.13711, 
			 "cosmo_polarized_energy": -14.94, 
			 "cosmo_cavitation_energy": 43.34, 
			 "cosmo_dispersion_energy": -30.44, 
			 "cosmo_repulsion_energy": 2.25, 
			 "cosmo_total_nonelectrostatic_energy": 15.16, 
			 "SMD_solvation_energy": 5.59 
		},
		"coords": [
			{
				"x": -0.689631394,
				"y": 3.0943192806,
				"z": -4.3918121006,
				"element": "Cl" 
			},
			{
				"x": 0.0814725374,
				"y": 2.206913331,
				"z": -3.0991809192,
				"element": "C" 
			},
			{
				"x": 0.5054811346,
				"y": 2.8946176803,
				"z": -1.9635521207,
				"element": "C" 
			},
			{
				"x": 1.1193708549,
				"y": 2.1763307622,
				"z": -0.9392266695,
				"element": "C" 
			},
			{
				"x": 1.6438594462,
				"y": 3.0317036794,
				"z": 0.4845222992,
				"element": "Cl" 
			},
			{
				"x": 1.3159626355,
				"y": 0.7868998082,
				"z": -1.0309006244,
				"element": "C" 
			},
			{
				"x": 1.9407616517,
				"y": 0.0668605297,
				"z": 0.0182038934,
				"element": "N" 
			},
			{
				"x": 1.1681431079,
				"y": -0.44621053,
				"z": 1.0142814678,
				"element": "N" 
			},
			{
				"x": 1.8912762793,
				"y": -1.0692066018,
				"z": 1.8852152994,
				"element": "C" 
			},
			{
				"x": 3.6311250295,
				"y": -1.0955552387,
				"z": 1.5738821335,
				"element": "S" 
			},
			{
				"x": 3.3423690704,
				"y": -0.1492126176,
				"z": 0.0860812233,
				"element": "C" 
			},
			{
				"x": 4.2611758753,
				"y": 0.2205528715,
				"z": -0.7049768118,
				"element": "N" 
			},
			{
				"x": 1.3970573864,
				"y": -1.7573945419,
				"z": 3.1113626876,
				"element": "C" 
			},
			{
				"x": 2.2386005036,
				"y": -2.2989166783,
				"z": 3.8269179358,
				"element": "O" 
			},
			{
				"x": -0.0278221451,
				"y": -1.7835916389,
				"z": 3.4430788273,
				"element": "C" 
			},
			{
				"x": -1.1383018992,
				"y": -1.2591920943,
				"z": 2.8080229826,
				"element": "C" 
			},
			{
				"x": -2.3464915872,
				"y": -1.5308127807,
				"z": 3.4982959189,
				"element": "C" 
			},
			{
				"x": -2.1424039915,
				"y": -2.2567942628,
				"z": 4.6475027892,
				"element": "C" 
			},
			{
				"x": -0.4801450206,
				"y": -2.6234851283,
				"z": 4.9118861712,
				"element": "S" 
			},
			{
				"x": 0.8710229669,
				"y": 0.1331663796,
				"z": -2.1937576681,
				"element": "C" 
			},
			{
				"x": 1.0818155655,
				"y": -1.5885466738,
				"z": -2.3522412179,
				"element": "Cl" 
			},
			{
				"x": 0.2547396882,
				"y": 0.8303531216,
				"z": -3.2311500406,
				"element": "C" 
			},
			{
				"x": 0.3620766051,
				"y": 3.9638171763,
				"z": -1.8740521184,
				"element": "H" 
			},
			{
				"x": 3.9015376006,
				"y": 0.7512728289,
				"z": -1.4989634388,
				"element": "H" 
			},
			{
				"x": -1.070528255,
				"y": -0.7034498504,
				"z": 1.8828138128,
				"element": "H" 
			},
			{
				"x": -3.3231949879,
				"y": -1.2042840035,
				"z": 3.1607317591,
				"element": "H" 
			},
			{
				"x": -2.8877035073,
				"y": -2.5959593623,
				"z": 5.3546954532,
				"element": "H" 
			},
			{
				"x": -0.0819251514,
				"y": 0.309204554,
				"z": -4.1181809245,
				"element": "H" 
			}
		],
		 "valence_orbital": [ 
			{
				"type": "occ",
				"energy": -0.28053,
				"method": "rhf"
			},
			{
				"type": "occ",
				"energy": -0.27503,
				"method": "rhf"
			},
			{
				"type": "occ",
				"energy": -0.26742,
				"method": "rhf"
			},
			{
				"type": "occ",
				"energy": -0.25459,
				"method": "rhf"
			},
			{
				"type": "occ",
				"energy": -0.22962,
				"method": "rhf"
			},
			{
				"type": "unocc",
				"energy": -0.09251,
				"method": "rhf"
			},
			{
				"type": "unocc",
				"energy": -0.06624,
				"method": "rhf"
			},
			{
				"type": "unocc",
				"energy": -0.0579,
				"method": "rhf"
			},
			{
				"type": "unocc",
				"energy": -0.03271,
				"method": "rhf"
			},
			{
				"type": "unocc",
				"energy": -0.02667,
				"method": "rhf"
			}
		],
		"cosmo_sigma_profile": { 
			"-0.025": 0.0,
			"-0.024": 0.0,
			"-0.023": 0.0,
			"-0.022": 0.0,
			"-0.021": 0.0,
			"-0.02": 0.0,
			"-0.019": 0.0,
			"-0.018": 0.0,
			"-0.017": 0.0,
			"-0.016": 0.0,
			"-0.015": 0.0,
			"-0.014": 0.0,
			"-0.013": 0.0,
			"-0.012": 0.231178077463,
			"-0.011": 0.867765093102,
			"-0.01": 3.06157940539,
			"-0.009": 7.4468205228,
			"-0.008": 6.41529042329,
			"-0.007": 9.03970208216,
			"-0.006": 11.1359942594,
			"-0.005": 11.5115028335,
			"-0.004": 14.6444198074,
			"-0.003": 22.4975199971,
			"-0.002": 31.0375624777,
			"-0.001": 40.409384767,
			"0.0": 33.4137780464,
			"0.001": 41.1937733665,
			"0.002": 49.063770458,
			"0.003": 41.7027846667,
			"0.004": 7.90854155574,
			"0.005": 3.27072518385,
			"0.006": 2.74147066801,
			"0.007": 3.78468546445,
			"0.008": 3.35960487586,
			"0.009": 3.29088824221,
			"0.01": 4.64033270866,
			"0.011": 3.80737876647,
			"0.012": 1.14698786968,
			"0.013": 1.46295036988,
			"0.014": 1.06471181343,
			"0.015": 1.02635090442,
			"0.016": 0.898658200986,
			"0.017": 0.0286025054548,
			"0.018": 0.0,
			"0.019": 0.0,
			"0.02": 0.0,
			"0.021": 0.0,
			"0.022": 0.0,
			"0.023": 0.0,
			"0.024": 0.0,
			"0.025": 0.0
		}
	}
}
