{
	 "smiles": "CC1CC(C)S(=O)(=O)C1", 
	 "Tm": 270.15, 
	 "num_atms": 21, 
	 "gaussian": { 
		 "optdone": 1, 
		 "sigma_profile": "yes", 
		 "theory": "DFT", 
		 "functional": "B3LYP", 
		 "basiset": "6-31G**", 
		 "properties": { 
			 "R2extent": 1441.0967, 
			 "electric_dipole_moment_norm": 5.27236637289, 
			 "electric_quadrupole_moment_norm": 12.0186275976, 
			 "total_energy": -784.459139324, 
			 "HOMO_LUMO_gap": 0.32713, 
			 "cosmo_polarized_energy": -14.31, 
			 "cosmo_cavitation_energy": 23.63, 
			 "cosmo_dispersion_energy": -17.86, 
			 "cosmo_repulsion_energy": 1.41, 
			 "cosmo_total_nonelectrostatic_energy": 7.18, 
			 "SMD_solvation_energy": 2.99 
		},
		"coords": [
			{
				"x": 1.7600020409,
				"y": -0.2632836637,
				"z": -2.5197789115,
				"element": "C" 
			},
			{
				"x": 0.9838585859,
				"y": -0.4765203314,
				"z": -1.2186409017,
				"element": "C" 
			},
			{
				"x": -0.3565477798,
				"y": 0.2967827571,
				"z": -1.1806440503,
				"element": "C" 
			},
			{
				"x": -0.9709119829,
				"y": 0.1893790035,
				"z": 0.2291794391,
				"element": "C" 
			},
			{
				"x": -1.9224097732,
				"y": -0.9889625981,
				"z": 0.4263703358,
				"element": "C" 
			},
			{
				"x": 0.506247565,
				"y": 0.0437820837,
				"z": 1.3588997251,
				"element": "S" 
			},
			{
				"x": 0.4794050637,
				"y": -1.2667749878,
				"z": 2.0345895479,
				"element": "O" 
			},
			{
				"x": 0.6554767314,
				"y": 1.2828203603,
				"z": 2.1422649929,
				"element": "O" 
			},
			{
				"x": 1.7580185852,
				"y": -0.0182931693,
				"z": 0.0228221405,
				"element": "C" 
			},
			{
				"x": 2.6982229133,
				"y": -0.8268607725,
				"z": -2.5218178791,
				"element": "H" 
			},
			{
				"x": 2.0025912241,
				"y": 0.7959353536,
				"z": -2.6630502223,
				"element": "H" 
			},
			{
				"x": 1.1703031261,
				"y": -0.5923209796,
				"z": -3.3819834085,
				"element": "H" 
			},
			{
				"x": 0.7697999736,
				"y": -1.5475818232,
				"z": -1.106873649,
				"element": "H" 
			},
			{
				"x": -1.0539548205,
				"y": -0.0870945419,
				"z": -1.9328059016,
				"element": "H" 
			},
			{
				"x": -0.1623488873,
				"y": 1.3485089143,
				"z": -1.4243591933,
				"element": "H" 
			},
			{
				"x": -1.4455448465,
				"y": 1.1242173898,
				"z": 0.5374533153,
				"element": "H" 
			},
			{
				"x": -1.4549394766,
				"y": -1.9358686479,
				"z": 0.1446361297,
				"element": "H" 
			},
			{
				"x": -2.8123996856,
				"y": -0.8409369996,
				"z": -0.1942498016,
				"element": "H" 
			},
			{
				"x": -2.23856799,
				"y": -1.0763079509,
				"z": 1.4681281995,
				"element": "H" 
			},
			{
				"x": 2.1550905836,
				"y": 0.9946774812,
				"z": -0.0932643175,
				"element": "H" 
			},
			{
				"x": 2.5495088496,
				"y": -0.6963968775,
				"z": 0.3468244107,
				"element": "H" 
			}
		],
		 "valence_orbital": [ 
			{
				"type": "occ",
				"energy": -0.34624,
				"method": "rhf"
			},
			{
				"type": "occ",
				"energy": -0.3098,
				"method": "rhf"
			},
			{
				"type": "occ",
				"energy": -0.30048,
				"method": "rhf"
			},
			{
				"type": "occ",
				"energy": -0.28801,
				"method": "rhf"
			},
			{
				"type": "occ",
				"energy": -0.2709,
				"method": "rhf"
			},
			{
				"type": "unocc",
				"energy": 0.05623,
				"method": "rhf"
			},
			{
				"type": "unocc",
				"energy": 0.06385,
				"method": "rhf"
			},
			{
				"type": "unocc",
				"energy": 0.06842,
				"method": "rhf"
			},
			{
				"type": "unocc",
				"energy": 0.07384,
				"method": "rhf"
			},
			{
				"type": "unocc",
				"energy": 0.08246,
				"method": "rhf"
			}
		],
		"cosmo_sigma_profile": { 
			"-0.025": 0.0,
			"-0.024": 0.0,
			"-0.023": 0.0,
			"-0.022": 0.0,
			"-0.021": 0.0,
			"-0.02": 0.0,
			"-0.019": 0.0,
			"-0.018": 0.0,
			"-0.017": 0.0,
			"-0.016": 0.0,
			"-0.015": 0.0,
			"-0.014": 0.0,
			"-0.013": 0.0,
			"-0.012": 0.0,
			"-0.011": 0.0,
			"-0.01": 0.0,
			"-0.009": 0.0,
			"-0.008": 0.732939076646,
			"-0.007": 5.77775027347,
			"-0.006": 8.8561051607,
			"-0.005": 16.6995681731,
			"-0.004": 27.8546124702,
			"-0.003": 25.6961936157,
			"-0.002": 17.5335957013,
			"-0.001": 16.2494631115,
			"0.0": 13.5621052656,
			"0.001": 5.67592948732,
			"0.002": 2.5285823796,
			"0.003": 1.98687081386,
			"0.004": 1.65912386032,
			"0.005": 1.7483424034,
			"0.006": 2.3283898431,
			"0.007": 2.43360915349,
			"0.008": 2.29280639714,
			"0.009": 2.81252159342,
			"0.01": 3.09825437696,
			"0.011": 7.01774673691,
			"0.012": 11.9271855476,
			"0.013": 5.04336335755,
			"0.014": 0.0,
			"0.015": 0.0,
			"0.016": 0.0,
			"0.017": 0.0,
			"0.018": 0.0,
			"0.019": 0.0,
			"0.02": 0.0,
			"0.021": 0.0,
			"0.022": 0.0,
			"0.023": 0.0,
			"0.024": 0.0,
			"0.025": 0.0
		}
	}
}
