{
	 "smiles": "NC1=CC=C(Cl)C(=C1)[N+]([O-])=O", 
	 "Tm": 375.15, 
	 "num_atms": 16, 
	 "gaussian": { 
		 "optdone": 1, 
		 "sigma_profile": "yes", 
		 "theory": "DFT", 
		 "functional": "B3LYP", 
		 "basiset": "6-31G**", 
		 "properties": { 
			 "R2extent": 2778.7904, 
			 "electric_dipole_moment_norm": 6.40757236557, 
			 "electric_quadrupole_moment_norm": 17.6278763185, 
			 "total_energy": -951.684939597, 
			 "HOMO_LUMO_gap": 0.14211, 
			 "cosmo_polarized_energy": -13.98, 
			 "cosmo_cavitation_energy": 22.86, 
			 "cosmo_dispersion_energy": -17.13, 
			 "cosmo_repulsion_energy": 1.38, 
			 "cosmo_total_nonelectrostatic_energy": 7.11, 
			 "SMD_solvation_energy": 5.93 
		},
		"coords": [
			{
				"x": -2.1550077908,
				"y": 2.5111406932,
				"z": 0.2200580762,
				"element": "N" 
			},
			{
				"x": -1.4152726907,
				"y": 1.3557953437,
				"z": 0.4240323876,
				"element": "C" 
			},
			{
				"x": -0.289835086,
				"y": 1.0629268472,
				"z": -0.369027893,
				"element": "C" 
			},
			{
				"x": 0.4817710847,
				"y": -0.0641492783,
				"z": -0.1215744596,
				"element": "C" 
			},
			{
				"x": 0.1607920381,
				"y": -0.9588378738,
				"z": 0.9042046722,
				"element": "C" 
			},
			{
				"x": 1.2282338083,
				"y": -2.3140435847,
				"z": 1.1664597272,
				"element": "Cl" 
			},
			{
				"x": -0.9628881011,
				"y": -0.6682085104,
				"z": 1.6913312915,
				"element": "C" 
			},
			{
				"x": -1.7302415921,
				"y": 0.4731767136,
				"z": 1.464790421,
				"element": "C" 
			},
			{
				"x": -1.4244386021,
				"y": -1.5396604768,
				"z": 2.7884339538,
				"element": "N" 
			},
			{
				"x": -2.0170327469,
				"y": -0.9937729653,
				"z": 3.720500569,
				"element": "O" 
			},
			{
				"x": -1.2213424505,
				"y": -2.7452225251,
				"z": 2.6945901853,
				"element": "O" 
			},
			{
				"x": -2.1033775924,
				"y": 2.9203361614,
				"z": -0.7013396901,
				"element": "H" 
			},
			{
				"x": -3.0880106585,
				"y": 2.5214218556,
				"z": 0.6055475873,
				"element": "H" 
			},
			{
				"x": -0.0119778601,
				"y": 1.7322316657,
				"z": -1.1785521967,
				"element": "H" 
			},
			{
				"x": 1.3564009807,
				"y": -0.2653371108,
				"z": -0.7300696487,
				"element": "H" 
			},
			{
				"x": -2.5731727406,
				"y": 0.6569030447,
				"z": 2.1205150171,
				"element": "H" 
			}
		],
		 "valence_orbital": [ 
			{
				"type": "occ",
				"energy": -0.30603,
				"method": "rhf"
			},
			{
				"type": "occ",
				"energy": -0.3021,
				"method": "rhf"
			},
			{
				"type": "occ",
				"energy": -0.29157,
				"method": "rhf"
			},
			{
				"type": "occ",
				"energy": -0.27556,
				"method": "rhf"
			},
			{
				"type": "occ",
				"energy": -0.22663,
				"method": "rhf"
			},
			{
				"type": "unocc",
				"energy": -0.08452,
				"method": "rhf"
			},
			{
				"type": "unocc",
				"energy": -0.02238,
				"method": "rhf"
			},
			{
				"type": "unocc",
				"energy": -0.00368,
				"method": "rhf"
			},
			{
				"type": "unocc",
				"energy": 0.01898,
				"method": "rhf"
			},
			{
				"type": "unocc",
				"energy": 0.06281,
				"method": "rhf"
			}
		],
		"cosmo_sigma_profile": { 
			"-0.025": 0.0,
			"-0.024": 0.0,
			"-0.023": 0.0,
			"-0.022": 0.0,
			"-0.021": 0.0,
			"-0.02": 0.0,
			"-0.019": 0.0,
			"-0.018": 0.0,
			"-0.017": 0.0,
			"-0.016": 0.0,
			"-0.015": 0.0,
			"-0.014": 0.780387787856,
			"-0.013": 3.19057523972,
			"-0.012": 3.34935769358,
			"-0.011": 3.72511455818,
			"-0.01": 2.80832125487,
			"-0.009": 3.94816233241,
			"-0.008": 5.35605357112,
			"-0.007": 6.41558499495,
			"-0.006": 7.91010148401,
			"-0.005": 6.48549948564,
			"-0.004": 6.03511661082,
			"-0.003": 7.48494334218,
			"-0.002": 7.51627727407,
			"-0.001": 9.69977209337,
			"0.0": 11.91950078,
			"0.001": 18.1050232022,
			"0.002": 17.1377168786,
			"0.003": 11.859529401,
			"0.004": 11.1318697589,
			"0.005": 6.14862422232,
			"0.006": 4.65461929772,
			"0.007": 8.95803798853,
			"0.008": 10.9349398642,
			"0.009": 5.82775352474,
			"0.01": 2.40993556171,
			"0.011": 0.716979335755,
			"0.012": 0.548200140069,
			"0.013": 0.0952432214241,
			"0.014": 0.0,
			"0.015": 0.0,
			"0.016": 0.0,
			"0.017": 0.0,
			"0.018": 0.0,
			"0.019": 0.0,
			"0.02": 0.0,
			"0.021": 0.0,
			"0.022": 0.0,
			"0.023": 0.0,
			"0.024": 0.0,
			"0.025": 0.0
		}
	}
}
