{
	 "smiles": "CC(C)C1=CC=C(N)C=C1", 
	 "Tm": 210.15, 
	 "num_atms": 23, 
	 "gaussian": { 
		 "optdone": 1, 
		 "sigma_profile": "yes", 
		 "theory": "DFT", 
		 "functional": "B3LYP", 
		 "basiset": "6-31G**", 
		 "properties": { 
			 "R2extent": 2328.5816, 
			 "electric_dipole_moment_norm": 1.58691442113, 
			 "electric_quadrupole_moment_norm": 9.51298249762, 
			 "total_energy": -405.560338906, 
			 "HOMO_LUMO_gap": 0.20142, 
			 "cosmo_polarized_energy": -7.59, 
			 "cosmo_cavitation_energy": 25.34, 
			 "cosmo_dispersion_energy": -18.34, 
			 "cosmo_repulsion_energy": 1.5, 
			 "cosmo_total_nonelectrostatic_energy": 8.5, 
			 "SMD_solvation_energy": 4.38 
		},
		"coords": [
			{
				"x": -3.4235788708,
				"y": -0.2456974046,
				"z": -1.0198983551,
				"element": "C" 
			},
			{
				"x": -1.9476705724,
				"y": -0.2868453456,
				"z": -1.459805117,
				"element": "C" 
			},
			{
				"x": -1.8138827755,
				"y": 0.0164024501,
				"z": -2.964288419,
				"element": "C" 
			},
			{
				"x": -1.0734192233,
				"y": 0.6281054614,
				"z": -0.6128471054,
				"element": "C" 
			},
			{
				"x": -1.264143099,
				"y": 2.0178020859,
				"z": -0.5868854816,
				"element": "C" 
			},
			{
				"x": -0.4651486753,
				"y": 2.8520392435,
				"z": 0.1893948517,
				"element": "C" 
			},
			{
				"x": 0.5690746809,
				"y": 2.322260912,
				"z": 0.9798173495,
				"element": "C" 
			},
			{
				"x": 1.4121396093,
				"y": 3.1628232828,
				"z": 1.7161736009,
				"element": "N" 
			},
			{
				"x": 0.7686911077,
				"y": 0.9334038143,
				"z": 0.9617362383,
				"element": "C" 
			},
			{
				"x": -0.0402198331,
				"y": 0.1120357114,
				"z": 0.1784523218,
				"element": "C" 
			},
			{
				"x": -3.8525544425,
				"y": 0.7523393771,
				"z": -1.1641878313,
				"element": "H" 
			},
			{
				"x": -4.0250247711,
				"y": -0.9520634176,
				"z": -1.6033392337,
				"element": "H" 
			},
			{
				"x": -3.5276184664,
				"y": -0.5015721226,
				"z": 0.0391821992,
				"element": "H" 
			},
			{
				"x": -1.5868737612,
				"y": -1.311843707,
				"z": -1.2992635254,
				"element": "H" 
			},
			{
				"x": -2.1690992484,
				"y": 1.0263240591,
				"z": -3.1982320196,
				"element": "H" 
			},
			{
				"x": -2.4055803171,
				"y": -0.6888221443,
				"z": -3.5589733484,
				"element": "H" 
			},
			{
				"x": -0.7712778467,
				"y": -0.0521260374,
				"z": -3.2899233722,
				"element": "H" 
			},
			{
				"x": -2.0553705294,
				"y": 2.4653878656,
				"z": -1.1834634289,
				"element": "H" 
			},
			{
				"x": -0.6368903504,
				"y": 3.9261572333,
				"z": 0.183322943,
				"element": "H" 
			},
			{
				"x": 1.002609679,
				"y": 4.0505200455,
				"z": 1.9743928735,
				"element": "H" 
			},
			{
				"x": 1.8628900409,
				"y": 2.7214221139,
				"z": 2.506354561,
				"element": "H" 
			},
			{
				"x": 1.5647919286,
				"y": 0.497770038,
				"z": 1.5613555263,
				"element": "H" 
			},
			{
				"x": 0.1376557363,
				"y": -0.9612235147,
				"z": 0.1865247722,
				"element": "H" 
			}
		],
		 "valence_orbital": [ 
			{
				"type": "occ",
				"energy": -0.31744,
				"method": "rhf"
			},
			{
				"type": "occ",
				"energy": -0.31385,
				"method": "rhf"
			},
			{
				"type": "occ",
				"energy": -0.29182,
				"method": "rhf"
			},
			{
				"type": "occ",
				"energy": -0.23909,
				"method": "rhf"
			},
			{
				"type": "occ",
				"energy": -0.19265,
				"method": "rhf"
			},
			{
				"type": "unocc",
				"energy": 0.00877,
				"method": "rhf"
			},
			{
				"type": "unocc",
				"energy": 0.02513,
				"method": "rhf"
			},
			{
				"type": "unocc",
				"energy": 0.08547,
				"method": "rhf"
			},
			{
				"type": "unocc",
				"energy": 0.09446,
				"method": "rhf"
			},
			{
				"type": "unocc",
				"energy": 0.11588,
				"method": "rhf"
			}
		],
		"cosmo_sigma_profile": { 
			"-0.025": 0.0,
			"-0.024": 0.0,
			"-0.023": 0.0,
			"-0.022": 0.0,
			"-0.021": 0.0,
			"-0.02": 0.0,
			"-0.019": 0.0,
			"-0.018": 0.0,
			"-0.017": 0.0,
			"-0.016": 0.0,
			"-0.015": 0.0,
			"-0.014": 0.0,
			"-0.013": 0.00990017504775,
			"-0.012": 1.62255876458,
			"-0.011": 2.69377732632,
			"-0.01": 2.46596194232,
			"-0.009": 3.29318526353,
			"-0.008": 3.13615058499,
			"-0.007": 2.579081657,
			"-0.006": 4.25052482914,
			"-0.005": 4.51894283114,
			"-0.004": 10.5183391043,
			"-0.003": 16.5307772384,
			"-0.002": 21.2394834398,
			"-0.001": 19.3308332787,
			"0.0": 20.819420524,
			"0.001": 22.0433257466,
			"0.002": 14.5808932797,
			"0.003": 7.02373209676,
			"0.004": 7.61651098675,
			"0.005": 7.21596370632,
			"0.006": 7.82019406657,
			"0.007": 9.05976484792,
			"0.008": 4.5403411724,
			"0.009": 1.04317797447,
			"0.01": 0.811330314908,
			"0.011": 0.442210940375,
			"0.012": 0.811020946564,
			"0.013": 0.816912857614,
			"0.014": 0.593833454789,
			"0.015": 0.52287870014,
			"0.016": 0.0917133558924,
			"0.017": 0.0,
			"0.018": 0.0,
			"0.019": 0.0,
			"0.02": 0.0,
			"0.021": 0.0,
			"0.022": 0.0,
			"0.023": 0.0,
			"0.024": 0.0,
			"0.025": 0.0
		}
	}
}
