{
	 "smiles": "OC(=O)CNC(=O)CNC(=O)C1=CC=CO1", 
	 "Tm": 482.15, 
	 "num_atms": 26, 
	 "gaussian": { 
		 "optdone": 1, 
		 "sigma_profile": "yes", 
		 "theory": "DFT", 
		 "functional": "B3LYP", 
		 "basiset": "6-31G**", 
		 "properties": { 
			 "R2extent": 4103.9357, 
			 "electric_dipole_moment_norm": 2.82413807382, 
			 "electric_quadrupole_moment_norm": 16.1975800869, 
			 "total_energy": -834.616880464, 
			 "HOMO_LUMO_gap": 0.19936, 
			 "cosmo_polarized_energy": -22.19, 
			 "cosmo_cavitation_energy": 31.42, 
			 "cosmo_dispersion_energy": -21.98, 
			 "cosmo_repulsion_energy": 1.72, 
			 "cosmo_total_nonelectrostatic_energy": 11.17, 
			 "SMD_solvation_energy": 8.01 
		},
		"coords": [
			{
				"x": -2.3638579942,
				"y": 2.9096878819,
				"z": -0.0735733966,
				"element": "O" 
			},
			{
				"x": -1.4375606581,
				"y": 1.9320320563,
				"z": 0.0425419938,
				"element": "C" 
			},
			{
				"x": -1.5530523074,
				"y": 0.8437078328,
				"z": -0.4724704725,
				"element": "O" 
			},
			{
				"x": -0.2687729265,
				"y": 2.4140915109,
				"z": 0.8958629323,
				"element": "C" 
			},
			{
				"x": 0.7913999591,
				"y": 1.4505699886,
				"z": 1.021673381,
				"element": "N" 
			},
			{
				"x": 0.7881458557,
				"y": 0.5555525378,
				"z": 2.0521686551,
				"element": "C" 
			},
			{
				"x": 0.0139938192,
				"y": 0.6110100662,
				"z": 2.9984848549,
				"element": "O" 
			},
			{
				"x": 1.8408819093,
				"y": -0.5581024702,
				"z": 1.9876332173,
				"element": "C" 
			},
			{
				"x": 2.9095541966,
				"y": -0.4011357005,
				"z": 1.0022068138,
				"element": "N" 
			},
			{
				"x": 3.1605742533,
				"y": -1.2207656462,
				"z": -0.0915441889,
				"element": "C" 
			},
			{
				"x": 4.3021530148,
				"y": -1.4026401636,
				"z": -0.5001891855,
				"element": "O" 
			},
			{
				"x": 2.0073458291,
				"y": -1.7960888883,
				"z": -0.8018035111,
				"element": "C" 
			},
			{
				"x": 1.9505418831,
				"y": -2.7439176314,
				"z": -1.7881905631,
				"element": "C" 
			},
			{
				"x": 0.581345186,
				"y": -2.8364163457,
				"z": -2.179419653,
				"element": "C" 
			},
			{
				"x": -0.098433788,
				"y": -1.9311668938,
				"z": -1.4141521936,
				"element": "C" 
			},
			{
				"x": 0.7513169026,
				"y": -1.2952204106,
				"z": -0.5695205156,
				"element": "O" 
			},
			{
				"x": -3.0874459448,
				"y": 2.5448894207,
				"z": -0.6101077649,
				"element": "H" 
			},
			{
				"x": -0.6539603793,
				"y": 2.6227510077,
				"z": 1.8985318666,
				"element": "H" 
			},
			{
				"x": 0.0997275348,
				"y": 3.357203302,
				"z": 0.4785310221,
				"element": "H" 
			},
			{
				"x": 1.3545648713,
				"y": 1.2194639376,
				"z": 0.2157297417,
				"element": "H" 
			},
			{
				"x": 1.2972242193,
				"y": -1.4892051629,
				"z": 1.8144168439,
				"element": "H" 
			},
			{
				"x": 2.2719997199,
				"y": -0.6304574663,
				"z": 2.9905605626,
				"element": "H" 
			},
			{
				"x": 3.7835143426,
				"y": -0.0388620392,
				"z": 1.3646565415,
				"element": "H" 
			},
			{
				"x": 2.7956307635,
				"y": -3.2908499112,
				"z": -2.1786684927,
				"element": "H" 
			},
			{
				"x": 0.1582629043,
				"y": -3.482232009,
				"z": -2.9350809885,
				"element": "H" 
			},
			{
				"x": -1.1268931664,
				"y": -1.6116988037,
				"z": -1.3557775006,
				"element": "H" 
			}
		],
		 "valence_orbital": [ 
			{
				"type": "occ",
				"energy": -0.28179,
				"method": "rhf"
			},
			{
				"type": "occ",
				"energy": -0.26899,
				"method": "rhf"
			},
			{
				"type": "occ",
				"energy": -0.26377,
				"method": "rhf"
			},
			{
				"type": "occ",
				"energy": -0.24162,
				"method": "rhf"
			},
			{
				"type": "occ",
				"energy": -0.23893,
				"method": "rhf"
			},
			{
				"type": "unocc",
				"energy": -0.03957,
				"method": "rhf"
			},
			{
				"type": "unocc",
				"energy": -0.00168,
				"method": "rhf"
			},
			{
				"type": "unocc",
				"energy": 0.02191,
				"method": "rhf"
			},
			{
				"type": "unocc",
				"energy": 0.04058,
				"method": "rhf"
			},
			{
				"type": "unocc",
				"energy": 0.06752,
				"method": "rhf"
			}
		],
		"cosmo_sigma_profile": { 
			"-0.025": 0.0,
			"-0.024": 0.0,
			"-0.023": 0.0,
			"-0.022": 0.0,
			"-0.021": 0.0,
			"-0.02": 0.0,
			"-0.019": 0.167779777376,
			"-0.018": 0.951825110917,
			"-0.017": 1.09408757444,
			"-0.016": 0.461802628418,
			"-0.015": 0.912144406258,
			"-0.014": 1.51653056556,
			"-0.013": 2.78161319763,
			"-0.012": 2.70565735024,
			"-0.011": 3.87500952784,
			"-0.01": 2.1204086911,
			"-0.009": 2.29015803776,
			"-0.008": 10.2959659814,
			"-0.007": 13.1716713939,
			"-0.006": 14.7657039597,
			"-0.005": 13.3141058527,
			"-0.004": 14.9934465056,
			"-0.003": 13.0802498459,
			"-0.002": 11.9224023867,
			"-0.001": 13.9643617765,
			"0.0": 11.9723266266,
			"0.001": 13.6376410502,
			"0.002": 13.485140332,
			"0.003": 14.6859801409,
			"0.004": 11.0342514884,
			"0.005": 6.9113988158,
			"0.006": 6.03126585623,
			"0.007": 7.9550472129,
			"0.008": 7.45158602611,
			"0.009": 5.14283394492,
			"0.01": 3.10644237405,
			"0.011": 4.16953542491,
			"0.012": 5.46331421483,
			"0.013": 10.5707574346,
			"0.014": 3.78002896977,
			"0.015": 0.249702611858,
			"0.016": 0.0,
			"0.017": 0.0,
			"0.018": 0.0,
			"0.019": 0.0,
			"0.02": 0.0,
			"0.021": 0.0,
			"0.022": 0.0,
			"0.023": 0.0,
			"0.024": 0.0,
			"0.025": 0.0
		}
	}
}
