{
	 "smiles": "NC1=CC=C(C=C1)N1C=NC(Cl)=C1Cl", 
	 "Tm": 377.15, 
	 "num_atms": 21, 
	 "gaussian": { 
		 "optdone": 1, 
		 "sigma_profile": "yes", 
		 "theory": "DFT", 
		 "functional": "B3LYP", 
		 "basiset": "6-31G**", 
		 "properties": { 
			 "R2extent": 6467.3369, 
			 "electric_dipole_moment_norm": 7.32694568971, 
			 "electric_quadrupole_moment_norm": 16.3007156907, 
			 "total_energy": -1431.80000373, 
			 "HOMO_LUMO_gap": 0.1971, 
			 "cosmo_polarized_energy": -13.79, 
			 "cosmo_cavitation_energy": 29.6, 
			 "cosmo_dispersion_energy": -21.56, 
			 "cosmo_repulsion_energy": 1.71, 
			 "cosmo_total_nonelectrostatic_energy": 9.75, 
			 "SMD_solvation_energy": 3.28 
		},
		"coords": [
			{
				"x": 1.2707950894,
				"y": 0.7379260799,
				"z": 2.684250863,
				"element": "N" 
			},
			{
				"x": 0.9072446786,
				"y": 0.1310246576,
				"z": 1.4890389235,
				"element": "C" 
			},
			{
				"x": 0.6077971945,
				"y": -1.244192762,
				"z": 1.4428275906,
				"element": "C" 
			},
			{
				"x": 0.3032243705,
				"y": -1.8660427309,
				"z": 0.2385841239,
				"element": "C" 
			},
			{
				"x": 0.2749767939,
				"y": -1.1250272006,
				"z": -0.9466718833,
				"element": "C" 
			},
			{
				"x": 0.562900364,
				"y": 0.2420780469,
				"z": -0.9147301312,
				"element": "C" 
			},
			{
				"x": 0.8834620387,
				"y": 0.8626997925,
				"z": 0.2874037602,
				"element": "C" 
			},
			{
				"x": -0.0155039205,
				"y": -1.7575489539,
				"z": -2.1960490368,
				"element": "N" 
			},
			{
				"x": 0.8179200878,
				"y": -1.8122247723,
				"z": -3.2846008767,
				"element": "C" 
			},
			{
				"x": 0.2846716283,
				"y": -2.4505099202,
				"z": -4.3049053017,
				"element": "N" 
			},
			{
				"x": -0.9498421416,
				"y": -2.8324212189,
				"z": -3.876329834,
				"element": "C" 
			},
			{
				"x": -2.0477980515,
				"y": -3.7092193233,
				"z": -4.8831337786,
				"element": "Cl" 
			},
			{
				"x": -1.1716942236,
				"y": -2.4251033823,
				"z": -2.5813905584,
				"element": "C" 
			},
			{
				"x": -2.5485444322,
				"y": -2.5898813062,
				"z": -1.5690795304,
				"element": "Cl" 
			},
			{
				"x": 1.1624634042,
				"y": 1.7411639102,
				"z": 2.7248710294,
				"element": "H" 
			},
			{
				"x": 0.962979424,
				"y": 0.2775003215,
				"z": 3.52869982,
				"element": "H" 
			},
			{
				"x": 0.6290317906,
				"y": -1.8282615223,
				"z": 2.3589199064,
				"element": "H" 
			},
			{
				"x": 0.0887557573,
				"y": -2.929237688,
				"z": 0.2142929867,
				"element": "H" 
			},
			{
				"x": 0.523695845,
				"y": 0.8196346789,
				"z": -1.8330381399,
				"element": "H" 
			},
			{
				"x": 1.1108892206,
				"y": 1.9252008159,
				"z": 0.3007934499,
				"element": "H" 
			},
			{
				"x": 1.8085750819,
				"y": -1.3810575227,
				"z": -3.2543533828,
				"element": "H" 
			}
		],
		 "valence_orbital": [ 
			{
				"type": "occ",
				"energy": -0.28414,
				"method": "rhf"
			},
			{
				"type": "occ",
				"energy": -0.27872,
				"method": "rhf"
			},
			{
				"type": "occ",
				"energy": -0.26997,
				"method": "rhf"
			},
			{
				"type": "occ",
				"energy": -0.22535,
				"method": "rhf"
			},
			{
				"type": "occ",
				"energy": -0.21755,
				"method": "rhf"
			},
			{
				"type": "unocc",
				"energy": -0.02045,
				"method": "rhf"
			},
			{
				"type": "unocc",
				"energy": -0.01463,
				"method": "rhf"
			},
			{
				"type": "unocc",
				"energy": 0.01896,
				"method": "rhf"
			},
			{
				"type": "unocc",
				"energy": 0.02866,
				"method": "rhf"
			},
			{
				"type": "unocc",
				"energy": 0.05502,
				"method": "rhf"
			}
		],
		"cosmo_sigma_profile": { 
			"-0.025": 0.0,
			"-0.024": 0.0,
			"-0.023": 0.0,
			"-0.022": 0.0,
			"-0.021": 0.0,
			"-0.02": 0.0,
			"-0.019": 0.0,
			"-0.018": 0.0,
			"-0.017": 0.0,
			"-0.016": 0.0,
			"-0.015": 0.0,
			"-0.014": 0.0,
			"-0.013": 1.68293756226,
			"-0.012": 2.53991093263,
			"-0.011": 3.00138534386,
			"-0.01": 4.12949461701,
			"-0.009": 5.40517537119,
			"-0.008": 4.08446939202,
			"-0.007": 7.58314657545,
			"-0.006": 10.9654030882,
			"-0.005": 12.4076540255,
			"-0.004": 11.1233980933,
			"-0.003": 10.2059075135,
			"-0.002": 13.0190511103,
			"-0.001": 14.6904729334,
			"0.0": 18.5713263419,
			"0.001": 17.7910265371,
			"0.002": 20.8604397068,
			"0.003": 23.9583345552,
			"0.004": 25.8058679854,
			"0.005": 14.0196168042,
			"0.006": 3.45880555598,
			"0.007": 3.03275807876,
			"0.008": 2.50798905653,
			"0.009": 1.49848992148,
			"0.01": 1.6200428467,
			"0.011": 2.10312391283,
			"0.012": 1.58570071407,
			"0.013": 1.84762610467,
			"0.014": 1.20511046911,
			"0.015": 0.996125610756,
			"0.016": 0.385977315974,
			"0.017": 0.0,
			"0.018": 0.0,
			"0.019": 0.0,
			"0.02": 0.0,
			"0.021": 0.0,
			"0.022": 0.0,
			"0.023": 0.0,
			"0.024": 0.0,
			"0.025": 0.0
		}
	}
}
