{
	 "smiles": "CC(O)CC(O)=O", 
	 "Tm": 322.15, 
	 "num_atms": 15, 
	 "gaussian": { 
		 "optdone": 1, 
		 "sigma_profile": "yes", 
		 "theory": "DFT", 
		 "functional": "B3LYP", 
		 "basiset": "6-31G**", 
		 "properties": { 
			 "R2extent": 887.5982, 
			 "electric_dipole_moment_norm": 3.09855861329, 
			 "electric_quadrupole_moment_norm": 9.17511745265, 
			 "total_energy": -382.927726869, 
			 "HOMO_LUMO_gap": 0.27821, 
			 "cosmo_polarized_energy": -13.18, 
			 "cosmo_cavitation_energy": 18.37, 
			 "cosmo_dispersion_energy": -13.56, 
			 "cosmo_repulsion_energy": 1.18, 
			 "cosmo_total_nonelectrostatic_energy": 6.0, 
			 "SMD_solvation_energy": 4.53 
		},
		"coords": [
			{
				"x": 0.4864644247,
				"y": 1.2528988793,
				"z": -0.5048727383,
				"element": "C" 
			},
			{
				"x": -0.2631615123,
				"y": 0.7045735797,
				"z": 0.7106994355,
				"element": "C" 
			},
			{
				"x": -1.6628455653,
				"y": 0.5956029706,
				"z": 0.4630333029,
				"element": "O" 
			},
			{
				"x": 0.1912375851,
				"y": -0.6890396186,
				"z": 1.18188364,
				"element": "C" 
			},
			{
				"x": -0.2178818164,
				"y": -1.8381342579,
				"z": 0.2811173781,
				"element": "C" 
			},
			{
				"x": 0.3626564012,
				"y": -1.7744163709,
				"z": -0.9466019779,
				"element": "O" 
			},
			{
				"x": -0.9478404149,
				"y": -2.7486561224,
				"z": 0.5981531846,
				"element": "O" 
			},
			{
				"x": 0.1258976701,
				"y": 2.2612887082,
				"z": -0.7421646255,
				"element": "H" 
			},
			{
				"x": 1.5603446818,
				"y": 1.3284789645,
				"z": -0.3034775517,
				"element": "H" 
			},
			{
				"x": 0.3404056886,
				"y": 0.6129932156,
				"z": -1.3766263883,
				"element": "H" 
			},
			{
				"x": -0.0820846588,
				"y": 1.3860160429,
				"z": 1.5593021287,
				"element": "H" 
			},
			{
				"x": -1.9753956635,
				"y": 1.4467045255,
				"z": 0.1305068706,
				"element": "H" 
			},
			{
				"x": 1.2821606428,
				"y": -0.6927071289,
				"z": 1.2856883877,
				"element": "H" 
			},
			{
				"x": -0.2521901466,
				"y": -0.8979969712,
				"z": 2.156923126,
				"element": "H" 
			},
			{
				"x": 0.0291326832,
				"y": -2.5468064165,
				"z": -1.4338641726,
				"element": "H" 
			}
		],
		 "valence_orbital": [ 
			{
				"type": "occ",
				"energy": -0.36266,
				"method": "rhf"
			},
			{
				"type": "occ",
				"energy": -0.33264,
				"method": "rhf"
			},
			{
				"type": "occ",
				"energy": -0.31131,
				"method": "rhf"
			},
			{
				"type": "occ",
				"energy": -0.27439,
				"method": "rhf"
			},
			{
				"type": "occ",
				"energy": -0.2659,
				"method": "rhf"
			},
			{
				"type": "unocc",
				"energy": 0.01231,
				"method": "rhf"
			},
			{
				"type": "unocc",
				"energy": 0.06806,
				"method": "rhf"
			},
			{
				"type": "unocc",
				"energy": 0.08305,
				"method": "rhf"
			},
			{
				"type": "unocc",
				"energy": 0.12368,
				"method": "rhf"
			},
			{
				"type": "unocc",
				"energy": 0.13573,
				"method": "rhf"
			}
		],
		"cosmo_sigma_profile": { 
			"-0.025": 0.0,
			"-0.024": 0.0,
			"-0.023": 0.0,
			"-0.022": 0.0,
			"-0.021": 0.0,
			"-0.02": 0.0,
			"-0.019": 0.0,
			"-0.018": 0.328925460341,
			"-0.017": 1.17419823377,
			"-0.016": 0.823430303914,
			"-0.015": 1.67175502581,
			"-0.014": 1.88420565119,
			"-0.013": 1.4106384136,
			"-0.012": 2.06016573291,
			"-0.011": 1.50483454393,
			"-0.01": 1.78872736072,
			"-0.009": 1.39782426412,
			"-0.008": 0.984830899089,
			"-0.007": 2.83576370601,
			"-0.006": 5.82973680356,
			"-0.005": 6.93235718044,
			"-0.004": 13.3716071264,
			"-0.003": 13.2398657663,
			"-0.002": 9.76080669065,
			"-0.001": 8.63241438778,
			"0.0": 7.85008297133,
			"0.001": 8.24455071423,
			"0.002": 4.61548237856,
			"0.003": 4.04582265659,
			"0.004": 4.79324967051,
			"0.005": 3.62119539108,
			"0.006": 2.63294196028,
			"0.007": 3.85674448047,
			"0.008": 4.25274710148,
			"0.009": 4.3768447301,
			"0.01": 4.56519290822,
			"0.011": 4.73335393362,
			"0.012": 6.4416181076,
			"0.013": 2.56282518072,
			"0.014": 0.535733822711,
			"0.015": 0.0,
			"0.016": 0.0,
			"0.017": 0.0,
			"0.018": 0.0,
			"0.019": 0.0,
			"0.02": 0.0,
			"0.021": 0.0,
			"0.022": 0.0,
			"0.023": 0.0,
			"0.024": 0.0,
			"0.025": 0.0
		}
	}
}
