{
	 "smiles": "BrCC(=O)C1=CC=C(C=C1)N1CCCC1", 
	 "Tm": 394.15, 
	 "num_atms": 29, 
	 "gaussian": { 
		 "optdone": 1, 
		 "sigma_profile": "yes", 
		 "theory": "DFT", 
		 "functional": "B3LYP", 
		 "basiset": "6-31G**", 
		 "properties": { 
			 "R2extent": 8163.4436, 
			 "electric_dipole_moment_norm": 6.70972478124, 
			 "electric_quadrupole_moment_norm": 14.4436145528, 
			 "total_energy": -3167.10083776, 
			 "HOMO_LUMO_gap": 0.14647, 
			 "cosmo_polarized_energy": -12.13, 
			 "cosmo_cavitation_energy": 33.43, 
			 "cosmo_dispersion_energy": -24.95, 
			 "cosmo_repulsion_energy": 1.95, 
			 "cosmo_total_nonelectrostatic_energy": 10.43, 
			 "SMD_solvation_energy": 3.72 
		},
		"coords": [
			{
				"x": -1.4307974971,
				"y": 4.1454849632,
				"z": -3.6542845616,
				"element": "Br" 
			},
			{
				"x": -0.783611902,
				"y": 2.4444716266,
				"z": -4.4451299315,
				"element": "C" 
			},
			{
				"x": 0.4681791326,
				"y": 1.9274247297,
				"z": -3.7342928681,
				"element": "C" 
			},
			{
				"x": 1.5364587751,
				"y": 2.0138133821,
				"z": -4.329137552,
				"element": "O" 
			},
			{
				"x": 0.3501736275,
				"y": 1.3033977342,
				"z": -2.4025004238,
				"element": "C" 
			},
			{
				"x": -0.8597838461,
				"y": 1.1829116807,
				"z": -1.6951713873,
				"element": "C" 
			},
			{
				"x": -0.9139543223,
				"y": 0.5646389176,
				"z": -0.4563410719,
				"element": "C" 
			},
			{
				"x": 0.256230848,
				"y": 0.0316091587,
				"z": 0.1410690332,
				"element": "C" 
			},
			{
				"x": 1.4774848303,
				"y": 0.155934903,
				"z": -0.572336036,
				"element": "C" 
			},
			{
				"x": 1.5123288218,
				"y": 0.7768251216,
				"z": -1.806495584,
				"element": "C" 
			},
			{
				"x": 0.2106257896,
				"y": -0.5813846377,
				"z": 1.3641961381,
				"element": "N" 
			},
			{
				"x": 1.3968414476,
				"y": -1.0475109316,
				"z": 2.0863411445,
				"element": "C" 
			},
			{
				"x": 0.8672390278,
				"y": -1.3588721644,
				"z": 3.4939571984,
				"element": "C" 
			},
			{
				"x": -0.5931319183,
				"y": -1.7647671696,
				"z": 3.2405406592,
				"element": "C" 
			},
			{
				"x": -1.0278981732,
				"y": -0.8254095257,
				"z": 2.1062765598,
				"element": "C" 
			},
			{
				"x": -0.5254079128,
				"y": 2.6759018705,
				"z": -5.475202882,
				"element": "H" 
			},
			{
				"x": -1.6266402151,
				"y": 1.7557445877,
				"z": -4.3958990908,
				"element": "H" 
			},
			{
				"x": -1.7755227071,
				"y": 1.5996610642,
				"z": -2.1015208068,
				"element": "H" 
			},
			{
				"x": -1.8625574806,
				"y": 0.5077281086,
				"z": 0.0643691656,
				"element": "H" 
			},
			{
				"x": 2.3921724289,
				"y": -0.2490369618,
				"z": -0.1551245709,
				"element": "H" 
			},
			{
				"x": 2.4471716984,
				"y": 0.864821254,
				"z": -2.350428497,
				"element": "H" 
			},
			{
				"x": 1.8238112347,
				"y": -1.9432152403,
				"z": 1.6094428384,
				"element": "H" 
			},
			{
				"x": 2.1770088437,
				"y": -0.2776628471,
				"z": 2.0983116748,
				"element": "H" 
			},
			{
				"x": 0.9056357659,
				"y": -0.4562501693,
				"z": 4.1138537713,
				"element": "H" 
			},
			{
				"x": 1.4511193184,
				"y": -2.1345942137,
				"z": 3.9959894433,
				"element": "H" 
			},
			{
				"x": -0.642264341,
				"y": -2.8054479033,
				"z": 2.9012498584,
				"element": "H" 
			},
			{
				"x": -1.2281733244,
				"y": -1.670763135,
				"z": 4.1251807528,
				"element": "H" 
			},
			{
				"x": -1.7890976793,
				"y": -1.2790638717,
				"z": 1.4608769522,
				"element": "H" 
			},
			{
				"x": -1.4457402705,
				"y": 0.1143096688,
				"z": 2.4996100738,
				"element": "H" 
			}
		],
		 "valence_orbital": [ 
			{
				"type": "occ",
				"energy": -0.27988,
				"method": "rhf"
			},
			{
				"type": "occ",
				"energy": -0.27104,
				"method": "rhf"
			},
			{
				"type": "occ",
				"energy": -0.25365,
				"method": "rhf"
			},
			{
				"type": "occ",
				"energy": -0.24027,
				"method": "rhf"
			},
			{
				"type": "occ",
				"energy": -0.1997,
				"method": "rhf"
			},
			{
				"type": "unocc",
				"energy": -0.05323,
				"method": "rhf"
			},
			{
				"type": "unocc",
				"energy": -0.00177,
				"method": "rhf"
			},
			{
				"type": "unocc",
				"energy": 0.00488,
				"method": "rhf"
			},
			{
				"type": "unocc",
				"energy": 0.06482,
				"method": "rhf"
			},
			{
				"type": "unocc",
				"energy": 0.0692,
				"method": "rhf"
			}
		],
		"cosmo_sigma_profile": { 
			"-0.025": 0.0,
			"-0.024": 0.0,
			"-0.023": 0.0,
			"-0.022": 0.0,
			"-0.021": 0.0,
			"-0.02": 0.0,
			"-0.019": 0.0,
			"-0.018": 0.0,
			"-0.017": 0.0,
			"-0.016": 0.0,
			"-0.015": 0.0,
			"-0.014": 0.0,
			"-0.013": 0.0,
			"-0.012": 0.0,
			"-0.011": 0.0,
			"-0.01": 0.0,
			"-0.009": 0.632670665795,
			"-0.008": 3.26462523189,
			"-0.007": 4.79851698646,
			"-0.006": 7.27194436882,
			"-0.005": 15.3353456505,
			"-0.004": 29.3566512307,
			"-0.003": 35.9139337498,
			"-0.002": 27.9420569178,
			"-0.001": 19.7706344453,
			"0.0": 17.2541720702,
			"0.001": 11.0279488458,
			"0.002": 13.7797351966,
			"0.003": 18.0569973668,
			"0.004": 17.5318111723,
			"0.005": 23.3715437233,
			"0.006": 6.59007050055,
			"0.007": 1.39487146329,
			"0.008": 1.23932548805,
			"0.009": 1.88061164599,
			"0.01": 1.69884906261,
			"0.011": 2.54970176518,
			"0.012": 4.34124300288,
			"0.013": 2.25115280453,
			"0.014": 0.122622302861,
			"0.015": 0.0,
			"0.016": 0.0,
			"0.017": 0.0,
			"0.018": 0.0,
			"0.019": 0.0,
			"0.02": 0.0,
			"0.021": 0.0,
			"0.022": 0.0,
			"0.023": 0.0,
			"0.024": 0.0,
			"0.025": 0.0
		}
	}
}
