{
	 "smiles": "CC(C)(C)C1=CC=C(OCCC(O)=O)C=C1", 
	 "Tm": 368.15, 
	 "num_atms": 34, 
	 "gaussian": { 
		 "optdone": 1, 
		 "sigma_profile": "yes", 
		 "theory": "DFT", 
		 "functional": "B3LYP", 
		 "basiset": "6-31G**", 
		 "properties": { 
			 "R2extent": 5799.606, 
			 "electric_dipole_moment_norm": 1.3584130631, 
			 "electric_quadrupole_moment_norm": 11.1515746381, 
			 "total_energy": -731.923446375, 
			 "HOMO_LUMO_gap": 0.21803, 
			 "cosmo_polarized_energy": -11.38, 
			 "cosmo_cavitation_energy": 36.12, 
			 "cosmo_dispersion_energy": -25.53, 
			 "cosmo_repulsion_energy": 2.01, 
			 "cosmo_total_nonelectrostatic_energy": 12.6, 
			 "SMD_solvation_energy": 7.52 
		},
		"coords": [
			{
				"x": 0.7899237526,
				"y": 3.9116882871,
				"z": 1.0549618146,
				"element": "C" 
			},
			{
				"x": -0.3497684534,
				"y": 2.9198949502,
				"z": 1.3892698274,
				"element": "C" 
			},
			{
				"x": -1.7134750557,
				"y": 3.6002344213,
				"z": 1.1211472655,
				"element": "C" 
			},
			{
				"x": -0.2685959232,
				"y": 2.5863723168,
				"z": 2.8910941312,
				"element": "C" 
			},
			{
				"x": -0.2177775829,
				"y": 1.6666362518,
				"z": 0.5042729913,
				"element": "C" 
			},
			{
				"x": -0.2678157691,
				"y": 1.7863358059,
				"z": -0.895449488,
				"element": "C" 
			},
			{
				"x": -0.1611556525,
				"y": 0.6786645128,
				"z": -1.7324253448,
				"element": "C" 
			},
			{
				"x": 0.0126073812,
				"y": -0.5939211658,
				"z": -1.1837493539,
				"element": "C" 
			},
			{
				"x": 0.1776702221,
				"y": -1.6557819671,
				"z": -2.0500884347,
				"element": "O" 
			},
			{
				"x": -0.6866774991,
				"y": -2.7826599941,
				"z": -1.8904518717,
				"element": "C" 
			},
			{
				"x": 0.0941841885,
				"y": -4.0327838557,
				"z": -2.2627287756,
				"element": "C" 
			},
			{
				"x": 1.13629665,
				"y": -4.3842946514,
				"z": -1.2199702359,
				"element": "C" 
			},
			{
				"x": 2.1435040538,
				"y": -5.1173866501,
				"z": -1.7439294822,
				"element": "O" 
			},
			{
				"x": 1.0844226028,
				"y": -4.092568914,
				"z": -0.0440568145,
				"element": "O" 
			},
			{
				"x": 0.0814729474,
				"y": -0.7442786874,
				"z": 0.2022399284,
				"element": "C" 
			},
			{
				"x": -0.0397539268,
				"y": 0.3773949672,
				"z": 1.0259501613,
				"element": "C" 
			},
			{
				"x": 0.7634669383,
				"y": 4.2233055882,
				"z": 0.0064992666,
				"element": "H" 
			},
			{
				"x": 0.7067480937,
				"y": 4.8134718134,
				"z": 1.6725784021,
				"element": "H" 
			},
			{
				"x": 1.7692290425,
				"y": 3.4595488779,
				"z": 1.2433047315,
				"element": "H" 
			},
			{
				"x": -1.8211956659,
				"y": 4.499647065,
				"z": 1.7384048313,
				"element": "H" 
			},
			{
				"x": -2.5412198095,
				"y": 2.9238517289,
				"z": 1.3587220334,
				"element": "H" 
			},
			{
				"x": -1.81922025,
				"y": 3.900921137,
				"z": 0.0744589327,
				"element": "H" 
			},
			{
				"x": -1.0689336149,
				"y": 1.9065112162,
				"z": 3.2014800081,
				"element": "H" 
			},
			{
				"x": -0.3692321686,
				"y": 3.5045456788,
				"z": 3.4791651322,
				"element": "H" 
			},
			{
				"x": 0.6904160482,
				"y": 2.1289277284,
				"z": 3.1556936254,
				"element": "H" 
			},
			{
				"x": -0.4005105139,
				"y": 2.7640564295,
				"z": -1.3499687188,
				"element": "H" 
			},
			{
				"x": -0.2050625707,
				"y": 0.7840577836,
				"z": -2.8119456827,
				"element": "H" 
			},
			{
				"x": -1.0439314006,
				"y": -2.8600147852,
				"z": -0.8596634317,
				"element": "H" 
			},
			{
				"x": -1.5561445326,
				"y": -2.668563065,
				"z": -2.5527810258,
				"element": "H" 
			},
			{
				"x": 0.575444316,
				"y": -3.915559581,
				"z": -3.2373144239,
				"element": "H" 
			},
			{
				"x": -0.5894932649,
				"y": -4.8881774747,
				"z": -2.34381362,
				"element": "H" 
			},
			{
				"x": 2.7441273039,
				"y": -5.3210926274,
				"z": -1.0067813047,
				"element": "H" 
			},
			{
				"x": 0.2578167402,
				"y": -1.7268034862,
				"z": 0.6289724446,
				"element": "H" 
			},
			{
				"x": 0.0212333729,
				"y": 0.2273203451,
				"z": 2.0979024815,
				"element": "H" 
			}
		],
		 "valence_orbital": [ 
			{
				"type": "occ",
				"energy": -0.31106,
				"method": "rhf"
			},
			{
				"type": "occ",
				"energy": -0.28254,
				"method": "rhf"
			},
			{
				"type": "occ",
				"energy": -0.27877,
				"method": "rhf"
			},
			{
				"type": "occ",
				"energy": -0.24099,
				"method": "rhf"
			},
			{
				"type": "occ",
				"energy": -0.21453,
				"method": "rhf"
			},
			{
				"type": "unocc",
				"energy": 0.0035,
				"method": "rhf"
			},
			{
				"type": "unocc",
				"energy": 0.00548,
				"method": "rhf"
			},
			{
				"type": "unocc",
				"energy": 0.0163,
				"method": "rhf"
			},
			{
				"type": "unocc",
				"energy": 0.07582,
				"method": "rhf"
			},
			{
				"type": "unocc",
				"energy": 0.08508,
				"method": "rhf"
			}
		],
		"cosmo_sigma_profile": { 
			"-0.025": 0.0,
			"-0.024": 0.0,
			"-0.023": 0.0,
			"-0.022": 0.0,
			"-0.021": 0.0,
			"-0.02": 0.0,
			"-0.019": 0.00233734482309,
			"-0.018": 0.748542172121,
			"-0.017": 0.944155998119,
			"-0.016": 0.768963461194,
			"-0.015": 0.910158833508,
			"-0.014": 0.642494518684,
			"-0.013": 0.962896182879,
			"-0.012": 0.558322571292,
			"-0.011": 0.50872609451,
			"-0.01": 0.901310201168,
			"-0.009": 0.495454506498,
			"-0.008": 1.72337757774,
			"-0.007": 4.42322902447,
			"-0.006": 6.71262510483,
			"-0.005": 14.4766998279,
			"-0.004": 16.6769512488,
			"-0.003": 26.8384800949,
			"-0.002": 31.6615541398,
			"-0.001": 27.0680335512,
			"0.0": 25.1561457692,
			"0.001": 28.91911509,
			"0.002": 18.8426558734,
			"0.003": 10.9632101296,
			"0.004": 13.9607186501,
			"0.005": 14.1211148396,
			"0.006": 11.361235522,
			"0.007": 5.9929574451,
			"0.008": 3.54792889755,
			"0.009": 4.01663446182,
			"0.01": 3.31521624701,
			"0.011": 3.93209355602,
			"0.012": 1.54051016653,
			"0.013": 0.0752816646665,
			"0.014": 0.0,
			"0.015": 0.0,
			"0.016": 0.0,
			"0.017": 0.0,
			"0.018": 0.0,
			"0.019": 0.0,
			"0.02": 0.0,
			"0.021": 0.0,
			"0.022": 0.0,
			"0.023": 0.0,
			"0.024": 0.0,
			"0.0": 0.0
		}
	}
}
