{
	 "smiles": "CN(C)S(=O)(=O)C1=C(Cl)C=CC(N)=C1", 
	 "Tm": 400.15, 
	 "num_atms": 25, 
	 "gaussian": { 
		 "optdone": 1, 
		 "sigma_profile": "yes", 
		 "theory": "DFT", 
		 "functional": "B3LYP", 
		 "basiset": "6-31G**", 
		 "properties": { 
			 "R2extent": 3821.9645, 
			 "electric_dipole_moment_norm": 6.93918311187, 
			 "electric_quadrupole_moment_norm": 20.0730708306, 
			 "total_energy": -1429.72685246, 
			 "HOMO_LUMO_gap": 0.1843, 
			 "cosmo_polarized_energy": -20.22, 
			 "cosmo_cavitation_energy": 31.18, 
			 "cosmo_dispersion_energy": -22.66, 
			 "cosmo_repulsion_energy": 1.74, 
			 "cosmo_total_nonelectrostatic_energy": 10.27, 
			 "SMD_solvation_energy": 4.87 
		},
		"coords": [
			{
				"x": -1.8743602157,
				"y": 1.2903428381,
				"z": 0.1368395385,
				"element": "C" 
			},
			{
				"x": -1.3913003311,
				"y": -0.0934586109,
				"z": 0.2286869437,
				"element": "N" 
			},
			{
				"x": -2.4083506329,
				"y": -1.0659307382,
				"z": 0.6496934367,
				"element": "C" 
			},
			{
				"x": -0.4017775991,
				"y": -0.5808369996,
				"z": -1.0668205296,
				"element": "S" 
			},
			{
				"x": -0.6781745757,
				"y": 0.2709862631,
				"z": -2.2269755693,
				"element": "O" 
			},
			{
				"x": -0.5035015807,
				"y": -2.0396489682,
				"z": -1.160741369,
				"element": "O" 
			},
			{
				"x": 1.2573353071,
				"y": -0.1694283431,
				"z": -0.4593993019,
				"element": "C" 
			},
			{
				"x": 2.3700899237,
				"y": -0.2620112337,
				"z": -1.3098679542,
				"element": "C" 
			},
			{
				"x": 2.2553183164,
				"y": -0.7792303192,
				"z": -2.9776196728,
				"element": "Cl" 
			},
			{
				"x": 3.6339401174,
				"y": 0.0460647281,
				"z": -0.8039495722,
				"element": "C" 
			},
			{
				"x": 3.8010996949,
				"y": 0.4346978469,
				"z": 0.5197806533,
				"element": "C" 
			},
			{
				"x": 2.6981559292,
				"y": 0.5163564466,
				"z": 1.3845805175,
				"element": "C" 
			},
			{
				"x": 2.8453561208,
				"y": 0.9471631154,
				"z": 2.700199281,
				"element": "N" 
			},
			{
				"x": 1.4276212404,
				"y": 0.2063905916,
				"z": 0.8731482603,
				"element": "C" 
			},
			{
				"x": -2.2725987741,
				"y": 1.5730872554,
				"z": 1.1160500543,
				"element": "H" 
			},
			{
				"x": -1.0498866734,
				"y": 1.9621428263,
				"z": -0.1064196436,
				"element": "H" 
			},
			{
				"x": -2.6581623388,
				"y": 1.4134972387,
				"z": -0.6209294524,
				"element": "H" 
			},
			{
				"x": -1.9724021112,
				"y": -2.0627666198,
				"z": 0.6856712592,
				"element": "H" 
			},
			{
				"x": -2.746225197,
				"y": -0.7842259826,
				"z": 1.6518268674,
				"element": "H" 
			},
			{
				"x": -3.2775777424,
				"y": -1.0836059372,
				"z": -0.0223212889,
				"element": "H" 
			},
			{
				"x": 4.4935712091,
				"y": -0.0265917593,
				"z": -1.4611674697,
				"element": "H" 
			},
			{
				"x": 4.7956064239,
				"y": 0.6742442134,
				"z": 0.8863777716,
				"element": "H" 
			},
			{
				"x": 2.1122176732,
				"y": 0.6668090683,
				"z": 3.3363202679,
				"element": "H" 
			},
			{
				"x": 3.7653505242,
				"y": 0.8239605899,
				"z": 3.0992183435,
				"element": "H" 
			},
			{
				"x": 0.5536552919,
				"y": 0.2528924903,
				"z": 1.5125186284,
				"element": "H" 
			}
		],
		 "valence_orbital": [ 
			{
				"type": "occ",
				"energy": -0.29431,
				"method": "rhf"
			},
			{
				"type": "occ",
				"energy": -0.29412,
				"method": "rhf"
			},
			{
				"type": "occ",
				"energy": -0.26856,
				"method": "rhf"
			},
			{
				"type": "occ",
				"energy": -0.25415,
				"method": "rhf"
			},
			{
				"type": "occ",
				"energy": -0.21707,
				"method": "rhf"
			},
			{
				"type": "unocc",
				"energy": -0.03277,
				"method": "rhf"
			},
			{
				"type": "unocc",
				"energy": -0.01013,
				"method": "rhf"
			},
			{
				"type": "unocc",
				"energy": 0.02301,
				"method": "rhf"
			},
			{
				"type": "unocc",
				"energy": 0.06057,
				"method": "rhf"
			},
			{
				"type": "unocc",
				"energy": 0.06623,
				"method": "rhf"
			}
		],
		"cosmo_sigma_profile": { 
			"-0.025": 0.0,
			"-0.024": 0.0,
			"-0.023": 0.0,
			"-0.022": 0.0,
			"-0.021": 0.0,
			"-0.02": 0.0,
			"-0.019": 0.0,
			"-0.018": 0.0,
			"-0.017": 0.0,
			"-0.016": 0.0,
			"-0.015": 0.0,
			"-0.014": 0.159894150749,
			"-0.013": 2.7089006247,
			"-0.012": 3.45087420214,
			"-0.011": 2.54783674627,
			"-0.01": 3.66805957116,
			"-0.009": 3.46871397931,
			"-0.008": 3.6716870641,
			"-0.007": 6.70551781415,
			"-0.006": 10.3919016253,
			"-0.005": 15.0159634375,
			"-0.004": 19.45424224,
			"-0.003": 20.2134192008,
			"-0.002": 22.8282803116,
			"-0.001": 12.8049294829,
			"0.0": 11.6837358757,
			"0.001": 12.203046599,
			"0.002": 19.4102314307,
			"0.003": 16.4863052468,
			"0.004": 12.4044515986,
			"0.005": 6.421456842,
			"0.006": 5.30454554411,
			"0.007": 4.76651141714,
			"0.008": 5.18084655019,
			"0.009": 5.43313491303,
			"0.01": 7.92344648574,
			"0.011": 11.0845252709,
			"0.012": 3.16361333871,
			"0.013": 0.529924120968,
			"0.014": 0.0478777819587,
			"0.015": 0.0,
			"0.016": 0.0,
			"0.017": 0.0,
			"0.018": 0.0,
			"0.019": 0.0,
			"0.02": 0.0,
			"0.021": 0.0,
			"0.022": 0.0,
			"0.023": 0.0,
			"0.024": 0.0,
			"0.025": 0.0
		}
	}
}
