{
	 "smiles": "CCOC(=O)C(=O)NC1=CC=C(C=C1)[N+]([O-])=O", 
	 "Tm": 446.15, 
	 "num_atms": 27, 
	 "gaussian": { 
		 "optdone": 1, 
		 "sigma_profile": "yes", 
		 "theory": "DFT", 
		 "functional": "B3LYP", 
		 "basiset": "6-31G**", 
		 "properties": { 
			 "R2extent": 5090.2908, 
			 "electric_dipole_moment_norm": 2.77823908798, 
			 "electric_quadrupole_moment_norm": 38.8162640155, 
			 "total_energy": -872.62418424, 
			 "HOMO_LUMO_gap": 0.16518, 
			 "cosmo_polarized_energy": -17.51, 
			 "cosmo_cavitation_energy": 33.53, 
			 "cosmo_dispersion_energy": -23.07, 
			 "cosmo_repulsion_energy": 1.82, 
			 "cosmo_total_nonelectrostatic_energy": 12.29, 
			 "SMD_solvation_energy": 9.82 
		},
		"coords": [
			{
				"x": -3.4476013379,
				"y": 0.3135296585,
				"z": -0.0148380468,
				"element": "C" 
			},
			{
				"x": -3.166575243,
				"y": 1.8051154714,
				"z": -0.085846252,
				"element": "C" 
			},
			{
				"x": -1.8047236906,
				"y": 2.0572173123,
				"z": -0.5431434668,
				"element": "O" 
			},
			{
				"x": -0.8554605481,
				"y": 2.1159056554,
				"z": 0.3926693975,
				"element": "C" 
			},
			{
				"x": -1.0100879331,
				"y": 1.9578553837,
				"z": 1.5847511985,
				"element": "O" 
			},
			{
				"x": 0.4735931764,
				"y": 2.5487898564,
				"z": -0.238397606,
				"element": "C" 
			},
			{
				"x": 0.651580885,
				"y": 3.7303764597,
				"z": -0.4741020083,
				"element": "O" 
			},
			{
				"x": 1.4334807262,
				"y": 1.6013639204,
				"z": -0.5193762337,
				"element": "N" 
			},
			{
				"x": 1.4394106618,
				"y": 0.2005251471,
				"z": -0.3651646285,
				"element": "C" 
			},
			{
				"x": 0.8626140166,
				"y": -0.4380397338,
				"z": 0.7454315747,
				"element": "C" 
			},
			{
				"x": 0.9129973942,
				"y": -1.8241893073,
				"z": 0.8485227895,
				"element": "C" 
			},
			{
				"x": 1.5624143435,
				"y": -2.5625931053,
				"z": -0.138316301,
				"element": "C" 
			},
			{
				"x": 2.1689061959,
				"y": -1.9452046975,
				"z": -1.2318678357,
				"element": "C" 
			},
			{
				"x": 2.1001209584,
				"y": -0.5638346902,
				"z": -1.3436584295,
				"element": "C" 
			},
			{
				"x": 1.6206552353,
				"y": -4.0235659944,
				"z": -0.0198862986,
				"element": "N" 
			},
			{
				"x": 2.2210157461,
				"y": -4.6434522722,
				"z": -0.8983132174,
				"element": "O" 
			},
			{
				"x": 1.0646975377,
				"y": -4.5405945389,
				"z": 0.9491481563,
				"element": "O" 
			},
			{
				"x": -3.2656076247,
				"y": -0.1653386873,
				"z": -0.981024639,
				"element": "H" 
			},
			{
				"x": -4.4953431247,
				"y": 0.1503165646,
				"z": 0.2574539732,
				"element": "H" 
			},
			{
				"x": -2.8205431464,
				"y": -0.1652521734,
				"z": 0.7413719691,
				"element": "H" 
			},
			{
				"x": -3.7906111113,
				"y": 2.3014332915,
				"z": -0.8313328487,
				"element": "H" 
			},
			{
				"x": -3.3002659358,
				"y": 2.2879575632,
				"z": 0.8841522767,
				"element": "H" 
			},
			{
				"x": 2.2099621586,
				"y": 2.0068271426,
				"z": -1.0308187382,
				"element": "H" 
			},
			{
				"x": 0.4015907397,
				"y": 0.146183911,
				"z": 1.5314379245,
				"element": "H" 
			},
			{
				"x": 0.4771374482,
				"y": -2.3387380273,
				"z": 1.6957609146,
				"element": "H" 
			},
			{
				"x": 2.6695585361,
				"y": -2.5508453545,
				"z": -1.9766603497,
				"element": "H" 
			},
			{
				"x": 2.5477839358,
				"y": -0.0676487556,
				"z": -2.1997532749,
				"element": "H" 
			}
		],
		 "valence_orbital": [ 
			{
				"type": "occ",
				"energy": -0.31086,
				"method": "rhf"
			},
			{
				"type": "occ",
				"energy": -0.29441,
				"method": "rhf"
			},
			{
				"type": "occ",
				"energy": -0.29033,
				"method": "rhf"
			},
			{
				"type": "occ",
				"energy": -0.27448,
				"method": "rhf"
			},
			{
				"type": "occ",
				"energy": -0.25998,
				"method": "rhf"
			},
			{
				"type": "unocc",
				"energy": -0.0948,
				"method": "rhf"
			},
			{
				"type": "unocc",
				"energy": -0.04261,
				"method": "rhf"
			},
			{
				"type": "unocc",
				"energy": -0.02904,
				"method": "rhf"
			},
			{
				"type": "unocc",
				"energy": -0.01545,
				"method": "rhf"
			},
			{
				"type": "unocc",
				"energy": 0.01135,
				"method": "rhf"
			}
		],
		"cosmo_sigma_profile": { 
			"-0.025": 0.0,
			"-0.024": 0.0,
			"-0.023": 0.0,
			"-0.022": 0.0,
			"-0.021": 0.0,
			"-0.02": 0.0,
			"-0.019": 0.0,
			"-0.018": 0.0,
			"-0.017": 0.0889288429733,
			"-0.016": 1.12431301689,
			"-0.015": 1.42715932976,
			"-0.014": 0.945453292547,
			"-0.013": 1.24255526468,
			"-0.012": 1.5947934131,
			"-0.011": 0.790968411273,
			"-0.01": 1.31148783737,
			"-0.009": 2.11500845098,
			"-0.008": 4.28929822511,
			"-0.007": 7.29864294284,
			"-0.006": 10.9469061685,
			"-0.005": 16.511751563,
			"-0.004": 21.9777590795,
			"-0.003": 23.0808009945,
			"-0.002": 21.6587762499,
			"-0.001": 25.0229662542,
			"0.0": 25.3140674119,
			"0.001": 16.7449900746,
			"0.002": 8.59909244255,
			"0.003": 6.46148647713,
			"0.004": 5.53088329713,
			"0.005": 8.61758486552,
			"0.006": 7.27026538388,
			"0.007": 10.3551139148,
			"0.008": 11.1746480289,
			"0.009": 8.77553130464,
			"0.01": 9.16210354708,
			"0.011": 6.46071161969,
			"0.012": 1.87178888405,
			"0.013": 0.0,
			"0.014": 0.0,
			"0.015": 0.0,
			"0.016": 0.0,
			"0.017": 0.0,
			"0.018": 0.0,
			"0.019": 0.0,
			"0.02": 0.0,
			"0.021": 0.0,
			"0.022": 0.0,
			"0.023": 0.0,
			"0.024": 0.0,
			"0.025": 0.0
		}
	}
}
