{
	 "smiles": "COC1=CC2=C(NC=C2C2=CCNCC2)C=C1", 
	 "Tm": 455.15, 
	 "num_atms": 33, 
	 "gaussian": { 
		 "optdone": 1, 
		 "sigma_profile": "yes", 
		 "theory": "DFT", 
		 "functional": "B3LYP", 
		 "basiset": "6-31G**", 
		 "properties": { 
			 "R2extent": 5237.204, 
			 "electric_dipole_moment_norm": 2.63817885861, 
			 "electric_quadrupole_moment_norm": 16.8025164234, 
			 "total_energy": -727.829528615, 
			 "HOMO_LUMO_gap": 0.17048, 
			 "cosmo_polarized_energy": -14.85, 
			 "cosmo_cavitation_energy": 34.63, 
			 "cosmo_dispersion_energy": -25.98, 
			 "cosmo_repulsion_energy": 2.01, 
			 "cosmo_total_nonelectrostatic_energy": 10.66, 
			 "SMD_solvation_energy": 3.51 
		},
		"coords": [
			{
				"x": -2.9607345184,
				"y": -4.1467782155,
				"z": -1.9502930898,
				"element": "C" 
			},
			{
				"x": -2.2985568098,
				"y": -3.2834990214,
				"z": -1.0466091475,
				"element": "O" 
			},
			{
				"x": -1.7066120097,
				"y": -2.1469480419,
				"z": -1.5428367204,
				"element": "C" 
			},
			{
				"x": -1.08705711,
				"y": -1.3338262835,
				"z": -0.5938338398,
				"element": "C" 
			},
			{
				"x": -0.4529847675,
				"y": -0.1528356536,
				"z": -1.0056345689,
				"element": "C" 
			},
			{
				"x": -0.490069368,
				"y": 0.1921852014,
				"z": -2.3857038081,
				"element": "C" 
			},
			{
				"x": 0.1482211579,
				"y": 1.4115213744,
				"z": -2.5243138806,
				"element": "N" 
			},
			{
				"x": 0.5760970532,
				"y": 1.8397875934,
				"z": -1.287875373,
				"element": "C" 
			},
			{
				"x": 0.2502292605,
				"y": 0.9161644699,
				"z": -0.3139824956,
				"element": "C" 
			},
			{
				"x": 0.5618898061,
				"y": 1.0355970121,
				"z": 1.1166627237,
				"element": "C" 
			},
			{
				"x": 0.6947829653,
				"y": -0.0315356417,
				"z": 1.9268025962,
				"element": "C" 
			},
			{
				"x": 0.945702889,
				"y": 0.0637552904,
				"z": 3.4073222052,
				"element": "C" 
			},
			{
				"x": 0.7323994014,
				"y": 1.4231281208,
				"z": 3.8992548744,
				"element": "N" 
			},
			{
				"x": 1.408199001,
				"y": 2.4083176006,
				"z": 3.0591552432,
				"element": "C" 
			},
			{
				"x": 0.7346961586,
				"y": 2.4340606115,
				"z": 1.6846558222,
				"element": "C" 
			},
			{
				"x": -1.1058799477,
				"y": -0.6177870021,
				"z": -3.3377091969,
				"element": "C" 
			},
			{
				"x": -1.7111117542,
				"y": -1.7973134779,
				"z": -2.9100715069,
				"element": "C" 
			},
			{
				"x": -2.2752930681,
				"y": -4.5565254369,
				"z": -2.7049806494,
				"element": "H" 
			},
			{
				"x": -3.3575897799,
				"y": -4.9674756091,
				"z": -1.3495832444,
				"element": "H" 
			},
			{
				"x": -3.7927602209,
				"y": -3.6450620736,
				"z": -2.4632905536,
				"element": "H" 
			},
			{
				"x": -1.1293186309,
				"y": -1.6317614255,
				"z": 0.4465794224,
				"element": "H" 
			},
			{
				"x": 0.2743972734,
				"y": 1.9115481684,
				"z": -3.3883004575,
				"element": "H" 
			},
			{
				"x": 1.1046220191,
				"y": 2.7772520212,
				"z": -1.1957061194,
				"element": "H" 
			},
			{
				"x": 0.6459532611,
				"y": -1.0363759981,
				"z": 1.5186185997,
				"element": "H" 
			},
			{
				"x": 1.9683045553,
				"y": -0.3176353797,
				"z": 3.6159390422,
				"element": "H" 
			},
			{
				"x": 0.2600763717,
				"y": -0.6123177203,
				"z": 3.9376413615,
				"element": "H" 
			},
			{
				"x": 1.0592579118,
				"y": 1.4948067609,
				"z": 4.8581949854,
				"element": "H" 
			},
			{
				"x": 2.4870655685,
				"y": 2.1935997246,
				"z": 2.9267009994,
				"element": "H" 
			},
			{
				"x": 1.3301050248,
				"y": 3.3917435807,
				"z": 3.5353237215,
				"element": "H" 
			},
			{
				"x": -0.2458178525,
				"y": 2.9225364572,
				"z": 1.7572112594,
				"element": "H" 
			},
			{
				"x": 1.3396104992,
				"y": 3.0475727268,
				"z": 1.0049236337,
				"element": "H" 
			},
			{
				"x": -1.1238207007,
				"y": -0.34185825,
				"z": -4.3884382365,
				"element": "H" 
			},
			{
				"x": -2.1911036395,
				"y": -2.4363414835,
				"z": -3.6410236019,
				"element": "H" 
			}
		],
		 "valence_orbital": [ 
			{
				"type": "occ",
				"energy": -0.27984,
				"method": "rhf"
			},
			{
				"type": "occ",
				"energy": -0.2335,
				"method": "rhf"
			},
			{
				"type": "occ",
				"energy": -0.21221,
				"method": "rhf"
			},
			{
				"type": "occ",
				"energy": -0.19895,
				"method": "rhf"
			},
			{
				"type": "occ",
				"energy": -0.17841,
				"method": "rhf"
			},
			{
				"type": "unocc",
				"energy": -0.00793,
				"method": "rhf"
			},
			{
				"type": "unocc",
				"energy": 0.02126,
				"method": "rhf"
			},
			{
				"type": "unocc",
				"energy": 0.04398,
				"method": "rhf"
			},
			{
				"type": "unocc",
				"energy": 0.08186,
				"method": "rhf"
			},
			{
				"type": "unocc",
				"energy": 0.08889,
				"method": "rhf"
			}
		],
		"cosmo_sigma_profile": { 
			"-0.025": 0.0,
			"-0.024": 0.0,
			"-0.023": 0.0,
			"-0.022": 0.0,
			"-0.021": 0.0,
			"-0.02": 0.0,
			"-0.019": 0.0,
			"-0.018": 0.0,
			"-0.017": 0.0,
			"-0.016": 0.336426667177,
			"-0.015": 1.54291232265,
			"-0.014": 1.52824925031,
			"-0.013": 1.26949925147,
			"-0.012": 0.993215508668,
			"-0.011": 0.816206934386,
			"-0.01": 2.34768248484,
			"-0.009": 3.17811234412,
			"-0.008": 3.6726752859,
			"-0.007": 5.18300665285,
			"-0.006": 8.71719163439,
			"-0.005": 14.8672128997,
			"-0.004": 19.7227695362,
			"-0.003": 25.7600249193,
			"-0.002": 26.3173952395,
			"-0.001": 28.1918259559,
			"0.0": 19.1576095176,
			"0.001": 11.2394803853,
			"0.002": 11.0221064623,
			"0.003": 10.6636076359,
			"0.004": 13.1552712383,
			"0.005": 18.7352569365,
			"0.006": 21.2709636391,
			"0.007": 8.95955195538,
			"0.008": 2.44456745263,
			"0.009": 3.29072845274,
			"0.01": 2.16087855285,
			"0.011": 2.35746995639,
			"0.012": 0.926509085825,
			"0.013": 0.466755982157,
			"0.014": 0.940754380552,
			"0.015": 0.346473000582,
			"0.016": 0.687828039369,
			"0.017": 0.478858615219,
			"0.018": 0.49090029778,
			"0.019": 0.143030701159,
			"0.02": 0.0,
			"0.021": 0.0,
			"0.022": 0.0,
			"0.023": 0.0,
			"0.024": 0.0,
			"0.025": 0.0
		}
	}
}
