{
	 "smiles": "CC(=O)C1=CSC(=N1)C1=NOC(C)=C1", 
	 "Tm": 404.15, 
	 "num_atms": 22, 
	 "gaussian": { 
		 "optdone": 1, 
		 "sigma_profile": "yes", 
		 "theory": "DFT", 
		 "functional": "B3LYP", 
		 "basiset": "6-31G**", 
		 "properties": { 
			 "R2extent": 4132.5476, 
			 "electric_dipole_moment_norm": 0.876657390318, 
			 "electric_quadrupole_moment_norm": 25.7947754896, 
			 "total_energy": -1005.86194164, 
			 "HOMO_LUMO_gap": 0.181, 
			 "cosmo_polarized_energy": -15.71, 
			 "cosmo_cavitation_energy": 29.47, 
			 "cosmo_dispersion_energy": -21.91, 
			 "cosmo_repulsion_energy": 1.69, 
			 "cosmo_total_nonelectrostatic_energy": 9.25, 
			 "SMD_solvation_energy": 4.51 
		},
		"coords": [
			{
				"x": 1.6479377022,
				"y": -4.2460946182,
				"z": 0.7533397747,
				"element": "C" 
			},
			{
				"x": 0.9817811991,
				"y": -3.3082995417,
				"z": -0.240385713,
				"element": "C" 
			},
			{
				"x": 0.6395409216,
				"y": -3.6861672857,
				"z": -1.3454864819,
				"element": "O" 
			},
			{
				"x": 0.7608703445,
				"y": -1.8929395362,
				"z": 0.1903770637,
				"element": "C" 
			},
			{
				"x": 1.1078677348,
				"y": -1.3615538263,
				"z": 1.4118273783,
				"element": "C" 
			},
			{
				"x": 0.679015066,
				"y": 0.3048188658,
				"z": 1.5033391958,
				"element": "S" 
			},
			{
				"x": 0.0474482777,
				"y": 0.174864918,
				"z": -0.1429709848,
				"element": "C" 
			},
			{
				"x": 0.1611587061,
				"y": -1.0056850943,
				"z": -0.6763890315,
				"element": "N" 
			},
			{
				"x": -0.5493533335,
				"y": 1.3153968685,
				"z": -0.8280922395,
				"element": "C" 
			},
			{
				"x": -0.6369719852,
				"y": 2.4893913008,
				"z": -0.2333332655,
				"element": "N" 
			},
			{
				"x": -1.2462270878,
				"y": 3.323682932,
				"z": -1.1610131045,
				"element": "O" 
			},
			{
				"x": -1.5111405342,
				"y": 2.627973893,
				"z": -2.2956043952,
				"element": "C" 
			},
			{
				"x": -2.1686502926,
				"y": 3.3775117972,
				"z": -3.4011740319,
				"element": "C" 
			},
			{
				"x": -1.0907353181,
				"y": 1.3415663268,
				"z": -2.1464354409,
				"element": "C" 
			},
			{
				"x": 2.6437430541,
				"y": -3.881610148,
				"z": 1.0293852306,
				"element": "H" 
			},
			{
				"x": 1.0581310776,
				"y": -4.325488856,
				"z": 1.6733904338,
				"element": "H" 
			},
			{
				"x": 1.738618521,
				"y": -5.2320910795,
				"z": 0.2969767262,
				"element": "H" 
			},
			{
				"x": 1.5845428633,
				"y": -1.8549240657,
				"z": 2.246660989,
				"element": "H" 
			},
			{
				"x": -2.3302023558,
				"y": 2.7183013924,
				"z": -4.2559466866,
				"element": "H" 
			},
			{
				"x": -1.5500029915,
				"y": 4.2219245866,
				"z": -3.7222926733,
				"element": "H" 
			},
			{
				"x": -3.1358454054,
				"y": 3.7779672293,
				"z": -3.0801754237,
				"element": "H" 
			},
			{
				"x": -1.1444261638,
				"y": 0.5222539414,
				"z": -2.8449973196,
				"element": "H" 
			}
		],
		 "valence_orbital": [ 
			{
				"type": "occ",
				"energy": -0.29558,
				"method": "rhf"
			},
			{
				"type": "occ",
				"energy": -0.28844,
				"method": "rhf"
			},
			{
				"type": "occ",
				"energy": -0.26632,
				"method": "rhf"
			},
			{
				"type": "occ",
				"energy": -0.25042,
				"method": "rhf"
			},
			{
				"type": "occ",
				"energy": -0.24908,
				"method": "rhf"
			},
			{
				"type": "unocc",
				"energy": -0.06808,
				"method": "rhf"
			},
			{
				"type": "unocc",
				"energy": -0.04516,
				"method": "rhf"
			},
			{
				"type": "unocc",
				"energy": 0.00201,
				"method": "rhf"
			},
			{
				"type": "unocc",
				"energy": 0.00848,
				"method": "rhf"
			},
			{
				"type": "unocc",
				"energy": 0.0733,
				"method": "rhf"
			}
		],
		"cosmo_sigma_profile": { 
			"-0.025": 0.0,
			"-0.024": 0.0,
			"-0.023": 0.0,
			"-0.022": 0.0,
			"-0.021": 0.0,
			"-0.02": 0.0,
			"-0.019": 0.0,
			"-0.018": 0.0,
			"-0.017": 0.0,
			"-0.016": 0.0,
			"-0.015": 0.0,
			"-0.014": 0.0,
			"-0.013": 0.0,
			"-0.012": 0.0,
			"-0.011": 0.626336028983,
			"-0.01": 2.24590932772,
			"-0.009": 2.77942480067,
			"-0.008": 3.97471978991,
			"-0.007": 8.39484184213,
			"-0.006": 16.3180175928,
			"-0.005": 15.067402883,
			"-0.004": 14.5813507817,
			"-0.003": 17.5056777632,
			"-0.002": 24.1802357342,
			"-0.001": 24.4201623575,
			"0.0": 23.966983102,
			"0.001": 18.5373205114,
			"0.002": 8.95356550906,
			"0.003": 5.24206333114,
			"0.004": 4.95454682263,
			"0.005": 5.19539336545,
			"0.006": 4.73538121821,
			"0.007": 6.91674735011,
			"0.008": 5.18616939443,
			"0.009": 4.38522214673,
			"0.01": 3.89519674569,
			"0.011": 5.46197509389,
			"0.012": 5.42034505256,
			"0.013": 2.4648236078,
			"0.014": 1.42559687371,
			"0.015": 1.14458418413,
			"0.016": 0.688297629322,
			"0.017": 0.0280661758673,
			"0.018": 0.0,
			"0.019": 0.0,
			"0.02": 0.0,
			"0.021": 0.0,
			"0.022": 0.0,
			"0.023": 0.0,
			"0.024": 0.0,
			"0.025": 0.0
		}
	}
}
