{
	 "smiles": "CCOC1=NC(F)=CC2=NC(=NN12)S(=O)(=O)NC1=C(Cl)C=CC=C1Cl", 
	 "Tm": 493.15, 
	 "num_atms": 35, 
	 "gaussian": { 
		 "optdone": 1, 
		 "sigma_profile": "yes", 
		 "theory": "DFT", 
		 "functional": "B3LYP", 
		 "basiset": "6-31G**", 
		 "properties": { 
			 "R2extent": 12798.3509, 
			 "electric_dipole_moment_norm": 6.73663836791, 
			 "electric_quadrupole_moment_norm": 36.4613645097, 
			 "total_energy": -2419.13978642, 
			 "HOMO_LUMO_gap": 0.19388, 
			 "cosmo_polarized_energy": -22.47, 
			 "cosmo_cavitation_energy": 46.39, 
			 "cosmo_dispersion_energy": -32.61, 
			 "cosmo_repulsion_energy": 2.43, 
			 "cosmo_total_nonelectrostatic_energy": 16.21, 
			 "SMD_solvation_energy": 3.98 
		},
		"coords": [
			{
				"x": 0.0860157902,
				"y": 3.6477240569,
				"z": -3.4110795409,
				"element": "C" 
			},
			{
				"x": -0.7461665325,
				"y": 2.3839009993,
				"z": -3.4747907881,
				"element": "C" 
			},
			{
				"x": -0.1160606887,
				"y": 1.418012231,
				"z": -2.5845261,
				"element": "O" 
			},
			{
				"x": -0.6770923146,
				"y": 0.2315778524,
				"z": -2.4861368151,
				"element": "C" 
			},
			{
				"x": -1.7574889589,
				"y": -0.1256391346,
				"z": -3.1295540012,
				"element": "N" 
			},
			{
				"x": -2.2288105914,
				"y": -1.3728392227,
				"z": -2.9405100198,
				"element": "C" 
			},
			{
				"x": -3.3323894681,
				"y": -1.6503811214,
				"z": -3.6353026256,
				"element": "F" 
			},
			{
				"x": -1.6860397167,
				"y": -2.3335111677,
				"z": -2.1264987394,
				"element": "C" 
			},
			{
				"x": -0.5188740624,
				"y": -1.9427771558,
				"z": -1.4346433829,
				"element": "C" 
			},
			{
				"x": 0.2897683215,
				"y": -2.5579133341,
				"z": -0.5770459934,
				"element": "N" 
			},
			{
				"x": 1.2085421702,
				"y": -1.5995550314,
				"z": -0.3069080099,
				"element": "C" 
			},
			{
				"x": 1.0824157582,
				"y": -0.423450437,
				"z": -0.8984556041,
				"element": "N" 
			},
			{
				"x": -0.0443512353,
				"y": -0.6444657296,
				"z": -1.640554043,
				"element": "N" 
			},
			{
				"x": 2.5895883519,
				"y": -1.9478155828,
				"z": 0.7976054955,
				"element": "S" 
			},
			{
				"x": 3.2579951427,
				"y": -3.1132805422,
				"z": 0.2369456973,
				"element": "O" 
			},
			{
				"x": 3.2718824787,
				"y": -0.6984257255,
				"z": 1.094815089,
				"element": "O" 
			},
			{
				"x": 1.8111474712,
				"y": -2.4654698952,
				"z": 2.221469985,
				"element": "N" 
			},
			{
				"x": 1.5482306536,
				"y": -1.5825347482,
				"z": 3.2946369372,
				"element": "C" 
			},
			{
				"x": 0.2560608765,
				"y": -1.0950552417,
				"z": 3.5720257916,
				"element": "C" 
			},
			{
				"x": -1.086956093,
				"y": -1.5747470543,
				"z": 2.5464145237,
				"element": "Cl" 
			},
			{
				"x": -0.0062279839,
				"y": -0.2603491844,
				"z": 4.6548130346,
				"element": "C" 
			},
			{
				"x": 1.0429687936,
				"y": 0.1221396145,
				"z": 5.4872671048,
				"element": "C" 
			},
			{
				"x": 2.3317128908,
				"y": -0.3526344274,
				"z": 5.2577918829,
				"element": "C" 
			},
			{
				"x": 2.5765224487,
				"y": -1.2109017944,
				"z": 4.1865077204,
				"element": "C" 
			},
			{
				"x": 4.1826959187,
				"y": -1.8631342837,
				"z": 4.0024751923,
				"element": "Cl" 
			},
			{
				"x": 1.1115441232,
				"y": 3.4578206382,
				"z": -3.7382023003,
				"element": "H" 
			},
			{
				"x": -0.3535166555,
				"y": 4.4037739202,
				"z": -4.0685884145,
				"element": "H" 
			},
			{
				"x": 0.114188778,
				"y": 4.0470161483,
				"z": -2.3939130637,
				"element": "H" 
			},
			{
				"x": -1.7749181564,
				"y": 2.540774908,
				"z": -3.1384357624,
				"element": "H" 
			},
			{
				"x": -0.7798912205,
				"y": 1.9535599023,
				"z": -4.4796137029,
				"element": "H" 
			},
			{
				"x": -2.109274404,
				"y": -3.3217905323,
				"z": -2.0183888175,
				"element": "H" 
			},
			{
				"x": 1.0900271171,
				"y": -3.1511657177,
				"z": 2.0126140044,
				"element": "H" 
			},
			{
				"x": -1.0179532755,
				"y": 0.0860488995,
				"z": 4.8304704498,
				"element": "H" 
			},
			{
				"x": 0.8522302257,
				"y": 0.7831029595,
				"z": 6.3266690635,
				"element": "H" 
			},
			{
				"x": 3.1503740468,
				"y": -0.0807150663,
				"z": 5.9137257526,
				"element": "H" 
			}
		],
		 "valence_orbital": [ 
			{
				"type": "occ",
				"energy": -0.30187,
				"method": "rhf"
			},
			{
				"type": "occ",
				"energy": -0.29634,
				"method": "rhf"
			},
			{
				"type": "occ",
				"energy": -0.25758,
				"method": "rhf"
			},
			{
				"type": "occ",
				"energy": -0.25496,
				"method": "rhf"
			},
			{
				"type": "occ",
				"energy": -0.25152,
				"method": "rhf"
			},
			{
				"type": "unocc",
				"energy": -0.05764,
				"method": "rhf"
			},
			{
				"type": "unocc",
				"energy": -0.04536,
				"method": "rhf"
			},
			{
				"type": "unocc",
				"energy": -0.03676,
				"method": "rhf"
			},
			{
				"type": "unocc",
				"energy": -0.02939,
				"method": "rhf"
			},
			{
				"type": "unocc",
				"energy": -0.00053,
				"method": "rhf"
			}
		],
		"cosmo_sigma_profile": { 
			"-0.025": 0.0,
			"-0.024": 0.0,
			"-0.023": 0.0,
			"-0.022": 0.0,
			"-0.021": 0.0,
			"-0.02": 0.0,
			"-0.019": 0.0,
			"-0.018": 0.0,
			"-0.017": 0.0,
			"-0.016": 0.0471143802707,
			"-0.015": 0.340742054107,
			"-0.014": 0.812935135728,
			"-0.013": 1.03454047906,
			"-0.012": 0.53882510411,
			"-0.011": 0.702283276235,
			"-0.01": 2.53287690709,
			"-0.009": 4.41232316537,
			"-0.008": 8.98660624461,
			"-0.007": 13.7273500938,
			"-0.006": 19.7183603937,
			"-0.005": 22.3537152104,
			"-0.004": 24.2194572687,
			"-0.003": 25.8555966094,
			"-0.002": 26.8135877955,
			"-0.001": 30.522855335,
			"0.0": 30.0436163391,
			"0.001": 26.0516830114,
			"0.002": 29.2794783632,
			"0.003": 24.7058487425,
			"0.004": 16.6156435048,
			"0.005": 10.3457317033,
			"0.006": 8.56044198795,
			"0.007": 8.81534106221,
			"0.008": 8.7826710784,
			"0.009": 14.7553540497,
			"0.01": 12.3575038689,
			"0.011": 2.70820252001,
			"0.012": 1.82615151562,
			"0.013": 0.194466710864,
			"0.014": 0.0,
			"0.015": 0.0,
			"0.016": 0.0,
			"0.017": 0.0,
			"0.018": 0.0,
			"0.019": 0.0,
			"0.02": 0.0,
			"0.021": 0.0,
			"0.022": 0.0,
			"0.023": 0.0,
			"0.024": 0.0,
			"0.025": 0.0
		}
	}
}
