{
	 "smiles": "COC(=O)C1=CC=C(CNS(C)(=O)=O)C=C1S(=O)(=O)NC(=O)NC1=NC(OC)=CC(OC)=N1", 
	 "Tm": 468.15, 
	 "num_atms": 54, 
	 "gaussian": { 
		 "optdone": 1, 
		 "sigma_profile": "yes", 
		 "theory": "DFT", 
		 "functional": "B3LYP", 
		 "basiset": "6-31G**", 
		 "properties": { 
			 "R2extent": 20058.5414, 
			 "electric_dipole_moment_norm": 3.82093132495, 
			 "electric_quadrupole_moment_norm": 30.4371069223, 
			 "total_energy": -2407.5017127, 
			 "HOMO_LUMO_gap": 0.15752, 
			 "cosmo_polarized_energy": -37.69, 
			 "cosmo_cavitation_energy": 63.04, 
			 "cosmo_dispersion_energy": -41.52, 
			 "cosmo_repulsion_energy": 3.13, 
			 "cosmo_total_nonelectrostatic_energy": 24.65, 
			 "SMD_solvation_energy": 11.57 
		},
		"coords": [
			{
				"x": 5.6800764681,
				"y": 2.2563373392,
				"z": 0.0484234168,
				"element": "C" 
			},
			{
				"x": 4.57371092,
				"y": 1.6448664482,
				"z": -0.6407864733,
				"element": "O" 
			},
			{
				"x": 4.1150490276,
				"y": 0.5063604751,
				"z": -0.0818039491,
				"element": "C" 
			},
			{
				"x": 4.5744791271,
				"y": 0.0180888859,
				"z": 0.9268765922,
				"element": "O" 
			},
			{
				"x": 3.0036918588,
				"y": -0.0970267599,
				"z": -0.8840196124,
				"element": "C" 
			},
			{
				"x": 2.9377203059,
				"y": 0.1553999978,
				"z": -2.2581982331,
				"element": "C" 
			},
			{
				"x": 1.9826030802,
				"y": -0.4635623674,
				"z": -3.064406371,
				"element": "C" 
			},
			{
				"x": 1.0552975284,
				"y": -1.3429470132,
				"z": -2.5072564164,
				"element": "C" 
			},
			{
				"x": -0.0020112489,
				"y": -2.0149870206,
				"z": -3.3596030989,
				"element": "C" 
			},
			{
				"x": 0.1317479699,
				"y": -3.4855023052,
				"z": -3.3533528448,
				"element": "N" 
			},
			{
				"x": 1.3004938047,
				"y": -4.1663521493,
				"z": -4.3935218394,
				"element": "S" 
			},
			{
				"x": 2.6197683473,
				"y": -4.6124060291,
				"z": -3.2581028713,
				"element": "C" 
			},
			{
				"x": 1.8135405255,
				"y": -3.1252554726,
				"z": -5.2922721535,
				"element": "O" 
			},
			{
				"x": 0.6984225962,
				"y": -5.3973819168,
				"z": -4.9120360982,
				"element": "O" 
			},
			{
				"x": 1.1021728268,
				"y": -1.5916726486,
				"z": -1.1279019118,
				"element": "C" 
			},
			{
				"x": 2.0572571365,
				"y": -0.9811082116,
				"z": -0.3195238686,
				"element": "C" 
			},
			{
				"x": 2.0117541144,
				"y": -1.3203855333,
				"z": 1.4709528548,
				"element": "S" 
			},
			{
				"x": 1.9668280982,
				"y": -0.0305364007,
				"z": 2.166441619,
				"element": "O" 
			},
			{
				"x": 2.9487078245,
				"y": -2.3839295534,
				"z": 1.8068837084,
				"element": "O" 
			},
			{
				"x": 0.4914788615,
				"y": -2.0302091614,
				"z": 1.7098974021,
				"element": "N" 
			},
			{
				"x": -0.8229662436,
				"y": -1.4817409653,
				"z": 1.6304476723,
				"element": "C" 
			},
			{
				"x": -1.7497157686,
				"y": -2.2261435867,
				"z": 1.3848247079,
				"element": "O" 
			},
			{
				"x": -0.8620714363,
				"y": -0.131491623,
				"z": 1.880848452,
				"element": "N" 
			},
			{
				"x": -1.9676746882,
				"y": 0.7223472467,
				"z": 1.8282589613,
				"element": "C" 
			},
			{
				"x": -1.6987896423,
				"y": 1.9518997527,
				"z": 2.2866836024,
				"element": "N" 
			},
			{
				"x": -2.720314539,
				"y": 2.8135921691,
				"z": 2.2514915638,
				"element": "C" 
			},
			{
				"x": -2.5335421233,
				"y": 4.0684789044,
				"z": 2.6907886481,
				"element": "O" 
			},
			{
				"x": -1.2337917048,
				"y": 4.4106857409,
				"z": 3.1892416384,
				"element": "C" 
			},
			{
				"x": -3.9903634648,
				"y": 2.4746223807,
				"z": 1.7800553159,
				"element": "C" 
			},
			{
				"x": -4.1224379996,
				"y": 1.1599510643,
				"z": 1.3322522979,
				"element": "C" 
			},
			{
				"x": -5.3204742234,
				"y": 0.7714667435,
				"z": 0.8701582104,
				"element": "O" 
			},
			{
				"x": -5.4468518664,
				"y": -0.5893777275,
				"z": 0.4299704361,
				"element": "C" 
			},
			{
				"x": -3.1185697654,
				"y": 0.2741907595,
				"z": 1.3405695572,
				"element": "N" 
			},
			{
				"x": 5.9138049365,
				"y": 3.1575116342,
				"z": -0.5174709791,
				"element": "H" 
			},
			{
				"x": 6.5379858487,
				"y": 1.5800265209,
				"z": 0.0708876402,
				"element": "H" 
			},
			{
				"x": 5.3974747404,
				"y": 2.5043722447,
				"z": 1.0738470766,
				"element": "H" 
			},
			{
				"x": 3.6599846468,
				"y": 0.835441657,
				"z": -2.6936118036,
				"element": "H" 
			},
			{
				"x": 1.9691185126,
				"y": -0.2733863177,
				"z": -4.132954879,
				"element": "H" 
			},
			{
				"x": 0.0278929926,
				"y": -1.6068858265,
				"z": -4.3752257314,
				"element": "H" 
			},
			{
				"x": -0.9920078109,
				"y": -1.8069270226,
				"z": -2.9402391294,
				"element": "H" 
			},
			{
				"x": -0.7413663817,
				"y": -3.9677354731,
				"z": -3.553738561,
				"element": "H" 
			},
			{
				"x": 2.2310318497,
				"y": -5.3337784171,
				"z": -2.5395617142,
				"element": "H" 
			},
			{
				"x": 3.4156951465,
				"y": -5.055913523,
				"z": -3.8591151165,
				"element": "H" 
			},
			{
				"x": 2.9761507895,
				"y": -3.7119064162,
				"z": -2.7574435579,
				"element": "H" 
			},
			{
				"x": 0.3679183152,
				"y": -2.2630910257,
				"z": -0.6988866871,
				"element": "H" 
			},
			{
				"x": 0.4947428447,
				"y": -3.041264349,
				"z": 1.6300548995,
				"element": "H" 
			},
			{
				"x": -0.0070874194,
				"y": 0.3068982409,
				"z": 2.2166168753,
				"element": "H" 
			},
			{
				"x": -1.3101276474,
				"y": 5.4556413613,
				"z": 3.4914291806,
				"element": "H" 
			},
			{
				"x": -0.9635492993,
				"y": 3.7856721448,
				"z": 4.04436711,
				"element": "H" 
			},
			{
				"x": -0.4717186029,
				"y": 4.2931922592,
				"z": 2.4142851182,
				"element": "H" 
			},
			{
				"x": -4.8100683172,
				"y": 3.1791091261,
				"z": 1.7662696325,
				"element": "H" 
			},
			{
				"x": -4.8109676204,
				"y": -0.7791698926,
				"z": -0.4388217746,
				"element": "H" 
			},
			{
				"x": -5.1663251801,
				"y": -1.2871705699,
				"z": 1.2219613402,
				"element": "H" 
			},
			{
				"x": -6.4982080508,
				"y": -0.7054078186,
				"z": 0.1647701455,
				"element": "H" 
			}
		],
		 "valence_orbital": [ 
			{
				"type": "occ",
				"energy": -0.28124,
				"method": "rhf"
			},
			{
				"type": "occ",
				"energy": -0.27938,
				"method": "rhf"
			},
			{
				"type": "occ",
				"energy": -0.27266,
				"method": "rhf"
			},
			{
				"type": "occ",
				"energy": -0.26252,
				"method": "rhf"
			},
			{
				"type": "occ",
				"energy": -0.23392,
				"method": "rhf"
			},
			{
				"type": "unocc",
				"energy": -0.0764,
				"method": "rhf"
			},
			{
				"type": "unocc",
				"energy": -0.05072,
				"method": "rhf"
			},
			{
				"type": "unocc",
				"energy": -0.02772,
				"method": "rhf"
			},
			{
				"type": "unocc",
				"energy": -0.00524,
				"method": "rhf"
			},
			{
				"type": "unocc",
				"energy": 0.02135,
				"method": "rhf"
			}
		],
		"cosmo_sigma_profile": { 
			"-0.025": 0.0,
			"-0.024": 0.0,
			"-0.023": 0.0,
			"-0.022": 0.0,
			"-0.021": 0.0,
			"-0.02": 0.0,
			"-0.019": 0.0,
			"-0.018": 0.0,
			"-0.017": 0.289263785786,
			"-0.016": 0.714756895658,
			"-0.015": 1.56204576279,
			"-0.014": 2.3798404124,
			"-0.013": 2.23220660533,
			"-0.012": 1.7831878125,
			"-0.011": 2.64378084415,
			"-0.01": 3.00388192864,
			"-0.009": 4.45673044502,
			"-0.008": 9.43961302852,
			"-0.007": 18.1635523418,
			"-0.006": 30.5612346676,
			"-0.005": 39.5174194184,
			"-0.004": 46.3972996116,
			"-0.003": 42.853950558,
			"-0.002": 35.8373631813,
			"-0.001": 34.0349179835,
			"0.0": 30.0679941028,
			"0.001": 24.7336979544,
			"0.002": 22.8385913155,
			"0.003": 16.7326551248,
			"0.004": 13.1865105189,
			"0.005": 11.6950335944,
			"0.006": 12.404874606,
			"0.007": 13.2787616638,
			"0.008": 11.8483201897,
			"0.009": 14.9368668663,
			"0.01": 16.6246518368,
			"0.011": 22.5701077417,
			"0.012": 12.2073685212,
			"0.013": 2.24852136715,
			"0.014": 0.682346811091,
			"0.015": 0.123069026599,
			"0.016": 0.0,
			"0.017": 0.0,
			"0.018": 0.0,
			"0.019": 0.0,
			"0.02": 0.0,
			"0.021": 0.0,
			"0.022": 0.0,
			"0.023": 0.0,
			"0.024": 0.0,
			"0.025": 0.0
		}
	}
}
