{
	 "smiles": "OC(C(NC(=O)C1=CC=CC=C1)C1=CC=CC=C1)C(O)=O", 
	 "Tm": 443.65, 
	 "num_atms": 36, 
	 "gaussian": { 
		 "optdone": 1, 
		 "sigma_profile": "yes", 
		 "theory": "DFT", 
		 "functional": "B3LYP", 
		 "basiset": "6-31G**", 
		 "properties": { 
			 "R2extent": 7493.8541, 
			 "electric_dipole_moment_norm": 7.22436348546, 
			 "electric_quadrupole_moment_norm": 19.695444899, 
			 "total_energy": -974.421060548, 
			 "HOMO_LUMO_gap": 0.19789, 
			 "cosmo_polarized_energy": -18.37, 
			 "cosmo_cavitation_energy": 39.67, 
			 "cosmo_dispersion_energy": -28.05, 
			 "cosmo_repulsion_energy": 2.14, 
			 "cosmo_total_nonelectrostatic_energy": 13.75, 
			 "SMD_solvation_energy": 7.5 
		},
		"coords": [
			{
				"x": -2.6955386032,
				"y": -1.040895098,
				"z": -1.5233389041,
				"element": "O" 
			},
			{
				"x": -1.6560811983,
				"y": -0.179546436,
				"z": -1.880803173,
				"element": "C" 
			},
			{
				"x": -0.8475948912,
				"y": 0.413894146,
				"z": -0.6459551176,
				"element": "C" 
			},
			{
				"x": 0.541154143,
				"y": -0.0676152854,
				"z": -0.6540267243,
				"element": "N" 
			},
			{
				"x": 1.4324523587,
				"y": 0.334856653,
				"z": -1.5885183798,
				"element": "C" 
			},
			{
				"x": 1.1015204715,
				"y": 1.0786843074,
				"z": -2.5311900187,
				"element": "O" 
			},
			{
				"x": 2.841078556,
				"y": -0.1523959926,
				"z": -1.4622487797,
				"element": "C" 
			},
			{
				"x": 3.3911463669,
				"y": -0.5955017495,
				"z": -0.2501729565,
				"element": "C" 
			},
			{
				"x": 4.7127022998,
				"y": -1.0367325692,
				"z": -0.1994181894,
				"element": "C" 
			},
			{
				"x": 5.4943947577,
				"y": -1.0386009237,
				"z": -1.3566020427,
				"element": "C" 
			},
			{
				"x": 4.9556734548,
				"y": -0.5857847732,
				"z": -2.5635270772,
				"element": "C" 
			},
			{
				"x": 3.6377978584,
				"y": -0.1383760681,
				"z": -2.6155610678,
				"element": "C" 
			},
			{
				"x": -1.470701515,
				"y": 0.1365819844,
				"z": 0.706824001,
				"element": "C" 
			},
			{
				"x": -1.6291565215,
				"y": -1.1732985726,
				"z": 1.1845967176,
				"element": "C" 
			},
			{
				"x": -2.1547027565,
				"y": -1.4029332178,
				"z": 2.4551271913,
				"element": "C" 
			},
			{
				"x": -2.5416391552,
				"y": -0.3293330699,
				"z": 3.2612851386,
				"element": "C" 
			},
			{
				"x": -2.3989140209,
				"y": 0.9754243015,
				"z": 2.7899851545,
				"element": "C" 
			},
			{
				"x": -1.8622871992,
				"y": 1.2046183359,
				"z": 1.5213235607,
				"element": "C" 
			},
			{
				"x": -2.2295343043,
				"y": 0.9708708513,
				"z": -2.7293217737,
				"element": "C" 
			},
			{
				"x": -1.3595206621,
				"y": 1.8206680028,
				"z": -3.2573664957,
				"element": "O" 
			},
			{
				"x": -3.432832794,
				"y": 1.0716948621,
				"z": -2.8767846286,
				"element": "O" 
			},
			{
				"x": -3.5081883634,
				"y": -0.5694303041,
				"z": -1.7915055046,
				"element": "H" 
			},
			{
				"x": -0.9302549941,
				"y": -0.7245789045,
				"z": -2.4994444883,
				"element": "H" 
			},
			{
				"x": -0.7882788788,
				"y": 1.4989962948,
				"z": -0.7735374051,
				"element": "H" 
			},
			{
				"x": 0.8129758779,
				"y": -0.7396081554,
				"z": 0.0475698891,
				"element": "H" 
			},
			{
				"x": 2.8096336654,
				"y": -0.5644346197,
				"z": 0.667127979,
				"element": "H" 
			},
			{
				"x": 5.1341427974,
				"y": -1.369451815,
				"z": 0.7443124047,
				"element": "H" 
			},
			{
				"x": 6.5231722222,
				"y": -1.3842474491,
				"z": -1.3154859521,
				"element": "H" 
			},
			{
				"x": 5.5639470677,
				"y": -0.57952598,
				"z": -3.4629781696,
				"element": "H" 
			},
			{
				"x": 3.203951343,
				"y": 0.2273784148,
				"z": -3.5396497023,
				"element": "H" 
			},
			{
				"x": -1.3698152995,
				"y": -2.0147419852,
				"z": 0.5497877855,
				"element": "H" 
			},
			{
				"x": -2.2751359307,
				"y": -2.4220119442,
				"z": 2.8111556133,
				"element": "H" 
			},
			{
				"x": -2.9562963185,
				"y": -0.5108781461,
				"z": 4.2486194708,
				"element": "H" 
			},
			{
				"x": -2.6995582294,
				"y": 1.8163218302,
				"z": 3.4080606935,
				"element": "H" 
			},
			{
				"x": -1.746619318,
				"y": 2.2238324582,
				"z": 1.1616602149,
				"element": "H" 
			},
			{
				"x": -0.4248922864,
				"y": 1.5650006167,
				"z": -3.0209992638,
				"element": "H" 
			}
		],
		 "valence_orbital": [ 
			{
				"type": "occ",
				"energy": -0.27383,
				"method": "rhf"
			},
			{
				"type": "occ",
				"energy": -0.27093,
				"method": "rhf"
			},
			{
				"type": "occ",
				"energy": -0.26224,
				"method": "rhf"
			},
			{
				"type": "occ",
				"energy": -0.25744,
				"method": "rhf"
			},
			{
				"type": "occ",
				"energy": -0.25492,
				"method": "rhf"
			},
			{
				"type": "unocc",
				"energy": -0.05703,
				"method": "rhf"
			},
			{
				"type": "unocc",
				"energy": -0.0238,
				"method": "rhf"
			},
			{
				"type": "unocc",
				"energy": -0.01641,
				"method": "rhf"
			},
			{
				"type": "unocc",
				"energy": -0.01113,
				"method": "rhf"
			},
			{
				"type": "unocc",
				"energy": 0.01513,
				"method": "rhf"
			}
		],
		"cosmo_sigma_profile": { 
			"-0.025": 0.0,
			"-0.024": 0.0,
			"-0.023": 0.0,
			"-0.022": 0.0,
			"-0.021": 0.0,
			"-0.02": 0.0,
			"-0.019": 0.0,
			"-0.018": 0.0,
			"-0.017": 0.0,
			"-0.016": 0.0,
			"-0.015": 0.0,
			"-0.014": 0.486336723415,
			"-0.013": 0.979417666798,
			"-0.012": 1.03668597563,
			"-0.011": 1.52114740079,
			"-0.01": 2.54457707786,
			"-0.009": 2.04784611122,
			"-0.008": 4.93566662657,
			"-0.007": 9.67170959002,
			"-0.006": 21.9403909369,
			"-0.005": 26.7974107529,
			"-0.004": 25.6225551028,
			"-0.003": 21.1815985909,
			"-0.002": 21.2575002016,
			"-0.001": 19.4513120377,
			"0.0": 18.8079313457,
			"0.001": 17.3305283724,
			"0.002": 17.8997821749,
			"0.003": 20.4912381579,
			"0.004": 22.5727688062,
			"0.005": 14.0646938901,
			"0.006": 7.88173026657,
			"0.007": 6.62281950819,
			"0.008": 5.11349917804,
			"0.009": 6.57063969916,
			"0.01": 7.98144568421,
			"0.011": 6.26432862371,
			"0.012": 4.10963884054,
			"0.013": 1.50929524417,
			"0.014": 0.178312297102,
			"0.015": 0.0,
			"0.016": 0.0,
			"0.017": 0.0,
			"0.018": 0.0,
			"0.019": 0.0,
			"0.02": 0.0,
			"0.021": 0.0,
			"0.022": 0.0,
			"0.023": 0.0,
			"0.024": 0.0,
			"0.025": 0.0
		}
	}
}
