{
	 "smiles": "CNC(=O)C1CN(CC2=CC=CC=C2)CCO1", 
	 "Tm": 387.15, 
	 "num_atms": 35, 
	 "gaussian": { 
		 "optdone": 1, 
		 "sigma_profile": "yes", 
		 "theory": "DFT", 
		 "functional": "B3LYP", 
		 "basiset": "6-31G**", 
		 "properties": { 
			 "R2extent": 5324.9929, 
			 "electric_dipole_moment_norm": 1.95424235447, 
			 "electric_quadrupole_moment_norm": 12.2878028679, 
			 "total_energy": -766.160763685, 
			 "HOMO_LUMO_gap": 0.19967, 
			 "cosmo_polarized_energy": -14.17, 
			 "cosmo_cavitation_energy": 36.39, 
			 "cosmo_dispersion_energy": -25.71, 
			 "cosmo_repulsion_energy": 2.01, 
			 "cosmo_total_nonelectrostatic_energy": 12.69, 
			 "SMD_solvation_energy": 3.83 
		},
		"coords": [
			{
				"x": 0.7240096261,
				"y": -3.7240308758,
				"z": -3.0157686822,
				"element": "C" 
			},
			{
				"x": -0.2724841952,
				"y": -2.6713044942,
				"z": -3.1374822896,
				"element": "N" 
			},
			{
				"x": -0.3355083826,
				"y": -1.4669590015,
				"z": -2.4978052126,
				"element": "C" 
			},
			{
				"x": -1.2910444129,
				"y": -0.7113194278,
				"z": -2.6570715987,
				"element": "O" 
			},
			{
				"x": 0.8631203195,
				"y": -1.0806224011,
				"z": -1.6072064792,
				"element": "C" 
			},
			{
				"x": 0.6393787825,
				"y": 0.2905729156,
				"z": -0.9438054239,
				"element": "C" 
			},
			{
				"x": 1.5651175731,
				"y": 0.4055351598,
				"z": 0.1763102349,
				"element": "N" 
			},
			{
				"x": 1.846586882,
				"y": 1.7631471393,
				"z": 0.6468318379,
				"element": "C" 
			},
			{
				"x": 0.7056626869,
				"y": 2.5000467444,
				"z": 1.3387140936,
				"element": "C" 
			},
			{
				"x": 0.6029573585,
				"y": 2.5133409937,
				"z": 2.7367627659,
				"element": "C" 
			},
			{
				"x": -0.460602116,
				"y": 3.1552419602,
				"z": 3.3747968123,
				"element": "C" 
			},
			{
				"x": -1.4416246061,
				"y": 3.7991193572,
				"z": 2.6196463858,
				"element": "C" 
			},
			{
				"x": -1.34855672,
				"y": 3.801825994,
				"z": 1.2259787193,
				"element": "C" 
			},
			{
				"x": -0.2833612292,
				"y": 3.1597453198,
				"z": 0.5939836121,
				"element": "C" 
			},
			{
				"x": 1.291181058,
				"y": -0.5657585731,
				"z": 1.2378081119,
				"element": "C" 
			},
			{
				"x": 0.613283403,
				"y": -1.8080450199,
				"z": 0.6405607301,
				"element": "C" 
			},
			{
				"x": 1.140320437,
				"y": -2.1097142524,
				"z": -0.6450520854,
				"element": "O" 
			},
			{
				"x": 1.707978293,
				"y": -3.3023407454,
				"z": -2.8096190072,
				"element": "H" 
			},
			{
				"x": 0.4922114379,
				"y": -4.430756085,
				"z": -2.2106262219,
				"element": "H" 
			},
			{
				"x": 0.7779233061,
				"y": -4.2701019794,
				"z": -3.9621096312,
				"element": "H" 
			},
			{
				"x": -1.111665813,
				"y": -2.8744440414,
				"z": -3.664836447,
				"element": "H" 
			},
			{
				"x": 1.7616773504,
				"y": -1.0264541255,
				"z": -2.2354681316,
				"element": "H" 
			},
			{
				"x": -0.4211971903,
				"y": 0.4144664859,
				"z": -0.6796500727,
				"element": "H" 
			},
			{
				"x": 0.8641624104,
				"y": 1.0717116508,
				"z": -1.6764496894,
				"element": "H" 
			},
			{
				"x": 2.1828270645,
				"y": 2.3439010936,
				"z": -0.2208552275,
				"element": "H" 
			},
			{
				"x": 2.6985023039,
				"y": 1.6969248057,
				"z": 1.3360269362,
				"element": "H" 
			},
			{
				"x": 1.3723091157,
				"y": 2.0262744059,
				"z": 3.3318893341,
				"element": "H" 
			},
			{
				"x": -0.5194325352,
				"y": 3.1565109941,
				"z": 4.4597966654,
				"element": "H" 
			},
			{
				"x": -2.2690526941,
				"y": 4.301442783,
				"z": 3.1126576203,
				"element": "H" 
			},
			{
				"x": -2.1028288157,
				"y": 4.3091736593,
				"z": 0.6309630527,
				"element": "H" 
			},
			{
				"x": -0.2144042287,
				"y": 3.1786792199,
				"z": -0.4907604856,
				"element": "H" 
			},
			{
				"x": 2.2433729149,
				"y": -0.8396669628,
				"z": 1.712872746,
				"element": "H" 
			},
			{
				"x": 0.6314921212,
				"y": -0.1673014309,
				"z": 2.0286430964,
				"element": "H" 
			},
			{
				"x": -0.4756068933,
				"y": -1.6641592417,
				"z": 0.5864762031,
				"element": "H" 
			},
			{
				"x": 0.7991953878,
				"y": -2.686182024,
				"z": 1.2647477278,
				"element": "H" 
			}
		],
		 "valence_orbital": [ 
			{
				"type": "occ",
				"energy": -0.24699,
				"method": "rhf"
			},
			{
				"type": "occ",
				"energy": -0.2446,
				"method": "rhf"
			},
			{
				"type": "occ",
				"energy": -0.24327,
				"method": "rhf"
			},
			{
				"type": "occ",
				"energy": -0.23027,
				"method": "rhf"
			},
			{
				"type": "occ",
				"energy": -0.20134,
				"method": "rhf"
			},
			{
				"type": "unocc",
				"energy": -0.00167,
				"method": "rhf"
			},
			{
				"type": "unocc",
				"energy": 0.00066,
				"method": "rhf"
			},
			{
				"type": "unocc",
				"energy": 0.0211,
				"method": "rhf"
			},
			{
				"type": "unocc",
				"energy": 0.08452,
				"method": "rhf"
			},
			{
				"type": "unocc",
				"energy": 0.09148,
				"method": "rhf"
			}
		],
		"cosmo_sigma_profile": { 
			"-0.025": 0.0,
			"-0.024": 0.0,
			"-0.023": 0.0,
			"-0.022": 0.0,
			"-0.021": 0.0,
			"-0.02": 0.0,
			"-0.019": 0.0,
			"-0.018": 0.0,
			"-0.017": 0.0,
			"-0.016": 0.0,
			"-0.015": 0.0,
			"-0.014": 0.089897219725,
			"-0.013": 1.08917579525,
			"-0.012": 1.15382393302,
			"-0.011": 0.890862424581,
			"-0.01": 1.34304357664,
			"-0.009": 0.783889217348,
			"-0.008": 0.513809618496,
			"-0.007": 1.35257305633,
			"-0.006": 10.4948343153,
			"-0.005": 25.4971039989,
			"-0.004": 32.2769525494,
			"-0.003": 36.0627793529,
			"-0.002": 29.4156551186,
			"-0.001": 24.5930771752,
			"0.0": 13.6547676628,
			"0.001": 13.8227787435,
			"0.002": 14.8774331356,
			"0.003": 12.4776831769,
			"0.004": 12.0538178,
			"0.005": 11.0126369476,
			"0.006": 10.7324016348,
			"0.007": 5.12241800355,
			"0.008": 3.11345620835,
			"0.009": 2.95524605633,
			"0.01": 2.74665964141,
			"0.011": 2.85408264924,
			"0.012": 3.55950373164,
			"0.013": 3.1691815096,
			"0.014": 6.3676079827,
			"0.015": 1.0079087164,
			"0.016": 0.0,
			"0.017": 0.0,
			"0.018": 0.0,
			"0.019": 0.0,
			"0.02": 0.0,
			"0.021": 0.0,
			"0.022": 0.0,
			"0.023": 0.0,
			"0.024": 0.0,
			"0.025": 0.0
		}
	}
}
