{
	 "smiles": "OC(=O)C1=CN(CC(=O)NC2CCCCC2)N=C1", 
	 "Tm": 521.15, 
	 "num_atms": 35, 
	 "gaussian": { 
		 "optdone": 1, 
		 "sigma_profile": "yes", 
		 "theory": "DFT", 
		 "functional": "B3LYP", 
		 "basiset": "6-31G**", 
		 "properties": { 
			 "R2extent": 7378.22, 
			 "electric_dipole_moment_norm": 2.9309562501, 
			 "electric_quadrupole_moment_norm": 34.5072874841, 
			 "total_energy": -857.458139214, 
			 "HOMO_LUMO_gap": 0.21214, 
			 "cosmo_polarized_energy": -23.49, 
			 "cosmo_cavitation_energy": 37.55, 
			 "cosmo_dispersion_energy": -26.85, 
			 "cosmo_repulsion_energy": 2.11, 
			 "cosmo_total_nonelectrostatic_energy": 12.81, 
			 "SMD_solvation_energy": 6.35 
		},
		"coords": [
			{
				"x": -0.6215075658,
				"y": 6.234592699,
				"z": 0.4131459847,
				"element": "O" 
			},
			{
				"x": -0.52415417,
				"y": 5.4875623174,
				"z": -0.7226079354,
				"element": "C" 
			},
			{
				"x": -0.1585745701,
				"y": 6.0016825859,
				"z": -1.75352741,
				"element": "O" 
			},
			{
				"x": -0.8830769032,
				"y": 4.0589134984,
				"z": -0.6203003349,
				"element": "C" 
			},
			{
				"x": -1.482634463,
				"y": 3.3301743528,
				"z": 0.4032210336,
				"element": "C" 
			},
			{
				"x": -1.610812746,
				"y": 2.0594209481,
				"z": -0.039543816,
				"element": "N" 
			},
			{
				"x": -2.1601043153,
				"y": 0.9131385934,
				"z": 0.6725376286,
				"element": "C" 
			},
			{
				"x": -1.137957323,
				"y": -0.162537389,
				"z": 1.1101515425,
				"element": "C" 
			},
			{
				"x": -1.3180484946,
				"y": -0.7429701768,
				"z": 2.1764914201,
				"element": "O" 
			},
			{
				"x": -0.1427168891,
				"y": -0.4118479768,
				"z": 0.2305487561,
				"element": "N" 
			},
			{
				"x": 0.8980798889,
				"y": -1.433739503,
				"z": 0.4221371157,
				"element": "C" 
			},
			{
				"x": 0.3067454126,
				"y": -2.8682261364,
				"z": 0.4383998225,
				"element": "C" 
			},
			{
				"x": 1.2372652847,
				"y": -3.8737358487,
				"z": 1.1559399965,
				"element": "C" 
			},
			{
				"x": 2.7126722489,
				"y": -3.4837122085,
				"z": 0.99694037,
				"element": "C" 
			},
			{
				"x": 3.00176973,
				"y": -2.1157071608,
				"z": 1.6633956576,
				"element": "C" 
			},
			{
				"x": 1.7669984743,
				"y": -1.1823465937,
				"z": 1.6657392298,
				"element": "C" 
			},
			{
				"x": -1.1243365428,
				"y": 1.9045642096,
				"z": -1.3001627637,
				"element": "N" 
			},
			{
				"x": -0.6885556155,
				"y": 3.1083699124,
				"z": -1.6512015645,
				"element": "C" 
			},
			{
				"x": -0.8200175337,
				"y": 5.6762680265,
				"z": 1.1768493726,
				"element": "H" 
			},
			{
				"x": -1.8459455602,
				"y": 3.6122418951,
				"z": 1.382021367,
				"element": "H" 
			},
			{
				"x": -2.9153140632,
				"y": 0.4433443202,
				"z": 0.034263127,
				"element": "H" 
			},
			{
				"x": -2.647145773,
				"y": 1.2690691546,
				"z": 1.5800035436,
				"element": "H" 
			},
			{
				"x": -0.1493951761,
				"y": 0.1215515616,
				"z": -0.6320778158,
				"element": "H" 
			},
			{
				"x": 1.5446072648,
				"y": -1.3302883215,
				"z": -0.4574523758,
				"element": "H" 
			},
			{
				"x": -0.6606988597,
				"y": -2.8410101647,
				"z": 0.9452971484,
				"element": "H" 
			},
			{
				"x": 0.1254288955,
				"y": -3.1855406263,
				"z": -0.5954747471,
				"element": "H" 
			},
			{
				"x": 1.0590784514,
				"y": -4.8842873356,
				"z": 0.7721024294,
				"element": "H" 
			},
			{
				"x": 0.9906172095,
				"y": -3.9041105319,
				"z": 2.2246475309,
				"element": "H" 
			},
			{
				"x": 2.9552947722,
				"y": -3.438081322,
				"z": -0.0733483626,
				"element": "H" 
			},
			{
				"x": 3.3652720273,
				"y": -4.2544199322,
				"z": 1.4215891493,
				"element": "H" 
			},
			{
				"x": 3.3292167743,
				"y": -2.268448168,
				"z": 2.6980666196,
				"element": "H" 
			},
			{
				"x": 3.837640918,
				"y": -1.6288985024,
				"z": 1.1467400545,
				"element": "H" 
			},
			{
				"x": 1.152115397,
				"y": -1.3497503062,
				"z": 2.5543537733,
				"element": "H" 
			},
			{
				"x": 2.0810157029,
				"y": -0.1331724959,
				"z": 1.6913071294,
				"element": "H" 
			},
			{
				"x": -0.248221888,
				"y": 3.2807366255,
				"z": -2.6229926768,
				"element": "H" 
			}
		],
		 "valence_orbital": [ 
			{
				"type": "occ",
				"energy": -0.29171,
				"method": "rhf"
			},
			{
				"type": "occ",
				"energy": -0.28354,
				"method": "rhf"
			},
			{
				"type": "occ",
				"energy": -0.27672,
				"method": "rhf"
			},
			{
				"type": "occ",
				"energy": -0.25612,
				"method": "rhf"
			},
			{
				"type": "occ",
				"energy": -0.24964,
				"method": "rhf"
			},
			{
				"type": "unocc",
				"energy": -0.0375,
				"method": "rhf"
			},
			{
				"type": "unocc",
				"energy": -0.01073,
				"method": "rhf"
			},
			{
				"type": "unocc",
				"energy": 0.01375,
				"method": "rhf"
			},
			{
				"type": "unocc",
				"energy": 0.04402,
				"method": "rhf"
			},
			{
				"type": "unocc",
				"energy": 0.07259,
				"method": "rhf"
			}
		],
		"cosmo_sigma_profile": { 
			"-0.025": 0.0,
			"-0.024": 0.0,
			"-0.023": 0.0,
			"-0.022": 0.0,
			"-0.021": 0.0,
			"-0.02": 0.0159616492682,
			"-0.019": 0.887020768119,
			"-0.018": 1.21914324642,
			"-0.017": 1.10449842248,
			"-0.016": 1.66970771146,
			"-0.015": 0.909620927825,
			"-0.014": 1.29513743448,
			"-0.013": 0.798552365896,
			"-0.012": 2.30131931011,
			"-0.011": 3.55299327709,
			"-0.01": 3.46014358729,
			"-0.009": 5.00218507456,
			"-0.008": 6.44520178616,
			"-0.007": 6.75135582298,
			"-0.006": 7.75646733377,
			"-0.005": 8.32362226837,
			"-0.004": 11.1272832212,
			"-0.003": 15.4625021541,
			"-0.002": 30.4093573554,
			"-0.001": 38.0789829099,
			"0.0": 32.5994343762,
			"0.001": 33.8215960234,
			"0.002": 13.5168189536,
			"0.003": 6.58552506342,
			"0.004": 5.14927148579,
			"0.005": 4.72515359404,
			"0.006": 5.60793735569,
			"0.007": 4.4051220816,
			"0.008": 5.07353724643,
			"0.009": 5.24477879709,
			"0.01": 6.6051534606,
			"0.011": 7.66566804632,
			"0.012": 8.15450901253,
			"0.013": 5.23081445845,
			"0.014": 3.52025443215,
			"0.015": 0.317836512678,
			"0.016": 0.0,
			"0.017": 0.0,
			"0.018": 0.0,
			"0.019": 0.0,
			"0.02": 0.0,
			"0.021": 0.0,
			"0.022": 0.0,
			"0.023": 0.0,
			"0.024": 0.0,
			"0.025": 0.0
		}
	}
}
