{
	 "smiles": "NC(=O)C=CC1=CC=CC=C1", 
	 "Tm": 422.15, 
	 "num_atms": 20, 
	 "gaussian": { 
		 "optdone": 1, 
		 "sigma_profile": "yes", 
		 "theory": "DFT", 
		 "functional": "B3LYP", 
		 "basiset": "6-31G**", 
		 "properties": { 
			 "R2extent": 2965.3212, 
			 "electric_dipole_moment_norm": 3.58465247688, 
			 "electric_quadrupole_moment_norm": 17.5771130861, 
			 "total_energy": -478.36251306, 
			 "HOMO_LUMO_gap": 0.17354, 
			 "cosmo_polarized_energy": -14.78, 
			 "cosmo_cavitation_energy": 24.78, 
			 "cosmo_dispersion_energy": -18.18, 
			 "cosmo_repulsion_energy": 1.47, 
			 "cosmo_total_nonelectrostatic_energy": 8.06, 
			 "SMD_solvation_energy": 5.19 
		},
		"coords": [
			{
				"x": -0.965587015,
				"y": 1.5972825523,
				"z": -3.3472662103,
				"element": "N" 
			},
			{
				"x": -1.528046236,
				"y": 0.9609496942,
				"z": -2.2706371975,
				"element": "C" 
			},
			{
				"x": -2.6697271767,
				"y": 1.2110719804,
				"z": -1.8963954378,
				"element": "O" 
			},
			{
				"x": -0.6451544644,
				"y": -0.0373270525,
				"z": -1.6055577708,
				"element": "C" 
			},
			{
				"x": -1.096535206,
				"y": -0.7206209067,
				"z": -0.5401102996,
				"element": "C" 
			},
			{
				"x": -0.3953918236,
				"y": -1.7352843122,
				"z": 0.2490421418,
				"element": "C" 
			},
			{
				"x": -1.0680528893,
				"y": -2.3255615933,
				"z": 1.3345642439,
				"element": "C" 
			},
			{
				"x": -0.4523050796,
				"y": -3.2967201993,
				"z": 2.1220832448,
				"element": "C" 
			},
			{
				"x": 0.8534945603,
				"y": -3.6991784546,
				"z": 1.8393125002,
				"element": "C" 
			},
			{
				"x": 1.5373834873,
				"y": -3.1228426902,
				"z": 0.7635799798,
				"element": "C" 
			},
			{
				"x": 0.9220916247,
				"y": -2.1536660783,
				"z": -0.0218212911,
				"element": "C" 
			},
			{
				"x": -1.5296826682,
				"y": 2.266129872,
				"z": -3.8476751533,
				"element": "H" 
			},
			{
				"x": -0.0448902091,
				"y": 1.3794876168,
				"z": -3.6904785185,
				"element": "H" 
			},
			{
				"x": 0.3552587447,
				"y": -0.1880273064,
				"z": -2.0054054546,
				"element": "H" 
			},
			{
				"x": -2.1135133894,
				"y": -0.4851509525,
				"z": -0.2289119621,
				"element": "H" 
			},
			{
				"x": -2.0851361106,
				"y": -2.0133026717,
				"z": 1.5563198151,
				"element": "H" 
			},
			{
				"x": -0.9914658207,
				"y": -3.7383851944,
				"z": 2.9551019444,
				"element": "H" 
			},
			{
				"x": 1.3372039517,
				"y": -4.4556261667,
				"z": 2.4504093816,
				"element": "H" 
			},
			{
				"x": 2.5541254601,
				"y": -3.4322012336,
				"z": 0.5386498903,
				"element": "H" 
			},
			{
				"x": 1.46813026,
				"y": -1.7173269034,
				"z": -0.8527038461,
				"element": "H" 
			}
		],
		 "valence_orbital": [ 
			{
				"type": "occ",
				"energy": -0.30175,
				"method": "rhf"
			},
			{
				"type": "occ",
				"energy": -0.26024,
				"method": "rhf"
			},
			{
				"type": "occ",
				"energy": -0.2573,
				"method": "rhf"
			},
			{
				"type": "occ",
				"energy": -0.24471,
				"method": "rhf"
			},
			{
				"type": "occ",
				"energy": -0.22948,
				"method": "rhf"
			},
			{
				"type": "unocc",
				"energy": -0.05594,
				"method": "rhf"
			},
			{
				"type": "unocc",
				"energy": -0.00624,
				"method": "rhf"
			},
			{
				"type": "unocc",
				"energy": 0.0306,
				"method": "rhf"
			},
			{
				"type": "unocc",
				"energy": 0.07557,
				"method": "rhf"
			},
			{
				"type": "unocc",
				"energy": 0.09006,
				"method": "rhf"
			}
		],
		"cosmo_sigma_profile": { 
			"-0.025": 0.0,
			"-0.024": 0.0,
			"-0.023": 0.0,
			"-0.022": 0.0,
			"-0.021": 0.0,
			"-0.02": 0.0,
			"-0.019": 0.0,
			"-0.018": 0.0,
			"-0.017": 0.0,
			"-0.016": 0.0,
			"-0.015": 0.213406289451,
			"-0.014": 1.62253252472,
			"-0.013": 2.62514908429,
			"-0.012": 2.72354748313,
			"-0.011": 2.46313463599,
			"-0.01": 2.28211871069,
			"-0.009": 2.52914493942,
			"-0.008": 4.22163486298,
			"-0.007": 4.27961004335,
			"-0.006": 12.2734575711,
			"-0.005": 12.2519333466,
			"-0.004": 14.3105734513,
			"-0.003": 11.1341305285,
			"-0.002": 9.08474490402,
			"-0.001": 8.82276908194,
			"0.0": 10.4832354035,
			"0.001": 12.1734844368,
			"0.002": 13.9486912934,
			"0.003": 17.527341807,
			"0.004": 18.2156724684,
			"0.005": 12.5153117084,
			"0.006": 2.49575194116,
			"0.007": 1.31921726001,
			"0.008": 1.58189888208,
			"0.009": 1.07226157111,
			"0.01": 0.977245983318,
			"0.011": 1.94871734296,
			"0.012": 1.85840414775,
			"0.013": 2.38263315071,
			"0.014": 5.53869137503,
			"0.015": 2.70955040658,
			"0.016": 0.0735946703857,
			"0.017": 0.0,
			"0.018": 0.0,
			"0.019": 0.0,
			"0.02": 0.0,
			"0.021": 0.0,
			"0.022": 0.0,
			"0.023": 0.0,
			"0.024": 0.0,
			"0.025": 0.0
		}
	}
}
