{
	 "smiles": "NCCCCCN", 
	 "Tm": 282.15, 
	 "num_atms": 21, 
	 "gaussian": { 
		 "optdone": 1, 
		 "sigma_profile": "yes", 
		 "theory": "DFT", 
		 "functional": "B3LYP", 
		 "basiset": "6-31G**", 
		 "properties": { 
			 "R2extent": 1343.1893, 
			 "electric_dipole_moment_norm": 1.21771231414, 
			 "electric_quadrupole_moment_norm": 9.84098516359, 
			 "total_energy": -308.466198194, 
			 "HOMO_LUMO_gap": 0.28684, 
			 "cosmo_polarized_energy": -9.35, 
			 "cosmo_cavitation_energy": 22.21, 
			 "cosmo_dispersion_energy": -16.11, 
			 "cosmo_repulsion_energy": 1.4, 
			 "cosmo_total_nonelectrostatic_energy": 7.5, 
			 "SMD_solvation_energy": 0.73 
		},
		"coords": [
			{
				"x": 0.6366959166,
				"y": -0.0449853904,
				"z": 1.7437780718,
				"element": "N" 
			},
			{
				"x": 0.4942660681,
				"y": -1.1339335746,
				"z": 0.7711005109,
				"element": "C" 
			},
			{
				"x": -0.0155126579,
				"y": -0.7894248536,
				"z": -0.6439201729,
				"element": "C" 
			},
			{
				"x": -1.5311380855,
				"y": -0.5533294403,
				"z": -0.800888089,
				"element": "C" 
			},
			{
				"x": -2.1566396709,
				"y": 0.6711648913,
				"z": -0.108426946,
				"element": "C" 
			},
			{
				"x": -1.5638594719,
				"y": 2.0208593806,
				"z": -0.5212002354,
				"element": "C" 
			},
			{
				"x": -2.3696762469,
				"y": 3.1203110295,
				"z": 0.0242338393,
				"element": "N" 
			},
			{
				"x": -0.2656755497,
				"y": 0.3727314978,
				"z": 1.9491199964,
				"element": "H" 
			},
			{
				"x": 1.2153657301,
				"y": 0.6955043618,
				"z": 1.3534327167,
				"element": "H" 
			},
			{
				"x": -0.1592347673,
				"y": -1.895299304,
				"z": 1.2177131522,
				"element": "H" 
			},
			{
				"x": 1.480493391,
				"y": -1.6054304426,
				"z": 0.6742665764,
				"element": "H" 
			},
			{
				"x": 0.5492902986,
				"y": 0.0730152536,
				"z": -1.0248847284,
				"element": "H" 
			},
			{
				"x": 0.2489865947,
				"y": -1.6278384201,
				"z": -1.303479931,
				"element": "H" 
			},
			{
				"x": -2.0572426116,
				"y": -1.4521645883,
				"z": -0.4510705266,
				"element": "H" 
			},
			{
				"x": -1.751075137,
				"y": -0.4809523908,
				"z": -1.8749251962,
				"element": "H" 
			},
			{
				"x": -2.0952065473,
				"y": 0.5676916237,
				"z": 0.9844706352,
				"element": "H" 
			},
			{
				"x": -3.228030486,
				"y": 0.6975226593,
				"z": -0.3399342455,
				"element": "H" 
			},
			{
				"x": -0.4999883054,
				"y": 2.0625261902,
				"z": -0.2279188949,
				"element": "H" 
			},
			{
				"x": -1.5864204959,
				"y": 2.1015176943,
				"z": -1.6159065624,
				"element": "H" 
			},
			{
				"x": -1.9836963369,
				"y": 4.0138473549,
				"z": -0.2713189915,
				"element": "H" 
			},
			{
				"x": -2.3141016287,
				"y": 3.1139664678,
				"z": 1.0409590209,
				"element": "H" 
			}
		],
		 "valence_orbital": [ 
			{
				"type": "occ",
				"energy": -0.33164,
				"method": "rhf"
			},
			{
				"type": "occ",
				"energy": -0.32176,
				"method": "rhf"
			},
			{
				"type": "occ",
				"energy": -0.31382,
				"method": "rhf"
			},
			{
				"type": "occ",
				"energy": -0.23406,
				"method": "rhf"
			},
			{
				"type": "occ",
				"energy": -0.22566,
				"method": "rhf"
			},
			{
				"type": "unocc",
				"energy": 0.06118,
				"method": "rhf"
			},
			{
				"type": "unocc",
				"energy": 0.08866,
				"method": "rhf"
			},
			{
				"type": "unocc",
				"energy": 0.10333,
				"method": "rhf"
			},
			{
				"type": "unocc",
				"energy": 0.10902,
				"method": "rhf"
			},
			{
				"type": "unocc",
				"energy": 0.13613,
				"method": "rhf"
			}
		],
		"cosmo_sigma_profile": { 
			"-0.025": 0.0,
			"-0.024": 0.0,
			"-0.023": 0.0,
			"-0.022": 0.0,
			"-0.021": 0.0,
			"-0.02": 0.0,
			"-0.019": 0.0,
			"-0.018": 0.0,
			"-0.017": 0.0,
			"-0.016": 0.0,
			"-0.015": 0.0,
			"-0.014": 0.0,
			"-0.013": 0.0,
			"-0.012": 0.0,
			"-0.011": 0.0,
			"-0.01": 0.221331099329,
			"-0.009": 2.85305717313,
			"-0.008": 5.08844090785,
			"-0.007": 5.53331691944,
			"-0.006": 6.19218414702,
			"-0.005": 6.93626316934,
			"-0.004": 6.26945659812,
			"-0.003": 10.9887893438,
			"-0.002": 24.5791894675,
			"-0.001": 27.2818068959,
			"0.0": 24.7905522142,
			"0.001": 15.5715510588,
			"0.002": 5.76394570829,
			"0.003": 2.70483170606,
			"0.004": 2.27054100351,
			"0.005": 1.91662730214,
			"0.006": 1.58601894104,
			"0.007": 0.769642956975,
			"0.008": 1.9496789114,
			"0.009": 2.01898422647,
			"0.01": 1.42632799788,
			"0.011": 1.92205331953,
			"0.012": 0.918116666234,
			"0.013": 1.24720343866,
			"0.014": 1.03274115517,
			"0.015": 1.41711000478,
			"0.016": 1.69253107741,
			"0.017": 1.06629113098,
			"0.018": 1.05687598925,
			"0.019": 1.18463633899,
			"0.02": 1.28265792814,
			"0.021": 0.00426181062922,
			"0.022": 0.0,
			"0.023": 0.0,
			"0.024": 0.0,
			"0.025": 0.0
		}
	}
}
