{
	 "smiles": "CC1=C(SC=N1)C(O)=O", 
	 "Tm": 527.15, 
	 "num_atms": 14, 
	 "gaussian": { 
		 "optdone": 1, 
		 "sigma_profile": "yes", 
		 "theory": "DFT", 
		 "functional": "B3LYP", 
		 "basiset": "6-31G**", 
		 "properties": { 
			 "R2extent": 2439.1279, 
			 "electric_dipole_moment_norm": 1.59187926678, 
			 "electric_quadrupole_moment_norm": 3.63195727122, 
			 "total_energy": -796.940838607, 
			 "HOMO_LUMO_gap": 0.19083, 
			 "cosmo_polarized_energy": -9.69, 
			 "cosmo_cavitation_energy": 20.24, 
			 "cosmo_dispersion_energy": -15.65, 
			 "cosmo_repulsion_energy": 1.23, 
			 "cosmo_total_nonelectrostatic_energy": 5.82, 
			 "SMD_solvation_energy": 3.43 
		},
		"coords": [
			{
				"x": 0.5793956633,
				"y": 0.6593511114,
				"z": -0.9886726521,
				"element": "C" 
			},
			{
				"x": 0.0796318834,
				"y": -0.568665137,
				"z": -1.6899163548,
				"element": "C" 
			},
			{
				"x": -0.9785952149,
				"y": -1.3670192727,
				"z": -1.2889140048,
				"element": "C" 
			},
			{
				"x": -1.1971467888,
				"y": -2.6843783639,
				"z": -2.4120984757,
				"element": "S" 
			},
			{
				"x": 0.1395492508,
				"y": -2.0601445534,
				"z": -3.3216121919,
				"element": "C" 
			},
			{
				"x": 0.6996831393,
				"y": -0.9808148485,
				"z": -2.8460953632,
				"element": "N" 
			},
			{
				"x": -1.8178302592,
				"y": -1.1735113253,
				"z": -0.1055663204,
				"element": "C" 
			},
			{
				"x": -2.7749938653,
				"y": -2.1294521796,
				"z": 0.0125135451,
				"element": "O" 
			},
			{
				"x": -1.6939855644,
				"y": -0.2678014979,
				"z": 0.6971917467,
				"element": "O" 
			},
			{
				"x": 0.8902370601,
				"y": 0.4291213525,
				"z": 0.0344334287,
				"element": "H" 
			},
			{
				"x": 1.423260581,
				"y": 1.0699691661,
				"z": -1.5449306048,
				"element": "H" 
			},
			{
				"x": -0.2086463142,
				"y": 1.4133747509,
				"z": -0.9061053775,
				"element": "H" 
			},
			{
				"x": 0.4704674497,
				"y": -2.5558337543,
				"z": -4.227303892,
				"element": "H" 
			},
			{
				"x": -3.2727270208,
				"y": -1.9148954482,
				"z": 0.8185765168,
				"element": "H" 
			}
		],
		 "valence_orbital": [ 
			{
				"type": "occ",
				"energy": -0.32662,
				"method": "rhf"
			},
			{
				"type": "occ",
				"energy": -0.29402,
				"method": "rhf"
			},
			{
				"type": "occ",
				"energy": -0.28515,
				"method": "rhf"
			},
			{
				"type": "occ",
				"energy": -0.28427,
				"method": "rhf"
			},
			{
				"type": "occ",
				"energy": -0.25592,
				"method": "rhf"
			},
			{
				"type": "unocc",
				"energy": -0.06509,
				"method": "rhf"
			},
			{
				"type": "unocc",
				"energy": 0.0095,
				"method": "rhf"
			},
			{
				"type": "unocc",
				"energy": 0.01201,
				"method": "rhf"
			},
			{
				"type": "unocc",
				"energy": 0.07331,
				"method": "rhf"
			},
			{
				"type": "unocc",
				"energy": 0.08185,
				"method": "rhf"
			}
		],
		"cosmo_sigma_profile": { 
			"-0.025": 0.0,
			"-0.024": 0.0,
			"-0.023": 0.0,
			"-0.022": 0.0,
			"-0.021": 0.0,
			"-0.02": 0.0,
			"-0.019": 0.0891499291453,
			"-0.018": 1.11159916539,
			"-0.017": 0.63336722545,
			"-0.016": 0.822950881882,
			"-0.015": 0.973879024757,
			"-0.014": 0.848608452212,
			"-0.013": 0.624011507704,
			"-0.012": 0.404245214152,
			"-0.011": 2.10687053892,
			"-0.01": 3.09174661367,
			"-0.009": 2.24105245653,
			"-0.008": 2.51618576074,
			"-0.007": 2.68199063565,
			"-0.006": 2.7424148656,
			"-0.005": 5.24338010379,
			"-0.004": 7.87494224602,
			"-0.003": 9.07232266872,
			"-0.002": 13.6158188334,
			"-0.001": 20.0220391188,
			"0.0": 20.5648823874,
			"0.001": 13.7761338938,
			"0.002": 10.3638038942,
			"0.003": 5.29312045029,
			"0.004": 4.94144697486,
			"0.005": 4.71041161593,
			"0.006": 4.55830059998,
			"0.007": 4.58370323266,
			"0.008": 3.15456254091,
			"0.009": 2.7543863682,
			"0.01": 2.58303487038,
			"0.011": 4.84562169181,
			"0.012": 3.16533363235,
			"0.013": 0.86625592165,
			"0.014": 0.80024947988,
			"0.015": 0.268458631238,
			"0.016": 0.0,
			"0.017": 0.0,
			"0.018": 0.0,
			"0.019": 0.0,
			"0.02": 0.0,
			"0.021": 0.0,
			"0.022": 0.0,
			"0.023": 0.0,
			"0.024": 0.0,
			"0.025": 0.0
		}
	}
}
