{
	 "smiles": "CN(C)S(=O)(=O)C1=CC(=CC=C1)C(C)=O", 
	 "Tm": 348.15, 
	 "num_atms": 28, 
	 "gaussian": { 
		 "optdone": 1, 
		 "sigma_profile": "yes", 
		 "theory": "DFT", 
		 "functional": "B3LYP", 
		 "basiset": "6-31G**", 
		 "properties": { 
			 "R2extent": 3915.3791, 
			 "electric_dipole_moment_norm": 6.56444665223, 
			 "electric_quadrupole_moment_norm": 18.6617158426, 
			 "total_energy": -1067.4375702, 
			 "HOMO_LUMO_gap": 0.18349, 
			 "cosmo_polarized_energy": -18.11, 
			 "cosmo_cavitation_energy": 32.64, 
			 "cosmo_dispersion_energy": -23.24, 
			 "cosmo_repulsion_energy": 1.76, 
			 "cosmo_total_nonelectrostatic_energy": 11.16, 
			 "SMD_solvation_energy": 4.82 
		},
		"coords": [
			{
				"x": 0.5050194802,
				"y": -2.5145852732,
				"z": -0.6604741596,
				"element": "C" 
			},
			{
				"x": 0.9633518603,
				"y": -1.5472451048,
				"z": -1.6604176219,
				"element": "N" 
			},
			{
				"x": 0.072667358,
				"y": -1.3677115379,
				"z": -2.8084638379,
				"element": "C" 
			},
			{
				"x": 1.7203553641,
				"y": -0.157630649,
				"z": -1.0727169963,
				"element": "S" 
			},
			{
				"x": 2.6273560703,
				"y": -0.5977992698,
				"z": -0.012999462,
				"element": "O" 
			},
			{
				"x": 2.1872819884,
				"y": 0.5843467685,
				"z": -2.2458034446,
				"element": "O" 
			},
			{
				"x": 0.4326398627,
				"y": 0.8413849484,
				"z": -0.2994827481,
				"element": "C" 
			},
			{
				"x": 0.0737464835,
				"y": 0.5974320477,
				"z": 1.0233328045,
				"element": "C" 
			},
			{
				"x": -0.9514631128,
				"y": 1.3502799784,
				"z": 1.6147483317,
				"element": "C" 
			},
			{
				"x": -1.5942912352,
				"y": 2.3438805895,
				"z": 0.861934516,
				"element": "C" 
			},
			{
				"x": -1.2211308477,
				"y": 2.585726413,
				"z": -0.4610945722,
				"element": "C" 
			},
			{
				"x": -0.2051797265,
				"y": 1.8348632477,
				"z": -1.0513659499,
				"element": "C" 
			},
			{
				"x": -1.3066968989,
				"y": 1.0475039032,
				"z": 3.0446931182,
				"element": "C" 
			},
			{
				"x": -2.3723898355,
				"y": 1.885103145,
				"z": 3.7281740387,
				"element": "C" 
			},
			{
				"x": -0.7449604705,
				"y": 0.1415672047,
				"z": 3.638616533,
				"element": "O" 
			},
			{
				"x": 0.3730298741,
				"y": -3.479054665,
				"z": -1.1594632208,
				"element": "H" 
			},
			{
				"x": -0.4517590302,
				"y": -2.2277682384,
				"z": -0.1975332459,
				"element": "H" 
			},
			{
				"x": 1.26571848,
				"y": -2.625328224,
				"z": 0.1115743026,
				"element": "H" 
			},
			{
				"x": 0.5395854321,
				"y": -0.6946351745,
				"z": -3.5269093349,
				"element": "H" 
			},
			{
				"x": -0.9167191596,
				"y": -0.9769243192,
				"z": -2.523655361,
				"element": "H" 
			},
			{
				"x": -0.0652997942,
				"y": -2.3426366999,
				"z": -3.2849324927,
				"element": "H" 
			},
			{
				"x": 0.5872664106,
				"y": -0.1484911851,
				"z": 1.6193677086,
				"element": "H" 
			},
			{
				"x": -2.385880826,
				"y": 2.9384335226,
				"z": 1.3059665778,
				"element": "H" 
			},
			{
				"x": -1.7171333359,
				"y": 3.3653111753,
				"z": -1.0310736132,
				"element": "H" 
			},
			{
				"x": 0.1162426121,
				"y": 2.0249404375,
				"z": -2.0694898701,
				"element": "H" 
			},
			{
				"x": -2.4877115325,
				"y": 1.5330927917,
				"z": 4.7534323792,
				"element": "H" 
			},
			{
				"x": -2.094695938,
				"y": 2.9448944314,
				"z": 3.7357689857,
				"element": "H" 
			},
			{
				"x": -3.3325495329,
				"y": 1.8021497363,
				"z": 3.206666635,
				"element": "H" 
			}
		],
		 "valence_orbital": [ 
			{
				"type": "occ",
				"energy": -0.30167,
				"method": "rhf"
			},
			{
				"type": "occ",
				"energy": -0.2864,
				"method": "rhf"
			},
			{
				"type": "occ",
				"energy": -0.27867,
				"method": "rhf"
			},
			{
				"type": "occ",
				"energy": -0.26216,
				"method": "rhf"
			},
			{
				"type": "occ",
				"energy": -0.25666,
				"method": "rhf"
			},
			{
				"type": "unocc",
				"energy": -0.07317,
				"method": "rhf"
			},
			{
				"type": "unocc",
				"energy": -0.04322,
				"method": "rhf"
			},
			{
				"type": "unocc",
				"energy": 0.01558,
				"method": "rhf"
			},
			{
				"type": "unocc",
				"energy": 0.05844,
				"method": "rhf"
			},
			{
				"type": "unocc",
				"energy": 0.08195,
				"method": "rhf"
			}
		],
		"cosmo_sigma_profile": { 
			"-0.025": 0.0,
			"-0.024": 0.0,
			"-0.023": 0.0,
			"-0.022": 0.0,
			"-0.021": 0.0,
			"-0.02": 0.0,
			"-0.019": 0.0,
			"-0.018": 0.0,
			"-0.017": 0.0,
			"-0.016": 0.0,
			"-0.015": 0.0,
			"-0.014": 0.0,
			"-0.013": 0.0,
			"-0.012": 0.0,
			"-0.011": 0.0,
			"-0.01": 0.0,
			"-0.009": 0.0,
			"-0.008": 1.87867929867,
			"-0.007": 11.4550099212,
			"-0.006": 18.7058806593,
			"-0.005": 19.7099663137,
			"-0.004": 27.0490598209,
			"-0.003": 30.213487275,
			"-0.002": 24.5394720664,
			"-0.001": 16.3220269152,
			"0.0": 15.1304797256,
			"0.001": 16.2370467919,
			"0.002": 11.8061832326,
			"0.003": 5.33881692951,
			"0.004": 4.94561208888,
			"0.005": 5.72839494773,
			"0.006": 6.08264562725,
			"0.007": 6.3141422143,
			"0.008": 4.32425959803,
			"0.009": 6.17931067575,
			"0.01": 9.18289917436,
			"0.011": 11.5907244946,
			"0.012": 5.47809802898,
			"0.013": 0.772765218229,
			"0.014": 0.0,
			"0.015": 0.0,
			"0.016": 0.0,
			"0.017": 0.0,
			"0.018": 0.0,
			"0.019": 0.0,
			"0.02": 0.0,
			"0.021": 0.0,
			"0.022": 0.0,
			"0.023": 0.0,
			"0.024": 0.0,
			"0.025": 0.0
		}
	}
}
