{
	 "smiles": "COC1=CC=C(C=C1)S(N)(=O)=O", 
	 "Tm": 385.15, 
	 "num_atms": 21, 
	 "gaussian": { 
		 "optdone": 1, 
		 "sigma_profile": "yes", 
		 "theory": "DFT", 
		 "functional": "B3LYP", 
		 "basiset": "6-31G**", 
		 "properties": { 
			 "R2extent": 4542.8078, 
			 "electric_dipole_moment_norm": 6.97797841069, 
			 "electric_quadrupole_moment_norm": 30.577937037, 
			 "total_energy": -950.697324324, 
			 "HOMO_LUMO_gap": 0.21201, 
			 "cosmo_polarized_energy": -19.93, 
			 "cosmo_cavitation_energy": 26.51, 
			 "cosmo_dispersion_energy": -20.12, 
			 "cosmo_repulsion_energy": 1.56, 
			 "cosmo_total_nonelectrostatic_energy": 7.94, 
			 "SMD_solvation_energy": 5.06 
		},
		"coords": [
			{
				"x": 2.6060090062,
				"y": 0.2382294748,
				"z": -0.9894827244,
				"element": "C" 
			},
			{
				"x": 1.6648316862,
				"y": 0.9778951117,
				"z": -0.2219801179,
				"element": "O" 
			},
			{
				"x": 0.3434800788,
				"y": 0.8344559216,
				"z": -0.4989883738,
				"element": "C" 
			},
			{
				"x": -0.173959274,
				"y": -0.0096959673,
				"z": -1.4921891353,
				"element": "C" 
			},
			{
				"x": -1.5536183203,
				"y": -0.0781316027,
				"z": -1.6892476893,
				"element": "C" 
			},
			{
				"x": -2.4105809844,
				"y": 0.6873845367,
				"z": -0.8999828212,
				"element": "C" 
			},
			{
				"x": -1.8971404392,
				"y": 1.5430043679,
				"z": 0.0841029301,
				"element": "C" 
			},
			{
				"x": -0.5270727204,
				"y": 1.6129903965,
				"z": 0.2843738472,
				"element": "C" 
			},
			{
				"x": -4.1822209642,
				"y": 0.5699029576,
				"z": -1.1410288971,
				"element": "S" 
			},
			{
				"x": -4.7507641238,
				"y": -0.6122345452,
				"z": -0.0823020338,
				"element": "N" 
			},
			{
				"x": -4.408426169,
				"y": 0.0306696706,
				"z": -2.4815153157,
				"element": "O" 
			},
			{
				"x": -4.7737717207,
				"y": 1.8229378627,
				"z": -0.6738191315,
				"element": "O" 
			},
			{
				"x": 3.5879302436,
				"y": 0.509531193,
				"z": -0.6002849664,
				"element": "H" 
			},
			{
				"x": 2.4576886619,
				"y": -0.8427910758,
				"z": -0.8757128125,
				"element": "H" 
			},
			{
				"x": 2.5527868758,
				"y": 0.5009224371,
				"z": -2.053122711,
				"element": "H" 
			},
			{
				"x": 0.4812342671,
				"y": -0.6031012797,
				"z": -2.1180930613,
				"element": "H" 
			},
			{
				"x": -1.9644490812,
				"y": -0.7085717382,
				"z": -2.4708020587,
				"element": "H" 
			},
			{
				"x": -2.5720879537,
				"y": 2.162497169,
				"z": 0.6652817969,
				"element": "H" 
			},
			{
				"x": -0.099342372,
				"y": 2.2715145251,
				"z": 1.0327887204,
				"element": "H" 
			},
			{
				"x": -4.3807472604,
				"y": -1.533832534,
				"z": -0.2932808606,
				"element": "H" 
			},
			{
				"x": -4.6285794363,
				"y": -0.3529768816,
				"z": 0.891685416,
				"element": "H" 
			}
		],
		 "valence_orbital": [ 
			{
				"type": "occ",
				"energy": -0.30546,
				"method": "rhf"
			},
			{
				"type": "occ",
				"energy": -0.29901,
				"method": "rhf"
			},
			{
				"type": "occ",
				"energy": -0.29868,
				"method": "rhf"
			},
			{
				"type": "occ",
				"energy": -0.27448,
				"method": "rhf"
			},
			{
				"type": "occ",
				"energy": -0.24101,
				"method": "rhf"
			},
			{
				"type": "unocc",
				"energy": -0.029,
				"method": "rhf"
			},
			{
				"type": "unocc",
				"energy": -0.02355,
				"method": "rhf"
			},
			{
				"type": "unocc",
				"energy": 0.0542,
				"method": "rhf"
			},
			{
				"type": "unocc",
				"energy": 0.07661,
				"method": "rhf"
			},
			{
				"type": "unocc",
				"energy": 0.09219,
				"method": "rhf"
			}
		],
		"cosmo_sigma_profile": { 
			"-0.025": 0.0,
			"-0.024": 0.0,
			"-0.023": 0.0,
			"-0.022": 0.0,
			"-0.021": 0.0,
			"-0.02": 0.0,
			"-0.019": 0.0,
			"-0.018": 0.0,
			"-0.017": 0.0,
			"-0.016": 0.0634679678742,
			"-0.015": 1.70947601163,
			"-0.014": 2.71605434249,
			"-0.013": 2.54705340039,
			"-0.012": 2.54177034971,
			"-0.011": 2.96632811693,
			"-0.01": 2.45022239074,
			"-0.009": 2.30593627578,
			"-0.008": 1.95832666417,
			"-0.007": 8.47541189239,
			"-0.006": 16.904848056,
			"-0.005": 15.6859700347,
			"-0.004": 14.3912583609,
			"-0.003": 11.8173590601,
			"-0.002": 9.87168776225,
			"-0.001": 8.10219180418,
			"0.0": 8.43637108109,
			"0.001": 9.18066103024,
			"0.002": 15.8393616298,
			"0.003": 15.267807382,
			"0.004": 5.96488711459,
			"0.005": 5.68839986195,
			"0.006": 3.89673375501,
			"0.007": 4.88010646963,
			"0.008": 5.91379722019,
			"0.009": 5.66763102253,
			"0.01": 7.34718892309,
			"0.011": 10.3770482962,
			"0.012": 7.46079964807,
			"0.013": 0.484191556992,
			"0.014": 0.0106139864338,
			"0.015": 0.0,
			"0.016": 0.0,
			"0.017": 0.0,
			"0.018": 0.0,
			"0.019": 0.0,
			"0.02": 0.0,
			"0.021": 0.0,
			"0.022": 0.0,
			"0.023": 0.0,
			"0.024": 0.0,
			"0.025": 0.0
		}
	}
}
