{
	 "smiles": "OC(=O)C(CC1=CC=CC=C1)NC(=O)OCC1C2=C(C=CC=C2)C2=C1C=CC=C2", 
	 "Tm": 458.15, 
	 "num_atms": 50, 
	 "gaussian": { 
		 "optdone": 1, 
		 "sigma_profile": "yes", 
		 "theory": "DFT", 
		 "functional": "B3LYP", 
		 "basiset": "6-31G**", 
		 "properties": { 
			 "R2extent": 13990.8519, 
			 "electric_dipole_moment_norm": 5.7006280233, 
			 "electric_quadrupole_moment_norm": 20.7588827267, 
			 "total_energy": -1282.91238016, 
			 "HOMO_LUMO_gap": 0.18429, 
			 "cosmo_polarized_energy": -19.56, 
			 "cosmo_cavitation_energy": 54.03, 
			 "cosmo_dispersion_energy": -35.18, 
			 "cosmo_repulsion_energy": 2.6, 
			 "cosmo_total_nonelectrostatic_energy": 21.45, 
			 "SMD_solvation_energy": 9.54 
		},
		"coords": [
			{
				"x": -0.3831094948,
				"y": 4.1304023357,
				"z": 2.5269450021,
				"element": "O" 
			},
			{
				"x": 0.4486160354,
				"y": 4.064207245,
				"z": 1.4716805782,
				"element": "C" 
			},
			{
				"x": 1.2937891757,
				"y": 4.9095796387,
				"z": 1.2929607631,
				"element": "O" 
			},
			{
				"x": 0.2544212288,
				"y": 2.86444998,
				"z": 0.5299277852,
				"element": "C" 
			},
			{
				"x": -1.1896700905,
				"y": 2.8113185148,
				"z": -0.0629575712,
				"element": "C" 
			},
			{
				"x": -2.2363864571,
				"y": 2.29488996,
				"z": 0.9037594234,
				"element": "C" 
			},
			{
				"x": -2.2194023721,
				"y": 0.9467773521,
				"z": 1.304216848,
				"element": "C" 
			},
			{
				"x": -3.1751406455,
				"y": 0.4547585119,
				"z": 2.1916916306,
				"element": "C" 
			},
			{
				"x": -4.1675108932,
				"y": 1.3000141408,
				"z": 2.6965336867,
				"element": "C" 
			},
			{
				"x": -4.1966901984,
				"y": 2.6392996291,
				"z": 2.308774207,
				"element": "C" 
			},
			{
				"x": -3.237258432,
				"y": 3.1329662302,
				"z": 1.4198130793,
				"element": "C" 
			},
			{
				"x": 1.2714143103,
				"y": 2.9662844662,
				"z": -0.4947793261,
				"element": "N" 
			},
			{
				"x": 1.7292007475,
				"y": 1.9436740891,
				"z": -1.2704742012,
				"element": "C" 
			},
			{
				"x": 2.6548626447,
				"y": 2.0252888658,
				"z": -2.056219181,
				"element": "O" 
			},
			{
				"x": 0.9947458874,
				"y": 0.8061953837,
				"z": -1.0619780361,
				"element": "O" 
			},
			{
				"x": 1.3602370624,
				"y": -0.3235601388,
				"z": -1.8800821413,
				"element": "C" 
			},
			{
				"x": 2.5188331154,
				"y": -1.1380969184,
				"z": -1.2780997623,
				"element": "C" 
			},
			{
				"x": 2.1713599744,
				"y": -1.8396260117,
				"z": 0.0256840738,
				"element": "C" 
			},
			{
				"x": 2.2689682043,
				"y": -3.2389651374,
				"z": -0.1318896839,
				"element": "C" 
			},
			{
				"x": 1.9836990926,
				"y": -4.0953356139,
				"z": 0.9336944601,
				"element": "C" 
			},
			{
				"x": 1.6039072636,
				"y": -3.5442861829,
				"z": 2.1595835915,
				"element": "C" 
			},
			{
				"x": 1.5160323325,
				"y": -2.1574252276,
				"z": 2.3201163485,
				"element": "C" 
			},
			{
				"x": 1.8011974881,
				"y": -1.2972541725,
				"z": 1.2526615296,
				"element": "C" 
			},
			{
				"x": 2.7065358158,
				"y": -3.5271058749,
				"z": -1.5043494252,
				"element": "C" 
			},
			{
				"x": 2.8784621232,
				"y": -2.3045774175,
				"z": -2.1855619992,
				"element": "C" 
			},
			{
				"x": 3.3089666028,
				"y": -2.2860729792,
				"z": -3.5080875152,
				"element": "C" 
			},
			{
				"x": 3.5669901045,
				"y": -3.5015866765,
				"z": -4.1530430965,
				"element": "C" 
			},
			{
				"x": 3.3942964707,
				"y": -4.7153095509,
				"z": -3.4787589203,
				"element": "C" 
			},
			{
				"x": 2.964970434,
				"y": -4.7382279218,
				"z": -2.1496669249,
				"element": "C" 
			},
			{
				"x": -1.0561798759,
				"y": 3.4288816603,
				"z": 2.4895977842,
				"element": "H" 
			},
			{
				"x": 0.4053631414,
				"y": 1.9515204457,
				"z": 1.1209090777,
				"element": "H" 
			},
			{
				"x": -1.1338971744,
				"y": 2.1414490901,
				"z": -0.9246173338,
				"element": "H" 
			},
			{
				"x": -1.4612452557,
				"y": 3.8030062751,
				"z": -0.4394573011,
				"element": "H" 
			},
			{
				"x": -1.4568119547,
				"y": 0.2813284483,
				"z": 0.9065560431,
				"element": "H" 
			},
			{
				"x": -3.1490139207,
				"y": -0.590507115,
				"z": 2.4856617786,
				"element": "H" 
			},
			{
				"x": -4.9127273773,
				"y": 0.9151553004,
				"z": 3.3862999214,
				"element": "H" 
			},
			{
				"x": -4.9656035677,
				"y": 3.3029247609,
				"z": 2.6932547458,
				"element": "H" 
			},
			{
				"x": -3.26862318,
				"y": 4.1766095887,
				"z": 1.1171356107,
				"element": "H" 
			},
			{
				"x": 1.8351222681,
				"y": 3.8076968909,
				"z": -0.477576209,
				"element": "H" 
			},
			{
				"x": 1.6345272103,
				"y": 0.0367887447,
				"z": -2.8732326873,
				"element": "H" 
			},
			{
				"x": 0.4564892832,
				"y": -0.933462906,
				"z": -1.9426510868,
				"element": "H" 
			},
			{
				"x": 3.3694603589,
				"y": -0.4551961978,
				"z": -1.1578199929,
				"element": "H" 
			},
			{
				"x": 2.0603451817,
				"y": -5.1729392254,
				"z": 0.8174764343,
				"element": "H" 
			},
			{
				"x": 1.3823952172,
				"y": -4.1982152467,
				"z": 2.9983027979,
				"element": "H" 
			},
			{
				"x": 1.23082206,
				"y": -1.7439575732,
				"z": 3.2833728572,
				"element": "H" 
			},
			{
				"x": 1.7442929408,
				"y": -0.2216613415,
				"z": 1.3859280735,
				"element": "H" 
			},
			{
				"x": 3.4541685123,
				"y": -1.3460285058,
				"z": -4.0339962281,
				"element": "H" 
			},
			{
				"x": 3.9074954268,
				"y": -3.5021091669,
				"z": -5.1843951955,
				"element": "H" 
			},
			{
				"x": 3.6001645234,
				"y": -5.6495807745,
				"z": -3.9933736126,
				"element": "H" 
			},
			{
				"x": 2.8383186516,
				"y": -5.6844796715,
				"z": -1.6308706996,
				"element": "H" 
			}
		],
		 "valence_orbital": [ 
			{
				"type": "occ",
				"energy": -0.26833,
				"method": "rhf"
			},
			{
				"type": "occ",
				"energy": -0.25812,
				"method": "rhf"
			},
			{
				"type": "occ",
				"energy": -0.25295,
				"method": "rhf"
			},
			{
				"type": "occ",
				"energy": -0.24607,
				"method": "rhf"
			},
			{
				"type": "occ",
				"energy": -0.21821,
				"method": "rhf"
			},
			{
				"type": "unocc",
				"energy": -0.03392,
				"method": "rhf"
			},
			{
				"type": "unocc",
				"energy": -0.02933,
				"method": "rhf"
			},
			{
				"type": "unocc",
				"energy": -0.02297,
				"method": "rhf"
			},
			{
				"type": "unocc",
				"energy": -0.01488,
				"method": "rhf"
			},
			{
				"type": "unocc",
				"energy": -0.00131,
				"method": "rhf"
			}
		],
		"cosmo_sigma_profile": { 
			"-0.025": 0.0,
			"-0.024": 0.0,
			"-0.023": 0.0,
			"-0.022": 0.0,
			"-0.021": 0.0,
			"-0.02": 0.0,
			"-0.019": 0.0,
			"-0.018": 0.0,
			"-0.017": 0.0,
			"-0.016": 0.0,
			"-0.015": 0.0,
			"-0.014": 0.0,
			"-0.013": 0.16023494469,
			"-0.012": 0.710121574751,
			"-0.011": 1.6884544714,
			"-0.01": 1.8291525908,
			"-0.009": 2.10322372727,
			"-0.008": 2.37460623057,
			"-0.007": 6.28774806544,
			"-0.006": 24.4453068821,
			"-0.005": 35.7674555593,
			"-0.004": 41.1802533769,
			"-0.003": 42.9035037054,
			"-0.002": 32.5592961679,
			"-0.001": 30.5918293661,
			"0.0": 27.1885217126,
			"0.001": 25.9672454674,
			"0.002": 26.1769184266,
			"0.003": 26.1857353176,
			"0.004": 27.6170433271,
			"0.005": 25.5767319826,
			"0.006": 14.5162078444,
			"0.007": 4.0787256155,
			"0.008": 4.21364237921,
			"0.009": 5.86140115718,
			"0.01": 6.16291491854,
			"0.011": 4.60731728409,
			"0.012": 4.72953994565,
			"0.013": 4.82963628625,
			"0.014": 0.647290517663,
			"0.015": 0.0,
			"0.016": 0.0,
			"0.017": 0.0,
			"0.018": 0.0,
			"0.019": 0.0,
			"0.02": 0.0,
			"0.021": 0.0,
			"0.022": 0.0,
			"0.023": 0.0,
			"0.024": 0.0,
			"0.025": 0.0
		}
	}
}
