{
	 "smiles": "OC(=O)CCN1C(=O)C(=O)C2=C1C=C(F)C=C2", 
	 "Tm": 453.15, 
	 "num_atms": 25, 
	 "gaussian": { 
		 "optdone": 1, 
		 "sigma_profile": "yes", 
		 "theory": "DFT", 
		 "functional": "B3LYP", 
		 "basiset": "6-31G**", 
		 "properties": { 
			 "R2extent": 4925.6048, 
			 "electric_dipole_moment_norm": 3.95272153712, 
			 "electric_quadrupole_moment_norm": 26.3724163216, 
			 "total_energy": -879.483186603, 
			 "HOMO_LUMO_gap": 0.14165, 
			 "cosmo_polarized_energy": -23.94, 
			 "cosmo_cavitation_energy": 31.89, 
			 "cosmo_dispersion_energy": -22.06, 
			 "cosmo_repulsion_energy": 1.68, 
			 "cosmo_total_nonelectrostatic_energy": 11.51, 
			 "SMD_solvation_energy": 8.18 
		},
		"coords": [
			{
				"x": -0.034051852,
				"y": 3.1734066869,
				"z": 3.0440518999,
				"element": "O" 
			},
			{
				"x": -0.1967054965,
				"y": 2.692265418,
				"z": 1.7864368866,
				"element": "C" 
			},
			{
				"x": -0.2098887754,
				"y": 3.4434968197,
				"z": 0.8430623826,
				"element": "O" 
			},
			{
				"x": -0.3235152503,
				"y": 1.1783042123,
				"z": 1.6664552363,
				"element": "C" 
			},
			{
				"x": -0.7938965201,
				"y": 0.7685397728,
				"z": 0.2642954747,
				"element": "C" 
			},
			{
				"x": -0.7525879165,
				"y": -0.6716684291,
				"z": 0.0626792553,
				"element": "N" 
			},
			{
				"x": -1.7870563283,
				"y": -1.512191881,
				"z": 0.461048244,
				"element": "C" 
			},
			{
				"x": -2.8126332385,
				"y": -1.165384199,
				"z": 1.0064677503,
				"element": "O" 
			},
			{
				"x": -1.3369991387,
				"y": -2.9598957596,
				"z": 0.0711788839,
				"element": "C" 
			},
			{
				"x": -1.9966442544,
				"y": -3.9592172089,
				"z": 0.2598349161,
				"element": "O" 
			},
			{
				"x": -0.0076193201,
				"y": -2.7868404112,
				"z": -0.5244061299,
				"element": "C" 
			},
			{
				"x": 0.3009125569,
				"y": -1.4080086621,
				"z": -0.5025488192,
				"element": "C" 
			},
			{
				"x": 1.5090182927,
				"y": -0.9360867975,
				"z": -0.9997647355,
				"element": "C" 
			},
			{
				"x": 2.3826734149,
				"y": -1.89660897,
				"z": -1.5197084002,
				"element": "C" 
			},
			{
				"x": 3.5572446166,
				"y": -1.4670803844,
				"z": -2.0072266046,
				"element": "F" 
			},
			{
				"x": 2.1091794451,
				"y": -3.2643258735,
				"z": -1.559232308,
				"element": "C" 
			},
			{
				"x": 0.8897475892,
				"y": -3.7119614587,
				"z": -1.0507155311,
				"element": "C" 
			},
			{
				"x": -0.069962149,
				"y": 2.454645261,
				"z": 3.6913425134,
				"element": "H" 
			},
			{
				"x": 0.6573432585,
				"y": 0.7349499182,
				"z": 1.8855240678,
				"element": "H" 
			},
			{
				"x": -1.022733816,
				"y": 0.791536149,
				"z": 2.4173079533,
				"element": "H" 
			},
			{
				"x": -0.186865407,
				"y": 1.2624982744,
				"z": -0.4961805112,
				"element": "H" 
			},
			{
				"x": -1.8276828049,
				"y": 1.0890971105,
				"z": 0.1165724425,
				"element": "H" 
			},
			{
				"x": 1.7929694156,
				"y": 0.1092777309,
				"z": -1.005336081,
				"element": "H" 
			},
			{
				"x": 2.8441231662,
				"y": -3.9403675659,
				"z": -1.9797569938,
				"element": "H" 
			},
			{
				"x": 0.631930512,
				"y": -4.7663797528,
				"z": -1.0590817922,
				"element": "H" 
			}
		],
		 "valence_orbital": [ 
			{
				"type": "occ",
				"energy": -0.31833,
				"method": "rhf"
			},
			{
				"type": "occ",
				"energy": -0.2898,
				"method": "rhf"
			},
			{
				"type": "occ",
				"energy": -0.28181,
				"method": "rhf"
			},
			{
				"type": "occ",
				"energy": -0.25526,
				"method": "rhf"
			},
			{
				"type": "occ",
				"energy": -0.24561,
				"method": "rhf"
			},
			{
				"type": "unocc",
				"energy": -0.10396,
				"method": "rhf"
			},
			{
				"type": "unocc",
				"energy": -0.0354,
				"method": "rhf"
			},
			{
				"type": "unocc",
				"energy": -0.00726,
				"method": "rhf"
			},
			{
				"type": "unocc",
				"energy": 0.00167,
				"method": "rhf"
			},
			{
				"type": "unocc",
				"energy": 0.04036,
				"method": "rhf"
			}
		],
		"cosmo_sigma_profile": { 
			"-0.025": 0.0,
			"-0.024": 0.0,
			"-0.023": 0.0,
			"-0.022": 0.0,
			"-0.021": 0.0,
			"-0.02": 0.0692166696985,
			"-0.019": 1.18900197138,
			"-0.018": 0.85033034062,
			"-0.017": 1.61628512934,
			"-0.016": 0.977437036448,
			"-0.015": 0.806495196951,
			"-0.014": 1.20780677407,
			"-0.013": 1.15688169634,
			"-0.012": 0.961468093518,
			"-0.011": 1.41484661088,
			"-0.01": 2.07376697406,
			"-0.009": 4.7215981974,
			"-0.008": 9.74907100359,
			"-0.007": 13.5962512801,
			"-0.006": 15.5400751895,
			"-0.005": 14.0805696685,
			"-0.004": 14.1339588728,
			"-0.003": 12.1563948261,
			"-0.002": 12.0257205279,
			"-0.001": 18.6350197706,
			"0.0": 18.9391060074,
			"0.001": 15.6409592244,
			"0.002": 9.76484960222,
			"0.003": 13.3096303417,
			"0.004": 8.56295438711,
			"0.005": 4.58575752582,
			"0.006": 3.99991717918,
			"0.007": 5.57253184728,
			"0.008": 5.75111211016,
			"0.009": 8.23005831413,
			"0.01": 13.5458928224,
			"0.011": 13.1593903757,
			"0.012": 6.41722626513,
			"0.013": 1.09930790762,
			"0.014": 0.0,
			"0.015": 0.0,
			"0.016": 0.0,
			"0.017": 0.0,
			"0.018": 0.0,
			"0.019": 0.0,
			"0.02": 0.0,
			"0.021": 0.0,
			"0.022": 0.0,
			"0.023": 0.0,
			"0.024": 0.0,
			"0.025": 0.0
		}
	}
}
