{
	 "smiles": "O=C(OC1C(OC(=O)C2=CC=CC=C2)C(=O)OC1=O)C1=CC=CC=C1", 
	 "Tm": 447.15, 
	 "num_atms": 37, 
	 "gaussian": { 
		 "optdone": 1, 
		 "sigma_profile": "yes", 
		 "theory": "DFT", 
		 "functional": "B3LYP", 
		 "basiset": "6-31G**", 
		 "properties": { 
			 "R2extent": 9260.4804, 
			 "electric_dipole_moment_norm": 5.76435106755, 
			 "electric_quadrupole_moment_norm": 14.0273823171, 
			 "total_energy": -1219.73732131, 
			 "HOMO_LUMO_gap": 0.203, 
			 "cosmo_polarized_energy": -16.92, 
			 "cosmo_cavitation_energy": 44.85, 
			 "cosmo_dispersion_energy": -29.21, 
			 "cosmo_repulsion_energy": 2.24, 
			 "cosmo_total_nonelectrostatic_energy": 17.88, 
			 "SMD_solvation_energy": 11.16 
		},
		"coords": [
			{
				"x": -1.5466471435,
				"y": 0.9192472193,
				"z": 2.3570419182,
				"element": "O" 
			},
			{
				"x": -1.5411300051,
				"y": -0.2184631006,
				"z": 1.9400052042,
				"element": "C" 
			},
			{
				"x": -2.4030129709,
				"y": -0.6471619324,
				"z": 0.9602197919,
				"element": "O" 
			},
			{
				"x": -3.2932154245,
				"y": 0.3435928615,
				"z": 0.4480138224,
				"element": "C" 
			},
			{
				"x": -2.7417014266,
				"y": 0.9858967612,
				"z": -0.8330064252,
				"element": "C" 
			},
			{
				"x": -1.3367485395,
				"y": 1.0761604739,
				"z": -0.878462238,
				"element": "O" 
			},
			{
				"x": -0.8082491529,
				"y": 2.3462177454,
				"z": -0.9374596858,
				"element": "C" 
			},
			{
				"x": -1.5025327828,
				"y": 3.3389772309,
				"z": -0.9565401068,
				"element": "O" 
			},
			{
				"x": 0.6726345839,
				"y": 2.330201411,
				"z": -0.9783013212,
				"element": "C" 
			},
			{
				"x": 1.4119806394,
				"y": 1.1382612753,
				"z": -0.9749053943,
				"element": "C" 
			},
			{
				"x": 2.8036963289,
				"y": 1.1891389808,
				"z": -1.0177929038,
				"element": "C" 
			},
			{
				"x": 3.4594811915,
				"y": 2.4219909751,
				"z": -1.0637114064,
				"element": "C" 
			},
			{
				"x": 2.7236784452,
				"y": 3.6104757833,
				"z": -1.0670623693,
				"element": "C" 
			},
			{
				"x": 1.3332407902,
				"y": 3.5667666082,
				"z": -1.024926211,
				"element": "C" 
			},
			{
				"x": -3.2672667664,
				"y": 0.0736754788,
				"z": -1.938215266,
				"element": "C" 
			},
			{
				"x": -2.871395254,
				"y": -0.0795891321,
				"z": -3.0522007396,
				"element": "O" 
			},
			{
				"x": -4.3956919069,
				"y": -0.5826893544,
				"z": -1.446044264,
				"element": "O" 
			},
			{
				"x": -4.5158213988,
				"y": -0.4224526886,
				"z": -0.0726965877,
				"element": "C" 
			},
			{
				"x": -5.4401674077,
				"y": -0.8575523765,
				"z": 0.5446700182,
				"element": "O" 
			},
			{
				"x": -0.6415656241,
				"y": -1.3029079004,
				"z": 2.4046761856,
				"element": "C" 
			},
			{
				"x": -0.698511109,
				"y": -2.6041726052,
				"z": 1.8838630059,
				"element": "C" 
			},
			{
				"x": 0.1737327615,
				"y": -3.5791944095,
				"z": 2.3637637161,
				"element": "C" 
			},
			{
				"x": 1.1011275104,
				"y": -3.261755996,
				"z": 3.3594547687,
				"element": "C" 
			},
			{
				"x": 1.158956237,
				"y": -1.9654161814,
				"z": 3.8792014717,
				"element": "C" 
			},
			{
				"x": 0.2905062425,
				"y": -0.9868140227,
				"z": 3.4042339758,
				"element": "C" 
			},
			{
				"x": -3.5545585883,
				"y": 1.0587477522,
				"z": 1.227771658,
				"element": "H" 
			},
			{
				"x": -3.1811654165,
				"y": 1.9823832511,
				"z": -0.9703491435,
				"element": "H" 
			},
			{
				"x": 0.8968542191,
				"y": 0.1856467632,
				"z": -0.9403830514,
				"element": "H" 
			},
			{
				"x": 3.3771588605,
				"y": 0.2672016983,
				"z": -1.0162774561,
				"element": "H" 
			},
			{
				"x": 4.5446812615,
				"y": 2.4567681918,
				"z": -1.0974182116,
				"element": "H" 
			},
			{
				"x": 3.234595951,
				"y": 4.5678125826,
				"z": -1.1028324527,
				"element": "H" 
			},
			{
				"x": 0.7405712082,
				"y": 4.4750908558,
				"z": -1.027077397,
				"element": "H" 
			},
			{
				"x": -1.4214491853,
				"y": -2.8446526752,
				"z": 1.1132697226,
				"element": "H" 
			},
			{
				"x": 0.1292873188,
				"y": -4.587016165,
				"z": 1.9623420647,
				"element": "H" 
			},
			{
				"x": 1.7785355259,
				"y": -4.0252206462,
				"z": 3.7311902752,
				"element": "H" 
			},
			{
				"x": 1.8795706807,
				"y": -1.720288982,
				"z": 4.653466907,
				"element": "H" 
			},
			{
				"x": 0.3155403467,
				"y": 0.0257942683,
				"z": 3.7920781251,
				"element": "H" 
			}
		],
		 "valence_orbital": [ 
			{
				"type": "occ",
				"energy": -0.29581,
				"method": "rhf"
			},
			{
				"type": "occ",
				"energy": -0.27415,
				"method": "rhf"
			},
			{
				"type": "occ",
				"energy": -0.27167,
				"method": "rhf"
			},
			{
				"type": "occ",
				"energy": -0.27116,
				"method": "rhf"
			},
			{
				"type": "occ",
				"energy": -0.26858,
				"method": "rhf"
			},
			{
				"type": "unocc",
				"energy": -0.06558,
				"method": "rhf"
			},
			{
				"type": "unocc",
				"energy": -0.06052,
				"method": "rhf"
			},
			{
				"type": "unocc",
				"energy": -0.04863,
				"method": "rhf"
			},
			{
				"type": "unocc",
				"energy": -0.02808,
				"method": "rhf"
			},
			{
				"type": "unocc",
				"energy": -0.02063,
				"method": "rhf"
			}
		],
		"cosmo_sigma_profile": { 
			"-0.025": 0.0,
			"-0.024": 0.0,
			"-0.023": 0.0,
			"-0.022": 0.0,
			"-0.021": 0.0,
			"-0.02": 0.0,
			"-0.019": 0.0,
			"-0.018": 0.0,
			"-0.017": 0.0606366824419,
			"-0.016": 0.506331410253,
			"-0.015": 0.777014977426,
			"-0.014": 1.17900567242,
			"-0.013": 1.5722633258,
			"-0.012": 1.59643697421,
			"-0.011": 1.66600583022,
			"-0.01": 2.85086707673,
			"-0.009": 1.55114379345,
			"-0.008": 2.43321832165,
			"-0.007": 10.3925497228,
			"-0.006": 23.2296955607,
			"-0.005": 26.7761646673,
			"-0.004": 22.9789376676,
			"-0.003": 19.2613958182,
			"-0.002": 21.6272469736,
			"-0.001": 24.9056186679,
			"0.0": 28.4301417451,
			"0.001": 29.7986321216,
			"0.002": 28.6928177384,
			"0.003": 32.0266571315,
			"0.004": 18.1992388777,
			"0.005": 9.09859726684,
			"0.006": 8.70059814373,
			"0.007": 8.11302423067,
			"0.008": 11.6080213403,
			"0.009": 12.8627355492,
			"0.01": 7.64179920717,
			"0.011": 3.18527052998,
			"0.012": 0.0,
			"0.013": 0.0,
			"0.014": 0.0,
			"0.015": 0.0,
			"0.016": 0.0,
			"0.017": 0.0,
			"0.018": 0.0,
			"0.019": 0.0,
			"0.02": 0.0,
			"0.021": 0.0,
			"0.022": 0.0,
			"0.023": 0.0,
			"0.024": 0.0,
			"0.025": 0.0
		}
	}
}
