{
	 "smiles": "FC(F)(F)C1=CC=C(NC(=O)CCl)C=C1", 
	 "Tm": 433.15, 
	 "num_atms": 22, 
	 "gaussian": { 
		 "optdone": 1, 
		 "sigma_profile": "yes", 
		 "theory": "DFT", 
		 "functional": "B3LYP", 
		 "basiset": "6-31G**", 
		 "properties": { 
			 "R2extent": 5384.8199, 
			 "electric_dipole_moment_norm": 1.97288269798, 
			 "electric_quadrupole_moment_norm": 18.9086942981, 
			 "total_energy": -1236.88165241, 
			 "HOMO_LUMO_gap": 0.19877, 
			 "cosmo_polarized_energy": -12.56, 
			 "cosmo_cavitation_energy": 29.84, 
			 "cosmo_dispersion_energy": -21.21, 
			 "cosmo_repulsion_energy": 1.61, 
			 "cosmo_total_nonelectrostatic_energy": 10.24, 
			 "SMD_solvation_energy": 6.69 
		},
		"coords": [
			{
				"x": 2.7398454297,
				"y": -1.4141107563,
				"z": 2.9671704042,
				"element": "F" 
			},
			{
				"x": 1.7626730482,
				"y": -0.5963731439,
				"z": 3.4161069639,
				"element": "C" 
			},
			{
				"x": 2.3491362093,
				"y": 0.3002871469,
				"z": 4.2431404556,
				"element": "F" 
			},
			{
				"x": 0.9248747973,
				"y": -1.3376590681,
				"z": 4.1752437313,
				"element": "F" 
			},
			{
				"x": 1.0371246027,
				"y": 0.0805833423,
				"z": 2.2863553135,
				"element": "C" 
			},
			{
				"x": 1.6970770699,
				"y": 0.3495814842,
				"z": 1.086170401,
				"element": "C" 
			},
			{
				"x": 1.0498374133,
				"y": 1.0336772736,
				"z": 0.0594008566,
				"element": "C" 
			},
			{
				"x": -0.2863384575,
				"y": 1.4294708087,
				"z": 0.2162714426,
				"element": "C" 
			},
			{
				"x": -0.9954416391,
				"y": 2.1356242427,
				"z": -0.7807521309,
				"element": "N" 
			},
			{
				"x": -1.0531304642,
				"y": 2.0093887862,
				"z": -2.1561925518,
				"element": "C" 
			},
			{
				"x": -1.776346911,
				"y": 2.7404365419,
				"z": -2.8114145511,
				"element": "O" 
			},
			{
				"x": -0.2464574372,
				"y": 0.9020981532,
				"z": -2.8273695461,
				"element": "C" 
			},
			{
				"x": 1.3130121033,
				"y": 1.5440180039,
				"z": -3.4943024771,
				"element": "Cl" 
			},
			{
				"x": -0.9439288494,
				"y": 1.1637457933,
				"z": 1.4288093215,
				"element": "C" 
			},
			{
				"x": -0.2851864673,
				"y": 0.5014240422,
				"z": 2.4574113398,
				"element": "C" 
			},
			{
				"x": 2.7273656212,
				"y": 0.037043709,
				"z": 0.9554539598,
				"element": "H" 
			},
			{
				"x": 1.5920086115,
				"y": 1.2819623013,
				"z": -0.8453901912,
				"element": "H" 
			},
			{
				"x": -1.677790393,
				"y": 2.8096785535,
				"z": -0.4528483999,
				"element": "H" 
			},
			{
				"x": 0.0003995536,
				"y": 0.0739484392,
				"z": -2.1642554274,
				"element": "H" 
			},
			{
				"x": -0.8272322688,
				"y": 0.5544891421,
				"z": -3.6798688869,
				"element": "H" 
			},
			{
				"x": -1.9796423522,
				"y": 1.4667238324,
				"z": 1.5531563966,
				"element": "H" 
			},
			{
				"x": -0.8034592203,
				"y": 0.2920613719,
				"z": 3.386903576,
				"element": "H" 
			}
		],
		 "valence_orbital": [ 
			{
				"type": "occ",
				"energy": -0.32217,
				"method": "rhf"
			},
			{
				"type": "occ",
				"energy": -0.31309,
				"method": "rhf"
			},
			{
				"type": "occ",
				"energy": -0.28306,
				"method": "rhf"
			},
			{
				"type": "occ",
				"energy": -0.27574,
				"method": "rhf"
			},
			{
				"type": "occ",
				"energy": -0.25157,
				"method": "rhf"
			},
			{
				"type": "unocc",
				"energy": -0.0528,
				"method": "rhf"
			},
			{
				"type": "unocc",
				"energy": -0.03383,
				"method": "rhf"
			},
			{
				"type": "unocc",
				"energy": -0.02331,
				"method": "rhf"
			},
			{
				"type": "unocc",
				"energy": 0.04592,
				"method": "rhf"
			},
			{
				"type": "unocc",
				"energy": 0.07481,
				"method": "rhf"
			}
		],
		"cosmo_sigma_profile": { 
			"-0.025": 0.0,
			"-0.024": 0.0,
			"-0.023": 0.0,
			"-0.022": 0.0,
			"-0.021": 0.0,
			"-0.02": 0.0,
			"-0.019": 0.0,
			"-0.018": 0.0,
			"-0.017": 0.0,
			"-0.016": 0.0227824518867,
			"-0.015": 1.04099994719,
			"-0.014": 0.884391177933,
			"-0.013": 1.1480000004,
			"-0.012": 1.61149583081,
			"-0.011": 1.0847580767,
			"-0.01": 0.979598292261,
			"-0.009": 3.01068735985,
			"-0.008": 6.81568145992,
			"-0.007": 9.97145440306,
			"-0.006": 13.0503572312,
			"-0.005": 10.925204865,
			"-0.004": 9.33829134538,
			"-0.003": 10.7704455825,
			"-0.002": 12.057753084,
			"-0.001": 14.213483411,
			"0.0": 16.7822347823,
			"0.001": 19.828951092,
			"0.002": 31.2191284268,
			"0.003": 40.2936496724,
			"0.004": 8.64508301175,
			"0.005": 8.5199588582,
			"0.006": 3.41565579126,
			"0.007": 1.25499491493,
			"0.008": 1.26242060885,
			"0.009": 0.75351809158,
			"0.01": 1.59542716816,
			"0.011": 3.02780287955,
			"0.012": 5.30019138769,
			"0.013": 2.43676853037,
			"0.014": 0.131997460979,
			"0.015": 0.0,
			"0.016": 0.0,
			"0.017": 0.0,
			"0.018": 0.0,
			"0.019": 0.0,
			"0.02": 0.0,
			"0.021": 0.0,
			"0.022": 0.0,
			"0.023": 0.0,
			"0.024": 0.0,
			"0.025": 0.0
		}
	}
}
