{
	 "smiles": "COC(=O)C1=CN(C)C(=C1C(=O)OC)C1=CC=C(N)C=C1", 
	 "Tm": 455.15, 
	 "num_atms": 37, 
	 "gaussian": { 
		 "optdone": 1, 
		 "sigma_profile": "yes", 
		 "theory": "DFT", 
		 "functional": "B3LYP", 
		 "basiset": "6-31G**", 
		 "properties": { 
			 "R2extent": 7396.2399, 
			 "electric_dipole_moment_norm": 5.56338871732, 
			 "electric_quadrupole_moment_norm": 17.5380648702, 
			 "total_energy": -991.653828361, 
			 "HOMO_LUMO_gap": 0.17817, 
			 "cosmo_polarized_energy": -22.36, 
			 "cosmo_cavitation_energy": 41.58, 
			 "cosmo_dispersion_energy": -28.84, 
			 "cosmo_repulsion_energy": 2.25, 
			 "cosmo_total_nonelectrostatic_energy": 14.99, 
			 "SMD_solvation_energy": 9.92 
		},
		"coords": [
			{
				"x": -2.9972510348,
				"y": -2.8621951958,
				"z": 3.7567109395,
				"element": "C" 
			},
			{
				"x": -2.3848906494,
				"y": -1.6662550403,
				"z": 3.2588761084,
				"element": "O" 
			},
			{
				"x": -1.5831439319,
				"y": -1.8436041951,
				"z": 2.1706103197,
				"element": "C" 
			},
			{
				"x": -1.4178419498,
				"y": -2.927634689,
				"z": 1.6464259926,
				"element": "O" 
			},
			{
				"x": -0.948773885,
				"y": -0.5821117118,
				"z": 1.7671721503,
				"element": "C" 
			},
			{
				"x": -0.8440346228,
				"y": 0.5471853803,
				"z": 2.5546776286,
				"element": "C" 
			},
			{
				"x": -0.0752430363,
				"y": 1.4690602364,
				"z": 1.9024328437,
				"element": "N" 
			},
			{
				"x": 0.2981591008,
				"y": 2.7545548992,
				"z": 2.477395941,
				"element": "C" 
			},
			{
				"x": 0.3419448462,
				"y": 0.952903445,
				"z": 0.6772848593,
				"element": "C" 
			},
			{
				"x": -0.1917449065,
				"y": -0.3292243187,
				"z": 0.5758628159,
				"element": "C" 
			},
			{
				"x": -0.0599238593,
				"y": -1.2301076285,
				"z": -0.5925745678,
				"element": "C" 
			},
			{
				"x": 0.9826191706,
				"y": -1.5120822122,
				"z": -1.1544656718,
				"element": "O" 
			},
			{
				"x": -1.2610079721,
				"y": -1.6997658052,
				"z": -0.9873717033,
				"element": "O" 
			},
			{
				"x": -1.2200823464,
				"y": -2.6943872552,
				"z": -2.0192379256,
				"element": "C" 
			},
			{
				"x": 1.1419359717,
				"y": 1.7429502147,
				"z": -0.2751067938,
				"element": "C" 
			},
			{
				"x": 0.7653766082,
				"y": 3.0477920041,
				"z": -0.6432037002,
				"element": "C" 
			},
			{
				"x": 1.5199397812,
				"y": 3.7981610553,
				"z": -1.5372486345,
				"element": "C" 
			},
			{
				"x": 2.6865413738,
				"y": 3.2629782291,
				"z": -2.111908659,
				"element": "C" 
			},
			{
				"x": 3.4160843637,
				"y": 3.9867961438,
				"z": -3.0509914502,
				"element": "N" 
			},
			{
				"x": 3.0610963315,
				"y": 1.9542149482,
				"z": -1.7594958431,
				"element": "C" 
			},
			{
				"x": 2.3059401095,
				"y": 1.2116860301,
				"z": -0.8604982307,
				"element": "C" 
			},
			{
				"x": -2.2407406129,
				"y": -3.5931549314,
				"z": 4.0554179778,
				"element": "H" 
			},
			{
				"x": -3.5905964291,
				"y": -2.5540197976,
				"z": 4.6183218817,
				"element": "H" 
			},
			{
				"x": -3.6374534558,
				"y": -3.3160825262,
				"z": 2.9955907821,
				"element": "H" 
			},
			{
				"x": -1.2311162472,
				"y": 0.7351308832,
				"z": 3.5443386917,
				"element": "H" 
			},
			{
				"x": 0.3269873687,
				"y": 2.6584860095,
				"z": 3.5648474805,
				"element": "H" 
			},
			{
				"x": 1.2861841961,
				"y": 3.0447295433,
				"z": 2.1192140674,
				"element": "H" 
			},
			{
				"x": -0.4161611502,
				"y": 3.5410284194,
				"z": 2.2127323882,
				"element": "H" 
			},
			{
				"x": -0.6717073667,
				"y": -3.5753593062,
				"z": -1.6757725224,
				"element": "H" 
			},
			{
				"x": -2.2602947447,
				"y": -2.9508083983,
				"z": -2.2209077149,
				"element": "H" 
			},
			{
				"x": -0.7386338448,
				"y": -2.3025824008,
				"z": -2.9188614362,
				"element": "H" 
			},
			{
				"x": -0.147896383,
				"y": 3.47752698,
				"z": -0.2415992275,
				"element": "H" 
			},
			{
				"x": 1.1969382369,
				"y": 4.7996025684,
				"z": -1.8112240444,
				"element": "H" 
			},
			{
				"x": 3.3162287023,
				"y": 4.9910126696,
				"z": -3.0076272928,
				"element": "H" 
			},
			{
				"x": 4.3761181283,
				"y": 3.6986739123,
				"z": -3.1764575229,
				"element": "H" 
			},
			{
				"x": 3.9534584013,
				"y": 1.5166339908,
				"z": -2.2004510989,
				"element": "H" 
			},
			{
				"x": 2.6011857377,
				"y": 0.1982678498,
				"z": -0.6179088283,
				"element": "H" 
			}
		],
		 "valence_orbital": [ 
			{
				"type": "occ",
				"energy": -0.25694,
				"method": "rhf"
			},
			{
				"type": "occ",
				"energy": -0.24668,
				"method": "rhf"
			},
			{
				"type": "occ",
				"energy": -0.23969,
				"method": "rhf"
			},
			{
				"type": "occ",
				"energy": -0.23064,
				"method": "rhf"
			},
			{
				"type": "occ",
				"energy": -0.19279,
				"method": "rhf"
			},
			{
				"type": "unocc",
				"energy": -0.01462,
				"method": "rhf"
			},
			{
				"type": "unocc",
				"energy": -0.00555,
				"method": "rhf"
			},
			{
				"type": "unocc",
				"energy": 0.00246,
				"method": "rhf"
			},
			{
				"type": "unocc",
				"energy": 0.02577,
				"method": "rhf"
			},
			{
				"type": "unocc",
				"energy": 0.06684,
				"method": "rhf"
			}
		],
		"cosmo_sigma_profile": { 
			"-0.025": 0.0,
			"-0.024": 0.0,
			"-0.023": 0.0,
			"-0.022": 0.0,
			"-0.021": 0.0,
			"-0.02": 0.0,
			"-0.019": 0.0,
			"-0.018": 0.0,
			"-0.017": 0.0,
			"-0.016": 0.0,
			"-0.015": 0.0,
			"-0.014": 0.0,
			"-0.013": 0.819543446704,
			"-0.012": 2.86215276134,
			"-0.011": 2.25232431702,
			"-0.01": 3.29670689984,
			"-0.009": 4.73774292211,
			"-0.008": 5.4192983472,
			"-0.007": 8.43741245211,
			"-0.006": 18.9649991772,
			"-0.005": 25.3867192477,
			"-0.004": 27.866420257,
			"-0.003": 34.0009054096,
			"-0.002": 19.6788105505,
			"-0.001": 17.0520081194,
			"0.0": 14.611404655,
			"0.001": 16.6390748006,
			"0.002": 16.8052198192,
			"0.003": 17.8518344998,
			"0.004": 19.0665066727,
			"0.005": 16.7815240105,
			"0.006": 15.6239215588,
			"0.007": 8.1884713972,
			"0.008": 6.96131119592,
			"0.009": 6.63281952353,
			"0.01": 5.57218191626,
			"0.011": 5.4824120673,
			"0.012": 6.54457950016,
			"0.013": 2.20435385733,
			"0.014": 0.362396182899,
			"0.015": 0.0,
			"0.016": 0.0,
			"0.017": 0.0,
			"0.018": 0.0,
			"0.019": 0.0,
			"0.02": 0.0,
			"0.021": 0.0,
			"0.022": 0.0,
			"0.023": 0.0,
			"0.024": 0.0,
			"0.025": 0.0
		}
	}
}
