{
	 "smiles": "NC(=O)NCC1=CC=C(C=C1)S(N)(=O)=O", 
	 "Tm": 449.15, 
	 "num_atms": 26, 
	 "gaussian": { 
		 "optdone": 1, 
		 "sigma_profile": "yes", 
		 "theory": "DFT", 
		 "functional": "B3LYP", 
		 "basiset": "6-31G**", 
		 "properties": { 
			 "R2extent": 6028.0887, 
			 "electric_dipole_moment_norm": 5.21257742868, 
			 "electric_quadrupole_moment_norm": 35.3236923379, 
			 "total_energy": -1099.54785656, 
			 "HOMO_LUMO_gap": 0.20701, 
			 "cosmo_polarized_energy": -30.08, 
			 "cosmo_cavitation_energy": 32.01, 
			 "cosmo_dispersion_energy": -23.52, 
			 "cosmo_repulsion_energy": 1.83, 
			 "cosmo_total_nonelectrostatic_energy": 10.32, 
			 "SMD_solvation_energy": 5.2 
		},
		"coords": [
			{
				"x": -2.4244522082,
				"y": -0.7264043094,
				"z": 3.8162524213,
				"element": "N" 
			},
			{
				"x": -3.1589415071,
				"y": -0.6921218402,
				"z": 2.6320514389,
				"element": "C" 
			},
			{
				"x": -4.2772599618,
				"y": -0.2027063067,
				"z": 2.5701042104,
				"element": "O" 
			},
			{
				"x": -2.5396517558,
				"y": -1.2453460485,
				"z": 1.520975794,
				"element": "N" 
			},
			{
				"x": -1.0964562721,
				"y": -1.3405604934,
				"z": 1.2978655604,
				"element": "C" 
			},
			{
				"x": -0.4693465645,
				"y": -0.0775872398,
				"z": 0.7273338457,
				"element": "C" 
			},
			{
				"x": -0.3494449191,
				"y": 1.0776208888,
				"z": 1.5160290393,
				"element": "C" 
			},
			{
				"x": 0.2058253468,
				"y": 2.2408360251,
				"z": 0.990443525,
				"element": "C" 
			},
			{
				"x": 0.6404158604,
				"y": 2.2515594012,
				"z": -0.3386688143,
				"element": "C" 
			},
			{
				"x": 0.5436611698,
				"y": 1.1117808338,
				"z": -1.1365144359,
				"element": "C" 
			},
			{
				"x": -0.0137550159,
				"y": -0.0477510747,
				"z": -0.5955661328,
				"element": "C" 
			},
			{
				"x": 1.3296373399,
				"y": 3.7620236955,
				"z": -1.033487557,
				"element": "S" 
			},
			{
				"x": 0.0361162022,
				"y": 4.6567023311,
				"z": -1.6275735739,
				"element": "N" 
			},
			{
				"x": 2.1171255177,
				"y": 3.3827335917,
				"z": -2.2051631166,
				"element": "O" 
			},
			{
				"x": 1.872126212,
				"y": 4.5446813435,
				"z": 0.0752404552,
				"element": "O" 
			},
			{
				"x": -3.0068979385,
				"y": -0.4970327807,
				"z": 4.6104214453,
				"element": "H" 
			},
			{
				"x": -1.8285485297,
				"y": -1.5281292999,
				"z": 3.9738396502,
				"element": "H" 
			},
			{
				"x": -3.0934093954,
				"y": -1.0644553782,
				"z": 0.6930531742,
				"element": "H" 
			},
			{
				"x": -0.6110083478,
				"y": -1.6001689481,
				"z": 2.2421176386,
				"element": "H" 
			},
			{
				"x": -0.9137503634,
				"y": -2.1790053487,
				"z": 0.6174813919,
				"element": "H" 
			},
			{
				"x": -0.6881918229,
				"y": 1.0582750656,
				"z": 2.5479552794,
				"element": "H" 
			},
			{
				"x": 0.3285398526,
				"y": 3.1264152696,
				"z": 1.60517357,
				"element": "H" 
			},
			{
				"x": 0.9201443764,
				"y": 1.1316001829,
				"z": -2.1536777288,
				"element": "H" 
			},
			{
				"x": -0.0848348929,
				"y": -0.9423375076,
				"z": -1.2093600354,
				"element": "H" 
			},
			{
				"x": -0.5974917173,
				"y": 4.9694430764,
				"z": -0.8988016493,
				"element": "H" 
			},
			{
				"x": -0.4377506655,
				"y": 4.2022348706,
				"z": -2.4016253958,
				"element": "H" 
			}
		],
		 "valence_orbital": [ 
			{
				"type": "occ",
				"energy": -0.28631,
				"method": "rhf"
			},
			{
				"type": "occ",
				"energy": -0.27887,
				"method": "rhf"
			},
			{
				"type": "occ",
				"energy": -0.27802,
				"method": "rhf"
			},
			{
				"type": "occ",
				"energy": -0.26284,
				"method": "rhf"
			},
			{
				"type": "occ",
				"energy": -0.25495,
				"method": "rhf"
			},
			{
				"type": "unocc",
				"energy": -0.04794,
				"method": "rhf"
			},
			{
				"type": "unocc",
				"energy": -0.02964,
				"method": "rhf"
			},
			{
				"type": "unocc",
				"energy": 0.03994,
				"method": "rhf"
			},
			{
				"type": "unocc",
				"energy": 0.04916,
				"method": "rhf"
			},
			{
				"type": "unocc",
				"energy": 0.05612,
				"method": "rhf"
			}
		],
		"cosmo_sigma_profile": { 
			"-0.025": 0.0,
			"-0.024": 0.0,
			"-0.023": 0.0,
			"-0.022": 0.0,
			"-0.021": 0.0,
			"-0.02": 0.0,
			"-0.019": 0.0,
			"-0.018": 0.0,
			"-0.017": 0.0,
			"-0.016": 0.135245273227,
			"-0.015": 2.20187456649,
			"-0.014": 4.29760562261,
			"-0.013": 4.78813336422,
			"-0.012": 6.78575356776,
			"-0.011": 5.61062157894,
			"-0.01": 5.99814784167,
			"-0.009": 6.00550762728,
			"-0.008": 4.95300639764,
			"-0.007": 11.6008532482,
			"-0.006": 14.1090731107,
			"-0.005": 13.0958183891,
			"-0.004": 11.482732492,
			"-0.003": 11.6082875254,
			"-0.002": 10.7160591269,
			"-0.001": 9.54875263303,
			"0.0": 11.0694472718,
			"0.001": 12.7515243606,
			"0.002": 15.3525865504,
			"0.003": 15.1450881956,
			"0.004": 6.43695248188,
			"0.005": 5.58722735447,
			"0.006": 6.37278405509,
			"0.007": 6.15960356526,
			"0.008": 6.53082737122,
			"0.009": 5.99567093254,
			"0.01": 8.78656345073,
			"0.011": 11.5581657684,
			"0.012": 6.72792198709,
			"0.013": 3.11789139838,
			"0.014": 6.50547714599,
			"0.015": 2.4532384634,
			"0.016": 0.0,
			"0.017": 0.0,
			"0.018": 0.0,
			"0.019": 0.0,
			"0.02": 0.0,
			"0.021": 0.0,
			"0.022": 0.0,
			"0.023": 0.0,
			"0.024": 0.0,
			"0.025": 0.0
		}
	}
}
