{
	 "smiles": "COC(=O)C1=CC=C(Br)C=C1", 
	 "Tm": 353.15, 
	 "num_atms": 18, 
	 "gaussian": { 
		 "optdone": 1, 
		 "sigma_profile": "yes", 
		 "theory": "DFT", 
		 "functional": "B3LYP", 
		 "basiset": "6-31G**", 
		 "properties": { 
			 "R2extent": 6751.8225, 
			 "electric_dipole_moment_norm": 1.90990173046, 
			 "electric_quadrupole_moment_norm": 3.76341558694, 
			 "total_energy": -3030.93336159, 
			 "HOMO_LUMO_gap": 0.19692, 
			 "cosmo_polarized_energy": -6.88, 
			 "cosmo_cavitation_energy": 25.1, 
			 "cosmo_dispersion_energy": -18.94, 
			 "cosmo_repulsion_energy": 1.52, 
			 "cosmo_total_nonelectrostatic_energy": 7.69, 
			 "SMD_solvation_energy": 4.81 
		},
		"coords": [
			{
				"x": 0.2316001335,
				"y": 2.3453813621,
				"z": 0.2343433485,
				"element": "C" 
			},
			{
				"x": 0.1920425225,
				"y": 1.012187957,
				"z": -0.2983826222,
				"element": "O" 
			},
			{
				"x": 1.3234104569,
				"y": 0.2910310939,
				"z": -0.1292206687,
				"element": "C" 
			},
			{
				"x": 2.3114806777,
				"y": 0.7245688106,
				"z": 0.4308605417,
				"element": "O" 
			},
			{
				"x": 1.2153296038,
				"y": -1.079693616,
				"z": -0.703585536,
				"element": "C" 
			},
			{
				"x": 2.3265655532,
				"y": -1.9255055692,
				"z": -0.5907542097,
				"element": "C" 
			},
			{
				"x": 2.2873668216,
				"y": -3.217326394,
				"z": -1.1070411875,
				"element": "C" 
			},
			{
				"x": 1.1235911944,
				"y": -3.6577170636,
				"z": -1.7392469575,
				"element": "C" 
			},
			{
				"x": 1.0589359006,
				"y": -5.4278411924,
				"z": -2.4506658654,
				"element": "Br" 
			},
			{
				"x": 0.0059223238,
				"y": -2.8316797699,
				"z": -1.8623587926,
				"element": "C" 
			},
			{
				"x": 0.0559769237,
				"y": -1.5403396716,
				"z": -1.3419849358,
				"element": "C" 
			},
			{
				"x": 0.4093974949,
				"y": 2.3235858409,
				"z": 1.3124126138,
				"element": "H" 
			},
			{
				"x": -0.7441293368,
				"y": 2.7786401802,
				"z": 0.0151765185,
				"element": "H" 
			},
			{
				"x": 1.0259145165,
				"y": 2.9260863896,
				"z": -0.2412174682,
				"element": "H" 
			},
			{
				"x": 3.2157085213,
				"y": -1.5528019576,
				"z": -0.0936206167,
				"element": "H" 
			},
			{
				"x": 3.1444582213,
				"y": -3.8752814486,
				"z": -1.0221448075,
				"element": "H" 
			},
			{
				"x": -0.8875193921,
				"y": -3.1944191221,
				"z": -2.3572524296,
				"element": "H" 
			},
			{
				"x": -0.8042521369,
				"y": -0.8869758293,
				"z": -1.4299169252,
				"element": "H" 
			}
		],
		 "valence_orbital": [ 
			{
				"type": "occ",
				"energy": -0.30685,
				"method": "rhf"
			},
			{
				"type": "occ",
				"energy": -0.29391,
				"method": "rhf"
			},
			{
				"type": "occ",
				"energy": -0.27916,
				"method": "rhf"
			},
			{
				"type": "occ",
				"energy": -0.2721,
				"method": "rhf"
			},
			{
				"type": "occ",
				"energy": -0.25179,
				"method": "rhf"
			},
			{
				"type": "unocc",
				"energy": -0.05487,
				"method": "rhf"
			},
			{
				"type": "unocc",
				"energy": -0.02106,
				"method": "rhf"
			},
			{
				"type": "unocc",
				"energy": 0.00141,
				"method": "rhf"
			},
			{
				"type": "unocc",
				"energy": 0.04708,
				"method": "rhf"
			},
			{
				"type": "unocc",
				"energy": 0.10364,
				"method": "rhf"
			}
		],
		"cosmo_sigma_profile": { 
			"-0.025": 0.0,
			"-0.024": 0.0,
			"-0.023": 0.0,
			"-0.022": 0.0,
			"-0.021": 0.0,
			"-0.02": 0.0,
			"-0.019": 0.0,
			"-0.018": 0.0,
			"-0.017": 0.0,
			"-0.016": 0.0,
			"-0.015": 0.0,
			"-0.014": 0.0,
			"-0.013": 0.0,
			"-0.012": 0.0,
			"-0.011": 0.0,
			"-0.01": 0.0,
			"-0.009": 0.0,
			"-0.008": 1.02049134007,
			"-0.007": 6.28290319403,
			"-0.006": 12.1355025367,
			"-0.005": 13.3237050402,
			"-0.004": 15.7016512,
			"-0.003": 16.7628882032,
			"-0.002": 13.2590372889,
			"-0.001": 12.7029364619,
			"0.0": 17.5679721266,
			"0.001": 21.8588487066,
			"0.002": 25.9094428014,
			"0.003": 12.712724494,
			"0.004": 15.1593544373,
			"0.005": 5.458348931,
			"0.006": 1.10514326846,
			"0.007": 1.34925492494,
			"0.008": 1.87074875292,
			"0.009": 1.90155912815,
			"0.01": 1.02034343009,
			"0.011": 3.7852709946,
			"0.012": 3.56350403427,
			"0.013": 0.0953792137851,
			"0.014": 0.0,
			"0.015": 0.0,
			"0.016": 0.0,
			"0.017": 0.0,
			"0.018": 0.0,
			"0.019": 0.0,
			"0.02": 0.0,
			"0.021": 0.0,
			"0.022": 0.0,
			"0.023": 0.0,
			"0.024": 0.0,
			"0.025": 0.0
		}
	}
}
