{
	 "smiles": "CC1=CC=C(C=C1)C1=C(N=CO1)C(O)=O", 
	 "Tm": 467.15, 
	 "num_atms": 24, 
	 "gaussian": { 
		 "optdone": 1, 
		 "sigma_profile": "yes", 
		 "theory": "DFT", 
		 "functional": "B3LYP", 
		 "basiset": "6-31G**", 
		 "properties": { 
			 "R2extent": 3777.8256, 
			 "electric_dipole_moment_norm": 4.57609738533, 
			 "electric_quadrupole_moment_norm": 19.6192488528, 
			 "total_energy": -705.021233058, 
			 "HOMO_LUMO_gap": 0.17221, 
			 "cosmo_polarized_energy": -15.08, 
			 "cosmo_cavitation_energy": 29.16, 
			 "cosmo_dispersion_energy": -21.33, 
			 "cosmo_repulsion_energy": 1.66, 
			 "cosmo_total_nonelectrostatic_energy": 9.5, 
			 "SMD_solvation_energy": 5.73 
		},
		"coords": [
			{
				"x": 0.4804300116,
				"y": -2.3444432373,
				"z": -3.9264193172,
				"element": "C" 
			},
			{
				"x": 0.3941975152,
				"y": -1.5598198683,
				"z": -2.6400450254,
				"element": "C" 
			},
			{
				"x": 1.5220426295,
				"y": -1.3735721547,
				"z": -1.8292528217,
				"element": "C" 
			},
			{
				"x": 1.4465226009,
				"y": -0.6782537256,
				"z": -0.6263037454,
				"element": "C" 
			},
			{
				"x": 0.2230744163,
				"y": -0.1431457771,
				"z": -0.1909617239,
				"element": "C" 
			},
			{
				"x": -0.9099221645,
				"y": -0.3123724605,
				"z": -1.0085485786,
				"element": "C" 
			},
			{
				"x": -0.8210358558,
				"y": -1.0106812573,
				"z": -2.2076878226,
				"element": "C" 
			},
			{
				"x": 0.0987219908,
				"y": 0.6269079574,
				"z": 1.0469934134,
				"element": "C" 
			},
			{
				"x": 0.6763407412,
				"y": 0.6857113983,
				"z": 2.3028561229,
				"element": "C" 
			},
			{
				"x": 0.0771001313,
				"y": 1.7036588771,
				"z": 3.0418363179,
				"element": "N" 
			},
			{
				"x": -0.8103291577,
				"y": 2.1963286654,
				"z": 2.2515436809,
				"element": "C" 
			},
			{
				"x": -0.8663366037,
				"y": 1.605604685,
				"z": 1.0272297891,
				"element": "O" 
			},
			{
				"x": 1.7008233913,
				"y": -0.1391314707,
				"z": 2.9725054085,
				"element": "C" 
			},
			{
				"x": 2.1190708388,
				"y": -1.1930689479,
				"z": 2.2214828416,
				"element": "O" 
			},
			{
				"x": 2.1295241309,
				"y": 0.0680839687,
				"z": 4.0860305982,
				"element": "O" 
			},
			{
				"x": -0.2564201458,
				"y": -1.9984387614,
				"z": -4.6573594708,
				"element": "H" 
			},
			{
				"x": 0.2884662487,
				"y": -3.4105320941,
				"z": -3.7507012324,
				"element": "H" 
			},
			{
				"x": 1.4733796564,
				"y": -2.2641520107,
				"z": -4.3786771451,
				"element": "H" 
			},
			{
				"x": 2.4811972074,
				"y": -1.7721467912,
				"z": -2.1500172724,
				"element": "H" 
			},
			{
				"x": 2.3359290672,
				"y": -0.5441038703,
				"z": -0.0251749779,
				"element": "H" 
			},
			{
				"x": -1.860513438,
				"y": 0.1068058197,
				"z": -0.6968912984,
				"element": "H" 
			},
			{
				"x": -1.7111056562,
				"y": -1.1314880461,
				"z": -2.8199311651,
				"element": "H" 
			},
			{
				"x": -1.5030787906,
				"y": 3.0050499221,
				"z": 2.4320545792,
				"element": "H" 
			},
			{
				"x": 2.7667212347,
				"y": -1.6597008207,
				"z": 2.7755388453,
				"element": "H" 
			}
		],
		 "valence_orbital": [ 
			{
				"type": "occ",
				"energy": -0.2978,
				"method": "rhf"
			},
			{
				"type": "occ",
				"energy": -0.28491,
				"method": "rhf"
			},
			{
				"type": "occ",
				"energy": -0.27521,
				"method": "rhf"
			},
			{
				"type": "occ",
				"energy": -0.25977,
				"method": "rhf"
			},
			{
				"type": "occ",
				"energy": -0.23001,
				"method": "rhf"
			},
			{
				"type": "unocc",
				"energy": -0.0578,
				"method": "rhf"
			},
			{
				"type": "unocc",
				"energy": -0.01017,
				"method": "rhf"
			},
			{
				"type": "unocc",
				"energy": 0.00144,
				"method": "rhf"
			},
			{
				"type": "unocc",
				"energy": 0.01446,
				"method": "rhf"
			},
			{
				"type": "unocc",
				"energy": 0.07764,
				"method": "rhf"
			}
		],
		"cosmo_sigma_profile": { 
			"-0.025": 0.0,
			"-0.024": 0.0,
			"-0.023": 0.0,
			"-0.022": 0.0,
			"-0.021": 0.0,
			"-0.02": 0.0,
			"-0.019": 0.128566241268,
			"-0.018": 0.831440098398,
			"-0.017": 0.976701402132,
			"-0.016": 0.957115533693,
			"-0.015": 0.627758911406,
			"-0.014": 0.611218324475,
			"-0.013": 0.33710868755,
			"-0.012": 1.41154560841,
			"-0.011": 2.95077429614,
			"-0.01": 2.55781235807,
			"-0.009": 1.69630680361,
			"-0.008": 2.08343588977,
			"-0.007": 2.50398417178,
			"-0.006": 5.71487183026,
			"-0.005": 13.3650095148,
			"-0.004": 19.3605461385,
			"-0.003": 20.9039936847,
			"-0.002": 20.9845773889,
			"-0.001": 23.1930655347,
			"0.0": 19.8002249911,
			"0.001": 13.0619417059,
			"0.002": 12.1036100397,
			"0.003": 12.0751885047,
			"0.004": 15.4221931915,
			"0.005": 9.12708999558,
			"0.006": 3.82726148871,
			"0.007": 2.75666944708,
			"0.008": 2.68846196808,
			"0.009": 2.85041345638,
			"0.01": 2.18985976566,
			"0.011": 5.50412982039,
			"0.012": 4.55243054308,
			"0.013": 2.2985698229,
			"0.014": 1.62950524358,
			"0.015": 1.86405604339,
			"0.016": 0.986071822308,
			"0.017": 0.00598318936738,
			"0.018": 0.0,
			"0.019": 0.0,
			"0.02": 0.0,
			"0.021": 0.0,
			"0.022": 0.0,
			"0.023": 0.0,
			"0.024": 0.0,
			"0.025": 0.0
		}
	}
}
