{
	 "smiles": "OC(=O)CNC(=O)C1=C(C=CC=C1)C(F)(F)F", 
	 "Tm": 426.15, 
	 "num_atms": 25, 
	 "gaussian": { 
		 "optdone": 1, 
		 "sigma_profile": "yes", 
		 "theory": "DFT", 
		 "functional": "B3LYP", 
		 "basiset": "6-31G**", 
		 "properties": { 
			 "R2extent": 4578.8291, 
			 "electric_dipole_moment_norm": 4.28682736181, 
			 "electric_quadrupole_moment_norm": 8.88347182525, 
			 "total_energy": -965.860777507, 
			 "HOMO_LUMO_gap": 0.20508, 
			 "cosmo_polarized_energy": -15.51, 
			 "cosmo_cavitation_energy": 31.36, 
			 "cosmo_dispersion_energy": -21.85, 
			 "cosmo_repulsion_energy": 1.66, 
			 "cosmo_total_nonelectrostatic_energy": 11.17, 
			 "SMD_solvation_energy": 8.17 
		},
		"coords": [
			{
				"x": 1.9520364515,
				"y": 2.01312327,
				"z": -2.6856362036,
				"element": "O" 
			},
			{
				"x": 3.1308169142,
				"y": 1.4938745183,
				"z": -2.2712863718,
				"element": "C" 
			},
			{
				"x": 4.2042265169,
				"y": 1.8872967279,
				"z": -2.664565992,
				"element": "O" 
			},
			{
				"x": 2.9686792215,
				"y": 0.3460664783,
				"z": -1.2888852555,
				"element": "C" 
			},
			{
				"x": 1.6057273694,
				"y": 0.0397653418,
				"z": -0.9223941856,
				"element": "N" 
			},
			{
				"x": 1.2367497599,
				"y": -0.0863945162,
				"z": 0.3844070408,
				"element": "C" 
			},
			{
				"x": 2.0206491527,
				"y": 0.0781656308,
				"z": 1.3144756184,
				"element": "O" 
			},
			{
				"x": -0.2283510601,
				"y": -0.3566631886,
				"z": 0.6650071413,
				"element": "C" 
			},
			{
				"x": -1.0698780154,
				"y": -1.2758711134,
				"z": 0.0022327097,
				"element": "C" 
			},
			{
				"x": -2.4041457439,
				"y": -1.4119725566,
				"z": 0.4020576952,
				"element": "C" 
			},
			{
				"x": -2.9167532959,
				"y": -0.6496884239,
				"z": 1.4491233811,
				"element": "C" 
			},
			{
				"x": -2.0852504893,
				"y": 0.2425172319,
				"z": 2.1243272798,
				"element": "C" 
			},
			{
				"x": -0.7533708227,
				"y": 0.3727094174,
				"z": 1.7401490225,
				"element": "C" 
			},
			{
				"x": -0.5875596688,
				"y": -2.1600844775,
				"z": -1.1231797631,
				"element": "C" 
			},
			{
				"x": -0.449083147,
				"y": -1.459062177,
				"z": -2.2920367622,
				"element": "F" 
			},
			{
				"x": 0.6086861946,
				"y": -2.7215144979,
				"z": -0.8641341844,
				"element": "F" 
			},
			{
				"x": -1.4497832155,
				"y": -3.1592096436,
				"z": -1.391698452,
				"element": "F" 
			},
			{
				"x": 2.1761509685,
				"y": 2.7189021902,
				"z": -3.315740488,
				"element": "H" 
			},
			{
				"x": 3.4796411611,
				"y": -0.5197694725,
				"z": -1.7311854417,
				"element": "H" 
			},
			{
				"x": 3.5082921918,
				"y": 0.5970724073,
				"z": -0.3717736368,
				"element": "H" 
			},
			{
				"x": 0.9178097513,
				"y": -0.0568156332,
				"z": -1.6534263255,
				"element": "H" 
			},
			{
				"x": -3.0355614925,
				"y": -2.1327326308,
				"z": -0.1033393524,
				"element": "H" 
			},
			{
				"x": -3.9553572277,
				"y": -0.7663728431,
				"z": 1.7425981709,
				"element": "H" 
			},
			{
				"x": -2.4684523417,
				"y": 0.8301161476,
				"z": 2.9531035931,
				"element": "H" 
			},
			{
				"x": -0.0849191329,
				"y": 1.0408418127,
				"z": 2.2715007619,
				"element": "H" 
			}
		],
		 "valence_orbital": [ 
			{
				"type": "occ",
				"energy": -0.29475,
				"method": "rhf"
			},
			{
				"type": "occ",
				"energy": -0.28081,
				"method": "rhf"
			},
			{
				"type": "occ",
				"energy": -0.27964,
				"method": "rhf"
			},
			{
				"type": "occ",
				"energy": -0.25943,
				"method": "rhf"
			},
			{
				"type": "occ",
				"energy": -0.25636,
				"method": "rhf"
			},
			{
				"type": "unocc",
				"energy": -0.05128,
				"method": "rhf"
			},
			{
				"type": "unocc",
				"energy": -0.03025,
				"method": "rhf"
			},
			{
				"type": "unocc",
				"energy": 0.00076,
				"method": "rhf"
			},
			{
				"type": "unocc",
				"energy": 0.03815,
				"method": "rhf"
			},
			{
				"type": "unocc",
				"energy": 0.06661,
				"method": "rhf"
			}
		],
		"cosmo_sigma_profile": { 
			"-0.025": 0.0,
			"-0.024": 0.0,
			"-0.023": 0.0,
			"-0.022": 0.0,
			"-0.021": 0.0,
			"-0.02": 0.0,
			"-0.019": 0.206424594364,
			"-0.018": 1.18778207491,
			"-0.017": 0.570735404375,
			"-0.016": 0.873377819035,
			"-0.015": 1.17389305629,
			"-0.014": 0.677521700773,
			"-0.013": 0.499315680761,
			"-0.012": 0.845548588767,
			"-0.011": 0.727098563611,
			"-0.01": 1.03603470206,
			"-0.009": 1.62226625963,
			"-0.008": 4.87638051378,
			"-0.007": 11.7825152434,
			"-0.006": 15.3539724247,
			"-0.005": 14.1257137559,
			"-0.004": 12.8798272236,
			"-0.003": 13.5578812084,
			"-0.002": 13.6713710865,
			"-0.001": 15.8935417607,
			"0.0": 17.3205687081,
			"0.001": 23.6967289722,
			"0.002": 36.5837494273,
			"0.003": 17.5124470757,
			"0.004": 5.30822402916,
			"0.005": 3.92988274237,
			"0.006": 2.85628557847,
			"0.007": 4.37918165332,
			"0.008": 3.44965185667,
			"0.009": 3.09105061059,
			"0.01": 3.96668622693,
			"0.011": 6.47705671652,
			"0.012": 6.08771462163,
			"0.013": 4.19841657243,
			"0.014": 0.755857326062,
			"0.015": 0.0,
			"0.016": 0.0,
			"0.017": 0.0,
			"0.018": 0.0,
			"0.019": 0.0,
			"0.02": 0.0,
			"0.021": 0.0,
			"0.022": 0.0,
			"0.023": 0.0,
			"0.024": 0.0,
			"0.025": 0.0
		}
	}
}
