{
	 "smiles": "OC(=O)C1=CC(=O)C=C(O1)C(O)=O", 
	 "Tm": 535.15, 
	 "num_atms": 17, 
	 "gaussian": { 
		 "optdone": 1, 
		 "sigma_profile": "yes", 
		 "theory": "DFT", 
		 "functional": "B3LYP", 
		 "basiset": "6-31G**", 
		 "properties": { 
			 "R2extent": 2652.3207, 
			 "electric_dipole_moment_norm": 2.76878520113, 
			 "electric_quadrupole_moment_norm": 18.50066335, 
			 "total_energy": -720.470105067, 
			 "HOMO_LUMO_gap": 0.16551, 
			 "cosmo_polarized_energy": -26.75, 
			 "cosmo_cavitation_energy": 23.94, 
			 "cosmo_dispersion_energy": -17.35, 
			 "cosmo_repulsion_energy": 1.37, 
			 "cosmo_total_nonelectrostatic_energy": 7.96, 
			 "SMD_solvation_energy": 7.97 
		},
		"coords": [
			{
				"x": -1.7555700249,
				"y": -2.2280415301,
				"z": 0.8730027725,
				"element": "O" 
			},
			{
				"x": -0.5651559435,
				"y": -2.6013288146,
				"z": 0.3617733795,
				"element": "C" 
			},
			{
				"x": -0.1542318154,
				"y": -3.7301401383,
				"z": 0.4469571594,
				"element": "O" 
			},
			{
				"x": 0.2214364665,
				"y": -1.5254144686,
				"z": -0.3342952969,
				"element": "C" 
			},
			{
				"x": 1.3126437603,
				"y": -1.7747361749,
				"z": -1.0817886048,
				"element": "C" 
			},
			{
				"x": 2.0248182874,
				"y": -0.6938257716,
				"z": -1.7845108963,
				"element": "C" 
			},
			{
				"x": 3.0140333554,
				"y": -0.8800411576,
				"z": -2.4816111442,
				"element": "O" 
			},
			{
				"x": 1.4264918016,
				"y": 0.6337965728,
				"z": -1.5636281278,
				"element": "C" 
			},
			{
				"x": 0.3443389127,
				"y": 0.7936473688,
				"z": -0.7793882773,
				"element": "C" 
			},
			{
				"x": -0.2865133506,
				"y": -0.2586805833,
				"z": -0.1555356057,
				"element": "O" 
			},
			{
				"x": -0.2718173584,
				"y": 2.1336528054,
				"z": -0.4868701447,
				"element": "C" 
			},
			{
				"x": -1.1971351916,
				"y": 2.1588220017,
				"z": 0.493407952,
				"element": "O" 
			},
			{
				"x": 0.0526010976,
				"y": 3.12396436,
				"z": -1.0904968237,
				"element": "O" 
			},
			{
				"x": -1.9488167066,
				"y": -1.3075704584,
				"z": 0.6413220013,
				"element": "H" 
			},
			{
				"x": 1.6591858375,
				"y": -2.7969621045,
				"z": -1.1740150831,
				"element": "H" 
			},
			{
				"x": 1.8683634011,
				"y": 1.5075952647,
				"z": -2.0270550896,
				"element": "H" 
			},
			{
				"x": -1.2690725291,
				"y": 1.2883628286,
				"z": 0.9122318299,
				"element": "H" 
			}
		],
		 "valence_orbital": [ 
			{
				"type": "occ",
				"energy": -0.33209,
				"method": "rhf"
			},
			{
				"type": "occ",
				"energy": -0.31988,
				"method": "rhf"
			},
			{
				"type": "occ",
				"energy": -0.31383,
				"method": "rhf"
			},
			{
				"type": "occ",
				"energy": -0.29221,
				"method": "rhf"
			},
			{
				"type": "occ",
				"energy": -0.27625,
				"method": "rhf"
			},
			{
				"type": "unocc",
				"energy": -0.11074,
				"method": "rhf"
			},
			{
				"type": "unocc",
				"energy": -0.09434,
				"method": "rhf"
			},
			{
				"type": "unocc",
				"energy": -0.00048,
				"method": "rhf"
			},
			{
				"type": "unocc",
				"energy": 0.00721,
				"method": "rhf"
			},
			{
				"type": "unocc",
				"energy": 0.03768,
				"method": "rhf"
			}
		],
		"cosmo_sigma_profile": { 
			"-0.025": 0.0,
			"-0.024": 0.0,
			"-0.023": 0.0,
			"-0.022": 0.0,
			"-0.021": 0.0,
			"-0.02": 1.23167827157,
			"-0.019": 2.10017389198,
			"-0.018": 1.53178051646,
			"-0.017": 2.07070897301,
			"-0.016": 2.15812396737,
			"-0.015": 1.23485458924,
			"-0.014": 2.04025665916,
			"-0.013": 2.06800537326,
			"-0.012": 1.64598161061,
			"-0.011": 1.17024438413,
			"-0.01": 2.90627761952,
			"-0.009": 4.4800927516,
			"-0.008": 7.82094029024,
			"-0.007": 9.55214625279,
			"-0.006": 8.61275171516,
			"-0.005": 7.96752751915,
			"-0.004": 9.46091916481,
			"-0.003": 13.0203675881,
			"-0.002": 10.7237570078,
			"-0.001": 6.47619063775,
			"0.0": 4.62455154671,
			"0.001": 4.66875334908,
			"0.002": 6.62885867979,
			"0.003": 5.42945703187,
			"0.004": 4.15900519172,
			"0.005": 6.23459513921,
			"0.006": 6.48569307459,
			"0.007": 8.14264903675,
			"0.008": 9.67217027598,
			"0.009": 11.1858161105,
			"0.01": 12.1710931648,
			"0.011": 7.93153171246,
			"0.012": 5.52641670823,
			"0.013": 2.07776941099,
			"0.014": 0.0201714756297,
			"0.015": 0.0,
			"0.016": 0.0,
			"0.017": 0.0,
			"0.018": 0.0,
			"0.019": 0.0,
			"0.02": 0.0,
			"0.021": 0.0,
			"0.022": 0.0,
			"0.023": 0.0,
			"0.024": 0.0,
			"0.025": 0.0
		}
	}
}
