{
	 "smiles": "NC1=CC(Cl)=CN=C1Cl", 
	 "Tm": 397.15, 
	 "num_atms": 13, 
	 "gaussian": { 
		 "optdone": 1, 
		 "sigma_profile": "yes", 
		 "theory": "DFT", 
		 "functional": "B3LYP", 
		 "basiset": "6-31G**", 
		 "properties": { 
			 "R2extent": 2443.6257, 
			 "electric_dipole_moment_norm": 3.54674793861, 
			 "electric_quadrupole_moment_norm": 13.3763000441, 
			 "total_energy": -1222.8292685, 
			 "HOMO_LUMO_gap": 0.19033, 
			 "cosmo_polarized_energy": -9.89, 
			 "cosmo_cavitation_energy": 20.92, 
			 "cosmo_dispersion_energy": -16.2, 
			 "cosmo_repulsion_energy": 1.33, 
			 "cosmo_total_nonelectrostatic_energy": 6.06, 
			 "SMD_solvation_energy": 1.75 
		},
		"coords": [
			{
				"x": -2.9107338387,
				"y": -0.5568159026,
				"z": 0.1004074017,
				"element": "N" 
			},
			{
				"x": -1.6152668829,
				"y": -0.743147542,
				"z": 0.5264826981,
				"element": "C" 
			},
			{
				"x": -0.5467023984,
				"y": 0.0062817116,
				"z": 0.008960475,
				"element": "C" 
			},
			{
				"x": 0.7470526329,
				"y": -0.2661000697,
				"z": 0.4402758156,
				"element": "C" 
			},
			{
				"x": 2.0914462699,
				"y": 0.6600043101,
				"z": -0.1951942741,
				"element": "Cl" 
			},
			{
				"x": 0.9781072281,
				"y": -1.2714870987,
				"z": 1.3776633931,
				"element": "C" 
			},
			{
				"x": -0.0376055335,
				"y": -1.9844258314,
				"z": 1.8766242645,
				"element": "N" 
			},
			{
				"x": -1.2599495368,
				"y": -1.7329823617,
				"z": 1.4741965034,
				"element": "C" 
			},
			{
				"x": -2.5554144608,
				"y": -2.7084595728,
				"z": 2.1853485099,
				"element": "Cl" 
			},
			{
				"x": -3.1317889948,
				"y": 0.3325402423,
				"z": -0.3213163653,
				"element": "H" 
			},
			{
				"x": -3.6376838976,
				"y": -0.9429567072,
				"z": 0.6849239088,
				"element": "H" 
			},
			{
				"x": -0.7296242224,
				"y": 0.7847661927,
				"z": -0.724482648,
				"element": "H" 
			},
			{
				"x": 1.978163635,
				"y": -1.5024173707,
				"z": 1.7298103173,
				"element": "H" 
			}
		],
		 "valence_orbital": [ 
			{
				"type": "occ",
				"energy": -0.32803,
				"method": "rhf"
			},
			{
				"type": "occ",
				"energy": -0.32469,
				"method": "rhf"
			},
			{
				"type": "occ",
				"energy": -0.28019,
				"method": "rhf"
			},
			{
				"type": "occ",
				"energy": -0.27185,
				"method": "rhf"
			},
			{
				"type": "occ",
				"energy": -0.22919,
				"method": "rhf"
			},
			{
				"type": "unocc",
				"energy": -0.03886,
				"method": "rhf"
			},
			{
				"type": "unocc",
				"energy": -0.01607,
				"method": "rhf"
			},
			{
				"type": "unocc",
				"energy": 0.02014,
				"method": "rhf"
			},
			{
				"type": "unocc",
				"energy": 0.03008,
				"method": "rhf"
			},
			{
				"type": "unocc",
				"energy": 0.06863,
				"method": "rhf"
			}
		],
		"cosmo_sigma_profile": { 
			"-0.025": 0.0,
			"-0.024": 0.0,
			"-0.023": 0.0,
			"-0.022": 0.0,
			"-0.021": 0.0,
			"-0.02": 0.0,
			"-0.019": 0.0,
			"-0.018": 0.0,
			"-0.017": 0.0,
			"-0.016": 0.0,
			"-0.015": 0.174692169695,
			"-0.014": 1.56724452938,
			"-0.013": 2.14503943692,
			"-0.012": 2.65659083578,
			"-0.011": 2.58205718241,
			"-0.01": 2.88783482874,
			"-0.009": 2.99465943488,
			"-0.008": 4.11188397442,
			"-0.007": 3.49100417451,
			"-0.006": 4.29600176841,
			"-0.005": 5.27896447681,
			"-0.004": 4.01731873106,
			"-0.003": 5.29641817837,
			"-0.002": 8.77954412435,
			"-0.001": 12.3276565313,
			"0.0": 20.4366340089,
			"0.001": 20.8081060925,
			"0.002": 13.3807657862,
			"0.003": 14.6074058302,
			"0.004": 17.3360390768,
			"0.005": 7.45077781968,
			"0.006": 4.18684498416,
			"0.007": 2.33706043509,
			"0.008": 1.56305250257,
			"0.009": 2.34732499912,
			"0.01": 1.45349072467,
			"0.011": 1.84910629698,
			"0.012": 1.00179797088,
			"0.013": 0.648430882817,
			"0.014": 0.536013126311,
			"0.015": 0.0,
			"0.016": 0.0,
			"0.017": 0.0,
			"0.018": 0.0,
			"0.019": 0.0,
			"0.02": 0.0,
			"0.021": 0.0,
			"0.022": 0.0,
			"0.023": 0.0,
			"0.024": 0.0,
			"0.025": 0.0
		}
	}
}
