{
	 "smiles": "CCOC1=NC=C(C=C1)C(O)=O", 
	 "Tm": 458.15, 
	 "num_atms": 21, 
	 "gaussian": { 
		 "optdone": 1, 
		 "sigma_profile": "yes", 
		 "theory": "DFT", 
		 "functional": "B3LYP", 
		 "basiset": "6-31G**", 
		 "properties": { 
			 "R2extent": 2820.9048, 
			 "electric_dipole_moment_norm": 4.80519663802, 
			 "electric_quadrupole_moment_norm": 17.6662657984, 
			 "total_energy": -590.706195918, 
			 "HOMO_LUMO_gap": 0.19804, 
			 "cosmo_polarized_energy": -15.25, 
			 "cosmo_cavitation_energy": 25.53, 
			 "cosmo_dispersion_energy": -18.91, 
			 "cosmo_repulsion_energy": 1.52, 
			 "cosmo_total_nonelectrostatic_energy": 8.14, 
			 "SMD_solvation_energy": 5.46 
		},
		"coords": [
			{
				"x": -0.6521773327,
				"y": -0.2912463525,
				"z": -3.3012032409,
				"element": "C" 
			},
			{
				"x": -1.8055999299,
				"y": -0.2421788974,
				"z": -2.3104999681,
				"element": "C" 
			},
			{
				"x": -1.6637268269,
				"y": 0.8548866545,
				"z": -1.3775871222,
				"element": "O" 
			},
			{
				"x": -0.8997631576,
				"y": 0.6817672245,
				"z": -0.2866526256,
				"element": "C" 
			},
			{
				"x": -0.2840614629,
				"y": -0.4829178658,
				"z": -0.0794503229,
				"element": "N" 
			},
			{
				"x": 0.4524814658,
				"y": -0.6089805004,
				"z": 1.0286363815,
				"element": "C" 
			},
			{
				"x": 0.6336067133,
				"y": 0.409631654,
				"z": 1.9691493819,
				"element": "C" 
			},
			{
				"x": -0.0350864044,
				"y": 1.6265768113,
				"z": 1.733010467,
				"element": "C" 
			},
			{
				"x": -0.8113755893,
				"y": 1.7750690013,
				"z": 0.599905279,
				"element": "C" 
			},
			{
				"x": 1.4860170888,
				"y": 0.1234895815,
				"z": 3.1590346074,
				"element": "C" 
			},
			{
				"x": 1.9357621675,
				"y": 1.1973592181,
				"z": 3.8672696365,
				"element": "O" 
			},
			{
				"x": 1.7851482995,
				"y": -0.9942122352,
				"z": 3.5101769319,
				"element": "O" 
			},
			{
				"x": -0.8414094919,
				"y": -1.0686550276,
				"z": -4.0490388852,
				"element": "H" 
			},
			{
				"x": 0.2852306874,
				"y": -0.5267092437,
				"z": -2.7920824217,
				"element": "H" 
			},
			{
				"x": -0.5451240502,
				"y": 0.6656437597,
				"z": -3.8206181294,
				"element": "H" 
			},
			{
				"x": -1.8896830809,
				"y": -1.1787376513,
				"z": -1.7547922861,
				"element": "H" 
			},
			{
				"x": -2.7524806809,
				"y": -0.034190145,
				"z": -2.8149267854,
				"element": "H" 
			},
			{
				"x": 0.9390693993,
				"y": -1.5670773468,
				"z": 1.1906152423,
				"element": "H" 
			},
			{
				"x": 0.0176801617,
				"y": 2.4466679772,
				"z": 2.4457018625,
				"element": "H" 
			},
			{
				"x": -1.3557197037,
				"y": 2.686573275,
				"z": 0.3830935594,
				"element": "H" 
			},
			{
				"x": 1.7700117281,
				"y": 2.0170401087,
				"z": 3.3823584381,
				"element": "H" 
			}
		],
		 "valence_orbital": [ 
			{
				"type": "occ",
				"energy": -0.31513,
				"method": "rhf"
			},
			{
				"type": "occ",
				"energy": -0.30631,
				"method": "rhf"
			},
			{
				"type": "occ",
				"energy": -0.2854,
				"method": "rhf"
			},
			{
				"type": "occ",
				"energy": -0.27015,
				"method": "rhf"
			},
			{
				"type": "occ",
				"energy": -0.24663,
				"method": "rhf"
			},
			{
				"type": "unocc",
				"energy": -0.04859,
				"method": "rhf"
			},
			{
				"type": "unocc",
				"energy": -0.0397,
				"method": "rhf"
			},
			{
				"type": "unocc",
				"energy": 0.04701,
				"method": "rhf"
			},
			{
				"type": "unocc",
				"energy": 0.05663,
				"method": "rhf"
			},
			{
				"type": "unocc",
				"energy": 0.10545,
				"method": "rhf"
			}
		],
		"cosmo_sigma_profile": { 
			"-0.025": 0.0,
			"-0.024": 0.0,
			"-0.023": 0.0,
			"-0.022": 0.0,
			"-0.021": 0.0,
			"-0.02": 0.0,
			"-0.019": 0.559152482175,
			"-0.018": 0.965460221252,
			"-0.017": 0.936321650101,
			"-0.016": 1.64767556223,
			"-0.015": 1.05099209054,
			"-0.014": 0.516955323638,
			"-0.013": 0.783466343734,
			"-0.012": 1.28812961411,
			"-0.011": 1.66129784074,
			"-0.01": 1.13855940718,
			"-0.009": 1.24579234161,
			"-0.008": 3.3313043455,
			"-0.007": 5.07478343453,
			"-0.006": 5.40253377295,
			"-0.005": 8.960599135,
			"-0.004": 13.2935947778,
			"-0.003": 16.5041370133,
			"-0.002": 15.8455874398,
			"-0.001": 18.5258879881,
			"0.0": 24.4426784318,
			"0.001": 17.0419159288,
			"0.002": 8.60912123025,
			"0.003": 6.504771442,
			"0.004": 5.86133361554,
			"0.005": 4.34445718867,
			"0.006": 4.17201562208,
			"0.007": 5.59029767205,
			"0.008": 5.58953870231,
			"0.009": 4.17754239534,
			"0.01": 5.53854643188,
			"0.011": 5.75530415975,
			"0.012": 5.17735374906,
			"0.013": 1.72974418487,
			"0.014": 0.0822663233255,
			"0.015": 0.0,
			"0.016": 0.0,
			"0.017": 0.0,
			"0.018": 0.0,
			"0.019": 0.0,
			"0.02": 0.0,
			"0.021": 0.0,
			"0.022": 0.0,
			"0.023": 0.0,
			"0.024": 0.0,
			"0.025": 0.0
		}
	}
}
