{
	 "smiles": "COC(=O)C(C)N(C(=O)C1=CC=CO1)C1=C(C)C=CC=C1C", 
	 "Tm": 375.15, 
	 "num_atms": 41, 
	 "gaussian": { 
		 "optdone": 1, 
		 "sigma_profile": "yes", 
		 "theory": "DFT", 
		 "functional": "B3LYP", 
		 "basiset": "6-31G**", 
		 "properties": { 
			 "R2extent": 6471.8938, 
			 "electric_dipole_moment_norm": 5.19802132066, 
			 "electric_quadrupole_moment_norm": 15.433463482, 
			 "total_energy": -1014.90255989, 
			 "HOMO_LUMO_gap": 0.20162, 
			 "cosmo_polarized_energy": -17.36, 
			 "cosmo_cavitation_energy": 42.7, 
			 "cosmo_dispersion_energy": -27.84, 
			 "cosmo_repulsion_energy": 2.11, 
			 "cosmo_total_nonelectrostatic_energy": 16.98, 
			 "SMD_solvation_energy": 10.56 
		},
		"coords": [
			{
				"x": -1.5911298839,
				"y": -3.5708958924,
				"z": 0.0380508899,
				"element": "C" 
			},
			{
				"x": -0.9114257723,
				"y": -2.3079162354,
				"z": -0.0525757125,
				"element": "O" 
			},
			{
				"x": -1.5688758335,
				"y": -1.3591792771,
				"z": -0.7502457357,
				"element": "C" 
			},
			{
				"x": -2.5884704118,
				"y": -1.5620836305,
				"z": -1.3697048887,
				"element": "O" 
			},
			{
				"x": -0.8213497264,
				"y": -0.0214283475,
				"z": -0.8131268488,
				"element": "C" 
			},
			{
				"x": 0.0890288276,
				"y": -0.03839733,
				"z": -2.0485041372,
				"element": "C" 
			},
			{
				"x": -0.1009310554,
				"y": 0.3097574498,
				"z": 0.4377469424,
				"element": "N" 
			},
			{
				"x": -0.9001472587,
				"y": 0.2957433867,
				"z": 1.568185133,
				"element": "C" 
			},
			{
				"x": -2.0735431113,
				"y": -0.0637817711,
				"z": 1.4909270927,
				"element": "O" 
			},
			{
				"x": -0.3417862581,
				"y": 0.7050269195,
				"z": 2.8823065546,
				"element": "C" 
			},
			{
				"x": 0.824289144,
				"y": 1.2307963824,
				"z": 3.3919678548,
				"element": "C" 
			},
			{
				"x": 0.6254043529,
				"y": 1.3910892823,
				"z": 4.7950825646,
				"element": "C" 
			},
			{
				"x": -0.6431181516,
				"y": 0.9547085884,
				"z": 5.0442226419,
				"element": "C" 
			},
			{
				"x": -1.2398989413,
				"y": 0.5404059929,
				"z": 3.906871802,
				"element": "O" 
			},
			{
				"x": 1.2289675061,
				"y": 0.8602065375,
				"z": 0.3964518528,
				"element": "C" 
			},
			{
				"x": 1.3910343238,
				"y": 2.2368571663,
				"z": 0.133314397,
				"element": "C" 
			},
			{
				"x": 0.1973441785,
				"y": 3.1410599262,
				"z": -0.0651724077,
				"element": "C" 
			},
			{
				"x": 2.6882594677,
				"y": 2.7591264696,
				"z": 0.0821961552,
				"element": "C" 
			},
			{
				"x": 3.7966712298,
				"y": 1.9391084786,
				"z": 0.2877917647,
				"element": "C" 
			},
			{
				"x": 3.6193306749,
				"y": 0.5830231559,
				"z": 0.5522596343,
				"element": "C" 
			},
			{
				"x": 2.3381194873,
				"y": 0.0187445308,
				"z": 0.6132214361,
				"element": "C" 
			},
			{
				"x": 2.1692268355,
				"y": -1.4413654861,
				"z": 0.9552564407,
				"element": "C" 
			},
			{
				"x": -1.7638139805,
				"y": -3.9895176459,
				"z": -0.9564632983,
				"element": "H" 
			},
			{
				"x": -0.9348986901,
				"y": -4.2179784823,
				"z": 0.6201234356,
				"element": "H" 
			},
			{
				"x": -2.55131625,
				"y": -3.4441465553,
				"z": 0.5434447904,
				"element": "H" 
			},
			{
				"x": -1.6224099514,
				"y": 0.7097788179,
				"z": -0.966055279,
				"element": "H" 
			},
			{
				"x": -0.5220634494,
				"y": -0.2985249411,
				"z": -2.9165088732,
				"element": "H" 
			},
			{
				"x": 0.5454703229,
				"y": 0.9367886949,
				"z": -2.229326673,
				"element": "H" 
			},
			{
				"x": 0.8877547445,
				"y": -0.7782888379,
				"z": -1.9515421661,
				"element": "H" 
			},
			{
				"x": 1.7170133151,
				"y": 1.4794710352,
				"z": 2.8429956461,
				"element": "H" 
			},
			{
				"x": 1.3314335855,
				"y": 1.7791182579,
				"z": 5.5149499735,
				"element": "H" 
			},
			{
				"x": -1.2382106666,
				"y": 0.8793009802,
				"z": 5.9417262131,
				"element": "H" 
			},
			{
				"x": -0.4762633168,
				"y": 3.1095787426,
				"z": 0.7974447736,
				"element": "H" 
			},
			{
				"x": 0.5172777638,
				"y": 4.1766698521,
				"z": -0.204592435,
				"element": "H" 
			},
			{
				"x": -0.394121203,
				"y": 2.8559211812,
				"z": -0.9420830049,
				"element": "H" 
			},
			{
				"x": 2.8255009314,
				"y": 3.8181528537,
				"z": -0.1186407469,
				"element": "H" 
			},
			{
				"x": 4.7980666441,
				"y": 2.3578037253,
				"z": 0.2427138391,
				"element": "H" 
			},
			{
				"x": 4.4838966636,
				"y": -0.0545249211,
				"z": 0.716213325,
				"element": "H" 
			},
			{
				"x": 1.4287647851,
				"y": -1.9315770146,
				"z": 0.3208839162,
				"element": "H" 
			},
			{
				"x": 1.815454896,
				"y": -1.5559743625,
				"z": 1.9869797214,
				"element": "H" 
			},
			{
				"x": 3.122664232,
				"y": -1.9694576773,
				"z": 0.869313416,
				"element": "H" 
			}
		],
		 "valence_orbital": [ 
			{
				"type": "occ",
				"energy": -0.26362,
				"method": "rhf"
			},
			{
				"type": "occ",
				"energy": -0.25004,
				"method": "rhf"
			},
			{
				"type": "occ",
				"energy": -0.24877,
				"method": "rhf"
			},
			{
				"type": "occ",
				"energy": -0.24155,
				"method": "rhf"
			},
			{
				"type": "occ",
				"energy": -0.23343,
				"method": "rhf"
			},
			{
				"type": "unocc",
				"energy": -0.03181,
				"method": "rhf"
			},
			{
				"type": "unocc",
				"energy": -0.01961,
				"method": "rhf"
			},
			{
				"type": "unocc",
				"energy": -0.00816,
				"method": "rhf"
			},
			{
				"type": "unocc",
				"energy": 0.02501,
				"method": "rhf"
			},
			{
				"type": "unocc",
				"energy": 0.04613,
				"method": "rhf"
			}
		],
		"cosmo_sigma_profile": { 
			"-0.025": 0.0,
			"-0.024": 0.0,
			"-0.023": 0.0,
			"-0.022": 0.0,
			"-0.021": 0.0,
			"-0.02": 0.0,
			"-0.019": 0.0,
			"-0.018": 0.0,
			"-0.017": 0.0,
			"-0.016": 0.0,
			"-0.015": 0.0,
			"-0.014": 0.0,
			"-0.013": 0.0,
			"-0.012": 0.0,
			"-0.011": 0.0,
			"-0.01": 0.525251624864,
			"-0.009": 2.12838440014,
			"-0.008": 2.62231867751,
			"-0.007": 4.03455961557,
			"-0.006": 11.527276523,
			"-0.005": 26.8136378314,
			"-0.004": 32.187409939,
			"-0.003": 37.736678837,
			"-0.002": 32.0513704997,
			"-0.001": 33.4027059857,
			"0.0": 32.8374650619,
			"0.001": 25.9205959118,
			"0.002": 19.5030488258,
			"0.003": 16.1142422264,
			"0.004": 12.8276549549,
			"0.005": 8.06229303393,
			"0.006": 4.17073870299,
			"0.007": 4.11674284128,
			"0.008": 2.36760957944,
			"0.009": 3.97734691215,
			"0.01": 3.7487686458,
			"0.011": 5.87729686472,
			"0.012": 7.56441259853,
			"0.013": 4.77362850954,
			"0.014": 2.32541683876,
			"0.015": 0.896970321082,
			"0.016": 0.0,
			"0.017": 0.0,
			"0.018": 0.0,
			"0.019": 0.0,
			"0.02": 0.0,
			"0.021": 0.0,
			"0.022": 0.0,
			"0.023": 0.0,
			"0.024": 0.0,
			"0.025": 0.0
		}
	}
}
