{
	 "smiles": "NC(=O)C(=N/NC1=CN=CC=C1)C1=NC2=C(S1)C=CC=C2", 
	 "Tm": 511.15, 
	 "num_atms": 32, 
	 "gaussian": { 
		 "optdone": 1, 
		 "sigma_profile": "yes", 
		 "theory": "DFT", 
		 "functional": "B3LYP", 
		 "basiset": "6-31G**", 
		 "properties": { 
			 "R2extent": 8819.358, 
			 "electric_dipole_moment_norm": 2.30997309941, 
			 "electric_quadrupole_moment_norm": 19.8617572923, 
			 "total_energy": -1287.29200303, 
			 "HOMO_LUMO_gap": 0.12995, 
			 "cosmo_polarized_energy": -13.54, 
			 "cosmo_cavitation_energy": 38.95, 
			 "cosmo_dispersion_energy": -29.08, 
			 "cosmo_repulsion_energy": 2.14, 
			 "cosmo_total_nonelectrostatic_energy": 12.01, 
			 "SMD_solvation_energy": 3.94 
		},
		"coords": [
			{
				"x": 2.5486999095,
				"y": -2.389908318,
				"z": -0.3317113132,
				"element": "N" 
			},
			{
				"x": 2.2940709453,
				"y": -1.0738883032,
				"z": -0.2013771508,
				"element": "C" 
			},
			{
				"x": 3.2015101322,
				"y": -0.2366226447,
				"z": -0.030766047,
				"element": "O" 
			},
			{
				"x": 0.8601462317,
				"y": -0.6358511664,
				"z": -0.2687298403,
				"element": "C" 
			},
			{
				"x": 0.4942461677,
				"y": 0.622157594,
				"z": -0.154343027,
				"element": "N" 
			},
			{
				"x": 1.376460284,
				"y": 1.577010234,
				"z": 0.0276379805,
				"element": "N" 
			},
			{
				"x": 0.9843762352,
				"y": 2.9129556933,
				"z": 0.1488650112,
				"element": "C" 
			},
			{
				"x": -0.3591618104,
				"y": 3.3228548125,
				"z": 0.0836709597,
				"element": "C" 
			},
			{
				"x": -0.7345636698,
				"y": 4.5974445634,
				"z": 0.1989371681,
				"element": "N" 
			},
			{
				"x": 0.2150741598,
				"y": 5.5242334972,
				"z": 0.3849651905,
				"element": "C" 
			},
			{
				"x": 1.5743591866,
				"y": 5.2166826297,
				"z": 0.4632661619,
				"element": "C" 
			},
			{
				"x": 1.9695189256,
				"y": 3.8887714347,
				"z": 0.343562631,
				"element": "C" 
			},
			{
				"x": -0.2490141658,
				"y": -1.5675334372,
				"z": -0.4664130331,
				"element": "C" 
			},
			{
				"x": -0.1348094421,
				"y": -2.8611193982,
				"z": -0.6050438317,
				"element": "N" 
			},
			{
				"x": -1.3642917758,
				"y": -3.4727735973,
				"z": -0.7759812458,
				"element": "C" 
			},
			{
				"x": -2.4727689957,
				"y": -2.5926577414,
				"z": -0.7662378421,
				"element": "C" 
			},
			{
				"x": -1.9169359012,
				"y": -0.9462649319,
				"z": -0.5320937628,
				"element": "S" 
			},
			{
				"x": -3.7757767615,
				"y": -3.0683821796,
				"z": -0.9275538567,
				"element": "C" 
			},
			{
				"x": -3.9597063506,
				"y": -4.4388311767,
				"z": -1.0993558744,
				"element": "C" 
			},
			{
				"x": -2.8654220104,
				"y": -5.3209044645,
				"z": -1.110449479,
				"element": "C" 
			},
			{
				"x": -1.5678875189,
				"y": -4.849577313,
				"z": -0.9501532236,
				"element": "C" 
			},
			{
				"x": 3.5130021956,
				"y": -2.6819896443,
				"z": -0.2858260873,
				"element": "H" 
			},
			{
				"x": 1.7787046857,
				"y": -3.0427158813,
				"z": -0.4694822857,
				"element": "H" 
			},
			{
				"x": 2.3640908679,
				"y": 1.279952307,
				"z": 0.0747305069,
				"element": "H" 
			},
			{
				"x": -1.1410269771,
				"y": 2.5849152505,
				"z": -0.0666987361,
				"element": "H" 
			},
			{
				"x": -0.1261846086,
				"y": 6.5532688733,
				"z": 0.4747412694,
				"element": "H" 
			},
			{
				"x": 2.3090190181,
				"y": 6.0010810623,
				"z": 0.6150241652,
				"element": "H" 
			},
			{
				"x": 3.0175611926,
				"y": 3.6064602359,
				"z": 0.3987830466,
				"element": "H" 
			},
			{
				"x": -4.624137261,
				"y": -2.3915626449,
				"z": -0.9197034115,
				"element": "H" 
			},
			{
				"x": -4.9648970883,
				"y": -4.829261016,
				"z": -1.226438832,
				"element": "H" 
			},
			{
				"x": -3.0374910796,
				"y": -6.3842997554,
				"z": -1.2461453075,
				"element": "H" 
			},
			{
				"x": -0.7144647209,
				"y": -5.5198445739,
				"z": -0.9567799032,
				"element": "H" 
			}
		],
		 "valence_orbital": [ 
			{
				"type": "occ",
				"energy": -0.26739,
				"method": "rhf"
			},
			{
				"type": "occ",
				"energy": -0.25234,
				"method": "rhf"
			},
			{
				"type": "occ",
				"energy": -0.25036,
				"method": "rhf"
			},
			{
				"type": "occ",
				"energy": -0.23867,
				"method": "rhf"
			},
			{
				"type": "occ",
				"energy": -0.21009,
				"method": "rhf"
			},
			{
				"type": "unocc",
				"energy": -0.08014,
				"method": "rhf"
			},
			{
				"type": "unocc",
				"energy": -0.02605,
				"method": "rhf"
			},
			{
				"type": "unocc",
				"energy": -0.02258,
				"method": "rhf"
			},
			{
				"type": "unocc",
				"energy": -0.00897,
				"method": "rhf"
			},
			{
				"type": "unocc",
				"energy": 0.00763,
				"method": "rhf"
			}
		],
		"cosmo_sigma_profile": { 
			"-0.025": 0.0,
			"-0.024": 0.0,
			"-0.023": 0.0,
			"-0.022": 0.0,
			"-0.021": 0.0,
			"-0.02": 0.0,
			"-0.019": 0.0,
			"-0.018": 0.0,
			"-0.017": 0.0,
			"-0.016": 0.0,
			"-0.015": 0.23679365168,
			"-0.014": 0.867419536716,
			"-0.013": 1.35154766118,
			"-0.012": 1.25811403145,
			"-0.011": 1.61777824552,
			"-0.01": 1.60223127599,
			"-0.009": 3.126292251,
			"-0.008": 4.80442615992,
			"-0.007": 9.69518281415,
			"-0.006": 16.5617389787,
			"-0.005": 17.2898964177,
			"-0.004": 16.4622702818,
			"-0.003": 17.0819833338,
			"-0.002": 20.1942496699,
			"-0.001": 22.0687445572,
			"0.0": 30.296319208,
			"0.001": 33.7623909365,
			"0.002": 33.2409469238,
			"0.003": 28.3687991065,
			"0.004": 21.6140966919,
			"0.005": 10.5367867995,
			"0.006": 2.6662125411,
			"0.007": 2.77365817154,
			"0.008": 3.02129628994,
			"0.009": 1.56135450193,
			"0.01": 2.7127188549,
			"0.011": 2.34212642696,
			"0.012": 3.26691425602,
			"0.013": 2.68624563445,
			"0.014": 1.72875029822,
			"0.015": 0.66174013098,
			"0.016": 1.00784642921,
			"0.017": 0.0736296818073,
			"0.018": 0.0,
			"0.019": 0.0,
			"0.02": 0.0,
			"0.021": 0.0,
			"0.022": 0.0,
			"0.023": 0.0,
			"0.024": 0.0,
			"0.025": 0.0
		}
	}
}
