{
	 "smiles": "ClC1=C2C=CC=CC2=NC(=C1)C1=CC=CC=C1", 
	 "Tm": 336.15, 
	 "num_atms": 27, 
	 "gaussian": { 
		 "optdone": 1, 
		 "sigma_profile": "yes", 
		 "theory": "DFT", 
		 "functional": "B3LYP", 
		 "basiset": "6-31G**", 
		 "properties": { 
			 "R2extent": 5283.1149, 
			 "electric_dipole_moment_norm": 0.265979717272, 
			 "electric_quadrupole_moment_norm": 12.5880763054, 
			 "total_energy": -1092.58503605, 
			 "HOMO_LUMO_gap": 0.16101, 
			 "cosmo_polarized_energy": -6.97, 
			 "cosmo_cavitation_energy": 32.76, 
			 "cosmo_dispersion_energy": -24.41, 
			 "cosmo_repulsion_energy": 1.85, 
			 "cosmo_total_nonelectrostatic_energy": 10.19, 
			 "SMD_solvation_energy": 3.84 
		},
		"coords": [
			{
				"x": -1.565437758,
				"y": -1.2770976134,
				"z": -3.3167787411,
				"element": "Cl" 
			},
			{
				"x": -1.1141927304,
				"y": -0.360128669,
				"z": -1.8880533996,
				"element": "C" 
			},
			{
				"x": -1.7293439896,
				"y": 0.8937412712,
				"z": -1.6220934627,
				"element": "C" 
			},
			{
				"x": -2.7267031361,
				"y": 1.5021022249,
				"z": -2.4245594064,
				"element": "C" 
			},
			{
				"x": -3.2470613698,
				"y": 2.7288653722,
				"z": -2.0749153522,
				"element": "C" 
			},
			{
				"x": -2.7935057481,
				"y": 3.3979651312,
				"z": -0.9122827291,
				"element": "C" 
			},
			{
				"x": -1.8266032542,
				"y": 2.83023247,
				"z": -0.1147093099,
				"element": "C" 
			},
			{
				"x": -1.2660909063,
				"y": 1.5657477182,
				"z": -0.4415988826,
				"element": "C" 
			},
			{
				"x": -0.3189643115,
				"y": 1.0535505454,
				"z": 0.388162823,
				"element": "N" 
			},
			{
				"x": 0.2174494072,
				"y": -0.1249556698,
				"z": 0.1092846443,
				"element": "C" 
			},
			{
				"x": -0.1565042659,
				"y": -0.8689070451,
				"z": -1.0496522846,
				"element": "C" 
			},
			{
				"x": 1.2494344064,
				"y": -0.6433769589,
				"z": 1.0474256138,
				"element": "C" 
			},
			{
				"x": 1.8905726186,
				"y": 0.2454906859,
				"z": 1.9272457328,
				"element": "C" 
			},
			{
				"x": 2.8631258845,
				"y": -0.2094862272,
				"z": 2.8130624287,
				"element": "C" 
			},
			{
				"x": 3.2109737118,
				"y": -1.5626452937,
				"z": 2.84390805,
				"element": "C" 
			},
			{
				"x": 2.5734320026,
				"y": -2.4571233109,
				"z": 1.9832588546,
				"element": "C" 
			},
			{
				"x": 1.6018996965,
				"y": -2.0021054429,
				"z": 1.0922892455,
				"element": "C" 
			},
			{
				"x": -3.072665533,
				"y": 0.9897522987,
				"z": -3.3152249028,
				"element": "H" 
			},
			{
				"x": -4.0113591774,
				"y": 3.1872162592,
				"z": -2.6952427001,
				"element": "H" 
			},
			{
				"x": -3.2144661929,
				"y": 4.3645634915,
				"z": -0.6514264031,
				"element": "H" 
			},
			{
				"x": -1.4618542349,
				"y": 3.3189763748,
				"z": 0.7825410633,
				"element": "H" 
			},
			{
				"x": 0.3218437453,
				"y": -1.8102697489,
				"z": -1.2857405039,
				"element": "H" 
			},
			{
				"x": 1.608437434,
				"y": 1.2917192558,
				"z": 1.8981623263,
				"element": "H" 
			},
			{
				"x": 3.3531842435,
				"y": 0.4932984239,
				"z": 3.4809508407,
				"element": "H" 
			},
			{
				"x": 3.9696564572,
				"y": -1.9171705891,
				"z": 3.5357083263,
				"element": "H" 
			},
			{
				"x": 2.8269966337,
				"y": -3.5130029035,
				"z": 2.007976501,
				"element": "H" 
			},
			{
				"x": 1.1016463668,
				"y": -2.7205520504,
				"z": 0.4507016278,
				"element": "H" 
			}
		],
		 "valence_orbital": [ 
			{
				"type": "occ",
				"energy": -0.27597,
				"method": "rhf"
			},
			{
				"type": "occ",
				"energy": -0.26199,
				"method": "rhf"
			},
			{
				"type": "occ",
				"energy": -0.25257,
				"method": "rhf"
			},
			{
				"type": "occ",
				"energy": -0.24311,
				"method": "rhf"
			},
			{
				"type": "occ",
				"energy": -0.2269,
				"method": "rhf"
			},
			{
				"type": "unocc",
				"energy": -0.06589,
				"method": "rhf"
			},
			{
				"type": "unocc",
				"energy": -0.03758,
				"method": "rhf"
			},
			{
				"type": "unocc",
				"energy": -0.00279,
				"method": "rhf"
			},
			{
				"type": "unocc",
				"energy": 0.00829,
				"method": "rhf"
			},
			{
				"type": "unocc",
				"energy": 0.02294,
				"method": "rhf"
			}
		],
		"cosmo_sigma_profile": { 
			"-0.025": 0.0,
			"-0.024": 0.0,
			"-0.023": 0.0,
			"-0.022": 0.0,
			"-0.021": 0.0,
			"-0.02": 0.0,
			"-0.019": 0.0,
			"-0.018": 0.0,
			"-0.017": 0.0,
			"-0.016": 0.0,
			"-0.015": 0.0,
			"-0.014": 0.0,
			"-0.013": 0.0,
			"-0.012": 0.0,
			"-0.011": 0.0,
			"-0.01": 0.0332314357158,
			"-0.009": 1.10240304772,
			"-0.008": 2.09535592504,
			"-0.007": 3.75274875905,
			"-0.006": 14.1071998191,
			"-0.005": 17.3485346068,
			"-0.004": 20.0920380773,
			"-0.003": 16.3327684932,
			"-0.002": 15.411662765,
			"-0.001": 18.1887932433,
			"0.0": 28.4869139085,
			"0.001": 28.2606322881,
			"0.002": 26.5523774761,
			"0.003": 28.1445853834,
			"0.004": 24.6566012557,
			"0.005": 12.5135307647,
			"0.006": 3.08947818944,
			"0.007": 2.06619112975,
			"0.008": 1.51928282945,
			"0.009": 1.05925343802,
			"0.01": 1.0281987045,
			"0.011": 0.453928544142,
			"0.012": 0.526937221699,
			"0.013": 0.0127984944353,
			"0.014": 0.0,
			"0.015": 0.0,
			"0.016": 0.0,
			"0.017": 0.0,
			"0.018": 0.0,
			"0.019": 0.0,
			"0.02": 0.0,
			"0.021": 0.0,
			"0.022": 0.0,
			"0.023": 0.0,
			"0.024": 0.0,
			"0.025": 0.0
		}
	}
}
