{
	 "smiles": "OC(=O)C1=CC(=C(F)C=C1)S(=O)(=O)NC1CC1", 
	 "Tm": 500.15, 
	 "num_atms": 27, 
	 "gaussian": { 
		 "optdone": 1, 
		 "sigma_profile": "yes", 
		 "theory": "DFT", 
		 "functional": "B3LYP", 
		 "basiset": "6-31G**", 
		 "properties": { 
			 "R2extent": 5257.3477, 
			 "electric_dipole_moment_norm": 4.58695418224, 
			 "electric_quadrupole_moment_norm": 22.2374378673, 
			 "total_energy": -1240.66772521, 
			 "HOMO_LUMO_gap": 0.19349, 
			 "cosmo_polarized_energy": -19.83, 
			 "cosmo_cavitation_energy": 33.4, 
			 "cosmo_dispersion_energy": -23.73, 
			 "cosmo_repulsion_energy": 1.79, 
			 "cosmo_total_nonelectrostatic_energy": 11.47, 
			 "SMD_solvation_energy": 5.53 
		},
		"coords": [
			{
				"x": -0.7585261003,
				"y": 0.1124245036,
				"z": 2.8548913346,
				"element": "O" 
			},
			{
				"x": 0.0144552865,
				"y": 1.1396603991,
				"z": 2.4343195904,
				"element": "C" 
			},
			{
				"x": 0.3900230373,
				"y": 2.0249252364,
				"z": 3.1763269045,
				"element": "O" 
			},
			{
				"x": 0.3434331924,
				"y": 1.0607674385,
				"z": 0.9847924631,
				"element": "C" 
			},
			{
				"x": -0.1190285523,
				"y": 0.018392006,
				"z": 0.171685048,
				"element": "C" 
			},
			{
				"x": 0.2186809697,
				"y": -0.0082388553,
				"z": -1.1796260269,
				"element": "C" 
			},
			{
				"x": 1.0112161813,
				"y": 1.0155102574,
				"z": -1.7010271619,
				"element": "C" 
			},
			{
				"x": 1.3097304862,
				"y": 1.0111966396,
				"z": -3.0160679937,
				"element": "F" 
			},
			{
				"x": 1.4770719637,
				"y": 2.0599504061,
				"z": -0.9122093054,
				"element": "C" 
			},
			{
				"x": 1.1421798201,
				"y": 2.074715863,
				"z": 0.438387249,
				"element": "C" 
			},
			{
				"x": -0.3046932244,
				"y": -1.4023488268,
				"z": -2.2027837218,
				"element": "S" 
			},
			{
				"x": 0.9026712833,
				"y": -2.0529121036,
				"z": -2.7044946414,
				"element": "O" 
			},
			{
				"x": -1.3143444292,
				"y": -2.1129020748,
				"z": -1.4193149709,
				"element": "O" 
			},
			{
				"x": -1.0806549752,
				"y": -0.7806681525,
				"z": -3.5478288831,
				"element": "N" 
			},
			{
				"x": -2.3398836323,
				"y": -0.0849450942,
				"z": -3.3953304292,
				"element": "C" 
			},
			{
				"x": -2.7891402552,
				"y": 0.8207113866,
				"z": -4.5044525561,
				"element": "C" 
			},
			{
				"x": -2.4168875923,
				"y": 1.4086813201,
				"z": -3.1607561184,
				"element": "C" 
			},
			{
				"x": -0.909471157,
				"y": 0.256865333,
				"z": 3.8034888168,
				"element": "H" 
			},
			{
				"x": -0.73934713,
				"y": -0.7730405499,
				"z": 0.5748805518,
				"element": "H" 
			},
			{
				"x": 2.087274801,
				"y": 2.835073898,
				"z": -1.3623232407,
				"element": "H" 
			},
			{
				"x": 1.4877603326,
				"y": 2.8703669778,
				"z": 1.0892204436,
				"element": "H" 
			},
			{
				"x": -0.4125258615,
				"y": -0.3746788212,
				"z": -4.1957866553,
				"element": "H" 
			},
			{
				"x": -3.0862194903,
				"y": -0.7137317468,
				"z": -2.9224228237,
				"element": "H" 
			},
			{
				"x": -3.8332341425,
				"y": 0.7837109747,
				"z": -4.7979426658,
				"element": "H" 
			},
			{
				"x": -2.1053650838,
				"y": 0.986496849,
				"z": -5.3329590922,
				"element": "H" 
			},
			{
				"x": -1.4836303275,
				"y": 1.9605129328,
				"z": -3.1054252488,
				"element": "H" 
			},
			{
				"x": -3.2039454,
				"y": 1.7883038035,
				"z": -2.5164408666,
				"element": "H" 
			}
		],
		 "valence_orbital": [ 
			{
				"type": "occ",
				"energy": -0.30365,
				"method": "rhf"
			},
			{
				"type": "occ",
				"energy": -0.29275,
				"method": "rhf"
			},
			{
				"type": "occ",
				"energy": -0.28885,
				"method": "rhf"
			},
			{
				"type": "occ",
				"energy": -0.27986,
				"method": "rhf"
			},
			{
				"type": "occ",
				"energy": -0.26175,
				"method": "rhf"
			},
			{
				"type": "unocc",
				"energy": -0.06826,
				"method": "rhf"
			},
			{
				"type": "unocc",
				"energy": -0.04898,
				"method": "rhf"
			},
			{
				"type": "unocc",
				"energy": 0.02878,
				"method": "rhf"
			},
			{
				"type": "unocc",
				"energy": 0.04236,
				"method": "rhf"
			},
			{
				"type": "unocc",
				"energy": 0.06763,
				"method": "rhf"
			}
		],
		"cosmo_sigma_profile": { 
			"-0.025": 0.0,
			"-0.024": 0.0,
			"-0.023": 0.0,
			"-0.022": 0.0,
			"-0.021": 0.0,
			"-0.02": 0.0,
			"-0.019": 0.416523399495,
			"-0.018": 0.781966509451,
			"-0.017": 0.862324738933,
			"-0.016": 0.992188104764,
			"-0.015": 1.12490266613,
			"-0.014": 1.23324922336,
			"-0.013": 1.54821553321,
			"-0.012": 1.57924381455,
			"-0.011": 2.01929211443,
			"-0.01": 1.45324807741,
			"-0.009": 3.84875687026,
			"-0.008": 5.54867911189,
			"-0.007": 7.7687462432,
			"-0.006": 9.76978190018,
			"-0.005": 15.2829649815,
			"-0.004": 15.2157666676,
			"-0.003": 18.859060213,
			"-0.002": 21.3576676571,
			"-0.001": 26.474411803,
			"0.0": 22.5502086439,
			"0.001": 15.6338882652,
			"0.002": 12.7407436125,
			"0.003": 11.4064408586,
			"0.004": 9.06740430543,
			"0.005": 8.16878076646,
			"0.006": 6.1940294041,
			"0.007": 5.93550457711,
			"0.008": 6.22805611507,
			"0.009": 7.63399761364,
			"0.01": 10.2964962784,
			"0.011": 12.6496629021,
			"0.012": 2.062963986,
			"0.013": 0.0,
			"0.014": 0.0,
			"0.015": 0.0,
			"0.016": 0.0,
			"0.017": 0.0,
			"0.018": 0.0,
			"0.019": 0.0,
			"0.02": 0.0,
			"0.021": 0.0,
			"0.022": 0.0,
			"0.023": 0.0,
			"0.024": 0.0,
			"0.025": 0.0
		}
	}
}
