{
	 "smiles": "CN1N=C(C=C1C)C1=NNC(C)=C1", 
	 "Tm": 428.15, 
	 "num_atms": 25, 
	 "gaussian": { 
		 "optdone": 1, 
		 "sigma_profile": "yes", 
		 "theory": "DFT", 
		 "functional": "B3LYP", 
		 "basiset": "6-31G**", 
		 "properties": { 
			 "R2extent": 4030.9439, 
			 "electric_dipole_moment_norm": 1.89524537198, 
			 "electric_quadrupole_moment_norm": 26.9681278885, 
			 "total_energy": -569.17009332, 
			 "HOMO_LUMO_gap": 0.21067, 
			 "cosmo_polarized_energy": -19.06, 
			 "cosmo_cavitation_energy": 29.12, 
			 "cosmo_dispersion_energy": -21.31, 
			 "cosmo_repulsion_energy": 1.7, 
			 "cosmo_total_nonelectrostatic_energy": 9.52, 
			 "SMD_solvation_energy": 3.26 
		},
		"coords": [
			{
				"x": 0.2424792991,
				"y": 3.2296361378,
				"z": 3.7391683965,
				"element": "C" 
			},
			{
				"x": 0.1356423631,
				"y": 2.3175824264,
				"z": 2.618085574,
				"element": "N" 
			},
			{
				"x": 0.4486804199,
				"y": 1.0131010027,
				"z": 2.7948527925,
				"element": "N" 
			},
			{
				"x": 0.2515867481,
				"y": 0.446851321,
				"z": 1.5991137139,
				"element": "C" 
			},
			{
				"x": -0.19222807,
				"y": 1.4053936396,
				"z": 0.6516346067,
				"element": "C" 
			},
			{
				"x": -0.2568240388,
				"y": 2.6022841033,
				"z": 1.3403634064,
				"element": "C" 
			},
			{
				"x": -0.6528845088,
				"y": 3.9752342762,
				"z": 0.8995033428,
				"element": "C" 
			},
			{
				"x": 0.4820316514,
				"y": -0.9795516506,
				"z": 1.3652692917,
				"element": "C" 
			},
			{
				"x": 0.902918511,
				"y": -1.8017858197,
				"z": 2.3322034546,
				"element": "N" 
			},
			{
				"x": 0.9908759217,
				"y": -3.0065409292,
				"z": 1.7268992839,
				"element": "N" 
			},
			{
				"x": 0.6432219879,
				"y": -2.9919390379,
				"z": 0.4085485976,
				"element": "C" 
			},
			{
				"x": 0.6679849633,
				"y": -4.2148960578,
				"z": -0.4525152998,
				"element": "C" 
			},
			{
				"x": 0.3048246816,
				"y": -1.6800544635,
				"z": 0.1396643553,
				"element": "C" 
			},
			{
				"x": 0.9639279179,
				"y": 4.0278812675,
				"z": 3.533425502,
				"element": "H" 
			},
			{
				"x": 0.5850086489,
				"y": 2.6462412545,
				"z": 4.5927615938,
				"element": "H" 
			},
			{
				"x": -0.7266185509,
				"y": 3.6823410416,
				"z": 3.9756450407,
				"element": "H" 
			},
			{
				"x": -0.4331317464,
				"y": 1.2507458201,
				"z": -0.3900118321,
				"element": "H" 
			},
			{
				"x": -1.5143583734,
				"y": 4.3558709016,
				"z": 1.4618983733,
				"element": "H" 
			},
			{
				"x": -0.9266251311,
				"y": 3.9615461321,
				"z": -0.1576695869,
				"element": "H" 
			},
			{
				"x": 0.1623496674,
				"y": 4.6986778034,
				"z": 1.0233114891,
				"element": "H" 
			},
			{
				"x": 1.2951423645,
				"y": -3.7982430251,
				"z": 2.2718980466,
				"element": "H" 
			},
			{
				"x": 1.6725262933,
				"y": -4.6501323345,
				"z": -0.5154795131,
				"element": "H" 
			},
			{
				"x": 0.3513690835,
				"y": -3.9637706849,
				"z": -1.4670845092,
				"element": "H" 
			},
			{
				"x": -0.0066884348,
				"y": -4.993255329,
				"z": -0.0763867316,
				"element": "H" 
			},
			{
				"x": -0.0242116686,
				"y": -1.2844177958,
				"z": -0.8098993887,
				"element": "H" 
			}
		],
		 "valence_orbital": [ 
			{
				"type": "occ",
				"energy": -0.27412,
				"method": "rhf"
			},
			{
				"type": "occ",
				"energy": -0.26099,
				"method": "rhf"
			},
			{
				"type": "occ",
				"energy": -0.22878,
				"method": "rhf"
			},
			{
				"type": "occ",
				"energy": -0.22374,
				"method": "rhf"
			},
			{
				"type": "occ",
				"energy": -0.19883,
				"method": "rhf"
			},
			{
				"type": "unocc",
				"energy": 0.01184,
				"method": "rhf"
			},
			{
				"type": "unocc",
				"energy": 0.0451,
				"method": "rhf"
			},
			{
				"type": "unocc",
				"energy": 0.057,
				"method": "rhf"
			},
			{
				"type": "unocc",
				"energy": 0.08603,
				"method": "rhf"
			},
			{
				"type": "unocc",
				"energy": 0.08906,
				"method": "rhf"
			}
		],
		"cosmo_sigma_profile": { 
			"-0.025": 0.0,
			"-0.024": 0.0,
			"-0.023": 0.0,
			"-0.022": 0.0,
			"-0.021": 0.0,
			"-0.02": 0.0,
			"-0.019": 0.0,
			"-0.018": 0.0,
			"-0.017": 0.00308833304164,
			"-0.016": 0.870287223337,
			"-0.015": 1.63191854001,
			"-0.014": 0.785367410631,
			"-0.013": 0.837230440684,
			"-0.012": 1.0672813385,
			"-0.011": 1.02829286892,
			"-0.01": 1.32596651488,
			"-0.009": 1.20247295822,
			"-0.008": 0.558956817869,
			"-0.007": 1.53471679754,
			"-0.006": 12.4349763255,
			"-0.005": 25.7642855346,
			"-0.004": 23.7407419342,
			"-0.003": 24.5791973005,
			"-0.002": 18.3935602813,
			"-0.001": 19.5015893846,
			"0.0": 11.8700852124,
			"0.001": 6.84991994226,
			"0.002": 6.56746315816,
			"0.003": 7.49718459662,
			"0.004": 9.89087548975,
			"0.005": 13.9448444318,
			"0.006": 11.7860505508,
			"0.007": 3.5401564261,
			"0.008": 2.5872423913,
			"0.009": 2.04121814199,
			"0.01": 2.63458743417,
			"0.011": 2.25903988379,
			"0.012": 1.55221093446,
			"0.013": 2.43213394544,
			"0.014": 1.6756453335,
			"0.015": 2.1986535829,
			"0.016": 1.98130168317,
			"0.017": 2.10547394389,
			"0.018": 2.02557298592,
			"0.019": 0.0576412952833,
			"0.02": 0.0,
			"0.021": 0.0,
			"0.022": 0.0,
			"0.023": 0.0,
			"0.024": 0.0,
			"0.025": 0.0
		}
	}
}
