{
	 "smiles": "OC(=O)C1CCN(CC1)S(=O)(=O)C1=C(C=CC=C1)C#N", 
	 "Tm": 424.15, 
	 "num_atms": 34, 
	 "gaussian": { 
		 "optdone": 1, 
		 "sigma_profile": "yes", 
		 "theory": "DFT", 
		 "functional": "B3LYP", 
		 "basiset": "6-31G**", 
		 "properties": { 
			 "R2extent": 6797.6016, 
			 "electric_dipole_moment_norm": 6.95038059605, 
			 "electric_quadrupole_moment_norm": 26.1580030004, 
			 "total_energy": -1312.32968476, 
			 "HOMO_LUMO_gap": 0.18988, 
			 "cosmo_polarized_energy": -24.5, 
			 "cosmo_cavitation_energy": 38.87, 
			 "cosmo_dispersion_energy": -26.95, 
			 "cosmo_repulsion_energy": 2.0, 
			 "cosmo_total_nonelectrostatic_energy": 13.92, 
			 "SMD_solvation_energy": 7.75 
		},
		"coords": [
			{
				"x": -0.152932837,
				"y": -5.5243674087,
				"z": 1.8509558617,
				"element": "O" 
			},
			{
				"x": 0.5389031322,
				"y": -4.5683681847,
				"z": 1.1847248507,
				"element": "C" 
			},
			{
				"x": 1.0160633273,
				"y": -4.7679968201,
				"z": 0.086196617,
				"element": "O" 
			},
			{
				"x": 0.6005262765,
				"y": -3.2721381816,
				"z": 1.9768919548,
				"element": "C" 
			},
			{
				"x": -0.7835063354,
				"y": -2.5693636621,
				"z": 1.9659738331,
				"element": "C" 
			},
			{
				"x": -1.0873428025,
				"y": -1.9254753777,
				"z": 0.6081727365,
				"element": "C" 
			},
			{
				"x": -0.0045830906,
				"y": -1.0193139461,
				"z": 0.1739360754,
				"element": "N" 
			},
			{
				"x": 1.3292635901,
				"y": -1.6594170058,
				"z": 0.1241780486,
				"element": "C" 
			},
			{
				"x": 1.6994518739,
				"y": -2.325986796,
				"z": 1.4559461176,
				"element": "C" 
			},
			{
				"x": -0.090280843,
				"y": 0.5890750705,
				"z": 0.6467349498,
				"element": "S" 
			},
			{
				"x": -1.2927194195,
				"y": 0.7662771412,
				"z": 1.4671089742,
				"element": "O" 
			},
			{
				"x": 1.2275535686,
				"y": 1.0159881556,
				"z": 1.1266729171,
				"element": "O" 
			},
			{
				"x": -0.3824076233,
				"y": 1.471920907,
				"z": -0.9085930783,
				"element": "C" 
			},
			{
				"x": -0.4802584792,
				"y": 2.8802102008,
				"z": -0.8895673139,
				"element": "C" 
			},
			{
				"x": -0.7091441329,
				"y": 3.5648579507,
				"z": -2.0939511955,
				"element": "C" 
			},
			{
				"x": -0.8376361107,
				"y": 2.8658342695,
				"z": -3.2922985946,
				"element": "C" 
			},
			{
				"x": -0.7402775834,
				"y": 1.4755334478,
				"z": -3.3004423009,
				"element": "C" 
			},
			{
				"x": -0.5137493519,
				"y": 0.7805829611,
				"z": -2.1096647977,
				"element": "C" 
			},
			{
				"x": -0.3601960737,
				"y": 3.6593039131,
				"z": 0.309807134,
				"element": "C" 
			},
			{
				"x": -0.2779546712,
				"y": 4.3604401511,
				"z": 1.233348844,
				"element": "N" 
			},
			{
				"x": -0.1641251397,
				"y": -6.3059463805,
				"z": 1.2727686587,
				"element": "H" 
			},
			{
				"x": 0.8210660155,
				"y": -3.5577406866,
				"z": 3.01175278,
				"element": "H" 
			},
			{
				"x": -1.5717278572,
				"y": -3.2833904079,
				"z": 2.2260314543,
				"element": "H" 
			},
			{
				"x": -0.7860613762,
				"y": -1.7851601039,
				"z": 2.7300346967,
				"element": "H" 
			},
			{
				"x": -2.0211382694,
				"y": -1.3651340228,
				"z": 0.6526740223,
				"element": "H" 
			},
			{
				"x": -1.1878743307,
				"y": -2.689789301,
				"z": -0.1729164385,
				"element": "H" 
			},
			{
				"x": 1.2945603822,
				"y": -2.4074620023,
				"z": -0.6728818194,
				"element": "H" 
			},
			{
				"x": 2.0703875802,
				"y": -0.9050530923,
				"z": -0.1406823458,
				"element": "H" 
			},
			{
				"x": 1.8679068414,
				"y": -1.5424057688,
				"z": 2.2021796626,
				"element": "H" 
			},
			{
				"x": 2.6402709321,
				"y": -2.8720451666,
				"z": 1.3311843261,
				"element": "H" 
			},
			{
				"x": -0.783786533,
				"y": 4.6467026137,
				"z": -2.073358198,
				"element": "H" 
			},
			{
				"x": -1.0135350805,
				"y": 3.409126405,
				"z": -4.2152544125,
				"element": "H" 
			},
			{
				"x": -0.8397785411,
				"y": 0.9252450549,
				"z": -4.2308988479,
				"element": "H" 
			},
			{
				"x": -0.436637038,
				"y": -0.3000439264,
				"z": -2.1032651719,
				"element": "H" 
			}
		],
		 "valence_orbital": [ 
			{
				"type": "occ",
				"energy": -0.30625,
				"method": "rhf"
			},
			{
				"type": "occ",
				"energy": -0.28566,
				"method": "rhf"
			},
			{
				"type": "occ",
				"energy": -0.28325,
				"method": "rhf"
			},
			{
				"type": "occ",
				"energy": -0.27385,
				"method": "rhf"
			},
			{
				"type": "occ",
				"energy": -0.2576,
				"method": "rhf"
			},
			{
				"type": "unocc",
				"energy": -0.06772,
				"method": "rhf"
			},
			{
				"type": "unocc",
				"energy": -0.04161,
				"method": "rhf"
			},
			{
				"type": "unocc",
				"energy": -0.00649,
				"method": "rhf"
			},
			{
				"type": "unocc",
				"energy": 0.02982,
				"method": "rhf"
			},
			{
				"type": "unocc",
				"energy": 0.04658,
				"method": "rhf"
			}
		],
		"cosmo_sigma_profile": { 
			"-0.025": 0.0,
			"-0.024": 0.0,
			"-0.023": 0.0,
			"-0.022": 0.0,
			"-0.021": 0.0,
			"-0.02": 0.0,
			"-0.019": 0.055281752367,
			"-0.018": 0.724465422788,
			"-0.017": 0.855149876173,
			"-0.016": 0.860228746712,
			"-0.015": 0.734524233399,
			"-0.014": 0.572033246728,
			"-0.013": 1.07118860628,
			"-0.012": 0.407249530786,
			"-0.011": 0.833435673938,
			"-0.01": 1.09683155245,
			"-0.009": 1.92566692841,
			"-0.008": 6.6009519237,
			"-0.007": 11.7971921319,
			"-0.006": 13.7380573399,
			"-0.005": 22.7809854584,
			"-0.004": 30.4408229176,
			"-0.003": 31.4044522206,
			"-0.002": 24.4491342803,
			"-0.001": 20.6362537723,
			"0.0": 20.9398966759,
			"0.001": 17.2251312392,
			"0.002": 9.04640536554,
			"0.003": 7.26481292089,
			"0.004": 6.73202700336,
			"0.005": 7.14106763454,
			"0.006": 8.5149242303,
			"0.007": 11.4100120008,
			"0.008": 10.5919600043,
			"0.009": 9.94250593079,
			"0.01": 14.3143895423,
			"0.011": 10.1528506489,
			"0.012": 4.30763860804,
			"0.013": 0.372118939344,
			"0.014": 0.0,
			"0.015": 0.0,
			"0.016": 0.0,
			"0.017": 0.0,
			"0.018": 0.0,
			"0.019": 0.0,
			"0.02": 0.0,
			"0.021": 0.0,
			"0.022": 0.0,
			"0.023": 0.0,
			"0.024": 0.0,
			"0.025": 0.0
		}
	}
}
