{
	 "smiles": "CC1C2C(OC1=O)C1=C(C)C(=O)C=CC1(C)CC2O", 
	 "Tm": 476.15, 
	 "num_atms": 37, 
	 "gaussian": { 
		 "optdone": 1, 
		 "sigma_profile": "yes", 
		 "theory": "DFT", 
		 "functional": "B3LYP", 
		 "basiset": "6-31G**", 
		 "properties": { 
			 "R2extent": 5178.6422, 
			 "electric_dipole_moment_norm": 7.03133687786, 
			 "electric_quadrupole_moment_norm": 23.819066116, 
			 "total_energy": -883.316538795, 
			 "HOMO_LUMO_gap": 0.17691, 
			 "cosmo_polarized_energy": -22.99, 
			 "cosmo_cavitation_energy": 36.85, 
			 "cosmo_dispersion_energy": -25.77, 
			 "cosmo_repulsion_energy": 1.97, 
			 "cosmo_total_nonelectrostatic_energy": 13.04, 
			 "SMD_solvation_energy": 7.54 
		},
		"coords": [
			{
				"x": 2.6191549271,
				"y": -3.6865951581,
				"z": -0.8172554733,
				"element": "C" 
			},
			{
				"x": 1.3628862944,
				"y": -3.4216117117,
				"z": 0.0320560662,
				"element": "C" 
			},
			{
				"x": 0.4393115295,
				"y": -2.3196406625,
				"z": -0.5319060006,
				"element": "C" 
			},
			{
				"x": 1.0331024703,
				"y": -1.0602670835,
				"z": 0.1462184849,
				"element": "C" 
			},
			{
				"x": 1.488632502,
				"y": -1.5285219051,
				"z": 1.4480770432,
				"element": "O" 
			},
			{
				"x": 1.7581705465,
				"y": -2.8698531918,
				"z": 1.3992193767,
				"element": "C" 
			},
			{
				"x": 2.2559968422,
				"y": -3.4561281122,
				"z": 2.3241680596,
				"element": "O" 
			},
			{
				"x": 0.1497574834,
				"y": 0.1549530676,
				"z": 0.353087063,
				"element": "C" 
			},
			{
				"x": 0.655888479,
				"y": 1.2672216071,
				"z": 0.9347234385,
				"element": "C" 
			},
			{
				"x": 2.096129163,
				"y": 1.4465954336,
				"z": 1.3371598062,
				"element": "C" 
			},
			{
				"x": -0.2491250039,
				"y": 2.4027561324,
				"z": 1.2933515021,
				"element": "C" 
			},
			{
				"x": 0.188243508,
				"y": 3.4584079296,
				"z": 1.7439489619,
				"element": "O" 
			},
			{
				"x": -1.6992895489,
				"y": 2.1882518506,
				"z": 1.1267455993,
				"element": "C" 
			},
			{
				"x": -2.1785047431,
				"y": 1.0888991327,
				"z": 0.5339393676,
				"element": "C" 
			},
			{
				"x": -1.3047634065,
				"y": 0.0134434461,
				"z": -0.0530162277,
				"element": "C" 
			},
			{
				"x": -1.4569281399,
				"y": 0.1457452159,
				"z": -1.6026755232,
				"element": "C" 
			},
			{
				"x": -1.7794062501,
				"y": -1.3789525244,
				"z": 0.4360557006,
				"element": "C" 
			},
			{
				"x": -1.0834534716,
				"y": -2.5584310494,
				"z": -0.2640532796,
				"element": "C" 
			},
			{
				"x": -1.2425117174,
				"y": -3.7428057019,
				"z": 0.514681318,
				"element": "O" 
			},
			{
				"x": 3.1853633449,
				"y": -2.7703961514,
				"z": -1.0181763363,
				"element": "H" 
			},
			{
				"x": 3.2824218593,
				"y": -4.381054348,
				"z": -0.2946639377,
				"element": "H" 
			},
			{
				"x": 2.3431327315,
				"y": -4.1308503955,
				"z": -1.7785448002,
				"element": "H" 
			},
			{
				"x": 0.8288494681,
				"y": -4.3579146156,
				"z": 0.1886606159,
				"element": "H" 
			},
			{
				"x": 0.5765431917,
				"y": -2.2335894965,
				"z": -1.613829891,
				"element": "H" 
			},
			{
				"x": 1.9288921897,
				"y": -0.7583158235,
				"z": -0.4128852177,
				"element": "H" 
			},
			{
				"x": 2.2645738483,
				"y": 1.0606179811,
				"z": 2.3481355037,
				"element": "H" 
			},
			{
				"x": 2.7841614171,
				"y": 0.9172839099,
				"z": 0.6730494755,
				"element": "H" 
			},
			{
				"x": 2.3379152049,
				"y": 2.5108166201,
				"z": 1.3437058705,
				"element": "H" 
			},
			{
				"x": -2.3445371834,
				"y": 2.9798797153,
				"z": 1.4957314754,
				"element": "H" 
			},
			{
				"x": -3.2510747465,
				"y": 0.9622458741,
				"z": 0.3892954145,
				"element": "H" 
			},
			{
				"x": -1.1576701027,
				"y": 1.1472446937,
				"z": -1.9214334164,
				"element": "H" 
			},
			{
				"x": -0.8437815068,
				"y": -0.5780759985,
				"z": -2.1446661239,
				"element": "H" 
			},
			{
				"x": -2.5005935586,
				"y": -0.0099017372,
				"z": -1.8972388391,
				"element": "H" 
			},
			{
				"x": -2.8652158491,
				"y": -1.4700182725,
				"z": 0.2971943124,
				"element": "H" 
			},
			{
				"x": -1.5797768343,
				"y": -1.4587070051,
				"z": 1.5105212485,
				"element": "H" 
			},
			{
				"x": -1.5576604171,
				"y": -2.711622434,
				"z": -1.2446938038,
				"element": "H" 
			},
			{
				"x": -2.185034521,
				"y": -3.8621092315,
				"z": 0.6885131665,
				"element": "H" 
			}
		],
		 "valence_orbital": [ 
			{
				"type": "occ",
				"energy": -0.28598,
				"method": "rhf"
			},
			{
				"type": "occ",
				"energy": -0.27439,
				"method": "rhf"
			},
			{
				"type": "occ",
				"energy": -0.26497,
				"method": "rhf"
			},
			{
				"type": "occ",
				"energy": -0.25469,
				"method": "rhf"
			},
			{
				"type": "occ",
				"energy": -0.24444,
				"method": "rhf"
			},
			{
				"type": "unocc",
				"energy": -0.06753,
				"method": "rhf"
			},
			{
				"type": "unocc",
				"energy": -0.01163,
				"method": "rhf"
			},
			{
				"type": "unocc",
				"energy": 0.01237,
				"method": "rhf"
			},
			{
				"type": "unocc",
				"energy": 0.04779,
				"method": "rhf"
			},
			{
				"type": "unocc",
				"energy": 0.06415,
				"method": "rhf"
			}
		],
		"cosmo_sigma_profile": { 
			"-0.025": 0.0,
			"-0.024": 0.0,
			"-0.023": 0.0,
			"-0.022": 0.0,
			"-0.021": 0.0,
			"-0.02": 0.0,
			"-0.019": 0.0,
			"-0.018": 0.0,
			"-0.017": 0.0,
			"-0.016": 0.489410790587,
			"-0.015": 0.983473805646,
			"-0.014": 1.19671605738,
			"-0.013": 0.611553012423,
			"-0.012": 1.01667560771,
			"-0.011": 1.25529184544,
			"-0.01": 1.02163358827,
			"-0.009": 0.84413300881,
			"-0.008": 1.41488438901,
			"-0.007": 12.2468974246,
			"-0.006": 16.216479919,
			"-0.005": 17.2870022086,
			"-0.004": 27.2164533,
			"-0.003": 24.747287737,
			"-0.002": 26.2239621869,
			"-0.001": 28.7012216647,
			"0.0": 26.8602804017,
			"0.001": 15.952233325,
			"0.002": 9.5763775004,
			"0.003": 8.25422483316,
			"0.004": 6.83293150872,
			"0.005": 5.60617965305,
			"0.006": 5.62581700962,
			"0.007": 6.338495663,
			"0.008": 5.44561888795,
			"0.009": 6.69049585091,
			"0.01": 6.12975836947,
			"0.011": 6.71011120508,
			"0.012": 9.07628876475,
			"0.013": 6.09288508612,
			"0.014": 1.18922610353,
			"0.015": 0.0448903705441,
			"0.016": 0.0,
			"0.017": 0.0,
			"0.018": 0.0,
			"0.019": 0.0,
			"0.02": 0.0,
			"0.021": 0.0,
			"0.022": 0.0,
			"0.023": 0.0,
			"0.024": 0.0,
			"0.025": 0.0
		}
	}
}
