{
	 "smiles": "CC1OC(C)(C)C2=C1C(NC(=O)C1=C(Cl)N(C)N=C1C)=CC=C2", 
	 "Tm": 423.15, 
	 "num_atms": 43, 
	 "gaussian": { 
		 "optdone": 1, 
		 "sigma_profile": "yes", 
		 "theory": "DFT", 
		 "functional": "B3LYP", 
		 "basiset": "6-31G**", 
		 "properties": { 
			 "R2extent": 7565.4947, 
			 "electric_dipole_moment_norm": 4.22177925643, 
			 "electric_quadrupole_moment_norm": 13.3124331983, 
			 "total_energy": -1434.76096147, 
			 "HOMO_LUMO_gap": 0.20632, 
			 "cosmo_polarized_energy": -15.53, 
			 "cosmo_cavitation_energy": 46.2, 
			 "cosmo_dispersion_energy": -29.6, 
			 "cosmo_repulsion_energy": 2.25, 
			 "cosmo_total_nonelectrostatic_energy": 18.85, 
			 "SMD_solvation_energy": 7.19 
		},
		"coords": [
			{
				"x": 1.4045048078,
				"y": 0.9325058325,
				"z": -1.64621294,
				"element": "C" 
			},
			{
				"x": 0.4634873297,
				"y": 0.747825494,
				"z": -0.453364484,
				"element": "C" 
			},
			{
				"x": 0.3071719421,
				"y": 2.0157007444,
				"z": 0.2064489545,
				"element": "O" 
			},
			{
				"x": 0.5128755418,
				"y": 1.9293189582,
				"z": 1.63244182,
				"element": "C" 
			},
			{
				"x": -0.8347067373,
				"y": 2.1458194918,
				"z": 2.3416938277,
				"element": "C" 
			},
			{
				"x": 1.5245330713,
				"y": 3.0129263291,
				"z": 2.0256610456,
				"element": "C" 
			},
			{
				"x": 1.0369573664,
				"y": 0.5211201409,
				"z": 1.8349385816,
				"element": "C" 
			},
			{
				"x": 0.9706764237,
				"y": -0.1818115173,
				"z": 0.6303584156,
				"element": "C" 
			},
			{
				"x": 1.3844322649,
				"y": -1.520070287,
				"z": 0.5799218823,
				"element": "C" 
			},
			{
				"x": 1.3765412556,
				"y": -2.2976087953,
				"z": -0.6154609024,
				"element": "N" 
			},
			{
				"x": 0.3984393123,
				"y": -2.4535756924,
				"z": -1.5800340415,
				"element": "C" 
			},
			{
				"x": 0.7156060997,
				"y": -2.7808801282,
				"z": -2.7213087257,
				"element": "O" 
			},
			{
				"x": -1.0239355409,
				"y": -2.2536645652,
				"z": -1.2170111203,
				"element": "C" 
			},
			{
				"x": -1.7539965595,
				"y": -2.6327859314,
				"z": -0.0942356514,
				"element": "C" 
			},
			{
				"x": -1.2864820087,
				"y": -3.4604235393,
				"z": 1.3449592345,
				"element": "Cl" 
			},
			{
				"x": -3.0536817258,
				"y": -2.3270091262,
				"z": -0.3172497952,
				"element": "N" 
			},
			{
				"x": -4.2025861287,
				"y": -2.5709849404,
				"z": 0.5370057758,
				"element": "C" 
			},
			{
				"x": -3.2259312047,
				"y": -1.7658414545,
				"z": -1.5442684213,
				"element": "N" 
			},
			{
				"x": -2.018833953,
				"y": -1.7327268181,
				"z": -2.1002554486,
				"element": "C" 
			},
			{
				"x": -1.8356580825,
				"y": -1.1863675778,
				"z": -3.4817471522,
				"element": "C" 
			},
			{
				"x": 1.9129024958,
				"y": -2.1021343934,
				"z": 1.7422608795,
				"element": "C" 
			},
			{
				"x": 2.0025255249,
				"y": -1.3802103385,
				"z": 2.9315291377,
				"element": "C" 
			},
			{
				"x": 1.548618145,
				"y": -0.0599513934,
				"z": 2.9916433009,
				"element": "C" 
			},
			{
				"x": 2.4063287139,
				"y": 1.2056020093,
				"z": -1.301468313,
				"element": "H" 
			},
			{
				"x": 1.0271945717,
				"y": 1.74084381,
				"z": -2.279193918,
				"element": "H" 
			},
			{
				"x": 1.4732681212,
				"y": 0.0236839214,
				"z": -2.2502831464,
				"element": "H" 
			},
			{
				"x": -0.520700115,
				"y": 0.4206082049,
				"z": -0.8192064603,
				"element": "H" 
			},
			{
				"x": -0.7225230182,
				"y": 2.0880317015,
				"z": 3.4297078557,
				"element": "H" 
			},
			{
				"x": -1.5573500693,
				"y": 1.3866911653,
				"z": 2.0293120114,
				"element": "H" 
			},
			{
				"x": -1.2357523528,
				"y": 3.1311427967,
				"z": 2.0854039537,
				"element": "H" 
			},
			{
				"x": 2.47468862,
				"y": 2.8531982109,
				"z": 1.5095027291,
				"element": "H" 
			},
			{
				"x": 1.1399123487,
				"y": 3.9983133082,
				"z": 1.7460641905,
				"element": "H" 
			},
			{
				"x": 1.7075463901,
				"y": 3.0089718496,
				"z": 3.1053372304,
				"element": "H" 
			},
			{
				"x": 2.2806142763,
				"y": -2.5961551718,
				"z": -0.9640419171,
				"element": "H" 
			},
			{
				"x": -4.3794499699,
				"y": -3.6438491018,
				"z": 0.6582809378,
				"element": "H" 
			},
			{
				"x": -5.0584271879,
				"y": -2.1119474208,
				"z": 0.0446246076,
				"element": "H" 
			},
			{
				"x": -4.0549382243,
				"y": -2.1196320064,
				"z": 1.5213653733,
				"element": "H" 
			},
			{
				"x": -1.3415605371,
				"y": -1.921860227,
				"z": -4.120414118,
				"element": "H" 
			},
			{
				"x": -1.2065525955,
				"y": -0.2895169149,
				"z": -3.4779815909,
				"element": "H" 
			},
			{
				"x": -2.810241291,
				"y": -0.9250468686,
				"z": -3.8994745761,
				"element": "H" 
			},
			{
				"x": 2.2410707045,
				"y": -3.1364401063,
				"z": 1.7013061015,
				"element": "H" 
			},
			{
				"x": 2.4165509846,
				"y": -1.8545642013,
				"z": 3.8164168218,
				"element": "H" 
			},
			{
				"x": 1.60796099,
				"y": 0.5006545487,
				"z": 3.9203280535,
				"element": "H" 
			}
		],
		 "valence_orbital": [ 
			{
				"type": "occ",
				"energy": -0.25875,
				"method": "rhf"
			},
			{
				"type": "occ",
				"energy": -0.24858,
				"method": "rhf"
			},
			{
				"type": "occ",
				"energy": -0.24439,
				"method": "rhf"
			},
			{
				"type": "occ",
				"energy": -0.23664,
				"method": "rhf"
			},
			{
				"type": "occ",
				"energy": -0.2341,
				"method": "rhf"
			},
			{
				"type": "unocc",
				"energy": -0.02778,
				"method": "rhf"
			},
			{
				"type": "unocc",
				"energy": -0.00794,
				"method": "rhf"
			},
			{
				"type": "unocc",
				"energy": -0.00665,
				"method": "rhf"
			},
			{
				"type": "unocc",
				"energy": 0.01842,
				"method": "rhf"
			},
			{
				"type": "unocc",
				"energy": 0.02595,
				"method": "rhf"
			}
		],
		"cosmo_sigma_profile": { 
			"-0.025": 0.0,
			"-0.024": 0.0,
			"-0.023": 0.0,
			"-0.022": 0.0,
			"-0.021": 0.0,
			"-0.02": 0.0,
			"-0.019": 0.0,
			"-0.018": 0.0,
			"-0.017": 0.0,
			"-0.016": 0.0,
			"-0.015": 0.0799230213916,
			"-0.014": 0.735532156051,
			"-0.013": 0.857163035494,
			"-0.012": 0.969621058431,
			"-0.011": 1.06428816693,
			"-0.01": 0.877329279818,
			"-0.009": 0.715835389921,
			"-0.008": 0.932258803759,
			"-0.007": 4.75471895058,
			"-0.006": 13.8069788819,
			"-0.005": 17.9724476605,
			"-0.004": 28.946841146,
			"-0.003": 37.6040813458,
			"-0.002": 37.4592555116,
			"-0.001": 40.3533697547,
			"0.0": 42.3427872839,
			"0.001": 34.938138157,
			"0.002": 22.2860414598,
			"0.003": 16.4781866871,
			"0.004": 13.5408281357,
			"0.005": 10.9216467921,
			"0.006": 4.96375095504,
			"0.007": 4.4916787751,
			"0.008": 3.83776468031,
			"0.009": 3.56277941446,
			"0.01": 4.33130248106,
			"0.011": 3.84422491487,
			"0.012": 3.61635208571,
			"0.013": 7.18826210766,
			"0.014": 2.47655078674,
			"0.015": 0.0710720936514,
			"0.016": 0.0,
			"0.017": 0.0,
			"0.018": 0.0,
			"0.019": 0.0,
			"0.02": 0.0,
			"0.021": 0.0,
			"0.022": 0.0,
			"0.023": 0.0,
			"0.024": 0.0,
			"0.025": 0.0
		}
	}
}
