{
	 "smiles": "O=C1CC2=CC=C3C=CC=CC3=C12", 
	 "Tm": 370.15, 
	 "num_atms": 21, 
	 "gaussian": { 
		 "optdone": 1, 
		 "sigma_profile": "yes", 
		 "theory": "DFT", 
		 "functional": "B3LYP", 
		 "basiset": "6-31G**", 
		 "properties": { 
			 "R2extent": 2884.3026, 
			 "electric_dipole_moment_norm": 3.63596803891, 
			 "electric_quadrupole_moment_norm": 15.281336915, 
			 "total_energy": -537.294533547, 
			 "HOMO_LUMO_gap": 0.15946, 
			 "cosmo_polarized_energy": -8.44, 
			 "cosmo_cavitation_energy": 25.35, 
			 "cosmo_dispersion_energy": -18.71, 
			 "cosmo_repulsion_energy": 1.46, 
			 "cosmo_total_nonelectrostatic_energy": 8.1, 
			 "SMD_solvation_energy": 4.39 
		},
		"coords": [
			{
				"x": 0.7717787469,
				"y": 3.5020565516,
				"z": -2.8501513414,
				"element": "O" 
			},
			{
				"x": 0.2139300436,
				"y": 2.5238830127,
				"z": -2.4161825138,
				"element": "C" 
			},
			{
				"x": -0.9954889234,
				"y": 1.640160482,
				"z": -2.9136586263,
				"element": "C" 
			},
			{
				"x": -0.7132208335,
				"y": 0.8494365906,
				"z": -1.6382461347,
				"element": "C" 
			},
			{
				"x": -1.1468490459,
				"y": -0.261239878,
				"z": -0.893434263,
				"element": "C" 
			},
			{
				"x": -0.4573598946,
				"y": -0.5214711044,
				"z": 0.2786034829,
				"element": "C" 
			},
			{
				"x": 0.6395640431,
				"y": 0.2765018309,
				"z": 0.7337817476,
				"element": "C" 
			},
			{
				"x": 1.3228207259,
				"y": -0.0220596607,
				"z": 1.9424843989,
				"element": "C" 
			},
			{
				"x": 2.377818039,
				"y": 0.7575143812,
				"z": 2.3661989062,
				"element": "C" 
			},
			{
				"x": 2.8001923144,
				"y": 1.8722855641,
				"z": 1.6024390478,
				"element": "C" 
			},
			{
				"x": 2.1635857754,
				"y": 2.196601144,
				"z": 0.422598638,
				"element": "C" 
			},
			{
				"x": 1.0779017031,
				"y": 1.4114490615,
				"z": -0.0333109642,
				"element": "C" 
			},
			{
				"x": 0.3455576245,
				"y": 1.6408287418,
				"z": -1.2234610168,
				"element": "C" 
			},
			{
				"x": -0.8227662008,
				"y": 1.1206898001,
				"z": -3.8628599822,
				"element": "H" 
			},
			{
				"x": -1.9557678174,
				"y": 2.1654793435,
				"z": -2.9643782762,
				"element": "H" 
			},
			{
				"x": -1.9745642859,
				"y": -0.8905540029,
				"z": -1.2053292679,
				"element": "H" 
			},
			{
				"x": -0.7499497121,
				"y": -1.3686104252,
				"z": 0.8947942076,
				"element": "H" 
			},
			{
				"x": 1.0008900267,
				"y": -0.8773769696,
				"z": 2.5311504824,
				"element": "H" 
			},
			{
				"x": 2.8916766162,
				"y": 0.5181135166,
				"z": 3.2925075704,
				"element": "H" 
			},
			{
				"x": 3.6333749535,
				"y": 2.4748748412,
				"z": 1.9522629994,
				"element": "H" 
			},
			{
				"x": 2.4781761014,
				"y": 3.0488371788,
				"z": -0.1718090947,
				"element": "H" 
			}
		],
		 "valence_orbital": [ 
			{
				"type": "occ",
				"energy": -0.33236,
				"method": "rhf"
			},
			{
				"type": "occ",
				"energy": -0.29253,
				"method": "rhf"
			},
			{
				"type": "occ",
				"energy": -0.25392,
				"method": "rhf"
			},
			{
				"type": "occ",
				"energy": -0.2444,
				"method": "rhf"
			},
			{
				"type": "occ",
				"energy": -0.22784,
				"method": "rhf"
			},
			{
				"type": "unocc",
				"energy": -0.06838,
				"method": "rhf"
			},
			{
				"type": "unocc",
				"energy": -0.02417,
				"method": "rhf"
			},
			{
				"type": "unocc",
				"energy": -0.00699,
				"method": "rhf"
			},
			{
				"type": "unocc",
				"energy": 0.05727,
				"method": "rhf"
			},
			{
				"type": "unocc",
				"energy": 0.08723,
				"method": "rhf"
			}
		],
		"cosmo_sigma_profile": { 
			"-0.025": 0.0,
			"-0.024": 0.0,
			"-0.023": 0.0,
			"-0.022": 0.0,
			"-0.021": 0.0,
			"-0.02": 0.0,
			"-0.019": 0.0,
			"-0.018": 0.0,
			"-0.017": 0.0,
			"-0.016": 0.0,
			"-0.015": 0.0,
			"-0.014": 0.0,
			"-0.013": 0.0,
			"-0.012": 0.0,
			"-0.011": 0.0,
			"-0.01": 0.0,
			"-0.009": 0.0,
			"-0.008": 0.00183587150334,
			"-0.007": 5.02965988613,
			"-0.006": 14.4529978334,
			"-0.005": 17.5725330042,
			"-0.004": 18.6485098146,
			"-0.003": 13.9346261485,
			"-0.002": 15.2234042285,
			"-0.001": 14.8454637251,
			"0.0": 15.235241821,
			"0.001": 13.6031348336,
			"0.002": 21.5819425108,
			"0.003": 19.4173214251,
			"0.004": 12.1924329061,
			"0.005": 3.6308621551,
			"0.006": 1.17181121226,
			"0.007": 1.44738158806,
			"0.008": 2.51117961103,
			"0.009": 1.61729191529,
			"0.01": 2.53018702493,
			"0.011": 4.61069478704,
			"0.012": 4.154790151,
			"0.013": 0.863293800011,
			"0.014": 0.0,
			"0.015": 0.0,
			"0.016": 0.0,
			"0.017": 0.0,
			"0.018": 0.0,
			"0.019": 0.0,
			"0.02": 0.0,
			"0.021": 0.0,
			"0.022": 0.0,
			"0.023": 0.0,
			"0.024": 0.0,
			"0.025": 0.0
		}
	}
}
