{
	 "smiles": "CNC(=O)C1=CC(F)=NC=C1", 
	 "Tm": 401.15, 
	 "num_atms": 18, 
	 "gaussian": { 
		 "optdone": 1, 
		 "sigma_profile": "yes", 
		 "theory": "DFT", 
		 "functional": "B3LYP", 
		 "basiset": "6-31G**", 
		 "properties": { 
			 "R2extent": 1940.2092, 
			 "electric_dipole_moment_norm": 5.03273496024, 
			 "electric_quadrupole_moment_norm": 10.8825844968, 
			 "total_energy": -555.531378722, 
			 "HOMO_LUMO_gap": 0.19965, 
			 "cosmo_polarized_energy": -13.57, 
			 "cosmo_cavitation_energy": 23.0, 
			 "cosmo_dispersion_energy": -16.73, 
			 "cosmo_repulsion_energy": 1.33, 
			 "cosmo_total_nonelectrostatic_energy": 7.6, 
			 "SMD_solvation_energy": 3.42 
		},
		"coords": [
			{
				"x": 2.3145198344,
				"y": 2.1018723396,
				"z": -1.0088134469,
				"element": "C" 
			},
			{
				"x": 0.9123999097,
				"y": 2.3957387254,
				"z": -0.7459434766,
				"element": "N" 
			},
			{
				"x": -0.0890608674,
				"y": 1.5523398948,
				"z": -0.3447371833,
				"element": "C" 
			},
			{
				"x": -1.1298003202,
				"y": 1.9813957429,
				"z": 0.1417589848,
				"element": "O" 
			},
			{
				"x": 0.0954934248,
				"y": 0.0674502547,
				"z": -0.5423985466,
				"element": "C" 
			},
			{
				"x": -0.4144864999,
				"y": -0.7834128768,
				"z": 0.4378196347,
				"element": "C" 
			},
			{
				"x": -0.2976960457,
				"y": -2.1535871355,
				"z": 0.2152199162,
				"element": "C" 
			},
			{
				"x": -0.7592806205,
				"y": -2.9884311311,
				"z": 1.157613909,
				"element": "F" 
			},
			{
				"x": 0.228132826,
				"y": -2.7187175852,
				"z": -0.8520567919,
				"element": "N" 
			},
			{
				"x": 0.6876283628,
				"y": -1.8909525959,
				"z": -1.8020938563,
				"element": "C" 
			},
			{
				"x": 0.653797981,
				"y": -0.5026659323,
				"z": -1.6967522893,
				"element": "C" 
			},
			{
				"x": 2.9488426311,
				"y": 2.7881107291,
				"z": -0.4389270704,
				"element": "H" 
			},
			{
				"x": 2.5668919835,
				"y": 2.2055188542,
				"z": -2.0713628077,
				"element": "H" 
			},
			{
				"x": 2.5548172947,
				"y": 1.0856777501,
				"z": -0.6954844766,
				"element": "H" 
			},
			{
				"x": 0.6649910658,
				"y": 3.3650463368,
				"z": -0.5919306621,
				"element": "H" 
			},
			{
				"x": -0.8926578179,
				"y": -0.3937384071,
				"z": 1.3279094574,
				"element": "H" 
			},
			{
				"x": 1.1013900843,
				"y": -2.3669890024,
				"z": -2.6883509544,
				"element": "H" 
			},
			{
				"x": 1.0278767734,
				"y": 0.1135440386,
				"z": -2.5063703401,
				"element": "H" 
			}
		],
		 "valence_orbital": [ 
			{
				"type": "occ",
				"energy": -0.30329,
				"method": "rhf"
			},
			{
				"type": "occ",
				"energy": -0.28509,
				"method": "rhf"
			},
			{
				"type": "occ",
				"energy": -0.26919,
				"method": "rhf"
			},
			{
				"type": "occ",
				"energy": -0.26548,
				"method": "rhf"
			},
			{
				"type": "occ",
				"energy": -0.25628,
				"method": "rhf"
			},
			{
				"type": "unocc",
				"energy": -0.05663,
				"method": "rhf"
			},
			{
				"type": "unocc",
				"energy": -0.0197,
				"method": "rhf"
			},
			{
				"type": "unocc",
				"energy": 0.03925,
				"method": "rhf"
			},
			{
				"type": "unocc",
				"energy": 0.07149,
				"method": "rhf"
			},
			{
				"type": "unocc",
				"energy": 0.09927,
				"method": "rhf"
			}
		],
		"cosmo_sigma_profile": { 
			"-0.025": 0.0,
			"-0.024": 0.0,
			"-0.023": 0.0,
			"-0.022": 0.0,
			"-0.021": 0.0,
			"-0.02": 0.0,
			"-0.019": 0.0,
			"-0.018": 0.0,
			"-0.017": 0.0,
			"-0.016": 0.0,
			"-0.015": 0.0282089996116,
			"-0.014": 0.731000750048,
			"-0.013": 1.275327893,
			"-0.012": 0.517131462501,
			"-0.011": 1.17704711523,
			"-0.01": 1.2701837603,
			"-0.009": 1.24844715864,
			"-0.008": 3.68645591231,
			"-0.007": 6.73471069736,
			"-0.006": 10.6268536017,
			"-0.005": 13.4939003154,
			"-0.004": 13.4430720742,
			"-0.003": 15.5653446839,
			"-0.002": 16.6976096291,
			"-0.001": 13.8365360574,
			"0.0": 13.2335910624,
			"0.001": 10.8154231678,
			"0.002": 6.44161497549,
			"0.003": 9.26785534376,
			"0.004": 9.87754122802,
			"0.005": 4.2671151035,
			"0.006": 2.8531145946,
			"0.007": 3.09317901384,
			"0.008": 3.01614450142,
			"0.009": 2.50875624638,
			"0.01": 1.44595685876,
			"0.011": 3.67648795263,
			"0.012": 3.30197323672,
			"0.013": 5.97225923551,
			"0.014": 3.72671863711,
			"0.015": 0.116732947402,
			"0.016": 0.0,
			"0.017": 0.0,
			"0.018": 0.0,
			"0.019": 0.0,
			"0.02": 0.0,
			"0.021": 0.0,
			"0.022": 0.0,
			"0.023": 0.0,
			"0.024": 0.0,
			"0.025": 0.0
		}
	}
}
