{
	 "smiles": "CC(C)CN1C(=O)NC(=O)C(Br)=C1N", 
	 "Tm": 523.15, 
	 "num_atms": 26, 
	 "gaussian": { 
		 "optdone": 1, 
		 "sigma_profile": "yes", 
		 "theory": "DFT", 
		 "functional": "B3LYP", 
		 "basiset": "6-31G**", 
		 "properties": { 
			 "R2extent": 5726.3901, 
			 "electric_dipole_moment_norm": 6.19828446024, 
			 "electric_quadrupole_moment_norm": 19.235938439, 
			 "total_energy": -3198.23937671, 
			 "HOMO_LUMO_gap": 0.19678, 
			 "cosmo_polarized_energy": -20.12, 
			 "cosmo_cavitation_energy": 30.65, 
			 "cosmo_dispersion_energy": -22.56, 
			 "cosmo_repulsion_energy": 1.77, 
			 "cosmo_total_nonelectrostatic_energy": 9.86, 
			 "SMD_solvation_energy": 5.45 
		},
		"coords": [
			{
				"x": -2.1955343148,
				"y": -0.4566752922,
				"z": -0.7996532486,
				"element": "C" 
			},
			{
				"x": -1.3443674985,
				"y": 0.4211158095,
				"z": -1.7267488825,
				"element": "C" 
			},
			{
				"x": -2.1834240255,
				"y": 1.5327364164,
				"z": -2.3751416746,
				"element": "C" 
			},
			{
				"x": -0.1513537401,
				"y": 1.0689416109,
				"z": -0.9914112461,
				"element": "C" 
			},
			{
				"x": 0.7775259921,
				"y": 0.1241851728,
				"z": -0.3434498099,
				"element": "N" 
			},
			{
				"x": 0.6436470787,
				"y": -0.031275118,
				"z": 1.0501961087,
				"element": "C" 
			},
			{
				"x": -0.2343394044,
				"y": 0.528060739,
				"z": 1.6888749913,
				"element": "O" 
			},
			{
				"x": 1.5785910314,
				"y": -0.8554631923,
				"z": 1.629016299,
				"element": "N" 
			},
			{
				"x": 2.6532250447,
				"y": -1.5383540553,
				"z": 1.0179185506,
				"element": "C" 
			},
			{
				"x": 3.3963118905,
				"y": -2.2344193091,
				"z": 1.6902774545,
				"element": "O" 
			},
			{
				"x": 2.7101148806,
				"y": -1.3043858898,
				"z": -0.40500551,
				"element": "C" 
			},
			{
				"x": 4.0908719624,
				"y": -2.1742689493,
				"z": -1.3741507493,
				"element": "Br" 
			},
			{
				"x": 1.8050444668,
				"y": -0.4918633621,
				"z": -1.0504540903,
				"element": "C" 
			},
			{
				"x": 1.8962015957,
				"y": -0.2030517774,
				"z": -2.3862522221,
				"element": "N" 
			},
			{
				"x": -2.5868120629,
				"y": 0.1255969197,
				"z": 0.0400880867,
				"element": "H" 
			},
			{
				"x": -3.0411296935,
				"y": -0.882906564,
				"z": -1.3490533934,
				"element": "H" 
			},
			{
				"x": -1.6163394869,
				"y": -1.2864948302,
				"z": -0.3846973291,
				"element": "H" 
			},
			{
				"x": -0.9625252994,
				"y": -0.2243101956,
				"z": -2.5340941292,
				"element": "H" 
			},
			{
				"x": -2.6069258223,
				"y": 2.195076869,
				"z": -1.6114670729,
				"element": "H" 
			},
			{
				"x": -3.0156233476,
				"y": 1.1088269565,
				"z": -2.9450419814,
				"element": "H" 
			},
			{
				"x": -1.5881178876,
				"y": 2.1485384314,
				"z": -3.0588386465,
				"element": "H" 
			},
			{
				"x": -0.5286324809,
				"y": 1.7037060302,
				"z": -0.1885596389,
				"element": "H" 
			},
			{
				"x": 0.4303456615,
				"y": 1.6968215669,
				"z": -1.6735259573,
				"element": "H" 
			},
			{
				"x": 1.4912716436,
				"y": -0.9775093747,
				"z": 2.6303225782,
				"element": "H" 
			},
			{
				"x": 2.5767312323,
				"y": -0.7616214833,
				"z": -2.8844743042,
				"element": "H" 
			},
			{
				"x": 1.045342584,
				"y": -0.0155071291,
				"z": -2.8931741828,
				"element": "H" 
			}
		],
		 "valence_orbital": [ 
			{
				"type": "occ",
				"energy": -0.29563,
				"method": "rhf"
			},
			{
				"type": "occ",
				"energy": -0.29273,
				"method": "rhf"
			},
			{
				"type": "occ",
				"energy": -0.28066,
				"method": "rhf"
			},
			{
				"type": "occ",
				"energy": -0.25836,
				"method": "rhf"
			},
			{
				"type": "occ",
				"energy": -0.22032,
				"method": "rhf"
			},
			{
				"type": "unocc",
				"energy": -0.02354,
				"method": "rhf"
			},
			{
				"type": "unocc",
				"energy": 0.00218,
				"method": "rhf"
			},
			{
				"type": "unocc",
				"energy": 0.01114,
				"method": "rhf"
			},
			{
				"type": "unocc",
				"energy": 0.0449,
				"method": "rhf"
			},
			{
				"type": "unocc",
				"energy": 0.0899,
				"method": "rhf"
			}
		],
		"cosmo_sigma_profile": { 
			"-0.025": 0.0,
			"-0.024": 0.0,
			"-0.023": 0.0,
			"-0.022": 0.0,
			"-0.021": 0.0,
			"-0.02": 0.0,
			"-0.019": 0.0,
			"-0.018": 0.0,
			"-0.017": 0.0142485802919,
			"-0.016": 0.44540652444,
			"-0.015": 0.815328439831,
			"-0.014": 2.15011729767,
			"-0.013": 3.15003415812,
			"-0.012": 2.36642315373,
			"-0.011": 3.24755810902,
			"-0.01": 3.14304228182,
			"-0.009": 3.4318445596,
			"-0.008": 2.50628279621,
			"-0.007": 4.21716105777,
			"-0.006": 5.09403362954,
			"-0.005": 9.42826996217,
			"-0.004": 16.1123187056,
			"-0.003": 25.6567423204,
			"-0.002": 23.6682527898,
			"-0.001": 23.0219409438,
			"0.0": 20.3302706317,
			"0.001": 18.8058905917,
			"0.002": 11.981577837,
			"0.003": 9.08545302314,
			"0.004": 8.92398297802,
			"0.005": 7.0667563161,
			"0.006": 4.03152344453,
			"0.007": 3.92190464985,
			"0.008": 2.8005064461,
			"0.009": 4.30907066526,
			"0.01": 3.5180587121,
			"0.011": 3.30692731683,
			"0.012": 6.91319705168,
			"0.013": 8.52040877212,
			"0.014": 2.4982445816,
			"0.015": 0.012449168508,
			"0.016": 0.0,
			"0.017": 0.0,
			"0.018": 0.0,
			"0.019": 0.0,
			"0.02": 0.0,
			"0.021": 0.0,
			"0.022": 0.0,
			"0.023": 0.0,
			"0.024": 0.0,
			"0.025": 0.0
		}
	}
}
