{
	 "smiles": "NC1=CC(Cl)=CC(Cl)=C1", 
	 "Tm": 325.15, 
	 "num_atms": 14, 
	 "gaussian": { 
		 "optdone": 1, 
		 "sigma_profile": "yes", 
		 "theory": "DFT", 
		 "functional": "B3LYP", 
		 "basiset": "6-31G**", 
		 "properties": { 
			 "R2extent": 3195.6724, 
			 "electric_dipole_moment_norm": 3.58764228011, 
			 "electric_quadrupole_moment_norm": 14.6558308546, 
			 "total_energy": -1206.79259932, 
			 "HOMO_LUMO_gap": 0.20308, 
			 "cosmo_polarized_energy": -8.82, 
			 "cosmo_cavitation_energy": 21.85, 
			 "cosmo_dispersion_energy": -16.63, 
			 "cosmo_repulsion_energy": 1.38, 
			 "cosmo_total_nonelectrostatic_energy": 6.6, 
			 "SMD_solvation_energy": 3.17 
		},
		"coords": [
			{
				"x": 0.1605759547,
				"y": 1.425585184,
				"z": -3.0332930378,
				"element": "N" 
			},
			{
				"x": 0.2400254105,
				"y": 1.7441129148,
				"z": -1.6833209324,
				"element": "C" 
			},
			{
				"x": -0.9146532183,
				"y": 1.7318672674,
				"z": -0.8804229391,
				"element": "C" 
			},
			{
				"x": -0.8024809465,
				"y": 1.9993805199,
				"z": 0.4789975698,
				"element": "C" 
			},
			{
				"x": -2.2578193883,
				"y": 1.983251034,
				"z": 1.4658163532,
				"element": "Cl" 
			},
			{
				"x": 0.41753446,
				"y": 2.2839588744,
				"z": 1.0913115208,
				"element": "C" 
			},
			{
				"x": 1.546058486,
				"y": 2.2894074303,
				"z": 0.272321738,
				"element": "C" 
			},
			{
				"x": 3.1096681988,
				"y": 2.6460641806,
				"z": 0.9934441481,
				"element": "Cl" 
			},
			{
				"x": 1.4838843165,
				"y": 2.0280804379,
				"z": -1.0915004104,
				"element": "C" 
			},
			{
				"x": 0.9191435133,
				"y": 1.7567634601,
				"z": -3.6119610323,
				"element": "H" 
			},
			{
				"x": -0.7433771291,
				"y": 1.551492744,
				"z": -3.4657013923,
				"element": "H" 
			},
			{
				"x": -1.8840773047,
				"y": 1.5108147269,
				"z": -1.3135486792,
				"element": "H" 
			},
			{
				"x": 0.4851413546,
				"y": 2.4914234757,
				"z": 2.1507112351,
				"element": "H" 
			},
			{
				"x": 2.3885762925,
				"y": 2.03849775,
				"z": -1.6895541414,
				"element": "H" 
			}
		],
		 "valence_orbital": [ 
			{
				"type": "occ",
				"energy": -0.31989,
				"method": "rhf"
			},
			{
				"type": "occ",
				"energy": -0.31121,
				"method": "rhf"
			},
			{
				"type": "occ",
				"energy": -0.29358,
				"method": "rhf"
			},
			{
				"type": "occ",
				"energy": -0.24788,
				"method": "rhf"
			},
			{
				"type": "occ",
				"energy": -0.22182,
				"method": "rhf"
			},
			{
				"type": "unocc",
				"energy": -0.01874,
				"method": "rhf"
			},
			{
				"type": "unocc",
				"energy": -0.00416,
				"method": "rhf"
			},
			{
				"type": "unocc",
				"energy": 0.00969,
				"method": "rhf"
			},
			{
				"type": "unocc",
				"energy": 0.05152,
				"method": "rhf"
			},
			{
				"type": "unocc",
				"energy": 0.06723,
				"method": "rhf"
			}
		],
		"cosmo_sigma_profile": { 
			"-0.025": 0.0,
			"-0.024": 0.0,
			"-0.023": 0.0,
			"-0.022": 0.0,
			"-0.021": 0.0,
			"-0.02": 0.0,
			"-0.019": 0.0,
			"-0.018": 0.0,
			"-0.017": 0.0,
			"-0.016": 0.0,
			"-0.015": 0.0,
			"-0.014": 0.266075883569,
			"-0.013": 2.55876183943,
			"-0.012": 3.78806307746,
			"-0.011": 2.73290842673,
			"-0.01": 2.7667598026,
			"-0.009": 3.87134568181,
			"-0.008": 4.08930075203,
			"-0.007": 5.31304268437,
			"-0.006": 4.92133993803,
			"-0.005": 4.75510848531,
			"-0.004": 4.63944483826,
			"-0.003": 4.99496526573,
			"-0.002": 8.76194431706,
			"-0.001": 8.513278681,
			"0.0": 10.5973140829,
			"0.001": 14.3295696111,
			"0.002": 22.3382975823,
			"0.003": 26.6949134898,
			"0.004": 25.0467988782,
			"0.005": 12.909779663,
			"0.006": 0.728620888627,
			"0.007": 0.664695270228,
			"0.008": 0.967720036535,
			"0.009": 0.568827098641,
			"0.01": 0.562211376393,
			"0.011": 0.737860604625,
			"0.012": 0.64546501661,
			"0.013": 0.420505443983,
			"0.014": 0.0157805775416,
			"0.015": 0.0,
			"0.016": 0.0,
			"0.017": 0.0,
			"0.018": 0.0,
			"0.019": 0.0,
			"0.02": 0.0,
			"0.021": 0.0,
			"0.022": 0.0,
			"0.023": 0.0,
			"0.024": 0.0,
			"0.025": 0.0
		}
	}
}
