{
	 "smiles": "CCCCCC1=CC=C(C=C1)S(Cl)(=O)=O", 
	 "Tm": 316.15, 
	 "num_atms": 30, 
	 "gaussian": { 
		 "optdone": 1, 
		 "sigma_profile": "yes", 
		 "theory": "DFT", 
		 "functional": "B3LYP", 
		 "basiset": "6-31G**", 
		 "properties": { 
			 "R2extent": 8427.2893, 
			 "electric_dipole_moment_norm": 6.26809869897, 
			 "electric_quadrupole_moment_norm": 32.4695033279, 
			 "total_energy": -1436.98829618, 
			 "HOMO_LUMO_gap": 0.18779, 
			 "cosmo_polarized_energy": -9.22, 
			 "cosmo_cavitation_energy": 35.69, 
			 "cosmo_dispersion_energy": -25.12, 
			 "cosmo_repulsion_energy": 1.97, 
			 "cosmo_total_nonelectrostatic_energy": 12.54, 
			 "SMD_solvation_energy": 4.22 
		},
		"coords": [
			{
				"x": 0.5876313759,
				"y": -0.0441033315,
				"z": 2.3282100442,
				"element": "C" 
			},
			{
				"x": 0.68796918,
				"y": -1.0145449806,
				"z": 1.1458017057,
				"element": "C" 
			},
			{
				"x": 1.8360092326,
				"y": -0.707213469,
				"z": 0.1672480501,
				"element": "C" 
			},
			{
				"x": 1.7823709523,
				"y": 0.6326918722,
				"z": -0.5903174659,
				"element": "C" 
			},
			{
				"x": 0.7325292275,
				"y": 0.7346510337,
				"z": -1.7227753874,
				"element": "C" 
			},
			{
				"x": -0.7078518697,
				"y": 0.9329275157,
				"z": -1.2973661301,
				"element": "C" 
			},
			{
				"x": -1.6967834552,
				"y": -0.0062332086,
				"z": -1.6270028943,
				"element": "C" 
			},
			{
				"x": -3.0282481556,
				"y": 0.1843821701,
				"z": -1.2633051461,
				"element": "C" 
			},
			{
				"x": -3.364687362,
				"y": 1.338903222,
				"z": -0.5571487093,
				"element": "C" 
			},
			{
				"x": -2.4118142229,
				"y": 2.3008405192,
				"z": -0.216001009,
				"element": "C" 
			},
			{
				"x": -1.0893850378,
				"y": 2.0869320553,
				"z": -0.5918333852,
				"element": "C" 
			},
			{
				"x": -5.0598131266,
				"y": 1.5901353396,
				"z": -0.0680011341,
				"element": "S" 
			},
			{
				"x": -5.835971032,
				"y": 2.6623101676,
				"z": -1.7499364637,
				"element": "Cl" 
			},
			{
				"x": -5.1102832293,
				"y": 2.5183015785,
				"z": 1.0550596609,
				"element": "O" 
			},
			{
				"x": -5.7576885223,
				"y": 0.3102938313,
				"z": -0.0532153847,
				"element": "O" 
			},
			{
				"x": 1.5329574155,
				"y": 0.0053343899,
				"z": 2.8814250072,
				"element": "H" 
			},
			{
				"x": 0.3380110561,
				"y": 0.9717731376,
				"z": 2.0051789391,
				"element": "H" 
			},
			{
				"x": -0.1910792362,
				"y": -0.360919203,
				"z": 3.0292971082,
				"element": "H" 
			},
			{
				"x": -0.268926554,
				"y": -1.0409690239,
				"z": 0.6127496102,
				"element": "H" 
			},
			{
				"x": 0.842724563,
				"y": -2.0295852651,
				"z": 1.5336818455,
				"element": "H" 
			},
			{
				"x": 1.904908888,
				"y": -1.519574451,
				"z": -0.5696238694,
				"element": "H" 
			},
			{
				"x": 2.7794193989,
				"y": -0.7347986176,
				"z": 0.7296759791,
				"element": "H" 
			},
			{
				"x": 1.6481753434,
				"y": 1.4631713891,
				"z": 0.113563104,
				"element": "H" 
			},
			{
				"x": 2.7637918607,
				"y": 0.7938679554,
				"z": -1.0527315874,
				"element": "H" 
			},
			{
				"x": 1.0098473456,
				"y": 1.5842507029,
				"z": -2.3608961561,
				"element": "H" 
			},
			{
				"x": 0.8026548312,
				"y": -0.1569208972,
				"z": -2.3569889942,
				"element": "H" 
			},
			{
				"x": -1.4199294568,
				"y": -0.9026290617,
				"z": -2.1745860418,
				"element": "H" 
			},
			{
				"x": -3.7893865372,
				"y": -0.5469609087,
				"z": -1.511027281,
				"element": "H" 
			},
			{
				"x": -2.7040902939,
				"y": 3.1882894991,
				"z": 0.3340925649,
				"element": "H" 
			},
			{
				"x": -0.3410625791,
				"y": 2.8319960387,
				"z": -0.3366265796,
				"element": "H" 
			}
		],
		 "valence_orbital": [ 
			{
				"type": "occ",
				"energy": -0.32415,
				"method": "rhf"
			},
			{
				"type": "occ",
				"energy": -0.32329,
				"method": "rhf"
			},
			{
				"type": "occ",
				"energy": -0.30888,
				"method": "rhf"
			},
			{
				"type": "occ",
				"energy": -0.28426,
				"method": "rhf"
			},
			{
				"type": "occ",
				"energy": -0.27427,
				"method": "rhf"
			},
			{
				"type": "unocc",
				"energy": -0.08648,
				"method": "rhf"
			},
			{
				"type": "unocc",
				"energy": -0.04024,
				"method": "rhf"
			},
			{
				"type": "unocc",
				"energy": -0.03514,
				"method": "rhf"
			},
			{
				"type": "unocc",
				"energy": 0.0542,
				"method": "rhf"
			},
			{
				"type": "unocc",
				"energy": 0.06763,
				"method": "rhf"
			}
		],
		"cosmo_sigma_profile": { 
			"-0.025": 0.0,
			"-0.024": 0.0,
			"-0.023": 0.0,
			"-0.022": 0.0,
			"-0.021": 0.0,
			"-0.02": 0.0,
			"-0.019": 0.0,
			"-0.018": 0.0,
			"-0.017": 0.0,
			"-0.016": 0.0,
			"-0.015": 0.0,
			"-0.014": 0.0,
			"-0.013": 0.0,
			"-0.012": 0.0,
			"-0.011": 0.0,
			"-0.01": 0.0,
			"-0.009": 0.102518095018,
			"-0.008": 2.0588523545,
			"-0.007": 6.66612303952,
			"-0.006": 9.74109993471,
			"-0.005": 11.9519558321,
			"-0.004": 13.3505342465,
			"-0.003": 17.8377079701,
			"-0.002": 30.9754950228,
			"-0.001": 36.2204146167,
			"0.0": 38.0217345417,
			"0.001": 38.1671738103,
			"0.002": 24.8786176423,
			"0.003": 13.0794092131,
			"0.004": 12.6908128238,
			"0.005": 3.4779658989,
			"0.006": 3.14234487398,
			"0.007": 5.5953919342,
			"0.008": 9.58567620806,
			"0.009": 6.05905014294,
			"0.01": 0.238886838787,
			"0.011": 0.0,
			"0.012": 0.0,
			"0.013": 0.0,
			"0.014": 0.0,
			"0.015": 0.0,
			"0.016": 0.0,
			"0.017": 0.0,
			"0.018": 0.0,
			"0.019": 0.0,
			"0.02": 0.0,
			"0.021": 0.0,
			"0.022": 0.0,
			"0.023": 0.0,
			"0.024": 0.0,
			"0.025": 0.0
		}
	}
}
