{
	 "smiles": "CC(O)[C@@H](NC(=O)OCC1=CC=CC=C1)C(O)=O", 
	 "Tm": 376.15, 
	 "num_atms": 33, 
	 "gaussian": { 
		 "optdone": 1, 
		 "sigma_profile": "yes", 
		 "theory": "DFT", 
		 "functional": "B3LYP", 
		 "basiset": "6-31G**", 
		 "properties": { 
			 "R2extent": 6574.3206, 
			 "electric_dipole_moment_norm": 6.50690695876, 
			 "electric_quadrupole_moment_norm": 29.9793911439, 
			 "total_energy": -897.218304105, 
			 "HOMO_LUMO_gap": 0.23495, 
			 "cosmo_polarized_energy": -22.43, 
			 "cosmo_cavitation_energy": 37.39, 
			 "cosmo_dispersion_energy": -26.12, 
			 "cosmo_repulsion_energy": 2.07, 
			 "cosmo_total_nonelectrostatic_energy": 13.34, 
			 "SMD_solvation_energy": 8.28 
		},
		"coords": [
			{
				"x": 2.6977184276,
				"y": 2.7397925017,
				"z": -2.913390553,
				"element": "C" 
			},
			{
				"x": 2.2481716924,
				"y": 1.7982180033,
				"z": -1.8003533928,
				"element": "C" 
			},
			{
				"x": 3.2840866789,
				"y": 1.617744107,
				"z": -0.8061064172,
				"element": "O" 
			},
			{
				"x": 1.0156019065,
				"y": 2.3029183951,
				"z": -1.0285156787,
				"element": "C" 
			},
			{
				"x": 0.6174310656,
				"y": 1.3516963146,
				"z": -0.0063530256,
				"element": "N" 
			},
			{
				"x": -0.5498189944,
				"y": 0.6446000595,
				"z": -0.0951871698,
				"element": "C" 
			},
			{
				"x": -1.3741630109,
				"y": 0.7615672888,
				"z": -0.9863842541,
				"element": "O" 
			},
			{
				"x": -0.6485564926,
				"y": -0.1992164228,
				"z": 0.9624758609,
				"element": "O" 
			},
			{
				"x": -1.8286850037,
				"y": -1.045871254,
				"z": 0.993079297,
				"element": "C" 
			},
			{
				"x": -1.5860637682,
				"y": -2.3760263999,
				"z": 0.3225481272,
				"element": "C" 
			},
			{
				"x": -1.7603061711,
				"y": -2.5183216304,
				"z": -1.061723385,
				"element": "C" 
			},
			{
				"x": -1.5258034793,
				"y": -3.7472534917,
				"z": -1.6787060816,
				"element": "C" 
			},
			{
				"x": -1.1161843621,
				"y": -4.8472465715,
				"z": -0.9210866349,
				"element": "C" 
			},
			{
				"x": -0.9407057116,
				"y": -4.7141302366,
				"z": 0.4574551557,
				"element": "C" 
			},
			{
				"x": -1.174706146,
				"y": -3.4839305157,
				"z": 1.0735714095,
				"element": "C" 
			},
			{
				"x": 1.2021449878,
				"y": 3.7037786736,
				"z": -0.3917644585,
				"element": "C" 
			},
			{
				"x": 2.3772033375,
				"y": 3.9083643246,
				"z": 0.2417680016,
				"element": "O" 
			},
			{
				"x": 0.3436737918,
				"y": 4.549294999,
				"z": -0.4247991874,
				"element": "O" 
			},
			{
				"x": 2.9708659008,
				"y": 3.7215742471,
				"z": -2.5154574172,
				"element": "H" 
			},
			{
				"x": 1.8994573511,
				"y": 2.8736015954,
				"z": -3.6497381394,
				"element": "H" 
			},
			{
				"x": 3.5664380236,
				"y": 2.3281600463,
				"z": -3.4396264677,
				"element": "H" 
			},
			{
				"x": 1.9885022133,
				"y": 0.816242477,
				"z": -2.2176028226,
				"element": "H" 
			},
			{
				"x": 4.110716493,
				"y": 1.3842231507,
				"z": -1.2475435122,
				"element": "H" 
			},
			{
				"x": 0.1721463415,
				"y": 2.3864712623,
				"z": -1.715142478,
				"element": "H" 
			},
			{
				"x": 1.2695895594,
				"y": 1.1009030223,
				"z": 0.7219062123,
				"element": "H" 
			},
			{
				"x": -2.6513979684,
				"y": -0.506236713,
				"z": 0.520792538,
				"element": "H" 
			},
			{
				"x": -2.0379285498,
				"y": -1.1767127594,
				"z": 2.0569093139,
				"element": "H" 
			},
			{
				"x": -2.0710342451,
				"y": -1.6569544078,
				"z": -1.6449904036,
				"element": "H" 
			},
			{
				"x": -1.6676367451,
				"y": -3.8483774026,
				"z": -2.7511078626,
				"element": "H" 
			},
			{
				"x": -0.9384750116,
				"y": -5.8048302286,
				"z": -1.4025092729,
				"element": "H" 
			},
			{
				"x": -0.6259020066,
				"y": -5.5669331607,
				"z": 1.0522518404,
				"element": "H" 
			},
			{
				"x": -1.0408488867,
				"y": -3.3824903897,
				"z": 2.1479941034,
				"element": "H" 
			},
			{
				"x": 2.9659687824,
				"y": 3.1405811161,
				"z": 0.0811367549,
				"element": "H" 
			}
		],
		 "valence_orbital": [ 
			{
				"type": "occ",
				"energy": -0.28466,
				"method": "rhf"
			},
			{
				"type": "occ",
				"energy": -0.27914,
				"method": "rhf"
			},
			{
				"type": "occ",
				"energy": -0.25256,
				"method": "rhf"
			},
			{
				"type": "occ",
				"energy": -0.25059,
				"method": "rhf"
			},
			{
				"type": "occ",
				"energy": -0.24706,
				"method": "rhf"
			},
			{
				"type": "unocc",
				"energy": -0.01211,
				"method": "rhf"
			},
			{
				"type": "unocc",
				"energy": -0.00353,
				"method": "rhf"
			},
			{
				"type": "unocc",
				"energy": 0.00864,
				"method": "rhf"
			},
			{
				"type": "unocc",
				"energy": 0.03538,
				"method": "rhf"
			},
			{
				"type": "unocc",
				"energy": 0.05215,
				"method": "rhf"
			}
		],
		"cosmo_sigma_profile": { 
			"-0.025": 0.0,
			"-0.024": 0.0,
			"-0.023": 0.0,
			"-0.022": 0.0,
			"-0.021": 0.0,
			"-0.02": 0.0,
			"-0.019": 0.0,
			"-0.018": 0.0286736970633,
			"-0.017": 1.24134928065,
			"-0.016": 0.778741931052,
			"-0.015": 0.767667445268,
			"-0.014": 1.77279108225,
			"-0.013": 1.74135701847,
			"-0.012": 2.06548798824,
			"-0.011": 1.92940076254,
			"-0.01": 2.08850401431,
			"-0.009": 2.56524647603,
			"-0.008": 2.62395948912,
			"-0.007": 5.05412601499,
			"-0.006": 17.3948536163,
			"-0.005": 25.1316427921,
			"-0.004": 25.4892223353,
			"-0.003": 24.8374845877,
			"-0.002": 19.972029679,
			"-0.001": 18.6809674037,
			"0.0": 17.0979031186,
			"0.001": 14.0973783664,
			"0.002": 13.9660228657,
			"0.003": 14.0741257158,
			"0.004": 13.6326942201,
			"0.005": 17.2956317854,
			"0.006": 10.5831928076,
			"0.007": 4.2788044426,
			"0.008": 5.9562833836,
			"0.009": 4.43774590046,
			"0.01": 5.71655996604,
			"0.011": 8.04116443839,
			"0.012": 8.70051395033,
			"0.013": 3.35315982948,
			"0.014": 0.0146255883851,
			"0.015": 0.0,
			"0.016": 0.0,
			"0.017": 0.0,
			"0.018": 0.0,
			"0.019": 0.0,
			"0.02": 0.0,
			"0.021": 0.0,
			"0.022": 0.0,
			"0.023": 0.0,
			"0.024": 0.0,
			"0.025": 0.0
		}
	}
}
