{
	 "smiles": "OCN1CCCCCC1=O", 
	 "Tm": 338.15, 
	 "num_atms": 23, 
	 "gaussian": { 
		 "optdone": 1, 
		 "sigma_profile": "yes", 
		 "theory": "DFT", 
		 "functional": "B3LYP", 
		 "basiset": "6-31G**", 
		 "properties": { 
			 "R2extent": 1774.7735, 
			 "electric_dipole_moment_norm": 3.62795997911, 
			 "electric_quadrupole_moment_norm": 8.76677818015, 
			 "total_energy": -479.794794729, 
			 "HOMO_LUMO_gap": 0.25999, 
			 "cosmo_polarized_energy": -10.15, 
			 "cosmo_cavitation_energy": 23.76, 
			 "cosmo_dispersion_energy": -17.81, 
			 "cosmo_repulsion_energy": 1.44, 
			 "cosmo_total_nonelectrostatic_energy": 7.39, 
			 "SMD_solvation_energy": 3.35 
		},
		"coords": [
			{
				"x": 0.8624628179,
				"y": -2.0353052219,
				"z": -2.7668796901,
				"element": "O" 
			},
			{
				"x": 1.8511171487,
				"y": -1.2303420376,
				"z": -2.1793205819,
				"element": "C" 
			},
			{
				"x": 1.4517191651,
				"y": -0.6659595694,
				"z": -0.8824881558,
				"element": "N" 
			},
			{
				"x": 0.9823579918,
				"y": 0.7214071895,
				"z": -0.7935858133,
				"element": "C" 
			},
			{
				"x": -0.5409088678,
				"y": 0.8781091885,
				"z": -0.6398531858,
				"element": "C" 
			},
			{
				"x": -1.0515163222,
				"y": 0.6710434295,
				"z": 0.7941207549,
				"element": "C" 
			},
			{
				"x": -0.7797628067,
				"y": -0.713185764,
				"z": 1.4008934348,
				"element": "C" 
			},
			{
				"x": 0.7125105462,
				"y": -1.1115779758,
				"z": 1.4486487682,
				"element": "C" 
			},
			{
				"x": 1.2317274019,
				"y": -1.5943028055,
				"z": 0.1024845185,
				"element": "C" 
			},
			{
				"x": 1.4195161712,
				"y": -2.7960493222,
				"z": -0.112400202,
				"element": "O" 
			},
			{
				"x": 0.8122172855,
				"y": -2.8126029841,
				"z": -2.1866537377,
				"element": "H" 
			},
			{
				"x": 2.7779330519,
				"y": -1.7935767034,
				"z": -2.019344556,
				"element": "H" 
			},
			{
				"x": 2.0458790569,
				"y": -0.4013424756,
				"z": -2.862537687,
				"element": "H" 
			},
			{
				"x": 1.3090447981,
				"y": 1.216336942,
				"z": -1.7113797073,
				"element": "H" 
			},
			{
				"x": 1.4959206471,
				"y": 1.234858235,
				"z": 0.0305618276,
				"element": "H" 
			},
			{
				"x": -0.8132020054,
				"y": 1.8916218127,
				"z": -0.9605497739,
				"element": "H" 
			},
			{
				"x": -1.0301938383,
				"y": 0.1835305634,
				"z": -1.3336138586,
				"element": "H" 
			},
			{
				"x": -0.5912440894,
				"y": 1.4334419859,
				"z": 1.439610807,
				"element": "H" 
			},
			{
				"x": -2.1309999715,
				"y": 0.8632555264,
				"z": 0.8200645597,
				"element": "H" 
			},
			{
				"x": -1.1716721407,
				"y": -0.7268588503,
				"z": 2.4244941388,
				"element": "H" 
			},
			{
				"x": -1.333623351,
				"y": -1.484081838,
				"z": 0.8499634984,
				"element": "H" 
			},
			{
				"x": 0.8517381542,
				"y": -1.9536507391,
				"z": 2.1296552288,
				"element": "H" 
			},
			{
				"x": 1.3118791565,
				"y": -0.2722685859,
				"z": 1.8243094128,
				"element": "H" 
			}
		],
		 "valence_orbital": [ 
			{
				"type": "occ",
				"energy": -0.33081,
				"method": "rhf"
			},
			{
				"type": "occ",
				"energy": -0.32323,
				"method": "rhf"
			},
			{
				"type": "occ",
				"energy": -0.27692,
				"method": "rhf"
			},
			{
				"type": "occ",
				"energy": -0.2471,
				"method": "rhf"
			},
			{
				"type": "occ",
				"energy": -0.24553,
				"method": "rhf"
			},
			{
				"type": "unocc",
				"energy": 0.01446,
				"method": "rhf"
			},
			{
				"type": "unocc",
				"energy": 0.07577,
				"method": "rhf"
			},
			{
				"type": "unocc",
				"energy": 0.09673,
				"method": "rhf"
			},
			{
				"type": "unocc",
				"energy": 0.10258,
				"method": "rhf"
			},
			{
				"type": "unocc",
				"energy": 0.11804,
				"method": "rhf"
			}
		],
		"cosmo_sigma_profile": { 
			"-0.025": 0.0,
			"-0.024": 0.0,
			"-0.023": 0.0,
			"-0.022": 0.0,
			"-0.021": 0.0,
			"-0.02": 0.0,
			"-0.019": 0.0,
			"-0.018": 0.0,
			"-0.017": 0.0,
			"-0.016": 0.0,
			"-0.015": 0.0,
			"-0.014": 0.0,
			"-0.013": 0.0,
			"-0.012": 0.0,
			"-0.011": 0.194160495577,
			"-0.01": 0.403995719106,
			"-0.009": 0.519185584097,
			"-0.008": 1.37211937317,
			"-0.007": 3.02458624163,
			"-0.006": 5.11755874695,
			"-0.005": 9.5502773582,
			"-0.004": 14.9857759012,
			"-0.003": 26.87812346,
			"-0.002": 29.1289130111,
			"-0.001": 26.598281707,
			"0.0": 16.7704205049,
			"0.001": 8.01198586616,
			"0.002": 4.48478585739,
			"0.003": 4.15235146441,
			"0.004": 2.5440965822,
			"0.005": 2.01178931274,
			"0.006": 3.1206803794,
			"0.007": 2.60285550518,
			"0.008": 2.88709206075,
			"0.009": 1.59357070927,
			"0.01": 2.20937245226,
			"0.011": 2.78233967255,
			"0.012": 3.06742964106,
			"0.013": 4.46696870821,
			"0.014": 3.97730762296,
			"0.015": 1.27959236161,
			"0.016": 0.0201833969951,
			"0.017": 0.0,
			"0.018": 0.0,
			"0.019": 0.0,
			"0.02": 0.0,
			"0.021": 0.0,
			"0.022": 0.0,
			"0.023": 0.0,
			"0.024": 0.0,
			"0.025": 0.0
		}
	}
}
