{
	 "smiles": "CC1=CC=C(C=C1)S(=O)(=O)CC(=O)C1=CC=CC=C1", 
	 "Tm": 383.15, 
	 "num_atms": 33, 
	 "gaussian": { 
		 "optdone": 1, 
		 "sigma_profile": "yes", 
		 "theory": "DFT", 
		 "functional": "B3LYP", 
		 "basiset": "6-31G**", 
		 "properties": { 
			 "R2extent": 6822.7473, 
			 "electric_dipole_moment_norm": 3.12360642367, 
			 "electric_quadrupole_moment_norm": 28.5413207273, 
			 "total_energy": -1203.83270409, 
			 "HOMO_LUMO_gap": 0.18823, 
			 "cosmo_polarized_energy": -16.79, 
			 "cosmo_cavitation_energy": 38.45, 
			 "cosmo_dispersion_energy": -27.11, 
			 "cosmo_repulsion_energy": 2.04, 
			 "cosmo_total_nonelectrostatic_energy": 13.38, 
			 "SMD_solvation_energy": 6.22 
		},
		"coords": [
			{
				"x": -2.9167412512,
				"y": 0.2660920567,
				"z": -5.7245927149,
				"element": "C" 
			},
			{
				"x": -2.0010917413,
				"y": -0.1912951808,
				"z": -4.6152876178,
				"element": "C" 
			},
			{
				"x": -2.4101192306,
				"y": -0.1244964884,
				"z": -3.2754747723,
				"element": "C" 
			},
			{
				"x": -1.561263221,
				"y": -0.5142180702,
				"z": -2.2422696768,
				"element": "C" 
			},
			{
				"x": -0.2838073982,
				"y": -0.9791995584,
				"z": -2.557643859,
				"element": "C" 
			},
			{
				"x": 0.1472100646,
				"y": -1.0713565684,
				"z": -3.8822168353,
				"element": "C" 
			},
			{
				"x": -0.7160723924,
				"y": -0.6760088908,
				"z": -4.9011274368,
				"element": "C" 
			},
			{
				"x": 0.8176244849,
				"y": -1.49673001,
				"z": -1.2429590642,
				"element": "S" 
			},
			{
				"x": 1.7932156805,
				"y": -2.4456747508,
				"z": -1.8020775494,
				"element": "O" 
			},
			{
				"x": 0.0030907916,
				"y": -1.8508658059,
				"z": -0.0681359397,
				"element": "O" 
			},
			{
				"x": 1.7875094346,
				"y": 0.0042128916,
				"z": -0.8098187492,
				"element": "C" 
			},
			{
				"x": 0.9658971642,
				"y": 1.1821251555,
				"z": -0.2860872181,
				"element": "C" 
			},
			{
				"x": 0.5515875329,
				"y": 2.002326933,
				"z": -1.0928598032,
				"element": "O" 
			},
			{
				"x": 0.7201986,
				"y": 1.329762044,
				"z": 1.1766693247,
				"element": "C" 
			},
			{
				"x": 0.190946841,
				"y": 2.5532621076,
				"z": 1.623827496,
				"element": "C" 
			},
			{
				"x": -0.0523273635,
				"y": 2.7622893472,
				"z": 2.9765782609,
				"element": "C" 
			},
			{
				"x": 0.2186808272,
				"y": 1.7462727036,
				"z": 3.8992849091,
				"element": "C" 
			},
			{
				"x": 0.7301615437,
				"y": 0.5229374124,
				"z": 3.4628916617,
				"element": "C" 
			},
			{
				"x": 0.9860363355,
				"y": 0.3133536126,
				"z": 2.1081600345,
				"element": "C" 
			},
			{
				"x": -2.7227810895,
				"y": -0.276743552,
				"z": -6.6541232692,
				"element": "H" 
			},
			{
				"x": -2.7718149348,
				"y": 1.3334037654,
				"z": -5.9330474057,
				"element": "H" 
			},
			{
				"x": -3.9685617982,
				"y": 0.1261802184,
				"z": -5.4593632352,
				"element": "H" 
			},
			{
				"x": -3.4082466651,
				"y": 0.2334531932,
				"z": -3.03816215,
				"element": "H" 
			},
			{
				"x": -1.8856018269,
				"y": -0.4789926624,
				"z": -1.2081361875,
				"element": "H" 
			},
			{
				"x": 1.131747509,
				"y": -1.4685952971,
				"z": -4.1050268988,
				"element": "H" 
			},
			{
				"x": -0.3909140898,
				"y": -0.7523917243,
				"z": -5.9352288357,
				"element": "H" 
			},
			{
				"x": 2.5289400499,
				"y": -0.3694633614,
				"z": -0.0999702535,
				"element": "H" 
			},
			{
				"x": 2.2832843351,
				"y": 0.3139479682,
				"z": -1.7310603046,
				"element": "H" 
			},
			{
				"x": -0.0157857033,
				"y": 3.3233656729,
				"z": 0.8883421463,
				"element": "H" 
			},
			{
				"x": -0.4531905632,
				"y": 3.712979845,
				"z": 3.3156573161,
				"element": "H" 
			},
			{
				"x": 0.0275255302,
				"y": 1.9079189091,
				"z": 4.9564115505,
				"element": "H" 
			},
			{
				"x": 0.9270677218,
				"y": -0.2713505649,
				"z": 4.176446244,
				"element": "H" 
			},
			{
				"x": 1.3482948223,
				"y": -0.6535013506,
				"z": 1.7792008327,
				"element": "H" 
			}
		],
		 "valence_orbital": [ 
			{
				"type": "occ",
				"energy": -0.26779,
				"method": "rhf"
			},
			{
				"type": "occ",
				"energy": -0.26569,
				"method": "rhf"
			},
			{
				"type": "occ",
				"energy": -0.26273,
				"method": "rhf"
			},
			{
				"type": "occ",
				"energy": -0.26054,
				"method": "rhf"
			},
			{
				"type": "occ",
				"energy": -0.25936,
				"method": "rhf"
			},
			{
				"type": "unocc",
				"energy": -0.07113,
				"method": "rhf"
			},
			{
				"type": "unocc",
				"energy": -0.0369,
				"method": "rhf"
			},
			{
				"type": "unocc",
				"energy": -0.0186,
				"method": "rhf"
			},
			{
				"type": "unocc",
				"energy": -0.01166,
				"method": "rhf"
			},
			{
				"type": "unocc",
				"energy": 0.01951,
				"method": "rhf"
			}
		],
		"cosmo_sigma_profile": { 
			"-0.025": 0.0,
			"-0.024": 0.0,
			"-0.023": 0.0,
			"-0.022": 0.0,
			"-0.021": 0.0,
			"-0.02": 0.0,
			"-0.019": 0.0,
			"-0.018": 0.0,
			"-0.017": 0.0,
			"-0.016": 0.0,
			"-0.015": 0.0,
			"-0.014": 0.0,
			"-0.013": 0.0,
			"-0.012": 0.0,
			"-0.011": 0.352243263242,
			"-0.01": 2.02416242888,
			"-0.009": 3.41267076592,
			"-0.008": 4.638879957,
			"-0.007": 9.98334377624,
			"-0.006": 22.6184384982,
			"-0.005": 27.4518442043,
			"-0.004": 24.0349795798,
			"-0.003": 18.039356753,
			"-0.002": 21.4090219733,
			"-0.001": 23.2644944601,
			"0.0": 19.0217094902,
			"0.001": 17.6300527623,
			"0.002": 21.3836584699,
			"0.003": 25.0548836692,
			"0.004": 15.2446125016,
			"0.005": 6.42499382933,
			"0.006": 5.2513945015,
			"0.007": 4.44462353326,
			"0.008": 5.46681241743,
			"0.009": 6.08926263604,
			"0.01": 7.59051290539,
			"0.011": 11.7799444183,
			"0.012": 4.6613243935,
			"0.013": 0.0,
			"0.014": 0.0,
			"0.015": 0.0,
			"0.016": 0.0,
			"0.017": 0.0,
			"0.018": 0.0,
			"0.019": 0.0,
			"0.02": 0.0,
			"0.021": 0.0,
			"0.022": 0.0,
			"0.023": 0.0,
			"0.024": 0.0,
			"0.025": 0.0
		}
	}
}
