{
	 "smiles": "CC1=CC2=C(C=C1C)N=CN2", 
	 "Tm": 478.15, 
	 "num_atms": 21, 
	 "gaussian": { 
		 "optdone": 1, 
		 "sigma_profile": "yes", 
		 "theory": "DFT", 
		 "functional": "B3LYP", 
		 "basiset": "6-31G**", 
		 "properties": { 
			 "R2extent": 2506.2032, 
			 "electric_dipole_moment_norm": 3.32757721623, 
			 "electric_quadrupole_moment_norm": 20.2926013909, 
			 "total_energy": -458.507102117, 
			 "HOMO_LUMO_gap": 0.20591, 
			 "cosmo_polarized_energy": -12.61, 
			 "cosmo_cavitation_energy": 24.16, 
			 "cosmo_dispersion_energy": -18.05, 
			 "cosmo_repulsion_energy": 1.43, 
			 "cosmo_total_nonelectrostatic_energy": 7.54, 
			 "SMD_solvation_energy": 2.35 
		},
		"coords": [
			{
				"x": 1.2583330691,
				"y": 0.8235546089,
				"z": -1.4880100848,
				"element": "C" 
			},
			{
				"x": -0.0480338342,
				"y": 0.8448017359,
				"z": -0.7281825526,
				"element": "C" 
			},
			{
				"x": -0.0481231043,
				"y": 1.187890031,
				"z": 0.6241832228,
				"element": "C" 
			},
			{
				"x": -1.2690701743,
				"y": 1.1989965206,
				"z": 1.2997078876,
				"element": "C" 
			},
			{
				"x": -2.4858473649,
				"y": 0.8769620454,
				"z": 0.6599480954,
				"element": "C" 
			},
			{
				"x": -2.4752781873,
				"y": 0.5339289768,
				"z": -0.6976377189,
				"element": "C" 
			},
			{
				"x": -1.2680187933,
				"y": 0.5161047774,
				"z": -1.3925414656,
				"element": "C" 
			},
			{
				"x": -1.2540282173,
				"y": 0.1460168496,
				"z": -2.858700386,
				"element": "C" 
			},
			{
				"x": -3.5471908976,
				"y": 0.9644035787,
				"z": 1.5540709324,
				"element": "N" 
			},
			{
				"x": -2.9957941965,
				"y": 1.323478946,
				"z": 2.6843894834,
				"element": "C" 
			},
			{
				"x": -1.6292951067,
				"y": 1.4833278509,
				"z": 2.6071684323,
				"element": "N" 
			},
			{
				"x": 1.2488653738,
				"y": 1.5222433162,
				"z": -2.3335554115,
				"element": "H" 
			},
			{
				"x": 2.095525598,
				"y": 1.0977325857,
				"z": -0.8403195889,
				"element": "H" 
			},
			{
				"x": 1.4708317843,
				"y": -0.1686320952,
				"z": -1.9046734154,
				"element": "H" 
			},
			{
				"x": 0.8830731026,
				"y": 1.437415504,
				"z": 1.125922329,
				"element": "H" 
			},
			{
				"x": -3.4067236908,
				"y": 0.2848503883,
				"z": -1.1974450488,
				"element": "H" 
			},
			{
				"x": -0.6311781438,
				"y": -0.7360952195,
				"z": -3.0523817601,
				"element": "H" 
			},
			{
				"x": -2.2635008315,
				"y": -0.0767728861,
				"z": -3.213890497,
				"element": "H" 
			},
			{
				"x": -0.8535289972,
				"y": 0.9555319852,
				"z": -3.4814895125,
				"element": "H" 
			},
			{
				"x": -3.5282799578,
				"y": 1.4889599667,
				"z": 3.6124737825,
				"element": "H" 
			},
			{
				"x": -1.0154374303,
				"y": 1.7546005334,
				"z": 3.3588632765,
				"element": "H" 
			}
		],
		 "valence_orbital": [ 
			{
				"type": "occ",
				"energy": -0.31887,
				"method": "rhf"
			},
			{
				"type": "occ",
				"energy": -0.29734,
				"method": "rhf"
			},
			{
				"type": "occ",
				"energy": -0.26459,
				"method": "rhf"
			},
			{
				"type": "occ",
				"energy": -0.21725,
				"method": "rhf"
			},
			{
				"type": "occ",
				"energy": -0.21307,
				"method": "rhf"
			},
			{
				"type": "unocc",
				"energy": -0.00716,
				"method": "rhf"
			},
			{
				"type": "unocc",
				"energy": 0.02664,
				"method": "rhf"
			},
			{
				"type": "unocc",
				"energy": 0.06026,
				"method": "rhf"
			},
			{
				"type": "unocc",
				"energy": 0.07788,
				"method": "rhf"
			},
			{
				"type": "unocc",
				"energy": 0.09788,
				"method": "rhf"
			}
		],
		"cosmo_sigma_profile": { 
			"-0.025": 0.0,
			"-0.024": 0.0,
			"-0.023": 0.0,
			"-0.022": 0.0,
			"-0.021": 0.0,
			"-0.02": 0.0,
			"-0.019": 0.0,
			"-0.018": 0.0,
			"-0.017": 0.103582738457,
			"-0.016": 1.66995109932,
			"-0.015": 1.65733954986,
			"-0.014": 0.929617184129,
			"-0.013": 1.61308471847,
			"-0.012": 1.36034896312,
			"-0.011": 1.46217951761,
			"-0.01": 1.13145395928,
			"-0.009": 3.55125391675,
			"-0.008": 2.85585973523,
			"-0.007": 2.5023909679,
			"-0.006": 4.27471758428,
			"-0.005": 6.1447034536,
			"-0.004": 11.5207037418,
			"-0.003": 17.9714871665,
			"-0.002": 15.2525847159,
			"-0.001": 15.5115966398,
			"0.0": 19.6407129836,
			"0.001": 14.4314901359,
			"0.002": 12.2628159081,
			"0.003": 10.5338781707,
			"0.004": 8.15582302083,
			"0.005": 10.7133400182,
			"0.006": 10.4177564119,
			"0.007": 2.77504387601,
			"0.008": 1.62485730115,
			"0.009": 1.66641608133,
			"0.01": 1.11851437495,
			"0.011": 1.41264707361,
			"0.012": 1.2546112339,
			"0.013": 0.896251256911,
			"0.014": 0.978069253931,
			"0.015": 1.26847237259,
			"0.016": 1.05897291748,
			"0.017": 1.20566474417,
			"0.018": 0.65278295186,
			"0.019": 0.0201269918857,
			"0.02": 0.0,
			"0.021": 0.0,
			"0.022": 0.0,
			"0.023": 0.0,
			"0.024": 0.0,
			"0.025": 0.0
		}
	}
}
