{
	 "smiles": "[O-][N+](=O)C1=CC(=C(C=C1)C(Br)C(Br)C1=CC=C(C=C1)C(Br)C(Br)C1=CC=C(C=C1[N+]([O-])=O)[N+]([O-])=O)[N+]([O-])=O", 
	 "Tm": 538.15, 
	 "num_atms": 52, 
	 "gaussian": { 
		 "optdone": 1, 
		 "sigma_profile": "yes", 
		 "theory": "DFT", 
		 "functional": "B3LYP", 
		 "basiset": "6-31G**", 
		 "properties": { 
			 "R2extent": 26666.133, 
			 "electric_dipole_moment_norm": 4.40447280046, 
			 "electric_quadrupole_moment_norm": 36.9666696792, 
			 "total_energy": -11952.7497542, 
			 "HOMO_LUMO_gap": 0.13943, 
			 "cosmo_polarized_energy": -32.09, 
			 "cosmo_cavitation_energy": 63.88, 
			 "cosmo_dispersion_energy": -40.23, 
			 "cosmo_repulsion_energy": 2.89, 
			 "cosmo_total_nonelectrostatic_energy": 26.53, 
			 "SMD_solvation_energy": 12.95 
		},
		"coords": [
			{
				"x": -3.5710820943,
				"y": 2.2391900234,
				"z": 1.4710290736,
				"element": "O" 
			},
			{
				"x": -4.0697612726,
				"y": 1.3757407035,
				"z": 0.7525641185,
				"element": "N" 
			},
			{
				"x": -5.1521607729,
				"y": 0.8287126699,
				"z": 0.9449145739,
				"element": "O" 
			},
			{
				"x": -3.3054914452,
				"y": 0.9540389615,
				"z": -0.4343065087,
				"element": "C" 
			},
			{
				"x": -2.1910110614,
				"y": 1.6835457224,
				"z": -0.8188800623,
				"element": "C" 
			},
			{
				"x": -1.4510819766,
				"y": 1.2471890547,
				"z": -1.9171488907,
				"element": "C" 
			},
			{
				"x": -1.7817940304,
				"y": 0.0743550547,
				"z": -2.6324102848,
				"element": "C" 
			},
			{
				"x": -2.9438027707,
				"y": -0.598177211,
				"z": -2.2099982586,
				"element": "C" 
			},
			{
				"x": -3.7134493049,
				"y": -0.1752608723,
				"z": -1.1343531656,
				"element": "C" 
			},
			{
				"x": -1.0354722781,
				"y": -0.6111744607,
				"z": -3.7662733998,
				"element": "C" 
			},
			{
				"x": -1.5450845851,
				"y": 0.2423522148,
				"z": -5.4941390422,
				"element": "Br" 
			},
			{
				"x": 0.4941937516,
				"y": -0.7963414206,
				"z": -3.6760485996,
				"element": "C" 
			},
			{
				"x": 0.9789427206,
				"y": -2.3388669067,
				"z": -4.881596111,
				"element": "Br" 
			},
			{
				"x": 1.0417420287,
				"y": -1.0647635029,
				"z": -2.2989524561,
				"element": "C" 
			},
			{
				"x": 2.2809173854,
				"y": -0.5169705377,
				"z": -1.9375801629,
				"element": "C" 
			},
			{
				"x": 2.8179336356,
				"y": -0.740955247,
				"z": -0.6728846509,
				"element": "C" 
			},
			{
				"x": 2.1192746213,
				"y": -1.4911215323,
				"z": 0.2879464567,
				"element": "C" 
			},
			{
				"x": 0.8863821295,
				"y": -2.0417945247,
				"z": -0.0771047878,
				"element": "C" 
			},
			{
				"x": 0.3678930529,
				"y": -1.8480945758,
				"z": -1.3549949192,
				"element": "C" 
			},
			{
				"x": 2.7504862458,
				"y": -1.67202537,
				"z": 1.6661620422,
				"element": "C" 
			},
			{
				"x": 1.8207294207,
				"y": -3.0223900347,
				"z": 2.7722739121,
				"element": "Br" 
			},
			{
				"x": 3.0479527222,
				"y": -0.3034410864,
				"z": 2.3548929548,
				"element": "C" 
			},
			{
				"x": 3.6266358151,
				"y": -0.4836521955,
				"z": 4.247890271,
				"element": "Br" 
			},
			{
				"x": 2.1333753922,
				"y": 0.8983664174,
				"z": 2.1825955777,
				"element": "C" 
			},
			{
				"x": 2.7756069798,
				"y": 2.0743270066,
				"z": 1.7517258206,
				"element": "C" 
			},
			{
				"x": 2.0932416208,
				"y": 3.2548775886,
				"z": 1.4893445765,
				"element": "C" 
			},
			{
				"x": 0.7104703834,
				"y": 3.2593750135,
				"z": 1.6207512347,
				"element": "C" 
			},
			{
				"x": 0.0145757907,
				"y": 2.1328355003,
				"z": 2.037962604,
				"element": "C" 
			},
			{
				"x": 0.7383177171,
				"y": 0.9833857538,
				"z": 2.3434341059,
				"element": "C" 
			},
			{
				"x": -0.0727609789,
				"y": -0.1247148541,
				"z": 2.8804924897,
				"element": "N" 
			},
			{
				"x": 0.2706947582,
				"y": -0.5893523371,
				"z": 3.9588353381,
				"element": "O" 
			},
			{
				"x": -1.0581078297,
				"y": -0.4637551641,
				"z": 2.2251558454,
				"element": "O" 
			},
			{
				"x": -0.034187484,
				"y": 4.4847976897,
				"z": 1.2881561339,
				"element": "N" 
			},
			{
				"x": -1.258930623,
				"y": 4.4001082776,
				"z": 1.2091927947,
				"element": "O" 
			},
			{
				"x": 0.6178335666,
				"y": 5.5095869416,
				"z": 1.1132959803,
				"element": "O" 
			},
			{
				"x": -0.301670946,
				"y": 2.0992697806,
				"z": -2.2745811543,
				"element": "N" 
			},
			{
				"x": 0.1806948714,
				"y": 1.9723385249,
				"z": -3.3973470937,
				"element": "O" 
			},
			{
				"x": 0.0969237276,
				"y": 2.9046221905,
				"z": -1.4359627419,
				"element": "O" 
			},
			{
				"x": -1.9018798953,
				"y": 2.5787477818,
				"z": -0.282188772,
				"element": "H" 
			},
			{
				"x": -3.2431634644,
				"y": -1.4954646334,
				"z": -2.7421070118,
				"element": "H" 
			},
			{
				"x": -4.5992769981,
				"y": -0.713048578,
				"z": -0.8203587999,
				"element": "H" 
			},
			{
				"x": -1.4813476631,
				"y": -1.5979170158,
				"z": -3.8667394728,
				"element": "H" 
			},
			{
				"x": 1.011899986,
				"y": 0.0373074171,
				"z": -4.1347835207,
				"element": "H" 
			},
			{
				"x": 2.8338384885,
				"y": 0.0817597107,
				"z": -2.6556270975,
				"element": "H" 
			},
			{
				"x": 3.7920347278,
				"y": -0.3200394475,
				"z": -0.4390509154,
				"element": "H" 
			},
			{
				"x": 0.330397835,
				"y": -2.6343861306,
				"z": 0.6378540767,
				"element": "H" 
			},
			{
				"x": -0.576900778,
				"y": -2.3184589112,
				"z": -1.6062600479,
				"element": "H" 
			},
			{
				"x": 3.7271932742,
				"y": -2.1430559185,
				"z": 1.54794249,
				"element": "H" 
			},
			{
				"x": 3.9860430702,
				"y": 0.0029996976,
				"z": 1.8941698924,
				"element": "H" 
			},
			{
				"x": 3.8524455579,
				"y": 2.0573330743,
				"z": 1.6159181839,
				"element": "H" 
			},
			{
				"x": 2.6059022554,
				"y": 4.1508504247,
				"z": 1.1634957321,
				"element": "H" 
			},
			{
				"x": -1.0650552792,
				"y": 2.1501092726,
				"z": 2.132381649,
				"element": "H" 
			}
		],
		 "valence_orbital": [ 
			{
				"type": "occ",
				"energy": -0.28792,
				"method": "rhf"
			},
			{
				"type": "occ",
				"energy": -0.2853,
				"method": "rhf"
			},
			{
				"type": "occ",
				"energy": -0.28263,
				"method": "rhf"
			},
			{
				"type": "occ",
				"energy": -0.27826,
				"method": "rhf"
			},
			{
				"type": "occ",
				"energy": -0.26638,
				"method": "rhf"
			},
			{
				"type": "unocc",
				"energy": -0.12695,
				"method": "rhf"
			},
			{
				"type": "unocc",
				"energy": -0.11752,
				"method": "rhf"
			},
			{
				"type": "unocc",
				"energy": -0.1115,
				"method": "rhf"
			},
			{
				"type": "unocc",
				"energy": -0.09832,
				"method": "rhf"
			},
			{
				"type": "unocc",
				"energy": -0.07077,
				"method": "rhf"
			}
		],
		"cosmo_sigma_profile": { 
			"-0.025": 0.0,
			"-0.024": 0.0,
			"-0.023": 0.0,
			"-0.022": 0.0,
			"-0.021": 0.0,
			"-0.02": 0.0,
			"-0.019": 0.0,
			"-0.018": 0.0,
			"-0.017": 0.0,
			"-0.016": 0.0,
			"-0.015": 0.0,
			"-0.014": 0.0,
			"-0.013": 0.708364064067,
			"-0.012": 4.87206866095,
			"-0.011": 6.39882418922,
			"-0.01": 7.99302006722,
			"-0.009": 14.3828098552,
			"-0.008": 15.5631928361,
			"-0.007": 17.3598054414,
			"-0.006": 18.0341558788,
			"-0.005": 19.9080693997,
			"-0.004": 25.9453311179,
			"-0.003": 34.9388308514,
			"-0.002": 31.5617111853,
			"-0.001": 38.1122573607,
			"0.0": 34.0575204066,
			"0.001": 32.7169128883,
			"0.002": 31.8786030057,
			"0.003": 33.0375469978,
			"0.004": 35.6178568284,
			"0.005": 36.7402113762,
			"0.006": 27.9067769051,
			"0.007": 25.8003667704,
			"0.008": 20.1466144013,
			"0.009": 10.1845592187,
			"0.01": 0.558080064449,
			"0.011": 0.0,
			"0.012": 0.0,
			"0.013": 0.0,
			"0.014": 0.0,
			"0.015": 0.0,
			"0.016": 0.0,
			"0.017": 0.0,
			"0.018": 0.0,
			"0.019": 0.0,
			"0.02": 0.0,
			"0.021": 0.0,
			"0.022": 0.0,
			"0.023": 0.0,
			"0.024": 0.0,
			"0.025": 0.0
		}
	}
}
