{
	 "smiles": "CCCCS(=O)(=O)NCC(O)=O", 
	 "Tm": 339.15, 
	 "num_atms": 25, 
	 "gaussian": { 
		 "optdone": 1, 
		 "sigma_profile": "yes", 
		 "theory": "DFT", 
		 "functional": "B3LYP", 
		 "basiset": "6-31G**", 
		 "properties": { 
			 "R2extent": 3352.4494, 
			 "electric_dipole_moment_norm": 3.27638846293, 
			 "electric_quadrupole_moment_norm": 7.65136045681, 
			 "total_energy": -990.258719253, 
			 "HOMO_LUMO_gap": 0.2643, 
			 "cosmo_polarized_energy": -18.12, 
			 "cosmo_cavitation_energy": 29.11, 
			 "cosmo_dispersion_energy": -21.27, 
			 "cosmo_repulsion_energy": 1.69, 
			 "cosmo_total_nonelectrostatic_energy": 9.53, 
			 "SMD_solvation_energy": 5.18 
		},
		"coords": [
			{
				"x": 2.8972544276,
				"y": -1.7062940095,
				"z": -0.9505230584,
				"element": "C" 
			},
			{
				"x": 1.7097977119,
				"y": -2.2092331951,
				"z": -0.1213035701,
				"element": "C" 
			},
			{
				"x": 0.3140855696,
				"y": -1.9654306949,
				"z": -0.7276753203,
				"element": "C" 
			},
			{
				"x": -0.3249845792,
				"y": -0.5838358458,
				"z": -0.5166146124,
				"element": "C" 
			},
			{
				"x": 0.2361343562,
				"y": 0.7206844297,
				"z": -1.6492663758,
				"element": "S" 
			},
			{
				"x": 0.0880901253,
				"y": 0.2277018288,
				"z": -3.0243928573,
				"element": "O" 
			},
			{
				"x": 1.5056100313,
				"y": 1.287840226,
				"z": -1.1714423441,
				"element": "O" 
			},
			{
				"x": -0.9714932556,
				"y": 1.9049901233,
				"z": -1.452002406,
				"element": "N" 
			},
			{
				"x": -0.6453156678,
				"y": 3.1513439158,
				"z": -0.7620727022,
				"element": "C" 
			},
			{
				"x": -1.2192069484,
				"y": 3.2680280567,
				"z": 0.642081372,
				"element": "C" 
			},
			{
				"x": -1.2815254575,
				"y": 2.0824702732,
				"z": 1.2895671752,
				"element": "O" 
			},
			{
				"x": -1.5364690917,
				"y": 4.3174333833,
				"z": 1.1531151177,
				"element": "O" 
			},
			{
				"x": 2.8972943246,
				"y": -0.619032465,
				"z": -1.0486483929,
				"element": "H" 
			},
			{
				"x": 2.8782594538,
				"y": -2.1364069216,
				"z": -1.9584338063,
				"element": "H" 
			},
			{
				"x": 3.8415180769,
				"y": -2.0033333549,
				"z": -0.4818749853,
				"element": "H" 
			},
			{
				"x": 1.8159884219,
				"y": -3.2923686633,
				"z": 0.0187313399,
				"element": "H" 
			},
			{
				"x": 1.7460191651,
				"y": -1.7731234242,
				"z": 0.886266314,
				"element": "H" 
			},
			{
				"x": 0.3149688341,
				"y": -2.1980765171,
				"z": -1.7991545517,
				"element": "H" 
			},
			{
				"x": -0.3879996238,
				"y": -2.6711687112,
				"z": -0.2666451923,
				"element": "H" 
			},
			{
				"x": -0.1757070352,
				"y": -0.187316437,
				"z": 0.4908151044,
				"element": "H" 
			},
			{
				"x": -1.4003974259,
				"y": -0.6295178054,
				"z": -0.7058205866,
				"element": "H" 
			},
			{
				"x": -1.4286131614,
				"y": 2.027408389,
				"z": -2.3494355023,
				"element": "H" 
			},
			{
				"x": -1.0224579199,
				"y": 4.0036584782,
				"z": -1.3302755588,
				"element": "H" 
			},
			{
				"x": 0.4429799045,
				"y": 3.2690492377,
				"z": -0.6776388575,
				"element": "H" 
			},
			{
				"x": -1.6144302364,
				"y": 2.2813297032,
				"z": 2.1811442572,
				"element": "H" 
			}
		],
		 "valence_orbital": [ 
			{
				"type": "occ",
				"energy": -0.31778,
				"method": "rhf"
			},
			{
				"type": "occ",
				"energy": -0.30831,
				"method": "rhf"
			},
			{
				"type": "occ",
				"energy": -0.30315,
				"method": "rhf"
			},
			{
				"type": "occ",
				"energy": -0.30146,
				"method": "rhf"
			},
			{
				"type": "occ",
				"energy": -0.26952,
				"method": "rhf"
			},
			{
				"type": "unocc",
				"energy": -0.00522,
				"method": "rhf"
			},
			{
				"type": "unocc",
				"energy": 0.04954,
				"method": "rhf"
			},
			{
				"type": "unocc",
				"energy": 0.0512,
				"method": "rhf"
			},
			{
				"type": "unocc",
				"energy": 0.06631,
				"method": "rhf"
			},
			{
				"type": "unocc",
				"energy": 0.07746,
				"method": "rhf"
			}
		],
		"cosmo_sigma_profile": { 
			"-0.025": 0.0,
			"-0.024": 0.0,
			"-0.023": 0.0,
			"-0.022": 0.0,
			"-0.021": 0.0,
			"-0.02": 0.0,
			"-0.019": 0.249506611833,
			"-0.018": 0.747967738254,
			"-0.017": 0.934702213673,
			"-0.016": 1.42684026942,
			"-0.015": 1.48849603093,
			"-0.014": 1.15656705768,
			"-0.013": 2.10685976684,
			"-0.012": 2.16441206833,
			"-0.011": 2.20930795177,
			"-0.01": 1.79138128616,
			"-0.009": 2.71361933086,
			"-0.008": 4.23763660544,
			"-0.007": 7.45048167063,
			"-0.006": 7.79849671149,
			"-0.005": 10.3758948649,
			"-0.004": 13.1516620613,
			"-0.003": 17.2846445069,
			"-0.002": 20.8096498627,
			"-0.001": 19.2012091633,
			"0.0": 16.4810956451,
			"0.001": 15.9783471579,
			"0.002": 11.4374061357,
			"0.003": 6.10236268138,
			"0.004": 6.041167699,
			"0.005": 5.57491296766,
			"0.006": 5.01621872653,
			"0.007": 5.33815213587,
			"0.008": 5.2913619465,
			"0.009": 5.20819035208,
			"0.01": 9.36134905009,
			"0.011": 12.0282844004,
			"0.012": 6.1189974058,
			"0.013": 0.198902078681,
			"0.014": 0.0,
			"0.015": 0.0,
			"0.016": 0.0,
			"0.017": 0.0,
			"0.018": 0.0,
			"0.019": 0.0,
			"0.02": 0.0,
			"0.021": 0.0,
			"0.022": 0.0,
			"0.023": 0.0,
			"0.024": 0.0,
			"0.025": 0.0
		}
	}
}
