{
	 "smiles": "O=S(=O)(NCC1=CC=CC=C1)C1=CC=CS1", 
	 "Tm": 421.15, 
	 "num_atms": 27, 
	 "gaussian": { 
		 "optdone": 1, 
		 "sigma_profile": "yes", 
		 "theory": "DFT", 
		 "functional": "B3LYP", 
		 "basiset": "6-31G**", 
		 "properties": { 
			 "R2extent": 6000.4448, 
			 "electric_dipole_moment_norm": 4.53445301332, 
			 "electric_quadrupole_moment_norm": 21.2210866845, 
			 "total_energy": -1427.28166979, 
			 "HOMO_LUMO_gap": 0.20178, 
			 "cosmo_polarized_energy": -14.77, 
			 "cosmo_cavitation_energy": 34.54, 
			 "cosmo_dispersion_energy": -25.22, 
			 "cosmo_repulsion_energy": 1.89, 
			 "cosmo_total_nonelectrostatic_energy": 11.2, 
			 "SMD_solvation_energy": 4.55 
		},
		"coords": [
			{
				"x": -1.2400936045,
				"y": 0.9411394056,
				"z": 3.0788677193,
				"element": "O" 
			},
			{
				"x": -1.7532121997,
				"y": 0.8047264273,
				"z": 1.7108431793,
				"element": "S" 
			},
			{
				"x": -2.542476002,
				"y": 1.8581803125,
				"z": 1.0698677097,
				"element": "O" 
			},
			{
				"x": -0.4911474509,
				"y": 0.4952474748,
				"z": 0.6295405146,
				"element": "N" 
			},
			{
				"x": 0.7260956228,
				"y": -0.1501783184,
				"z": 1.1608325721,
				"element": "C" 
			},
			{
				"x": 1.7333472855,
				"y": -0.3504938995,
				"z": 0.0487865913,
				"element": "C" 
			},
			{
				"x": 1.3828089172,
				"y": -1.0467082941,
				"z": -1.1169558431,
				"element": "C" 
			},
			{
				"x": 2.3180497927,
				"y": -1.2416010097,
				"z": -2.131833701,
				"element": "C" 
			},
			{
				"x": 3.6173385702,
				"y": -0.744464439,
				"z": -1.995074569,
				"element": "C" 
			},
			{
				"x": 3.9737343887,
				"y": -0.049273698,
				"z": -0.8396912235,
				"element": "C" 
			},
			{
				"x": 3.0340230693,
				"y": 0.1489844896,
				"z": 0.1748024195,
				"element": "C" 
			},
			{
				"x": -2.6866611643,
				"y": -0.7001190813,
				"z": 1.6766801707,
				"element": "C" 
			},
			{
				"x": -3.6122143855,
				"y": -1.0574549813,
				"z": 0.7291988608,
				"element": "C" 
			},
			{
				"x": -4.1975140156,
				"y": -2.3249139161,
				"z": 1.0034271555,
				"element": "C" 
			},
			{
				"x": -3.7052816584,
				"y": -2.8956382767,
				"z": 2.1494614234,
				"element": "C" 
			},
			{
				"x": -2.5275205037,
				"y": -1.8986042264,
				"z": 2.9283664997,
				"element": "S" 
			},
			{
				"x": -0.3073201125,
				"y": 1.3604174317,
				"z": 0.1245124688,
				"element": "H" 
			},
			{
				"x": 1.1690337765,
				"y": 0.4256124695,
				"z": 1.981819428,
				"element": "H" 
			},
			{
				"x": 0.421342587,
				"y": -1.1191744429,
				"z": 1.5739745406,
				"element": "H" 
			},
			{
				"x": 0.3709845134,
				"y": -1.4269400865,
				"z": -1.2243730806,
				"element": "H" 
			},
			{
				"x": 2.0349071446,
				"y": -1.7829077539,
				"z": -3.0301534938,
				"element": "H" 
			},
			{
				"x": 4.3455381692,
				"y": -0.8974497555,
				"z": -2.7863651563,
				"element": "H" 
			},
			{
				"x": 4.9802090131,
				"y": 0.343430292,
				"z": -0.7272307101,
				"element": "H" 
			},
			{
				"x": 3.3135946279,
				"y": 0.6949111507,
				"z": 1.0724215825,
				"element": "H" 
			},
			{
				"x": -3.8619159598,
				"y": -0.4269518012,
				"z": -0.1154355305,
				"element": "H" 
			},
			{
				"x": -4.9549333248,
				"y": -2.7884188532,
				"z": 0.3821780482,
				"element": "H" 
			},
			{
				"x": -3.9781170965,
				"y": -3.8447566201,
				"z": 2.591032424,
				"element": "H" 
			}
		],
		 "valence_orbital": [ 
			{
				"type": "occ",
				"energy": -0.28413,
				"method": "rhf"
			},
			{
				"type": "occ",
				"energy": -0.27176,
				"method": "rhf"
			},
			{
				"type": "occ",
				"energy": -0.25773,
				"method": "rhf"
			},
			{
				"type": "occ",
				"energy": -0.25445,
				"method": "rhf"
			},
			{
				"type": "occ",
				"energy": -0.24965,
				"method": "rhf"
			},
			{
				"type": "unocc",
				"energy": -0.04787,
				"method": "rhf"
			},
			{
				"type": "unocc",
				"energy": -0.01442,
				"method": "rhf"
			},
			{
				"type": "unocc",
				"energy": -0.00815,
				"method": "rhf"
			},
			{
				"type": "unocc",
				"energy": 0.01376,
				"method": "rhf"
			},
			{
				"type": "unocc",
				"energy": 0.0355,
				"method": "rhf"
			}
		],
		"cosmo_sigma_profile": { 
			"-0.025": 0.0,
			"-0.024": 0.0,
			"-0.023": 0.0,
			"-0.022": 0.0,
			"-0.021": 0.0,
			"-0.02": 0.0,
			"-0.019": 0.0,
			"-0.018": 0.0,
			"-0.017": 0.0,
			"-0.016": 0.0,
			"-0.015": 0.18270564717,
			"-0.014": 0.840927657494,
			"-0.013": 0.954958165567,
			"-0.012": 1.05547844294,
			"-0.011": 0.881923956579,
			"-0.01": 1.9432570685,
			"-0.009": 3.58386038187,
			"-0.008": 5.04377171886,
			"-0.007": 6.67689640883,
			"-0.006": 14.1503814406,
			"-0.005": 22.3566904498,
			"-0.004": 21.9248462032,
			"-0.003": 19.4403797772,
			"-0.002": 17.4710358029,
			"-0.001": 15.2874297617,
			"0.0": 16.7713585814,
			"0.001": 21.0390363583,
			"0.002": 24.7401810175,
			"0.003": 19.4292374612,
			"0.004": 13.6688387757,
			"0.005": 13.3983485087,
			"0.006": 8.29108893974,
			"0.007": 3.84973410962,
			"0.008": 3.26686935791,
			"0.009": 3.75277310348,
			"0.01": 9.17237037017,
			"0.011": 7.84239250493,
			"0.012": 1.45463997207,
			"0.013": 0.0,
			"0.014": 0.0,
			"0.015": 0.0,
			"0.016": 0.0,
			"0.017": 0.0,
			"0.018": 0.0,
			"0.019": 0.0,
			"0.02": 0.0,
			"0.021": 0.0,
			"0.022": 0.0,
			"0.023": 0.0,
			"0.024": 0.0,
			"0.025": 0.0
		}
	}
}
