{
	 "smiles": "CC(=NC1=C(O)C=CC2=C1C=CC=C2)C1=C(O)C2=CC=CC=C2N(C2=CC=CC=C2)C1=O", 
	 "Tm": 492.15, 
	 "num_atms": 52, 
	 "gaussian": { 
		 "optdone": 1, 
		 "sigma_profile": "yes", 
		 "theory": "DFT", 
		 "functional": "B3LYP", 
		 "basiset": "6-31G**", 
		 "properties": { 
			 "R2extent": 17358.1778, 
			 "electric_dipole_moment_norm": 3.16681960964, 
			 "electric_quadrupole_moment_norm": 19.7914279268, 
			 "total_energy": -1376.14435539, 
			 "HOMO_LUMO_gap": 0.12972, 
			 "cosmo_polarized_energy": -16.59, 
			 "cosmo_cavitation_energy": 55.03, 
			 "cosmo_dispersion_energy": -38.08, 
			 "cosmo_repulsion_energy": 2.78, 
			 "cosmo_total_nonelectrostatic_energy": 19.72, 
			 "SMD_solvation_energy": 9.62 
		},
		"coords": [
			{
				"x": -0.3869228224,
				"y": -2.2766720858,
				"z": -1.0032525426,
				"element": "C" 
			},
			{
				"x": 0.6433909427,
				"y": -1.2238340735,
				"z": -0.6867692476,
				"element": "C" 
			},
			{
				"x": 1.6594790939,
				"y": -1.4660173958,
				"z": 0.1135429663,
				"element": "N" 
			},
			{
				"x": 1.9205667248,
				"y": -2.7189545477,
				"z": 0.723913176,
				"element": "C" 
			},
			{
				"x": 2.369590966,
				"y": -3.7933817018,
				"z": -0.0360169158,
				"element": "C" 
			},
			{
				"x": 2.5075617278,
				"y": -3.7271815144,
				"z": -1.3919522651,
				"element": "O" 
			},
			{
				"x": 2.7126244635,
				"y": -5.0220664438,
				"z": 0.5782089233,
				"element": "C" 
			},
			{
				"x": 2.6219328458,
				"y": -5.1649440901,
				"z": 1.9402139852,
				"element": "C" 
			},
			{
				"x": 2.1981997446,
				"y": -4.0851836282,
				"z": 2.7619837618,
				"element": "C" 
			},
			{
				"x": 1.8517230886,
				"y": -2.8372376864,
				"z": 2.1479450059,
				"element": "C" 
			},
			{
				"x": 1.4373004582,
				"y": -1.7611478586,
				"z": 2.9779691202,
				"element": "C" 
			},
			{
				"x": 1.3700847105,
				"y": -1.9115748463,
				"z": 4.3463442722,
				"element": "C" 
			},
			{
				"x": 1.7060304481,
				"y": -3.1444611327,
				"z": 4.9534686523,
				"element": "C" 
			},
			{
				"x": 2.1106893899,
				"y": -4.2050877435,
				"z": 4.1736374803,
				"element": "C" 
			},
			{
				"x": 0.5481647723,
				"y": 0.135247154,
				"z": -1.2210041628,
				"element": "C" 
			},
			{
				"x": 1.4457400523,
				"y": 1.1211334883,
				"z": -0.7718552349,
				"element": "C" 
			},
			{
				"x": 2.4015864006,
				"y": 0.8586694004,
				"z": 0.0881597742,
				"element": "O" 
			},
			{
				"x": 1.3419899544,
				"y": 2.4879374961,
				"z": -1.2382667124,
				"element": "C" 
			},
			{
				"x": 2.2264619453,
				"y": 3.479717861,
				"z": -0.7729636917,
				"element": "C" 
			},
			{
				"x": 2.1197999422,
				"y": 4.7866429102,
				"z": -1.2164471754,
				"element": "C" 
			},
			{
				"x": 1.1161527887,
				"y": 5.1159821813,
				"z": -2.1405207235,
				"element": "C" 
			},
			{
				"x": 0.2332843082,
				"y": 4.1564300407,
				"z": -2.6154904993,
				"element": "C" 
			},
			{
				"x": 0.3333689386,
				"y": 2.8230019176,
				"z": -2.170457249,
				"element": "C" 
			},
			{
				"x": -0.5302457465,
				"y": 1.830635335,
				"z": -2.6278851625,
				"element": "N" 
			},
			{
				"x": -1.5498334882,
				"y": 2.1527620736,
				"z": -3.599444451,
				"element": "C" 
			},
			{
				"x": -1.2608450428,
				"y": 2.0694542327,
				"z": -4.9623316099,
				"element": "C" 
			},
			{
				"x": -2.2435510049,
				"y": 2.3945933765,
				"z": -5.8977795366,
				"element": "C" 
			},
			{
				"x": -3.5097689017,
				"y": 2.8009746527,
				"z": -5.4716122412,
				"element": "C" 
			},
			{
				"x": -3.7938262008,
				"y": 2.880567742,
				"z": -4.1068066226,
				"element": "C" 
			},
			{
				"x": -2.8141184421,
				"y": 2.5562596824,
				"z": -3.167677364,
				"element": "C" 
			},
			{
				"x": -0.4711811508,
				"y": 0.4761289737,
				"z": -2.2164885384,
				"element": "C" 
			},
			{
				"x": -1.2621082799,
				"y": -0.3211197565,
				"z": -2.7162288286,
				"element": "O" 
			},
			{
				"x": -1.3908333623,
				"y": -1.8579168166,
				"z": -0.9360263871,
				"element": "H" 
			},
			{
				"x": -0.2840564978,
				"y": -2.6217110009,
				"z": -2.0359037664,
				"element": "H" 
			},
			{
				"x": -0.2743013843,
				"y": -3.1242988076,
				"z": -0.3262203785,
				"element": "H" 
			},
			{
				"x": 2.4073451164,
				"y": -2.8036180896,
				"z": -1.664277351,
				"element": "H" 
			},
			{
				"x": 3.0494210514,
				"y": -5.8315783129,
				"z": -0.060920329,
				"element": "H" 
			},
			{
				"x": 2.8845021422,
				"y": -6.1099953737,
				"z": 2.4075950278,
				"element": "H" 
			},
			{
				"x": 1.180077004,
				"y": -0.812756833,
				"z": 2.5184094357,
				"element": "H" 
			},
			{
				"x": 1.0559050554,
				"y": -1.0758595221,
				"z": 4.9652271807,
				"element": "H" 
			},
			{
				"x": 1.6451874289,
				"y": -3.2502684754,
				"z": 6.0325839167,
				"element": "H" 
			},
			{
				"x": 2.3726802277,
				"y": -5.1563029583,
				"z": 4.6303269931,
				"element": "H" 
			},
			{
				"x": 2.3104034577,
				"y": -0.1898578303,
				"z": 0.2768353663,
				"element": "H" 
			},
			{
				"x": 2.9882484857,
				"y": 3.1867860857,
				"z": -0.0596366876,
				"element": "H" 
			},
			{
				"x": 2.8035438362,
				"y": 5.5474810947,
				"z": -0.8543866882,
				"element": "H" 
			},
			{
				"x": 1.0222515974,
				"y": 6.1382513189,
				"z": -2.4958183462,
				"element": "H" 
			},
			{
				"x": -0.5340196301,
				"y": 4.4280570977,
				"z": -3.32892081,
				"element": "H" 
			},
			{
				"x": -0.2744172194,
				"y": 1.7467296689,
				"z": -5.2798100426,
				"element": "H" 
			},
			{
				"x": -2.0203789402,
				"y": 2.3273123635,
				"z": -6.9583942252,
				"element": "H" 
			},
			{
				"x": -4.2738075774,
				"y": 3.0525967719,
				"z": -6.2012503608,
				"element": "H" 
			},
			{
				"x": -4.7785442081,
				"y": 3.1923439037,
				"z": -3.7715988484,
				"element": "H" 
			},
			{
				"x": -3.0229292102,
				"y": 2.608631702,
				"z": -2.1038500423,
				"element": "H" 
			}
		],
		 "valence_orbital": [ 
			{
				"type": "occ",
				"energy": -0.24973,
				"method": "rhf"
			},
			{
				"type": "occ",
				"energy": -0.23671,
				"method": "rhf"
			},
			{
				"type": "occ",
				"energy": -0.22999,
				"method": "rhf"
			},
			{
				"type": "occ",
				"energy": -0.22268,
				"method": "rhf"
			},
			{
				"type": "occ",
				"energy": -0.19767,
				"method": "rhf"
			},
			{
				"type": "unocc",
				"energy": -0.06795,
				"method": "rhf"
			},
			{
				"type": "unocc",
				"energy": -0.03466,
				"method": "rhf"
			},
			{
				"type": "unocc",
				"energy": -0.01689,
				"method": "rhf"
			},
			{
				"type": "unocc",
				"energy": -0.01412,
				"method": "rhf"
			},
			{
				"type": "unocc",
				"energy": -0.0114,
				"method": "rhf"
			}
		],
		"cosmo_sigma_profile": { 
			"-0.025": 0.0,
			"-0.024": 0.0,
			"-0.023": 0.0,
			"-0.022": 0.0,
			"-0.021": 0.0,
			"-0.02": 0.0,
			"-0.019": 0.0,
			"-0.018": 0.0,
			"-0.017": 0.0,
			"-0.016": 0.0766320664004,
			"-0.015": 0.610256984829,
			"-0.014": 0.870565076433,
			"-0.013": 0.776298481159,
			"-0.012": 0.679210139853,
			"-0.011": 1.08347862096,
			"-0.01": 1.06881207196,
			"-0.009": 1.04787872906,
			"-0.008": 1.07310033648,
			"-0.007": 5.06941367415,
			"-0.006": 25.5048968592,
			"-0.005": 30.1883838209,
			"-0.004": 37.3373850505,
			"-0.003": 35.8042641573,
			"-0.002": 36.9203611849,
			"-0.001": 38.3975528864,
			"0.0": 33.3345517927,
			"0.001": 30.9616451226,
			"0.002": 31.114711504,
			"0.003": 35.2201161324,
			"0.004": 36.0900464955,
			"0.005": 21.0600933831,
			"0.006": 8.87965459763,
			"0.007": 5.49146444007,
			"0.008": 4.55512939354,
			"0.009": 4.96986192927,
			"0.01": 3.26731739363,
			"0.011": 3.56566459632,
			"0.012": 2.34233448154,
			"0.013": 2.49793203888,
			"0.014": 2.30409641487,
			"0.015": 0.116974033499,
			"0.016": 0.0,
			"0.017": 0.0,
			"0.018": 0.0,
			"0.019": 0.0,
			"0.02": 0.0,
			"0.021": 0.0,
			"0.022": 0.0,
			"0.023": 0.0,
			"0.024": 0.0,
			"0.025": 0.0
		}
	}
}
