{
	 "smiles": "COC1=CC(Br)=CC(Br)=C1", 
	 "Tm": 314.65, 
	 "num_atms": 16, 
	 "gaussian": { 
		 "optdone": 1, 
		 "sigma_profile": "yes", 
		 "theory": "DFT", 
		 "functional": "B3LYP", 
		 "basiset": "6-31G**", 
		 "properties": { 
			 "R2extent": 5664.206, 
			 "electric_dipole_moment_norm": 2.77768444932, 
			 "electric_quadrupole_moment_norm": 7.7553645169, 
			 "total_energy": -5488.37927362, 
			 "HOMO_LUMO_gap": 0.2123, 
			 "cosmo_polarized_energy": -5.38, 
			 "cosmo_cavitation_energy": 24.9, 
			 "cosmo_dispersion_energy": -19.25, 
			 "cosmo_repulsion_energy": 1.57, 
			 "cosmo_total_nonelectrostatic_energy": 7.22, 
			 "SMD_solvation_energy": 2.8 
		},
		"coords": [
			{
				"x": -2.4120260296,
				"y": -2.1167706395,
				"z": -0.5547985527,
				"element": "C" 
			},
			{
				"x": -1.4835170024,
				"y": -1.1984221602,
				"z": 0.0072857277,
				"element": "O" 
			},
			{
				"x": -0.4312119441,
				"y": -0.7939477589,
				"z": -0.7514041501,
				"element": "C" 
			},
			{
				"x": -0.1935973739,
				"y": -1.2228076434,
				"z": -2.063251432,
				"element": "C" 
			},
			{
				"x": 0.9269294116,
				"y": -0.728779992,
				"z": -2.7323355154,
				"element": "C" 
			},
			{
				"x": 1.2526063338,
				"y": -1.3131318783,
				"z": -4.5230719293,
				"element": "Br" 
			},
			{
				"x": 1.813266095,
				"y": 0.1693697483,
				"z": -2.1491567685,
				"element": "C" 
			},
			{
				"x": 1.5439216002,
				"y": 0.5747440086,
				"z": -0.8391136428,
				"element": "C" 
			},
			{
				"x": 2.7360055401,
				"y": 1.8083833534,
				"z": 0.0013836808,
				"element": "Br" 
			},
			{
				"x": 0.4441993843,
				"y": 0.1128060625,
				"z": -0.1321962934,
				"element": "C" 
			},
			{
				"x": -1.9295201221,
				"y": -3.0656726034,
				"z": -0.8199477988,
				"element": "H" 
			},
			{
				"x": -3.1589463903,
				"y": -2.2965809421,
				"z": 0.219140335,
				"element": "H" 
			},
			{
				"x": -2.9034957152,
				"y": -1.6998344466,
				"z": -1.4425796995,
				"element": "H" 
			},
			{
				"x": -0.8520027405,
				"y": -1.9199541496,
				"z": -2.5622226438,
				"element": "H" 
			},
			{
				"x": 2.6757915168,
				"y": 0.5397097848,
				"z": -2.6860542822,
				"element": "H" 
			},
			{
				"x": 0.2436974364,
				"y": 0.4325892563,
				"z": 0.8825229649,
				"element": "H" 
			}
		],
		 "valence_orbital": [ 
			{
				"type": "occ",
				"energy": -0.29552,
				"method": "rhf"
			},
			{
				"type": "occ",
				"energy": -0.28912,
				"method": "rhf"
			},
			{
				"type": "occ",
				"energy": -0.28555,
				"method": "rhf"
			},
			{
				"type": "occ",
				"energy": -0.2476,
				"method": "rhf"
			},
			{
				"type": "occ",
				"energy": -0.23737,
				"method": "rhf"
			},
			{
				"type": "unocc",
				"energy": -0.02507,
				"method": "rhf"
			},
			{
				"type": "unocc",
				"energy": -0.01762,
				"method": "rhf"
			},
			{
				"type": "unocc",
				"energy": -0.01115,
				"method": "rhf"
			},
			{
				"type": "unocc",
				"energy": 0.02588,
				"method": "rhf"
			},
			{
				"type": "unocc",
				"energy": 0.09165,
				"method": "rhf"
			}
		],
		"cosmo_sigma_profile": { 
			"-0.025": 0.0,
			"-0.024": 0.0,
			"-0.023": 0.0,
			"-0.022": 0.0,
			"-0.021": 0.0,
			"-0.02": 0.0,
			"-0.019": 0.0,
			"-0.018": 0.0,
			"-0.017": 0.0,
			"-0.016": 0.0,
			"-0.015": 0.0,
			"-0.014": 0.0,
			"-0.013": 0.0,
			"-0.012": 0.0,
			"-0.011": 0.0,
			"-0.01": 0.0,
			"-0.009": 0.0,
			"-0.008": 1.87337792135,
			"-0.007": 6.02142380728,
			"-0.006": 11.7386814238,
			"-0.005": 11.7335276606,
			"-0.004": 15.1174973757,
			"-0.003": 14.252900589,
			"-0.002": 10.4069263859,
			"-0.001": 11.2707658971,
			"0.0": 13.0832243041,
			"0.001": 22.7492172172,
			"0.002": 32.9904832562,
			"0.003": 18.3759924623,
			"0.004": 23.7690402495,
			"0.005": 6.80218211973,
			"0.006": 1.88454865216,
			"0.007": 0.648329236288,
			"0.008": 1.70342634489,
			"0.009": 1.4056722484,
			"0.01": 0.245816897543,
			"0.011": 0.0,
			"0.012": 0.0,
			"0.013": 0.0,
			"0.014": 0.0,
			"0.015": 0.0,
			"0.016": 0.0,
			"0.017": 0.0,
			"0.018": 0.0,
			"0.019": 0.0,
			"0.02": 0.0,
			"0.021": 0.0,
			"0.022": 0.0,
			"0.023": 0.0,
			"0.024": 0.0,
			"0.025": 0.0
		}
	}
}
