{
	 "smiles": "CCCC(C)=C", 
	 "Tm": 137.15, 
	 "num_atms": 18, 
	 "gaussian": { 
		 "optdone": 1, 
		 "sigma_profile": "yes", 
		 "theory": "DFT", 
		 "functional": "B3LYP", 
		 "basiset": "6-31G**", 
		 "properties": { 
			 "R2extent": 1138.5577, 
			 "electric_dipole_moment_norm": 0.53069552476, 
			 "electric_quadrupole_moment_norm": 1.38444111829, 
			 "total_energy": -235.865799059, 
			 "HOMO_LUMO_gap": 0.26785, 
			 "cosmo_polarized_energy": -1.62, 
			 "cosmo_cavitation_energy": 20.16, 
			 "cosmo_dispersion_energy": -14.4, 
			 "cosmo_repulsion_energy": 1.25, 
			 "cosmo_total_nonelectrostatic_energy": 7.01, 
			 "SMD_solvation_energy": 4.22 
		},
		"coords": [
			{
				"x": -0.7137098901,
				"y": 3.0650545947,
				"z": -1.0107093822,
				"element": "C" 
			},
			{
				"x": 0.103327528,
				"y": 1.9256554937,
				"z": -0.3935253927,
				"element": "C" 
			},
			{
				"x": 0.5990972882,
				"y": 0.9139078462,
				"z": -1.4462903672,
				"element": "C" 
			},
			{
				"x": 1.4320655595,
				"y": -0.2174515367,
				"z": -0.8802319215,
				"element": "C" 
			},
			{
				"x": 0.7187011094,
				"y": -1.2126011007,
				"z": 0.0034765311,
				"element": "C" 
			},
			{
				"x": 2.7359480459,
				"y": -0.3308874902,
				"z": -1.1549238426,
				"element": "C" 
			},
			{
				"x": -1.6018581435,
				"y": 2.6821992149,
				"z": -1.5265978986,
				"element": "H" 
			},
			{
				"x": -0.1224836342,
				"y": 3.6249731855,
				"z": -1.7443270605,
				"element": "H" 
			},
			{
				"x": -1.0521918726,
				"y": 3.7726660216,
				"z": -0.2468150701,
				"element": "H" 
			},
			{
				"x": 0.9704009889,
				"y": 2.3357727317,
				"z": 0.1394633842,
				"element": "H" 
			},
			{
				"x": -0.5053555871,
				"y": 1.4106259547,
				"z": 0.3599860419,
				"element": "H" 
			},
			{
				"x": -0.2766643055,
				"y": 0.4952719882,
				"z": -1.9653828712,
				"element": "H" 
			},
			{
				"x": 1.182978076,
				"y": 1.4498294499,
				"z": -2.2044213151,
				"element": "H" 
			},
			{
				"x": -0.1239843485,
				"y": -1.6742331687,
				"z": -0.5278616558,
				"element": "H" 
			},
			{
				"x": 0.2984406537,
				"y": -0.7331244392,
				"z": 0.8960042035,
				"element": "H" 
			},
			{
				"x": 1.3895578647,
				"y": -2.0094147681,
				"z": 0.3355287859,
				"element": "H" 
			},
			{
				"x": 3.3380372613,
				"y": -1.1392385567,
				"z": -0.7484266807,
				"element": "H" 
			},
			{
				"x": 3.2471934061,
				"y": 0.3808945793,
				"z": -1.7977454884,
				"element": "H" 
			}
		],
		 "valence_orbital": [ 
			{
				"type": "occ",
				"energy": -0.35603,
				"method": "rhf"
			},
			{
				"type": "occ",
				"energy": -0.33716,
				"method": "rhf"
			},
			{
				"type": "occ",
				"energy": -0.32373,
				"method": "rhf"
			},
			{
				"type": "occ",
				"energy": -0.31961,
				"method": "rhf"
			},
			{
				"type": "occ",
				"energy": -0.23855,
				"method": "rhf"
			},
			{
				"type": "unocc",
				"energy": 0.0293,
				"method": "rhf"
			},
			{
				"type": "unocc",
				"energy": 0.09068,
				"method": "rhf"
			},
			{
				"type": "unocc",
				"energy": 0.11817,
				"method": "rhf"
			},
			{
				"type": "unocc",
				"energy": 0.12665,
				"method": "rhf"
			},
			{
				"type": "unocc",
				"energy": 0.14425,
				"method": "rhf"
			}
		],
		"cosmo_sigma_profile": { 
			"-0.025": 0.0,
			"-0.024": 0.0,
			"-0.023": 0.0,
			"-0.022": 0.0,
			"-0.021": 0.0,
			"-0.02": 0.0,
			"-0.019": 0.0,
			"-0.018": 0.0,
			"-0.017": 0.0,
			"-0.016": 0.0,
			"-0.015": 0.0,
			"-0.014": 0.0,
			"-0.013": 0.0,
			"-0.012": 0.0,
			"-0.011": 0.0,
			"-0.01": 0.0,
			"-0.009": 0.0,
			"-0.008": 0.0,
			"-0.007": 0.0,
			"-0.006": 0.0,
			"-0.005": 0.000819777498232,
			"-0.004": 3.75667972348,
			"-0.003": 16.8674218019,
			"-0.002": 25.976132626,
			"-0.001": 25.7745485121,
			"0.0": 27.7037105375,
			"0.001": 24.9193893834,
			"0.002": 11.8958329156,
			"0.003": 4.76969706272,
			"0.004": 4.19754173317,
			"0.005": 3.61438934778,
			"0.006": 3.04098214111,
			"0.007": 2.92967988018,
			"0.008": 0.762863843564,
			"0.009": 0.0,
			"0.01": 0.0,
			"0.011": 0.0,
			"0.012": 0.0,
			"0.013": 0.0,
			"0.014": 0.0,
			"0.015": 0.0,
			"0.016": 0.0,
			"0.017": 0.0,
			"0.018": 0.0,
			"0.019": 0.0,
			"0.02": 0.0,
			"0.021": 0.0,
			"0.022": 0.0,
			"0.023": 0.0,
			"0.024": 0.0,
			"0.025": 0.0
		}
	}
}
