{
	 "smiles": "O=CC1=C2OCCOC2=CS1", 
	 "Tm": 412.15, 
	 "num_atms": 17, 
	 "gaussian": { 
		 "optdone": 1, 
		 "sigma_profile": "yes", 
		 "theory": "DFT", 
		 "functional": "B3LYP", 
		 "basiset": "6-31G**", 
		 "properties": { 
			 "R2extent": 3212.8702, 
			 "electric_dipole_moment_norm": 4.02578485391, 
			 "electric_quadrupole_moment_norm": 10.3525225602, 
			 "total_energy": -894.161993319, 
			 "HOMO_LUMO_gap": 0.17093, 
			 "cosmo_polarized_energy": -13.09, 
			 "cosmo_cavitation_energy": 22.72, 
			 "cosmo_dispersion_energy": -17.78, 
			 "cosmo_repulsion_energy": 1.38, 
			 "cosmo_total_nonelectrostatic_energy": 6.32, 
			 "SMD_solvation_energy": 5.4 
		},
		"coords": [
			{
				"x": -3.0249703544,
				"y": -2.2458869375,
				"z": -1.0905168439,
				"element": "O" 
			},
			{
				"x": -3.2544665699,
				"y": -2.1624591983,
				"z": 0.1040335392,
				"element": "C" 
			},
			{
				"x": -2.30517904,
				"y": -1.6964831045,
				"z": 1.1051081398,
				"element": "C" 
			},
			{
				"x": -0.987260048,
				"y": -1.2998480358,
				"z": 0.948717078,
				"element": "C" 
			},
			{
				"x": -0.3304449179,
				"y": -1.2633474689,
				"z": -0.2333239137,
				"element": "O" 
			},
			{
				"x": 1.0917705323,
				"y": -1.1182900954,
				"z": -0.0889808873,
				"element": "C" 
			},
			{
				"x": 1.4303168793,
				"y": -0.0822577887,
				"z": 0.9715039096,
				"element": "C" 
			},
			{
				"x": 0.9250786357,
				"y": -0.4863660222,
				"z": 2.2518319401,
				"element": "O" 
			},
			{
				"x": -0.3695426141,
				"y": -0.9151811243,
				"z": 2.1819435442,
				"element": "C" 
			},
			{
				"x": -1.2075044129,
				"y": -1.029046059,
				"z": 3.2593070472,
				"element": "C" 
			},
			{
				"x": -2.7697520437,
				"y": -1.6048517001,
				"z": 2.7979507729,
				"element": "S" 
			},
			{
				"x": -4.2466714912,
				"y": -2.4518103816,
				"z": 0.5188302027,
				"element": "H" 
			},
			{
				"x": 1.5301773988,
				"y": -2.0885849679,
				"z": 0.1768307878,
				"element": "H" 
			},
			{
				"x": 1.4637716946,
				"y": -0.813864468,
				"z": -1.0695569256,
				"element": "H" 
			},
			{
				"x": 1.0064208548,
				"y": 0.8928136744,
				"z": 0.6967235351,
				"element": "H" 
			},
			{
				"x": 2.5119269574,
				"y": 0.01775068,
				"z": 1.0863396969,
				"element": "H" 
			},
			{
				"x": -0.9783714608,
				"y": -0.7951870024,
				"z": 4.2886583768,
				"element": "H" 
			}
		],
		 "valence_orbital": [ 
			{
				"type": "occ",
				"energy": -0.33524,
				"method": "rhf"
			},
			{
				"type": "occ",
				"energy": -0.31944,
				"method": "rhf"
			},
			{
				"type": "occ",
				"energy": -0.24429,
				"method": "rhf"
			},
			{
				"type": "occ",
				"energy": -0.23388,
				"method": "rhf"
			},
			{
				"type": "occ",
				"energy": -0.22959,
				"method": "rhf"
			},
			{
				"type": "unocc",
				"energy": -0.05866,
				"method": "rhf"
			},
			{
				"type": "unocc",
				"energy": 0.01262,
				"method": "rhf"
			},
			{
				"type": "unocc",
				"energy": 0.02875,
				"method": "rhf"
			},
			{
				"type": "unocc",
				"energy": 0.05723,
				"method": "rhf"
			},
			{
				"type": "unocc",
				"energy": 0.08547,
				"method": "rhf"
			}
		],
		"cosmo_sigma_profile": { 
			"-0.025": 0.0,
			"-0.024": 0.0,
			"-0.023": 0.0,
			"-0.022": 0.0,
			"-0.021": 0.0,
			"-0.02": 0.0,
			"-0.019": 0.0,
			"-0.018": 0.0,
			"-0.017": 0.0,
			"-0.016": 0.0,
			"-0.015": 0.0,
			"-0.014": 0.0,
			"-0.013": 0.0,
			"-0.012": 0.0,
			"-0.011": 0.0,
			"-0.01": 1.05136794035,
			"-0.009": 2.1119648256,
			"-0.008": 6.04519392197,
			"-0.007": 15.4716376504,
			"-0.006": 17.0614032291,
			"-0.005": 12.9364142222,
			"-0.004": 10.4865650286,
			"-0.003": 8.20943220888,
			"-0.002": 7.87631133966,
			"-0.001": 9.55109776232,
			"0.0": 10.739016898,
			"0.001": 14.1393337952,
			"0.002": 14.3613487061,
			"0.003": 11.7383121985,
			"0.004": 7.0654637626,
			"0.005": 3.1566225985,
			"0.006": 3.29789941222,
			"0.007": 3.23367646712,
			"0.008": 2.94277897598,
			"0.009": 4.1431936549,
			"0.01": 3.65788182556,
			"0.011": 3.86014214316,
			"0.012": 5.39836497025,
			"0.013": 3.45144491771,
			"0.014": 1.88483147056,
			"0.015": 0.226768390609,
			"0.016": 0.0,
			"0.017": 0.0,
			"0.018": 0.0,
			"0.019": 0.0,
			"0.02": 0.0,
			"0.021": 0.0,
			"0.022": 0.0,
			"0.023": 0.0,
			"0.024": 0.0,
			"0.025": 0.0
		}
	}
}
