{
	 "smiles": "OC(=O)CCOC1=CC=C(C=C1)[N+]([O-])=O", 
	 "Tm": 390.15, 
	 "num_atms": 24, 
	 "gaussian": { 
		 "optdone": 1, 
		 "sigma_profile": "yes", 
		 "theory": "DFT", 
		 "functional": "B3LYP", 
		 "basiset": "6-31G**", 
		 "properties": { 
			 "R2extent": 5466.0523, 
			 "electric_dipole_moment_norm": 4.00147575902, 
			 "electric_quadrupole_moment_norm": 42.4237471861, 
			 "total_energy": -779.153045447, 
			 "HOMO_LUMO_gap": 0.17602, 
			 "cosmo_polarized_energy": -21.03, 
			 "cosmo_cavitation_energy": 29.38, 
			 "cosmo_dispersion_energy": -21.26, 
			 "cosmo_repulsion_energy": 1.66, 
			 "cosmo_total_nonelectrostatic_energy": 9.78, 
			 "SMD_solvation_energy": 8.68 
		},
		"coords": [
			{
				"x": 3.9351904778,
				"y": -1.5727924609,
				"z": 0.5050978154,
				"element": "O" 
			},
			{
				"x": 4.057042517,
				"y": -0.3099249938,
				"z": 0.0387544743,
				"element": "C" 
			},
			{
				"x": 4.9443007181,
				"y": -0.0063241561,
				"z": -0.7185266405,
				"element": "O" 
			},
			{
				"x": 2.9908017446,
				"y": 0.6884939089,
				"z": 0.5031259285,
				"element": "C" 
			},
			{
				"x": 2.531204768,
				"y": 0.5257813529,
				"z": 1.9538724284,
				"element": "C" 
			},
			{
				"x": 1.868921471,
				"y": -0.7371016789,
				"z": 2.1725967069,
				"element": "O" 
			},
			{
				"x": 0.5315722987,
				"y": -0.8774872526,
				"z": 1.9111009306,
				"element": "C" 
			},
			{
				"x": 0.0000304222,
				"y": -2.145063108,
				"z": 2.2001903036,
				"element": "C" 
			},
			{
				"x": -1.3449845814,
				"y": -2.4011796768,
				"z": 1.9859861343,
				"element": "C" 
			},
			{
				"x": -2.1566640943,
				"y": -1.3824189018,
				"z": 1.4816422251,
				"element": "C" 
			},
			{
				"x": -1.6447386503,
				"y": -0.1222998827,
				"z": 1.18882455,
				"element": "C" 
			},
			{
				"x": -0.2923945482,
				"y": 0.1357574627,
				"z": 1.4015223887,
				"element": "C" 
			},
			{
				"x": -3.5804854616,
				"y": -1.646456381,
				"z": 1.2542298451,
				"element": "N" 
			},
			{
				"x": -4.0011829129,
				"y": -2.7717796772,
				"z": 1.52290705,
				"element": "O" 
			},
			{
				"x": -4.2681263674,
				"y": -0.7269921308,
				"z": 0.8093017478,
				"element": "O" 
			},
			{
				"x": 3.1699729753,
				"y": -1.6400338605,
				"z": 1.1042751705,
				"element": "H" 
			},
			{
				"x": 2.1310420013,
				"y": 0.6017790795,
				"z": -0.1730591431,
				"element": "H" 
			},
			{
				"x": 3.4098763118,
				"y": 1.6875188431,
				"z": 0.3596690147,
				"element": "H" 
			},
			{
				"x": 1.8806165531,
				"y": 1.3486835613,
				"z": 2.2627014332,
				"element": "H" 
			},
			{
				"x": 3.3859745448,
				"y": 0.5033385456,
				"z": 2.6343858394,
				"element": "H" 
			},
			{
				"x": 0.6582948895,
				"y": -2.909502167,
				"z": 2.5986764708,
				"element": "H" 
			},
			{
				"x": -1.7787932772,
				"y": -3.3691215527,
				"z": 2.2032148523,
				"element": "H" 
			},
			{
				"x": -2.305523147,
				"y": 0.6400597117,
				"z": 0.7954918233,
				"element": "H" 
			},
			{
				"x": 0.0982513474,
				"y": 1.1169654151,
				"z": 1.1632186509,
				"element": "H" 
			}
		],
		 "valence_orbital": [ 
			{
				"type": "occ",
				"energy": -0.31313,
				"method": "rhf"
			},
			{
				"type": "occ",
				"energy": -0.29632,
				"method": "rhf"
			},
			{
				"type": "occ",
				"energy": -0.2956,
				"method": "rhf"
			},
			{
				"type": "occ",
				"energy": -0.27554,
				"method": "rhf"
			},
			{
				"type": "occ",
				"energy": -0.27018,
				"method": "rhf"
			},
			{
				"type": "unocc",
				"energy": -0.09416,
				"method": "rhf"
			},
			{
				"type": "unocc",
				"energy": -0.04519,
				"method": "rhf"
			},
			{
				"type": "unocc",
				"energy": -0.00475,
				"method": "rhf"
			},
			{
				"type": "unocc",
				"energy": 0.00192,
				"method": "rhf"
			},
			{
				"type": "unocc",
				"energy": 0.05515,
				"method": "rhf"
			}
		],
		"cosmo_sigma_profile": { 
			"-0.025": 0.0,
			"-0.024": 0.0,
			"-0.023": 0.0,
			"-0.022": 0.0,
			"-0.021": 0.0,
			"-0.02": 0.0,
			"-0.019": 0.0,
			"-0.018": 0.0,
			"-0.017": 0.0,
			"-0.016": 0.0,
			"-0.015": 0.0,
			"-0.014": 0.0,
			"-0.013": 0.0,
			"-0.012": 0.0,
			"-0.011": 0.307076436545,
			"-0.01": 2.47423577003,
			"-0.009": 5.85534524973,
			"-0.008": 13.0590707311,
			"-0.007": 20.5714574783,
			"-0.006": 17.5753770893,
			"-0.005": 14.6176240413,
			"-0.004": 10.6773959982,
			"-0.003": 11.3143098532,
			"-0.002": 10.6333082892,
			"-0.001": 13.1327002649,
			"0.0": 15.22590719,
			"0.001": 17.6338644781,
			"0.002": 9.6589511676,
			"0.003": 4.22326363568,
			"0.004": 5.0185282201,
			"0.005": 5.16840597754,
			"0.006": 7.42301732111,
			"0.007": 7.6477960332,
			"0.008": 11.7580275425,
			"0.009": 8.13485776482,
			"0.01": 7.3734994,
			"0.011": 6.41022251531,
			"0.012": 6.03776801046,
			"0.013": 2.74425386057,
			"0.014": 0.158517141346,
			"0.015": 0.0,
			"0.016": 0.0,
			"0.017": 0.0,
			"0.018": 0.0,
			"0.019": 0.0,
			"0.02": 0.0,
			"0.021": 0.0,
			"0.022": 0.0,
			"0.023": 0.0,
			"0.024": 0.0,
			"0.025": 0.0
		}
	}
}
