{
	 "smiles": "CC1=C(CO)C=NN1C1=CC=C(F)C=C1", 
	 "Tm": 393.15, 
	 "num_atms": 26, 
	 "gaussian": { 
		 "optdone": 1, 
		 "sigma_profile": "yes", 
		 "theory": "DFT", 
		 "functional": "B3LYP", 
		 "basiset": "6-31G**", 
		 "properties": { 
			 "R2extent": 4091.7597, 
			 "electric_dipole_moment_norm": 0.848834371359, 
			 "electric_quadrupole_moment_norm": 11.7395379977, 
			 "total_energy": -710.333917642, 
			 "HOMO_LUMO_gap": 0.20552, 
			 "cosmo_polarized_energy": -11.11, 
			 "cosmo_cavitation_energy": 30.3, 
			 "cosmo_dispersion_energy": -21.73, 
			 "cosmo_repulsion_energy": 1.68, 
			 "cosmo_total_nonelectrostatic_energy": 10.25, 
			 "SMD_solvation_energy": 5.19 
		},
		"coords": [
			{
				"x": -2.4003368119,
				"y": 0.5081675762,
				"z": -0.805933893,
				"element": "C" 
			},
			{
				"x": -1.6657024998,
				"y": 0.340809541,
				"z": 0.4879032715,
				"element": "C" 
			},
			{
				"x": -2.1827992189,
				"y": 0.0828086408,
				"z": 1.7526964735,
				"element": "C" 
			},
			{
				"x": -3.6279646277,
				"y": -0.051719191,
				"z": 2.1343384684,
				"element": "C" 
			},
			{
				"x": -4.3331939466,
				"y": -1.0338034859,
				"z": 1.3688020825,
				"element": "O" 
			},
			{
				"x": -1.0460197646,
				"y": -0.0573313344,
				"z": 2.5823108721,
				"element": "C" 
			},
			{
				"x": 0.0897922836,
				"y": 0.1015746187,
				"z": 1.915639312,
				"element": "N" 
			},
			{
				"x": -0.2987270967,
				"y": 0.3533723647,
				"z": 0.6322258458,
				"element": "N" 
			},
			{
				"x": 0.7091942541,
				"y": 0.5218230964,
				"z": -0.3571541852,
				"element": "C" 
			},
			{
				"x": 0.581596631,
				"y": 1.4851599557,
				"z": -1.3635387984,
				"element": "C" 
			},
			{
				"x": 1.5828407834,
				"y": 1.6302846598,
				"z": -2.3239153947,
				"element": "C" 
			},
			{
				"x": 2.7107024186,
				"y": 0.8228817964,
				"z": -2.2467457332,
				"element": "C" 
			},
			{
				"x": 3.683296578,
				"y": 0.9652338972,
				"z": -3.1700724866,
				"element": "F" 
			},
			{
				"x": 2.86810263,
				"y": -0.1236177053,
				"z": -1.2388980047,
				"element": "C" 
			},
			{
				"x": 1.8585583965,
				"y": -0.276447238,
				"z": -0.2932589971,
				"element": "C" 
			},
			{
				"x": -3.3743368868,
				"y": 0.0235398008,
				"z": -0.7122864,
				"element": "H" 
			},
			{
				"x": -1.8602123071,
				"y": 0.0546492532,
				"z": -1.642138967,
				"element": "H" 
			},
			{
				"x": -2.5717031981,
				"y": 1.562383232,
				"z": -1.0561529545,
				"element": "H" 
			},
			{
				"x": -4.1749985474,
				"y": 0.8815307234,
				"z": 1.960590502,
				"element": "H" 
			},
			{
				"x": -3.6971070502,
				"y": -0.2647350109,
				"z": 3.2121406032,
				"element": "H" 
			},
			{
				"x": -3.8181679525,
				"y": -1.8505197068,
				"z": 1.415882188,
				"element": "H" 
			},
			{
				"x": -1.0177835943,
				"y": -0.262224323,
				"z": 3.6456167575,
				"element": "H" 
			},
			{
				"x": -0.2829922489,
				"y": 2.1374116238,
				"z": -1.3881877985,
				"element": "H" 
			},
			{
				"x": 1.5046836127,
				"y": 2.3703870231,
				"z": -3.1125191143,
				"element": "H" 
			},
			{
				"x": 3.7665862678,
				"y": -0.7301213399,
				"z": -1.2085972212,
				"element": "H" 
			},
			{
				"x": 1.9499918958,
				"y": -1.0000984679,
				"z": 0.5075535718,
				"element": "H" 
			}
		],
		 "valence_orbital": [ 
			{
				"type": "occ",
				"energy": -0.28388,
				"method": "rhf"
			},
			{
				"type": "occ",
				"energy": -0.27307,
				"method": "rhf"
			},
			{
				"type": "occ",
				"energy": -0.2689,
				"method": "rhf"
			},
			{
				"type": "occ",
				"energy": -0.23746,
				"method": "rhf"
			},
			{
				"type": "occ",
				"energy": -0.22742,
				"method": "rhf"
			},
			{
				"type": "unocc",
				"energy": -0.0219,
				"method": "rhf"
			},
			{
				"type": "unocc",
				"energy": -0.02025,
				"method": "rhf"
			},
			{
				"type": "unocc",
				"energy": 0.02845,
				"method": "rhf"
			},
			{
				"type": "unocc",
				"energy": 0.05028,
				"method": "rhf"
			},
			{
				"type": "unocc",
				"energy": 0.07834,
				"method": "rhf"
			}
		],
		"cosmo_sigma_profile": { 
			"-0.025": 0.0,
			"-0.024": 0.0,
			"-0.023": 0.0,
			"-0.022": 0.0,
			"-0.021": 0.0,
			"-0.02": 0.0,
			"-0.019": 0.0,
			"-0.018": 0.0,
			"-0.017": 0.0,
			"-0.016": 0.0514647478041,
			"-0.015": 0.561870883819,
			"-0.014": 0.938829398325,
			"-0.013": 0.884094607917,
			"-0.012": 0.819511140118,
			"-0.011": 0.788235550723,
			"-0.01": 0.732697209796,
			"-0.009": 0.563550133601,
			"-0.008": 2.32073312202,
			"-0.007": 9.42520340103,
			"-0.006": 11.9961231221,
			"-0.005": 14.4128865179,
			"-0.004": 17.2288703196,
			"-0.003": 16.6280988477,
			"-0.002": 19.2562163419,
			"-0.001": 19.9023501839,
			"0.0": 18.9339578159,
			"0.001": 18.3081990806,
			"0.002": 17.877214332,
			"0.003": 19.7422284517,
			"0.004": 17.3885588867,
			"0.005": 8.02173653003,
			"0.006": 3.47991341215,
			"0.007": 2.89231226651,
			"0.008": 2.57413162973,
			"0.009": 2.65310382935,
			"0.01": 2.6878828042,
			"0.011": 2.25213987998,
			"0.012": 2.32907901144,
			"0.013": 2.34374004947,
			"0.014": 2.5127934358,
			"0.015": 0.975128393271,
			"0.016": 0.0593567851151,
			"0.017": 0.0,
			"0.018": 0.0,
			"0.019": 0.0,
			"0.02": 0.0,
			"0.021": 0.0,
			"0.022": 0.0,
			"0.023": 0.0,
			"0.024": 0.0,
			"0.025": 0.0
		}
	}
}
