{
	 "smiles": "OCC(=O)N1CCC2=C(C1)C=CC=C2", 
	 "Tm": 373.15, 
	 "num_atms": 27, 
	 "gaussian": { 
		 "optdone": 1, 
		 "sigma_profile": "yes", 
		 "theory": "DFT", 
		 "functional": "B3LYP", 
		 "basiset": "6-31G**", 
		 "properties": { 
			 "R2extent": 3231.2153, 
			 "electric_dipole_moment_norm": 2.18868826012, 
			 "electric_quadrupole_moment_norm": 9.71144485182, 
			 "total_energy": -632.208361438, 
			 "HOMO_LUMO_gap": 0.22764, 
			 "cosmo_polarized_energy": -12.85, 
			 "cosmo_cavitation_energy": 29.19, 
			 "cosmo_dispersion_energy": -21.29, 
			 "cosmo_repulsion_energy": 1.68, 
			 "cosmo_total_nonelectrostatic_energy": 9.58, 
			 "SMD_solvation_energy": 4.75 
		},
		"coords": [
			{
				"x": -3.3088677089,
				"y": -0.1278285407,
				"z": 0.3256616283,
				"element": "O" 
			},
			{
				"x": -3.4700035428,
				"y": 1.1041430921,
				"z": -0.3689657371,
				"element": "C" 
			},
			{
				"x": -2.4169621152,
				"y": 1.3899551273,
				"z": -1.4544596201,
				"element": "C" 
			},
			{
				"x": -2.7924282233,
				"y": 1.6416928429,
				"z": -2.5981479197,
				"element": "O" 
			},
			{
				"x": -1.0930849045,
				"y": 1.3556552509,
				"z": -1.1017116333,
				"element": "N" 
			},
			{
				"x": -0.076325609,
				"y": 1.6582551832,
				"z": -2.1078276512,
				"element": "C" 
			},
			{
				"x": 0.9107011647,
				"y": 0.4944566302,
				"z": -2.2081469609,
				"element": "C" 
			},
			{
				"x": 1.4281406487,
				"y": 0.0821014226,
				"z": -0.844447499,
				"element": "C" 
			},
			{
				"x": 0.7071723063,
				"y": 0.4066291458,
				"z": 0.3152719494,
				"element": "C" 
			},
			{
				"x": -0.5910171024,
				"y": 1.1982974125,
				"z": 0.2610461084,
				"element": "C" 
			},
			{
				"x": 1.1995214605,
				"y": 0.0141380441,
				"z": 1.5671685094,
				"element": "C" 
			},
			{
				"x": 2.3907756613,
				"y": -0.6975852261,
				"z": 1.6782482897,
				"element": "C" 
			},
			{
				"x": 3.1096511907,
				"y": -1.0249083255,
				"z": 0.5253506129,
				"element": "C" 
			},
			{
				"x": 2.6273112801,
				"y": -0.6339499955,
				"z": -0.7207520126,
				"element": "C" 
			},
			{
				"x": -3.3613453429,
				"y": -0.8423929025,
				"z": -0.322498428,
				"element": "H" 
			},
			{
				"x": -4.4368021229,
				"y": 1.165602134,
				"z": -0.8803841135,
				"element": "H" 
			},
			{
				"x": -3.4402083699,
				"y": 1.886724656,
				"z": 0.3976209829,
				"element": "H" 
			},
			{
				"x": -0.5917444155,
				"y": 1.8403937305,
				"z": -3.0501724886,
				"element": "H" 
			},
			{
				"x": 0.4520641983,
				"y": 2.5778367754,
				"z": -1.8170370772,
				"element": "H" 
			},
			{
				"x": 1.7471590948,
				"y": 0.7716631282,
				"z": -2.8607068946,
				"element": "H" 
			},
			{
				"x": 0.4078355059,
				"y": -0.3557262534,
				"z": -2.6887685611,
				"element": "H" 
			},
			{
				"x": -0.4195789509,
				"y": 2.1907491605,
				"z": 0.7114820676,
				"element": "H" 
			},
			{
				"x": -1.3456162846,
				"y": 0.6859428471,
				"z": 0.8581469512,
				"element": "H" 
			},
			{
				"x": 0.6370980922,
				"y": 0.2686401251,
				"z": 2.4630727072,
				"element": "H" 
			},
			{
				"x": 2.7560367728,
				"y": -0.9970830023,
				"z": 2.6563148026,
				"element": "H" 
			},
			{
				"x": 4.041758001,
				"y": -1.5777003259,
				"z": 0.5992142717,
				"element": "H" 
			},
			{
				"x": 3.1873593151,
				"y": -0.8822021363,
				"z": -1.6195722846,
				"element": "H" 
			}
		],
		 "valence_orbital": [ 
			{
				"type": "occ",
				"energy": -0.293,
				"method": "rhf"
			},
			{
				"type": "occ",
				"energy": -0.25098,
				"method": "rhf"
			},
			{
				"type": "occ",
				"energy": -0.24189,
				"method": "rhf"
			},
			{
				"type": "occ",
				"energy": -0.24034,
				"method": "rhf"
			},
			{
				"type": "occ",
				"energy": -0.2355,
				"method": "rhf"
			},
			{
				"type": "unocc",
				"energy": -0.00786,
				"method": "rhf"
			},
			{
				"type": "unocc",
				"energy": -0.00025,
				"method": "rhf"
			},
			{
				"type": "unocc",
				"energy": 0.01185,
				"method": "rhf"
			},
			{
				"type": "unocc",
				"energy": 0.08232,
				"method": "rhf"
			},
			{
				"type": "unocc",
				"energy": 0.0979,
				"method": "rhf"
			}
		],
		"cosmo_sigma_profile": { 
			"-0.025": 0.0,
			"-0.024": 0.0,
			"-0.023": 0.0,
			"-0.022": 0.0,
			"-0.021": 0.0,
			"-0.02": 0.0,
			"-0.019": 0.0,
			"-0.018": 0.0,
			"-0.017": 0.343737105892,
			"-0.016": 1.18778583167,
			"-0.015": 0.934952949794,
			"-0.014": 0.938821987358,
			"-0.013": 1.30633487658,
			"-0.012": 0.719843087774,
			"-0.011": 0.660121480333,
			"-0.01": 0.442826515085,
			"-0.009": 0.723701476021,
			"-0.008": 0.972597920309,
			"-0.007": 2.23781138748,
			"-0.006": 6.28013185914,
			"-0.005": 19.0745446423,
			"-0.004": 28.5492326452,
			"-0.003": 28.6621096385,
			"-0.002": 20.3653688665,
			"-0.001": 16.151469978,
			"0.0": 11.2100643315,
			"0.001": 11.7936875695,
			"0.002": 10.4865856514,
			"0.003": 9.61603554707,
			"0.004": 10.2231133869,
			"0.005": 10.2774769081,
			"0.006": 9.8040876612,
			"0.007": 4.90993605211,
			"0.008": 2.2944031079,
			"0.009": 1.85362653464,
			"0.01": 2.04718577496,
			"0.011": 2.87424459502,
			"0.012": 2.94601641627,
			"0.013": 4.32140017781,
			"0.014": 4.88230329644,
			"0.015": 0.98659461527,
			"0.016": 0.0,
			"0.017": 0.0,
			"0.018": 0.0,
			"0.019": 0.0,
			"0.02": 0.0,
			"0.021": 0.0,
			"0.022": 0.0,
			"0.023": 0.0,
			"0.024": 0.0,
			"0.025": 0.0
		}
	}
}
