{
	 "smiles": "OC1CC(O)(CC(OC(=O)C=CC2=CC=C(O)C(O)=C2)C1O)C(O)=O", 
	 "Tm": 480.15, 
	 "num_atms": 43, 
	 "gaussian": { 
		 "optdone": 1, 
		 "sigma_profile": "yes", 
		 "theory": "DFT", 
		 "functional": "B3LYP", 
		 "basiset": "6-31G**", 
		 "properties": { 
			 "R2extent": 14162.342, 
			 "electric_dipole_moment_norm": 9.36299876161, 
			 "electric_quadrupole_moment_norm": 12.5866990136, 
			 "total_energy": -1297.55359573, 
			 "HOMO_LUMO_gap": 0.14735, 
			 "cosmo_polarized_energy": -32.73, 
			 "cosmo_cavitation_energy": 46.15, 
			 "cosmo_dispersion_energy": -32.5, 
			 "cosmo_repulsion_energy": 2.44, 
			 "cosmo_total_nonelectrostatic_energy": 16.09, 
			 "SMD_solvation_energy": 9.67 
		},
		"coords": [
			{
				"x": 1.2095888078,
				"y": -3.6984468362,
				"z": 0.4892782226,
				"element": "O" 
			},
			{
				"x": 0.5710922185,
				"y": -2.4431592211,
				"z": 0.3268734279,
				"element": "C" 
			},
			{
				"x": -0.5628605313,
				"y": -2.3249014943,
				"z": 1.3627466083,
				"element": "C" 
			},
			{
				"x": -2.002666923,
				"y": -2.532523787,
				"z": 0.8253250827,
				"element": "C" 
			},
			{
				"x": -2.9371365811,
				"y": -2.1651730648,
				"z": 1.8613379496,
				"element": "O" 
			},
			{
				"x": -2.28049783,
				"y": -1.7215247306,
				"z": -0.4747943886,
				"element": "C" 
			},
			{
				"x": -1.0217765637,
				"y": -1.2072794456,
				"z": -1.1827968692,
				"element": "C" 
			},
			{
				"x": -0.6713198654,
				"y": 0.0405360358,
				"z": -0.4838623338,
				"element": "O" 
			},
			{
				"x": 0.225678228,
				"y": 0.8840490168,
				"z": -1.0395748396,
				"element": "C" 
			},
			{
				"x": 0.9532707939,
				"y": 0.5790581934,
				"z": -1.9786158204,
				"element": "O" 
			},
			{
				"x": 0.2663864149,
				"y": 2.2105300333,
				"z": -0.4142843577,
				"element": "C" 
			},
			{
				"x": -0.5900913855,
				"y": 2.6310367882,
				"z": 0.5411573045,
				"element": "C" 
			},
			{
				"x": -0.6184959761,
				"y": 3.928253863,
				"z": 1.2020551973,
				"element": "C" 
			},
			{
				"x": -1.6240272966,
				"y": 4.1856075493,
				"z": 2.1500545478,
				"element": "C" 
			},
			{
				"x": -1.7031554812,
				"y": 5.4081667464,
				"z": 2.8126817729,
				"element": "C" 
			},
			{
				"x": -0.7707674111,
				"y": 6.4061303078,
				"z": 2.5404585192,
				"element": "C" 
			},
			{
				"x": -0.8367240901,
				"y": 7.5981824206,
				"z": 3.1791396397,
				"element": "O" 
			},
			{
				"x": 0.2468082081,
				"y": 6.1619154804,
				"z": 1.5910117707,
				"element": "C" 
			},
			{
				"x": 1.1096815959,
				"y": 7.2135088602,
				"z": 1.4046525264,
				"element": "O" 
			},
			{
				"x": 0.3230956769,
				"y": 4.9476916412,
				"z": 0.9342334565,
				"element": "C" 
			},
			{
				"x": 0.063248996,
				"y": -2.2859532651,
				"z": -1.1174787652,
				"element": "C" 
			},
			{
				"x": 1.138013908,
				"y": -2.1570328459,
				"z": -2.0239892397,
				"element": "O" 
			},
			{
				"x": -2.2659170441,
				"y": -4.0439385238,
				"z": 0.5987535404,
				"element": "C" 
			},
			{
				"x": -2.759523835,
				"y": -4.6791702858,
				"z": 1.6718215056,
				"element": "O" 
			},
			{
				"x": -2.0285355562,
				"y": -4.6145794979,
				"z": -0.4394865995,
				"element": "O" 
			},
			{
				"x": 1.7832638877,
				"y": -3.8083210453,
				"z": -0.2838412588,
				"element": "H" 
			},
			{
				"x": 1.2912660439,
				"y": -1.6306374643,
				"z": 0.5147272009,
				"element": "H" 
			},
			{
				"x": -0.3692333899,
				"y": -3.0241368182,
				"z": 2.1816688504,
				"element": "H" 
			},
			{
				"x": -0.5371758257,
				"y": -1.3097647958,
				"z": 1.7779350035,
				"element": "H" 
			},
			{
				"x": -2.5939039566,
				"y": -1.3856163059,
				"z": 2.3177446075,
				"element": "H" 
			},
			{
				"x": -2.9220337128,
				"y": -0.8739701416,
				"z": -0.2200554419,
				"element": "H" 
			},
			{
				"x": -2.8293798533,
				"y": -2.3547015468,
				"z": -1.1762065108,
				"element": "H" 
			},
			{
				"x": -1.230422255,
				"y": -0.9471359933,
				"z": -2.2247909482,
				"element": "H" 
			},
			{
				"x": 1.0523113228,
				"y": 2.8427314752,
				"z": -0.8135996053,
				"element": "H" 
			},
			{
				"x": -1.3585150279,
				"y": 1.9312322843,
				"z": 0.8617801713,
				"element": "H" 
			},
			{
				"x": -2.3569318761,
				"y": 3.4141173088,
				"z": 2.3675828537,
				"element": "H" 
			},
			{
				"x": -2.4795045616,
				"y": 5.6078091872,
				"z": 3.5432765367,
				"element": "H" 
			},
			{
				"x": -0.108681357,
				"y": 8.1507069745,
				"z": 2.8546900767,
				"element": "H" 
			},
			{
				"x": 1.7776296878,
				"y": 6.9874605068,
				"z": 0.7455625799,
				"element": "H" 
			},
			{
				"x": 1.1175681017,
				"y": 4.7848651725,
				"z": 0.2107481159,
				"element": "H" 
			},
			{
				"x": -0.443404291,
				"y": -3.2232156102,
				"z": -1.3746571963,
				"element": "H" 
			},
			{
				"x": 1.3204815129,
				"y": -1.20382835,
				"z": -2.1233574429,
				"element": "H" 
			},
			{
				"x": -2.9893029275,
				"y": -3.9848787759,
				"z": 2.3194945493,
				"element": "H" 
			}
		],
		 "valence_orbital": [ 
			{
				"type": "occ",
				"energy": -0.27434,
				"method": "rhf"
			},
			{
				"type": "occ",
				"energy": -0.26613,
				"method": "rhf"
			},
			{
				"type": "occ",
				"energy": -0.26218,
				"method": "rhf"
			},
			{
				"type": "occ",
				"energy": -0.24454,
				"method": "rhf"
			},
			{
				"type": "occ",
				"energy": -0.22664,
				"method": "rhf"
			},
			{
				"type": "unocc",
				"energy": -0.07929,
				"method": "rhf"
			},
			{
				"type": "unocc",
				"energy": -0.01693,
				"method": "rhf"
			},
			{
				"type": "unocc",
				"energy": 0.00786,
				"method": "rhf"
			},
			{
				"type": "unocc",
				"energy": 0.01289,
				"method": "rhf"
			},
			{
				"type": "unocc",
				"energy": 0.03369,
				"method": "rhf"
			}
		],
		"cosmo_sigma_profile": { 
			"-0.025": 0.0,
			"-0.024": 0.0,
			"-0.023": 0.0,
			"-0.022": 0.0,
			"-0.021": 0.0,
			"-0.02": 0.0,
			"-0.019": 0.219127022263,
			"-0.018": 1.17324694258,
			"-0.017": 1.89285476188,
			"-0.016": 2.05168613096,
			"-0.015": 2.21570064245,
			"-0.014": 3.33873478128,
			"-0.013": 3.65823789236,
			"-0.012": 4.02498160368,
			"-0.011": 3.16490250252,
			"-0.01": 3.6970407361,
			"-0.009": 5.44064164119,
			"-0.008": 6.31126739652,
			"-0.007": 11.9040551656,
			"-0.006": 17.0616666776,
			"-0.005": 20.7902399257,
			"-0.004": 23.7334919792,
			"-0.003": 19.2411117685,
			"-0.002": 21.3334338756,
			"-0.001": 18.6524196602,
			"0.0": 21.6726528439,
			"0.001": 22.7865588699,
			"0.002": 24.8167920799,
			"0.003": 23.2261273341,
			"0.004": 19.7652513495,
			"0.005": 9.74504415332,
			"0.006": 10.1731695211,
			"0.007": 9.06303098695,
			"0.008": 8.36627994222,
			"0.009": 10.6626495499,
			"0.01": 11.8041398097,
			"0.011": 9.05261004318,
			"0.012": 6.85335006371,
			"0.013": 3.71052430661,
			"0.014": 1.69444650156,
			"0.015": 0.424951984195,
			"0.016": 0.0,
			"0.017": 0.0,
			"0.018": 0.0,
			"0.019": 0.0,
			"0.02": 0.0,
			"0.021": 0.0,
			"0.022": 0.0,
			"0.023": 0.0,
			"0.024": 0.0,
			"0.025": 0.0
		}
	}
}
