{
	 "smiles": "COC(=O)C1=CC(=CC=C1)S(=O)(=O)N1CCCCC1", 
	 "Tm": 357.15, 
	 "num_atms": 36, 
	 "gaussian": { 
		 "optdone": 1, 
		 "sigma_profile": "yes", 
		 "theory": "DFT", 
		 "functional": "B3LYP", 
		 "basiset": "6-31G**", 
		 "properties": { 
			 "R2extent": 6789.4811, 
			 "electric_dipole_moment_norm": 4.20201665156, 
			 "electric_quadrupole_moment_norm": 14.8934048072, 
			 "total_energy": -1259.40392205, 
			 "HOMO_LUMO_gap": 0.1832, 
			 "cosmo_polarized_energy": -15.29, 
			 "cosmo_cavitation_energy": 39.74, 
			 "cosmo_dispersion_energy": -28.2, 
			 "cosmo_repulsion_energy": 2.15, 
			 "cosmo_total_nonelectrostatic_energy": 13.7, 
			 "SMD_solvation_energy": 6.34 
		},
		"coords": [
			{
				"x": 4.2820509055,
				"y": 1.3335916967,
				"z": -2.6762295988,
				"element": "C" 
			},
			{
				"x": 3.2946124332,
				"y": 1.3685740646,
				"z": -1.632968899,
				"element": "O" 
			},
			{
				"x": 3.0749446136,
				"y": 2.5840431289,
				"z": -1.0878448666,
				"element": "C" 
			},
			{
				"x": 3.6529126282,
				"y": 3.5917473773,
				"z": -1.4446165862,
				"element": "O" 
			},
			{
				"x": 2.0471337338,
				"y": 2.5453119002,
				"z": -0.005781097,
				"element": "C" 
			},
			{
				"x": 1.4088565521,
				"y": 1.3606719155,
				"z": 0.3733113985,
				"element": "C" 
			},
			{
				"x": 0.4544967521,
				"y": 1.4028286055,
				"z": 1.389962624,
				"element": "C" 
			},
			{
				"x": 0.1363704665,
				"y": 2.5946238738,
				"z": 2.0419587158,
				"element": "C" 
			},
			{
				"x": 0.7809566859,
				"y": 3.7736785743,
				"z": 1.6573739628,
				"element": "C" 
			},
			{
				"x": 1.7293563668,
				"y": 3.7504275523,
				"z": 0.639206419,
				"element": "C" 
			},
			{
				"x": -0.329193448,
				"y": -0.1258724785,
				"z": 1.9275168498,
				"element": "S" 
			},
			{
				"x": 0.708845532,
				"y": -1.1164446272,
				"z": 2.229487576,
				"element": "O" 
			},
			{
				"x": -1.3179464085,
				"y": 0.2463942268,
				"z": 2.9523322887,
				"element": "O" 
			},
			{
				"x": -1.0691219168,
				"y": -0.6521590315,
				"z": 0.5081029921,
				"element": "N" 
			},
			{
				"x": -2.2966142061,
				"y": 0.0784756795,
				"z": 0.1004828508,
				"element": "C" 
			},
			{
				"x": -3.5329880384,
				"y": -0.8216782909,
				"z": 0.1690639891,
				"element": "C" 
			},
			{
				"x": -3.3850612331,
				"y": -2.045814316,
				"z": -0.7635964754,
				"element": "C" 
			},
			{
				"x": -1.9015298358,
				"y": -2.4466848221,
				"z": -0.935429694,
				"element": "C" 
			},
			{
				"x": -1.0812605532,
				"y": -2.1268203198,
				"z": 0.3149258599,
				"element": "C" 
			},
			{
				"x": 4.3356112433,
				"y": 0.292818621,
				"z": -2.9945973229,
				"element": "H" 
			},
			{
				"x": 3.9843033251,
				"y": 1.9765345433,
				"z": -3.5082047005,
				"element": "H" 
			},
			{
				"x": 5.2504318413,
				"y": 1.6709569521,
				"z": -2.2988941185,
				"element": "H" 
			},
			{
				"x": 1.6506294728,
				"y": 0.4265538799,
				"z": -0.1183328772,
				"element": "H" 
			},
			{
				"x": -0.6031858572,
				"y": 2.5843865974,
				"z": 2.8350680214,
				"element": "H" 
			},
			{
				"x": 0.5405206571,
				"y": 4.7073170386,
				"z": 2.1562381817,
				"element": "H" 
			},
			{
				"x": 2.2412833392,
				"y": 4.6532498831,
				"z": 0.3239594386,
				"element": "H" 
			},
			{
				"x": -2.1516332361,
				"y": 0.4564227087,
				"z": -0.9196131046,
				"element": "H" 
			},
			{
				"x": -2.4240123491,
				"y": 0.9446414321,
				"z": 0.75321544,
				"element": "H" 
			},
			{
				"x": -4.4234774633,
				"y": -0.2391412576,
				"z": -0.0908742305,
				"element": "H" 
			},
			{
				"x": -3.6605696522,
				"y": -1.1430071163,
				"z": 1.2085826284,
				"element": "H" 
			},
			{
				"x": -3.9561841283,
				"y": -2.8857321456,
				"z": -0.352809846,
				"element": "H" 
			},
			{
				"x": -3.8175646526,
				"y": -1.8290274844,
				"z": -1.746750803,
				"element": "H" 
			},
			{
				"x": -1.8117488808,
				"y": -3.5159998049,
				"z": -1.1529796607,
				"element": "H" 
			},
			{
				"x": -1.4586115213,
				"y": -1.916637734,
				"z": -1.7869236716,
				"element": "H" 
			},
			{
				"x": -0.0488858396,
				"y": -2.4646886024,
				"z": 0.2126952441,
				"element": "H" 
			},
			{
				"x": -1.5108273279,
				"y": -2.6467422201,
				"z": 1.1829630717,
				"element": "H" 
			}
		],
		 "valence_orbital": [ 
			{
				"type": "occ",
				"energy": -0.29485,
				"method": "rhf"
			},
			{
				"type": "occ",
				"energy": -0.2817,
				"method": "rhf"
			},
			{
				"type": "occ",
				"energy": -0.27776,
				"method": "rhf"
			},
			{
				"type": "occ",
				"energy": -0.27548,
				"method": "rhf"
			},
			{
				"type": "occ",
				"energy": -0.24213,
				"method": "rhf"
			},
			{
				"type": "unocc",
				"energy": -0.05893,
				"method": "rhf"
			},
			{
				"type": "unocc",
				"energy": -0.03865,
				"method": "rhf"
			},
			{
				"type": "unocc",
				"energy": 0.03819,
				"method": "rhf"
			},
			{
				"type": "unocc",
				"energy": 0.05877,
				"method": "rhf"
			},
			{
				"type": "unocc",
				"energy": 0.07581,
				"method": "rhf"
			}
		],
		"cosmo_sigma_profile": { 
			"-0.025": 0.0,
			"-0.024": 0.0,
			"-0.023": 0.0,
			"-0.022": 0.0,
			"-0.021": 0.0,
			"-0.02": 0.0,
			"-0.019": 0.0,
			"-0.018": 0.0,
			"-0.017": 0.0,
			"-0.016": 0.0,
			"-0.015": 0.0,
			"-0.014": 0.0,
			"-0.013": 0.0,
			"-0.012": 0.0,
			"-0.011": 0.0,
			"-0.01": 0.0,
			"-0.009": 0.0,
			"-0.008": 0.887398722734,
			"-0.007": 5.9707698093,
			"-0.006": 12.810801092,
			"-0.005": 14.47640315,
			"-0.004": 31.700894796,
			"-0.003": 43.5289140513,
			"-0.002": 40.264138461,
			"-0.001": 30.3043651248,
			"0.0": 30.1092719086,
			"0.001": 23.9566713008,
			"0.002": 13.0076088056,
			"0.003": 7.03309072904,
			"0.004": 7.5391767817,
			"0.005": 6.93767369304,
			"0.006": 4.28716633535,
			"0.007": 3.45162484618,
			"0.008": 4.38758496878,
			"0.009": 5.43020331501,
			"0.01": 8.18958055581,
			"0.011": 11.7671099097,
			"0.012": 7.39024606303,
			"0.013": 0.0582384362931,
			"0.014": 0.0,
			"0.015": 0.0,
			"0.016": 0.0,
			"0.017": 0.0,
			"0.018": 0.0,
			"0.019": 0.0,
			"0.02": 0.0,
			"0.021": 0.0,
			"0.022": 0.0,
			"0.023": 0.0,
			"0.024": 0.0,
			"0.025": 0.0
		}
	}
}
