{
	 "smiles": "ClC1=CC=C(C=C1)C(C(=O)C1C(=O)C2=CC=CC=C2C1=O)C1=CC=CC=C1", 
	 "Tm": 413.15, 
	 "num_atms": 42, 
	 "gaussian": { 
		 "optdone": 1, 
		 "sigma_profile": "yes", 
		 "theory": "DFT", 
		 "functional": "B3LYP", 
		 "basiset": "6-31G**", 
		 "properties": { 
			 "R2extent": 12374.3357, 
			 "electric_dipole_moment_norm": 4.28939432205, 
			 "electric_quadrupole_moment_norm": 26.5400538261, 
			 "total_energy": -1571.34884187, 
			 "HOMO_LUMO_gap": 0.14819, 
			 "cosmo_polarized_energy": -17.79, 
			 "cosmo_cavitation_energy": 49.75, 
			 "cosmo_dispersion_energy": -32.98, 
			 "cosmo_repulsion_energy": 2.49, 
			 "cosmo_total_nonelectrostatic_energy": 19.26, 
			 "SMD_solvation_energy": 9.25 
		},
		"coords": [
			{
				"x": 0.3923435719,
				"y": 4.8356199094,
				"z": 3.3852419588,
				"element": "Cl" 
			},
			{
				"x": 0.5297671139,
				"y": 3.4631322991,
				"z": 2.2957111388,
				"element": "C" 
			},
			{
				"x": 1.7816729673,
				"y": 3.1134792477,
				"z": 1.7874242957,
				"element": "C" 
			},
			{
				"x": 1.8830739035,
				"y": 2.0218730158,
				"z": 0.9287445839,
				"element": "C" 
			},
			{
				"x": 0.7529929857,
				"y": 1.2767086385,
				"z": 0.5624547746,
				"element": "C" 
			},
			{
				"x": -0.4910998038,
				"y": 1.6484361524,
				"z": 1.0898722522,
				"element": "C" 
			},
			{
				"x": -0.6089423796,
				"y": 2.7372973259,
				"z": 1.9566629755,
				"element": "C" 
			},
			{
				"x": 0.9117634566,
				"y": 0.1091411679,
				"z": -0.4142235274,
				"element": "C" 
			},
			{
				"x": -0.167629065,
				"y": -0.9502724928,
				"z": -0.1479909188,
				"element": "C" 
			},
			{
				"x": -1.1159770046,
				"y": -1.1550988551,
				"z": -0.8721817881,
				"element": "O" 
			},
			{
				"x": 0.0544455435,
				"y": -1.7884309534,
				"z": 1.125949572,
				"element": "C" 
			},
			{
				"x": -1.2445777799,
				"y": -2.4206926776,
				"z": 1.6527897203,
				"element": "C" 
			},
			{
				"x": -2.2030432576,
				"y": -1.8171697983,
				"z": 2.0873673994,
				"element": "O" 
			},
			{
				"x": -1.0937670184,
				"y": -3.8978231525,
				"z": 1.5524901269,
				"element": "C" 
			},
			{
				"x": -2.0170821336,
				"y": -4.8910486851,
				"z": 1.8783619026,
				"element": "C" 
			},
			{
				"x": -1.6320459982,
				"y": -6.2207628936,
				"z": 1.7063485322,
				"element": "C" 
			},
			{
				"x": -0.3525925672,
				"y": -6.548917458,
				"z": 1.2228963344,
				"element": "C" 
			},
			{
				"x": 0.5700495495,
				"y": -5.5542206472,
				"z": 0.9000004563,
				"element": "C" 
			},
			{
				"x": 0.18022462,
				"y": -4.2250521529,
				"z": 1.0708071562,
				"element": "C" 
			},
			{
				"x": 0.9668589073,
				"y": -2.9935068951,
				"z": 0.8058115609,
				"element": "C" 
			},
			{
				"x": 2.1115006725,
				"y": -2.9295592778,
				"z": 0.4001781679,
				"element": "O" 
			},
			{
				"x": 0.9619971459,
				"y": 0.5348237823,
				"z": -1.8747680883,
				"element": "C" 
			},
			{
				"x": -0.0066157829,
				"y": 1.3809639983,
				"z": -2.428907803,
				"element": "C" 
			},
			{
				"x": 0.0561918991,
				"y": 1.7420326419,
				"z": -3.7740041693,
				"element": "C" 
			},
			{
				"x": 1.088755951,
				"y": 1.2640042058,
				"z": -4.5844035098,
				"element": "C" 
			},
			{
				"x": 2.0567307359,
				"y": 0.4190043856,
				"z": -4.0413501446,
				"element": "C" 
			},
			{
				"x": 1.9908534627,
				"y": 0.0563728291,
				"z": -2.6947441039,
				"element": "C" 
			},
			{
				"x": 2.660484595,
				"y": 3.6857277016,
				"z": 2.0633839989,
				"element": "H" 
			},
			{
				"x": 2.8563684946,
				"y": 1.7501530788,
				"z": 0.5291637661,
				"element": "H" 
			},
			{
				"x": -1.3838397472,
				"y": 1.0812501446,
				"z": 0.8423324747,
				"element": "H" 
			},
			{
				"x": -1.5745410364,
				"y": 3.014142891,
				"z": 2.3648527853,
				"element": "H" 
			},
			{
				"x": 1.8611755848,
				"y": -0.3877099075,
				"z": -0.1738596813,
				"element": "H" 
			},
			{
				"x": 0.5260439098,
				"y": -1.1621441497,
				"z": 1.890830065,
				"element": "H" 
			},
			{
				"x": -3.0005568977,
				"y": -4.6234074744,
				"z": 2.2510177762,
				"element": "H" 
			},
			{
				"x": -2.3276625855,
				"y": -7.0188392105,
				"z": 1.9486547239,
				"element": "H" 
			},
			{
				"x": -0.0834908254,
				"y": -7.593916806,
				"z": 1.1006409794,
				"element": "H" 
			},
			{
				"x": 1.560688483,
				"y": -5.7922967899,
				"z": 0.52620717,
				"element": "H" 
			},
			{
				"x": -0.8087410703,
				"y": 1.7631866564,
				"z": -1.8057739504,
				"element": "H" 
			},
			{
				"x": -0.7022589822,
				"y": 2.3990075252,
				"z": -4.1902104661,
				"element": "H" 
			},
			{
				"x": 1.1378020663,
				"y": 1.5496538496,
				"z": -5.6312895378,
				"element": "H" 
			},
			{
				"x": 2.8639900152,
				"y": 0.0415701314,
				"z": -4.662679539,
				"element": "H" 
			},
			{
				"x": 2.7423883004,
				"y": -0.6093113008,
				"z": -2.2769094204,
				"element": "H" 
			}
		],
		 "valence_orbital": [ 
			{
				"type": "occ",
				"energy": -0.26512,
				"method": "rhf"
			},
			{
				"type": "occ",
				"energy": -0.25808,
				"method": "rhf"
			},
			{
				"type": "occ",
				"energy": -0.25035,
				"method": "rhf"
			},
			{
				"type": "occ",
				"energy": -0.2444,
				"method": "rhf"
			},
			{
				"type": "occ",
				"energy": -0.23745,
				"method": "rhf"
			},
			{
				"type": "unocc",
				"energy": -0.08926,
				"method": "rhf"
			},
			{
				"type": "unocc",
				"energy": -0.07101,
				"method": "rhf"
			},
			{
				"type": "unocc",
				"energy": -0.0365,
				"method": "rhf"
			},
			{
				"type": "unocc",
				"energy": -0.02127,
				"method": "rhf"
			},
			{
				"type": "unocc",
				"energy": -0.01669,
				"method": "rhf"
			}
		],
		"cosmo_sigma_profile": { 
			"-0.025": 0.0,
			"-0.024": 0.0,
			"-0.023": 0.0,
			"-0.022": 0.0,
			"-0.021": 0.0,
			"-0.02": 0.0,
			"-0.019": 0.0,
			"-0.018": 0.0,
			"-0.017": 0.0,
			"-0.016": 0.0,
			"-0.015": 0.0,
			"-0.014": 0.0,
			"-0.013": 0.0,
			"-0.012": 0.0,
			"-0.011": 0.0,
			"-0.01": 0.686060524562,
			"-0.009": 2.79810923286,
			"-0.008": 7.14623902086,
			"-0.007": 18.4076780313,
			"-0.006": 23.3404770735,
			"-0.005": 28.9784094381,
			"-0.004": 27.7439349796,
			"-0.003": 26.9908665816,
			"-0.002": 24.6954517784,
			"-0.001": 27.8399754669,
			"0.0": 32.3653562725,
			"0.001": 34.2559586794,
			"0.002": 29.6649797804,
			"0.003": 27.8680529494,
			"0.004": 22.7441476789,
			"0.005": 17.0987454823,
			"0.006": 11.0518935824,
			"0.007": 6.53574024466,
			"0.008": 6.24844747368,
			"0.009": 7.10254390045,
			"0.01": 11.2995193717,
			"0.011": 7.2121270639,
			"0.012": 0.165236628554,
			"0.013": 0.0,
			"0.014": 0.0,
			"0.015": 0.0,
			"0.016": 0.0,
			"0.017": 0.0,
			"0.018": 0.0,
			"0.019": 0.0,
			"0.02": 0.0,
			"0.021": 0.0,
			"0.022": 0.0,
			"0.023": 0.0,
			"0.024": 0.0,
			"0.025": 0.0
		}
	}
}
