{
	 "smiles": "OC(=O)C1=C(F)C(Cl)=CC(=C1)C(F)(F)F", 
	 "Tm": 363.15, 
	 "num_atms": 18, 
	 "gaussian": { 
		 "optdone": 1, 
		 "sigma_profile": "yes", 
		 "theory": "DFT", 
		 "functional": "B3LYP", 
		 "basiset": "6-31G**", 
		 "properties": { 
			 "R2extent": 4863.7769, 
			 "electric_dipole_moment_norm": 3.37187797674, 
			 "electric_quadrupole_moment_norm": 13.5669642142, 
			 "total_energy": -1316.66497141, 
			 "HOMO_LUMO_gap": 0.20273, 
			 "cosmo_polarized_energy": -10.67, 
			 "cosmo_cavitation_energy": 27.04, 
			 "cosmo_dispersion_energy": -19.48, 
			 "cosmo_repulsion_energy": 1.44, 
			 "cosmo_total_nonelectrostatic_energy": 9.0, 
			 "SMD_solvation_energy": 7.13 
		},
		"coords": [
			{
				"x": -1.2418794375,
				"y": 4.2211114932,
				"z": -0.2229621363,
				"element": "O" 
			},
			{
				"x": -1.9598579364,
				"y": 3.2154051221,
				"z": -0.7539729536,
				"element": "C" 
			},
			{
				"x": -3.0907222376,
				"y": 3.3969224748,
				"z": -1.1384311473,
				"element": "O" 
			},
			{
				"x": -1.3125907877,
				"y": 1.8509194108,
				"z": -0.8578805938,
				"element": "C" 
			},
			{
				"x": -0.0189255675,
				"y": 1.5300797087,
				"z": -0.4395681909,
				"element": "C" 
			},
			{
				"x": 0.7725270223,
				"y": 2.4829721565,
				"z": 0.1117406122,
				"element": "F" 
			},
			{
				"x": 0.5035840756,
				"y": 0.2415766645,
				"z": -0.5638791946,
				"element": "C" 
			},
			{
				"x": 2.1205415741,
				"y": -0.0921743138,
				"z": -0.0144430941,
				"element": "Cl" 
			},
			{
				"x": -0.2821603406,
				"y": -0.7609758905,
				"z": -1.1234978913,
				"element": "C" 
			},
			{
				"x": -1.5786598453,
				"y": -0.4609561722,
				"z": -1.5506260311,
				"element": "C" 
			},
			{
				"x": -2.0866967405,
				"y": 0.8272450707,
				"z": -1.4184743391,
				"element": "C" 
			},
			{
				"x": -2.4065369213,
				"y": -1.5370874481,
				"z": -2.2092729314,
				"element": "C" 
			},
			{
				"x": -2.1084123361,
				"y": -2.7583246791,
				"z": -1.7158222048,
				"element": "F" 
			},
			{
				"x": -3.7248594525,
				"y": -1.3281003636,
				"z": -2.0310011032,
				"element": "F" 
			},
			{
				"x": -2.1818158301,
				"y": -1.5808809426,
				"z": -3.5400983334,
				"element": "F" 
			},
			{
				"x": -0.3579510604,
				"y": 3.9215547863,
				"z": 0.0389244616,
				"element": "H" 
			},
			{
				"x": 0.1142540174,
				"y": -1.7652399374,
				"z": -1.2146883534,
				"element": "H" 
			},
			{
				"x": -3.0925381959,
				"y": 1.0754528597,
				"z": -1.7359465757,
				"element": "H" 
			}
		],
		 "valence_orbital": [ 
			{
				"type": "occ",
				"energy": -0.34808,
				"method": "rhf"
			},
			{
				"type": "occ",
				"energy": -0.3315,
				"method": "rhf"
			},
			{
				"type": "occ",
				"energy": -0.30203,
				"method": "rhf"
			},
			{
				"type": "occ",
				"energy": -0.29491,
				"method": "rhf"
			},
			{
				"type": "occ",
				"energy": -0.28613,
				"method": "rhf"
			},
			{
				"type": "unocc",
				"energy": -0.0834,
				"method": "rhf"
			},
			{
				"type": "unocc",
				"energy": -0.05724,
				"method": "rhf"
			},
			{
				"type": "unocc",
				"energy": -0.0101,
				"method": "rhf"
			},
			{
				"type": "unocc",
				"energy": 0.01905,
				"method": "rhf"
			},
			{
				"type": "unocc",
				"energy": 0.07808,
				"method": "rhf"
			}
		],
		"cosmo_sigma_profile": { 
			"-0.025": 0.0,
			"-0.024": 0.0,
			"-0.023": 0.0,
			"-0.022": 0.0,
			"-0.021": 0.0,
			"-0.02": 0.0,
			"-0.019": 0.0,
			"-0.018": 0.0,
			"-0.017": 0.0,
			"-0.016": 0.0,
			"-0.015": 0.0929578144363,
			"-0.014": 0.580525769061,
			"-0.013": 0.738776768482,
			"-0.012": 1.36267354048,
			"-0.011": 2.5027024715,
			"-0.01": 2.19158888092,
			"-0.009": 2.71774593374,
			"-0.008": 3.40539012421,
			"-0.007": 4.95304575233,
			"-0.006": 6.06038322364,
			"-0.005": 7.916288951,
			"-0.004": 12.2002604359,
			"-0.003": 15.8594434275,
			"-0.002": 23.7725778422,
			"-0.001": 17.2530272332,
			"0.0": 13.8943703036,
			"0.001": 16.5094191953,
			"0.002": 35.9300912343,
			"0.003": 24.8148799857,
			"0.004": 2.70520891977,
			"0.005": 1.40178825746,
			"0.006": 2.48485864638,
			"0.007": 2.53781560466,
			"0.008": 3.12040510211,
			"0.009": 4.15786023816,
			"0.01": 5.40533967826,
			"0.011": 4.24984778179,
			"0.012": 2.07220198234,
			"0.013": 0.239626342594,
			"0.014": 0.0,
			"0.015": 0.0,
			"0.016": 0.0,
			"0.017": 0.0,
			"0.018": 0.0,
			"0.019": 0.0,
			"0.02": 0.0,
			"0.021": 0.0,
			"0.022": 0.0,
			"0.023": 0.0,
			"0.024": 0.0,
			"0.025": 0.0
		}
	}
}
