{
	 "smiles": "CC(C1CC1)N1N=C(C=C1C)C(O)=O", 
	 "Tm": 404.15, 
	 "num_atms": 28, 
	 "gaussian": { 
		 "optdone": 1, 
		 "sigma_profile": "yes", 
		 "theory": "DFT", 
		 "functional": "B3LYP", 
		 "basiset": "6-31G**", 
		 "properties": { 
			 "R2extent": 4016.2602, 
			 "electric_dipole_moment_norm": 7.46057919132, 
			 "electric_quadrupole_moment_norm": 28.0716316307, 
			 "total_energy": -649.429598413, 
			 "HOMO_LUMO_gap": 0.22828, 
			 "cosmo_polarized_energy": -14.97, 
			 "cosmo_cavitation_energy": 31.16, 
			 "cosmo_dispersion_energy": -21.56, 
			 "cosmo_repulsion_energy": 1.72, 
			 "cosmo_total_nonelectrostatic_energy": 11.33, 
			 "SMD_solvation_energy": 5.89 
		},
		"coords": [
			{
				"x": -1.9414333661,
				"y": -2.0366179229,
				"z": -0.8505037289,
				"element": "C" 
			},
			{
				"x": -1.7527629393,
				"y": -0.8024445461,
				"z": 0.0369836452,
				"element": "C" 
			},
			{
				"x": -0.5921549071,
				"y": -0.8568135066,
				"z": 1.026464168,
				"element": "C" 
			},
			{
				"x": 0.7114355154,
				"y": -1.5552743386,
				"z": 0.7376884294,
				"element": "C" 
			},
			{
				"x": -0.2239174783,
				"y": -2.11074599,
				"z": 1.7840715102,
				"element": "C" 
			},
			{
				"x": -1.6270479144,
				"y": 0.4016990143,
				"z": -0.8069833823,
				"element": "N" 
			},
			{
				"x": -0.6546863133,
				"y": 0.4654895831,
				"z": -1.7330247704,
				"element": "N" 
			},
			{
				"x": -0.7822556051,
				"y": 1.6730103786,
				"z": -2.2929714648,
				"element": "C" 
			},
			{
				"x": -1.8454821973,
				"y": 2.3975365916,
				"z": -1.720553265,
				"element": "C" 
			},
			{
				"x": -2.3746902455,
				"y": 1.5538575281,
				"z": -0.7601260959,
				"element": "C" 
			},
			{
				"x": -3.5219350619,
				"y": 1.7613951834,
				"z": 0.1787327111,
				"element": "C" 
			},
			{
				"x": 0.1444213713,
				"y": 2.0833305832,
				"z": -3.3764481514,
				"element": "C" 
			},
			{
				"x": 1.0730168745,
				"y": 1.151243994,
				"z": -3.6945902734,
				"element": "O" 
			},
			{
				"x": 0.0900377486,
				"y": 3.1539041981,
				"z": -3.937082056,
				"element": "O" 
			},
			{
				"x": -1.0813242292,
				"y": -2.1837637233,
				"z": -1.5063976971,
				"element": "H" 
			},
			{
				"x": -2.8262572787,
				"y": -1.91032886,
				"z": -1.4801859285,
				"element": "H" 
			},
			{
				"x": -2.0846769578,
				"y": -2.9330806072,
				"z": -0.2420455358,
				"element": "H" 
			},
			{
				"x": -2.6719481017,
				"y": -0.6493831818,
				"z": 0.6118022549,
				"element": "H" 
			},
			{
				"x": -0.5058035818,
				"y": 0.0670950204,
				"z": 1.5953847135,
				"element": "H" 
			},
			{
				"x": 1.6267993864,
				"y": -1.0691080311,
				"z": 1.0598178624,
				"element": "H" 
			},
			{
				"x": 0.8084280157,
				"y": -2.1033780984,
				"z": -0.1934242033,
				"element": "H" 
			},
			{
				"x": 0.041932661,
				"y": -2.0064339286,
				"z": 2.831578925,
				"element": "H" 
			},
			{
				"x": -0.7462297564,
				"y": -3.0343433134,
				"z": 1.5544704805,
				"element": "H" 
			},
			{
				"x": -2.1735306741,
				"y": 3.392246971,
				"z": -1.9795797107,
				"element": "H" 
			},
			{
				"x": -4.3262253128,
				"y": 1.0345538253,
				"z": 0.0171023091,
				"element": "H" 
			},
			{
				"x": -3.9403533077,
				"y": 2.7575016428,
				"z": 0.0209159444,
				"element": "H" 
			},
			{
				"x": -3.2168980563,
				"y": 1.691960671,
				"z": 1.229038765,
				"element": "H" 
			},
			{
				"x": 0.9268417119,
				"y": 0.3809908628,
				"z": -3.1164354552,
				"element": "H" 
			}
		],
		 "valence_orbital": [ 
			{
				"type": "occ",
				"energy": -0.29955,
				"method": "rhf"
			},
			{
				"type": "occ",
				"energy": -0.29803,
				"method": "rhf"
			},
			{
				"type": "occ",
				"energy": -0.25863,
				"method": "rhf"
			},
			{
				"type": "occ",
				"energy": -0.25795,
				"method": "rhf"
			},
			{
				"type": "occ",
				"energy": -0.25288,
				"method": "rhf"
			},
			{
				"type": "unocc",
				"energy": -0.0246,
				"method": "rhf"
			},
			{
				"type": "unocc",
				"energy": 0.02338,
				"method": "rhf"
			},
			{
				"type": "unocc",
				"energy": 0.06466,
				"method": "rhf"
			},
			{
				"type": "unocc",
				"energy": 0.07891,
				"method": "rhf"
			},
			{
				"type": "unocc",
				"energy": 0.09107,
				"method": "rhf"
			}
		],
		"cosmo_sigma_profile": { 
			"-0.025": 0.0,
			"-0.024": 0.0,
			"-0.023": 0.0,
			"-0.022": 0.0,
			"-0.021": 0.0,
			"-0.02": 0.0,
			"-0.019": 0.0,
			"-0.018": 0.0,
			"-0.017": 0.0,
			"-0.016": 0.0,
			"-0.015": 0.0,
			"-0.014": 0.388033517061,
			"-0.013": 0.513947726492,
			"-0.012": 0.228543615376,
			"-0.011": 0.674438483014,
			"-0.01": 0.755035985352,
			"-0.009": 0.517523762011,
			"-0.008": 0.703116365987,
			"-0.007": 2.59693292293,
			"-0.006": 12.3563735384,
			"-0.005": 20.847205689,
			"-0.004": 25.2571489235,
			"-0.003": 23.1883708183,
			"-0.002": 25.2364636933,
			"-0.001": 21.7639435095,
			"0.0": 18.7927382128,
			"0.001": 13.7516539352,
			"0.002": 14.2742275583,
			"0.003": 12.7409733287,
			"0.004": 10.0018061323,
			"0.005": 6.82662837666,
			"0.006": 5.5301239531,
			"0.007": 2.78412320054,
			"0.008": 4.00317472504,
			"0.009": 3.11743936182,
			"0.01": 4.72987991833,
			"0.011": 5.29617924219,
			"0.012": 5.93058124197,
			"0.013": 2.68190570516,
			"0.014": 0.274959279718,
			"0.015": 0.0,
			"0.016": 0.0,
			"0.017": 0.0,
			"0.018": 0.0,
			"0.019": 0.0,
			"0.02": 0.0,
			"0.021": 0.0,
			"0.022": 0.0,
			"0.023": 0.0,
			"0.024": 0.0,
			"0.025": 0.0
		}
	}
}
