{
	 "smiles": "CN1CCCN(CC1)C1=CC=C(C=O)C=C1", 
	 "Tm": 318.15, 
	 "num_atms": 34, 
	 "gaussian": { 
		 "optdone": 1, 
		 "sigma_profile": "yes", 
		 "theory": "DFT", 
		 "functional": "B3LYP", 
		 "basiset": "6-31G**", 
		 "properties": { 
			 "R2extent": 4514.1885, 
			 "electric_dipole_moment_norm": 5.88582866723, 
			 "electric_quadrupole_moment_norm": 20.8991388564, 
			 "total_energy": -690.933578943, 
			 "HOMO_LUMO_gap": 0.15856, 
			 "cosmo_polarized_energy": -12.63, 
			 "cosmo_cavitation_energy": 33.87, 
			 "cosmo_dispersion_energy": -24.3, 
			 "cosmo_repulsion_energy": 1.85, 
			 "cosmo_total_nonelectrostatic_energy": 11.42, 
			 "SMD_solvation_energy": 3.58 
		},
		"coords": [
			{
				"x": -0.0328710128,
				"y": -0.1304373417,
				"z": 2.5963566053,
				"element": "C" 
			},
			{
				"x": -0.7427583937,
				"y": 1.1405727896,
				"z": 2.6035988441,
				"element": "N" 
			},
			{
				"x": 0.0824423463,
				"y": 2.3065152592,
				"z": 2.3172593418,
				"element": "C" 
			},
			{
				"x": 0.7917532123,
				"y": 2.3416700864,
				"z": 0.9407861943,
				"element": "C" 
			},
			{
				"x": -0.1572986969,
				"y": 2.4809601662,
				"z": -0.2587494942,
				"element": "C" 
			},
			{
				"x": -1.2259491408,
				"y": 1.4818255299,
				"z": -0.2992983879,
				"element": "N" 
			},
			{
				"x": -2.3047384505,
				"y": 1.729462029,
				"z": 0.6499161102,
				"element": "C" 
			},
			{
				"x": -2.09793487,
				"y": 1.1216137202,
				"z": 2.0666570464,
				"element": "C" 
			},
			{
				"x": -1.0617313692,
				"y": 0.2522881422,
				"z": -0.9106516759,
				"element": "C" 
			},
			{
				"x": -2.0918269647,
				"y": -0.7284153261,
				"z": -0.8720162171,
				"element": "C" 
			},
			{
				"x": -1.9532536187,
				"y": -1.9386068583,
				"z": -1.525284053,
				"element": "C" 
			},
			{
				"x": -0.7842448833,
				"y": -2.2516881,
				"z": -2.2400505395,
				"element": "C" 
			},
			{
				"x": -0.6385932064,
				"y": -3.5393882536,
				"z": -2.9268392344,
				"element": "C" 
			},
			{
				"x": -1.4789019999,
				"y": -4.4246389916,
				"z": -2.9479200024,
				"element": "O" 
			},
			{
				"x": 0.2445525269,
				"y": -1.3001505189,
				"z": -2.2673769898,
				"element": "C" 
			},
			{
				"x": 0.1224536089,
				"y": -0.0806493587,
				"z": -1.6182565117,
				"element": "C" 
			},
			{
				"x": 0.24756258,
				"y": -0.5098980993,
				"z": 1.5996618731,
				"element": "H" 
			},
			{
				"x": 0.885621809,
				"y": -0.0300122002,
				"z": 3.1863955178,
				"element": "H" 
			},
			{
				"x": -0.6475803916,
				"y": -0.8961288505,
				"z": 3.0807414073,
				"element": "H" 
			},
			{
				"x": -0.5375932965,
				"y": 3.2055699107,
				"z": 2.4366140983,
				"element": "H" 
			},
			{
				"x": 0.857102754,
				"y": 2.3674308067,
				"z": 3.0937050469,
				"element": "H" 
			},
			{
				"x": 1.4921756282,
				"y": 3.1879874423,
				"z": 0.9271464442,
				"element": "H" 
			},
			{
				"x": 1.398295006,
				"y": 1.4357271628,
				"z": 0.8265696713,
				"element": "H" 
			},
			{
				"x": 0.399393808,
				"y": 2.4571108168,
				"z": -1.1984328218,
				"element": "H" 
			},
			{
				"x": -0.6425092736,
				"y": 3.4643565698,
				"z": -0.222747976,
				"element": "H" 
			},
			{
				"x": -3.2638016266,
				"y": 1.3895109438,
				"z": 0.2441177473,
				"element": "H" 
			},
			{
				"x": -2.3922370118,
				"y": 2.8163652449,
				"z": 0.7382051002,
				"element": "H" 
			},
			{
				"x": -2.7803267852,
				"y": 1.6681872077,
				"z": 2.7377375368,
				"element": "H" 
			},
			{
				"x": -2.4340952368,
				"y": 0.0806557566,
				"z": 2.0683993021,
				"element": "H" 
			},
			{
				"x": -3.0090138044,
				"y": -0.5332615739,
				"z": -0.3305107033,
				"element": "H" 
			},
			{
				"x": -2.7500731968,
				"y": -2.6756994039,
				"z": -1.494786852,
				"element": "H" 
			},
			{
				"x": 0.3337858516,
				"y": -3.6692609272,
				"z": -3.4563484838,
				"element": "H" 
			},
			{
				"x": 1.164705221,
				"y": -1.5249731932,
				"z": -2.8031726715,
				"element": "H" 
			},
			{
				"x": 0.9542888783,
				"y": 0.6110994122,
				"z": -1.654025273,
				"element": "H" 
			}
		],
		 "valence_orbital": [ 
			{
				"type": "occ",
				"energy": -0.29004,
				"method": "rhf"
			},
			{
				"type": "occ",
				"energy": -0.25679,
				"method": "rhf"
			},
			{
				"type": "occ",
				"energy": -0.23564,
				"method": "rhf"
			},
			{
				"type": "occ",
				"energy": -0.20582,
				"method": "rhf"
			},
			{
				"type": "occ",
				"energy": -0.19888,
				"method": "rhf"
			},
			{
				"type": "unocc",
				"energy": -0.04032,
				"method": "rhf"
			},
			{
				"type": "unocc",
				"energy": -0.00533,
				"method": "rhf"
			},
			{
				"type": "unocc",
				"energy": 0.0559,
				"method": "rhf"
			},
			{
				"type": "unocc",
				"energy": 0.07253,
				"method": "rhf"
			},
			{
				"type": "unocc",
				"energy": 0.08265,
				"method": "rhf"
			}
		],
		"cosmo_sigma_profile": { 
			"-0.025": 0.0,
			"-0.024": 0.0,
			"-0.023": 0.0,
			"-0.022": 0.0,
			"-0.021": 0.0,
			"-0.02": 0.0,
			"-0.019": 0.0,
			"-0.018": 0.0,
			"-0.017": 0.0,
			"-0.016": 0.0,
			"-0.015": 0.0,
			"-0.014": 0.0,
			"-0.013": 0.0,
			"-0.012": 0.0,
			"-0.011": 0.0,
			"-0.01": 0.0,
			"-0.009": 0.0,
			"-0.008": 0.287911106772,
			"-0.007": 3.69397554539,
			"-0.006": 11.5047473312,
			"-0.005": 17.5506853758,
			"-0.004": 22.4853904751,
			"-0.003": 34.6767821738,
			"-0.002": 32.8079777012,
			"-0.001": 27.0844670402,
			"0.0": 22.9704680781,
			"0.001": 15.1092318119,
			"0.002": 12.8617417579,
			"0.003": 11.0780745816,
			"0.004": 13.8212412848,
			"0.005": 12.5118362129,
			"0.006": 3.06715951921,
			"0.007": 2.21543274345,
			"0.008": 2.46034635967,
			"0.009": 2.63284428939,
			"0.01": 2.51212619931,
			"0.011": 2.57991616215,
			"0.012": 4.80734793459,
			"0.013": 4.75742570142,
			"0.014": 1.60598342207,
			"0.015": 0.384732647199,
			"0.016": 0.0,
			"0.017": 0.0,
			"0.018": 0.0,
			"0.019": 0.0,
			"0.02": 0.0,
			"0.021": 0.0,
			"0.022": 0.0,
			"0.023": 0.0,
			"0.024": 0.0,
			"0.025": 0.0
		}
	}
}
