{
	 "smiles": "CCOC(=O)C(=CNC1=CC=CC=C1Cl)C#N", 
	 "Tm": 439.15, 
	 "num_atms": 28, 
	 "gaussian": { 
		 "optdone": 1, 
		 "sigma_profile": "yes", 
		 "theory": "DFT", 
		 "functional": "B3LYP", 
		 "basiset": "6-31G**", 
		 "properties": { 
			 "R2extent": 6235.9846, 
			 "electric_dipole_moment_norm": 9.39094083519, 
			 "electric_quadrupole_moment_norm": 25.7156687457, 
			 "total_energy": -1184.03691753, 
			 "HOMO_LUMO_gap": 0.17033, 
			 "cosmo_polarized_energy": -19.89, 
			 "cosmo_cavitation_energy": 35.86, 
			 "cosmo_dispersion_energy": -24.56, 
			 "cosmo_repulsion_energy": 1.95, 
			 "cosmo_total_nonelectrostatic_energy": 13.25, 
			 "SMD_solvation_energy": 8.41 
		},
		"coords": [
			{
				"x": 2.7933228221,
				"y": 0.9512572882,
				"z": 2.3820269823,
				"element": "C" 
			},
			{
				"x": 2.3099683285,
				"y": -0.3180820565,
				"z": 1.6988136291,
				"element": "C" 
			},
			{
				"x": 1.5580145139,
				"y": -0.0180272003,
				"z": 0.4930096579,
				"element": "O" 
			},
			{
				"x": 2.3000646599,
				"y": 0.1815284303,
				"z": -0.6464781155,
				"element": "C" 
			},
			{
				"x": 3.5088080638,
				"y": 0.0905818945,
				"z": -0.6652680315,
				"element": "O" 
			},
			{
				"x": 1.459258521,
				"y": 0.5033674482,
				"z": -1.813693783,
				"element": "C" 
			},
			{
				"x": 0.0882966874,
				"y": 0.6418262994,
				"z": -1.8315328033,
				"element": "C" 
			},
			{
				"x": -0.7534281793,
				"y": 0.5032464273,
				"z": -0.7855328682,
				"element": "N" 
			},
			{
				"x": -2.1632043174,
				"y": 0.5892877917,
				"z": -0.8234581735,
				"element": "C" 
			},
			{
				"x": -2.8970517103,
				"y": -0.4006863145,
				"z": -0.150762229,
				"element": "C" 
			},
			{
				"x": -4.2869408754,
				"y": -0.3700545332,
				"z": -0.1125901274,
				"element": "C" 
			},
			{
				"x": -4.9773886143,
				"y": 0.6518475709,
				"z": -0.7662085482,
				"element": "C" 
			},
			{
				"x": -4.2685101833,
				"y": 1.6486173219,
				"z": -1.4327591478,
				"element": "C" 
			},
			{
				"x": -2.8727810379,
				"y": 1.6302801614,
				"z": -1.450377782,
				"element": "C" 
			},
			{
				"x": -2.0443139809,
				"y": 2.9726054121,
				"z": -2.2213404107,
				"element": "Cl" 
			},
			{
				"x": 2.1478803244,
				"y": 0.685212206,
				"z": -3.0522392365,
				"element": "C" 
			},
			{
				"x": 2.6763416598,
				"y": 0.8370149926,
				"z": -4.0783002065,
				"element": "N" 
			},
			{
				"x": 1.9565914805,
				"y": 1.6181563083,
				"z": 2.6107426867,
				"element": "H" 
			},
			{
				"x": 3.295264543,
				"y": 0.696078388,
				"z": 3.3212356698,
				"element": "H" 
			},
			{
				"x": 3.5059371039,
				"y": 1.4805170791,
				"z": 1.7454961443,
				"element": "H" 
			},
			{
				"x": 3.1457913854,
				"y": -0.9668456278,
				"z": 1.4303226561,
				"element": "H" 
			},
			{
				"x": 1.606333049,
				"y": -0.8719179354,
				"z": 2.3253466508,
				"element": "H" 
			},
			{
				"x": -0.3818173991,
				"y": 0.8789507162,
				"z": -2.778695918,
				"element": "H" 
			},
			{
				"x": -0.3202033727,
				"y": 0.2019068888,
				"z": 0.0821947426,
				"element": "H" 
			},
			{
				"x": -2.3521783339,
				"y": -1.2081632392,
				"z": 0.329924772,
				"element": "H" 
			},
			{
				"x": -4.8275249722,
				"y": -1.1500250368,
				"z": 0.4139498519,
				"element": "H" 
			},
			{
				"x": -6.0621034519,
				"y": 0.6812904081,
				"z": -0.7536275896,
				"element": "H" 
			},
			{
				"x": -4.7872267139,
				"y": 2.4613289107,
				"z": -1.9288984723,
				"element": "H" 
			}
		],
		 "valence_orbital": [ 
			{
				"type": "occ",
				"energy": -0.30958,
				"method": "rhf"
			},
			{
				"type": "occ",
				"energy": -0.28529,
				"method": "rhf"
			},
			{
				"type": "occ",
				"energy": -0.28247,
				"method": "rhf"
			},
			{
				"type": "occ",
				"energy": -0.27048,
				"method": "rhf"
			},
			{
				"type": "occ",
				"energy": -0.22927,
				"method": "rhf"
			},
			{
				"type": "unocc",
				"energy": -0.05894,
				"method": "rhf"
			},
			{
				"type": "unocc",
				"energy": -0.03691,
				"method": "rhf"
			},
			{
				"type": "unocc",
				"energy": -0.02069,
				"method": "rhf"
			},
			{
				"type": "unocc",
				"energy": 0.00908,
				"method": "rhf"
			},
			{
				"type": "unocc",
				"energy": 0.03308,
				"method": "rhf"
			}
		],
		"cosmo_sigma_profile": { 
			"-0.025": 0.0,
			"-0.024": 0.0,
			"-0.023": 0.0,
			"-0.022": 0.0,
			"-0.021": 0.0,
			"-0.02": 0.0,
			"-0.019": 0.0,
			"-0.018": 0.0,
			"-0.017": 0.0,
			"-0.016": 0.0,
			"-0.015": 0.0,
			"-0.014": 0.0,
			"-0.013": 0.36892360781,
			"-0.012": 1.0406564447,
			"-0.011": 1.29326439428,
			"-0.01": 2.14166188295,
			"-0.009": 2.91638406986,
			"-0.008": 4.37281608654,
			"-0.007": 10.1360470569,
			"-0.006": 12.8786881995,
			"-0.005": 18.1758456735,
			"-0.004": 21.6504448655,
			"-0.003": 21.7456870749,
			"-0.002": 25.5487885703,
			"-0.001": 24.9473438826,
			"0.0": 28.2516751022,
			"0.001": 21.7115872727,
			"0.002": 18.5447871463,
			"0.003": 18.154482415,
			"0.004": 10.5666621407,
			"0.005": 4.1483121428,
			"0.006": 2.94203836456,
			"0.007": 5.07963526629,
			"0.008": 5.38330705938,
			"0.009": 5.34745665026,
			"0.01": 5.85285771499,
			"0.011": 6.40091863639,
			"0.012": 6.48571034831,
			"0.013": 2.69535658307,
			"0.014": 1.18497367859,
			"0.015": 0.00138844306043,
			"0.016": 0.0,
			"0.017": 0.0,
			"0.018": 0.0,
			"0.019": 0.0,
			"0.02": 0.0,
			"0.021": 0.0,
			"0.022": 0.0,
			"0.023": 0.0,
			"0.024": 0.0,
			"0.025": 0.0
		}
	}
}
