{
	 "smiles": "NCCCN1CCN(CCCN)CC1", 
	 "Tm": 287.65, 
	 "num_atms": 38, 
	 "gaussian": { 
		 "optdone": 1, 
		 "sigma_profile": "yes", 
		 "theory": "DFT", 
		 "functional": "B3LYP", 
		 "basiset": "6-31G**", 
		 "properties": { 
			 "R2extent": 5412.5744, 
			 "electric_dipole_moment_norm": 2.10845196531, 
			 "electric_quadrupole_moment_norm": 18.2510462404, 
			 "total_energy": -614.506569315, 
			 "HOMO_LUMO_gap": 0.26111, 
			 "cosmo_polarized_energy": -13.44, 
			 "cosmo_cavitation_energy": 36.96, 
			 "cosmo_dispersion_energy": -26.44, 
			 "cosmo_repulsion_energy": 2.16, 
			 "cosmo_total_nonelectrostatic_energy": 12.68, 
			 "SMD_solvation_energy": -1.8 
		},
		"coords": [
			{
				"x": -1.5639580759,
				"y": 2.5216733537,
				"z": 4.5614259058,
				"element": "N" 
			},
			{
				"x": -1.7259028256,
				"y": 3.3246876204,
				"z": 3.3414769303,
				"element": "C" 
			},
			{
				"x": -0.4062656521,
				"y": 3.4601838215,
				"z": 2.5740456168,
				"element": "C" 
			},
			{
				"x": 0.1423171045,
				"y": 2.120464263,
				"z": 2.0641651453,
				"element": "C" 
			},
			{
				"x": 1.3762661503,
				"y": 2.2885390001,
				"z": 1.2895809527,
				"element": "N" 
			},
			{
				"x": 2.2924334678,
				"y": 1.1466978296,
				"z": 1.3176418685,
				"element": "C" 
			},
			{
				"x": 1.8797489527,
				"y": -0.0050831063,
				"z": 0.3869199649,
				"element": "C" 
			},
			{
				"x": 1.7353464116,
				"y": 0.5019554942,
				"z": -0.9762033421,
				"element": "N" 
			},
			{
				"x": 1.5772589878,
				"y": -0.5279283343,
				"z": -2.0001449471,
				"element": "C" 
			},
			{
				"x": 0.2998203687,
				"y": -1.3933637675,
				"z": -1.9627100717,
				"element": "C" 
			},
			{
				"x": 0.2702423168,
				"y": -2.4327863343,
				"z": -3.0957227773,
				"element": "C" 
			},
			{
				"x": -0.9056395148,
				"y": -3.3065349972,
				"z": -3.1458917591,
				"element": "N" 
			},
			{
				"x": 0.7600095127,
				"y": 1.5883412764,
				"z": -1.0451294819,
				"element": "C" 
			},
			{
				"x": 1.1796516635,
				"y": 2.7243451125,
				"z": -0.096353232,
				"element": "C" 
			},
			{
				"x": -2.3946676316,
				"y": 2.605881547,
				"z": 5.1416742791,
				"element": "H" 
			},
			{
				"x": -1.4920430794,
				"y": 1.5355308611,
				"z": 4.3235950854,
				"element": "H" 
			},
			{
				"x": -2.5042197907,
				"y": 2.9387245601,
				"z": 2.6566513829,
				"element": "H" 
			},
			{
				"x": -2.0541283635,
				"y": 4.3246376964,
				"z": 3.6474322045,
				"element": "H" 
			},
			{
				"x": -0.5701917158,
				"y": 4.1404528198,
				"z": 1.72864363,
				"element": "H" 
			},
			{
				"x": 0.3466930322,
				"y": 3.922410727,
				"z": 3.2207161251,
				"element": "H" 
			},
			{
				"x": -0.6536290621,
				"y": 1.587432449,
				"z": 1.5097985599,
				"element": "H" 
			},
			{
				"x": 0.386865648,
				"y": 1.4951830773,
				"z": 2.9302091771,
				"element": "H" 
			},
			{
				"x": 2.3843622472,
				"y": 0.7873435407,
				"z": 2.3483535696,
				"element": "H" 
			},
			{
				"x": 3.281240147,
				"y": 1.5017053887,
				"z": 0.9981110634,
				"element": "H" 
			},
			{
				"x": 2.657090019,
				"y": -0.7797055794,
				"z": 0.3923979675,
				"element": "H" 
			},
			{
				"x": 0.9519530944,
				"y": -0.4747380108,
				"z": 0.76951357,
				"element": "H" 
			},
			{
				"x": 2.4528545737,
				"y": -1.1889542056,
				"z": -1.9372734035,
				"element": "H" 
			},
			{
				"x": 1.6371924195,
				"y": -0.0295686505,
				"z": -2.977714851,
				"element": "H" 
			},
			{
				"x": 0.2264419713,
				"y": -1.9145143199,
				"z": -0.9984446701,
				"element": "H" 
			},
			{
				"x": -0.5904434251,
				"y": -0.7546078291,
				"z": -2.0413623557,
				"element": "H" 
			},
			{
				"x": 0.3451942089,
				"y": -1.9195324609,
				"z": -4.0635473079,
				"element": "H" 
			},
			{
				"x": 1.1588111562,
				"y": -3.0740640446,
				"z": -3.0255455564,
				"element": "H" 
			},
			{
				"x": -1.7481307,
				"y": -2.7406122454,
				"z": -3.2274860774,
				"element": "H" 
			},
			{
				"x": -0.9941429947,
				"y": -3.8104599129,
				"z": -2.2655843634,
				"element": "H" 
			},
			{
				"x": -0.2658880697,
				"y": 1.254829323,
				"z": -0.7940396371,
				"element": "H" 
			},
			{
				"x": 0.7280199701,
				"y": 1.9667020093,
				"z": -2.0746522653,
				"element": "H" 
			},
			{
				"x": 2.1287100512,
				"y": 3.1403910607,
				"z": -0.4582759292,
				"element": "H" 
			},
			{
				"x": 0.4370274258,
				"y": 3.5279409671,
				"z": -0.1246709707,
				"element": "H" 
			}
		],
		 "valence_orbital": [ 
			{
				"type": "occ",
				"energy": -0.3173,
				"method": "rhf"
			},
			{
				"type": "occ",
				"energy": -0.23738,
				"method": "rhf"
			},
			{
				"type": "occ",
				"energy": -0.2319,
				"method": "rhf"
			},
			{
				"type": "occ",
				"energy": -0.2121,
				"method": "rhf"
			},
			{
				"type": "occ",
				"energy": -0.18798,
				"method": "rhf"
			},
			{
				"type": "unocc",
				"energy": 0.07313,
				"method": "rhf"
			},
			{
				"type": "unocc",
				"energy": 0.08089,
				"method": "rhf"
			},
			{
				"type": "unocc",
				"energy": 0.08883,
				"method": "rhf"
			},
			{
				"type": "unocc",
				"energy": 0.10368,
				"method": "rhf"
			},
			{
				"type": "unocc",
				"energy": 0.10804,
				"method": "rhf"
			}
		],
		"cosmo_sigma_profile": { 
			"-0.025": 0.0,
			"-0.024": 0.0,
			"-0.023": 0.0,
			"-0.022": 0.0,
			"-0.021": 0.0,
			"-0.02": 0.0,
			"-0.019": 0.0,
			"-0.018": 0.0,
			"-0.017": 0.0,
			"-0.016": 0.0,
			"-0.015": 0.0,
			"-0.014": 0.0,
			"-0.013": 0.0,
			"-0.012": 0.0,
			"-0.011": 0.0,
			"-0.01": 0.482617407774,
			"-0.009": 3.81387816708,
			"-0.008": 5.69945654618,
			"-0.007": 5.15058688018,
			"-0.006": 6.02900354737,
			"-0.005": 6.36777509958,
			"-0.004": 11.9139973371,
			"-0.003": 29.7112275356,
			"-0.002": 49.6172493378,
			"-0.001": 55.8800173417,
			"0.0": 35.8908638994,
			"0.001": 16.13232209,
			"0.002": 6.61154611324,
			"0.003": 5.89623361324,
			"0.004": 5.42108298225,
			"0.005": 3.51735136589,
			"0.006": 3.73728979191,
			"0.007": 3.37476250559,
			"0.008": 3.15720442464,
			"0.009": 2.37156416643,
			"0.01": 2.87775976228,
			"0.011": 2.6297676245,
			"0.012": 2.28412076225,
			"0.013": 2.20452521845,
			"0.014": 2.73018613897,
			"0.015": 2.07163364061,
			"0.016": 2.20097839783,
			"0.017": 0.587735536008,
			"0.018": 1.09574755184,
			"0.019": 1.65617994562,
			"0.02": 0.79590268013,
			"0.021": 0.191145280538,
			"0.022": 0.0,
			"0.023": 0.0,
			"0.024": 0.0,
			"0.025": 0.0
		}
	}
}
