{
	 "smiles": "OC(=O)C1=C(NC(=O)CC2=CC=CC=C2)C=CC=C1", 
	 "Tm": 466.15, 
	 "num_atms": 32, 
	 "gaussian": { 
		 "optdone": 1, 
		 "sigma_profile": "yes", 
		 "theory": "DFT", 
		 "functional": "B3LYP", 
		 "basiset": "6-31G**", 
		 "properties": { 
			 "R2extent": 6460.8483, 
			 "electric_dipole_moment_norm": 2.75270555817, 
			 "electric_quadrupole_moment_norm": 5.55507220655, 
			 "total_energy": -859.903775917, 
			 "HOMO_LUMO_gap": 0.16963, 
			 "cosmo_polarized_energy": -13.15, 
			 "cosmo_cavitation_energy": 36.74, 
			 "cosmo_dispersion_energy": -26.04, 
			 "cosmo_repulsion_energy": 1.99, 
			 "cosmo_total_nonelectrostatic_energy": 12.68, 
			 "SMD_solvation_energy": 7.42 
		},
		"coords": [
			{
				"x": 1.9449153741,
				"y": -1.0999029039,
				"z": 3.0913877799,
				"element": "O" 
			},
			{
				"x": 1.1270786165,
				"y": -0.8150807028,
				"z": 2.0532453626,
				"element": "C" 
			},
			{
				"x": 1.5992411395,
				"y": -0.6231173909,
				"z": 0.9347563676,
				"element": "O" 
			},
			{
				"x": -0.3030075468,
				"y": -0.7696331194,
				"z": 2.4145601157,
				"element": "C" 
			},
			{
				"x": -1.3061719513,
				"y": -0.4833259978,
				"z": 1.4419401467,
				"element": "C" 
			},
			{
				"x": -0.9211059472,
				"y": -0.2426248039,
				"z": 0.1214218376,
				"element": "N" 
			},
			{
				"x": -1.7091913218,
				"y": 0.0552476334,
				"z": -0.9703518974,
				"element": "C" 
			},
			{
				"x": -2.9300348563,
				"y": 0.1410010398,
				"z": -0.9537766635,
				"element": "O" 
			},
			{
				"x": -0.9073219855,
				"y": 0.3178582721,
				"z": -2.2488702966,
				"element": "C" 
			},
			{
				"x": -0.638752649,
				"y": 1.8017649113,
				"z": -2.4426810259,
				"element": "C" 
			},
			{
				"x": -1.7046683873,
				"y": 2.6940742485,
				"z": -2.6278676014,
				"element": "C" 
			},
			{
				"x": -1.4637741704,
				"y": 4.0560903698,
				"z": -2.8028523653,
				"element": "C" 
			},
			{
				"x": -0.1554021995,
				"y": 4.5467981707,
				"z": -2.7950695653,
				"element": "C" 
			},
			{
				"x": 0.9100331534,
				"y": 3.6661469534,
				"z": -2.6075726802,
				"element": "C" 
			},
			{
				"x": 0.6682251922,
				"y": 2.3019464515,
				"z": -2.4302900111,
				"element": "C" 
			},
			{
				"x": -2.6537610506,
				"y": -0.4548466768,
				"z": 1.8472079348,
				"element": "C" 
			},
			{
				"x": -2.9924073546,
				"y": -0.7013018199,
				"z": 3.1723850627,
				"element": "C" 
			},
			{
				"x": -2.0148934857,
				"y": -0.9822490374,
				"z": 4.1326725112,
				"element": "C" 
			},
			{
				"x": -0.6833729005,
				"y": -1.0137508819,
				"z": 3.747206978,
				"element": "C" 
			},
			{
				"x": 2.8441029832,
				"y": -1.0983456723,
				"z": 2.7243213248,
				"element": "H" 
			},
			{
				"x": 0.0879779369,
				"y": -0.2798543766,
				"z": -0.0158929802,
				"element": "H" 
			},
			{
				"x": -1.5160528087,
				"y": -0.0678423484,
				"z": -3.0721242572,
				"element": "H" 
			},
			{
				"x": 0.0371216845,
				"y": -0.235577474,
				"z": -2.2408018638,
				"element": "H" 
			},
			{
				"x": -2.7214244593,
				"y": 2.3124166373,
				"z": -2.6208135334,
				"element": "H" 
			},
			{
				"x": -2.2989224519,
				"y": 4.7360400994,
				"z": -2.946281846,
				"element": "H" 
			},
			{
				"x": 0.0308721571,
				"y": 5.6078511665,
				"z": -2.9344704881,
				"element": "H" 
			},
			{
				"x": 1.930820906,
				"y": 4.0379556819,
				"z": -2.5986383396,
				"element": "H" 
			},
			{
				"x": 1.5028866004,
				"y": 1.6204804587,
				"z": -2.2843090409,
				"element": "H" 
			},
			{
				"x": -3.4090736768,
				"y": -0.2376392044,
				"z": 1.1061356699,
				"element": "H" 
			},
			{
				"x": -4.0401659009,
				"y": -0.6725542808,
				"z": 3.4584741752,
				"element": "H" 
			},
			{
				"x": -2.290761845,
				"y": -1.1731037197,
				"z": 5.1646208337,
				"element": "H" 
			},
			{
				"x": 0.0912912052,
				"y": -1.2288216833,
				"z": 4.4732283557,
				"element": "H" 
			}
		],
		 "valence_orbital": [ 
			{
				"type": "occ",
				"energy": -0.26547,
				"method": "rhf"
			},
			{
				"type": "occ",
				"energy": -0.25962,
				"method": "rhf"
			},
			{
				"type": "occ",
				"energy": -0.2468,
				"method": "rhf"
			},
			{
				"type": "occ",
				"energy": -0.23654,
				"method": "rhf"
			},
			{
				"type": "occ",
				"energy": -0.22794,
				"method": "rhf"
			},
			{
				"type": "unocc",
				"energy": -0.05831,
				"method": "rhf"
			},
			{
				"type": "unocc",
				"energy": -0.01894,
				"method": "rhf"
			},
			{
				"type": "unocc",
				"energy": -0.0,
				"method": "rhf"
			},
			{
				"type": "unocc",
				"energy": 0.00292,
				"method": "rhf"
			},
			{
				"type": "unocc",
				"energy": 0.04393,
				"method": "rhf"
			}
		],
		"cosmo_sigma_profile": { 
			"-0.025": 0.0,
			"-0.024": 0.0,
			"-0.023": 0.0,
			"-0.022": 0.0,
			"-0.021": 0.0,
			"-0.02": 0.0,
			"-0.019": 0.255273127302,
			"-0.018": 0.984595057206,
			"-0.017": 0.942121381383,
			"-0.016": 0.317112595684,
			"-0.015": 1.02296030481,
			"-0.014": 0.273084088775,
			"-0.013": 0.942880356621,
			"-0.012": 1.06629789561,
			"-0.011": 0.796420978302,
			"-0.01": 0.393175641458,
			"-0.009": 0.244630623118,
			"-0.008": 1.35848409247,
			"-0.007": 6.15219594209,
			"-0.006": 14.1740567562,
			"-0.005": 20.0267499011,
			"-0.004": 22.9106635633,
			"-0.003": 24.6620448459,
			"-0.002": 22.7113584764,
			"-0.001": 18.9290969884,
			"0.0": 21.4656967803,
			"0.001": 22.2219900383,
			"0.002": 20.5548238051,
			"0.003": 24.4538489882,
			"0.004": 19.8631945033,
			"0.005": 13.8256385153,
			"0.006": 12.0951537406,
			"0.007": 3.68582470791,
			"0.008": 3.10415903963,
			"0.009": 3.19953707928,
			"0.01": 3.60618233056,
			"0.011": 3.42542257397,
			"0.012": 2.94166780342,
			"0.013": 1.60457986114,
			"0.014": 0.135816682654,
			"0.015": 0.0,
			"0.016": 0.0,
			"0.017": 0.0,
			"0.018": 0.0,
			"0.019": 0.0,
			"0.02": 0.0,
			"0.021": 0.0,
			"0.022": 0.0,
			"0.023": 0.0,
			"0.024": 0.0,
			"0.025": 0.0
		}
	}
}
