{
	 "smiles": "COC(=O)C1=C(N(C)N=C1Cl)S(=O)(=O)NC(=O)NC1=NC(OC)=CC(OC)=N1", 
	 "Tm": 449.15, 
	 "num_atms": 43, 
	 "gaussian": { 
		 "optdone": 1, 
		 "sigma_profile": "yes", 
		 "theory": "DFT", 
		 "functional": "B3LYP", 
		 "basiset": "6-31G**", 
		 "properties": { 
			 "R2extent": 13661.4968, 
			 "electric_dipole_moment_norm": 7.29823701862, 
			 "electric_quadrupole_moment_norm": 19.4774142899, 
			 "total_energy": -2217.81341485, 
			 "HOMO_LUMO_gap": 0.19851, 
			 "cosmo_polarized_energy": -21.37, 
			 "cosmo_cavitation_energy": 51.86, 
			 "cosmo_dispersion_energy": -34.68, 
			 "cosmo_repulsion_energy": 2.56, 
			 "cosmo_total_nonelectrostatic_energy": 19.74, 
			 "SMD_solvation_energy": 9.58 
		},
		"coords": [
			{
				"x": 2.9398248618,
				"y": -1.3637633469,
				"z": 1.4599445834,
				"element": "C" 
			},
			{
				"x": 1.5296630192,
				"y": -1.5447926813,
				"z": 1.6754348643,
				"element": "O" 
			},
			{
				"x": 1.2164214069,
				"y": -2.3137309104,
				"z": 2.7430943501,
				"element": "C" 
			},
			{
				"x": 2.0405369106,
				"y": -2.8625143043,
				"z": 3.4410683332,
				"element": "O" 
			},
			{
				"x": -0.2456275209,
				"y": -2.4497595051,
				"z": 2.9173980313,
				"element": "C" 
			},
			{
				"x": -1.2935789686,
				"y": -1.5616998373,
				"z": 2.6435506383,
				"element": "C" 
			},
			{
				"x": -2.4577742823,
				"y": -2.1898791062,
				"z": 2.9617293082,
				"element": "N" 
			},
			{
				"x": -3.8488837748,
				"y": -1.744311288,
				"z": 2.8357694927,
				"element": "C" 
			},
			{
				"x": -2.2380927258,
				"y": -3.4363465725,
				"z": 3.4171543103,
				"element": "N" 
			},
			{
				"x": -0.9198934637,
				"y": -3.5914321587,
				"z": 3.4054041948,
				"element": "C" 
			},
			{
				"x": -0.2343624773,
				"y": -5.0893561457,
				"z": 3.9100938647,
				"element": "Cl" 
			},
			{
				"x": -1.213987404,
				"y": 0.1583480794,
				"z": 2.1685233804,
				"element": "S" 
			},
			{
				"x": -2.5377852412,
				"y": 0.7261642913,
				"z": 2.3883546903,
				"element": "O" 
			},
			{
				"x": -0.0240276925,
				"y": 0.7613122663,
				"z": 2.7602342364,
				"element": "O" 
			},
			{
				"x": -0.8662597209,
				"y": 0.1324043076,
				"z": 0.5212393153,
				"element": "N" 
			},
			{
				"x": -1.6208877717,
				"y": -0.5373799746,
				"z": -0.4193485106,
				"element": "C" 
			},
			{
				"x": -2.6441515513,
				"y": -1.1564013945,
				"z": -0.1774764497,
				"element": "O" 
			},
			{
				"x": -1.1114999489,
				"y": -0.4845514558,
				"z": -1.7189748214,
				"element": "N" 
			},
			{
				"x": 0.0292073876,
				"y": 0.1084068528,
				"z": -2.2465307159,
				"element": "C" 
			},
			{
				"x": 0.810331779,
				"y": 0.8349714409,
				"z": -1.4380104372,
				"element": "N" 
			},
			{
				"x": 1.8928659688,
				"y": 1.3927566698,
				"z": -2.005750707,
				"element": "C" 
			},
			{
				"x": 2.7078363242,
				"y": 2.1475041707,
				"z": -1.2594721013,
				"element": "O" 
			},
			{
				"x": 2.3087946518,
				"y": 2.4711458414,
				"z": 0.0826677561,
				"element": "C" 
			},
			{
				"x": 2.2084855205,
				"y": 1.2189607056,
				"z": -3.3505002139,
				"element": "C" 
			},
			{
				"x": 1.3118752707,
				"y": 0.4335521847,
				"z": -4.081826122,
				"element": "C" 
			},
			{
				"x": 1.5739601212,
				"y": 0.2453347005,
				"z": -5.3798493985,
				"element": "O" 
			},
			{
				"x": 0.6550584392,
				"y": -0.5510579686,
				"z": -6.1428847048,
				"element": "C" 
			},
			{
				"x": 0.2181977101,
				"y": -0.1235450813,
				"z": -3.5481458131,
				"element": "N" 
			},
			{
				"x": 3.4372139127,
				"y": -2.3295608035,
				"z": 1.3464902512,
				"element": "H" 
			},
			{
				"x": 3.3901714583,
				"y": -0.8298424692,
				"z": 2.3004985308,
				"element": "H" 
			},
			{
				"x": 3.0228902731,
				"y": -0.7801521152,
				"z": 0.5433197855,
				"element": "H" 
			},
			{
				"x": -4.0254248241,
				"y": -1.4064364966,
				"z": 1.8152800423,
				"element": "H" 
			},
			{
				"x": -4.0514382019,
				"y": -0.9309878517,
				"z": 3.5324516182,
				"element": "H" 
			},
			{
				"x": -4.4575709307,
				"y": -2.6150646192,
				"z": 3.0724912048,
				"element": "H" 
			},
			{
				"x": 0.0228429302,
				"y": 0.5494847853,
				"z": 0.2169754476,
				"element": "H" 
			},
			{
				"x": -1.663078772,
				"y": -1.0098120338,
				"z": -2.3846946439,
				"element": "H" 
			},
			{
				"x": 2.2421644836,
				"y": 1.579400118,
				"z": 0.7106921933,
				"element": "H" 
			},
			{
				"x": 1.3455645145,
				"y": 2.9881464353,
				"z": 0.0890895578,
				"element": "H" 
			},
			{
				"x": 3.0898855438,
				"y": 3.1313293409,
				"z": 0.4588746568,
				"element": "H" 
			},
			{
				"x": 3.0796552806,
				"y": 1.6726849591,
				"z": -3.8009842262,
				"element": "H" 
			},
			{
				"x": -0.3429128358,
				"y": -0.1056215062,
				"z": -6.1407170045,
				"element": "H" 
			},
			{
				"x": 0.5924354054,
				"y": -1.5661473096,
				"z": -5.742854636,
				"element": "H" 
			},
			{
				"x": 1.0629549347,
				"y": -0.5651602134,
				"z": -7.1535041324,
				"element": "H" 
			}
		],
		 "valence_orbital": [ 
			{
				"type": "occ",
				"energy": -0.29511,
				"method": "rhf"
			},
			{
				"type": "occ",
				"energy": -0.28593,
				"method": "rhf"
			},
			{
				"type": "occ",
				"energy": -0.27469,
				"method": "rhf"
			},
			{
				"type": "occ",
				"energy": -0.25925,
				"method": "rhf"
			},
			{
				"type": "occ",
				"energy": -0.25324,
				"method": "rhf"
			},
			{
				"type": "unocc",
				"energy": -0.05473,
				"method": "rhf"
			},
			{
				"type": "unocc",
				"energy": -0.04191,
				"method": "rhf"
			},
			{
				"type": "unocc",
				"energy": -0.03074,
				"method": "rhf"
			},
			{
				"type": "unocc",
				"energy": -0.00506,
				"method": "rhf"
			},
			{
				"type": "unocc",
				"energy": 0.02463,
				"method": "rhf"
			}
		],
		"cosmo_sigma_profile": { 
			"-0.025": 0.0,
			"-0.024": 0.0,
			"-0.023": 0.0,
			"-0.022": 0.0,
			"-0.021": 0.0,
			"-0.02": 0.0,
			"-0.019": 0.0,
			"-0.018": 0.0,
			"-0.017": 0.0,
			"-0.016": 0.0958884173181,
			"-0.015": 0.668981899958,
			"-0.014": 0.807918656858,
			"-0.013": 0.873089840356,
			"-0.012": 0.599565021643,
			"-0.011": 0.604532434141,
			"-0.01": 0.765315775529,
			"-0.009": 0.686595453567,
			"-0.008": 2.00432014563,
			"-0.007": 8.42489929134,
			"-0.006": 21.4993385211,
			"-0.005": 30.3600991996,
			"-0.004": 42.3172983735,
			"-0.003": 44.8276581655,
			"-0.002": 38.5392302974,
			"-0.001": 30.6199486297,
			"0.0": 26.8668764359,
			"0.001": 25.9007049847,
			"0.002": 21.3849280868,
			"0.003": 21.8784778225,
			"0.004": 16.8555558807,
			"0.005": 12.6144083953,
			"0.006": 12.5078441183,
			"0.007": 12.5390918941,
			"0.008": 12.0119026121,
			"0.009": 12.2345831929,
			"0.01": 9.65416271828,
			"0.011": 7.23212993057,
			"0.012": 1.92750726477,
			"0.013": 0.0,
			"0.014": 0.0,
			"0.015": 0.0,
			"0.016": 0.0,
			"0.017": 0.0,
			"0.018": 0.0,
			"0.019": 0.0,
			"0.02": 0.0,
			"0.021": 0.0,
			"0.022": 0.0,
			"0.023": 0.0,
			"0.024": 0.0,
			"0.025": 0.0
		}
	}
}
