{
	 "smiles": "CC1=CC(N2CCOCC2)=C(C=C1)C#N", 
	 "Tm": 360.15, 
	 "num_atms": 29, 
	 "gaussian": { 
		 "optdone": 1, 
		 "sigma_profile": "yes", 
		 "theory": "DFT", 
		 "functional": "B3LYP", 
		 "basiset": "6-31G**", 
		 "properties": { 
			 "R2extent": 3498.9834, 
			 "electric_dipole_moment_norm": 5.17626935254, 
			 "electric_quadrupole_moment_norm": 9.89190307878, 
			 "total_energy": -650.403630588, 
			 "HOMO_LUMO_gap": 0.16726, 
			 "cosmo_polarized_energy": -12.32, 
			 "cosmo_cavitation_energy": 31.54, 
			 "cosmo_dispersion_energy": -22.52, 
			 "cosmo_repulsion_energy": 1.74, 
			 "cosmo_total_nonelectrostatic_energy": 10.76, 
			 "SMD_solvation_energy": 5.58 
		},
		"coords": [
			{
				"x": 0.4918830636,
				"y": 1.6986558286,
				"z": -4.1831346553,
				"element": "C" 
			},
			{
				"x": 0.8483923215,
				"y": 0.8906876706,
				"z": -2.9585123886,
				"element": "C" 
			},
			{
				"x": 0.0462976422,
				"y": 0.940214527,
				"z": -1.8197293175,
				"element": "C" 
			},
			{
				"x": 0.3320025586,
				"y": 0.2039555866,
				"z": -0.647538265,
				"element": "C" 
			},
			{
				"x": -0.4955387028,
				"y": 0.3064837956,
				"z": 0.4582622972,
				"element": "N" 
			},
			{
				"x": -1.4433800325,
				"y": 1.4141916332,
				"z": 0.5680184236,
				"element": "C" 
			},
			{
				"x": -2.0460126378,
				"y": 1.4312536031,
				"z": 1.9893755876,
				"element": "C" 
			},
			{
				"x": -1.0802728684,
				"y": 1.0643270194,
				"z": 2.9516520757,
				"element": "O" 
			},
			{
				"x": -0.6797962196,
				"y": -0.3014708815,
				"z": 2.8197112214,
				"element": "C" 
			},
			{
				"x": -0.8056812821,
				"y": -0.7933782728,
				"z": 1.368290367,
				"element": "C" 
			},
			{
				"x": 1.521932511,
				"y": -0.5845237194,
				"z": -0.658191121,
				"element": "C" 
			},
			{
				"x": 2.3145224359,
				"y": -0.6471540897,
				"z": -1.8203325329,
				"element": "C" 
			},
			{
				"x": 1.989280936,
				"y": 0.0714636273,
				"z": -2.9582945399,
				"element": "C" 
			},
			{
				"x": 2.0171223113,
				"y": -1.2523713717,
				"z": 0.5032897461,
				"element": "C" 
			},
			{
				"x": 2.4560377438,
				"y": -1.7884560036,
				"z": 1.44083889,
				"element": "N" 
			},
			{
				"x": 1.2429915069,
				"y": 2.4748699726,
				"z": -4.371640364,
				"element": "H" 
			},
			{
				"x": 0.4539380113,
				"y": 1.0663417478,
				"z": -5.0768950179,
				"element": "H" 
			},
			{
				"x": -0.4778504087,
				"y": 2.1914293206,
				"z": -4.0751800579,
				"element": "H" 
			},
			{
				"x": -0.8485957443,
				"y": 1.5501368091,
				"z": -1.8502573182,
				"element": "H" 
			},
			{
				"x": -2.2660414771,
				"y": 1.3447358544,
				"z": -0.1658227365,
				"element": "H" 
			},
			{
				"x": -0.9055940255,
				"y": 2.3491639038,
				"z": 0.3771549782,
				"element": "H" 
			},
			{
				"x": -2.376663218,
				"y": 2.4439813724,
				"z": 2.2352385147,
				"element": "H" 
			},
			{
				"x": -2.9305019436,
				"y": 0.776418508,
				"z": 2.0428078708,
				"element": "H" 
			},
			{
				"x": 0.3630979561,
				"y": -0.3487805734,
				"z": 3.14476214,
				"element": "H" 
			},
			{
				"x": -1.283477344,
				"y": -0.9439335772,
				"z": 3.4802576774,
				"element": "H" 
			},
			{
				"x": -0.1409364007,
				"y": -1.638577687,
				"z": 1.2082488511,
				"element": "H" 
			},
			{
				"x": -1.8275107652,
				"y": -1.1516604271,
				"z": 1.1667351128,
				"element": "H" 
			},
			{
				"x": 3.2094219145,
				"y": -1.2609373126,
				"z": -1.7965856211,
				"element": "H" 
			},
			{
				"x": 2.6204321574,
				"y": 0.010833136,
				"z": -3.8397298179,
				"element": "H" 
			}
		],
		 "valence_orbital": [ 
			{
				"type": "occ",
				"energy": -0.31672,
				"method": "rhf"
			},
			{
				"type": "occ",
				"energy": -0.28683,
				"method": "rhf"
			},
			{
				"type": "occ",
				"energy": -0.25623,
				"method": "rhf"
			},
			{
				"type": "occ",
				"energy": -0.25172,
				"method": "rhf"
			},
			{
				"type": "occ",
				"energy": -0.20564,
				"method": "rhf"
			},
			{
				"type": "unocc",
				"energy": -0.03838,
				"method": "rhf"
			},
			{
				"type": "unocc",
				"energy": -0.0042,
				"method": "rhf"
			},
			{
				"type": "unocc",
				"energy": 0.03954,
				"method": "rhf"
			},
			{
				"type": "unocc",
				"energy": 0.07775,
				"method": "rhf"
			},
			{
				"type": "unocc",
				"energy": 0.08236,
				"method": "rhf"
			}
		],
		"cosmo_sigma_profile": { 
			"-0.025": 0.0,
			"-0.024": 0.0,
			"-0.023": 0.0,
			"-0.022": 0.0,
			"-0.021": 0.0,
			"-0.02": 0.0,
			"-0.019": 0.0,
			"-0.018": 0.0,
			"-0.017": 0.0,
			"-0.016": 0.0,
			"-0.015": 0.0,
			"-0.014": 0.0,
			"-0.013": 0.0,
			"-0.012": 0.0,
			"-0.011": 0.0,
			"-0.01": 0.0,
			"-0.009": 0.0,
			"-0.008": 0.0391051467996,
			"-0.007": 1.52526416543,
			"-0.006": 8.00412258073,
			"-0.005": 26.1196248774,
			"-0.004": 36.5699426569,
			"-0.003": 27.5333630654,
			"-0.002": 22.088683136,
			"-0.001": 16.3781884493,
			"0.0": 18.3533120079,
			"0.001": 16.6892515141,
			"0.002": 12.6924448986,
			"0.003": 11.8685851861,
			"0.004": 13.135599897,
			"0.005": 6.68327521127,
			"0.006": 3.51387652633,
			"0.007": 3.65558984586,
			"0.008": 3.73544782469,
			"0.009": 4.09558739618,
			"0.01": 3.76769438787,
			"0.011": 4.03244645575,
			"0.012": 3.90152020111,
			"0.013": 3.95932683163,
			"0.014": 1.20588636463,
			"0.015": 0.0,
			"0.016": 0.0,
			"0.017": 0.0,
			"0.018": 0.0,
			"0.019": 0.0,
			"0.02": 0.0,
			"0.021": 0.0,
			"0.022": 0.0,
			"0.023": 0.0,
			"0.024": 0.0,
			"0.025": 0.0
		}
	}
}
