{
	 "smiles": "OC1=CC=C2C(=O)C3=C(C=CC=C3)C(=O)C2=C1O", 
	 "Tm": 561.15, 
	 "num_atms": 26, 
	 "gaussian": { 
		 "optdone": 1, 
		 "sigma_profile": "yes", 
		 "theory": "DFT", 
		 "functional": "B3LYP", 
		 "basiset": "6-31G**", 
		 "properties": { 
			 "R2extent": 5162.8668, 
			 "electric_dipole_moment_norm": 2.02100932704, 
			 "electric_quadrupole_moment_norm": 8.78161616674, 
			 "total_energy": -839.235421764, 
			 "HOMO_LUMO_gap": 0.1196, 
			 "cosmo_polarized_energy": -10.53, 
			 "cosmo_cavitation_energy": 30.2, 
			 "cosmo_dispersion_energy": -23.09, 
			 "cosmo_repulsion_energy": 1.69, 
			 "cosmo_total_nonelectrostatic_energy": 8.8, 
			 "SMD_solvation_energy": 6.18 
		},
		"coords": [
			{
				"x": 0.4524157953,
				"y": -4.7313241231,
				"z": 3.2532602008,
				"element": "O" 
			},
			{
				"x": 0.5456079267,
				"y": -3.5478058969,
				"z": 2.6070333633,
				"element": "C" 
			},
			{
				"x": 1.478923924,
				"y": -2.5927775176,
				"z": 2.9948403201,
				"element": "C" 
			},
			{
				"x": 1.5620076486,
				"y": -1.3728078571,
				"z": 2.3150540132,
				"element": "C" 
			},
			{
				"x": 0.7170255054,
				"y": -1.0939299715,
				"z": 1.2442055792,
				"element": "C" 
			},
			{
				"x": 0.8250218225,
				"y": 0.2054874451,
				"z": 0.5409385819,
				"element": "C" 
			},
			{
				"x": 1.6441200002,
				"y": 1.0587318403,
				"z": 0.8720849731,
				"element": "O" 
			},
			{
				"x": -0.1109174042,
				"y": 0.4467815247,
				"z": -0.6023737203,
				"element": "C" 
			},
			{
				"x": -1.0579449211,
				"y": -0.5204842537,
				"z": -0.9971580095,
				"element": "C" 
			},
			{
				"x": -1.917809646,
				"y": -0.2602287914,
				"z": -2.0719112851,
				"element": "C" 
			},
			{
				"x": -1.8375758813,
				"y": 0.9529609393,
				"z": -2.7502061861,
				"element": "C" 
			},
			{
				"x": -0.8978365536,
				"y": 1.9139497406,
				"z": -2.3591782876,
				"element": "C" 
			},
			{
				"x": -0.0394592697,
				"y": 1.6616757851,
				"z": -1.2910144119,
				"element": "C" 
			},
			{
				"x": -1.1542806457,
				"y": -1.8156708249,
				"z": -0.2843252968,
				"element": "C" 
			},
			{
				"x": -1.99133981,
				"y": -2.673667614,
				"z": -0.6313122436,
				"element": "O" 
			},
			{
				"x": -0.241880224,
				"y": -2.0595900779,
				"z": 0.8359036064,
				"element": "C" 
			},
			{
				"x": -0.3229440669,
				"y": -3.2827569871,
				"z": 1.5199204205,
				"element": "C" 
			},
			{
				"x": -1.1967235465,
				"y": -4.258644064,
				"z": 1.2084684703,
				"element": "O" 
			},
			{
				"x": -0.2549415573,
				"y": -5.2406914023,
				"z": 2.8243733888,
				"element": "H" 
			},
			{
				"x": 2.1339924118,
				"y": -2.8171268874,
				"z": 3.8301562184,
				"element": "H" 
			},
			{
				"x": 2.2858308592,
				"y": -0.6208463756,
				"z": 2.6087427872,
				"element": "H" 
			},
			{
				"x": -2.6370890736,
				"y": -1.0209964493,
				"z": -2.3553014239,
				"element": "H" 
			},
			{
				"x": -2.505057966,
				"y": 1.1527823057,
				"z": -3.583118676,
				"element": "H" 
			},
			{
				"x": -0.8370784008,
				"y": 2.8596484094,
				"z": -2.8898090947,
				"element": "H" 
			},
			{
				"x": 0.6973033492,
				"y": 2.3894994431,
				"z": -0.9683603856,
				"element": "H" 
			},
			{
				"x": -1.7225702762,
				"y": -3.9128683393,
				"z": 0.4338870979,
				"element": "H" 
			}
		],
		 "valence_orbital": [ 
			{
				"type": "occ",
				"energy": -0.27961,
				"method": "rhf"
			},
			{
				"type": "occ",
				"energy": -0.27149,
				"method": "rhf"
			},
			{
				"type": "occ",
				"energy": -0.26063,
				"method": "rhf"
			},
			{
				"type": "occ",
				"energy": -0.25868,
				"method": "rhf"
			},
			{
				"type": "occ",
				"energy": -0.2272,
				"method": "rhf"
			},
			{
				"type": "unocc",
				"energy": -0.1076,
				"method": "rhf"
			},
			{
				"type": "unocc",
				"energy": -0.05668,
				"method": "rhf"
			},
			{
				"type": "unocc",
				"energy": -0.02213,
				"method": "rhf"
			},
			{
				"type": "unocc",
				"energy": -0.00603,
				"method": "rhf"
			},
			{
				"type": "unocc",
				"energy": 0.05012,
				"method": "rhf"
			}
		],
		"cosmo_sigma_profile": { 
			"-0.025": 0.0,
			"-0.024": 0.0,
			"-0.023": 0.0,
			"-0.022": 0.0,
			"-0.021": 0.0,
			"-0.02": 0.0,
			"-0.019": 0.0,
			"-0.018": 0.0,
			"-0.017": 0.0,
			"-0.016": 0.28213402268,
			"-0.015": 0.516826189329,
			"-0.014": 0.262108830106,
			"-0.013": 0.540784685701,
			"-0.012": 0.888823923704,
			"-0.011": 0.616265636769,
			"-0.01": 1.06157297286,
			"-0.009": 0.536272268474,
			"-0.008": 2.01014105471,
			"-0.007": 8.31462196808,
			"-0.006": 13.837167662,
			"-0.005": 15.5576501498,
			"-0.004": 14.6555339017,
			"-0.003": 17.0974231528,
			"-0.002": 15.1695907245,
			"-0.001": 19.2437568193,
			"0.0": 23.948389296,
			"0.001": 28.1955270834,
			"0.002": 25.7264546285,
			"0.003": 10.5048008387,
			"0.004": 6.52513834214,
			"0.005": 6.2597283223,
			"0.006": 5.7328046265,
			"0.007": 4.90350329217,
			"0.008": 4.58408477616,
			"0.009": 5.18480726136,
			"0.01": 5.32136098347,
			"0.011": 3.91600259271,
			"0.012": 2.73319314406,
			"0.013": 0.0,
			"0.014": 0.0,
			"0.015": 0.0,
			"0.016": 0.0,
			"0.017": 0.0,
			"0.018": 0.0,
			"0.019": 0.0,
			"0.02": 0.0,
			"0.021": 0.0,
			"0.022": 0.0,
			"0.023": 0.0,
			"0.024": 0.0,
			"0.025": 0.0
		}
	}
}
