{
	 "smiles": "CC1=C(C=C(F)C=C1C(O)=O)S(Cl)(=O)=O", 
	 "Tm": 395.15, 
	 "num_atms": 21, 
	 "gaussian": { 
		 "optdone": 1, 
		 "sigma_profile": "yes", 
		 "theory": "DFT", 
		 "functional": "B3LYP", 
		 "basiset": "6-31G**", 
		 "properties": { 
			 "R2extent": 6883.8911, 
			 "electric_dipole_moment_norm": 3.84903887873, 
			 "electric_quadrupole_moment_norm": 14.148380889, 
			 "total_energy": -1567.50809019, 
			 "HOMO_LUMO_gap": 0.18165, 
			 "cosmo_polarized_energy": -16.81, 
			 "cosmo_cavitation_energy": 29.29, 
			 "cosmo_dispersion_energy": -21.65, 
			 "cosmo_repulsion_energy": 1.61, 
			 "cosmo_total_nonelectrostatic_energy": 9.25, 
			 "SMD_solvation_energy": 5.36 
		},
		"coords": [
			{
				"x": -1.7124414445,
				"y": 3.3464092492,
				"z": 1.2635011006,
				"element": "C" 
			},
			{
				"x": -1.2032489726,
				"y": 2.3045117468,
				"z": 0.2952331326,
				"element": "C" 
			},
			{
				"x": -2.0438665302,
				"y": 1.4151081253,
				"z": -0.4030848033,
				"element": "C" 
			},
			{
				"x": -1.5876658816,
				"y": 0.4780780578,
				"z": -1.3341612993,
				"element": "C" 
			},
			{
				"x": -0.2251794503,
				"y": 0.4090285348,
				"z": -1.5715492512,
				"element": "C" 
			},
			{
				"x": 0.2436909209,
				"y": -0.4768147858,
				"z": -2.4635326482,
				"element": "F" 
			},
			{
				"x": 0.6624808301,
				"y": 1.2390666178,
				"z": -0.9045536697,
				"element": "C" 
			},
			{
				"x": 0.1794995058,
				"y": 2.1798213454,
				"z": 0.0147009203,
				"element": "C" 
			},
			{
				"x": 1.1813199867,
				"y": 3.1104119182,
				"z": 0.6519235064,
				"element": "C" 
			},
			{
				"x": 2.3637867505,
				"y": 2.544733334,
				"z": 1.0094005654,
				"element": "O" 
			},
			{
				"x": 0.996180054,
				"y": 4.2900688837,
				"z": 0.81816872,
				"element": "O" 
			},
			{
				"x": -3.8367379814,
				"y": 1.3560390079,
				"z": -0.1514087388,
				"element": "S" 
			},
			{
				"x": -4.4360695974,
				"y": 3.2269048426,
				"z": -0.9575873986,
				"element": "Cl" 
			},
			{
				"x": -4.161285433,
				"y": 1.3817948118,
				"z": 1.2695878776,
				"element": "O" 
			},
			{
				"x": -4.392663965,
				"y": 0.3366158827,
				"z": -1.0316812088,
				"element": "O" 
			},
			{
				"x": -1.0053176611,
				"y": 3.4989197045,
				"z": 2.0790973153,
				"element": "H" 
			},
			{
				"x": -1.809975515,
				"y": 4.3101442787,
				"z": 0.7541568552,
				"element": "H" 
			},
			{
				"x": -2.6769915881,
				"y": 3.0722471695,
				"z": 1.6839420341,
				"element": "H" 
			},
			{
				"x": -2.2755697516,
				"y": -0.1738991669,
				"z": -1.8574808472,
				"element": "H" 
			},
			{
				"x": 1.719947218,
				"y": 1.1726798663,
				"z": -1.1394752814,
				"element": "H" 
			},
			{
				"x": 2.3053085061,
				"y": 1.5797305758,
				"z": 0.964303119,
				"element": "H" 
			}
		],
		 "valence_orbital": [ 
			{
				"type": "occ",
				"energy": -0.34024,
				"method": "rhf"
			},
			{
				"type": "occ",
				"energy": -0.32618,
				"method": "rhf"
			},
			{
				"type": "occ",
				"energy": -0.31318,
				"method": "rhf"
			},
			{
				"type": "occ",
				"energy": -0.29795,
				"method": "rhf"
			},
			{
				"type": "occ",
				"energy": -0.28405,
				"method": "rhf"
			},
			{
				"type": "unocc",
				"energy": -0.1024,
				"method": "rhf"
			},
			{
				"type": "unocc",
				"energy": -0.07983,
				"method": "rhf"
			},
			{
				"type": "unocc",
				"energy": -0.0588,
				"method": "rhf"
			},
			{
				"type": "unocc",
				"energy": 0.00629,
				"method": "rhf"
			},
			{
				"type": "unocc",
				"energy": 0.03499,
				"method": "rhf"
			}
		],
		"cosmo_sigma_profile": { 
			"-0.025": 0.0,
			"-0.024": 0.0,
			"-0.023": 0.0,
			"-0.022": 0.0,
			"-0.021": 0.0,
			"-0.02": 0.13745667275,
			"-0.019": 1.05457201557,
			"-0.018": 0.357438550003,
			"-0.017": 1.77663247219,
			"-0.016": 1.14812287515,
			"-0.015": 0.518556848416,
			"-0.014": 1.01620097386,
			"-0.013": 1.55380121143,
			"-0.012": 1.18076070347,
			"-0.011": 1.75063818406,
			"-0.01": 1.9248970989,
			"-0.009": 3.0325880814,
			"-0.008": 4.81503742855,
			"-0.007": 5.60970242732,
			"-0.006": 6.06454200063,
			"-0.005": 7.84666718425,
			"-0.004": 11.8124834337,
			"-0.003": 20.4725293671,
			"-0.002": 27.9697300293,
			"-0.001": 17.0777073304,
			"0.0": 13.0746566493,
			"0.001": 13.5583003672,
			"0.002": 15.428785921,
			"0.003": 22.243351529,
			"0.004": 6.62670441543,
			"0.005": 6.29834175365,
			"0.006": 6.0248325495,
			"0.007": 9.84619026203,
			"0.008": 10.51093652,
			"0.009": 6.20121817752,
			"0.01": 5.04380790578,
			"0.011": 4.20844093949,
			"0.012": 1.60400298968,
			"0.013": 0.0524864197693,
			"0.014": 0.0,
			"0.015": 0.0,
			"0.016": 0.0,
			"0.017": 0.0,
			"0.018": 0.0,
			"0.019": 0.0,
			"0.02": 0.0,
			"0.021": 0.0,
			"0.022": 0.0,
			"0.023": 0.0,
			"0.024": 0.0,
			"0.025": 0.0
		}
	}
}
