{
	 "smiles": "CCCC(CN)C(O)=O", 
	 "Tm": 493.15, 
	 "num_atms": 22, 
	 "gaussian": { 
		 "optdone": 1, 
		 "sigma_profile": "yes", 
		 "theory": "DFT", 
		 "functional": "B3LYP", 
		 "basiset": "6-31G**", 
		 "properties": { 
			 "R2extent": 1396.812, 
			 "electric_dipole_moment_norm": 0.0768516753233, 
			 "electric_quadrupole_moment_norm": 13.2252501492, 
			 "total_energy": -441.69120051, 
			 "HOMO_LUMO_gap": 0.23406, 
			 "cosmo_polarized_energy": -11.43, 
			 "cosmo_cavitation_energy": 23.78, 
			 "cosmo_dispersion_energy": -17.04, 
			 "cosmo_repulsion_energy": 1.42, 
			 "cosmo_total_nonelectrostatic_energy": 8.16, 
			 "SMD_solvation_energy": 3.42 
		},
		"coords": [
			{
				"x": 0.9119422262,
				"y": 0.5123680394,
				"z": 1.899512725,
				"element": "C" 
			},
			{
				"x": 1.9414057058,
				"y": 0.5458936656,
				"z": 0.7629220783,
				"element": "C" 
			},
			{
				"x": 1.720659142,
				"y": -0.4828241139,
				"z": -0.3608776314,
				"element": "C" 
			},
			{
				"x": 0.4154764325,
				"y": -0.3471456491,
				"z": -1.1902577445,
				"element": "C" 
			},
			{
				"x": 0.2134500927,
				"y": 1.0575192693,
				"z": -1.8037906631,
				"element": "C" 
			},
			{
				"x": -0.7976904679,
				"y": 1.1875308676,
				"z": -2.8508536751,
				"element": "N" 
			},
			{
				"x": -0.7700440948,
				"y": -0.8969115396,
				"z": -0.4048617654,
				"element": "C" 
			},
			{
				"x": -1.8404169847,
				"y": -0.0570836876,
				"z": -0.353163912,
				"element": "O" 
			},
			{
				"x": -0.7970396518,
				"y": -1.985954948,
				"z": 0.1256627393,
				"element": "O" 
			},
			{
				"x": 1.2000053468,
				"y": 1.1997210215,
				"z": 2.7016812915,
				"element": "H" 
			},
			{
				"x": -0.0843939294,
				"y": 0.8130671382,
				"z": 1.559472456,
				"element": "H" 
			},
			{
				"x": 0.8270652567,
				"y": -0.4909951516,
				"z": 2.3301299772,
				"element": "H" 
			},
			{
				"x": 1.9848528449,
				"y": 1.5571556187,
				"z": 0.3393981587,
				"element": "H" 
			},
			{
				"x": 2.9380371165,
				"y": 0.3587683859,
				"z": 1.1825472986,
				"element": "H" 
			},
			{
				"x": 1.7472101499,
				"y": -1.495012009,
				"z": 0.0570329631,
				"element": "H" 
			},
			{
				"x": 2.5596488468,
				"y": -0.4101702886,
				"z": -1.0637720205,
				"element": "H" 
			},
			{
				"x": 0.5180314434,
				"y": -1.0578351303,
				"z": -2.02449447,
				"element": "H" 
			},
			{
				"x": -0.0290228501,
				"y": 1.7772112423,
				"z": -1.0157827481,
				"element": "H" 
			},
			{
				"x": 1.1771393659,
				"y": 1.372556588,
				"z": -2.2234382344,
				"element": "H" 
			},
			{
				"x": -0.6105857118,
				"y": 0.5314285273,
				"z": -3.6058368041,
				"element": "H" 
			},
			{
				"x": -1.7098548781,
				"y": 0.9509874845,
				"z": -2.4710757143,
				"element": "H" 
			},
			{
				"x": -2.5174754014,
				"y": -0.5254753305,
				"z": 0.1647456951,
				"element": "H" 
			}
		],
		 "valence_orbital": [ 
			{
				"type": "occ",
				"energy": -0.33251,
				"method": "rhf"
			},
			{
				"type": "occ",
				"energy": -0.32754,
				"method": "rhf"
			},
			{
				"type": "occ",
				"energy": -0.31328,
				"method": "rhf"
			},
			{
				"type": "occ",
				"energy": -0.27612,
				"method": "rhf"
			},
			{
				"type": "occ",
				"energy": -0.2304,
				"method": "rhf"
			},
			{
				"type": "unocc",
				"energy": 0.00366,
				"method": "rhf"
			},
			{
				"type": "unocc",
				"energy": 0.06246,
				"method": "rhf"
			},
			{
				"type": "unocc",
				"energy": 0.0893,
				"method": "rhf"
			},
			{
				"type": "unocc",
				"energy": 0.09884,
				"method": "rhf"
			},
			{
				"type": "unocc",
				"energy": 0.12083,
				"method": "rhf"
			}
		],
		"cosmo_sigma_profile": { 
			"-0.025": 0.0,
			"-0.024": 0.0,
			"-0.023": 0.0,
			"-0.022": 0.0,
			"-0.021": 0.0,
			"-0.02": 0.0,
			"-0.019": 0.0,
			"-0.018": 0.483147472349,
			"-0.017": 1.0113196815,
			"-0.016": 0.999744488212,
			"-0.015": 0.462233814935,
			"-0.014": 0.591158950862,
			"-0.013": 0.511545151316,
			"-0.012": 1.116216084,
			"-0.011": 0.952814203232,
			"-0.01": 0.93532258371,
			"-0.009": 1.91720438147,
			"-0.008": 1.91968535154,
			"-0.007": 3.41783204827,
			"-0.006": 6.72470348917,
			"-0.005": 6.78848320874,
			"-0.004": 5.87670410484,
			"-0.003": 18.5028038027,
			"-0.002": 22.1124176929,
			"-0.001": 22.8421222376,
			"0.0": 22.7523089467,
			"0.001": 17.1333606589,
			"0.002": 7.15707485579,
			"0.003": 3.99479995747,
			"0.004": 3.44627070785,
			"0.005": 3.89021505643,
			"0.006": 3.26358006349,
			"0.007": 2.93707723282,
			"0.008": 2.17507094262,
			"0.009": 1.7339906611,
			"0.01": 2.26539315417,
			"0.011": 3.19816743163,
			"0.012": 5.85785038593,
			"0.013": 1.7219363169,
			"0.014": 0.880281772045,
			"0.015": 0.629836276966,
			"0.016": 0.57061727034,
			"0.017": 0.451078106492,
			"0.018": 0.728086675079,
			"0.019": 0.7911513378,
			"0.02": 0.403646208095,
			"0.021": 0.01406629296,
			"0.022": 0.0,
			"0.023": 0.0,
			"0.024": 0.0,
			"0.025": 0.0
		}
	}
}
