{
	 "smiles": "NC(=O)C1=C(N)SC=C1C1=CC=C(C=C1)C(F)(F)F", 
	 "Tm": 432.15, 
	 "num_atms": 28, 
	 "gaussian": { 
		 "optdone": 1, 
		 "sigma_profile": "yes", 
		 "theory": "DFT", 
		 "functional": "B3LYP", 
		 "basiset": "6-31G**", 
		 "properties": { 
			 "R2extent": 7725.9878, 
			 "electric_dipole_moment_norm": 6.32917329594, 
			 "electric_quadrupole_moment_norm": 13.1395257924, 
			 "total_energy": -1345.15132337, 
			 "HOMO_LUMO_gap": 0.17685, 
			 "cosmo_polarized_energy": -18.33, 
			 "cosmo_cavitation_energy": 35.49, 
			 "cosmo_dispersion_energy": -25.59, 
			 "cosmo_repulsion_energy": 1.88, 
			 "cosmo_total_nonelectrostatic_energy": 11.78, 
			 "SMD_solvation_energy": 7.57 
		},
		"coords": [
			{
				"x": 2.7591546071,
				"y": -1.9700925858,
				"z": -0.2419024559,
				"element": "N" 
			},
			{
				"x": 1.7053923771,
				"y": -1.0504006288,
				"z": -0.2638490848,
				"element": "C" 
			},
			{
				"x": 0.7328715348,
				"y": -1.2298364961,
				"z": -0.9823044909,
				"element": "O" 
			},
			{
				"x": 1.8978848628,
				"y": 0.1565841507,
				"z": 0.5775857371,
				"element": "C" 
			},
			{
				"x": 3.1411872408,
				"y": 0.7088051042,
				"z": 0.8549429009,
				"element": "C" 
			},
			{
				"x": 4.399708365,
				"y": 0.2146186538,
				"z": 0.5619119494,
				"element": "N" 
			},
			{
				"x": 2.9969240328,
				"y": 2.2309904566,
				"z": 1.7035457852,
				"element": "S" 
			},
			{
				"x": 1.2559405865,
				"y": 2.1287261091,
				"z": 1.6692060798,
				"element": "C" 
			},
			{
				"x": 0.8089478841,
				"y": 0.9963542944,
				"z": 1.0509494134,
				"element": "C" 
			},
			{
				"x": -0.6404263467,
				"y": 0.6939300486,
				"z": 0.9695435134,
				"element": "C" 
			},
			{
				"x": -1.1525083312,
				"y": -0.5642596356,
				"z": 1.3259918014,
				"element": "C" 
			},
			{
				"x": -2.5209862056,
				"y": -0.8069979566,
				"z": 1.3120011092,
				"element": "C" 
			},
			{
				"x": -3.4089553653,
				"y": 0.2063106614,
				"z": 0.9371749851,
				"element": "C" 
			},
			{
				"x": -2.9164423938,
				"y": 1.4612800154,
				"z": 0.5756170646,
				"element": "C" 
			},
			{
				"x": -1.5441339507,
				"y": 1.6988162344,
				"z": 0.5904881872,
				"element": "C" 
			},
			{
				"x": -4.8904830405,
				"y": -0.0414719791,
				"z": 0.9800421656,
				"element": "C" 
			},
			{
				"x": -5.197229294,
				"y": -1.3259598975,
				"z": 0.6894764764,
				"element": "F" 
			},
			{
				"x": -5.5620179862,
				"y": 0.7440511408,
				"z": 0.1083031047,
				"element": "F" 
			},
			{
				"x": -5.4056696325,
				"y": 0.2113778755,
				"z": 2.2084636493,
				"element": "F" 
			},
			{
				"x": 2.532319938,
				"y": -2.8271290877,
				"z": -0.7320648971,
				"element": "H" 
			},
			{
				"x": 3.23568592,
				"y": -2.1068306707,
				"z": 0.6417779022,
				"element": "H" 
			},
			{
				"x": 5.1302399843,
				"y": 0.9084362474,
				"z": 0.4746692391,
				"element": "H" 
			},
			{
				"x": 4.4017886616,
				"y": -0.4657040508,
				"z": -0.1913860474,
				"element": "H" 
			},
			{
				"x": 0.6682635601,
				"y": 2.884371443,
				"z": 2.1697697735,
				"element": "H" 
			},
			{
				"x": -0.473859639,
				"y": -1.3561584805,
				"z": 1.6229340686,
				"element": "H" 
			},
			{
				"x": -2.903356868,
				"y": -1.7845705471,
				"z": 1.5856046628,
				"element": "H" 
			},
			{
				"x": -3.6026526035,
				"y": 2.2430547113,
				"z": 0.2683642147,
				"element": "H" 
			},
			{
				"x": -1.1618878981,
				"y": 2.6672048698,
				"z": 0.2834431924,
				"element": "H" 
			}
		],
		 "valence_orbital": [ 
			{
				"type": "occ",
				"energy": -0.27846,
				"method": "rhf"
			},
			{
				"type": "occ",
				"energy": -0.25739,
				"method": "rhf"
			},
			{
				"type": "occ",
				"energy": -0.25184,
				"method": "rhf"
			},
			{
				"type": "occ",
				"energy": -0.24225,
				"method": "rhf"
			},
			{
				"type": "occ",
				"energy": -0.21079,
				"method": "rhf"
			},
			{
				"type": "unocc",
				"energy": -0.03394,
				"method": "rhf"
			},
			{
				"type": "unocc",
				"energy": -0.02296,
				"method": "rhf"
			},
			{
				"type": "unocc",
				"energy": -0.00669,
				"method": "rhf"
			},
			{
				"type": "unocc",
				"energy": 0.00331,
				"method": "rhf"
			},
			{
				"type": "unocc",
				"energy": 0.02212,
				"method": "rhf"
			}
		],
		"cosmo_sigma_profile": { 
			"-0.025": 0.0,
			"-0.024": 0.0,
			"-0.023": 0.0,
			"-0.022": 0.0,
			"-0.021": 0.0,
			"-0.02": 0.0,
			"-0.019": 0.0,
			"-0.018": 0.0,
			"-0.017": 0.0,
			"-0.016": 0.0,
			"-0.015": 0.0861423263937,
			"-0.014": 1.46398072438,
			"-0.013": 3.09109238913,
			"-0.012": 3.73340692575,
			"-0.011": 5.0879373494,
			"-0.01": 4.44835093631,
			"-0.009": 4.15858756082,
			"-0.008": 5.13581561914,
			"-0.007": 7.84432588864,
			"-0.006": 12.6841557325,
			"-0.005": 14.9890654569,
			"-0.004": 12.6971178507,
			"-0.003": 12.4670144531,
			"-0.002": 13.5367585964,
			"-0.001": 11.8758558129,
			"0.0": 16.7515128511,
			"0.001": 21.4889152351,
			"0.002": 30.6336917142,
			"0.003": 51.7689350053,
			"0.004": 21.5542309164,
			"0.005": 5.25845194615,
			"0.006": 2.99071321152,
			"0.007": 2.83041893493,
			"0.008": 1.70237633623,
			"0.009": 1.73596506246,
			"0.01": 3.33446209805,
			"0.011": 2.08514697736,
			"0.012": 2.38465405941,
			"0.013": 4.39570265827,
			"0.014": 3.74840727635,
			"0.015": 0.17231204667,
			"0.016": 0.0,
			"0.017": 0.0,
			"0.018": 0.0,
			"0.019": 0.0,
			"0.02": 0.0,
			"0.021": 0.0,
			"0.022": 0.0,
			"0.023": 0.0,
			"0.024": 0.0,
			"0.025": 0.0
		}
	}
}
