{
	 "smiles": "CCOC(=O)C(=O)CC(=O)C1=C(Cl)C=C(Cl)C=C1", 
	 "Tm": 342.15, 
	 "num_atms": 28, 
	 "gaussian": { 
		 "optdone": 1, 
		 "sigma_profile": "yes", 
		 "theory": "DFT", 
		 "functional": "B3LYP", 
		 "basiset": "6-31G**", 
		 "properties": { 
			 "R2extent": 7361.9435, 
			 "electric_dipole_moment_norm": 2.28538782923, 
			 "electric_quadrupole_moment_norm": 13.8738686195, 
			 "total_energy": -1684.57231903, 
			 "HOMO_LUMO_gap": 0.17673, 
			 "cosmo_polarized_energy": -12.58, 
			 "cosmo_cavitation_energy": 37.35, 
			 "cosmo_dispersion_energy": -26.18, 
			 "cosmo_repulsion_energy": 2.07, 
			 "cosmo_total_nonelectrostatic_energy": 13.24, 
			 "SMD_solvation_energy": 8.11 
		},
		"coords": [
			{
				"x": 1.5724912297,
				"y": 1.7657314517,
				"z": 5.0135852999,
				"element": "C" 
			},
			{
				"x": 2.2498040902,
				"y": 1.9387511624,
				"z": 3.6689543139,
				"element": "C" 
			},
			{
				"x": 1.2649061179,
				"y": 1.6420951003,
				"z": 2.6443841421,
				"element": "O" 
			},
			{
				"x": 1.6869368423,
				"y": 1.7443670344,
				"z": 1.3860157786,
				"element": "C" 
			},
			{
				"x": 2.8040436896,
				"y": 2.0659218258,
				"z": 1.0349178718,
				"element": "O" 
			},
			{
				"x": 0.5672942025,
				"y": 1.4013362164,
				"z": 0.3759203423,
				"element": "C" 
			},
			{
				"x": -0.5185081109,
				"y": 1.0123122563,
				"z": 0.741882926,
				"element": "O" 
			},
			{
				"x": 0.94249225,
				"y": 1.6384762087,
				"z": -1.0758994959,
				"element": "C" 
			},
			{
				"x": -0.0081182823,
				"y": 0.9883629478,
				"z": -2.0725786859,
				"element": "C" 
			},
			{
				"x": -0.5676338068,
				"y": 1.6967193113,
				"z": -2.8934787254,
				"element": "O" 
			},
			{
				"x": -0.3137489101,
				"y": -0.4912849742,
				"z": -2.0635128434,
				"element": "C" 
			},
			{
				"x": 0.4315182733,
				"y": -1.5410478185,
				"z": -1.4965566107,
				"element": "C" 
			},
			{
				"x": 1.9742937139,
				"y": -1.2967258819,
				"z": -0.6822758754,
				"element": "Cl" 
			},
			{
				"x": 0.0093665652,
				"y": -2.8689326115,
				"z": -1.5786146076,
				"element": "C" 
			},
			{
				"x": -1.1829099495,
				"y": -3.1643113065,
				"z": -2.2330493426,
				"element": "C" 
			},
			{
				"x": -1.7149293778,
				"y": -4.8288271265,
				"z": -2.3235549692,
				"element": "Cl" 
			},
			{
				"x": -1.9502602735,
				"y": -2.1568125847,
				"z": -2.8181888093,
				"element": "C" 
			},
			{
				"x": -1.5021535834,
				"y": -0.8473801175,
				"z": -2.7300660517,
				"element": "C" 
			},
			{
				"x": 0.7237881721,
				"y": 2.4476936986,
				"z": 5.1144054434,
				"element": "H" 
			},
			{
				"x": 1.2095804496,
				"y": 0.7420396695,
				"z": 5.1393319096,
				"element": "H" 
			},
			{
				"x": 2.2859166062,
				"y": 1.9808023492,
				"z": 5.8150731835,
				"element": "H" 
			},
			{
				"x": 3.0986428841,
				"y": 1.2601726571,
				"z": 3.539282468,
				"element": "H" 
			},
			{
				"x": 2.6143279156,
				"y": 2.9590013615,
				"z": 3.5136474089,
				"element": "H" 
			},
			{
				"x": 0.8883768863,
				"y": 2.7177914373,
				"z": -1.2636371771,
				"element": "H" 
			},
			{
				"x": 1.9826893103,
				"y": 1.3487033308,
				"z": -1.2400467099,
				"element": "H" 
			},
			{
				"x": 0.6082197429,
				"y": -3.6572774235,
				"z": -1.1402833495,
				"element": "H" 
			},
			{
				"x": -2.8753547959,
				"y": -2.3974804538,
				"z": -3.3289151038,
				"element": "H" 
			},
			{
				"x": -2.0705718514,
				"y": -0.0424977207,
				"z": -3.1820427303,
				"element": "H" 
			}
		],
		 "valence_orbital": [ 
			{
				"type": "occ",
				"energy": -0.3181,
				"method": "rhf"
			},
			{
				"type": "occ",
				"energy": -0.27655,
				"method": "rhf"
			},
			{
				"type": "occ",
				"energy": -0.27134,
				"method": "rhf"
			},
			{
				"type": "occ",
				"energy": -0.264,
				"method": "rhf"
			},
			{
				"type": "occ",
				"energy": -0.25933,
				"method": "rhf"
			},
			{
				"type": "unocc",
				"energy": -0.0826,
				"method": "rhf"
			},
			{
				"type": "unocc",
				"energy": -0.07306,
				"method": "rhf"
			},
			{
				"type": "unocc",
				"energy": -0.03398,
				"method": "rhf"
			},
			{
				"type": "unocc",
				"energy": -0.00512,
				"method": "rhf"
			},
			{
				"type": "unocc",
				"energy": 0.01138,
				"method": "rhf"
			}
		],
		"cosmo_sigma_profile": { 
			"-0.025": 0.0,
			"-0.024": 0.0,
			"-0.023": 0.0,
			"-0.022": 0.0,
			"-0.021": 0.0,
			"-0.02": 0.0,
			"-0.019": 0.0,
			"-0.018": 0.0,
			"-0.017": 0.0,
			"-0.016": 0.0,
			"-0.015": 0.0,
			"-0.014": 0.0,
			"-0.013": 0.0,
			"-0.012": 0.0,
			"-0.011": 0.0870433376765,
			"-0.01": 1.21764355045,
			"-0.009": 2.86247765186,
			"-0.008": 6.63288364565,
			"-0.007": 8.94824536942,
			"-0.006": 12.8430532578,
			"-0.005": 18.1489726222,
			"-0.004": 22.6239271716,
			"-0.003": 22.6778167746,
			"-0.002": 23.1773003734,
			"-0.001": 29.1939649068,
			"0.0": 34.4056306915,
			"0.001": 24.1191760596,
			"0.002": 17.1109906498,
			"0.003": 20.3303729865,
			"0.004": 11.9780974092,
			"0.005": 4.72661753829,
			"0.006": 5.48949235515,
			"0.007": 4.29162722739,
			"0.008": 6.73029083857,
			"0.009": 8.35833946869,
			"0.01": 9.19027874253,
			"0.011": 6.23727992942,
			"0.012": 1.11704123289,
			"0.013": 0.0,
			"0.014": 0.0,
			"0.015": 0.0,
			"0.016": 0.0,
			"0.017": 0.0,
			"0.018": 0.0,
			"0.019": 0.0,
			"0.02": 0.0,
			"0.021": 0.0,
			"0.022": 0.0,
			"0.023": 0.0,
			"0.024": 0.0,
			"0.025": 0.0
		}
	}
}
