{
	 "smiles": "CC1=C(C)C2=C(S1)N=CN(N)C2=O", 
	 "Tm": 405.15, 
	 "num_atms": 22, 
	 "gaussian": { 
		 "optdone": 1, 
		 "sigma_profile": "yes", 
		 "theory": "DFT", 
		 "functional": "B3LYP", 
		 "basiset": "6-31G**", 
		 "properties": { 
			 "R2extent": 2973.461, 
			 "electric_dipole_moment_norm": 0.911907413063, 
			 "electric_quadrupole_moment_norm": 11.7147441018, 
			 "total_energy": -947.933545485, 
			 "HOMO_LUMO_gap": 0.17209, 
			 "cosmo_polarized_energy": -11.42, 
			 "cosmo_cavitation_energy": 27.23, 
			 "cosmo_dispersion_energy": -20.61, 
			 "cosmo_repulsion_energy": 1.56, 
			 "cosmo_total_nonelectrostatic_energy": 8.19, 
			 "SMD_solvation_energy": 3.99 
		},
		"coords": [
			{
				"x": 1.505229558,
				"y": 1.3394386752,
				"z": 2.2111823696,
				"element": "C" 
			},
			{
				"x": 1.0695988277,
				"y": 0.569476261,
				"z": 0.994756227,
				"element": "C" 
			},
			{
				"x": -0.0755123479,
				"y": -0.1648003468,
				"z": 0.8188587331,
				"element": "C" 
			},
			{
				"x": -1.149757641,
				"y": -0.3397341812,
				"z": 1.8579737472,
				"element": "C" 
			},
			{
				"x": -0.1298026747,
				"y": -0.7559226201,
				"z": -0.4928166564,
				"element": "C" 
			},
			{
				"x": 0.9759334883,
				"y": -0.4595056498,
				"z": -1.2893500988,
				"element": "C" 
			},
			{
				"x": 2.1024001355,
				"y": 0.5553167198,
				"z": -0.4314073931,
				"element": "S" 
			},
			{
				"x": 1.1983095282,
				"y": -0.8770708996,
				"z": -2.567037679,
				"element": "N" 
			},
			{
				"x": 0.2595613473,
				"y": -1.628357514,
				"z": -3.0607276168,
				"element": "C" 
			},
			{
				"x": -0.8739868942,
				"y": -1.9921631768,
				"z": -2.3846565518,
				"element": "N" 
			},
			{
				"x": -1.7972093048,
				"y": -2.815608283,
				"z": -3.0683241339,
				"element": "N" 
			},
			{
				"x": -1.1709455178,
				"y": -1.5927289781,
				"z": -1.0492897907,
				"element": "C" 
			},
			{
				"x": -2.2156001254,
				"y": -1.9716892679,
				"z": -0.5268554351,
				"element": "O" 
			},
			{
				"x": 0.78195272,
				"y": 2.1213826879,
				"z": 2.4682661286,
				"element": "H" 
			},
			{
				"x": 1.6079739603,
				"y": 0.6832286807,
				"z": 3.0826647802,
				"element": "H" 
			},
			{
				"x": 2.4709017061,
				"y": 1.8262127224,
				"z": 2.0522784146,
				"element": "H" 
			},
			{
				"x": -2.1141413212,
				"y": 0.0252469359,
				"z": 1.4914365391,
				"element": "H" 
			},
			{
				"x": -0.9029590191,
				"y": 0.1946135925,
				"z": 2.7782662894,
				"element": "H" 
			},
			{
				"x": -1.2956837881,
				"y": -1.3974166263,
				"z": 2.0979708302,
				"element": "H" 
			},
			{
				"x": 0.3256648559,
				"y": -2.021556405,
				"z": -4.0704005766,
				"element": "H" 
			},
			{
				"x": -1.9388558672,
				"y": -3.6381653909,
				"z": -2.4806333275,
				"element": "H" 
			},
			{
				"x": -2.6932716261,
				"y": -2.327396936,
				"z": -3.0405547992,
				"element": "H" 
			}
		],
		 "valence_orbital": [ 
			{
				"type": "occ",
				"energy": -0.28549,
				"method": "rhf"
			},
			{
				"type": "occ",
				"energy": -0.28281,
				"method": "rhf"
			},
			{
				"type": "occ",
				"energy": -0.26783,
				"method": "rhf"
			},
			{
				"type": "occ",
				"energy": -0.25407,
				"method": "rhf"
			},
			{
				"type": "occ",
				"energy": -0.2137,
				"method": "rhf"
			},
			{
				"type": "unocc",
				"energy": -0.04161,
				"method": "rhf"
			},
			{
				"type": "unocc",
				"energy": -0.01,
				"method": "rhf"
			},
			{
				"type": "unocc",
				"energy": 0.01749,
				"method": "rhf"
			},
			{
				"type": "unocc",
				"energy": 0.02836,
				"method": "rhf"
			},
			{
				"type": "unocc",
				"energy": 0.07446,
				"method": "rhf"
			}
		],
		"cosmo_sigma_profile": { 
			"-0.025": 0.0,
			"-0.024": 0.0,
			"-0.023": 0.0,
			"-0.022": 0.0,
			"-0.021": 0.0,
			"-0.02": 0.0,
			"-0.019": 0.0,
			"-0.018": 0.0,
			"-0.017": 0.0,
			"-0.016": 0.0,
			"-0.015": 0.0,
			"-0.014": 0.0,
			"-0.013": 0.806747456491,
			"-0.012": 2.55358396234,
			"-0.011": 3.24091101618,
			"-0.01": 2.46570948195,
			"-0.009": 3.63262284359,
			"-0.008": 3.04570145979,
			"-0.007": 3.50964366716,
			"-0.006": 4.53302926238,
			"-0.005": 9.34099731565,
			"-0.004": 17.7095045014,
			"-0.003": 19.2836180594,
			"-0.002": 17.5954229445,
			"-0.001": 18.9219655894,
			"0.0": 21.436498736,
			"0.001": 17.1644503954,
			"0.002": 17.382052429,
			"0.003": 14.558589185,
			"0.004": 8.06165891123,
			"0.005": 3.88438362708,
			"0.006": 4.27123418906,
			"0.007": 2.50628849079,
			"0.008": 3.39636196349,
			"0.009": 3.38817371958,
			"0.01": 2.86114438225,
			"0.011": 3.33389168923,
			"0.012": 3.92589845302,
			"0.013": 5.0585120293,
			"0.014": 0.764648757489,
			"0.015": 0.0900252797483,
			"0.016": 0.0,
			"0.017": 0.0,
			"0.018": 0.0,
			"0.019": 0.0,
			"0.02": 0.0,
			"0.021": 0.0,
			"0.022": 0.0,
			"0.023": 0.0,
			"0.024": 0.0,
			"0.025": 0.0
		}
	}
}
