{
	 "smiles": "NC(CC1=CC=C(O)C=C1)C(O)=O", 
	 "Tm": 598.15, 
	 "num_atms": 24, 
	 "gaussian": { 
		 "optdone": 1, 
		 "sigma_profile": "yes", 
		 "theory": "DFT", 
		 "functional": "B3LYP", 
		 "basiset": "6-31G**", 
		 "properties": { 
			 "R2extent": 3632.353, 
			 "electric_dipole_moment_norm": 4.61782339203, 
			 "electric_quadrupole_moment_norm": 21.1609091912, 
			 "total_energy": -630.015082021, 
			 "HOMO_LUMO_gap": 0.21103, 
			 "cosmo_polarized_energy": -18.75, 
			 "cosmo_cavitation_energy": 27.79, 
			 "cosmo_dispersion_energy": -19.85, 
			 "cosmo_repulsion_energy": 1.58, 
			 "cosmo_total_nonelectrostatic_energy": 9.51, 
			 "SMD_solvation_energy": 4.84 
		},
		"coords": [
			{
				"x": 4.2209629975,
				"y": -0.7126156751,
				"z": -0.5770260843,
				"element": "N" 
			},
			{
				"x": 2.8957605073,
				"y": -1.2547175415,
				"z": -0.3081445704,
				"element": "C" 
			},
			{
				"x": 1.8258180309,
				"y": -0.161720419,
				"z": -0.5866876017,
				"element": "C" 
			},
			{
				"x": 0.4577822872,
				"y": -0.4101287798,
				"z": 0.0177720911,
				"element": "C" 
			},
			{
				"x": 0.2610642759,
				"y": -0.3208579364,
				"z": 1.4053092645,
				"element": "C" 
			},
			{
				"x": -0.992101794,
				"y": -0.5295828756,
				"z": 1.9772974125,
				"element": "C" 
			},
			{
				"x": -2.0904334739,
				"y": -0.832425023,
				"z": 1.1629555993,
				"element": "C" 
			},
			{
				"x": -3.3427265854,
				"y": -1.0448720629,
				"z": 1.6584380691,
				"element": "O" 
			},
			{
				"x": -1.9185150948,
				"y": -0.9261964443,
				"z": -0.2220077833,
				"element": "C" 
			},
			{
				"x": -0.6590590318,
				"y": -0.7162383489,
				"z": -0.7786935125,
				"element": "C" 
			},
			{
				"x": 2.6203951674,
				"y": -2.5601720329,
				"z": -1.0867107405,
				"element": "C" 
			},
			{
				"x": 1.4385595547,
				"y": -3.1748611975,
				"z": -0.8463201395,
				"element": "O" 
			},
			{
				"x": 3.4132363069,
				"y": -3.0409122945,
				"z": -1.861283178,
				"element": "O" 
			},
			{
				"x": 4.9099232914,
				"y": -1.4395175019,
				"z": -0.393606292,
				"element": "H" 
			},
			{
				"x": 4.3003444343,
				"y": -0.5477092152,
				"z": -1.580037009,
				"element": "H" 
			},
			{
				"x": 2.845587201,
				"y": -1.505468265,
				"z": 0.761092608,
				"element": "H" 
			},
			{
				"x": 2.2476651851,
				"y": 0.7658246949,
				"z": -0.1859960151,
				"element": "H" 
			},
			{
				"x": 1.7334741058,
				"y": -0.0213920761,
				"z": -1.6705549734,
				"element": "H" 
			},
			{
				"x": 1.0999338899,
				"y": -0.0718198727,
				"z": 2.0508914729,
				"element": "H" 
			},
			{
				"x": -1.1187042,
				"y": -0.4498713549,
				"z": 3.0549890025,
				"element": "H" 
			},
			{
				"x": -3.3284537984,
				"y": -0.9491026196,
				"z": 2.6196424369,
				"element": "H" 
			},
			{
				"x": -2.7762814854,
				"y": -1.1605434884,
				"z": -0.8433530659,
				"element": "H" 
			},
			{
				"x": -0.5400983331,
				"y": -0.7896621582,
				"z": -1.8565401343,
				"element": "H" 
			},
			{
				"x": 0.8802665613,
				"y": -2.6233375115,
				"z": -0.2729268571,
				"element": "H" 
			}
		],
		 "valence_orbital": [ 
			{
				"type": "occ",
				"energy": -0.3097,
				"method": "rhf"
			},
			{
				"type": "occ",
				"energy": -0.27121,
				"method": "rhf"
			},
			{
				"type": "occ",
				"energy": -0.26776,
				"method": "rhf"
			},
			{
				"type": "occ",
				"energy": -0.24958,
				"method": "rhf"
			},
			{
				"type": "occ",
				"energy": -0.23313,
				"method": "rhf"
			},
			{
				"type": "unocc",
				"energy": -0.0221,
				"method": "rhf"
			},
			{
				"type": "unocc",
				"energy": -0.00924,
				"method": "rhf"
			},
			{
				"type": "unocc",
				"energy": 0.015,
				"method": "rhf"
			},
			{
				"type": "unocc",
				"energy": 0.0583,
				"method": "rhf"
			},
			{
				"type": "unocc",
				"energy": 0.08287,
				"method": "rhf"
			}
		],
		"cosmo_sigma_profile": { 
			"-0.025": 0.0,
			"-0.024": 0.0,
			"-0.023": 0.0,
			"-0.022": 0.0,
			"-0.021": 0.0,
			"-0.02": 0.0,
			"-0.019": 0.0,
			"-0.018": 0.611130143603,
			"-0.017": 1.16418684529,
			"-0.016": 0.742316767498,
			"-0.015": 1.1344447594,
			"-0.014": 1.22283696836,
			"-0.013": 1.14284480888,
			"-0.012": 0.459533721314,
			"-0.011": 1.21925505337,
			"-0.01": 4.41286992453,
			"-0.009": 4.8090361063,
			"-0.008": 5.59310202928,
			"-0.007": 8.57600881024,
			"-0.006": 18.0167979382,
			"-0.005": 14.9250548136,
			"-0.004": 14.8954759387,
			"-0.003": 11.4524381376,
			"-0.002": 10.8634066944,
			"-0.001": 10.3133237381,
			"0.0": 10.4672293228,
			"0.001": 10.3303043043,
			"0.002": 9.22229498388,
			"0.003": 12.3194207456,
			"0.004": 10.7948529467,
			"0.005": 8.62555561029,
			"0.006": 5.35755982386,
			"0.007": 3.93293261172,
			"0.008": 4.59598218344,
			"0.009": 5.28343936718,
			"0.01": 6.45766932204,
			"0.011": 7.99493249853,
			"0.012": 6.26077677516,
			"0.013": 2.82992409159,
			"0.014": 0.562555823053,
			"0.015": 0.238141544464,
			"0.016": 0.870498769047,
			"0.017": 0.688164319543,
			"0.018": 0.397263620616,
			"0.019": 0.102381555617,
			"0.02": 0.0,
			"0.021": 0.0,
			"0.022": 0.0,
			"0.023": 0.0,
			"0.024": 0.0,
			"0.025": 0.0
		}
	}
}
