{
	 "smiles": "CCCOC1=CC(OCCC)=CC(O)=C1", 
	 "Tm": 318.65, 
	 "num_atms": 33, 
	 "gaussian": { 
		 "optdone": 1, 
		 "sigma_profile": "yes", 
		 "theory": "DFT", 
		 "functional": "B3LYP", 
		 "basiset": "6-31G**", 
		 "properties": { 
			 "R2extent": 4885.9779, 
			 "electric_dipole_moment_norm": 2.69873887214, 
			 "electric_quadrupole_moment_norm": 13.3349823086, 
			 "total_energy": -693.791639631, 
			 "HOMO_LUMO_gap": 0.2279, 
			 "cosmo_polarized_energy": -11.97, 
			 "cosmo_cavitation_energy": 35.52, 
			 "cosmo_dispersion_energy": -25.41, 
			 "cosmo_repulsion_energy": 2.06, 
			 "cosmo_total_nonelectrostatic_energy": 12.17, 
			 "SMD_solvation_energy": 6.75 
		},
		"coords": [
			{
				"x": -4.2194510126,
				"y": 2.7254095509,
				"z": -0.9002412108,
				"element": "C" 
			},
			{
				"x": -4.432455578,
				"y": 1.3394641817,
				"z": -0.2843636006,
				"element": "C" 
			},
			{
				"x": -3.222273603,
				"y": 0.8253961825,
				"z": 0.4857885041,
				"element": "C" 
			},
			{
				"x": -2.1449790958,
				"y": 0.6760955386,
				"z": -0.4361395808,
				"element": "O" 
			},
			{
				"x": -0.9333165971,
				"y": 0.245445428,
				"z": 0.0228296781,
				"element": "C" 
			},
			{
				"x": 0.0651320115,
				"y": 0.1374412353,
				"z": -0.9569926707,
				"element": "C" 
			},
			{
				"x": 1.3391771702,
				"y": -0.297493954,
				"z": -0.5840796495,
				"element": "C" 
			},
			{
				"x": 2.396692731,
				"y": -0.4232124768,
				"z": -1.438926483,
				"element": "O" 
			},
			{
				"x": 2.2290627542,
				"y": -0.1507281874,
				"z": -2.8327699682,
				"element": "C" 
			},
			{
				"x": 1.6233715981,
				"y": -1.3259646986,
				"z": -3.6030640227,
				"element": "C" 
			},
			{
				"x": 2.4709346154,
				"y": -2.5989143399,
				"z": -3.5176751275,
				"element": "C" 
			},
			{
				"x": 1.6210492801,
				"y": -0.6280848082,
				"z": 0.7496071827,
				"element": "C" 
			},
			{
				"x": 0.6154256871,
				"y": -0.5141627441,
				"z": 1.7015204999,
				"element": "C" 
			},
			{
				"x": 0.9344461834,
				"y": -0.8451596947,
				"z": 2.9895145427,
				"element": "O" 
			},
			{
				"x": -0.6743071378,
				"y": -0.0773631254,
				"z": 1.3570273029,
				"element": "C" 
			},
			{
				"x": -4.0136814854,
				"y": 3.474097177,
				"z": -0.1265262805,
				"element": "H" 
			},
			{
				"x": -5.1066660668,
				"y": 3.0508463429,
				"z": -1.4521788511,
				"element": "H" 
			},
			{
				"x": -3.371999,
				"y": 2.7161073901,
				"z": -1.5906442539,
				"element": "H" 
			},
			{
				"x": -5.2834202446,
				"y": 1.3584541339,
				"z": 0.4082856651,
				"element": "H" 
			},
			{
				"x": -4.6796962441,
				"y": 0.6124071164,
				"z": -1.0670530446,
				"element": "H" 
			},
			{
				"x": -2.9403086025,
				"y": 1.5337891665,
				"z": 1.2793565484,
				"element": "H" 
			},
			{
				"x": -3.4464142321,
				"y": -0.1416702602,
				"z": 0.9584906185,
				"element": "H" 
			},
			{
				"x": -0.1955827173,
				"y": 0.3945261009,
				"z": -1.9744116292,
				"element": "H" 
			},
			{
				"x": 1.6428351711,
				"y": 0.7656875622,
				"z": -2.9739475714,
				"element": "H" 
			},
			{
				"x": 3.2440639738,
				"y": 0.0486997469,
				"z": -3.1923707511,
				"element": "H" 
			},
			{
				"x": 0.6125873192,
				"y": -1.5248342448,
				"z": -3.2294074641,
				"element": "H" 
			},
			{
				"x": 1.513251146,
				"y": -1.0132610698,
				"z": -4.650111943,
				"element": "H" 
			},
			{
				"x": 3.469237225,
				"y": -2.4388924978,
				"z": -3.9412358366,
				"element": "H" 
			},
			{
				"x": 2.0025799543,
				"y": -3.4217483978,
				"z": -4.0665742647,
				"element": "H" 
			},
			{
				"x": 2.597216053,
				"y": -2.912403804,
				"z": -2.4777046136,
				"element": "H" 
			},
			{
				"x": 2.6122538166,
				"y": -0.9616981233,
				"z": 1.0304230143,
				"element": "H" 
			},
			{
				"x": 0.1568895624,
				"y": -0.7195426132,
				"z": 3.547893207,
				"element": "H" 
			},
			{
				"x": -1.4412546352,
				"y": -0.0013318136,
				"z": 2.1194820538,
				"element": "H" 
			}
		],
		 "valence_orbital": [ 
			{
				"type": "occ",
				"energy": -0.32243,
				"method": "rhf"
			},
			{
				"type": "occ",
				"energy": -0.31362,
				"method": "rhf"
			},
			{
				"type": "occ",
				"energy": -0.26859,
				"method": "rhf"
			},
			{
				"type": "occ",
				"energy": -0.20961,
				"method": "rhf"
			},
			{
				"type": "occ",
				"energy": -0.20422,
				"method": "rhf"
			},
			{
				"type": "unocc",
				"energy": 0.02368,
				"method": "rhf"
			},
			{
				"type": "unocc",
				"energy": 0.02665,
				"method": "rhf"
			},
			{
				"type": "unocc",
				"energy": 0.07189,
				"method": "rhf"
			},
			{
				"type": "unocc",
				"energy": 0.09268,
				"method": "rhf"
			},
			{
				"type": "unocc",
				"energy": 0.09766,
				"method": "rhf"
			}
		],
		"cosmo_sigma_profile": { 
			"-0.025": 0.0,
			"-0.024": 0.0,
			"-0.023": 0.0,
			"-0.022": 0.0,
			"-0.021": 0.0,
			"-0.02": 0.0,
			"-0.019": 0.0,
			"-0.018": 0.0976879397576,
			"-0.017": 1.21798889315,
			"-0.016": 0.802201023047,
			"-0.015": 1.41959395042,
			"-0.014": 0.715930310409,
			"-0.013": 1.42067660655,
			"-0.012": 0.836082151764,
			"-0.011": 0.602031924548,
			"-0.01": 0.624251121312,
			"-0.009": 1.74917978128,
			"-0.008": 1.13708375775,
			"-0.007": 1.26967325137,
			"-0.006": 4.33157804477,
			"-0.005": 10.9429767425,
			"-0.004": 18.2562746607,
			"-0.003": 34.6089821153,
			"-0.002": 28.7413209483,
			"-0.001": 27.1472294257,
			"0.0": 27.9571352025,
			"0.001": 24.9096062257,
			"0.002": 15.027107786,
			"0.003": 8.54042325795,
			"0.004": 12.9075813157,
			"0.005": 21.8130790393,
			"0.006": 11.3805052232,
			"0.007": 4.92744303758,
			"0.008": 3.7932392427,
			"0.009": 3.37718847482,
			"0.01": 3.12688108811,
			"0.011": 2.8639315352,
			"0.012": 1.17047454165,
			"0.013": 0.0,
			"0.014": 0.0,
			"0.015": 0.0,
			"0.016": 0.0,
			"0.017": 0.0,
			"0.018": 0.0,
			"0.019": 0.0,
			"0.02": 0.0,
			"0.021": 0.0,
			"0.022": 0.0,
			"0.023": 0.0,
			"0.024": 0.0,
			"0.025": 0.0
		}
	}
}
