{
	 "smiles": "O=C1NC=NC2=C1C=NN2C1CCCCC1", 
	 "Tm": 525.15, 
	 "num_atms": 30, 
	 "gaussian": { 
		 "optdone": 1, 
		 "sigma_profile": "yes", 
		 "theory": "DFT", 
		 "functional": "B3LYP", 
		 "basiset": "6-31G**", 
		 "properties": { 
			 "R2extent": 5219.4833, 
			 "electric_dipole_moment_norm": 3.62422135499, 
			 "electric_quadrupole_moment_norm": 25.1041579713, 
			 "total_energy": -721.853656324, 
			 "HOMO_LUMO_gap": 0.19853, 
			 "cosmo_polarized_energy": -14.64, 
			 "cosmo_cavitation_energy": 31.91, 
			 "cosmo_dispersion_energy": -23.53, 
			 "cosmo_repulsion_energy": 1.83, 
			 "cosmo_total_nonelectrostatic_energy": 10.21, 
			 "SMD_solvation_energy": 3.89 
		},
		"coords": [
			{
				"x": 3.3449437925,
				"y": 4.3498707456,
				"z": -2.4787938382,
				"element": "O" 
			},
			{
				"x": 2.8642510044,
				"y": 3.2289531799,
				"z": -2.519423911,
				"element": "C" 
			},
			{
				"x": 3.1509789944,
				"y": 2.3627526099,
				"z": -3.6211053699,
				"element": "N" 
			},
			{
				"x": 2.6741912897,
				"y": 1.0909497712,
				"z": -3.7811530239,
				"element": "C" 
			},
			{
				"x": 1.8857052023,
				"y": 0.4793939474,
				"z": -2.9476657832,
				"element": "N" 
			},
			{
				"x": 1.5659861515,
				"y": 1.2478892505,
				"z": -1.8615646568,
				"element": "C" 
			},
			{
				"x": 1.9896454443,
				"y": 2.5588137803,
				"z": -1.5898940378,
				"element": "C" 
			},
			{
				"x": 1.3770251101,
				"y": 2.8812628853,
				"z": -0.3572101141,
				"element": "C" 
			},
			{
				"x": 0.6468510445,
				"y": 1.8672086805,
				"z": 0.0915176634,
				"element": "N" 
			},
			{
				"x": 0.7672426287,
				"y": 0.8711779496,
				"z": -0.8326651765,
				"element": "N" 
			},
			{
				"x": 0.0659388077,
				"y": -0.4071489156,
				"z": -0.6634675053,
				"element": "C" 
			},
			{
				"x": -1.4759690959,
				"y": -0.2200972737,
				"z": -0.6630678043,
				"element": "C" 
			},
			{
				"x": -2.0502127358,
				"y": -0.16795993,
				"z": 0.7582593058,
				"element": "C" 
			},
			{
				"x": -1.7893802422,
				"y": -1.4906807591,
				"z": 1.5174403657,
				"element": "C" 
			},
			{
				"x": -0.4646284275,
				"y": -2.163790965,
				"z": 1.0808098932,
				"element": "C" 
			},
			{
				"x": 0.5618240396,
				"y": -1.1238864944,
				"z": 0.6129028314,
				"element": "C" 
			},
			{
				"x": 3.7622573651,
				"y": 2.7610524301,
				"z": -4.3236565132,
				"element": "H" 
			},
			{
				"x": 2.9965284977,
				"y": 0.5774653723,
				"z": -4.683966106,
				"element": "H" 
			},
			{
				"x": 1.4422030295,
				"y": 3.7993158373,
				"z": 0.2098617362,
				"element": "H" 
			},
			{
				"x": 0.3548514765,
				"y": -0.9843246606,
				"z": -1.5458041793,
				"element": "H" 
			},
			{
				"x": -1.9234307702,
				"y": -1.0610237315,
				"z": -1.2077266444,
				"element": "H" 
			},
			{
				"x": -1.729591781,
				"y": 0.6847871902,
				"z": -1.2236740699,
				"element": "H" 
			},
			{
				"x": -1.5861170638,
				"y": 0.6712218302,
				"z": 1.2868409881,
				"element": "H" 
			},
			{
				"x": -3.1247694928,
				"y": 0.0424008165,
				"z": 0.7222749441,
				"element": "H" 
			},
			{
				"x": -2.6195439835,
				"y": -2.1881730563,
				"z": 1.3543185748,
				"element": "H" 
			},
			{
				"x": -1.7658461314,
				"y": -1.2885184964,
				"z": 2.5945515964,
				"element": "H" 
			},
			{
				"x": -0.6540408066,
				"y": -2.8718086869,
				"z": 0.2629742294,
				"element": "H" 
			},
			{
				"x": -0.0502567243,
				"y": -2.7575766202,
				"z": 1.9024543652,
				"element": "H" 
			},
			{
				"x": 0.7127811431,
				"y": -0.3742909293,
				"z": 1.3971557302,
				"element": "H" 
			},
			{
				"x": 1.5366822333,
				"y": -1.5842357578,
				"z": 0.4190765099,
				"element": "H" 
			}
		],
		 "valence_orbital": [ 
			{
				"type": "occ",
				"energy": -0.2986,
				"method": "rhf"
			},
			{
				"type": "occ",
				"energy": -0.28936,
				"method": "rhf"
			},
			{
				"type": "occ",
				"energy": -0.26416,
				"method": "rhf"
			},
			{
				"type": "occ",
				"energy": -0.25532,
				"method": "rhf"
			},
			{
				"type": "occ",
				"energy": -0.23302,
				"method": "rhf"
			},
			{
				"type": "unocc",
				"energy": -0.03449,
				"method": "rhf"
			},
			{
				"type": "unocc",
				"energy": -0.00929,
				"method": "rhf"
			},
			{
				"type": "unocc",
				"energy": 0.04032,
				"method": "rhf"
			},
			{
				"type": "unocc",
				"energy": 0.07048,
				"method": "rhf"
			},
			{
				"type": "unocc",
				"energy": 0.07867,
				"method": "rhf"
			}
		],
		"cosmo_sigma_profile": { 
			"-0.025": 0.0,
			"-0.024": 0.0,
			"-0.023": 0.0,
			"-0.022": 0.0,
			"-0.021": 0.0,
			"-0.02": 0.0,
			"-0.019": 0.0,
			"-0.018": 0.0,
			"-0.017": 0.666642878362,
			"-0.016": 1.71022507995,
			"-0.015": 1.51285862614,
			"-0.014": 0.895441651303,
			"-0.013": 1.25901512992,
			"-0.012": 1.49226822422,
			"-0.011": 1.93353817165,
			"-0.01": 2.84357016211,
			"-0.009": 2.44705946212,
			"-0.008": 3.37261980777,
			"-0.007": 3.49836804965,
			"-0.006": 2.44718789064,
			"-0.005": 5.04983399276,
			"-0.004": 9.23895938454,
			"-0.003": 22.0805221804,
			"-0.002": 30.7573290162,
			"-0.001": 37.6417905219,
			"0.0": 31.9803691539,
			"0.001": 25.0747875885,
			"0.002": 11.4266736363,
			"0.003": 6.88694561415,
			"0.004": 5.49693683221,
			"0.005": 5.21062196023,
			"0.006": 4.69498389088,
			"0.007": 4.79376849259,
			"0.008": 3.38490300678,
			"0.009": 3.51254639951,
			"0.01": 3.79785115194,
			"0.011": 3.58393208582,
			"0.012": 5.61602736376,
			"0.013": 5.95719538292,
			"0.014": 1.16737428583,
			"0.015": 0.0,
			"0.016": 0.0,
			"0.017": 0.0,
			"0.018": 0.0,
			"0.019": 0.0,
			"0.02": 0.0,
			"0.021": 0.0,
			"0.022": 0.0,
			"0.023": 0.0,
			"0.024": 0.0,
			"0.025": 0.0
		}
	}
}
