{
	 "smiles": "O=C1CC(=NN1C1=CC=C(C=C1)C#N)C1=CC=CC=C1", 
	 "Tm": 485.15, 
	 "num_atms": 31, 
	 "gaussian": { 
		 "optdone": 1, 
		 "sigma_profile": "yes", 
		 "theory": "DFT", 
		 "functional": "B3LYP", 
		 "basiset": "6-31G**", 
		 "properties": { 
			 "R2extent": 8435.8775, 
			 "electric_dipole_moment_norm": 8.4872822081, 
			 "electric_quadrupole_moment_norm": 20.0685980066, 
			 "total_energy": -855.786625591, 
			 "HOMO_LUMO_gap": 0.15189, 
			 "cosmo_polarized_energy": -15.69, 
			 "cosmo_cavitation_energy": 37.19, 
			 "cosmo_dispersion_energy": -26.56, 
			 "cosmo_repulsion_energy": 1.99, 
			 "cosmo_total_nonelectrostatic_energy": 12.62, 
			 "SMD_solvation_energy": 7.56 
		},
		"coords": [
			{
				"x": -1.725211896,
				"y": 1.8218323946,
				"z": -3.3942874928,
				"element": "O" 
			},
			{
				"x": -1.0008303145,
				"y": 1.0761445273,
				"z": -2.7647753512,
				"element": "C" 
			},
			{
				"x": 0.2226684905,
				"y": 0.3132094682,
				"z": -3.2582580865,
				"element": "C" 
			},
			{
				"x": 0.6603942175,
				"y": -0.412630478,
				"z": -2.016564253,
				"element": "C" 
			},
			{
				"x": -0.1093444126,
				"y": -0.1563325858,
				"z": -1.0069918312,
				"element": "N" 
			},
			{
				"x": -1.110157969,
				"y": 0.7259034232,
				"z": -1.4124472551,
				"element": "N" 
			},
			{
				"x": -2.0708559573,
				"y": 1.1458510633,
				"z": -0.4677141087,
				"element": "C" 
			},
			{
				"x": -1.9929792245,
				"y": 0.6648468594,
				"z": 0.8505837972,
				"element": "C" 
			},
			{
				"x": -2.928646648,
				"y": 1.0666636013,
				"z": 1.7929555351,
				"element": "C" 
			},
			{
				"x": -3.9593925323,
				"y": 1.9547307987,
				"z": 1.441093116,
				"element": "C" 
			},
			{
				"x": -4.0301883873,
				"y": 2.430818737,
				"z": 0.1216093496,
				"element": "C" 
			},
			{
				"x": -3.0985371251,
				"y": 2.0349171881,
				"z": -0.8298555467,
				"element": "C" 
			},
			{
				"x": -4.9238886663,
				"y": 2.3678458136,
				"z": 2.4156300775,
				"element": "C" 
			},
			{
				"x": -5.7069935663,
				"y": 2.7025864446,
				"z": 3.2088968249,
				"element": "N" 
			},
			{
				"x": 1.8115757399,
				"y": -1.3129868059,
				"z": -1.9091300015,
				"element": "C" 
			},
			{
				"x": 2.1240960599,
				"y": -1.9382384757,
				"z": -0.6874481417,
				"element": "C" 
			},
			{
				"x": 3.2178342713,
				"y": -2.7910746418,
				"z": -0.594721852,
				"element": "C" 
			},
			{
				"x": 4.0191930731,
				"y": -3.0365093114,
				"z": -1.715208856,
				"element": "C" 
			},
			{
				"x": 3.7178853847,
				"y": -2.4215523272,
				"z": -2.9306952313,
				"element": "C" 
			},
			{
				"x": 2.6216871582,
				"y": -1.56525783,
				"z": -3.028363325,
				"element": "C" 
			},
			{
				"x": -0.0540209218,
				"y": -0.3555237864,
				"z": -4.0803721282,
				"element": "H" 
			},
			{
				"x": 0.9738426661,
				"y": 1.0106435856,
				"z": -3.6441946625,
				"element": "H" 
			},
			{
				"x": -1.19918549,
				"y": -0.0185091966,
				"z": 1.1197850535,
				"element": "H" 
			},
			{
				"x": -2.8656693088,
				"y": 0.6934805442,
				"z": 2.8096506173,
				"element": "H" 
			},
			{
				"x": -4.8227737177,
				"y": 3.1166621417,
				"z": -0.1582462193,
				"element": "H" 
			},
			{
				"x": -3.1575355087,
				"y": 2.4041212081,
				"z": -1.843643391,
				"element": "H" 
			},
			{
				"x": 1.4992228052,
				"y": -1.7440908803,
				"z": 0.1774447641,
				"element": "H" 
			},
			{
				"x": 3.4491082308,
				"y": -3.2678235084,
				"z": 0.353238033,
				"element": "H" 
			},
			{
				"x": 4.8728021859,
				"y": -3.7034293566,
				"z": -1.6388173587,
				"element": "H" 
			},
			{
				"x": 4.3353271242,
				"y": -2.6072757533,
				"z": -3.8043981627,
				"element": "H" 
			},
			{
				"x": 2.3973742388,
				"y": -1.0925228617,
				"z": -3.9799539131,
				"element": "H" 
			}
		],
		 "valence_orbital": [ 
			{
				"type": "occ",
				"energy": -0.27462,
				"method": "rhf"
			},
			{
				"type": "occ",
				"energy": -0.27279,
				"method": "rhf"
			},
			{
				"type": "occ",
				"energy": -0.27197,
				"method": "rhf"
			},
			{
				"type": "occ",
				"energy": -0.2663,
				"method": "rhf"
			},
			{
				"type": "occ",
				"energy": -0.22442,
				"method": "rhf"
			},
			{
				"type": "unocc",
				"energy": -0.07253,
				"method": "rhf"
			},
			{
				"type": "unocc",
				"energy": -0.0522,
				"method": "rhf"
			},
			{
				"type": "unocc",
				"energy": -0.02164,
				"method": "rhf"
			},
			{
				"type": "unocc",
				"energy": -0.01918,
				"method": "rhf"
			},
			{
				"type": "unocc",
				"energy": -2e-05,
				"method": "rhf"
			}
		],
		"cosmo_sigma_profile": { 
			"-0.025": 0.0,
			"-0.024": 0.0,
			"-0.023": 0.0,
			"-0.022": 0.0,
			"-0.021": 0.0,
			"-0.02": 0.0,
			"-0.019": 0.0,
			"-0.018": 0.0,
			"-0.017": 0.0,
			"-0.016": 0.0,
			"-0.015": 0.0,
			"-0.014": 0.0,
			"-0.013": 0.0,
			"-0.012": 0.0,
			"-0.011": 0.0,
			"-0.01": 0.130940315863,
			"-0.009": 4.81188250777,
			"-0.008": 10.9618934796,
			"-0.007": 13.5118025244,
			"-0.006": 19.1641384023,
			"-0.005": 19.1277140348,
			"-0.004": 19.8261120836,
			"-0.003": 15.9654936503,
			"-0.002": 16.5832900141,
			"-0.001": 20.1909258166,
			"0.0": 20.5780355222,
			"0.001": 25.8016923915,
			"0.002": 29.9249643237,
			"0.003": 19.8005091497,
			"0.004": 17.0986184342,
			"0.005": 8.44883918348,
			"0.006": 6.30662003551,
			"0.007": 4.26615883964,
			"0.008": 5.03284343054,
			"0.009": 4.65542616444,
			"0.01": 6.1867473368,
			"0.011": 5.78739614976,
			"0.012": 4.68410121523,
			"0.013": 2.11253933909,
			"0.014": 0.236207691938,
			"0.015": 0.0,
			"0.016": 0.0,
			"0.017": 0.0,
			"0.018": 0.0,
			"0.019": 0.0,
			"0.02": 0.0,
			"0.021": 0.0,
			"0.022": 0.0,
			"0.023": 0.0,
			"0.024": 0.0,
			"0.025": 0.0
		}
	}
}
