{
	 "smiles": "C1CCC2=C(CC1)C1=CC=CC=C1N2", 
	 "Tm": 418.15, 
	 "num_atms": 29, 
	 "gaussian": { 
		 "optdone": 1, 
		 "sigma_profile": "yes", 
		 "theory": "DFT", 
		 "functional": "B3LYP", 
		 "basiset": "6-31G**", 
		 "properties": { 
			 "R2extent": 3199.979, 
			 "electric_dipole_moment_norm": 2.44235031885, 
			 "electric_quadrupole_moment_norm": 6.64259001821, 
			 "total_energy": -559.20141442, 
			 "HOMO_LUMO_gap": 0.18698, 
			 "cosmo_polarized_energy": -7.97, 
			 "cosmo_cavitation_energy": 29.67, 
			 "cosmo_dispersion_energy": -22.32, 
			 "cosmo_repulsion_energy": 1.75, 
			 "cosmo_total_nonelectrostatic_energy": 9.09, 
			 "SMD_solvation_energy": 3.52 
		},
		"coords": [
			{
				"x": 3.7694771262,
				"y": -1.0882903072,
				"z": -0.4349590348,
				"element": "C" 
			},
			{
				"x": 2.756655581,
				"y": -1.484520672,
				"z": -1.5221116698,
				"element": "C" 
			},
			{
				"x": 1.4654707735,
				"y": -2.1502197935,
				"z": -1.0114109357,
				"element": "C" 
			},
			{
				"x": 0.5775855982,
				"y": -1.2544845454,
				"z": -0.198741171,
				"element": "C" 
			},
			{
				"x": 0.878306176,
				"y": -0.4198525339,
				"z": 0.8558117054,
				"element": "C" 
			},
			{
				"x": 2.2336397212,
				"y": -0.1934213811,
				"z": 1.4695575492,
				"element": "C" 
			},
			{
				"x": 3.3717201153,
				"y": 0.0892200779,
				"z": 0.4714103362,
				"element": "C" 
			},
			{
				"x": -0.3643125329,
				"y": 0.1762918529,
				"z": 1.2821007053,
				"element": "C" 
			},
			{
				"x": -0.7148201143,
				"y": 1.0941090479,
				"z": 2.2882945862,
				"element": "C" 
			},
			{
				"x": -2.0446109505,
				"y": 1.4732393985,
				"z": 2.4280316891,
				"element": "C" 
			},
			{
				"x": -3.043921524,
				"y": 0.9533959355,
				"z": 1.58018238,
				"element": "C" 
			},
			{
				"x": -2.7310301584,
				"y": 0.0427179051,
				"z": 0.5763591707,
				"element": "C" 
			},
			{
				"x": -1.3919187079,
				"y": -0.3363070834,
				"z": 0.4419778237,
				"element": "C" 
			},
			{
				"x": -0.7887373001,
				"y": -1.2045451483,
				"z": -0.4426440488,
				"element": "N" 
			},
			{
				"x": 3.9897601625,
				"y": -1.9669785095,
				"z": 0.1896515618,
				"element": "H" 
			},
			{
				"x": 4.7127098475,
				"y": -0.8311123033,
				"z": -0.9336496694,
				"element": "H" 
			},
			{
				"x": 3.2457254401,
				"y": -2.187969887,
				"z": -2.2079568573,
				"element": "H" 
			},
			{
				"x": 2.4935976801,
				"y": -0.6002304407,
				"z": -2.1169361969,
				"element": "H" 
			},
			{
				"x": 1.7373504591,
				"y": -3.0388338707,
				"z": -0.4213100319,
				"element": "H" 
			},
			{
				"x": 0.89829753,
				"y": -2.5272027392,
				"z": -1.8724358612,
				"element": "H" 
			},
			{
				"x": 2.1643169956,
				"y": 0.6546874497,
				"z": 2.1605324731,
				"element": "H" 
			},
			{
				"x": 2.5213674114,
				"y": -1.0554442143,
				"z": 2.0919831427,
				"element": "H" 
			},
			{
				"x": 3.0978812634,
				"y": 0.9514007693,
				"z": -0.1509928084,
				"element": "H" 
			},
			{
				"x": 4.2587810294,
				"y": 0.3890646352,
				"z": 1.0443362007,
				"element": "H" 
			},
			{
				"x": 0.0430606801,
				"y": 1.5026491125,
				"z": 2.9514954622,
				"element": "H" 
			},
			{
				"x": -2.3225373373,
				"y": 2.1816860759,
				"z": 3.2032275901,
				"element": "H" 
			},
			{
				"x": -4.0749316143,
				"y": 1.268188187,
				"z": 1.7130715855,
				"element": "H" 
			},
			{
				"x": -3.5003495565,
				"y": -0.3595954918,
				"z": -0.0774204005,
				"element": "H" 
			},
			{
				"x": -1.2560337942,
				"y": -1.7043415259,
				"z": -1.1816552762,
				"element": "H" 
			}
		],
		 "valence_orbital": [ 
			{
				"type": "occ",
				"energy": -0.31341,
				"method": "rhf"
			},
			{
				"type": "occ",
				"energy": -0.30826,
				"method": "rhf"
			},
			{
				"type": "occ",
				"energy": -0.25851,
				"method": "rhf"
			},
			{
				"type": "occ",
				"energy": -0.20828,
				"method": "rhf"
			},
			{
				"type": "occ",
				"energy": -0.18598,
				"method": "rhf"
			},
			{
				"type": "unocc",
				"energy": 0.001,
				"method": "rhf"
			},
			{
				"type": "unocc",
				"energy": 0.03798,
				"method": "rhf"
			},
			{
				"type": "unocc",
				"energy": 0.07221,
				"method": "rhf"
			},
			{
				"type": "unocc",
				"energy": 0.07871,
				"method": "rhf"
			},
			{
				"type": "unocc",
				"energy": 0.09016,
				"method": "rhf"
			}
		],
		"cosmo_sigma_profile": { 
			"-0.025": 0.0,
			"-0.024": 0.0,
			"-0.023": 0.0,
			"-0.022": 0.0,
			"-0.021": 0.0,
			"-0.02": 0.0,
			"-0.019": 0.0,
			"-0.018": 0.0,
			"-0.017": 0.0,
			"-0.016": 0.0,
			"-0.015": 0.390201390414,
			"-0.014": 1.29229080537,
			"-0.013": 1.52717760682,
			"-0.012": 1.0538592138,
			"-0.011": 1.04097802208,
			"-0.01": 1.72286442884,
			"-0.009": 1.47343423304,
			"-0.008": 1.49676421279,
			"-0.007": 1.41968494917,
			"-0.006": 2.61281182915,
			"-0.005": 5.99257661071,
			"-0.004": 10.8909564106,
			"-0.003": 15.3840848909,
			"-0.002": 33.0616971887,
			"-0.001": 33.9133890597,
			"0.0": 31.4212901046,
			"0.001": 22.2604949302,
			"0.002": 7.74209260939,
			"0.003": 8.62973116823,
			"0.004": 9.22753883069,
			"0.005": 9.88196130578,
			"0.006": 13.3412101029,
			"0.007": 11.186477523,
			"0.008": 5.46790366465,
			"0.009": 0.220726633478,
			"0.01": 0.0,
			"0.011": 0.0,
			"0.012": 0.0,
			"0.013": 0.0,
			"0.014": 0.0,
			"0.015": 0.0,
			"0.016": 0.0,
			"0.017": 0.0,
			"0.018": 0.0,
			"0.019": 0.0,
			"0.02": 0.0,
			"0.021": 0.0,
			"0.022": 0.0,
			"0.023": 0.0,
			"0.024": 0.0,
			"0.025": 0.0
		}
	}
}
