{
	 "smiles": "FC(F)(Cl)C(F)(F)C(F)(F)C(F)(F)C(F)(F)C(F)(F)C(F)(F)C(F)(F)C=O", 
	 "Tm": 310.15, 
	 "num_atms": 28, 
	 "gaussian": { 
		 "optdone": 1, 
		 "sigma_profile": "yes", 
		 "theory": "DFT", 
		 "functional": "B3LYP", 
		 "basiset": "6-31G**", 
		 "properties": { 
			 "R2extent": 9596.24, 
			 "electric_dipole_moment_norm": 1.63374669089, 
			 "electric_quadrupole_moment_norm": 8.0878359448, 
			 "total_energy": -2476.29850254, 
			 "HOMO_LUMO_gap": 0.21923, 
			 "cosmo_polarized_energy": -5.12, 
			 "cosmo_cavitation_energy": 37.97, 
			 "cosmo_dispersion_energy": -25.11, 
			 "cosmo_repulsion_energy": 1.61, 
			 "cosmo_total_nonelectrostatic_energy": 14.47, 
			 "SMD_solvation_energy": 11.39 
		},
		"coords": [
			{
				"x": -2.2363711939,
				"y": -2.6814291287,
				"z": -0.3020114443,
				"element": "F" 
			},
			{
				"x": -3.2214418744,
				"y": -1.8080711286,
				"z": -0.044691794,
				"element": "C" 
			},
			{
				"x": -3.6568270088,
				"y": -2.0149969515,
				"z": 1.2072470491,
				"element": "F" 
			},
			{
				"x": -4.57346818,
				"y": -2.0833632162,
				"z": -1.172259014,
				"element": "Cl" 
			},
			{
				"x": -2.6636896294,
				"y": -0.347934848,
				"z": -0.0910498767,
				"element": "C" 
			},
			{
				"x": -1.9083177372,
				"y": -0.1812456626,
				"z": 1.0209352312,
				"element": "F" 
			},
			{
				"x": -3.7173932213,
				"y": 0.4919912678,
				"z": -0.0156920012,
				"element": "F" 
			},
			{
				"x": -1.8271521215,
				"y": 0.09385834,
				"z": -1.3354023973,
				"element": "C" 
			},
			{
				"x": -1.819299788,
				"y": 1.4449715313,
				"z": -1.3327310706,
				"element": "F" 
			},
			{
				"x": -2.4792770177,
				"y": -0.3294659262,
				"z": -2.4465662786,
				"element": "F" 
			},
			{
				"x": -0.3394834833,
				"y": -0.3609970826,
				"z": -1.5341514909,
				"element": "C" 
			},
			{
				"x": 0.0342936446,
				"y": 0.2328464985,
				"z": -2.6876849245,
				"element": "F" 
			},
			{
				"x": -0.3225004738,
				"y": -1.7048662049,
				"z": -1.7388311303,
				"element": "F" 
			},
			{
				"x": 0.7283083956,
				"y": 0.0406271056,
				"z": -0.4456319606,
				"element": "C" 
			},
			{
				"x": 0.24471356,
				"y": 1.0912491429,
				"z": 0.2540476906,
				"element": "F" 
			},
			{
				"x": 1.8411331727,
				"y": 0.4544749014,
				"z": -1.089269705,
				"element": "F" 
			},
			{
				"x": 1.1431647167,
				"y": -1.0736297449,
				"z": 0.5826635456,
				"element": "C" 
			},
			{
				"x": 1.4801309889,
				"y": -0.434698585,
				"z": 1.7252470102,
				"element": "F" 
			},
			{
				"x": 0.0846640271,
				"y": -1.8772034444,
				"z": 0.8404940932,
				"element": "F" 
			},
			{
				"x": 2.3772740318,
				"y": -1.9700483445,
				"z": 0.2422562065,
				"element": "C" 
			},
			{
				"x": 2.5170706915,
				"y": -2.823121562,
				"z": 1.2831411642,
				"element": "F" 
			},
			{
				"x": 3.4661756327,
				"y": -1.1662499001,
				"z": 0.1954033685,
				"element": "F" 
			},
			{
				"x": 2.3744792299,
				"y": -2.8166977752,
				"z": -1.0515836234,
				"element": "C" 
			},
			{
				"x": 3.582872466,
				"y": -3.4437781005,
				"z": -1.1098321792,
				"element": "F" 
			},
			{
				"x": 2.2873124867,
				"y": -1.9879419317,
				"z": -2.1284407102,
				"element": "F" 
			},
			{
				"x": 1.3144033025,
				"y": -3.9282755861,
				"z": -1.2025691191,
				"element": "C" 
			},
			{
				"x": 0.7081912947,
				"y": -4.4177122076,
				"z": -0.2881728974,
				"element": "O" 
			},
			{
				"x": 1.2153340879,
				"y": -4.2529914563,
				"z": -2.258463742,
				"element": "H" 
			}
		],
		 "valence_orbital": [ 
			{
				"type": "occ",
				"energy": -0.37485,
				"method": "rhf"
			},
			{
				"type": "occ",
				"energy": -0.3591,
				"method": "rhf"
			},
			{
				"type": "occ",
				"energy": -0.35141,
				"method": "rhf"
			},
			{
				"type": "occ",
				"energy": -0.3473,
				"method": "rhf"
			},
			{
				"type": "occ",
				"energy": -0.29913,
				"method": "rhf"
			},
			{
				"type": "unocc",
				"energy": -0.0799,
				"method": "rhf"
			},
			{
				"type": "unocc",
				"energy": -0.01967,
				"method": "rhf"
			},
			{
				"type": "unocc",
				"energy": 0.00421,
				"method": "rhf"
			},
			{
				"type": "unocc",
				"energy": 0.00673,
				"method": "rhf"
			},
			{
				"type": "unocc",
				"energy": 0.03756,
				"method": "rhf"
			}
		],
		"cosmo_sigma_profile": { 
			"-0.025": 0.0,
			"-0.024": 0.0,
			"-0.023": 0.0,
			"-0.022": 0.0,
			"-0.021": 0.0,
			"-0.02": 0.0,
			"-0.019": 0.0,
			"-0.018": 0.0,
			"-0.017": 0.0,
			"-0.016": 0.0,
			"-0.015": 0.0,
			"-0.014": 0.0,
			"-0.013": 0.0,
			"-0.012": 0.0038789398756,
			"-0.011": 2.00152067151,
			"-0.01": 3.34900752315,
			"-0.009": 2.32426561834,
			"-0.008": 1.85839709015,
			"-0.007": 1.83557509923,
			"-0.006": 2.43741334224,
			"-0.005": 4.85275789226,
			"-0.004": 6.11293596462,
			"-0.003": 12.4276534537,
			"-0.002": 16.1085927104,
			"-0.001": 31.7089650206,
			"0.0": 64.0233503426,
			"0.001": 112.173181349,
			"0.002": 28.1201480015,
			"0.003": 3.28729760382,
			"0.004": 2.68800402041,
			"0.005": 2.53576355159,
			"0.006": 2.61318859208,
			"0.007": 2.75772514687,
			"0.008": 3.10635174852,
			"0.009": 1.06942631864,
			"0.01": 0.0916623672224,
			"0.011": 0.0,
			"0.012": 0.0,
			"0.013": 0.0,
			"0.014": 0.0,
			"0.015": 0.0,
			"0.016": 0.0,
			"0.017": 0.0,
			"0.018": 0.0,
			"0.019": 0.0,
			"0.02": 0.0,
			"0.021": 0.0,
			"0.022": 0.0,
			"0.023": 0.0,
			"0.024": 0.0,
			"0.025": 0.0
		}
	}
}
