{
	 "smiles": "BrC1=CC(=CC=C1)C(=O)NC1=CN=CC=C1", 
	 "Tm": 407.15, 
	 "num_atms": 25, 
	 "gaussian": { 
		 "optdone": 1, 
		 "sigma_profile": "yes", 
		 "theory": "DFT", 
		 "functional": "B3LYP", 
		 "basiset": "6-31G**", 
		 "properties": { 
			 "R2extent": 4915.5943, 
			 "electric_dipole_moment_norm": 1.80891945094, 
			 "electric_quadrupole_moment_norm": 19.998607434, 
			 "total_energy": -3218.83509262, 
			 "HOMO_LUMO_gap": 0.18777, 
			 "cosmo_polarized_energy": -14.25, 
			 "cosmo_cavitation_energy": 32.41, 
			 "cosmo_dispersion_energy": -22.91, 
			 "cosmo_repulsion_energy": 1.8, 
			 "cosmo_total_nonelectrostatic_energy": 11.29, 
			 "SMD_solvation_energy": 3.49 
		},
		"coords": [
			{
				"x": 0.5617609191,
				"y": 2.9793068393,
				"z": -0.9769885461,
				"element": "Br" 
			},
			{
				"x": 0.8064287486,
				"y": 1.1709119706,
				"z": -1.5463760676,
				"element": "C" 
			},
			{
				"x": -0.0975831586,
				"y": 0.1983679687,
				"z": -1.1276190733,
				"element": "C" 
			},
			{
				"x": 0.0727353203,
				"y": -1.1243361837,
				"z": -1.5591115189,
				"element": "C" 
			},
			{
				"x": 1.1338272558,
				"y": -1.4468084852,
				"z": -2.4151658444,
				"element": "C" 
			},
			{
				"x": 2.0389966666,
				"y": -0.4635638972,
				"z": -2.8069552224,
				"element": "C" 
			},
			{
				"x": 1.8821015237,
				"y": 0.8552529441,
				"z": -2.3753481247,
				"element": "C" 
			},
			{
				"x": -0.9101085089,
				"y": -2.2127514982,
				"z": -1.2367597031,
				"element": "C" 
			},
			{
				"x": -1.162856288,
				"y": -3.0937164885,
				"z": -2.0485919445,
				"element": "O" 
			},
			{
				"x": -1.5925952537,
				"y": -2.1731315331,
				"z": -0.0294440446,
				"element": "N" 
			},
			{
				"x": -1.2152863711,
				"y": -1.6172448216,
				"z": 1.2170335693,
				"element": "C" 
			},
			{
				"x": 0.1204648899,
				"y": -1.5756839831,
				"z": 1.6495036663,
				"element": "C" 
			},
			{
				"x": 0.4971566169,
				"y": -1.0748366704,
				"z": 2.8270612109,
				"element": "N" 
			},
			{
				"x": -0.45532587,
				"y": -0.6141173372,
				"z": 3.6475822642,
				"element": "C" 
			},
			{
				"x": -1.813404045,
				"y": -0.6356132016,
				"z": 3.3275114788,
				"element": "C" 
			},
			{
				"x": -2.1999703377,
				"y": -1.1386575203,
				"z": 2.0881571285,
				"element": "C" 
			},
			{
				"x": -0.9283423245,
				"y": 0.4732229962,
				"z": -0.4900214452,
				"element": "H" 
			},
			{
				"x": 1.2264005326,
				"y": -2.4680040194,
				"z": -2.7677925293,
				"element": "H" 
			},
			{
				"x": 2.8689863617,
				"y": -0.7168287913,
				"z": -3.4595152915,
				"element": "H" 
			},
			{
				"x": 2.5777827106,
				"y": 1.6278144918,
				"z": -2.682387366,
				"element": "H" 
			},
			{
				"x": -2.3273333699,
				"y": -2.8714248114,
				"z": -0.0058907135,
				"element": "H" 
			},
			{
				"x": 0.9095290507,
				"y": -1.9652035023,
				"z": 1.0106157745,
				"element": "H" 
			},
			{
				"x": -0.1180394964,
				"y": -0.2199224343,
				"z": 4.6038376026,
				"element": "H" 
			},
			{
				"x": -2.5508055976,
				"y": -0.2578273787,
				"z": 4.0286804892,
				"element": "H" 
			},
			{
				"x": -3.2446199752,
				"y": -1.1589046532,
				"z": 1.7899842508,
				"element": "H" 
			}
		],
		 "valence_orbital": [ 
			{
				"type": "occ",
				"energy": -0.27661,
				"method": "rhf"
			},
			{
				"type": "occ",
				"energy": -0.2663,
				"method": "rhf"
			},
			{
				"type": "occ",
				"energy": -0.26408,
				"method": "rhf"
			},
			{
				"type": "occ",
				"energy": -0.24869,
				"method": "rhf"
			},
			{
				"type": "occ",
				"energy": -0.24219,
				"method": "rhf"
			},
			{
				"type": "unocc",
				"energy": -0.05442,
				"method": "rhf"
			},
			{
				"type": "unocc",
				"energy": -0.03752,
				"method": "rhf"
			},
			{
				"type": "unocc",
				"energy": -0.02082,
				"method": "rhf"
			},
			{
				"type": "unocc",
				"energy": -0.01873,
				"method": "rhf"
			},
			{
				"type": "unocc",
				"energy": 0.00151,
				"method": "rhf"
			}
		],
		"cosmo_sigma_profile": { 
			"-0.025": 0.0,
			"-0.024": 0.0,
			"-0.023": 0.0,
			"-0.022": 0.0,
			"-0.021": 0.0,
			"-0.02": 0.0,
			"-0.019": 0.0,
			"-0.018": 0.0,
			"-0.017": 0.0,
			"-0.016": 0.0,
			"-0.015": 0.515417005955,
			"-0.014": 1.17606626314,
			"-0.013": 1.14397932032,
			"-0.012": 1.01121117644,
			"-0.011": 1.1903099235,
			"-0.01": 0.809288308019,
			"-0.009": 1.26113631011,
			"-0.008": 3.51135034875,
			"-0.007": 11.9249662113,
			"-0.006": 16.9560748037,
			"-0.005": 16.4747815654,
			"-0.004": 16.0803634789,
			"-0.003": 17.9335597524,
			"-0.002": 13.56264104,
			"-0.001": 17.4396593183,
			"0.0": 19.1269229005,
			"0.001": 25.8271249367,
			"0.002": 28.9257888697,
			"0.003": 18.0020455228,
			"0.004": 15.386428779,
			"0.005": 6.27020786725,
			"0.006": 2.62938629486,
			"0.007": 3.86673458209,
			"0.008": 2.48761681749,
			"0.009": 1.71253988707,
			"0.01": 2.68694019713,
			"0.011": 3.11370211116,
			"0.012": 4.892744207,
			"0.013": 5.09712066891,
			"0.014": 1.31096375482,
			"0.015": 0.583214665522,
			"0.016": 0.983047728336,
			"0.017": 0.0385653594102,
			"0.018": 0.0,
			"0.019": 0.0,
			"0.02": 0.0,
			"0.021": 0.0,
			"0.022": 0.0,
			"0.023": 0.0,
			"0.024": 0.0,
			"0.025": 0.0
		}
	}
}
