{
	 "smiles": "OC(=O)C1=CN2C=CN=C2C=C1", 
	 "Tm": 523.15, 
	 "num_atms": 18, 
	 "gaussian": { 
		 "optdone": 1, 
		 "sigma_profile": "yes", 
		 "theory": "DFT", 
		 "functional": "B3LYP", 
		 "basiset": "6-31G**", 
		 "properties": { 
			 "R2extent": 2507.9137, 
			 "electric_dipole_moment_norm": 1.79621781808, 
			 "electric_quadrupole_moment_norm": 27.2823212552, 
			 "total_energy": -568.413215853, 
			 "HOMO_LUMO_gap": 0.16772, 
			 "cosmo_polarized_energy": -17.84, 
			 "cosmo_cavitation_energy": 22.91, 
			 "cosmo_dispersion_energy": -17.25, 
			 "cosmo_repulsion_energy": 1.33, 
			 "cosmo_total_nonelectrostatic_energy": 7.0, 
			 "SMD_solvation_energy": 4.02 
		},
		"coords": [
			{
				"x": -2.9697360374,
				"y": -1.4782770962,
				"z": -2.7526949266,
				"element": "O" 
			},
			{
				"x": -3.0476320763,
				"y": -1.0304596467,
				"z": -1.4729485048,
				"element": "C" 
			},
			{
				"x": -4.1245697087,
				"y": -0.7694035354,
				"z": -0.9881559898,
				"element": "O" 
			},
			{
				"x": -1.7564932114,
				"y": -0.8804874282,
				"z": -0.7326514701,
				"element": "C" 
			},
			{
				"x": -1.8016554376,
				"y": -0.1244060716,
				"z": 0.4137392468,
				"element": "C" 
			},
			{
				"x": -0.6657006311,
				"y": 0.0710948423,
				"z": 1.1423470995,
				"element": "N" 
			},
			{
				"x": -0.4346430617,
				"y": 0.7825162469,
				"z": 2.3026348751,
				"element": "C" 
			},
			{
				"x": 0.9090548618,
				"y": 0.618302148,
				"z": 2.5661061798,
				"element": "C" 
			},
			{
				"x": 1.5310156432,
				"y": -0.1586053809,
				"z": 1.6304228469,
				"element": "N" 
			},
			{
				"x": 0.5799510379,
				"y": -0.4911685292,
				"z": 0.7682362017,
				"element": "C" 
			},
			{
				"x": 0.6213956966,
				"y": -1.2885172172,
				"z": -0.3991424314,
				"element": "C" 
			},
			{
				"x": -0.5204130335,
				"y": -1.4793710322,
				"z": -1.1352835,
				"element": "C" 
			},
			{
				"x": -2.051142613,
				"y": -1.4929441732,
				"z": -3.0545042687,
				"element": "H" 
			},
			{
				"x": -2.7204886792,
				"y": 0.3289375074,
				"z": 0.7642896159,
				"element": "H" 
			},
			{
				"x": -1.2205497815,
				"y": 1.3179073291,
				"z": 2.8114190073,
				"element": "H" 
			},
			{
				"x": 1.4577519373,
				"y": 1.0334277482,
				"z": 3.4012347315,
				"element": "H" 
			},
			{
				"x": 1.5680164273,
				"y": -1.73963602,
				"z": -0.6721352507,
				"element": "H" 
			},
			{
				"x": -0.4830613331,
				"y": -2.129809691,
				"z": -2.0045134624,
				"element": "H" 
			}
		],
		 "valence_orbital": [ 
			{
				"type": "occ",
				"energy": -0.32275,
				"method": "rhf"
			},
			{
				"type": "occ",
				"energy": -0.28612,
				"method": "rhf"
			},
			{
				"type": "occ",
				"energy": -0.282,
				"method": "rhf"
			},
			{
				"type": "occ",
				"energy": -0.26152,
				"method": "rhf"
			},
			{
				"type": "occ",
				"energy": -0.22883,
				"method": "rhf"
			},
			{
				"type": "unocc",
				"energy": -0.06111,
				"method": "rhf"
			},
			{
				"type": "unocc",
				"energy": -0.04134,
				"method": "rhf"
			},
			{
				"type": "unocc",
				"energy": 0.0355,
				"method": "rhf"
			},
			{
				"type": "unocc",
				"energy": 0.04989,
				"method": "rhf"
			},
			{
				"type": "unocc",
				"energy": 0.06407,
				"method": "rhf"
			}
		],
		"cosmo_sigma_profile": { 
			"-0.025": 0.0,
			"-0.024": 0.0,
			"-0.023": 0.0,
			"-0.022": 0.0,
			"-0.021": 0.0,
			"-0.02": 0.00547549588616,
			"-0.019": 0.616506889446,
			"-0.018": 1.14115917297,
			"-0.017": 0.971810843218,
			"-0.016": 0.645646575393,
			"-0.015": 1.04420108328,
			"-0.014": 1.00369810439,
			"-0.013": 1.22532276129,
			"-0.012": 1.3281511653,
			"-0.011": 1.734912576,
			"-0.01": 3.90158692817,
			"-0.009": 5.37880177759,
			"-0.008": 6.14273902111,
			"-0.007": 7.52737429424,
			"-0.006": 7.86907268404,
			"-0.005": 8.89603015198,
			"-0.004": 8.54974270928,
			"-0.003": 8.96508904005,
			"-0.002": 11.6916759034,
			"-0.001": 13.0077935506,
			"0.0": 11.7815312018,
			"0.001": 11.3340512452,
			"0.002": 11.3149145364,
			"0.003": 8.21959329829,
			"0.004": 5.74584670958,
			"0.005": 4.91530620767,
			"0.006": 4.62719920774,
			"0.007": 2.55710205698,
			"0.008": 4.30381613344,
			"0.009": 5.04976418253,
			"0.01": 5.98392937271,
			"0.011": 6.24788870873,
			"0.012": 4.44270680666,
			"0.013": 2.66712168613,
			"0.014": 1.36415159797,
			"0.015": 0.916437520239,
			"0.016": 0.854756000724,
			"0.017": 1.07077811431,
			"0.018": 0.059989405284,
			"0.019": 0.0,
			"0.02": 0.0,
			"0.021": 0.0,
			"0.022": 0.0,
			"0.023": 0.0,
			"0.024": 0.0,
			"0.025": 0.0
		}
	}
}
