{
	 "smiles": "O=C1NC=NC2=C1SC=C2", 
	 "Tm": 493.15, 
	 "num_atms": 14, 
	 "gaussian": { 
		 "optdone": 1, 
		 "sigma_profile": "yes", 
		 "theory": "DFT", 
		 "functional": "B3LYP", 
		 "basiset": "6-31G**", 
		 "properties": { 
			 "R2extent": 2001.6224, 
			 "electric_dipole_moment_norm": 2.32145608832, 
			 "electric_quadrupole_moment_norm": 23.0413578504, 
			 "total_energy": -813.970129094, 
			 "HOMO_LUMO_gap": 0.18298, 
			 "cosmo_polarized_energy": -13.97, 
			 "cosmo_cavitation_energy": 20.23, 
			 "cosmo_dispersion_energy": -16.05, 
			 "cosmo_repulsion_energy": 1.23, 
			 "cosmo_total_nonelectrostatic_energy": 5.42, 
			 "SMD_solvation_energy": 2.84 
		},
		"coords": [
			{
				"x": 0.335651307,
				"y": -3.6399698259,
				"z": 1.2891018336,
				"element": "O" 
			},
			{
				"x": 0.6696844183,
				"y": -2.4641266751,
				"z": 1.290737617,
				"element": "C" 
			},
			{
				"x": 1.2034651846,
				"y": -1.8519405083,
				"z": 2.4512800092,
				"element": "N" 
			},
			{
				"x": 1.6006580764,
				"y": -0.5435203627,
				"z": 2.5347060837,
				"element": "C" 
			},
			{
				"x": 1.5418465251,
				"y": 0.311314363,
				"z": 1.562927039,
				"element": "N" 
			},
			{
				"x": 1.034360466,
				"y": -0.181478917,
				"z": 0.377287691,
				"element": "C" 
			},
			{
				"x": 0.6098407216,
				"y": -1.5021789476,
				"z": 0.2170370123,
				"element": "C" 
			},
			{
				"x": 0.0248046996,
				"y": -1.8143493816,
				"z": -1.3849073097,
				"element": "S" 
			},
			{
				"x": 0.3518602141,
				"y": -0.1655990356,
				"z": -1.8381752504,
				"element": "C" 
			},
			{
				"x": 0.8783524244,
				"y": 0.5814854572,
				"z": -0.8241740387,
				"element": "C" 
			},
			{
				"x": 1.2813887565,
				"y": -2.4595764009,
				"z": 3.2583249963,
				"element": "H" 
			},
			{
				"x": 1.988822575,
				"y": -0.2334706859,
				"z": 3.5024265974,
				"element": "H" 
			},
			{
				"x": 0.1303836306,
				"y": 0.1563746433,
				"z": -2.8468621725,
				"element": "H" 
			},
			{
				"x": 1.1504810007,
				"y": 1.6266362771,
				"z": -0.9030101082,
				"element": "H" 
			}
		],
		 "valence_orbital": [ 
			{
				"type": "occ",
				"energy": -0.30149,
				"method": "rhf"
			},
			{
				"type": "occ",
				"energy": -0.28642,
				"method": "rhf"
			},
			{
				"type": "occ",
				"energy": -0.26863,
				"method": "rhf"
			},
			{
				"type": "occ",
				"energy": -0.25741,
				"method": "rhf"
			},
			{
				"type": "occ",
				"energy": -0.23527,
				"method": "rhf"
			},
			{
				"type": "unocc",
				"energy": -0.05229,
				"method": "rhf"
			},
			{
				"type": "unocc",
				"energy": -0.01781,
				"method": "rhf"
			},
			{
				"type": "unocc",
				"energy": 0.02144,
				"method": "rhf"
			},
			{
				"type": "unocc",
				"energy": 0.03667,
				"method": "rhf"
			},
			{
				"type": "unocc",
				"energy": 0.06706,
				"method": "rhf"
			}
		],
		"cosmo_sigma_profile": { 
			"-0.025": 0.0,
			"-0.024": 0.0,
			"-0.023": 0.0,
			"-0.022": 0.0,
			"-0.021": 0.0,
			"-0.02": 0.0,
			"-0.019": 0.0,
			"-0.018": 0.0,
			"-0.017": 1.10015715802,
			"-0.016": 1.52087518418,
			"-0.015": 1.21413500404,
			"-0.014": 1.78756108194,
			"-0.013": 0.987555934239,
			"-0.012": 0.779610059279,
			"-0.011": 1.63573634448,
			"-0.01": 3.66680163513,
			"-0.009": 5.00347822836,
			"-0.008": 4.60200885352,
			"-0.007": 6.10597745375,
			"-0.006": 4.6643499048,
			"-0.005": 5.36935042465,
			"-0.004": 6.35630696338,
			"-0.003": 8.0294448875,
			"-0.002": 10.7274891577,
			"-0.001": 8.73827761078,
			"0.0": 10.2361966448,
			"0.001": 18.6386482198,
			"0.002": 16.2929838776,
			"0.003": 11.8369700066,
			"0.004": 5.48121306595,
			"0.005": 2.67169373202,
			"0.006": 2.85155271442,
			"0.007": 3.27551946771,
			"0.008": 1.56512974521,
			"0.009": 2.30695604671,
			"0.01": 1.97621664686,
			"0.011": 2.95485471512,
			"0.012": 4.42783841116,
			"0.013": 6.71364281768,
			"0.014": 1.66560528942,
			"0.015": 0.52546600962,
			"0.016": 0.0747703386035,
			"0.017": 0.0,
			"0.018": 0.0,
			"0.019": 0.0,
			"0.02": 0.0,
			"0.021": 0.0,
			"0.022": 0.0,
			"0.023": 0.0,
			"0.024": 0.0,
			"0.025": 0.0
		}
	}
}
