{
	 "smiles": "COC(=O)C1=CC(=CC(Cl)=C1)S(Cl)(=O)=O", 
	 "Tm": 324.15, 
	 "num_atms": 21, 
	 "gaussian": { 
		 "optdone": 1, 
		 "sigma_profile": "yes", 
		 "theory": "DFT", 
		 "functional": "B3LYP", 
		 "basiset": "6-31G**", 
		 "properties": { 
			 "R2extent": 5572.2039, 
			 "electric_dipole_moment_norm": 5.73505488901, 
			 "electric_quadrupole_moment_norm": 6.52960128645, 
			 "total_energy": -1927.87201306, 
			 "HOMO_LUMO_gap": 0.18501, 
			 "cosmo_polarized_energy": -11.11, 
			 "cosmo_cavitation_energy": 32.05, 
			 "cosmo_dispersion_energy": -23.61, 
			 "cosmo_repulsion_energy": 1.83, 
			 "cosmo_total_nonelectrostatic_energy": 10.27, 
			 "SMD_solvation_energy": 5.54 
		},
		"coords": [
			{
				"x": -0.6589211377,
				"y": 1.0574157199,
				"z": -4.2398371475,
				"element": "C" 
			},
			{
				"x": -0.7760710942,
				"y": 0.2403092607,
				"z": -3.059687012,
				"element": "O" 
			},
			{
				"x": -0.0057718752,
				"y": 0.6150006319,
				"z": -2.0213359858,
				"element": "C" 
			},
			{
				"x": 0.7461701311,
				"y": 1.5668574463,
				"z": -2.0404074408,
				"element": "O" 
			},
			{
				"x": -0.1830674784,
				"y": -0.2795900912,
				"z": -0.8334645503,
				"element": "C" 
			},
			{
				"x": 0.5679911304,
				"y": 0.0108200857,
				"z": 0.3101780575,
				"element": "C" 
			},
			{
				"x": 0.4171297624,
				"y": -0.8119019848,
				"z": 1.4206746154,
				"element": "C" 
			},
			{
				"x": -0.4427155185,
				"y": -1.9109593301,
				"z": 1.4396138246,
				"element": "C" 
			},
			{
				"x": -1.1778245239,
				"y": -2.1758240015,
				"z": 0.285199056,
				"element": "C" 
			},
			{
				"x": -2.265586912,
				"y": -3.5453667879,
				"z": 0.259001295,
				"element": "Cl" 
			},
			{
				"x": -1.0583542477,
				"y": -1.3720219883,
				"z": -0.8489097601,
				"element": "C" 
			},
			{
				"x": 1.3856654069,
				"y": -0.4697519029,
				"z": 2.8906886369,
				"element": "S" 
			},
			{
				"x": 0.0908482145,
				"y": 0.8620804439,
				"z": 3.9286419616,
				"element": "Cl" 
			},
			{
				"x": 1.463520416,
				"y": -1.6799856661,
				"z": 3.6982781299,
				"element": "O" 
			},
			{
				"x": 2.562058159,
				"y": 0.3034796741,
				"z": 2.5192328932,
				"element": "O" 
			},
			{
				"x": -0.942409101,
				"y": 2.0887259804,
				"z": -4.0179242295,
				"element": "H" 
			},
			{
				"x": 0.3679590232,
				"y": 1.0428011042,
				"z": -4.6119826957,
				"element": "H" 
			},
			{
				"x": -1.3397444651,
				"y": 0.6179592537,
				"z": -4.9677629736,
				"element": "H" 
			},
			{
				"x": 1.2493531622,
				"y": 0.8535675907,
				"z": 0.3096022293,
				"element": "H" 
			},
			{
				"x": -0.525761538,
				"y": -2.539147384,
				"z": 2.3183872236,
				"element": "H" 
			},
			{
				"x": -1.6361675141,
				"y": -1.5913680549,
				"z": -1.7377861276,
				"element": "H" 
			}
		],
		 "valence_orbital": [ 
			{
				"type": "occ",
				"energy": -0.32708,
				"method": "rhf"
			},
			{
				"type": "occ",
				"energy": -0.32088,
				"method": "rhf"
			},
			{
				"type": "occ",
				"energy": -0.30593,
				"method": "rhf"
			},
			{
				"type": "occ",
				"energy": -0.30149,
				"method": "rhf"
			},
			{
				"type": "occ",
				"energy": -0.28552,
				"method": "rhf"
			},
			{
				"type": "unocc",
				"energy": -0.10051,
				"method": "rhf"
			},
			{
				"type": "unocc",
				"energy": -0.0815,
				"method": "rhf"
			},
			{
				"type": "unocc",
				"energy": -0.05673,
				"method": "rhf"
			},
			{
				"type": "unocc",
				"energy": -0.0001,
				"method": "rhf"
			},
			{
				"type": "unocc",
				"energy": 0.01296,
				"method": "rhf"
			}
		],
		"cosmo_sigma_profile": { 
			"-0.025": 0.0,
			"-0.024": 0.0,
			"-0.023": 0.0,
			"-0.022": 0.0,
			"-0.021": 0.0,
			"-0.02": 0.0,
			"-0.019": 0.0,
			"-0.018": 0.0,
			"-0.017": 0.0,
			"-0.016": 0.0,
			"-0.015": 0.0,
			"-0.014": 0.0,
			"-0.013": 0.0,
			"-0.012": 0.0,
			"-0.011": 0.0,
			"-0.01": 0.435772887273,
			"-0.009": 1.47515202604,
			"-0.008": 2.87883328443,
			"-0.007": 7.8988535613,
			"-0.006": 11.1227811218,
			"-0.005": 15.7177125352,
			"-0.004": 20.629580719,
			"-0.003": 23.6148588049,
			"-0.002": 32.7732367571,
			"-0.001": 20.7483389985,
			"0.0": 14.1688485531,
			"0.001": 15.7829620168,
			"0.002": 19.0101602758,
			"0.003": 27.4071169945,
			"0.004": 9.64424842854,
			"0.005": 4.38151133531,
			"0.006": 5.44830558063,
			"0.007": 9.01308139122,
			"0.008": 10.1103397302,
			"0.009": 3.42246969872,
			"0.01": 2.62494287194,
			"0.011": 3.97250648619,
			"0.012": 0.421948995549,
			"0.013": 0.0,
			"0.014": 0.0,
			"0.015": 0.0,
			"0.016": 0.0,
			"0.017": 0.0,
			"0.018": 0.0,
			"0.019": 0.0,
			"0.02": 0.0,
			"0.021": 0.0,
			"0.022": 0.0,
			"0.023": 0.0,
			"0.024": 0.0,
			"0.025": 0.0
		}
	}
}
