{
	 "smiles": "CSC1=NC2=C(N1)C=CC(=C2)N=CC1=CC=CC=C1Cl", 
	 "Tm": 503.15, 
	 "num_atms": 32, 
	 "gaussian": { 
		 "optdone": 1, 
		 "sigma_profile": "yes", 
		 "theory": "DFT", 
		 "functional": "B3LYP", 
		 "basiset": "6-31G**", 
		 "properties": { 
			 "R2extent": 9210.4877, 
			 "electric_dipole_moment_norm": 3.95665967831, 
			 "electric_quadrupole_moment_norm": 17.8439138173, 
			 "total_energy": -1601.45480224, 
			 "HOMO_LUMO_gap": 0.14552, 
			 "cosmo_polarized_energy": -15.92, 
			 "cosmo_cavitation_energy": 40.22, 
			 "cosmo_dispersion_energy": -28.98, 
			 "cosmo_repulsion_energy": 2.2, 
			 "cosmo_total_nonelectrostatic_energy": 13.44, 
			 "SMD_solvation_energy": 3.2 
		},
		"coords": [
			{
				"x": -2.2864531236,
				"y": -2.6282727253,
				"z": 3.4530008699,
				"element": "C" 
			},
			{
				"x": -2.6614640229,
				"y": -3.8047723134,
				"z": 2.107668701,
				"element": "S" 
			},
			{
				"x": -1.402044255,
				"y": -3.3349908329,
				"z": 0.9674018612,
				"element": "C" 
			},
			{
				"x": -0.5341973269,
				"y": -2.3663280211,
				"z": 1.1257473038,
				"element": "N" 
			},
			{
				"x": 0.2358439349,
				"y": -2.3882352656,
				"z": -0.0336697491,
				"element": "C" 
			},
			{
				"x": -0.205905625,
				"y": -3.4150410795,
				"z": -0.9012654278,
				"element": "C" 
			},
			{
				"x": -1.2665799168,
				"y": -4.0083716176,
				"z": -0.2291708586,
				"element": "N" 
			},
			{
				"x": 0.4075631483,
				"y": -3.6675495536,
				"z": -2.1274699466,
				"element": "C" 
			},
			{
				"x": 1.4915755094,
				"y": -2.8642940279,
				"z": -2.469656951,
				"element": "C" 
			},
			{
				"x": 1.927098504,
				"y": -1.8055840289,
				"z": -1.6361358105,
				"element": "C" 
			},
			{
				"x": 1.3062719741,
				"y": -1.5691360905,
				"z": -0.4023608999,
				"element": "C" 
			},
			{
				"x": 3.0792973736,
				"y": -1.099358851,
				"z": -2.043442048,
				"element": "N" 
			},
			{
				"x": 3.1664876456,
				"y": 0.1745292468,
				"z": -2.0923190838,
				"element": "C" 
			},
			{
				"x": 2.1147662926,
				"y": 1.2175229197,
				"z": -1.9427850927,
				"element": "C" 
			},
			{
				"x": 0.8195399622,
				"y": 1.0321105813,
				"z": -2.4602757566,
				"element": "C" 
			},
			{
				"x": -0.1314770608,
				"y": 2.0459259094,
				"z": -2.4143361104,
				"element": "C" 
			},
			{
				"x": 0.1899158283,
				"y": 3.278879376,
				"z": -1.8417075889,
				"element": "C" 
			},
			{
				"x": 1.4654256176,
				"y": 3.4957208671,
				"z": -1.324145456,
				"element": "C" 
			},
			{
				"x": 2.4115603763,
				"y": 2.4733144415,
				"z": -1.3856835301,
				"element": "C" 
			},
			{
				"x": 4.0080022309,
				"y": 2.7897073181,
				"z": -0.7090293227,
				"element": "Cl" 
			},
			{
				"x": -2.3712547745,
				"y": -1.6045809089,
				"z": 3.0894604212,
				"element": "H" 
			},
			{
				"x": -1.2798582442,
				"y": -2.8007360298,
				"z": 3.8333718277,
				"element": "H" 
			},
			{
				"x": -3.0267467473,
				"y": -2.8202015587,
				"z": 4.23176085,
				"element": "H" 
			},
			{
				"x": -1.8134385587,
				"y": -4.7980408173,
				"z": -0.534699509,
				"element": "H" 
			},
			{
				"x": 0.0768745944,
				"y": -4.4661882982,
				"z": -2.7845655571,
				"element": "H" 
			},
			{
				"x": 2.027381513,
				"y": -3.0356942513,
				"z": -3.3973709211,
				"element": "H" 
			},
			{
				"x": 1.6547442226,
				"y": -0.7842641091,
				"z": 0.2592632273,
				"element": "H" 
			},
			{
				"x": 4.1591184692,
				"y": 0.569276849,
				"z": -2.3222833306,
				"element": "H" 
			},
			{
				"x": 0.572377011,
				"y": 0.0774200795,
				"z": -2.9103646069,
				"element": "H" 
			},
			{
				"x": -1.1214076306,
				"y": 1.8757872503,
				"z": -2.8259707457,
				"element": "H" 
			},
			{
				"x": -0.5480786403,
				"y": 4.0741809834,
				"z": -1.7980742229,
				"element": "H" 
			},
			{
				"x": 1.7322617186,
				"y": 4.4456645586,
				"z": -0.8744925359,
				"element": "H" 
			}
		],
		 "valence_orbital": [ 
			{
				"type": "occ",
				"energy": -0.26157,
				"method": "rhf"
			},
			{
				"type": "occ",
				"energy": -0.25695,
				"method": "rhf"
			},
			{
				"type": "occ",
				"energy": -0.24971,
				"method": "rhf"
			},
			{
				"type": "occ",
				"energy": -0.21645,
				"method": "rhf"
			},
			{
				"type": "occ",
				"energy": -0.19853,
				"method": "rhf"
			},
			{
				"type": "unocc",
				"energy": -0.05301,
				"method": "rhf"
			},
			{
				"type": "unocc",
				"energy": -0.01882,
				"method": "rhf"
			},
			{
				"type": "unocc",
				"energy": -0.01056,
				"method": "rhf"
			},
			{
				"type": "unocc",
				"energy": 0.01318,
				"method": "rhf"
			},
			{
				"type": "unocc",
				"energy": 0.01533,
				"method": "rhf"
			}
		],
		"cosmo_sigma_profile": { 
			"-0.025": 0.0,
			"-0.024": 0.0,
			"-0.023": 0.0,
			"-0.022": 0.0,
			"-0.021": 0.0,
			"-0.02": 0.0,
			"-0.019": 0.0,
			"-0.018": 0.0,
			"-0.017": 0.82887675492,
			"-0.016": 1.62760034614,
			"-0.015": 1.29185917945,
			"-0.014": 0.685283273454,
			"-0.013": 1.24074284692,
			"-0.012": 1.86721562467,
			"-0.011": 1.03590881781,
			"-0.01": 1.00181215513,
			"-0.009": 1.25575869783,
			"-0.008": 2.7616826535,
			"-0.007": 9.39097643589,
			"-0.006": 15.6445649047,
			"-0.005": 20.0454897063,
			"-0.004": 21.1891155472,
			"-0.003": 20.4373971144,
			"-0.002": 23.4131142984,
			"-0.001": 21.2332136945,
			"0.0": 20.5445213982,
			"0.001": 27.4657188118,
			"0.002": 31.3815904803,
			"0.003": 32.0928348904,
			"0.004": 26.3171219441,
			"0.005": 14.7324501002,
			"0.006": 7.11864491536,
			"0.007": 5.85600828301,
			"0.008": 3.3809078332,
			"0.009": 1.79756825384,
			"0.01": 2.35831398559,
			"0.011": 2.94693129717,
			"0.012": 1.82186204778,
			"0.013": 1.78361722705,
			"0.014": 1.18962389745,
			"0.015": 1.40282208473,
			"0.016": 0.0687742716738,
			"0.017": 0.0,
			"0.018": 0.0,
			"0.019": 0.0,
			"0.02": 0.0,
			"0.021": 0.0,
			"0.022": 0.0,
			"0.023": 0.0,
			"0.024": 0.0,
			"0.025": 0.0
		}
	}
}
