{
	 "smiles": "COC1=C(Br)C=NC(O)=C1", 
	 "Tm": 477.15, 
	 "num_atms": 16, 
	 "gaussian": { 
		 "optdone": 1, 
		 "sigma_profile": "yes", 
		 "theory": "DFT", 
		 "functional": "B3LYP", 
		 "basiset": "6-31G**", 
		 "properties": { 
			 "R2extent": 3017.8546, 
			 "electric_dipole_moment_norm": 2.42947761052, 
			 "electric_quadrupole_moment_norm": 5.90791776009, 
			 "total_energy": -3008.84581534, 
			 "HOMO_LUMO_gap": 0.2091, 
			 "cosmo_polarized_energy": -9.27, 
			 "cosmo_cavitation_energy": 22.67, 
			 "cosmo_dispersion_energy": -17.44, 
			 "cosmo_repulsion_energy": 1.42, 
			 "cosmo_total_nonelectrostatic_energy": 6.65, 
			 "SMD_solvation_energy": 2.83 
		},
		"coords": [
			{
				"x": 0.9871119373,
				"y": -1.9255776394,
				"z": 1.3211361817,
				"element": "C" 
			},
			{
				"x": -0.0929641842,
				"y": -1.6386208349,
				"z": 0.4378297075,
				"element": "O" 
			},
			{
				"x": -0.7986049486,
				"y": -0.5080050997,
				"z": 0.6302244098,
				"element": "C" 
			},
			{
				"x": -1.8653162131,
				"y": -0.2468701716,
				"z": -0.2599795613,
				"element": "C" 
			},
			{
				"x": -2.274189358,
				"y": -1.4557552451,
				"z": -1.6683774119,
				"element": "Br" 
			},
			{
				"x": -2.6122080309,
				"y": 0.9072829288,
				"z": -0.0911685237,
				"element": "C" 
			},
			{
				"x": -2.3810257516,
				"y": 1.8047695684,
				"z": 0.8799242067,
				"element": "N" 
			},
			{
				"x": -1.376196766,
				"y": 1.5501705779,
				"z": 1.7115562279,
				"element": "C" 
			},
			{
				"x": -1.1374598641,
				"y": 2.4494588008,
				"z": 2.692035179,
				"element": "O" 
			},
			{
				"x": -0.5514244928,
				"y": 0.4193589923,
				"z": 1.6422558615,
				"element": "C" 
			},
			{
				"x": 1.7584419362,
				"y": -1.1481181767,
				"z": 1.273173351,
				"element": "H" 
			},
			{
				"x": 1.4036544784,
				"y": -2.8729711499,
				"z": 0.9788983848,
				"element": "H" 
			},
			{
				"x": 0.6388830934,
				"y": -2.0312319432,
				"z": 2.3551902881,
				"element": "H" 
			},
			{
				"x": -3.4347068294,
				"y": 1.1196413204,
				"z": -0.7686621827,
				"element": "H" 
			},
			{
				"x": -1.8005294171,
				"y": 3.1486927388,
				"z": 2.5766858989,
				"element": "H" 
			},
			{
				"x": 0.2438344105,
				"y": 0.2965753331,
				"z": 2.3646779829,
				"element": "H" 
			}
		],
		 "valence_orbital": [ 
			{
				"type": "occ",
				"energy": -0.30467,
				"method": "rhf"
			},
			{
				"type": "occ",
				"energy": -0.29126,
				"method": "rhf"
			},
			{
				"type": "occ",
				"energy": -0.27341,
				"method": "rhf"
			},
			{
				"type": "occ",
				"energy": -0.2601,
				"method": "rhf"
			},
			{
				"type": "occ",
				"energy": -0.22797,
				"method": "rhf"
			},
			{
				"type": "unocc",
				"energy": -0.01887,
				"method": "rhf"
			},
			{
				"type": "unocc",
				"energy": -0.00342,
				"method": "rhf"
			},
			{
				"type": "unocc",
				"energy": 0.0098,
				"method": "rhf"
			},
			{
				"type": "unocc",
				"energy": 0.08805,
				"method": "rhf"
			},
			{
				"type": "unocc",
				"energy": 0.09159,
				"method": "rhf"
			}
		],
		"cosmo_sigma_profile": { 
			"-0.025": 0.0,
			"-0.024": 0.0,
			"-0.023": 0.0,
			"-0.022": 0.0,
			"-0.021": 0.0,
			"-0.02": 0.0,
			"-0.019": 0.0,
			"-0.018": 0.0397248083816,
			"-0.017": 0.717444800614,
			"-0.016": 0.513529526631,
			"-0.015": 0.994120208194,
			"-0.014": 0.98178267234,
			"-0.013": 0.29634995484,
			"-0.012": 0.182052239803,
			"-0.011": 0.674233871562,
			"-0.01": 1.013340586,
			"-0.009": 1.1674183396,
			"-0.008": 2.47903669812,
			"-0.007": 6.66854055235,
			"-0.006": 11.818716856,
			"-0.005": 12.0895249291,
			"-0.004": 12.9401138146,
			"-0.003": 9.27913247765,
			"-0.002": 7.50739406376,
			"-0.001": 7.98310342784,
			"0.0": 15.5246366354,
			"0.001": 19.1087804299,
			"0.002": 15.2709597589,
			"0.003": 10.7392568344,
			"0.004": 13.3710241832,
			"0.005": 8.7854601016,
			"0.006": 4.60386008473,
			"0.007": 4.77052299473,
			"0.008": 4.35701368295,
			"0.009": 3.57804327106,
			"0.01": 3.93259653373,
			"0.011": 1.4741868348,
			"0.012": 0.498465044048,
			"0.013": 0.940051683152,
			"0.014": 0.138670318067,
			"0.015": 0.0,
			"0.016": 0.0,
			"0.017": 0.0,
			"0.018": 0.0,
			"0.019": 0.0,
			"0.02": 0.0,
			"0.021": 0.0,
			"0.022": 0.0,
			"0.023": 0.0,
			"0.024": 0.0,
			"0.025": 0.0
		}
	}
}
