{
	 "smiles": "CS(=O)(=O)CBr", 
	 "Tm": 308.15, 
	 "num_atms": 11, 
	 "gaussian": { 
		 "optdone": 1, 
		 "sigma_profile": "yes", 
		 "theory": "DFT", 
		 "functional": "B3LYP", 
		 "basiset": "6-31G**", 
		 "properties": { 
			 "R2extent": 2097.3257, 
			 "electric_dipole_moment_norm": 3.62749991316, 
			 "electric_quadrupole_moment_norm": 9.63206862932, 
			 "total_energy": -3199.19479971, 
			 "HOMO_LUMO_gap": 0.25689, 
			 "cosmo_polarized_energy": -14.41, 
			 "cosmo_cavitation_energy": 18.23, 
			 "cosmo_dispersion_energy": -14.48, 
			 "cosmo_repulsion_energy": 1.19, 
			 "cosmo_total_nonelectrostatic_energy": 4.93, 
			 "SMD_solvation_energy": 1.92 
		},
		"coords": [
			{
				"x": -2.5022511509,
				"y": -1.4835147861,
				"z": 0.8767408791,
				"element": "C" 
			},
			{
				"x": -1.2829575713,
				"y": -0.2519723714,
				"z": 0.3764067739,
				"element": "S" 
			},
			{
				"x": -1.7824798839,
				"y": 1.0820930267,
				"z": 0.7411062833,
				"element": "O" 
			},
			{
				"x": 0.0411718326,
				"y": -0.7089716495,
				"z": 0.806219855,
				"element": "O" 
			},
			{
				"x": -1.3535151537,
				"y": -0.2647441699,
				"z": -1.4517691852,
				"element": "C" 
			},
			{
				"x": -0.9241272908,
				"y": -1.9818957311,
				"z": -2.2678592663,
				"element": "Br" 
			},
			{
				"x": -3.4890130575,
				"y": -1.1799609391,
				"z": 0.5241492875,
				"element": "H" 
			},
			{
				"x": -2.4773411852,
				"y": -1.4937027846,
				"z": 1.9679587399,
				"element": "H" 
			},
			{
				"x": -2.2159654663,
				"y": -2.4570176265,
				"z": 0.4788280095,
				"element": "H" 
			},
			{
				"x": -0.6121915577,
				"y": 0.4666537188,
				"z": -1.772917703,
				"element": "H" 
			},
			{
				"x": -2.3531295154,
				"y": 0.0326333127,
				"z": -1.7648636736,
				"element": "H" 
			}
		],
		 "valence_orbital": [ 
			{
				"type": "occ",
				"energy": -0.3261,
				"method": "rhf"
			},
			{
				"type": "occ",
				"energy": -0.32184,
				"method": "rhf"
			},
			{
				"type": "occ",
				"energy": -0.3081,
				"method": "rhf"
			},
			{
				"type": "occ",
				"energy": -0.30283,
				"method": "rhf"
			},
			{
				"type": "occ",
				"energy": -0.28985,
				"method": "rhf"
			},
			{
				"type": "unocc",
				"energy": -0.03296,
				"method": "rhf"
			},
			{
				"type": "unocc",
				"energy": 0.04784,
				"method": "rhf"
			},
			{
				"type": "unocc",
				"energy": 0.0595,
				"method": "rhf"
			},
			{
				"type": "unocc",
				"energy": 0.0699,
				"method": "rhf"
			},
			{
				"type": "unocc",
				"energy": 0.07849,
				"method": "rhf"
			}
		],
		"cosmo_sigma_profile": { 
			"-0.025": 0.0,
			"-0.024": 0.0,
			"-0.023": 0.0,
			"-0.022": 0.0,
			"-0.021": 0.0,
			"-0.02": 0.0,
			"-0.019": 0.0,
			"-0.018": 0.0,
			"-0.017": 0.0,
			"-0.016": 0.0,
			"-0.015": 0.0,
			"-0.014": 0.0,
			"-0.013": 0.327443556559,
			"-0.012": 1.58354999179,
			"-0.011": 4.39684338585,
			"-0.01": 4.65494137274,
			"-0.009": 7.04623582471,
			"-0.008": 6.09405611835,
			"-0.007": 8.70285431192,
			"-0.006": 6.46915028278,
			"-0.005": 8.47065690011,
			"-0.004": 9.69473358684,
			"-0.003": 7.41727862381,
			"-0.002": 4.54485776151,
			"-0.001": 4.96288569545,
			"0.0": 4.80489486985,
			"0.001": 6.65563795051,
			"0.002": 6.48998653997,
			"0.003": 7.21950787286,
			"0.004": 8.22873104118,
			"0.005": 3.48707568194,
			"0.006": 3.79327935568,
			"0.007": 3.01391127677,
			"0.008": 2.63044413295,
			"0.009": 3.60618319481,
			"0.01": 6.36552635966,
			"0.011": 13.4144947806,
			"0.012": 3.78493988583,
			"0.013": 0.0,
			"0.014": 0.0,
			"0.015": 0.0,
			"0.016": 0.0,
			"0.017": 0.0,
			"0.018": 0.0,
			"0.019": 0.0,
			"0.02": 0.0,
			"0.021": 0.0,
			"0.022": 0.0,
			"0.023": 0.0,
			"0.024": 0.0,
			"0.025": 0.0
		}
	}
}
