{
	 "smiles": "O=C1C2=CC=CC=C2CCC2=CC=CC=C2C1=O", 
	 "Tm": 405.15, 
	 "num_atms": 30, 
	 "gaussian": { 
		 "optdone": 1, 
		 "sigma_profile": "yes", 
		 "theory": "DFT", 
		 "functional": "B3LYP", 
		 "basiset": "6-31G**", 
		 "properties": { 
			 "R2extent": 4524.7658, 
			 "electric_dipole_moment_norm": 5.18766013343, 
			 "electric_quadrupole_moment_norm": 21.8820724729, 
			 "total_energy": -767.36377932, 
			 "HOMO_LUMO_gap": 0.15821, 
			 "cosmo_polarized_energy": -12.84, 
			 "cosmo_cavitation_energy": 33.19, 
			 "cosmo_dispersion_energy": -23.59, 
			 "cosmo_repulsion_energy": 1.79, 
			 "cosmo_total_nonelectrostatic_energy": 11.4, 
			 "SMD_solvation_energy": 6.08 
		},
		"coords": [
			{
				"x": -2.6742574509,
				"y": 0.0198867884,
				"z": 2.5067549576,
				"element": "O" 
			},
			{
				"x": -1.5414310718,
				"y": 0.3208762115,
				"z": 2.1623393107,
				"element": "C" 
			},
			{
				"x": -1.2580988819,
				"y": 1.5055674345,
				"z": 1.3039496525,
				"element": "C" 
			},
			{
				"x": -2.3739479941,
				"y": 2.1181983858,
				"z": 0.706190793,
				"element": "C" 
			},
			{
				"x": -2.2239151912,
				"y": 3.2202913835,
				"z": -0.1248363313,
				"element": "C" 
			},
			{
				"x": -0.9443010564,
				"y": 3.7323724187,
				"z": -0.3575018754,
				"element": "C" 
			},
			{
				"x": 0.163710107,
				"y": 3.1417332978,
				"z": 0.2467684171,
				"element": "C" 
			},
			{
				"x": 0.0357092887,
				"y": 2.024590718,
				"z": 1.0836319723,
				"element": "C" 
			},
			{
				"x": 1.2850892881,
				"y": 1.4440634324,
				"z": 1.7144183371,
				"element": "C" 
			},
			{
				"x": 1.9701491948,
				"y": 0.3416219104,
				"z": 0.8811113487,
				"element": "C" 
			},
			{
				"x": 1.2235216806,
				"y": -0.9591771648,
				"z": 0.6357025592,
				"element": "C" 
			},
			{
				"x": 1.6619670333,
				"y": -1.7722193371,
				"z": -0.4208370452,
				"element": "C" 
			},
			{
				"x": 1.1149293445,
				"y": -3.0308526374,
				"z": -0.6558078256,
				"element": "C" 
			},
			{
				"x": 0.1078654948,
				"y": -3.5179883676,
				"z": 0.179380479,
				"element": "C" 
			},
			{
				"x": -0.3453578783,
				"y": -2.7299948768,
				"z": 1.2323268983,
				"element": "C" 
			},
			{
				"x": 0.1947400989,
				"y": -1.4525695075,
				"z": 1.4594157546,
				"element": "C" 
			},
			{
				"x": -0.438382532,
				"y": -0.6806823901,
				"z": 2.5875131691,
				"element": "C" 
			},
			{
				"x": -0.2773341914,
				"y": -0.9509958597,
				"z": 3.7603663328,
				"element": "O" 
			},
			{
				"x": -3.3523244498,
				"y": 1.6982847215,
				"z": 0.9145775476,
				"element": "H" 
			},
			{
				"x": -3.0924693716,
				"y": 3.680506719,
				"z": -0.5860400314,
				"element": "H" 
			},
			{
				"x": -0.8103975406,
				"y": 4.5976895308,
				"z": -1.0005590435,
				"element": "H" 
			},
			{
				"x": 1.1527409143,
				"y": 3.5609707794,
				"z": 0.0786083977,
				"element": "H" 
			},
			{
				"x": 1.0875167506,
				"y": 1.0864108138,
				"z": 2.7283682986,
				"element": "H" 
			},
			{
				"x": 2.0136022641,
				"y": 2.2534738389,
				"z": 1.8327054518,
				"element": "H" 
			},
			{
				"x": 2.9151840499,
				"y": 0.0934705007,
				"z": 1.3842625376,
				"element": "H" 
			},
			{
				"x": 2.2528355939,
				"y": 0.7645518813,
				"z": -0.0903913662,
				"element": "H" 
			},
			{
				"x": 2.4589332961,
				"y": -1.4073257173,
				"z": -1.0645086559,
				"element": "H" 
			},
			{
				"x": 1.4763787909,
				"y": -3.6309176447,
				"z": -1.4858663771,
				"element": "H" 
			},
			{
				"x": -0.3221161697,
				"y": -4.5006533117,
				"z": 0.011128613,
				"element": "H" 
			},
			{
				"x": -1.1338394107,
				"y": -3.0902839516,
				"z": 1.8863277231,
				"element": "H" 
			}
		],
		 "valence_orbital": [ 
			{
				"type": "occ",
				"energy": -0.26562,
				"method": "rhf"
			},
			{
				"type": "occ",
				"energy": -0.26019,
				"method": "rhf"
			},
			{
				"type": "occ",
				"energy": -0.25708,
				"method": "rhf"
			},
			{
				"type": "occ",
				"energy": -0.25205,
				"method": "rhf"
			},
			{
				"type": "occ",
				"energy": -0.23307,
				"method": "rhf"
			},
			{
				"type": "unocc",
				"energy": -0.07486,
				"method": "rhf"
			},
			{
				"type": "unocc",
				"energy": -0.03485,
				"method": "rhf"
			},
			{
				"type": "unocc",
				"energy": -0.01838,
				"method": "rhf"
			},
			{
				"type": "unocc",
				"energy": -0.01067,
				"method": "rhf"
			},
			{
				"type": "unocc",
				"energy": -0.00685,
				"method": "rhf"
			}
		],
		"cosmo_sigma_profile": { 
			"-0.025": 0.0,
			"-0.024": 0.0,
			"-0.023": 0.0,
			"-0.022": 0.0,
			"-0.021": 0.0,
			"-0.02": 0.0,
			"-0.019": 0.0,
			"-0.018": 0.0,
			"-0.017": 0.0,
			"-0.016": 0.0,
			"-0.015": 0.0,
			"-0.014": 0.0,
			"-0.013": 0.0,
			"-0.012": 0.0,
			"-0.011": 0.0,
			"-0.01": 0.0,
			"-0.009": 0.0,
			"-0.008": 0.00838762537304,
			"-0.007": 4.5947167981,
			"-0.006": 18.3589118023,
			"-0.005": 26.7797805774,
			"-0.004": 30.0134619376,
			"-0.003": 22.1248746927,
			"-0.002": 19.1343546038,
			"-0.001": 16.120914125,
			"0.0": 15.6842672574,
			"0.001": 15.8837648173,
			"0.002": 18.8476230199,
			"0.003": 20.9319921775,
			"0.004": 18.7141247053,
			"0.005": 7.04194957998,
			"0.006": 2.5174548434,
			"0.007": 2.68753317415,
			"0.008": 4.27174365835,
			"0.009": 5.27506861689,
			"0.01": 8.80470000615,
			"0.011": 6.45935526371,
			"0.012": 1.23465869072,
			"0.013": 0.0,
			"0.014": 0.0,
			"0.015": 0.0,
			"0.016": 0.0,
			"0.017": 0.0,
			"0.018": 0.0,
			"0.019": 0.0,
			"0.02": 0.0,
			"0.021": 0.0,
			"0.022": 0.0,
			"0.023": 0.0,
			"0.024": 0.0,
			"0.025": 0.0
		}
	}
}
