{
	 "smiles": "FC1=CC=C(C=C1)C1=CSC(NC2=CC=CC=C2)=N1", 
	 "Tm": 365.15, 
	 "num_atms": 30, 
	 "gaussian": { 
		 "optdone": 1, 
		 "sigma_profile": "yes", 
		 "theory": "DFT", 
		 "functional": "B3LYP", 
		 "basiset": "6-31G**", 
		 "properties": { 
			 "R2extent": 9820.9698, 
			 "electric_dipole_moment_norm": 2.54021673682, 
			 "electric_quadrupole_moment_norm": 10.2520752948, 
			 "total_energy": -1185.75220877, 
			 "HOMO_LUMO_gap": 0.16253, 
			 "cosmo_polarized_energy": -10.21, 
			 "cosmo_cavitation_energy": 36.66, 
			 "cosmo_dispersion_energy": -27.51, 
			 "cosmo_repulsion_energy": 2.01, 
			 "cosmo_total_nonelectrostatic_energy": 11.16, 
			 "SMD_solvation_energy": 5.28 
		},
		"coords": [
			{
				"x": -6.206884237,
				"y": 2.4676455829,
				"z": 1.3627751087,
				"element": "F" 
			},
			{
				"x": -5.2200233956,
				"y": 1.6168791929,
				"z": 1.0094959832,
				"element": "C" 
			},
			{
				"x": -3.9105721831,
				"y": 1.9079873616,
				"z": 1.3720857886,
				"element": "C" 
			},
			{
				"x": -2.8989126617,
				"y": 1.0240958305,
				"z": 1.0034187005,
				"element": "C" 
			},
			{
				"x": -3.1846589758,
				"y": -0.1439722007,
				"z": 0.27666253,
				"element": "C" 
			},
			{
				"x": -4.5223504572,
				"y": -0.4071768134,
				"z": -0.0649259043,
				"element": "C" 
			},
			{
				"x": -5.5432699443,
				"y": 0.4678652825,
				"z": 0.2947521782,
				"element": "C" 
			},
			{
				"x": -2.0886661749,
				"y": -1.0554499952,
				"z": -0.1058642065,
				"element": "C" 
			},
			{
				"x": -2.1834948936,
				"y": -2.134533903,
				"z": -0.943329179,
				"element": "C" 
			},
			{
				"x": -0.6368802397,
				"y": -2.918391544,
				"z": -1.1164359448,
				"element": "S" 
			},
			{
				"x": 0.0422922213,
				"y": -1.6959054266,
				"z": -0.0331266458,
				"element": "C" 
			},
			{
				"x": 1.3400701551,
				"y": -1.6785199766,
				"z": 0.4125517544,
				"element": "N" 
			},
			{
				"x": 2.4612772952,
				"y": -2.437033937,
				"z": 0.0467365582,
				"element": "C" 
			},
			{
				"x": 2.5866044739,
				"y": -3.0815427529,
				"z": -1.1935570189,
				"element": "C" 
			},
			{
				"x": 3.7395027428,
				"y": -3.8126920518,
				"z": -1.4832320712,
				"element": "C" 
			},
			{
				"x": 4.7857786276,
				"y": -3.8995822348,
				"z": -0.5657385121,
				"element": "C" 
			},
			{
				"x": 4.6698038403,
				"y": -3.2390472788,
				"z": 0.6602876423,
				"element": "C" 
			},
			{
				"x": 3.5201655561,
				"y": -2.5196187649,
				"z": 0.9686199138,
				"element": "C" 
			},
			{
				"x": -0.821081582,
				"y": -0.8171103846,
				"z": 0.3976297781,
				"element": "N" 
			},
			{
				"x": -3.6978224556,
				"y": 2.812598256,
				"z": 1.9316748421,
				"element": "H" 
			},
			{
				"x": -1.8695607942,
				"y": 1.2278228943,
				"z": 1.2742753919,
				"element": "H" 
			},
			{
				"x": -4.7776642133,
				"y": -1.310949873,
				"z": -0.6092668838,
				"element": "H" 
			},
			{
				"x": -6.5780420549,
				"y": 0.2703948766,
				"z": 0.0365989421,
				"element": "H" 
			},
			{
				"x": -3.0345251983,
				"y": -2.4998236516,
				"z": -1.4976699792,
				"element": "H" 
			},
			{
				"x": 1.4618275321,
				"y": -1.0305336456,
				"z": 1.1794965306,
				"element": "H" 
			},
			{
				"x": 1.8108825726,
				"y": -2.9904436007,
				"z": -1.9439320929,
				"element": "H" 
			},
			{
				"x": 3.8190117089,
				"y": -4.3064001266,
				"z": -2.4474823653,
				"element": "H" 
			},
			{
				"x": 5.6796217803,
				"y": -4.4680417866,
				"z": -0.8019874838,
				"element": "H" 
			},
			{
				"x": 5.4755192996,
				"y": -3.2900887472,
				"z": 1.3869080877,
				"element": "H" 
			},
			{
				"x": 3.4292516554,
				"y": -2.0225305815,
				"z": 1.9312785574,
				"element": "H" 
			}
		],
		 "valence_orbital": [ 
			{
				"type": "occ",
				"energy": -0.26985,
				"method": "rhf"
			},
			{
				"type": "occ",
				"energy": -0.25936,
				"method": "rhf"
			},
			{
				"type": "occ",
				"energy": -0.25727,
				"method": "rhf"
			},
			{
				"type": "occ",
				"energy": -0.22801,
				"method": "rhf"
			},
			{
				"type": "occ",
				"energy": -0.19599,
				"method": "rhf"
			},
			{
				"type": "unocc",
				"energy": -0.03346,
				"method": "rhf"
			},
			{
				"type": "unocc",
				"energy": -0.01344,
				"method": "rhf"
			},
			{
				"type": "unocc",
				"energy": -0.01105,
				"method": "rhf"
			},
			{
				"type": "unocc",
				"energy": -0.0055,
				"method": "rhf"
			},
			{
				"type": "unocc",
				"energy": 0.0169,
				"method": "rhf"
			}
		],
		"cosmo_sigma_profile": { 
			"-0.025": 0.0,
			"-0.024": 0.0,
			"-0.023": 0.0,
			"-0.022": 0.0,
			"-0.021": 0.0,
			"-0.02": 0.0,
			"-0.019": 0.0,
			"-0.018": 0.0,
			"-0.017": 0.0,
			"-0.016": 0.0,
			"-0.015": 0.505586777455,
			"-0.014": 1.01997144116,
			"-0.013": 1.0701062112,
			"-0.012": 1.06249357167,
			"-0.011": 1.11106914534,
			"-0.01": 1.38464882364,
			"-0.009": 2.930000127,
			"-0.008": 4.12070355634,
			"-0.007": 7.39983916632,
			"-0.006": 12.7576693322,
			"-0.005": 18.1204679997,
			"-0.004": 19.3226192143,
			"-0.003": 17.4322912003,
			"-0.002": 14.3959191269,
			"-0.001": 14.9097436749,
			"0.0": 20.1766875248,
			"0.001": 29.3084743596,
			"0.002": 26.7713212102,
			"0.003": 35.2118325551,
			"0.004": 37.5663438351,
			"0.005": 18.1622731502,
			"0.006": 6.55479745241,
			"0.007": 1.62117111655,
			"0.008": 1.40527302635,
			"0.009": 1.90193181393,
			"0.01": 1.25119575694,
			"0.011": 0.185687993543,
			"0.012": 0.0,
			"0.013": 0.0,
			"0.014": 0.0,
			"0.015": 0.0,
			"0.016": 0.0,
			"0.017": 0.0,
			"0.018": 0.0,
			"0.019": 0.0,
			"0.02": 0.0,
			"0.021": 0.0,
			"0.022": 0.0,
			"0.023": 0.0,
			"0.024": 0.0,
			"0.025": 0.0
		}
	}
}
