{
	 "smiles": "O=C1CC2(CCCCC2)C(=O)O1", 
	 "Tm": 329.15, 
	 "num_atms": 24, 
	 "gaussian": { 
		 "optdone": 1, 
		 "sigma_profile": "yes", 
		 "theory": "DFT", 
		 "functional": "B3LYP", 
		 "basiset": "6-31G**", 
		 "properties": { 
			 "R2extent": 2138.9955, 
			 "electric_dipole_moment_norm": 4.68613889145, 
			 "electric_quadrupole_moment_norm": 11.7653867743, 
			 "total_energy": -575.887576814, 
			 "HOMO_LUMO_gap": 0.24832, 
			 "cosmo_polarized_energy": -11.61, 
			 "cosmo_cavitation_energy": 25.47, 
			 "cosmo_dispersion_energy": -18.87, 
			 "cosmo_repulsion_energy": 1.5, 
			 "cosmo_total_nonelectrostatic_energy": 8.1, 
			 "SMD_solvation_energy": 5.45 
		},
		"coords": [
			{
				"x": -1.5874267856,
				"y": 3.0424241563,
				"z": -1.6966057534,
				"element": "O" 
			},
			{
				"x": -0.9702396984,
				"y": 2.2361737308,
				"z": -1.0636618251,
				"element": "C" 
			},
			{
				"x": -1.1515183617,
				"y": 0.7327024081,
				"z": -0.9704903036,
				"element": "C" 
			},
			{
				"x": 0.1379666323,
				"y": 0.2185852048,
				"z": -0.302979636,
				"element": "C" 
			},
			{
				"x": -0.0519054947,
				"y": -0.8854522442,
				"z": 0.7724126679,
				"element": "C" 
			},
			{
				"x": 0.2117385548,
				"y": -2.2885225149,
				"z": 0.2117932569,
				"element": "C" 
			},
			{
				"x": 1.6861260464,
				"y": -2.4450361041,
				"z": -0.2277908049,
				"element": "C" 
			},
			{
				"x": 2.2746812378,
				"y": -1.1184077045,
				"z": -0.767336682,
				"element": "C" 
			},
			{
				"x": 1.1788040048,
				"y": -0.2410265489,
				"z": -1.3811321819,
				"element": "C" 
			},
			{
				"x": 0.6873951152,
				"y": 1.4981910635,
				"z": 0.3347810805,
				"element": "C" 
			},
			{
				"x": 1.543599843,
				"y": 1.6145833012,
				"z": 1.1665650572,
				"element": "O" 
			},
			{
				"x": 0.0776931862,
				"y": 2.6123331723,
				"z": -0.2289616486,
				"element": "O" 
			},
			{
				"x": -1.3563270248,
				"y": 0.3206564181,
				"z": -1.961134545,
				"element": "H" 
			},
			{
				"x": -2.0360697999,
				"y": 0.5472131311,
				"z": -0.3490877839,
				"element": "H" 
			},
			{
				"x": -1.0599805195,
				"y": -0.8160576281,
				"z": 1.1964574056,
				"element": "H" 
			},
			{
				"x": 0.647620513,
				"y": -0.6890798088,
				"z": 1.5923698269,
				"element": "H" 
			},
			{
				"x": -0.4576427589,
				"y": -2.4730170941,
				"z": -0.6385497606,
				"element": "H" 
			},
			{
				"x": -0.0419570753,
				"y": -3.0431567667,
				"z": 0.9636494518,
				"element": "H" 
			},
			{
				"x": 1.7539677084,
				"y": -3.2264363279,
				"z": -0.9934199584,
				"element": "H" 
			},
			{
				"x": 2.2900894009,
				"y": -2.7896545577,
				"z": 0.6190579518,
				"element": "H" 
			},
			{
				"x": 3.050885448,
				"y": -1.3202163483,
				"z": -1.5128016701,
				"element": "H" 
			},
			{
				"x": 2.7589156186,
				"y": -0.5587284797,
				"z": 0.0402273162,
				"element": "H" 
			},
			{
				"x": 1.6070955168,
				"y": 0.6314711581,
				"z": -1.8882542665,
				"element": "H" 
			},
			{
				"x": 0.6396886924,
				"y": -0.8083416165,
				"z": -2.1500071949,
				"element": "H" 
			}
		],
		 "valence_orbital": [ 
			{
				"type": "occ",
				"energy": -0.32872,
				"method": "rhf"
			},
			{
				"type": "occ",
				"energy": -0.32618,
				"method": "rhf"
			},
			{
				"type": "occ",
				"energy": -0.31861,
				"method": "rhf"
			},
			{
				"type": "occ",
				"energy": -0.29993,
				"method": "rhf"
			},
			{
				"type": "occ",
				"energy": -0.27771,
				"method": "rhf"
			},
			{
				"type": "unocc",
				"energy": -0.02939,
				"method": "rhf"
			},
			{
				"type": "unocc",
				"energy": -0.00205,
				"method": "rhf"
			},
			{
				"type": "unocc",
				"energy": 0.06052,
				"method": "rhf"
			},
			{
				"type": "unocc",
				"energy": 0.08827,
				"method": "rhf"
			},
			{
				"type": "unocc",
				"energy": 0.10009,
				"method": "rhf"
			}
		],
		"cosmo_sigma_profile": { 
			"-0.025": 0.0,
			"-0.024": 0.0,
			"-0.023": 0.0,
			"-0.022": 0.0,
			"-0.021": 0.0,
			"-0.02": 0.0,
			"-0.019": 0.0,
			"-0.018": 0.0,
			"-0.017": 0.0,
			"-0.016": 0.0,
			"-0.015": 0.0,
			"-0.014": 0.0,
			"-0.013": 0.0,
			"-0.012": 0.00447723592062,
			"-0.011": 0.492284261121,
			"-0.01": 0.946397428164,
			"-0.009": 2.32386114506,
			"-0.008": 5.08391898066,
			"-0.007": 7.31028016559,
			"-0.006": 9.12709050281,
			"-0.005": 8.36086182567,
			"-0.004": 11.9376310035,
			"-0.003": 17.0402170444,
			"-0.002": 23.6309438067,
			"-0.001": 29.0766540722,
			"0.0": 18.4405167563,
			"0.001": 11.0297524497,
			"0.002": 3.90812493472,
			"0.003": 3.9869453925,
			"0.004": 3.80232655117,
			"0.005": 4.23955802393,
			"0.006": 4.29297425547,
			"0.007": 6.82001399541,
			"0.008": 5.2745088007,
			"0.009": 6.23722525623,
			"0.01": 10.3948181048,
			"0.011": 4.92633085684,
			"0.012": 0.169705648432,
			"0.013": 0.0,
			"0.014": 0.0,
			"0.015": 0.0,
			"0.016": 0.0,
			"0.017": 0.0,
			"0.018": 0.0,
			"0.019": 0.0,
			"0.02": 0.0,
			"0.021": 0.0,
			"0.022": 0.0,
			"0.023": 0.0,
			"0.024": 0.0,
			"0.025": 0.0
		}
	}
}
