{
	 "smiles": "ClC1=CC2=C(NC(=N2)C2CCCN2)C=C1", 
	 "Tm": 398.15, 
	 "num_atms": 27, 
	 "gaussian": { 
		 "optdone": 1, 
		 "sigma_profile": "yes", 
		 "theory": "DFT", 
		 "functional": "B3LYP", 
		 "basiset": "6-31G**", 
		 "properties": { 
			 "R2extent": 6196.8193, 
			 "electric_dipole_moment_norm": 6.34167493175, 
			 "electric_quadrupole_moment_norm": 15.7190843649, 
			 "total_energy": -1050.86536838, 
			 "HOMO_LUMO_gap": 0.20156, 
			 "cosmo_polarized_energy": -12.31, 
			 "cosmo_cavitation_energy": 31.39, 
			 "cosmo_dispersion_energy": -23.6, 
			 "cosmo_repulsion_energy": 1.86, 
			 "cosmo_total_nonelectrostatic_energy": 9.65, 
			 "SMD_solvation_energy": 1.25 
		},
		"coords": [
			{
				"x": -0.3555126085,
				"y": 4.1652411571,
				"z": -5.1410498345,
				"element": "Cl" 
			},
			{
				"x": -0.6971306739,
				"y": 3.0815704865,
				"z": -3.7899481163,
				"element": "C" 
			},
			{
				"x": 0.1450495432,
				"y": 3.097899304,
				"z": -2.685476502,
				"element": "C" 
			},
			{
				"x": -0.1611268182,
				"y": 2.2229613682,
				"z": -1.6350821711,
				"element": "C" 
			},
			{
				"x": -1.291816861,
				"y": 1.3697682116,
				"z": -1.7292033028,
				"element": "C" 
			},
			{
				"x": -1.2849214379,
				"y": 0.6634666939,
				"z": -0.5421999796,
				"element": "N" 
			},
			{
				"x": -0.2055270652,
				"y": 1.0985738937,
				"z": 0.1826218391,
				"element": "C" 
			},
			{
				"x": 0.4944573575,
				"y": 2.0285721206,
				"z": -0.4283709943,
				"element": "N" 
			},
			{
				"x": 0.0867632722,
				"y": 0.5212311881,
				"z": 1.5477207772,
				"element": "C" 
			},
			{
				"x": 1.4501626674,
				"y": -0.2157794239,
				"z": 1.5969819004,
				"element": "C" 
			},
			{
				"x": 1.0574291361,
				"y": -1.6868793906,
				"z": 1.3955642942,
				"element": "C" 
			},
			{
				"x": -0.2516060602,
				"y": -1.7845495856,
				"z": 2.1856114366,
				"element": "C" 
			},
			{
				"x": -0.9314578361,
				"y": -0.5051719074,
				"z": 1.8901384243,
				"element": "N" 
			},
			{
				"x": -2.1302122957,
				"y": 1.3625093952,
				"z": -2.8442660133,
				"element": "C" 
			},
			{
				"x": -1.8181139325,
				"y": 2.2356820232,
				"z": -3.8832761173,
				"element": "C" 
			},
			{
				"x": 1.0034051557,
				"y": 3.7569785336,
				"z": -2.6328534902,
				"element": "H" 
			},
			{
				"x": -1.9058727795,
				"y": -0.0530628789,
				"z": -0.1928105093,
				"element": "H" 
			},
			{
				"x": 0.0818596585,
				"y": 1.3540850158,
				"z": 2.2616412072,
				"element": "H" 
			},
			{
				"x": 1.9021907574,
				"y": -0.0812565781,
				"z": 2.5859354632,
				"element": "H" 
			},
			{
				"x": 2.1458277283,
				"y": 0.1715648694,
				"z": 0.8503925841,
				"element": "H" 
			},
			{
				"x": 1.8159212432,
				"y": -2.3902407514,
				"z": 1.7491340366,
				"element": "H" 
			},
			{
				"x": 0.8741291531,
				"y": -1.8923163923,
				"z": 0.3347992812,
				"element": "H" 
			},
			{
				"x": -0.8748361271,
				"y": -2.6321855082,
				"z": 1.8797337542,
				"element": "H" 
			},
			{
				"x": -0.0323734763,
				"y": -1.9032211261,
				"z": 3.2586043169,
				"element": "H" 
			},
			{
				"x": -1.5148070974,
				"y": -0.2038484537,
				"z": 2.6623643817,
				"element": "H" 
			},
			{
				"x": -2.9938926552,
				"y": 0.7083336809,
				"z": -2.9121796611,
				"element": "H" 
			},
			{
				"x": -2.4368879479,
				"y": 2.2706740546,
				"z": -4.7725270051,
				"element": "H" 
			}
		],
		 "valence_orbital": [ 
			{
				"type": "occ",
				"energy": -0.29892,
				"method": "rhf"
			},
			{
				"type": "occ",
				"energy": -0.26915,
				"method": "rhf"
			},
			{
				"type": "occ",
				"energy": -0.2454,
				"method": "rhf"
			},
			{
				"type": "occ",
				"energy": -0.22269,
				"method": "rhf"
			},
			{
				"type": "occ",
				"energy": -0.21761,
				"method": "rhf"
			},
			{
				"type": "unocc",
				"energy": -0.01605,
				"method": "rhf"
			},
			{
				"type": "unocc",
				"energy": 0.02005,
				"method": "rhf"
			},
			{
				"type": "unocc",
				"energy": 0.04195,
				"method": "rhf"
			},
			{
				"type": "unocc",
				"energy": 0.04713,
				"method": "rhf"
			},
			{
				"type": "unocc",
				"energy": 0.06672,
				"method": "rhf"
			}
		],
		"cosmo_sigma_profile": { 
			"-0.025": 0.0,
			"-0.024": 0.0,
			"-0.023": 0.0,
			"-0.022": 0.0,
			"-0.021": 0.0,
			"-0.02": 0.0,
			"-0.019": 0.0,
			"-0.018": 0.0,
			"-0.017": 0.0,
			"-0.016": 0.0,
			"-0.015": 0.00287390846417,
			"-0.014": 0.383591657547,
			"-0.013": 0.756068534257,
			"-0.012": 0.894995853211,
			"-0.011": 1.64134885426,
			"-0.01": 2.30703231317,
			"-0.009": 2.66403653244,
			"-0.008": 2.14351165863,
			"-0.007": 6.11781649618,
			"-0.006": 9.33433140449,
			"-0.005": 9.88981812646,
			"-0.004": 12.8273113026,
			"-0.003": 22.3541116504,
			"-0.002": 25.03623805,
			"-0.001": 24.2669062479,
			"0.0": 21.9613490648,
			"0.001": 16.8292424488,
			"0.002": 15.0168476127,
			"0.003": 21.255699538,
			"0.004": 21.2959436317,
			"0.005": 15.9959768096,
			"0.006": 5.26021081585,
			"0.007": 2.22902256774,
			"0.008": 1.88725023184,
			"0.009": 0.959605353192,
			"0.01": 0.62901680844,
			"0.011": 1.31421874821,
			"0.012": 1.10464986083,
			"0.013": 0.73623434001,
			"0.014": 0.92585214286,
			"0.015": 0.932042224373,
			"0.016": 0.651492438689,
			"0.017": 0.855745811243,
			"0.018": 0.408756618207,
			"0.019": 0.0,
			"0.02": 0.0,
			"0.021": 0.0,
			"0.022": 0.0,
			"0.023": 0.0,
			"0.024": 0.0,
			"0.025": 0.0
		}
	}
}
