{
	 "smiles": "ClC1=CC=C(C=CC(=O)C2=CC3=C(C=CC=C3)C=C2)C=C1Cl", 
	 "Tm": 426.5, 
	 "num_atms": 34, 
	 "gaussian": { 
		 "optdone": 1, 
		 "sigma_profile": "yes", 
		 "theory": "DFT", 
		 "functional": "B3LYP", 
		 "basiset": "6-31G**", 
		 "properties": { 
			 "R2extent": 9561.505, 
			 "electric_dipole_moment_norm": 2.65658885227, 
			 "electric_quadrupole_moment_norm": 19.8694544122, 
			 "total_energy": -1726.85248105, 
			 "HOMO_LUMO_gap": 0.15255, 
			 "cosmo_polarized_energy": -11.51, 
			 "cosmo_cavitation_energy": 42.51, 
			 "cosmo_dispersion_energy": -29.14, 
			 "cosmo_repulsion_energy": 2.24, 
			 "cosmo_total_nonelectrostatic_energy": 15.61, 
			 "SMD_solvation_energy": 6.7 
		},
		"coords": [
			{
				"x": -1.3079065157,
				"y": -1.0936914144,
				"z": -5.3195442884,
				"element": "Cl" 
			},
			{
				"x": -1.7963787578,
				"y": -1.2833450425,
				"z": -3.6556289348,
				"element": "C" 
			},
			{
				"x": -2.1666066224,
				"y": -0.1511330346,
				"z": -2.9245226846,
				"element": "C" 
			},
			{
				"x": -2.562493406,
				"y": -0.2632526003,
				"z": -1.5972042004,
				"element": "C" 
			},
			{
				"x": -2.5910104062,
				"y": -1.5162894968,
				"z": -0.9597748734,
				"element": "C" 
			},
			{
				"x": -3.0057053966,
				"y": -1.7004539835,
				"z": 0.4410902876,
				"element": "C" 
			},
			{
				"x": -2.9227559453,
				"y": -0.8318699223,
				"z": 1.4640231536,
				"element": "C" 
			},
			{
				"x": -2.3895009917,
				"y": 0.5739799569,
				"z": 1.4680575192,
				"element": "C" 
			},
			{
				"x": -3.1650977857,
				"y": 1.4900934617,
				"z": 1.7200252818,
				"element": "O" 
			},
			{
				"x": -0.9365976706,
				"y": 0.8325628198,
				"z": 1.2456592851,
				"element": "C" 
			},
			{
				"x": -0.0081422537,
				"y": -0.1876519045,
				"z": 1.1337404861,
				"element": "C" 
			},
			{
				"x": 1.3705971536,
				"y": 0.0921805522,
				"z": 0.9541884499,
				"element": "C" 
			},
			{
				"x": 1.7989532083,
				"y": 1.4586608282,
				"z": 0.8893948548,
				"element": "C" 
			},
			{
				"x": 3.1787213951,
				"y": 1.7349952396,
				"z": 0.7071188701,
				"element": "C" 
			},
			{
				"x": 4.0933686259,
				"y": 0.7103600063,
				"z": 0.5945486888,
				"element": "C" 
			},
			{
				"x": 3.6709819673,
				"y": -0.6400955012,
				"z": 0.6593595569,
				"element": "C" 
			},
			{
				"x": 2.3392897998,
				"y": -0.9413235763,
				"z": 0.8359191457,
				"element": "C" 
			},
			{
				"x": 0.8234999014,
				"y": 2.489090294,
				"z": 1.013662716,
				"element": "C" 
			},
			{
				"x": -0.5027101062,
				"y": 2.1889102,
				"z": 1.1909621755,
				"element": "C" 
			},
			{
				"x": -2.2442183002,
				"y": -2.6498553417,
				"z": -1.7113161703,
				"element": "C" 
			},
			{
				"x": -1.8414137519,
				"y": -2.5420671444,
				"z": -3.0410996867,
				"element": "C" 
			},
			{
				"x": -1.407711142,
				"y": -3.9966141369,
				"z": -3.9070105116,
				"element": "Cl" 
			},
			{
				"x": -2.1509105088,
				"y": 0.8167631001,
				"z": -3.4130196159,
				"element": "H" 
			},
			{
				"x": -2.8806585414,
				"y": 0.625971207,
				"z": -1.0654261873,
				"element": "H" 
			},
			{
				"x": -3.4512673311,
				"y": -2.6711560368,
				"z": 0.6561074488,
				"element": "H" 
			},
			{
				"x": -3.3727926434,
				"y": -1.1179094192,
				"z": 2.412961354,
				"element": "H" 
			},
			{
				"x": -0.3290188295,
				"y": -1.2231219969,
				"z": 1.1882851488,
				"element": "H" 
			},
			{
				"x": 3.5036380063,
				"y": 2.7709408899,
				"z": 0.6577448401,
				"element": "H" 
			},
			{
				"x": 5.1466656789,
				"y": 0.9357793726,
				"z": 0.4550159338,
				"element": "H" 
			},
			{
				"x": 4.4031758705,
				"y": -1.4368257033,
				"z": 0.5682462076,
				"element": "H" 
			},
			{
				"x": 2.0093954701,
				"y": -1.9757752445,
				"z": 0.8848429992,
				"element": "H" 
			},
			{
				"x": 1.1504427184,
				"y": 3.5247672771,
				"z": 0.968177396,
				"element": "H" 
			},
			{
				"x": -1.2516964871,
				"y": 2.9662756238,
				"z": 1.2954674853,
				"element": "H" 
			},
			{
				"x": -2.276336402,
				"y": -3.6341993292,
				"z": -1.2557521313,
				"element": "H" 
			}
		],
		 "valence_orbital": [ 
			{
				"type": "occ",
				"energy": -0.26566,
				"method": "rhf"
			},
			{
				"type": "occ",
				"energy": -0.2597,
				"method": "rhf"
			},
			{
				"type": "occ",
				"energy": -0.25258,
				"method": "rhf"
			},
			{
				"type": "occ",
				"energy": -0.23934,
				"method": "rhf"
			},
			{
				"type": "occ",
				"energy": -0.22721,
				"method": "rhf"
			},
			{
				"type": "unocc",
				"energy": -0.07466,
				"method": "rhf"
			},
			{
				"type": "unocc",
				"energy": -0.05528,
				"method": "rhf"
			},
			{
				"type": "unocc",
				"energy": -0.03597,
				"method": "rhf"
			},
			{
				"type": "unocc",
				"energy": -0.02614,
				"method": "rhf"
			},
			{
				"type": "unocc",
				"energy": -0.00058,
				"method": "rhf"
			}
		],
		"cosmo_sigma_profile": { 
			"-0.025": 0.0,
			"-0.024": 0.0,
			"-0.023": 0.0,
			"-0.022": 0.0,
			"-0.021": 0.0,
			"-0.02": 0.0,
			"-0.019": 0.0,
			"-0.018": 0.0,
			"-0.017": 0.0,
			"-0.016": 0.0,
			"-0.015": 0.0,
			"-0.014": 0.0,
			"-0.013": 0.0,
			"-0.012": 0.0,
			"-0.011": 0.0,
			"-0.01": 0.0,
			"-0.009": 0.211077518582,
			"-0.008": 5.13754416505,
			"-0.007": 11.653465057,
			"-0.006": 21.628698301,
			"-0.005": 20.4741198026,
			"-0.004": 21.8834664297,
			"-0.003": 20.6440257447,
			"-0.002": 22.0111578931,
			"-0.001": 22.6191123491,
			"0.0": 29.3563325533,
			"0.001": 36.6307264523,
			"0.002": 35.1931728079,
			"0.003": 41.0727406822,
			"0.004": 32.1713576385,
			"0.005": 9.04295861145,
			"0.006": 2.04506219698,
			"0.007": 1.74061582048,
			"0.008": 1.54256040124,
			"0.009": 1.78245356514,
			"0.01": 1.7305873674,
			"0.011": 3.37988457219,
			"0.012": 3.57130470673,
			"0.013": 1.23999579407,
			"0.014": 0.0379063121401,
			"0.015": 0.0,
			"0.016": 0.0,
			"0.017": 0.0,
			"0.018": 0.0,
			"0.019": 0.0,
			"0.02": 0.0,
			"0.021": 0.0,
			"0.022": 0.0,
			"0.023": 0.0,
			"0.024": 0.0,
			"0.025": 0.0
		}
	}
}
