{
	 "smiles": "ClC1=CC=C2C=CC=CC2=C1Cl", 
	 "Tm": 309.15, 
	 "num_atms": 18, 
	 "gaussian": { 
		 "optdone": 1, 
		 "sigma_profile": "yes", 
		 "theory": "DFT", 
		 "functional": "B3LYP", 
		 "basiset": "6-31G**", 
		 "properties": { 
			 "R2extent": 3377.2729, 
			 "electric_dipole_moment_norm": 2.96372862624, 
			 "electric_quadrupole_moment_norm": 7.97051188005, 
			 "total_energy": -1305.07263418, 
			 "HOMO_LUMO_gap": 0.17044, 
			 "cosmo_polarized_energy": -4.86, 
			 "cosmo_cavitation_energy": 25.14, 
			 "cosmo_dispersion_energy": -19.2, 
			 "cosmo_repulsion_energy": 1.49, 
			 "cosmo_total_nonelectrostatic_energy": 7.43, 
			 "SMD_solvation_energy": 3.52 
		},
		"coords": [
			{
				"x": -0.3035698445,
				"y": 0.3062656569,
				"z": -4.4310168033,
				"element": "Cl" 
			},
			{
				"x": -0.243264239,
				"y": 0.2253338191,
				"z": -2.6863158857,
				"element": "C" 
			},
			{
				"x": -0.8502466781,
				"y": 1.2796158942,
				"z": -1.9613227412,
				"element": "C" 
			},
			{
				"x": -0.8349529379,
				"y": 1.2712510498,
				"z": -0.5898298427,
				"element": "C" 
			},
			{
				"x": -0.2158233359,
				"y": 0.2149619951,
				"z": 0.1277050762,
				"element": "C" 
			},
			{
				"x": -0.1933886972,
				"y": 0.1949041688,
				"z": 1.5472592101,
				"element": "C" 
			},
			{
				"x": 0.4096719932,
				"y": -0.8341058038,
				"z": 2.2327635723,
				"element": "C" 
			},
			{
				"x": 1.0193787266,
				"y": -1.8928155442,
				"z": 1.5201684685,
				"element": "C" 
			},
			{
				"x": 1.0175439223,
				"y": -1.9076680953,
				"z": 0.1429992111,
				"element": "C" 
			},
			{
				"x": 0.4033271786,
				"y": -0.8601731304,
				"z": -0.5948116174,
				"element": "C" 
			},
			{
				"x": 0.3703668103,
				"y": -0.8221952968,
				"z": -2.0244550003,
				"element": "C" 
			},
			{
				"x": 1.1169441754,
				"y": -2.1191396833,
				"z": -2.9311226512,
				"element": "Cl" 
			},
			{
				"x": -1.3221323571,
				"y": 2.0846449529,
				"z": -2.5130366637,
				"element": "H" 
			},
			{
				"x": -1.3014805299,
				"y": 2.0815204445,
				"z": -0.0369016031,
				"element": "H" 
			},
			{
				"x": -0.6653563452,
				"y": 1.0142551822,
				"z": 2.0829505684,
				"element": "H" 
			},
			{
				"x": 0.4190995196,
				"y": -0.8361371071,
				"z": 3.318517572,
				"element": "H" 
			},
			{
				"x": 1.4946899582,
				"y": -2.7037841233,
				"z": 2.0639879176,
				"element": "H" 
			},
			{
				"x": 1.4873926806,
				"y": -2.7233343794,
				"z": -0.3929387878,
				"element": "H" 
			}
		],
		 "valence_orbital": [ 
			{
				"type": "occ",
				"energy": -0.3194,
				"method": "rhf"
			},
			{
				"type": "occ",
				"energy": -0.30714,
				"method": "rhf"
			},
			{
				"type": "occ",
				"energy": -0.28323,
				"method": "rhf"
			},
			{
				"type": "occ",
				"energy": -0.25298,
				"method": "rhf"
			},
			{
				"type": "occ",
				"energy": -0.2261,
				"method": "rhf"
			},
			{
				"type": "unocc",
				"energy": -0.05566,
				"method": "rhf"
			},
			{
				"type": "unocc",
				"energy": -0.02639,
				"method": "rhf"
			},
			{
				"type": "unocc",
				"energy": 0.00419,
				"method": "rhf"
			},
			{
				"type": "unocc",
				"energy": 0.01754,
				"method": "rhf"
			},
			{
				"type": "unocc",
				"energy": 0.06175,
				"method": "rhf"
			}
		],
		"cosmo_sigma_profile": { 
			"-0.025": 0.0,
			"-0.024": 0.0,
			"-0.023": 0.0,
			"-0.022": 0.0,
			"-0.021": 0.0,
			"-0.02": 0.0,
			"-0.019": 0.0,
			"-0.018": 0.0,
			"-0.017": 0.0,
			"-0.016": 0.0,
			"-0.015": 0.0,
			"-0.014": 0.0,
			"-0.013": 0.0,
			"-0.012": 0.0,
			"-0.011": 0.0,
			"-0.01": 0.0,
			"-0.009": 0.0,
			"-0.008": 0.991604745406,
			"-0.007": 6.981131143,
			"-0.006": 11.164380128,
			"-0.005": 11.7198437892,
			"-0.004": 11.0327639488,
			"-0.003": 10.5903513093,
			"-0.002": 11.2826084226,
			"-0.001": 11.0981375244,
			"0.0": 20.286169881,
			"0.001": 28.302620436,
			"0.002": 27.0038933647,
			"0.003": 26.0268000733,
			"0.004": 23.3262376191,
			"0.005": 6.53216127392,
			"0.006": 0.831494987327,
			"0.007": 0.0,
			"0.008": 0.0,
			"0.009": 0.0,
			"0.01": 0.0,
			"0.011": 0.0,
			"0.012": 0.0,
			"0.013": 0.0,
			"0.014": 0.0,
			"0.015": 0.0,
			"0.016": 0.0,
			"0.017": 0.0,
			"0.018": 0.0,
			"0.019": 0.0,
			"0.02": 0.0,
			"0.021": 0.0,
			"0.022": 0.0,
			"0.023": 0.0,
			"0.024": 0.0,
			"0.025": 0.0
		}
	}
}
