{
	 "smiles": "CC12CCC(=O)C=C1CCCC2=O", 
	 "Tm": 321.65, 
	 "num_atms": 27, 
	 "gaussian": { 
		 "optdone": 1, 
		 "sigma_profile": "yes", 
		 "theory": "DFT", 
		 "functional": "B3LYP", 
		 "basiset": "6-31G**", 
		 "properties": { 
			 "R2extent": 2229.5902, 
			 "electric_dipole_moment_norm": 4.28062713513, 
			 "electric_quadrupole_moment_norm": 14.5349228003, 
			 "total_energy": -578.048927399, 
			 "HOMO_LUMO_gap": 0.18347, 
			 "cosmo_polarized_energy": -13.08, 
			 "cosmo_cavitation_energy": 27.68, 
			 "cosmo_dispersion_energy": -20.04, 
			 "cosmo_repulsion_energy": 1.57, 
			 "cosmo_total_nonelectrostatic_energy": 9.2, 
			 "SMD_solvation_energy": 5.29 
		},
		"coords": [
			{
				"x": -2.1615140095,
				"y": 0.6276548005,
				"z": 0.4396094905,
				"element": "C" 
			},
			{
				"x": -0.7755089098,
				"y": -0.080120356,
				"z": 0.4206469244,
				"element": "C" 
			},
			{
				"x": -0.9773034939,
				"y": -1.4907338019,
				"z": -0.1722725033,
				"element": "C" 
			},
			{
				"x": 0.3233885373,
				"y": -2.1559627658,
				"z": -0.6305086174,
				"element": "C" 
			},
			{
				"x": 1.1140907255,
				"y": -1.2604819846,
				"z": -1.5718060329,
				"element": "C" 
			},
			{
				"x": 1.8029717786,
				"y": -1.7032442334,
				"z": -2.479968175,
				"element": "O" 
			},
			{
				"x": 1.0750946756,
				"y": 0.1837222031,
				"z": -1.2615159673,
				"element": "C" 
			},
			{
				"x": 0.2596916861,
				"y": 0.7338956784,
				"z": -0.3388353392,
				"element": "C" 
			},
			{
				"x": 0.4143512508,
				"y": 2.1728373427,
				"z": 0.0984378643,
				"element": "C" 
			},
			{
				"x": 0.4138985699,
				"y": 2.2970893146,
				"z": 1.6539008811,
				"element": "C" 
			},
			{
				"x": 0.6464805794,
				"y": 0.9487081856,
				"z": 2.3583760324,
				"element": "C" 
			},
			{
				"x": -0.3071913245,
				"y": -0.1505758679,
				"z": 1.9025326842,
				"element": "C" 
			},
			{
				"x": -0.6869234346,
				"y": -1.0317134606,
				"z": 2.6468139092,
				"element": "O" 
			},
			{
				"x": -2.8773940706,
				"y": -0.0062617515,
				"z": 0.9702944513,
				"element": "H" 
			},
			{
				"x": -2.5189308066,
				"y": 0.7743183958,
				"z": -0.5843298133,
				"element": "H" 
			},
			{
				"x": -2.1451068573,
				"y": 1.6005593669,
				"z": 0.9364528385,
				"element": "H" 
			},
			{
				"x": -1.4817010654,
				"y": -2.1072580082,
				"z": 0.5765012721,
				"element": "H" 
			},
			{
				"x": -1.6521694983,
				"y": -1.4034930718,
				"z": -1.0324451496,
				"element": "H" 
			},
			{
				"x": 0.1383162033,
				"y": -3.1116901293,
				"z": -1.1280615823,
				"element": "H" 
			},
			{
				"x": 0.965749923,
				"y": -2.3674250945,
				"z": 0.2366329816,
				"element": "H" 
			},
			{
				"x": 1.8052706057,
				"y": 0.7926938158,
				"z": -1.790302823,
				"element": "H" 
			},
			{
				"x": 1.3421095517,
				"y": 2.5736680831,
				"z": -0.3195948317,
				"element": "H" 
			},
			{
				"x": -0.3998033902,
				"y": 2.782935748,
				"z": -0.3126569519,
				"element": "H" 
			},
			{
				"x": 1.1892582864,
				"y": 3.003823796,
				"z": 1.9643324384,
				"element": "H" 
			},
			{
				"x": -0.5351094896,
				"y": 2.7193321324,
				"z": 1.9999296839,
				"element": "H" 
			},
			{
				"x": 1.6595595884,
				"y": 0.5860720388,
				"z": 2.1292774038,
				"element": "H" 
			},
			{
				"x": 0.5791243886,
				"y": 1.0336496238,
				"z": 3.4461589312,
				"element": "H" 
			}
		],
		 "valence_orbital": [ 
			{
				"type": "occ",
				"energy": -0.33471,
				"method": "rhf"
			},
			{
				"type": "occ",
				"energy": -0.32474,
				"method": "rhf"
			},
			{
				"type": "occ",
				"energy": -0.27822,
				"method": "rhf"
			},
			{
				"type": "occ",
				"energy": -0.24304,
				"method": "rhf"
			},
			{
				"type": "occ",
				"energy": -0.23553,
				"method": "rhf"
			},
			{
				"type": "unocc",
				"energy": -0.05206,
				"method": "rhf"
			},
			{
				"type": "unocc",
				"energy": -0.02506,
				"method": "rhf"
			},
			{
				"type": "unocc",
				"energy": 0.0569,
				"method": "rhf"
			},
			{
				"type": "unocc",
				"energy": 0.06725,
				"method": "rhf"
			},
			{
				"type": "unocc",
				"energy": 0.09449,
				"method": "rhf"
			}
		],
		"cosmo_sigma_profile": { 
			"-0.025": 0.0,
			"-0.024": 0.0,
			"-0.023": 0.0,
			"-0.022": 0.0,
			"-0.021": 0.0,
			"-0.02": 0.0,
			"-0.019": 0.0,
			"-0.018": 0.0,
			"-0.017": 0.0,
			"-0.016": 0.0,
			"-0.015": 0.0,
			"-0.014": 0.0,
			"-0.013": 0.0,
			"-0.012": 0.0,
			"-0.011": 0.0,
			"-0.01": 0.0,
			"-0.009": 0.0,
			"-0.008": 0.0,
			"-0.007": 1.13997629631,
			"-0.006": 8.27770065201,
			"-0.005": 18.2270191606,
			"-0.004": 29.0028760886,
			"-0.003": 31.590752753,
			"-0.002": 28.3309561982,
			"-0.001": 26.3416156584,
			"0.0": 12.4116679378,
			"0.001": 6.83876494438,
			"0.002": 5.71744983512,
			"0.003": 4.61432955994,
			"0.004": 4.1421607416,
			"0.005": 2.54248808952,
			"0.006": 3.22355994173,
			"0.007": 3.21058757777,
			"0.008": 2.89907875934,
			"0.009": 2.69116228536,
			"0.01": 3.96748005949,
			"0.011": 6.08193947658,
			"0.012": 6.70272954778,
			"0.013": 5.54962155747,
			"0.014": 2.24177264417,
			"0.015": 0.0903595167595,
			"0.016": 0.0,
			"0.017": 0.0,
			"0.018": 0.0,
			"0.019": 0.0,
			"0.02": 0.0,
			"0.021": 0.0,
			"0.022": 0.0,
			"0.023": 0.0,
			"0.024": 0.0,
			"0.025": 0.0
		}
	}
}
