{
	 "smiles": "CC(=O)OC1=C2C=CC(=CC2=NC1=C1C=CC(C=C1)=C1N=C2C=C(C=CC2=C1OC(C)=O)[N+]([O-])=O)[N+]([O-])=O", 
	 "Tm": 553.15, 
	 "num_atms": 54, 
	 "gaussian": { 
		 "optdone": 1, 
		 "sigma_profile": "yes", 
		 "theory": "DFT", 
		 "functional": "B3LYP", 
		 "basiset": "6-31G**", 
		 "properties": { 
			 "R2extent": 34244.0359, 
			 "electric_dipole_moment_norm": 11.5650364197, 
			 "electric_quadrupole_moment_norm": 93.0120206803, 
			 "total_energy": -1820.94004128, 
			 "HOMO_LUMO_gap": 0.03938, 
			 "cosmo_polarized_energy": -29.04, 
			 "cosmo_cavitation_energy": 63.03, 
			 "cosmo_dispersion_energy": -43.74, 
			 "cosmo_repulsion_energy": 3.16, 
			 "cosmo_total_nonelectrostatic_energy": 22.45, 
			 "SMD_solvation_energy": 14.09 
		},
		"coords": [
			{
				"x": -3.6608045346,
				"y": -0.3152793872,
				"z": -4.9925886054,
				"element": "C" 
			},
			{
				"x": -4.0776566245,
				"y": 0.5805828079,
				"z": -3.8571282021,
				"element": "C" 
			},
			{
				"x": -4.7648073438,
				"y": 1.5629156442,
				"z": -3.9263536467,
				"element": "O" 
			},
			{
				"x": -3.5289888288,
				"y": 0.1060331695,
				"z": -2.6711564924,
				"element": "O" 
			},
			{
				"x": -3.7590947165,
				"y": 0.7116733771,
				"z": -1.4655074816,
				"element": "C" 
			},
			{
				"x": -4.9074850842,
				"y": 1.2555798352,
				"z": -0.9263585085,
				"element": "C" 
			},
			{
				"x": -6.2622699197,
				"y": 1.4498527795,
				"z": -1.3493013756,
				"element": "C" 
			},
			{
				"x": -7.1521392076,
				"y": 2.0097287809,
				"z": -0.4772142433,
				"element": "C" 
			},
			{
				"x": -6.7211292539,
				"y": 2.3980455908,
				"z": 0.8335044485,
				"element": "C" 
			},
			{
				"x": -5.4394512463,
				"y": 2.2442851463,
				"z": 1.3008723435,
				"element": "C" 
			},
			{
				"x": -4.4975277248,
				"y": 1.6581463362,
				"z": 0.4221540258,
				"element": "C" 
			},
			{
				"x": -3.2102350992,
				"y": 1.3974471438,
				"z": 0.6988518084,
				"element": "N" 
			},
			{
				"x": -2.7097963334,
				"y": 0.8121448891,
				"z": -0.4219144523,
				"element": "C" 
			},
			{
				"x": -1.3573898138,
				"y": 0.4008412497,
				"z": -0.4794344181,
				"element": "C" 
			},
			{
				"x": -0.5162681848,
				"y": 0.6584774388,
				"z": 0.657391947,
				"element": "C" 
			},
			{
				"x": 0.7968534846,
				"y": 0.2906734203,
				"z": 0.6625417333,
				"element": "C" 
			},
			{
				"x": 1.3899934903,
				"y": -0.3686666894,
				"z": -0.4686805783,
				"element": "C" 
			},
			{
				"x": 0.5484892242,
				"y": -0.6376226799,
				"z": -1.5969658018,
				"element": "C" 
			},
			{
				"x": -0.769878022,
				"y": -0.2684578628,
				"z": -1.6021020751,
				"element": "C" 
			},
			{
				"x": 2.7587353352,
				"y": -0.7199002747,
				"z": -0.4004241206,
				"element": "C" 
			},
			{
				"x": 3.4821498594,
				"y": -0.4778247058,
				"z": 0.7252517205,
				"element": "N" 
			},
			{
				"x": 4.7193955686,
				"y": -0.924780738,
				"z": 0.4585753739,
				"element": "C" 
			},
			{
				"x": 5.8221792274,
				"y": -0.9118633889,
				"z": 1.345488673,
				"element": "C" 
			},
			{
				"x": 7.0004518939,
				"y": -1.4476884592,
				"z": 0.8879674816,
				"element": "C" 
			},
			{
				"x": 7.1764951176,
				"y": -2.0062256627,
				"z": -0.4203012499,
				"element": "C" 
			},
			{
				"x": 6.1318028786,
				"y": -2.023649447,
				"z": -1.3001814462,
				"element": "C" 
			},
			{
				"x": 4.8703647681,
				"y": -1.4844286115,
				"z": -0.8877671672,
				"element": "C" 
			},
			{
				"x": 3.6106386368,
				"y": -1.3530996844,
				"z": -1.4365818447,
				"element": "C" 
			},
			{
				"x": 3.1081180767,
				"y": -1.7529112408,
				"z": -2.6452981242,
				"element": "O" 
			},
			{
				"x": 3.8325674579,
				"y": -1.6356301756,
				"z": -3.8260567546,
				"element": "C" 
			},
			{
				"x": 3.019175288,
				"y": -2.1863791037,
				"z": -4.966515867,
				"element": "C" 
			},
			{
				"x": 4.930991837,
				"y": -1.1544022099,
				"z": -3.887962853,
				"element": "O" 
			},
			{
				"x": 8.161993781,
				"y": -1.4510086275,
				"z": 1.7966372522,
				"element": "N" 
			},
			{
				"x": 9.208413483,
				"y": -1.9454603485,
				"z": 1.3754022345,
				"element": "O" 
			},
			{
				"x": 8.0180288489,
				"y": -0.9632397636,
				"z": 2.9167135546,
				"element": "O" 
			},
			{
				"x": -7.7218841458,
				"y": 3.0006960221,
				"z": 1.7335961299,
				"element": "N" 
			},
			{
				"x": -8.8697300101,
				"y": 3.1211731235,
				"z": 1.3036647793,
				"element": "O" 
			},
			{
				"x": -7.3536896736,
				"y": 3.3448343693,
				"z": 2.8557426659,
				"element": "O" 
			},
			{
				"x": -3.9384408426,
				"y": -1.3512604545,
				"z": -4.7790299072,
				"element": "H" 
			},
			{
				"x": -2.5736045259,
				"y": -0.2830431285,
				"z": -5.1150180327,
				"element": "H" 
			},
			{
				"x": -4.141987221,
				"y": 0.0223642183,
				"z": -5.9095308726,
				"element": "H" 
			},
			{
				"x": -6.5724928528,
				"y": 1.1751622793,
				"z": -2.3487298653,
				"element": "H" 
			},
			{
				"x": -8.1855321188,
				"y": 2.1807047007,
				"z": -0.746708455,
				"element": "H" 
			},
			{
				"x": -5.1629530504,
				"y": 2.5531142371,
				"z": 2.300482915,
				"element": "H" 
			},
			{
				"x": -0.9668861366,
				"y": 1.1570428552,
				"z": 1.507066955,
				"element": "H" 
			},
			{
				"x": 1.4346826057,
				"y": 0.4842896471,
				"z": 1.5165091733,
				"element": "H" 
			},
			{
				"x": 0.9636593048,
				"y": -1.1535210563,
				"z": -2.4514349717,
				"element": "H" 
			},
			{
				"x": -1.3863856771,
				"y": -0.4956011553,
				"z": -2.4605765353,
				"element": "H" 
			},
			{
				"x": 5.7390608924,
				"y": -0.5022607277,
				"z": 2.3436705229,
				"element": "H" 
			},
			{
				"x": 8.1501191979,
				"y": -2.3979808068,
				"z": -0.681723103,
				"element": "H" 
			},
			{
				"x": 6.2614676894,
				"y": -2.4216341006,
				"z": -2.2978501935,
				"element": "H" 
			},
			{
				"x": 2.1076565818,
				"y": -1.5945319932,
				"z": -5.0963542353,
				"element": "H" 
			},
			{
				"x": 2.7170304578,
				"y": -3.2156126634,
				"z": -4.7535493741,
				"element": "H" 
			},
			{
				"x": 3.6122932058,
				"y": -2.1491439146,
				"z": -5.8792848839,
				"element": "H" 
			}
		],
		 "valence_orbital": [ 
			{
				"type": "occ",
				"energy": -0.28482,
				"method": "rhf"
			},
			{
				"type": "occ",
				"energy": -0.2816,
				"method": "rhf"
			},
			{
				"type": "occ",
				"energy": -0.24802,
				"method": "rhf"
			},
			{
				"type": "occ",
				"energy": -0.22845,
				"method": "rhf"
			},
			{
				"type": "occ",
				"energy": -0.21843,
				"method": "rhf"
			},
			{
				"type": "unocc",
				"energy": -0.17905,
				"method": "rhf"
			},
			{
				"type": "unocc",
				"energy": -0.10005,
				"method": "rhf"
			},
			{
				"type": "unocc",
				"energy": -0.08183,
				"method": "rhf"
			},
			{
				"type": "unocc",
				"energy": -0.06846,
				"method": "rhf"
			},
			{
				"type": "unocc",
				"energy": -0.04106,
				"method": "rhf"
			}
		],
		"cosmo_sigma_profile": { 
			"-0.025": 0.0,
			"-0.024": 0.0,
			"-0.023": 0.0,
			"-0.022": 0.0,
			"-0.021": 0.0,
			"-0.02": 0.0,
			"-0.019": 0.0,
			"-0.018": 0.0,
			"-0.017": 0.0,
			"-0.016": 0.0,
			"-0.015": 0.0,
			"-0.014": 0.0,
			"-0.013": 0.0,
			"-0.012": 0.0,
			"-0.011": 0.0,
			"-0.01": 0.0,
			"-0.009": 0.0,
			"-0.008": 5.13247453803,
			"-0.007": 26.0932827847,
			"-0.006": 36.5629061143,
			"-0.005": 32.8893947882,
			"-0.004": 34.3709030024,
			"-0.003": 40.237526507,
			"-0.002": 42.2511800535,
			"-0.001": 55.4943886342,
			"0.0": 47.6128846126,
			"0.001": 31.0474977838,
			"0.002": 22.8407377252,
			"0.003": 16.0752393606,
			"0.004": 11.7069236338,
			"0.005": 13.8320702317,
			"0.006": 14.8734913418,
			"0.007": 23.5318264888,
			"0.008": 18.9830226473,
			"0.009": 16.3528306043,
			"0.01": 12.8837235537,
			"0.011": 4.46952627546,
			"0.012": 2.16833891124,
			"0.013": 0.61358820548,
			"0.014": 0.0,
			"0.015": 0.0,
			"0.016": 0.0,
			"0.017": 0.0,
			"0.018": 0.0,
			"0.019": 0.0,
			"0.02": 0.0,
			"0.021": 0.0,
			"0.022": 0.0,
			"0.023": 0.0,
			"0.024": 0.0,
			"0.025": 0.0
		}
	}
}
