{
	 "smiles": "O=C1NC(=O)C(=O)N1CC1=CC=CS1", 
	 "Tm": 444.15, 
	 "num_atms": 20, 
	 "gaussian": { 
		 "optdone": 1, 
		 "sigma_profile": "yes", 
		 "theory": "DFT", 
		 "functional": "B3LYP", 
		 "basiset": "6-31G**", 
		 "properties": { 
			 "R2extent": 3347.5902, 
			 "electric_dipole_moment_norm": 2.10264996849, 
			 "electric_quadrupole_moment_norm": 15.2485841884, 
			 "total_energy": -1041.84749238, 
			 "HOMO_LUMO_gap": 0.15204, 
			 "cosmo_polarized_energy": -16.17, 
			 "cosmo_cavitation_energy": 27.76, 
			 "cosmo_dispersion_energy": -20.04, 
			 "cosmo_repulsion_energy": 1.53, 
			 "cosmo_total_nonelectrostatic_energy": 9.25, 
			 "SMD_solvation_energy": 7.01 
		},
		"coords": [
			{
				"x": -2.464968961,
				"y": 0.8619562635,
				"z": -1.2447535438,
				"element": "O" 
			},
			{
				"x": -1.4727928191,
				"y": 0.1729718503,
				"z": -1.2074355543,
				"element": "C" 
			},
			{
				"x": -0.7304373546,
				"y": -0.297528226,
				"z": -2.2973503803,
				"element": "N" 
			},
			{
				"x": 0.3581710522,
				"y": -1.0688911869,
				"z": -1.9153224427,
				"element": "C" 
			},
			{
				"x": 1.1726685639,
				"y": -1.6112882933,
				"z": -2.618449385,
				"element": "O" 
			},
			{
				"x": 0.2848372249,
				"y": -1.0728132584,
				"z": -0.3649707564,
				"element": "C" 
			},
			{
				"x": 1.0368792622,
				"y": -1.6162613238,
				"z": 0.4084780377,
				"element": "O" 
			},
			{
				"x": -0.8409800022,
				"y": -0.3229002421,
				"z": -0.0590855791,
				"element": "N" 
			},
			{
				"x": -1.2808690482,
				"y": -0.0032756312,
				"z": 1.3059290288,
				"element": "C" 
			},
			{
				"x": -0.5880053473,
				"y": 1.1911049544,
				"z": 1.8968832145,
				"element": "C" 
			},
			{
				"x": 0.5459584381,
				"y": 1.1955316297,
				"z": 2.6681455582,
				"element": "C" 
			},
			{
				"x": 0.9630750393,
				"y": 2.5063112757,
				"z": 3.0473812936,
				"element": "C" 
			},
			{
				"x": 0.1413767099,
				"y": 3.4829595372,
				"z": 2.5548951159,
				"element": "C" 
			},
			{
				"x": -1.156414957,
				"y": 2.8190155774,
				"z": 1.618077041,
				"element": "S" 
			},
			{
				"x": -0.9845204879,
				"y": -0.0838096286,
				"z": -3.2520019808,
				"element": "H" 
			},
			{
				"x": -1.0644106855,
				"y": -0.8845440473,
				"z": 1.9142531729,
				"element": "H" 
			},
			{
				"x": -2.3630634546,
				"y": 0.1346505238,
				"z": 1.2610689978,
				"element": "H" 
			},
			{
				"x": 1.0669424417,
				"y": 0.2852790424,
				"z": 2.9443101915,
				"element": "H" 
			},
			{
				"x": 1.8335372175,
				"y": 2.7107226835,
				"z": 3.6600247422,
				"element": "H" 
			},
			{
				"x": 0.2171171676,
				"y": 4.5533084999,
				"z": 2.6884232286,
				"element": "H" 
			}
		],
		 "valence_orbital": [ 
			{
				"type": "occ",
				"energy": -0.30568,
				"method": "rhf"
			},
			{
				"type": "occ",
				"energy": -0.30095,
				"method": "rhf"
			},
			{
				"type": "occ",
				"energy": -0.28034,
				"method": "rhf"
			},
			{
				"type": "occ",
				"energy": -0.25932,
				"method": "rhf"
			},
			{
				"type": "occ",
				"energy": -0.24211,
				"method": "rhf"
			},
			{
				"type": "unocc",
				"energy": -0.09007,
				"method": "rhf"
			},
			{
				"type": "unocc",
				"energy": -0.02628,
				"method": "rhf"
			},
			{
				"type": "unocc",
				"energy": 0.0209,
				"method": "rhf"
			},
			{
				"type": "unocc",
				"energy": 0.03128,
				"method": "rhf"
			},
			{
				"type": "unocc",
				"energy": 0.05302,
				"method": "rhf"
			}
		],
		"cosmo_sigma_profile": { 
			"-0.025": 0.0,
			"-0.024": 0.0,
			"-0.023": 0.0,
			"-0.022": 0.0,
			"-0.021": 0.0,
			"-0.02": 0.0,
			"-0.019": 0.0348458690003,
			"-0.018": 1.02738794034,
			"-0.017": 1.58495967907,
			"-0.016": 0.930878331289,
			"-0.015": 1.07975195283,
			"-0.014": 0.586764110531,
			"-0.013": 0.929795745801,
			"-0.012": 1.29939689754,
			"-0.011": 0.857902600321,
			"-0.01": 2.43484141961,
			"-0.009": 3.56136214269,
			"-0.008": 5.96322329728,
			"-0.007": 11.0680310981,
			"-0.006": 13.2896932468,
			"-0.005": 17.5581871614,
			"-0.004": 14.1276959782,
			"-0.003": 10.9733973245,
			"-0.002": 9.00250620679,
			"-0.001": 8.5399883981,
			"0.0": 9.98915795169,
			"0.001": 11.4331830351,
			"0.002": 12.5577443663,
			"0.003": 16.159700356,
			"0.004": 16.3794967904,
			"0.005": 10.5180690623,
			"0.006": 4.89521969181,
			"0.007": 4.74850978271,
			"0.008": 5.81560744036,
			"0.009": 9.64505394491,
			"0.01": 13.9490376583,
			"0.011": 4.44341513892,
			"0.012": 0.0176805458583,
			"0.013": 0.0,
			"0.014": 0.0,
			"0.015": 0.0,
			"0.016": 0.0,
			"0.017": 0.0,
			"0.018": 0.0,
			"0.019": 0.0,
			"0.02": 0.0,
			"0.021": 0.0,
			"0.022": 0.0,
			"0.023": 0.0,
			"0.024": 0.0,
			"0.025": 0.0
		}
	}
}
