{
	 "smiles": "OC(=O)C1=C(Br)N=CC(Br)=C1", 
	 "Tm": 457.15, 
	 "num_atms": 14, 
	 "gaussian": { 
		 "optdone": 1, 
		 "sigma_profile": "yes", 
		 "theory": "DFT", 
		 "functional": "B3LYP", 
		 "basiset": "6-31G**", 
		 "properties": { 
			 "R2extent": 4877.4066, 
			 "electric_dipole_moment_norm": 2.85610912607, 
			 "electric_quadrupole_moment_norm": 7.63534439629, 
			 "total_energy": -5578.44781526, 
			 "HOMO_LUMO_gap": 0.18902, 
			 "cosmo_polarized_energy": -10.08, 
			 "cosmo_cavitation_energy": 23.7, 
			 "cosmo_dispersion_energy": -18.68, 
			 "cosmo_repulsion_energy": 1.48, 
			 "cosmo_total_nonelectrostatic_energy": 6.51, 
			 "SMD_solvation_energy": 1.86 
		},
		"coords": [
			{
				"x": 3.1783584975,
				"y": 0.0708349988,
				"z": 1.3769594279,
				"element": "O" 
			},
			{
				"x": 2.1364605234,
				"y": -0.105251167,
				"z": 0.5583155329,
				"element": "C" 
			},
			{
				"x": 2.2868912497,
				"y": -0.6253896642,
				"z": -0.5244415635,
				"element": "O" 
			},
			{
				"x": 0.7485825905,
				"y": 0.3518341959,
				"z": 0.9903206452,
				"element": "C" 
			},
			{
				"x": 0.3109172193,
				"y": 0.9724168053,
				"z": 2.1758383677,
				"element": "C" 
			},
			{
				"x": 1.5096379765,
				"y": 1.4094685101,
				"z": 3.6342767176,
				"element": "Br" 
			},
			{
				"x": -0.9351433392,
				"y": 1.3207198833,
				"z": 2.4266449806,
				"element": "N" 
			},
			{
				"x": -1.8750122098,
				"y": 1.0812657687,
				"z": 1.5099776901,
				"element": "C" 
			},
			{
				"x": -1.5679954764,
				"y": 0.4713797351,
				"z": 0.2940127368,
				"element": "C" 
			},
			{
				"x": -2.937215432,
				"y": 0.1500822981,
				"z": -0.9805669371,
				"element": "Br" 
			},
			{
				"x": -0.2535625507,
				"y": 0.1079221993,
				"z": 0.0379996086,
				"element": "C" 
			},
			{
				"x": 2.9195639198,
				"y": 0.4997599067,
				"z": 2.2145239487,
				"element": "H" 
			},
			{
				"x": -2.8900163637,
				"y": 1.382118074,
				"z": 1.7521184066,
				"element": "H" 
			},
			{
				"x": 0.0403333953,
				"y": -0.3685615442,
				"z": -0.8896795622,
				"element": "H" 
			}
		],
		 "valence_orbital": [ 
			{
				"type": "occ",
				"energy": -0.32054,
				"method": "rhf"
			},
			{
				"type": "occ",
				"energy": -0.31071,
				"method": "rhf"
			},
			{
				"type": "occ",
				"energy": -0.30806,
				"method": "rhf"
			},
			{
				"type": "occ",
				"energy": -0.28628,
				"method": "rhf"
			},
			{
				"type": "occ",
				"energy": -0.27512,
				"method": "rhf"
			},
			{
				"type": "unocc",
				"energy": -0.0861,
				"method": "rhf"
			},
			{
				"type": "unocc",
				"energy": -0.06361,
				"method": "rhf"
			},
			{
				"type": "unocc",
				"energy": -0.0325,
				"method": "rhf"
			},
			{
				"type": "unocc",
				"energy": -0.01751,
				"method": "rhf"
			},
			{
				"type": "unocc",
				"energy": 0.02258,
				"method": "rhf"
			}
		],
		"cosmo_sigma_profile": { 
			"-0.025": 0.0,
			"-0.024": 0.0,
			"-0.023": 0.0,
			"-0.022": 0.0,
			"-0.021": 0.0,
			"-0.02": 0.0,
			"-0.019": 0.0,
			"-0.018": 0.0,
			"-0.017": 0.0,
			"-0.016": 0.0,
			"-0.015": 0.0,
			"-0.014": 0.0,
			"-0.013": 0.0,
			"-0.012": 0.0247089272377,
			"-0.011": 0.829875957569,
			"-0.01": 1.92416491516,
			"-0.009": 3.67224785546,
			"-0.008": 4.62427557367,
			"-0.007": 6.22892352451,
			"-0.006": 8.03617159253,
			"-0.005": 11.3578983445,
			"-0.004": 13.5802826464,
			"-0.003": 19.6906400791,
			"-0.002": 18.7862560801,
			"-0.001": 11.8611327164,
			"0.0": 12.9297176489,
			"0.001": 13.1226295239,
			"0.002": 16.08256909,
			"0.003": 16.8734570598,
			"0.004": 5.76379589905,
			"0.005": 3.40865233573,
			"0.006": 3.42789646531,
			"0.007": 3.7144371872,
			"0.008": 4.45570143885,
			"0.009": 4.72764403871,
			"0.01": 5.43799015521,
			"0.011": 5.34902422057,
			"0.012": 2.42160574832,
			"0.013": 0.306254961839,
			"0.014": 0.0,
			"0.015": 0.0,
			"0.016": 0.0,
			"0.017": 0.0,
			"0.018": 0.0,
			"0.019": 0.0,
			"0.02": 0.0,
			"0.021": 0.0,
			"0.022": 0.0,
			"0.023": 0.0,
			"0.024": 0.0,
			"0.025": 0.0
		}
	}
}
