{
	 "smiles": "FC1=CC=CC(F)=C1N1CCC(Br)C1=O", 
	 "Tm": 353.15, 
	 "num_atms": 23, 
	 "gaussian": { 
		 "optdone": 1, 
		 "sigma_profile": "yes", 
		 "theory": "DFT", 
		 "functional": "B3LYP", 
		 "basiset": "6-31G**", 
		 "properties": { 
			 "R2extent": 4459.6227, 
			 "electric_dipole_moment_norm": 4.1822822382, 
			 "electric_quadrupole_moment_norm": 10.6595264445, 
			 "total_energy": -3286.94231829, 
			 "HOMO_LUMO_gap": 0.2015, 
			 "cosmo_polarized_energy": -12.81, 
			 "cosmo_cavitation_energy": 29.82, 
			 "cosmo_dispersion_energy": -21.34, 
			 "cosmo_repulsion_energy": 1.63, 
			 "cosmo_total_nonelectrostatic_energy": 10.11, 
			 "SMD_solvation_energy": 5.07 
		},
		"coords": [
			{
				"x": -2.3732862684,
				"y": 0.2673935814,
				"z": -2.8355951844,
				"element": "F" 
			},
			{
				"x": -2.3643644793,
				"y": 0.8257164101,
				"z": -1.6058409978,
				"element": "C" 
			},
			{
				"x": -3.4010101064,
				"y": 1.6721844993,
				"z": -1.2394977753,
				"element": "C" 
			},
			{
				"x": -3.3709884517,
				"y": 2.2543699666,
				"z": 0.028914389,
				"element": "C" 
			},
			{
				"x": -2.3304532659,
				"y": 1.97565598,
				"z": 0.9149410187,
				"element": "C" 
			},
			{
				"x": -1.3230071422,
				"y": 1.1030919178,
				"z": 0.5205881194,
				"element": "C" 
			},
			{
				"x": -0.3450727465,
				"y": 0.7992571471,
				"z": 1.3835938322,
				"element": "F" 
			},
			{
				"x": -1.3017779745,
				"y": 0.5104554769,
				"z": -0.7498935961,
				"element": "C" 
			},
			{
				"x": -0.2669245008,
				"y": -0.3583051332,
				"z": -1.1520552515,
				"element": "N" 
			},
			{
				"x": -0.4978167426,
				"y": -1.7501233692,
				"z": -1.5616239134,
				"element": "C" 
			},
			{
				"x": 0.8443716639,
				"y": -2.1347648986,
				"z": -2.2079269941,
				"element": "C" 
			},
			{
				"x": 1.8594859919,
				"y": -1.2693337459,
				"z": -1.4715233979,
				"element": "C" 
			},
			{
				"x": 2.4826129709,
				"y": -2.1508119019,
				"z": 0.2048539175,
				"element": "Br" 
			},
			{
				"x": 1.0732926493,
				"y": -0.0136213516,
				"z": -1.078726836,
				"element": "C" 
			},
			{
				"x": 1.5245849281,
				"y": 1.0733604939,
				"z": -0.7857448405,
				"element": "O" 
			},
			{
				"x": -4.1963947309,
				"y": 1.8731107558,
				"z": -1.9478628038,
				"element": "H" 
			},
			{
				"x": -4.1667256371,
				"y": 2.9280375728,
				"z": 0.3293789933,
				"element": "H" 
			},
			{
				"x": -2.2894274623,
				"y": 2.4092237225,
				"z": 1.9074910689,
				"element": "H" 
			},
			{
				"x": -1.3331381869,
				"y": -1.8108782663,
				"z": -2.261198178,
				"element": "H" 
			},
			{
				"x": -0.7201953185,
				"y": -2.3733025043,
				"z": -0.6863018241,
				"element": "H" 
			},
			{
				"x": 0.8422293758,
				"y": -1.834183607,
				"z": -3.2627788501,
				"element": "H" 
			},
			{
				"x": 1.055468436,
				"y": -3.2031558513,
				"z": -2.1540373947,
				"element": "H" 
			},
			{
				"x": 2.7689369979,
				"y": -1.0257768949,
				"z": -2.0143535013,
				"element": "H" 
			}
		],
		 "valence_orbital": [ 
			{
				"type": "occ",
				"energy": -0.28514,
				"method": "rhf"
			},
			{
				"type": "occ",
				"energy": -0.27963,
				"method": "rhf"
			},
			{
				"type": "occ",
				"energy": -0.25696,
				"method": "rhf"
			},
			{
				"type": "occ",
				"energy": -0.2547,
				"method": "rhf"
			},
			{
				"type": "occ",
				"energy": -0.2432,
				"method": "rhf"
			},
			{
				"type": "unocc",
				"energy": -0.0417,
				"method": "rhf"
			},
			{
				"type": "unocc",
				"energy": -0.01675,
				"method": "rhf"
			},
			{
				"type": "unocc",
				"energy": -0.00912,
				"method": "rhf"
			},
			{
				"type": "unocc",
				"energy": 0.04851,
				"method": "rhf"
			},
			{
				"type": "unocc",
				"energy": 0.06338,
				"method": "rhf"
			}
		],
		"cosmo_sigma_profile": { 
			"-0.025": 0.0,
			"-0.024": 0.0,
			"-0.023": 0.0,
			"-0.022": 0.0,
			"-0.021": 0.0,
			"-0.02": 0.0,
			"-0.019": 0.0,
			"-0.018": 0.0,
			"-0.017": 0.0,
			"-0.016": 0.0,
			"-0.015": 0.0,
			"-0.014": 0.0,
			"-0.013": 0.0,
			"-0.012": 0.0,
			"-0.011": 0.0,
			"-0.01": 0.00610727347127,
			"-0.009": 1.57851441119,
			"-0.008": 5.94802245329,
			"-0.007": 10.5034043667,
			"-0.006": 14.0269656667,
			"-0.005": 19.3634608451,
			"-0.004": 18.0503684815,
			"-0.003": 16.7286239766,
			"-0.002": 11.9195457621,
			"-0.001": 15.7979311554,
			"0.0": 17.8751074497,
			"0.001": 16.1320137339,
			"0.002": 17.8739475285,
			"0.003": 21.6559829412,
			"0.004": 17.9794207508,
			"0.005": 12.6275283469,
			"0.006": 5.02035227891,
			"0.007": 1.91120552474,
			"0.008": 2.04989828356,
			"0.009": 1.79440287829,
			"0.01": 1.82398331418,
			"0.011": 3.0117126567,
			"0.012": 4.95258159184,
			"0.013": 2.74114143271,
			"0.014": 0.290424225018,
			"0.015": 0.0,
			"0.016": 0.0,
			"0.017": 0.0,
			"0.018": 0.0,
			"0.019": 0.0,
			"0.02": 0.0,
			"0.021": 0.0,
			"0.022": 0.0,
			"0.023": 0.0,
			"0.024": 0.0,
			"0.025": 0.0
		}
	}
}
