{
	 "smiles": "COS(=O)(=O)OC", 
	 "Tm": 243.65, 
	 "num_atms": 13, 
	 "gaussian": { 
		 "optdone": 1, 
		 "sigma_profile": "yes", 
		 "theory": "DFT", 
		 "functional": "B3LYP", 
		 "basiset": "6-31G**", 
		 "properties": { 
			 "R2extent": 997.7068, 
			 "electric_dipole_moment_norm": 1.18296382869, 
			 "electric_quadrupole_moment_norm": 16.791761396, 
			 "total_energy": -778.815655087, 
			 "HOMO_LUMO_gap": 0.32264, 
			 "cosmo_polarized_energy": -9.86, 
			 "cosmo_cavitation_energy": 18.43, 
			 "cosmo_dispersion_energy": -14.45, 
			 "cosmo_repulsion_energy": 1.17, 
			 "cosmo_total_nonelectrostatic_energy": 5.15, 
			 "SMD_solvation_energy": 3.45 
		},
		"coords": [
			{
				"x": -1.7781372251,
				"y": 1.1136444746,
				"z": -0.5349490587,
				"element": "C" 
			},
			{
				"x": -0.3780144838,
				"y": 1.2360095889,
				"z": -0.8899424729,
				"element": "O" 
			},
			{
				"x": 0.6098582911,
				"y": 0.3152071003,
				"z": 0.0008940736,
				"element": "S" 
			},
			{
				"x": 0.3740411776,
				"y": -1.095635718,
				"z": -0.2739602572,
				"element": "O" 
			},
			{
				"x": 0.6296427448,
				"y": 0.7798969566,
				"z": 1.3812222837,
				"element": "O" 
			},
			{
				"x": 1.925676905,
				"y": 0.8308424673,
				"z": -0.7865664148,
				"element": "O" 
			},
			{
				"x": 3.1640111713,
				"y": 0.2447053808,
				"z": -0.312955766,
				"element": "C" 
			},
			{
				"x": -2.2966443275,
				"y": 1.7862026471,
				"z": -1.2168431914,
				"element": "H" 
			},
			{
				"x": -2.1190107734,
				"y": 0.0859927432,
				"z": -0.6838597696,
				"element": "H" 
			},
			{
				"x": -1.9360751686,
				"y": 1.4273121989,
				"z": 0.4999922017,
				"element": "H" 
			},
			{
				"x": 3.9376493309,
				"y": 0.6895621416,
				"z": -0.9372564944,
				"element": "H" 
			},
			{
				"x": 3.1460866749,
				"y": -0.8398422267,
				"z": -0.4466510063,
				"element": "H" 
			},
			{
				"x": 3.3289156828,
				"y": 0.5023022454,
				"z": 0.7362758723,
				"element": "H" 
			}
		],
		 "valence_orbital": [ 
			{
				"type": "occ",
				"energy": -0.35336,
				"method": "rhf"
			},
			{
				"type": "occ",
				"energy": -0.35113,
				"method": "rhf"
			},
			{
				"type": "occ",
				"energy": -0.34091,
				"method": "rhf"
			},
			{
				"type": "occ",
				"energy": -0.31009,
				"method": "rhf"
			},
			{
				"type": "occ",
				"energy": -0.29648,
				"method": "rhf"
			},
			{
				"type": "unocc",
				"energy": 0.02616,
				"method": "rhf"
			},
			{
				"type": "unocc",
				"energy": 0.05632,
				"method": "rhf"
			},
			{
				"type": "unocc",
				"energy": 0.0683,
				"method": "rhf"
			},
			{
				"type": "unocc",
				"energy": 0.11168,
				"method": "rhf"
			},
			{
				"type": "unocc",
				"energy": 0.11881,
				"method": "rhf"
			}
		],
		"cosmo_sigma_profile": { 
			"-0.025": 0.0,
			"-0.024": 0.0,
			"-0.023": 0.0,
			"-0.022": 0.0,
			"-0.021": 0.0,
			"-0.02": 0.0,
			"-0.019": 0.0,
			"-0.018": 0.0,
			"-0.017": 0.0,
			"-0.016": 0.0,
			"-0.015": 0.0,
			"-0.014": 0.0,
			"-0.013": 0.0,
			"-0.012": 0.0,
			"-0.011": 0.0,
			"-0.01": 0.0,
			"-0.009": 0.283578068897,
			"-0.008": 5.28536214975,
			"-0.007": 11.1619339327,
			"-0.006": 15.4018490653,
			"-0.005": 19.7005743674,
			"-0.004": 10.6054158437,
			"-0.003": 5.069720718,
			"-0.002": 5.36159302503,
			"-0.001": 4.66131851402,
			"0.0": 5.06292295509,
			"0.001": 4.19703049914,
			"0.002": 5.76921930524,
			"0.003": 5.7540654145,
			"0.004": 4.94879535787,
			"0.005": 5.39783032012,
			"0.006": 5.07938554053,
			"0.007": 6.26066320136,
			"0.008": 8.35948046364,
			"0.009": 12.4087350125,
			"0.01": 5.14947700302,
			"0.011": 0.0284438062606,
			"0.012": 0.0,
			"0.013": 0.0,
			"0.014": 0.0,
			"0.015": 0.0,
			"0.016": 0.0,
			"0.017": 0.0,
			"0.018": 0.0,
			"0.019": 0.0,
			"0.02": 0.0,
			"0.021": 0.0,
			"0.022": 0.0,
			"0.023": 0.0,
			"0.024": 0.0,
			"0.025": 0.0
		}
	}
}
