{
	 "smiles": "COC1=C(OCC#C)C(Cl)=CC(C=O)=C1", 
	 "Tm": 380.15, 
	 "num_atms": 24, 
	 "gaussian": { 
		 "optdone": 1, 
		 "sigma_profile": "yes", 
		 "theory": "DFT", 
		 "functional": "B3LYP", 
		 "basiset": "6-31G**", 
		 "properties": { 
			 "R2extent": 4272.0121, 
			 "electric_dipole_moment_norm": 4.21184297666, 
			 "electric_quadrupole_moment_norm": 9.27950021337, 
			 "total_energy": -1110.33366713, 
			 "HOMO_LUMO_gap": 0.18311, 
			 "cosmo_polarized_energy": -11.91, 
			 "cosmo_cavitation_energy": 32.15, 
			 "cosmo_dispersion_energy": -21.66, 
			 "cosmo_repulsion_energy": 1.7, 
			 "cosmo_total_nonelectrostatic_energy": 12.19, 
			 "SMD_solvation_energy": 8.72 
		},
		"coords": [
			{
				"x": -1.5047498297,
				"y": -1.8403124642,
				"z": -2.0997434011,
				"element": "C" 
			},
			{
				"x": -0.3497407492,
				"y": -1.6385965305,
				"z": -1.2672322533,
				"element": "O" 
			},
			{
				"x": -0.5526787285,
				"y": -0.8524537757,
				"z": -0.1600396197,
				"element": "C" 
			},
			{
				"x": -0.7653391601,
				"y": 0.5362894254,
				"z": -0.2935276066,
				"element": "C" 
			},
			{
				"x": -0.8529183503,
				"y": 1.1198914864,
				"z": -1.524869607,
				"element": "O" 
			},
			{
				"x": 0.3936690598,
				"y": 1.1845466811,
				"z": -2.2620139643,
				"element": "C" 
			},
			{
				"x": 0.1219050843,
				"y": 1.668494369,
				"z": -3.6085337594,
				"element": "C" 
			},
			{
				"x": -0.0712955667,
				"y": 2.0628066625,
				"z": -4.7321483124,
				"element": "C" 
			},
			{
				"x": -0.9423204847,
				"y": 1.3118137749,
				"z": 0.8678704831,
				"element": "C" 
			},
			{
				"x": -1.2104762312,
				"y": 3.0328629832,
				"z": 0.7059970556,
				"element": "Cl" 
			},
			{
				"x": -0.8970549975,
				"y": 0.7349073186,
				"z": 2.1301675969,
				"element": "C" 
			},
			{
				"x": -0.6594694894,
				"y": -0.6405640167,
				"z": 2.2487540284,
				"element": "C" 
			},
			{
				"x": -0.5956484945,
				"y": -1.2635320708,
				"z": 3.5913018738,
				"element": "C" 
			},
			{
				"x": -0.7402637082,
				"y": -0.6615021548,
				"z": 4.6373600472,
				"element": "O" 
			},
			{
				"x": -0.4916969154,
				"y": -1.4296625579,
				"z": 1.1054074648,
				"element": "C" 
			},
			{
				"x": -1.8730643671,
				"y": -0.8939837916,
				"z": -2.5053450275,
				"element": "H" 
			},
			{
				"x": -2.3024143123,
				"y": -2.3362670508,
				"z": -1.5342321323,
				"element": "H" 
			},
			{
				"x": -1.1783888577,
				"y": -2.4901499518,
				"z": -2.9131873896,
				"element": "H" 
			},
			{
				"x": 0.8508465936,
				"y": 0.1892233699,
				"z": -2.2983671992,
				"element": "H" 
			},
			{
				"x": 1.0793117187,
				"y": 1.8660090049,
				"z": -1.7416192741,
				"element": "H" 
			},
			{
				"x": -0.2499097206,
				"y": 2.416962102,
				"z": -5.7212545526,
				"element": "H" 
			},
			{
				"x": -1.0297257378,
				"y": 1.3308350133,
				"z": 3.0258746424,
				"element": "H" 
			},
			{
				"x": -0.3990322108,
				"y": -2.3584671201,
				"z": 3.5821201058,
				"element": "H" 
			},
			{
				"x": -0.3144445447,
				"y": -2.4986507061,
				"z": 1.182860801,
				"element": "H" 
			}
		],
		 "valence_orbital": [ 
			{
				"type": "occ",
				"energy": -0.29094,
				"method": "rhf"
			},
			{
				"type": "occ",
				"energy": -0.27472,
				"method": "rhf"
			},
			{
				"type": "occ",
				"energy": -0.2627,
				"method": "rhf"
			},
			{
				"type": "occ",
				"energy": -0.25744,
				"method": "rhf"
			},
			{
				"type": "occ",
				"energy": -0.25493,
				"method": "rhf"
			},
			{
				"type": "unocc",
				"energy": -0.07182,
				"method": "rhf"
			},
			{
				"type": "unocc",
				"energy": -0.02533,
				"method": "rhf"
			},
			{
				"type": "unocc",
				"energy": 0.00716,
				"method": "rhf"
			},
			{
				"type": "unocc",
				"energy": 0.02621,
				"method": "rhf"
			},
			{
				"type": "unocc",
				"energy": 0.03138,
				"method": "rhf"
			}
		],
		"cosmo_sigma_profile": { 
			"-0.025": 0.0,
			"-0.024": 0.0,
			"-0.023": 0.0,
			"-0.022": 0.0,
			"-0.021": 0.0,
			"-0.02": 0.0,
			"-0.019": 0.0,
			"-0.018": 0.0,
			"-0.017": 0.0,
			"-0.016": 0.0,
			"-0.015": 0.0,
			"-0.014": 0.0,
			"-0.013": 0.146505367921,
			"-0.012": 1.05545830486,
			"-0.011": 1.4635588756,
			"-0.01": 0.976424651869,
			"-0.009": 1.94650541394,
			"-0.008": 5.80623965751,
			"-0.007": 9.63164866922,
			"-0.006": 13.6396383525,
			"-0.005": 15.133257333,
			"-0.004": 16.6090924424,
			"-0.003": 21.0437561054,
			"-0.002": 19.0109673405,
			"-0.001": 19.1561344458,
			"0.0": 22.0622804866,
			"0.001": 21.4131140861,
			"0.002": 14.0469274153,
			"0.003": 13.4527895896,
			"0.004": 16.0445277452,
			"0.005": 12.2129944512,
			"0.006": 10.0245320184,
			"0.007": 6.62157860459,
			"0.008": 3.89483862991,
			"0.009": 3.70728912494,
			"0.01": 5.21960120489,
			"0.011": 4.51271846168,
			"0.012": 1.88718657993,
			"0.013": 0.272104953025,
			"0.014": 0.0,
			"0.015": 0.0,
			"0.016": 0.0,
			"0.017": 0.0,
			"0.018": 0.0,
			"0.019": 0.0,
			"0.02": 0.0,
			"0.021": 0.0,
			"0.022": 0.0,
			"0.023": 0.0,
			"0.024": 0.0,
			"0.025": 0.0
		}
	}
}
