{
	 "smiles": "CC(C)NC(=O)CSC1=C(C=CC=C1)C(O)=O", 
	 "Tm": 456.15, 
	 "num_atms": 32, 
	 "gaussian": { 
		 "optdone": 1, 
		 "sigma_profile": "yes", 
		 "theory": "DFT", 
		 "functional": "B3LYP", 
		 "basiset": "6-31G**", 
		 "properties": { 
			 "R2extent": 5366.3512, 
			 "electric_dipole_moment_norm": 3.98850435753, 
			 "electric_quadrupole_moment_norm": 17.8721889188, 
			 "total_energy": -1144.95193805, 
			 "HOMO_LUMO_gap": 0.15996, 
			 "cosmo_polarized_energy": -18.09, 
			 "cosmo_cavitation_energy": 36.29, 
			 "cosmo_dispersion_energy": -25.66, 
			 "cosmo_repulsion_energy": 1.97, 
			 "cosmo_total_nonelectrostatic_energy": 12.6, 
			 "SMD_solvation_energy": 7.27 
		},
		"coords": [
			{
				"x": 1.1177427243,
				"y": 3.1758899957,
				"z": -2.0625763406,
				"element": "C" 
			},
			{
				"x": 1.4040788658,
				"y": 2.2016364504,
				"z": -3.2140176514,
				"element": "C" 
			},
			{
				"x": 0.1314434059,
				"y": 1.7843696923,
				"z": -3.969993334,
				"element": "C" 
			},
			{
				"x": 2.2439680503,
				"y": 1.0524885537,
				"z": -2.8205946758,
				"element": "N" 
			},
			{
				"x": 2.0487918837,
				"y": -0.0072648242,
				"z": -1.9728409509,
				"element": "C" 
			},
			{
				"x": 2.8510491545,
				"y": -0.9337468971,
				"z": -1.9396739988,
				"element": "O" 
			},
			{
				"x": 0.8320059564,
				"y": -0.0094807741,
				"z": -1.0495575244,
				"element": "C" 
			},
			{
				"x": 1.3317585093,
				"y": 0.6217895064,
				"z": 0.6193904573,
				"element": "S" 
			},
			{
				"x": 0.1272865526,
				"y": -0.1652493372,
				"z": 1.6950073602,
				"element": "C" 
			},
			{
				"x": -1.2196667689,
				"y": 0.2448442285,
				"z": 1.8610709224,
				"element": "C" 
			},
			{
				"x": -2.0198471805,
				"y": -0.3986684553,
				"z": 2.8207076308,
				"element": "C" 
			},
			{
				"x": -1.51681113,
				"y": -1.4306620069,
				"z": 3.6072638705,
				"element": "C" 
			},
			{
				"x": -0.1892108397,
				"y": -1.8268131275,
				"z": 3.4541595632,
				"element": "C" 
			},
			{
				"x": 0.6193520845,
				"y": -1.1954774128,
				"z": 2.5093300516,
				"element": "C" 
			},
			{
				"x": -1.8406832857,
				"y": 1.3339102057,
				"z": 1.0542489368,
				"element": "C" 
			},
			{
				"x": -2.9130977158,
				"y": 1.8862446266,
				"z": 1.6779556777,
				"element": "O" 
			},
			{
				"x": -1.4906873765,
				"y": 1.7200887363,
				"z": -0.0443075488,
				"element": "O" 
			},
			{
				"x": 0.6584804958,
				"y": 4.0861375917,
				"z": -2.4631665173,
				"element": "H" 
			},
			{
				"x": 2.0470602009,
				"y": 3.4556461581,
				"z": -1.5582348859,
				"element": "H" 
			},
			{
				"x": 0.4345352305,
				"y": 2.7602767027,
				"z": -1.3189561182,
				"element": "H" 
			},
			{
				"x": 2.0377548126,
				"y": 2.736568769,
				"z": -3.9310369668,
				"element": "H" 
			},
			{
				"x": -0.3658876366,
				"y": 2.6687959989,
				"z": -4.381888625,
				"element": "H" 
			},
			{
				"x": 0.374526732,
				"y": 1.1108699865,
				"z": -4.7973162457,
				"element": "H" 
			},
			{
				"x": -0.5857353949,
				"y": 1.2796785367,
				"z": -3.3164598058,
				"element": "H" 
			},
			{
				"x": 3.0766407609,
				"y": 0.9042590916,
				"z": -3.3764757153,
				"element": "H" 
			},
			{
				"x": -0.0123168075,
				"y": 0.5776055168,
				"z": -1.4017163244,
				"element": "H" 
			},
			{
				"x": 0.5437761247,
				"y": -1.0541998313,
				"z": -0.9299423084,
				"element": "H" 
			},
			{
				"x": -3.047475138,
				"y": -0.076962517,
				"z": 2.94081569,
				"element": "H" 
			},
			{
				"x": -2.1575001639,
				"y": -1.9168669475,
				"z": 4.3365078319,
				"element": "H" 
			},
			{
				"x": 0.2197434459,
				"y": -2.6274800557,
				"z": 4.0635574206,
				"element": "H" 
			},
			{
				"x": 1.6531650659,
				"y": -1.4990804121,
				"z": 2.3851064187,
				"element": "H" 
			},
			{
				"x": -3.2590406186,
				"y": 2.5507522509,
				"z": 1.0595337057,
				"element": "H" 
			}
		],
		 "valence_orbital": [ 
			{
				"type": "occ",
				"energy": -0.27019,
				"method": "rhf"
			},
			{
				"type": "occ",
				"energy": -0.26547,
				"method": "rhf"
			},
			{
				"type": "occ",
				"energy": -0.24325,
				"method": "rhf"
			},
			{
				"type": "occ",
				"energy": -0.23649,
				"method": "rhf"
			},
			{
				"type": "occ",
				"energy": -0.22002,
				"method": "rhf"
			},
			{
				"type": "unocc",
				"energy": -0.06006,
				"method": "rhf"
			},
			{
				"type": "unocc",
				"energy": -0.0256,
				"method": "rhf"
			},
			{
				"type": "unocc",
				"energy": 0.01504,
				"method": "rhf"
			},
			{
				"type": "unocc",
				"energy": 0.03642,
				"method": "rhf"
			},
			{
				"type": "unocc",
				"energy": 0.04797,
				"method": "rhf"
			}
		],
		"cosmo_sigma_profile": { 
			"-0.025": 0.0,
			"-0.024": 0.0,
			"-0.023": 0.0,
			"-0.022": 0.0,
			"-0.021": 0.0,
			"-0.02": 0.0,
			"-0.019": 0.0,
			"-0.018": 0.77392834392,
			"-0.017": 1.13144600096,
			"-0.016": 0.555938542108,
			"-0.015": 0.857265719829,
			"-0.014": 0.646691665445,
			"-0.013": 1.98120397202,
			"-0.012": 1.59696178986,
			"-0.011": 1.9280844004,
			"-0.01": 1.96783375876,
			"-0.009": 1.47718962602,
			"-0.008": 1.922167403,
			"-0.007": 6.94560295829,
			"-0.006": 11.8744729612,
			"-0.005": 14.5078394663,
			"-0.004": 18.3684838714,
			"-0.003": 25.7787685306,
			"-0.002": 23.8798949055,
			"-0.001": 24.4379677792,
			"0.0": 27.6408854377,
			"0.001": 24.289616436,
			"0.002": 21.6654123049,
			"0.003": 17.5697920603,
			"0.004": 7.81118722781,
			"0.005": 7.86348737436,
			"0.006": 6.60255033237,
			"0.007": 6.10575565885,
			"0.008": 5.83578242323,
			"0.009": 4.04754131598,
			"0.01": 3.31462631613,
			"0.011": 2.09223282649,
			"0.012": 1.75888449011,
			"0.013": 3.53548278786,
			"0.014": 5.8734169198,
			"0.015": 2.03113405602,
			"0.016": 0.100085666179,
			"0.017": 0.0,
			"0.018": 0.0,
			"0.019": 0.0,
			"0.02": 0.0,
			"0.021": 0.0,
			"0.022": 0.0,
			"0.023": 0.0,
			"0.024": 0.0,
			"0.025": 0.0
		}
	}
}
