{
	 "smiles": "CCOC(=O)CC1=C(C)N=C(O)N=C1C", 
	 "Tm": 409.15, 
	 "num_atms": 29, 
	 "gaussian": { 
		 "optdone": 1, 
		 "sigma_profile": "yes", 
		 "theory": "DFT", 
		 "functional": "B3LYP", 
		 "basiset": "6-31G**", 
		 "properties": { 
			 "R2extent": 4683.5408, 
			 "electric_dipole_moment_norm": 2.76769631643, 
			 "electric_quadrupole_moment_norm": 18.8694784305, 
			 "total_energy": -724.717160867, 
			 "HOMO_LUMO_gap": 0.21012, 
			 "cosmo_polarized_energy": -13.91, 
			 "cosmo_cavitation_energy": 32.46, 
			 "cosmo_dispersion_energy": -23.01, 
			 "cosmo_repulsion_energy": 1.83, 
			 "cosmo_total_nonelectrostatic_energy": 11.28, 
			 "SMD_solvation_energy": 4.4 
		},
		"coords": [
			{
				"x": 4.3343081987,
				"y": 0.9183592196,
				"z": 0.1119939202,
				"element": "C" 
			},
			{
				"x": 3.1941607752,
				"y": 1.4130583777,
				"z": -0.7566434509,
				"element": "C" 
			},
			{
				"x": 2.0052760043,
				"y": 0.6715655683,
				"z": -0.3826501494,
				"element": "O" 
			},
			{
				"x": 0.8809358254,
				"y": 0.9780101199,
				"z": -1.0634122073,
				"element": "C" 
			},
			{
				"x": 0.8409062533,
				"y": 1.8006706584,
				"z": -1.954503626,
				"element": "O" 
			},
			{
				"x": -0.3184379022,
				"y": 0.1897993752,
				"z": -0.5485745499,
				"element": "C" 
			},
			{
				"x": -1.0797186273,
				"y": 0.9600961749,
				"z": 0.5180629202,
				"element": "C" 
			},
			{
				"x": -0.8377029071,
				"y": 0.7673990593,
				"z": 1.8925095222,
				"element": "C" 
			},
			{
				"x": 0.1782289182,
				"y": -0.2235196146,
				"z": 2.4032896494,
				"element": "C" 
			},
			{
				"x": -1.5061674276,
				"y": 1.4504283567,
				"z": 2.8330588193,
				"element": "N" 
			},
			{
				"x": -2.4097873977,
				"y": 2.3202071134,
				"z": 2.3901536157,
				"element": "C" 
			},
			{
				"x": -3.074468901,
				"y": 3.0050181246,
				"z": 3.3389571864,
				"element": "O" 
			},
			{
				"x": -2.7297163712,
				"y": 2.5892702901,
				"z": 1.1217208682,
				"element": "N" 
			},
			{
				"x": -2.0622189225,
				"y": 1.9089470851,
				"z": 0.1774923517,
				"element": "C" 
			},
			{
				"x": -2.4354824803,
				"y": 2.2131703828,
				"z": -1.2505727424,
				"element": "C" 
			},
			{
				"x": 4.1256039217,
				"y": 1.0922272561,
				"z": 1.1715468272,
				"element": "H" 
			},
			{
				"x": 4.504179757,
				"y": -0.1519424573,
				"z": -0.0361276028,
				"element": "H" 
			},
			{
				"x": 5.2542115449,
				"y": 1.4512927969,
				"z": -0.1477191884,
				"element": "H" 
			},
			{
				"x": 3.3855714217,
				"y": 1.2506191716,
				"z": -1.8216083231,
				"element": "H" 
			},
			{
				"x": 2.999242856,
				"y": 2.4805586851,
				"z": -0.6154716761,
				"element": "H" 
			},
			{
				"x": -0.9622122473,
				"y": -0.0057199953,
				"z": -1.4092702507,
				"element": "H" 
			},
			{
				"x": 0.0261465142,
				"y": -0.7689408044,
				"z": -0.1567625341,
				"element": "H" 
			},
			{
				"x": 1.1581301815,
				"y": -0.0637898934,
				"z": 1.9448607436,
				"element": "H" 
			},
			{
				"x": -0.1258828097,
				"y": -1.2517560223,
				"z": 2.1707356225,
				"element": "H" 
			},
			{
				"x": 0.2577326462,
				"y": -0.1250659071,
				"z": 3.4862302877,
				"element": "H" 
			},
			{
				"x": -3.6854913113,
				"y": 3.5889150838,
				"z": 2.8633459574,
				"element": "H" 
			},
			{
				"x": -3.1266910054,
				"y": 3.0564779533,
				"z": -1.2703691312,
				"element": "H" 
			},
			{
				"x": -1.5517840254,
				"y": 2.4408387371,
				"z": -1.8525948585,
				"element": "H" 
			},
			{
				"x": -2.9319724822,
				"y": 1.3506051042,
				"z": -1.7134780007,
				"element": "H" 
			}
		],
		 "valence_orbital": [ 
			{
				"type": "occ",
				"energy": -0.30901,
				"method": "rhf"
			},
			{
				"type": "occ",
				"energy": -0.29773,
				"method": "rhf"
			},
			{
				"type": "occ",
				"energy": -0.2828,
				"method": "rhf"
			},
			{
				"type": "occ",
				"energy": -0.2474,
				"method": "rhf"
			},
			{
				"type": "occ",
				"energy": -0.23834,
				"method": "rhf"
			},
			{
				"type": "unocc",
				"energy": -0.02822,
				"method": "rhf"
			},
			{
				"type": "unocc",
				"energy": -0.01376,
				"method": "rhf"
			},
			{
				"type": "unocc",
				"energy": 0.01221,
				"method": "rhf"
			},
			{
				"type": "unocc",
				"energy": 0.0866,
				"method": "rhf"
			},
			{
				"type": "unocc",
				"energy": 0.09369,
				"method": "rhf"
			}
		],
		"cosmo_sigma_profile": { 
			"-0.025": 0.0,
			"-0.024": 0.0,
			"-0.023": 0.0,
			"-0.022": 0.0,
			"-0.021": 0.0,
			"-0.02": 0.0,
			"-0.019": 0.0,
			"-0.018": 0.154572721061,
			"-0.017": 0.697804817999,
			"-0.016": 0.793306648924,
			"-0.015": 0.662059221534,
			"-0.014": 0.424814601482,
			"-0.013": 0.0764956289229,
			"-0.012": 1.34748638424,
			"-0.011": 1.04788265921,
			"-0.01": 0.915673929627,
			"-0.009": 0.038509469129,
			"-0.008": 0.191067518638,
			"-0.007": 2.8394202016,
			"-0.006": 10.0517193468,
			"-0.005": 16.0880756681,
			"-0.004": 23.5388538942,
			"-0.003": 23.846670067,
			"-0.002": 26.3568080285,
			"-0.001": 34.6982409098,
			"0.0": 29.5650707697,
			"0.001": 13.1353968515,
			"0.002": 9.27971960888,
			"0.003": 6.86184299329,
			"0.004": 6.13317405777,
			"0.005": 7.19939150677,
			"0.006": 5.27011343702,
			"0.007": 4.00994647366,
			"0.008": 4.33168321477,
			"0.009": 5.42511796446,
			"0.01": 5.7241094085,
			"0.011": 6.76345474191,
			"0.012": 4.88894346788,
			"0.013": 1.64714722747,
			"0.014": 0.823002304747,
			"0.015": 0.887972656163,
			"0.016": 0.279058300769,
			"0.017": 0.0,
			"0.018": 0.0,
			"0.019": 0.0,
			"0.02": 0.0,
			"0.021": 0.0,
			"0.022": 0.0,
			"0.023": 0.0,
			"0.024": 0.0,
			"0.025": 0.0
		}
	}
}
