{
	 "smiles": "C(CCC1CCCCC1)CC1CCCCC1", 
	 "Tm": 285.15, 
	 "num_atms": 46, 
	 "gaussian": { 
		 "optdone": 1, 
		 "sigma_profile": "yes", 
		 "theory": "DFT", 
		 "functional": "B3LYP", 
		 "basiset": "6-31G**", 
		 "properties": { 
			 "R2extent": 6374.9276, 
			 "electric_dipole_moment_norm": 0.0109366356801, 
			 "electric_quadrupole_moment_norm": 0.401084305352, 
			 "total_energy": -627.813204421, 
			 "HOMO_LUMO_gap": 0.35057, 
			 "cosmo_polarized_energy": -0.88, 
			 "cosmo_cavitation_energy": 41.25, 
			 "cosmo_dispersion_energy": -29.16, 
			 "cosmo_repulsion_energy": 2.3, 
			 "cosmo_total_nonelectrostatic_energy": 14.39, 
			 "SMD_solvation_energy": 4.52 
		},
		"coords": [
			{
				"x": -0.4502403972,
				"y": -0.1169441913,
				"z": -0.7180275275,
				"element": "C" 
			},
			{
				"x": -1.1245511735,
				"y": 1.2186755198,
				"z": -1.0879834252,
				"element": "C" 
			},
			{
				"x": -0.9079264744,
				"y": 2.4440728575,
				"z": -0.1720797746,
				"element": "C" 
			},
			{
				"x": 0.4511683534,
				"y": 3.1867145449,
				"z": -0.19592429,
				"element": "C" 
			},
			{
				"x": 0.9120841162,
				"y": 3.60254457,
				"z": -1.6267104504,
				"element": "C" 
			},
			{
				"x": 2.0817949064,
				"y": 2.7505506095,
				"z": -2.1407012063,
				"element": "C" 
			},
			{
				"x": 3.3268881508,
				"y": 2.9006624053,
				"z": -1.2368532248,
				"element": "C" 
			},
			{
				"x": 2.9471430836,
				"y": 3.0961562888,
				"z": 0.2528876279,
				"element": "C" 
			},
			{
				"x": 1.585870272,
				"y": 2.460970287,
				"z": 0.5677802026,
				"element": "C" 
			},
			{
				"x": -0.8150157312,
				"y": -0.6589332387,
				"z": 0.6710593213,
				"element": "C" 
			},
			{
				"x": -0.2695709946,
				"y": -2.0703523488,
				"z": 0.9700044526,
				"element": "C" 
			},
			{
				"x": -1.0186815314,
				"y": -3.1882944151,
				"z": 0.1863848059,
				"element": "C" 
			},
			{
				"x": -2.1109522737,
				"y": -3.8519037999,
				"z": 1.0372455565,
				"element": "C" 
			},
			{
				"x": -1.5058334651,
				"y": -4.5785844012,
				"z": 2.2601723532,
				"element": "C" 
			},
			{
				"x": -0.2447404355,
				"y": -3.8560484445,
				"z": 2.7948370416,
				"element": "C" 
			},
			{
				"x": -0.3015847079,
				"y": -2.3532029215,
				"z": 2.4931561952,
				"element": "C" 
			},
			{
				"x": -0.7410807735,
				"y": -0.8506713155,
				"z": -1.4814514271,
				"element": "H" 
			},
			{
				"x": 0.6410553373,
				"y": -0.034921156,
				"z": -0.7951829659,
				"element": "H" 
			},
			{
				"x": -0.8396171494,
				"y": 1.4808420642,
				"z": -2.1149924197,
				"element": "H" 
			},
			{
				"x": -2.2079867108,
				"y": 1.0379406421,
				"z": -1.1257750848,
				"element": "H" 
			},
			{
				"x": -1.6735581508,
				"y": 3.1796253751,
				"z": -0.4542860707,
				"element": "H" 
			},
			{
				"x": -1.1379303857,
				"y": 2.1714187596,
				"z": 0.8666610941,
				"element": "H" 
			},
			{
				"x": 0.2723143933,
				"y": 4.1187266238,
				"z": 0.3590773516,
				"element": "H" 
			},
			{
				"x": 1.2293182579,
				"y": 4.65327578,
				"z": -1.6148595649,
				"element": "H" 
			},
			{
				"x": 0.0696375515,
				"y": 3.5550372269,
				"z": -2.3267456489,
				"element": "H" 
			},
			{
				"x": 1.7738681032,
				"y": 1.6981909893,
				"z": -2.1743806319,
				"element": "H" 
			},
			{
				"x": 2.3302684922,
				"y": 3.0251327536,
				"z": -3.1724966886,
				"element": "H" 
			},
			{
				"x": 3.963097873,
				"y": 2.0143953198,
				"z": -1.3485664353,
				"element": "H" 
			},
			{
				"x": 3.9293466094,
				"y": 3.7529521027,
				"z": -1.573728007,
				"element": "H" 
			},
			{
				"x": 2.894881326,
				"y": 4.1680880506,
				"z": 0.4864499156,
				"element": "H" 
			},
			{
				"x": 3.7282146335,
				"y": 2.6824369003,
				"z": 0.9006940225,
				"element": "H" 
			},
			{
				"x": 1.3798416125,
				"y": 2.5001948794,
				"z": 1.6444159557,
				"element": "H" 
			},
			{
				"x": 1.6200627827,
				"y": 1.398519473,
				"z": 0.3038499035,
				"element": "H" 
			},
			{
				"x": -0.4367445068,
				"y": 0.0288846103,
				"z": 1.4383312589,
				"element": "H" 
			},
			{
				"x": -1.9097069935,
				"y": -0.6654880713,
				"z": 0.7872922048,
				"element": "H" 
			},
			{
				"x": 0.7836233957,
				"y": -2.0900503502,
				"z": 0.6541764435,
				"element": "H" 
			},
			{
				"x": -1.4522095483,
				"y": -2.7813889546,
				"z": -0.7343033493,
				"element": "H" 
			},
			{
				"x": -0.3054715098,
				"y": -3.9588159225,
				"z": -0.1339260622,
				"element": "H" 
			},
			{
				"x": -2.8176259884,
				"y": -3.0824676975,
				"z": 1.3744594834,
				"element": "H" 
			},
			{
				"x": -2.6965119029,
				"y": -4.5529389599,
				"z": 0.4315617782,
				"element": "H" 
			},
			{
				"x": -1.2495633594,
				"y": -5.6105004658,
				"z": 1.9913738839,
				"element": "H" 
			},
			{
				"x": -2.2618438002,
				"y": -4.6474777222,
				"z": 3.0516487708,
				"element": "H" 
			},
			{
				"x": -0.1337106153,
				"y": -4.031747345,
				"z": 3.8708123077,
				"element": "H" 
			},
			{
				"x": 0.6543984056,
				"y": -4.2756314635,
				"z": 2.3244043364,
				"element": "H" 
			},
			{
				"x": -1.2225779113,
				"y": -1.9357005513,
				"z": 2.9247353188,
				"element": "H" 
			},
			{
				"x": 0.5265588346,
				"y": -1.8253448971,
				"z": 2.980902669,
				"element": "H" 
			}
		],
		 "valence_orbital": [ 
			{
				"type": "occ",
				"energy": -0.28961,
				"method": "rhf"
			},
			{
				"type": "occ",
				"energy": -0.28809,
				"method": "rhf"
			},
			{
				"type": "occ",
				"energy": -0.28451,
				"method": "rhf"
			},
			{
				"type": "occ",
				"energy": -0.28321,
				"method": "rhf"
			},
			{
				"type": "occ",
				"energy": -0.27991,
				"method": "rhf"
			},
			{
				"type": "unocc",
				"energy": 0.07066,
				"method": "rhf"
			},
			{
				"type": "unocc",
				"energy": 0.08136,
				"method": "rhf"
			},
			{
				"type": "unocc",
				"energy": 0.09339,
				"method": "rhf"
			},
			{
				"type": "unocc",
				"energy": 0.10176,
				"method": "rhf"
			},
			{
				"type": "unocc",
				"energy": 0.10948,
				"method": "rhf"
			}
		],
		"cosmo_sigma_profile": { 
			"-0.025": 0.0,
			"-0.024": 0.0,
			"-0.023": 0.0,
			"-0.022": 0.0,
			"-0.021": 0.0,
			"-0.02": 0.0,
			"-0.019": 0.0,
			"-0.018": 0.0,
			"-0.017": 0.0,
			"-0.016": 0.0,
			"-0.015": 0.0,
			"-0.014": 0.0,
			"-0.013": 0.0,
			"-0.012": 0.0,
			"-0.011": 0.0,
			"-0.01": 0.0,
			"-0.009": 0.0,
			"-0.008": 0.0,
			"-0.007": 0.0,
			"-0.006": 0.0,
			"-0.005": 0.0,
			"-0.004": 0.0,
			"-0.003": 1.9232373039,
			"-0.002": 31.1031568713,
			"-0.001": 76.527010924,
			"0.0": 96.4247346849,
			"0.001": 69.9144618501,
			"0.002": 37.6768897447,
			"0.003": 0.326186994141,
			"0.004": 0.0,
			"0.005": 0.0,
			"0.006": 0.0,
			"0.007": 0.0,
			"0.008": 0.0,
			"0.009": 0.0,
			"0.01": 0.0,
			"0.011": 0.0,
			"0.012": 0.0,
			"0.013": 0.0,
			"0.014": 0.0,
			"0.015": 0.0,
			"0.016": 0.0,
			"0.017": 0.0,
			"0.018": 0.0,
			"0.019": 0.0,
			"0.02": 0.0,
			"0.021": 0.0,
			"0.022": 0.0,
			"0.023": 0.0,
			"0.024": 0.0,
			"0.025": 0.0
		}
	}
}
