{
	 "smiles": "CC(C)(C)CC(=O)C=C1/NC2=CC=CC=C2N/C/1=CC(=O)CC(C)(C)C", 
	 "Tm": 494.15, 
	 "num_atms": 56, 
	 "gaussian": { 
		 "optdone": 1, 
		 "sigma_profile": "yes", 
		 "theory": "DFT", 
		 "functional": "B3LYP", 
		 "basiset": "6-31G**", 
		 "properties": { 
			 "R2extent": 14590.0511, 
			 "electric_dipole_moment_norm": 3.79314739234, 
			 "electric_quadrupole_moment_norm": 19.0675566683, 
			 "total_energy": -1116.40822038, 
			 "HOMO_LUMO_gap": 0.12341, 
			 "cosmo_polarized_energy": -17.41, 
			 "cosmo_cavitation_energy": 55.44, 
			 "cosmo_dispersion_energy": -37.59, 
			 "cosmo_repulsion_energy": 2.81, 
			 "cosmo_total_nonelectrostatic_energy": 20.65, 
			 "SMD_solvation_energy": 9.4 
		},
		"coords": [
			{
				"x": 2.2707974717,
				"y": -4.7097677474,
				"z": -0.9079727486,
				"element": "C" 
			},
			{
				"x": 2.2444424988,
				"y": -3.8940898142,
				"z": 0.3980963691,
				"element": "C" 
			},
			{
				"x": 3.2502465617,
				"y": -4.5035557811,
				"z": 1.3944707226,
				"element": "C" 
			},
			{
				"x": 0.8327963097,
				"y": -3.9412223582,
				"z": 1.0137859557,
				"element": "C" 
			},
			{
				"x": 2.6784294582,
				"y": -2.4162997342,
				"z": 0.1387491041,
				"element": "C" 
			},
			{
				"x": 1.7575423981,
				"y": -1.6153039254,
				"z": -0.7696072146,
				"element": "C" 
			},
			{
				"x": 1.784470825,
				"y": -1.8332749224,
				"z": -2.0050644747,
				"element": "O" 
			},
			{
				"x": 0.8914305206,
				"y": -0.6333250484,
				"z": -0.1668455297,
				"element": "C" 
			},
			{
				"x": 0.0173136303,
				"y": 0.1480414503,
				"z": -0.9055515464,
				"element": "C" 
			},
			{
				"x": -0.028642031,
				"y": -0.0124025474,
				"z": -2.2571874356,
				"element": "N" 
			},
			{
				"x": -0.831592964,
				"y": 0.6991148148,
				"z": -3.1320920289,
				"element": "C" 
			},
			{
				"x": -0.814441001,
				"y": 0.475391284,
				"z": -4.5130993411,
				"element": "C" 
			},
			{
				"x": -1.6436023567,
				"y": 1.2224989603,
				"z": -5.3464928127,
				"element": "C" 
			},
			{
				"x": -2.4925384255,
				"y": 2.1950101332,
				"z": -4.8069079618,
				"element": "C" 
			},
			{
				"x": -2.5143750162,
				"y": 2.4226465588,
				"z": -3.4321647408,
				"element": "C" 
			},
			{
				"x": -1.6843805581,
				"y": 1.6754457115,
				"z": -2.5913895814,
				"element": "C" 
			},
			{
				"x": -1.6673288747,
				"y": 1.8607701551,
				"z": -1.212096296,
				"element": "N" 
			},
			{
				"x": -0.8873325144,
				"y": 1.1722063685,
				"z": -0.3046900627,
				"element": "C" 
			},
			{
				"x": -0.9106787155,
				"y": 1.379826458,
				"z": 1.0505730143,
				"element": "C" 
			},
			{
				"x": -1.673388249,
				"y": 2.2938917395,
				"z": 1.9080575998,
				"element": "C" 
			},
			{
				"x": -1.4764181502,
				"y": 2.2456641661,
				"z": 3.1227109945,
				"element": "O" 
			},
			{
				"x": -2.6837624077,
				"y": 3.2788788943,
				"z": 1.3061989535,
				"element": "C" 
			},
			{
				"x": -3.4548892831,
				"y": 4.2275833034,
				"z": 2.2599276142,
				"element": "C" 
			},
			{
				"x": -4.3852733056,
				"y": 5.0949912537,
				"z": 1.3865959172,
				"element": "C" 
			},
			{
				"x": -2.4803900972,
				"y": 5.1494513606,
				"z": 3.019249771,
				"element": "C" 
			},
			{
				"x": -4.3128750487,
				"y": 3.4227171991,
				"z": 3.2559757725,
				"element": "C" 
			},
			{
				"x": 1.9792455197,
				"y": -5.7480371389,
				"z": -0.7114372437,
				"element": "H" 
			},
			{
				"x": 1.593078542,
				"y": -4.294213745,
				"z": -1.6569845258,
				"element": "H" 
			},
			{
				"x": 3.2755926275,
				"y": -4.7197276763,
				"z": -1.3446787945,
				"element": "H" 
			},
			{
				"x": 4.2709134029,
				"y": -4.4731293984,
				"z": 0.99665525,
				"element": "H" 
			},
			{
				"x": 3.0038016347,
				"y": -5.5512063948,
				"z": 1.6006160998,
				"element": "H" 
			},
			{
				"x": 3.2446752838,
				"y": -3.9649193224,
				"z": 2.3490489578,
				"element": "H" 
			},
			{
				"x": 0.5516712473,
				"y": -4.9737813564,
				"z": 1.2487965859,
				"element": "H" 
			},
			{
				"x": 0.7828876249,
				"y": -3.3637133266,
				"z": 1.9442599707,
				"element": "H" 
			},
			{
				"x": 0.0788495468,
				"y": -3.5388166897,
				"z": 0.3296210583,
				"element": "H" 
			},
			{
				"x": 3.6671138073,
				"y": -2.4253294951,
				"z": -0.3349138188,
				"element": "H" 
			},
			{
				"x": 2.7773723089,
				"y": -1.9070193883,
				"z": 1.1043498811,
				"element": "H" 
			},
			{
				"x": 0.9393644023,
				"y": -0.5110892837,
				"z": 0.9037058877,
				"element": "H" 
			},
			{
				"x": 0.6324080931,
				"y": -0.7450790901,
				"z": -2.5823590468,
				"element": "H" 
			},
			{
				"x": -0.1505022204,
				"y": -0.2820403786,
				"z": -4.9190106595,
				"element": "H" 
			},
			{
				"x": -1.6273439976,
				"y": 1.0461644055,
				"z": -6.4170538279,
				"element": "H" 
			},
			{
				"x": -3.1385366742,
				"y": 2.777229376,
				"z": -5.4559782119,
				"element": "H" 
			},
			{
				"x": -3.1715071204,
				"y": 3.1765720468,
				"z": -3.006362778,
				"element": "H" 
			},
			{
				"x": -2.291183702,
				"y": 2.5622532528,
				"z": -0.8451685584,
				"element": "H" 
			},
			{
				"x": -0.2515246764,
				"y": 0.7679717527,
				"z": 1.6496300634,
				"element": "H" 
			},
			{
				"x": -3.4234634873,
				"y": 2.6887925018,
				"z": 0.7407031205,
				"element": "H" 
			},
			{
				"x": -2.144038192,
				"y": 3.8986083967,
				"z": 0.5716249058,
				"element": "H" 
			},
			{
				"x": -4.959495154,
				"y": 5.7889737042,
				"z": 2.0097603585,
				"element": "H" 
			},
			{
				"x": -5.1021576285,
				"y": 4.4805189114,
				"z": 0.8284231494,
				"element": "H" 
			},
			{
				"x": -3.8171541547,
				"y": 5.6922113438,
				"z": 0.6630094328,
				"element": "H" 
			},
			{
				"x": -1.8687756427,
				"y": 5.7357981162,
				"z": 2.32231097,
				"element": "H" 
			},
			{
				"x": -1.814426659,
				"y": 4.5703351589,
				"z": 3.6604268195,
				"element": "H" 
			},
			{
				"x": -3.0377138373,
				"y": 5.8571386726,
				"z": 3.6432970975,
				"element": "H" 
			},
			{
				"x": -5.0184718738,
				"y": 2.7684301493,
				"z": 2.7290475314,
				"element": "H" 
			},
			{
				"x": -4.9003677571,
				"y": 4.1018954263,
				"z": 3.8840080999,
				"element": "H" 
			},
			{
				"x": -3.6863719392,
				"y": 2.8062215368,
				"z": 3.9020222119,
				"element": "H" 
			}
		],
		 "valence_orbital": [ 
			{
				"type": "occ",
				"energy": -0.26736,
				"method": "rhf"
			},
			{
				"type": "occ",
				"energy": -0.24452,
				"method": "rhf"
			},
			{
				"type": "occ",
				"energy": -0.23856,
				"method": "rhf"
			},
			{
				"type": "occ",
				"energy": -0.21927,
				"method": "rhf"
			},
			{
				"type": "occ",
				"energy": -0.20293,
				"method": "rhf"
			},
			{
				"type": "unocc",
				"energy": -0.07952,
				"method": "rhf"
			},
			{
				"type": "unocc",
				"energy": -0.03187,
				"method": "rhf"
			},
			{
				"type": "unocc",
				"energy": -0.01092,
				"method": "rhf"
			},
			{
				"type": "unocc",
				"energy": 0.01779,
				"method": "rhf"
			},
			{
				"type": "unocc",
				"energy": 0.05137,
				"method": "rhf"
			}
		],
		"cosmo_sigma_profile": { 
			"-0.025": 0.0,
			"-0.024": 0.0,
			"-0.023": 0.0,
			"-0.022": 0.0,
			"-0.021": 0.0,
			"-0.02": 0.0,
			"-0.019": 0.0,
			"-0.018": 0.0,
			"-0.017": 0.0,
			"-0.016": 0.0,
			"-0.015": 0.0,
			"-0.014": 0.609242421657,
			"-0.013": 1.31082717096,
			"-0.012": 1.41202745346,
			"-0.011": 1.40889008035,
			"-0.01": 1.73905836435,
			"-0.009": 2.51669718645,
			"-0.008": 4.75142588148,
			"-0.007": 8.07959253554,
			"-0.006": 11.2849261994,
			"-0.005": 15.1223463408,
			"-0.004": 18.3672314646,
			"-0.003": 31.3806274653,
			"-0.002": 54.4517740738,
			"-0.001": 47.9197296058,
			"0.0": 48.8545284235,
			"0.001": 54.182119005,
			"0.002": 51.1357785598,
			"0.003": 21.0426166466,
			"0.004": 15.0985209533,
			"0.005": 11.3657177908,
			"0.006": 4.78860638369,
			"0.007": 3.12833516021,
			"0.008": 3.5865712812,
			"0.009": 3.19152954484,
			"0.01": 3.14263908604,
			"0.011": 2.76760068625,
			"0.012": 2.89877338762,
			"0.013": 4.56885739052,
			"0.014": 3.10505418473,
			"0.015": 0.903410925091,
			"0.016": 0.0,
			"0.017": 0.0,
			"0.018": 0.0,
			"0.019": 0.0,
			"0.02": 0.0,
			"0.021": 0.0,
			"0.022": 0.0,
			"0.023": 0.0,
			"0.024": 0.0,
			"0.025": 0.0
		}
	}
}
