{
	 "smiles": "OC(=O)C=CC1=CN(N=C1C1=CC=C(Cl)S1)C1=CC=CC=C1", 
	 "Tm": 474.15, 
	 "num_atms": 33, 
	 "gaussian": { 
		 "optdone": 1, 
		 "sigma_profile": "yes", 
		 "theory": "DFT", 
		 "functional": "B3LYP", 
		 "basiset": "6-31G**", 
		 "properties": { 
			 "R2extent": 13648.9964, 
			 "electric_dipole_moment_norm": 4.10007987971, 
			 "electric_quadrupole_moment_norm": 13.529382449, 
			 "total_energy": -1734.62975735, 
			 "HOMO_LUMO_gap": 0.14799, 
			 "cosmo_polarized_energy": -15.5, 
			 "cosmo_cavitation_energy": 42.94, 
			 "cosmo_dispersion_energy": -30.93, 
			 "cosmo_repulsion_energy": 2.32, 
			 "cosmo_total_nonelectrostatic_energy": 14.32, 
			 "SMD_solvation_energy": 7.52 
		},
		"coords": [
			{
				"x": 1.2826222749,
				"y": -6.3763598248,
				"z": 0.027982601,
				"element": "O" 
			},
			{
				"x": 1.459061442,
				"y": -5.7785269098,
				"z": -1.1819142839,
				"element": "C" 
			},
			{
				"x": 1.6863614493,
				"y": -6.4196783356,
				"z": -2.1913120226,
				"element": "O" 
			},
			{
				"x": 1.3510607519,
				"y": -4.3132553113,
				"z": -1.1420115222,
				"element": "C" 
			},
			{
				"x": 1.0979363,
				"y": -3.6058811613,
				"z": -0.0217276478,
				"element": "C" 
			},
			{
				"x": 0.9429764001,
				"y": -2.1666127473,
				"z": 0.0508652365,
				"element": "C" 
			},
			{
				"x": 0.7035648665,
				"y": -1.28668723,
				"z": -0.9970741972,
				"element": "C" 
			},
			{
				"x": 0.5629125507,
				"y": -0.0455866266,
				"z": -0.4659323604,
				"element": "N" 
			},
			{
				"x": 0.70174875,
				"y": -0.049748983,
				"z": 0.8839006533,
				"element": "N" 
			},
			{
				"x": 0.9254758881,
				"y": -1.3241166121,
				"z": 1.2151273956,
				"element": "C" 
			},
			{
				"x": 1.0994650396,
				"y": -1.6561198383,
				"z": 2.6251227515,
				"element": "C" 
			},
			{
				"x": 0.6245962324,
				"y": -0.9384223609,
				"z": 3.6987351874,
				"element": "C" 
			},
			{
				"x": 0.9955768102,
				"y": -1.4751762728,
				"z": 4.9625468232,
				"element": "C" 
			},
			{
				"x": 1.7607616756,
				"y": -2.6018043173,
				"z": 4.835343605,
				"element": "C" 
			},
			{
				"x": 2.4038809146,
				"y": -3.5757267111,
				"z": 6.1130566728,
				"element": "Cl" 
			},
			{
				"x": 2.0483202421,
				"y": -3.0279013388,
				"z": 3.1720524503,
				"element": "S" 
			},
			{
				"x": 0.2931547715,
				"y": 1.1716881908,
				"z": -1.1497144026,
				"element": "C" 
			},
			{
				"x": -0.2889792082,
				"y": 2.2346687892,
				"z": -0.4511762186,
				"element": "C" 
			},
			{
				"x": -0.564590889,
				"y": 3.4236691554,
				"z": -1.1226227435,
				"element": "C" 
			},
			{
				"x": -0.2717313916,
				"y": 3.5576822363,
				"z": -2.4817847979,
				"element": "C" 
			},
			{
				"x": 0.314424104,
				"y": 2.4931720448,
				"z": -3.1682556197,
				"element": "C" 
			},
			{
				"x": 0.6075660069,
				"y": 1.3013240482,
				"z": -2.5068564673,
				"element": "C" 
			},
			{
				"x": 1.384668182,
				"y": -7.327753107,
				"z": -0.1354213449,
				"element": "H" 
			},
			{
				"x": 1.5020746667,
				"y": -3.8384881716,
				"z": -2.1062480025,
				"element": "H" 
			},
			{
				"x": 0.9867050937,
				"y": -4.1572443884,
				"z": 0.907845447,
				"element": "H" 
			},
			{
				"x": 0.5690254468,
				"y": -1.4752483953,
				"z": -2.0504230863,
				"element": "H" 
			},
			{
				"x": 0.0222702575,
				"y": -0.0476518822,
				"z": 3.570512935,
				"element": "H" 
			},
			{
				"x": 0.7077165741,
				"y": -1.0558452505,
				"z": 5.91847968,
				"element": "H" 
			},
			{
				"x": -0.5122445742,
				"y": 2.1137381966,
				"z": 0.6014307207,
				"element": "H" 
			},
			{
				"x": -1.016861171,
				"y": 4.2478590753,
				"z": -0.5792330232,
				"element": "H" 
			},
			{
				"x": -0.4924478784,
				"y": 4.4856855511,
				"z": -2.9999710193,
				"element": "H" 
			},
			{
				"x": 0.5601573331,
				"y": 2.5909178843,
				"z": -4.2213125997,
				"element": "H" 
			},
			{
				"x": 1.0977710882,
				"y": 0.4931306043,
				"z": -3.0389107996,
				"element": "H" 
			}
		],
		 "valence_orbital": [ 
			{
				"type": "occ",
				"energy": -0.26878,
				"method": "rhf"
			},
			{
				"type": "occ",
				"energy": -0.26609,
				"method": "rhf"
			},
			{
				"type": "occ",
				"energy": -0.26227,
				"method": "rhf"
			},
			{
				"type": "occ",
				"energy": -0.24049,
				"method": "rhf"
			},
			{
				"type": "occ",
				"energy": -0.21493,
				"method": "rhf"
			},
			{
				"type": "unocc",
				"energy": -0.06694,
				"method": "rhf"
			},
			{
				"type": "unocc",
				"energy": -0.0513,
				"method": "rhf"
			},
			{
				"type": "unocc",
				"energy": -0.01984,
				"method": "rhf"
			},
			{
				"type": "unocc",
				"energy": -0.0132,
				"method": "rhf"
			},
			{
				"type": "unocc",
				"energy": 0.01111,
				"method": "rhf"
			}
		],
		"cosmo_sigma_profile": { 
			"-0.025": 0.0,
			"-0.024": 0.0,
			"-0.023": 0.0,
			"-0.022": 0.0,
			"-0.021": 0.0,
			"-0.02": 0.0,
			"-0.019": 0.0,
			"-0.018": 0.387594508758,
			"-0.017": 1.19186945275,
			"-0.016": 0.277486179926,
			"-0.015": 0.965233985712,
			"-0.014": 0.960909857707,
			"-0.013": 0.65561356885,
			"-0.012": 0.381710254195,
			"-0.011": 1.73889203285,
			"-0.01": 3.1061063312,
			"-0.009": 3.58509507828,
			"-0.008": 5.99620848172,
			"-0.007": 8.40667721375,
			"-0.006": 15.6520494623,
			"-0.005": 17.6597512246,
			"-0.004": 17.4097480812,
			"-0.003": 17.1264341106,
			"-0.002": 22.6126972006,
			"-0.001": 26.4025582107,
			"0.0": 32.3334151732,
			"0.001": 38.2147894347,
			"0.002": 39.9214616009,
			"0.003": 35.8344967628,
			"0.004": 22.2984806603,
			"0.005": 8.09663064218,
			"0.006": 4.6797321057,
			"0.007": 4.19012203902,
			"0.008": 3.83271422947,
			"0.009": 1.7935059579,
			"0.01": 3.136574884,
			"0.011": 2.84383149903,
			"0.012": 5.79730579309,
			"0.013": 2.93848989668,
			"0.014": 0.142735623485,
			"0.015": 0.0,
			"0.016": 0.0,
			"0.017": 0.0,
			"0.018": 0.0,
			"0.019": 0.0,
			"0.02": 0.0,
			"0.021": 0.0,
			"0.022": 0.0,
			"0.023": 0.0,
			"0.024": 0.0,
			"0.025": 0.0
		}
	}
}
