{
	 "smiles": "CC(C)Cl", 
	 "Tm": 155.15, 
	 "num_atms": 11, 
	 "gaussian": { 
		 "optdone": 1, 
		 "sigma_profile": "yes", 
		 "theory": "DFT", 
		 "functional": "B3LYP", 
		 "basiset": "6-31G**", 
		 "properties": { 
			 "R2extent": 1252.8186, 
			 "electric_dipole_moment_norm": 2.37152629966, 
			 "electric_quadrupole_moment_norm": 7.27781659566, 
			 "total_energy": -578.747616538, 
			 "HOMO_LUMO_gap": 0.31395, 
			 "cosmo_polarized_energy": -3.85, 
			 "cosmo_cavitation_energy": 15.15, 
			 "cosmo_dispersion_energy": -11.44, 
			 "cosmo_repulsion_energy": 1.04, 
			 "cosmo_total_nonelectrostatic_energy": 4.75, 
			 "SMD_solvation_energy": 2.56 
		},
		"coords": [
			{
				"x": -0.203104579,
				"y": -0.177180181,
				"z": -1.2798050043,
				"element": "C" 
			},
			{
				"x": 0.3338918169,
				"y": 0.9598766678,
				"z": -2.1385459968,
				"element": "C" 
			},
			{
				"x": 0.2096706109,
				"y": 2.3299865437,
				"z": -1.4858074485,
				"element": "C" 
			},
			{
				"x": 2.1041669856,
				"y": 0.6361836063,
				"z": -2.5309975761,
				"element": "Cl" 
			},
			{
				"x": -0.0870822282,
				"y": -1.1421096283,
				"z": -1.778753168,
				"element": "H" 
			},
			{
				"x": -1.2699911225,
				"y": -0.0137556998,
				"z": -1.0871175057,
				"element": "H" 
			},
			{
				"x": 0.3175561715,
				"y": -0.2185401789,
				"z": -0.3185906392,
				"element": "H" 
			},
			{
				"x": -0.1526702556,
				"y": 0.9596039059,
				"z": -3.116815362,
				"element": "H" 
			},
			{
				"x": -0.8482712748,
				"y": 2.5476620871,
				"z": -1.297505778,
				"element": "H" 
			},
			{
				"x": 0.6137980551,
				"y": 3.1154646122,
				"z": -2.1286175668,
				"element": "H" 
			},
			{
				"x": 0.7414358203,
				"y": 2.3556082651,
				"z": -0.5301439548,
				"element": "H" 
			}
		],
		 "valence_orbital": [ 
			{
				"type": "occ",
				"energy": -0.36955,
				"method": "rhf"
			},
			{
				"type": "occ",
				"energy": -0.36541,
				"method": "rhf"
			},
			{
				"type": "occ",
				"energy": -0.3553,
				"method": "rhf"
			},
			{
				"type": "occ",
				"energy": -0.28877,
				"method": "rhf"
			},
			{
				"type": "occ",
				"energy": -0.28853,
				"method": "rhf"
			},
			{
				"type": "unocc",
				"energy": 0.02542,
				"method": "rhf"
			},
			{
				"type": "unocc",
				"energy": 0.0878,
				"method": "rhf"
			},
			{
				"type": "unocc",
				"energy": 0.13028,
				"method": "rhf"
			},
			{
				"type": "unocc",
				"energy": 0.14411,
				"method": "rhf"
			},
			{
				"type": "unocc",
				"energy": 0.1485,
				"method": "rhf"
			}
		],
		"cosmo_sigma_profile": { 
			"-0.025": 0.0,
			"-0.024": 0.0,
			"-0.023": 0.0,
			"-0.022": 0.0,
			"-0.021": 0.0,
			"-0.02": 0.0,
			"-0.019": 0.0,
			"-0.018": 0.0,
			"-0.017": 0.0,
			"-0.016": 0.0,
			"-0.015": 0.0,
			"-0.014": 0.0,
			"-0.013": 0.0,
			"-0.012": 0.0,
			"-0.011": 0.0,
			"-0.01": 0.0,
			"-0.009": 0.0,
			"-0.008": 0.0,
			"-0.007": 0.244123099195,
			"-0.006": 2.39233126822,
			"-0.005": 7.0426826793,
			"-0.004": 14.2154767108,
			"-0.003": 14.63253009,
			"-0.002": 12.4706862526,
			"-0.001": 14.1077622751,
			"0.0": 13.9538046814,
			"0.001": 5.55010074642,
			"0.002": 4.36682216367,
			"0.003": 3.79582198635,
			"0.004": 3.99393504974,
			"0.005": 5.35793980911,
			"0.006": 6.02116757237,
			"0.007": 9.78872692195,
			"0.008": 2.22235868195,
			"0.009": 0.0,
			"0.01": 0.0,
			"0.011": 0.0,
			"0.012": 0.0,
			"0.013": 0.0,
			"0.014": 0.0,
			"0.015": 0.0,
			"0.016": 0.0,
			"0.017": 0.0,
			"0.018": 0.0,
			"0.019": 0.0,
			"0.02": 0.0,
			"0.021": 0.0,
			"0.022": 0.0,
			"0.023": 0.0,
			"0.024": 0.0,
			"0.025": 0.0
		}
	}
}
