{
	 "smiles": "CC1=CC=C(C=C1)[C@@H]1CC(=O)[C@H]([C@@H](N1)C1=CC=C(C)C=C1)C1=CC=CC=C1", 
	 "Tm": 421.0, 
	 "num_atms": 52, 
	 "gaussian": { 
		 "optdone": 1, 
		 "sigma_profile": "yes", 
		 "theory": "DFT", 
		 "functional": "B3LYP", 
		 "basiset": "6-31G**", 
		 "properties": { 
			 "R2extent": 11398.479, 
			 "electric_dipole_moment_norm": 2.82176875559, 
			 "electric_quadrupole_moment_norm": 8.3069920585, 
			 "total_energy": -1097.70723691, 
			 "HOMO_LUMO_gap": 0.19156, 
			 "cosmo_polarized_energy": -13.34, 
			 "cosmo_cavitation_energy": 51.99, 
			 "cosmo_dispersion_energy": -34.13, 
			 "cosmo_repulsion_energy": 2.59, 
			 "cosmo_total_nonelectrostatic_energy": 20.44, 
			 "SMD_solvation_energy": 7.71 
		},
		"coords": [
			{
				"x": -4.6735277623,
				"y": 2.0455197865,
				"z": 1.6198841119,
				"element": "C" 
			},
			{
				"x": -3.6334045144,
				"y": 1.7721549376,
				"z": 0.5593403997,
				"element": "C" 
			},
			{
				"x": -3.1553979294,
				"y": 0.4801883004,
				"z": 0.323402021,
				"element": "C" 
			},
			{
				"x": -2.17519158,
				"y": 0.2290264757,
				"z": -0.6406118483,
				"element": "C" 
			},
			{
				"x": -1.6367091752,
				"y": 1.2703289296,
				"z": -1.4042999405,
				"element": "C" 
			},
			{
				"x": -2.1300079876,
				"y": 2.5648203698,
				"z": -1.1785094854,
				"element": "C" 
			},
			{
				"x": -3.102911616,
				"y": 2.8139555699,
				"z": -0.2159145202,
				"element": "C" 
			},
			{
				"x": -0.584979718,
				"y": 1.0781460523,
				"z": -2.5059603963,
				"element": "C" 
			},
			{
				"x": -0.3101370155,
				"y": -0.3922080548,
				"z": -2.8859469664,
				"element": "C" 
			},
			{
				"x": 0.6136386926,
				"y": -1.069010955,
				"z": -1.8938065075,
				"element": "C" 
			},
			{
				"x": 0.3542534995,
				"y": -2.133861507,
				"z": -1.3611658864,
				"element": "O" 
			},
			{
				"x": 1.9258521707,
				"y": -0.3239509993,
				"z": -1.61287213,
				"element": "C" 
			},
			{
				"x": 1.6755773436,
				"y": 1.179348831,
				"z": -1.317308304,
				"element": "C" 
			},
			{
				"x": 0.7189441609,
				"y": 1.740525399,
				"z": -2.2976003823,
				"element": "N" 
			},
			{
				"x": 1.3665284297,
				"y": 1.4812151678,
				"z": 0.1547353179,
				"element": "C" 
			},
			{
				"x": 0.8370884505,
				"y": 0.5551752097,
				"z": 1.0615474861,
				"element": "C" 
			},
			{
				"x": 0.5809883695,
				"y": 0.9162971288,
				"z": 2.3854825391,
				"element": "C" 
			},
			{
				"x": 0.8457985293,
				"y": 2.207237186,
				"z": 2.8554551515,
				"element": "C" 
			},
			{
				"x": 0.5978298043,
				"y": 2.5826210127,
				"z": 4.2975070413,
				"element": "C" 
			},
			{
				"x": 1.3798934639,
				"y": 3.1330463084,
				"z": 1.9490496975,
				"element": "C" 
			},
			{
				"x": 1.6400034579,
				"y": 2.7727418337,
				"z": 0.6292504295,
				"element": "C" 
			},
			{
				"x": 2.8962484339,
				"y": -0.5993264348,
				"z": -2.7646855128,
				"element": "C" 
			},
			{
				"x": 3.084382512,
				"y": 0.2830712034,
				"z": -3.8378918876,
				"element": "C" 
			},
			{
				"x": 3.9854078608,
				"y": -0.0275829165,
				"z": -4.8590669067,
				"element": "C" 
			},
			{
				"x": 4.7019425755,
				"y": -1.2245518744,
				"z": -4.8311338453,
				"element": "C" 
			},
			{
				"x": 4.5114172596,
				"y": -2.1149206665,
				"z": -3.7723367719,
				"element": "C" 
			},
			{
				"x": 3.6157949515,
				"y": -1.8039587197,
				"z": -2.7498934503,
				"element": "C" 
			},
			{
				"x": -5.2033827101,
				"y": 1.1322303711,
				"z": 1.9054794241,
				"element": "H" 
			},
			{
				"x": -5.4158504673,
				"y": 2.7735594622,
				"z": 1.2761805985,
				"element": "H" 
			},
			{
				"x": -4.215678106,
				"y": 2.4569737836,
				"z": 2.5282296697,
				"element": "H" 
			},
			{
				"x": -3.554920056,
				"y": -0.3504330308,
				"z": 0.9005430135,
				"element": "H" 
			},
			{
				"x": -1.8368508183,
				"y": -0.7918646258,
				"z": -0.783202088,
				"element": "H" 
			},
			{
				"x": -1.755532369,
				"y": 3.3944081593,
				"z": -1.7762262278,
				"element": "H" 
			},
			{
				"x": -3.4654087972,
				"y": 3.8289924306,
				"z": -0.0697318368,
				"element": "H" 
			},
			{
				"x": -0.9993142051,
				"y": 1.5632094821,
				"z": -3.3999792087,
				"element": "H" 
			},
			{
				"x": 0.2020568315,
				"y": -0.3888011906,
				"z": -3.8547576131,
				"element": "H" 
			},
			{
				"x": -1.2302495805,
				"y": -0.970612011,
				"z": -2.9839090387,
				"element": "H" 
			},
			{
				"x": 2.348441369,
				"y": -0.7863487445,
				"z": -0.7180102727,
				"element": "H" 
			},
			{
				"x": 2.6199972737,
				"y": 1.6965471173,
				"z": -1.5312443269,
				"element": "H" 
			},
			{
				"x": 0.5753671787,
				"y": 2.7254699441,
				"z": -2.0944730533,
				"element": "H" 
			},
			{
				"x": 0.6146031748,
				"y": -0.4590071759,
				"z": 0.7468883268,
				"element": "H" 
			},
			{
				"x": 0.1653772282,
				"y": 0.1759685425,
				"z": 3.0649730978,
				"element": "H" 
			},
			{
				"x": 0.279728154,
				"y": 3.6258126538,
				"z": 4.3913271601,
				"element": "H" 
			},
			{
				"x": 1.5068437135,
				"y": 2.4662894045,
				"z": 4.9013059284,
				"element": "H" 
			},
			{
				"x": -0.1740543159,
				"y": 1.9515058852,
				"z": 4.7478853587,
				"element": "H" 
			},
			{
				"x": 1.6044298098,
				"y": 4.143284188,
				"z": 2.2837853845,
				"element": "H" 
			},
			{
				"x": 2.072734353,
				"y": 3.509645186,
				"z": -0.0456710571,
				"element": "H" 
			},
			{
				"x": 2.5111687417,
				"y": 1.204357689,
				"z": -3.8723634905,
				"element": "H" 
			},
			{
				"x": 4.1237082247,
				"y": 0.6697793521,
				"z": -5.6809227314,
				"element": "H" 
			},
			{
				"x": 5.4012892981,
				"y": -1.4630319745,
				"z": -5.6274279177,
				"element": "H" 
			},
			{
				"x": 5.0625943285,
				"y": -3.0505648797,
				"z": -3.7395339231,
				"element": "H" 
			},
			{
				"x": 3.4683790789,
				"y": -2.500817593,
				"z": -1.9288946296,
				"element": "H" 
			}
		],
		 "valence_orbital": [ 
			{
				"type": "occ",
				"energy": -0.24519,
				"method": "rhf"
			},
			{
				"type": "occ",
				"energy": -0.23971,
				"method": "rhf"
			},
			{
				"type": "occ",
				"energy": -0.22862,
				"method": "rhf"
			},
			{
				"type": "occ",
				"energy": -0.22428,
				"method": "rhf"
			},
			{
				"type": "occ",
				"energy": -0.22052,
				"method": "rhf"
			},
			{
				"type": "unocc",
				"energy": -0.02896,
				"method": "rhf"
			},
			{
				"type": "unocc",
				"energy": -0.0059,
				"method": "rhf"
			},
			{
				"type": "unocc",
				"energy": -0.00291,
				"method": "rhf"
			},
			{
				"type": "unocc",
				"energy": 0.00065,
				"method": "rhf"
			},
			{
				"type": "unocc",
				"energy": 0.00767,
				"method": "rhf"
			}
		],
		"cosmo_sigma_profile": { 
			"-0.025": 0.0,
			"-0.024": 0.0,
			"-0.023": 0.0,
			"-0.022": 0.0,
			"-0.021": 0.0,
			"-0.02": 0.0,
			"-0.019": 0.0,
			"-0.018": 0.0,
			"-0.017": 0.0,
			"-0.016": 0.0,
			"-0.015": 0.0,
			"-0.014": 0.0,
			"-0.013": 0.0,
			"-0.012": 0.0,
			"-0.011": 0.0,
			"-0.01": 0.526644824327,
			"-0.009": 1.95837782234,
			"-0.008": 2.69402135238,
			"-0.007": 2.45248670449,
			"-0.006": 7.17995520757,
			"-0.005": 26.6006310508,
			"-0.004": 43.6218142411,
			"-0.003": 48.2958555863,
			"-0.002": 42.5236406709,
			"-0.001": 35.4546617121,
			"0.0": 38.4030612307,
			"0.001": 27.6343945348,
			"0.002": 23.5245410264,
			"0.003": 21.2045541579,
			"0.004": 21.4370265804,
			"0.005": 21.8756739299,
			"0.006": 22.0420379243,
			"0.007": 8.18291917485,
			"0.008": 3.85293751672,
			"0.009": 2.45600889987,
			"0.01": 1.62366740002,
			"0.011": 3.04366109903,
			"0.012": 3.42225765165,
			"0.013": 0.882245637007,
			"0.014": 0.0,
			"0.015": 0.0,
			"0.016": 0.0,
			"0.017": 0.0,
			"0.018": 0.0,
			"0.019": 0.0,
			"0.02": 0.0,
			"0.021": 0.0,
			"0.022": 0.0,
			"0.023": 0.0,
			"0.024": 0.0,
			"0.025": 0.0
		}
	}
}
