{
	 "smiles": "CCC1(C)CC1", 
	 "Tm": 143.15, 
	 "num_atms": 18, 
	 "gaussian": { 
		 "optdone": 1, 
		 "sigma_profile": "yes", 
		 "theory": "DFT", 
		 "functional": "B3LYP", 
		 "basiset": "6-31G**", 
		 "properties": { 
			 "R2extent": 913.9772, 
			 "electric_dipole_moment_norm": 0.11248262088, 
			 "electric_quadrupole_moment_norm": 1.25229335221, 
			 "total_energy": -235.854353011, 
			 "HOMO_LUMO_gap": 0.34957, 
			 "cosmo_polarized_energy": -1.2, 
			 "cosmo_cavitation_energy": 19.41, 
			 "cosmo_dispersion_energy": -14.02, 
			 "cosmo_repulsion_energy": 1.2, 
			 "cosmo_total_nonelectrostatic_energy": 6.58, 
			 "SMD_solvation_energy": 3.34 
		},
		"coords": [
			{
				"x": 0.0974267544,
				"y": 0.8765934098,
				"z": -2.3523057269,
				"element": "C" 
			},
			{
				"x": 0.0119384656,
				"y": 0.7579690324,
				"z": -0.8248661452,
				"element": "C" 
			},
			{
				"x": 1.1898588745,
				"y": 0.0314847175,
				"z": -0.1819630005,
				"element": "C" 
			},
			{
				"x": 1.3404316325,
				"y": -1.4338505294,
				"z": -0.5575470133,
				"element": "C" 
			},
			{
				"x": 1.5657768978,
				"y": 0.4296894767,
				"z": 1.227364899,
				"element": "C" 
			},
			{
				"x": 2.451109737,
				"y": 0.8293093716,
				"z": 0.067052322,
				"element": "C" 
			},
			{
				"x": 0.0868961458,
				"y": -0.1045783384,
				"z": -2.8379266749,
				"element": "H" 
			},
			{
				"x": -0.7490131572,
				"y": 1.4470371847,
				"z": -2.7488293231,
				"element": "H" 
			},
			{
				"x": 1.0180125745,
				"y": 1.3870938848,
				"z": -2.6556786805,
				"element": "H" 
			},
			{
				"x": -0.9191679486,
				"y": 0.2425967564,
				"z": -0.5492267673,
				"element": "H" 
			},
			{
				"x": -0.0595210203,
				"y": 1.7642972815,
				"z": -0.3926053628,
				"element": "H" 
			},
			{
				"x": 0.4369874281,
				"y": -2.0006557336,
				"z": -0.3002432197,
				"element": "H" 
			},
			{
				"x": 2.1816193972,
				"y": -1.8924491932,
				"z": -0.0275674888,
				"element": "H" 
			},
			{
				"x": 1.520263672,
				"y": -1.5625788226,
				"z": -1.6307809604,
				"element": "H" 
			},
			{
				"x": 1.9249052527,
				"y": -0.3430095324,
				"z": 1.901843112,
				"element": "H" 
			},
			{
				"x": 0.983607259,
				"y": 1.2063283234,
				"z": 1.7163015108,
				"element": "H" 
			},
			{
				"x": 3.4095654464,
				"y": 0.3290067418,
				"z": -0.0419171981,
				"element": "H" 
			},
			{
				"x": 2.4644025886,
				"y": 1.875815969,
				"z": -0.2262042824,
				"element": "H" 
			}
		],
		 "valence_orbital": [ 
			{
				"type": "occ",
				"energy": -0.35089,
				"method": "rhf"
			},
			{
				"type": "occ",
				"energy": -0.33939,
				"method": "rhf"
			},
			{
				"type": "occ",
				"energy": -0.32054,
				"method": "rhf"
			},
			{
				"type": "occ",
				"energy": -0.27663,
				"method": "rhf"
			},
			{
				"type": "occ",
				"energy": -0.26198,
				"method": "rhf"
			},
			{
				"type": "unocc",
				"energy": 0.08759,
				"method": "rhf"
			},
			{
				"type": "unocc",
				"energy": 0.11751,
				"method": "rhf"
			},
			{
				"type": "unocc",
				"energy": 0.12255,
				"method": "rhf"
			},
			{
				"type": "unocc",
				"energy": 0.13134,
				"method": "rhf"
			},
			{
				"type": "unocc",
				"energy": 0.14314,
				"method": "rhf"
			}
		],
		"cosmo_sigma_profile": { 
			"-0.025": 0.0,
			"-0.024": 0.0,
			"-0.023": 0.0,
			"-0.022": 0.0,
			"-0.021": 0.0,
			"-0.02": 0.0,
			"-0.019": 0.0,
			"-0.018": 0.0,
			"-0.017": 0.0,
			"-0.016": 0.0,
			"-0.015": 0.0,
			"-0.014": 0.0,
			"-0.013": 0.0,
			"-0.012": 0.0,
			"-0.011": 0.0,
			"-0.01": 0.0,
			"-0.009": 0.0,
			"-0.008": 0.0,
			"-0.007": 0.0,
			"-0.006": 0.0,
			"-0.005": 0.0,
			"-0.004": 2.75729952798,
			"-0.003": 15.5628433025,
			"-0.002": 23.6681402178,
			"-0.001": 21.776885449,
			"0.0": 25.7559812521,
			"0.001": 27.2359061306,
			"0.002": 16.3423970766,
			"0.003": 6.77306447394,
			"0.004": 4.9082938095,
			"0.005": 3.26096870319,
			"0.006": 1.3879835871,
			"0.007": 0.423957307536,
			"0.008": 0.0,
			"0.009": 0.0,
			"0.01": 0.0,
			"0.011": 0.0,
			"0.012": 0.0,
			"0.013": 0.0,
			"0.014": 0.0,
			"0.015": 0.0,
			"0.016": 0.0,
			"0.017": 0.0,
			"0.018": 0.0,
			"0.019": 0.0,
			"0.02": 0.0,
			"0.021": 0.0,
			"0.022": 0.0,
			"0.023": 0.0,
			"0.024": 0.0,
			"0.025": 0.0
		}
	}
}
