{
	 "smiles": "NC1=C(C=C(OC2CCCCC2)C(F)=C1)C(O)=O", 
	 "Tm": 433.15, 
	 "num_atms": 34, 
	 "gaussian": { 
		 "optdone": 1, 
		 "sigma_profile": "yes", 
		 "theory": "DFT", 
		 "functional": "B3LYP", 
		 "basiset": "6-31G**", 
		 "properties": { 
			 "R2extent": 6071.0338, 
			 "electric_dipole_moment_norm": 5.81720154885, 
			 "electric_quadrupole_moment_norm": 31.4470472641, 
			 "total_energy": -885.2932704, 
			 "HOMO_LUMO_gap": 0.19874, 
			 "cosmo_polarized_energy": -18.6, 
			 "cosmo_cavitation_energy": 35.67, 
			 "cosmo_dispersion_energy": -25.9, 
			 "cosmo_repulsion_energy": 1.99, 
			 "cosmo_total_nonelectrostatic_energy": 11.76, 
			 "SMD_solvation_energy": 7.12 
		},
		"coords": [
			{
				"x": -1.4572090829,
				"y": 3.990316731,
				"z": -2.7724416296,
				"element": "N" 
			},
			{
				"x": -0.9302083219,
				"y": 3.1288931135,
				"z": -1.7489978759,
				"element": "C" 
			},
			{
				"x": 0.450816034,
				"y": 2.8519147758,
				"z": -1.7112436354,
				"element": "C" 
			},
			{
				"x": 0.9447077378,
				"y": 1.9975320351,
				"z": -0.7160347066,
				"element": "C" 
			},
			{
				"x": 0.1217649013,
				"y": 1.4291959087,
				"z": 0.2552638918,
				"element": "C" 
			},
			{
				"x": 0.631002126,
				"y": 0.6939565665,
				"z": 1.2890033048,
				"element": "O" 
			},
			{
				"x": 0.7155260766,
				"y": -0.7559274935,
				"z": 1.1849954368,
				"element": "C" 
			},
			{
				"x": -0.6387157734,
				"y": -1.4471568327,
				"z": 1.01832232,
				"element": "C" 
			},
			{
				"x": -0.4903134432,
				"y": -2.97176957,
				"z": 1.2591686351,
				"element": "C" 
			},
			{
				"x": 0.9038992699,
				"y": -3.5086900781,
				"z": 0.8532422196,
				"element": "C" 
			},
			{
				"x": 1.4941511945,
				"y": -2.6913643956,
				"z": -0.3034311587,
				"element": "C" 
			},
			{
				"x": 1.7093606605,
				"y": -1.2100174918,
				"z": 0.0986574571,
				"element": "C" 
			},
			{
				"x": -1.2399976526,
				"y": 1.7668102472,
				"z": 0.2170995827,
				"element": "C" 
			},
			{
				"x": -2.0699521667,
				"y": 1.2793651967,
				"z": 1.1565339044,
				"element": "F" 
			},
			{
				"x": -1.7684127247,
				"y": 2.5847814883,
				"z": -0.7718479223,
				"element": "C" 
			},
			{
				"x": 1.4789307367,
				"y": 3.4578704388,
				"z": -2.6387340083,
				"element": "C" 
			},
			{
				"x": 1.0809447284,
				"y": 4.489111594,
				"z": -3.4017327853,
				"element": "O" 
			},
			{
				"x": 2.621005332,
				"y": 3.0516129891,
				"z": -2.6759195906,
				"element": "O" 
			},
			{
				"x": -1.5959901731,
				"y": 3.4913940648,
				"z": -3.6495129731,
				"element": "H" 
			},
			{
				"x": -2.3470346194,
				"y": 4.395458692,
				"z": -2.4989619668,
				"element": "H" 
			},
			{
				"x": 2.0114186101,
				"y": 1.8079997421,
				"z": -0.6920323304,
				"element": "H" 
			},
			{
				"x": 1.1121171824,
				"y": -1.0153860302,
				"z": 2.1719192041,
				"element": "H" 
			},
			{
				"x": -1.3644416545,
				"y": -1.0144039726,
				"z": 1.710061563,
				"element": "H" 
			},
			{
				"x": -1.0147525142,
				"y": -1.2607919298,
				"z": 0.0041581068,
				"element": "H" 
			},
			{
				"x": -1.2698510679,
				"y": -3.4952539375,
				"z": 0.6943055783,
				"element": "H" 
			},
			{
				"x": -0.6740084674,
				"y": -3.1976440098,
				"z": 2.3158357802,
				"element": "H" 
			},
			{
				"x": 1.5883735213,
				"y": -3.4600574207,
				"z": 1.7102539771,
				"element": "H" 
			},
			{
				"x": 0.8344921594,
				"y": -4.5675941699,
				"z": 0.5812090117,
				"element": "H" 
			},
			{
				"x": 0.8096171083,
				"y": -2.7460382768,
				"z": -1.1595881616,
				"element": "H" 
			},
			{
				"x": 2.440563952,
				"y": -3.1251881517,
				"z": -0.6430617963,
				"element": "H" 
			},
			{
				"x": 2.7306786088,
				"y": -1.049308094,
				"z": 0.4610906707,
				"element": "H" 
			},
			{
				"x": 1.5883413103,
				"y": -0.5779424206,
				"z": -0.7866484619,
				"element": "H" 
			},
			{
				"x": -2.8355975603,
				"y": 2.7844306837,
				"z": -0.7697829923,
				"element": "H" 
			},
			{
				"x": 0.1265739716,
				"y": 4.6752900081,
				"z": -3.222748649,
				"element": "H" 
			}
		],
		 "valence_orbital": [ 
			{
				"type": "occ",
				"energy": -0.2963,
				"method": "rhf"
			},
			{
				"type": "occ",
				"energy": -0.27158,
				"method": "rhf"
			},
			{
				"type": "occ",
				"energy": -0.26485,
				"method": "rhf"
			},
			{
				"type": "occ",
				"energy": -0.25828,
				"method": "rhf"
			},
			{
				"type": "occ",
				"energy": -0.24157,
				"method": "rhf"
			},
			{
				"type": "unocc",
				"energy": -0.04283,
				"method": "rhf"
			},
			{
				"type": "unocc",
				"energy": -0.0209,
				"method": "rhf"
			},
			{
				"type": "unocc",
				"energy": 0.05399,
				"method": "rhf"
			},
			{
				"type": "unocc",
				"energy": 0.05819,
				"method": "rhf"
			},
			{
				"type": "unocc",
				"energy": 0.07582,
				"method": "rhf"
			}
		],
		"cosmo_sigma_profile": { 
			"-0.025": 0.0,
			"-0.024": 0.0,
			"-0.023": 0.0,
			"-0.022": 0.0,
			"-0.021": 0.0,
			"-0.02": 0.0,
			"-0.019": 0.0,
			"-0.018": 0.0,
			"-0.017": 0.0,
			"-0.016": 0.0,
			"-0.015": 0.0,
			"-0.014": 1.01012384476,
			"-0.013": 3.83083919865,
			"-0.012": 3.57218805569,
			"-0.011": 4.59852092341,
			"-0.01": 2.75772671329,
			"-0.009": 3.56239990908,
			"-0.008": 3.13929118777,
			"-0.007": 3.37249241411,
			"-0.006": 3.25383148109,
			"-0.005": 5.45898676346,
			"-0.004": 9.35350356333,
			"-0.003": 23.0609041938,
			"-0.002": 37.2084956958,
			"-0.001": 36.8629724649,
			"0.0": 32.7683787291,
			"0.001": 29.8101787229,
			"0.002": 15.1668565498,
			"0.003": 9.3203360088,
			"0.004": 9.50162959,
			"0.005": 3.82298462771,
			"0.006": 4.57710943843,
			"0.007": 3.18940423116,
			"0.008": 3.87659482373,
			"0.009": 4.12578195285,
			"0.01": 4.46864883298,
			"0.011": 6.01651125805,
			"0.012": 7.20126458292,
			"0.013": 3.81451989238,
			"0.014": 1.23658106459,
			"0.015": 0.00545335439777,
			"0.016": 0.0,
			"0.017": 0.0,
			"0.018": 0.0,
			"0.019": 0.0,
			"0.02": 0.0,
			"0.021": 0.0,
			"0.022": 0.0,
			"0.023": 0.0,
			"0.024": 0.0,
			"0.025": 0.0
		}
	}
}
