{
	 "smiles": "[O-][N+](=O)C1=CC(=C(NN=CC2=C(CCCC2)C=C)C=C1)[N+]([O-])=O", 
	 "Tm": 425.15, 
	 "num_atms": 39, 
	 "gaussian": { 
		 "optdone": 1, 
		 "sigma_profile": "yes", 
		 "theory": "DFT", 
		 "functional": "B3LYP", 
		 "basiset": "6-31G**", 
		 "properties": { 
			 "R2extent": 11846.0102, 
			 "electric_dipole_moment_norm": 9.05432430775, 
			 "electric_quadrupole_moment_norm": 20.4741308722, 
			 "total_energy": -1100.89305547, 
			 "HOMO_LUMO_gap": 0.11817, 
			 "cosmo_polarized_energy": -14.6, 
			 "cosmo_cavitation_energy": 43.98, 
			 "cosmo_dispersion_energy": -31.11, 
			 "cosmo_repulsion_energy": 2.37, 
			 "cosmo_total_nonelectrostatic_energy": 15.24, 
			 "SMD_solvation_energy": 11.19 
		},
		"coords": [
			{
				"x": -1.9700212339,
				"y": 5.7086865868,
				"z": -3.6203757167,
				"element": "O" 
			},
			{
				"x": -2.2665905178,
				"y": 5.2050781683,
				"z": -2.5361027888,
				"element": "N" 
			},
			{
				"x": -3.1234111283,
				"y": 5.6462942888,
				"z": -1.7666526738,
				"element": "O" 
			},
			{
				"x": -1.555541776,
				"y": 3.9984003321,
				"z": -2.1265103772,
				"element": "C" 
			},
			{
				"x": -0.5872756361,
				"y": 3.4688021208,
				"z": -2.9568412453,
				"element": "C" 
			},
			{
				"x": 0.0955648594,
				"y": 2.3144719356,
				"z": -2.5690015833,
				"element": "C" 
			},
			{
				"x": -0.1912367303,
				"y": 1.6690626365,
				"z": -1.324154615,
				"element": "C" 
			},
			{
				"x": 0.4533604616,
				"y": 0.5449861265,
				"z": -0.9175417582,
				"element": "N" 
			},
			{
				"x": 0.154190378,
				"y": -0.0447355682,
				"z": 0.2736212701,
				"element": "N" 
			},
			{
				"x": 0.843135292,
				"y": -1.1008093999,
				"z": 0.5633287541,
				"element": "C" 
			},
			{
				"x": 0.5859660421,
				"y": -1.8511342164,
				"z": 1.7821856449,
				"element": "C" 
			},
			{
				"x": 1.4013695475,
				"y": -2.8765837476,
				"z": 2.1669168718,
				"element": "C" 
			},
			{
				"x": 1.0709069302,
				"y": -3.753284831,
				"z": 3.3647383918,
				"element": "C" 
			},
			{
				"x": 0.0318503358,
				"y": -3.1477207663,
				"z": 4.3141925733,
				"element": "C" 
			},
			{
				"x": -1.1385215507,
				"y": -2.564782987,
				"z": 3.5211736007,
				"element": "C" 
			},
			{
				"x": -0.6515489761,
				"y": -1.46305485,
				"z": 2.5743841896,
				"element": "C" 
			},
			{
				"x": 2.6410451913,
				"y": -3.2764490715,
				"z": 1.4760450004,
				"element": "C" 
			},
			{
				"x": 3.6436228384,
				"y": -2.4765144289,
				"z": 1.0891385397,
				"element": "C" 
			},
			{
				"x": -1.1963961407,
				"y": 2.2558909553,
				"z": -0.5059446096,
				"element": "C" 
			},
			{
				"x": -1.8642949686,
				"y": 3.3931532344,
				"z": -0.8954384205,
				"element": "C" 
			},
			{
				"x": 1.0997969108,
				"y": 1.8176728468,
				"z": -3.4931466025,
				"element": "N" 
			},
			{
				"x": 1.7363141211,
				"y": 0.7892829371,
				"z": -3.1862701758,
				"element": "O" 
			},
			{
				"x": 1.2873141439,
				"y": 2.4267723728,
				"z": -4.5427887803,
				"element": "O" 
			},
			{
				"x": -0.35233192,
				"y": 3.9375953637,
				"z": -3.9023866405,
				"element": "H" 
			},
			{
				"x": 1.1656604729,
				"y": 0.1736869627,
				"z": -1.547748271,
				"element": "H" 
			},
			{
				"x": 1.618546613,
				"y": -1.4691935125,
				"z": -0.113409822,
				"element": "H" 
			},
			{
				"x": 0.7111863145,
				"y": -4.7233634781,
				"z": 2.985562635,
				"element": "H" 
			},
			{
				"x": 1.9970801115,
				"y": -3.9788163475,
				"z": 3.9075577376,
				"element": "H" 
			},
			{
				"x": -0.3110623417,
				"y": -3.9097544789,
				"z": 5.0227539907,
				"element": "H" 
			},
			{
				"x": 0.5006394595,
				"y": -2.3521620625,
				"z": 4.9081226478,
				"element": "H" 
			},
			{
				"x": -1.6171619917,
				"y": -3.363737154,
				"z": 2.9391612209,
				"element": "H" 
			},
			{
				"x": -1.9046681849,
				"y": -2.1635187487,
				"z": 4.1936298922,
				"element": "H" 
			},
			{
				"x": -0.4260319369,
				"y": -0.5508088418,
				"z": 3.1454889149,
				"element": "H" 
			},
			{
				"x": -1.4439499848,
				"y": -1.1776126482,
				"z": 1.8759808723,
				"element": "H" 
			},
			{
				"x": 2.7695282118,
				"y": -4.3543473234,
				"z": 1.3568395426,
				"element": "H" 
			},
			{
				"x": 3.6192136263,
				"y": -1.4029649534,
				"z": 1.2511917964,
				"element": "H" 
			},
			{
				"x": 4.5365716053,
				"y": -2.8812375495,
				"z": 0.6226596483,
				"element": "H" 
			},
			{
				"x": -1.4160563432,
				"y": 1.7743586631,
				"z": 0.436989142,
				"element": "H" 
			},
			{
				"x": -2.6287621052,
				"y": 3.8361914342,
				"z": -0.2691487966,
				"element": "H" 
			}
		],
		 "valence_orbital": [ 
			{
				"type": "occ",
				"energy": -0.29482,
				"method": "rhf"
			},
			{
				"type": "occ",
				"energy": -0.2893,
				"method": "rhf"
			},
			{
				"type": "occ",
				"energy": -0.28747,
				"method": "rhf"
			},
			{
				"type": "occ",
				"energy": -0.26396,
				"method": "rhf"
			},
			{
				"type": "occ",
				"energy": -0.21926,
				"method": "rhf"
			},
			{
				"type": "unocc",
				"energy": -0.10109,
				"method": "rhf"
			},
			{
				"type": "unocc",
				"energy": -0.08884,
				"method": "rhf"
			},
			{
				"type": "unocc",
				"energy": -0.05784,
				"method": "rhf"
			},
			{
				"type": "unocc",
				"energy": -0.01751,
				"method": "rhf"
			},
			{
				"type": "unocc",
				"energy": -0.00363,
				"method": "rhf"
			}
		],
		"cosmo_sigma_profile": { 
			"-0.025": 0.0,
			"-0.024": 0.0,
			"-0.023": 0.0,
			"-0.022": 0.0,
			"-0.021": 0.0,
			"-0.02": 0.0,
			"-0.019": 0.0,
			"-0.018": 0.0,
			"-0.017": 0.0,
			"-0.016": 0.0,
			"-0.015": 0.0,
			"-0.014": 0.00229735835077,
			"-0.013": 0.545718950802,
			"-0.012": 0.780969014521,
			"-0.011": 0.661416881993,
			"-0.01": 0.772892173214,
			"-0.009": 2.0779613604,
			"-0.008": 2.04041476187,
			"-0.007": 4.56665171065,
			"-0.006": 10.9094671643,
			"-0.005": 16.8598164942,
			"-0.004": 23.2715321847,
			"-0.003": 33.7485084917,
			"-0.002": 47.7284683967,
			"-0.001": 45.6898352065,
			"0.0": 36.4592525743,
			"0.001": 26.5470666637,
			"0.002": 14.7009336538,
			"0.003": 12.2749193301,
			"0.004": 10.4696698016,
			"0.005": 8.68557589952,
			"0.006": 8.50597543974,
			"0.007": 12.1187392767,
			"0.008": 14.3699308197,
			"0.009": 9.0027415784,
			"0.01": 6.39240492105,
			"0.011": 0.770448421608,
			"0.012": 0.0,
			"0.013": 0.0,
			"0.014": 0.0,
			"0.015": 0.0,
			"0.016": 0.0,
			"0.017": 0.0,
			"0.018": 0.0,
			"0.019": 0.0,
			"0.02": 0.0,
			"0.021": 0.0,
			"0.022": 0.0,
			"0.023": 0.0,
			"0.024": 0.0,
			"0.025": 0.0
		}
	}
}
