{
	 "smiles": "C1CN=C(N1)C1=NC=CC=C1", 
	 "Tm": 423.15, 
	 "num_atms": 20, 
	 "gaussian": { 
		 "optdone": 1, 
		 "sigma_profile": "yes", 
		 "theory": "DFT", 
		 "functional": "B3LYP", 
		 "basiset": "6-31G**", 
		 "properties": { 
			 "R2extent": 2016.0181, 
			 "electric_dipole_moment_norm": 1.50882654073, 
			 "electric_quadrupole_moment_norm": 12.0227662965, 
			 "total_energy": -474.521237253, 
			 "HOMO_LUMO_gap": 0.16599, 
			 "cosmo_polarized_energy": -9.19, 
			 "cosmo_cavitation_energy": 23.42, 
			 "cosmo_dispersion_energy": -17.99, 
			 "cosmo_repulsion_energy": 1.45, 
			 "cosmo_total_nonelectrostatic_energy": 6.89, 
			 "SMD_solvation_energy": -1.27 
		},
		"coords": [
			{
				"x": -0.6392583516,
				"y": -2.3317693847,
				"z": 1.6053290575,
				"element": "C" 
			},
			{
				"x": 0.126892978,
				"y": -1.2959240404,
				"z": 2.4772595924,
				"element": "C" 
			},
			{
				"x": 0.3058887725,
				"y": -0.1064803795,
				"z": 1.6254141675,
				"element": "N" 
			},
			{
				"x": -0.4788199209,
				"y": -0.2814245119,
				"z": 0.6178876274,
				"element": "C" 
			},
			{
				"x": -1.2317895121,
				"y": -1.4419980891,
				"z": 0.6034381583,
				"element": "N" 
			},
			{
				"x": -0.622033144,
				"y": 0.6888388401,
				"z": -0.4913381058,
				"element": "C" 
			},
			{
				"x": -1.3691294245,
				"y": 0.2917892209,
				"z": -1.5356356243,
				"element": "N" 
			},
			{
				"x": -1.5061399726,
				"y": 1.1426128372,
				"z": -2.5589005757,
				"element": "C" 
			},
			{
				"x": -0.916977973,
				"y": 2.406810078,
				"z": -2.5929015171,
				"element": "C" 
			},
			{
				"x": -0.1394914417,
				"y": 2.806960135,
				"z": -1.5038004112,
				"element": "C" 
			},
			{
				"x": 0.0142639238,
				"y": 1.9348298522,
				"z": -0.4313384771,
				"element": "C" 
			},
			{
				"x": -1.4025807058,
				"y": -2.8824725784,
				"z": 2.1628368725,
				"element": "H" 
			},
			{
				"x": 0.0460685935,
				"y": -3.0606102545,
				"z": 1.1462773877,
				"element": "H" 
			},
			{
				"x": 1.0916010583,
				"y": -1.6701185572,
				"z": 2.8336091371,
				"element": "H" 
			},
			{
				"x": -0.4608765675,
				"y": -1.015468548,
				"z": 3.3629097598,
				"element": "H" 
			},
			{
				"x": -1.542003773,
				"y": -1.7802143601,
				"z": -0.2976023121,
				"element": "H" 
			},
			{
				"x": -2.1158747054,
				"y": 0.7961148364,
				"z": -3.3913509416,
				"element": "H" 
			},
			{
				"x": -1.064337096,
				"y": 3.0562027379,
				"z": -3.4499947692,
				"element": "H" 
			},
			{
				"x": 0.3371012504,
				"y": 3.7829686553,
				"z": -1.4928364963,
				"element": "H" 
			},
			{
				"x": 0.6046960115,
				"y": 2.1807535107,
				"z": 0.4436374703,
				"element": "H" 
			}
		],
		 "valence_orbital": [ 
			{
				"type": "occ",
				"energy": -0.28971,
				"method": "rhf"
			},
			{
				"type": "occ",
				"energy": -0.26747,
				"method": "rhf"
			},
			{
				"type": "occ",
				"energy": -0.26105,
				"method": "rhf"
			},
			{
				"type": "occ",
				"energy": -0.25367,
				"method": "rhf"
			},
			{
				"type": "occ",
				"energy": -0.20848,
				"method": "rhf"
			},
			{
				"type": "unocc",
				"energy": -0.04249,
				"method": "rhf"
			},
			{
				"type": "unocc",
				"energy": -0.02193,
				"method": "rhf"
			},
			{
				"type": "unocc",
				"energy": 0.06689,
				"method": "rhf"
			},
			{
				"type": "unocc",
				"energy": 0.09535,
				"method": "rhf"
			},
			{
				"type": "unocc",
				"energy": 0.10396,
				"method": "rhf"
			}
		],
		"cosmo_sigma_profile": { 
			"-0.025": 0.0,
			"-0.024": 0.0,
			"-0.023": 0.0,
			"-0.022": 0.0,
			"-0.021": 0.0,
			"-0.02": 0.0,
			"-0.019": 0.0,
			"-0.018": 0.0,
			"-0.017": 0.0,
			"-0.016": 0.0,
			"-0.015": 0.0,
			"-0.014": 0.0,
			"-0.013": 0.0,
			"-0.012": 0.112777151085,
			"-0.011": 0.799688654291,
			"-0.01": 0.71543037106,
			"-0.009": 0.51177089751,
			"-0.008": 1.60748605391,
			"-0.007": 6.59312958795,
			"-0.006": 9.3724508093,
			"-0.005": 10.6240846475,
			"-0.004": 17.1352448066,
			"-0.003": 20.6202521235,
			"-0.002": 15.6225268245,
			"-0.001": 14.1209810858,
			"0.0": 10.9853199791,
			"0.001": 15.6415965183,
			"0.002": 18.2883147363,
			"0.003": 7.90837287483,
			"0.004": 5.79144126318,
			"0.005": 4.32578121575,
			"0.006": 3.98700341935,
			"0.007": 4.3412985966,
			"0.008": 4.23187897486,
			"0.009": 2.40662789316,
			"0.01": 3.35968906195,
			"0.011": 2.09586791465,
			"0.012": 0.943968524636,
			"0.013": 1.14617271424,
			"0.014": 1.18010534446,
			"0.015": 0.965156777585,
			"0.016": 0.871668497603,
			"0.017": 0.488544542397,
			"0.018": 0.0,
			"0.019": 0.0,
			"0.02": 0.0,
			"0.021": 0.0,
			"0.022": 0.0,
			"0.023": 0.0,
			"0.024": 0.0,
			"0.025": 0.0
		}
	}
}
