{
	 "smiles": "CC1=NC2=C(N=NC3=CC=CC4=C3C=CC=C4)C(N)=NN2C(=C1)C(F)(F)F", 
	 "Tm": 509.15, 
	 "num_atms": 40, 
	 "gaussian": { 
		 "optdone": 1, 
		 "sigma_profile": "yes", 
		 "theory": "DFT", 
		 "functional": "B3LYP", 
		 "basiset": "6-31G**", 
		 "properties": { 
			 "R2extent": 15958.4272, 
			 "electric_dipole_moment_norm": 1.37592785058, 
			 "electric_quadrupole_moment_norm": 24.6669568587, 
			 "total_energy": -1321.74140194, 
			 "HOMO_LUMO_gap": 0.11985, 
			 "cosmo_polarized_energy": -15.7, 
			 "cosmo_cavitation_energy": 46.7, 
			 "cosmo_dispersion_energy": -33.24, 
			 "cosmo_repulsion_energy": 2.42, 
			 "cosmo_total_nonelectrostatic_energy": 15.88, 
			 "SMD_solvation_energy": 5.42 
		},
		"coords": [
			{
				"x": 2.4570239882,
				"y": 1.1367886385,
				"z": 5.4640971695,
				"element": "C" 
			},
			{
				"x": 2.9903750391,
				"y": 1.0484963789,
				"z": 4.0598042828,
				"element": "C" 
			},
			{
				"x": 2.1201370555,
				"y": 0.8302990015,
				"z": 3.0814722554,
				"element": "N" 
			},
			{
				"x": 2.5874737116,
				"y": 0.7506366129,
				"z": 1.8291564976,
				"element": "C" 
			},
			{
				"x": 1.9616634886,
				"y": 0.5349228936,
				"z": 0.5860869354,
				"element": "C" 
			},
			{
				"x": 0.6133757484,
				"y": 0.3723650264,
				"z": 0.4180559521,
				"element": "N" 
			},
			{
				"x": 0.2384035421,
				"y": 0.154214109,
				"z": -0.7830434974,
				"element": "N" 
			},
			{
				"x": -1.1606055344,
				"y": 0.0677440552,
				"z": -0.954828021,
				"element": "C" 
			},
			{
				"x": -2.0681994175,
				"y": 0.5862249902,
				"z": -0.0412819178,
				"element": "C" 
			},
			{
				"x": -3.452410493,
				"y": 0.5266958459,
				"z": -0.2899611634,
				"element": "C" 
			},
			{
				"x": -3.9322312013,
				"y": -0.0438850673,
				"z": -1.4503254125,
				"element": "C" 
			},
			{
				"x": -3.0408171822,
				"y": -0.589752479,
				"z": -2.4106834804,
				"element": "C" 
			},
			{
				"x": -1.6280649179,
				"y": -0.5422764235,
				"z": -2.1676413893,
				"element": "C" 
			},
			{
				"x": -0.7534438768,
				"y": -1.1180110416,
				"z": -3.1276853585,
				"element": "C" 
			},
			{
				"x": -1.2465553508,
				"y": -1.6933096707,
				"z": -4.2782753358,
				"element": "C" 
			},
			{
				"x": -2.6398808077,
				"y": -1.7265923867,
				"z": -4.5263722019,
				"element": "C" 
			},
			{
				"x": -3.5141000786,
				"y": -1.1893248546,
				"z": -3.6099805048,
				"element": "C" 
			},
			{
				"x": 3.0359383396,
				"y": 0.5657208631,
				"z": -0.3696296288,
				"element": "C" 
			},
			{
				"x": 2.9026795231,
				"y": 0.387399513,
				"z": -1.7019548761,
				"element": "N" 
			},
			{
				"x": 4.2316852209,
				"y": 0.7863377049,
				"z": 0.1984341123,
				"element": "N" 
			},
			{
				"x": 3.9517310732,
				"y": 0.8921990824,
				"z": 1.5279717119,
				"element": "N" 
			},
			{
				"x": 4.8492886029,
				"y": 1.1137162622,
				"z": 2.5189572671,
				"element": "C" 
			},
			{
				"x": 4.3833018814,
				"y": 1.196162893,
				"z": 3.8100654895,
				"element": "C" 
			},
			{
				"x": 6.3103457097,
				"y": 1.2591110553,
				"z": 2.1515007747,
				"element": "C" 
			},
			{
				"x": 6.7810406143,
				"y": 0.152091286,
				"z": 1.5566781614,
				"element": "F" 
			},
			{
				"x": 7.0430578752,
				"y": 1.4716633871,
				"z": 3.2650718842,
				"element": "F" 
			},
			{
				"x": 6.5087177834,
				"y": 2.2994706781,
				"z": 1.3265924612,
				"element": "F" 
			},
			{
				"x": 1.3751709528,
				"y": 1.0005840203,
				"z": 5.4553417376,
				"element": "H" 
			},
			{
				"x": 2.6910329496,
				"y": 2.1092033641,
				"z": 5.9124550913,
				"element": "H" 
			},
			{
				"x": 2.907886939,
				"y": 0.3692770829,
				"z": 6.1036505609,
				"element": "H" 
			},
			{
				"x": -1.6840600373,
				"y": 1.048039856,
				"z": 0.8611186907,
				"element": "H" 
			},
			{
				"x": -4.1424971744,
				"y": 0.945682022,
				"z": 0.4368549051,
				"element": "H" 
			},
			{
				"x": -5.0005095912,
				"y": -0.0804446434,
				"z": -1.6470150029,
				"element": "H" 
			},
			{
				"x": 0.3119728751,
				"y": -1.1152722332,
				"z": -2.9300238759,
				"element": "H" 
			},
			{
				"x": -0.5623605554,
				"y": -2.1300012398,
				"z": -5.0003428076,
				"element": "H" 
			},
			{
				"x": -3.015131579,
				"y": -2.1822854248,
				"z": -5.4381668765,
				"element": "H" 
			},
			{
				"x": -4.586133,
				"y": -1.2185688891,
				"z": -3.7877387781,
				"element": "H" 
			},
			{
				"x": 3.6801252017,
				"y": 0.6146818145,
				"z": -2.3020680815,
				"element": "H" 
			},
			{
				"x": 1.9520413829,
				"y": 0.3773457064,
				"z": -2.0487316852,
				"element": "H" 
			},
			{
				"x": 5.0825312989,
				"y": 1.3721502102,
				"z": 4.6161839546,
				"element": "H" 
			}
		],
		 "valence_orbital": [ 
			{
				"type": "occ",
				"energy": -0.24147,
				"method": "rhf"
			},
			{
				"type": "occ",
				"energy": -0.23907,
				"method": "rhf"
			},
			{
				"type": "occ",
				"energy": -0.22845,
				"method": "rhf"
			},
			{
				"type": "occ",
				"energy": -0.22495,
				"method": "rhf"
			},
			{
				"type": "occ",
				"energy": -0.19652,
				"method": "rhf"
			},
			{
				"type": "unocc",
				"energy": -0.07667,
				"method": "rhf"
			},
			{
				"type": "unocc",
				"energy": -0.06595,
				"method": "rhf"
			},
			{
				"type": "unocc",
				"energy": -0.02435,
				"method": "rhf"
			},
			{
				"type": "unocc",
				"energy": -0.00882,
				"method": "rhf"
			},
			{
				"type": "unocc",
				"energy": -0.0041,
				"method": "rhf"
			}
		],
		"cosmo_sigma_profile": { 
			"-0.025": 0.0,
			"-0.024": 0.0,
			"-0.023": 0.0,
			"-0.022": 0.0,
			"-0.021": 0.0,
			"-0.02": 0.0,
			"-0.019": 0.0,
			"-0.018": 0.0,
			"-0.017": 0.0,
			"-0.016": 0.0,
			"-0.015": 0.147682312806,
			"-0.014": 1.23849898763,
			"-0.013": 1.13495609076,
			"-0.012": 0.779060974462,
			"-0.011": 0.927114462892,
			"-0.01": 1.3752554937,
			"-0.009": 2.95527483181,
			"-0.008": 3.97384060529,
			"-0.007": 3.74806105968,
			"-0.006": 18.4568777184,
			"-0.005": 26.57516228,
			"-0.004": 29.8166902765,
			"-0.003": 28.1348774479,
			"-0.002": 26.7239928571,
			"-0.001": 26.267924891,
			"0.0": 20.744781916,
			"0.001": 29.958146296,
			"0.002": 44.457557797,
			"0.003": 31.6165461304,
			"0.004": 31.2992568934,
			"0.005": 18.0684640831,
			"0.006": 5.72763066076,
			"0.007": 3.82531266006,
			"0.008": 4.55476414932,
			"0.009": 3.56560903065,
			"0.01": 3.30564764004,
			"0.011": 2.2770893452,
			"0.012": 2.1780621723,
			"0.013": 1.41558769075,
			"0.014": 0.99738505176,
			"0.015": 0.101940458077,
			"0.016": 0.0,
			"0.017": 0.0,
			"0.018": 0.0,
			"0.019": 0.0,
			"0.02": 0.0,
			"0.021": 0.0,
			"0.022": 0.0,
			"0.023": 0.0,
			"0.024": 0.0,
			"0.025": 0.0
		}
	}
}
