{
	 "smiles": "OC(=O)C1=CN=NN1C1=C(Cl)C=CC=C1", 
	 "Tm": 448.15, 
	 "num_atms": 21, 
	 "gaussian": { 
		 "optdone": 1, 
		 "sigma_profile": "yes", 
		 "theory": "DFT", 
		 "functional": "B3LYP", 
		 "basiset": "6-31G**", 
		 "properties": { 
			 "R2extent": 3545.7581, 
			 "electric_dipole_moment_norm": 5.32092142115, 
			 "electric_quadrupole_moment_norm": 10.6816119224, 
			 "total_energy": -1121.42760844, 
			 "HOMO_LUMO_gap": 0.19992, 
			 "cosmo_polarized_energy": -15.09, 
			 "cosmo_cavitation_energy": 28.49, 
			 "cosmo_dispersion_energy": -20.07, 
			 "cosmo_repulsion_energy": 1.57, 
			 "cosmo_total_nonelectrostatic_energy": 9.99, 
			 "SMD_solvation_energy": 4.86 
		},
		"coords": [
			{
				"x": 1.4627331631,
				"y": 0.5020744306,
				"z": 1.0096853148,
				"element": "O" 
			},
			{
				"x": 1.3708833371,
				"y": 0.8573465826,
				"z": -0.290922646,
				"element": "C" 
			},
			{
				"x": 2.0873765879,
				"y": 1.6882949608,
				"z": -0.8078487273,
				"element": "O" 
			},
			{
				"x": 0.298237251,
				"y": 0.1616308605,
				"z": -1.0181726798,
				"element": "C" 
			},
			{
				"x": -0.1490054747,
				"y": 0.43175227,
				"z": -2.2968897533,
				"element": "C" 
			},
			{
				"x": -1.189198384,
				"y": -0.3878353724,
				"z": -2.5870131407,
				"element": "N" 
			},
			{
				"x": -1.4170054019,
				"y": -1.1650901959,
				"z": -1.5631419112,
				"element": "N" 
			},
			{
				"x": -0.5234527511,
				"y": -0.8511892689,
				"z": -0.590248308,
				"element": "N" 
			},
			{
				"x": -0.5790862094,
				"y": -1.5731390414,
				"z": 0.6412140364,
				"element": "C" 
			},
			{
				"x": 0.4172351928,
				"y": -2.4884216506,
				"z": 1.0066987608,
				"element": "C" 
			},
			{
				"x": 1.8011248324,
				"y": -2.7689505513,
				"z": -0.0238750691,
				"element": "Cl" 
			},
			{
				"x": 0.3035666146,
				"y": -3.2026658963,
				"z": 2.1988550844,
				"element": "C" 
			},
			{
				"x": -0.8103821663,
				"y": -3.0157948082,
				"z": 3.0170803033,
				"element": "C" 
			},
			{
				"x": -1.8139099462,
				"y": -2.1194203081,
				"z": 2.6479896808,
				"element": "C" 
			},
			{
				"x": -1.695548131,
				"y": -1.3999748793,
				"z": 1.4612947833,
				"element": "C" 
			},
			{
				"x": 2.2010195833,
				"y": 1.0160455708,
				"z": 1.3780384551,
				"element": "H" 
			},
			{
				"x": 0.2237607774,
				"y": 1.1710953761,
				"z": -2.9893159702,
				"element": "H" 
			},
			{
				"x": 1.0824252939,
				"y": -3.9061203677,
				"z": 2.4706714806,
				"element": "H" 
			},
			{
				"x": -0.8925022251,
				"y": -3.5792922115,
				"z": 3.9413239807,
				"element": "H" 
			},
			{
				"x": -2.6851894038,
				"y": -1.9791678764,
				"z": 3.2792244302,
				"element": "H" 
			},
			{
				"x": -2.46288254,
				"y": -0.7002776235,
				"z": 1.1488518952,
				"element": "H" 
			}
		],
		 "valence_orbital": [ 
			{
				"type": "occ",
				"energy": -0.29793,
				"method": "rhf"
			},
			{
				"type": "occ",
				"energy": -0.28523,
				"method": "rhf"
			},
			{
				"type": "occ",
				"energy": -0.27635,
				"method": "rhf"
			},
			{
				"type": "occ",
				"energy": -0.27482,
				"method": "rhf"
			},
			{
				"type": "occ",
				"energy": -0.26331,
				"method": "rhf"
			},
			{
				"type": "unocc",
				"energy": -0.06339,
				"method": "rhf"
			},
			{
				"type": "unocc",
				"energy": -0.03527,
				"method": "rhf"
			},
			{
				"type": "unocc",
				"energy": -0.032,
				"method": "rhf"
			},
			{
				"type": "unocc",
				"energy": 0.01079,
				"method": "rhf"
			},
			{
				"type": "unocc",
				"energy": 0.0143,
				"method": "rhf"
			}
		],
		"cosmo_sigma_profile": { 
			"-0.025": 0.0,
			"-0.024": 0.0,
			"-0.023": 0.0,
			"-0.022": 0.0,
			"-0.021": 0.0,
			"-0.02": 0.00471164051842,
			"-0.019": 0.83272339217,
			"-0.018": 0.977889775255,
			"-0.017": 1.01212940243,
			"-0.016": 0.6795540173,
			"-0.015": 0.871554516128,
			"-0.014": 0.819258229606,
			"-0.013": 0.21146169962,
			"-0.012": 0.627768170735,
			"-0.011": 1.13885040282,
			"-0.01": 1.31966639391,
			"-0.009": 2.09586429231,
			"-0.008": 5.82452703676,
			"-0.007": 12.2771764377,
			"-0.006": 11.4675038185,
			"-0.005": 11.6269631525,
			"-0.004": 10.5485046615,
			"-0.003": 11.2929652199,
			"-0.002": 13.868706026,
			"-0.001": 16.7173760153,
			"0.0": 19.6825131589,
			"0.001": 18.2554313468,
			"0.002": 18.9229401999,
			"0.003": 17.9117729718,
			"0.004": 11.1812368781,
			"0.005": 4.72759832977,
			"0.006": 4.93764293558,
			"0.007": 4.09797872894,
			"0.008": 4.54077324209,
			"0.009": 5.27056059112,
			"0.01": 6.74697505466,
			"0.011": 6.68723256933,
			"0.012": 2.16487423934,
			"0.013": 1.32497542371,
			"0.014": 0.949396245233,
			"0.015": 0.253985643819,
			"0.016": 0.0,
			"0.017": 0.0,
			"0.018": 0.0,
			"0.019": 0.0,
			"0.02": 0.0,
			"0.021": 0.0,
			"0.022": 0.0,
			"0.023": 0.0,
			"0.024": 0.0,
			"0.025": 0.0
		}
	}
}
