{
	 "smiles": "CCN1C(SCC(O)=O)=NN=C1C1=CC(C)=CC=C1", 
	 "Tm": 555.15, 
	 "num_atms": 34, 
	 "gaussian": { 
		 "optdone": 1, 
		 "sigma_profile": "yes", 
		 "theory": "DFT", 
		 "functional": "B3LYP", 
		 "basiset": "6-31G**", 
		 "properties": { 
			 "R2extent": 6884.4986, 
			 "electric_dipole_moment_norm": 4.20170376038, 
			 "electric_quadrupole_moment_norm": 19.3332470876, 
			 "total_energy": -1217.31904836, 
			 "HOMO_LUMO_gap": 0.19115, 
			 "cosmo_polarized_energy": -20.05, 
			 "cosmo_cavitation_energy": 39.16, 
			 "cosmo_dispersion_energy": -27.87, 
			 "cosmo_repulsion_energy": 2.12, 
			 "cosmo_total_nonelectrostatic_energy": 13.41, 
			 "SMD_solvation_energy": 5.45 
		},
		"coords": [
			{
				"x": 1.3579730226,
				"y": -2.3187373579,
				"z": 2.0078807281,
				"element": "C" 
			},
			{
				"x": 1.4291402905,
				"y": -1.0371029948,
				"z": 1.1770640209,
				"element": "C" 
			},
			{
				"x": 0.1387396039,
				"y": -0.3429787169,
				"z": 1.0651333017,
				"element": "N" 
			},
			{
				"x": -0.3971022948,
				"y": 0.5213457933,
				"z": 1.9941574185,
				"element": "C" 
			},
			{
				"x": 0.2718513179,
				"y": 0.7917492455,
				"z": 3.6069793833,
				"element": "S" 
			},
			{
				"x": 0.6660608788,
				"y": 2.5681532724,
				"z": 3.4670097244,
				"element": "C" 
			},
			{
				"x": 1.88362913,
				"y": 2.8864110523,
				"z": 2.6151676875,
				"element": "C" 
			},
			{
				"x": 2.1841594234,
				"y": 4.2004576596,
				"z": 2.7142869614,
				"element": "O" 
			},
			{
				"x": 2.5115225754,
				"y": 2.1178813339,
				"z": 1.9231102897,
				"element": "O" 
			},
			{
				"x": -1.4675447087,
				"y": 1.1196455188,
				"z": 1.5160102649,
				"element": "N" 
			},
			{
				"x": -1.6500733084,
				"y": 0.6651086151,
				"z": 0.2392132548,
				"element": "N" 
			},
			{
				"x": -0.6969093431,
				"y": -0.2169339506,
				"z": -0.0245262522,
				"element": "C" 
			},
			{
				"x": -0.5807677829,
				"y": -0.9091560311,
				"z": -1.3173123735,
				"element": "C" 
			},
			{
				"x": -0.9995971297,
				"y": -0.2173864876,
				"z": -2.4676606559,
				"element": "C" 
			},
			{
				"x": -0.9518281809,
				"y": -0.8065715332,
				"z": -3.7321260701,
				"element": "C" 
			},
			{
				"x": -1.4243538701,
				"y": -0.0567862327,
				"z": -4.9558197258,
				"element": "C" 
			},
			{
				"x": -0.4643633473,
				"y": -2.1183821351,
				"z": -3.8406848192,
				"element": "C" 
			},
			{
				"x": -0.0564741104,
				"y": -2.8205804501,
				"z": -2.7090724827,
				"element": "C" 
			},
			{
				"x": -0.117193765,
				"y": -2.2264807366,
				"z": -1.4478623771,
				"element": "C" 
			},
			{
				"x": 1.0721158584,
				"y": -2.1017917713,
				"z": 3.0407516436,
				"element": "H" 
			},
			{
				"x": 0.6353535647,
				"y": -3.0311059044,
				"z": 1.598283354,
				"element": "H" 
			},
			{
				"x": 2.3412201826,
				"y": -2.7993824349,
				"z": 2.0247941971,
				"element": "H" 
			},
			{
				"x": 2.1295626864,
				"y": -0.3245375153,
				"z": 1.6185151003,
				"element": "H" 
			},
			{
				"x": 1.7632077381,
				"y": -1.2479743881,
				"z": 0.1595834074,
				"element": "H" 
			},
			{
				"x": -0.2029119241,
				"y": 3.0906876948,
				"z": 3.0572024121,
				"element": "H" 
			},
			{
				"x": 0.824858844,
				"y": 2.9439767634,
				"z": 4.4818419033,
				"element": "H" 
			},
			{
				"x": 2.9475957406,
				"y": 4.3543490957,
				"z": 2.1321445109,
				"element": "H" 
			},
			{
				"x": -1.3707363278,
				"y": 0.7956098626,
				"z": -2.3503821869,
				"element": "H" 
			},
			{
				"x": -1.5633300005,
				"y": 1.0065065999,
				"z": -4.7436555597,
				"element": "H" 
			},
			{
				"x": -0.7103980803,
				"y": -0.1482452463,
				"z": -5.7813394461,
				"element": "H" 
			},
			{
				"x": -2.3834782516,
				"y": -0.4505225657,
				"z": -5.3134268435,
				"element": "H" 
			},
			{
				"x": -0.4101486856,
				"y": -2.591320824,
				"z": -4.8182654741,
				"element": "H" 
			},
			{
				"x": 0.3031667826,
				"y": -3.8411208401,
				"z": -2.8048796627,
				"element": "H" 
			},
			{
				"x": 0.1664534713,
				"y": -2.8006843911,
				"z": -0.5731156344,
				"element": "H" 
			}
		],
		 "valence_orbital": [ 
			{
				"type": "occ",
				"energy": -0.28133,
				"method": "rhf"
			},
			{
				"type": "occ",
				"energy": -0.25682,
				"method": "rhf"
			},
			{
				"type": "occ",
				"energy": -0.24753,
				"method": "rhf"
			},
			{
				"type": "occ",
				"energy": -0.24467,
				"method": "rhf"
			},
			{
				"type": "occ",
				"energy": -0.22148,
				"method": "rhf"
			},
			{
				"type": "unocc",
				"energy": -0.03033,
				"method": "rhf"
			},
			{
				"type": "unocc",
				"energy": -0.00941,
				"method": "rhf"
			},
			{
				"type": "unocc",
				"energy": -0.00326,
				"method": "rhf"
			},
			{
				"type": "unocc",
				"energy": 0.00422,
				"method": "rhf"
			},
			{
				"type": "unocc",
				"energy": 0.04343,
				"method": "rhf"
			}
		],
		"cosmo_sigma_profile": { 
			"-0.025": 0.0,
			"-0.024": 0.0,
			"-0.023": 0.0,
			"-0.022": 0.0,
			"-0.021": 0.0,
			"-0.02": 0.0,
			"-0.019": 0.355759045506,
			"-0.018": 0.977242309073,
			"-0.017": 1.14247750228,
			"-0.016": 0.591711314415,
			"-0.015": 0.721672854792,
			"-0.014": 0.785233402767,
			"-0.013": 0.549653375837,
			"-0.012": 0.791161592518,
			"-0.011": 0.844380321328,
			"-0.01": 1.49127259558,
			"-0.009": 3.52939562338,
			"-0.008": 4.82350269032,
			"-0.007": 6.4432806072,
			"-0.006": 10.1211470883,
			"-0.005": 21.0946336108,
			"-0.004": 30.4805219943,
			"-0.003": 26.5783473466,
			"-0.002": 25.3236742331,
			"-0.001": 25.4519128268,
			"0.0": 28.5410193577,
			"0.001": 15.202976591,
			"0.002": 14.2946635637,
			"0.003": 16.4723245251,
			"0.004": 16.9615461186,
			"0.005": 14.4936761046,
			"0.006": 7.14532229077,
			"0.007": 6.78300058459,
			"0.008": 5.79723163947,
			"0.009": 5.26524858306,
			"0.01": 3.4804667473,
			"0.011": 3.82095786212,
			"0.012": 2.9209426458,
			"0.013": 3.10661597986,
			"0.014": 3.00091912658,
			"0.015": 2.12872333579,
			"0.016": 1.68207303377,
			"0.017": 0.0970095183771,
			"0.018": 0.0,
			"0.019": 0.0,
			"0.02": 0.0,
			"0.021": 0.0,
			"0.022": 0.0,
			"0.023": 0.0,
			"0.024": 0.0,
			"0.025": 0.0
		}
	}
}
