{
	 "smiles": "COC(=O)C1=C(F)C=CC=C1N", 
	 "Tm": 327.15, 
	 "num_atms": 20, 
	 "gaussian": { 
		 "optdone": 1, 
		 "sigma_profile": "yes", 
		 "theory": "DFT", 
		 "functional": "B3LYP", 
		 "basiset": "6-31G**", 
		 "properties": { 
			 "R2extent": 2825.0109, 
			 "electric_dipole_moment_norm": 4.19995202949, 
			 "electric_quadrupole_moment_norm": 12.4939329464, 
			 "total_energy": -614.715404219, 
			 "HOMO_LUMO_gap": 0.17353, 
			 "cosmo_polarized_energy": -11.96, 
			 "cosmo_cavitation_energy": 24.45, 
			 "cosmo_dispersion_energy": -18.14, 
			 "cosmo_repulsion_energy": 1.42, 
			 "cosmo_total_nonelectrostatic_energy": 7.73, 
			 "SMD_solvation_energy": 6.04 
		},
		"coords": [
			{
				"x": 2.3042222765,
				"y": 1.0891909037,
				"z": 2.8588452399,
				"element": "C" 
			},
			{
				"x": 1.6233490655,
				"y": 0.0150312271,
				"z": 2.1887025672,
				"element": "O" 
			},
			{
				"x": 0.2940065895,
				"y": 0.2456400982,
				"z": 1.9375194107,
				"element": "C" 
			},
			{
				"x": -0.2279653001,
				"y": 1.294160156,
				"z": 2.2477409683,
				"element": "O" 
			},
			{
				"x": -0.3725842398,
				"y": -0.8958784516,
				"z": 1.2591053524,
				"element": "C" 
			},
			{
				"x": -1.5475290737,
				"y": -0.6381702555,
				"z": 0.5211493279,
				"element": "C" 
			},
			{
				"x": -1.9828715819,
				"y": 0.6249688,
				"z": 0.4016688382,
				"element": "F" 
			},
			{
				"x": -2.2773755873,
				"y": -1.6194187946,
				"z": -0.1279900834,
				"element": "C" 
			},
			{
				"x": -1.8282475233,
				"y": -2.9388175038,
				"z": -0.0364954229,
				"element": "C" 
			},
			{
				"x": -0.6810020071,
				"y": -3.2513366694,
				"z": 0.6740241215,
				"element": "C" 
			},
			{
				"x": 0.071648131,
				"y": -2.2518849866,
				"z": 1.328599289,
				"element": "C" 
			},
			{
				"x": 1.1697939282,
				"y": -2.634512355,
				"z": 2.0639405144,
				"element": "N" 
			},
			{
				"x": 2.2777327098,
				"y": 1.996398031,
				"z": 2.2511334783,
				"element": "H" 
			},
			{
				"x": 1.8384561206,
				"y": 1.2995361288,
				"z": 3.8245191434,
				"element": "H" 
			},
			{
				"x": 3.3310578154,
				"y": 0.7478701519,
				"z": 2.9925814851,
				"element": "H" 
			},
			{
				"x": -3.1631001776,
				"y": -1.340489362,
				"z": -0.6855819849,
				"element": "H" 
			},
			{
				"x": -2.3819685707,
				"y": -3.7303340259,
				"z": -0.5330630393,
				"element": "H" 
			},
			{
				"x": -0.3441206061,
				"y": -4.2821156801,
				"z": 0.7403934356,
				"element": "H" 
			},
			{
				"x": 1.5325251405,
				"y": -3.5570230882,
				"z": 1.8811737361,
				"element": "H" 
			},
			{
				"x": 1.8480728905,
				"y": -1.9196143241,
				"z": 2.2788336225,
				"element": "H" 
			}
		],
		 "valence_orbital": [ 
			{
				"type": "occ",
				"energy": -0.31229,
				"method": "rhf"
			},
			{
				"type": "occ",
				"energy": -0.30238,
				"method": "rhf"
			},
			{
				"type": "occ",
				"energy": -0.26994,
				"method": "rhf"
			},
			{
				"type": "occ",
				"energy": -0.24979,
				"method": "rhf"
			},
			{
				"type": "occ",
				"energy": -0.21008,
				"method": "rhf"
			},
			{
				"type": "unocc",
				"energy": -0.03655,
				"method": "rhf"
			},
			{
				"type": "unocc",
				"energy": 0.01229,
				"method": "rhf"
			},
			{
				"type": "unocc",
				"energy": 0.05207,
				"method": "rhf"
			},
			{
				"type": "unocc",
				"energy": 0.08404,
				"method": "rhf"
			},
			{
				"type": "unocc",
				"energy": 0.09526,
				"method": "rhf"
			}
		],
		"cosmo_sigma_profile": { 
			"-0.025": 0.0,
			"-0.024": 0.0,
			"-0.023": 0.0,
			"-0.022": 0.0,
			"-0.021": 0.0,
			"-0.02": 0.0,
			"-0.019": 0.0,
			"-0.018": 0.0,
			"-0.017": 0.0,
			"-0.016": 0.0,
			"-0.015": 0.0,
			"-0.014": 0.143649621605,
			"-0.013": 1.20263809577,
			"-0.012": 1.64327091679,
			"-0.011": 1.24604313622,
			"-0.01": 2.08345457352,
			"-0.009": 2.5599371297,
			"-0.008": 2.19551428064,
			"-0.007": 4.79932829608,
			"-0.006": 11.5348937537,
			"-0.005": 14.0329656391,
			"-0.004": 14.5259740604,
			"-0.003": 15.01400779,
			"-0.002": 12.1152670803,
			"-0.001": 9.51952628145,
			"0.0": 10.2790081204,
			"0.001": 12.9704646293,
			"0.002": 15.7292456505,
			"0.003": 14.0086014565,
			"0.004": 17.9347778098,
			"0.005": 7.68899478577,
			"0.006": 3.58527397105,
			"0.007": 2.93458626981,
			"0.008": 2.40070768846,
			"0.009": 2.7071957428,
			"0.01": 2.64819262022,
			"0.011": 3.64517512762,
			"0.012": 5.05597924399,
			"0.013": 0.993750925397,
			"0.014": 0.0,
			"0.015": 0.0,
			"0.016": 0.0,
			"0.017": 0.0,
			"0.018": 0.0,
			"0.019": 0.0,
			"0.02": 0.0,
			"0.021": 0.0,
			"0.022": 0.0,
			"0.023": 0.0,
			"0.024": 0.0,
			"0.025": 0.0
		}
	}
}
