{
	 "smiles": "FC(F)(C=O)C(F)(F)C(F)(F)C(F)(F)C(F)(F)C(F)(F)C(F)(F)C(F)(F)C=O", 
	 "Tm": 342.35, 
	 "num_atms": 30, 
	 "gaussian": { 
		 "optdone": 1, 
		 "sigma_profile": "yes", 
		 "theory": "DFT", 
		 "functional": "B3LYP", 
		 "basiset": "6-31G**", 
		 "properties": { 
			 "R2extent": 10566.7347, 
			 "electric_dipole_moment_norm": 2.24334028181, 
			 "electric_quadrupole_moment_norm": 10.9531332056, 
			 "total_energy": -2130.02833851, 
			 "HOMO_LUMO_gap": 0.21318, 
			 "cosmo_polarized_energy": -9.14, 
			 "cosmo_cavitation_energy": 40.77, 
			 "cosmo_dispersion_energy": -26.23, 
			 "cosmo_repulsion_energy": 1.71, 
			 "cosmo_total_nonelectrostatic_energy": 16.25, 
			 "SMD_solvation_energy": 13.76 
		},
		"coords": [
			{
				"x": -1.3505494176,
				"y": 1.8083161551,
				"z": 2.9095260514,
				"element": "F" 
			},
			{
				"x": -1.5896501053,
				"y": 2.8577047727,
				"z": 2.1010028815,
				"element": "C" 
			},
			{
				"x": -0.4411722926,
				"y": 3.5724092585,
				"z": 1.9251957597,
				"element": "F" 
			},
			{
				"x": -2.6274761129,
				"y": 3.8037723606,
				"z": 2.7573623243,
				"element": "C" 
			},
			{
				"x": -3.3876259245,
				"y": 3.4180418504,
				"z": 3.6037245313,
				"element": "O" 
			},
			{
				"x": -2.0715154634,
				"y": 2.3459530102,
				"z": 0.7203574104,
				"element": "C" 
			},
			{
				"x": -3.0662213103,
				"y": 1.4548961617,
				"z": 0.9344291589,
				"element": "F" 
			},
			{
				"x": -2.5756846423,
				"y": 3.4154209721,
				"z": 0.048988471,
				"element": "F" 
			},
			{
				"x": -0.9635911418,
				"y": 1.6916371469,
				"z": -0.1578040987,
				"element": "C" 
			},
			{
				"x": -0.2008680416,
				"y": 0.9013109519,
				"z": 0.6327915577,
				"element": "F" 
			},
			{
				"x": -0.1979277194,
				"y": 2.6800362425,
				"z": -0.6689072867,
				"element": "F" 
			},
			{
				"x": -1.5357267825,
				"y": 0.8239447727,
				"z": -1.318867532,
				"element": "C" 
			},
			{
				"x": -2.5731678598,
				"y": 1.5001975816,
				"z": -1.8706390805,
				"element": "F" 
			},
			{
				"x": -1.9936485638,
				"y": -0.3394668993,
				"z": -0.8032679373,
				"element": "F" 
			},
			{
				"x": -0.5808364197,
				"y": 0.4840767209,
				"z": -2.5037878554,
				"element": "C" 
			},
			{
				"x": -1.3163557796,
				"y": -0.2251370151,
				"z": -3.3893259139,
				"element": "F" 
			},
			{
				"x": -0.2068778963,
				"y": 1.6444586731,
				"z": -3.0888770832,
				"element": "F" 
			},
			{
				"x": 0.7321833115,
				"y": -0.307252995,
				"z": -2.2212252563,
				"element": "C" 
			},
			{
				"x": 1.5135896305,
				"y": 0.4509664334,
				"z": -1.4176843472,
				"element": "F" 
			},
			{
				"x": 1.3410496707,
				"y": -0.4439255298,
				"z": -3.4236923589,
				"element": "F" 
			},
			{
				"x": 0.5992821072,
				"y": -1.7227422448,
				"z": -1.5907654748,
				"element": "C" 
			},
			{
				"x": -0.4379200887,
				"y": -2.3825736038,
				"z": -2.1501661275,
				"element": "F" 
			},
			{
				"x": 0.360583232,
				"y": -1.5819535621,
				"z": -0.2578771845,
				"element": "F" 
			},
			{
				"x": 1.8592833852,
				"y": -2.6145080841,
				"z": -1.7333298426,
				"element": "C" 
			},
			{
				"x": 1.9697618669,
				"y": -3.0357816132,
				"z": -3.0066098215,
				"element": "F" 
			},
			{
				"x": 2.9571353579,
				"y": -1.8789929301,
				"z": -1.3959582682,
				"element": "F" 
			},
			{
				"x": 1.808107049,
				"y": -3.8340259035,
				"z": -0.7772957829,
				"element": "C" 
			},
			{
				"x": 1.4579738055,
				"y": -4.9191483751,
				"z": -1.1551595477,
				"element": "O" 
			},
			{
				"x": -2.5780276395,
				"y": 4.8464876775,
				"z": 2.3909819738,
				"element": "H" 
			},
			{
				"x": 2.141793785,
				"y": -3.6094219863,
				"z": 0.2533806798,
				"element": "H" 
			}
		],
		 "valence_orbital": [ 
			{
				"type": "occ",
				"energy": -0.3935,
				"method": "rhf"
			},
			{
				"type": "occ",
				"energy": -0.367,
				"method": "rhf"
			},
			{
				"type": "occ",
				"energy": -0.35361,
				"method": "rhf"
			},
			{
				"type": "occ",
				"energy": -0.2984,
				"method": "rhf"
			},
			{
				"type": "occ",
				"energy": -0.29728,
				"method": "rhf"
			},
			{
				"type": "unocc",
				"energy": -0.0841,
				"method": "rhf"
			},
			{
				"type": "unocc",
				"energy": -0.0826,
				"method": "rhf"
			},
			{
				"type": "unocc",
				"energy": 0.00786,
				"method": "rhf"
			},
			{
				"type": "unocc",
				"energy": 0.01206,
				"method": "rhf"
			},
			{
				"type": "unocc",
				"energy": 0.03715,
				"method": "rhf"
			}
		],
		"cosmo_sigma_profile": { 
			"-0.025": 0.0,
			"-0.024": 0.0,
			"-0.023": 0.0,
			"-0.022": 0.0,
			"-0.021": 0.0,
			"-0.02": 0.0,
			"-0.019": 0.0,
			"-0.018": 0.0,
			"-0.017": 0.0,
			"-0.016": 0.0,
			"-0.015": 0.0,
			"-0.014": 0.0,
			"-0.013": 0.0,
			"-0.012": 0.0,
			"-0.011": 1.55962608944,
			"-0.01": 6.70123333778,
			"-0.009": 5.5969381185,
			"-0.008": 6.27509807702,
			"-0.007": 5.96331508739,
			"-0.006": 7.35138873973,
			"-0.005": 5.04356886701,
			"-0.004": 7.68984776954,
			"-0.003": 9.47754202473,
			"-0.002": 11.950853055,
			"-0.001": 21.8148592636,
			"0.0": 61.4024241479,
			"0.001": 108.714758399,
			"0.002": 30.6063023678,
			"0.003": 5.45715423048,
			"0.004": 3.8907065218,
			"0.005": 4.96785971962,
			"0.006": 4.61599213674,
			"0.007": 5.85459633302,
			"0.008": 8.08213628542,
			"0.009": 4.54506413657,
			"0.01": 0.297852997156,
			"0.011": 0.0,
			"0.012": 0.0,
			"0.013": 0.0,
			"0.014": 0.0,
			"0.015": 0.0,
			"0.016": 0.0,
			"0.017": 0.0,
			"0.018": 0.0,
			"0.019": 0.0,
			"0.02": 0.0,
			"0.021": 0.0,
			"0.022": 0.0,
			"0.023": 0.0,
			"0.024": 0.0,
			"0.025": 0.0
		}
	}
}
