{
	 "smiles": "O=C(C1CNC2=CC3=C(CC(CN3)C(=O)C3=CC=CC=C3)C=C2C1)C1=CC=CC=C1", 
	 "Tm": 482.15, 
	 "num_atms": 54, 
	 "gaussian": { 
		 "optdone": 1, 
		 "sigma_profile": "yes", 
		 "theory": "DFT", 
		 "functional": "B3LYP", 
		 "basiset": "6-31G**", 
		 "properties": { 
			 "R2extent": 23094.7061, 
			 "electric_dipole_moment_norm": 3.87173409986, 
			 "electric_quadrupole_moment_norm": 26.699273733, 
			 "total_energy": -1265.20089518, 
			 "HOMO_LUMO_gap": 0.11597, 
			 "cosmo_polarized_energy": -20.28, 
			 "cosmo_cavitation_energy": 55.75, 
			 "cosmo_dispersion_energy": -39.84, 
			 "cosmo_repulsion_energy": 2.92, 
			 "cosmo_total_nonelectrostatic_energy": 18.84, 
			 "SMD_solvation_energy": 6.95 
		},
		"coords": [
			{
				"x": -0.5310272656,
				"y": 2.4415085288,
				"z": 6.3566116516,
				"element": "O" 
			},
			{
				"x": -1.0421554587,
				"y": 1.6596234749,
				"z": 5.5646327178,
				"element": "C" 
			},
			{
				"x": -1.0875963398,
				"y": 1.995089914,
				"z": 4.0777363436,
				"element": "C" 
			},
			{
				"x": -0.946212061,
				"y": 3.5049319433,
				"z": 3.845519484,
				"element": "C" 
			},
			{
				"x": -1.0900253836,
				"y": 3.7750378884,
				"z": 2.4215060136,
				"element": "N" 
			},
			{
				"x": -0.3790113586,
				"y": 3.0017334559,
				"z": 1.5020909586,
				"element": "C" 
			},
			{
				"x": -0.2425075103,
				"y": 3.4340474825,
				"z": 0.1765922585,
				"element": "C" 
			},
			{
				"x": 0.4119690621,
				"y": 2.650999353,
				"z": -0.782131852,
				"element": "C" 
			},
			{
				"x": 0.945725581,
				"y": 1.3956210192,
				"z": -0.4193335958,
				"element": "C" 
			},
			{
				"x": 1.6758433482,
				"y": 0.5330334241,
				"z": -1.4304418496,
				"element": "C" 
			},
			{
				"x": 1.351775039,
				"y": 0.9420683931,
				"z": -2.8759811,
				"element": "C" 
			},
			{
				"x": 1.461197991,
				"y": 2.4796810837,
				"z": -2.9929373639,
				"element": "C" 
			},
			{
				"x": 0.4810355163,
				"y": 3.0885620241,
				"z": -2.1104377216,
				"element": "N" 
			},
			{
				"x": 2.2989604172,
				"y": 0.2852399351,
				"z": -3.8803354986,
				"element": "C" 
			},
			{
				"x": 3.4446762429,
				"y": 0.0055107029,
				"z": -3.5533902592,
				"element": "O" 
			},
			{
				"x": 1.8333557618,
				"y": 0.0246925368,
				"z": -5.2846893718,
				"element": "C" 
			},
			{
				"x": 2.7440837523,
				"y": -0.5761737202,
				"z": -6.1704711165,
				"element": "C" 
			},
			{
				"x": 2.3823005126,
				"y": -0.8426075175,
				"z": -7.4867847908,
				"element": "C" 
			},
			{
				"x": 1.1031297723,
				"y": -0.5070334285,
				"z": -7.9417154415,
				"element": "C" 
			},
			{
				"x": 0.1909048999,
				"y": 0.0944009728,
				"z": -7.0733015946,
				"element": "C" 
			},
			{
				"x": 0.5514685498,
				"y": 0.3574311,
				"z": -5.7513359784,
				"element": "C" 
			},
			{
				"x": 0.7869099272,
				"y": 0.9820758215,
				"z": 0.9044707842,
				"element": "C" 
			},
			{
				"x": 0.1533740128,
				"y": 1.7500636154,
				"z": 1.8819143362,
				"element": "C" 
			},
			{
				"x": 0.0493419981,
				"y": 1.2687613578,
				"z": 3.3162640302,
				"element": "C" 
			},
			{
				"x": -1.5981803099,
				"y": 0.3515087743,
				"z": 6.0488086062,
				"element": "C" 
			},
			{
				"x": -2.2636359567,
				"y": -0.5612159641,
				"z": 5.2150790367,
				"element": "C" 
			},
			{
				"x": -2.7590823147,
				"y": -1.7583650232,
				"z": 5.7325040777,
				"element": "C" 
			},
			{
				"x": -2.595643944,
				"y": -2.0565701413,
				"z": 7.0862963791,
				"element": "C" 
			},
			{
				"x": -1.9349479417,
				"y": -1.1535133037,
				"z": 7.9251609447,
				"element": "C" 
			},
			{
				"x": -1.4411365977,
				"y": 0.0404821615,
				"z": 7.4098820871,
				"element": "C" 
			},
			{
				"x": -2.0480941542,
				"y": 1.6796874012,
				"z": 3.6536167524,
				"element": "H" 
			},
			{
				"x": -1.7298033405,
				"y": 4.046299017,
				"z": 4.3845901421,
				"element": "H" 
			},
			{
				"x": 0.0177632583,
				"y": 3.8404793946,
				"z": 4.2551026911,
				"element": "H" 
			},
			{
				"x": -1.1577404271,
				"y": 4.7543850157,
				"z": 2.1821065349,
				"element": "H" 
			},
			{
				"x": -0.6709782212,
				"y": 4.3906856561,
				"z": -0.1183733947,
				"element": "H" 
			},
			{
				"x": 2.7624031891,
				"y": 0.5979550772,
				"z": -1.297947009,
				"element": "H" 
			},
			{
				"x": 1.4174619136,
				"y": -0.5224785754,
				"z": -1.2809357155,
				"element": "H" 
			},
			{
				"x": 0.3155394044,
				"y": 0.6729253795,
				"z": -3.1037492724,
				"element": "H" 
			},
			{
				"x": 1.2559159125,
				"y": 2.8083637091,
				"z": -4.017273072,
				"element": "H" 
			},
			{
				"x": 2.4986226238,
				"y": 2.7683439938,
				"z": -2.7525140527,
				"element": "H" 
			},
			{
				"x": 0.3779564047,
				"y": 4.0877335193,
				"z": -2.2248300035,
				"element": "H" 
			},
			{
				"x": 3.7312522761,
				"y": -0.8237361172,
				"z": -5.7951343817,
				"element": "H" 
			},
			{
				"x": 3.0939096974,
				"y": -1.3106342692,
				"z": -8.160843976,
				"element": "H" 
			},
			{
				"x": 0.8191010135,
				"y": -0.7141045266,
				"z": -8.9696456258,
				"element": "H" 
			},
			{
				"x": -0.8029420908,
				"y": 0.3572769288,
				"z": -7.4235607007,
				"element": "H" 
			},
			{
				"x": -0.1722855799,
				"y": 0.8245014325,
				"z": -5.0919522706,
				"element": "H" 
			},
			{
				"x": 1.192098145,
				"y": 0.0125601313,
				"z": 1.1926311658,
				"element": "H" 
			},
			{
				"x": 0.9901922826,
				"y": 1.4554316775,
				"z": 3.8542029545,
				"element": "H" 
			},
			{
				"x": -0.1047587725,
				"y": 0.184196748,
				"z": 3.3407648986,
				"element": "H" 
			},
			{
				"x": -2.4025072998,
				"y": -0.3447149898,
				"z": 4.1612607978,
				"element": "H" 
			},
			{
				"x": -3.273468052,
				"y": -2.4566633031,
				"z": 5.0788552731,
				"element": "H" 
			},
			{
				"x": -2.9822530364,
				"y": -2.9892287607,
				"z": 7.4873973385,
				"element": "H" 
			},
			{
				"x": -1.8070688024,
				"y": -1.3837300511,
				"z": 8.9789427238,
				"element": "H" 
			},
			{
				"x": -0.9265062863,
				"y": 0.757839647,
				"z": 8.0402060265,
				"element": "H" 
			}
		],
		 "valence_orbital": [ 
			{
				"type": "occ",
				"energy": -0.25724,
				"method": "rhf"
			},
			{
				"type": "occ",
				"energy": -0.2489,
				"method": "rhf"
			},
			{
				"type": "occ",
				"energy": -0.2446,
				"method": "rhf"
			},
			{
				"type": "occ",
				"energy": -0.1966,
				"method": "rhf"
			},
			{
				"type": "occ",
				"energy": -0.17413,
				"method": "rhf"
			},
			{
				"type": "unocc",
				"energy": -0.05816,
				"method": "rhf"
			},
			{
				"type": "unocc",
				"energy": -0.05572,
				"method": "rhf"
			},
			{
				"type": "unocc",
				"energy": -0.01115,
				"method": "rhf"
			},
			{
				"type": "unocc",
				"energy": -0.00946,
				"method": "rhf"
			},
			{
				"type": "unocc",
				"energy": 0.01383,
				"method": "rhf"
			}
		],
		"cosmo_sigma_profile": { 
			"-0.025": 0.0,
			"-0.024": 0.0,
			"-0.023": 0.0,
			"-0.022": 0.0,
			"-0.021": 0.0,
			"-0.02": 0.0,
			"-0.019": 0.0,
			"-0.018": 0.0,
			"-0.017": 0.0,
			"-0.016": 0.0,
			"-0.015": 0.0,
			"-0.014": 0.0,
			"-0.013": 0.256105223988,
			"-0.012": 2.08671168335,
			"-0.011": 2.39245210635,
			"-0.01": 2.24722151112,
			"-0.009": 3.09364097677,
			"-0.008": 2.5168546392,
			"-0.007": 9.14183253145,
			"-0.006": 23.5203914093,
			"-0.005": 31.9011180433,
			"-0.004": 42.2234232682,
			"-0.003": 40.593080332,
			"-0.002": 36.5870061822,
			"-0.001": 30.6501126419,
			"0.0": 27.2397316911,
			"0.001": 27.041374854,
			"0.002": 26.574297255,
			"0.003": 28.9728014388,
			"0.004": 32.5789161265,
			"0.005": 13.7050368058,
			"0.006": 9.31125573549,
			"0.007": 11.8339809555,
			"0.008": 11.1933572432,
			"0.009": 5.49226359434,
			"0.01": 5.40086219142,
			"0.011": 6.94751526571,
			"0.012": 7.93973528412,
			"0.013": 0.861018723775,
			"0.014": 0.0,
			"0.015": 0.0,
			"0.016": 0.0,
			"0.017": 0.0,
			"0.018": 0.0,
			"0.019": 0.0,
			"0.02": 0.0,
			"0.021": 0.0,
			"0.022": 0.0,
			"0.023": 0.0,
			"0.024": 0.0,
			"0.025": 0.0
		}
	}
}
