{
	 "smiles": "FC1=C(C=CC(Br)=C1)N1CCCS1(=O)=O", 
	 "Tm": 363.15, 
	 "num_atms": 24, 
	 "gaussian": { 
		 "optdone": 1, 
		 "sigma_profile": "yes", 
		 "theory": "DFT", 
		 "functional": "B3LYP", 
		 "basiset": "6-31G**", 
		 "properties": { 
			 "R2extent": 6848.8375, 
			 "electric_dipole_moment_norm": 5.06350935321, 
			 "electric_quadrupole_moment_norm": 15.4915727307, 
			 "total_energy": -3622.92899732, 
			 "HOMO_LUMO_gap": 0.20045, 
			 "cosmo_polarized_energy": -14.78, 
			 "cosmo_cavitation_energy": 31.21, 
			 "cosmo_dispersion_energy": -23.51, 
			 "cosmo_repulsion_energy": 1.77, 
			 "cosmo_total_nonelectrostatic_energy": 9.47, 
			 "SMD_solvation_energy": 3.27 
		},
		"coords": [
			{
				"x": 1.4102063013,
				"y": -1.2961346794,
				"z": -0.2612425141,
				"element": "F" 
			},
			{
				"x": 0.727242102,
				"y": -0.9563214667,
				"z": 0.8529809568,
				"element": "C" 
			},
			{
				"x": 0.0757510917,
				"y": 0.2852413203,
				"z": 0.9059231945,
				"element": "C" 
			},
			{
				"x": -0.5957902237,
				"y": 0.6099869406,
				"z": 2.0942250577,
				"element": "C" 
			},
			{
				"x": -0.6195620581,
				"y": -0.2687595114,
				"z": 3.1755512941,
				"element": "C" 
			},
			{
				"x": 0.0150112844,
				"y": -1.5049502071,
				"z": 3.064545885,
				"element": "C" 
			},
			{
				"x": -0.0371818616,
				"y": -2.7303828129,
				"z": 4.5252166568,
				"element": "Br" 
			},
			{
				"x": 0.6899326163,
				"y": -1.866063554,
				"z": 1.9001920112,
				"element": "C" 
			},
			{
				"x": 0.1042759698,
				"y": 1.1902577214,
				"z": -0.1801821585,
				"element": "N" 
			},
			{
				"x": -0.1775656024,
				"y": 0.8134139069,
				"z": -1.5749976847,
				"element": "C" 
			},
			{
				"x": 0.4792431332,
				"y": 1.8871219382,
				"z": -2.4653834988,
				"element": "C" 
			},
			{
				"x": 0.4155551965,
				"y": 3.2026187619,
				"z": -1.6899348277,
				"element": "C" 
			},
			{
				"x": 0.8702839774,
				"y": 2.7095783844,
				"z": -0.0035134483,
				"element": "S" 
			},
			{
				"x": 2.3274521535,
				"y": 2.5660700044,
				"z": 0.0930135214,
				"element": "O" 
			},
			{
				"x": 0.168297373,
				"y": 3.4920024742,
				"z": 1.0197615329,
				"element": "O" 
			},
			{
				"x": -1.0913851131,
				"y": 1.5715492091,
				"z": 2.1587548789,
				"element": "H" 
			},
			{
				"x": -1.1380378782,
				"y": -0.0002261908,
				"z": 4.0880646496,
				"element": "H" 
			},
			{
				"x": 1.199403577,
				"y": -2.8165490072,
				"z": 1.8019603078,
				"element": "H" 
			},
			{
				"x": -1.2651516326,
				"y": 0.7914112918,
				"z": -1.7276461371,
				"element": "H" 
			},
			{
				"x": 0.2243213272,
				"y": -0.1761428232,
				"z": -1.7985727325,
				"element": "H" 
			},
			{
				"x": -0.0316273433,
				"y": 1.9653812438,
				"z": -3.4282080498,
				"element": "H" 
			},
			{
				"x": 1.5251140896,
				"y": 1.6282945025,
				"z": -2.6529316243,
				"element": "H" 
			},
			{
				"x": 1.1317834136,
				"y": 3.9581875739,
				"z": -2.0153513903,
				"element": "H" 
			},
			{
				"x": -0.5900718935,
				"y": 3.6280149793,
				"z": -1.6421258807,
				"element": "H" 
			}
		],
		 "valence_orbital": [ 
			{
				"type": "occ",
				"energy": -0.30517,
				"method": "rhf"
			},
			{
				"type": "occ",
				"energy": -0.294,
				"method": "rhf"
			},
			{
				"type": "occ",
				"energy": -0.27244,
				"method": "rhf"
			},
			{
				"type": "occ",
				"energy": -0.26535,
				"method": "rhf"
			},
			{
				"type": "occ",
				"energy": -0.23211,
				"method": "rhf"
			},
			{
				"type": "unocc",
				"energy": -0.03166,
				"method": "rhf"
			},
			{
				"type": "unocc",
				"energy": -0.01881,
				"method": "rhf"
			},
			{
				"type": "unocc",
				"energy": -0.00179,
				"method": "rhf"
			},
			{
				"type": "unocc",
				"energy": 0.04864,
				"method": "rhf"
			},
			{
				"type": "unocc",
				"energy": 0.05893,
				"method": "rhf"
			}
		],
		"cosmo_sigma_profile": { 
			"-0.025": 0.0,
			"-0.024": 0.0,
			"-0.023": 0.0,
			"-0.022": 0.0,
			"-0.021": 0.0,
			"-0.02": 0.0,
			"-0.019": 0.0,
			"-0.018": 0.0,
			"-0.017": 0.0,
			"-0.016": 0.0,
			"-0.015": 0.0,
			"-0.014": 0.0,
			"-0.013": 0.0,
			"-0.012": 0.0,
			"-0.011": 0.0,
			"-0.01": 0.0486925905965,
			"-0.009": 3.39126215927,
			"-0.008": 7.41718933163,
			"-0.007": 8.75556633168,
			"-0.006": 16.7419415087,
			"-0.005": 21.6776461474,
			"-0.004": 20.1209920813,
			"-0.003": 15.7351442929,
			"-0.002": 12.2675345403,
			"-0.001": 12.6535106208,
			"0.0": 18.0895809641,
			"0.001": 24.0680401544,
			"0.002": 20.3640748542,
			"0.003": 18.0556535849,
			"0.004": 16.7050724161,
			"0.005": 3.46617156597,
			"0.006": 2.23000662205,
			"0.007": 3.41454671137,
			"0.008": 2.30230467983,
			"0.009": 3.61361681956,
			"0.01": 7.56933461475,
			"0.011": 10.3113343305,
			"0.012": 3.61080399505,
			"0.013": 0.00136138062278,
			"0.014": 0.0,
			"0.015": 0.0,
			"0.016": 0.0,
			"0.017": 0.0,
			"0.018": 0.0,
			"0.019": 0.0,
			"0.02": 0.0,
			"0.021": 0.0,
			"0.022": 0.0,
			"0.023": 0.0,
			"0.024": 0.0,
			"0.025": 0.0
		}
	}
}
