{
	 "smiles": "NC(N)=NC1=NC(CSCCC(N)=NS(N)(=O)=O)=CS1", 
	 "Tm": 436.15, 
	 "num_atms": 35, 
	 "gaussian": { 
		 "optdone": 1, 
		 "sigma_profile": "yes", 
		 "theory": "DFT", 
		 "functional": "B3LYP", 
		 "basiset": "6-31G**", 
		 "properties": { 
			 "R2extent": 8027.6063, 
			 "electric_dipole_moment_norm": 2.61555415543, 
			 "electric_quadrupole_moment_norm": 23.0034684135, 
			 "total_energy": -2042.12449771, 
			 "HOMO_LUMO_gap": 0.17991, 
			 "cosmo_polarized_energy": -30.06, 
			 "cosmo_cavitation_energy": 41.8, 
			 "cosmo_dispersion_energy": -30.13, 
			 "cosmo_repulsion_energy": 2.21, 
			 "cosmo_total_nonelectrostatic_energy": 13.89, 
			 "SMD_solvation_energy": 2.86 
		},
		"coords": [
			{
				"x": -1.6184970765,
				"y": -0.3794488763,
				"z": -2.6290509752,
				"element": "N" 
			},
			{
				"x": -2.5640568381,
				"y": -1.2270577275,
				"z": -2.1623551057,
				"element": "C" 
			},
			{
				"x": -3.8660165962,
				"y": -0.9412755593,
				"z": -2.4542042794,
				"element": "N" 
			},
			{
				"x": -2.3417765018,
				"y": -2.3357392258,
				"z": -1.4728747978,
				"element": "N" 
			},
			{
				"x": -1.0916956132,
				"y": -2.6549939249,
				"z": -1.0741744244,
				"element": "C" 
			},
			{
				"x": 0.0612091878,
				"y": -2.066649657,
				"z": -1.3558266674,
				"element": "N" 
			},
			{
				"x": 1.1244602365,
				"y": -2.664656039,
				"z": -0.7122137307,
				"element": "C" 
			},
			{
				"x": 2.5190323027,
				"y": -2.1645108857,
				"z": -0.9562905161,
				"element": "C" 
			},
			{
				"x": 2.7630879544,
				"y": -0.3451571871,
				"z": -0.7474145093,
				"element": "S" 
			},
			{
				"x": 2.205307577,
				"y": -0.0956408997,
				"z": 0.9866939954,
				"element": "C" 
			},
			{
				"x": 1.6786715958,
				"y": 1.3313353225,
				"z": 1.1954550853,
				"element": "C" 
			},
			{
				"x": 0.4744691884,
				"y": 1.7286367321,
				"z": 0.3582764358,
				"element": "C" 
			},
			{
				"x": -0.5431072451,
				"y": 0.8480528601,
				"z": 0.2858633476,
				"element": "N" 
			},
			{
				"x": 0.5137019948,
				"y": 2.9337561569,
				"z": -0.1542503888,
				"element": "N" 
			},
			{
				"x": -0.7673064708,
				"y": 3.5483578636,
				"z": -1.0361042353,
				"element": "S" 
			},
			{
				"x": 0.0079192754,
				"y": 4.4531997821,
				"z": -2.2135651733,
				"element": "N" 
			},
			{
				"x": -1.491686945,
				"y": 2.4869313635,
				"z": -1.7736898364,
				"element": "O" 
			},
			{
				"x": -1.5215507946,
				"y": 4.4863637784,
				"z": -0.2128625843,
				"element": "O" 
			},
			{
				"x": 0.8076417761,
				"y": -3.7243217277,
				"z": 0.089723894,
				"element": "C" 
			},
			{
				"x": -0.9065736795,
				"y": -4.0355194589,
				"z": 0.0360220915,
				"element": "S" 
			},
			{
				"x": -1.8352044338,
				"y": 0.5862624949,
				"z": -2.8373911648,
				"element": "H" 
			},
			{
				"x": -0.66013042,
				"y": -0.6206791691,
				"z": -2.3749017982,
				"element": "H" 
			},
			{
				"x": -4.1237544941,
				"y": -0.034863096,
				"z": -2.8097786755,
				"element": "H" 
			},
			{
				"x": -4.5580427701,
				"y": -1.466762229,
				"z": -1.9444498425,
				"element": "H" 
			},
			{
				"x": 2.8033085592,
				"y": -2.3252061043,
				"z": -2.0020201865,
				"element": "H" 
			},
			{
				"x": 3.2318591292,
				"y": -2.7094014787,
				"z": -0.3317080275,
				"element": "H" 
			},
			{
				"x": 1.4431724626,
				"y": -0.8490175496,
				"z": 1.2132055816,
				"element": "H" 
			},
			{
				"x": 3.037145257,
				"y": -0.2693418882,
				"z": 1.6755609604,
				"element": "H" 
			},
			{
				"x": 1.3971947317,
				"y": 1.4462618695,
				"z": 2.250988768,
				"element": "H" 
			},
			{
				"x": 2.4607889108,
				"y": 2.0664874678,
				"z": 0.995444603,
				"element": "H" 
			},
			{
				"x": -0.3556890191,
				"y": -0.1249638406,
				"z": 0.4766306818,
				"element": "H" 
			},
			{
				"x": -1.2700438295,
				"y": 1.0325580074,
				"z": -0.3971065619,
				"element": "H" 
			},
			{
				"x": 0.619349471,
				"y": 3.8643678475,
				"z": -2.7735315253,
				"element": "H" 
			},
			{
				"x": 0.5352211342,
				"y": 5.2064595276,
				"z": -1.778991867,
				"element": "H" 
			},
			{
				"x": 1.4772919828,
				"y": -4.3454245494,
				"z": 0.6675914291,
				"element": "H" 
			}
		],
		 "valence_orbital": [ 
			{
				"type": "occ",
				"energy": -0.2729,
				"method": "rhf"
			},
			{
				"type": "occ",
				"energy": -0.26872,
				"method": "rhf"
			},
			{
				"type": "occ",
				"energy": -0.26121,
				"method": "rhf"
			},
			{
				"type": "occ",
				"energy": -0.23111,
				"method": "rhf"
			},
			{
				"type": "occ",
				"energy": -0.20295,
				"method": "rhf"
			},
			{
				"type": "unocc",
				"energy": -0.02304,
				"method": "rhf"
			},
			{
				"type": "unocc",
				"energy": -0.0156,
				"method": "rhf"
			},
			{
				"type": "unocc",
				"energy": 0.01059,
				"method": "rhf"
			},
			{
				"type": "unocc",
				"energy": 0.02454,
				"method": "rhf"
			},
			{
				"type": "unocc",
				"energy": 0.03939,
				"method": "rhf"
			}
		],
		"cosmo_sigma_profile": { 
			"-0.025": 0.0,
			"-0.024": 0.0,
			"-0.023": 0.0,
			"-0.022": 0.0,
			"-0.021": 0.0,
			"-0.02": 0.0,
			"-0.019": 0.0,
			"-0.018": 0.0,
			"-0.017": 0.0,
			"-0.016": 0.0327609556839,
			"-0.015": 3.19151948099,
			"-0.014": 4.76234485368,
			"-0.013": 5.39785267845,
			"-0.012": 5.31707179047,
			"-0.011": 5.7177025205,
			"-0.01": 6.9470050985,
			"-0.009": 5.47805925632,
			"-0.008": 7.26433977939,
			"-0.007": 11.823885584,
			"-0.006": 18.4432583752,
			"-0.005": 19.6939056668,
			"-0.004": 19.6659862307,
			"-0.003": 17.6818885089,
			"-0.002": 15.5005603556,
			"-0.001": 12.5276872202,
			"0.0": 12.527532478,
			"0.001": 12.2617586868,
			"0.002": 16.7393750008,
			"0.003": 18.9067782158,
			"0.004": 21.226034936,
			"0.005": 17.3797291775,
			"0.006": 13.5494306885,
			"0.007": 12.9080969932,
			"0.008": 10.9500773025,
			"0.009": 8.695901467,
			"0.01": 10.148789517,
			"0.011": 11.8351683835,
			"0.012": 6.11336906445,
			"0.013": 1.635539563,
			"0.014": 0.797542747027,
			"0.015": 0.0579601163213,
			"0.016": 0.0,
			"0.017": 0.0,
			"0.018": 0.0,
			"0.019": 0.0,
			"0.02": 0.0,
			"0.021": 0.0,
			"0.022": 0.0,
			"0.023": 0.0,
			"0.024": 0.0,
			"0.025": 0.0
		}
	}
}
