{
	 "smiles": "BrCC(=O)C1=CC2=C(CCC2)C=C1", 
	 "Tm": 331.15, 
	 "num_atms": 24, 
	 "gaussian": { 
		 "optdone": 1, 
		 "sigma_profile": "yes", 
		 "theory": "DFT", 
		 "functional": "B3LYP", 
		 "basiset": "6-31G**", 
		 "properties": { 
			 "R2extent": 5736.4928, 
			 "electric_dipole_moment_norm": 3.67887013361, 
			 "electric_quadrupole_moment_norm": 8.21438278083, 
			 "total_energy": -3072.4394501, 
			 "HOMO_LUMO_gap": 0.17651, 
			 "cosmo_polarized_energy": -8.44, 
			 "cosmo_cavitation_energy": 29.14, 
			 "cosmo_dispersion_energy": -21.82, 
			 "cosmo_repulsion_energy": 1.74, 
			 "cosmo_total_nonelectrostatic_energy": 9.07, 
			 "SMD_solvation_energy": 3.68 
		},
		"coords": [
			{
				"x": 3.3423229978,
				"y": -3.7077306486,
				"z": -0.316721452,
				"element": "Br" 
			},
			{
				"x": 3.60247519,
				"y": -2.3296967154,
				"z": 1.0832928235,
				"element": "C" 
			},
			{
				"x": 2.9597048106,
				"y": -1.0034584804,
				"z": 0.6811681784,
				"element": "C" 
			},
			{
				"x": 3.6961110598,
				"y": -0.0878676203,
				"z": 0.3453394254,
				"element": "O" 
			},
			{
				"x": 1.4808508061,
				"y": -0.839170278,
				"z": 0.7543192488,
				"element": "C" 
			},
			{
				"x": 0.9513561209,
				"y": 0.4257980239,
				"z": 0.4351732495,
				"element": "C" 
			},
			{
				"x": -0.4184299914,
				"y": 0.633734586,
				"z": 0.50425889,
				"element": "C" 
			},
			{
				"x": -1.2763566236,
				"y": -0.4090224547,
				"z": 0.8950976734,
				"element": "C" 
			},
			{
				"x": -2.7124165988,
				"y": 0.0667130783,
				"z": 0.9090437605,
				"element": "C" 
			},
			{
				"x": -2.6618776608,
				"y": 1.3673247926,
				"z": 0.0669847709,
				"element": "C" 
			},
			{
				"x": -1.2124032631,
				"y": 1.8936105082,
				"z": 0.2253227862,
				"element": "C" 
			},
			{
				"x": -0.7619981575,
				"y": -1.6643609665,
				"z": 1.2148468708,
				"element": "C" 
			},
			{
				"x": 0.6153724305,
				"y": -1.8769885294,
				"z": 1.1412528979,
				"element": "C" 
			},
			{
				"x": 4.6764678524,
				"y": -2.1837324724,
				"z": 1.1641745967,
				"element": "H" 
			},
			{
				"x": 3.1913618331,
				"y": -2.7509502963,
				"z": 2.0001067493,
				"element": "H" 
			},
			{
				"x": 1.6386846586,
				"y": 1.2112227929,
				"z": 0.1369290182,
				"element": "H" 
			},
			{
				"x": -3.4158639861,
				"y": -0.6734293976,
				"z": 0.5135440662,
				"element": "H" 
			},
			{
				"x": -3.0252473445,
				"y": 0.2792555508,
				"z": 1.9415242597,
				"element": "H" 
			},
			{
				"x": -2.8441871128,
				"y": 1.1221994153,
				"z": -0.9851897179,
				"element": "H" 
			},
			{
				"x": -3.4165303194,
				"y": 2.0986551195,
				"z": 0.3686484838,
				"element": "H" 
			},
			{
				"x": -1.1367444228,
				"y": 2.5836185754,
				"z": 1.0775200345,
				"element": "H" 
			},
			{
				"x": -0.8586176834,
				"y": 2.4394612805,
				"z": -0.6550991295,
				"element": "H" 
			},
			{
				"x": -1.4214974226,
				"y": -2.4766878299,
				"z": 1.5081662888,
				"element": "H" 
			},
			{
				"x": 1.0077628269,
				"y": -2.8640980341,
				"z": 1.3597962269,
				"element": "H" 
			}
		],
		 "valence_orbital": [ 
			{
				"type": "occ",
				"energy": -0.29003,
				"method": "rhf"
			},
			{
				"type": "occ",
				"energy": -0.28063,
				"method": "rhf"
			},
			{
				"type": "occ",
				"energy": -0.25604,
				"method": "rhf"
			},
			{
				"type": "occ",
				"energy": -0.25416,
				"method": "rhf"
			},
			{
				"type": "occ",
				"energy": -0.24565,
				"method": "rhf"
			},
			{
				"type": "unocc",
				"energy": -0.06914,
				"method": "rhf"
			},
			{
				"type": "unocc",
				"energy": -0.01145,
				"method": "rhf"
			},
			{
				"type": "unocc",
				"energy": -0.00804,
				"method": "rhf"
			},
			{
				"type": "unocc",
				"energy": 0.05127,
				"method": "rhf"
			},
			{
				"type": "unocc",
				"energy": 0.09204,
				"method": "rhf"
			}
		],
		"cosmo_sigma_profile": { 
			"-0.025": 0.0,
			"-0.024": 0.0,
			"-0.023": 0.0,
			"-0.022": 0.0,
			"-0.021": 0.0,
			"-0.02": 0.0,
			"-0.019": 0.0,
			"-0.018": 0.0,
			"-0.017": 0.0,
			"-0.016": 0.0,
			"-0.015": 0.0,
			"-0.014": 0.0,
			"-0.013": 0.0,
			"-0.012": 0.0,
			"-0.011": 0.0,
			"-0.01": 0.038608729553,
			"-0.009": 2.25892441381,
			"-0.008": 4.09512613234,
			"-0.007": 4.86244240855,
			"-0.006": 6.50458212853,
			"-0.005": 9.72870473546,
			"-0.004": 16.3228964134,
			"-0.003": 23.7584736753,
			"-0.002": 27.0739230805,
			"-0.001": 23.5256196028,
			"0.0": 21.4466880873,
			"0.001": 15.5996583934,
			"0.002": 13.4956087853,
			"0.003": 16.5439282492,
			"0.004": 20.1669116184,
			"0.005": 11.9146534601,
			"0.006": 3.38820087759,
			"0.007": 1.46737839465,
			"0.008": 1.31679935113,
			"0.009": 2.24135620127,
			"0.01": 2.394482057,
			"0.011": 4.04536982264,
			"0.012": 1.98430532637,
			"0.013": 0.187866241419,
			"0.014": 0.0,
			"0.015": 0.0,
			"0.016": 0.0,
			"0.017": 0.0,
			"0.018": 0.0,
			"0.019": 0.0,
			"0.02": 0.0,
			"0.021": 0.0,
			"0.022": 0.0,
			"0.023": 0.0,
			"0.024": 0.0,
			"0.025": 0.0
		}
	}
}
