{
	 "smiles": "NS(=O)(=O)C1=CC=C(C=C1)N1CCNCC1", 
	 "Tm": 493.15, 
	 "num_atms": 31, 
	 "gaussian": { 
		 "optdone": 1, 
		 "sigma_profile": "yes", 
		 "theory": "DFT", 
		 "functional": "B3LYP", 
		 "basiset": "6-31G**", 
		 "properties": { 
			 "R2extent": 6260.3082, 
			 "electric_dipole_moment_norm": 7.7520488137, 
			 "electric_quadrupole_moment_norm": 28.8477014239, 
			 "total_energy": -1102.91233363, 
			 "HOMO_LUMO_gap": 0.18584, 
			 "cosmo_polarized_energy": -23.58, 
			 "cosmo_cavitation_energy": 34.08, 
			 "cosmo_dispersion_energy": -25.8, 
			 "cosmo_repulsion_energy": 1.95, 
			 "cosmo_total_nonelectrostatic_energy": 10.23, 
			 "SMD_solvation_energy": 1.22 
		},
		"coords": [
			{
				"x": 1.6148667958,
				"y": 4.6806956878,
				"z": 0.0266046872,
				"element": "N" 
			},
			{
				"x": 2.4041456979,
				"y": 3.4792625019,
				"z": -0.8582840028,
				"element": "S" 
			},
			{
				"x": 3.7548978733,
				"y": 3.4160319397,
				"z": -0.3004225945,
				"element": "O" 
			},
			{
				"x": 2.1344224461,
				"y": 3.7962099361,
				"z": -2.2606434822,
				"element": "O" 
			},
			{
				"x": 1.5930373079,
				"y": 1.9293056001,
				"z": -0.4882994731,
				"element": "C" 
			},
			{
				"x": 2.0486867783,
				"y": 1.1354445279,
				"z": 0.564034236,
				"element": "C" 
			},
			{
				"x": 1.3995567119,
				"y": -0.0569161028,
				"z": 0.8714075577,
				"element": "C" 
			},
			{
				"x": 0.2850636293,
				"y": -0.4958755416,
				"z": 0.1233614611,
				"element": "C" 
			},
			{
				"x": -0.1460055565,
				"y": 0.3211838528,
				"z": -0.948908025,
				"element": "C" 
			},
			{
				"x": 0.4951302234,
				"y": 1.5131862234,
				"z": -1.250191319,
				"element": "C" 
			},
			{
				"x": -0.3519388147,
				"y": -1.7155486925,
				"z": 0.3817279731,
				"element": "N" 
			},
			{
				"x": -1.8215817188,
				"y": -1.7621908523,
				"z": 0.3633505542,
				"element": "C" 
			},
			{
				"x": -2.320117407,
				"y": -3.2001409368,
				"z": 0.1716449224,
				"element": "C" 
			},
			{
				"x": -1.7689549126,
				"y": -4.1441304756,
				"z": 1.1431177406,
				"element": "N" 
			},
			{
				"x": -0.3107245002,
				"y": -4.0491468713,
				"z": 1.1742889421,
				"element": "C" 
			},
			{
				"x": 0.228016586,
				"y": -2.6225064962,
				"z": 1.3721817162,
				"element": "C" 
			},
			{
				"x": 1.7105088618,
				"y": 4.5458101722,
				"z": 1.0285323854,
				"element": "H" 
			},
			{
				"x": 0.6475547117,
				"y": 4.7967333995,
				"z": -0.2597677282,
				"element": "H" 
			},
			{
				"x": 2.9157763092,
				"y": 1.4478938824,
				"z": 1.1367713113,
				"element": "H" 
			},
			{
				"x": 1.7633652347,
				"y": -0.6398669863,
				"z": 1.7081061546,
				"element": "H" 
			},
			{
				"x": -0.96329095,
				"y": -0.0044493799,
				"z": -1.582245103,
				"element": "H" 
			},
			{
				"x": 0.1741105383,
				"y": 2.1073891825,
				"z": -2.0995153817,
				"element": "H" 
			},
			{
				"x": -2.203234273,
				"y": -1.1293619689,
				"z": -0.4388293896,
				"element": "H" 
			},
			{
				"x": -2.2225896617,
				"y": -1.3602176721,
				"z": 1.3128268012,
				"element": "H" 
			},
			{
				"x": -2.0377510833,
				"y": -3.5442006657,
				"z": -0.8314981421,
				"element": "H" 
			},
			{
				"x": -3.4136672567,
				"y": -3.2192920155,
				"z": 0.2315010485,
				"element": "H" 
			},
			{
				"x": -2.1426918546,
				"y": -3.9341181596,
				"z": 2.0674815019,
				"element": "H" 
			},
			{
				"x": 0.0752562387,
				"y": -4.6955829416,
				"z": 1.9697062352,
				"element": "H" 
			},
			{
				"x": 0.0710707569,
				"y": -4.4369528923,
				"z": 0.221470243,
				"element": "H" 
			},
			{
				"x": 0.0132190577,
				"y": -2.2831417253,
				"z": 2.4035161754,
				"element": "H" 
			},
			{
				"x": 1.3142622303,
				"y": -2.6362065299,
				"z": 1.2482729942,
				"element": "H" 
			}
		],
		 "valence_orbital": [ 
			{
				"type": "occ",
				"energy": -0.29486,
				"method": "rhf"
			},
			{
				"type": "occ",
				"energy": -0.28823,
				"method": "rhf"
			},
			{
				"type": "occ",
				"energy": -0.26849,
				"method": "rhf"
			},
			{
				"type": "occ",
				"energy": -0.23817,
				"method": "rhf"
			},
			{
				"type": "occ",
				"energy": -0.21276,
				"method": "rhf"
			},
			{
				"type": "unocc",
				"energy": -0.02692,
				"method": "rhf"
			},
			{
				"type": "unocc",
				"energy": -0.01839,
				"method": "rhf"
			},
			{
				"type": "unocc",
				"energy": 0.05776,
				"method": "rhf"
			},
			{
				"type": "unocc",
				"energy": 0.0678,
				"method": "rhf"
			},
			{
				"type": "unocc",
				"energy": 0.08128,
				"method": "rhf"
			}
		],
		"cosmo_sigma_profile": { 
			"-0.025": 0.0,
			"-0.024": 0.0,
			"-0.023": 0.0,
			"-0.022": 0.0,
			"-0.021": 0.0,
			"-0.02": 0.0,
			"-0.019": 0.0,
			"-0.018": 0.0,
			"-0.017": 0.0,
			"-0.016": 0.0227907767445,
			"-0.015": 1.60735203214,
			"-0.014": 2.27143785793,
			"-0.013": 2.55871892231,
			"-0.012": 2.7613165204,
			"-0.011": 2.62264929106,
			"-0.01": 2.90241279204,
			"-0.009": 3.89834609177,
			"-0.008": 4.49674653319,
			"-0.007": 7.00486827991,
			"-0.006": 11.8165361288,
			"-0.005": 16.4636160449,
			"-0.004": 23.4317999724,
			"-0.003": 30.6375734874,
			"-0.002": 20.8345876196,
			"-0.001": 15.4554630259,
			"0.0": 10.1484873469,
			"0.001": 10.4778768447,
			"0.002": 10.1728187233,
			"0.003": 14.0881750736,
			"0.004": 16.0166085471,
			"0.005": 5.64802979704,
			"0.006": 5.33367635957,
			"0.007": 4.15223709516,
			"0.008": 5.65205097905,
			"0.009": 6.31037167833,
			"0.01": 6.68002429074,
			"0.011": 10.7726799512,
			"0.012": 9.3052180614,
			"0.013": 1.644769739,
			"0.014": 0.531809594284,
			"0.015": 0.462120141506,
			"0.016": 0.7413431804,
			"0.017": 0.639683287687,
			"0.018": 0.400516870724,
			"0.019": 0.102016632893,
			"0.02": 0.0,
			"0.021": 0.0,
			"0.022": 0.0,
			"0.023": 0.0,
			"0.024": 0.0,
			"0.025": 0.0
		}
	}
}
