{
	 "smiles": "OC(=O)C1=CC(=CC=C1)N1C=NC=N1", 
	 "Tm": 538.15, 
	 "num_atms": 21, 
	 "gaussian": { 
		 "optdone": 1, 
		 "sigma_profile": "yes", 
		 "theory": "DFT", 
		 "functional": "B3LYP", 
		 "basiset": "6-31G**", 
		 "properties": { 
			 "R2extent": 3292.2198, 
			 "electric_dipole_moment_norm": 3.46763414016, 
			 "electric_quadrupole_moment_norm": 23.7079166655, 
			 "total_energy": -661.866240702, 
			 "HOMO_LUMO_gap": 0.19268, 
			 "cosmo_polarized_energy": -18.65, 
			 "cosmo_cavitation_energy": 26.49, 
			 "cosmo_dispersion_energy": -19.53, 
			 "cosmo_repulsion_energy": 1.49, 
			 "cosmo_total_nonelectrostatic_energy": 8.45, 
			 "SMD_solvation_energy": 3.98 
		},
		"coords": [
			{
				"x": 3.1301162837,
				"y": -0.4330550759,
				"z": -2.3469747505,
				"element": "O" 
			},
			{
				"x": 2.4391350498,
				"y": -1.5921422147,
				"z": -2.2040252749,
				"element": "C" 
			},
			{
				"x": 2.6932033091,
				"y": -2.5422772933,
				"z": -2.9055942119,
				"element": "O" 
			},
			{
				"x": 1.3699593215,
				"y": -1.621713695,
				"z": -1.147880543,
				"element": "C" 
			},
			{
				"x": 0.7811137175,
				"y": -0.4577943708,
				"z": -0.6445831524,
				"element": "C" 
			},
			{
				"x": -0.2145873919,
				"y": -0.551010701,
				"z": 0.3314035211,
				"element": "C" 
			},
			{
				"x": -0.6197188089,
				"y": -1.7997548034,
				"z": 0.8120123559,
				"element": "C" 
			},
			{
				"x": -0.0461291506,
				"y": -2.9572367555,
				"z": 0.2841016344,
				"element": "C" 
			},
			{
				"x": 0.9385304472,
				"y": -2.8759955975,
				"z": -0.6962702388,
				"element": "C" 
			},
			{
				"x": -0.809126814,
				"y": 0.6392741915,
				"z": 0.8234963129,
				"element": "N" 
			},
			{
				"x": -2.010183663,
				"y": 0.8276571267,
				"z": 1.437286143,
				"element": "C" 
			},
			{
				"x": -2.1913521659,
				"y": 2.1026785395,
				"z": 1.7186899944,
				"element": "N" 
			},
			{
				"x": -1.0488085402,
				"y": 2.6770209232,
				"z": 1.2426895179,
				"element": "C" 
			},
			{
				"x": -0.1826369586,
				"y": 1.8441377728,
				"z": 0.6907109221,
				"element": "N" 
			},
			{
				"x": 2.9258276528,
				"y": 0.1777886791,
				"z": -1.6251270193,
				"element": "H" 
			},
			{
				"x": 1.0438274471,
				"y": 0.5310010134,
				"z": -1.00375965,
				"element": "H" 
			},
			{
				"x": -1.3636019253,
				"y": -1.8724828206,
				"z": 1.5980082645,
				"element": "H" 
			},
			{
				"x": -0.366874692,
				"y": -3.9261774581,
				"z": 0.6533523867,
				"element": "H" 
			},
			{
				"x": 1.3918078999,
				"y": -3.7645835498,
				"z": -1.1206345752,
				"element": "H" 
			},
			{
				"x": -2.7085801672,
				"y": 0.0271941267,
				"z": 1.6323095776,
				"element": "H" 
			},
			{
				"x": -0.849520851,
				"y": 3.737771963,
				"z": 1.3066887856,
				"element": "H" 
			}
		],
		 "valence_orbital": [ 
			{
				"type": "occ",
				"energy": -0.29483,
				"method": "rhf"
			},
			{
				"type": "occ",
				"energy": -0.29371,
				"method": "rhf"
			},
			{
				"type": "occ",
				"energy": -0.28768,
				"method": "rhf"
			},
			{
				"type": "occ",
				"energy": -0.2797,
				"method": "rhf"
			},
			{
				"type": "occ",
				"energy": -0.25892,
				"method": "rhf"
			},
			{
				"type": "unocc",
				"energy": -0.06624,
				"method": "rhf"
			},
			{
				"type": "unocc",
				"energy": -0.05129,
				"method": "rhf"
			},
			{
				"type": "unocc",
				"energy": 0.00254,
				"method": "rhf"
			},
			{
				"type": "unocc",
				"energy": 0.03493,
				"method": "rhf"
			},
			{
				"type": "unocc",
				"energy": 0.04599,
				"method": "rhf"
			}
		],
		"cosmo_sigma_profile": { 
			"-0.025": 0.0,
			"-0.024": 0.0,
			"-0.023": 0.0,
			"-0.022": 0.0,
			"-0.021": 0.0,
			"-0.02": 0.0,
			"-0.019": 0.416309596539,
			"-0.018": 0.569637208008,
			"-0.017": 1.23378261388,
			"-0.016": 1.25044079007,
			"-0.015": 0.975576516507,
			"-0.014": 0.765496875421,
			"-0.013": 0.960855948433,
			"-0.012": 1.86588378684,
			"-0.011": 4.2122470451,
			"-0.01": 2.89076338979,
			"-0.009": 5.21859303554,
			"-0.008": 6.48559073329,
			"-0.007": 7.84928294267,
			"-0.006": 10.660103342,
			"-0.005": 8.88434805614,
			"-0.004": 11.2176278529,
			"-0.003": 10.4317183822,
			"-0.002": 12.5740394009,
			"-0.001": 13.6349585963,
			"0.0": 14.3806541232,
			"0.001": 18.7790021815,
			"0.002": 14.3756949973,
			"0.003": 7.47210696536,
			"0.004": 5.51578957709,
			"0.005": 4.97950512175,
			"0.006": 5.33300197269,
			"0.007": 5.16812596831,
			"0.008": 4.68760592403,
			"0.009": 6.49968301777,
			"0.01": 7.34790489507,
			"0.011": 7.12101173796,
			"0.012": 5.44683103911,
			"0.013": 2.18546286844,
			"0.014": 0.938518736456,
			"0.015": 1.14811506315,
			"0.016": 0.604737896798,
			"0.017": 0.0181147154161,
			"0.018": 0.0,
			"0.019": 0.0,
			"0.02": 0.0,
			"0.021": 0.0,
			"0.022": 0.0,
			"0.023": 0.0,
			"0.024": 0.0,
			"0.025": 0.0
		}
	}
}
