{
	 "smiles": "CC(O)(C1CC1)C(O)=O", 
	 "Tm": 313.15, 
	 "num_atms": 19, 
	 "gaussian": { 
		 "optdone": 1, 
		 "sigma_profile": "yes", 
		 "theory": "DFT", 
		 "functional": "B3LYP", 
		 "basiset": "6-31G**", 
		 "properties": { 
			 "R2extent": 2302.0522, 
			 "electric_dipole_moment_norm": 2.11539406494, 
			 "electric_quadrupole_moment_norm": 11.1957892683, 
			 "total_energy": -460.316990095, 
			 "HOMO_LUMO_gap": 0.25753, 
			 "cosmo_polarized_energy": -9.95, 
			 "cosmo_cavitation_energy": 21.67, 
			 "cosmo_dispersion_energy": -15.68, 
			 "cosmo_repulsion_energy": 1.3, 
			 "cosmo_total_nonelectrostatic_energy": 7.29, 
			 "SMD_solvation_energy": 4.62 
		},
		"coords": [
			{
				"x": -2.5958562402,
				"y": -0.4365480277,
				"z": -1.8921149716,
				"element": "C" 
			},
			{
				"x": -2.2884119303,
				"y": -1.1437280986,
				"z": -0.5682175248,
				"element": "C" 
			},
			{
				"x": -3.5301157671,
				"y": -1.349067611,
				"z": 0.0898996855,
				"element": "O" 
			},
			{
				"x": -1.3829105428,
				"y": -0.2734235806,
				"z": 0.3160915622,
				"element": "C" 
			},
			{
				"x": -0.5418105761,
				"y": -0.835252755,
				"z": 1.4351739645,
				"element": "C" 
			},
			{
				"x": 0.1212477438,
				"y": -0.227653619,
				"z": 0.2197197331,
				"element": "C" 
			},
			{
				"x": -1.6600887225,
				"y": -2.5270413332,
				"z": -0.7906447198,
				"element": "C" 
			},
			{
				"x": -0.7546147744,
				"y": -2.5778000556,
				"z": -1.7885343165,
				"element": "O" 
			},
			{
				"x": -1.9348446563,
				"y": -3.4934948472,
				"z": -0.1078813804,
				"element": "O" 
			},
			{
				"x": -3.1096804082,
				"y": 0.5041384953,
				"z": -1.6761995531,
				"element": "H" 
			},
			{
				"x": -3.2559671383,
				"y": -1.050741236,
				"z": -2.5103002815,
				"element": "H" 
			},
			{
				"x": -1.6799263277,
				"y": -0.2230700243,
				"z": -2.4458978955,
				"element": "H" 
			},
			{
				"x": -3.4014425143,
				"y": -2.1041587464,
				"z": 0.6849476317,
				"element": "H" 
			},
			{
				"x": -1.8791420933,
				"y": 0.6713168164,
				"z": 0.5278212145,
				"element": "H" 
			},
			{
				"x": -0.4940193725,
				"y": -1.9140012888,
				"z": 1.5536358206,
				"element": "H" 
			},
			{
				"x": -0.5128384532,
				"y": -0.2879134404,
				"z": 2.3723194949,
				"element": "H" 
			},
			{
				"x": 0.6044202392,
				"y": 0.7395571146,
				"z": 0.320585252,
				"element": "H" 
			},
			{
				"x": 0.6138172965,
				"y": -0.8974053732,
				"z": -0.4777350762,
				"element": "H" 
			},
			{
				"x": -0.4204157624,
				"y": -3.4915123895,
				"z": -1.8086686397,
				"element": "H" 
			}
		],
		 "valence_orbital": [ 
			{
				"type": "occ",
				"energy": -0.32932,
				"method": "rhf"
			},
			{
				"type": "occ",
				"energy": -0.30877,
				"method": "rhf"
			},
			{
				"type": "occ",
				"energy": -0.29229,
				"method": "rhf"
			},
			{
				"type": "occ",
				"energy": -0.28773,
				"method": "rhf"
			},
			{
				"type": "occ",
				"energy": -0.26358,
				"method": "rhf"
			},
			{
				"type": "unocc",
				"energy": -0.00605,
				"method": "rhf"
			},
			{
				"type": "unocc",
				"energy": 0.06169,
				"method": "rhf"
			},
			{
				"type": "unocc",
				"energy": 0.09544,
				"method": "rhf"
			},
			{
				"type": "unocc",
				"energy": 0.1076,
				"method": "rhf"
			},
			{
				"type": "unocc",
				"energy": 0.12641,
				"method": "rhf"
			}
		],
		"cosmo_sigma_profile": { 
			"-0.025": 0.0,
			"-0.024": 0.0,
			"-0.023": 0.0,
			"-0.022": 0.0,
			"-0.021": 0.0,
			"-0.02": 0.0,
			"-0.019": 0.448512526021,
			"-0.018": 1.18280447251,
			"-0.017": 0.970019664807,
			"-0.016": 0.172743790589,
			"-0.015": 0.824976157802,
			"-0.014": 1.06328199291,
			"-0.013": 0.493933954592,
			"-0.012": 1.45584385151,
			"-0.011": 1.98387535227,
			"-0.01": 0.892600219512,
			"-0.009": 0.560273973086,
			"-0.008": 0.867347666657,
			"-0.007": 1.82316256053,
			"-0.006": 1.68184114794,
			"-0.005": 5.9242185368,
			"-0.004": 15.5863342715,
			"-0.003": 18.8140084875,
			"-0.002": 14.0900154439,
			"-0.001": 15.0639879821,
			"0.0": 16.4156210631,
			"0.001": 12.1577021602,
			"0.002": 9.85346924028,
			"0.003": 8.07785856315,
			"0.004": 6.01232306339,
			"0.005": 6.02636825978,
			"0.006": 3.77540164448,
			"0.007": 4.16860346858,
			"0.008": 2.78125828424,
			"0.009": 2.99758547938,
			"0.01": 3.6651760321,
			"0.011": 4.46761927093,
			"0.012": 1.88217915757,
			"0.013": 1.92144359454,
			"0.014": 0.960243771636,
			"0.015": 0.0,
			"0.016": 0.0,
			"0.017": 0.0,
			"0.018": 0.0,
			"0.019": 0.0,
			"0.02": 0.0,
			"0.021": 0.0,
			"0.022": 0.0,
			"0.023": 0.0,
			"0.024": 0.0,
			"0.025": 0.0
		}
	}
}
