{
	 "smiles": "NC1=C(C=NN1C1=CC=C(Br)C=C1)C#N", 
	 "Tm": 451.15, 
	 "num_atms": 22, 
	 "gaussian": { 
		 "optdone": 1, 
		 "sigma_profile": "yes", 
		 "theory": "DFT", 
		 "functional": "B3LYP", 
		 "basiset": "6-31G**", 
		 "properties": { 
			 "R2extent": 8002.9817, 
			 "electric_dipole_moment_norm": 3.70581266931, 
			 "electric_quadrupole_moment_norm": 25.7567156383, 
			 "total_energy": -3175.65688443, 
			 "HOMO_LUMO_gap": 0.18985, 
			 "cosmo_polarized_energy": -16.18, 
			 "cosmo_cavitation_energy": 30.36, 
			 "cosmo_dispersion_energy": -22.13, 
			 "cosmo_repulsion_energy": 1.72, 
			 "cosmo_total_nonelectrostatic_energy": 9.96, 
			 "SMD_solvation_energy": 4.89 
		},
		"coords": [
			{
				"x": -1.6624472754,
				"y": -0.4383874094,
				"z": -1.8820874616,
				"element": "N" 
			},
			{
				"x": -0.3203167742,
				"y": -0.3491205954,
				"z": -1.5887964533,
				"element": "C" 
			},
			{
				"x": 0.7151210532,
				"y": 0.2013199513,
				"z": -2.352208913,
				"element": "C" 
			},
			{
				"x": 1.877457703,
				"y": 0.0398092917,
				"z": -1.5458592612,
				"element": "C" 
			},
			{
				"x": 1.6102263455,
				"y": -0.5480070475,
				"z": -0.3994172948,
				"element": "N" 
			},
			{
				"x": 0.2466582003,
				"y": -0.771749218,
				"z": -0.4208697526,
				"element": "N" 
			},
			{
				"x": -0.3646568816,
				"y": -1.4253168539,
				"z": 0.6821241001,
				"element": "C" 
			},
			{
				"x": -1.6529640902,
				"y": -1.0750143337,
				"z": 1.1033754398,
				"element": "C" 
			},
			{
				"x": -2.2318006542,
				"y": -1.7345587029,
				"z": 2.1880361472,
				"element": "C" 
			},
			{
				"x": -1.512110434,
				"y": -2.7228912493,
				"z": 2.8555772176,
				"element": "C" 
			},
			{
				"x": -2.3033190898,
				"y": -3.6228008532,
				"z": 4.3403177125,
				"element": "Br" 
			},
			{
				"x": -0.2175406796,
				"y": -3.0588522155,
				"z": 2.4566601946,
				"element": "C" 
			},
			{
				"x": 0.3553643185,
				"y": -2.4121609222,
				"z": 1.3657098047,
				"element": "C" 
			},
			{
				"x": 0.5736085551,
				"y": 0.7447058335,
				"z": -3.6484303012,
				"element": "C" 
			},
			{
				"x": 0.4172169864,
				"y": 1.1772588437,
				"z": -4.719800497,
				"element": "N" 
			},
			{
				"x": -1.8703434693,
				"y": -0.261857107,
				"z": -2.857159919,
				"element": "H" 
			},
			{
				"x": -2.1398822543,
				"y": -1.2543362013,
				"z": -1.5199163345,
				"element": "H" 
			},
			{
				"x": 2.8888887237,
				"y": 0.3393186902,
				"z": -1.7840712798,
				"element": "H" 
			},
			{
				"x": -2.1933461444,
				"y": -0.276318138,
				"z": 0.607850231,
				"element": "H" 
			},
			{
				"x": -3.2282904541,
				"y": -1.466341223,
				"z": 2.5193466176,
				"element": "H" 
			},
			{
				"x": 0.3356367114,
				"y": -3.823611089,
				"z": 2.9894757661,
				"element": "H" 
			},
			{
				"x": 1.360739604,
				"y": -2.6523894512,
				"z": 1.0416442368,
				"element": "H" 
			}
		],
		 "valence_orbital": [ 
			{
				"type": "occ",
				"energy": -0.2994,
				"method": "rhf"
			},
			{
				"type": "occ",
				"energy": -0.28699,
				"method": "rhf"
			},
			{
				"type": "occ",
				"energy": -0.28377,
				"method": "rhf"
			},
			{
				"type": "occ",
				"energy": -0.24325,
				"method": "rhf"
			},
			{
				"type": "occ",
				"energy": -0.23486,
				"method": "rhf"
			},
			{
				"type": "unocc",
				"energy": -0.04501,
				"method": "rhf"
			},
			{
				"type": "unocc",
				"energy": -0.03559,
				"method": "rhf"
			},
			{
				"type": "unocc",
				"energy": -0.00578,
				"method": "rhf"
			},
			{
				"type": "unocc",
				"energy": -0.00119,
				"method": "rhf"
			},
			{
				"type": "unocc",
				"energy": 0.01588,
				"method": "rhf"
			}
		],
		"cosmo_sigma_profile": { 
			"-0.025": 0.0,
			"-0.024": 0.0,
			"-0.023": 0.0,
			"-0.022": 0.0,
			"-0.021": 0.0,
			"-0.02": 0.0,
			"-0.019": 0.0,
			"-0.018": 0.0,
			"-0.017": 0.0,
			"-0.016": 0.0,
			"-0.015": 0.49872834114,
			"-0.014": 2.23624581542,
			"-0.013": 2.37966005159,
			"-0.012": 2.93608937399,
			"-0.011": 2.56600841211,
			"-0.01": 2.35747010392,
			"-0.009": 3.90016059618,
			"-0.008": 6.02877151011,
			"-0.007": 10.6352148898,
			"-0.006": 11.5308642647,
			"-0.005": 9.12572320335,
			"-0.004": 11.5282742363,
			"-0.003": 13.1336591239,
			"-0.002": 12.5409849592,
			"-0.001": 14.9398541872,
			"0.0": 18.5572360448,
			"0.001": 23.2565203914,
			"0.002": 27.6159052571,
			"0.003": 14.2826614837,
			"0.004": 16.2322798755,
			"0.005": 8.36124385137,
			"0.006": 4.8149486909,
			"0.007": 3.88465825835,
			"0.008": 4.45494437875,
			"0.009": 5.36232913885,
			"0.01": 4.39804523485,
			"0.011": 4.2132314047,
			"0.012": 3.50395974633,
			"0.013": 3.18578425428,
			"0.014": 0.650958566253,
			"0.015": 0.0,
			"0.016": 0.0,
			"0.017": 0.0,
			"0.018": 0.0,
			"0.019": 0.0,
			"0.02": 0.0,
			"0.021": 0.0,
			"0.022": 0.0,
			"0.023": 0.0,
			"0.024": 0.0,
			"0.025": 0.0
		}
	}
}
