{
	 "smiles": "[O-][N+](=O)C1=CC(=C(C=C/C2=CC=CC=C2)C=C1C(Br)=CC1=CC=CC=C1)[N+]([O-])=O", 
	 "Tm": 468.15, 
	 "num_atms": 44, 
	 "gaussian": { 
		 "optdone": 1, 
		 "sigma_profile": "yes", 
		 "theory": "DFT", 
		 "functional": "B3LYP", 
		 "basiset": "6-31G**", 
		 "properties": { 
			 "R2extent": 15439.0293, 
			 "electric_dipole_moment_norm": 6.08443819592, 
			 "electric_quadrupole_moment_norm": 21.3723992689, 
			 "total_energy": -3828.93507457, 
			 "HOMO_LUMO_gap": 0.12591, 
			 "cosmo_polarized_energy": -16.97, 
			 "cosmo_cavitation_energy": 52.88, 
			 "cosmo_dispersion_energy": -33.17, 
			 "cosmo_repulsion_energy": 2.51, 
			 "cosmo_total_nonelectrostatic_energy": 22.22, 
			 "SMD_solvation_energy": 11.74 
		},
		"coords": [
			{
				"x": -1.2044933269,
				"y": 1.3641629897,
				"z": 5.140210446,
				"element": "O" 
			},
			{
				"x": -1.7333806279,
				"y": 0.6621396925,
				"z": 4.281483327,
				"element": "N" 
			},
			{
				"x": -2.9441447463,
				"y": 0.5743902146,
				"z": 4.0852190718,
				"element": "O" 
			},
			{
				"x": -0.846604704,
				"y": -0.1090754776,
				"z": 3.3960740772,
				"element": "C" 
			},
			{
				"x": 0.4447481094,
				"y": 0.3736518489,
				"z": 3.2323616309,
				"element": "C" 
			},
			{
				"x": 1.310991901,
				"y": -0.2711376491,
				"z": 2.3592873291,
				"element": "C" 
			},
			{
				"x": 0.9110977174,
				"y": -1.388413647,
				"z": 1.6018275228,
				"element": "C" 
			},
			{
				"x": 1.7437780805,
				"y": -2.1154046106,
				"z": 0.6167313613,
				"element": "C" 
			},
			{
				"x": 2.3609262585,
				"y": -1.6330231277,
				"z": -0.4759883476,
				"element": "C" 
			},
			{
				"x": 2.3656822124,
				"y": -0.2638368134,
				"z": -1.0174144756,
				"element": "C" 
			},
			{
				"x": 1.250357904,
				"y": 0.590585284,
				"z": -0.9454057708,
				"element": "C" 
			},
			{
				"x": 1.3057633637,
				"y": 1.875699596,
				"z": -1.4815642416,
				"element": "C" 
			},
			{
				"x": 2.4705440846,
				"y": 2.3320261825,
				"z": -2.1021503613,
				"element": "C" 
			},
			{
				"x": 3.5782880216,
				"y": 1.4871879135,
				"z": -2.1989108371,
				"element": "C" 
			},
			{
				"x": 3.5215788587,
				"y": 0.1991844815,
				"z": -1.6720676356,
				"element": "C" 
			},
			{
				"x": -0.3923190341,
				"y": -1.8592580549,
				"z": 1.8316111076,
				"element": "C" 
			},
			{
				"x": -1.2990007136,
				"y": -1.2506590077,
				"z": 2.7087075864,
				"element": "C" 
			},
			{
				"x": -2.6131979988,
				"y": -1.912053199,
				"z": 2.9010037502,
				"element": "C" 
			},
			{
				"x": -2.8119465981,
				"y": -2.7308627125,
				"z": 4.6338546912,
				"element": "Br" 
			},
			{
				"x": -3.566852266,
				"y": -2.108679987,
				"z": 1.9792193284,
				"element": "C" 
			},
			{
				"x": -3.6194325522,
				"y": -1.5168917679,
				"z": 0.6302431968,
				"element": "C" 
			},
			{
				"x": -4.1492252591,
				"y": -2.2760596429,
				"z": -0.4282154745,
				"element": "C" 
			},
			{
				"x": -4.215527898,
				"y": -1.7518540584,
				"z": -1.7176002215,
				"element": "C" 
			},
			{
				"x": -3.7714753353,
				"y": -0.4517868012,
				"z": -1.9692223525,
				"element": "C" 
			},
			{
				"x": -3.2724606438,
				"y": 0.3237347839,
				"z": -0.9198180627,
				"element": "C" 
			},
			{
				"x": -3.1986657833,
				"y": -0.2005058769,
				"z": 0.3695405668,
				"element": "C" 
			},
			{
				"x": 2.6872709253,
				"y": 0.2627819296,
				"z": 2.311161003,
				"element": "N" 
			},
			{
				"x": 2.8150363129,
				"y": 1.4777633831,
				"z": 2.4504844771,
				"element": "O" 
			},
			{
				"x": 3.6052458044,
				"y": -0.5393680821,
				"z": 2.1792365549,
				"element": "O" 
			},
			{
				"x": 0.7717276112,
				"y": 1.2456230863,
				"z": 3.7828269295,
				"element": "H" 
			},
			{
				"x": 1.8203878121,
				"y": -3.1842553462,
				"z": 0.8066997292,
				"element": "H" 
			},
			{
				"x": 2.9568770354,
				"y": -2.348530772,
				"z": -1.0407663514,
				"element": "H" 
			},
			{
				"x": 0.3270559989,
				"y": 0.2361503807,
				"z": -0.4990326467,
				"element": "H" 
			},
			{
				"x": 0.4336526666,
				"y": 2.5204712867,
				"z": -1.4221879475,
				"element": "H" 
			},
			{
				"x": 2.5108304952,
				"y": 3.3348834759,
				"z": -2.5168640068,
				"element": "H" 
			},
			{
				"x": 4.4852064033,
				"y": 1.8306582489,
				"z": -2.6877559127,
				"element": "H" 
			},
			{
				"x": 4.3853136007,
				"y": -0.4557359088,
				"z": -1.7496702086,
				"element": "H" 
			},
			{
				"x": -0.7237962453,
				"y": -2.738132404,
				"z": 1.2892247969,
				"element": "H" 
			},
			{
				"x": -4.3932407777,
				"y": -2.7618163474,
				"z": 2.2476275596,
				"element": "H" 
			},
			{
				"x": -4.5006810204,
				"y": -3.2863611707,
				"z": -0.2353952481,
				"element": "H" 
			},
			{
				"x": -4.619010398,
				"y": -2.3558685511,
				"z": -2.5250652901,
				"element": "H" 
			},
			{
				"x": -3.8290964578,
				"y": -0.0401110657,
				"z": -2.9724648225,
				"element": "H" 
			},
			{
				"x": -2.9563049751,
				"y": 1.3467890221,
				"z": -1.1025098681,
				"element": "H" 
			},
			{
				"x": -2.8586038161,
				"y": 0.4207982815,
				"z": 1.1909340394,
				"element": "H" 
			}
		],
		 "valence_orbital": [ 
			{
				"type": "occ",
				"energy": -0.2834,
				"method": "rhf"
			},
			{
				"type": "occ",
				"energy": -0.26511,
				"method": "rhf"
			},
			{
				"type": "occ",
				"energy": -0.26056,
				"method": "rhf"
			},
			{
				"type": "occ",
				"energy": -0.23897,
				"method": "rhf"
			},
			{
				"type": "occ",
				"energy": -0.23609,
				"method": "rhf"
			},
			{
				"type": "unocc",
				"energy": -0.11018,
				"method": "rhf"
			},
			{
				"type": "unocc",
				"energy": -0.09035,
				"method": "rhf"
			},
			{
				"type": "unocc",
				"energy": -0.05327,
				"method": "rhf"
			},
			{
				"type": "unocc",
				"energy": -0.05119,
				"method": "rhf"
			},
			{
				"type": "unocc",
				"energy": -0.03752,
				"method": "rhf"
			}
		],
		"cosmo_sigma_profile": { 
			"-0.025": 0.0,
			"-0.024": 0.0,
			"-0.023": 0.0,
			"-0.022": 0.0,
			"-0.021": 0.0,
			"-0.02": 0.0,
			"-0.019": 0.0,
			"-0.018": 0.0,
			"-0.017": 0.0,
			"-0.016": 0.0,
			"-0.015": 0.0,
			"-0.014": 0.0,
			"-0.013": 0.0,
			"-0.012": 0.0,
			"-0.011": 0.0,
			"-0.01": 0.0,
			"-0.009": 0.806354190694,
			"-0.008": 5.05602245472,
			"-0.007": 12.9655284124,
			"-0.006": 27.8767646659,
			"-0.005": 32.8164566239,
			"-0.004": 33.8610112116,
			"-0.003": 33.2365334311,
			"-0.002": 32.362266738,
			"-0.001": 28.4959769915,
			"0.0": 25.587223336,
			"0.001": 27.7852412208,
			"0.002": 28.7897222415,
			"0.003": 31.7264654559,
			"0.004": 31.3370993851,
			"0.005": 25.3576831961,
			"0.006": 11.740335465,
			"0.007": 20.0218795366,
			"0.008": 11.2269115839,
			"0.009": 6.28541054736,
			"0.01": 0.782823698741,
			"0.011": 0.0,
			"0.012": 0.0,
			"0.013": 0.0,
			"0.014": 0.0,
			"0.015": 0.0,
			"0.016": 0.0,
			"0.017": 0.0,
			"0.018": 0.0,
			"0.019": 0.0,
			"0.02": 0.0,
			"0.021": 0.0,
			"0.022": 0.0,
			"0.023": 0.0,
			"0.024": 0.0,
			"0.025": 0.0
		}
	}
}
