{
	 "smiles": "COCCOC1=C(OC)C=C(C=O)C=C1", 
	 "Tm": 341.15, 
	 "num_atms": 29, 
	 "gaussian": { 
		 "optdone": 1, 
		 "sigma_profile": "yes", 
		 "theory": "DFT", 
		 "functional": "B3LYP", 
		 "basiset": "6-31G**", 
		 "properties": { 
			 "R2extent": 4910.0312, 
			 "electric_dipole_moment_norm": 3.11943450003, 
			 "electric_quadrupole_moment_norm": 25.9538505968, 
			 "total_energy": -728.444711475, 
			 "HOMO_LUMO_gap": 0.18231, 
			 "cosmo_polarized_energy": -11.57, 
			 "cosmo_cavitation_energy": 33.3, 
			 "cosmo_dispersion_energy": -23.29, 
			 "cosmo_repulsion_energy": 1.85, 
			 "cosmo_total_nonelectrostatic_energy": 11.86, 
			 "SMD_solvation_energy": 8.18 
		},
		"coords": [
			{
				"x": -1.0630357759,
				"y": -2.7765450586,
				"z": 3.7233935692,
				"element": "C" 
			},
			{
				"x": -1.6880156554,
				"y": -1.611863098,
				"z": 3.2161780414,
				"element": "O" 
			},
			{
				"x": -1.7262458973,
				"y": -1.5374717045,
				"z": 1.8041462691,
				"element": "C" 
			},
			{
				"x": -0.4241749517,
				"y": -0.9784726534,
				"z": 1.231291109,
				"element": "C" 
			},
			{
				"x": -0.5980790105,
				"y": -0.9251622841,
				"z": -0.1982685519,
				"element": "O" 
			},
			{
				"x": 0.4820622122,
				"y": -0.4959962878,
				"z": -0.9253424102,
				"element": "C" 
			},
			{
				"x": 0.9685694366,
				"y": 0.8246109743,
				"z": -0.8255930227,
				"element": "C" 
			},
			{
				"x": 0.4094861682,
				"y": 1.7334903754,
				"z": 0.0430432403,
				"element": "O" 
			},
			{
				"x": -0.8933028602,
				"y": 2.1997325709,
				"z": -0.3331543444,
				"element": "C" 
			},
			{
				"x": 2.0646106982,
				"y": 1.2065374772,
				"z": -1.5950464973,
				"element": "C" 
			},
			{
				"x": 2.6702153702,
				"y": 0.3025506745,
				"z": -2.4776727105,
				"element": "C" 
			},
			{
				"x": 3.8324962966,
				"y": 0.7304778037,
				"z": -3.284287312,
				"element": "C" 
			},
			{
				"x": 4.4172983629,
				"y": 0.0248055638,
				"z": -4.0850229139,
				"element": "O" 
			},
			{
				"x": 2.1608646543,
				"y": -0.9991347248,
				"z": -2.5982260862,
				"element": "C" 
			},
			{
				"x": 1.0775257322,
				"y": -1.3917435792,
				"z": -1.8230429869,
				"element": "C" 
			},
			{
				"x": -1.1608421895,
				"y": -2.7408162752,
				"z": 4.8109807456,
				"element": "H" 
			},
			{
				"x": 0.0064673533,
				"y": -2.8313874887,
				"z": 3.4730125244,
				"element": "H" 
			},
			{
				"x": -1.5520122973,
				"y": -3.6906207534,
				"z": 3.3529574567,
				"element": "H" 
			},
			{
				"x": -2.5498750774,
				"y": -0.8646236024,
				"z": 1.5434827156,
				"element": "H" 
			},
			{
				"x": -1.9393079716,
				"y": -2.5183965423,
				"z": 1.3523251579,
				"element": "H" 
			},
			{
				"x": -0.2232579562,
				"y": 0.0171276552,
				"z": 1.6369873795,
				"element": "H" 
			},
			{
				"x": 0.4267844715,
				"y": -1.6306510735,
				"z": 1.4663048326,
				"element": "H" 
			},
			{
				"x": -0.8536043745,
				"y": 2.7245924208,
				"z": -1.2955972469,
				"element": "H" 
			},
			{
				"x": -1.6092207501,
				"y": 1.3742964907,
				"z": -0.3988781285,
				"element": "H" 
			},
			{
				"x": -1.2047110273,
				"y": 2.8969557116,
				"z": 0.4467634863,
				"element": "H" 
			},
			{
				"x": 2.4360188065,
				"y": 2.2233739036,
				"z": -1.496836455,
				"element": "H" 
			},
			{
				"x": 4.1551114542,
				"y": 1.7813144262,
				"z": -3.1079172601,
				"element": "H" 
			},
			{
				"x": 2.6376611485,
				"y": -1.6829100295,
				"z": -3.2927373426,
				"element": "H" 
			},
			{
				"x": 0.6691136295,
				"y": -2.3954708929,
				"z": -1.8847432589,
				"element": "H" 
			}
		],
		 "valence_orbital": [ 
			{
				"type": "occ",
				"energy": -0.279,
				"method": "rhf"
			},
			{
				"type": "occ",
				"energy": -0.26351,
				"method": "rhf"
			},
			{
				"type": "occ",
				"energy": -0.25999,
				"method": "rhf"
			},
			{
				"type": "occ",
				"energy": -0.25227,
				"method": "rhf"
			},
			{
				"type": "occ",
				"energy": -0.24257,
				"method": "rhf"
			},
			{
				"type": "unocc",
				"energy": -0.06026,
				"method": "rhf"
			},
			{
				"type": "unocc",
				"energy": -0.01355,
				"method": "rhf"
			},
			{
				"type": "unocc",
				"energy": 0.03998,
				"method": "rhf"
			},
			{
				"type": "unocc",
				"energy": 0.07065,
				"method": "rhf"
			},
			{
				"type": "unocc",
				"energy": 0.08053,
				"method": "rhf"
			}
		],
		"cosmo_sigma_profile": { 
			"-0.025": 0.0,
			"-0.024": 0.0,
			"-0.023": 0.0,
			"-0.022": 0.0,
			"-0.021": 0.0,
			"-0.02": 0.0,
			"-0.019": 0.0,
			"-0.018": 0.0,
			"-0.017": 0.0,
			"-0.016": 0.0,
			"-0.015": 0.0,
			"-0.014": 0.0,
			"-0.013": 0.0,
			"-0.012": 0.0,
			"-0.011": 0.0,
			"-0.01": 0.0,
			"-0.009": 0.0,
			"-0.008": 1.24222013138,
			"-0.007": 5.37505804178,
			"-0.006": 9.70853133973,
			"-0.005": 19.6639203718,
			"-0.004": 28.6612720488,
			"-0.003": 33.970196615,
			"-0.002": 32.6393175846,
			"-0.001": 18.403751848,
			"0.0": 15.9340346287,
			"0.001": 16.8261919442,
			"0.002": 17.2332637019,
			"0.003": 13.5166394032,
			"0.004": 6.61651818114,
			"0.005": 6.17955950339,
			"0.006": 4.38045799077,
			"0.007": 3.94282003614,
			"0.008": 5.00973260989,
			"0.009": 4.85173211445,
			"0.01": 5.27599929609,
			"0.011": 6.01835232658,
			"0.012": 5.08359336999,
			"0.013": 2.62845528473,
			"0.014": 0.168800644776,
			"0.015": 0.0,
			"0.016": 0.0,
			"0.017": 0.0,
			"0.018": 0.0,
			"0.019": 0.0,
			"0.02": 0.0,
			"0.021": 0.0,
			"0.022": 0.0,
			"0.023": 0.0,
			"0.024": 0.0,
			"0.025": 0.0
		}
	}
}
