{
	 "smiles": "ClC1=CN=C(Cl)C=C1", 
	 "Tm": 333.95, 
	 "num_atms": 11, 
	 "gaussian": { 
		 "optdone": 1, 
		 "sigma_profile": "yes", 
		 "theory": "DFT", 
		 "functional": "B3LYP", 
		 "basiset": "6-31G**", 
		 "properties": { 
			 "R2extent": 1748.0701, 
			 "electric_dipole_moment_norm": 2.26606362664, 
			 "electric_quadrupole_moment_norm": 7.36490070334, 
			 "total_energy": -1167.46857766, 
			 "HOMO_LUMO_gap": 0.2101, 
			 "cosmo_polarized_energy": -5.83, 
			 "cosmo_cavitation_energy": 19.22, 
			 "cosmo_dispersion_energy": -14.79, 
			 "cosmo_repulsion_energy": 1.23, 
			 "cosmo_total_nonelectrostatic_energy": 5.66, 
			 "SMD_solvation_energy": 1.48 
		},
		"coords": [
			{
				"x": 2.5147808468,
				"y": 0.3765105617,
				"z": -1.2713763838,
				"element": "Cl" 
			},
			{
				"x": 0.8421638099,
				"y": 0.1497793138,
				"z": -0.8142768335,
				"element": "C" 
			},
			{
				"x": -0.0673968592,
				"y": -0.3736461115,
				"z": -1.7331083076,
				"element": "C" 
			},
			{
				"x": -1.3565608747,
				"y": -0.5657922695,
				"z": -1.4315591494,
				"element": "N" 
			},
			{
				"x": -1.762961446,
				"y": -0.2426641404,
				"z": -0.2170333365,
				"element": "C" 
			},
			{
				"x": -3.4629010586,
				"y": -0.5073004657,
				"z": 0.1478370571,
				"element": "Cl" 
			},
			{
				"x": -0.9378289559,
				"y": 0.2879734556,
				"z": 0.7794281304,
				"element": "C" 
			},
			{
				"x": 0.4027430099,
				"y": 0.4879637378,
				"z": 0.4663332551,
				"element": "C" 
			},
			{
				"x": 0.2509978683,
				"y": -0.6444248457,
				"z": -2.7360551402,
				"element": "H" 
			},
			{
				"x": -1.3328445281,
				"y": 0.532825941,
				"z": 1.75801256,
				"element": "H" 
			},
			{
				"x": 1.0921081876,
				"y": 0.896474823,
				"z": 1.1971981481,
				"element": "H" 
			}
		],
		 "valence_orbital": [ 
			{
				"type": "occ",
				"energy": -0.33291,
				"method": "rhf"
			},
			{
				"type": "occ",
				"energy": -0.3225,
				"method": "rhf"
			},
			{
				"type": "occ",
				"energy": -0.31122,
				"method": "rhf"
			},
			{
				"type": "occ",
				"energy": -0.28796,
				"method": "rhf"
			},
			{
				"type": "occ",
				"energy": -0.26199,
				"method": "rhf"
			},
			{
				"type": "unocc",
				"energy": -0.05189,
				"method": "rhf"
			},
			{
				"type": "unocc",
				"energy": -0.0391,
				"method": "rhf"
			},
			{
				"type": "unocc",
				"energy": 0.01277,
				"method": "rhf"
			},
			{
				"type": "unocc",
				"energy": 0.0282,
				"method": "rhf"
			},
			{
				"type": "unocc",
				"energy": 0.11321,
				"method": "rhf"
			}
		],
		"cosmo_sigma_profile": { 
			"-0.025": 0.0,
			"-0.024": 0.0,
			"-0.023": 0.0,
			"-0.022": 0.0,
			"-0.021": 0.0,
			"-0.02": 0.0,
			"-0.019": 0.0,
			"-0.018": 0.0,
			"-0.017": 0.0,
			"-0.016": 0.0,
			"-0.015": 0.0,
			"-0.014": 0.0,
			"-0.013": 0.0,
			"-0.012": 0.0,
			"-0.011": 0.0,
			"-0.01": 0.305558057527,
			"-0.009": 3.73776858853,
			"-0.008": 6.13400654519,
			"-0.007": 5.26079648874,
			"-0.006": 4.96925566624,
			"-0.005": 4.72323019523,
			"-0.004": 4.63730534438,
			"-0.003": 7.46807898822,
			"-0.002": 12.5233601133,
			"-0.001": 22.6301971454,
			"0.0": 18.072052572,
			"0.001": 10.552397803,
			"0.002": 11.8593989799,
			"0.003": 15.3265564831,
			"0.004": 16.9693797172,
			"0.005": 5.0529634769,
			"0.006": 1.94194987767,
			"0.007": 1.31979783816,
			"0.008": 1.14025277839,
			"0.009": 1.58802652521,
			"0.01": 0.96969559825,
			"0.011": 0.948212202016,
			"0.012": 0.66753895876,
			"0.013": 0.890707415282,
			"0.014": 0.346432783396,
			"0.015": 0.0,
			"0.016": 0.0,
			"0.017": 0.0,
			"0.018": 0.0,
			"0.019": 0.0,
			"0.02": 0.0,
			"0.021": 0.0,
			"0.022": 0.0,
			"0.023": 0.0,
			"0.024": 0.0,
			"0.025": 0.0
		}
	}
}
