{
	 "smiles": "OC(=O)C1=NN(N=C1)C1=CC=C(F)C=C1", 
	 "Tm": 488.15, 
	 "num_atms": 21, 
	 "gaussian": { 
		 "optdone": 1, 
		 "sigma_profile": "yes", 
		 "theory": "DFT", 
		 "functional": "B3LYP", 
		 "basiset": "6-31G**", 
		 "properties": { 
			 "R2extent": 4880.1878, 
			 "electric_dipole_moment_norm": 1.83690247972, 
			 "electric_quadrupole_moment_norm": 9.0817018741, 
			 "total_energy": -761.087161051, 
			 "HOMO_LUMO_gap": 0.17919, 
			 "cosmo_polarized_energy": -12.02, 
			 "cosmo_cavitation_energy": 27.83, 
			 "cosmo_dispersion_energy": -20.4, 
			 "cosmo_repulsion_energy": 1.56, 
			 "cosmo_total_nonelectrostatic_energy": 8.99, 
			 "SMD_solvation_energy": 5.37 
		},
		"coords": [
			{
				"x": 2.1503210687,
				"y": -4.1789133793,
				"z": -0.4294646355,
				"element": "O" 
			},
			{
				"x": 0.8636416731,
				"y": -3.8568030809,
				"z": -0.7214097058,
				"element": "C" 
			},
			{
				"x": 0.0226579892,
				"y": -4.6758216165,
				"z": -1.0148999518,
				"element": "O" 
			},
			{
				"x": 0.6597357231,
				"y": -2.3986350068,
				"z": -0.6262865912,
				"element": "C" 
			},
			{
				"x": -0.5335467602,
				"y": -1.8412962096,
				"z": -0.8707102549,
				"element": "N" 
			},
			{
				"x": -0.3191740186,
				"y": -0.5466798809,
				"z": -0.6868216977,
				"element": "N" 
			},
			{
				"x": 0.9338048145,
				"y": -0.2079325322,
				"z": -0.3373621844,
				"element": "N" 
			},
			{
				"x": 1.5698004018,
				"y": -1.3741879531,
				"z": -0.2941577508,
				"element": "C" 
			},
			{
				"x": -1.3486666055,
				"y": 0.4257218214,
				"z": -0.8484844355,
				"element": "C" 
			},
			{
				"x": -2.6330165588,
				"y": 0.0112595816,
				"z": -1.213477189,
				"element": "C" 
			},
			{
				"x": -3.6376576448,
				"y": 0.962071632,
				"z": -1.3710150962,
				"element": "C" 
			},
			{
				"x": -3.3381298924,
				"y": 2.3043664737,
				"z": -1.1608839348,
				"element": "C" 
			},
			{
				"x": -4.3111893015,
				"y": 3.2231488438,
				"z": -1.3136822302,
				"element": "F" 
			},
			{
				"x": -2.0631717041,
				"y": 2.7252686105,
				"z": -0.7976128633,
				"element": "C" 
			},
			{
				"x": -1.0563392341,
				"y": 1.7763519149,
				"z": -0.639340577,
				"element": "C" 
			},
			{
				"x": 2.2093004899,
				"y": -5.1451885995,
				"z": -0.5112937007,
				"element": "H" 
			},
			{
				"x": 2.6158989928,
				"y": -1.4392189084,
				"z": -0.0372608571,
				"element": "H" 
			},
			{
				"x": -2.8317622569,
				"y": -1.0418295233,
				"z": -1.3692034885,
				"element": "H" 
			},
			{
				"x": -4.6441326975,
				"y": 0.6743235185,
				"z": -1.6533207189,
				"element": "H" 
			},
			{
				"x": -1.8700154839,
				"y": 3.780868323,
				"z": -0.6430245203,
				"element": "H" 
			},
			{
				"x": -0.0529589948,
				"y": 2.0694259712,
				"z": -0.3572876164,
				"element": "H" 
			}
		],
		 "valence_orbital": [ 
			{
				"type": "occ",
				"energy": -0.31294,
				"method": "rhf"
			},
			{
				"type": "occ",
				"energy": -0.30571,
				"method": "rhf"
			},
			{
				"type": "occ",
				"energy": -0.28381,
				"method": "rhf"
			},
			{
				"type": "occ",
				"energy": -0.27637,
				"method": "rhf"
			},
			{
				"type": "occ",
				"energy": -0.2414,
				"method": "rhf"
			},
			{
				"type": "unocc",
				"energy": -0.06221,
				"method": "rhf"
			},
			{
				"type": "unocc",
				"energy": -0.02895,
				"method": "rhf"
			},
			{
				"type": "unocc",
				"energy": -0.01958,
				"method": "rhf"
			},
			{
				"type": "unocc",
				"energy": 0.0215,
				"method": "rhf"
			},
			{
				"type": "unocc",
				"energy": 0.07242,
				"method": "rhf"
			}
		],
		"cosmo_sigma_profile": { 
			"-0.025": 0.0,
			"-0.024": 0.0,
			"-0.023": 0.0,
			"-0.022": 0.0,
			"-0.021": 0.0,
			"-0.02": 0.0,
			"-0.019": 0.442788641141,
			"-0.018": 0.995476174636,
			"-0.017": 0.924221818936,
			"-0.016": 0.81447828797,
			"-0.015": 0.578705636836,
			"-0.014": 0.758801652703,
			"-0.013": 0.358655032516,
			"-0.012": 0.8728095698,
			"-0.011": 1.20829382638,
			"-0.01": 1.38828085494,
			"-0.009": 1.66899141088,
			"-0.008": 5.50297905669,
			"-0.007": 8.23339509611,
			"-0.006": 8.48092414529,
			"-0.005": 8.16011636606,
			"-0.004": 9.2134292504,
			"-0.003": 14.4974627964,
			"-0.002": 16.6667658541,
			"-0.001": 18.9333405414,
			"0.0": 23.5471591847,
			"0.001": 19.456813617,
			"0.002": 19.828193622,
			"0.003": 11.4466389542,
			"0.004": 15.2970402638,
			"0.005": 5.07213923479,
			"0.006": 4.64433431699,
			"0.007": 4.63907890153,
			"0.008": 3.73460499289,
			"0.009": 3.83633622314,
			"0.01": 4.08522721205,
			"0.011": 5.97106558021,
			"0.012": 3.22128778332,
			"0.013": 0.530505804129,
			"0.014": 0.0,
			"0.015": 0.0,
			"0.016": 0.0,
			"0.017": 0.0,
			"0.018": 0.0,
			"0.019": 0.0,
			"0.02": 0.0,
			"0.021": 0.0,
			"0.022": 0.0,
			"0.023": 0.0,
			"0.024": 0.0,
			"0.025": 0.0
		}
	}
}
