{
	 "smiles": "OC(=O)CC1=CC=C(C=C1)S(Cl)(=O)=O", 
	 "Tm": 405.15, 
	 "num_atms": 21, 
	 "gaussian": { 
		 "optdone": 1, 
		 "sigma_profile": "yes", 
		 "theory": "DFT", 
		 "functional": "B3LYP", 
		 "basiset": "6-31G**", 
		 "properties": { 
			 "R2extent": 5467.0864, 
			 "electric_dipole_moment_norm": 7.5201311192, 
			 "electric_quadrupole_moment_norm": 27.2706018544, 
			 "total_energy": -1468.28231548, 
			 "HOMO_LUMO_gap": 0.1937, 
			 "cosmo_polarized_energy": -23.11, 
			 "cosmo_cavitation_energy": 30.01, 
			 "cosmo_dispersion_energy": -21.84, 
			 "cosmo_repulsion_energy": 1.7, 
			 "cosmo_total_nonelectrostatic_energy": 9.87, 
			 "SMD_solvation_energy": 4.99 
		},
		"coords": [
			{
				"x": -1.353706427,
				"y": -4.3292486557,
				"z": 3.2688861723,
				"element": "O" 
			},
			{
				"x": -0.8548555431,
				"y": -3.4473881481,
				"z": 2.3632279156,
				"element": "C" 
			},
			{
				"x": 0.2754285529,
				"y": -3.0493338611,
				"z": 2.4543884861,
				"element": "O" 
			},
			{
				"x": -1.8458480252,
				"y": -3.0353413332,
				"z": 1.2641346794,
				"element": "C" 
			},
			{
				"x": -1.2636880268,
				"y": -2.0560995158,
				"z": 0.2750511804,
				"element": "C" 
			},
			{
				"x": -0.6012184979,
				"y": -2.5156835086,
				"z": -0.8704860764,
				"element": "C" 
			},
			{
				"x": -0.0506563815,
				"y": -1.6218804429,
				"z": -1.7851402626,
				"element": "C" 
			},
			{
				"x": -0.172909412,
				"y": -0.2557372443,
				"z": -1.5320490115,
				"element": "C" 
			},
			{
				"x": -0.819588374,
				"y": 0.2360161025,
				"z": -0.3983273123,
				"element": "C" 
			},
			{
				"x": -1.3620907666,
				"y": -0.6772526538,
				"z": 0.5018143131,
				"element": "C" 
			},
			{
				"x": 0.5317683966,
				"y": 0.9030891644,
				"z": -2.6938329209,
				"element": "S" 
			},
			{
				"x": -1.1160633652,
				"y": 1.2117137269,
				"z": -4.0227314164,
				"element": "Cl" 
			},
			{
				"x": 0.7570643576,
				"y": 2.180184214,
				"z": -2.0291596587,
				"element": "O" 
			},
			{
				"x": 1.5624663473,
				"y": 0.236556195,
				"z": -3.4792716827,
				"element": "O" 
			},
			{
				"x": -2.2723185607,
				"y": -4.554299166,
				"z": 3.0629892662,
				"element": "H" 
			},
			{
				"x": -2.1805114925,
				"y": -3.9460878003,
				"z": 0.7510609794,
				"element": "H" 
			},
			{
				"x": -2.7326532888,
				"y": -2.6086661426,
				"z": 1.750157228,
				"element": "H" 
			},
			{
				"x": -0.5097741776,
				"y": -3.5831785588,
				"z": -1.0490073905,
				"element": "H" 
			},
			{
				"x": 0.4685478704,
				"y": -1.9708284972,
				"z": -2.6704894454,
				"element": "H" 
			},
			{
				"x": -0.8868708987,
				"y": 1.3041552289,
				"z": -0.2258844478,
				"element": "H" 
			},
			{
				"x": -1.863822287,
				"y": -0.3115891032,
				"z": 1.3930694049,
				"element": "H" 
			}
		],
		 "valence_orbital": [ 
			{
				"type": "occ",
				"energy": -0.33138,
				"method": "rhf"
			},
			{
				"type": "occ",
				"energy": -0.31305,
				"method": "rhf"
			},
			{
				"type": "occ",
				"energy": -0.29464,
				"method": "rhf"
			},
			{
				"type": "occ",
				"energy": -0.29049,
				"method": "rhf"
			},
			{
				"type": "occ",
				"energy": -0.28503,
				"method": "rhf"
			},
			{
				"type": "unocc",
				"energy": -0.09133,
				"method": "rhf"
			},
			{
				"type": "unocc",
				"energy": -0.04761,
				"method": "rhf"
			},
			{
				"type": "unocc",
				"energy": -0.042,
				"method": "rhf"
			},
			{
				"type": "unocc",
				"energy": -0.00677,
				"method": "rhf"
			},
			{
				"type": "unocc",
				"energy": 0.03555,
				"method": "rhf"
			}
		],
		"cosmo_sigma_profile": { 
			"-0.025": 0.0,
			"-0.024": 0.0,
			"-0.023": 0.0,
			"-0.022": 0.0,
			"-0.021": 0.0,
			"-0.02": 0.144486326806,
			"-0.019": 1.04432167753,
			"-0.018": 1.42290590674,
			"-0.017": 0.975674492337,
			"-0.016": 1.38243704851,
			"-0.015": 1.08111689029,
			"-0.014": 0.856053928615,
			"-0.013": 0.873049777921,
			"-0.012": 1.34153613393,
			"-0.011": 1.85494694703,
			"-0.01": 1.50145977646,
			"-0.009": 5.59091933345,
			"-0.008": 13.8209827726,
			"-0.007": 12.3143183815,
			"-0.006": 11.1303244427,
			"-0.005": 9.62740636159,
			"-0.004": 9.18810285923,
			"-0.003": 8.73866002857,
			"-0.002": 10.9507893488,
			"-0.001": 11.5374313532,
			"0.0": 16.4955579466,
			"0.001": 18.0449176948,
			"0.002": 14.1929090396,
			"0.003": 16.9015155243,
			"0.004": 14.050737968,
			"0.005": 5.12638147878,
			"0.006": 5.97440738061,
			"0.007": 9.36294889652,
			"0.008": 12.8009677899,
			"0.009": 8.09582377069,
			"0.01": 5.52229963064,
			"0.011": 5.85193981487,
			"0.012": 4.01584904458,
			"0.013": 0.845054617324,
			"0.014": 0.0,
			"0.015": 0.0,
			"0.016": 0.0,
			"0.017": 0.0,
			"0.018": 0.0,
			"0.019": 0.0,
			"0.02": 0.0,
			"0.021": 0.0,
			"0.022": 0.0,
			"0.023": 0.0,
			"0.024": 0.0,
			"0.025": 0.0
		}
	}
}
