{
	 "smiles": "CCOC=C(C(=O)OCC)C(=O)OCC", 
	 "Tm": 240.15, 
	 "num_atms": 31, 
	 "gaussian": { 
		 "optdone": 1, 
		 "sigma_profile": "yes", 
		 "theory": "DFT", 
		 "functional": "B3LYP", 
		 "basiset": "6-31G**", 
		 "properties": { 
			 "R2extent": 4949.872, 
			 "electric_dipole_moment_norm": 5.70446354884, 
			 "electric_quadrupole_moment_norm": 14.1266476643, 
			 "total_energy": -766.826905306, 
			 "HOMO_LUMO_gap": 0.20532, 
			 "cosmo_polarized_energy": -17.15, 
			 "cosmo_cavitation_energy": 35.74, 
			 "cosmo_dispersion_energy": -24.28, 
			 "cosmo_repulsion_energy": 2.02, 
			 "cosmo_total_nonelectrostatic_energy": 13.48, 
			 "SMD_solvation_energy": 9.2 
		},
		"coords": [
			{
				"x": -2.4789762273,
				"y": -0.5755149558,
				"z": -2.0067838748,
				"element": "C" 
			},
			{
				"x": -2.8175191067,
				"y": -0.7685766763,
				"z": -0.5361330158,
				"element": "C" 
			},
			{
				"x": -1.6761420878,
				"y": -1.2329983909,
				"z": 0.2099680012,
				"element": "O" 
			},
			{
				"x": -0.8457376902,
				"y": -0.2988883118,
				"z": 0.6833587071,
				"element": "C" 
			},
			{
				"x": 0.331482941,
				"y": -0.5762663175,
				"z": 1.2917937501,
				"element": "C" 
			},
			{
				"x": 0.8711171995,
				"y": -1.9627889586,
				"z": 1.441674869,
				"element": "C" 
			},
			{
				"x": 2.0056861056,
				"y": -2.2848353909,
				"z": 1.1628005319,
				"element": "O" 
			},
			{
				"x": -0.0644517207,
				"y": -2.8134079178,
				"z": 1.9207967905,
				"element": "O" 
			},
			{
				"x": 0.335880275,
				"y": -4.1981028801,
				"z": 2.0430186004,
				"element": "C" 
			},
			{
				"x": 0.1791054065,
				"y": -4.9396426089,
				"z": 0.7232873547,
				"element": "C" 
			},
			{
				"x": 1.1802138327,
				"y": 0.5249605856,
				"z": 1.8023712082,
				"element": "C" 
			},
			{
				"x": 2.1437369407,
				"y": 0.3739806971,
				"z": 2.5248266649,
				"element": "O" 
			},
			{
				"x": 0.7374900415,
				"y": 1.7489454582,
				"z": 1.394439752,
				"element": "O" 
			},
			{
				"x": 1.470719669,
				"y": 2.888945339,
				"z": 1.8974755839,
				"element": "C" 
			},
			{
				"x": 2.6843108044,
				"y": 3.1947438794,
				"z": 1.0321978129,
				"element": "C" 
			},
			{
				"x": -3.3757698965,
				"y": -0.2833656846,
				"z": -2.5628839507,
				"element": "H" 
			},
			{
				"x": -2.0915967167,
				"y": -1.5033002493,
				"z": -2.436590736,
				"element": "H" 
			},
			{
				"x": -1.7249193174,
				"y": 0.2065529651,
				"z": -2.1396440058,
				"element": "H" 
			},
			{
				"x": -3.1942626855,
				"y": 0.1582707854,
				"z": -0.0850730143,
				"element": "H" 
			},
			{
				"x": -3.5759184821,
				"y": -1.5437168384,
				"z": -0.4021622228,
				"element": "H" 
			},
			{
				"x": -1.1517200037,
				"y": 0.7373555106,
				"z": 0.5522702948,
				"element": "H" 
			},
			{
				"x": -0.3274901149,
				"y": -4.6035338736,
				"z": 2.8108977351,
				"element": "H" 
			},
			{
				"x": 1.3687125531,
				"y": -4.2378811053,
				"z": 2.3972824887,
				"element": "H" 
			},
			{
				"x": -0.8445793238,
				"y": -4.8503396811,
				"z": 0.3479117533,
				"element": "H" 
			},
			{
				"x": 0.4053005616,
				"y": -6.002184034,
				"z": 0.8628810783,
				"element": "H" 
			},
			{
				"x": 0.866714935,
				"y": -4.5381692349,
				"z": -0.0249609412,
				"element": "H" 
			},
			{
				"x": 0.7476774821,
				"y": 3.70875367,
				"z": 1.8774337644,
				"element": "H" 
			},
			{
				"x": 1.7665925143,
				"y": 2.6913852679,
				"z": 2.9305066899,
				"element": "H" 
			},
			{
				"x": 3.401846911,
				"y": 2.3723877524,
				"z": 1.0785391899,
				"element": "H" 
			},
			{
				"x": 3.1778443473,
				"y": 4.1043050944,
				"z": 1.3912040649,
				"element": "H" 
			},
			{
				"x": 2.3909508532,
				"y": 3.3516261048,
				"z": -0.0102049246,
				"element": "H" 
			}
		],
		 "valence_orbital": [ 
			{
				"type": "occ",
				"energy": -0.29028,
				"method": "rhf"
			},
			{
				"type": "occ",
				"energy": -0.28579,
				"method": "rhf"
			},
			{
				"type": "occ",
				"energy": -0.26806,
				"method": "rhf"
			},
			{
				"type": "occ",
				"energy": -0.25901,
				"method": "rhf"
			},
			{
				"type": "occ",
				"energy": -0.23988,
				"method": "rhf"
			},
			{
				"type": "unocc",
				"energy": -0.03456,
				"method": "rhf"
			},
			{
				"type": "unocc",
				"energy": 0.01877,
				"method": "rhf"
			},
			{
				"type": "unocc",
				"energy": 0.07554,
				"method": "rhf"
			},
			{
				"type": "unocc",
				"energy": 0.0996,
				"method": "rhf"
			},
			{
				"type": "unocc",
				"energy": 0.10463,
				"method": "rhf"
			}
		],
		"cosmo_sigma_profile": { 
			"-0.025": 0.0,
			"-0.024": 0.0,
			"-0.023": 0.0,
			"-0.022": 0.0,
			"-0.021": 0.0,
			"-0.02": 0.0,
			"-0.019": 0.0,
			"-0.018": 0.0,
			"-0.017": 0.0,
			"-0.016": 0.0,
			"-0.015": 0.0,
			"-0.014": 0.0,
			"-0.013": 0.0,
			"-0.012": 0.0,
			"-0.011": 0.0,
			"-0.01": 0.757679307065,
			"-0.009": 1.69995688282,
			"-0.008": 2.46151372489,
			"-0.007": 3.11033718665,
			"-0.006": 9.08688020219,
			"-0.005": 18.7601237748,
			"-0.004": 31.0982392597,
			"-0.003": 32.9937334628,
			"-0.002": 30.1907131103,
			"-0.001": 31.224113247,
			"0.0": 31.1704245229,
			"0.001": 15.6978716714,
			"0.002": 8.98928255976,
			"0.003": 7.40139732036,
			"0.004": 8.05983289169,
			"0.005": 5.54219742097,
			"0.006": 6.18955993125,
			"0.007": 4.48187843128,
			"0.008": 3.28944324299,
			"0.009": 5.00557109113,
			"0.01": 4.60751388033,
			"0.011": 5.32546446769,
			"0.012": 8.55575868439,
			"0.013": 3.82040337041,
			"0.014": 1.28744215676,
			"0.015": 0.00791361063011,
			"0.016": 0.0,
			"0.017": 0.0,
			"0.018": 0.0,
			"0.019": 0.0,
			"0.02": 0.0,
			"0.021": 0.0,
			"0.022": 0.0,
			"0.023": 0.0,
			"0.024": 0.0,
			"0.025": 0.0
		}
	}
}
