{
	 "smiles": "CSC1=NC=CN=C1", 
	 "Tm": 318.65, 
	 "num_atms": 14, 
	 "gaussian": { 
		 "optdone": 1, 
		 "sigma_profile": "yes", 
		 "theory": "DFT", 
		 "functional": "B3LYP", 
		 "basiset": "6-31G**", 
		 "properties": { 
			 "R2extent": 1792.9643, 
			 "electric_dipole_moment_norm": 1.71209224051, 
			 "electric_quadrupole_moment_norm": 6.61033656859, 
			 "total_energy": -701.823364867, 
			 "HOMO_LUMO_gap": 0.17821, 
			 "cosmo_polarized_energy": -6.24, 
			 "cosmo_cavitation_energy": 19.65, 
			 "cosmo_dispersion_energy": -15.27, 
			 "cosmo_repulsion_energy": 1.21, 
			 "cosmo_total_nonelectrostatic_energy": 5.6, 
			 "SMD_solvation_energy": 1.36 
		},
		"coords": [
			{
				"x": -0.2757664586,
				"y": -0.6443069197,
				"z": 1.8241227271,
				"element": "C" 
			},
			{
				"x": 0.691672755,
				"y": -2.0072473106,
				"z": 1.0941432795,
				"element": "S" 
			},
			{
				"x": 0.6543549879,
				"y": -1.5678299398,
				"z": -0.6273690605,
				"element": "C" 
			},
			{
				"x": 0.0117224068,
				"y": -0.4680186069,
				"z": -1.0202875899,
				"element": "N" 
			},
			{
				"x": 0.0280928962,
				"y": -0.203127192,
				"z": -2.3353110883,
				"element": "C" 
			},
			{
				"x": 0.6783041314,
				"y": -1.0262436932,
				"z": -3.2481751828,
				"element": "C" 
			},
			{
				"x": 1.3268684772,
				"y": -2.1356622004,
				"z": -2.854497268,
				"element": "N" 
			},
			{
				"x": 1.3147810805,
				"y": -2.4040724704,
				"z": -1.5542237699,
				"element": "C" 
			},
			{
				"x": 0.2047354253,
				"y": 0.3148118424,
				"z": 1.6296214791,
				"element": "H" 
			},
			{
				"x": -1.2883270834,
				"y": -0.6328442885,
				"z": 1.4201290899,
				"element": "H" 
			},
			{
				"x": -0.3009371639,
				"y": -0.8419399635,
				"z": 2.8975629922,
				"element": "H" 
			},
			{
				"x": -0.495362621,
				"y": 0.6937837884,
				"z": -2.6599193045,
				"element": "H" 
			},
			{
				"x": 0.6825024894,
				"y": -0.7978840032,
				"z": -4.3109146129,
				"element": "H" 
			},
			{
				"x": 1.8363586773,
				"y": -3.2998190426,
				"z": -1.2218816909,
				"element": "H" 
			}
		],
		 "valence_orbital": [ 
			{
				"type": "occ",
				"energy": -0.33635,
				"method": "rhf"
			},
			{
				"type": "occ",
				"energy": -0.31049,
				"method": "rhf"
			},
			{
				"type": "occ",
				"energy": -0.30063,
				"method": "rhf"
			},
			{
				"type": "occ",
				"energy": -0.25221,
				"method": "rhf"
			},
			{
				"type": "occ",
				"energy": -0.22774,
				"method": "rhf"
			},
			{
				"type": "unocc",
				"energy": -0.04953,
				"method": "rhf"
			},
			{
				"type": "unocc",
				"energy": -0.0239,
				"method": "rhf"
			},
			{
				"type": "unocc",
				"energy": 0.02627,
				"method": "rhf"
			},
			{
				"type": "unocc",
				"energy": 0.08061,
				"method": "rhf"
			},
			{
				"type": "unocc",
				"energy": 0.11623,
				"method": "rhf"
			}
		],
		"cosmo_sigma_profile": { 
			"-0.025": 0.0,
			"-0.024": 0.0,
			"-0.023": 0.0,
			"-0.022": 0.0,
			"-0.021": 0.0,
			"-0.02": 0.0,
			"-0.019": 0.0,
			"-0.018": 0.0,
			"-0.017": 0.0,
			"-0.016": 0.0,
			"-0.015": 0.0,
			"-0.014": 0.0,
			"-0.013": 0.0,
			"-0.012": 0.0,
			"-0.011": 0.0,
			"-0.01": 0.0,
			"-0.009": 0.00125456734097,
			"-0.008": 2.8628319132,
			"-0.007": 8.42555611996,
			"-0.006": 9.67866989279,
			"-0.005": 10.3989500766,
			"-0.004": 9.70600927699,
			"-0.003": 9.79483824592,
			"-0.002": 13.8588662725,
			"-0.001": 15.4076432523,
			"0.0": 15.3975709715,
			"0.001": 12.6385867721,
			"0.002": 7.6213561139,
			"0.003": 8.15482175338,
			"0.004": 7.15334103035,
			"0.005": 5.94765492557,
			"0.006": 5.47654059024,
			"0.007": 4.89612514729,
			"0.008": 3.43784600732,
			"0.009": 1.83958126474,
			"0.01": 2.42064794048,
			"0.011": 1.31261662271,
			"0.012": 0.961714592477,
			"0.013": 0.540811541735,
			"0.014": 1.12113412811,
			"0.015": 0.509665229444,
			"0.016": 0.0,
			"0.017": 0.0,
			"0.018": 0.0,
			"0.019": 0.0,
			"0.02": 0.0,
			"0.021": 0.0,
			"0.022": 0.0,
			"0.023": 0.0,
			"0.024": 0.0,
			"0.025": 0.0
		}
	}
}
