{
	 "smiles": "NC(=O)C1=CC=C(CC#N)C=C1", 
	 "Tm": 460.15, 
	 "num_atms": 20, 
	 "gaussian": { 
		 "optdone": 1, 
		 "sigma_profile": "yes", 
		 "theory": "DFT", 
		 "functional": "B3LYP", 
		 "basiset": "6-31G**", 
		 "properties": { 
			 "R2extent": 2860.2005, 
			 "electric_dipole_moment_norm": 1.16607321382, 
			 "electric_quadrupole_moment_norm": 34.4725205742, 
			 "total_energy": -532.508179621, 
			 "HOMO_LUMO_gap": 0.2066, 
			 "cosmo_polarized_energy": -18.78, 
			 "cosmo_cavitation_energy": 25.56, 
			 "cosmo_dispersion_energy": -18.23, 
			 "cosmo_repulsion_energy": 1.46, 
			 "cosmo_total_nonelectrostatic_energy": 8.79, 
			 "SMD_solvation_energy": 6.43 
		},
		"coords": [
			{
				"x": 0.2530814683,
				"y": -1.3349005571,
				"z": 2.650906825,
				"element": "N" 
			},
			{
				"x": 0.7740468026,
				"y": -1.4373248945,
				"z": 1.3835743739,
				"element": "C" 
			},
			{
				"x": 1.5122188407,
				"y": -2.3597250995,
				"z": 1.0603162487,
				"element": "O" 
			},
			{
				"x": 0.4101478636,
				"y": -0.3408433985,
				"z": 0.4215076413,
				"element": "C" 
			},
			{
				"x": 0.6196727202,
				"y": -0.585400067,
				"z": -0.942459166,
				"element": "C" 
			},
			{
				"x": 0.3019186037,
				"y": 0.381691062,
				"z": -1.8885919783,
				"element": "C" 
			},
			{
				"x": -0.2179188979,
				"y": 1.6224738145,
				"z": -1.4938835786,
				"element": "C" 
			},
			{
				"x": -0.519003172,
				"y": 2.6611330456,
				"z": -2.5690779542,
				"element": "C" 
			},
			{
				"x": -1.3079900929,
				"y": 3.8063520397,
				"z": -2.109415742,
				"element": "C" 
			},
			{
				"x": -1.9285654343,
				"y": 4.7140953249,
				"z": -1.7387390151,
				"element": "N" 
			},
			{
				"x": -0.4106693938,
				"y": 1.8761354261,
				"z": -0.1336934519,
				"element": "C" 
			},
			{
				"x": -0.09901668,
				"y": 0.9018829212,
				"z": 0.8156500957,
				"element": "C" 
			},
			{
				"x": -0.5810975787,
				"y": -0.7954610992,
				"z": 2.8211102701,
				"element": "H" 
			},
			{
				"x": 0.4111088169,
				"y": -2.1334899784,
				"z": 3.2485810358,
				"element": "H" 
			},
			{
				"x": 1.0327273743,
				"y": -1.5447927041,
				"z": -1.234629667,
				"element": "H" 
			},
			{
				"x": 0.4601020814,
				"y": 0.1736548802,
				"z": -2.9440988194,
				"element": "H" 
			},
			{
				"x": -1.0549606148,
				"y": 2.1917502808,
				"z": -3.4028694498,
				"element": "H" 
			},
			{
				"x": 0.4192906294,
				"y": 3.0477070236,
				"z": -2.9892455999,
				"element": "H" 
			},
			{
				"x": -0.803570248,
				"y": 2.8358142976,
				"z": 0.1877129618,
				"element": "H" 
			},
			{
				"x": -0.2275230887,
				"y": 1.1365476821,
				"z": 1.8681449699,
				"element": "H" 
			}
		],
		 "valence_orbital": [ 
			{
				"type": "occ",
				"energy": -0.33338,
				"method": "rhf"
			},
			{
				"type": "occ",
				"energy": -0.27866,
				"method": "rhf"
			},
			{
				"type": "occ",
				"energy": -0.27016,
				"method": "rhf"
			},
			{
				"type": "occ",
				"energy": -0.2659,
				"method": "rhf"
			},
			{
				"type": "occ",
				"energy": -0.2547,
				"method": "rhf"
			},
			{
				"type": "unocc",
				"energy": -0.0481,
				"method": "rhf"
			},
			{
				"type": "unocc",
				"energy": -0.02258,
				"method": "rhf"
			},
			{
				"type": "unocc",
				"energy": 0.02405,
				"method": "rhf"
			},
			{
				"type": "unocc",
				"energy": 0.03253,
				"method": "rhf"
			},
			{
				"type": "unocc",
				"energy": 0.04917,
				"method": "rhf"
			}
		],
		"cosmo_sigma_profile": { 
			"-0.025": 0.0,
			"-0.024": 0.0,
			"-0.023": 0.0,
			"-0.022": 0.0,
			"-0.021": 0.0,
			"-0.02": 0.0,
			"-0.019": 0.0,
			"-0.018": 0.0,
			"-0.017": 0.0,
			"-0.016": 0.0,
			"-0.015": 0.0918330337931,
			"-0.014": 1.58536313846,
			"-0.013": 2.23002007316,
			"-0.012": 2.72947399789,
			"-0.011": 2.42623873758,
			"-0.01": 2.85008670762,
			"-0.009": 8.70143036941,
			"-0.008": 8.28496809095,
			"-0.007": 9.92622489366,
			"-0.006": 10.9545418349,
			"-0.005": 11.2642534155,
			"-0.004": 9.53869608877,
			"-0.003": 10.0289346336,
			"-0.002": 8.1760659246,
			"-0.001": 10.4781308713,
			"0.0": 11.1609182918,
			"0.001": 11.5272734347,
			"0.002": 10.1882211968,
			"0.003": 14.9036557635,
			"0.004": 11.369550163,
			"0.005": 4.19650017601,
			"0.006": 4.7737373834,
			"0.007": 4.64139350359,
			"0.008": 5.27399776887,
			"0.009": 4.18279206936,
			"0.01": 4.28017937522,
			"0.011": 4.78902414366,
			"0.012": 4.19821260564,
			"0.013": 6.12137866523,
			"0.014": 3.88771372486,
			"0.015": 0.256197538018,
			"0.016": 0.0,
			"0.017": 0.0,
			"0.018": 0.0,
			"0.019": 0.0,
			"0.02": 0.0,
			"0.021": 0.0,
			"0.022": 0.0,
			"0.023": 0.0,
			"0.024": 0.0,
			"0.025": 0.0
		}
	}
}
