{
	 "smiles": "CSCCC(NC(N)=O)C(O)=O", 
	 "Tm": 415.15, 
	 "num_atms": 24, 
	 "gaussian": { 
		 "optdone": 1, 
		 "sigma_profile": "yes", 
		 "theory": "DFT", 
		 "functional": "B3LYP", 
		 "basiset": "6-31G**", 
		 "properties": { 
			 "R2extent": 3308.7281, 
			 "electric_dipole_moment_norm": 1.26404213933, 
			 "electric_quadrupole_moment_norm": 23.2852102958, 
			 "total_energy": -969.270457507, 
			 "HOMO_LUMO_gap": 0.21134, 
			 "cosmo_polarized_energy": -22.72, 
			 "cosmo_cavitation_energy": 29.61, 
			 "cosmo_dispersion_energy": -20.89, 
			 "cosmo_repulsion_energy": 1.68, 
			 "cosmo_total_nonelectrostatic_energy": 10.4, 
			 "SMD_solvation_energy": 6.78 
		},
		"coords": [
			{
				"x": 1.4782720966,
				"y": -2.5740479366,
				"z": -2.0924055937,
				"element": "C" 
			},
			{
				"x": -0.2601945098,
				"y": -2.4621045808,
				"z": -1.5422510312,
				"element": "S" 
			},
			{
				"x": -0.2341223916,
				"y": -0.8609807823,
				"z": -0.6478068837,
				"element": "C" 
			},
			{
				"x": 0.4057699108,
				"y": -0.9233369072,
				"z": 0.7415659239,
				"element": "C" 
			},
			{
				"x": 0.5077485408,
				"y": 0.461616166,
				"z": 1.4328198572,
				"element": "C" 
			},
			{
				"x": 1.3367580292,
				"y": 1.4143478959,
				"z": 0.7069584158,
				"element": "N" 
			},
			{
				"x": 2.6378521585,
				"y": 1.7525792173,
				"z": 1.0463162227,
				"element": "C" 
			},
			{
				"x": 3.303848266,
				"y": 0.832181296,
				"z": 1.8494764163,
				"element": "N" 
			},
			{
				"x": 3.1517589628,
				"y": 2.7986115791,
				"z": 0.6784709682,
				"element": "O" 
			},
			{
				"x": -0.8994121749,
				"y": 0.992242039,
				"z": 1.7139746159,
				"element": "C" 
			},
			{
				"x": -1.0916583429,
				"y": 2.2639235029,
				"z": 1.2983304537,
				"element": "O" 
			},
			{
				"x": -1.7622007334,
				"y": 0.3367026956,
				"z": 2.2519965741,
				"element": "O" 
			},
			{
				"x": 1.7475197581,
				"y": -1.7203800783,
				"z": -2.7202404101,
				"element": "H" 
			},
			{
				"x": 2.1722485908,
				"y": -2.6484535495,
				"z": -1.2513096033,
				"element": "H" 
			},
			{
				"x": 1.5577036128,
				"y": -3.4867713441,
				"z": -2.6870531496,
				"element": "H" 
			},
			{
				"x": -1.2874961766,
				"y": -0.5734924382,
				"z": -0.5667392735,
				"element": "H" 
			},
			{
				"x": 0.2666120842,
				"y": -0.1159369372,
				"z": -1.2745833014,
				"element": "H" 
			},
			{
				"x": 1.4185236328,
				"y": -1.3355566583,
				"z": 0.663288767,
				"element": "H" 
			},
			{
				"x": -0.1696937362,
				"y": -1.5922313803,
				"z": 1.386855317,
				"element": "H" 
			},
			{
				"x": 0.9452350756,
				"y": 0.3037350638,
				"z": 2.4274057011,
				"element": "H" 
			},
			{
				"x": 0.8601009325,
				"y": 2.1885178712,
				"z": 0.265757895,
				"element": "H" 
			},
			{
				"x": 4.2877024185,
				"y": 1.048250141,
				"z": 1.9290835937,
				"element": "H" 
			},
			{
				"x": 3.1066131336,
				"y": -0.1505943663,
				"z": 1.7223323405,
				"element": "H" 
			},
			{
				"x": -2.0083891379,
				"y": 2.4939794912,
				"z": 1.5264561844,
				"element": "H" 
			}
		],
		 "valence_orbital": [ 
			{
				"type": "occ",
				"energy": -0.30298,
				"method": "rhf"
			},
			{
				"type": "occ",
				"energy": -0.28106,
				"method": "rhf"
			},
			{
				"type": "occ",
				"energy": -0.26184,
				"method": "rhf"
			},
			{
				"type": "occ",
				"energy": -0.25174,
				"method": "rhf"
			},
			{
				"type": "occ",
				"energy": -0.22459,
				"method": "rhf"
			},
			{
				"type": "unocc",
				"energy": -0.01325,
				"method": "rhf"
			},
			{
				"type": "unocc",
				"energy": 0.03368,
				"method": "rhf"
			},
			{
				"type": "unocc",
				"energy": 0.04139,
				"method": "rhf"
			},
			{
				"type": "unocc",
				"energy": 0.05484,
				"method": "rhf"
			},
			{
				"type": "unocc",
				"energy": 0.06754,
				"method": "rhf"
			}
		],
		"cosmo_sigma_profile": { 
			"-0.025": 0.0,
			"-0.024": 0.0,
			"-0.023": 0.0,
			"-0.022": 0.0,
			"-0.021": 0.0,
			"-0.02": 0.0,
			"-0.019": 0.523981491938,
			"-0.018": 0.98885085168,
			"-0.017": 0.878897802557,
			"-0.016": 1.00100230582,
			"-0.015": 0.972614379455,
			"-0.014": 0.336630708072,
			"-0.013": 2.65565731926,
			"-0.012": 3.64627360702,
			"-0.011": 4.24265975752,
			"-0.01": 4.13114925152,
			"-0.009": 3.54895415875,
			"-0.008": 4.77896084373,
			"-0.007": 7.42406520032,
			"-0.006": 9.2065898036,
			"-0.005": 16.2484039683,
			"-0.004": 17.6177466599,
			"-0.003": 16.3776480344,
			"-0.002": 15.8396321234,
			"-0.001": 16.2373621888,
			"0.0": 10.550989638,
			"0.001": 8.28838435231,
			"0.002": 9.38321783869,
			"0.003": 8.19345768203,
			"0.004": 8.92600218467,
			"0.005": 7.37378921962,
			"0.006": 7.06735419549,
			"0.007": 6.54365433385,
			"0.008": 5.08680849642,
			"0.009": 4.89121562753,
			"0.01": 6.985271309,
			"0.011": 8.86240455434,
			"0.012": 3.18373265678,
			"0.013": 2.32008328825,
			"0.014": 6.66628763324,
			"0.015": 2.67806388177,
			"0.016": 0.0,
			"0.017": 0.0,
			"0.018": 0.0,
			"0.019": 0.0,
			"0.02": 0.0,
			"0.021": 0.0,
			"0.022": 0.0,
			"0.023": 0.0,
			"0.024": 0.0,
			"0.025": 0.0
		}
	}
}
