{
	 "smiles": "NC1=NN=C(N1)C(=O)NCC1=CC=CC=C1", 
	 "Tm": 522.15, 
	 "num_atms": 27, 
	 "gaussian": { 
		 "optdone": 1, 
		 "sigma_profile": "yes", 
		 "theory": "DFT", 
		 "functional": "B3LYP", 
		 "basiset": "6-31G**", 
		 "properties": { 
			 "R2extent": 5321.5102, 
			 "electric_dipole_moment_norm": 2.19913049636, 
			 "electric_quadrupole_moment_norm": 26.4293291693, 
			 "total_energy": -736.681626056, 
			 "HOMO_LUMO_gap": 0.19961, 
			 "cosmo_polarized_energy": -22.98, 
			 "cosmo_cavitation_energy": 32.41, 
			 "cosmo_dispersion_energy": -23.58, 
			 "cosmo_repulsion_energy": 1.86, 
			 "cosmo_total_nonelectrostatic_energy": 10.69, 
			 "SMD_solvation_energy": 3.33 
		},
		"coords": [
			{
				"x": 2.6950392391,
				"y": 0.7258102431,
				"z": 5.350982718,
				"element": "N" 
			},
			{
				"x": 2.1263017925,
				"y": 0.1962583991,
				"z": 4.2080064081,
				"element": "C" 
			},
			{
				"x": 1.192023825,
				"y": -0.7400898195,
				"z": 4.1764346997,
				"element": "N" 
			},
			{
				"x": 0.8411790726,
				"y": -0.9136883039,
				"z": 2.8552786476,
				"element": "N" 
			},
			{
				"x": 1.5741790558,
				"y": -0.0987574407,
				"z": 2.1360424003,
				"element": "C" 
			},
			{
				"x": 2.4063606668,
				"y": 0.6328883553,
				"z": 2.9469444337,
				"element": "N" 
			},
			{
				"x": 1.5795067031,
				"y": 0.0885097198,
				"z": 0.6682265352,
				"element": "C" 
			},
			{
				"x": 2.332747994,
				"y": 0.9174528223,
				"z": 0.1501462553,
				"element": "O" 
			},
			{
				"x": 0.7144245391,
				"y": -0.7148873018,
				"z": 0.0018788781,
				"element": "N" 
			},
			{
				"x": 0.5337481856,
				"y": -0.6442852377,
				"z": -1.4446288148,
				"element": "C" 
			},
			{
				"x": -0.686844054,
				"y": 0.1533718031,
				"z": -1.867684865,
				"element": "C" 
			},
			{
				"x": -0.7138290293,
				"y": 1.5444393386,
				"z": -1.6890883159,
				"element": "C" 
			},
			{
				"x": -1.8343281415,
				"y": 2.2824602258,
				"z": -2.0663175503,
				"element": "C" 
			},
			{
				"x": -2.9420016853,
				"y": 1.6414747341,
				"z": -2.6293117982,
				"element": "C" 
			},
			{
				"x": -2.9218899967,
				"y": 0.2591221226,
				"z": -2.8130980874,
				"element": "C" 
			},
			{
				"x": -1.7985450294,
				"y": -0.4795006666,
				"z": -2.4324088428,
				"element": "C" 
			},
			{
				"x": 3.7034696117,
				"y": 0.818786317,
				"z": 5.3230677849,
				"element": "H" 
			},
			{
				"x": 2.394398339,
				"y": 0.2097184711,
				"z": 6.1692429812,
				"element": "H" 
			},
			{
				"x": 3.0219544497,
				"y": 1.3661371681,
				"z": 2.6256261391,
				"element": "H" 
			},
			{
				"x": 0.0992038509,
				"y": -1.2896792514,
				"z": 0.5643926626,
				"element": "H" 
			},
			{
				"x": 0.4706986021,
				"y": -1.6648558629,
				"z": -1.8365156986,
				"element": "H" 
			},
			{
				"x": 1.4440085972,
				"y": -0.1862134645,
				"z": -1.8399696324,
				"element": "H" 
			},
			{
				"x": 0.1509430038,
				"y": 2.0397009527,
				"z": -1.2556538002,
				"element": "H" 
			},
			{
				"x": -1.8433555266,
				"y": 3.3597721757,
				"z": -1.9259382184,
				"element": "H" 
			},
			{
				"x": -3.813839205,
				"y": 2.2183411408,
				"z": -2.9245213514,
				"element": "H" 
			},
			{
				"x": -3.7781807363,
				"y": -0.2459134681,
				"z": -3.2512095479,
				"element": "H" 
			},
			{
				"x": -1.786074124,
				"y": -1.5573731722,
				"z": -2.5784240206,
				"element": "H" 
			}
		],
		 "valence_orbital": [ 
			{
				"type": "occ",
				"energy": -0.26203,
				"method": "rhf"
			},
			{
				"type": "occ",
				"energy": -0.25599,
				"method": "rhf"
			},
			{
				"type": "occ",
				"energy": -0.249,
				"method": "rhf"
			},
			{
				"type": "occ",
				"energy": -0.24219,
				"method": "rhf"
			},
			{
				"type": "occ",
				"energy": -0.22972,
				"method": "rhf"
			},
			{
				"type": "unocc",
				"energy": -0.03011,
				"method": "rhf"
			},
			{
				"type": "unocc",
				"energy": -0.00347,
				"method": "rhf"
			},
			{
				"type": "unocc",
				"energy": 0.00092,
				"method": "rhf"
			},
			{
				"type": "unocc",
				"energy": 0.04434,
				"method": "rhf"
			},
			{
				"type": "unocc",
				"energy": 0.06435,
				"method": "rhf"
			}
		],
		"cosmo_sigma_profile": { 
			"-0.025": 0.0,
			"-0.024": 0.0,
			"-0.023": 0.0,
			"-0.022": 0.0,
			"-0.021": 0.0,
			"-0.02": 0.0,
			"-0.019": 0.0,
			"-0.018": 0.193565866315,
			"-0.017": 0.915911435198,
			"-0.016": 1.25185197771,
			"-0.015": 1.76452065402,
			"-0.014": 3.94737331733,
			"-0.013": 3.51247969594,
			"-0.012": 5.77840799745,
			"-0.011": 3.26294162383,
			"-0.01": 2.65354719483,
			"-0.009": 2.89524640447,
			"-0.008": 3.43051916386,
			"-0.007": 4.16693067368,
			"-0.006": 10.3080012307,
			"-0.005": 14.8742848432,
			"-0.004": 16.7482725762,
			"-0.003": 18.2211887075,
			"-0.002": 16.4513814213,
			"-0.001": 19.5050988385,
			"0.0": 14.9555353907,
			"0.001": 13.9146549984,
			"0.002": 13.7771834118,
			"0.003": 11.5043560973,
			"0.004": 12.0660890855,
			"0.005": 12.9749668933,
			"0.006": 10.546337241,
			"0.007": 3.5754818397,
			"0.008": 3.42322896141,
			"0.009": 3.99302033697,
			"0.01": 4.04602851332,
			"0.011": 4.39156049002,
			"0.012": 4.84107074257,
			"0.013": 7.67113059314,
			"0.014": 3.35005247793,
			"0.015": 1.27613114055,
			"0.016": 1.56237572017,
			"0.017": 0.551780907208,
			"0.018": 0.0,
			"0.019": 0.0,
			"0.02": 0.0,
			"0.021": 0.0,
			"0.022": 0.0,
			"0.023": 0.0,
			"0.024": 0.0,
			"0.025": 0.0
		}
	}
}
