{
	 "smiles": "FC(F)(F)COC(=O)NC1CCCCC1", 
	 "Tm": 353.15, 
	 "num_atms": 29, 
	 "gaussian": { 
		 "optdone": 1, 
		 "sigma_profile": "yes", 
		 "theory": "DFT", 
		 "functional": "B3LYP", 
		 "basiset": "6-31G**", 
		 "properties": { 
			 "R2extent": 5495.1158, 
			 "electric_dipole_moment_norm": 2.79306477189, 
			 "electric_quadrupole_moment_norm": 7.9865053941, 
			 "total_energy": -856.14914043, 
			 "HOMO_LUMO_gap": 0.30023, 
			 "cosmo_polarized_energy": -9.12, 
			 "cosmo_cavitation_energy": 31.89, 
			 "cosmo_dispersion_energy": -21.96, 
			 "cosmo_repulsion_energy": 1.69, 
			 "cosmo_total_nonelectrostatic_energy": 11.61, 
			 "SMD_solvation_energy": 6.36 
		},
		"coords": [
			{
				"x": 3.1427264899,
				"y": -1.9404498556,
				"z": -4.4501828358,
				"element": "F" 
			},
			{
				"x": 2.1432109789,
				"y": -1.6839990806,
				"z": -3.5817395168,
				"element": "C" 
			},
			{
				"x": 1.1508778476,
				"y": -2.5660978362,
				"z": -3.818529121,
				"element": "F" 
			},
			{
				"x": 1.659684996,
				"y": -0.4530241867,
				"z": -3.8449401853,
				"element": "F" 
			},
			{
				"x": 2.6584459557,
				"y": -1.7831902375,
				"z": -2.1572501832,
				"element": "C" 
			},
			{
				"x": 1.5904281315,
				"y": -1.4995224958,
				"z": -1.2668367024,
				"element": "O" 
			},
			{
				"x": 1.6848347304,
				"y": -0.3134312126,
				"z": -0.5707177676,
				"element": "C" 
			},
			{
				"x": 2.6868578832,
				"y": 0.3765193641,
				"z": -0.5453863949,
				"element": "O" 
			},
			{
				"x": 0.53411808,
				"y": -0.0449415818,
				"z": 0.0979785469,
				"element": "N" 
			},
			{
				"x": -0.7771149371,
				"y": -0.7069389665,
				"z": -0.013592762,
				"element": "C" 
			},
			{
				"x": -1.3884319137,
				"y": -0.5938241575,
				"z": -1.4380075778,
				"element": "C" 
			},
			{
				"x": -2.4014154207,
				"y": -1.722885841,
				"z": -1.7278841175,
				"element": "C" 
			},
			{
				"x": -3.1790841964,
				"y": -2.1094547278,
				"z": -0.4629031503,
				"element": "C" 
			},
			{
				"x": -2.2339185542,
				"y": -2.6792098173,
				"z": 0.6264091829,
				"element": "C" 
			},
			{
				"x": -0.7832219532,
				"y": -2.1609354977,
				"z": 0.4870440086,
				"element": "C" 
			},
			{
				"x": 3.0032191769,
				"y": -2.8044473109,
				"z": -1.9781164166,
				"element": "H" 
			},
			{
				"x": 3.4762754618,
				"y": -1.0745607893,
				"z": -2.0137473502,
				"element": "H" 
			},
			{
				"x": 0.5847168936,
				"y": 0.8257268194,
				"z": 0.6046278215,
				"element": "H" 
			},
			{
				"x": -1.4098009799,
				"y": -0.1355383384,
				"z": 0.6761174184,
				"element": "H" 
			},
			{
				"x": -1.874911946,
				"y": 0.3844563766,
				"z": -1.5332425426,
				"element": "H" 
			},
			{
				"x": -0.5884652636,
				"y": -0.6211169143,
				"z": -2.1812541752,
				"element": "H" 
			},
			{
				"x": -1.8693744595,
				"y": -2.6034782226,
				"z": -2.1093559054,
				"element": "H" 
			},
			{
				"x": -3.0858169769,
				"y": -1.4107938336,
				"z": -2.5243497123,
				"element": "H" 
			},
			{
				"x": -3.6959671716,
				"y": -1.2186822609,
				"z": -0.0811609184,
				"element": "H" 
			},
			{
				"x": -3.9643037677,
				"y": -2.8361428949,
				"z": -0.6980782725,
				"element": "H" 
			},
			{
				"x": -2.2208703719,
				"y": -3.7737250291,
				"z": 0.5744568052,
				"element": "H" 
			},
			{
				"x": -2.626262671,
				"y": -2.4256672673,
				"z": 1.6186056338,
				"element": "H" 
			},
			{
				"x": -0.26025678,
				"y": -2.221282568,
				"z": 1.4474067358,
				"element": "H" 
			},
			{
				"x": -0.2224792621,
				"y": -2.781661636,
				"z": -0.2166705454,
				"element": "H" 
			}
		],
		 "valence_orbital": [ 
			{
				"type": "occ",
				"energy": -0.31559,
				"method": "rhf"
			},
			{
				"type": "occ",
				"energy": -0.3054,
				"method": "rhf"
			},
			{
				"type": "occ",
				"energy": -0.30319,
				"method": "rhf"
			},
			{
				"type": "occ",
				"energy": -0.2816,
				"method": "rhf"
			},
			{
				"type": "occ",
				"energy": -0.25491,
				"method": "rhf"
			},
			{
				"type": "unocc",
				"energy": 0.04532,
				"method": "rhf"
			},
			{
				"type": "unocc",
				"energy": 0.06211,
				"method": "rhf"
			},
			{
				"type": "unocc",
				"energy": 0.08347,
				"method": "rhf"
			},
			{
				"type": "unocc",
				"energy": 0.09064,
				"method": "rhf"
			},
			{
				"type": "unocc",
				"energy": 0.11617,
				"method": "rhf"
			}
		],
		"cosmo_sigma_profile": { 
			"-0.025": 0.0,
			"-0.024": 0.0,
			"-0.023": 0.0,
			"-0.022": 0.0,
			"-0.021": 0.0,
			"-0.02": 0.0,
			"-0.019": 0.0,
			"-0.018": 0.0,
			"-0.017": 0.0,
			"-0.016": 0.0,
			"-0.015": 0.0396607380673,
			"-0.014": 0.964026570095,
			"-0.013": 1.40489165187,
			"-0.012": 0.800766976127,
			"-0.011": 1.03040959268,
			"-0.01": 1.17910955587,
			"-0.009": 3.15331335702,
			"-0.008": 4.66312854318,
			"-0.007": 3.9696025906,
			"-0.006": 5.23542648364,
			"-0.005": 5.74043856071,
			"-0.004": 5.958259492,
			"-0.003": 12.9360415323,
			"-0.002": 26.4723047045,
			"-0.001": 30.9781383146,
			"0.0": 33.0000182476,
			"0.001": 33.7161247017,
			"0.002": 30.3123667702,
			"0.003": 25.8027113788,
			"0.004": 4.01581942646,
			"0.005": 1.78270747822,
			"0.006": 1.10079548524,
			"0.007": 0.99696506791,
			"0.008": 1.0995760731,
			"0.009": 1.49561509553,
			"0.01": 1.50780215964,
			"0.011": 1.53453711091,
			"0.012": 3.60007558078,
			"0.013": 4.122171987,
			"0.014": 0.325897256634,
			"0.015": 0.0,
			"0.016": 0.0,
			"0.017": 0.0,
			"0.018": 0.0,
			"0.019": 0.0,
			"0.02": 0.0,
			"0.021": 0.0,
			"0.022": 0.0,
			"0.023": 0.0,
			"0.024": 0.0,
			"0.025": 0.0
		}
	}
}
