{
	 "smiles": "OC(=O)CC12CC3CC(C1)CC(C3)(C2)C(F)(F)F", 
	 "Tm": 395.15, 
	 "num_atms": 35, 
	 "gaussian": { 
		 "optdone": 1, 
		 "sigma_profile": "yes", 
		 "theory": "DFT", 
		 "functional": "B3LYP", 
		 "basiset": "6-31G**", 
		 "properties": { 
			 "R2extent": 4738.1611, 
			 "electric_dipole_moment_norm": 1.92303261023, 
			 "electric_quadrupole_moment_norm": 10.2869259038, 
			 "total_energy": -955.663054381, 
			 "HOMO_LUMO_gap": 0.27635, 
			 "cosmo_polarized_energy": -8.75, 
			 "cosmo_cavitation_energy": 33.99, 
			 "cosmo_dispersion_energy": -24.43, 
			 "cosmo_repulsion_energy": 1.78, 
			 "cosmo_total_nonelectrostatic_energy": 11.35, 
			 "SMD_solvation_energy": 6.6 
		},
		"coords": [
			{
				"x": -2.5550426795,
				"y": -2.101404502,
				"z": -3.8979450508,
				"element": "O" 
			},
			{
				"x": -2.1981369268,
				"y": -1.0461535149,
				"z": -3.1239661145,
				"element": "C" 
			},
			{
				"x": -2.80480786,
				"y": 0.0038866697,
				"z": -3.1578196096,
				"element": "O" 
			},
			{
				"x": -0.9926845999,
				"y": -1.397204057,
				"z": -2.2745413719,
				"element": "C" 
			},
			{
				"x": -0.4531021316,
				"y": -0.3107574969,
				"z": -1.3269638395,
				"element": "C" 
			},
			{
				"x": -1.5102508365,
				"y": 0.1132606309,
				"z": -0.2769184189,
				"element": "C" 
			},
			{
				"x": -0.9123160854,
				"y": 1.1518806817,
				"z": 0.6931483497,
				"element": "C" 
			},
			{
				"x": -0.4572339622,
				"y": 2.3940982168,
				"z": -0.0988438374,
				"element": "C" 
			},
			{
				"x": 0.6159550081,
				"y": 1.9801267504,
				"z": -1.1254684374,
				"element": "C" 
			},
			{
				"x": 0.0225179693,
				"y": 0.944098839,
				"z": -2.1011830903,
				"element": "C" 
			},
			{
				"x": 1.825849665,
				"y": 1.3718226664,
				"z": -0.3910873346,
				"element": "C" 
			},
			{
				"x": 1.370523574,
				"y": 0.1240092036,
				"z": 0.403215076,
				"element": "C" 
			},
			{
				"x": 0.293190287,
				"y": 0.5413669018,
				"z": 1.4329545296,
				"element": "C" 
			},
			{
				"x": 0.7641080029,
				"y": -0.9084051997,
				"z": -0.5763888927,
				"element": "C" 
			},
			{
				"x": 2.5624566558,
				"y": -0.4946525489,
				"z": 1.12280603,
				"element": "C" 
			},
			{
				"x": 2.2121796892,
				"y": -1.5949563791,
				"z": 1.8324872274,
				"element": "F" 
			},
			{
				"x": 3.1317721566,
				"y": 0.3709156229,
				"z": 1.9951333868,
				"element": "F" 
			},
			{
				"x": 3.5338628681,
				"y": -0.8784817337,
				"z": 0.2590380231,
				"element": "F" 
			},
			{
				"x": -3.3270057286,
				"y": -1.8089362938,
				"z": -4.4114171888,
				"element": "H" 
			},
			{
				"x": -0.2040726847,
				"y": -1.7217749858,
				"z": -2.9668177043,
				"element": "H" 
			},
			{
				"x": -1.2609361429,
				"y": -2.2972055806,
				"z": -1.7048980885,
				"element": "H" 
			},
			{
				"x": -2.3849821456,
				"y": 0.5296207272,
				"z": -0.7845208398,
				"element": "H" 
			},
			{
				"x": -1.8467776153,
				"y": -0.7709702847,
				"z": 0.2827838739,
				"element": "H" 
			},
			{
				"x": -1.6733419041,
				"y": 1.4404716084,
				"z": 1.4284482367,
				"element": "H" 
			},
			{
				"x": -0.0534999384,
				"y": 3.1516358246,
				"z": 0.5853928989,
				"element": "H" 
			},
			{
				"x": -1.3139173678,
				"y": 2.8479546569,
				"z": -0.6121368719,
				"element": "H" 
			},
			{
				"x": 0.9469053102,
				"y": 2.860475383,
				"z": -1.6898983877,
				"element": "H" 
			},
			{
				"x": -0.8191008903,
				"y": 1.3784474064,
				"z": -2.6482155201,
				"element": "H" 
			},
			{
				"x": 0.7794269314,
				"y": 0.6525377723,
				"z": -2.8431036258,
				"element": "H" 
			},
			{
				"x": 2.2669496826,
				"y": 2.1041122556,
				"z": 0.2946887908,
				"element": "H" 
			},
			{
				"x": 2.6056760298,
				"y": 1.0891912038,
				"z": -1.1076313847,
				"element": "H" 
			},
			{
				"x": 0.7182035212,
				"y": 1.2650605623,
				"z": 2.1377660875,
				"element": "H" 
			},
			{
				"x": -0.0186330387,
				"y": -0.3329565165,
				"z": 2.0158336724,
				"element": "H" 
			},
			{
				"x": 1.530048172,
				"y": -1.2235749734,
				"z": -1.2957004574,
				"element": "H" 
			},
			{
				"x": 0.459017015,
				"y": -1.8038395167,
				"z": -0.0209301161,
				"element": "H" 
			}
		],
		 "valence_orbital": [ 
			{
				"type": "occ",
				"energy": -0.31947,
				"method": "rhf"
			},
			{
				"type": "occ",
				"energy": -0.3017,
				"method": "rhf"
			},
			{
				"type": "occ",
				"energy": -0.29202,
				"method": "rhf"
			},
			{
				"type": "occ",
				"energy": -0.28695,
				"method": "rhf"
			},
			{
				"type": "occ",
				"energy": -0.27364,
				"method": "rhf"
			},
			{
				"type": "unocc",
				"energy": 0.00271,
				"method": "rhf"
			},
			{
				"type": "unocc",
				"energy": 0.06526,
				"method": "rhf"
			},
			{
				"type": "unocc",
				"energy": 0.0758,
				"method": "rhf"
			},
			{
				"type": "unocc",
				"energy": 0.09811,
				"method": "rhf"
			},
			{
				"type": "unocc",
				"energy": 0.11462,
				"method": "rhf"
			}
		],
		"cosmo_sigma_profile": { 
			"-0.025": 0.0,
			"-0.024": 0.0,
			"-0.023": 0.0,
			"-0.022": 0.0,
			"-0.021": 0.0,
			"-0.02": 0.0,
			"-0.019": 0.0,
			"-0.018": 0.463019372299,
			"-0.017": 0.918400094755,
			"-0.016": 0.720348003719,
			"-0.015": 0.926377989425,
			"-0.014": 0.988995161195,
			"-0.013": 0.54598748818,
			"-0.012": 0.926850995413,
			"-0.011": 0.286133439799,
			"-0.01": 0.817857378382,
			"-0.009": 0.444811963022,
			"-0.008": 0.473814960139,
			"-0.007": 0.826404418181,
			"-0.006": 3.007559687,
			"-0.005": 7.26314447399,
			"-0.004": 10.181204814,
			"-0.003": 27.0265417559,
			"-0.002": 35.2871683204,
			"-0.001": 36.7288505631,
			"0.0": 34.2897750606,
			"0.001": 20.9832412541,
			"0.002": 11.6447501336,
			"0.003": 29.9148422732,
			"0.004": 15.3930001169,
			"0.005": 2.44139340415,
			"0.006": 2.99579640339,
			"0.007": 2.99145024384,
			"0.008": 2.45978626189,
			"0.009": 3.51423927299,
			"0.01": 2.29864403825,
			"0.011": 3.21669876142,
			"0.012": 2.73876684375,
			"0.013": 0.0876672261048,
			"0.014": 0.0,
			"0.015": 0.0,
			"0.016": 0.0,
			"0.017": 0.0,
			"0.018": 0.0,
			"0.019": 0.0,
			"0.02": 0.0,
			"0.021": 0.0,
			"0.022": 0.0,
			"0.023": 0.0,
			"0.024": 0.0,
			"0.025": 0.0
		}
	}
}
