{
	 "smiles": "CN1C2=C(C=CC=C2)N=C1C1=CC(O)=CC=C1", 
	 "Tm": 448.15, 
	 "num_atms": 29, 
	 "gaussian": { 
		 "optdone": 1, 
		 "sigma_profile": "yes", 
		 "theory": "DFT", 
		 "functional": "B3LYP", 
		 "basiset": "6-31G**", 
		 "properties": { 
			 "R2extent": 6226.9339, 
			 "electric_dipole_moment_norm": 3.73613351207, 
			 "electric_quadrupole_moment_norm": 9.87956671013, 
			 "total_energy": -725.461603122, 
			 "HOMO_LUMO_gap": 0.17277, 
			 "cosmo_polarized_energy": -16.47, 
			 "cosmo_cavitation_energy": 32.74, 
			 "cosmo_dispersion_energy": -24.0, 
			 "cosmo_repulsion_energy": 1.83, 
			 "cosmo_total_nonelectrostatic_energy": 10.57, 
			 "SMD_solvation_energy": 3.73 
		},
		"coords": [
			{
				"x": 0.7354766704,
				"y": 0.5817320501,
				"z": -0.0690005881,
				"element": "C" 
			},
			{
				"x": -0.4126639772,
				"y": 1.0318131876,
				"z": 0.6997135381,
				"element": "N" 
			},
			{
				"x": -1.1409489941,
				"y": 2.1748315925,
				"z": 0.4086761667,
				"element": "C" 
			},
			{
				"x": -2.2748739261,
				"y": 2.1221153017,
				"z": 1.2530048501,
				"element": "C" 
			},
			{
				"x": -3.2293217397,
				"y": 3.1471654848,
				"z": 1.2036562154,
				"element": "C" 
			},
			{
				"x": -3.0234438984,
				"y": 4.1897090804,
				"z": 0.3061072057,
				"element": "C" 
			},
			{
				"x": -1.890509756,
				"y": 4.2235654152,
				"z": -0.5325120316,
				"element": "C" 
			},
			{
				"x": -0.9273580241,
				"y": 3.217363692,
				"z": -0.4966983705,
				"element": "C" 
			},
			{
				"x": -2.2361333754,
				"y": 0.9822771196,
				"z": 2.0322262334,
				"element": "N" 
			},
			{
				"x": -1.1266037656,
				"y": 0.3586112903,
				"z": 1.6898475663,
				"element": "C" 
			},
			{
				"x": -0.7008032607,
				"y": -0.9116788194,
				"z": 2.3022531068,
				"element": "C" 
			},
			{
				"x": 0.6458508377,
				"y": -1.1911436142,
				"z": 2.5897519958,
				"element": "C" 
			},
			{
				"x": 1.0002890511,
				"y": -2.3967144619,
				"z": 3.202042718,
				"element": "C" 
			},
			{
				"x": 2.2945519373,
				"y": -2.7097546801,
				"z": 3.5098693734,
				"element": "O" 
			},
			{
				"x": 0.0164926411,
				"y": -3.3343951076,
				"z": 3.5326256779,
				"element": "C" 
			},
			{
				"x": -1.3194036541,
				"y": -3.046624657,
				"z": 3.2600975598,
				"element": "C" 
			},
			{
				"x": -1.6863857295,
				"y": -1.8468197678,
				"z": 2.6528034645,
				"element": "C" 
			},
			{
				"x": 0.5704765636,
				"y": 0.80497004,
				"z": -1.127084832,
				"element": "H" 
			},
			{
				"x": 1.6590316037,
				"y": 1.0786359955,
				"z": 0.2509393187,
				"element": "H" 
			},
			{
				"x": 0.8551117186,
				"y": -0.495533859,
				"z": 0.0434003517,
				"element": "H" 
			},
			{
				"x": -4.099781821,
				"y": 3.1136330395,
				"z": 1.8508976025,
				"element": "H" 
			},
			{
				"x": -3.7477230591,
				"y": 4.9967907198,
				"z": 0.2467256205,
				"element": "H" 
			},
			{
				"x": -1.7629596104,
				"y": 5.0552230113,
				"z": -1.2192572513,
				"element": "H" 
			},
			{
				"x": -0.0530943764,
				"y": 3.2544914525,
				"z": -1.1395860508,
				"element": "H" 
			},
			{
				"x": 1.4163915311,
				"y": -0.4535004018,
				"z": 2.3800842348,
				"element": "H" 
			},
			{
				"x": 2.8690028821,
				"y": -1.9743483904,
				"z": 3.2607424735,
				"element": "H" 
			},
			{
				"x": 0.3148545288,
				"y": -4.2637846921,
				"z": 4.0059232356,
				"element": "H" 
			},
			{
				"x": -2.0845569614,
				"y": -3.7704935273,
				"z": 3.5249948002,
				"element": "H" 
			},
			{
				"x": -2.7245640364,
				"y": -1.613936494,
				"z": 2.4477558149,
				"element": "H" 
			}
		],
		 "valence_orbital": [ 
			{
				"type": "occ",
				"energy": -0.266,
				"method": "rhf"
			},
			{
				"type": "occ",
				"energy": -0.26351,
				"method": "rhf"
			},
			{
				"type": "occ",
				"energy": -0.23177,
				"method": "rhf"
			},
			{
				"type": "occ",
				"energy": -0.22101,
				"method": "rhf"
			},
			{
				"type": "occ",
				"energy": -0.20996,
				"method": "rhf"
			},
			{
				"type": "unocc",
				"energy": -0.03719,
				"method": "rhf"
			},
			{
				"type": "unocc",
				"energy": 0.00187,
				"method": "rhf"
			},
			{
				"type": "unocc",
				"energy": 0.01283,
				"method": "rhf"
			},
			{
				"type": "unocc",
				"energy": 0.02558,
				"method": "rhf"
			},
			{
				"type": "unocc",
				"energy": 0.06093,
				"method": "rhf"
			}
		],
		"cosmo_sigma_profile": { 
			"-0.025": 0.0,
			"-0.024": 0.0,
			"-0.023": 0.0,
			"-0.022": 0.0,
			"-0.021": 0.0,
			"-0.02": 0.0,
			"-0.019": 0.0,
			"-0.018": 0.374875063279,
			"-0.017": 1.39902856388,
			"-0.016": 1.08663758205,
			"-0.015": 0.956753492145,
			"-0.014": 1.13232795192,
			"-0.013": 1.35463267598,
			"-0.012": 0.925001388247,
			"-0.011": 0.602591890643,
			"-0.01": 1.18990362428,
			"-0.009": 1.1768576515,
			"-0.008": 1.23254681528,
			"-0.007": 3.43070214818,
			"-0.006": 15.7044371262,
			"-0.005": 22.6923060149,
			"-0.004": 23.7985489648,
			"-0.003": 22.6536376414,
			"-0.002": 15.3370239358,
			"-0.001": 12.0214965176,
			"0.0": 12.156346204,
			"0.001": 14.1653448248,
			"0.002": 14.9383547811,
			"0.003": 18.2550541287,
			"0.004": 22.3218112222,
			"0.005": 19.3822558426,
			"0.006": 11.680291441,
			"0.007": 4.6290325996,
			"0.008": 2.83327779324,
			"0.009": 3.13080786636,
			"0.01": 2.58499375844,
			"0.011": 3.01513588553,
			"0.012": 2.09725785352,
			"0.013": 0.742519869268,
			"0.014": 0.78450601163,
			"0.015": 1.11799260694,
			"0.016": 0.433991036821,
			"0.017": 0.740081191296,
			"0.018": 0.0797871297496,
			"0.019": 0.0,
			"0.02": 0.0,
			"0.021": 0.0,
			"0.022": 0.0,
			"0.023": 0.0,
			"0.024": 0.0,
			"0.025": 0.0
		}
	}
}
