{
	 "smiles": "O=C1NC(=O)C2CC=CCC12", 
	 "Tm": 407.15, 
	 "num_atms": 20, 
	 "gaussian": { 
		 "optdone": 1, 
		 "sigma_profile": "yes", 
		 "theory": "DFT", 
		 "functional": "B3LYP", 
		 "basiset": "6-31G**", 
		 "properties": { 
			 "R2extent": 1730.1236, 
			 "electric_dipole_moment_norm": 2.07056983944, 
			 "electric_quadrupole_moment_norm": 10.4390407596, 
			 "total_energy": -515.490809632, 
			 "HOMO_LUMO_gap": 0.2345, 
			 "cosmo_polarized_energy": -12.49, 
			 "cosmo_cavitation_energy": 22.67, 
			 "cosmo_dispersion_energy": -16.97, 
			 "cosmo_repulsion_energy": 1.38, 
			 "cosmo_total_nonelectrostatic_energy": 7.08, 
			 "SMD_solvation_energy": 4.73 
		},
		"coords": [
			{
				"x": 0.2739916753,
				"y": 1.0276871295,
				"z": -1.5868764177,
				"element": "O" 
			},
			{
				"x": 0.3876631403,
				"y": 0.3933545932,
				"z": -0.5601005642,
				"element": "C" 
			},
			{
				"x": 1.557510826,
				"y": 0.2736177078,
				"z": 0.1811859566,
				"element": "N" 
			},
			{
				"x": 1.4241651037,
				"y": -0.4335145157,
				"z": 1.370553219,
				"element": "C" 
			},
			{
				"x": 2.3025024989,
				"y": -0.5908252203,
				"z": 2.1911281152,
				"element": "O" 
			},
			{
				"x": -0.0156310284,
				"y": -0.9588175643,
				"z": 1.4387883206,
				"element": "C" 
			},
			{
				"x": -0.6781393911,
				"y": -0.5346564765,
				"z": 2.7720703068,
				"element": "C" 
			},
			{
				"x": -1.1677553798,
				"y": 0.8919632283,
				"z": 2.7191347722,
				"element": "C" 
			},
			{
				"x": -1.7594047229,
				"y": 1.3635219112,
				"z": 1.6170418209,
				"element": "C" 
			},
			{
				"x": -1.9455998995,
				"y": 0.4756066768,
				"z": 0.4109144289,
				"element": "C" 
			},
			{
				"x": -0.7020027991,
				"y": -0.411448474,
				"z": 0.1599528549,
				"element": "C" 
			},
			{
				"x": 2.4184789184,
				"y": 0.7366273802,
				"z": -0.0827399264,
				"element": "H" 
			},
			{
				"x": 0.0538241208,
				"y": -2.0519397925,
				"z": 1.4133156343,
				"element": "H" 
			},
			{
				"x": -1.5209578851,
				"y": -1.2101464007,
				"z": 2.9756346387,
				"element": "H" 
			},
			{
				"x": 0.0449167156,
				"y": -0.6840149059,
				"z": 3.5790426949,
				"element": "H" 
			},
			{
				"x": -1.0401729534,
				"y": 1.5196058862,
				"z": 3.5974347286,
				"element": "H" 
			},
			{
				"x": -2.1267565328,
				"y": 2.3856582901,
				"z": 1.5733490836,
				"element": "H" 
			},
			{
				"x": -2.817688763,
				"y": -0.1765821689,
				"z": 0.559831627,
				"element": "H" 
			},
			{
				"x": -2.141287017,
				"y": 1.058575349,
				"z": -0.493621714,
				"element": "H" 
			},
			{
				"x": -0.9821566271,
				"y": -1.2254726336,
				"z": -0.51773958,
				"element": "H" 
			}
		],
		 "valence_orbital": [ 
			{
				"type": "occ",
				"energy": -0.32196,
				"method": "rhf"
			},
			{
				"type": "occ",
				"energy": -0.29309,
				"method": "rhf"
			},
			{
				"type": "occ",
				"energy": -0.28493,
				"method": "rhf"
			},
			{
				"type": "occ",
				"energy": -0.25644,
				"method": "rhf"
			},
			{
				"type": "occ",
				"energy": -0.25484,
				"method": "rhf"
			},
			{
				"type": "unocc",
				"energy": -0.02034,
				"method": "rhf"
			},
			{
				"type": "unocc",
				"energy": 0.00733,
				"method": "rhf"
			},
			{
				"type": "unocc",
				"energy": 0.02055,
				"method": "rhf"
			},
			{
				"type": "unocc",
				"energy": 0.08084,
				"method": "rhf"
			},
			{
				"type": "unocc",
				"energy": 0.09525,
				"method": "rhf"
			}
		],
		"cosmo_sigma_profile": { 
			"-0.025": 0.0,
			"-0.024": 0.0,
			"-0.023": 0.0,
			"-0.022": 0.0,
			"-0.021": 0.0,
			"-0.02": 0.0,
			"-0.019": 0.0,
			"-0.018": 0.0,
			"-0.017": 0.0637900021466,
			"-0.016": 1.2433798408,
			"-0.015": 1.33941166448,
			"-0.014": 0.492969993051,
			"-0.013": 1.42273782858,
			"-0.012": 0.430256259296,
			"-0.011": 1.1437441394,
			"-0.01": 0.995984929926,
			"-0.009": 0.402625774654,
			"-0.008": 1.10897893957,
			"-0.007": 6.42683281327,
			"-0.006": 8.35697645699,
			"-0.005": 11.9674795353,
			"-0.004": 18.9298258768,
			"-0.003": 16.525951538,
			"-0.002": 16.6983005956,
			"-0.001": 16.6799093135,
			"0.0": 10.6375542101,
			"0.001": 7.18519677978,
			"0.002": 6.0791375451,
			"0.003": 6.06051204804,
			"0.004": 4.4482576101,
			"0.005": 4.82131042639,
			"0.006": 3.08605080765,
			"0.007": 2.71720545661,
			"0.008": 2.84087314264,
			"0.009": 3.08324471012,
			"0.01": 3.57195495816,
			"0.011": 6.81231977615,
			"0.012": 10.2018159364,
			"0.013": 2.76502793347,
			"0.014": 0.0,
			"0.015": 0.0,
			"0.016": 0.0,
			"0.017": 0.0,
			"0.018": 0.0,
			"0.019": 0.0,
			"0.02": 0.0,
			"0.021": 0.0,
			"0.022": 0.0,
			"0.023": 0.0,
			"0.024": 0.0,
			"0.025": 0.0
		}
	}
}
