{
	 "smiles": "OCC1=CC2=C(C=CC=C2)N=C1", 
	 "Tm": 356.15, 
	 "num_atms": 21, 
	 "gaussian": { 
		 "optdone": 1, 
		 "sigma_profile": "yes", 
		 "theory": "DFT", 
		 "functional": "B3LYP", 
		 "basiset": "6-31G**", 
		 "properties": { 
			 "R2extent": 2429.1469, 
			 "electric_dipole_moment_norm": 1.347112924, 
			 "electric_quadrupole_moment_norm": 8.53624071943, 
			 "total_energy": -516.459506513, 
			 "HOMO_LUMO_gap": 0.17852, 
			 "cosmo_polarized_energy": -10.65, 
			 "cosmo_cavitation_energy": 24.78, 
			 "cosmo_dispersion_energy": -18.57, 
			 "cosmo_repulsion_energy": 1.46, 
			 "cosmo_total_nonelectrostatic_energy": 7.68, 
			 "SMD_solvation_energy": 2.58 
		},
		"coords": [
			{
				"x": -1.5341268079,
				"y": -1.7354461784,
				"z": 2.1797073395,
				"element": "O" 
			},
			{
				"x": -0.1438245045,
				"y": -1.8420641274,
				"z": 1.918221025,
				"element": "C" 
			},
			{
				"x": 0.2886156771,
				"y": -1.1660048714,
				"z": 0.632622943,
				"element": "C" 
			},
			{
				"x": -0.444947243,
				"y": -0.15116927,
				"z": 0.0598066616,
				"element": "C" 
			},
			{
				"x": 0.0119582173,
				"y": 0.4638524552,
				"z": -1.1330373782,
				"element": "C" 
			},
			{
				"x": 1.2416220367,
				"y": -0.0085278042,
				"z": -1.6935065327,
				"element": "C" 
			},
			{
				"x": 1.731269109,
				"y": 0.586099646,
				"z": -2.8860629895,
				"element": "C" 
			},
			{
				"x": 1.0323056226,
				"y": 1.604979607,
				"z": -3.4942226639,
				"element": "C" 
			},
			{
				"x": -0.185321515,
				"y": 2.0734501544,
				"z": -2.9397343723,
				"element": "C" 
			},
			{
				"x": -0.6858447453,
				"y": 1.5149943561,
				"z": -1.7847103868,
				"element": "C" 
			},
			{
				"x": 1.962391478,
				"y": -1.0189990817,
				"z": -1.121830748,
				"element": "N" 
			},
			{
				"x": 1.4921010402,
				"y": -1.5588424867,
				"z": -0.0176387459,
				"element": "C" 
			},
			{
				"x": -2.0010392264,
				"y": -2.1773104278,
				"z": 1.4576435543,
				"element": "H" 
			},
			{
				"x": 0.3482359379,
				"y": -1.3652613418,
				"z": 2.7747588876,
				"element": "H" 
			},
			{
				"x": 0.1896319574,
				"y": -2.892286502,
				"z": 1.9116497061,
				"element": "H" 
			},
			{
				"x": -1.3723967334,
				"y": 0.1752035126,
				"z": 0.5230444356,
				"element": "H" 
			},
			{
				"x": 2.6651415397,
				"y": 0.2090869138,
				"z": -3.2902278765,
				"element": "H" 
			},
			{
				"x": 1.4126719155,
				"y": 2.0566982927,
				"z": -4.4058571271,
				"element": "H" 
			},
			{
				"x": -0.7237392913,
				"y": 2.878011553,
				"z": -3.4321648419,
				"element": "H" 
			},
			{
				"x": -1.6187858223,
				"y": 1.8719178547,
				"z": -1.3556761749,
				"element": "H" 
			},
			{
				"x": 2.0839813575,
				"y": -2.3698822541,
				"z": 0.4108152851,
				"element": "H" 
			}
		],
		 "valence_orbital": [ 
			{
				"type": "occ",
				"energy": -0.30443,
				"method": "rhf"
			},
			{
				"type": "occ",
				"energy": -0.28537,
				"method": "rhf"
			},
			{
				"type": "occ",
				"energy": -0.25217,
				"method": "rhf"
			},
			{
				"type": "occ",
				"energy": -0.24745,
				"method": "rhf"
			},
			{
				"type": "occ",
				"energy": -0.23056,
				"method": "rhf"
			},
			{
				"type": "unocc",
				"energy": -0.05204,
				"method": "rhf"
			},
			{
				"type": "unocc",
				"energy": -0.01717,
				"method": "rhf"
			},
			{
				"type": "unocc",
				"energy": 0.02064,
				"method": "rhf"
			},
			{
				"type": "unocc",
				"energy": 0.07213,
				"method": "rhf"
			},
			{
				"type": "unocc",
				"energy": 0.08623,
				"method": "rhf"
			}
		],
		"cosmo_sigma_profile": { 
			"-0.025": 0.0,
			"-0.024": 0.0,
			"-0.023": 0.0,
			"-0.022": 0.0,
			"-0.021": 0.0,
			"-0.02": 0.0,
			"-0.019": 0.0,
			"-0.018": 0.0,
			"-0.017": 0.0,
			"-0.016": 0.317128326332,
			"-0.015": 0.952668779511,
			"-0.014": 1.14780845644,
			"-0.013": 0.961926385877,
			"-0.012": 0.581995771205,
			"-0.011": 1.1214407892,
			"-0.01": 0.714639775503,
			"-0.009": 0.802672991983,
			"-0.008": 0.927880816566,
			"-0.007": 2.77691655691,
			"-0.006": 15.4521815542,
			"-0.005": 18.1533528331,
			"-0.004": 17.0980984054,
			"-0.003": 13.0437212129,
			"-0.002": 10.9430476091,
			"-0.001": 9.70803569542,
			"0.0": 10.7147675959,
			"0.001": 13.4215270175,
			"0.002": 17.9486818867,
			"0.003": 16.2912091445,
			"0.004": 13.8169928224,
			"0.005": 7.6460110569,
			"0.006": 2.58112976006,
			"0.007": 2.86768077154,
			"0.008": 2.66103785343,
			"0.009": 2.16165762176,
			"0.01": 1.95188924865,
			"0.011": 1.65331199385,
			"0.012": 3.30011521426,
			"0.013": 2.48678243485,
			"0.014": 1.83614825192,
			"0.015": 0.962177299212,
			"0.016": 0.666616486819,
			"0.017": 0.120335764239,
			"0.018": 0.0,
			"0.019": 0.0,
			"0.02": 0.0,
			"0.021": 0.0,
			"0.022": 0.0,
			"0.023": 0.0,
			"0.024": 0.0,
			"0.025": 0.0
		}
	}
}
