{
	 "smiles": "FC1=C(F)C(F)=C(OC(=O)OCC2C3=CC=CC=C3C3=CC=CC=C23)C(F)=C1F", 
	 "Tm": 358.15, 
	 "num_atms": 40, 
	 "gaussian": { 
		 "optdone": 1, 
		 "sigma_profile": "yes", 
		 "theory": "DFT", 
		 "functional": "B3LYP", 
		 "basiset": "6-31G**", 
		 "properties": { 
			 "R2extent": 17054.8352, 
			 "electric_dipole_moment_norm": 2.21658856354, 
			 "electric_quadrupole_moment_norm": 9.86696289544, 
			 "total_energy": -1531.68465245, 
			 "HOMO_LUMO_gap": 0.18446, 
			 "cosmo_polarized_energy": -9.83, 
			 "cosmo_cavitation_energy": 49.07, 
			 "cosmo_dispersion_energy": -32.81, 
			 "cosmo_repulsion_energy": 2.32, 
			 "cosmo_total_nonelectrostatic_energy": 18.58, 
			 "SMD_solvation_energy": 11.37 
		},
		"coords": [
			{
				"x": 5.1544617211,
				"y": 1.5356718292,
				"z": -6.1341423829,
				"element": "F" 
			},
			{
				"x": 4.356058789,
				"y": 1.0187153662,
				"z": -5.1974512531,
				"element": "C" 
			},
			{
				"x": 2.9857314034,
				"y": 1.2683096324,
				"z": -5.2360404364,
				"element": "C" 
			},
			{
				"x": 2.4721776951,
				"y": 2.0276044878,
				"z": -6.2083328255,
				"element": "F" 
			},
			{
				"x": 2.1553076965,
				"y": 0.729701057,
				"z": -4.2549352188,
				"element": "C" 
			},
			{
				"x": 0.844141222,
				"y": 0.9812036224,
				"z": -4.2887421753,
				"element": "F" 
			},
			{
				"x": 2.6865097495,
				"y": -0.068096681,
				"z": -3.2427946393,
				"element": "C" 
			},
			{
				"x": 1.8377857993,
				"y": -0.6573053785,
				"z": -2.3303080146,
				"element": "O" 
			},
			{
				"x": 1.8877742174,
				"y": -0.1629140441,
				"z": -1.0519730038,
				"element": "C" 
			},
			{
				"x": 2.5785209367,
				"y": 0.7549673071,
				"z": -0.6874192123,
				"element": "O" 
			},
			{
				"x": 1.0342831409,
				"y": -0.886791874,
				"z": -0.333085373,
				"element": "O" 
			},
			{
				"x": 0.8922575707,
				"y": -0.491979604,
				"z": 1.0566642139,
				"element": "C" 
			},
			{
				"x": -0.0969758357,
				"y": 0.6706117828,
				"z": 1.2187312043,
				"element": "C" 
			},
			{
				"x": -0.2100594555,
				"y": 1.0889342337,
				"z": 2.6775501726,
				"element": "C" 
			},
			{
				"x": 0.7835810416,
				"y": 1.5353894804,
				"z": 3.5421125169,
				"element": "C" 
			},
			{
				"x": 0.4382344381,
				"y": 1.861336855,
				"z": 4.8592094905,
				"element": "C" 
			},
			{
				"x": -0.8850716645,
				"y": 1.7413831687,
				"z": 5.296812905,
				"element": "C" 
			},
			{
				"x": -1.8865285566,
				"y": 1.2973114637,
				"z": 4.4299103339,
				"element": "C" 
			},
			{
				"x": -1.5446701785,
				"y": 0.9695225295,
				"z": 3.1163358521,
				"element": "C" 
			},
			{
				"x": -2.3662093953,
				"y": 0.4944763139,
				"z": 1.9948661124,
				"element": "C" 
			},
			{
				"x": -3.7349250732,
				"y": 0.2303165004,
				"z": 1.914825216,
				"element": "C" 
			},
			{
				"x": -4.2652682614,
				"y": -0.2127717328,
				"z": 0.7012320583,
				"element": "C" 
			},
			{
				"x": -3.4411804134,
				"y": -0.3881471554,
				"z": -0.4154789239,
				"element": "C" 
			},
			{
				"x": -2.0687530796,
				"y": -0.1226590642,
				"z": -0.3392878875,
				"element": "C" 
			},
			{
				"x": -1.5352712357,
				"y": 0.3175466405,
				"z": 0.86822713,
				"element": "C" 
			},
			{
				"x": 4.0590633696,
				"y": -0.3141719132,
				"z": -3.2114712931,
				"element": "C" 
			},
			{
				"x": 4.5733304563,
				"y": -1.0752113166,
				"z": -2.2421683635,
				"element": "F" 
			},
			{
				"x": 4.8954547991,
				"y": 0.229032678,
				"z": -4.1826636564,
				"element": "C" 
			},
			{
				"x": 6.2098702262,
				"y": -0.0081675151,
				"z": -4.1492740454,
				"element": "F" 
			},
			{
				"x": 0.5270780613,
				"y": -1.3891102671,
				"z": 1.5581612902,
				"element": "H" 
			},
			{
				"x": 1.876383197,
				"y": -0.2214151404,
				"z": 1.4441237212,
				"element": "H" 
			},
			{
				"x": 0.270204816,
				"y": 1.5055647515,
				"z": 0.6068713873,
				"element": "H" 
			},
			{
				"x": 1.8118032074,
				"y": 1.6410357283,
				"z": 3.2055484048,
				"element": "H" 
			},
			{
				"x": 1.2031536025,
				"y": 2.2132247123,
				"z": 5.545151431,
				"element": "H" 
			},
			{
				"x": -1.1370729077,
				"y": 1.9996914725,
				"z": 6.3213871342,
				"element": "H" 
			},
			{
				"x": -2.9126508704,
				"y": 1.2112562345,
				"z": 4.7763171673,
				"element": "H" 
			},
			{
				"x": -4.3800705583,
				"y": 0.3672908183,
				"z": 2.7782550963,
				"element": "H" 
			},
			{
				"x": -5.3284426133,
				"y": -0.4215024406,
				"z": 0.6230075477,
				"element": "H" 
			},
			{
				"x": -3.8698752792,
				"y": -0.7325693111,
				"z": -1.3520770064,
				"element": "H" 
			},
			{
				"x": -1.4349417783,
				"y": -0.2653852282,
				"z": -1.2087546747,
				"element": "H" 
			}
		],
		 "valence_orbital": [ 
			{
				"type": "occ",
				"energy": -0.26895,
				"method": "rhf"
			},
			{
				"type": "occ",
				"energy": -0.26441,
				"method": "rhf"
			},
			{
				"type": "occ",
				"energy": -0.25545,
				"method": "rhf"
			},
			{
				"type": "occ",
				"energy": -0.2488,
				"method": "rhf"
			},
			{
				"type": "occ",
				"energy": -0.22013,
				"method": "rhf"
			},
			{
				"type": "unocc",
				"energy": -0.03567,
				"method": "rhf"
			},
			{
				"type": "unocc",
				"energy": -0.03218,
				"method": "rhf"
			},
			{
				"type": "unocc",
				"energy": -0.02421,
				"method": "rhf"
			},
			{
				"type": "unocc",
				"energy": -0.01788,
				"method": "rhf"
			},
			{
				"type": "unocc",
				"energy": -0.00554,
				"method": "rhf"
			}
		],
		"cosmo_sigma_profile": { 
			"-0.025": 0.0,
			"-0.024": 0.0,
			"-0.023": 0.0,
			"-0.022": 0.0,
			"-0.021": 0.0,
			"-0.02": 0.0,
			"-0.019": 0.0,
			"-0.018": 0.0,
			"-0.017": 0.0,
			"-0.016": 0.0,
			"-0.015": 0.0,
			"-0.014": 0.0,
			"-0.013": 0.0,
			"-0.012": 0.0,
			"-0.011": 0.0,
			"-0.01": 0.0,
			"-0.009": 0.0,
			"-0.008": 0.267110793003,
			"-0.007": 3.27495645217,
			"-0.006": 18.2304278614,
			"-0.005": 29.0603565078,
			"-0.004": 43.3599802442,
			"-0.003": 35.1523176245,
			"-0.002": 23.4988673236,
			"-0.001": 26.538786071,
			"0.0": 22.1162988636,
			"0.001": 28.7236083781,
			"0.002": 65.5608410914,
			"0.003": 34.4290364088,
			"0.004": 20.7525941372,
			"0.005": 21.2751478747,
			"0.006": 11.8393707908,
			"0.007": 3.52223154543,
			"0.008": 2.34697996533,
			"0.009": 2.00252136496,
			"0.01": 3.62133399745,
			"0.011": 0.631814630657,
			"0.012": 0.0,
			"0.013": 0.0,
			"0.014": 0.0,
			"0.015": 0.0,
			"0.016": 0.0,
			"0.017": 0.0,
			"0.018": 0.0,
			"0.019": 0.0,
			"0.02": 0.0,
			"0.021": 0.0,
			"0.022": 0.0,
			"0.023": 0.0,
			"0.024": 0.0,
			"0.025": 0.0
		}
	}
}
