{
	 "smiles": "CCC1(C)NC(=O)N(CC(O)=O)C1=O", 
	 "Tm": 430.15, 
	 "num_atms": 26, 
	 "gaussian": { 
		 "optdone": 1, 
		 "sigma_profile": "yes", 
		 "theory": "DFT", 
		 "functional": "B3LYP", 
		 "basiset": "6-31G**", 
		 "properties": { 
			 "R2extent": 4438.8637, 
			 "electric_dipole_moment_norm": 4.0894999083, 
			 "electric_quadrupole_moment_norm": 18.2503341347, 
			 "total_energy": -722.547123765, 
			 "HOMO_LUMO_gap": 0.25137, 
			 "cosmo_polarized_energy": -19.22, 
			 "cosmo_cavitation_energy": 29.89, 
			 "cosmo_dispersion_energy": -20.55, 
			 "cosmo_repulsion_energy": 1.65, 
			 "cosmo_total_nonelectrostatic_energy": 10.99, 
			 "SMD_solvation_energy": 7.57 
		},
		"coords": [
			{
				"x": -1.6908271456,
				"y": -1.1731939965,
				"z": -1.0158432932,
				"element": "C" 
			},
			{
				"x": -0.2633810814,
				"y": -0.7387862979,
				"z": -0.6664521853,
				"element": "C" 
			},
			{
				"x": -0.1452498325,
				"y": 0.4401309877,
				"z": 0.3356135064,
				"element": "C" 
			},
			{
				"x": -0.9076339652,
				"y": 1.6921221979,
				"z": -0.1221628304,
				"element": "C" 
			},
			{
				"x": 1.2638936844,
				"y": 0.7339171194,
				"z": 0.6118935935,
				"element": "N" 
			},
			{
				"x": 1.6562593736,
				"y": 0.4408723105,
				"z": 1.8871235023,
				"element": "C" 
			},
			{
				"x": 2.7621730729,
				"y": 0.5092473983,
				"z": 2.3857183556,
				"element": "O" 
			},
			{
				"x": 0.4839636581,
				"y": 0.0153707326,
				"z": 2.5608841717,
				"element": "N" 
			},
			{
				"x": 0.4505932272,
				"y": -0.2533325411,
				"z": 3.9772818745,
				"element": "C" 
			},
			{
				"x": -0.1105690638,
				"y": 0.8719401557,
				"z": 4.83970462,
				"element": "C" 
			},
			{
				"x": -0.2140046108,
				"y": 2.0441093862,
				"z": 4.1799839708,
				"element": "O" 
			},
			{
				"x": -0.4028355439,
				"y": 0.7261184146,
				"z": 6.0030697,
				"element": "O" 
			},
			{
				"x": -0.6247070619,
				"y": 0.0214686687,
				"z": 1.7406183237,
				"element": "C" 
			},
			{
				"x": -1.7599751525,
				"y": -0.2549725303,
				"z": 2.0787140826,
				"element": "O" 
			},
			{
				"x": -2.2616989132,
				"y": -1.4153762834,
				"z": -0.1164535063,
				"element": "H" 
			},
			{
				"x": -1.6632112739,
				"y": -2.0591954899,
				"z": -1.6575351011,
				"element": "H" 
			},
			{
				"x": -2.2307947556,
				"y": -0.3914775297,
				"z": -1.5583897067,
				"element": "H" 
			},
			{
				"x": 0.2946387564,
				"y": -1.587055661,
				"z": -0.2518591799,
				"element": "H" 
			},
			{
				"x": 0.2671472954,
				"y": -0.4385395721,
				"z": -1.5805014638,
				"element": "H" 
			},
			{
				"x": -0.5904951597,
				"y": 1.987530608,
				"z": -1.1279718918,
				"element": "H" 
			},
			{
				"x": -0.7142350415,
				"y": 2.52288593,
				"z": 0.5613168284,
				"element": "H" 
			},
			{
				"x": -1.9821287881,
				"y": 1.4978344827,
				"z": -0.1355008798,
				"element": "H" 
			},
			{
				"x": 1.954539267,
				"y": 0.9146540058,
				"z": -0.1002298069,
				"element": "H" 
			},
			{
				"x": -0.1479648384,
				"y": -1.1443452414,
				"z": 4.1783852393,
				"element": "H" 
			},
			{
				"x": 1.4796202665,
				"y": -0.438431763,
				"z": 4.2996313035,
				"element": "H" 
			},
			{
				"x": -0.5652163735,
				"y": 2.6847045083,
				"z": 4.8213607729,
				"element": "H" 
			}
		],
		 "valence_orbital": [ 
			{
				"type": "occ",
				"energy": -0.30328,
				"method": "rhf"
			},
			{
				"type": "occ",
				"energy": -0.28996,
				"method": "rhf"
			},
			{
				"type": "occ",
				"energy": -0.27417,
				"method": "rhf"
			},
			{
				"type": "occ",
				"energy": -0.26669,
				"method": "rhf"
			},
			{
				"type": "occ",
				"energy": -0.26355,
				"method": "rhf"
			},
			{
				"type": "unocc",
				"energy": -0.01218,
				"method": "rhf"
			},
			{
				"type": "unocc",
				"energy": 0.00272,
				"method": "rhf"
			},
			{
				"type": "unocc",
				"energy": 0.05279,
				"method": "rhf"
			},
			{
				"type": "unocc",
				"energy": 0.06613,
				"method": "rhf"
			},
			{
				"type": "unocc",
				"energy": 0.07248,
				"method": "rhf"
			}
		],
		"cosmo_sigma_profile": { 
			"-0.025": 0.0,
			"-0.024": 0.0,
			"-0.023": 0.0,
			"-0.022": 0.0,
			"-0.021": 0.0,
			"-0.02": 0.0,
			"-0.019": 0.398287715582,
			"-0.018": 1.03223087033,
			"-0.017": 0.854236656967,
			"-0.016": 1.01220333084,
			"-0.015": 2.16458955487,
			"-0.014": 1.48838325388,
			"-0.013": 1.95745127846,
			"-0.012": 1.80147706174,
			"-0.011": 2.12484363192,
			"-0.01": 1.7169266786,
			"-0.009": 2.34368082622,
			"-0.008": 4.9867310372,
			"-0.007": 5.45571301209,
			"-0.006": 7.58676477219,
			"-0.005": 10.9399762057,
			"-0.004": 16.0482780113,
			"-0.003": 20.5662447829,
			"-0.002": 22.2150862524,
			"-0.001": 21.658063504,
			"0.0": 16.9658953035,
			"0.001": 12.8416042458,
			"0.002": 8.85696801918,
			"0.003": 8.21517263097,
			"0.004": 7.95243860165,
			"0.005": 5.5266180646,
			"0.006": 4.79962701287,
			"0.007": 3.9286915657,
			"0.008": 4.18700784222,
			"0.009": 4.59133259638,
			"0.01": 6.05458298701,
			"0.011": 10.3554833636,
			"0.012": 9.86083143771,
			"0.013": 3.55729285819,
			"0.014": 0.332849527557,
			"0.015": 0.0,
			"0.016": 0.0,
			"0.017": 0.0,
			"0.018": 0.0,
			"0.019": 0.0,
			"0.02": 0.0,
			"0.021": 0.0,
			"0.022": 0.0,
			"0.023": 0.0,
			"0.024": 0.0,
			"0.025": 0.0
		}
	}
}
