{
	 "smiles": "CCOC(=O)C1=C(C)N=C(S1)N(C)C", 
	 "Tm": 313.15, 
	 "num_atms": 28, 
	 "gaussian": { 
		 "optdone": 1, 
		 "sigma_profile": "yes", 
		 "theory": "DFT", 
		 "functional": "B3LYP", 
		 "basiset": "6-31G**", 
		 "properties": { 
			 "R2extent": 4262.722, 
			 "electric_dipole_moment_norm": 2.79328358746, 
			 "electric_quadrupole_moment_norm": 22.4432796157, 
			 "total_energy": -1009.55174824, 
			 "HOMO_LUMO_gap": 0.16851, 
			 "cosmo_polarized_energy": -11.06, 
			 "cosmo_cavitation_energy": 32.63, 
			 "cosmo_dispersion_energy": -23.88, 
			 "cosmo_repulsion_energy": 1.87, 
			 "cosmo_total_nonelectrostatic_energy": 10.62, 
			 "SMD_solvation_energy": 5.31 
		},
		"coords": [
			{
				"x": -1.2988833314,
				"y": 2.2410215498,
				"z": -4.7071791626,
				"element": "C" 
			},
			{
				"x": -0.3633668407,
				"y": 1.0547566778,
				"z": -4.5248524719,
				"element": "C" 
			},
			{
				"x": -0.4919026342,
				"y": 0.4758910385,
				"z": -3.206210478,
				"element": "O" 
			},
			{
				"x": 0.2417936281,
				"y": 1.06310819,
				"z": -2.2229564711,
				"element": "C" 
			},
			{
				"x": 0.9809294043,
				"y": 2.0177221834,
				"z": -2.4116976684,
				"element": "O" 
			},
			{
				"x": 0.0517417177,
				"y": 0.4268441656,
				"z": -0.928166758,
				"element": "C" 
			},
			{
				"x": -0.7234897064,
				"y": -0.6396386922,
				"z": -0.5110894413,
				"element": "C" 
			},
			{
				"x": -1.6316018815,
				"y": -1.4739756624,
				"z": -1.3705923677,
				"element": "C" 
			},
			{
				"x": -0.6402202327,
				"y": -0.9480263117,
				"z": 0.8188562074,
				"element": "N" 
			},
			{
				"x": 0.2012591846,
				"y": -0.1478428065,
				"z": 1.4477604767,
				"element": "C" 
			},
			{
				"x": 0.9432227735,
				"y": 1.0922320758,
				"z": 0.4381835649,
				"element": "S" 
			},
			{
				"x": 0.5011869503,
				"y": -0.267124311,
				"z": 2.7696572981,
				"element": "N" 
			},
			{
				"x": -0.3019589518,
				"y": -1.1586145493,
				"z": 3.5997486073,
				"element": "C" 
			},
			{
				"x": 1.2989558359,
				"y": 0.7467699411,
				"z": 3.4371537506,
				"element": "C" 
			},
			{
				"x": -2.3359061799,
				"y": 1.9543731744,
				"z": -4.5078951001,
				"element": "H" 
			},
			{
				"x": -1.2360545845,
				"y": 2.6103637866,
				"z": -5.7364768567,
				"element": "H" 
			},
			{
				"x": -1.0194417012,
				"y": 3.0538539795,
				"z": -4.0328098337,
				"element": "H" 
			},
			{
				"x": 0.676993838,
				"y": 1.3488791968,
				"z": -4.6820714371,
				"element": "H" 
			},
			{
				"x": -0.6167942532,
				"y": 0.2376508156,
				"z": -5.205158864,
				"element": "H" 
			},
			{
				"x": -2.1424046206,
				"y": -2.2053690981,
				"z": -0.7423691737,
				"element": "H" 
			},
			{
				"x": -2.3702224735,
				"y": -0.8542871115,
				"z": -1.8856438335,
				"element": "H" 
			},
			{
				"x": -1.0667095559,
				"y": -1.9983709939,
				"z": -2.1470709501,
				"element": "H" 
			},
			{
				"x": -0.7141997666,
				"y": -1.9468428552,
				"z": 2.9721462212,
				"element": "H" 
			},
			{
				"x": 0.33282334,
				"y": -1.5977541516,
				"z": 4.3751756394,
				"element": "H" 
			},
			{
				"x": -1.1315450136,
				"y": -0.6240607198,
				"z": 4.0838494967,
				"element": "H" 
			},
			{
				"x": 0.7293847372,
				"y": 1.665666867,
				"z": 3.6401079364,
				"element": "H" 
			},
			{
				"x": 1.6591060138,
				"y": 0.344515195,
				"z": 4.3867760329,
				"element": "H" 
			},
			{
				"x": 2.1715043042,
				"y": 1.0060584265,
				"z": 2.8296256362,
				"element": "H" 
			}
		],
		 "valence_orbital": [ 
			{
				"type": "occ",
				"energy": -0.28415,
				"method": "rhf"
			},
			{
				"type": "occ",
				"energy": -0.2824,
				"method": "rhf"
			},
			{
				"type": "occ",
				"energy": -0.26821,
				"method": "rhf"
			},
			{
				"type": "occ",
				"energy": -0.25288,
				"method": "rhf"
			},
			{
				"type": "occ",
				"energy": -0.2013,
				"method": "rhf"
			},
			{
				"type": "unocc",
				"energy": -0.03279,
				"method": "rhf"
			},
			{
				"type": "unocc",
				"energy": 0.02156,
				"method": "rhf"
			},
			{
				"type": "unocc",
				"energy": 0.0398,
				"method": "rhf"
			},
			{
				"type": "unocc",
				"energy": 0.08515,
				"method": "rhf"
			},
			{
				"type": "unocc",
				"energy": 0.09734,
				"method": "rhf"
			}
		],
		"cosmo_sigma_profile": { 
			"-0.025": 0.0,
			"-0.024": 0.0,
			"-0.023": 0.0,
			"-0.022": 0.0,
			"-0.021": 0.0,
			"-0.02": 0.0,
			"-0.019": 0.0,
			"-0.018": 0.0,
			"-0.017": 0.0,
			"-0.016": 0.0,
			"-0.015": 0.0,
			"-0.014": 0.0,
			"-0.013": 0.0,
			"-0.012": 0.0,
			"-0.011": 0.0,
			"-0.01": 0.0,
			"-0.009": 0.0,
			"-0.008": 0.0,
			"-0.007": 2.00558954828,
			"-0.006": 7.09808180932,
			"-0.005": 15.7207431258,
			"-0.004": 28.9818817607,
			"-0.003": 33.6735306589,
			"-0.002": 26.9131074005,
			"-0.001": 21.7579854804,
			"0.0": 25.7501031119,
			"0.001": 20.0001962909,
			"0.002": 17.1047607091,
			"0.003": 14.7401731192,
			"0.004": 12.3862754679,
			"0.005": 6.6595096033,
			"0.006": 3.89556985653,
			"0.007": 3.79588560992,
			"0.008": 3.01611807992,
			"0.009": 2.27121370394,
			"0.01": 3.31743614625,
			"0.011": 3.85810444921,
			"0.012": 3.60034443851,
			"0.013": 2.72620278155,
			"0.014": 0.0,
			"0.015": 0.0,
			"0.016": 0.0,
			"0.017": 0.0,
			"0.018": 0.0,
			"0.019": 0.0,
			"0.02": 0.0,
			"0.021": 0.0,
			"0.022": 0.0,
			"0.023": 0.0,
			"0.024": 0.0,
			"0.025": 0.0
		}
	}
}
