{
	 "smiles": "CCOC1=C(C=O)C=C2OC(C)CC2=C1", 
	 "Tm": 349.15, 
	 "num_atms": 29, 
	 "gaussian": { 
		 "optdone": 1, 
		 "sigma_profile": "yes", 
		 "theory": "DFT", 
		 "functional": "B3LYP", 
		 "basiset": "6-31G**", 
		 "properties": { 
			 "R2extent": 4104.6867, 
			 "electric_dipole_moment_norm": 6.46424282496, 
			 "electric_quadrupole_moment_norm": 20.019327478, 
			 "total_energy": -691.372316053, 
			 "HOMO_LUMO_gap": 0.15024, 
			 "cosmo_polarized_energy": -12.42, 
			 "cosmo_cavitation_energy": 31.97, 
			 "cosmo_dispersion_energy": -23.26, 
			 "cosmo_repulsion_energy": 1.85, 
			 "cosmo_total_nonelectrostatic_energy": 10.56, 
			 "SMD_solvation_energy": 6.75 
		},
		"coords": [
			{
				"x": -0.555397783,
				"y": -3.4352964071,
				"z": -1.9160840064,
				"element": "C" 
			},
			{
				"x": -1.6926927151,
				"y": -2.8791683225,
				"z": -1.065511081,
				"element": "C" 
			},
			{
				"x": -1.2840176829,
				"y": -2.5772489917,
				"z": 0.2710712262,
				"element": "O" 
			},
			{
				"x": -0.6177688847,
				"y": -1.4168409722,
				"z": 0.5486041833,
				"element": "C" 
			},
			{
				"x": -0.2145934321,
				"y": -1.2381432673,
				"z": 1.8945652415,
				"element": "C" 
			},
			{
				"x": -0.4893144451,
				"y": -2.2688603622,
				"z": 2.919932411,
				"element": "C" 
			},
			{
				"x": -0.1595332411,
				"y": -2.1606353887,
				"z": 4.0903502107,
				"element": "O" 
			},
			{
				"x": 0.4653027771,
				"y": -0.0709602376,
				"z": 2.2878031104,
				"element": "C" 
			},
			{
				"x": 0.7267736046,
				"y": 0.8944526443,
				"z": 1.3337898785,
				"element": "C" 
			},
			{
				"x": 1.3675552877,
				"y": 2.0818530137,
				"z": 1.5602673198,
				"element": "O" 
			},
			{
				"x": 1.6569405808,
				"y": 2.6815867912,
				"z": 0.2643380545,
				"element": "C" 
			},
			{
				"x": 1.4887906603,
				"y": 4.1857778596,
				"z": 0.373211528,
				"element": "C" 
			},
			{
				"x": 0.7216342519,
				"y": 1.9733097532,
				"z": -0.752040773,
				"element": "C" 
			},
			{
				"x": 0.3316368933,
				"y": 0.7257285026,
				"z": 0.002741314,
				"element": "C" 
			},
			{
				"x": -0.339741895,
				"y": -0.4204851823,
				"z": -0.4040686464,
				"element": "C" 
			},
			{
				"x": 0.2475708133,
				"y": -2.7054509231,
				"z": -2.0495406052,
				"element": "H" 
			},
			{
				"x": -0.1311398983,
				"y": -4.3258706602,
				"z": -1.444058453,
				"element": "H" 
			},
			{
				"x": -0.9315459712,
				"y": -3.7154895907,
				"z": -2.905720349,
				"element": "H" 
			},
			{
				"x": -2.1557140192,
				"y": -1.9994089907,
				"z": -1.5299070125,
				"element": "H" 
			},
			{
				"x": -2.4763759156,
				"y": -3.6318364475,
				"z": -0.9428104929,
				"element": "H" 
			},
			{
				"x": -1.0231368654,
				"y": -3.1678865291,
				"z": 2.5620476866,
				"element": "H" 
			},
			{
				"x": 0.7628598305,
				"y": 0.0351348201,
				"z": 3.3248655235,
				"element": "H" 
			},
			{
				"x": 2.7023233075,
				"y": 2.4348875161,
				"z": 0.0308238206,
				"element": "H" 
			},
			{
				"x": 2.1363309359,
				"y": 4.5907417156,
				"z": 1.1556532863,
				"element": "H" 
			},
			{
				"x": 1.7520706155,
				"y": 4.6670377354,
				"z": -0.5744958892,
				"element": "H" 
			},
			{
				"x": 0.4522967557,
				"y": 4.4387931474,
				"z": 0.6170149361,
				"element": "H" 
			},
			{
				"x": 1.2273781092,
				"y": 1.7750160911,
				"z": -1.7020724864,
				"element": "H" 
			},
			{
				"x": -0.1619244594,
				"y": 2.5884322447,
				"z": -0.9728161074,
				"element": "H" 
			},
			{
				"x": -0.6369672151,
				"y": -0.5343695624,
				"z": -1.4396538284,
				"element": "H" 
			}
		],
		 "valence_orbital": [ 
			{
				"type": "occ",
				"energy": -0.32456,
				"method": "rhf"
			},
			{
				"type": "occ",
				"energy": -0.28569,
				"method": "rhf"
			},
			{
				"type": "occ",
				"energy": -0.25398,
				"method": "rhf"
			},
			{
				"type": "occ",
				"energy": -0.23716,
				"method": "rhf"
			},
			{
				"type": "occ",
				"energy": -0.20237,
				"method": "rhf"
			},
			{
				"type": "unocc",
				"energy": -0.05213,
				"method": "rhf"
			},
			{
				"type": "unocc",
				"energy": 0.01039,
				"method": "rhf"
			},
			{
				"type": "unocc",
				"energy": 0.05118,
				"method": "rhf"
			},
			{
				"type": "unocc",
				"energy": 0.0828,
				"method": "rhf"
			},
			{
				"type": "unocc",
				"energy": 0.08707,
				"method": "rhf"
			}
		],
		"cosmo_sigma_profile": { 
			"-0.025": 0.0,
			"-0.024": 0.0,
			"-0.023": 0.0,
			"-0.022": 0.0,
			"-0.021": 0.0,
			"-0.02": 0.0,
			"-0.019": 0.0,
			"-0.018": 0.0,
			"-0.017": 0.0,
			"-0.016": 0.0,
			"-0.015": 0.0,
			"-0.014": 0.0,
			"-0.013": 0.0,
			"-0.012": 0.0,
			"-0.011": 0.0,
			"-0.01": 0.0,
			"-0.009": 0.0,
			"-0.008": 0.722254865376,
			"-0.007": 2.27076588456,
			"-0.006": 5.83459063334,
			"-0.005": 18.8514555756,
			"-0.004": 33.1098501238,
			"-0.003": 29.0717969183,
			"-0.002": 26.7981474775,
			"-0.001": 20.9832774656,
			"0.0": 20.8840403143,
			"0.001": 16.0055800864,
			"0.002": 15.4481640615,
			"0.003": 18.1206048672,
			"0.004": 9.16408068292,
			"0.005": 5.69449729186,
			"0.006": 5.1148412167,
			"0.007": 3.00701813327,
			"0.008": 3.27544916183,
			"0.009": 3.07905326655,
			"0.01": 3.30079726117,
			"0.011": 4.63806119276,
			"0.012": 4.93917258277,
			"0.013": 1.96087697021,
			"0.014": 0.363861377402,
			"0.015": 0.0,
			"0.016": 0.0,
			"0.017": 0.0,
			"0.018": 0.0,
			"0.019": 0.0,
			"0.02": 0.0,
			"0.021": 0.0,
			"0.022": 0.0,
			"0.023": 0.0,
			"0.024": 0.0,
			"0.025": 0.0
		}
	}
}
