{
	 "smiles": "OCCCCCCCCCCCCCCO", 
	 "Tm": 358.95, 
	 "num_atms": 46, 
	 "gaussian": { 
		 "optdone": 1, 
		 "sigma_profile": "yes", 
		 "theory": "DFT", 
		 "functional": "B3LYP", 
		 "basiset": "6-31G**", 
		 "properties": { 
			 "R2extent": 5676.0903, 
			 "electric_dipole_moment_norm": 2.29023541366, 
			 "electric_quadrupole_moment_norm": 12.9191560676, 
			 "total_energy": -702.033156581, 
			 "HOMO_LUMO_gap": 0.29297, 
			 "cosmo_polarized_energy": -9.03, 
			 "cosmo_cavitation_energy": 43.11, 
			 "cosmo_dispersion_energy": -27.94, 
			 "cosmo_repulsion_energy": 2.19, 
			 "cosmo_total_nonelectrostatic_energy": 17.36, 
			 "SMD_solvation_energy": 5.21 
		},
		"coords": [
			{
				"x": -1.25878368,
				"y": -0.3021037619,
				"z": 3.7007087783,
				"element": "O" 
			},
			{
				"x": -0.3629359772,
				"y": 0.7105255051,
				"z": 4.1291603278,
				"element": "C" 
			},
			{
				"x": 0.6046427758,
				"y": 1.1656743703,
				"z": 3.0288429039,
				"element": "C" 
			},
			{
				"x": 1.547358411,
				"y": 0.0486206664,
				"z": 2.5496510839,
				"element": "C" 
			},
			{
				"x": 2.1843077812,
				"y": 0.2999373853,
				"z": 1.1730453817,
				"element": "C" 
			},
			{
				"x": 3.0939957685,
				"y": 1.5389325874,
				"z": 1.0856798067,
				"element": "C" 
			},
			{
				"x": 3.4981232279,
				"y": 1.9404343789,
				"z": -0.3552238339,
				"element": "C" 
			},
			{
				"x": 2.662480262,
				"y": 3.0925696687,
				"z": -0.9511832444,
				"element": "C" 
			},
			{
				"x": 1.1620301461,
				"y": 2.7969206951,
				"z": -1.1323050843,
				"element": "C" 
			},
			{
				"x": 0.8333780242,
				"y": 1.9212060326,
				"z": -2.362476127,
				"element": "C" 
			},
			{
				"x": -0.3904789493,
				"y": 0.998452178,
				"z": -2.2012498087,
				"element": "C" 
			},
			{
				"x": -1.6538229322,
				"y": 1.6831330439,
				"z": -1.6594704609,
				"element": "C" 
			},
			{
				"x": -2.9052138242,
				"y": 0.7874713203,
				"z": -1.6000674318,
				"element": "C" 
			},
			{
				"x": -2.7413800902,
				"y": -0.5592091014,
				"z": -0.8697872507,
				"element": "C" 
			},
			{
				"x": -2.153719159,
				"y": -0.4858849899,
				"z": 0.5385924357,
				"element": "C" 
			},
			{
				"x": -2.866871934,
				"y": 0.3992320071,
				"z": 1.4166995973,
				"element": "O" 
			},
			{
				"x": -1.8559941827,
				"y": 0.0838097058,
				"z": 3.0345816801,
				"element": "H" 
			},
			{
				"x": -0.9078074551,
				"y": 1.5852568581,
				"z": 4.5207639576,
				"element": "H" 
			},
			{
				"x": 0.2010842136,
				"y": 0.2850404636,
				"z": 4.9687990897,
				"element": "H" 
			},
			{
				"x": 0.0059783327,
				"y": 1.5378637375,
				"z": 2.1840773978,
				"element": "H" 
			},
			{
				"x": 1.1762580876,
				"y": 2.0271952812,
				"z": 3.398166553,
				"element": "H" 
			},
			{
				"x": 2.332525078,
				"y": -0.1109312153,
				"z": 3.3023977616,
				"element": "H" 
			},
			{
				"x": 0.9693331253,
				"y": -0.8818433675,
				"z": 2.5055030993,
				"element": "H" 
			},
			{
				"x": 1.3798483594,
				"y": 0.3838962339,
				"z": 0.4313212579,
				"element": "H" 
			},
			{
				"x": 2.7664277637,
				"y": -0.5832175756,
				"z": 0.876119782,
				"element": "H" 
			},
			{
				"x": 2.6037979905,
				"y": 2.3959179562,
				"z": 1.5653361751,
				"element": "H" 
			},
			{
				"x": 3.9945523218,
				"y": 1.3437862305,
				"z": 1.6823157547,
				"element": "H" 
			},
			{
				"x": 3.4503786534,
				"y": 1.0589351011,
				"z": -1.0095983196,
				"element": "H" 
			},
			{
				"x": 4.5486088375,
				"y": 2.2556619995,
				"z": -0.3642162487,
				"element": "H" 
			},
			{
				"x": 3.0917298296,
				"y": 3.3883278922,
				"z": -1.9186312314,
				"element": "H" 
			},
			{
				"x": 2.7753028626,
				"y": 3.964557283,
				"z": -0.2929329273,
				"element": "H" 
			},
			{
				"x": 0.6172365529,
				"y": 3.7452844922,
				"z": -1.2126784182,
				"element": "H" 
			},
			{
				"x": 0.7836593091,
				"y": 2.3253019142,
				"z": -0.2189737911,
				"element": "H" 
			},
			{
				"x": 1.6976821356,
				"y": 1.2906315919,
				"z": -2.6078270479,
				"element": "H" 
			},
			{
				"x": 0.6880469968,
				"y": 2.5758661837,
				"z": -3.232269589,
				"element": "H" 
			},
			{
				"x": -0.6139585394,
				"y": 0.5315351508,
				"z": -3.170824074,
				"element": "H" 
			},
			{
				"x": -0.1114478973,
				"y": 0.1742376445,
				"z": -1.5316358897,
				"element": "H" 
			},
			{
				"x": -1.454953144,
				"y": 2.076244877,
				"z": -0.6556289706,
				"element": "H" 
			},
			{
				"x": -1.8883907806,
				"y": 2.5579667796,
				"z": -2.2812020021,
				"element": "H" 
			},
			{
				"x": -3.2511630043,
				"y": 0.574651518,
				"z": -2.6202240535,
				"element": "H" 
			},
			{
				"x": -3.7084305804,
				"y": 1.3562897748,
				"z": -1.1168846188,
				"element": "H" 
			},
			{
				"x": -3.7209298848,
				"y": -1.0572159768,
				"z": -0.8259234788,
				"element": "H" 
			},
			{
				"x": -2.0970449516,
				"y": -1.2308557345,
				"z": -1.4520416349,
				"element": "H" 
			},
			{
				"x": -1.1362209979,
				"y": -0.0898691786,
				"z": 0.5133310624,
				"element": "H" 
			},
			{
				"x": -2.0948438214,
				"y": -1.4921780197,
				"z": 0.9761191281,
				"element": "H" 
			},
			{
				"x": -3.7654750616,
				"y": 0.0580404129,
				"z": 1.5212425226,
				"element": "H" 
			}
		],
		 "valence_orbital": [ 
			{
				"type": "occ",
				"energy": -0.29944,
				"method": "rhf"
			},
			{
				"type": "occ",
				"energy": -0.29711,
				"method": "rhf"
			},
			{
				"type": "occ",
				"energy": -0.2904,
				"method": "rhf"
			},
			{
				"type": "occ",
				"energy": -0.27916,
				"method": "rhf"
			},
			{
				"type": "occ",
				"energy": -0.24263,
				"method": "rhf"
			},
			{
				"type": "unocc",
				"energy": 0.05034,
				"method": "rhf"
			},
			{
				"type": "unocc",
				"energy": 0.06831,
				"method": "rhf"
			},
			{
				"type": "unocc",
				"energy": 0.08814,
				"method": "rhf"
			},
			{
				"type": "unocc",
				"energy": 0.09703,
				"method": "rhf"
			},
			{
				"type": "unocc",
				"energy": 0.11007,
				"method": "rhf"
			}
		],
		"cosmo_sigma_profile": { 
			"-0.025": 0.0,
			"-0.024": 0.0,
			"-0.023": 0.0,
			"-0.022": 0.0,
			"-0.021": 0.0,
			"-0.02": 0.0,
			"-0.019": 0.0,
			"-0.018": 0.0,
			"-0.017": 0.00995761194803,
			"-0.016": 0.706444974441,
			"-0.015": 0.902528355885,
			"-0.014": 1.14517723133,
			"-0.013": 0.856754532987,
			"-0.012": 0.827929268555,
			"-0.011": 1.14716703144,
			"-0.01": 0.569706502627,
			"-0.009": 0.515130902865,
			"-0.008": 1.35024625721,
			"-0.007": 1.37277622726,
			"-0.006": 1.44788806744,
			"-0.005": 1.2034068327,
			"-0.004": 4.89761939401,
			"-0.003": 16.8048029938,
			"-0.002": 47.1430107239,
			"-0.001": 67.0298114092,
			"0.0": 74.2635560635,
			"0.001": 53.6596228121,
			"0.002": 22.4043730172,
			"0.003": 3.85027866974,
			"0.004": 3.77440476134,
			"0.005": 3.10740619411,
			"0.006": 1.87614158615,
			"0.007": 2.3618556894,
			"0.008": 2.40273253925,
			"0.009": 2.57191793737,
			"0.01": 1.91588335207,
			"0.011": 1.30187736975,
			"0.012": 1.84855454341,
			"0.013": 1.58998897128,
			"0.014": 1.28060523096,
			"0.015": 1.52369785656,
			"0.016": 1.41167409534,
			"0.017": 0.0,
			"0.018": 0.0,
			"0.019": 0.0,
			"0.02": 0.0,
			"0.021": 0.0,
			"0.022": 0.0,
			"0.023": 0.0,
			"0.024": 0.0,
			"0.025": 0.0
		}
	}
}
