{
	 "smiles": "[O-][N+](=O)C1=CC=C(C=C1)C1NN2C(COC3=CC=CC=C3)=NN=C2S1", 
	 "Tm": 457.15, 
	 "num_atms": 38, 
	 "gaussian": { 
		 "optdone": 1, 
		 "sigma_profile": "yes", 
		 "theory": "DFT", 
		 "functional": "B3LYP", 
		 "basiset": "6-31G**", 
		 "properties": { 
			 "R2extent": 10260.9329, 
			 "electric_dipole_moment_norm": 3.25129118505, 
			 "electric_quadrupole_moment_norm": 49.2941015192, 
			 "total_energy": -1514.95717971, 
			 "HOMO_LUMO_gap": 0.13176, 
			 "cosmo_polarized_energy": -27.19, 
			 "cosmo_cavitation_energy": 45.76, 
			 "cosmo_dispersion_energy": -30.53, 
			 "cosmo_repulsion_energy": 2.23, 
			 "cosmo_total_nonelectrostatic_energy": 17.47, 
			 "SMD_solvation_energy": 6.67 
		},
		"coords": [
			{
				"x": 0.4563811633,
				"y": 1.5001044763,
				"z": -6.4105004056,
				"element": "O" 
			},
			{
				"x": 0.4719401667,
				"y": 0.4388959453,
				"z": -5.7902083715,
				"element": "N" 
			},
			{
				"x": 0.7850484744,
				"y": -0.6515248589,
				"z": -6.2640062874,
				"element": "O" 
			},
			{
				"x": 0.0872252056,
				"y": 0.4767667145,
				"z": -4.3663423915,
				"element": "C" 
			},
			{
				"x": -0.2751788667,
				"y": 1.6953159205,
				"z": -3.799540462,
				"element": "C" 
			},
			{
				"x": -0.6381227226,
				"y": 1.7249817211,
				"z": -2.4547251259,
				"element": "C" 
			},
			{
				"x": -0.6415631098,
				"y": 0.5477743932,
				"z": -1.6940064769,
				"element": "C" 
			},
			{
				"x": -0.2691285432,
				"y": -0.6653327033,
				"z": -2.2932742868,
				"element": "C" 
			},
			{
				"x": 0.0984420432,
				"y": -0.7086712098,
				"z": -3.6344899435,
				"element": "C" 
			},
			{
				"x": -0.9729335736,
				"y": 0.5373607628,
				"z": -0.2231077816,
				"element": "C" 
			},
			{
				"x": 0.2199929694,
				"y": 0.7599650182,
				"z": 0.5995840231,
				"element": "N" 
			},
			{
				"x": -0.291047813,
				"y": 1.1231824019,
				"z": 1.8571545573,
				"element": "N" 
			},
			{
				"x": 0.1442501712,
				"y": 1.035275008,
				"z": 3.1570813007,
				"element": "C" 
			},
			{
				"x": 1.3829287989,
				"y": 0.3319743178,
				"z": 3.6143249172,
				"element": "C" 
			},
			{
				"x": 1.1692388853,
				"y": -1.0694152187,
				"z": 3.8309602298,
				"element": "O" 
			},
			{
				"x": 1.0494444798,
				"y": -1.8703765321,
				"z": 2.7117417732,
				"element": "C" 
			},
			{
				"x": -0.1716096627,
				"y": -2.5117940324,
				"z": 2.4865567555,
				"element": "C" 
			},
			{
				"x": -0.3059932404,
				"y": -3.3809318607,
				"z": 1.4018278718,
				"element": "C" 
			},
			{
				"x": 0.7711336506,
				"y": -3.6042134137,
				"z": 0.5394299589,
				"element": "C" 
			},
			{
				"x": 1.9899840715,
				"y": -2.9610584471,
				"z": 0.7743361753,
				"element": "C" 
			},
			{
				"x": 2.1354187825,
				"y": -2.0977200554,
				"z": 1.86025927,
				"element": "C" 
			},
			{
				"x": -0.760833133,
				"y": 1.5932061087,
				"z": 3.9342193285,
				"element": "N" 
			},
			{
				"x": -1.828204206,
				"y": 2.0286104494,
				"z": 3.1525307291,
				"element": "N" 
			},
			{
				"x": -1.5154986685,
				"y": 1.7342192109,
				"z": 1.9174546498,
				"element": "C" 
			},
			{
				"x": -2.2678059966,
				"y": 1.8394812174,
				"z": 0.3253504632,
				"element": "S" 
			},
			{
				"x": -0.2717492975,
				"y": 2.5900573262,
				"z": -4.4091802251,
				"element": "H" 
			},
			{
				"x": -0.9325567006,
				"y": 2.6645188908,
				"z": -1.9985007448,
				"element": "H" 
			},
			{
				"x": -0.2551490536,
				"y": -1.5743727543,
				"z": -1.6992977244,
				"element": "H" 
			},
			{
				"x": 0.3886286926,
				"y": -1.632470892,
				"z": -4.1187878074,
				"element": "H" 
			},
			{
				"x": -1.3943758613,
				"y": -0.4249233044,
				"z": 0.0745257575,
				"element": "H" 
			},
			{
				"x": 0.7327656987,
				"y": 1.5660331486,
				"z": 0.230685881,
				"element": "H" 
			},
			{
				"x": 1.6624534645,
				"y": 0.7392123377,
				"z": 4.5866770031,
				"element": "H" 
			},
			{
				"x": 2.2045939069,
				"y": 0.4945550592,
				"z": 2.9063538507,
				"element": "H" 
			},
			{
				"x": -0.9915959923,
				"y": -2.3293303496,
				"z": 3.1735660761,
				"element": "H" 
			},
			{
				"x": -1.251594377,
				"y": -3.8898394885,
				"z": 1.2364680828,
				"element": "H" 
			},
			{
				"x": 0.6689743843,
				"y": -4.2908513943,
				"z": -0.2960048742,
				"element": "H" 
			},
			{
				"x": 2.8365712312,
				"y": -3.1438461403,
				"z": 0.1185795778,
				"element": "H" 
			},
			{
				"x": 3.0877245781,
				"y": -1.6159177731,
				"z": 2.060404676,
				"element": "H" 
			}
		],
		 "valence_orbital": [ 
			{
				"type": "occ",
				"energy": -0.28642,
				"method": "rhf"
			},
			{
				"type": "occ",
				"energy": -0.26596,
				"method": "rhf"
			},
			{
				"type": "occ",
				"energy": -0.26342,
				"method": "rhf"
			},
			{
				"type": "occ",
				"energy": -0.2508,
				"method": "rhf"
			},
			{
				"type": "occ",
				"energy": -0.24019,
				"method": "rhf"
			},
			{
				"type": "unocc",
				"energy": -0.10843,
				"method": "rhf"
			},
			{
				"type": "unocc",
				"energy": -0.05199,
				"method": "rhf"
			},
			{
				"type": "unocc",
				"energy": -0.03637,
				"method": "rhf"
			},
			{
				"type": "unocc",
				"energy": -0.01899,
				"method": "rhf"
			},
			{
				"type": "unocc",
				"energy": -0.01713,
				"method": "rhf"
			}
		],
		"cosmo_sigma_profile": { 
			"-0.025": 0.0,
			"-0.024": 0.0,
			"-0.023": 0.0,
			"-0.022": 0.0,
			"-0.021": 0.0,
			"-0.02": 0.0,
			"-0.019": 0.0,
			"-0.018": 0.0,
			"-0.017": 0.0,
			"-0.016": 0.0670337111401,
			"-0.015": 0.884687157038,
			"-0.014": 1.27074165702,
			"-0.013": 1.69311387667,
			"-0.012": 1.62864260574,
			"-0.011": 2.38841066647,
			"-0.01": 1.39255359254,
			"-0.009": 1.9064690027,
			"-0.008": 7.3369069682,
			"-0.007": 16.5667056493,
			"-0.006": 23.1903498833,
			"-0.005": 24.6474431271,
			"-0.004": 25.4836559235,
			"-0.003": 25.4238578773,
			"-0.002": 27.0351774999,
			"-0.001": 30.5324583786,
			"0.0": 30.0231876179,
			"0.001": 21.9940372939,
			"0.002": 15.5015667713,
			"0.003": 15.7440208171,
			"0.004": 15.33341798,
			"0.005": 15.304321759,
			"0.006": 9.48364786419,
			"0.007": 13.0937730573,
			"0.008": 10.3620429412,
			"0.009": 8.61985796741,
			"0.01": 5.12075798091,
			"0.011": 4.0470090429,
			"0.012": 2.60994827347,
			"0.013": 3.75791601998,
			"0.014": 2.60581281747,
			"0.015": 2.88276999641,
			"0.016": 1.60908179256,
			"0.017": 0.0725248444677,
			"0.018": 0.0,
			"0.019": 0.0,
			"0.02": 0.0,
			"0.021": 0.0,
			"0.022": 0.0,
			"0.023": 0.0,
			"0.024": 0.0,
			"0.025": 0.0
		}
	}
}
