{
	 "smiles": "CC1CC2C3CC(F)C4=CC(=O)C=CC4(C)C3(F)C(O)CC2(C)C1C(=O)CO", 
	 "Tm": 515.15, 
	 "num_atms": 56, 
	 "gaussian": { 
		 "optdone": 1, 
		 "sigma_profile": "yes", 
		 "theory": "DFT", 
		 "functional": "B3LYP", 
		 "basiset": "6-31G**", 
		 "properties": { 
			 "R2extent": 9859.1172, 
			 "electric_dipole_moment_norm": 3.34694835634, 
			 "electric_quadrupole_moment_norm": 38.17741755, 
			 "total_energy": -1355.74313542, 
			 "HOMO_LUMO_gap": 0.17171, 
			 "cosmo_polarized_energy": -21.22, 
			 "cosmo_cavitation_energy": 49.56, 
			 "cosmo_dispersion_energy": -33.43, 
			 "cosmo_repulsion_energy": 2.4, 
			 "cosmo_total_nonelectrostatic_energy": 18.53, 
			 "SMD_solvation_energy": 9.39 
		},
		"coords": [
			{
				"x": 2.244224943,
				"y": -2.9546123407,
				"z": 2.0793506385,
				"element": "C" 
			},
			{
				"x": 1.5981854299,
				"y": -1.7836604098,
				"z": 1.3293222411,
				"element": "C" 
			},
			{
				"x": 1.8481002205,
				"y": -1.8560694142,
				"z": -0.1885967433,
				"element": "C" 
			},
			{
				"x": 0.8120930178,
				"y": -0.9023864376,
				"z": -0.8143807347,
				"element": "C" 
			},
			{
				"x": 1.3789344593,
				"y": 0.5519667969,
				"z": -0.831874739,
				"element": "C" 
			},
			{
				"x": 2.367597674,
				"y": 0.7621369554,
				"z": -1.9897272993,
				"element": "C" 
			},
			{
				"x": 1.675899911,
				"y": 0.6856653326,
				"z": -3.3570161619,
				"element": "C" 
			},
			{
				"x": 2.3178839991,
				"y": 1.5851867178,
				"z": -4.2289404003,
				"element": "F" 
			},
			{
				"x": 0.2024156562,
				"y": 1.0330133441,
				"z": -3.2861837866,
				"element": "C" 
			},
			{
				"x": -0.6698057127,
				"y": 0.4373360122,
				"z": -4.1183152142,
				"element": "C" 
			},
			{
				"x": -2.115473121,
				"y": 0.7470070512,
				"z": -4.1320887522,
				"element": "C" 
			},
			{
				"x": -2.8902269198,
				"y": 0.1922891295,
				"z": -4.9056204536,
				"element": "O" 
			},
			{
				"x": -2.5580664389,
				"y": 1.7694974428,
				"z": -3.1633340736,
				"element": "C" 
			},
			{
				"x": -1.7005444665,
				"y": 2.3492763353,
				"z": -2.3101638393,
				"element": "C" 
			},
			{
				"x": -0.2109417587,
				"y": 2.093557497,
				"z": -2.2827212023,
				"element": "C" 
			},
			{
				"x": 0.4276272641,
				"y": 3.4528503773,
				"z": -2.7357727331,
				"element": "C" 
			},
			{
				"x": 0.3327131046,
				"y": 1.6884558435,
				"z": -0.8307996939,
				"element": "C" 
			},
			{
				"x": 1.0315114282,
				"y": 2.8293495173,
				"z": -0.3286325584,
				"element": "F" 
			},
			{
				"x": -0.7305062638,
				"y": 1.4133241295,
				"z": 0.2535177201,
				"element": "C" 
			},
			{
				"x": -0.0921315409,
				"y": 1.4141987445,
				"z": 1.5258202119,
				"element": "O" 
			},
			{
				"x": -1.4186972432,
				"y": 0.0697241243,
				"z": 0.0630842708,
				"element": "C" 
			},
			{
				"x": -0.4859513264,
				"y": -1.1607464605,
				"z": 0.029567785,
				"element": "C" 
			},
			{
				"x": -1.2933121012,
				"y": -2.3041264813,
				"z": -0.6289596736,
				"element": "C" 
			},
			{
				"x": 0.052946214,
				"y": -1.7120937801,
				"z": 1.4340901099,
				"element": "C" 
			},
			{
				"x": -0.5527406567,
				"y": -1.0924188557,
				"z": 2.6870092407,
				"element": "C" 
			},
			{
				"x": -1.7675367544,
				"y": -1.0603079868,
				"z": 2.8375115673,
				"element": "O" 
			},
			{
				"x": 0.3118923974,
				"y": -0.5841005912,
				"z": 3.8372318161,
				"element": "C" 
			},
			{
				"x": -0.480913783,
				"y": -0.0723907856,
				"z": 4.8700776692,
				"element": "O" 
			},
			{
				"x": 3.3279110881,
				"y": -2.967397395,
				"z": 1.9202853505,
				"element": "H" 
			},
			{
				"x": 2.0742873704,
				"y": -2.908973773,
				"z": 3.1589760389,
				"element": "H" 
			},
			{
				"x": 1.8451358801,
				"y": -3.9110763744,
				"z": 1.721113364,
				"element": "H" 
			},
			{
				"x": 2.0268166163,
				"y": -0.8464754753,
				"z": 1.7053298028,
				"element": "H" 
			},
			{
				"x": 1.6721960588,
				"y": -2.8812939139,
				"z": -0.537205722,
				"element": "H" 
			},
			{
				"x": 2.882679877,
				"y": -1.6098543141,
				"z": -0.4501983078,
				"element": "H" 
			},
			{
				"x": 0.5983263008,
				"y": -1.1956607761,
				"z": -1.8469646347,
				"element": "H" 
			},
			{
				"x": 1.9194935638,
				"y": 0.7061583331,
				"z": 0.105756086,
				"element": "H" 
			},
			{
				"x": 2.8160745246,
				"y": 1.7551784191,
				"z": -1.8962057315,
				"element": "H" 
			},
			{
				"x": 3.1906572874,
				"y": 0.0434803057,
				"z": -1.9437109113,
				"element": "H" 
			},
			{
				"x": 1.7833671753,
				"y": -0.3050191508,
				"z": -3.8108393528,
				"element": "H" 
			},
			{
				"x": -0.3414083018,
				"y": -0.3091901077,
				"z": -4.8378072907,
				"element": "H" 
			},
			{
				"x": -3.6124720705,
				"y": 2.0291396344,
				"z": -3.1820062778,
				"element": "H" 
			},
			{
				"x": -2.0613526691,
				"y": 3.1234071385,
				"z": -1.6365804287,
				"element": "H" 
			},
			{
				"x": 0.0478887157,
				"y": 3.6981729535,
				"z": -3.7303592279,
				"element": "H" 
			},
			{
				"x": 1.5131597164,
				"y": 3.397407826,
				"z": -2.7921637438,
				"element": "H" 
			},
			{
				"x": 0.1528993807,
				"y": 4.2488929763,
				"z": -2.0422126383,
				"element": "H" 
			},
			{
				"x": -1.4833207178,
				"y": 2.2125646238,
				"z": 0.2287269823,
				"element": "H" 
			},
			{
				"x": 0.4145280687,
				"y": 2.2364126735,
				"z": 1.5825609114,
				"element": "H" 
			},
			{
				"x": -2.1726915229,
				"y": -0.0563057037,
				"z": 0.8428549473,
				"element": "H" 
			},
			{
				"x": -1.9585517172,
				"y": 0.1105667514,
				"z": -0.8878165819,
				"element": "H" 
			},
			{
				"x": -1.6375643974,
				"y": -2.0218019584,
				"z": -1.6296966379,
				"element": "H" 
			},
			{
				"x": -0.697942576,
				"y": -3.2183902342,
				"z": -0.7238728018,
				"element": "H" 
			},
			{
				"x": -2.1733419018,
				"y": -2.5413938357,
				"z": -0.0220360517,
				"element": "H" 
			},
			{
				"x": -0.3092255254,
				"y": -2.7481904398,
				"z": 1.4989370919,
				"element": "H" 
			},
			{
				"x": 0.9979310486,
				"y": 0.1783836478,
				"z": 3.4452940273,
				"element": "H" 
			},
			{
				"x": 0.9335415375,
				"y": -1.4204289994,
				"z": 4.1976991226,
				"element": "H" 
			},
			{
				"x": -1.3968004422,
				"y": -0.2097346394,
				"z": 4.5654874042,
				"element": "H" 
			}
		],
		 "valence_orbital": [ 
			{
				"type": "occ",
				"energy": -0.28487,
				"method": "rhf"
			},
			{
				"type": "occ",
				"energy": -0.27536,
				"method": "rhf"
			},
			{
				"type": "occ",
				"energy": -0.25896,
				"method": "rhf"
			},
			{
				"type": "occ",
				"energy": -0.25791,
				"method": "rhf"
			},
			{
				"type": "occ",
				"energy": -0.25034,
				"method": "rhf"
			},
			{
				"type": "unocc",
				"energy": -0.07863,
				"method": "rhf"
			},
			{
				"type": "unocc",
				"energy": -0.02303,
				"method": "rhf"
			},
			{
				"type": "unocc",
				"energy": -0.02212,
				"method": "rhf"
			},
			{
				"type": "unocc",
				"energy": 0.05311,
				"method": "rhf"
			},
			{
				"type": "unocc",
				"energy": 0.06217,
				"method": "rhf"
			}
		],
		"cosmo_sigma_profile": { 
			"-0.025": 0.0,
			"-0.024": 0.0,
			"-0.023": 0.0,
			"-0.022": 0.0,
			"-0.021": 0.0,
			"-0.02": 0.0,
			"-0.019": 0.0,
			"-0.018": 0.0,
			"-0.017": 0.0,
			"-0.016": 0.0,
			"-0.015": 0.0,
			"-0.014": 0.119606305589,
			"-0.013": 0.757332420163,
			"-0.012": 0.44856908221,
			"-0.011": 0.49247270665,
			"-0.01": 0.725939098015,
			"-0.009": 1.65957365794,
			"-0.008": 3.76354187055,
			"-0.007": 10.0403135553,
			"-0.006": 15.5596359103,
			"-0.005": 21.9375551532,
			"-0.004": 36.5403431495,
			"-0.003": 39.2425143293,
			"-0.002": 42.6055623099,
			"-0.001": 43.8909344288,
			"0.0": 37.8722354587,
			"0.001": 26.1459334805,
			"0.002": 12.5892550604,
			"0.003": 9.97568123075,
			"0.004": 9.74503869423,
			"0.005": 11.0688201109,
			"0.006": 13.1015745887,
			"0.007": 7.30190557558,
			"0.008": 5.62536562385,
			"0.009": 4.72841649106,
			"0.01": 6.00177602815,
			"0.011": 5.73089910141,
			"0.012": 6.01746957703,
			"0.013": 5.94661194375,
			"0.014": 4.62134882997,
			"0.015": 0.774796743719,
			"0.016": 0.0,
			"0.017": 0.0,
			"0.018": 0.0,
			"0.019": 0.0,
			"0.02": 0.0,
			"0.021": 0.0,
			"0.022": 0.0,
			"0.023": 0.0,
			"0.024": 0.0,
			"0.025": 0.0
		}
	}
}
