{
	 "smiles": "OCC1=CC=C(C=C1)N1C=CC=C1", 
	 "Tm": 377.15, 
	 "num_atms": 24, 
	 "gaussian": { 
		 "optdone": 1, 
		 "sigma_profile": "yes", 
		 "theory": "DFT", 
		 "functional": "B3LYP", 
		 "basiset": "6-31G**", 
		 "properties": { 
			 "R2extent": 3597.7873, 
			 "electric_dipole_moment_norm": 1.19583558234, 
			 "electric_quadrupole_moment_norm": 12.5202823111, 
			 "total_energy": -555.745438997, 
			 "HOMO_LUMO_gap": 0.1889, 
			 "cosmo_polarized_energy": -10.18, 
			 "cosmo_cavitation_energy": 27.51, 
			 "cosmo_dispersion_energy": -20.37, 
			 "cosmo_repulsion_energy": 1.58, 
			 "cosmo_total_nonelectrostatic_energy": 8.72, 
			 "SMD_solvation_energy": 5.35 
		},
		"coords": [
			{
				"x": -0.6905423206,
				"y": 3.852272782,
				"z": -0.0140804893,
				"element": "O" 
			},
			{
				"x": 0.0974005779,
				"y": 3.1270975222,
				"z": 0.9373744106,
				"element": "C" 
			},
			{
				"x": 0.4757274223,
				"y": 1.7470708299,
				"z": 0.4602045926,
				"element": "C" 
			},
			{
				"x": -0.3587244686,
				"y": 0.6461601114,
				"z": 0.6903344297,
				"element": "C" 
			},
			{
				"x": -0.0467905335,
				"y": -0.6189688782,
				"z": 0.2012281111,
				"element": "C" 
			},
			{
				"x": 1.1227084349,
				"y": -0.8256128639,
				"z": -0.5478732866,
				"element": "C" 
			},
			{
				"x": 1.9632005537,
				"y": 0.2735796016,
				"z": -0.7865812609,
				"element": "C" 
			},
			{
				"x": 1.6382391399,
				"y": 1.5327899448,
				"z": -0.2907903057,
				"element": "C" 
			},
			{
				"x": 1.4479180311,
				"y": -2.1100863303,
				"z": -1.0467490397,
				"element": "N" 
			},
			{
				"x": 0.6934122234,
				"y": -3.2661137048,
				"z": -0.8861530682,
				"element": "C" 
			},
			{
				"x": 1.337083745,
				"y": -4.302438224,
				"z": -1.5121895147,
				"element": "C" 
			},
			{
				"x": 2.5346017046,
				"y": -3.7773170754,
				"z": -2.0835302836,
				"element": "C" 
			},
			{
				"x": 2.5779077789,
				"y": -2.4395373669,
				"z": -1.7857803001,
				"element": "C" 
			},
			{
				"x": -0.8151540227,
				"y": 3.2816631101,
				"z": -0.7817738786,
				"element": "H" 
			},
			{
				"x": 1.0041046806,
				"y": 3.7092287209,
				"z": 1.1510829558,
				"element": "H" 
			},
			{
				"x": -0.4713522798,
				"y": 3.0546001888,
				"z": 1.8743661238,
				"element": "H" 
			},
			{
				"x": -1.2690890861,
				"y": 0.7768126565,
				"z": 1.2698816148,
				"element": "H" 
			},
			{
				"x": -0.7198569436,
				"y": -1.4403162381,
				"z": 0.4131436247,
				"element": "H" 
			},
			{
				"x": 2.8765871154,
				"y": 0.1575191472,
				"z": -1.3564478189,
				"element": "H" 
			},
			{
				"x": 2.3085943972,
				"y": 2.3654376272,
				"z": -0.4883294839,
				"element": "H" 
			},
			{
				"x": -0.2369338395,
				"y": -3.2617164951,
				"z": -0.3438910199,
				"element": "H" 
			},
			{
				"x": 0.9888081085,
				"y": -5.3247700896,
				"z": -1.5562252644,
				"element": "H" 
			},
			{
				"x": 3.2790091527,
				"y": -4.3207043905,
				"z": -2.6483158056,
				"element": "H" 
			},
			{
				"x": 3.3205404282,
				"y": -1.7022505858,
				"z": -2.0397050428,
				"element": "H" 
			}
		],
		 "valence_orbital": [ 
			{
				"type": "occ",
				"energy": -0.28494,
				"method": "rhf"
			},
			{
				"type": "occ",
				"energy": -0.2684,
				"method": "rhf"
			},
			{
				"type": "occ",
				"energy": -0.26014,
				"method": "rhf"
			},
			{
				"type": "occ",
				"energy": -0.21941,
				"method": "rhf"
			},
			{
				"type": "occ",
				"energy": -0.21639,
				"method": "rhf"
			},
			{
				"type": "unocc",
				"energy": -0.02749,
				"method": "rhf"
			},
			{
				"type": "unocc",
				"energy": -0.01564,
				"method": "rhf"
			},
			{
				"type": "unocc",
				"energy": 0.04577,
				"method": "rhf"
			},
			{
				"type": "unocc",
				"energy": 0.07904,
				"method": "rhf"
			},
			{
				"type": "unocc",
				"energy": 0.08346,
				"method": "rhf"
			}
		],
		"cosmo_sigma_profile": { 
			"-0.025": 0.0,
			"-0.024": 0.0,
			"-0.023": 0.0,
			"-0.022": 0.0,
			"-0.021": 0.0,
			"-0.02": 0.0,
			"-0.019": 0.0,
			"-0.018": 0.0,
			"-0.017": 0.0,
			"-0.016": 0.0,
			"-0.015": 0.0948741291485,
			"-0.014": 0.534063153593,
			"-0.013": 1.18526079893,
			"-0.012": 0.208375734331,
			"-0.011": 0.336139520155,
			"-0.01": 1.76066002739,
			"-0.009": 3.98794723008,
			"-0.008": 4.90736520015,
			"-0.007": 4.7543472946,
			"-0.006": 9.93047637144,
			"-0.005": 16.3713240473,
			"-0.004": 17.7403177715,
			"-0.003": 15.7257470614,
			"-0.002": 16.8613123819,
			"-0.001": 13.7948801599,
			"0.0": 13.8087939185,
			"0.001": 12.0045614732,
			"0.002": 16.9869552784,
			"0.003": 13.8527984854,
			"0.004": 15.8780179623,
			"0.005": 9.86577690979,
			"0.006": 6.4981472191,
			"0.007": 7.18994266461,
			"0.008": 4.97898420128,
			"0.009": 1.15784366916,
			"0.01": 1.20695031683,
			"0.011": 1.38458186174,
			"0.012": 1.22514929704,
			"0.013": 1.82415078727,
			"0.014": 2.27023415791,
			"0.015": 1.3952872768,
			"0.016": 0.0,
			"0.017": 0.0,
			"0.018": 0.0,
			"0.019": 0.0,
			"0.02": 0.0,
			"0.021": 0.0,
			"0.022": 0.0,
			"0.023": 0.0,
			"0.024": 0.0,
			"0.025": 0.0
		}
	}
}
