{
	 "smiles": "COC1=C(C=C(N)C=N1)C(N)=O", 
	 "Tm": 418.15, 
	 "num_atms": 21, 
	 "gaussian": { 
		 "optdone": 1, 
		 "sigma_profile": "yes", 
		 "theory": "DFT", 
		 "functional": "B3LYP", 
		 "basiset": "6-31G**", 
		 "properties": { 
			 "R2extent": 2322.8034, 
			 "electric_dipole_moment_norm": 4.02781004641, 
			 "electric_quadrupole_moment_norm": 15.6757576091, 
			 "total_energy": -586.874326017, 
			 "HOMO_LUMO_gap": 0.1662, 
			 "cosmo_polarized_energy": -21.25, 
			 "cosmo_cavitation_energy": 25.73, 
			 "cosmo_dispersion_energy": -18.87, 
			 "cosmo_repulsion_energy": 1.55, 
			 "cosmo_total_nonelectrostatic_energy": 8.41, 
			 "SMD_solvation_energy": 5.25 
		},
		"coords": [
			{
				"x": 3.0232083922,
				"y": -1.3026363414,
				"z": 1.1016995324,
				"element": "C" 
			},
			{
				"x": 2.3864334269,
				"y": -0.5432453312,
				"z": 0.0745305476,
				"element": "O" 
			},
			{
				"x": 1.0429216457,
				"y": -0.6406076584,
				"z": -0.0170160407,
				"element": "C" 
			},
			{
				"x": 0.3906618027,
				"y": 0.1131127121,
				"z": -1.0233539625,
				"element": "C" 
			},
			{
				"x": -0.9877117371,
				"y": -0.0392587786,
				"z": -1.1436540541,
				"element": "C" 
			},
			{
				"x": -1.6957092912,
				"y": -0.8905419582,
				"z": -0.2785758354,
				"element": "C" 
			},
			{
				"x": -3.0764649817,
				"y": -1.0924152177,
				"z": -0.4139679784,
				"element": "N" 
			},
			{
				"x": -0.9397166157,
				"y": -1.5677714159,
				"z": 0.6822307974,
				"element": "C" 
			},
			{
				"x": 0.3892031996,
				"y": -1.4538586772,
				"z": 0.8016231698,
				"element": "N" 
			},
			{
				"x": 1.1330965772,
				"y": 1.0888105014,
				"z": -1.8960176023,
				"element": "C" 
			},
			{
				"x": 0.7602633885,
				"y": 1.0533455293,
				"z": -3.2237411818,
				"element": "N" 
			},
			{
				"x": 1.9474191788,
				"y": 1.8905108865,
				"z": -1.4692403631,
				"element": "O" 
			},
			{
				"x": 2.8543344946,
				"y": -2.3756668902,
				"z": 0.9670479629,
				"element": "H" 
			},
			{
				"x": 4.0855344146,
				"y": -1.0712775812,
				"z": 1.0129026134,
				"element": "H" 
			},
			{
				"x": 2.6546842207,
				"y": -1.016982245,
				"z": 2.0915692245,
				"element": "H" 
			},
			{
				"x": -1.5203477931,
				"y": 0.5291059721,
				"z": -1.901975454,
				"element": "H" 
			},
			{
				"x": -3.5806161611,
				"y": -0.2903460337,
				"z": -0.7696199098,
				"element": "H" 
			},
			{
				"x": -3.5231112927,
				"y": -1.4523580074,
				"z": 0.4198074764,
				"element": "H" 
			},
			{
				"x": -1.4294560317,
				"y": -2.2376600588,
				"z": 1.3891513027,
				"element": "H" 
			},
			{
				"x": 1.3125430144,
				"y": 1.6271238576,
				"z": -3.845804916,
				"element": "H" 
			},
			{
				"x": 0.3589301483,
				"y": 0.2118167358,
				"z": -3.6088953291,
				"element": "H" 
			}
		],
		 "valence_orbital": [ 
			{
				"type": "occ",
				"energy": -0.27695,
				"method": "rhf"
			},
			{
				"type": "occ",
				"energy": -0.26808,
				"method": "rhf"
			},
			{
				"type": "occ",
				"energy": -0.2653,
				"method": "rhf"
			},
			{
				"type": "occ",
				"energy": -0.24084,
				"method": "rhf"
			},
			{
				"type": "occ",
				"energy": -0.20009,
				"method": "rhf"
			},
			{
				"type": "unocc",
				"energy": -0.03389,
				"method": "rhf"
			},
			{
				"type": "unocc",
				"energy": 0.00789,
				"method": "rhf"
			},
			{
				"type": "unocc",
				"energy": 0.04835,
				"method": "rhf"
			},
			{
				"type": "unocc",
				"energy": 0.07329,
				"method": "rhf"
			},
			{
				"type": "unocc",
				"energy": 0.09007,
				"method": "rhf"
			}
		],
		"cosmo_sigma_profile": { 
			"-0.025": 0.0,
			"-0.024": 0.0,
			"-0.023": 0.0,
			"-0.022": 0.0,
			"-0.021": 0.0,
			"-0.02": 0.0,
			"-0.019": 0.0,
			"-0.018": 0.0,
			"-0.017": 0.0,
			"-0.016": 0.0,
			"-0.015": 0.0257689026874,
			"-0.014": 1.12041943967,
			"-0.013": 3.24799660829,
			"-0.012": 5.56242299134,
			"-0.011": 5.05178795794,
			"-0.01": 6.03447351395,
			"-0.009": 5.6500029806,
			"-0.008": 6.08351052322,
			"-0.007": 6.07492528934,
			"-0.006": 7.42244611888,
			"-0.005": 9.25758327748,
			"-0.004": 11.9213029479,
			"-0.003": 12.5356970791,
			"-0.002": 11.3979733747,
			"-0.001": 8.92507042018,
			"0.0": 9.96624471627,
			"0.001": 12.6472849413,
			"0.002": 13.3635138622,
			"0.003": 10.2053153983,
			"0.004": 5.90595328968,
			"0.005": 7.21322286785,
			"0.006": 4.90883767302,
			"0.007": 4.30021296336,
			"0.008": 5.19468924398,
			"0.009": 4.01974901465,
			"0.01": 3.19619546568,
			"0.011": 3.1011941907,
			"0.012": 3.9815922578,
			"0.013": 6.95622788641,
			"0.014": 5.30564375846,
			"0.015": 2.46235634904,
			"0.016": 0.520424872017,
			"0.017": 0.0,
			"0.018": 0.0,
			"0.019": 0.0,
			"0.02": 0.0,
			"0.021": 0.0,
			"0.022": 0.0,
			"0.023": 0.0,
			"0.024": 0.0,
			"0.025": 0.0
		}
	}
}
