{
	 "smiles": "CN1CCC(CC1)=C1C2=CC=CC=C2C=CC2=CC=CC=C12", 
	 "Tm": 385.15, 
	 "num_atms": 43, 
	 "gaussian": { 
		 "optdone": 1, 
		 "sigma_profile": "yes", 
		 "theory": "DFT", 
		 "functional": "B3LYP", 
		 "basiset": "6-31G**", 
		 "properties": { 
			 "R2extent": 6514.6817, 
			 "electric_dipole_moment_norm": 0.670417101512, 
			 "electric_quadrupole_moment_norm": 11.2210151983, 
			 "total_energy": -867.622057027, 
			 "HOMO_LUMO_gap": 0.15219, 
			 "cosmo_polarized_energy": -7.96, 
			 "cosmo_cavitation_energy": 42.8, 
			 "cosmo_dispersion_energy": -29.5, 
			 "cosmo_repulsion_energy": 2.23, 
			 "cosmo_total_nonelectrostatic_energy": 15.54, 
			 "SMD_solvation_energy": 3.54 
		},
		"coords": [
			{
				"x": -2.0342436366,
				"y": 2.6782635867,
				"z": 3.7135360675,
				"element": "C" 
			},
			{
				"x": -2.4933020627,
				"y": 1.7491710547,
				"z": 2.6893452652,
				"element": "N" 
			},
			{
				"x": -1.9705645546,
				"y": 0.3926938384,
				"z": 2.8371468786,
				"element": "C" 
			},
			{
				"x": -0.4882792315,
				"y": 0.2263032841,
				"z": 2.4067034957,
				"element": "C" 
			},
			{
				"x": -0.2858342877,
				"y": 0.7397441737,
				"z": 0.9963419411,
				"element": "C" 
			},
			{
				"x": -0.8285219832,
				"y": 2.1427519468,
				"z": 0.8207015284,
				"element": "C" 
			},
			{
				"x": -2.2956884918,
				"y": 2.2240199727,
				"z": 1.3217330727,
				"element": "C" 
			},
			{
				"x": 0.2200905205,
				"y": -0.0065168273,
				"z": -0.0139144866,
				"element": "C" 
			},
			{
				"x": 0.6962077756,
				"y": -1.4090753991,
				"z": 0.1754183208,
				"element": "C" 
			},
			{
				"x": 1.7865048311,
				"y": -1.6856652912,
				"z": 1.0146186646,
				"element": "C" 
			},
			{
				"x": 2.2014742445,
				"y": -2.9928192855,
				"z": 1.2605153187,
				"element": "C" 
			},
			{
				"x": 1.5202998999,
				"y": -4.0585277116,
				"z": 0.665965441,
				"element": "C" 
			},
			{
				"x": 0.4510753199,
				"y": -3.8007520303,
				"z": -0.1841582798,
				"element": "C" 
			},
			{
				"x": 0.0381978846,
				"y": -2.4844425538,
				"z": -0.4710881784,
				"element": "C" 
			},
			{
				"x": -1.0452115822,
				"y": -2.2961594207,
				"z": -1.4365553113,
				"element": "C" 
			},
			{
				"x": -1.2295983919,
				"y": -1.2642387367,
				"z": -2.2905711394,
				"element": "C" 
			},
			{
				"x": -0.3917162487,
				"y": -0.0771237793,
				"z": -2.4638851687,
				"element": "C" 
			},
			{
				"x": -0.317665436,
				"y": 0.5022095123,
				"z": -3.7462121522,
				"element": "C" 
			},
			{
				"x": 0.5123888407,
				"y": 1.586210357,
				"z": -4.0076452911,
				"element": "C" 
			},
			{
				"x": 1.2886435869,
				"y": 2.1248580221,
				"z": -2.9778481413,
				"element": "C" 
			},
			{
				"x": 1.2035704518,
				"y": 1.5862158036,
				"z": -1.695673374,
				"element": "C" 
			},
			{
				"x": 0.354890614,
				"y": 0.5055996265,
				"z": -1.4101424832,
				"element": "C" 
			},
			{
				"x": -2.3037226309,
				"y": 2.2887010116,
				"z": 4.7010982253,
				"element": "H" 
			},
			{
				"x": -2.544125843,
				"y": 3.6389334969,
				"z": 3.5839504542,
				"element": "H" 
			},
			{
				"x": -0.9472150993,
				"y": 2.8777895308,
				"z": 3.7206885241,
				"element": "H" 
			},
			{
				"x": -2.585941252,
				"y": -0.2755683493,
				"z": 2.220189804,
				"element": "H" 
			},
			{
				"x": -2.0944329957,
				"y": 0.0770346806,
				"z": 3.8792855813,
				"element": "H" 
			},
			{
				"x": -0.198379373,
				"y": -0.8217782524,
				"z": 2.5044925725,
				"element": "H" 
			},
			{
				"x": 0.1467716179,
				"y": 0.799365503,
				"z": 3.0982427007,
				"element": "H" 
			},
			{
				"x": -0.7827080607,
				"y": 2.4704887991,
				"z": -0.2197292468,
				"element": "H" 
			},
			{
				"x": -0.2165322144,
				"y": 2.846035972,
				"z": 1.4044691288,
				"element": "H" 
			},
			{
				"x": -2.6585611629,
				"y": 3.2555652831,
				"z": 1.249074119,
				"element": "H" 
			},
			{
				"x": -2.9211700394,
				"y": 1.6123344587,
				"z": 0.6580043448,
				"element": "H" 
			},
			{
				"x": 2.3009989671,
				"y": -0.8547856802,
				"z": 1.4886525581,
				"element": "H" 
			},
			{
				"x": 3.0431053607,
				"y": -3.1796396548,
				"z": 1.9213931745,
				"element": "H" 
			},
			{
				"x": 1.8257253587,
				"y": -5.082525395,
				"z": 0.860689986,
				"element": "H" 
			},
			{
				"x": -0.0724675109,
				"y": -4.6268580419,
				"z": -0.6590149245,
				"element": "H" 
			},
			{
				"x": -1.7175672673,
				"y": -3.1460628853,
				"z": -1.5437163548,
				"element": "H" 
			},
			{
				"x": -2.0354165114,
				"y": -1.3673538771,
				"z": -3.0157647189,
				"element": "H" 
			},
			{
				"x": -0.9124573752,
				"y": 0.0718870581,
				"z": -4.5481380144,
				"element": "H" 
			},
			{
				"x": 0.5596362552,
				"y": 2.0061997849,
				"z": -5.0082196943,
				"element": "H" 
			},
			{
				"x": 1.9469314934,
				"y": 2.9673559984,
				"z": -3.1698316969,
				"element": "H" 
			},
			{
				"x": 1.7910102205,
				"y": 2.0129604156,
				"z": -0.8878485108,
				"element": "H" 
			}
		],
		 "valence_orbital": [ 
			{
				"type": "occ",
				"energy": -0.25411,
				"method": "rhf"
			},
			{
				"type": "occ",
				"energy": -0.2355,
				"method": "rhf"
			},
			{
				"type": "occ",
				"energy": -0.23495,
				"method": "rhf"
			},
			{
				"type": "occ",
				"energy": -0.20749,
				"method": "rhf"
			},
			{
				"type": "occ",
				"energy": -0.19128,
				"method": "rhf"
			},
			{
				"type": "unocc",
				"energy": -0.03909,
				"method": "rhf"
			},
			{
				"type": "unocc",
				"energy": -0.01444,
				"method": "rhf"
			},
			{
				"type": "unocc",
				"energy": 0.0051,
				"method": "rhf"
			},
			{
				"type": "unocc",
				"energy": 0.00994,
				"method": "rhf"
			},
			{
				"type": "unocc",
				"energy": 0.03469,
				"method": "rhf"
			}
		],
		"cosmo_sigma_profile": { 
			"-0.025": 0.0,
			"-0.024": 0.0,
			"-0.023": 0.0,
			"-0.022": 0.0,
			"-0.021": 0.0,
			"-0.02": 0.0,
			"-0.019": 0.0,
			"-0.018": 0.0,
			"-0.017": 0.0,
			"-0.016": 0.0,
			"-0.015": 0.0,
			"-0.014": 0.0,
			"-0.013": 0.0,
			"-0.012": 0.0,
			"-0.011": 0.0,
			"-0.01": 0.0,
			"-0.009": 0.0,
			"-0.008": 0.0,
			"-0.007": 0.0,
			"-0.006": 6.5317906206,
			"-0.005": 20.8461977483,
			"-0.004": 26.5555290884,
			"-0.003": 40.4641963627,
			"-0.002": 38.3831192034,
			"-0.001": 40.612153669,
			"0.0": 34.5056125603,
			"0.001": 23.5349582606,
			"0.002": 18.1514219268,
			"0.003": 22.3226216065,
			"0.004": 24.0204837882,
			"0.005": 23.5115840658,
			"0.006": 11.5212140718,
			"0.007": 1.24164273683,
			"0.008": 0.790208940674,
			"0.009": 0.99375983805,
			"0.01": 0.566926126337,
			"0.011": 0.581912758812,
			"0.012": 0.817844151219,
			"0.013": 0.428439837937,
			"0.014": 0.517252191992,
			"0.015": 0.619078143863,
			"0.016": 0.494125740122,
			"0.017": 0.109135406039,
			"0.018": 0.0,
			"0.019": 0.0,
			"0.02": 0.0,
			"0.021": 0.0,
			"0.022": 0.0,
			"0.023": 0.0,
			"0.024": 0.0,
			"0.025": 0.0
		}
	}
}
