{
	 "smiles": "CC1=CC=C(C=C1)N1C(=O)C2ON=C(C2C1=O)C(=O)C1=CC=CS1", 
	 "Tm": 433.15, 
	 "num_atms": 36, 
	 "gaussian": { 
		 "optdone": 1, 
		 "sigma_profile": "yes", 
		 "theory": "DFT", 
		 "functional": "B3LYP", 
		 "basiset": "6-31G**", 
		 "properties": { 
			 "R2extent": 10964.0976, 
			 "electric_dipole_moment_norm": 1.12906159265, 
			 "electric_quadrupole_moment_norm": 24.1595991587, 
			 "total_energy": -1463.56817232, 
			 "HOMO_LUMO_gap": 0.15076, 
			 "cosmo_polarized_energy": -19.87, 
			 "cosmo_cavitation_energy": 43.35, 
			 "cosmo_dispersion_energy": -31.2, 
			 "cosmo_repulsion_energy": 2.31, 
			 "cosmo_total_nonelectrostatic_energy": 14.47, 
			 "SMD_solvation_energy": 8.91 
		},
		"coords": [
			{
				"x": 1.7493203384,
				"y": 6.6126241202,
				"z": 0.5977013198,
				"element": "C" 
			},
			{
				"x": 1.2672073151,
				"y": 5.1929765099,
				"z": 0.7771992113,
				"element": "C" 
			},
			{
				"x": 0.0481611726,
				"y": 4.9190563446,
				"z": 1.410749914,
				"element": "C" 
			},
			{
				"x": -0.3894507495,
				"y": 3.6118546153,
				"z": 1.6111438014,
				"element": "C" 
			},
			{
				"x": 0.3960059955,
				"y": 2.5470660469,
				"z": 1.1615180224,
				"element": "C" 
			},
			{
				"x": 1.6124040392,
				"y": 2.7945572299,
				"z": 0.5192389564,
				"element": "C" 
			},
			{
				"x": 2.0368550068,
				"y": 4.108354389,
				"z": 0.3365338399,
				"element": "C" 
			},
			{
				"x": -0.0446523063,
				"y": 1.1957517917,
				"z": 1.3547319535,
				"element": "N" 
			},
			{
				"x": 0.8008598021,
				"y": 0.1650462333,
				"z": 1.792486769,
				"element": "C" 
			},
			{
				"x": 1.9680439715,
				"y": 0.2716206858,
				"z": 2.0869563086,
				"element": "O" 
			},
			{
				"x": -0.0160992358,
				"y": -1.1303764933,
				"z": 1.8174672327,
				"element": "C" 
			},
			{
				"x": 0.4440025411,
				"y": -2.0034632558,
				"z": 0.7340780369,
				"element": "O" 
			},
			{
				"x": -0.5881747425,
				"y": -2.2193655615,
				"z": -0.1531691369,
				"element": "N" 
			},
			{
				"x": -1.6405996509,
				"y": -1.5737826084,
				"z": 0.20042771,
				"element": "C" 
			},
			{
				"x": -1.4398054762,
				"y": -0.7367567061,
				"z": 1.4432194523,
				"element": "C" 
			},
			{
				"x": -1.3700155408,
				"y": 0.7717104918,
				"z": 1.1331999905,
				"element": "C" 
			},
			{
				"x": -2.2817430976,
				"y": 1.4731671757,
				"z": 0.7699190912,
				"element": "O" 
			},
			{
				"x": -2.9623549798,
				"y": -1.7144525372,
				"z": -0.4777978247,
				"element": "C" 
			},
			{
				"x": -3.952342017,
				"y": -1.3270084643,
				"z": 0.1365736818,
				"element": "O" 
			},
			{
				"x": -3.0741862855,
				"y": -2.3055527659,
				"z": -1.8182797916,
				"element": "C" 
			},
			{
				"x": -4.2833181495,
				"y": -2.4402810267,
				"z": -2.4754213843,
				"element": "C" 
			},
			{
				"x": -4.1610975696,
				"y": -3.005872832,
				"z": -3.7666056532,
				"element": "C" 
			},
			{
				"x": -2.855635118,
				"y": -3.2950535754,
				"z": -4.0848963281,
				"element": "C" 
			},
			{
				"x": -1.7591720142,
				"y": -2.8917345774,
				"z": -2.8170779206,
				"element": "S" 
			},
			{
				"x": 2.3773928617,
				"y": 6.71239725,
				"z": -0.2925037819,
				"element": "H" 
			},
			{
				"x": 0.9124041819,
				"y": 7.3108018746,
				"z": 0.5032196758,
				"element": "H" 
			},
			{
				"x": 2.3491944087,
				"y": 6.9371469663,
				"z": 1.4572388913,
				"element": "H" 
			},
			{
				"x": -0.5729534947,
				"y": 5.7414074744,
				"z": 1.7557991355,
				"element": "H" 
			},
			{
				"x": -1.3395554789,
				"y": 3.4219040443,
				"z": 2.0945563706,
				"element": "H" 
			},
			{
				"x": 2.2235007203,
				"y": 1.9694836147,
				"z": 0.1745944662,
				"element": "H" 
			},
			{
				"x": 2.9842524552,
				"y": 4.2916061167,
				"z": -0.1634297261,
				"element": "H" 
			},
			{
				"x": 0.1283786883,
				"y": -1.6632697525,
				"z": 2.759272758,
				"element": "H" 
			},
			{
				"x": -2.2204954574,
				"y": -0.9154462392,
				"z": 2.185693845,
				"element": "H" 
			},
			{
				"x": -5.2118996675,
				"y": -2.1258715509,
				"z": -2.0150938079,
				"element": "H" 
			},
			{
				"x": -4.9958898286,
				"y": -3.1894881885,
				"z": -4.4326376784,
				"element": "H" 
			},
			{
				"x": -2.4778426383,
				"y": -3.7344568398,
				"z": -4.9988074005,
				"element": "H" 
			}
		],
		 "valence_orbital": [ 
			{
				"type": "occ",
				"energy": -0.26631,
				"method": "rhf"
			},
			{
				"type": "occ",
				"energy": -0.26087,
				"method": "rhf"
			},
			{
				"type": "occ",
				"energy": -0.2575,
				"method": "rhf"
			},
			{
				"type": "occ",
				"energy": -0.24991,
				"method": "rhf"
			},
			{
				"type": "occ",
				"energy": -0.24113,
				"method": "rhf"
			},
			{
				"type": "unocc",
				"energy": -0.09037,
				"method": "rhf"
			},
			{
				"type": "unocc",
				"energy": -0.04655,
				"method": "rhf"
			},
			{
				"type": "unocc",
				"energy": -0.03388,
				"method": "rhf"
			},
			{
				"type": "unocc",
				"energy": -0.0223,
				"method": "rhf"
			},
			{
				"type": "unocc",
				"energy": -0.00869,
				"method": "rhf"
			}
		],
		"cosmo_sigma_profile": { 
			"-0.025": 0.0,
			"-0.024": 0.0,
			"-0.023": 0.0,
			"-0.022": 0.0,
			"-0.021": 0.0,
			"-0.02": 0.0,
			"-0.019": 0.0,
			"-0.018": 0.0,
			"-0.017": 0.0,
			"-0.016": 0.0,
			"-0.015": 0.0,
			"-0.014": 0.0,
			"-0.013": 0.0195561468804,
			"-0.012": 0.744888674699,
			"-0.011": 2.72940507853,
			"-0.01": 9.05735767619,
			"-0.009": 8.17418651032,
			"-0.008": 7.567732077,
			"-0.007": 10.7638065377,
			"-0.006": 16.3879369533,
			"-0.005": 22.2519775572,
			"-0.004": 24.6171177047,
			"-0.003": 21.4856196052,
			"-0.002": 20.2721637854,
			"-0.001": 21.7239789846,
			"0.0": 23.4879219236,
			"0.001": 23.1744478503,
			"0.002": 25.4522310602,
			"0.003": 23.5065019743,
			"0.004": 18.9130119143,
			"0.005": 13.9030091916,
			"0.006": 7.56880269593,
			"0.007": 9.97945366298,
			"0.008": 9.50179745133,
			"0.009": 6.86882539142,
			"0.01": 12.0752150031,
			"0.011": 9.60509434492,
			"0.012": 0.525517813323,
			"0.013": 0.0,
			"0.014": 0.0,
			"0.015": 0.0,
			"0.016": 0.0,
			"0.017": 0.0,
			"0.018": 0.0,
			"0.019": 0.0,
			"0.02": 0.0,
			"0.021": 0.0,
			"0.022": 0.0,
			"0.023": 0.0,
			"0.024": 0.0,
			"0.025": 0.0
		}
	}
}
