{
	 "smiles": "CC(N)(C(N)=O)C1=CC=CC=C1", 
	 "Tm": 388.15, 
	 "num_atms": 24, 
	 "gaussian": { 
		 "optdone": 1, 
		 "sigma_profile": "yes", 
		 "theory": "DFT", 
		 "functional": "B3LYP", 
		 "basiset": "6-31G**", 
		 "properties": { 
			 "R2extent": 2253.4578, 
			 "electric_dipole_moment_norm": 3.01887175282, 
			 "electric_quadrupole_moment_norm": 5.93414561416, 
			 "total_energy": -534.934161501, 
			 "HOMO_LUMO_gap": 0.21698, 
			 "cosmo_polarized_energy": -13.49, 
			 "cosmo_cavitation_energy": 26.61, 
			 "cosmo_dispersion_energy": -19.01, 
			 "cosmo_repulsion_energy": 1.53, 
			 "cosmo_total_nonelectrostatic_energy": 9.13, 
			 "SMD_solvation_energy": 4.84 
		},
		"coords": [
			{
				"x": 2.113749717,
				"y": 0.1827455026,
				"z": 1.8702359368,
				"element": "C" 
			},
			{
				"x": 1.2989602928,
				"y": 0.3762551906,
				"z": 0.5810590274,
				"element": "C" 
			},
			{
				"x": 1.9738991,
				"y": 1.4171646019,
				"z": -0.2225169109,
				"element": "N" 
			},
			{
				"x": 1.3433442219,
				"y": -0.944293669,
				"z": -0.2487860633,
				"element": "C" 
			},
			{
				"x": 0.3246009877,
				"y": -1.1203562921,
				"z": -1.1478526618,
				"element": "N" 
			},
			{
				"x": 2.3072859936,
				"y": -1.6974407039,
				"z": -0.2053573449,
				"element": "O" 
			},
			{
				"x": -0.1264879089,
				"y": 0.8175937777,
				"z": 0.9272890764,
				"element": "C" 
			},
			{
				"x": -1.0244267617,
				"y": -0.0939228967,
				"z": 1.5088678626,
				"element": "C" 
			},
			{
				"x": -2.3136543603,
				"y": 0.2986649667,
				"z": 1.8672822519,
				"element": "C" 
			},
			{
				"x": -2.7309829101,
				"y": 1.6145533162,
				"z": 1.6530196024,
				"element": "C" 
			},
			{
				"x": -1.845815455,
				"y": 2.5296417785,
				"z": 1.0836138725,
				"element": "C" 
			},
			{
				"x": -0.5540998113,
				"y": 2.1357530921,
				"z": 0.7251672532,
				"element": "C" 
			},
			{
				"x": 3.10541274,
				"y": -0.2069559636,
				"z": 1.6282974701,
				"element": "H" 
			},
			{
				"x": 1.6274844784,
				"y": -0.5325042688,
				"z": 2.538045331,
				"element": "H" 
			},
			{
				"x": 2.2055805064,
				"y": 1.1416812149,
				"z": 2.3857354135,
				"element": "H" 
			},
			{
				"x": 1.556763771,
				"y": 1.45978384,
				"z": -1.1511349527,
				"element": "H" 
			},
			{
				"x": 2.942900424,
				"y": 1.1367309107,
				"z": -0.3578666258,
				"element": "H" 
			},
			{
				"x": -0.5582176727,
				"y": -0.6498159766,
				"z": -1.021689344,
				"element": "H" 
			},
			{
				"x": 0.3404262978,
				"y": -1.9730509545,
				"z": -1.6883859791,
				"element": "H" 
			},
			{
				"x": -0.7118845128,
				"y": -1.1205164948,
				"z": 1.6849436359,
				"element": "H" 
			},
			{
				"x": -2.9909025676,
				"y": -0.4227704516,
				"z": 2.3158845455,
				"element": "H" 
			},
			{
				"x": -3.7350731818,
				"y": 1.9218706917,
				"z": 1.9309039549,
				"element": "H" 
			},
			{
				"x": -2.1574495145,
				"y": 3.557512364,
				"z": 0.919109075,
				"element": "H" 
			},
			{
				"x": 0.141786126,
				"y": 2.8512764236,
				"z": 0.3017355733,
				"element": "H" 
			}
		],
		 "valence_orbital": [ 
			{
				"type": "occ",
				"energy": -0.27741,
				"method": "rhf"
			},
			{
				"type": "occ",
				"energy": -0.26831,
				"method": "rhf"
			},
			{
				"type": "occ",
				"energy": -0.25329,
				"method": "rhf"
			},
			{
				"type": "occ",
				"energy": -0.25177,
				"method": "rhf"
			},
			{
				"type": "occ",
				"energy": -0.22609,
				"method": "rhf"
			},
			{
				"type": "unocc",
				"energy": -0.00911,
				"method": "rhf"
			},
			{
				"type": "unocc",
				"energy": -0.00445,
				"method": "rhf"
			},
			{
				"type": "unocc",
				"energy": 0.02366,
				"method": "rhf"
			},
			{
				"type": "unocc",
				"energy": 0.07781,
				"method": "rhf"
			},
			{
				"type": "unocc",
				"energy": 0.09653,
				"method": "rhf"
			}
		],
		"cosmo_sigma_profile": { 
			"-0.025": 0.0,
			"-0.024": 0.0,
			"-0.023": 0.0,
			"-0.022": 0.0,
			"-0.021": 0.0,
			"-0.02": 0.0,
			"-0.019": 0.0,
			"-0.018": 0.0,
			"-0.017": 0.0,
			"-0.016": 0.0,
			"-0.015": 0.0,
			"-0.014": 0.380992129109,
			"-0.013": 1.42560100511,
			"-0.012": 1.51691778733,
			"-0.011": 2.22181800948,
			"-0.01": 3.4804108673,
			"-0.009": 3.97758191141,
			"-0.008": 4.3467149694,
			"-0.007": 3.87785829445,
			"-0.006": 9.15115029385,
			"-0.005": 13.3617104229,
			"-0.004": 15.2421344066,
			"-0.003": 18.311026153,
			"-0.002": 14.8879173549,
			"-0.001": 14.2335522247,
			"0.0": 15.2293226535,
			"0.001": 14.1284260981,
			"0.002": 10.5201246974,
			"0.003": 9.75502899704,
			"0.004": 11.1132672334,
			"0.005": 10.3977081758,
			"0.006": 7.91346720047,
			"0.007": 2.26638077623,
			"0.008": 1.89963433285,
			"0.009": 2.08532992769,
			"0.01": 2.1411392372,
			"0.011": 2.4416384037,
			"0.012": 2.18152373327,
			"0.013": 3.58926136349,
			"0.014": 5.81327871179,
			"0.015": 0.807500246388,
			"0.016": 0.451268856222,
			"0.017": 0.0,
			"0.018": 0.0,
			"0.019": 0.0,
			"0.02": 0.0,
			"0.021": 0.0,
			"0.022": 0.0,
			"0.023": 0.0,
			"0.024": 0.0,
			"0.025": 0.0
		}
	}
}
