{
	 "smiles": "OC(=O)CCCCCCCCC=C", 
	 "Tm": 297.35, 
	 "num_atms": 33, 
	 "gaussian": { 
		 "optdone": 1, 
		 "sigma_profile": "yes", 
		 "theory": "DFT", 
		 "functional": "B3LYP", 
		 "basiset": "6-31G**", 
		 "properties": { 
			 "R2extent": 5128.116, 
			 "electric_dipole_moment_norm": 1.86475516355, 
			 "electric_quadrupole_moment_norm": 9.77563326696, 
			 "total_energy": -581.683703299, 
			 "HOMO_LUMO_gap": 0.26206, 
			 "cosmo_polarized_energy": -9.05, 
			 "cosmo_cavitation_energy": 35.1, 
			 "cosmo_dispersion_energy": -23.82, 
			 "cosmo_repulsion_energy": 1.97, 
			 "cosmo_total_nonelectrostatic_energy": 13.25, 
			 "SMD_solvation_energy": 6.78 
		},
		"coords": [
			{
				"x": 2.9045589177,
				"y": -3.3594217225,
				"z": -0.2256161507,
				"element": "O" 
			},
			{
				"x": 2.3270775565,
				"y": -3.2274411204,
				"z": -1.4486618637,
				"element": "C" 
			},
			{
				"x": 2.9685813208,
				"y": -2.9413498767,
				"z": -2.4354394194,
				"element": "O" 
			},
			{
				"x": 0.8381070692,
				"y": -3.4971199271,
				"z": -1.4037999406,
				"element": "C" 
			},
			{
				"x": 0.0792484653,
				"y": -2.6784338337,
				"z": -0.3432409545,
				"element": "C" 
			},
			{
				"x": 0.1441970111,
				"y": -1.1628465697,
				"z": -0.5705531596,
				"element": "C" 
			},
			{
				"x": -0.6506285566,
				"y": -0.3634349216,
				"z": 0.4702212107,
				"element": "C" 
			},
			{
				"x": -0.5871380953,
				"y": 1.1525256121,
				"z": 0.2409958241,
				"element": "C" 
			},
			{
				"x": -1.2616573523,
				"y": 2.0001809508,
				"z": 1.3344345521,
				"element": "C" 
			},
			{
				"x": -2.7531575744,
				"y": 1.7492144565,
				"z": 1.6245975417,
				"element": "C" 
			},
			{
				"x": -3.7586383078,
				"y": 2.1202071582,
				"z": 0.5050284292,
				"element": "C" 
			},
			{
				"x": -3.9025354479,
				"y": 1.111122537,
				"z": -0.605341042,
				"element": "C" 
			},
			{
				"x": -4.9825296531,
				"y": 0.3530063442,
				"z": -0.8029667423,
				"element": "C" 
			},
			{
				"x": 3.8500902875,
				"y": -3.1775569185,
				"z": -0.3581003761,
				"element": "H" 
			},
			{
				"x": 0.4518082676,
				"y": -3.3026058308,
				"z": -2.4075933832,
				"element": "H" 
			},
			{
				"x": 0.7083304492,
				"y": -4.567339574,
				"z": -1.1984339343,
				"element": "H" 
			},
			{
				"x": 0.4775186955,
				"y": -2.9212617099,
				"z": 0.6484220173,
				"element": "H" 
			},
			{
				"x": -0.9687399546,
				"y": -3.0034071453,
				"z": -0.348429153,
				"element": "H" 
			},
			{
				"x": 1.1926730276,
				"y": -0.8341848318,
				"z": -0.5556366622,
				"element": "H" 
			},
			{
				"x": -0.2325047629,
				"y": -0.9296491082,
				"z": -1.5765868388,
				"element": "H" 
			},
			{
				"x": -1.6958844026,
				"y": -0.6984478373,
				"z": 0.4562074134,
				"element": "H" 
			},
			{
				"x": -0.2677768948,
				"y": -0.5947523598,
				"z": 1.4748431444,
				"element": "H" 
			},
			{
				"x": 0.4669771044,
				"y": 1.4568342692,
				"z": 0.1820783563,
				"element": "H" 
			},
			{
				"x": -1.0143743085,
				"y": 1.3905314611,
				"z": -0.7415565991,
				"element": "H" 
			},
			{
				"x": -0.7111174039,
				"y": 1.845535625,
				"z": 2.2729092216,
				"element": "H" 
			},
			{
				"x": -1.1300194348,
				"y": 3.0617976629,
				"z": 1.083265351,
				"element": "H" 
			},
			{
				"x": -3.01209311,
				"y": 2.3503331928,
				"z": 2.5056660899,
				"element": "H" 
			},
			{
				"x": -2.9161049878,
				"y": 0.7049950832,
				"z": 1.9176689723,
				"element": "H" 
			},
			{
				"x": -3.4696930748,
				"y": 3.0941974053,
				"z": 0.0830492127,
				"element": "H" 
			},
			{
				"x": -4.7442315218,
				"y": 2.2633819549,
				"z": 0.9644644198,
				"element": "H" 
			},
			{
				"x": -3.0598433117,
				"y": 1.0020382932,
				"z": -1.2865993256,
				"element": "H" 
			},
			{
				"x": -5.0380526954,
				"y": -0.3647645485,
				"z": -1.616378304,
				"element": "H" 
			},
			{
				"x": -5.8560473215,
				"y": 0.4261158297,
				"z": -0.1583179073,
				"element": "H" 
			}
		],
		 "valence_orbital": [ 
			{
				"type": "occ",
				"energy": -0.31569,
				"method": "rhf"
			},
			{
				"type": "occ",
				"energy": -0.31009,
				"method": "rhf"
			},
			{
				"type": "occ",
				"energy": -0.30513,
				"method": "rhf"
			},
			{
				"type": "occ",
				"energy": -0.26862,
				"method": "rhf"
			},
			{
				"type": "occ",
				"energy": -0.25115,
				"method": "rhf"
			},
			{
				"type": "unocc",
				"energy": 0.01091,
				"method": "rhf"
			},
			{
				"type": "unocc",
				"energy": 0.02037,
				"method": "rhf"
			},
			{
				"type": "unocc",
				"energy": 0.07315,
				"method": "rhf"
			},
			{
				"type": "unocc",
				"energy": 0.08603,
				"method": "rhf"
			},
			{
				"type": "unocc",
				"energy": 0.09952,
				"method": "rhf"
			}
		],
		"cosmo_sigma_profile": { 
			"-0.025": 0.0,
			"-0.024": 0.0,
			"-0.023": 0.0,
			"-0.022": 0.0,
			"-0.021": 0.0,
			"-0.02": 0.0,
			"-0.019": 0.0,
			"-0.018": 0.469067773695,
			"-0.017": 0.890821952223,
			"-0.016": 0.645831876008,
			"-0.015": 0.911626919094,
			"-0.014": 1.07165841669,
			"-0.013": 0.511803098935,
			"-0.012": 0.203408528225,
			"-0.011": 0.794893104383,
			"-0.01": 1.17450105194,
			"-0.009": 0.276904154128,
			"-0.008": 0.634473439112,
			"-0.007": 0.986851994294,
			"-0.006": 3.15947164188,
			"-0.005": 4.72390208968,
			"-0.004": 10.9879772573,
			"-0.003": 21.6726994537,
			"-0.002": 42.6986954826,
			"-0.001": 46.6955873023,
			"0.0": 42.8505844816,
			"0.001": 30.3422257062,
			"0.002": 11.1305578524,
			"0.003": 7.42934548203,
			"0.004": 6.79428096593,
			"0.005": 6.02983830753,
			"0.006": 5.56903596254,
			"0.007": 4.70987095192,
			"0.008": 2.82696954775,
			"0.009": 2.67573105616,
			"0.01": 2.2667985921,
			"0.011": 3.10500588706,
			"0.012": 5.20337523538,
			"0.013": 1.88695055617,
			"0.014": 0.0759100240023,
			"0.015": 0.0,
			"0.016": 0.0,
			"0.017": 0.0,
			"0.018": 0.0,
			"0.019": 0.0,
			"0.02": 0.0,
			"0.021": 0.0,
			"0.022": 0.0,
			"0.023": 0.0,
			"0.024": 0.0,
			"0.025": 0.0
		}
	}
}
