{
	 "smiles": "Cl[C@H]1[C@H](Cl)[C@@H](Cl)[C@@H](Cl)[C@H](Cl)[C@H]1Cl", 
	 "Tm": 386.15, 
	 "num_atms": 18, 
	 "gaussian": { 
		 "optdone": 1, 
		 "sigma_profile": "yes", 
		 "theory": "DFT", 
		 "functional": "B3LYP", 
		 "basiset": "6-31G**", 
		 "properties": { 
			 "R2extent": 4519.2474, 
			 "electric_dipole_moment_norm": 2.84321909462, 
			 "electric_quadrupole_moment_norm": 3.26947008856, 
			 "total_energy": -2993.41007373, 
			 "HOMO_LUMO_gap": 0.24684, 
			 "cosmo_polarized_energy": -11.9, 
			 "cosmo_cavitation_energy": 29.29, 
			 "cosmo_dispersion_energy": -21.74, 
			 "cosmo_repulsion_energy": 1.71, 
			 "cosmo_total_nonelectrostatic_energy": 9.25, 
			 "SMD_solvation_energy": 2.57 
		},
		"coords": [
			{
				"x": -0.3734423062,
				"y": 1.3318302143,
				"z": -3.3972159551,
				"element": "Cl" 
			},
			{
				"x": 0.0102160475,
				"y": -0.0554004441,
				"z": -2.2920354328,
				"element": "C" 
			},
			{
				"x": 1.5261422821,
				"y": -0.1065831771,
				"z": -2.0215964175,
				"element": "C" 
			},
			{
				"x": 1.9410087018,
				"y": -1.8122708628,
				"z": -1.4836416899,
				"element": "Cl" 
			},
			{
				"x": 2.0434643469,
				"y": 0.8645257022,
				"z": -0.9431326218,
				"element": "C" 
			},
			{
				"x": 2.2550165016,
				"y": 2.5208217621,
				"z": -1.6538127468,
				"element": "Cl" 
			},
			{
				"x": 1.1472455509,
				"y": 0.8592483915,
				"z": 0.3073995853,
				"element": "C" 
			},
			{
				"x": 1.7801974715,
				"y": 2.0190757719,
				"z": 1.5343850152,
				"element": "Cl" 
			},
			{
				"x": -0.343986092,
				"y": 1.0812247901,
				"z": -0.0129000311,
				"element": "C" 
			},
			{
				"x": -1.3120094066,
				"y": 0.986186163,
				"z": 1.5110708613,
				"element": "Cl" 
			},
			{
				"x": -0.8020440532,
				"y": -0.0229620078,
				"z": -0.9858187868,
				"element": "C" 
			},
			{
				"x": -2.5665874479,
				"y": 0.0515795944,
				"z": -1.3492751981,
				"element": "Cl" 
			},
			{
				"x": -0.2759446168,
				"y": -0.9431957931,
				"z": -2.855018399,
				"element": "H" 
			},
			{
				"x": 2.0759174289,
				"y": 0.0392345889,
				"z": -2.949739414,
				"element": "H" 
			},
			{
				"x": 3.0477488301,
				"y": 0.5605104961,
				"z": -0.6498648488,
				"element": "H" 
			},
			{
				"x": 1.2551276237,
				"y": -0.1260857602,
				"z": 0.768353263,
				"element": "H" 
			},
			{
				"x": -0.5144601402,
				"y": 2.0734457112,
				"z": -0.4328609795,
				"element": "H" 
			},
			{
				"x": -0.6547107221,
				"y": -0.9905851405,
				"z": -0.4989962037,
				"element": "H" 
			}
		],
		 "valence_orbital": [ 
			{
				"type": "occ",
				"energy": -0.31522,
				"method": "rhf"
			},
			{
				"type": "occ",
				"energy": -0.31379,
				"method": "rhf"
			},
			{
				"type": "occ",
				"energy": -0.30995,
				"method": "rhf"
			},
			{
				"type": "occ",
				"energy": -0.3066,
				"method": "rhf"
			},
			{
				"type": "occ",
				"energy": -0.29983,
				"method": "rhf"
			},
			{
				"type": "unocc",
				"energy": -0.05299,
				"method": "rhf"
			},
			{
				"type": "unocc",
				"energy": -0.03656,
				"method": "rhf"
			},
			{
				"type": "unocc",
				"energy": -0.0073,
				"method": "rhf"
			},
			{
				"type": "unocc",
				"energy": 0.00796,
				"method": "rhf"
			},
			{
				"type": "unocc",
				"energy": 0.02659,
				"method": "rhf"
			}
		],
		"cosmo_sigma_profile": { 
			"-0.025": 0.0,
			"-0.024": 0.0,
			"-0.023": 0.0,
			"-0.022": 0.0,
			"-0.021": 0.0,
			"-0.02": 0.0,
			"-0.019": 0.0,
			"-0.018": 0.0,
			"-0.017": 0.0,
			"-0.016": 0.0,
			"-0.015": 0.0,
			"-0.014": 0.0,
			"-0.013": 0.0797324568105,
			"-0.012": 0.44523719735,
			"-0.011": 1.2510545942,
			"-0.01": 6.81771451108,
			"-0.009": 11.9176779685,
			"-0.008": 8.6649698594,
			"-0.007": 8.41864293383,
			"-0.006": 6.92512057133,
			"-0.005": 5.38883764406,
			"-0.004": 6.63139233471,
			"-0.003": 6.89332335551,
			"-0.002": 13.3614506368,
			"-0.001": 15.578134636,
			"0.0": 14.3198122509,
			"0.001": 16.8870668192,
			"0.002": 22.1736719752,
			"0.003": 22.645728859,
			"0.004": 35.0475819293,
			"0.005": 27.1190941152,
			"0.006": 11.7675905019,
			"0.007": 1.43092439274,
			"0.008": 0.0,
			"0.009": 0.0,
			"0.01": 0.0,
			"0.011": 0.0,
			"0.012": 0.0,
			"0.013": 0.0,
			"0.014": 0.0,
			"0.015": 0.0,
			"0.016": 0.0,
			"0.017": 0.0,
			"0.018": 0.0,
			"0.019": 0.0,
			"0.02": 0.0,
			"0.021": 0.0,
			"0.022": 0.0,
			"0.023": 0.0,
			"0.024": 0.0,
			"0.025": 0.0
		}
	}
}
