{
	 "smiles": "OCC1=NOC(=C1)C1=CC=CC=C1", 
	 "Tm": 373.15, 
	 "num_atms": 22, 
	 "gaussian": { 
		 "optdone": 1, 
		 "sigma_profile": "yes", 
		 "theory": "DFT", 
		 "functional": "B3LYP", 
		 "basiset": "6-31G**", 
		 "properties": { 
			 "R2extent": 3210.1623, 
			 "electric_dipole_moment_norm": 4.16943470149, 
			 "electric_quadrupole_moment_norm": 8.54263786427, 
			 "total_energy": -591.628902779, 
			 "HOMO_LUMO_gap": 0.18368, 
			 "cosmo_polarized_energy": -10.5, 
			 "cosmo_cavitation_energy": 26.51, 
			 "cosmo_dispersion_energy": -19.93, 
			 "cosmo_repulsion_energy": 1.57, 
			 "cosmo_total_nonelectrostatic_energy": 8.15, 
			 "SMD_solvation_energy": 4.42 
		},
		"coords": [
			{
				"x": 1.7300052971,
				"y": -1.9542797838,
				"z": 3.9343407495,
				"element": "O" 
			},
			{
				"x": 1.9104813958,
				"y": -2.0843920484,
				"z": 2.5423586952,
				"element": "C" 
			},
			{
				"x": 0.9691534591,
				"y": -1.2246897311,
				"z": 1.7404692118,
				"element": "C" 
			},
			{
				"x": -0.0358873328,
				"y": -0.6464993641,
				"z": 2.3578882403,
				"element": "N" 
			},
			{
				"x": -0.7496904123,
				"y": 0.0325150004,
				"z": 1.3721540531,
				"element": "O" 
			},
			{
				"x": -0.1483605141,
				"y": -0.1556457256,
				"z": 0.1722270445,
				"element": "C" 
			},
			{
				"x": 0.9528350257,
				"y": -0.9526036412,
				"z": 0.3450817001,
				"element": "C" 
			},
			{
				"x": -0.7537536319,
				"y": 0.4909914742,
				"z": -0.9907798385,
				"element": "C" 
			},
			{
				"x": -0.1858467773,
				"y": 0.3311524137,
				"z": -2.2662594599,
				"element": "C" 
			},
			{
				"x": -0.7608361269,
				"y": 0.9454831144,
				"z": -3.375167179,
				"element": "C" 
			},
			{
				"x": -1.9095859804,
				"y": 1.7273615468,
				"z": -3.2287987084,
				"element": "C" 
			},
			{
				"x": -2.4796310428,
				"y": 1.8907212683,
				"z": -1.9645146615,
				"element": "C" 
			},
			{
				"x": -1.9090588266,
				"y": 1.2787904748,
				"z": -0.8508176615,
				"element": "C" 
			},
			{
				"x": 0.8145089457,
				"y": -1.676915481,
				"z": 4.0836753669,
				"element": "H" 
			},
			{
				"x": 2.9463813292,
				"y": -1.809370315,
				"z": 2.3059743541,
				"element": "H" 
			},
			{
				"x": 1.781040504,
				"y": -3.130811214,
				"z": 2.21458523,
				"element": "H" 
			},
			{
				"x": 1.6529219489,
				"y": -1.2929333979,
				"z": -0.4019243171,
				"element": "H" 
			},
			{
				"x": 0.7064780914,
				"y": -0.2748271318,
				"z": -2.38964547,
				"element": "H" 
			},
			{
				"x": -0.312080896,
				"y": 0.8140537434,
				"z": -4.3552875397,
				"element": "H" 
			},
			{
				"x": -2.3567594121,
				"y": 2.205877407,
				"z": -4.0950250743,
				"element": "H" 
			},
			{
				"x": -3.3722831905,
				"y": 2.4973313596,
				"z": -1.8440799721,
				"element": "H" 
			},
			{
				"x": -2.3511318534,
				"y": 1.4057900314,
				"z": 0.1311452367,
				"element": "H" 
			}
		],
		 "valence_orbital": [ 
			{
				"type": "occ",
				"energy": -0.30254,
				"method": "rhf"
			},
			{
				"type": "occ",
				"energy": -0.29704,
				"method": "rhf"
			},
			{
				"type": "occ",
				"energy": -0.26631,
				"method": "rhf"
			},
			{
				"type": "occ",
				"energy": -0.26431,
				"method": "rhf"
			},
			{
				"type": "occ",
				"energy": -0.23666,
				"method": "rhf"
			},
			{
				"type": "unocc",
				"energy": -0.05298,
				"method": "rhf"
			},
			{
				"type": "unocc",
				"energy": -0.0147,
				"method": "rhf"
			},
			{
				"type": "unocc",
				"energy": 0.02092,
				"method": "rhf"
			},
			{
				"type": "unocc",
				"energy": 0.06594,
				"method": "rhf"
			},
			{
				"type": "unocc",
				"energy": 0.07171,
				"method": "rhf"
			}
		],
		"cosmo_sigma_profile": { 
			"-0.025": 0.0,
			"-0.024": 0.0,
			"-0.023": 0.0,
			"-0.022": 0.0,
			"-0.021": 0.0,
			"-0.02": 0.0,
			"-0.019": 0.0,
			"-0.018": 0.0,
			"-0.017": 0.0,
			"-0.016": 0.0,
			"-0.015": 0.0,
			"-0.014": 0.0,
			"-0.013": 0.0,
			"-0.012": 0.386974329046,
			"-0.011": 0.756939104539,
			"-0.01": 0.356474929583,
			"-0.009": 2.66474650802,
			"-0.008": 3.73488670354,
			"-0.007": 5.3859728403,
			"-0.006": 16.0541794135,
			"-0.005": 19.2326259225,
			"-0.004": 16.2212253638,
			"-0.003": 12.8259538723,
			"-0.002": 11.0412018191,
			"-0.001": 9.78910498262,
			"0.0": 16.816871822,
			"0.001": 18.460235366,
			"0.002": 15.5760111479,
			"0.003": 13.6083009236,
			"0.004": 15.7536279019,
			"0.005": 7.27943107391,
			"0.006": 3.25769194847,
			"0.007": 4.94899186301,
			"0.008": 4.71554424304,
			"0.009": 2.75506795289,
			"0.01": 3.23408645536,
			"0.011": 1.96949128355,
			"0.012": 1.78095302873,
			"0.013": 2.40682163955,
			"0.014": 1.37757489716,
			"0.015": 0.0,
			"0.016": 0.0,
			"0.017": 0.0,
			"0.018": 0.0,
			"0.019": 0.0,
			"0.02": 0.0,
			"0.021": 0.0,
			"0.022": 0.0,
			"0.023": 0.0,
			"0.024": 0.0,
			"0.025": 0.0
		}
	}
}
