{
	 "smiles": "NC1=CC(CC2=CC(N)=CC=C2)=CC=C1", 
	 "Tm": 354.65, 
	 "num_atms": 29, 
	 "gaussian": { 
		 "optdone": 1, 
		 "sigma_profile": "yes", 
		 "theory": "DFT", 
		 "functional": "B3LYP", 
		 "basiset": "6-31G**", 
		 "properties": { 
			 "R2extent": 4460.2647, 
			 "electric_dipole_moment_norm": 2.7914291698, 
			 "electric_quadrupole_moment_norm": 11.9528842034, 
			 "total_energy": -613.337864414, 
			 "HOMO_LUMO_gap": 0.20141, 
			 "cosmo_polarized_energy": -14.43, 
			 "cosmo_cavitation_energy": 32.59, 
			 "cosmo_dispersion_energy": -23.24, 
			 "cosmo_repulsion_energy": 1.85, 
			 "cosmo_total_nonelectrostatic_energy": 11.21, 
			 "SMD_solvation_energy": 5.09 
		},
		"coords": [
			{
				"x": 0.8930278431,
				"y": -1.1908353179,
				"z": 3.2123065521,
				"element": "N" 
			},
			{
				"x": 1.7648330863,
				"y": -0.6468365759,
				"z": 2.2627654134,
				"element": "C" 
			},
			{
				"x": 1.3281547894,
				"y": 0.3573745636,
				"z": 1.3862374781,
				"element": "C" 
			},
			{
				"x": 2.2005160471,
				"y": 0.9509906378,
				"z": 0.4682927143,
				"element": "C" 
			},
			{
				"x": 1.7066555489,
				"y": 2.0591875662,
				"z": -0.4497816499,
				"element": "C" 
			},
			{
				"x": 0.4605055816,
				"y": 1.7164775381,
				"z": -1.2493917626,
				"element": "C" 
			},
			{
				"x": -0.6950731238,
				"y": 2.4894030743,
				"z": -1.1216646677,
				"element": "C" 
			},
			{
				"x": -1.8553717128,
				"y": 2.2034544656,
				"z": -1.863979554,
				"element": "C" 
			},
			{
				"x": -2.980898929,
				"y": 3.0275195325,
				"z": -1.7645855846,
				"element": "N" 
			},
			{
				"x": -1.8379377754,
				"y": 1.1122270773,
				"z": -2.7459157435,
				"element": "C" 
			},
			{
				"x": -0.6851137506,
				"y": 0.3379637688,
				"z": -2.8731813406,
				"element": "C" 
			},
			{
				"x": 0.4601916646,
				"y": 0.6279800253,
				"z": -2.1345089199,
				"element": "C" 
			},
			{
				"x": 3.5343182113,
				"y": 0.5289074818,
				"z": 0.4231934219,
				"element": "C" 
			},
			{
				"x": 3.9778499391,
				"y": -0.4698732385,
				"z": 1.2934668295,
				"element": "C" 
			},
			{
				"x": 3.1090619456,
				"y": -1.0570525048,
				"z": 2.2074947123,
				"element": "C" 
			},
			{
				"x": 1.1417914904,
				"y": -2.1166006964,
				"z": 3.5337310311,
				"element": "H" 
			},
			{
				"x": -0.0861999105,
				"y": -1.135270086,
				"z": 2.9665217875,
				"element": "H" 
			},
			{
				"x": 0.2878182543,
				"y": 0.674283364,
				"z": 1.4158790544,
				"element": "H" 
			},
			{
				"x": 1.5086034109,
				"y": 2.9592882691,
				"z": 0.1460946538,
				"element": "H" 
			},
			{
				"x": 2.5159105684,
				"y": 2.3260348543,
				"z": -1.1404252945,
				"element": "H" 
			},
			{
				"x": -0.6984782061,
				"y": 3.3395165998,
				"z": -0.4417633176,
				"element": "H" 
			},
			{
				"x": -3.0604040997,
				"y": 3.5378067308,
				"z": -0.8955604191,
				"element": "H" 
			},
			{
				"x": -3.8545448388,
				"y": 2.5879086326,
				"z": -2.0202699315,
				"element": "H" 
			},
			{
				"x": -2.7239716998,
				"y": 0.8783682141,
				"z": -3.3312794027,
				"element": "H" 
			},
			{
				"x": -0.6858031776,
				"y": -0.5051095638,
				"z": -3.5591591481,
				"element": "H" 
			},
			{
				"x": 1.3492074837,
				"y": 0.012178055,
				"z": -2.2333992453,
				"element": "H" 
			},
			{
				"x": 4.2215232565,
				"y": 0.9799592105,
				"z": -0.2872053309,
				"element": "H" 
			},
			{
				"x": 5.0130730185,
				"y": -0.7985516495,
				"z": 1.255525388,
				"element": "H" 
			},
			{
				"x": 3.4629550845,
				"y": -1.8326000288,
				"z": 2.8825622761,
				"element": "H" 
			}
		],
		 "valence_orbital": [ 
			{
				"type": "occ",
				"energy": -0.29319,
				"method": "rhf"
			},
			{
				"type": "occ",
				"energy": -0.23872,
				"method": "rhf"
			},
			{
				"type": "occ",
				"energy": -0.22875,
				"method": "rhf"
			},
			{
				"type": "occ",
				"energy": -0.19583,
				"method": "rhf"
			},
			{
				"type": "occ",
				"energy": -0.19492,
				"method": "rhf"
			},
			{
				"type": "unocc",
				"energy": 0.00649,
				"method": "rhf"
			},
			{
				"type": "unocc",
				"energy": 0.01049,
				"method": "rhf"
			},
			{
				"type": "unocc",
				"energy": 0.02066,
				"method": "rhf"
			},
			{
				"type": "unocc",
				"energy": 0.03003,
				"method": "rhf"
			},
			{
				"type": "unocc",
				"energy": 0.08418,
				"method": "rhf"
			}
		],
		"cosmo_sigma_profile": { 
			"-0.025": 0.0,
			"-0.024": 0.0,
			"-0.023": 0.0,
			"-0.022": 0.0,
			"-0.021": 0.0,
			"-0.02": 0.0,
			"-0.019": 0.0,
			"-0.018": 0.0,
			"-0.017": 0.0,
			"-0.016": 0.0,
			"-0.015": 0.0,
			"-0.014": 0.0,
			"-0.013": 0.0630048250262,
			"-0.012": 3.56372142899,
			"-0.011": 5.167455121,
			"-0.01": 6.00707491736,
			"-0.009": 6.1644986227,
			"-0.008": 5.79727745089,
			"-0.007": 5.21325809961,
			"-0.006": 7.26753872851,
			"-0.005": 13.3261112953,
			"-0.004": 20.2542660338,
			"-0.003": 18.1099652928,
			"-0.002": 18.0512481162,
			"-0.001": 17.3369223659,
			"0.0": 16.1461818685,
			"0.001": 11.8024596388,
			"0.002": 12.0620776325,
			"0.003": 12.9133674514,
			"0.004": 12.5338890356,
			"0.005": 13.1302351529,
			"0.006": 18.1703675506,
			"0.007": 17.9265171674,
			"0.008": 7.34550829131,
			"0.009": 1.45704561998,
			"0.01": 1.34456747535,
			"0.011": 1.43912909197,
			"0.012": 1.48036600136,
			"0.013": 1.32272392105,
			"0.014": 1.17582818099,
			"0.015": 0.997458989619,
			"0.016": 0.0363352557404,
			"0.017": 0.0,
			"0.018": 0.0,
			"0.019": 0.0,
			"0.02": 0.0,
			"0.021": 0.0,
			"0.022": 0.0,
			"0.023": 0.0,
			"0.024": 0.0,
			"0.025": 0.0
		}
	}
}
