{
	 "smiles": "CC1=CC(C=O)=C(C)N1C1=C(F)C(F)=C(F)C=C1", 
	 "Tm": 363.15, 
	 "num_atms": 28, 
	 "gaussian": { 
		 "optdone": 1, 
		 "sigma_profile": "yes", 
		 "theory": "DFT", 
		 "functional": "B3LYP", 
		 "basiset": "6-31G**", 
		 "properties": { 
			 "R2extent": 5166.5326, 
			 "electric_dipole_moment_norm": 5.10012998462, 
			 "electric_quadrupole_moment_norm": 30.3901677419, 
			 "total_energy": -930.864895931, 
			 "HOMO_LUMO_gap": 0.17463, 
			 "cosmo_polarized_energy": -13.06, 
			 "cosmo_cavitation_energy": 34.09, 
			 "cosmo_dispersion_energy": -22.88, 
			 "cosmo_repulsion_energy": 1.7, 
			 "cosmo_total_nonelectrostatic_energy": 12.91, 
			 "SMD_solvation_energy": 8.6 
		},
		"coords": [
			{
				"x": 2.6844625293,
				"y": 0.828653423,
				"z": -0.8134604574,
				"element": "C" 
			},
			{
				"x": 1.3939423337,
				"y": 1.569217672,
				"z": -0.6790625656,
				"element": "C" 
			},
			{
				"x": 1.0521299892,
				"y": 2.8416910352,
				"z": -1.0400984111,
				"element": "C" 
			},
			{
				"x": -0.3201306084,
				"y": 3.0550698514,
				"z": -0.6855395547,
				"element": "C" 
			},
			{
				"x": -1.065106153,
				"y": 4.2882186635,
				"z": -0.8961854137,
				"element": "C" 
			},
			{
				"x": -0.6040838642,
				"y": 5.293335104,
				"z": -1.4154735021,
				"element": "O" 
			},
			{
				"x": -0.7963573479,
				"y": 1.8824622754,
				"z": -0.1078769426,
				"element": "C" 
			},
			{
				"x": -2.1341727594,
				"y": 1.5491097591,
				"z": 0.472058255,
				"element": "C" 
			},
			{
				"x": 0.2509846724,
				"y": 0.9778345395,
				"z": -0.1107577341,
				"element": "N" 
			},
			{
				"x": 0.1823652329,
				"y": -0.3541650654,
				"z": 0.3806000195,
				"element": "C" 
			},
			{
				"x": 0.8639168359,
				"y": -0.6980770031,
				"z": 1.5537100645,
				"element": "C" 
			},
			{
				"x": 1.588756601,
				"y": 0.2152330078,
				"z": 2.2112430645,
				"element": "F" 
			},
			{
				"x": 0.8144494221,
				"y": -1.9959270517,
				"z": 2.0563117596,
				"element": "C" 
			},
			{
				"x": 1.4763597776,
				"y": -2.3080567101,
				"z": 3.1748953959,
				"element": "F" 
			},
			{
				"x": 0.0599784573,
				"y": -2.9583242417,
				"z": 1.3868659349,
				"element": "C" 
			},
			{
				"x": 0.0201618737,
				"y": -4.19950113,
				"z": 1.8888135305,
				"element": "F" 
			},
			{
				"x": -0.6281872276,
				"y": -2.6403936204,
				"z": 0.2224074596,
				"element": "C" 
			},
			{
				"x": -0.5579588022,
				"y": -1.3413064604,
				"z": -0.2791194788,
				"element": "C" 
			},
			{
				"x": 2.5715252895,
				"y": -0.1038463355,
				"z": -1.3794560324,
				"element": "H" 
			},
			{
				"x": 3.4044078352,
				"y": 1.4560354309,
				"z": -1.3433292096,
				"element": "H" 
			},
			{
				"x": 3.1152369534,
				"y": 0.5746382343,
				"z": 0.16175335,
				"element": "H" 
			},
			{
				"x": 1.694368364,
				"y": 3.5713487958,
				"z": -1.5112029288,
				"element": "H" 
			},
			{
				"x": -2.1225780184,
				"y": 4.275058221,
				"z": -0.5489352469,
				"element": "H" 
			},
			{
				"x": -2.0466576378,
				"y": 1.1825515928,
				"z": 1.5013508861,
				"element": "H" 
			},
			{
				"x": -2.7677352703,
				"y": 2.4372554273,
				"z": 0.4879866752,
				"element": "H" 
			},
			{
				"x": -2.6602714303,
				"y": 0.7778446106,
				"z": -0.10244308,
				"element": "H" 
			},
			{
				"x": -1.1985695613,
				"y": -3.4136628907,
				"z": -0.278987217,
				"element": "H" 
			},
			{
				"x": -1.0723374864,
				"y": -1.0801971347,
				"z": -1.1971686207,
				"element": "H" 
			}
		],
		 "valence_orbital": [ 
			{
				"type": "occ",
				"energy": -0.28177,
				"method": "rhf"
			},
			{
				"type": "occ",
				"energy": -0.27688,
				"method": "rhf"
			},
			{
				"type": "occ",
				"energy": -0.24779,
				"method": "rhf"
			},
			{
				"type": "occ",
				"energy": -0.23538,
				"method": "rhf"
			},
			{
				"type": "occ",
				"energy": -0.21613,
				"method": "rhf"
			},
			{
				"type": "unocc",
				"energy": -0.0415,
				"method": "rhf"
			},
			{
				"type": "unocc",
				"energy": -0.03626,
				"method": "rhf"
			},
			{
				"type": "unocc",
				"energy": -0.02516,
				"method": "rhf"
			},
			{
				"type": "unocc",
				"energy": 0.02375,
				"method": "rhf"
			},
			{
				"type": "unocc",
				"energy": 0.0342,
				"method": "rhf"
			}
		],
		"cosmo_sigma_profile": { 
			"-0.025": 0.0,
			"-0.024": 0.0,
			"-0.023": 0.0,
			"-0.022": 0.0,
			"-0.021": 0.0,
			"-0.02": 0.0,
			"-0.019": 0.0,
			"-0.018": 0.0,
			"-0.017": 0.0,
			"-0.016": 0.0,
			"-0.015": 0.0,
			"-0.014": 0.0,
			"-0.013": 0.0,
			"-0.012": 0.0,
			"-0.011": 0.0,
			"-0.01": 0.0,
			"-0.009": 1.15864185279,
			"-0.008": 4.30215687288,
			"-0.007": 6.03445119039,
			"-0.006": 10.4832635886,
			"-0.005": 14.8119788618,
			"-0.004": 20.2464953349,
			"-0.003": 28.315958206,
			"-0.002": 30.6274399674,
			"-0.001": 27.9306247757,
			"0.0": 18.5828431628,
			"0.001": 16.051133837,
			"0.002": 21.1254704569,
			"0.003": 33.4037544512,
			"0.004": 8.95119171091,
			"0.005": 6.01763865839,
			"0.006": 4.96630876539,
			"0.007": 2.20462730622,
			"0.008": 1.62093743651,
			"0.009": 1.39145830633,
			"0.01": 2.49595708783,
			"0.011": 2.01490253867,
			"0.012": 4.37701146691,
			"0.013": 4.44036751254,
			"0.014": 1.65743883815,
			"0.015": 0.140292676636,
			"0.016": 0.0,
			"0.017": 0.0,
			"0.018": 0.0,
			"0.019": 0.0,
			"0.02": 0.0,
			"0.021": 0.0,
			"0.022": 0.0,
			"0.023": 0.0,
			"0.024": 0.0,
			"0.025": 0.0
		}
	}
}
