{
	 "smiles": "NS(=O)(=O)C1=C(O)C=CC=C1", 
	 "Tm": 409.15, 
	 "num_atms": 18, 
	 "gaussian": { 
		 "optdone": 1, 
		 "sigma_profile": "yes", 
		 "theory": "DFT", 
		 "functional": "B3LYP", 
		 "basiset": "6-31G**", 
		 "properties": { 
			 "R2extent": 3972.085, 
			 "electric_dipole_moment_norm": 4.81348343926, 
			 "electric_quadrupole_moment_norm": 15.8692311008, 
			 "total_energy": -911.399964472, 
			 "HOMO_LUMO_gap": 0.19989, 
			 "cosmo_polarized_energy": -16.75, 
			 "cosmo_cavitation_energy": 23.16, 
			 "cosmo_dispersion_energy": -18.03, 
			 "cosmo_repulsion_energy": 1.39, 
			 "cosmo_total_nonelectrostatic_energy": 6.53, 
			 "SMD_solvation_energy": 4.02 
		},
		"coords": [
			{
				"x": -3.8669243806,
				"y": 0.1677757488,
				"z": 0.1303058672,
				"element": "N" 
			},
			{
				"x": -3.1601158552,
				"y": 0.7620103775,
				"z": -1.2710674056,
				"element": "S" 
			},
			{
				"x": -2.7752386139,
				"y": 2.1364517284,
				"z": -0.9722389991,
				"element": "O" 
			},
			{
				"x": -4.1221877126,
				"y": 0.431452986,
				"z": -2.3419990335,
				"element": "O" 
			},
			{
				"x": -1.6880719071,
				"y": -0.1931807641,
				"z": -1.5995107294,
				"element": "C" 
			},
			{
				"x": -1.7600113445,
				"y": -1.3987762273,
				"z": -2.3336714294,
				"element": "C" 
			},
			{
				"x": -2.889864806,
				"y": -1.8817491232,
				"z": -2.8894583878,
				"element": "O" 
			},
			{
				"x": -0.583668816,
				"y": -2.1496664419,
				"z": -2.4875488505,
				"element": "C" 
			},
			{
				"x": 0.6159201217,
				"y": -1.7047880384,
				"z": -1.9465607186,
				"element": "C" 
			},
			{
				"x": 0.6854335712,
				"y": -0.4941235631,
				"z": -1.2445619289,
				"element": "C" 
			},
			{
				"x": -0.4697046319,
				"y": 0.2583046336,
				"z": -1.0737907895,
				"element": "C" 
			},
			{
				"x": -3.2956413147,
				"y": 0.3302784874,
				"z": 0.9539270083,
				"element": "H" 
			},
			{
				"x": -4.1693868339,
				"y": -0.7979038947,
				"z": 0.0415098413,
				"element": "H" 
			},
			{
				"x": -3.5623634059,
				"y": -1.1663681217,
				"z": -2.9047451103,
				"element": "H" 
			},
			{
				"x": -0.6442352119,
				"y": -3.0739326815,
				"z": -3.0523709786,
				"element": "H" 
			},
			{
				"x": 1.5129906621,
				"y": -2.3013908498,
				"z": -2.0848757969,
				"element": "H" 
			},
			{
				"x": 1.6296858944,
				"y": -0.1425015999,
				"z": -0.8426369186,
				"element": "H" 
			},
			{
				"x": -0.4475154151,
				"y": 1.208107344,
				"z": -0.54940564,
				"element": "H" 
			}
		],
		 "valence_orbital": [ 
			{
				"type": "occ",
				"energy": -0.32872,
				"method": "rhf"
			},
			{
				"type": "occ",
				"energy": -0.32183,
				"method": "rhf"
			},
			{
				"type": "occ",
				"energy": -0.31168,
				"method": "rhf"
			},
			{
				"type": "occ",
				"energy": -0.27386,
				"method": "rhf"
			},
			{
				"type": "occ",
				"energy": -0.24221,
				"method": "rhf"
			},
			{
				"type": "unocc",
				"energy": -0.04232,
				"method": "rhf"
			},
			{
				"type": "unocc",
				"energy": -0.01194,
				"method": "rhf"
			},
			{
				"type": "unocc",
				"energy": 0.04455,
				"method": "rhf"
			},
			{
				"type": "unocc",
				"energy": 0.05981,
				"method": "rhf"
			},
			{
				"type": "unocc",
				"energy": 0.08063,
				"method": "rhf"
			}
		],
		"cosmo_sigma_profile": { 
			"-0.025": 0.0,
			"-0.024": 0.0,
			"-0.023": 0.0,
			"-0.022": 0.0,
			"-0.021": 0.0,
			"-0.02": 0.0,
			"-0.019": 0.0,
			"-0.018": 0.0,
			"-0.017": 0.0,
			"-0.016": 0.873235962278,
			"-0.015": 2.35782459143,
			"-0.014": 3.30172774424,
			"-0.013": 3.06615735623,
			"-0.012": 3.2679329997,
			"-0.011": 1.95316389185,
			"-0.01": 2.56125979216,
			"-0.009": 1.869591299,
			"-0.008": 2.60261104228,
			"-0.007": 6.66885620202,
			"-0.006": 10.5228797953,
			"-0.005": 11.7435108264,
			"-0.004": 9.59192844009,
			"-0.003": 8.64382107723,
			"-0.002": 7.27580808494,
			"-0.001": 7.48058444938,
			"0.0": 8.12147330435,
			"0.001": 10.2285408221,
			"0.002": 14.1555281949,
			"0.003": 12.957435626,
			"0.004": 10.6957335602,
			"0.005": 3.91789628309,
			"0.006": 4.38411708802,
			"0.007": 5.12515337447,
			"0.008": 5.75650275056,
			"0.009": 7.76668992061,
			"0.01": 8.93937227437,
			"0.011": 8.31975209097,
			"0.012": 0.867909112642,
			"0.013": 0.0586376440969,
			"0.014": 0.0,
			"0.015": 0.0,
			"0.016": 0.0,
			"0.017": 0.0,
			"0.018": 0.0,
			"0.019": 0.0,
			"0.02": 0.0,
			"0.021": 0.0,
			"0.022": 0.0,
			"0.023": 0.0,
			"0.024": 0.0,
			"0.025": 0.0
		}
	}
}
