{
	 "smiles": "C1CN(CCN1)C1=NC=CN=C1", 
	 "Tm": 322.15, 
	 "num_atms": 24, 
	 "gaussian": { 
		 "optdone": 1, 
		 "sigma_profile": "yes", 
		 "theory": "DFT", 
		 "functional": "B3LYP", 
		 "basiset": "6-31G**", 
		 "properties": { 
			 "R2extent": 2651.1402, 
			 "electric_dipole_moment_norm": 1.42966251612, 
			 "electric_quadrupole_moment_norm": 10.1733798229, 
			 "total_energy": -531.061848725, 
			 "HOMO_LUMO_gap": 0.17098, 
			 "cosmo_polarized_energy": -10.02, 
			 "cosmo_cavitation_energy": 25.74, 
			 "cosmo_dispersion_energy": -19.61, 
			 "cosmo_repulsion_energy": 1.55, 
			 "cosmo_total_nonelectrostatic_energy": 7.68, 
			 "SMD_solvation_energy": -1.44 
		},
		"coords": [
			{
				"x": -1.5840705163,
				"y": 0.9716112849,
				"z": -1.6251092783,
				"element": "C" 
			},
			{
				"x": -1.9760805627,
				"y": -0.0305936046,
				"z": -0.5181008849,
				"element": "C" 
			},
			{
				"x": -1.0506349906,
				"y": 0.0600067628,
				"z": 0.6089155052,
				"element": "N" 
			},
			{
				"x": -0.908822056,
				"y": 1.3738494681,
				"z": 1.2345337795,
				"element": "C" 
			},
			{
				"x": -1.4516888127,
				"y": 2.4651476201,
				"z": 0.2893527195,
				"element": "C" 
			},
			{
				"x": -1.0680869586,
				"y": 2.251525584,
				"z": -1.1014435687,
				"element": "N" 
			},
			{
				"x": -0.5082068235,
				"y": -1.0610113972,
				"z": 1.1893018509,
				"element": "C" 
			},
			{
				"x": -0.709171589,
				"y": -2.2487524435,
				"z": 0.5877043581,
				"element": "N" 
			},
			{
				"x": -0.1457539251,
				"y": -3.320468197,
				"z": 1.1495515217,
				"element": "C" 
			},
			{
				"x": 0.617952195,
				"y": -3.2470898845,
				"z": 2.3104448082,
				"element": "C" 
			},
			{
				"x": 0.8112103036,
				"y": -2.0725916066,
				"z": 2.931318549,
				"element": "N" 
			},
			{
				"x": 0.2571967067,
				"y": -0.9957210589,
				"z": 2.3885897794,
				"element": "C" 
			},
			{
				"x": -2.4677701348,
				"y": 1.1552070735,
				"z": -2.25237367,
				"element": "H" 
			},
			{
				"x": -0.8198295112,
				"y": 0.5304808605,
				"z": -2.272992283,
				"element": "H" 
			},
			{
				"x": -3.0013220373,
				"y": 0.1695929689,
				"z": -0.1724771841,
				"element": "H" 
			},
			{
				"x": -1.954861679,
				"y": -1.0537086786,
				"z": -0.8902761887,
				"element": "H" 
			},
			{
				"x": 0.1561849466,
				"y": 1.5673936723,
				"z": 1.4236716505,
				"element": "H" 
			},
			{
				"x": -1.4215129308,
				"y": 1.418239956,
				"z": 2.2103945561,
				"element": "H" 
			},
			{
				"x": -1.0863349183,
				"y": 3.4408917858,
				"z": 0.6253261882,
				"element": "H" 
			},
			{
				"x": -2.5456749373,
				"y": 2.5082032693,
				"z": 0.3443340663,
				"element": "H" 
			},
			{
				"x": -0.0539561167,
				"y": 2.2517041319,
				"z": -1.1620039026,
				"element": "H" 
			},
			{
				"x": -0.3153866537,
				"y": -4.2744281248,
				"z": 0.6522419171,
				"element": "H" 
			},
			{
				"x": 1.0696009051,
				"y": -4.1307765458,
				"z": 2.7530321066,
				"element": "H" 
			},
			{
				"x": 0.4102200964,
				"y": -0.0564128966,
				"z": 2.9111636041,
				"element": "H" 
			}
		],
		 "valence_orbital": [ 
			{
				"type": "occ",
				"energy": -0.29396,
				"method": "rhf"
			},
			{
				"type": "occ",
				"energy": -0.28853,
				"method": "rhf"
			},
			{
				"type": "occ",
				"energy": -0.23859,
				"method": "rhf"
			},
			{
				"type": "occ",
				"energy": -0.22705,
				"method": "rhf"
			},
			{
				"type": "occ",
				"energy": -0.20481,
				"method": "rhf"
			},
			{
				"type": "unocc",
				"energy": -0.03383,
				"method": "rhf"
			},
			{
				"type": "unocc",
				"energy": 0.00482,
				"method": "rhf"
			},
			{
				"type": "unocc",
				"energy": 0.07034,
				"method": "rhf"
			},
			{
				"type": "unocc",
				"energy": 0.10052,
				"method": "rhf"
			},
			{
				"type": "unocc",
				"energy": 0.11017,
				"method": "rhf"
			}
		],
		"cosmo_sigma_profile": { 
			"-0.025": 0.0,
			"-0.024": 0.0,
			"-0.023": 0.0,
			"-0.022": 0.0,
			"-0.021": 0.0,
			"-0.02": 0.0,
			"-0.019": 0.0,
			"-0.018": 0.0,
			"-0.017": 0.0,
			"-0.016": 0.0,
			"-0.015": 0.0,
			"-0.014": 0.0,
			"-0.013": 0.0,
			"-0.012": 0.0,
			"-0.011": 0.082948720408,
			"-0.01": 1.04255976171,
			"-0.009": 1.45508466749,
			"-0.008": 1.27904393769,
			"-0.007": 2.88296831299,
			"-0.006": 9.08678423819,
			"-0.005": 14.5249353026,
			"-0.004": 25.9395386903,
			"-0.003": 25.0800820932,
			"-0.002": 18.3288534312,
			"-0.001": 14.1257780113,
			"0.0": 13.5895498755,
			"0.001": 12.3156376288,
			"0.002": 13.4585000632,
			"0.003": 9.37920269269,
			"0.004": 5.77762461694,
			"0.005": 5.09544207843,
			"0.006": 3.54439591502,
			"0.007": 4.70070803379,
			"0.008": 3.68687242854,
			"0.009": 2.43721882946,
			"0.01": 3.53144180939,
			"0.011": 3.16242168769,
			"0.012": 1.53768065836,
			"0.013": 1.53072238321,
			"0.014": 1.32152575562,
			"0.015": 1.77232680771,
			"0.016": 1.11994430058,
			"0.017": 0.560595399456,
			"0.018": 0.41301930929,
			"0.019": 0.0542400261655,
			"0.02": 0.0,
			"0.021": 0.0,
			"0.022": 0.0,
			"0.023": 0.0,
			"0.024": 0.0,
			"0.025": 0.0
		}
	}
}
