{
	 "smiles": "NC1=C(Br)C=C(F)C(=C1)C(F)(F)F", 
	 "Tm": 300.15, 
	 "num_atms": 17, 
	 "gaussian": { 
		 "optdone": 1, 
		 "sigma_profile": "yes", 
		 "theory": "DFT", 
		 "functional": "B3LYP", 
		 "basiset": "6-31G**", 
		 "properties": { 
			 "R2extent": 4926.2012, 
			 "electric_dipole_moment_norm": 3.50201779836, 
			 "electric_quadrupole_moment_norm": 3.76873030476, 
			 "total_energy": -3294.67231478, 
			 "HOMO_LUMO_gap": 0.18205, 
			 "cosmo_polarized_energy": -7.64, 
			 "cosmo_cavitation_energy": 25.48, 
			 "cosmo_dispersion_energy": -18.77, 
			 "cosmo_repulsion_energy": 1.41, 
			 "cosmo_total_nonelectrostatic_energy": 8.12, 
			 "SMD_solvation_energy": 4.79 
		},
		"coords": [
			{
				"x": -1.8802123627,
				"y": -0.121552854,
				"z": 1.803359097,
				"element": "N" 
			},
			{
				"x": -0.5198003739,
				"y": -0.1359316431,
				"z": 1.545250813,
				"element": "C" 
			},
			{
				"x": 0.4223539541,
				"y": -0.6025667194,
				"z": 2.4821982447,
				"element": "C" 
			},
			{
				"x": -0.1839988496,
				"y": -1.3282360464,
				"z": 4.1436810556,
				"element": "Br" 
			},
			{
				"x": 1.7926020653,
				"y": -0.5586590326,
				"z": 2.2376463751,
				"element": "C" 
			},
			{
				"x": 2.2456972267,
				"y": -0.0449439367,
				"z": 1.0333440983,
				"element": "C" 
			},
			{
				"x": 3.5706749516,
				"y": -0.0040798443,
				"z": 0.7930672584,
				"element": "F" 
			},
			{
				"x": 1.3515004289,
				"y": 0.4246485704,
				"z": 0.0699549259,
				"element": "C" 
			},
			{
				"x": -0.0137226464,
				"y": 0.3745673289,
				"z": 0.3355178462,
				"element": "C" 
			},
			{
				"x": 1.8699486549,
				"y": 0.9732558382,
				"z": -1.2330735204,
				"element": "C" 
			},
			{
				"x": 2.6803207231,
				"y": 2.0338425102,
				"z": -1.0396635839,
				"element": "F" 
			},
			{
				"x": 0.8612123571,
				"y": 1.3791888909,
				"z": -2.0372918297,
				"element": "F" 
			},
			{
				"x": 2.5783549499,
				"y": 0.0492053091,
				"z": -1.9148137137,
				"element": "F" 
			},
			{
				"x": -2.1956612676,
				"y": -0.7411051544,
				"z": 2.536586358,
				"element": "H" 
			},
			{
				"x": -2.4824642685,
				"y": -0.1089625141,
				"z": 0.9935131836,
				"element": "H" 
			},
			{
				"x": 2.5035372622,
				"y": -0.9223509374,
				"z": 2.9689915739,
				"element": "H" 
			},
			{
				"x": -0.7064428051,
				"y": 0.7471802349,
				"z": -0.410968182,
				"element": "H" 
			}
		],
		 "valence_orbital": [ 
			{
				"type": "occ",
				"energy": -0.3326,
				"method": "rhf"
			},
			{
				"type": "occ",
				"energy": -0.32404,
				"method": "rhf"
			},
			{
				"type": "occ",
				"energy": -0.30754,
				"method": "rhf"
			},
			{
				"type": "occ",
				"energy": -0.26819,
				"method": "rhf"
			},
			{
				"type": "occ",
				"energy": -0.22174,
				"method": "rhf"
			},
			{
				"type": "unocc",
				"energy": -0.03969,
				"method": "rhf"
			},
			{
				"type": "unocc",
				"energy": -0.00945,
				"method": "rhf"
			},
			{
				"type": "unocc",
				"energy": -0.0076,
				"method": "rhf"
			},
			{
				"type": "unocc",
				"energy": 0.07061,
				"method": "rhf"
			},
			{
				"type": "unocc",
				"energy": 0.1077,
				"method": "rhf"
			}
		],
		"cosmo_sigma_profile": { 
			"-0.025": 0.0,
			"-0.024": 0.0,
			"-0.023": 0.0,
			"-0.022": 0.0,
			"-0.021": 0.0,
			"-0.02": 0.0,
			"-0.019": 0.0,
			"-0.018": 0.0,
			"-0.017": 0.0,
			"-0.016": 0.0,
			"-0.015": 0.0,
			"-0.014": 0.656153592199,
			"-0.013": 1.58079677938,
			"-0.012": 2.32595348326,
			"-0.011": 2.77222402138,
			"-0.01": 2.48757663217,
			"-0.009": 2.91507442953,
			"-0.008": 4.09054364507,
			"-0.007": 4.79235449034,
			"-0.006": 3.76801119026,
			"-0.005": 4.40838527635,
			"-0.004": 5.77866967508,
			"-0.003": 8.02408258226,
			"-0.002": 9.72192895282,
			"-0.001": 12.3832326191,
			"0.0": 19.966886492,
			"0.001": 27.2289529535,
			"0.002": 34.4225494624,
			"0.003": 38.6211567252,
			"0.004": 15.677737927,
			"0.005": 1.52122731978,
			"0.006": 0.908647177675,
			"0.007": 0.657246490319,
			"0.008": 0.921411498691,
			"0.009": 0.497617483979,
			"0.01": 0.665354328257,
			"0.011": 0.547064969937,
			"0.012": 0.518774185539,
			"0.013": 0.164505424441,
			"0.014": 0.0,
			"0.015": 0.0,
			"0.016": 0.0,
			"0.017": 0.0,
			"0.018": 0.0,
			"0.019": 0.0,
			"0.02": 0.0,
			"0.021": 0.0,
			"0.022": 0.0,
			"0.023": 0.0,
			"0.024": 0.0,
			"0.025": 0.0
		}
	}
}
