{
	 "smiles": "OC(=O)C1=CC=C(NS(=O)(=O)C2=CC=CC=C2)C=C1", 
	 "Tm": 483.15, 
	 "num_atms": 30, 
	 "gaussian": { 
		 "optdone": 1, 
		 "sigma_profile": "yes", 
		 "theory": "DFT", 
		 "functional": "B3LYP", 
		 "basiset": "6-31G**", 
		 "properties": { 
			 "R2extent": 8811.1781, 
			 "electric_dipole_moment_norm": 7.43286921518, 
			 "electric_quadrupole_moment_norm": 22.9625563285, 
			 "total_energy": -1255.78330138, 
			 "HOMO_LUMO_gap": 0.1858, 
			 "cosmo_polarized_energy": -24.69, 
			 "cosmo_cavitation_energy": 36.74, 
			 "cosmo_dispersion_energy": -26.81, 
			 "cosmo_repulsion_energy": 2.0, 
			 "cosmo_total_nonelectrostatic_energy": 11.92, 
			 "SMD_solvation_energy": 6.62 
		},
		"coords": [
			{
				"x": 2.9084367295,
				"y": -1.2781907123,
				"z": 4.2785848624,
				"element": "O" 
			},
			{
				"x": 3.1432106238,
				"y": -0.5935719518,
				"z": 3.1258855273,
				"element": "C" 
			},
			{
				"x": 4.1687592321,
				"y": 0.0341896094,
				"z": 2.9967641964,
				"element": "O" 
			},
			{
				"x": 2.0868793457,
				"y": -0.6684345565,
				"z": 2.0692764685,
				"element": "C" 
			},
			{
				"x": 0.755013456,
				"y": -1.023259249,
				"z": 2.3284028702,
				"element": "C" 
			},
			{
				"x": -0.1958923767,
				"y": -1.0531833112,
				"z": 1.3134742079,
				"element": "C" 
			},
			{
				"x": 0.1868235191,
				"y": -0.7465065245,
				"z": -0.0010976732,
				"element": "C" 
			},
			{
				"x": -0.7616179111,
				"y": -0.7112686417,
				"z": -1.0602071475,
				"element": "N" 
			},
			{
				"x": -1.7806206213,
				"y": -2.0653964221,
				"z": -1.3813127379,
				"element": "S" 
			},
			{
				"x": -2.5021745229,
				"y": -2.3474772933,
				"z": -0.1394480305,
				"element": "O" 
			},
			{
				"x": -1.031105252,
				"y": -3.1257271699,
				"z": -2.0629090664,
				"element": "O" 
			},
			{
				"x": -2.8830449176,
				"y": -1.304800855,
				"z": -2.5700967034,
				"element": "C" 
			},
			{
				"x": -3.8065225224,
				"y": -0.3521924534,
				"z": -2.1303089045,
				"element": "C" 
			},
			{
				"x": -4.6758225622,
				"y": 0.2164420932,
				"z": -3.0588145685,
				"element": "C" 
			},
			{
				"x": -4.6206880519,
				"y": -0.1722886186,
				"z": -4.4011511563,
				"element": "C" 
			},
			{
				"x": -3.6992799836,
				"y": -1.1325509319,
				"z": -4.8225083775,
				"element": "C" 
			},
			{
				"x": -2.8203304446,
				"y": -1.7097387624,
				"z": -3.9039423029,
				"element": "C" 
			},
			{
				"x": 1.5172539593,
				"y": -0.3854230142,
				"z": -0.268047163,
				"element": "C" 
			},
			{
				"x": 2.4489566753,
				"y": -0.3280380107,
				"z": 0.7591471256,
				"element": "C" 
			},
			{
				"x": 2.1465731991,
				"y": -1.8638585039,
				"z": 4.1700043961,
				"element": "H" 
			},
			{
				"x": 0.4238629322,
				"y": -1.2341625336,
				"z": 3.3425273888,
				"element": "H" 
			},
			{
				"x": -1.2254449362,
				"y": -1.3069195474,
				"z": 1.5282105617,
				"element": "H" 
			},
			{
				"x": -0.3383209234,
				"y": -0.424154597,
				"z": -1.9401777525,
				"element": "H" 
			},
			{
				"x": -3.8415103624,
				"y": -0.0702116531,
				"z": -1.0837030552,
				"element": "H" 
			},
			{
				"x": -5.3989749077,
				"y": 0.9587046674,
				"z": -2.7354941831,
				"element": "H" 
			},
			{
				"x": -5.3026140893,
				"y": 0.2731480164,
				"z": -5.1194087438,
				"element": "H" 
			},
			{
				"x": -3.6654768106,
				"y": -1.4370587026,
				"z": -5.8639459572,
				"element": "H" 
			},
			{
				"x": -2.1028175124,
				"y": -2.4660261968,
				"z": -4.2026132003,
				"element": "H" 
			},
			{
				"x": 1.817797992,
				"y": -0.1470977859,
				"z": -1.2852300533,
				"element": "H" 
			},
			{
				"x": 3.4746910443,
				"y": -0.0342463878,
				"z": 0.5648391721,
				"element": "H" 
			}
		],
		 "valence_orbital": [ 
			{
				"type": "occ",
				"energy": -0.2876,
				"method": "rhf"
			},
			{
				"type": "occ",
				"energy": -0.28392,
				"method": "rhf"
			},
			{
				"type": "occ",
				"energy": -0.27378,
				"method": "rhf"
			},
			{
				"type": "occ",
				"energy": -0.27019,
				"method": "rhf"
			},
			{
				"type": "occ",
				"energy": -0.24279,
				"method": "rhf"
			},
			{
				"type": "unocc",
				"energy": -0.05699,
				"method": "rhf"
			},
			{
				"type": "unocc",
				"energy": -0.04796,
				"method": "rhf"
			},
			{
				"type": "unocc",
				"energy": -0.03368,
				"method": "rhf"
			},
			{
				"type": "unocc",
				"energy": -0.02417,
				"method": "rhf"
			},
			{
				"type": "unocc",
				"energy": 0.03544,
				"method": "rhf"
			}
		],
		"cosmo_sigma_profile": { 
			"-0.025": 0.0,
			"-0.024": 0.0,
			"-0.023": 0.0,
			"-0.022": 0.0,
			"-0.021": 0.0,
			"-0.02": 0.0,
			"-0.019": 0.217237861553,
			"-0.018": 0.721583162822,
			"-0.017": 1.11945326838,
			"-0.016": 2.12044692171,
			"-0.015": 2.33917779135,
			"-0.014": 1.96708999379,
			"-0.013": 2.1705575512,
			"-0.012": 3.28221544387,
			"-0.011": 1.75802845439,
			"-0.01": 2.09528558534,
			"-0.009": 3.67092989162,
			"-0.008": 4.85774614966,
			"-0.007": 13.3858951088,
			"-0.006": 18.1584061811,
			"-0.005": 16.9578294694,
			"-0.004": 13.995778387,
			"-0.003": 14.1333163045,
			"-0.002": 14.4491135778,
			"-0.001": 15.6722616129,
			"0.0": 17.0634580678,
			"0.001": 22.3456660571,
			"0.002": 29.6219388955,
			"0.003": 24.4770879667,
			"0.004": 7.09725304871,
			"0.005": 4.76687319217,
			"0.006": 5.98810604201,
			"0.007": 6.51800177092,
			"0.008": 6.25775538276,
			"0.009": 7.84093192451,
			"0.01": 12.1669964443,
			"0.011": 10.8193508253,
			"0.012": 5.22539408185,
			"0.013": 1.86124342355,
			"0.014": 0.123143897451,
			"0.015": 0.0,
			"0.016": 0.0,
			"0.017": 0.0,
			"0.018": 0.0,
			"0.019": 0.0,
			"0.02": 0.0,
			"0.021": 0.0,
			"0.022": 0.0,
			"0.023": 0.0,
			"0.024": 0.0,
			"0.025": 0.0
		}
	}
}
