{
	 "smiles": "ClC(=O)CCCCCCCCC(Cl)=O", 
	 "Tm": 269.4, 
	 "num_atms": 30, 
	 "gaussian": { 
		 "optdone": 1, 
		 "sigma_profile": "yes", 
		 "theory": "DFT", 
		 "functional": "B3LYP", 
		 "basiset": "6-31G**", 
		 "properties": { 
			 "R2extent": 7189.8283, 
			 "electric_dipole_moment_norm": 4.50050404955, 
			 "electric_quadrupole_moment_norm": 17.3292901522, 
			 "total_energy": -1461.5733976, 
			 "HOMO_LUMO_gap": 0.24923, 
			 "cosmo_polarized_energy": -9.92, 
			 "cosmo_cavitation_energy": 36.76, 
			 "cosmo_dispersion_energy": -24.91, 
			 "cosmo_repulsion_energy": 2.05, 
			 "cosmo_total_nonelectrostatic_energy": 13.9, 
			 "SMD_solvation_energy": 6.21 
		},
		"coords": [
			{
				"x": 0.1439122182,
				"y": -6.3248991211,
				"z": 1.3177794201,
				"element": "Cl" 
			},
			{
				"x": -0.7725397755,
				"y": -4.9473057685,
				"z": 0.5156374602,
				"element": "C" 
			},
			{
				"x": -1.8849922114,
				"y": -5.1204476635,
				"z": 0.1352445699,
				"element": "O" 
			},
			{
				"x": 0.0705378378,
				"y": -3.6985002112,
				"z": 0.4178049158,
				"element": "C" 
			},
			{
				"x": -0.6830108521,
				"y": -2.4943275966,
				"z": -0.1631106145,
				"element": "C" 
			},
			{
				"x": -1.728358298,
				"y": -1.9079053687,
				"z": 0.7979690476,
				"element": "C" 
			},
			{
				"x": -2.6010868766,
				"y": -0.7727673665,
				"z": 0.232045848,
				"element": "C" 
			},
			{
				"x": -1.8693939937,
				"y": 0.5376703326,
				"z": -0.1343090511,
				"element": "C" 
			},
			{
				"x": -1.3485168376,
				"y": 0.6028053316,
				"z": -1.5794741915,
				"element": "C" 
			},
			{
				"x": -0.6806504254,
				"y": 1.9349102696,
				"z": -1.9620857765,
				"element": "C" 
			},
			{
				"x": 0.568154477,
				"y": 2.3158506204,
				"z": -1.1525786237,
				"element": "C" 
			},
			{
				"x": 1.7311464067,
				"y": 1.3715189632,
				"z": -1.3341087335,
				"element": "C" 
			},
			{
				"x": 3.1738567002,
				"y": 1.8690237779,
				"z": -0.3071960459,
				"element": "Cl" 
			},
			{
				"x": 1.8073990256,
				"y": 0.4096685243,
				"z": -2.0288878333,
				"element": "O" 
			},
			{
				"x": 0.9403952123,
				"y": -3.9623746984,
				"z": -0.1966482547,
				"element": "H" 
			},
			{
				"x": 0.4715757387,
				"y": -3.4880414494,
				"z": 1.4163732671,
				"element": "H" 
			},
			{
				"x": 0.0668788737,
				"y": -1.738862547,
				"z": -0.4197647506,
				"element": "H" 
			},
			{
				"x": -1.1645697614,
				"y": -2.7927182341,
				"z": -1.1015903737,
				"element": "H" 
			},
			{
				"x": -2.3961727438,
				"y": -2.714636578,
				"z": 1.121246328,
				"element": "H" 
			},
			{
				"x": -1.2176659135,
				"y": -1.5475396439,
				"z": 1.702837761,
				"element": "H" 
			},
			{
				"x": -3.1545535539,
				"y": -1.1398728803,
				"z": -0.6433127948,
				"element": "H" 
			},
			{
				"x": -3.3610529068,
				"y": -0.5450692162,
				"z": 0.9891422014,
				"element": "H" 
			},
			{
				"x": -1.0484405032,
				"y": 0.693435133,
				"z": 0.5797464749,
				"element": "H" 
			},
			{
				"x": -2.5573705461,
				"y": 1.3807327964,
				"z": 0.0160869076,
				"element": "H" 
			},
			{
				"x": -0.6508010306,
				"y": -0.2147137415,
				"z": -1.7795087652,
				"element": "H" 
			},
			{
				"x": -2.196205564,
				"y": 0.4480581988,
				"z": -2.2594688725,
				"element": "H" 
			},
			{
				"x": -1.402082412,
				"y": 2.7531213994,
				"z": -1.8410903396,
				"element": "H" 
			},
			{
				"x": -0.4152894258,
				"y": 1.9095626508,
				"z": -3.024821645,
				"element": "H" 
			},
			{
				"x": 0.365690858,
				"y": 2.3791443222,
				"z": -0.0777718096,
				"element": "H" 
			},
			{
				"x": 0.9305062831,
				"y": 3.3120797645,
				"z": -1.4347857259,
				"element": "H" 
			}
		],
		 "valence_orbital": [ 
			{
				"type": "occ",
				"energy": -0.31906,
				"method": "rhf"
			},
			{
				"type": "occ",
				"energy": -0.31836,
				"method": "rhf"
			},
			{
				"type": "occ",
				"energy": -0.31128,
				"method": "rhf"
			},
			{
				"type": "occ",
				"energy": -0.30028,
				"method": "rhf"
			},
			{
				"type": "occ",
				"energy": -0.29456,
				"method": "rhf"
			},
			{
				"type": "unocc",
				"energy": -0.04533,
				"method": "rhf"
			},
			{
				"type": "unocc",
				"energy": -0.03721,
				"method": "rhf"
			},
			{
				"type": "unocc",
				"energy": 0.01119,
				"method": "rhf"
			},
			{
				"type": "unocc",
				"energy": 0.01796,
				"method": "rhf"
			},
			{
				"type": "unocc",
				"energy": 0.06527,
				"method": "rhf"
			}
		],
		"cosmo_sigma_profile": { 
			"-0.025": 0.0,
			"-0.024": 0.0,
			"-0.023": 0.0,
			"-0.022": 0.0,
			"-0.021": 0.0,
			"-0.02": 0.0,
			"-0.019": 0.0,
			"-0.018": 0.0,
			"-0.017": 0.0,
			"-0.016": 0.0,
			"-0.015": 0.0,
			"-0.014": 0.0,
			"-0.013": 0.0,
			"-0.012": 0.0,
			"-0.011": 0.0,
			"-0.01": 0.0,
			"-0.009": 0.0,
			"-0.008": 2.17900180873,
			"-0.007": 10.1597778709,
			"-0.006": 10.6958327799,
			"-0.005": 12.2688781931,
			"-0.004": 19.18534425,
			"-0.003": 25.5434230811,
			"-0.002": 33.942082684,
			"-0.001": 34.892638217,
			"0.0": 28.055954041,
			"0.001": 20.0810422688,
			"0.002": 12.2246832672,
			"0.003": 15.0087557019,
			"0.004": 20.040473937,
			"0.005": 21.9295527307,
			"0.006": 7.6645033572,
			"0.007": 5.46909254006,
			"0.008": 8.21605488343,
			"0.009": 4.18005157455,
			"0.01": 0.121166509522,
			"0.011": 0.0,
			"0.012": 0.0,
			"0.013": 0.0,
			"0.014": 0.0,
			"0.015": 0.0,
			"0.016": 0.0,
			"0.017": 0.0,
			"0.018": 0.0,
			"0.019": 0.0,
			"0.02": 0.0,
			"0.021": 0.0,
			"0.022": 0.0,
			"0.023": 0.0,
			"0.024": 0.0,
			"0.025": 0.0
		}
	}
}
