{
	 "smiles": "OC(=O)C1=CC=CC(=C1)C1=NC=CC=N1", 
	 "Tm": 454.15, 
	 "num_atms": 23, 
	 "gaussian": { 
		 "optdone": 1, 
		 "sigma_profile": "yes", 
		 "theory": "DFT", 
		 "functional": "B3LYP", 
		 "basiset": "6-31G**", 
		 "properties": { 
			 "R2extent": 3957.1028, 
			 "electric_dipole_moment_norm": 3.71869144324, 
			 "electric_quadrupole_moment_norm": 7.33757207528, 
			 "total_energy": -683.963573212, 
			 "HOMO_LUMO_gap": 0.1844, 
			 "cosmo_polarized_energy": -12.33, 
			 "cosmo_cavitation_energy": 28.47, 
			 "cosmo_dispersion_energy": -21.12, 
			 "cosmo_repulsion_energy": 1.63, 
			 "cosmo_total_nonelectrostatic_energy": 8.98, 
			 "SMD_solvation_energy": 4.15 
		},
		"coords": [
			{
				"x": -0.0802191301,
				"y": 1.5587387022,
				"z": 3.7913169902,
				"element": "O" 
			},
			{
				"x": 0.0545562371,
				"y": 2.6491176564,
				"z": 2.996210647,
				"element": "C" 
			},
			{
				"x": 0.195887261,
				"y": 3.7664499927,
				"z": 3.4543852805,
				"element": "O" 
			},
			{
				"x": 0.010281843,
				"y": 2.3260351743,
				"z": 1.5449831801,
				"element": "C" 
			},
			{
				"x": 0.140698339,
				"y": 3.3850499585,
				"z": 0.6350924203,
				"element": "C" 
			},
			{
				"x": 0.1049860764,
				"y": 3.1295510503,
				"z": -0.7333561773,
				"element": "C" 
			},
			{
				"x": -0.0598687485,
				"y": 1.8255251279,
				"z": -1.1988664369,
				"element": "C" 
			},
			{
				"x": -0.1913010903,
				"y": 0.758308142,
				"z": -0.2959882955,
				"element": "C" 
			},
			{
				"x": -0.1550792437,
				"y": 1.0175030658,
				"z": 1.0806518517,
				"element": "C" 
			},
			{
				"x": -0.3669335051,
				"y": -0.6306990758,
				"z": -0.7932079774,
				"element": "C" 
			},
			{
				"x": -0.3937705098,
				"y": -0.8131800681,
				"z": -2.1264769055,
				"element": "N" 
			},
			{
				"x": -0.5521298438,
				"y": -2.0646819473,
				"z": -2.561105974,
				"element": "C" 
			},
			{
				"x": -0.6855779713,
				"y": -3.1483264358,
				"z": -1.695079528,
				"element": "C" 
			},
			{
				"x": -0.644182392,
				"y": -2.8504920786,
				"z": -0.3340996265,
				"element": "C" 
			},
			{
				"x": -0.4868606515,
				"y": -1.6077110276,
				"z": 0.1244264883,
				"element": "N" 
			},
			{
				"x": -0.0361080831,
				"y": 1.8920845234,
				"z": 4.7024109846,
				"element": "H" 
			},
			{
				"x": 0.2678338262,
				"y": 4.3905096553,
				"z": 1.0218126112,
				"element": "H" 
			},
			{
				"x": 0.2056281338,
				"y": 3.946937561,
				"z": -1.4410147919,
				"element": "H" 
			},
			{
				"x": -0.0893789467,
				"y": 1.6131079522,
				"z": -2.2615166742,
				"element": "H" 
			},
			{
				"x": -0.2563873877,
				"y": 0.1948593506,
				"z": 1.7767792143,
				"element": "H" 
			},
			{
				"x": -0.572620823,
				"y": -2.2026264863,
				"z": -3.6412133893,
				"element": "H" 
			},
			{
				"x": -0.8138431322,
				"y": -4.1618152747,
				"z": -2.0580640662,
				"element": "H" 
			},
			{
				"x": -0.7403102577,
				"y": -3.6341455185,
				"z": 0.4160201746,
				"element": "H" 
			}
		],
		 "valence_orbital": [ 
			{
				"type": "occ",
				"energy": -0.30454,
				"method": "rhf"
			},
			{
				"type": "occ",
				"energy": -0.27371,
				"method": "rhf"
			},
			{
				"type": "occ",
				"energy": -0.26066,
				"method": "rhf"
			},
			{
				"type": "occ",
				"energy": -0.25434,
				"method": "rhf"
			},
			{
				"type": "occ",
				"energy": -0.24508,
				"method": "rhf"
			},
			{
				"type": "unocc",
				"energy": -0.06068,
				"method": "rhf"
			},
			{
				"type": "unocc",
				"energy": -0.049,
				"method": "rhf"
			},
			{
				"type": "unocc",
				"energy": -0.03634,
				"method": "rhf"
			},
			{
				"type": "unocc",
				"energy": 0.0156,
				"method": "rhf"
			},
			{
				"type": "unocc",
				"energy": 0.06418,
				"method": "rhf"
			}
		],
		"cosmo_sigma_profile": { 
			"-0.025": 0.0,
			"-0.024": 0.0,
			"-0.023": 0.0,
			"-0.022": 0.0,
			"-0.021": 0.0,
			"-0.02": 0.0,
			"-0.019": 0.184900867476,
			"-0.018": 1.0272898561,
			"-0.017": 0.793644235362,
			"-0.016": 0.501906253457,
			"-0.015": 0.496051074817,
			"-0.014": 0.594865196839,
			"-0.013": 0.778647646389,
			"-0.012": 1.01576602951,
			"-0.011": 0.859432767496,
			"-0.01": 0.71114832806,
			"-0.009": 0.281469204169,
			"-0.008": 5.06006146255,
			"-0.007": 10.5075467522,
			"-0.006": 11.7219387954,
			"-0.005": 11.5787622606,
			"-0.004": 9.99958002842,
			"-0.003": 10.4352739595,
			"-0.002": 13.1263783702,
			"-0.001": 19.0856948371,
			"0.0": 23.4607959453,
			"0.001": 23.0729231036,
			"0.002": 21.9411408398,
			"0.003": 16.6327019676,
			"0.004": 6.89380980911,
			"0.005": 6.28359632921,
			"0.006": 5.9823149892,
			"0.007": 6.36903021751,
			"0.008": 3.77831132863,
			"0.009": 3.6067405602,
			"0.01": 4.39249547357,
			"0.011": 4.95052158834,
			"0.012": 3.51794225048,
			"0.013": 0.0591207496799,
			"0.014": 0.0,
			"0.015": 0.0,
			"0.016": 0.0,
			"0.017": 0.0,
			"0.018": 0.0,
			"0.019": 0.0,
			"0.02": 0.0,
			"0.021": 0.0,
			"0.022": 0.0,
			"0.023": 0.0,
			"0.024": 0.0,
			"0.025": 0.0
		}
	}
}
