{
	 "smiles": "CC1=CC=C(NC(=O)C(O)C(O)C(O)=O)C=C1", 
	 "Tm": 465.15, 
	 "num_atms": 30, 
	 "gaussian": { 
		 "optdone": 1, 
		 "sigma_profile": "yes", 
		 "theory": "DFT", 
		 "functional": "B3LYP", 
		 "basiset": "6-31G**", 
		 "properties": { 
			 "R2extent": 6099.3862, 
			 "electric_dipole_moment_norm": 2.36813407137, 
			 "electric_quadrupole_moment_norm": 7.64371695708, 
			 "total_energy": -857.893507679, 
			 "HOMO_LUMO_gap": 0.21879, 
			 "cosmo_polarized_energy": -18.78, 
			 "cosmo_cavitation_energy": 34.23, 
			 "cosmo_dispersion_energy": -23.77, 
			 "cosmo_repulsion_energy": 1.87, 
			 "cosmo_total_nonelectrostatic_energy": 12.32, 
			 "SMD_solvation_energy": 7.29 
		},
		"coords": [
			{
				"x": 0.1792444799,
				"y": -2.2120674974,
				"z": -3.2662880147,
				"element": "C" 
			},
			{
				"x": 0.3831870859,
				"y": -1.5336460868,
				"z": -1.932314834,
				"element": "C" 
			},
			{
				"x": -0.7048519548,
				"y": -1.1611102877,
				"z": -1.1338223327,
				"element": "C" 
			},
			{
				"x": -0.5177551664,
				"y": -0.5670498766,
				"z": 0.1143846557,
				"element": "C" 
			},
			{
				"x": 0.7751921513,
				"y": -0.3004878125,
				"z": 0.5745354503,
				"element": "C" 
			},
			{
				"x": 0.9926463504,
				"y": 0.2838770453,
				"z": 1.8588957043,
				"element": "N" 
			},
			{
				"x": 0.5380568994,
				"y": 1.4673589742,
				"z": 2.3602824454,
				"element": "C" 
			},
			{
				"x": 0.7049555943,
				"y": 1.7730312232,
				"z": 3.5411005341,
				"element": "O" 
			},
			{
				"x": -0.1462003155,
				"y": 2.4904122254,
				"z": 1.4421647889,
				"element": "C" 
			},
			{
				"x": -1.2177050382,
				"y": 3.0819745708,
				"z": 2.1310279864,
				"element": "O" 
			},
			{
				"x": 0.8995807052,
				"y": 3.5513552528,
				"z": 0.9681757738,
				"element": "C" 
			},
			{
				"x": 1.81862076,
				"y": 2.9606470781,
				"z": 0.0840628896,
				"element": "O" 
			},
			{
				"x": 1.6628681171,
				"y": 4.1897429701,
				"z": 2.1232322372,
				"element": "C" 
			},
			{
				"x": 0.8968904249,
				"y": 4.9087619126,
				"z": 2.9581722733,
				"element": "O" 
			},
			{
				"x": 2.8655363651,
				"y": 4.0662088202,
				"z": 2.2484357997,
				"element": "O" 
			},
			{
				"x": 1.8724513087,
				"y": -0.6624283237,
				"z": -0.2132345392,
				"element": "C" 
			},
			{
				"x": 1.6736647458,
				"y": -1.2779221926,
				"z": -1.4460904681,
				"element": "C" 
			},
			{
				"x": 0.339129363,
				"y": -3.2947430512,
				"z": -3.1894952376,
				"element": "H" 
			},
			{
				"x": 0.8805959735,
				"y": -1.835047794,
				"z": -4.0174852573,
				"element": "H" 
			},
			{
				"x": -0.8353989502,
				"y": -2.0565362172,
				"z": -3.6432238966,
				"element": "H" 
			},
			{
				"x": -1.7159560258,
				"y": -1.351958401,
				"z": -1.4838734313,
				"element": "H" 
			},
			{
				"x": -1.3715269994,
				"y": -0.3153402897,
				"z": 0.7363929662,
				"element": "H" 
			},
			{
				"x": 1.5275441259,
				"y": -0.2497341249,
				"z": 2.535371858,
				"element": "H" 
			},
			{
				"x": -0.5386689226,
				"y": 2.0348889478,
				"z": 0.5320637362,
				"element": "H" 
			},
			{
				"x": -0.9000817133,
				"y": 3.2174680782,
				"z": 3.0392963161,
				"element": "H" 
			},
			{
				"x": 0.3197551261,
				"y": 4.3393329634,
				"z": 0.4671750887,
				"element": "H" 
			},
			{
				"x": 2.6904932834,
				"y": 3.061573727,
				"z": 0.5039252948,
				"element": "H" 
			},
			{
				"x": 1.4790786501,
				"y": 5.2168649446,
				"z": 3.6739590065,
				"element": "H" 
			},
			{
				"x": 2.876183598,
				"y": -0.4433901244,
				"z": 0.1381127226,
				"element": "H" 
			},
			{
				"x": 2.5361699784,
				"y": -1.5503366541,
				"z": -2.0491395162,
				"element": "H" 
			}
		],
		 "valence_orbital": [ 
			{
				"type": "occ",
				"energy": -0.28534,
				"method": "rhf"
			},
			{
				"type": "occ",
				"energy": -0.27048,
				"method": "rhf"
			},
			{
				"type": "occ",
				"energy": -0.26061,
				"method": "rhf"
			},
			{
				"type": "occ",
				"energy": -0.25317,
				"method": "rhf"
			},
			{
				"type": "occ",
				"energy": -0.23705,
				"method": "rhf"
			},
			{
				"type": "unocc",
				"energy": -0.01826,
				"method": "rhf"
			},
			{
				"type": "unocc",
				"energy": -0.01434,
				"method": "rhf"
			},
			{
				"type": "unocc",
				"energy": -0.00405,
				"method": "rhf"
			},
			{
				"type": "unocc",
				"energy": 0.01546,
				"method": "rhf"
			},
			{
				"type": "unocc",
				"energy": 0.06865,
				"method": "rhf"
			}
		],
		"cosmo_sigma_profile": { 
			"-0.025": 0.0,
			"-0.024": 0.0,
			"-0.023": 0.0,
			"-0.022": 0.0,
			"-0.021": 0.0,
			"-0.02": 6.82910555448e-05,
			"-0.019": 1.15781526554,
			"-0.018": 0.701488021224,
			"-0.017": 0.71816991199,
			"-0.016": 0.938393420057,
			"-0.015": 0.998026624988,
			"-0.014": 2.03237218039,
			"-0.013": 1.85201529141,
			"-0.012": 2.52168268407,
			"-0.011": 2.09594843035,
			"-0.01": 1.95734445629,
			"-0.009": 2.31820981268,
			"-0.008": 3.69373510221,
			"-0.007": 6.62687065442,
			"-0.006": 13.5661035436,
			"-0.005": 17.8638211164,
			"-0.004": 21.3494740809,
			"-0.003": 17.8752407016,
			"-0.002": 19.3046604264,
			"-0.001": 17.6578634637,
			"0.0": 20.1972970793,
			"0.001": 14.2671659903,
			"0.002": 12.0493828317,
			"0.003": 12.051330912,
			"0.004": 12.0620489864,
			"0.005": 13.4661918932,
			"0.006": 6.67363546355,
			"0.007": 6.57002250448,
			"0.008": 6.25713795693,
			"0.009": 5.97042629574,
			"0.01": 7.31770101751,
			"0.011": 6.9134095462,
			"0.012": 5.1463801157,
			"0.013": 5.22026507093,
			"0.014": 0.535607712955,
			"0.015": 0.0,
			"0.016": 0.0,
			"0.017": 0.0,
			"0.018": 0.0,
			"0.019": 0.0,
			"0.02": 0.0,
			"0.021": 0.0,
			"0.022": 0.0,
			"0.023": 0.0,
			"0.024": 0.0,
			"0.025": 0.0
		}
	}
}
