{
	 "smiles": "COC1=CC2=C(CC2)C=C1OC", 
	 "Tm": 364.15, 
	 "num_atms": 24, 
	 "gaussian": { 
		 "optdone": 1, 
		 "sigma_profile": "yes", 
		 "theory": "DFT", 
		 "functional": "B3LYP", 
		 "basiset": "6-31G**", 
		 "properties": { 
			 "R2extent": 4100.1732, 
			 "electric_dipole_moment_norm": 0.276998267143, 
			 "electric_quadrupole_moment_norm": 6.54504373782, 
			 "total_energy": -538.672821269, 
			 "HOMO_LUMO_gap": 0.21457, 
			 "cosmo_polarized_energy": -5.31, 
			 "cosmo_cavitation_energy": 26.78, 
			 "cosmo_dispersion_energy": -19.59, 
			 "cosmo_repulsion_energy": 1.6, 
			 "cosmo_total_nonelectrostatic_energy": 8.79, 
			 "SMD_solvation_energy": 5.54 
		},
		"coords": [
			{
				"x": -1.3618436815,
				"y": -1.5907712763,
				"z": 2.6266227103,
				"element": "C" 
			},
			{
				"x": -0.2692309508,
				"y": -1.636881405,
				"z": 1.7029477731,
				"element": "O" 
			},
			{
				"x": 0.6037857961,
				"y": -0.5705739094,
				"z": 1.7881758882,
				"element": "C" 
			},
			{
				"x": 0.6206167791,
				"y": 0.3637552571,
				"z": 0.7415031362,
				"element": "C" 
			},
			{
				"x": 1.5348308671,
				"y": 1.4016387061,
				"z": 0.855564669,
				"element": "C" 
			},
			{
				"x": 2.3874117167,
				"y": 1.5248937157,
				"z": 1.950987821,
				"element": "C" 
			},
			{
				"x": 3.031181202,
				"y": 2.8005677913,
				"z": 1.4263564172,
				"element": "C" 
			},
			{
				"x": 2.0646863667,
				"y": 2.6594702274,
				"z": 0.1816762426,
				"element": "C" 
			},
			{
				"x": 2.3951258531,
				"y": 0.6057577701,
				"z": 2.9907595146,
				"element": "C" 
			},
			{
				"x": 1.4862558936,
				"y": -0.458406164,
				"z": 2.8893800071,
				"element": "C" 
			},
			{
				"x": 1.4381353912,
				"y": -1.3812860204,
				"z": 3.9153203876,
				"element": "O" 
			},
			{
				"x": 1.953914312,
				"y": -2.6741533151,
				"z": 3.5813643516,
				"element": "C" 
			},
			{
				"x": -1.9610787374,
				"y": -2.4843274421,
				"z": 2.4380007906,
				"element": "H" 
			},
			{
				"x": -1.0079652631,
				"y": -1.594992926,
				"z": 3.6622725414,
				"element": "H" 
			},
			{
				"x": -1.9791297956,
				"y": -0.6995154808,
				"z": 2.4549565448,
				"element": "H" 
			},
			{
				"x": -0.0662854023,
				"y": 0.2353181862,
				"z": -0.089625531,
				"element": "H" 
			},
			{
				"x": 2.868512917,
				"y": 3.6995767852,
				"z": 2.0305802354,
				"element": "H" 
			},
			{
				"x": 4.0977021499,
				"y": 2.7332899893,
				"z": 1.1859602494,
				"element": "H" 
			},
			{
				"x": 2.5737482609,
				"y": 2.5082599694,
				"z": -0.7763185568,
				"element": "H" 
			},
			{
				"x": 1.346321267,
				"y": 3.4782992506,
				"z": 0.0665753164,
				"element": "H" 
			},
			{
				"x": 3.0475796688,
				"y": 0.6598220781,
				"z": 3.8570649025,
				"element": "H" 
			},
			{
				"x": 1.3879466409,
				"y": -3.1291907927,
				"z": 2.7625440265,
				"element": "H" 
			},
			{
				"x": 3.0134522545,
				"y": -2.6100764543,
				"z": 3.3018673593,
				"element": "H" 
			},
			{
				"x": 1.8563264938,
				"y": -3.2853745406,
				"z": 4.4813632031,
				"element": "H" 
			}
		],
		 "valence_orbital": [ 
			{
				"type": "occ",
				"energy": -0.31382,
				"method": "rhf"
			},
			{
				"type": "occ",
				"energy": -0.28523,
				"method": "rhf"
			},
			{
				"type": "occ",
				"energy": -0.2573,
				"method": "rhf"
			},
			{
				"type": "occ",
				"energy": -0.23848,
				"method": "rhf"
			},
			{
				"type": "occ",
				"energy": -0.21555,
				"method": "rhf"
			},
			{
				"type": "unocc",
				"energy": -0.00098,
				"method": "rhf"
			},
			{
				"type": "unocc",
				"energy": 0.014,
				"method": "rhf"
			},
			{
				"type": "unocc",
				"energy": 0.09208,
				"method": "rhf"
			},
			{
				"type": "unocc",
				"energy": 0.11275,
				"method": "rhf"
			},
			{
				"type": "unocc",
				"energy": 0.12559,
				"method": "rhf"
			}
		],
		"cosmo_sigma_profile": { 
			"-0.025": 0.0,
			"-0.024": 0.0,
			"-0.023": 0.0,
			"-0.022": 0.0,
			"-0.021": 0.0,
			"-0.02": 0.0,
			"-0.019": 0.0,
			"-0.018": 0.0,
			"-0.017": 0.0,
			"-0.016": 0.0,
			"-0.015": 0.0,
			"-0.014": 0.0,
			"-0.013": 0.0,
			"-0.012": 0.0,
			"-0.011": 0.0,
			"-0.01": 0.0,
			"-0.009": 0.0,
			"-0.008": 0.0,
			"-0.007": 0.0176711627702,
			"-0.006": 3.2235455725,
			"-0.005": 8.59386709561,
			"-0.004": 20.1060130553,
			"-0.003": 25.4634509754,
			"-0.002": 31.3915954021,
			"-0.001": 22.460170068,
			"0.0": 24.8789965685,
			"0.001": 15.934921886,
			"0.002": 11.0371118783,
			"0.003": 10.6048907988,
			"0.004": 12.2834670487,
			"0.005": 10.5983277751,
			"0.006": 3.20510378674,
			"0.007": 2.15589756368,
			"0.008": 2.16025390455,
			"0.009": 2.13780055595,
			"0.01": 1.64676773434,
			"0.011": 1.80241814735,
			"0.012": 2.03471382059,
			"0.013": 0.162628035706,
			"0.014": 0.0,
			"0.015": 0.0,
			"0.016": 0.0,
			"0.017": 0.0,
			"0.018": 0.0,
			"0.019": 0.0,
			"0.02": 0.0,
			"0.021": 0.0,
			"0.022": 0.0,
			"0.023": 0.0,
			"0.024": 0.0,
			"0.025": 0.0
		}
	}
}
