{
	 "smiles": "CC(C)(CCC(C)(C)OO)OO", 
	 "Tm": 378.15, 
	 "num_atms": 30, 
	 "gaussian": { 
		 "optdone": 1, 
		 "sigma_profile": "yes", 
		 "theory": "DFT", 
		 "functional": "B3LYP", 
		 "basiset": "6-31G**", 
		 "properties": { 
			 "R2extent": 2794.5236, 
			 "electric_dipole_moment_norm": 3.47391045509, 
			 "electric_quadrupole_moment_norm": 10.7512258227, 
			 "total_energy": -616.422374628, 
			 "HOMO_LUMO_gap": 0.24892, 
			 "cosmo_polarized_energy": -11.09, 
			 "cosmo_cavitation_energy": 29.91, 
			 "cosmo_dispersion_energy": -21.03, 
			 "cosmo_repulsion_energy": 1.67, 
			 "cosmo_total_nonelectrostatic_energy": 10.56, 
			 "SMD_solvation_energy": 4.7 
		},
		"coords": [
			{
				"x": -0.4782419525,
				"y": 0.7916051333,
				"z": -2.4671497636,
				"element": "C" 
			},
			{
				"x": -0.2480577094,
				"y": -0.693028937,
				"z": -2.1703590216,
				"element": "C" 
			},
			{
				"x": 0.4546910068,
				"y": -1.3807420324,
				"z": -3.351083842,
				"element": "C" 
			},
			{
				"x": 0.5623432308,
				"y": -0.9530390736,
				"z": -0.875267063,
				"element": "C" 
			},
			{
				"x": 0.1979913348,
				"y": -0.1204884072,
				"z": 0.3715733782,
				"element": "C" 
			},
			{
				"x": 0.4206291572,
				"y": -0.8611131957,
				"z": 1.7078240489,
				"element": "C" 
			},
			{
				"x": -0.0562697775,
				"y": -0.0167184934,
				"z": 2.8934905077,
				"element": "C" 
			},
			{
				"x": 1.8742382769,
				"y": -1.3119818236,
				"z": 1.9024119169,
				"element": "C" 
			},
			{
				"x": -0.2751891524,
				"y": -2.1356803042,
				"z": 1.6929661921,
				"element": "O" 
			},
			{
				"x": -1.7010201553,
				"y": -1.8784188476,
				"z": 1.4706700679,
				"element": "O" 
			},
			{
				"x": -1.5069479874,
				"y": -1.4076478771,
				"z": -2.1487551525,
				"element": "O" 
			},
			{
				"x": -2.3951368707,
				"y": -0.8575517941,
				"z": -1.1371428858,
				"element": "O" 
			},
			{
				"x": -1.1108395903,
				"y": 1.2497902732,
				"z": -1.7053383382,
				"element": "H" 
			},
			{
				"x": 0.4748260369,
				"y": 1.3307548164,
				"z": -2.5015913739,
				"element": "H" 
			},
			{
				"x": -0.9763826824,
				"y": 0.9066477112,
				"z": -3.434291437,
				"element": "H" 
			},
			{
				"x": 1.4127334995,
				"y": -0.8937074131,
				"z": -3.555345047,
				"element": "H" 
			},
			{
				"x": 0.6402241293,
				"y": -2.4367166783,
				"z": -3.1327889859,
				"element": "H" 
			},
			{
				"x": -0.1667114535,
				"y": -1.3181961459,
				"z": -4.2484330296,
				"element": "H" 
			},
			{
				"x": 0.4370691392,
				"y": -2.0171855402,
				"z": -0.6471970195,
				"element": "H" 
			},
			{
				"x": 1.6240179423,
				"y": -0.8083602388,
				"z": -1.1095479761,
				"element": "H" 
			},
			{
				"x": 0.7819820419,
				"y": 0.807286547,
				"z": 0.4011345546,
				"element": "H" 
			},
			{
				"x": -0.8501428076,
				"y": 0.178154808,
				"z": 0.3307178474,
				"element": "H" 
			},
			{
				"x": 0.0950166675,
				"y": -0.5563536797,
				"z": 3.8337709736,
				"element": "H" 
			},
			{
				"x": -1.1175596566,
				"y": 0.2215753611,
				"z": 2.7932807462,
				"element": "H" 
			},
			{
				"x": 0.5026569555,
				"y": 0.9228575473,
				"z": 2.9436209897,
				"element": "H" 
			},
			{
				"x": 1.9859141269,
				"y": -1.8568015835,
				"z": 2.8442286522,
				"element": "H" 
			},
			{
				"x": 2.5259207637,
				"y": -0.4337222079,
				"z": 1.9325936328,
				"element": "H" 
			},
			{
				"x": 2.2039698231,
				"y": -1.960916098,
				"z": 1.0879575351,
				"element": "H" 
			},
			{
				"x": -2.0760287439,
				"y": -2.4777619016,
				"z": 2.1332083121,
				"element": "H" 
			},
			{
				"x": -2.2204955929,
				"y": -1.4553399245,
				"z": -0.3845584197,
				"element": "H" 
			}
		],
		 "valence_orbital": [ 
			{
				"type": "occ",
				"energy": -0.31417,
				"method": "rhf"
			},
			{
				"type": "occ",
				"energy": -0.30942,
				"method": "rhf"
			},
			{
				"type": "occ",
				"energy": -0.26402,
				"method": "rhf"
			},
			{
				"type": "occ",
				"energy": -0.25899,
				"method": "rhf"
			},
			{
				"type": "occ",
				"energy": -0.24392,
				"method": "rhf"
			},
			{
				"type": "unocc",
				"energy": 0.005,
				"method": "rhf"
			},
			{
				"type": "unocc",
				"energy": 0.05185,
				"method": "rhf"
			},
			{
				"type": "unocc",
				"energy": 0.06605,
				"method": "rhf"
			},
			{
				"type": "unocc",
				"energy": 0.0957,
				"method": "rhf"
			},
			{
				"type": "unocc",
				"energy": 0.10379,
				"method": "rhf"
			}
		],
		"cosmo_sigma_profile": { 
			"-0.025": 0.0,
			"-0.024": 0.0,
			"-0.023": 0.0,
			"-0.022": 0.0,
			"-0.021": 0.0,
			"-0.02": 0.0,
			"-0.019": 0.0,
			"-0.018": 0.570101493444,
			"-0.017": 1.05408049802,
			"-0.016": 1.29865935512,
			"-0.015": 0.570910409694,
			"-0.014": 1.1024170193,
			"-0.013": 0.39694159415,
			"-0.012": 0.206949732793,
			"-0.011": 0.676170618408,
			"-0.01": 0.438010209776,
			"-0.009": 1.0732261976,
			"-0.008": 1.0929958561,
			"-0.007": 1.22577110585,
			"-0.006": 0.243609340155,
			"-0.005": 1.82310739093,
			"-0.004": 14.7410118586,
			"-0.003": 29.9837210293,
			"-0.002": 31.3618471004,
			"-0.001": 30.7797363288,
			"0.0": 33.8504339959,
			"0.001": 24.7116898527,
			"0.002": 7.65196204989,
			"0.003": 6.38012046839,
			"0.004": 5.01462888568,
			"0.005": 4.87012803283,
			"0.006": 3.83200828855,
			"0.007": 3.35739582587,
			"0.008": 3.65780447923,
			"0.009": 3.54547721714,
			"0.01": 4.1660084414,
			"0.011": 3.64517034085,
			"0.012": 3.64195710292,
			"0.013": 2.53858843606,
			"0.014": 0.214273291132,
			"0.015": 0.0,
			"0.016": 0.0,
			"0.017": 0.0,
			"0.018": 0.0,
			"0.019": 0.0,
			"0.02": 0.0,
			"0.021": 0.0,
			"0.022": 0.0,
			"0.023": 0.0,
			"0.024": 0.0,
			"0.025": 0.0
		}
	}
}
