{
	 "smiles": "CC(=O)C1=C(C)C=C(O)C=C1", 
	 "Tm": 401.15, 
	 "num_atms": 21, 
	 "gaussian": { 
		 "optdone": 1, 
		 "sigma_profile": "yes", 
		 "theory": "DFT", 
		 "functional": "B3LYP", 
		 "basiset": "6-31G**", 
		 "properties": { 
			 "R2extent": 2129.2899, 
			 "electric_dipole_moment_norm": 3.93130533157, 
			 "electric_quadrupole_moment_norm": 3.04491119411, 
			 "total_energy": -499.438091524, 
			 "HOMO_LUMO_gap": 0.18812, 
			 "cosmo_polarized_energy": -12.25, 
			 "cosmo_cavitation_energy": 24.4, 
			 "cosmo_dispersion_energy": -18.04, 
			 "cosmo_repulsion_energy": 1.43, 
			 "cosmo_total_nonelectrostatic_energy": 7.79, 
			 "SMD_solvation_energy": 5.22 
		},
		"coords": [
			{
				"x": -2.0557887009,
				"y": -1.107088631,
				"z": 1.332885332,
				"element": "C" 
			},
			{
				"x": -1.7312317887,
				"y": 0.2156470933,
				"z": 0.642551714,
				"element": "C" 
			},
			{
				"x": -2.6504651843,
				"y": 0.9764983281,
				"z": 0.3637983166,
				"element": "O" 
			},
			{
				"x": -0.3088555531,
				"y": 0.5366402407,
				"z": 0.3312435588,
				"element": "C" 
			},
			{
				"x": 0.0678916111,
				"y": 1.7518834287,
				"z": -0.3120182479,
				"element": "C" 
			},
			{
				"x": -0.9199246419,
				"y": 2.8131540589,
				"z": -0.7332663555,
				"element": "C" 
			},
			{
				"x": 1.419503186,
				"y": 1.9802447507,
				"z": -0.5697734457,
				"element": "C" 
			},
			{
				"x": 2.4058108281,
				"y": 1.0538660013,
				"z": -0.2155167274,
				"element": "C" 
			},
			{
				"x": 3.695628407,
				"y": 1.3714491384,
				"z": -0.5108971253,
				"element": "O" 
			},
			{
				"x": 2.0436422605,
				"y": -0.1398419291,
				"z": 0.4154234523,
				"element": "C" 
			},
			{
				"x": 0.70098437,
				"y": -0.378824932,
				"z": 0.6774963606,
				"element": "C" 
			},
			{
				"x": -1.732828651,
				"y": -1.9644656808,
				"z": 0.7325577185,
				"element": "H" 
			},
			{
				"x": -1.5641085399,
				"y": -1.1831839821,
				"z": 2.308703799,
				"element": "H" 
			},
			{
				"x": -3.1360697325,
				"y": -1.1545835762,
				"z": 1.4720339204,
				"element": "H" 
			},
			{
				"x": -0.3948627405,
				"y": 3.6485435494,
				"z": -1.2051638983,
				"element": "H" 
			},
			{
				"x": -1.4931800643,
				"y": 3.1870838872,
				"z": 0.118867296,
				"element": "H" 
			},
			{
				"x": -1.6604207906,
				"y": 2.4158206931,
				"z": -1.4320259864,
				"element": "H" 
			},
			{
				"x": 1.7339006785,
				"y": 2.8971071564,
				"z": -1.0583742395,
				"element": "H" 
			},
			{
				"x": 4.2761526114,
				"y": 0.6564651735,
				"z": -0.2182976467,
				"element": "H" 
			},
			{
				"x": 2.800089897,
				"y": -0.8691159524,
				"z": 0.6963855215,
				"element": "H" 
			},
			{
				"x": 0.4352325382,
				"y": -1.308698816,
				"z": 1.1671866829,
				"element": "H" 
			}
		],
		 "valence_orbital": [ 
			{
				"type": "occ",
				"energy": -0.34161,
				"method": "rhf"
			},
			{
				"type": "occ",
				"energy": -0.32796,
				"method": "rhf"
			},
			{
				"type": "occ",
				"energy": -0.25275,
				"method": "rhf"
			},
			{
				"type": "occ",
				"energy": -0.23633,
				"method": "rhf"
			},
			{
				"type": "occ",
				"energy": -0.23128,
				"method": "rhf"
			},
			{
				"type": "unocc",
				"energy": -0.04316,
				"method": "rhf"
			},
			{
				"type": "unocc",
				"energy": -0.00672,
				"method": "rhf"
			},
			{
				"type": "unocc",
				"energy": 0.05014,
				"method": "rhf"
			},
			{
				"type": "unocc",
				"energy": 0.06139,
				"method": "rhf"
			},
			{
				"type": "unocc",
				"energy": 0.09166,
				"method": "rhf"
			}
		],
		"cosmo_sigma_profile": { 
			"-0.025": 0.0,
			"-0.024": 0.0,
			"-0.023": 0.0,
			"-0.022": 0.0,
			"-0.021": 0.0,
			"-0.02": 0.0,
			"-0.019": 0.0184750295203,
			"-0.018": 0.788179157103,
			"-0.017": 1.50585870132,
			"-0.016": 0.748530234131,
			"-0.015": 1.21713714718,
			"-0.014": 0.963416043136,
			"-0.013": 1.17800153642,
			"-0.012": 1.15076990738,
			"-0.011": 0.490657523488,
			"-0.01": 1.12967686213,
			"-0.009": 1.15110981721,
			"-0.008": 0.859355486378,
			"-0.007": 2.45302353304,
			"-0.006": 8.4879315378,
			"-0.005": 12.9812613547,
			"-0.004": 11.5335537797,
			"-0.003": 13.8206577456,
			"-0.002": 13.2700134295,
			"-0.001": 16.4482586655,
			"0.0": 16.8768850218,
			"0.001": 14.60044181,
			"0.002": 12.2399079493,
			"0.003": 13.5402076721,
			"0.004": 15.2171196986,
			"0.005": 5.38606545354,
			"0.006": 3.04127708081,
			"0.007": 3.10912918038,
			"0.008": 3.05638671035,
			"0.009": 2.62518489312,
			"0.01": 3.99438733779,
			"0.011": 3.12807989476,
			"0.012": 2.3824058213,
			"0.013": 2.62158297775,
			"0.014": 1.10070189911,
			"0.015": 0.00537920098613,
			"0.016": 0.0,
			"0.017": 0.0,
			"0.018": 0.0,
			"0.019": 0.0,
			"0.02": 0.0,
			"0.021": 0.0,
			"0.022": 0.0,
			"0.023": 0.0,
			"0.024": 0.0,
			"0.025": 0.0
		}
	}
}
