{
	 "smiles": "FC(F)(F)C1=C(C=CC(=C1)C#N)S(Cl)(=O)=O", 
	 "Tm": 344.15, 
	 "num_atms": 19, 
	 "gaussian": { 
		 "optdone": 1, 
		 "sigma_profile": "yes", 
		 "theory": "DFT", 
		 "functional": "B3LYP", 
		 "basiset": "6-31G**", 
		 "properties": { 
			 "R2extent": 4341.79, 
			 "electric_dipole_moment_norm": 1.62416772841, 
			 "electric_quadrupole_moment_norm": 22.0509218138, 
			 "total_energy": -1669.65574007, 
			 "HOMO_LUMO_gap": 0.19513, 
			 "cosmo_polarized_energy": -13.1, 
			 "cosmo_cavitation_energy": 29.33, 
			 "cosmo_dispersion_energy": -21.05, 
			 "cosmo_repulsion_energy": 1.52, 
			 "cosmo_total_nonelectrostatic_energy": 9.8, 
			 "SMD_solvation_energy": 6.27 
		},
		"coords": [
			{
				"x": 1.5344128242,
				"y": 2.1887885771,
				"z": 1.5874245637,
				"element": "F" 
			},
			{
				"x": 0.4752021729,
				"y": 2.0619547854,
				"z": 0.7599176515,
				"element": "C" 
			},
			{
				"x": 0.5253154374,
				"y": 3.0906260316,
				"z": -0.1100744888,
				"element": "F" 
			},
			{
				"x": -0.6303158707,
				"y": 2.1949918026,
				"z": 1.4992526747,
				"element": "F" 
			},
			{
				"x": 0.5494360283,
				"y": 0.7392801684,
				"z": 0.0064939409,
				"element": "C" 
			},
			{
				"x": -0.5350173229,
				"y": 0.0384090914,
				"z": -0.5599127896,
				"element": "C" 
			},
			{
				"x": -0.3192864798,
				"y": -1.1120977883,
				"z": -1.3243666095,
				"element": "C" 
			},
			{
				"x": 0.9695270738,
				"y": -1.5898263222,
				"z": -1.5364635307,
				"element": "C" 
			},
			{
				"x": 2.0561939224,
				"y": -0.9077317937,
				"z": -0.978004005,
				"element": "C" 
			},
			{
				"x": 1.8368644608,
				"y": 0.2497416251,
				"z": -0.2178245246,
				"element": "C" 
			},
			{
				"x": 3.3939880816,
				"y": -1.3839709287,
				"z": -1.1821806722,
				"element": "C" 
			},
			{
				"x": 4.4766366455,
				"y": -1.7724796961,
				"z": -1.3497513656,
				"element": "N" 
			},
			{
				"x": -2.3095385655,
				"y": 0.4004000606,
				"z": -0.3245300049,
				"element": "S" 
			},
			{
				"x": -2.4801666103,
				"y": 2.3411417092,
				"z": -1.1287789532,
				"element": "Cl" 
			},
			{
				"x": -2.6337460679,
				"y": 0.4587948425,
				"z": 1.0913042385,
				"element": "O" 
			},
			{
				"x": -3.047605625,
				"y": -0.4702173833,
				"z": -1.2310693009,
				"element": "O" 
			},
			{
				"x": -1.1695700939,
				"y": -1.627848368,
				"z": -1.7525305967,
				"element": "H" 
			},
			{
				"x": 1.1306469907,
				"y": -2.4832515519,
				"z": -2.129164064,
				"element": "H" 
			},
			{
				"x": 2.6817229983,
				"y": 0.7756951382,
				"z": 0.2084578365,
				"element": "H" 
			}
		],
		 "valence_orbital": [ 
			{
				"type": "occ",
				"energy": -0.35352,
				"method": "rhf"
			},
			{
				"type": "occ",
				"energy": -0.35146,
				"method": "rhf"
			},
			{
				"type": "occ",
				"energy": -0.33068,
				"method": "rhf"
			},
			{
				"type": "occ",
				"energy": -0.32356,
				"method": "rhf"
			},
			{
				"type": "occ",
				"energy": -0.31197,
				"method": "rhf"
			},
			{
				"type": "unocc",
				"energy": -0.11684,
				"method": "rhf"
			},
			{
				"type": "unocc",
				"energy": -0.09097,
				"method": "rhf"
			},
			{
				"type": "unocc",
				"energy": -0.07724,
				"method": "rhf"
			},
			{
				"type": "unocc",
				"energy": 0.00268,
				"method": "rhf"
			},
			{
				"type": "unocc",
				"energy": 0.0094,
				"method": "rhf"
			}
		],
		"cosmo_sigma_profile": { 
			"-0.025": 0.0,
			"-0.024": 0.0,
			"-0.023": 0.0,
			"-0.022": 0.0,
			"-0.021": 0.0,
			"-0.02": 0.0,
			"-0.019": 0.0,
			"-0.018": 0.0,
			"-0.017": 0.0,
			"-0.016": 0.0,
			"-0.015": 0.0,
			"-0.014": 0.0,
			"-0.013": 0.0,
			"-0.012": 0.0,
			"-0.011": 0.80515625771,
			"-0.01": 5.20248661729,
			"-0.009": 6.9123667134,
			"-0.008": 5.51496412566,
			"-0.007": 6.7239568239,
			"-0.006": 7.78680079742,
			"-0.005": 10.5854764122,
			"-0.004": 20.3647600431,
			"-0.003": 20.4168257821,
			"-0.002": 13.1311232279,
			"-0.001": 10.2570217539,
			"0.0": 12.5318166351,
			"0.001": 21.6329029343,
			"0.002": 35.3689063702,
			"0.003": 11.7696000742,
			"0.004": 6.16130288039,
			"0.005": 6.31242373146,
			"0.006": 8.23668881767,
			"0.007": 11.3390325963,
			"0.008": 10.6469200131,
			"0.009": 3.11270332156,
			"0.01": 2.69624400224,
			"0.011": 2.33349861402,
			"0.012": 1.08267547889,
			"0.013": 0.0,
			"0.014": 0.0,
			"0.015": 0.0,
			"0.016": 0.0,
			"0.017": 0.0,
			"0.018": 0.0,
			"0.019": 0.0,
			"0.02": 0.0,
			"0.021": 0.0,
			"0.022": 0.0,
			"0.023": 0.0,
			"0.024": 0.0,
			"0.025": 0.0
		}
	}
}
