{
	 "smiles": "COC(=O)COC1=C(C)C=C(Cl)C(N)=C1", 
	 "Tm": 362.15, 
	 "num_atms": 27, 
	 "gaussian": { 
		 "optdone": 1, 
		 "sigma_profile": "yes", 
		 "theory": "DFT", 
		 "functional": "B3LYP", 
		 "basiset": "6-31G**", 
		 "properties": { 
			 "R2extent": 4830.2217, 
			 "electric_dipole_moment_norm": 4.16272535006, 
			 "electric_quadrupole_moment_norm": 13.6275072563, 
			 "total_energy": -1128.9136842, 
			 "HOMO_LUMO_gap": 0.19347, 
			 "cosmo_polarized_energy": -15.1, 
			 "cosmo_cavitation_energy": 32.96, 
			 "cosmo_dispersion_energy": -23.56, 
			 "cosmo_repulsion_energy": 1.9, 
			 "cosmo_total_nonelectrostatic_energy": 11.3, 
			 "SMD_solvation_energy": 7.05 
		},
		"coords": [
			{
				"x": -4.730143994,
				"y": 1.8270789569,
				"z": 1.1753258822,
				"element": "C" 
			},
			{
				"x": -3.4584626412,
				"y": 2.4255219181,
				"z": 0.86508874,
				"element": "O" 
			},
			{
				"x": -2.6172767977,
				"y": 1.6534711322,
				"z": 0.1432866842,
				"element": "C" 
			},
			{
				"x": -2.8549122199,
				"y": 0.5261768767,
				"z": -0.2155380919,
				"element": "O" 
			},
			{
				"x": -1.3474133276,
				"y": 2.445600353,
				"z": -0.167403605,
				"element": "C" 
			},
			{
				"x": -0.3667075836,
				"y": 1.6761071114,
				"z": -0.8139193338,
				"element": "O" 
			},
			{
				"x": 0.4039307726,
				"y": 0.8039021189,
				"z": -0.082803352,
				"element": "C" 
			},
			{
				"x": 1.3986235898,
				"y": 0.1362312847,
				"z": -0.8255316038,
				"element": "C" 
			},
			{
				"x": 1.543940035,
				"y": 0.3763673143,
				"z": -2.3063026966,
				"element": "C" 
			},
			{
				"x": 2.2258774272,
				"y": -0.7437866987,
				"z": -0.1331068103,
				"element": "C" 
			},
			{
				"x": 2.0815391723,
				"y": -0.9603077011,
				"z": 1.2362562221,
				"element": "C" 
			},
			{
				"x": 3.1571769146,
				"y": -2.1034943983,
				"z": 2.0474166837,
				"element": "Cl" 
			},
			{
				"x": 1.0913901051,
				"y": -0.3015406105,
				"z": 1.9786716621,
				"element": "C" 
			},
			{
				"x": 0.961166574,
				"y": -0.4663014276,
				"z": 3.3528878449,
				"element": "N" 
			},
			{
				"x": 0.2510101714,
				"y": 0.5905665048,
				"z": 1.2843273816,
				"element": "C" 
			},
			{
				"x": -5.2693832505,
				"y": 1.5760167035,
				"z": 0.2586805121,
				"element": "H" 
			},
			{
				"x": -5.2761549218,
				"y": 2.5757947414,
				"z": 1.7485657009,
				"element": "H" 
			},
			{
				"x": -4.5921000897,
				"y": 0.9168685995,
				"z": 1.7638883894,
				"element": "H" 
			},
			{
				"x": -0.9750515658,
				"y": 2.9225956018,
				"z": 0.74795389,
				"element": "H" 
			},
			{
				"x": -1.6160678838,
				"y": 3.2465317102,
				"z": -0.8639337545,
				"element": "H" 
			},
			{
				"x": 1.7545353403,
				"y": 1.4296112428,
				"z": -2.523540934,
				"element": "H" 
			},
			{
				"x": 2.3579104456,
				"y": -0.2264564663,
				"z": -2.7176492254,
				"element": "H" 
			},
			{
				"x": 0.6233193316,
				"y": 0.1233035341,
				"z": -2.8435099017,
				"element": "H" 
			},
			{
				"x": 3.0028102018,
				"y": -1.2802642777,
				"z": -0.6683516656,
				"element": "H" 
			},
			{
				"x": 0.0339164248,
				"y": -0.3001660026,
				"z": 3.7174657463,
				"element": "H" 
			},
			{
				"x": 1.380892652,
				"y": -1.3089101226,
				"z": 3.7214062742,
				"element": "H" 
			},
			{
				"x": -0.5210648822,
				"y": 1.1008820007,
				"z": 1.849169361,
				"element": "H" 
			}
		],
		 "valence_orbital": [ 
			{
				"type": "occ",
				"energy": -0.30825,
				"method": "rhf"
			},
			{
				"type": "occ",
				"energy": -0.29082,
				"method": "rhf"
			},
			{
				"type": "occ",
				"energy": -0.27959,
				"method": "rhf"
			},
			{
				"type": "occ",
				"energy": -0.2279,
				"method": "rhf"
			},
			{
				"type": "occ",
				"energy": -0.19537,
				"method": "rhf"
			},
			{
				"type": "unocc",
				"energy": -0.0019,
				"method": "rhf"
			},
			{
				"type": "unocc",
				"energy": 0.00633,
				"method": "rhf"
			},
			{
				"type": "unocc",
				"energy": 0.01956,
				"method": "rhf"
			},
			{
				"type": "unocc",
				"energy": 0.03825,
				"method": "rhf"
			},
			{
				"type": "unocc",
				"energy": 0.08006,
				"method": "rhf"
			}
		],
		"cosmo_sigma_profile": { 
			"-0.025": 0.0,
			"-0.024": 0.0,
			"-0.023": 0.0,
			"-0.022": 0.0,
			"-0.021": 0.0,
			"-0.02": 0.0,
			"-0.019": 0.0,
			"-0.018": 0.0,
			"-0.017": 0.0,
			"-0.016": 0.0,
			"-0.015": 0.0,
			"-0.014": 0.00174449730328,
			"-0.013": 0.957887598855,
			"-0.012": 1.68016492361,
			"-0.011": 2.51487943966,
			"-0.01": 3.21348517553,
			"-0.009": 5.15073546341,
			"-0.008": 7.58351072811,
			"-0.007": 7.32249333219,
			"-0.006": 13.5348957137,
			"-0.005": 16.0520938794,
			"-0.004": 19.2523710034,
			"-0.003": 17.7422642047,
			"-0.002": 13.871707223,
			"-0.001": 14.9262560694,
			"0.0": 16.0964279167,
			"0.001": 16.5477285074,
			"0.002": 13.1438787551,
			"0.003": 18.0399122772,
			"0.004": 21.1677806771,
			"0.005": 19.3956600118,
			"0.006": 7.59058038684,
			"0.007": 5.10077831968,
			"0.008": 5.23024835753,
			"0.009": 3.33837139099,
			"0.01": 3.6338747395,
			"0.011": 5.52245804067,
			"0.012": 3.66055457255,
			"0.013": 0.620392608173,
			"0.014": 0.213204711569,
			"0.015": 0.0,
			"0.016": 0.0,
			"0.017": 0.0,
			"0.018": 0.0,
			"0.019": 0.0,
			"0.02": 0.0,
			"0.021": 0.0,
			"0.022": 0.0,
			"0.023": 0.0,
			"0.024": 0.0,
			"0.025": 0.0
		}
	}
}
