{
	 "smiles": "OC(=O)CCC(CC1=CC=C(Cl)C=C1)C(O)=O", 
	 "Tm": 411.15, 
	 "num_atms": 30, 
	 "gaussian": { 
		 "optdone": 1, 
		 "sigma_profile": "yes", 
		 "theory": "DFT", 
		 "functional": "B3LYP", 
		 "basiset": "6-31G**", 
		 "properties": { 
			 "R2extent": 5354.7554, 
			 "electric_dipole_moment_norm": 4.11975733994, 
			 "electric_quadrupole_moment_norm": 3.62299909467, 
			 "total_energy": -1226.23657101, 
			 "HOMO_LUMO_gap": 0.22532, 
			 "cosmo_polarized_energy": -16.7, 
			 "cosmo_cavitation_energy": 35.14, 
			 "cosmo_dispersion_energy": -24.12, 
			 "cosmo_repulsion_energy": 1.89, 
			 "cosmo_total_nonelectrostatic_energy": 12.91, 
			 "SMD_solvation_energy": 7.22 
		},
		"coords": [
			{
				"x": -3.3984199457,
				"y": -2.5934948363,
				"z": 0.5694137587,
				"element": "O" 
			},
			{
				"x": -2.5186125016,
				"y": -1.9507144908,
				"z": -0.2399712916,
				"element": "C" 
			},
			{
				"x": -2.5677674001,
				"y": -2.0386988352,
				"z": -1.4474836133,
				"element": "O" 
			},
			{
				"x": -1.5340671128,
				"y": -1.1199701417,
				"z": 0.5570113525,
				"element": "C" 
			},
			{
				"x": -0.6219071621,
				"y": -1.9442552027,
				"z": 1.5014327203,
				"element": "C" 
			},
			{
				"x": 0.6933700797,
				"y": -2.5067150642,
				"z": 0.8963433569,
				"element": "C" 
			},
			{
				"x": 1.8881280735,
				"y": -1.5156207426,
				"z": 0.8780597812,
				"element": "C" 
			},
			{
				"x": 1.6505844555,
				"y": -0.1283606503,
				"z": 0.3111472796,
				"element": "C" 
			},
			{
				"x": 1.449742053,
				"y": 0.9607775331,
				"z": 1.1702076973,
				"element": "C" 
			},
			{
				"x": 1.2368198009,
				"y": 2.2498948938,
				"z": 0.6790694769,
				"element": "C" 
			},
			{
				"x": 1.230474299,
				"y": 2.453523556,
				"z": -0.6987613524,
				"element": "C" 
			},
			{
				"x": 0.966417616,
				"y": 4.0729997375,
				"z": -1.3342681818,
				"element": "Cl" 
			},
			{
				"x": 1.4378209755,
				"y": 1.3930674073,
				"z": -1.58090739,
				"element": "C" 
			},
			{
				"x": 1.6488140719,
				"y": 0.1119839026,
				"z": -1.0721410096,
				"element": "C" 
			},
			{
				"x": 0.4915497382,
				"y": -3.1876492557,
				"z": -0.4499181842,
				"element": "C" 
			},
			{
				"x": -0.5158354589,
				"y": -4.0915979917,
				"z": -0.3979387148,
				"element": "O" 
			},
			{
				"x": 1.1478087271,
				"y": -3.0103184826,
				"z": -1.4533408398,
				"element": "O" 
			},
			{
				"x": -3.9812455104,
				"y": -3.1021995954,
				"z": -0.0184128783,
				"element": "H" 
			},
			{
				"x": -2.127763744,
				"y": -0.432484854,
				"z": 1.169981945,
				"element": "H" 
			},
			{
				"x": -0.958131826,
				"y": -0.5230971649,
				"z": -0.1496545573,
				"element": "H" 
			},
			{
				"x": -0.3372033816,
				"y": -1.3096288459,
				"z": 2.3469588013,
				"element": "H" 
			},
			{
				"x": -1.2084906152,
				"y": -2.7677498724,
				"z": 1.9164863461,
				"element": "H" 
			},
			{
				"x": 0.9976061636,
				"y": -3.3284193047,
				"z": 1.5609673922,
				"element": "H" 
			},
			{
				"x": 2.7059030652,
				"y": -1.9959820608,
				"z": 0.3320799047,
				"element": "H" 
			},
			{
				"x": 2.2220391413,
				"y": -1.4070061856,
				"z": 1.9159290135,
				"element": "H" 
			},
			{
				"x": 1.4687026637,
				"y": 0.8064075553,
				"z": 2.2464129968,
				"element": "H" 
			},
			{
				"x": 1.0848851036,
				"y": 3.0843772968,
				"z": 1.3548534939,
				"element": "H" 
			},
			{
				"x": 1.4367852025,
				"y": 1.5686268191,
				"z": -2.6511163479,
				"element": "H" 
			},
			{
				"x": 1.8037155781,
				"y": -0.7180532199,
				"z": -1.752992354,
				"element": "H" 
			},
			{
				"x": -0.6216221497,
				"y": -4.4345419039,
				"z": -1.301648602,
				"element": "H" 
			}
		],
		 "valence_orbital": [ 
			{
				"type": "occ",
				"energy": -0.30885,
				"method": "rhf"
			},
			{
				"type": "occ",
				"energy": -0.28289,
				"method": "rhf"
			},
			{
				"type": "occ",
				"energy": -0.27144,
				"method": "rhf"
			},
			{
				"type": "occ",
				"energy": -0.26072,
				"method": "rhf"
			},
			{
				"type": "occ",
				"energy": -0.23909,
				"method": "rhf"
			},
			{
				"type": "unocc",
				"energy": -0.01377,
				"method": "rhf"
			},
			{
				"type": "unocc",
				"energy": -0.01232,
				"method": "rhf"
			},
			{
				"type": "unocc",
				"energy": -0.00438,
				"method": "rhf"
			},
			{
				"type": "unocc",
				"energy": 0.01001,
				"method": "rhf"
			},
			{
				"type": "unocc",
				"energy": 0.03261,
				"method": "rhf"
			}
		],
		"cosmo_sigma_profile": { 
			"-0.025": 0.0,
			"-0.024": 0.0,
			"-0.023": 0.0,
			"-0.022": 0.0,
			"-0.021": 0.0,
			"-0.02": 0.0,
			"-0.019": 0.00149260344781,
			"-0.018": 0.815225852823,
			"-0.017": 1.94954707814,
			"-0.016": 1.8148854356,
			"-0.015": 1.62637245663,
			"-0.014": 0.736065884725,
			"-0.013": 1.12389776904,
			"-0.012": 0.797012313683,
			"-0.011": 1.87551589878,
			"-0.01": 1.86017404847,
			"-0.009": 1.40566380423,
			"-0.008": 0.610923047376,
			"-0.007": 5.9719498484,
			"-0.006": 14.2989106253,
			"-0.005": 20.1120770495,
			"-0.004": 20.8452638886,
			"-0.003": 16.0629728153,
			"-0.002": 19.632137439,
			"-0.001": 19.3797074593,
			"0.0": 16.9031022268,
			"0.001": 19.4279254494,
			"0.002": 20.3826386218,
			"0.003": 19.9326634197,
			"0.004": 20.0783013075,
			"0.005": 14.748625521,
			"0.006": 6.51094537675,
			"0.007": 4.71250750522,
			"0.008": 4.48870154221,
			"0.009": 5.70758219552,
			"0.01": 3.62946510122,
			"0.011": 4.97391395755,
			"0.012": 5.78788305872,
			"0.013": 1.22976398522,
			"0.014": 0.0,
			"0.015": 0.0,
			"0.016": 0.0,
			"0.017": 0.0,
			"0.018": 0.0,
			"0.019": 0.0,
			"0.02": 0.0,
			"0.021": 0.0,
			"0.022": 0.0,
			"0.023": 0.0,
			"0.024": 0.0,
			"0.025": 0.0
		}
	}
}
