{
	 "smiles": "CCCCCC(C)(C)C", 
	 "Tm": 160.15, 
	 "num_atms": 29, 
	 "gaussian": { 
		 "optdone": 1, 
		 "sigma_profile": "yes", 
		 "theory": "DFT", 
		 "functional": "B3LYP", 
		 "basiset": "6-31G**", 
		 "properties": { 
			 "R2extent": 1928.969, 
			 "electric_dipole_moment_norm": 0.112364629666, 
			 "electric_quadrupole_moment_norm": 0.185772576017, 
			 "total_energy": -355.040560258, 
			 "HOMO_LUMO_gap": 0.36621, 
			 "cosmo_polarized_energy": -0.76, 
			 "cosmo_cavitation_energy": 28.35, 
			 "cosmo_dispersion_energy": -19.73, 
			 "cosmo_repulsion_energy": 1.63, 
			 "cosmo_total_nonelectrostatic_energy": 10.25, 
			 "SMD_solvation_energy": 4.6 
		},
		"coords": [
			{
				"x": -1.0451518709,
				"y": -2.7615489385,
				"z": 1.221910235,
				"element": "C" 
			},
			{
				"x": -1.8661681185,
				"y": -2.3917173842,
				"z": -0.018742664,
				"element": "C" 
			},
			{
				"x": -1.1723895602,
				"y": -1.4640272877,
				"z": -1.032858936,
				"element": "C" 
			},
			{
				"x": -0.8192653295,
				"y": -0.0466276085,
				"z": -0.5223414767,
				"element": "C" 
			},
			{
				"x": 0.6118452157,
				"y": 0.0870233062,
				"z": 0.0261378595,
				"element": "C" 
			},
			{
				"x": 1.033831654,
				"y": 1.4770435595,
				"z": 0.5743501634,
				"element": "C" 
			},
			{
				"x": 2.5046076805,
				"y": 1.3796307106,
				"z": 1.0277083963,
				"element": "C" 
			},
			{
				"x": 0.1683990109,
				"y": 1.876757879,
				"z": 1.7859986299,
				"element": "C" 
			},
			{
				"x": 0.9228494947,
				"y": 2.5604589782,
				"z": -0.5166609345,
				"element": "C" 
			},
			{
				"x": -1.5845496197,
				"y": -3.4828957216,
				"z": 1.8453165079,
				"element": "H" 
			},
			{
				"x": -0.0861938317,
				"y": -3.2147401833,
				"z": 0.9448826365,
				"element": "H" 
			},
			{
				"x": -0.8320795887,
				"y": -1.8879291673,
				"z": 1.8459957278,
				"element": "H" 
			},
			{
				"x": -2.1522048508,
				"y": -3.314754717,
				"z": -0.5401239533,
				"element": "H" 
			},
			{
				"x": -2.8078210098,
				"y": -1.9235781672,
				"z": 0.3001804544,
				"element": "H" 
			},
			{
				"x": -1.8403533048,
				"y": -1.3699345043,
				"z": -1.8982685688,
				"element": "H" 
			},
			{
				"x": -0.2632722754,
				"y": -1.9528142363,
				"z": -1.4113357971,
				"element": "H" 
			},
			{
				"x": -1.5511171802,
				"y": 0.2501158849,
				"z": 0.2404572023,
				"element": "H" 
			},
			{
				"x": -0.944713762,
				"y": 0.6627144218,
				"z": -1.3486394456,
				"element": "H" 
			},
			{
				"x": 1.3104318801,
				"y": -0.1879119253,
				"z": -0.777509963,
				"element": "H" 
			},
			{
				"x": 0.7694654515,
				"y": -0.6517486677,
				"z": 0.8218169435,
				"element": "H" 
			},
			{
				"x": 3.159751016,
				"y": 1.1073170958,
				"z": 0.1921396073,
				"element": "H" 
			},
			{
				"x": 2.6290321125,
				"y": 0.6216558457,
				"z": 1.8097538334,
				"element": "H" 
			},
			{
				"x": 2.8573846644,
				"y": 2.3359145342,
				"z": 1.4306218468,
				"element": "H" 
			},
			{
				"x": -0.8834978795,
				"y": 2.0077383216,
				"z": 1.5126569099,
				"element": "H" 
			},
			{
				"x": 0.2182781545,
				"y": 1.1176251979,
				"z": 2.5755204242,
				"element": "H" 
			},
			{
				"x": 0.5155666585,
				"y": 2.8239603984,
				"z": 2.2144608864,
				"element": "H" 
			},
			{
				"x": -0.1126698547,
				"y": 2.7162417876,
				"z": -0.835593508,
				"element": "H" 
			},
			{
				"x": 1.5103215504,
				"y": 2.2918148679,
				"z": -1.4025412623,
				"element": "H" 
			},
			{
				"x": 1.2994834926,
				"y": 3.5212157195,
				"z": -0.1473917551,
				"element": "H" 
			}
		],
		 "valence_orbital": [ 
			{
				"type": "occ",
				"energy": -0.32083,
				"method": "rhf"
			},
			{
				"type": "occ",
				"energy": -0.31717,
				"method": "rhf"
			},
			{
				"type": "occ",
				"energy": -0.30629,
				"method": "rhf"
			},
			{
				"type": "occ",
				"energy": -0.29929,
				"method": "rhf"
			},
			{
				"type": "occ",
				"energy": -0.29252,
				"method": "rhf"
			},
			{
				"type": "unocc",
				"energy": 0.07369,
				"method": "rhf"
			},
			{
				"type": "unocc",
				"energy": 0.09803,
				"method": "rhf"
			},
			{
				"type": "unocc",
				"energy": 0.11558,
				"method": "rhf"
			},
			{
				"type": "unocc",
				"energy": 0.12097,
				"method": "rhf"
			},
			{
				"type": "unocc",
				"energy": 0.13644,
				"method": "rhf"
			}
		],
		"cosmo_sigma_profile": { 
			"-0.025": 0.0,
			"-0.024": 0.0,
			"-0.023": 0.0,
			"-0.022": 0.0,
			"-0.021": 0.0,
			"-0.02": 0.0,
			"-0.019": 0.0,
			"-0.018": 0.0,
			"-0.017": 0.0,
			"-0.016": 0.0,
			"-0.015": 0.0,
			"-0.014": 0.0,
			"-0.013": 0.0,
			"-0.012": 0.0,
			"-0.011": 0.0,
			"-0.01": 0.0,
			"-0.009": 0.0,
			"-0.008": 0.0,
			"-0.007": 0.0,
			"-0.006": 0.0,
			"-0.005": 0.0,
			"-0.004": 0.0,
			"-0.003": 1.91236763526,
			"-0.002": 30.2751879598,
			"-0.001": 52.466070624,
			"0.0": 50.6155920039,
			"0.001": 45.7366210583,
			"0.002": 32.3749125269,
			"0.003": 2.93449804485,
			"0.004": 0.0,
			"0.005": 0.0,
			"0.006": 0.0,
			"0.007": 0.0,
			"0.008": 0.0,
			"0.009": 0.0,
			"0.01": 0.0,
			"0.011": 0.0,
			"0.012": 0.0,
			"0.013": 0.0,
			"0.014": 0.0,
			"0.015": 0.0,
			"0.016": 0.0,
			"0.017": 0.0,
			"0.018": 0.0,
			"0.019": 0.0,
			"0.02": 0.0,
			"0.021": 0.0,
			"0.022": 0.0,
			"0.023": 0.0,
			"0.024": 0.0,
			"0.025": 0.0
		}
	}
}
