{
	 "smiles": "COC1=C(C=CC=C1)C1(CCC1)C(O)=O", 
	 "Tm": 423.15, 
	 "num_atms": 29, 
	 "gaussian": { 
		 "optdone": 1, 
		 "sigma_profile": "yes", 
		 "theory": "DFT", 
		 "functional": "B3LYP", 
		 "basiset": "6-31G**", 
		 "properties": { 
			 "R2extent": 2960.5497, 
			 "electric_dipole_moment_norm": 2.95537554466, 
			 "electric_quadrupole_moment_norm": 5.60844620639, 
			 "total_energy": -691.362048387, 
			 "HOMO_LUMO_gap": 0.20722, 
			 "cosmo_polarized_energy": -11.25, 
			 "cosmo_cavitation_energy": 31.25, 
			 "cosmo_dispersion_energy": -21.95, 
			 "cosmo_repulsion_energy": 1.73, 
			 "cosmo_total_nonelectrostatic_energy": 11.03, 
			 "SMD_solvation_energy": 6.89 
		},
		"coords": [
			{
				"x": -2.7975958573,
				"y": 1.7721069199,
				"z": 0.0521514353,
				"element": "C" 
			},
			{
				"x": -1.6414911896,
				"y": 0.9923632557,
				"z": 0.3041529016,
				"element": "O" 
			},
			{
				"x": -0.4880904465,
				"y": 1.2920325341,
				"z": -0.3628074099,
				"element": "C" 
			},
			{
				"x": 0.6237492099,
				"y": 0.4592842575,
				"z": -0.1022482895,
				"element": "C" 
			},
			{
				"x": 1.8167630898,
				"y": 0.7247085194,
				"z": -0.7805900261,
				"element": "C" 
			},
			{
				"x": 1.9359663036,
				"y": 1.7848142575,
				"z": -1.681994408,
				"element": "C" 
			},
			{
				"x": 0.8354316307,
				"y": 2.6037550883,
				"z": -1.9150011429,
				"element": "C" 
			},
			{
				"x": -0.3735998539,
				"y": 2.3621458048,
				"z": -1.2586933792,
				"element": "C" 
			},
			{
				"x": 0.5630490726,
				"y": -0.7249343553,
				"z": 0.8530831878,
				"element": "C" 
			},
			{
				"x": -0.2461175215,
				"y": -0.6201792595,
				"z": 2.1934454973,
				"element": "C" 
			},
			{
				"x": 0.9071534255,
				"y": -1.364248809,
				"z": 2.9108323032,
				"element": "C" 
			},
			{
				"x": 1.8299135818,
				"y": -1.0201813361,
				"z": 1.7145840325,
				"element": "C" 
			},
			{
				"x": 0.1680081105,
				"y": -1.9752175717,
				"z": 0.0643225392,
				"element": "C" 
			},
			{
				"x": -1.1065036051,
				"y": -1.9190733904,
				"z": -0.3900649355,
				"element": "O" 
			},
			{
				"x": 0.8857579356,
				"y": -2.9271605645,
				"z": -0.1609177649,
				"element": "O" 
			},
			{
				"x": -3.0966082765,
				"y": 1.7233588812,
				"z": -1.0026617599,
				"element": "H" 
			},
			{
				"x": -2.6511818894,
				"y": 2.8230076257,
				"z": 0.3344935547,
				"element": "H" 
			},
			{
				"x": -3.5888303522,
				"y": 1.3430370989,
				"z": 0.6689186834,
				"element": "H" 
			},
			{
				"x": 2.6722474921,
				"y": 0.0812879874,
				"z": -0.5956404668,
				"element": "H" 
			},
			{
				"x": 2.8775993321,
				"y": 1.9642670108,
				"z": -2.1913349827,
				"element": "H" 
			},
			{
				"x": 0.9062481352,
				"y": 3.4368954989,
				"z": -2.6085240967,
				"element": "H" 
			},
			{
				"x": -1.2215968601,
				"y": 3.008033935,
				"z": -1.4519976334,
				"element": "H" 
			},
			{
				"x": -0.3227637194,
				"y": 0.4225221545,
				"z": 2.5082221645,
				"element": "H" 
			},
			{
				"x": -1.2444860278,
				"y": -1.0609552132,
				"z": 2.2032493593,
				"element": "H" 
			},
			{
				"x": 1.2046412823,
				"y": -0.994113595,
				"z": 3.8955270708,
				"element": "H" 
			},
			{
				"x": 0.7231557573,
				"y": -2.4403175042,
				"z": 2.9837216223,
				"element": "H" 
			},
			{
				"x": 2.3970831286,
				"y": -0.1021188166,
				"z": 1.8890303569,
				"element": "H" 
			},
			{
				"x": 2.4938403432,
				"y": -1.8015853478,
				"z": 1.3412356481,
				"element": "H" 
			},
			{
				"x": -1.2400422314,
				"y": -2.7394350665,
				"z": -0.8940940612,
				"element": "H" 
			}
		],
		 "valence_orbital": [ 
			{
				"type": "occ",
				"energy": -0.30387,
				"method": "rhf"
			},
			{
				"type": "occ",
				"energy": -0.29816,
				"method": "rhf"
			},
			{
				"type": "occ",
				"energy": -0.2701,
				"method": "rhf"
			},
			{
				"type": "occ",
				"energy": -0.24141,
				"method": "rhf"
			},
			{
				"type": "occ",
				"energy": -0.2155,
				"method": "rhf"
			},
			{
				"type": "unocc",
				"energy": -0.00828,
				"method": "rhf"
			},
			{
				"type": "unocc",
				"energy": 0.00977,
				"method": "rhf"
			},
			{
				"type": "unocc",
				"energy": 0.02838,
				"method": "rhf"
			},
			{
				"type": "unocc",
				"energy": 0.08002,
				"method": "rhf"
			},
			{
				"type": "unocc",
				"energy": 0.0921,
				"method": "rhf"
			}
		],
		"cosmo_sigma_profile": { 
			"-0.025": 0.0,
			"-0.024": 0.0,
			"-0.023": 0.0,
			"-0.022": 0.0,
			"-0.021": 0.0,
			"-0.02": 0.0,
			"-0.019": 0.0,
			"-0.018": 0.46696975783,
			"-0.017": 0.98292926249,
			"-0.016": 0.918176301419,
			"-0.015": 0.770001281383,
			"-0.014": 0.773628404508,
			"-0.013": 0.669060403473,
			"-0.012": 0.567494842897,
			"-0.011": 0.350653353688,
			"-0.01": 0.951654572771,
			"-0.009": 0.387955590044,
			"-0.008": 0.705540757676,
			"-0.007": 1.20407156848,
			"-0.006": 7.25944258194,
			"-0.005": 16.5412045808,
			"-0.004": 17.8568373464,
			"-0.003": 29.0717356921,
			"-0.002": 24.8563254126,
			"-0.001": 22.1112587959,
			"0.0": 19.443469934,
			"0.001": 20.2450513661,
			"0.002": 12.6042228845,
			"0.003": 9.60507113709,
			"0.004": 11.5036377409,
			"0.005": 13.3514764267,
			"0.006": 10.8523681281,
			"0.007": 3.3246457517,
			"0.008": 2.56086502495,
			"0.009": 3.4443827254,
			"0.01": 3.42109659327,
			"0.011": 4.10369219271,
			"0.012": 5.02945417369,
			"0.013": 0.174457288415,
			"0.014": 0.0,
			"0.015": 0.0,
			"0.016": 0.0,
			"0.017": 0.0,
			"0.018": 0.0,
			"0.019": 0.0,
			"0.02": 0.0,
			"0.021": 0.0,
			"0.022": 0.0,
			"0.023": 0.0,
			"0.024": 0.0,
			"0.025": 0.0
		}
	}
}
