{
	 "smiles": "CC1=CC(C)=C(NS(=O)(=O)C2=CC(=CC=C2)C(O)=O)C=C1", 
	 "Tm": 468.15, 
	 "num_atms": 36, 
	 "gaussian": { 
		 "optdone": 1, 
		 "sigma_profile": "yes", 
		 "theory": "DFT", 
		 "functional": "B3LYP", 
		 "basiset": "6-31G**", 
		 "properties": { 
			 "R2extent": 7703.4208, 
			 "electric_dipole_moment_norm": 6.50596803328, 
			 "electric_quadrupole_moment_norm": 30.2634868776, 
			 "total_energy": -1334.4219927, 
			 "HOMO_LUMO_gap": 0.15863, 
			 "cosmo_polarized_energy": -24.8, 
			 "cosmo_cavitation_energy": 41.82, 
			 "cosmo_dispersion_energy": -28.52, 
			 "cosmo_repulsion_energy": 2.15, 
			 "cosmo_total_nonelectrostatic_energy": 15.46, 
			 "SMD_solvation_energy": 7.29 
		},
		"coords": [
			{
				"x": 2.8737558027,
				"y": -1.5302869167,
				"z": 3.4301059367,
				"element": "C" 
			},
			{
				"x": 2.4493215107,
				"y": -0.6394880823,
				"z": 2.2864466414,
				"element": "C" 
			},
			{
				"x": 2.2595562066,
				"y": -1.1588973679,
				"z": 1.0007757993,
				"element": "C" 
			},
			{
				"x": 1.8840089696,
				"y": -0.3637286195,
				"z": -0.0870595494,
				"element": "C" 
			},
			{
				"x": 1.6793249657,
				"y": -0.9775633934,
				"z": -1.4525166382,
				"element": "C" 
			},
			{
				"x": 1.7152961844,
				"y": 1.0186037949,
				"z": 0.1311669315,
				"element": "C" 
			},
			{
				"x": 1.3794997875,
				"y": 1.877574192,
				"z": -0.9582555109,
				"element": "N" 
			},
			{
				"x": -0.0015751997,
				"y": 2.8533041067,
				"z": -0.9813883636,
				"element": "S" 
			},
			{
				"x": 0.024465576,
				"y": 3.694718804,
				"z": 0.2137260318,
				"element": "O" 
			},
			{
				"x": -0.0302587081,
				"y": 3.4042186472,
				"z": -2.3356902396,
				"element": "O" 
			},
			{
				"x": -1.4123657866,
				"y": 1.7450397277,
				"z": -0.8032908793,
				"element": "C" 
			},
			{
				"x": -1.9651665114,
				"y": 1.1637518642,
				"z": -1.9415488797,
				"element": "C" 
			},
			{
				"x": -3.0542046318,
				"y": 0.2943333865,
				"z": -1.8075269233,
				"element": "C" 
			},
			{
				"x": -3.5521731505,
				"y": 0.0020074884,
				"z": -0.5293032558,
				"element": "C" 
			},
			{
				"x": -2.9844169245,
				"y": 0.5869399123,
				"z": 0.6028475848,
				"element": "C" 
			},
			{
				"x": -1.9133370903,
				"y": 1.4708232433,
				"z": 0.4727302443,
				"element": "C" 
			},
			{
				"x": -3.6048714973,
				"y": -0.322405344,
				"z": -3.0616126412,
				"element": "C" 
			},
			{
				"x": -4.8874965517,
				"y": -0.7670869576,
				"z": -3.0116051294,
				"element": "O" 
			},
			{
				"x": -2.958517407,
				"y": -0.4383015468,
				"z": -4.0748466679,
				"element": "O" 
			},
			{
				"x": 1.9182531777,
				"y": 1.5627916215,
				"z": 1.4048699053,
				"element": "C" 
			},
			{
				"x": 2.2632890795,
				"y": 0.7359082962,
				"z": 2.4703867705,
				"element": "C" 
			},
			{
				"x": 2.5651398103,
				"y": -2.5671865478,
				"z": 3.2669486384,
				"element": "H" 
			},
			{
				"x": 3.9644879696,
				"y": -1.5301523573,
				"z": 3.5499011988,
				"element": "H" 
			},
			{
				"x": 2.4449976606,
				"y": -1.1945421921,
				"z": 4.3793900041,
				"element": "H" 
			},
			{
				"x": 2.3968355904,
				"y": -2.2256740944,
				"z": 0.8370659469,
				"element": "H" 
			},
			{
				"x": 2.4189450713,
				"y": -0.6210365571,
				"z": -2.1821190074,
				"element": "H" 
			},
			{
				"x": 1.778048871,
				"y": -2.0645418754,
				"z": -1.4061710833,
				"element": "H" 
			},
			{
				"x": 0.6860107041,
				"y": -0.754071949,
				"z": -1.8590858108,
				"element": "H" 
			},
			{
				"x": 1.5382509779,
				"y": 1.5027324055,
				"z": -1.8871143019,
				"element": "H" 
			},
			{
				"x": -1.5802081201,
				"y": 1.3885890038,
				"z": -2.9301247685,
				"element": "H" 
			},
			{
				"x": -4.3643736903,
				"y": -0.7095843452,
				"z": -0.4034481183,
				"element": "H" 
			},
			{
				"x": -3.3751014729,
				"y": 0.3526763288,
				"z": 1.5879724871,
				"element": "H" 
			},
			{
				"x": -1.4737318903,
				"y": 1.9528308753,
				"z": 1.3382438172,
				"element": "H" 
			},
			{
				"x": -5.3251899285,
				"y": -0.4476976131,
				"z": -2.2103538631,
				"element": "H" 
			},
			{
				"x": 1.8004398529,
				"y": 2.6306931705,
				"z": 1.545367767,
				"element": "H" 
			},
			{
				"x": 2.4086607925,
				"y": 1.172508891,
				"z": 3.4552159264,
				"element": "H" 
			}
		],
		 "valence_orbital": [ 
			{
				"type": "occ",
				"energy": -0.29426,
				"method": "rhf"
			},
			{
				"type": "occ",
				"energy": -0.28716,
				"method": "rhf"
			},
			{
				"type": "occ",
				"energy": -0.28116,
				"method": "rhf"
			},
			{
				"type": "occ",
				"energy": -0.25327,
				"method": "rhf"
			},
			{
				"type": "occ",
				"energy": -0.22954,
				"method": "rhf"
			},
			{
				"type": "unocc",
				"energy": -0.07091,
				"method": "rhf"
			},
			{
				"type": "unocc",
				"energy": -0.05428,
				"method": "rhf"
			},
			{
				"type": "unocc",
				"energy": -0.01395,
				"method": "rhf"
			},
			{
				"type": "unocc",
				"energy": -0.00908,
				"method": "rhf"
			},
			{
				"type": "unocc",
				"energy": 0.02378,
				"method": "rhf"
			}
		],
		"cosmo_sigma_profile": { 
			"-0.025": 0.0,
			"-0.024": 0.0,
			"-0.023": 0.0,
			"-0.022": 0.0,
			"-0.021": 0.0,
			"-0.02": 0.0,
			"-0.019": 0.534209055719,
			"-0.018": 1.31201314602,
			"-0.017": 0.71653892784,
			"-0.016": 1.26395297499,
			"-0.015": 1.03197691233,
			"-0.014": 1.57646149371,
			"-0.013": 2.16930318449,
			"-0.012": 2.57235271468,
			"-0.011": 2.27051776828,
			"-0.01": 3.13369636355,
			"-0.009": 3.6645959114,
			"-0.008": 6.32053460771,
			"-0.007": 8.55203450932,
			"-0.006": 9.65584100751,
			"-0.005": 16.3077498367,
			"-0.004": 24.6240569476,
			"-0.003": 24.4412959072,
			"-0.002": 25.4193471332,
			"-0.001": 27.1836855965,
			"0.0": 33.4801625843,
			"0.001": 22.9589930781,
			"0.002": 15.5581372557,
			"0.003": 12.0679836018,
			"0.004": 14.2600131963,
			"0.005": 14.1455037078,
			"0.006": 8.19484498215,
			"0.007": 6.66583451738,
			"0.008": 6.76273247789,
			"0.009": 7.26747999627,
			"0.01": 13.3639823712,
			"0.011": 11.8384141555,
			"0.012": 3.64006671193,
			"0.013": 0.555331064121,
			"0.014": 0.0,
			"0.015": 0.0,
			"0.016": 0.0,
			"0.017": 0.0,
			"0.018": 0.0,
			"0.019": 0.0,
			"0.02": 0.0,
			"0.021": 0.0,
			"0.022": 0.0,
			"0.023": 0.0,
			"0.024": 0.0,
			"0.0": 0.0
		}
	}
}
