{
	 "smiles": "NC(=S)C1=CC(=CC=C1)[N+]([O-])=O", 
	 "Tm": 406.15, 
	 "num_atms": 18, 
	 "gaussian": { 
		 "optdone": 1, 
		 "sigma_profile": "yes", 
		 "theory": "DFT", 
		 "functional": "B3LYP", 
		 "basiset": "6-31G**", 
		 "properties": { 
			 "R2extent": 3612.5652, 
			 "electric_dipole_moment_norm": 2.49774187818, 
			 "electric_quadrupole_moment_norm": 22.1608664018, 
			 "total_energy": -928.406331619, 
			 "HOMO_LUMO_gap": 0.12301, 
			 "cosmo_polarized_energy": -17.28, 
			 "cosmo_cavitation_energy": 25.09, 
			 "cosmo_dispersion_energy": -18.86, 
			 "cosmo_repulsion_energy": 1.46, 
			 "cosmo_total_nonelectrostatic_energy": 7.69, 
			 "SMD_solvation_energy": 5.75 
		},
		"coords": [
			{
				"x": 0.6577514659,
				"y": -3.199072484,
				"z": -0.3985710998,
				"element": "N" 
			},
			{
				"x": -0.333474269,
				"y": -2.908196086,
				"z": -1.2691537408,
				"element": "C" 
			},
			{
				"x": -1.1298611451,
				"y": -4.0939747247,
				"z": -2.1272624474,
				"element": "S" 
			},
			{
				"x": -0.6333825077,
				"y": -1.4529445409,
				"z": -1.4244828801,
				"element": "C" 
			},
			{
				"x": 0.3667134874,
				"y": -0.4887538849,
				"z": -1.2410996113,
				"element": "C" 
			},
			{
				"x": 0.0508709583,
				"y": 0.8571201351,
				"z": -1.4037078247,
				"element": "C" 
			},
			{
				"x": -1.2298763236,
				"y": 1.2876553346,
				"z": -1.7386022113,
				"element": "C" 
			},
			{
				"x": -2.2208970797,
				"y": 0.3235045212,
				"z": -1.9226729442,
				"element": "C" 
			},
			{
				"x": -1.9270559527,
				"y": -1.030392837,
				"z": -1.7756598572,
				"element": "C" 
			},
			{
				"x": 1.1159164168,
				"y": 1.8582503713,
				"z": -1.2161321517,
				"element": "N" 
			},
			{
				"x": 2.2352688054,
				"y": 1.4483968559,
				"z": -0.9097260597,
				"element": "O" 
			},
			{
				"x": 0.8189226782,
				"y": 3.0409231537,
				"z": -1.372205593,
				"element": "O" 
			},
			{
				"x": 1.0147665589,
				"y": -2.5142020268,
				"z": 0.2512549085,
				"element": "H" 
			},
			{
				"x": 0.8954568825,
				"y": -4.1695818467,
				"z": -0.2534073333,
				"element": "H" 
			},
			{
				"x": 1.3921325188,
				"y": -0.7542078601,
				"z": -1.0160152845,
				"element": "H" 
			},
			{
				"x": -1.4254636324,
				"y": 2.346490408,
				"z": -1.8520657645,
				"element": "H" 
			},
			{
				"x": -3.2278172049,
				"y": 0.6312095679,
				"z": -2.1851967288,
				"element": "H" 
			},
			{
				"x": -2.6905716571,
				"y": -1.7843240565,
				"z": -1.9318933762,
				"element": "H" 
			}
		],
		 "valence_orbital": [ 
			{
				"type": "occ",
				"energy": -0.30186,
				"method": "rhf"
			},
			{
				"type": "occ",
				"energy": -0.29501,
				"method": "rhf"
			},
			{
				"type": "occ",
				"energy": -0.29195,
				"method": "rhf"
			},
			{
				"type": "occ",
				"energy": -0.24556,
				"method": "rhf"
			},
			{
				"type": "occ",
				"energy": -0.22339,
				"method": "rhf"
			},
			{
				"type": "unocc",
				"energy": -0.10038,
				"method": "rhf"
			},
			{
				"type": "unocc",
				"energy": -0.07892,
				"method": "rhf"
			},
			{
				"type": "unocc",
				"energy": -0.02048,
				"method": "rhf"
			},
			{
				"type": "unocc",
				"energy": 0.00674,
				"method": "rhf"
			},
			{
				"type": "unocc",
				"energy": 0.05739,
				"method": "rhf"
			}
		],
		"cosmo_sigma_profile": { 
			"-0.025": 0.0,
			"-0.024": 0.0,
			"-0.023": 0.0,
			"-0.022": 0.0,
			"-0.021": 0.0,
			"-0.02": 0.0,
			"-0.019": 0.0,
			"-0.018": 0.0,
			"-0.017": 0.0547744150107,
			"-0.016": 1.2534131164,
			"-0.015": 2.36827023709,
			"-0.014": 2.73898102788,
			"-0.013": 3.23951789673,
			"-0.012": 1.86667691313,
			"-0.011": 2.27015825067,
			"-0.01": 1.9087326748,
			"-0.009": 1.96951080218,
			"-0.008": 5.22037205791,
			"-0.007": 8.13213151553,
			"-0.006": 9.76420357757,
			"-0.005": 8.24338058528,
			"-0.004": 9.42016967056,
			"-0.003": 10.5530969147,
			"-0.002": 13.6680805759,
			"-0.001": 14.0450050662,
			"0.0": 14.2559675686,
			"0.001": 13.0809764136,
			"0.002": 7.743106502,
			"0.003": 6.05018756173,
			"0.004": 6.28015120958,
			"0.005": 6.69495353148,
			"0.006": 9.2369449639,
			"0.007": 14.843665401,
			"0.008": 12.383999653,
			"0.009": 9.11827262747,
			"0.01": 5.22447722033,
			"0.011": 2.43522481574,
			"0.012": 0.211675525091,
			"0.013": 0.0,
			"0.014": 0.0,
			"0.015": 0.0,
			"0.016": 0.0,
			"0.017": 0.0,
			"0.018": 0.0,
			"0.019": 0.0,
			"0.02": 0.0,
			"0.021": 0.0,
			"0.022": 0.0,
			"0.023": 0.0,
			"0.024": 0.0,
			"0.025": 0.0
		}
	}
}
