{
	 "smiles": "CN1C=C(C(=O)NC2=C(C=CC=C2)C2=CC(F)=C(F)C(F)=C2)C(=N1)C(F)F", 
	 "Tm": 430.15, 
	 "num_atms": 39, 
	 "gaussian": { 
		 "optdone": 1, 
		 "sigma_profile": "yes", 
		 "theory": "DFT", 
		 "functional": "B3LYP", 
		 "basiset": "6-31G**", 
		 "properties": { 
			 "R2extent": 11798.1071, 
			 "electric_dipole_moment_norm": 6.70405655331, 
			 "electric_quadrupole_moment_norm": 27.149292756, 
			 "total_energy": -1431.78062012, 
			 "HOMO_LUMO_gap": 0.18354, 
			 "cosmo_polarized_energy": -20.44, 
			 "cosmo_cavitation_energy": 47.19, 
			 "cosmo_dispersion_energy": -30.73, 
			 "cosmo_repulsion_energy": 2.24, 
			 "cosmo_total_nonelectrostatic_energy": 18.7, 
			 "SMD_solvation_energy": 10.21 
		},
		"coords": [
			{
				"x": 0.6122512719,
				"y": 4.9311310671,
				"z": 2.3428221565,
				"element": "C" 
			},
			{
				"x": 1.371945907,
				"y": 3.8080373876,
				"z": 1.8206619103,
				"element": "N" 
			},
			{
				"x": 0.9683150083,
				"y": 2.5198258187,
				"z": 1.6754495197,
				"element": "C" 
			},
			{
				"x": 2.0601909864,
				"y": 1.7991444677,
				"z": 1.2213240458,
				"element": "C" 
			},
			{
				"x": 2.175304171,
				"y": 0.3317551963,
				"z": 0.9967277403,
				"element": "C" 
			},
			{
				"x": 3.0582362626,
				"y": -0.3334454254,
				"z": 1.5160131069,
				"element": "O" 
			},
			{
				"x": 1.1827200441,
				"y": -0.2783792925,
				"z": 0.243412037,
				"element": "N" 
			},
			{
				"x": 0.3736351732,
				"y": 0.2670706941,
				"z": -0.784243147,
				"element": "C" 
			},
			{
				"x": -0.9117068271,
				"y": -0.27272063,
				"z": -1.0250256596,
				"element": "C" 
			},
			{
				"x": -1.6645179201,
				"y": 0.2547371098,
				"z": -2.0874310406,
				"element": "C" 
			},
			{
				"x": -1.1831711713,
				"y": 1.2914011069,
				"z": -2.8823473169,
				"element": "C" 
			},
			{
				"x": 0.0915868899,
				"y": 1.8053483719,
				"z": -2.6410121258,
				"element": "C" 
			},
			{
				"x": 0.8712880711,
				"y": 1.2843154182,
				"z": -1.6123055318,
				"element": "C" 
			},
			{
				"x": -1.4840348569,
				"y": -1.3899882304,
				"z": -0.221555599,
				"element": "C" 
			},
			{
				"x": -2.0804707007,
				"y": -2.4784948446,
				"z": -0.8804487661,
				"element": "C" 
			},
			{
				"x": -2.6653431373,
				"y": -3.5026044017,
				"z": -0.1477677478,
				"element": "C" 
			},
			{
				"x": -3.2296899728,
				"y": -4.5465778621,
				"z": -0.7743134866,
				"element": "F" 
			},
			{
				"x": -2.6750656933,
				"y": -3.4814852767,
				"z": 1.2445605472,
				"element": "C" 
			},
			{
				"x": -3.2386987749,
				"y": -4.4741024191,
				"z": 1.9420829061,
				"element": "F" 
			},
			{
				"x": -2.0790678217,
				"y": -2.4020376386,
				"z": 1.8939294691,
				"element": "C" 
			},
			{
				"x": -2.0965863092,
				"y": -2.3779225758,
				"z": 3.2357081283,
				"element": "F" 
			},
			{
				"x": -1.487910776,
				"y": -1.3667900394,
				"z": 1.1838335878,
				"element": "C" 
			},
			{
				"x": 3.0904825272,
				"y": 2.7696661074,
				"z": 1.1262724638,
				"element": "C" 
			},
			{
				"x": 2.6636008023,
				"y": 3.980303143,
				"z": 1.4773260336,
				"element": "N" 
			},
			{
				"x": 4.4737094465,
				"y": 2.6107067423,
				"z": 0.5880761945,
				"element": "C" 
			},
			{
				"x": 5.2429056127,
				"y": 1.8247826466,
				"z": 1.3886976341,
				"element": "F" 
			},
			{
				"x": 4.406487414,
				"y": 1.9932492029,
				"z": -0.6429983387,
				"element": "F" 
			},
			{
				"x": 0.9059921452,
				"y": 5.1506814421,
				"z": 3.3734341518,
				"element": "H" 
			},
			{
				"x": -0.4506417486,
				"y": 4.6864450517,
				"z": 2.3124737192,
				"element": "H" 
			},
			{
				"x": 0.8026428434,
				"y": 5.8080019793,
				"z": 1.7220339551,
				"element": "H" 
			},
			{
				"x": -0.0417560869,
				"y": 2.2130928987,
				"z": 1.9040058939,
				"element": "H" 
			},
			{
				"x": 1.2369914276,
				"y": -1.2895812701,
				"z": 0.2960642167,
				"element": "H" 
			},
			{
				"x": -2.6576426107,
				"y": -0.1456918639,
				"z": -2.2677048748,
				"element": "H" 
			},
			{
				"x": -1.7951499805,
				"y": 1.6881096093,
				"z": -3.6864631499,
				"element": "H" 
			},
			{
				"x": 0.4934452209,
				"y": 2.5956232117,
				"z": -3.2680319472,
				"element": "H" 
			},
			{
				"x": 1.8837854555,
				"y": 1.6403907499,
				"z": -1.4598258253,
				"element": "H" 
			},
			{
				"x": -2.0817111116,
				"y": -2.5479623871,
				"z": -1.9621279605,
				"element": "H" 
			},
			{
				"x": -1.0453718988,
				"y": -0.5489239626,
				"z": 1.738019167,
				"element": "H" 
			},
			{
				"x": 4.9655207174,
				"y": 3.5812886965,
				"z": 0.4635739327,
				"element": "H" 
			}
		],
		 "valence_orbital": [ 
			{
				"type": "occ",
				"energy": -0.27333,
				"method": "rhf"
			},
			{
				"type": "occ",
				"energy": -0.26554,
				"method": "rhf"
			},
			{
				"type": "occ",
				"energy": -0.25299,
				"method": "rhf"
			},
			{
				"type": "occ",
				"energy": -0.24941,
				"method": "rhf"
			},
			{
				"type": "occ",
				"energy": -0.23024,
				"method": "rhf"
			},
			{
				"type": "unocc",
				"energy": -0.0467,
				"method": "rhf"
			},
			{
				"type": "unocc",
				"energy": -0.02743,
				"method": "rhf"
			},
			{
				"type": "unocc",
				"energy": -0.01883,
				"method": "rhf"
			},
			{
				"type": "unocc",
				"energy": -0.01015,
				"method": "rhf"
			},
			{
				"type": "unocc",
				"energy": -0.00239,
				"method": "rhf"
			}
		],
		"cosmo_sigma_profile": { 
			"-0.025": 0.0,
			"-0.024": 0.0,
			"-0.023": 0.0,
			"-0.022": 0.0,
			"-0.021": 0.0,
			"-0.02": 0.0,
			"-0.019": 0.0,
			"-0.018": 0.0,
			"-0.017": 0.0,
			"-0.016": 0.0,
			"-0.015": 0.0,
			"-0.014": 0.259507526202,
			"-0.013": 0.582166523313,
			"-0.012": 0.956179685673,
			"-0.011": 0.964024978992,
			"-0.01": 4.0354033771,
			"-0.009": 4.46997733507,
			"-0.008": 8.20711541312,
			"-0.007": 12.4957129763,
			"-0.006": 21.4049306967,
			"-0.005": 20.0808256656,
			"-0.004": 23.7009187662,
			"-0.003": 21.5554685018,
			"-0.002": 25.8898752631,
			"-0.001": 30.5022371689,
			"0.0": 28.1059945137,
			"0.001": 26.6581091317,
			"0.002": 24.6215459965,
			"0.003": 44.331662742,
			"0.004": 33.5603971537,
			"0.005": 15.6912811787,
			"0.006": 3.96717238349,
			"0.007": 3.53447712061,
			"0.008": 3.03313558603,
			"0.009": 2.4538594743,
			"0.01": 3.64901764416,
			"0.011": 3.80793292532,
			"0.012": 5.41401778516,
			"0.013": 4.69627444132,
			"0.014": 0.852578656179,
			"0.015": 0.0,
			"0.016": 0.0,
			"0.017": 0.0,
			"0.018": 0.0,
			"0.019": 0.0,
			"0.02": 0.0,
			"0.021": 0.0,
			"0.022": 0.0,
			"0.023": 0.0,
			"0.024": 0.0,
			"0.025": 0.0
		}
	}
}
