{
	 "smiles": "FC1=CC=C(C=C1)C(CCCN1CCC(CC1)N1C(=O)NC2=C1C=CC=C2)C1=CC=C(F)C=C1", 
	 "Tm": 489.15, 
	 "num_atms": 63, 
	 "gaussian": { 
		 "optdone": 1, 
		 "sigma_profile": "yes", 
		 "theory": "DFT", 
		 "functional": "B3LYP", 
		 "basiset": "6-31G**", 
		 "properties": { 
			 "R2extent": 17152.3675, 
			 "electric_dipole_moment_norm": 0.461708241209, 
			 "electric_quadrupole_moment_norm": 25.147979055, 
			 "total_energy": -1523.64273642, 
			 "HOMO_LUMO_gap": 0.18851, 
			 "cosmo_polarized_energy": -17.21, 
			 "cosmo_cavitation_energy": 63.99, 
			 "cosmo_dispersion_energy": -39.76, 
			 "cosmo_repulsion_energy": 2.91, 
			 "cosmo_total_nonelectrostatic_energy": 27.14, 
			 "SMD_solvation_energy": 10.33 
		},
		"coords": [
			{
				"x": 5.4404956679,
				"y": 2.1451008095,
				"z": 0.1732034255,
				"element": "F" 
			},
			{
				"x": 4.3892414007,
				"y": 1.4290955799,
				"z": 0.6259156872,
				"element": "C" 
			},
			{
				"x": 4.6053874795,
				"y": 0.4190749521,
				"z": 1.553206614,
				"element": "C" 
			},
			{
				"x": 3.511801159,
				"y": -0.319253431,
				"z": 2.0129256744,
				"element": "C" 
			},
			{
				"x": 2.2099271939,
				"y": -0.0611902702,
				"z": 1.5596252641,
				"element": "C" 
			},
			{
				"x": 2.0402162058,
				"y": 0.9694132425,
				"z": 0.6202505351,
				"element": "C" 
			},
			{
				"x": 3.1159807808,
				"y": 1.7183460381,
				"z": 0.1473543944,
				"element": "C" 
			},
			{
				"x": 0.9800939171,
				"y": -0.8148952469,
				"z": 2.0638560482,
				"element": "C" 
			},
			{
				"x": 1.2567391944,
				"y": -2.2745293685,
				"z": 2.5072434438,
				"element": "C" 
			},
			{
				"x": 1.745617318,
				"y": -3.2333597693,
				"z": 1.4045660366,
				"element": "C" 
			},
			{
				"x": 0.647695515,
				"y": -3.7913698595,
				"z": 0.4838537506,
				"element": "C" 
			},
			{
				"x": -0.0130353084,
				"y": -2.8069640769,
				"z": -0.3758577807,
				"element": "N" 
			},
			{
				"x": -1.2478228662,
				"y": -3.3251778095,
				"z": -0.9754692019,
				"element": "C" 
			},
			{
				"x": -2.1036766734,
				"y": -2.1660736937,
				"z": -1.5293793663,
				"element": "C" 
			},
			{
				"x": -1.206782363,
				"y": -0.9780110078,
				"z": -1.9392089966,
				"element": "C" 
			},
			{
				"x": 0.1231019694,
				"y": -1.4983712925,
				"z": -2.5041399033,
				"element": "C" 
			},
			{
				"x": 0.8888883893,
				"y": -2.2951127505,
				"z": -1.4224148887,
				"element": "C" 
			},
			{
				"x": -1.8917299601,
				"y": -0.0663816295,
				"z": -2.8601974441,
				"element": "N" 
			},
			{
				"x": -2.3076604737,
				"y": -0.4325904838,
				"z": -4.1436655686,
				"element": "C" 
			},
			{
				"x": -2.1966222562,
				"y": -1.5246565421,
				"z": -4.6835022484,
				"element": "O" 
			},
			{
				"x": -2.8825959427,
				"y": 0.7155774177,
				"z": -4.682973692,
				"element": "N" 
			},
			{
				"x": -2.839783798,
				"y": 1.7704343703,
				"z": -3.7805798415,
				"element": "C" 
			},
			{
				"x": -2.2101850375,
				"y": 1.2721097647,
				"z": -2.6188668368,
				"element": "C" 
			},
			{
				"x": -2.0202509962,
				"y": 2.0908050434,
				"z": -1.5102266091,
				"element": "C" 
			},
			{
				"x": -2.4653638271,
				"y": 3.4169945491,
				"z": -1.5908472307,
				"element": "C" 
			},
			{
				"x": -3.0834053083,
				"y": 3.906670058,
				"z": -2.7451441921,
				"element": "C" 
			},
			{
				"x": -3.2811648772,
				"y": 3.0842701464,
				"z": -3.8617971592,
				"element": "C" 
			},
			{
				"x": 0.2563869948,
				"y": -0.0556507556,
				"z": 3.1782854905,
				"element": "C" 
			},
			{
				"x": -1.1453186858,
				"y": -0.0139439744,
				"z": 3.190275851,
				"element": "C" 
			},
			{
				"x": -1.8480306341,
				"y": 0.6255393722,
				"z": 4.2120844478,
				"element": "C" 
			},
			{
				"x": -1.1284115863,
				"y": 1.2301225144,
				"z": 5.2353714795,
				"element": "C" 
			},
			{
				"x": -1.796578675,
				"y": 1.8563214047,
				"z": 6.2286817982,
				"element": "F" 
			},
			{
				"x": 0.2610704921,
				"y": 1.2128745746,
				"z": 5.2603022427,
				"element": "C" 
			},
			{
				"x": 0.9440585466,
				"y": 0.5693618091,
				"z": 4.2279778121,
				"element": "C" 
			},
			{
				"x": 5.61279201,
				"y": 0.217360031,
				"z": 1.9014077376,
				"element": "H" 
			},
			{
				"x": 3.6908071346,
				"y": -1.1116632794,
				"z": 2.732422725,
				"element": "H" 
			},
			{
				"x": 1.0418462256,
				"y": 1.1956418287,
				"z": 0.2544175321,
				"element": "H" 
			},
			{
				"x": 2.9822673825,
				"y": 2.5124287944,
				"z": -0.579467983,
				"element": "H" 
			},
			{
				"x": 0.2825808068,
				"y": -0.887547508,
				"z": 1.222900661,
				"element": "H" 
			},
			{
				"x": 1.9759625543,
				"y": -2.2694638444,
				"z": 3.3358617901,
				"element": "H" 
			},
			{
				"x": 0.3277145004,
				"y": -2.6704523433,
				"z": 2.9356919615,
				"element": "H" 
			},
			{
				"x": 2.5417137719,
				"y": -2.7639120351,
				"z": 0.8160078408,
				"element": "H" 
			},
			{
				"x": 2.2101975436,
				"y": -4.1030435502,
				"z": 1.8865993648,
				"element": "H" 
			},
			{
				"x": 1.0825716116,
				"y": -4.6122905341,
				"z": -0.1219918566,
				"element": "H" 
			},
			{
				"x": -0.1255142769,
				"y": -4.247528338,
				"z": 1.1146222689,
				"element": "H" 
			},
			{
				"x": -1.0299449447,
				"y": -4.057152645,
				"z": -1.7762677194,
				"element": "H" 
			},
			{
				"x": -1.8086661234,
				"y": -3.8661235993,
				"z": -0.2071304532,
				"element": "H" 
			},
			{
				"x": -2.6615936455,
				"y": -2.5092230545,
				"z": -2.404115174,
				"element": "H" 
			},
			{
				"x": -2.827194821,
				"y": -1.8271803514,
				"z": -0.7800667304,
				"element": "H" 
			},
			{
				"x": -0.9878274521,
				"y": -0.3836979423,
				"z": -1.0491513771,
				"element": "H" 
			},
			{
				"x": 0.7363299246,
				"y": -0.6626944697,
				"z": -2.8558668997,
				"element": "H" 
			},
			{
				"x": -0.0971179956,
				"y": -2.1226285963,
				"z": -3.373869373,
				"element": "H" 
			},
			{
				"x": 1.4400682939,
				"y": -3.1247906202,
				"z": -1.9056166438,
				"element": "H" 
			},
			{
				"x": 1.6352385953,
				"y": -1.6512516094,
				"z": -0.9472071758,
				"element": "H" 
			},
			{
				"x": -3.2702494058,
				"y": 0.721613834,
				"z": -5.6124490497,
				"element": "H" 
			},
			{
				"x": -1.5530646115,
				"y": 1.7206667347,
				"z": -0.6035787529,
				"element": "H" 
			},
			{
				"x": -2.3271976364,
				"y": 4.0724678421,
				"z": -0.7366558406,
				"element": "H" 
			},
			{
				"x": -3.4182965332,
				"y": 4.9385858164,
				"z": -2.7796538512,
				"element": "H" 
			},
			{
				"x": -3.7638544661,
				"y": 3.460220366,
				"z": -4.7585819333,
				"element": "H" 
			},
			{
				"x": -1.6989630253,
				"y": -0.4936853882,
				"z": 2.3867417528,
				"element": "H" 
			},
			{
				"x": -2.9321376932,
				"y": 0.6637561977,
				"z": 4.2221230136,
				"element": "H" 
			},
			{
				"x": 0.7881691632,
				"y": 1.701799989,
				"z": 6.072730795,
				"element": "H" 
			},
			{
				"x": 2.0297801573,
				"y": 0.5688085897,
				"z": 4.2350343348,
				"element": "H" 
			}
		],
		 "valence_orbital": [ 
			{
				"type": "occ",
				"energy": -0.24467,
				"method": "rhf"
			},
			{
				"type": "occ",
				"energy": -0.23629,
				"method": "rhf"
			},
			{
				"type": "occ",
				"energy": -0.23139,
				"method": "rhf"
			},
			{
				"type": "occ",
				"energy": -0.21487,
				"method": "rhf"
			},
			{
				"type": "occ",
				"energy": -0.20573,
				"method": "rhf"
			},
			{
				"type": "unocc",
				"energy": -0.01722,
				"method": "rhf"
			},
			{
				"type": "unocc",
				"energy": -0.01045,
				"method": "rhf"
			},
			{
				"type": "unocc",
				"energy": -0.00719,
				"method": "rhf"
			},
			{
				"type": "unocc",
				"energy": -0.00396,
				"method": "rhf"
			},
			{
				"type": "unocc",
				"energy": 0.00897,
				"method": "rhf"
			}
		],
		"cosmo_sigma_profile": { 
			"-0.025": 0.0,
			"-0.024": 0.0,
			"-0.023": 0.0,
			"-0.022": 0.0,
			"-0.021": 0.0,
			"-0.02": 0.0,
			"-0.019": 0.0,
			"-0.018": 0.0,
			"-0.017": 0.0243179953662,
			"-0.016": 0.827337368071,
			"-0.015": 1.53354252779,
			"-0.014": 1.04466943847,
			"-0.013": 1.14656932264,
			"-0.012": 0.878381198235,
			"-0.011": 0.885918267221,
			"-0.01": 0.957404789116,
			"-0.009": 1.04405090709,
			"-0.008": 1.34580530083,
			"-0.007": 7.54991907127,
			"-0.006": 14.781393009,
			"-0.005": 24.7895102878,
			"-0.004": 35.4576496423,
			"-0.003": 39.2709531986,
			"-0.002": 50.0873317098,
			"-0.001": 63.7508502578,
			"0.0": 51.2849723197,
			"0.001": 41.3001710293,
			"0.002": 33.1729366026,
			"0.003": 31.6301583764,
			"0.004": 42.4584155396,
			"0.005": 32.8909167438,
			"0.006": 9.41243331554,
			"0.007": 3.46195676542,
			"0.008": 1.28186320126,
			"0.009": 1.25856030472,
			"0.01": 1.65927315315,
			"0.011": 1.40061917523,
			"0.012": 1.72453743682,
			"0.013": 2.9874369638,
			"0.014": 4.14952770929,
			"0.015": 0.674336262762,
			"0.016": 0.0,
			"0.017": 0.0,
			"0.018": 0.0,
			"0.019": 0.0,
			"0.02": 0.0,
			"0.021": 0.0,
			"0.022": 0.0,
			"0.023": 0.0,
			"0.024": 0.0,
			"0.025": 0.0
		}
	}
}
