{
	 "smiles": "CC(=O)C1=CC=C2NC(=O)OC2=C1", 
	 "Tm": 508.65, 
	 "num_atms": 20, 
	 "gaussian": { 
		 "optdone": 1, 
		 "sigma_profile": "yes", 
		 "theory": "DFT", 
		 "functional": "B3LYP", 
		 "basiset": "6-31G**", 
		 "properties": { 
			 "R2extent": 3226.9218, 
			 "electric_dipole_moment_norm": 1.49942300236, 
			 "electric_quadrupole_moment_norm": 32.5521985691, 
			 "total_energy": -627.621985445, 
			 "HOMO_LUMO_gap": 0.17689, 
			 "cosmo_polarized_energy": -16.68, 
			 "cosmo_cavitation_energy": 25.1, 
			 "cosmo_dispersion_energy": -18.79, 
			 "cosmo_repulsion_energy": 1.47, 
			 "cosmo_total_nonelectrostatic_energy": 7.79, 
			 "SMD_solvation_energy": 6.24 
		},
		"coords": [
			{
				"x": -0.4917428347,
				"y": 1.9654882335,
				"z": -2.3959068515,
				"element": "C" 
			},
			{
				"x": -1.0352549759,
				"y": 0.9325009446,
				"z": -1.4229789538,
				"element": "C" 
			},
			{
				"x": -2.2014443028,
				"y": 0.5723434671,
				"z": -1.4857391046,
				"element": "O" 
			},
			{
				"x": -0.1148975197,
				"y": 0.3611287921,
				"z": -0.3877734018,
				"element": "C" 
			},
			{
				"x": -0.6427187221,
				"y": -0.5943433534,
				"z": 0.4995082187,
				"element": "C" 
			},
			{
				"x": 0.1294241171,
				"y": -1.1873710187,
				"z": 1.4990499858,
				"element": "C" 
			},
			{
				"x": 1.4604946877,
				"y": -0.7917120241,
				"z": 1.5857081873,
				"element": "C" 
			},
			{
				"x": 2.5146871795,
				"y": -1.1392617591,
				"z": 2.4169950542,
				"element": "N" 
			},
			{
				"x": 3.6622423329,
				"y": -0.4364379408,
				"z": 2.0743700475,
				"element": "C" 
			},
			{
				"x": 4.7557060482,
				"y": -0.4793494817,
				"z": 2.5700795032,
				"element": "O" 
			},
			{
				"x": 3.3172452456,
				"y": 0.3750086432,
				"z": 0.9970411791,
				"element": "O" 
			},
			{
				"x": 1.9882824022,
				"y": 0.1594167336,
				"z": 0.7034676434,
				"element": "C" 
			},
			{
				"x": 1.2369052965,
				"y": 0.7526895889,
				"z": -0.2879399325,
				"element": "C" 
			},
			{
				"x": 0.3399522641,
				"y": 1.5574076192,
				"z": -2.9810316782,
				"element": "H" 
			},
			{
				"x": -0.1167862517,
				"y": 2.8480531383,
				"z": -1.8657245837,
				"element": "H" 
			},
			{
				"x": -1.2947300413,
				"y": 2.2639109405,
				"z": -3.0700742551,
				"element": "H" 
			},
			{
				"x": -1.6872154506,
				"y": -0.8600634166,
				"z": 0.3798951688,
				"element": "H" 
			},
			{
				"x": -0.2920998695,
				"y": -1.9229904579,
				"z": 2.1759441316,
				"element": "H" 
			},
			{
				"x": 2.5093925315,
				"y": -1.8002324859,
				"z": 3.1775594413,
				"element": "H" 
			},
			{
				"x": 1.681357863,
				"y": 1.4846138369,
				"z": -0.9512497999,
				"element": "H" 
			}
		],
		 "valence_orbital": [ 
			{
				"type": "occ",
				"energy": -0.32594,
				"method": "rhf"
			},
			{
				"type": "occ",
				"energy": -0.30232,
				"method": "rhf"
			},
			{
				"type": "occ",
				"energy": -0.27025,
				"method": "rhf"
			},
			{
				"type": "occ",
				"energy": -0.25395,
				"method": "rhf"
			},
			{
				"type": "occ",
				"energy": -0.238,
				"method": "rhf"
			},
			{
				"type": "unocc",
				"energy": -0.06111,
				"method": "rhf"
			},
			{
				"type": "unocc",
				"energy": -0.0228,
				"method": "rhf"
			},
			{
				"type": "unocc",
				"energy": 0.02929,
				"method": "rhf"
			},
			{
				"type": "unocc",
				"energy": 0.04363,
				"method": "rhf"
			},
			{
				"type": "unocc",
				"energy": 0.06239,
				"method": "rhf"
			}
		],
		"cosmo_sigma_profile": { 
			"-0.025": 0.0,
			"-0.024": 0.0,
			"-0.023": 0.0,
			"-0.022": 0.0,
			"-0.021": 0.0,
			"-0.02": 0.0,
			"-0.019": 0.0,
			"-0.018": 0.46037407357,
			"-0.017": 1.67143378497,
			"-0.016": 1.59417780123,
			"-0.015": 1.32514453798,
			"-0.014": 1.09887490375,
			"-0.013": 0.667765526377,
			"-0.012": 1.25191207064,
			"-0.011": 1.29637272807,
			"-0.01": 0.927061330429,
			"-0.009": 1.36004708736,
			"-0.008": 4.55436967419,
			"-0.007": 6.76708122666,
			"-0.006": 10.991965373,
			"-0.005": 12.962693068,
			"-0.004": 12.9516778219,
			"-0.003": 13.2371327141,
			"-0.002": 14.1307336018,
			"-0.001": 15.2833481424,
			"0.0": 13.7515129078,
			"0.001": 12.056620105,
			"0.002": 14.5323946224,
			"0.003": 9.48817220194,
			"0.004": 3.4413372492,
			"0.005": 4.72548386883,
			"0.006": 4.34630197477,
			"0.007": 4.98742878309,
			"0.008": 4.39921550641,
			"0.009": 3.61120905237,
			"0.01": 3.92381552186,
			"0.011": 9.4760904954,
			"0.012": 8.18133118316,
			"0.013": 1.81424157024,
			"0.014": 0.226941440021,
			"0.015": 0.0,
			"0.016": 0.0,
			"0.017": 0.0,
			"0.018": 0.0,
			"0.019": 0.0,
			"0.02": 0.0,
			"0.021": 0.0,
			"0.022": 0.0,
			"0.023": 0.0,
			"0.024": 0.0,
			"0.025": 0.0
		}
	}
}
