{
	 "smiles": "BrC1=C(C(=O)ON1C1=CC=CC=C1)C1=CC=CC=C1", 
	 "Tm": 439.15, 
	 "num_atms": 29, 
	 "gaussian": { 
		 "optdone": 1, 
		 "sigma_profile": "yes", 
		 "theory": "DFT", 
		 "functional": "B3LYP", 
		 "basiset": "6-31G**", 
		 "properties": { 
			 "R2extent": 7199.4656, 
			 "electric_dipole_moment_norm": 4.59694129721, 
			 "electric_quadrupole_moment_norm": 17.1900460913, 
			 "total_energy": -3354.16646609, 
			 "HOMO_LUMO_gap": 0.16686, 
			 "cosmo_polarized_energy": -11.23, 
			 "cosmo_cavitation_energy": 36.1, 
			 "cosmo_dispersion_energy": -26.16, 
			 "cosmo_repulsion_energy": 1.99, 
			 "cosmo_total_nonelectrostatic_energy": 11.92, 
			 "SMD_solvation_energy": 6.17 
		},
		"coords": [
			{
				"x": 1.4299538719,
				"y": -2.0982026011,
				"z": 1.4692569926,
				"element": "Br" 
			},
			{
				"x": 0.1191498164,
				"y": -0.9063985358,
				"z": 0.8496680245,
				"element": "C" 
			},
			{
				"x": -0.5021742688,
				"y": 0.1164333924,
				"z": 1.506358457,
				"element": "C" 
			},
			{
				"x": -1.3295342071,
				"y": 0.772299396,
				"z": 0.4927988487,
				"element": "C" 
			},
			{
				"x": -2.0586904358,
				"y": 1.7344286882,
				"z": 0.5165027778,
				"element": "O" 
			},
			{
				"x": -1.178197709,
				"y": 0.0478081326,
				"z": -0.7021332087,
				"element": "O" 
			},
			{
				"x": -0.3241099281,
				"y": -1.0487214437,
				"z": -0.4502358911,
				"element": "N" 
			},
			{
				"x": 0.4520946341,
				"y": -1.4227512183,
				"z": -1.5950593802,
				"element": "C" 
			},
			{
				"x": 0.9732215118,
				"y": -0.4476770291,
				"z": -2.451327146,
				"element": "C" 
			},
			{
				"x": 1.7052100214,
				"y": -0.8465137195,
				"z": -3.5683697515,
				"element": "C" 
			},
			{
				"x": 1.9263237495,
				"y": -2.2026481023,
				"z": -3.8211513598,
				"element": "C" 
			},
			{
				"x": 1.3979165976,
				"y": -3.1669736226,
				"z": -2.9611353803,
				"element": "C" 
			},
			{
				"x": 0.6434956089,
				"y": -2.7819456723,
				"z": -1.8530481843,
				"element": "C" 
			},
			{
				"x": -0.4325894589,
				"y": 0.564835732,
				"z": 2.9050957875,
				"element": "C" 
			},
			{
				"x": -0.2027277708,
				"y": -0.332913793,
				"z": 3.9628128214,
				"element": "C" 
			},
			{
				"x": -0.1399128693,
				"y": 0.1208776602,
				"z": 5.2786208254,
				"element": "C" 
			},
			{
				"x": -0.3132027361,
				"y": 1.4757892214,
				"z": 5.5668758711,
				"element": "C" 
			},
			{
				"x": -0.5587808126,
				"y": 2.3729736829,
				"z": 4.5261209267,
				"element": "C" 
			},
			{
				"x": -0.6213193884,
				"y": 1.9262747321,
				"z": 3.2078076837,
				"element": "C" 
			},
			{
				"x": 0.7914902412,
				"y": 0.6013419932,
				"z": -2.2473491791,
				"element": "H" 
			},
			{
				"x": 2.1081476946,
				"y": -0.0941110113,
				"z": -4.2395537339,
				"element": "H" 
			},
			{
				"x": 2.5010813764,
				"y": -2.506360568,
				"z": -4.6908143069,
				"element": "H" 
			},
			{
				"x": 1.5554626632,
				"y": -4.2224311437,
				"z": -3.1608014594,
				"element": "H" 
			},
			{
				"x": 0.2021524143,
				"y": -3.5196503183,
				"z": -1.1923504143,
				"element": "H" 
			},
			{
				"x": -0.0885826022,
				"y": -1.3912656446,
				"z": 3.7590259525,
				"element": "H" 
			},
			{
				"x": 0.0357564058,
				"y": -0.5896222769,
				"z": 6.0813678912,
				"element": "H" 
			},
			{
				"x": -0.2655562081,
				"y": 1.8271156217,
				"z": 6.5935400275,
				"element": "H" 
			},
			{
				"x": -0.7046979175,
				"y": 3.4280294528,
				"z": 4.7393150459,
				"element": "H" 
			},
			{
				"x": -0.8300802942,
				"y": 2.6245789947,
				"z": 2.4063614617,
				"element": "H" 
			}
		],
		 "valence_orbital": [ 
			{
				"type": "occ",
				"energy": -0.27563,
				"method": "rhf"
			},
			{
				"type": "occ",
				"energy": -0.27007,
				"method": "rhf"
			},
			{
				"type": "occ",
				"energy": -0.25727,
				"method": "rhf"
			},
			{
				"type": "occ",
				"energy": -0.24924,
				"method": "rhf"
			},
			{
				"type": "occ",
				"energy": -0.21671,
				"method": "rhf"
			},
			{
				"type": "unocc",
				"energy": -0.04985,
				"method": "rhf"
			},
			{
				"type": "unocc",
				"energy": -0.0249,
				"method": "rhf"
			},
			{
				"type": "unocc",
				"energy": -0.02153,
				"method": "rhf"
			},
			{
				"type": "unocc",
				"energy": -0.01725,
				"method": "rhf"
			},
			{
				"type": "unocc",
				"energy": -0.00218,
				"method": "rhf"
			}
		],
		"cosmo_sigma_profile": { 
			"-0.025": 0.0,
			"-0.024": 0.0,
			"-0.023": 0.0,
			"-0.022": 0.0,
			"-0.021": 0.0,
			"-0.02": 0.0,
			"-0.019": 0.0,
			"-0.018": 0.0,
			"-0.017": 0.0,
			"-0.016": 0.0,
			"-0.015": 0.0,
			"-0.014": 0.0,
			"-0.013": 0.0,
			"-0.012": 0.0,
			"-0.011": 0.0,
			"-0.01": 0.0,
			"-0.009": 0.0,
			"-0.008": 0.557016250503,
			"-0.007": 7.60530605836,
			"-0.006": 17.6086450858,
			"-0.005": 23.1440930372,
			"-0.004": 25.8188695752,
			"-0.003": 22.539291291,
			"-0.002": 20.3396989146,
			"-0.001": 22.8477644751,
			"0.0": 22.3167439744,
			"0.001": 23.8301920141,
			"0.002": 24.9982474722,
			"0.003": 23.4151541121,
			"0.004": 20.5553741802,
			"0.005": 14.0396601507,
			"0.006": 6.44178713712,
			"0.007": 3.71636769409,
			"0.008": 1.74637318206,
			"0.009": 1.72250192716,
			"0.01": 2.52300184602,
			"0.011": 4.57633150273,
			"0.012": 3.72229852798,
			"0.013": 0.272519577354,
			"0.014": 0.0,
			"0.015": 0.0,
			"0.016": 0.0,
			"0.017": 0.0,
			"0.018": 0.0,
			"0.019": 0.0,
			"0.02": 0.0,
			"0.021": 0.0,
			"0.022": 0.0,
			"0.023": 0.0,
			"0.024": 0.0,
			"0.025": 0.0
		}
	}
}
