{
	 "smiles": "CCCC(=O)OCOC1=CC=CC=C1C(N)=O", 
	 "Tm": 330.15, 
	 "num_atms": 32, 
	 "gaussian": { 
		 "optdone": 1, 
		 "sigma_profile": "yes", 
		 "theory": "DFT", 
		 "functional": "B3LYP", 
		 "basiset": "6-31G**", 
		 "properties": { 
			 "R2extent": 4016.2492, 
			 "electric_dipole_moment_norm": 3.27642290463, 
			 "electric_quadrupole_moment_norm": 17.7260609539, 
			 "total_energy": -821.993472918, 
			 "HOMO_LUMO_gap": 0.21185, 
			 "cosmo_polarized_energy": -16.05, 
			 "cosmo_cavitation_energy": 35.67, 
			 "cosmo_dispersion_energy": -23.46, 
			 "cosmo_repulsion_energy": 1.83, 
			 "cosmo_total_nonelectrostatic_energy": 14.04, 
			 "SMD_solvation_energy": 7.51 
		},
		"coords": [
			{
				"x": -2.0545876027,
				"y": -0.8781323917,
				"z": 0.7836457827,
				"element": "C" 
			},
			{
				"x": -2.3223532029,
				"y": -0.929333774,
				"z": -0.7236695172,
				"element": "C" 
			},
			{
				"x": -2.3337517017,
				"y": 0.4611987624,
				"z": -1.398698718,
				"element": "C" 
			},
			{
				"x": -0.9802614679,
				"y": 1.1307200914,
				"z": -1.3609546764,
				"element": "C" 
			},
			{
				"x": -0.6662281166,
				"y": 2.0762723773,
				"z": -0.6773673884,
				"element": "O" 
			},
			{
				"x": -0.1140075115,
				"y": 0.5045229864,
				"z": -2.2286958744,
				"element": "O" 
			},
			{
				"x": 1.2407756987,
				"y": 0.9454126637,
				"z": -2.2444998157,
				"element": "C" 
			},
			{
				"x": 2.0851561555,
				"y": -0.0377520508,
				"z": -1.684637298,
				"element": "O" 
			},
			{
				"x": 2.2450803248,
				"y": -0.0445234307,
				"z": -0.2978980233,
				"element": "C" 
			},
			{
				"x": 2.8095079955,
				"y": 1.0744485043,
				"z": 0.3193804004,
				"element": "C" 
			},
			{
				"x": 3.0222247588,
				"y": 1.0832780737,
				"z": 1.6951338469,
				"element": "C" 
			},
			{
				"x": 2.679172895,
				"y": -0.0343695102,
				"z": 2.4590040963,
				"element": "C" 
			},
			{
				"x": 2.1319150542,
				"y": -1.1496980606,
				"z": 1.8356519756,
				"element": "C" 
			},
			{
				"x": 1.9034289548,
				"y": -1.186231333,
				"z": 0.4504091765,
				"element": "C" 
			},
			{
				"x": 1.3075355856,
				"y": -2.4775229062,
				"z": -0.0712975134,
				"element": "C" 
			},
			{
				"x": 1.2297767393,
				"y": -2.6352031794,
				"z": -1.4199303174,
				"element": "N" 
			},
			{
				"x": 0.9305349422,
				"y": -3.3494804647,
				"z": 0.7077453673,
				"element": "O" 
			},
			{
				"x": -2.8428600874,
				"y": -0.3252674012,
				"z": 1.3067313167,
				"element": "H" 
			},
			{
				"x": -1.1022901148,
				"y": -0.3879397541,
				"z": 1.0092320555,
				"element": "H" 
			},
			{
				"x": -2.0076003308,
				"y": -1.8874014583,
				"z": 1.2023261708,
				"element": "H" 
			},
			{
				"x": -3.2946167689,
				"y": -1.3995771883,
				"z": -0.9114053092,
				"element": "H" 
			},
			{
				"x": -1.5708504331,
				"y": -1.5545860069,
				"z": -1.2174239514,
				"element": "H" 
			},
			{
				"x": -3.0392157694,
				"y": 1.1290349591,
				"z": -0.8972953119,
				"element": "H" 
			},
			{
				"x": -2.6341605999,
				"y": 0.3562942833,
				"z": -2.4469518491,
				"element": "H" 
			},
			{
				"x": 1.5314496033,
				"y": 1.027962087,
				"z": -3.2921046083,
				"element": "H" 
			},
			{
				"x": 1.3173185504,
				"y": 1.8983863365,
				"z": -1.7189415635,
				"element": "H" 
			},
			{
				"x": 3.0909759803,
				"y": 1.929720646,
				"z": -0.2863633182,
				"element": "H" 
			},
			{
				"x": 3.4609731406,
				"y": 1.9587500765,
				"z": 2.1645178789,
				"element": "H" 
			},
			{
				"x": 2.8432324636,
				"y": -0.036676736,
				"z": 3.5320631415,
				"element": "H" 
			},
			{
				"x": 1.8549288059,
				"y": -2.0346892719,
				"z": 2.3978501033,
				"element": "H" 
			},
			{
				"x": 1.4963845204,
				"y": -1.8943435028,
				"z": -2.0495547057,
				"element": "H" 
			},
			{
				"x": 0.8304115385,
				"y": -3.496673427,
				"z": -1.7583015531,
				"element": "H" 
			}
		],
		 "valence_orbital": [ 
			{
				"type": "occ",
				"energy": -0.27931,
				"method": "rhf"
			},
			{
				"type": "occ",
				"energy": -0.26169,
				"method": "rhf"
			},
			{
				"type": "occ",
				"energy": -0.2556,
				"method": "rhf"
			},
			{
				"type": "occ",
				"energy": -0.24812,
				"method": "rhf"
			},
			{
				"type": "occ",
				"energy": -0.24727,
				"method": "rhf"
			},
			{
				"type": "unocc",
				"energy": -0.03542,
				"method": "rhf"
			},
			{
				"type": "unocc",
				"energy": -0.01133,
				"method": "rhf"
			},
			{
				"type": "unocc",
				"energy": 0.00056,
				"method": "rhf"
			},
			{
				"type": "unocc",
				"energy": 0.06738,
				"method": "rhf"
			},
			{
				"type": "unocc",
				"energy": 0.08601,
				"method": "rhf"
			}
		],
		"cosmo_sigma_profile": { 
			"-0.025": 0.0,
			"-0.024": 0.0,
			"-0.023": 0.0,
			"-0.022": 0.0,
			"-0.021": 0.0,
			"-0.02": 0.0,
			"-0.019": 0.0,
			"-0.018": 0.0,
			"-0.017": 0.0,
			"-0.016": 0.0,
			"-0.015": 0.0,
			"-0.014": 0.453087690985,
			"-0.013": 1.04771771787,
			"-0.012": 1.38151715382,
			"-0.011": 0.667802418615,
			"-0.01": 1.74460738801,
			"-0.009": 2.81322871107,
			"-0.008": 6.77622327351,
			"-0.007": 8.30463126018,
			"-0.006": 13.3496993844,
			"-0.005": 15.5341753506,
			"-0.004": 17.9057646833,
			"-0.003": 23.0665438335,
			"-0.002": 23.1105942611,
			"-0.001": 23.5335288333,
			"0.0": 23.5413745461,
			"0.001": 22.5985282044,
			"0.002": 20.0737898834,
			"0.003": 17.5908260024,
			"0.004": 14.5908109589,
			"0.005": 8.42153267452,
			"0.006": 4.52027346138,
			"0.007": 4.40237449396,
			"0.008": 4.11849479518,
			"0.009": 3.2370440634,
			"0.01": 3.08408054028,
			"0.011": 4.45540527115,
			"0.012": 3.6350533832,
			"0.013": 3.11424892015,
			"0.014": 4.23710976777,
			"0.015": 0.80736428151,
			"0.016": 0.0,
			"0.017": 0.0,
			"0.018": 0.0,
			"0.019": 0.0,
			"0.02": 0.0,
			"0.021": 0.0,
			"0.022": 0.0,
			"0.023": 0.0,
			"0.024": 0.0,
			"0.025": 0.0
		}
	}
}
