{
	 "smiles": "ClC1=CC(Cl)=C(C=C1)C(=O)OOC(=O)C1=C(Cl)C=C(Cl)C=C1", 
	 "Tm": 379.15, 
	 "num_atms": 28, 
	 "gaussian": { 
		 "optdone": 1, 
		 "sigma_profile": "yes", 
		 "theory": "DFT", 
		 "functional": "B3LYP", 
		 "basiset": "6-31G**", 
		 "properties": { 
			 "R2extent": 11383.4343, 
			 "electric_dipole_moment_norm": 4.57150048124, 
			 "electric_quadrupole_moment_norm": 14.8545257036, 
			 "total_energy": -2678.67555206, 
			 "HOMO_LUMO_gap": 0.18535, 
			 "cosmo_polarized_energy": -13.21, 
			 "cosmo_cavitation_energy": 42.58, 
			 "cosmo_dispersion_energy": -28.99, 
			 "cosmo_repulsion_energy": 2.25, 
			 "cosmo_total_nonelectrostatic_energy": 15.84, 
			 "SMD_solvation_energy": 7.35 
		},
		"coords": [
			{
				"x": -3.5064909439,
				"y": -1.9700659359,
				"z": -3.5436256683,
				"element": "Cl" 
			},
			{
				"x": -2.917873733,
				"y": -1.6702594866,
				"z": -1.9228844049,
				"element": "C" 
			},
			{
				"x": -1.8696686402,
				"y": -2.4446841891,
				"z": -1.4300801492,
				"element": "C" 
			},
			{
				"x": -1.4038756111,
				"y": -2.2144740413,
				"z": -0.1351309046,
				"element": "C" 
			},
			{
				"x": -0.0809629993,
				"y": -3.199677317,
				"z": 0.433665964,
				"element": "Cl" 
			},
			{
				"x": -1.9630460925,
				"y": -1.1995753729,
				"z": 0.6604867147,
				"element": "C" 
			},
			{
				"x": -3.0119185721,
				"y": -0.4341102089,
				"z": 0.1276453365,
				"element": "C" 
			},
			{
				"x": -3.5013135431,
				"y": -0.6636945602,
				"z": -1.1532872356,
				"element": "C" 
			},
			{
				"x": -1.5687716934,
				"y": -1.015561184,
				"z": 2.0875094758,
				"element": "C" 
			},
			{
				"x": -1.4925897843,
				"y": -1.8781184182,
				"z": 2.9174593824,
				"element": "O" 
			},
			{
				"x": -1.3709063476,
				"y": 0.2784697333,
				"z": 2.5700693348,
				"element": "O" 
			},
			{
				"x": -1.2178738518,
				"y": 1.2967243581,
				"z": 1.5436875419,
				"element": "O" 
			},
			{
				"x": 0.0695432515,
				"y": 1.3012864075,
				"z": 1.0577531615,
				"element": "C" 
			},
			{
				"x": 0.8670928297,
				"y": 0.4249301838,
				"z": 1.277121398,
				"element": "O" 
			},
			{
				"x": 0.3227217122,
				"y": 2.4672850407,
				"z": 0.1558302061,
				"element": "C" 
			},
			{
				"x": -0.3444389905,
				"y": 3.7083817907,
				"z": 0.1276182216,
				"element": "C" 
			},
			{
				"x": -1.6344607227,
				"y": 4.1380127779,
				"z": 1.2283003522,
				"element": "Cl" 
			},
			{
				"x": 0.0329610101,
				"y": 4.6970082248,
				"z": -0.7837507089,
				"element": "C" 
			},
			{
				"x": 1.0751645877,
				"y": 4.4518190102,
				"z": -1.6742961546,
				"element": "C" 
			},
			{
				"x": 1.5281631629,
				"y": 5.6962381021,
				"z": -2.8146349194,
				"element": "Cl" 
			},
			{
				"x": 1.7633804589,
				"y": 3.237937697,
				"z": -1.6647812441,
				"element": "C" 
			},
			{
				"x": 1.3819441766,
				"y": 2.2685579448,
				"z": -0.748995209,
				"element": "C" 
			},
			{
				"x": -1.4204200693,
				"y": -3.2194366895,
				"z": -2.0387177862,
				"element": "H" 
			},
			{
				"x": -3.4542278648,
				"y": 0.3480854069,
				"z": 0.7342305459,
				"element": "H" 
			},
			{
				"x": -4.3186041657,
				"y": -0.0732767945,
				"z": -1.5501849088,
				"element": "H" 
			},
			{
				"x": -0.4819011519,
				"y": 5.6494593467,
				"z": -0.7889337469,
				"element": "H" 
			},
			{
				"x": 2.5778243035,
				"y": 3.0614328907,
				"z": -2.3572937187,
				"element": "H" 
			},
			{
				"x": 1.9035492844,
				"y": 1.319005283,
				"z": -0.7077808762,
				"element": "H" 
			}
		],
		 "valence_orbital": [ 
			{
				"type": "occ",
				"energy": -0.30011,
				"method": "rhf"
			},
			{
				"type": "occ",
				"energy": -0.28529,
				"method": "rhf"
			},
			{
				"type": "occ",
				"energy": -0.27948,
				"method": "rhf"
			},
			{
				"type": "occ",
				"energy": -0.27705,
				"method": "rhf"
			},
			{
				"type": "occ",
				"energy": -0.26837,
				"method": "rhf"
			},
			{
				"type": "unocc",
				"energy": -0.08302,
				"method": "rhf"
			},
			{
				"type": "unocc",
				"energy": -0.06771,
				"method": "rhf"
			},
			{
				"type": "unocc",
				"energy": -0.04751,
				"method": "rhf"
			},
			{
				"type": "unocc",
				"energy": -0.04188,
				"method": "rhf"
			},
			{
				"type": "unocc",
				"energy": -0.03474,
				"method": "rhf"
			}
		],
		"cosmo_sigma_profile": { 
			"-0.025": 0.0,
			"-0.024": 0.0,
			"-0.023": 0.0,
			"-0.022": 0.0,
			"-0.021": 0.0,
			"-0.02": 0.0,
			"-0.019": 0.0,
			"-0.018": 0.0,
			"-0.017": 0.0,
			"-0.016": 0.0,
			"-0.015": 0.0,
			"-0.014": 0.0,
			"-0.013": 0.0,
			"-0.012": 0.0,
			"-0.011": 0.0,
			"-0.01": 0.0978645513125,
			"-0.009": 5.54231577304,
			"-0.008": 11.6474701006,
			"-0.007": 11.0535106741,
			"-0.006": 9.78156469217,
			"-0.005": 12.578987721,
			"-0.004": 13.7599472944,
			"-0.003": 20.8159905054,
			"-0.002": 25.769255477,
			"-0.001": 46.1469128011,
			"0.0": 44.9600447211,
			"0.001": 25.7959183538,
			"0.002": 25.3239781165,
			"0.003": 39.1169447911,
			"0.004": 22.5402081539,
			"0.005": 10.0752543814,
			"0.006": 5.67532419933,
			"0.007": 5.12966896802,
			"0.008": 5.57754292395,
			"0.009": 8.70059014644,
			"0.01": 3.10901824124,
			"0.011": 0.0,
			"0.012": 0.0,
			"0.013": 0.0,
			"0.014": 0.0,
			"0.015": 0.0,
			"0.016": 0.0,
			"0.017": 0.0,
			"0.018": 0.0,
			"0.019": 0.0,
			"0.02": 0.0,
			"0.021": 0.0,
			"0.022": 0.0,
			"0.023": 0.0,
			"0.024": 0.0,
			"0.025": 0.0
		}
	}
}
