{
	 "smiles": "COC(=O)C1=CC=C(N1C)S(=O)(=O)NC(C)(C)C", 
	 "Tm": 377.15, 
	 "num_atms": 36, 
	 "gaussian": { 
		 "optdone": 1, 
		 "sigma_profile": "yes", 
		 "theory": "DFT", 
		 "functional": "B3LYP", 
		 "basiset": "6-31G**", 
		 "properties": { 
			 "R2extent": 7008.9589, 
			 "electric_dipole_moment_norm": 4.01835604321, 
			 "electric_quadrupole_moment_norm": 13.8372625515, 
			 "total_energy": -1238.54455948, 
			 "HOMO_LUMO_gap": 0.19255, 
			 "cosmo_polarized_energy": -14.37, 
			 "cosmo_cavitation_energy": 39.16, 
			 "cosmo_dispersion_energy": -27.6, 
			 "cosmo_repulsion_energy": 2.07, 
			 "cosmo_total_nonelectrostatic_energy": 13.62, 
			 "SMD_solvation_energy": 7.85 
		},
		"coords": [
			{
				"x": 1.4291620912,
				"y": 3.7863789702,
				"z": 5.664128352,
				"element": "C" 
			},
			{
				"x": 1.5627284513,
				"y": 2.8108843386,
				"z": 4.6195971307,
				"element": "O" 
			},
			{
				"x": 0.428715831,
				"y": 2.5524811771,
				"z": 3.9263875246,
				"element": "C" 
			},
			{
				"x": -0.6311662262,
				"y": 3.1067031512,
				"z": 4.1676709863,
				"element": "O" 
			},
			{
				"x": 0.682230964,
				"y": 1.5436623294,
				"z": 2.8897911708,
				"element": "C" 
			},
			{
				"x": 1.8897072573,
				"y": 0.9106527406,
				"z": 2.602640663,
				"element": "C" 
			},
			{
				"x": 1.6673900732,
				"y": 0.0252379941,
				"z": 1.5361113034,
				"element": "C" 
			},
			{
				"x": 0.3266884327,
				"y": 0.1510076842,
				"z": 1.1947730957,
				"element": "C" 
			},
			{
				"x": -0.2802996549,
				"y": 1.0656854489,
				"z": 2.0158869641,
				"element": "N" 
			},
			{
				"x": -1.7057391539,
				"y": 1.4212522074,
				"z": 1.9683486234,
				"element": "C" 
			},
			{
				"x": -0.5959365351,
				"y": -0.7403208492,
				"z": -0.0348569219,
				"element": "S" 
			},
			{
				"x": -1.4066840027,
				"y": -1.7626211332,
				"z": 0.639710273,
				"element": "O" 
			},
			{
				"x": -1.2482350478,
				"y": 0.250794278,
				"z": -0.9023210445,
				"element": "O" 
			},
			{
				"x": 0.6179354077,
				"y": -1.5668148593,
				"z": -0.8407205299,
				"element": "N" 
			},
			{
				"x": 1.1253792132,
				"y": -1.2178813623,
				"z": -2.2091052312,
				"element": "C" 
			},
			{
				"x": 1.6421370131,
				"y": 0.228164796,
				"z": -2.2268892473,
				"element": "C" 
			},
			{
				"x": 0.0412416281,
				"y": -1.4283103408,
				"z": -3.2825511972,
				"element": "C" 
			},
			{
				"x": 2.2949964149,
				"y": -2.1891358206,
				"z": -2.4451432281,
				"element": "C" 
			},
			{
				"x": 1.108718707,
				"y": 4.7484943921,
				"z": 5.2564473645,
				"element": "H" 
			},
			{
				"x": 0.6985359385,
				"y": 3.4589450523,
				"z": 6.4080951566,
				"element": "H" 
			},
			{
				"x": 2.4191820951,
				"y": 3.8712738409,
				"z": 6.1119049815,
				"element": "H" 
			},
			{
				"x": 2.8170968044,
				"y": 1.0898294716,
				"z": 3.1247993152,
				"element": "H" 
			},
			{
				"x": 2.3720557681,
				"y": -0.6360291269,
				"z": 1.0577112385,
				"element": "H" 
			},
			{
				"x": -1.9392425005,
				"y": 1.8603992181,
				"z": 0.997083564,
				"element": "H" 
			},
			{
				"x": -1.9052676352,
				"y": 2.1292450279,
				"z": 2.7669080634,
				"element": "H" 
			},
			{
				"x": -2.3051590684,
				"y": 0.5174895717,
				"z": 2.1018063463,
				"element": "H" 
			},
			{
				"x": 0.4113235139,
				"y": -2.5568017328,
				"z": -0.7316321035,
				"element": "H" 
			},
			{
				"x": 2.0978783565,
				"y": 0.434768109,
				"z": -3.1999959466,
				"element": "H" 
			},
			{
				"x": 0.8322946895,
				"y": 0.9434656049,
				"z": -2.0725181434,
				"element": "H" 
			},
			{
				"x": 2.3999427309,
				"y": 0.3830333179,
				"z": -1.4537817744,
				"element": "H" 
			},
			{
				"x": -0.3212218498,
				"y": -2.4624200566,
				"z": -3.2705039804,
				"element": "H" 
			},
			{
				"x": 0.450625796,
				"y": -1.228636005,
				"z": -4.2785499049,
				"element": "H" 
			},
			{
				"x": -0.8066687605,
				"y": -0.7623145254,
				"z": -3.1133258092,
				"element": "H" 
			},
			{
				"x": 1.9594898992,
				"y": -3.2323962622,
				"z": -2.4119809516,
				"element": "H" 
			},
			{
				"x": 2.7305627433,
				"y": -2.0139146395,
				"z": -3.4333466792,
				"element": "H" 
			},
			{
				"x": 3.0766006147,
				"y": -2.0547520083,
				"z": -1.6918794236,
				"element": "H" 
			}
		],
		 "valence_orbital": [ 
			{
				"type": "occ",
				"energy": -0.30369,
				"method": "rhf"
			},
			{
				"type": "occ",
				"energy": -0.27864,
				"method": "rhf"
			},
			{
				"type": "occ",
				"energy": -0.27381,
				"method": "rhf"
			},
			{
				"type": "occ",
				"energy": -0.25725,
				"method": "rhf"
			},
			{
				"type": "occ",
				"energy": -0.23523,
				"method": "rhf"
			},
			{
				"type": "unocc",
				"energy": -0.04268,
				"method": "rhf"
			},
			{
				"type": "unocc",
				"energy": 0.02577,
				"method": "rhf"
			},
			{
				"type": "unocc",
				"energy": 0.05473,
				"method": "rhf"
			},
			{
				"type": "unocc",
				"energy": 0.05581,
				"method": "rhf"
			},
			{
				"type": "unocc",
				"energy": 0.08424,
				"method": "rhf"
			}
		],
		"cosmo_sigma_profile": { 
			"-0.025": 0.0,
			"-0.024": 0.0,
			"-0.023": 0.0,
			"-0.022": 0.0,
			"-0.021": 0.0,
			"-0.02": 0.0,
			"-0.019": 0.0,
			"-0.018": 0.0,
			"-0.017": 0.0,
			"-0.016": 0.0,
			"-0.015": 0.0,
			"-0.014": 0.266943852951,
			"-0.013": 1.16764110934,
			"-0.012": 0.767717662513,
			"-0.011": 1.14007414117,
			"-0.01": 1.08808674666,
			"-0.009": 1.03937256223,
			"-0.008": 1.17901880258,
			"-0.007": 4.12795891391,
			"-0.006": 10.0069725973,
			"-0.005": 15.4606412284,
			"-0.004": 28.5720082031,
			"-0.003": 36.5810914797,
			"-0.002": 30.5345687447,
			"-0.001": 27.8068296337,
			"0.0": 33.963897694,
			"0.001": 26.0320342238,
			"0.002": 15.6444004066,
			"0.003": 13.4787655056,
			"0.004": 11.7084097372,
			"0.005": 6.97985144171,
			"0.006": 5.14859848384,
			"0.007": 4.11191515923,
			"0.008": 4.81196814829,
			"0.009": 5.80079456673,
			"0.01": 9.07136837846,
			"0.011": 8.78590481356,
			"0.012": 2.83033213673,
			"0.013": 0.0,
			"0.014": 0.0,
			"0.015": 0.0,
			"0.016": 0.0,
			"0.017": 0.0,
			"0.018": 0.0,
			"0.019": 0.0,
			"0.02": 0.0,
			"0.021": 0.0,
			"0.022": 0.0,
			"0.023": 0.0,
			"0.024": 0.0,
			"0.025": 0.0
		}
	}
}
