{
	 "smiles": "CC1=C(SC=C1)C1=NSC(N)=N1", 
	 "Tm": 439.15, 
	 "num_atms": 19, 
	 "gaussian": { 
		 "optdone": 1, 
		 "sigma_profile": "yes", 
		 "theory": "DFT", 
		 "functional": "B3LYP", 
		 "basiset": "6-31G**", 
		 "properties": { 
			 "R2extent": 3180.7948, 
			 "electric_dipole_moment_norm": 3.89697885162, 
			 "electric_quadrupole_moment_norm": 21.5059847642, 
			 "total_energy": -1231.58467196, 
			 "HOMO_LUMO_gap": 0.16621, 
			 "cosmo_polarized_energy": -14.08, 
			 "cosmo_cavitation_energy": 26.47, 
			 "cosmo_dispersion_energy": -20.77, 
			 "cosmo_repulsion_energy": 1.57, 
			 "cosmo_total_nonelectrostatic_energy": 7.27, 
			 "SMD_solvation_energy": 2.2 
		},
		"coords": [
			{
				"x": -1.3353718287,
				"y": -1.8405701236,
				"z": -0.9898510973,
				"element": "C" 
			},
			{
				"x": 0.0048627567,
				"y": -1.3921745089,
				"z": -1.5128973448,
				"element": "C" 
			},
			{
				"x": 0.9848636151,
				"y": -0.7241241016,
				"z": -0.7961109847,
				"element": "C" 
			},
			{
				"x": 2.3929723041,
				"y": -0.3897559272,
				"z": -1.7808338836,
				"element": "S" 
			},
			{
				"x": 1.6626583056,
				"y": -1.1459815555,
				"z": -3.150640485,
				"element": "C" 
			},
			{
				"x": 0.4142507347,
				"y": -1.62474234,
				"z": -2.863187064,
				"element": "C" 
			},
			{
				"x": 0.9876075825,
				"y": -0.2922493145,
				"z": 0.5963172247,
				"element": "C" 
			},
			{
				"x": 2.0433216869,
				"y": 0.3292829509,
				"z": 1.0909671255,
				"element": "N" 
			},
			{
				"x": 1.7257919008,
				"y": 0.6810094342,
				"z": 2.7085231247,
				"element": "S" 
			},
			{
				"x": 0.127464202,
				"y": -0.0503212256,
				"z": 2.5957071385,
				"element": "C" 
			},
			{
				"x": -0.7357214784,
				"y": -0.1619173114,
				"z": 3.6454396669,
				"element": "N" 
			},
			{
				"x": -0.1111015289,
				"y": -0.5235788227,
				"z": 1.4000246449,
				"element": "N" 
			},
			{
				"x": -1.8957313695,
				"y": -2.350940461,
				"z": -1.7784240864,
				"element": "H" 
			},
			{
				"x": -1.9305036377,
				"y": -0.9956448438,
				"z": -0.6320973719,
				"element": "H" 
			},
			{
				"x": -1.2286522162,
				"y": -2.5226267446,
				"z": -0.1418042649,
				"element": "H" 
			},
			{
				"x": 2.1950903778,
				"y": -1.1955829553,
				"z": -4.0907030822,
				"element": "H" 
			},
			{
				"x": -0.2126460779,
				"y": -2.1347256795,
				"z": -3.5868634605,
				"element": "H" 
			},
			{
				"x": -1.6789020803,
				"y": -0.4272017666,
				"z": 3.3983724493,
				"element": "H" 
			},
			{
				"x": -0.6505532485,
				"y": 0.4846452967,
				"z": 4.4143617508,
				"element": "H" 
			}
		],
		 "valence_orbital": [ 
			{
				"type": "occ",
				"energy": -0.29141,
				"method": "rhf"
			},
			{
				"type": "occ",
				"energy": -0.2741,
				"method": "rhf"
			},
			{
				"type": "occ",
				"energy": -0.25117,
				"method": "rhf"
			},
			{
				"type": "occ",
				"energy": -0.23747,
				"method": "rhf"
			},
			{
				"type": "occ",
				"energy": -0.208,
				"method": "rhf"
			},
			{
				"type": "unocc",
				"energy": -0.04179,
				"method": "rhf"
			},
			{
				"type": "unocc",
				"energy": -0.00425,
				"method": "rhf"
			},
			{
				"type": "unocc",
				"energy": 0.00779,
				"method": "rhf"
			},
			{
				"type": "unocc",
				"energy": 0.04164,
				"method": "rhf"
			},
			{
				"type": "unocc",
				"energy": 0.05536,
				"method": "rhf"
			}
		],
		"cosmo_sigma_profile": { 
			"-0.025": 0.0,
			"-0.024": 0.0,
			"-0.023": 0.0,
			"-0.022": 0.0,
			"-0.021": 0.0,
			"-0.02": 0.0,
			"-0.019": 0.0,
			"-0.018": 0.0,
			"-0.017": 0.0,
			"-0.016": 0.580479037986,
			"-0.015": 2.50000985746,
			"-0.014": 2.98073565662,
			"-0.013": 2.42610402277,
			"-0.012": 2.28995573275,
			"-0.011": 2.81148406105,
			"-0.01": 2.11553696617,
			"-0.009": 2.64546211389,
			"-0.008": 3.26462297903,
			"-0.007": 4.72369548758,
			"-0.006": 5.41271127046,
			"-0.005": 6.76151260278,
			"-0.004": 8.64393644901,
			"-0.003": 10.1779796028,
			"-0.002": 10.9921946685,
			"-0.001": 15.7139075552,
			"0.0": 19.5777992641,
			"0.001": 16.7203482981,
			"0.002": 16.6659110089,
			"0.003": 21.5774192296,
			"0.004": 23.3077981703,
			"0.005": 11.7650343959,
			"0.006": 6.16004037354,
			"0.007": 4.85144125463,
			"0.008": 3.21136449361,
			"0.009": 2.89231277087,
			"0.01": 1.52109233694,
			"0.011": 1.34021152298,
			"0.012": 1.39771784751,
			"0.013": 1.08398272438,
			"0.014": 0.0867431444809,
			"0.015": 0.0,
			"0.016": 0.0,
			"0.017": 0.0,
			"0.018": 0.0,
			"0.019": 0.0,
			"0.02": 0.0,
			"0.021": 0.0,
			"0.022": 0.0,
			"0.023": 0.0,
			"0.024": 0.0,
			"0.025": 0.0
		}
	}
}
