{
	 "smiles": "ClP(=O)(NC1=CC=CC=C1)OC1=CC=CC=C1", 
	 "Tm": 406.15, 
	 "num_atms": 28, 
	 "gaussian": { 
		 "optdone": 1, 
		 "sigma_profile": "yes", 
		 "theory": "DFT", 
		 "functional": "B3LYP", 
		 "basiset": "6-31G**", 
		 "properties": { 
			 "R2extent": 5493.9729, 
			 "electric_dipole_moment_norm": 5.22930802019, 
			 "electric_quadrupole_moment_norm": 13.7714564375, 
			 "total_energy": -1470.7194327, 
			 "HOMO_LUMO_gap": 0.20699, 
			 "cosmo_polarized_energy": -14.31, 
			 "cosmo_cavitation_energy": 35.57, 
			 "cosmo_dispersion_energy": -25.04, 
			 "cosmo_repulsion_energy": 1.92, 
			 "cosmo_total_nonelectrostatic_energy": 12.45, 
			 "SMD_solvation_energy": 6.75 
		},
		"coords": [
			{
				"x": 0.6849615719,
				"y": 0.3168797204,
				"z": -3.8561550222,
				"element": "Cl" 
			},
			{
				"x": 1.0825828063,
				"y": -0.7829070323,
				"z": -2.1555335184,
				"element": "P" 
			},
			{
				"x": 2.2454899286,
				"y": -1.6841584104,
				"z": -2.2351064175,
				"element": "O" 
			},
			{
				"x": 1.1693160664,
				"y": 0.4622703502,
				"z": -1.0438367679,
				"element": "N" 
			},
			{
				"x": 1.6331931162,
				"y": 0.3730198041,
				"z": 0.2994998171,
				"element": "C" 
			},
			{
				"x": 1.1515085886,
				"y": 1.3045544283,
				"z": 1.2300098736,
				"element": "C" 
			},
			{
				"x": 1.6046420298,
				"y": 1.2753868324,
				"z": 2.548052993,
				"element": "C" 
			},
			{
				"x": 2.5269906968,
				"y": 0.3110572538,
				"z": 2.9560591269,
				"element": "C" 
			},
			{
				"x": 2.9985651325,
				"y": -0.6172052985,
				"z": 2.0261226118,
				"element": "C" 
			},
			{
				"x": 2.5676684923,
				"y": -0.5919383545,
				"z": 0.6999903751,
				"element": "C" 
			},
			{
				"x": -0.2837657554,
				"y": -1.6316244616,
				"z": -1.9333905495,
				"element": "O" 
			},
			{
				"x": -1.5415041477,
				"y": -1.0797917706,
				"z": -1.6661163286,
				"element": "C" 
			},
			{
				"x": -1.8629344474,
				"y": -0.6851300094,
				"z": -0.3678225343,
				"element": "C" 
			},
			{
				"x": -3.1457513852,
				"y": -0.1975794451,
				"z": -0.1105536236,
				"element": "C" 
			},
			{
				"x": -4.0886918961,
				"y": -0.1120766752,
				"z": -1.1370894645,
				"element": "C" 
			},
			{
				"x": -3.7499430628,
				"y": -0.5206105943,
				"z": -2.429031615,
				"element": "C" 
			},
			{
				"x": -2.471344562,
				"y": -1.0088321397,
				"z": -2.7017916957,
				"element": "C" 
			},
			{
				"x": 0.605463293,
				"y": 1.277750297,
				"z": -1.2475227688,
				"element": "H" 
			},
			{
				"x": 0.4249037032,
				"y": 2.0518183213,
				"z": 0.9197286393,
				"element": "H" 
			},
			{
				"x": 1.2278126197,
				"y": 2.0078251282,
				"z": 3.256090656,
				"element": "H" 
			},
			{
				"x": 2.8755710289,
				"y": 0.2853396181,
				"z": 3.9837180525,
				"element": "H" 
			},
			{
				"x": 3.7217211677,
				"y": -1.369141415,
				"z": 2.3283697318,
				"element": "H" 
			},
			{
				"x": 2.9544711142,
				"y": -1.3010356865,
				"z": -0.0223996432,
				"element": "H" 
			},
			{
				"x": -1.1249660616,
				"y": -0.7724218841,
				"z": 0.4221475123,
				"element": "H" 
			},
			{
				"x": -3.4076088257,
				"y": 0.10846819,
				"z": 0.8979202208,
				"element": "H" 
			},
			{
				"x": -5.0854360372,
				"y": 0.2651041431,
				"z": -0.9298507632,
				"element": "H" 
			},
			{
				"x": -4.481687798,
				"y": -0.4630485408,
				"z": -3.22917517,
				"element": "H" 
			},
			{
				"x": -2.1888273771,
				"y": -1.3375723689,
				"z": -3.6956337279,
				"element": "H" 
			}
		],
		 "valence_orbital": [ 
			{
				"type": "occ",
				"energy": -0.30593,
				"method": "rhf"
			},
			{
				"type": "occ",
				"energy": -0.26931,
				"method": "rhf"
			},
			{
				"type": "occ",
				"energy": -0.26009,
				"method": "rhf"
			},
			{
				"type": "occ",
				"energy": -0.25871,
				"method": "rhf"
			},
			{
				"type": "occ",
				"energy": -0.23089,
				"method": "rhf"
			},
			{
				"type": "unocc",
				"energy": -0.0239,
				"method": "rhf"
			},
			{
				"type": "unocc",
				"energy": -0.02039,
				"method": "rhf"
			},
			{
				"type": "unocc",
				"energy": -0.01079,
				"method": "rhf"
			},
			{
				"type": "unocc",
				"energy": -0.00474,
				"method": "rhf"
			},
			{
				"type": "unocc",
				"energy": 0.00412,
				"method": "rhf"
			}
		],
		"cosmo_sigma_profile": { 
			"-0.025": 0.0,
			"-0.024": 0.0,
			"-0.023": 0.0,
			"-0.022": 0.0,
			"-0.021": 0.0,
			"-0.02": 0.0,
			"-0.019": 0.0,
			"-0.018": 0.0,
			"-0.017": 0.0,
			"-0.016": 0.39504760931,
			"-0.015": 0.569740668051,
			"-0.014": 0.90482783095,
			"-0.013": 1.26428929223,
			"-0.012": 1.64382904846,
			"-0.011": 1.44737215002,
			"-0.01": 1.04988996766,
			"-0.009": 1.39807678327,
			"-0.008": 1.75161710252,
			"-0.007": 4.48290683877,
			"-0.006": 15.2767807454,
			"-0.005": 21.1988829125,
			"-0.004": 22.5466626905,
			"-0.003": 18.2035894868,
			"-0.002": 17.5690176083,
			"-0.001": 19.5439269666,
			"0.0": 18.0010214963,
			"0.001": 20.774772871,
			"0.002": 28.9133174176,
			"0.003": 27.8687143295,
			"0.004": 22.5555280186,
			"0.005": 14.5576984563,
			"0.006": 5.12740858308,
			"0.007": 2.2538580832,
			"0.008": 3.46435350231,
			"0.009": 1.66033852952,
			"0.01": 1.6501051804,
			"0.011": 1.67136593381,
			"0.012": 4.55721828125,
			"0.013": 3.16484282408,
			"0.014": 0.0202967566828,
			"0.015": 0.0,
			"0.016": 0.0,
			"0.017": 0.0,
			"0.018": 0.0,
			"0.019": 0.0,
			"0.02": 0.0,
			"0.021": 0.0,
			"0.022": 0.0,
			"0.023": 0.0,
			"0.024": 0.0,
			"0.025": 0.0
		}
	}
}
