{
	 "smiles": "COC1=C(OCC2CCCO2)C=CC(=C1)C#N", 
	 "Tm": 360.15, 
	 "num_atms": 32, 
	 "gaussian": { 
		 "optdone": 1, 
		 "sigma_profile": "yes", 
		 "theory": "DFT", 
		 "functional": "B3LYP", 
		 "basiset": "6-31G**", 
		 "properties": { 
			 "R2extent": 5348.5914, 
			 "electric_dipole_moment_norm": 4.99809430583, 
			 "electric_quadrupole_moment_norm": 29.2427424598, 
			 "total_energy": -784.794646456, 
			 "HOMO_LUMO_gap": 0.18958, 
			 "cosmo_polarized_energy": -13.96, 
			 "cosmo_cavitation_energy": 35.99, 
			 "cosmo_dispersion_energy": -24.78, 
			 "cosmo_repulsion_energy": 1.95, 
			 "cosmo_total_nonelectrostatic_energy": 13.17, 
			 "SMD_solvation_energy": 8.04 
		},
		"coords": [
			{
				"x": -2.8584977606,
				"y": 0.9573428951,
				"z": 1.3894559798,
				"element": "C" 
			},
			{
				"x": -1.670843441,
				"y": 0.4506669663,
				"z": 0.7926635578,
				"element": "O" 
			},
			{
				"x": -0.4880463711,
				"y": 1.054989841,
				"z": 1.097562429,
				"element": "C" 
			},
			{
				"x": 0.6687550434,
				"y": 0.4900715521,
				"z": 0.5036067367,
				"element": "C" 
			},
			{
				"x": 0.5860298662,
				"y": -0.6239717105,
				"z": -0.2815930723,
				"element": "O" 
			},
			{
				"x": -0.025665611,
				"y": -0.4615017316,
				"z": -1.5747876933,
				"element": "C" 
			},
			{
				"x": -0.2367902541,
				"y": -1.8346602425,
				"z": -2.1941788866,
				"element": "C" 
			},
			{
				"x": -0.9234018539,
				"y": -2.8573608246,
				"z": -1.2546727258,
				"element": "C" 
			},
			{
				"x": 0.2386464254,
				"y": -3.7670490119,
				"z": -0.8225116539,
				"element": "C" 
			},
			{
				"x": 1.1363850638,
				"y": -3.7235812287,
				"z": -2.0597156687,
				"element": "C" 
			},
			{
				"x": 1.0349224784,
				"y": -2.3883702004,
				"z": -2.5530396212,
				"element": "O" 
			},
			{
				"x": 1.9223318208,
				"y": 1.0281836486,
				"z": 0.78511233,
				"element": "C" 
			},
			{
				"x": 2.0616668668,
				"y": 2.1217955417,
				"z": 1.6380554029,
				"element": "C" 
			},
			{
				"x": 0.9182573122,
				"y": 2.6894190625,
				"z": 2.2127472861,
				"element": "C" 
			},
			{
				"x": -0.3570766061,
				"y": 2.1547247432,
				"z": 1.9428496195,
				"element": "C" 
			},
			{
				"x": 1.0331530916,
				"y": 3.818906985,
				"z": 3.0876498763,
				"element": "C" 
			},
			{
				"x": 1.1221802976,
				"y": 4.736453778,
				"z": 3.7978626908,
				"element": "N" 
			},
			{
				"x": -3.0461330308,
				"y": 1.9970782908,
				"z": 1.094194907,
				"element": "H" 
			},
			{
				"x": -2.8150193286,
				"y": 0.8937121997,
				"z": 2.4835328976,
				"element": "H" 
			},
			{
				"x": -3.6693557015,
				"y": 0.3266626687,
				"z": 1.023454594,
				"element": "H" 
			},
			{
				"x": 0.6362061897,
				"y": 0.135990169,
				"z": -2.2147690561,
				"element": "H" 
			},
			{
				"x": -0.9893303756,
				"y": 0.0493082059,
				"z": -1.4750864207,
				"element": "H" 
			},
			{
				"x": -0.8321412786,
				"y": -1.6799079511,
				"z": -3.1078211135,
				"element": "H" 
			},
			{
				"x": -1.4155466529,
				"y": -2.3681042676,
				"z": -0.4113683286,
				"element": "H" 
			},
			{
				"x": -1.6754929238,
				"y": -3.4295830156,
				"z": -1.8079976899,
				"element": "H" 
			},
			{
				"x": 0.7595794553,
				"y": -3.3279362019,
				"z": 0.0325491239,
				"element": "H" 
			},
			{
				"x": -0.0797037494,
				"y": -4.7802908243,
				"z": -0.56040567,
				"element": "H" 
			},
			{
				"x": 2.1915788204,
				"y": -3.9253808393,
				"z": -1.8510600978,
				"element": "H" 
			},
			{
				"x": 0.7927117622,
				"y": -4.4430060442,
				"z": -2.8216060542,
				"element": "H" 
			},
			{
				"x": 2.7867766436,
				"y": 0.5627047806,
				"z": 0.3236795027,
				"element": "H" 
			},
			{
				"x": 3.0402819213,
				"y": 2.5356826679,
				"z": 1.8530112507,
				"element": "H" 
			},
			{
				"x": -1.2234181198,
				"y": 2.6055100981,
				"z": 2.4095255676,
				"element": "H" 
			}
		],
		 "valence_orbital": [ 
			{
				"type": "occ",
				"energy": -0.31255,
				"method": "rhf"
			},
			{
				"type": "occ",
				"energy": -0.28827,
				"method": "rhf"
			},
			{
				"type": "occ",
				"energy": -0.26099,
				"method": "rhf"
			},
			{
				"type": "occ",
				"energy": -0.24698,
				"method": "rhf"
			},
			{
				"type": "occ",
				"energy": -0.23426,
				"method": "rhf"
			},
			{
				"type": "unocc",
				"energy": -0.04468,
				"method": "rhf"
			},
			{
				"type": "unocc",
				"energy": -0.01214,
				"method": "rhf"
			},
			{
				"type": "unocc",
				"energy": 0.04029,
				"method": "rhf"
			},
			{
				"type": "unocc",
				"energy": 0.06632,
				"method": "rhf"
			},
			{
				"type": "unocc",
				"energy": 0.08158,
				"method": "rhf"
			}
		],
		"cosmo_sigma_profile": { 
			"-0.025": 0.0,
			"-0.024": 0.0,
			"-0.023": 0.0,
			"-0.022": 0.0,
			"-0.021": 0.0,
			"-0.02": 0.0,
			"-0.019": 0.0,
			"-0.018": 0.0,
			"-0.017": 0.0,
			"-0.016": 0.0,
			"-0.015": 0.0,
			"-0.014": 0.0,
			"-0.013": 0.0,
			"-0.012": 0.0,
			"-0.011": 0.0,
			"-0.01": 0.0,
			"-0.009": 0.294459011713,
			"-0.008": 3.42472220833,
			"-0.007": 7.54767889988,
			"-0.006": 13.3577596689,
			"-0.005": 18.214186245,
			"-0.004": 26.382976025,
			"-0.003": 32.0314674379,
			"-0.002": 28.7655280493,
			"-0.001": 25.9959932744,
			"0.0": 23.3169653724,
			"0.001": 21.0875424875,
			"0.002": 18.2332179389,
			"0.003": 10.3473063445,
			"0.004": 7.33361670805,
			"0.005": 6.80647677147,
			"0.006": 7.09483795926,
			"0.007": 5.56798182963,
			"0.008": 5.35737723129,
			"0.009": 5.17236974563,
			"0.01": 5.09846868249,
			"0.011": 4.85896277817,
			"0.012": 4.29490245884,
			"0.013": 3.28327470955,
			"0.014": 1.41500203262,
			"0.015": 0.0213650871303,
			"0.016": 0.0,
			"0.017": 0.0,
			"0.018": 0.0,
			"0.019": 0.0,
			"0.02": 0.0,
			"0.021": 0.0,
			"0.022": 0.0,
			"0.023": 0.0,
			"0.024": 0.0,
			"0.025": 0.0
		}
	}
}
