{
	 "smiles": "COC(CBr)(CBr)OC", 
	 "Tm": 339.15, 
	 "num_atms": 19, 
	 "gaussian": { 
		 "optdone": 1, 
		 "sigma_profile": "yes", 
		 "theory": "DFT", 
		 "functional": "B3LYP", 
		 "basiset": "6-31G**", 
		 "properties": { 
			 "R2extent": 3470.3827, 
			 "electric_dipole_moment_norm": 1.72539106871, 
			 "electric_quadrupole_moment_norm": 11.800515126, 
			 "total_energy": -5489.77980859, 
			 "HOMO_LUMO_gap": 0.24775, 
			 "cosmo_polarized_energy": -10.71, 
			 "cosmo_cavitation_energy": 24.85, 
			 "cosmo_dispersion_energy": -18.93, 
			 "cosmo_repulsion_energy": 1.53, 
			 "cosmo_total_nonelectrostatic_energy": 7.46, 
			 "SMD_solvation_energy": 3.15 
		},
		"coords": [
			{
				"x": 0.9162922043,
				"y": 1.3185982683,
				"z": 1.5272129122,
				"element": "C" 
			},
			{
				"x": 0.3306393052,
				"y": 2.2139505372,
				"z": 0.5868550312,
				"element": "O" 
			},
			{
				"x": -0.4046675964,
				"y": 1.7133777586,
				"z": -0.4953329827,
				"element": "C" 
			},
			{
				"x": -1.397318483,
				"y": 0.6028525447,
				"z": -0.1195705522,
				"element": "C" 
			},
			{
				"x": -2.6807349555,
				"y": 1.1609073517,
				"z": 1.2633736858,
				"element": "Br" 
			},
			{
				"x": 0.5292329686,
				"y": 1.26809456,
				"z": -1.6549386057,
				"element": "C" 
			},
			{
				"x": 1.3692627948,
				"y": -0.5270874865,
				"z": -1.5124533387,
				"element": "Br" 
			},
			{
				"x": -1.0185194691,
				"y": 2.8956506534,
				"z": -0.9756044595,
				"element": "O" 
			},
			{
				"x": -2.129326567,
				"y": 2.792871753,
				"z": -1.854611783,
				"element": "C" 
			},
			{
				"x": 0.1583169503,
				"y": 0.7497164808,
				"z": 2.0787159018,
				"element": "H" 
			},
			{
				"x": 1.6295483844,
				"y": 0.6295506931,
				"z": 1.0643318562,
				"element": "H" 
			},
			{
				"x": 1.447535053,
				"y": 1.9570246059,
				"z": 2.2359314188,
				"element": "H" 
			},
			{
				"x": -1.9866350177,
				"y": 0.2917537247,
				"z": -0.9807732519,
				"element": "H" 
			},
			{
				"x": -0.8792428941,
				"y": -0.2675142165,
				"z": 0.2740284226,
				"element": "H" 
			},
			{
				"x": -0.01038419,
				"y": 1.2307397754,
				"z": -2.5990602339,
				"element": "H" 
			},
			{
				"x": 1.3464530616,
				"y": 1.9834981424,
				"z": -1.7149896566,
				"element": "H" 
			},
			{
				"x": -2.3411389261,
				"y": 3.8137195639,
				"z": -2.1784851866,
				"element": "H" 
			},
			{
				"x": -1.9173500481,
				"y": 2.1881849335,
				"z": -2.7479693842,
				"element": "H" 
			},
			{
				"x": -3.0162625751,
				"y": 2.3932103563,
				"z": -1.3501597936,
				"element": "H" 
			}
		],
		 "valence_orbital": [ 
			{
				"type": "occ",
				"energy": -0.28887,
				"method": "rhf"
			},
			{
				"type": "occ",
				"energy": -0.28412,
				"method": "rhf"
			},
			{
				"type": "occ",
				"energy": -0.27821,
				"method": "rhf"
			},
			{
				"type": "occ",
				"energy": -0.27474,
				"method": "rhf"
			},
			{
				"type": "occ",
				"energy": -0.25947,
				"method": "rhf"
			},
			{
				"type": "unocc",
				"energy": -0.01172,
				"method": "rhf"
			},
			{
				"type": "unocc",
				"energy": -0.00536,
				"method": "rhf"
			},
			{
				"type": "unocc",
				"energy": 0.06923,
				"method": "rhf"
			},
			{
				"type": "unocc",
				"energy": 0.10172,
				"method": "rhf"
			},
			{
				"type": "unocc",
				"energy": 0.11848,
				"method": "rhf"
			}
		],
		"cosmo_sigma_profile": { 
			"-0.025": 0.0,
			"-0.024": 0.0,
			"-0.023": 0.0,
			"-0.022": 0.0,
			"-0.021": 0.0,
			"-0.02": 0.0,
			"-0.019": 0.0,
			"-0.018": 0.0,
			"-0.017": 0.0,
			"-0.016": 0.0,
			"-0.015": 0.0,
			"-0.014": 0.0,
			"-0.013": 0.0,
			"-0.012": 0.0163907606411,
			"-0.011": 0.40400583404,
			"-0.01": 0.97212166229,
			"-0.009": 2.85569999982,
			"-0.008": 5.2388691097,
			"-0.007": 6.90642210203,
			"-0.006": 9.59623582633,
			"-0.005": 12.1149337346,
			"-0.004": 16.9261586601,
			"-0.003": 20.9290717533,
			"-0.002": 17.056723668,
			"-0.001": 12.4934774149,
			"0.0": 10.1098687326,
			"0.001": 10.4623205053,
			"0.002": 10.5863917879,
			"0.003": 11.8236015429,
			"0.004": 12.7658458908,
			"0.005": 15.3829953543,
			"0.006": 7.13120068711,
			"0.007": 2.20275871541,
			"0.008": 2.36387128602,
			"0.009": 2.05290299506,
			"0.01": 2.28874405752,
			"0.011": 1.84684754996,
			"0.012": 1.9273186689,
			"0.013": 2.63298584481,
			"0.014": 1.82249673956,
			"0.015": 0.561238696151,
			"0.016": 0.0,
			"0.017": 0.0,
			"0.018": 0.0,
			"0.019": 0.0,
			"0.02": 0.0,
			"0.021": 0.0,
			"0.022": 0.0,
			"0.023": 0.0,
			"0.024": 0.0,
			"0.025": 0.0
		}
	}
}
