{
	 "smiles": "OC(=O)C1=CC=C(C=C1NC(=O)C1=CC=CC=C1)[N+]([O-])=O", 
	 "Tm": 525.15, 
	 "num_atms": 31, 
	 "gaussian": { 
		 "optdone": 1, 
		 "sigma_profile": "yes", 
		 "theory": "DFT", 
		 "functional": "B3LYP", 
		 "basiset": "6-31G**", 
		 "properties": { 
			 "R2extent": 6054.6924, 
			 "electric_dipole_moment_norm": 2.28803056798, 
			 "electric_quadrupole_moment_norm": 31.0113372374, 
			 "total_energy": -1025.05835694, 
			 "HOMO_LUMO_gap": 0.15884, 
			 "cosmo_polarized_energy": -20.97, 
			 "cosmo_cavitation_energy": 37.11, 
			 "cosmo_dispersion_energy": -25.36, 
			 "cosmo_repulsion_energy": 1.93, 
			 "cosmo_total_nonelectrostatic_energy": 13.68, 
			 "SMD_solvation_energy": 10.72 
		},
		"coords": [
			{
				"x": 0.1232663611,
				"y": -3.5682721998,
				"z": -1.1868458829,
				"element": "O" 
			},
			{
				"x": 1.3781461546,
				"y": -3.1031911489,
				"z": -1.2805563535,
				"element": "C" 
			},
			{
				"x": 2.3258760326,
				"y": -3.8527968995,
				"z": -1.3482370837,
				"element": "O" 
			},
			{
				"x": 1.5693119349,
				"y": -1.5968854599,
				"z": -1.2522993026,
				"element": "C" 
			},
			{
				"x": 2.8977362365,
				"y": -1.1565414236,
				"z": -1.1561172377,
				"element": "C" 
			},
			{
				"x": 3.209606912,
				"y": 0.1943028919,
				"z": -1.0683457646,
				"element": "C" 
			},
			{
				"x": 2.1631533104,
				"y": 1.1125851811,
				"z": -1.087085863,
				"element": "C" 
			},
			{
				"x": 0.8350032068,
				"y": 0.7207274504,
				"z": -1.2032962715,
				"element": "C" 
			},
			{
				"x": 0.533371925,
				"y": -0.6402622313,
				"z": -1.283546155,
				"element": "C" 
			},
			{
				"x": -0.8437790924,
				"y": -1.0538822351,
				"z": -1.4484993471,
				"element": "N" 
			},
			{
				"x": -1.9070961462,
				"y": -0.4568975649,
				"z": -0.7075927147,
				"element": "C" 
			},
			{
				"x": -2.9275678715,
				"y": -0.1430197334,
				"z": -1.2932000264,
				"element": "O" 
			},
			{
				"x": -1.7322468021,
				"y": -0.311473084,
				"z": 0.7647073154,
				"element": "C" 
			},
			{
				"x": -2.5048326252,
				"y": 0.6649768765,
				"z": 1.4118147087,
				"element": "C" 
			},
			{
				"x": -2.4140686645,
				"y": 0.8267212841,
				"z": 2.7913014346,
				"element": "C" 
			},
			{
				"x": -1.5696534742,
				"y": -0.0002050695,
				"z": 3.537517195,
				"element": "C" 
			},
			{
				"x": -0.8183647627,
				"y": -0.9913529138,
				"z": 2.9019768928,
				"element": "C" 
			},
			{
				"x": -0.8931452876,
				"y": -1.1457388357,
				"z": 1.5188495321,
				"element": "C" 
			},
			{
				"x": 2.4680296696,
				"y": 2.5544233885,
				"z": -0.9956284688,
				"element": "N" 
			},
			{
				"x": 1.5204303082,
				"y": 3.3370312906,
				"z": -1.0224626984,
				"element": "O" 
			},
			{
				"x": 3.6497202149,
				"y": 2.875869483,
				"z": -0.8982122212,
				"element": "O" 
			},
			{
				"x": -0.5068614161,
				"y": -2.8110433886,
				"z": -1.1998828924,
				"element": "H" 
			},
			{
				"x": 3.6748811113,
				"y": -1.9120035784,
				"z": -1.1434821659,
				"element": "H" 
			},
			{
				"x": 4.2306659971,
				"y": 0.5440206691,
				"z": -0.9844537963,
				"element": "H" 
			},
			{
				"x": 0.0571425439,
				"y": 1.4736268448,
				"z": -1.236150486,
				"element": "H" 
			},
			{
				"x": -1.1308198526,
				"y": -1.0727212798,
				"z": -2.4268803911,
				"element": "H" 
			},
			{
				"x": -3.1681151725,
				"y": 1.2839910812,
				"z": 0.8171409037,
				"element": "H" 
			},
			{
				"x": -3.0040034104,
				"y": 1.5920711028,
				"z": 3.2861641949,
				"element": "H" 
			},
			{
				"x": -1.5030900964,
				"y": 0.1225587705,
				"z": 4.6145576506,
				"element": "H" 
			},
			{
				"x": -0.1780665203,
				"y": -1.6478271664,
				"z": 3.4830000694,
				"element": "H" 
			},
			{
				"x": -0.327430724,
				"y": -1.934992102,
				"z": 1.0364452259,
				"element": "H" 
			}
		],
		 "valence_orbital": [ 
			{
				"type": "occ",
				"energy": -0.29777,
				"method": "rhf"
			},
			{
				"type": "occ",
				"energy": -0.29041,
				"method": "rhf"
			},
			{
				"type": "occ",
				"energy": -0.28821,
				"method": "rhf"
			},
			{
				"type": "occ",
				"energy": -0.27661,
				"method": "rhf"
			},
			{
				"type": "occ",
				"energy": -0.27468,
				"method": "rhf"
			},
			{
				"type": "unocc",
				"energy": -0.11584,
				"method": "rhf"
			},
			{
				"type": "unocc",
				"energy": -0.07069,
				"method": "rhf"
			},
			{
				"type": "unocc",
				"energy": -0.05634,
				"method": "rhf"
			},
			{
				"type": "unocc",
				"energy": -0.04607,
				"method": "rhf"
			},
			{
				"type": "unocc",
				"energy": -0.0258,
				"method": "rhf"
			}
		],
		"cosmo_sigma_profile": { 
			"-0.025": 0.0,
			"-0.024": 0.0,
			"-0.023": 0.0,
			"-0.022": 0.0,
			"-0.021": 0.0,
			"-0.02": 0.0,
			"-0.019": 0.0,
			"-0.018": 0.0,
			"-0.017": 0.0,
			"-0.016": 0.608675177805,
			"-0.015": 1.48324559027,
			"-0.014": 1.51318915308,
			"-0.013": 1.64367704577,
			"-0.012": 1.48483105056,
			"-0.011": 2.24368886912,
			"-0.01": 2.75420405435,
			"-0.009": 3.92846556644,
			"-0.008": 7.92035935058,
			"-0.007": 12.6572714018,
			"-0.006": 17.8027685376,
			"-0.005": 20.7016817009,
			"-0.004": 18.0602644222,
			"-0.003": 18.5084895495,
			"-0.002": 22.9126987247,
			"-0.001": 19.9631870458,
			"0.0": 17.756843779,
			"0.001": 13.2019562379,
			"0.002": 13.1255210402,
			"0.003": 18.1449100278,
			"0.004": 12.0431199497,
			"0.005": 6.62849640404,
			"0.006": 9.94023688439,
			"0.007": 12.1250542395,
			"0.008": 9.24966028275,
			"0.009": 8.47458831071,
			"0.01": 8.68161203012,
			"0.011": 9.58084139717,
			"0.012": 5.05879029467,
			"0.013": 0.738735687622,
			"0.014": 0.0,
			"0.015": 0.0,
			"0.016": 0.0,
			"0.017": 0.0,
			"0.018": 0.0,
			"0.019": 0.0,
			"0.02": 0.0,
			"0.021": 0.0,
			"0.022": 0.0,
			"0.023": 0.0,
			"0.024": 0.0,
			"0.025": 0.0
		}
	}
}
