{
	 "smiles": "CN1C=NC(=C1)C(=O)OC1=C(F)C(F)=C(F)C(F)=C1F", 
	 "Tm": 405.15, 
	 "num_atms": 25, 
	 "gaussian": { 
		 "optdone": 1, 
		 "sigma_profile": "yes", 
		 "theory": "DFT", 
		 "functional": "B3LYP", 
		 "basiset": "6-31G**", 
		 "properties": { 
			 "R2extent": 8740.0194, 
			 "electric_dipole_moment_norm": 7.06034079418, 
			 "electric_quadrupole_moment_norm": 18.4193479648, 
			 "total_energy": -1181.25852406, 
			 "HOMO_LUMO_gap": 0.21218, 
			 "cosmo_polarized_energy": -15.78, 
			 "cosmo_cavitation_energy": 34.84, 
			 "cosmo_dispersion_energy": -23.8, 
			 "cosmo_repulsion_energy": 1.72, 
			 "cosmo_total_nonelectrostatic_energy": 12.75, 
			 "SMD_solvation_energy": 8.7 
		},
		"coords": [
			{
				"x": 2.6284786599,
				"y": 4.1852893894,
				"z": -0.1791273494,
				"element": "C" 
			},
			{
				"x": 2.1233418,
				"y": 2.8983847044,
				"z": 0.2774965796,
				"element": "N" 
			},
			{
				"x": 1.9588686859,
				"y": 2.4957189928,
				"z": 1.584714498,
				"element": "C" 
			},
			{
				"x": 1.4841957353,
				"y": 1.2788548327,
				"z": 1.679132588,
				"element": "N" 
			},
			{
				"x": 1.3290406636,
				"y": 0.8611098412,
				"z": 0.3746677746,
				"element": "C" 
			},
			{
				"x": 1.7205565403,
				"y": 1.8523703769,
				"z": -0.5051352158,
				"element": "C" 
			},
			{
				"x": 0.8230931872,
				"y": -0.4471967854,
				"z": -0.0427485292,
				"element": "C" 
			},
			{
				"x": 0.6926231588,
				"y": -0.8132441104,
				"z": -1.188048095,
				"element": "O" 
			},
			{
				"x": 0.4953365929,
				"y": -1.2368543581,
				"z": 1.0444266563,
				"element": "O" 
			},
			{
				"x": 0.0481283098,
				"y": -2.5074150128,
				"z": 0.7692546887,
				"element": "C" 
			},
			{
				"x": 0.9174630458,
				"y": -3.4977338969,
				"z": 0.3095687135,
				"element": "C" 
			},
			{
				"x": 2.1971664918,
				"y": -3.1983313736,
				"z": 0.0691930212,
				"element": "F" 
			},
			{
				"x": 0.4656604558,
				"y": -4.7979261377,
				"z": 0.1021369655,
				"element": "C" 
			},
			{
				"x": 1.3056645475,
				"y": -5.7416982749,
				"z": -0.3368480107,
				"element": "F" 
			},
			{
				"x": -0.8665523289,
				"y": -5.1177652052,
				"z": 0.3586474242,
				"element": "C" 
			},
			{
				"x": -1.3022568692,
				"y": -6.3666670249,
				"z": 0.1669890103,
				"element": "F" 
			},
			{
				"x": -1.7426309845,
				"y": -4.1365688924,
				"z": 0.8168102226,
				"element": "C" 
			},
			{
				"x": -3.0214551644,
				"y": -4.4442334415,
				"z": 1.0605058562,
				"element": "F" 
			},
			{
				"x": -1.285636511,
				"y": -2.8346798584,
				"z": 1.0128333002,
				"element": "C" 
			},
			{
				"x": -2.1372819645,
				"y": -1.8979376076,
				"z": 1.4392527609,
				"element": "F" 
			},
			{
				"x": 2.860866446,
				"y": 4.8009387743,
				"z": 0.6912829037,
				"element": "H" 
			},
			{
				"x": 1.878014316,
				"y": 4.7010509738,
				"z": -0.7843637496,
				"element": "H" 
			},
			{
				"x": 3.5388799827,
				"y": 4.0541943452,
				"z": -0.7703396088,
				"element": "H" 
			},
			{
				"x": 2.2078248528,
				"y": 3.1471347113,
				"z": 2.4120993124,
				"element": "H" 
			},
			{
				"x": 1.73891035,
				"y": 1.8812050377,
				"z": -1.5835017174,
				"element": "H" 
			}
		],
		 "valence_orbital": [ 
			{
				"type": "occ",
				"energy": -0.29311,
				"method": "rhf"
			},
			{
				"type": "occ",
				"energy": -0.28467,
				"method": "rhf"
			},
			{
				"type": "occ",
				"energy": -0.25472,
				"method": "rhf"
			},
			{
				"type": "occ",
				"energy": -0.25205,
				"method": "rhf"
			},
			{
				"type": "occ",
				"energy": -0.25105,
				"method": "rhf"
			},
			{
				"type": "unocc",
				"energy": -0.03887,
				"method": "rhf"
			},
			{
				"type": "unocc",
				"energy": -0.01629,
				"method": "rhf"
			},
			{
				"type": "unocc",
				"energy": -0.01149,
				"method": "rhf"
			},
			{
				"type": "unocc",
				"energy": 0.0082,
				"method": "rhf"
			},
			{
				"type": "unocc",
				"energy": 0.01261,
				"method": "rhf"
			}
		],
		"cosmo_sigma_profile": { 
			"-0.025": 0.0,
			"-0.024": 0.0,
			"-0.023": 0.0,
			"-0.022": 0.0,
			"-0.021": 0.0,
			"-0.02": 0.0,
			"-0.019": 0.0,
			"-0.018": 0.0,
			"-0.017": 0.0,
			"-0.016": 0.0,
			"-0.015": 0.0,
			"-0.014": 0.0,
			"-0.013": 0.0,
			"-0.012": 0.0,
			"-0.011": 0.298165046281,
			"-0.01": 3.84094485467,
			"-0.009": 4.51605116186,
			"-0.008": 4.62809099144,
			"-0.007": 11.6214287299,
			"-0.006": 10.7885219433,
			"-0.005": 11.1576458112,
			"-0.004": 27.5347581514,
			"-0.003": 22.4566216234,
			"-0.002": 14.5870969847,
			"-0.001": 16.7440028171,
			"0.0": 16.0989089234,
			"0.001": 22.2773639839,
			"0.002": 50.1924409237,
			"0.003": 24.7579171266,
			"0.004": 6.47711615428,
			"0.005": 3.90548528826,
			"0.006": 3.29650721923,
			"0.007": 3.55349738671,
			"0.008": 3.78198324155,
			"0.009": 3.68323033142,
			"0.01": 4.57501109023,
			"0.011": 4.75074188571,
			"0.012": 1.57536867042,
			"0.013": 1.4789990413,
			"0.014": 1.32309701671,
			"0.015": 1.10870563289,
			"0.016": 1.02179562988,
			"0.017": 0.352766261555,
			"0.018": 0.0,
			"0.019": 0.0,
			"0.02": 0.0,
			"0.021": 0.0,
			"0.022": 0.0,
			"0.023": 0.0,
			"0.024": 0.0,
			"0.025": 0.0
		}
	}
}
