{
	 "smiles": "COC(=O)C1=C(C)NC(C)=C(C1C1=CC=CC=C1N(=O)=O)C(=O)OC", 
	 "Tm": 446.15, 
	 "num_atms": 43, 
	 "gaussian": { 
		 "optdone": 1, 
		 "sigma_profile": "yes", 
		 "theory": "DFT", 
		 "functional": "B3LYP", 
		 "basiset": "6-31G**", 
		 "properties": { 
			 "R2extent": 8237.2566, 
			 "electric_dipole_moment_norm": 6.96879872431, 
			 "electric_quadrupole_moment_norm": 18.1848804063, 
			 "total_energy": -1219.40826757, 
			 "HOMO_LUMO_gap": 0.14186, 
			 "cosmo_polarized_energy": -24.86, 
			 "cosmo_cavitation_energy": 45.66, 
			 "cosmo_dispersion_energy": -30.61, 
			 "cosmo_repulsion_energy": 2.33, 
			 "cosmo_total_nonelectrostatic_energy": 17.39, 
			 "SMD_solvation_energy": 12.61 
		},
		"coords": [
			{
				"x": -0.9823635376,
				"y": 3.7468908521,
				"z": 3.3509731667,
				"element": "C" 
			},
			{
				"x": -1.3000084302,
				"y": 2.7134384905,
				"z": 2.4055092823,
				"element": "O" 
			},
			{
				"x": -0.2520265622,
				"y": 1.9163320592,
				"z": 2.060394506,
				"element": "C" 
			},
			{
				"x": 0.8575263926,
				"y": 2.0780890496,
				"z": 2.5409050454,
				"element": "O" 
			},
			{
				"x": -0.5666234606,
				"y": 0.8509203888,
				"z": 1.0953368993,
				"element": "C" 
			},
			{
				"x": -1.7742648136,
				"y": 0.6948820772,
				"z": 0.4843078812,
				"element": "C" 
			},
			{
				"x": -2.9878101155,
				"y": 1.586356452,
				"z": 0.5918320383,
				"element": "C" 
			},
			{
				"x": -1.9783626305,
				"y": -0.4111637808,
				"z": -0.3250463807,
				"element": "N" 
			},
			{
				"x": -1.11528603,
				"y": -1.4940771786,
				"z": -0.3968896944,
				"element": "C" 
			},
			{
				"x": -1.6926382279,
				"y": -2.6931236263,
				"z": -1.104618483,
				"element": "C" 
			},
			{
				"x": 0.1176182541,
				"y": -1.3982663502,
				"z": 0.1716629316,
				"element": "C" 
			},
			{
				"x": 0.606792795,
				"y": -0.0949966769,
				"z": 0.806198972,
				"element": "C" 
			},
			{
				"x": 1.6499155048,
				"y": 0.6150827573,
				"z": -0.0826249313,
				"element": "C" 
			},
			{
				"x": 1.3338872167,
				"y": 0.8205555038,
				"z": -1.4341756425,
				"element": "C" 
			},
			{
				"x": 2.1795512798,
				"y": 1.4986015111,
				"z": -2.3087523024,
				"element": "C" 
			},
			{
				"x": 3.3855126571,
				"y": 2.0227924624,
				"z": -1.8432154826,
				"element": "C" 
			},
			{
				"x": 3.7235926985,
				"y": 1.8587959437,
				"z": -0.5051381645,
				"element": "C" 
			},
			{
				"x": 2.8741840974,
				"y": 1.1548639389,
				"z": 0.3534055953,
				"element": "C" 
			},
			{
				"x": 3.3817237655,
				"y": 1.0209731172,
				"z": 1.7382893461,
				"element": "N" 
			},
			{
				"x": 4.0783529095,
				"y": 1.9411883854,
				"z": 2.1631856786,
				"element": "O" 
			},
			{
				"x": 3.1362076229,
				"y": -0.006083341,
				"z": 2.365945476,
				"element": "O" 
			},
			{
				"x": 1.0117185495,
				"y": -2.5717933438,
				"z": 0.1580142559,
				"element": "C" 
			},
			{
				"x": 0.7481419448,
				"y": -3.6836067708,
				"z": -0.2789474344,
				"element": "O" 
			},
			{
				"x": 2.2104346743,
				"y": -2.2759184324,
				"z": 0.7066421769,
				"element": "O" 
			},
			{
				"x": 3.1521260605,
				"y": -3.3517149501,
				"z": 0.7786387929,
				"element": "C" 
			},
			{
				"x": -1.9122239693,
				"y": 4.2939431225,
				"z": 3.5101119654,
				"element": "H" 
			},
			{
				"x": -0.6255022339,
				"y": 3.3152035957,
				"z": 4.2891993297,
				"element": "H" 
			},
			{
				"x": -0.2083978427,
				"y": 4.4097704261,
				"z": 2.9563846625,
				"element": "H" 
			},
			{
				"x": -3.4726744213,
				"y": 1.4734524309,
				"z": 1.5656272348,
				"element": "H" 
			},
			{
				"x": -2.7196394076,
				"y": 2.6370837449,
				"z": 0.4917007877,
				"element": "H" 
			},
			{
				"x": -3.715387672,
				"y": 1.3342028296,
				"z": -0.1867443917,
				"element": "H" 
			},
			{
				"x": -2.8929673613,
				"y": -0.5235147996,
				"z": -0.7338020026,
				"element": "H" 
			},
			{
				"x": -2.6210157545,
				"y": -2.4243024372,
				"z": -1.6206895858,
				"element": "H" 
			},
			{
				"x": -0.9857943371,
				"y": -3.1063190845,
				"z": -1.8236426669,
				"element": "H" 
			},
			{
				"x": -1.9069209002,
				"y": -3.4976101458,
				"z": -0.3956442519,
				"element": "H" 
			},
			{
				"x": 1.0969391797,
				"y": -0.3280390313,
				"z": 1.7489315943,
				"element": "H" 
			},
			{
				"x": 0.3925055491,
				"y": 0.4286227198,
				"z": -1.805582536,
				"element": "H" 
			},
			{
				"x": 1.894255204,
				"y": 1.6199468792,
				"z": -3.3498361353,
				"element": "H" 
			},
			{
				"x": 4.0552811373,
				"y": 2.5559195473,
				"z": -2.5105822366,
				"element": "H" 
			},
			{
				"x": 4.6422560151,
				"y": 2.2660487667,
				"z": -0.1019044343,
				"element": "H" 
			},
			{
				"x": 4.0201898381,
				"y": -2.9406409806,
				"z": 1.2932005499,
				"element": "H" 
			},
			{
				"x": 3.42321386,
				"y": -3.6968341682,
				"z": -0.223105537,
				"element": "H" 
			},
			{
				"x": 2.7356805016,
				"y": -4.1939519539,
				"z": 1.337344125,
				"element": "H" 
			}
		],
		 "valence_orbital": [ 
			{
				"type": "occ",
				"energy": -0.26694,
				"method": "rhf"
			},
			{
				"type": "occ",
				"energy": -0.25921,
				"method": "rhf"
			},
			{
				"type": "occ",
				"energy": -0.25159,
				"method": "rhf"
			},
			{
				"type": "occ",
				"energy": -0.24766,
				"method": "rhf"
			},
			{
				"type": "occ",
				"energy": -0.20839,
				"method": "rhf"
			},
			{
				"type": "unocc",
				"energy": -0.06653,
				"method": "rhf"
			},
			{
				"type": "unocc",
				"energy": -0.04734,
				"method": "rhf"
			},
			{
				"type": "unocc",
				"energy": -0.0096,
				"method": "rhf"
			},
			{
				"type": "unocc",
				"energy": 0.00244,
				"method": "rhf"
			},
			{
				"type": "unocc",
				"energy": 0.01202,
				"method": "rhf"
			}
		],
		"cosmo_sigma_profile": { 
			"-0.025": 0.0,
			"-0.024": 0.0,
			"-0.023": 0.0,
			"-0.022": 0.0,
			"-0.021": 0.0,
			"-0.02": 0.0,
			"-0.019": 0.0,
			"-0.018": 0.0,
			"-0.017": 0.0,
			"-0.016": 0.379812302696,
			"-0.015": 1.38442997241,
			"-0.014": 1.43393128727,
			"-0.013": 1.35286780381,
			"-0.012": 1.12572190471,
			"-0.011": 1.88797142008,
			"-0.01": 1.53150660799,
			"-0.009": 1.3769167431,
			"-0.008": 2.01550885681,
			"-0.007": 5.46092249244,
			"-0.006": 15.3974767228,
			"-0.005": 27.4493584036,
			"-0.004": 30.5081074707,
			"-0.003": 35.6867884938,
			"-0.002": 34.8389547957,
			"-0.001": 30.7208486821,
			"0.0": 24.8547131643,
			"0.001": 20.6043430122,
			"0.002": 22.987120304,
			"0.003": 21.6868206428,
			"0.004": 11.9704888694,
			"0.005": 7.89246123202,
			"0.006": 8.07371705895,
			"0.007": 7.86604496983,
			"0.008": 14.4712953093,
			"0.009": 10.7216153688,
			"0.01": 7.82007743391,
			"0.011": 4.27141279414,
			"0.012": 3.2923857987,
			"0.013": 3.10298288488,
			"0.014": 0.278066738866,
			"0.015": 0.0,
			"0.016": 0.0,
			"0.017": 0.0,
			"0.018": 0.0,
			"0.019": 0.0,
			"0.02": 0.0,
			"0.021": 0.0,
			"0.022": 0.0,
			"0.023": 0.0,
			"0.024": 0.0,
			"0.025": 0.0
		}
	}
}
