{
	 "smiles": "CN(C)C(=O)CN1C=CC(N)=N1", 
	 "Tm": 332.15, 
	 "num_atms": 24, 
	 "gaussian": { 
		 "optdone": 1, 
		 "sigma_profile": "yes", 
		 "theory": "DFT", 
		 "functional": "B3LYP", 
		 "basiset": "6-31G**", 
		 "properties": { 
			 "R2extent": 2529.9704, 
			 "electric_dipole_moment_norm": 2.34355743476, 
			 "electric_quadrupole_moment_norm": 10.5191597706, 
			 "total_energy": -568.190205604, 
			 "HOMO_LUMO_gap": 0.21455, 
			 "cosmo_polarized_energy": -14.47, 
			 "cosmo_cavitation_energy": 27.4, 
			 "cosmo_dispersion_energy": -19.56, 
			 "cosmo_repulsion_energy": 1.59, 
			 "cosmo_total_nonelectrostatic_energy": 9.43, 
			 "SMD_solvation_energy": 4.92 
		},
		"coords": [
			{
				"x": -1.6231591845,
				"y": 2.151175802,
				"z": 0.8301494507,
				"element": "C" 
			},
			{
				"x": -1.1699508289,
				"y": 2.2299985964,
				"z": -0.5532835018,
				"element": "N" 
			},
			{
				"x": -2.1879863834,
				"y": 2.5833941627,
				"z": -1.5341459915,
				"element": "C" 
			},
			{
				"x": 0.112424215,
				"y": 2.0312575943,
				"z": -0.9829476466,
				"element": "C" 
			},
			{
				"x": 0.4421173144,
				"y": 2.0936692924,
				"z": -2.1658829453,
				"element": "O" 
			},
			{
				"x": 1.1962610755,
				"y": 1.7011009777,
				"z": 0.062931397,
				"element": "C" 
			},
			{
				"x": 1.1777996936,
				"y": 0.3086404561,
				"z": 0.474488699,
				"element": "N" 
			},
			{
				"x": 1.456203964,
				"y": -0.7839362124,
				"z": -0.2784649701,
				"element": "C" 
			},
			{
				"x": 1.235615353,
				"y": -1.8934565985,
				"z": 0.5141228197,
				"element": "C" 
			},
			{
				"x": 0.8109760599,
				"y": -1.3596904669,
				"z": 1.758733904,
				"element": "C" 
			},
			{
				"x": 0.4022272779,
				"y": -2.0650845687,
				"z": 2.8922645066,
				"element": "N" 
			},
			{
				"x": 0.7791773065,
				"y": -0.0259667131,
				"z": 1.7382564743,
				"element": "N" 
			},
			{
				"x": -2.5625310416,
				"y": 1.5877546565,
				"z": 0.8662967857,
				"element": "H" 
			},
			{
				"x": -1.8157486307,
				"y": 3.151610853,
				"z": 1.2423884614,
				"element": "H" 
			},
			{
				"x": -0.907605617,
				"y": 1.6247348118,
				"z": 1.4604882394,
				"element": "H" 
			},
			{
				"x": -2.9812641092,
				"y": 1.8260006843,
				"z": -1.5535137046,
				"element": "H" 
			},
			{
				"x": -2.6412524504,
				"y": 3.5503211281,
				"z": -1.2819274742,
				"element": "H" 
			},
			{
				"x": -1.7179740889,
				"y": 2.6439304404,
				"z": -2.5140988951,
				"element": "H" 
			},
			{
				"x": 1.1221987004,
				"y": 2.3003167552,
				"z": 0.971187374,
				"element": "H" 
			},
			{
				"x": 2.1448116009,
				"y": 1.9241845499,
				"z": -0.4301629295,
				"element": "H" 
			},
			{
				"x": 1.7762772687,
				"y": -0.687089339,
				"z": -1.306038004,
				"element": "H" 
			},
			{
				"x": 1.3553226922,
				"y": -2.9310689821,
				"z": 0.2406918405,
				"element": "H" 
			},
			{
				"x": 0.3746436748,
				"y": -1.4726034612,
				"z": 3.7135057499,
				"element": "H" 
			},
			{
				"x": 0.9519161379,
				"y": -2.8965944188,
				"z": 3.0674603605,
				"element": "H" 
			}
		],
		 "valence_orbital": [ 
			{
				"type": "occ",
				"energy": -0.28793,
				"method": "rhf"
			},
			{
				"type": "occ",
				"energy": -0.25202,
				"method": "rhf"
			},
			{
				"type": "occ",
				"energy": -0.23838,
				"method": "rhf"
			},
			{
				"type": "occ",
				"energy": -0.23734,
				"method": "rhf"
			},
			{
				"type": "occ",
				"energy": -0.20054,
				"method": "rhf"
			},
			{
				"type": "unocc",
				"energy": 0.01401,
				"method": "rhf"
			},
			{
				"type": "unocc",
				"energy": 0.02989,
				"method": "rhf"
			},
			{
				"type": "unocc",
				"energy": 0.07692,
				"method": "rhf"
			},
			{
				"type": "unocc",
				"energy": 0.09358,
				"method": "rhf"
			},
			{
				"type": "unocc",
				"energy": 0.10009,
				"method": "rhf"
			}
		],
		"cosmo_sigma_profile": { 
			"-0.025": 0.0,
			"-0.024": 0.0,
			"-0.023": 0.0,
			"-0.022": 0.0,
			"-0.021": 0.0,
			"-0.02": 0.0,
			"-0.019": 0.0,
			"-0.018": 0.0,
			"-0.017": 0.0,
			"-0.016": 0.0,
			"-0.015": 0.0,
			"-0.014": 0.0,
			"-0.013": 0.215842082336,
			"-0.012": 1.83541027028,
			"-0.011": 2.280991231,
			"-0.01": 2.53438369931,
			"-0.009": 3.07597668977,
			"-0.008": 3.55019207271,
			"-0.007": 6.30618461197,
			"-0.006": 10.5588812339,
			"-0.005": 17.7378203179,
			"-0.004": 21.1520952854,
			"-0.003": 18.44652479,
			"-0.002": 21.5460307982,
			"-0.001": 13.9645660929,
			"0.0": 10.1043832923,
			"0.001": 11.0487370908,
			"0.002": 8.26077510719,
			"0.003": 7.18055817774,
			"0.004": 6.92594636553,
			"0.005": 8.60541059586,
			"0.006": 7.8499567108,
			"0.007": 5.00867100767,
			"0.008": 3.92065511109,
			"0.009": 3.6461548399,
			"0.01": 3.29355217134,
			"0.011": 2.16285643394,
			"0.012": 3.33879190986,
			"0.013": 4.77183059579,
			"0.014": 5.43247313958,
			"0.015": 1.24278584698,
			"0.016": 0.240611881945,
			"0.017": 0.0,
			"0.018": 0.0,
			"0.019": 0.0,
			"0.02": 0.0,
			"0.021": 0.0,
			"0.022": 0.0,
			"0.023": 0.0,
			"0.024": 0.0,
			"0.025": 0.0
		}
	}
}
