{
	 "smiles": "OC(=O)C1=NC(Br)=CC=C1", 
	 "Tm": 466.15, 
	 "num_atms": 14, 
	 "gaussian": { 
		 "optdone": 1, 
		 "sigma_profile": "yes", 
		 "theory": "DFT", 
		 "functional": "B3LYP", 
		 "basiset": "6-31G**", 
		 "properties": { 
			 "R2extent": 3803.1439, 
			 "electric_dipole_moment_norm": 4.65784728603, 
			 "electric_quadrupole_moment_norm": 10.6427710334, 
			 "total_energy": -3007.65640357, 
			 "HOMO_LUMO_gap": 0.19154, 
			 "cosmo_polarized_energy": -14.27, 
			 "cosmo_cavitation_energy": 21.83, 
			 "cosmo_dispersion_energy": -16.67, 
			 "cosmo_repulsion_energy": 1.37, 
			 "cosmo_total_nonelectrostatic_energy": 6.53, 
			 "SMD_solvation_energy": 2.74 
		},
		"coords": [
			{
				"x": -0.3132923433,
				"y": 1.2790896607,
				"z": -1.3708909918,
				"element": "O" 
			},
			{
				"x": 0.1865234602,
				"y": 0.8970203217,
				"z": -0.1666965593,
				"element": "C" 
			},
			{
				"x": 0.4868394288,
				"y": 1.683022882,
				"z": 0.6991500222,
				"element": "O" 
			},
			{
				"x": 0.3096959199,
				"y": -0.5985980263,
				"z": -0.0686623271,
				"element": "C" 
			},
			{
				"x": 0.7990337545,
				"y": -1.0572680135,
				"z": 1.0959912734,
				"element": "N" 
			},
			{
				"x": 0.9267428453,
				"y": -2.3570367062,
				"z": 1.2330357003,
				"element": "C" 
			},
			{
				"x": 1.6275923788,
				"y": -2.9960324746,
				"z": 2.9036033274,
				"element": "Br" 
			},
			{
				"x": 0.59035157,
				"y": -3.3016824449,
				"z": 0.2542363522,
				"element": "C" 
			},
			{
				"x": 0.0851341095,
				"y": -2.8170841347,
				"z": -0.9466549204,
				"element": "C" 
			},
			{
				"x": -0.0616805331,
				"y": -1.4388171783,
				"z": -1.1206480715,
				"element": "C" 
			},
			{
				"x": -0.356744183,
				"y": 2.2491777094,
				"z": -1.3434518723,
				"element": "H" 
			},
			{
				"x": 0.7228626427,
				"y": -4.3608753849,
				"z": 0.4373821075,
				"element": "H" 
			},
			{
				"x": -0.1916229609,
				"y": -3.5055689262,
				"z": -1.7394253309,
				"element": "H" 
			},
			{
				"x": -0.4512360893,
				"y": -1.0217472841,
				"z": -2.0405687096,
				"element": "H" 
			}
		],
		 "valence_orbital": [ 
			{
				"type": "occ",
				"energy": -0.30692,
				"method": "rhf"
			},
			{
				"type": "occ",
				"energy": -0.29297,
				"method": "rhf"
			},
			{
				"type": "occ",
				"energy": -0.28455,
				"method": "rhf"
			},
			{
				"type": "occ",
				"energy": -0.28178,
				"method": "rhf"
			},
			{
				"type": "occ",
				"energy": -0.2643,
				"method": "rhf"
			},
			{
				"type": "unocc",
				"energy": -0.07276,
				"method": "rhf"
			},
			{
				"type": "unocc",
				"energy": -0.04202,
				"method": "rhf"
			},
			{
				"type": "unocc",
				"energy": 0.00305,
				"method": "rhf"
			},
			{
				"type": "unocc",
				"energy": 0.03852,
				"method": "rhf"
			},
			{
				"type": "unocc",
				"energy": 0.07194,
				"method": "rhf"
			}
		],
		"cosmo_sigma_profile": { 
			"-0.025": 0.0,
			"-0.024": 0.0,
			"-0.023": 0.0,
			"-0.022": 0.0,
			"-0.021": 0.0,
			"-0.02": 0.0,
			"-0.019": 0.487478484172,
			"-0.018": 0.785795761071,
			"-0.017": 0.818396312404,
			"-0.016": 1.1655584833,
			"-0.015": 0.581611843873,
			"-0.014": 0.621263356607,
			"-0.013": 0.452694848929,
			"-0.012": 0.890108795778,
			"-0.011": 0.975590240475,
			"-0.01": 0.691230226106,
			"-0.009": 2.65609611404,
			"-0.008": 6.49365624212,
			"-0.007": 8.0424069123,
			"-0.006": 5.8836652601,
			"-0.005": 5.62074057433,
			"-0.004": 8.58892200832,
			"-0.003": 10.5690536319,
			"-0.002": 14.5408248882,
			"-0.001": 19.1116525937,
			"0.0": 15.3358260807,
			"0.001": 9.32588592385,
			"0.002": 8.00973794393,
			"0.003": 9.86057154894,
			"0.004": 13.0422966067,
			"0.005": 6.77388327009,
			"0.006": 4.30956488882,
			"0.007": 2.94438351986,
			"0.008": 2.65083983053,
			"0.009": 1.97061754969,
			"0.01": 3.67822923711,
			"0.011": 5.21556326469,
			"0.012": 2.48255499041,
			"0.013": 1.80167794248,
			"0.014": 1.17488457714,
			"0.015": 1.08507109273,
			"0.016": 0.660155455647,
			"0.017": 0.00619305591826,
			"0.018": 0.0,
			"0.019": 0.0,
			"0.02": 0.0,
			"0.021": 0.0,
			"0.022": 0.0,
			"0.023": 0.0,
			"0.024": 0.0,
			"0.025": 0.0
		}
	}
}
