{
	 "smiles": "NC1=CC=C(O)C2=C1C(=O)C1=C(C=CC=C1)C2=O", 
	 "Tm": 489.15, 
	 "num_atms": 27, 
	 "gaussian": { 
		 "optdone": 1, 
		 "sigma_profile": "yes", 
		 "theory": "DFT", 
		 "functional": "B3LYP", 
		 "basiset": "6-31G**", 
		 "properties": { 
			 "R2extent": 4242.5823, 
			 "electric_dipole_moment_norm": 2.30738639374, 
			 "electric_quadrupole_moment_norm": 22.8043972551, 
			 "total_energy": -819.376399587, 
			 "HOMO_LUMO_gap": 0.09925, 
			 "cosmo_polarized_energy": -12.07, 
			 "cosmo_cavitation_energy": 30.41, 
			 "cosmo_dispersion_energy": -23.49, 
			 "cosmo_repulsion_energy": 1.72, 
			 "cosmo_total_nonelectrostatic_energy": 8.65, 
			 "SMD_solvation_energy": 5.62 
		},
		"coords": [
			{
				"x": -1.5551964317,
				"y": 3.4799662499,
				"z": -0.9028398697,
				"element": "N" 
			},
			{
				"x": -0.6428601241,
				"y": 2.5846007023,
				"z": -1.3588199453,
				"element": "C" 
			},
			{
				"x": 0.2068488214,
				"y": 2.9457289317,
				"z": -2.4474381125,
				"element": "C" 
			},
			{
				"x": 1.1456950516,
				"y": 2.0828072956,
				"z": -2.9495747052,
				"element": "C" 
			},
			{
				"x": 1.305861257,
				"y": 0.7869696582,
				"z": -2.397595581,
				"element": "C" 
			},
			{
				"x": 2.2399057002,
				"y": -0.0052934395,
				"z": -2.9336776275,
				"element": "O" 
			},
			{
				"x": 0.4863195449,
				"y": 0.3936944971,
				"z": -1.3229185333,
				"element": "C" 
			},
			{
				"x": -0.4991178101,
				"y": 1.2923914459,
				"z": -0.7917871676,
				"element": "C" 
			},
			{
				"x": -1.3476751664,
				"y": 0.8786515489,
				"z": 0.3250982635,
				"element": "C" 
			},
			{
				"x": -2.2171871823,
				"y": 1.6182613608,
				"z": 0.8238229214,
				"element": "O" 
			},
			{
				"x": -1.1549487074,
				"y": -0.4900517367,
				"z": 0.8832641411,
				"element": "C" 
			},
			{
				"x": -0.1871545716,
				"y": -1.3674459773,
				"z": 0.358447806,
				"element": "C" 
			},
			{
				"x": -0.0316678184,
				"y": -2.6482888147,
				"z": 0.9065924024,
				"element": "C" 
			},
			{
				"x": -0.8330077218,
				"y": -3.0531843052,
				"z": 1.968836623,
				"element": "C" 
			},
			{
				"x": -1.796672384,
				"y": -2.1811277742,
				"z": 2.492317157,
				"element": "C" 
			},
			{
				"x": -1.9565529553,
				"y": -0.9081425581,
				"z": 1.9531469599,
				"element": "C" 
			},
			{
				"x": 0.6695610754,
				"y": -0.9468359028,
				"z": -0.7704266092,
				"element": "C" 
			},
			{
				"x": 1.5283375669,
				"y": -1.7327093085,
				"z": -1.231515372,
				"element": "O" 
			},
			{
				"x": -2.1428466474,
				"y": 3.1926512345,
				"z": -0.1267148869,
				"element": "H" 
			},
			{
				"x": -1.6301344253,
				"y": 4.3896363739,
				"z": -1.3253405801,
				"element": "H" 
			},
			{
				"x": 0.0964969977,
				"y": 3.9361800503,
				"z": -2.8821567387,
				"element": "H" 
			},
			{
				"x": 1.7871322095,
				"y": 2.3664226838,
				"z": -3.7774449126,
				"element": "H" 
			},
			{
				"x": 2.1977394088,
				"y": -0.8589350151,
				"z": -2.4156297394,
				"element": "H" 
			},
			{
				"x": 0.7219449629,
				"y": -3.3023575982,
				"z": 0.481765297,
				"element": "H" 
			},
			{
				"x": -0.711289924,
				"y": -4.0458363068,
				"z": 2.3923039281,
				"element": "H" 
			},
			{
				"x": -2.4215135295,
				"y": -2.4992275607,
				"z": 3.3219193025,
				"element": "H" 
			},
			{
				"x": -2.6951171967,
				"y": -0.2151257352,
				"z": 2.3406655792,
				"element": "H" 
			}
		],
		 "valence_orbital": [ 
			{
				"type": "occ",
				"energy": -0.26953,
				"method": "rhf"
			},
			{
				"type": "occ",
				"energy": -0.26337,
				"method": "rhf"
			},
			{
				"type": "occ",
				"energy": -0.26276,
				"method": "rhf"
			},
			{
				"type": "occ",
				"energy": -0.25452,
				"method": "rhf"
			},
			{
				"type": "occ",
				"energy": -0.19942,
				"method": "rhf"
			},
			{
				"type": "unocc",
				"energy": -0.10017,
				"method": "rhf"
			},
			{
				"type": "unocc",
				"energy": -0.04632,
				"method": "rhf"
			},
			{
				"type": "unocc",
				"energy": -0.02075,
				"method": "rhf"
			},
			{
				"type": "unocc",
				"energy": 0.00901,
				"method": "rhf"
			},
			{
				"type": "unocc",
				"energy": 0.05746,
				"method": "rhf"
			}
		],
		"cosmo_sigma_profile": { 
			"-0.025": 0.0,
			"-0.024": 0.0,
			"-0.023": 0.0,
			"-0.022": 0.0,
			"-0.021": 0.0,
			"-0.02": 0.0,
			"-0.019": 0.0,
			"-0.018": 0.0,
			"-0.017": 0.0,
			"-0.016": 0.0,
			"-0.015": 0.133215651673,
			"-0.014": 1.14860279674,
			"-0.013": 1.98866774582,
			"-0.012": 1.6058955361,
			"-0.011": 1.15598894661,
			"-0.01": 1.78380703499,
			"-0.009": 2.08924426159,
			"-0.008": 3.96986119885,
			"-0.007": 8.44205996632,
			"-0.006": 11.1244358188,
			"-0.005": 13.575841317,
			"-0.004": 10.5640156587,
			"-0.003": 12.5506962107,
			"-0.002": 16.1891719076,
			"-0.001": 16.6966346489,
			"0.0": 19.1624531685,
			"0.001": 31.6463093303,
			"0.002": 30.8112480228,
			"0.003": 17.7604303152,
			"0.004": 7.10292155406,
			"0.005": 6.43162662599,
			"0.006": 4.71440549996,
			"0.007": 3.64256912278,
			"0.008": 5.40549797388,
			"0.009": 3.82670387478,
			"0.01": 5.68678927672,
			"0.011": 4.7007305174,
			"0.012": 1.50301750836,
			"0.013": 0.0,
			"0.014": 0.0,
			"0.015": 0.0,
			"0.016": 0.0,
			"0.017": 0.0,
			"0.018": 0.0,
			"0.019": 0.0,
			"0.02": 0.0,
			"0.021": 0.0,
			"0.022": 0.0,
			"0.023": 0.0,
			"0.024": 0.0,
			"0.025": 0.0
		}
	}
}
