{
	 "smiles": "CCOCCN(CC1=CC=C(CN(CCOCC)C(=O)C(Cl)Cl)C=C1)C(=O)C(Cl)Cl", 
	 "Tm": 413.15, 
	 "num_atms": 58, 
	 "gaussian": { 
		 "optdone": 1, 
		 "sigma_profile": "yes", 
		 "theory": "DFT", 
		 "functional": "B3LYP", 
		 "basiset": "6-31G**", 
		 "properties": { 
			 "R2extent": 21516.7232, 
			 "electric_dipole_moment_norm": 2.04060820345, 
			 "electric_quadrupole_moment_norm": 57.7823441662, 
			 "total_energy": -3030.15592519, 
			 "HOMO_LUMO_gap": 0.21478, 
			 "cosmo_polarized_energy": -23.14, 
			 "cosmo_cavitation_energy": 66.57, 
			 "cosmo_dispersion_energy": -41.49, 
			 "cosmo_repulsion_energy": 3.29, 
			 "cosmo_total_nonelectrostatic_energy": 28.37, 
			 "SMD_solvation_energy": 10.87 
		},
		"coords": [
			{
				"x": -4.9030014453,
				"y": -4.7635192495,
				"z": 2.7935609604,
				"element": "C" 
			},
			{
				"x": -3.508775939,
				"y": -4.5730653531,
				"z": 3.3871742842,
				"element": "C" 
			},
			{
				"x": -2.797738963,
				"y": -3.4719297901,
				"z": 2.8281616108,
				"element": "O" 
			},
			{
				"x": -3.1955047631,
				"y": -2.2011820517,
				"z": 3.3179259301,
				"element": "C" 
			},
			{
				"x": -2.3585235703,
				"y": -1.130078587,
				"z": 2.6278263257,
				"element": "C" 
			},
			{
				"x": -2.6372443535,
				"y": -1.0082473893,
				"z": 1.1906243239,
				"element": "N" 
			},
			{
				"x": -1.888356347,
				"y": -1.8777445246,
				"z": 0.2812302323,
				"element": "C" 
			},
			{
				"x": -0.5763303421,
				"y": -1.3016229364,
				"z": -0.2371693032,
				"element": "C" 
			},
			{
				"x": -0.2018312223,
				"y": 0.0315734887,
				"z": -0.0392625596,
				"element": "C" 
			},
			{
				"x": 1.0031079643,
				"y": 0.5243996983,
				"z": -0.5440252848,
				"element": "C" 
			},
			{
				"x": 1.8666621119,
				"y": -0.3124239067,
				"z": -1.2583932313,
				"element": "C" 
			},
			{
				"x": 3.1656214168,
				"y": 0.2047750401,
				"z": -1.8598639178,
				"element": "C" 
			},
			{
				"x": 3.9834789875,
				"y": 1.0778137024,
				"z": -0.9972770399,
				"element": "N" 
			},
			{
				"x": 4.303560674,
				"y": 2.4469680301,
				"z": -1.4411419604,
				"element": "C" 
			},
			{
				"x": 3.6363117311,
				"y": 3.5572257532,
				"z": -0.6363646213,
				"element": "C" 
			},
			{
				"x": 2.2448118577,
				"y": 3.5676790692,
				"z": -0.9185404454,
				"element": "O" 
			},
			{
				"x": 1.5498905709,
				"y": 4.7124861598,
				"z": -0.4301229551,
				"element": "C" 
			},
			{
				"x": 1.3627186736,
				"y": 4.730006997,
				"z": 1.0854907481,
				"element": "C" 
			},
			{
				"x": 4.6910274634,
				"y": 0.6447389589,
				"z": 0.0946669247,
				"element": "C" 
			},
			{
				"x": 5.4305666924,
				"y": 1.375548859,
				"z": 0.7346457774,
				"element": "O" 
			},
			{
				"x": 4.5303207161,
				"y": -0.8476632011,
				"z": 0.4720091112,
				"element": "C" 
			},
			{
				"x": 4.7716166026,
				"y": -1.0923603904,
				"z": 2.2187836399,
				"element": "Cl" 
			},
			{
				"x": 5.7224411963,
				"y": -1.8137074861,
				"z": -0.5002091521,
				"element": "Cl" 
			},
			{
				"x": 1.4944037031,
				"y": -1.6498473736,
				"z": -1.4571780271,
				"element": "C" 
			},
			{
				"x": 0.2898831366,
				"y": -2.1372055451,
				"z": -0.954303889,
				"element": "C" 
			},
			{
				"x": -3.6414969704,
				"y": -0.1539382288,
				"z": 0.8254022181,
				"element": "C" 
			},
			{
				"x": -4.3144748465,
				"y": 0.4723926258,
				"z": 1.6281123349,
				"element": "O" 
			},
			{
				"x": -3.8744422651,
				"y": -0.0017458175,
				"z": -0.700736551,
				"element": "C" 
			},
			{
				"x": -4.4442372284,
				"y": 1.6420178765,
				"z": -1.084775635,
				"element": "Cl" 
			},
			{
				"x": -5.0662487996,
				"y": -1.2548891149,
				"z": -1.2441731927,
				"element": "Cl" 
			},
			{
				"x": -4.8440052163,
				"y": -4.8732151313,
				"z": 1.7066283681,
				"element": "H" 
			},
			{
				"x": -5.5636709455,
				"y": -3.9204191135,
				"z": 3.0162457788,
				"element": "H" 
			},
			{
				"x": -5.3663144489,
				"y": -5.6660558802,
				"z": 3.206347507,
				"element": "H" 
			},
			{
				"x": -2.8897973407,
				"y": -5.4521712229,
				"z": 3.1798598405,
				"element": "H" 
			},
			{
				"x": -3.5665059235,
				"y": -4.4624694,
				"z": 4.4817924143,
				"element": "H" 
			},
			{
				"x": -4.259300763,
				"y": -2.0040707352,
				"z": 3.1301317311,
				"element": "H" 
			},
			{
				"x": -3.0285783177,
				"y": -2.140320481,
				"z": 4.4067623521,
				"element": "H" 
			},
			{
				"x": -2.5669737696,
				"y": -0.1655257238,
				"z": 3.0944384587,
				"element": "H" 
			},
			{
				"x": -1.2951976588,
				"y": -1.3593875901,
				"z": 2.7454019332,
				"element": "H" 
			},
			{
				"x": -1.7008051287,
				"y": -2.807320481,
				"z": 0.824976348,
				"element": "H" 
			},
			{
				"x": -2.5295852184,
				"y": -2.1646355256,
				"z": -0.557710821,
				"element": "H" 
			},
			{
				"x": -0.8552758135,
				"y": 0.6949037697,
				"z": 0.5193849484,
				"element": "H" 
			},
			{
				"x": 1.2753182273,
				"y": 1.564936347,
				"z": -0.3951949517,
				"element": "H" 
			},
			{
				"x": 3.766265616,
				"y": -0.6433146835,
				"z": -2.2086088775,
				"element": "H" 
			},
			{
				"x": 2.930636048,
				"y": 0.7980517806,
				"z": -2.7474767342,
				"element": "H" 
			},
			{
				"x": 5.386540096,
				"y": 2.5842026805,
				"z": -1.3687237963,
				"element": "H" 
			},
			{
				"x": 4.0073423705,
				"y": 2.53953436,
				"z": -2.4886775461,
				"element": "H" 
			},
			{
				"x": 4.0891200847,
				"y": 4.5165112394,
				"z": -0.9387061317,
				"element": "H" 
			},
			{
				"x": 3.8403241659,
				"y": 3.4115399874,
				"z": 0.430578553,
				"element": "H" 
			},
			{
				"x": 0.5756812831,
				"y": 4.6899916052,
				"z": -0.9288495047,
				"element": "H" 
			},
			{
				"x": 2.0698771955,
				"y": 5.6263995697,
				"z": -0.7602706489,
				"element": "H" 
			},
			{
				"x": 0.8421342132,
				"y": 3.8284188257,
				"z": 1.422811123,
				"element": "H" 
			},
			{
				"x": 0.7624658887,
				"y": 5.5986911919,
				"z": 1.376199561,
				"element": "H" 
			},
			{
				"x": 2.3167693186,
				"y": 4.793382073,
				"z": 1.6170870336,
				"element": "H" 
			},
			{
				"x": 3.5507627324,
				"y": -1.2493654708,
				"z": 0.2312855309,
				"element": "H" 
			},
			{
				"x": 2.154746035,
				"y": -2.3175000772,
				"z": -2.0062032165,
				"element": "H" 
			},
			{
				"x": 0.0253495649,
				"y": -3.18004032,
				"z": -1.1140613875,
				"element": "H" 
			},
			{
				"x": -2.9744387381,
				"y": -0.1600069075,
				"z": -1.2888245215,
				"element": "H" 
			}
		],
		 "valence_orbital": [ 
			{
				"type": "occ",
				"energy": -0.26683,
				"method": "rhf"
			},
			{
				"type": "occ",
				"energy": -0.26459,
				"method": "rhf"
			},
			{
				"type": "occ",
				"energy": -0.2592,
				"method": "rhf"
			},
			{
				"type": "occ",
				"energy": -0.25742,
				"method": "rhf"
			},
			{
				"type": "occ",
				"energy": -0.24996,
				"method": "rhf"
			},
			{
				"type": "unocc",
				"energy": -0.03518,
				"method": "rhf"
			},
			{
				"type": "unocc",
				"energy": -0.03397,
				"method": "rhf"
			},
			{
				"type": "unocc",
				"energy": -0.02576,
				"method": "rhf"
			},
			{
				"type": "unocc",
				"energy": -0.01838,
				"method": "rhf"
			},
			{
				"type": "unocc",
				"energy": -0.00512,
				"method": "rhf"
			}
		],
		"cosmo_sigma_profile": { 
			"-0.025": 0.0,
			"-0.024": 0.0,
			"-0.023": 0.0,
			"-0.022": 0.0,
			"-0.021": 0.0,
			"-0.02": 0.0,
			"-0.019": 0.0,
			"-0.018": 0.0,
			"-0.017": 0.0,
			"-0.016": 0.0,
			"-0.015": 0.0,
			"-0.014": 0.0,
			"-0.013": 0.0,
			"-0.012": 0.0035808928692,
			"-0.011": 0.563326451087,
			"-0.01": 1.49647839038,
			"-0.009": 1.78018628027,
			"-0.008": 3.98630151203,
			"-0.007": 8.11713906938,
			"-0.006": 18.3160341145,
			"-0.005": 29.9151637805,
			"-0.004": 52.8869683173,
			"-0.003": 61.2262163348,
			"-0.002": 53.10466075,
			"-0.001": 44.6749835262,
			"0.0": 40.0431266711,
			"0.001": 37.6112899491,
			"0.002": 32.2061272691,
			"0.003": 39.242100823,
			"0.004": 45.1633049419,
			"0.005": 15.662443642,
			"0.006": 8.98139335344,
			"0.007": 4.89443247048,
			"0.008": 3.56091375278,
			"0.009": 5.19278915974,
			"0.01": 4.9554592091,
			"0.011": 5.15775249281,
			"0.012": 8.06938343118,
			"0.013": 5.67297552533,
			"0.014": 0.607458487833,
			"0.015": 0.0,
			"0.016": 0.0,
			"0.017": 0.0,
			"0.018": 0.0,
			"0.019": 0.0,
			"0.02": 0.0,
			"0.021": 0.0,
			"0.022": 0.0,
			"0.023": 0.0,
			"0.024": 0.0,
			"0.025": 0.0
		}
	}
}
