{
	 "smiles": "CC1=NN(CC2=NN=C(S)O2)C(C)=C1Br", 
	 "Tm": 467.15, 
	 "num_atms": 24, 
	 "gaussian": { 
		 "optdone": 1, 
		 "sigma_profile": "yes", 
		 "theory": "DFT", 
		 "functional": "B3LYP", 
		 "basiset": "6-31G**", 
		 "properties": { 
			 "R2extent": 7156.7305, 
			 "electric_dipole_moment_norm": 2.27863317364, 
			 "electric_quadrupole_moment_norm": 13.816661878, 
			 "total_energy": -3574.04083428, 
			 "HOMO_LUMO_gap": 0.2013, 
			 "cosmo_polarized_energy": -14.42, 
			 "cosmo_cavitation_energy": 33.39, 
			 "cosmo_dispersion_energy": -24.29, 
			 "cosmo_repulsion_energy": 1.89, 
			 "cosmo_total_nonelectrostatic_energy": 10.99, 
			 "SMD_solvation_energy": 1.69 
		},
		"coords": [
			{
				"x": -1.4071171058,
				"y": 2.4753944526,
				"z": -3.7963508139,
				"element": "C" 
			},
			{
				"x": -0.6452849419,
				"y": 2.0040144096,
				"z": -2.6000999706,
				"element": "C" 
			},
			{
				"x": -1.2601523328,
				"y": 1.4531620679,
				"z": -1.5558548647,
				"element": "N" 
			},
			{
				"x": -0.2742210585,
				"y": 1.1707401071,
				"z": -0.6622017091,
				"element": "N" 
			},
			{
				"x": -0.6216681877,
				"y": 0.4682252355,
				"z": 0.5614897062,
				"element": "C" 
			},
			{
				"x": -0.3983011219,
				"y": -1.0078017413,
				"z": 0.476199239,
				"element": "C" 
			},
			{
				"x": 0.5410278171,
				"y": -1.7060102308,
				"z": 1.0261442695,
				"element": "N" 
			},
			{
				"x": 0.3516189192,
				"y": -3.0311888536,
				"z": 0.6192617575,
				"element": "N" 
			},
			{
				"x": -0.6955527713,
				"y": -3.0141373471,
				"z": -0.1440929835,
				"element": "C" 
			},
			{
				"x": -1.4390405311,
				"y": -4.3936547084,
				"z": -0.9331505716,
				"element": "S" 
			},
			{
				"x": -1.2382156485,
				"y": -1.7728132833,
				"z": -0.2887845399,
				"element": "O" 
			},
			{
				"x": 0.9733255744,
				"y": 1.5080958111,
				"z": -1.1115861413,
				"element": "C" 
			},
			{
				"x": 2.227962028,
				"y": 1.3039909328,
				"z": -0.3285049432,
				"element": "C" 
			},
			{
				"x": 0.7506691937,
				"y": 2.0554391614,
				"z": -2.3629748607,
				"element": "C" 
			},
			{
				"x": 2.0619697664,
				"y": 2.7548650637,
				"z": -3.5254635932,
				"element": "Br" 
			},
			{
				"x": -1.0700354105,
				"y": 1.9664384591,
				"z": -4.7057386593,
				"element": "H" 
			},
			{
				"x": -1.2675960524,
				"y": 3.5498585057,
				"z": -3.9570877658,
				"element": "H" 
			},
			{
				"x": -2.4716586562,
				"y": 2.2774132823,
				"z": -3.6565685943,
				"element": "H" 
			},
			{
				"x": -1.6742324416,
				"y": 0.6862021858,
				"z": 0.7542865719,
				"element": "H" 
			},
			{
				"x": -0.0196514303,
				"y": 0.8418160676,
				"z": 1.3926097499,
				"element": "H" 
			},
			{
				"x": -2.3151513914,
				"y": -3.6517362258,
				"z": -1.6377284621,
				"element": "H" 
			},
			{
				"x": 2.3275805652,
				"y": 0.2713362729,
				"z": 0.0209004658,
				"element": "H" 
			},
			{
				"x": 2.2649271324,
				"y": 1.9581618464,
				"z": 0.5512648406,
				"element": "H" 
			},
			{
				"x": 3.0875980853,
				"y": 1.5435885288,
				"z": -0.9571681272,
				"element": "H" 
			}
		],
		 "valence_orbital": [ 
			{
				"type": "occ",
				"energy": -0.29541,
				"method": "rhf"
			},
			{
				"type": "occ",
				"energy": -0.28327,
				"method": "rhf"
			},
			{
				"type": "occ",
				"energy": -0.26191,
				"method": "rhf"
			},
			{
				"type": "occ",
				"energy": -0.24994,
				"method": "rhf"
			},
			{
				"type": "occ",
				"energy": -0.23245,
				"method": "rhf"
			},
			{
				"type": "unocc",
				"energy": -0.03115,
				"method": "rhf"
			},
			{
				"type": "unocc",
				"energy": -0.01113,
				"method": "rhf"
			},
			{
				"type": "unocc",
				"energy": 0.0061,
				"method": "rhf"
			},
			{
				"type": "unocc",
				"energy": 0.01356,
				"method": "rhf"
			},
			{
				"type": "unocc",
				"energy": 0.02233,
				"method": "rhf"
			}
		],
		"cosmo_sigma_profile": { 
			"-0.025": 0.0,
			"-0.024": 0.0,
			"-0.023": 0.0,
			"-0.022": 0.0,
			"-0.021": 0.0,
			"-0.02": 0.0,
			"-0.019": 0.0,
			"-0.018": 0.0,
			"-0.017": 0.0,
			"-0.016": 0.0,
			"-0.015": 0.0,
			"-0.014": 0.140714123847,
			"-0.013": 2.204302687,
			"-0.012": 1.53811652387,
			"-0.011": 1.94082725668,
			"-0.01": 2.14042342467,
			"-0.009": 5.46099896079,
			"-0.008": 5.85033751268,
			"-0.007": 7.36003945283,
			"-0.006": 8.61391202101,
			"-0.005": 11.8877405348,
			"-0.004": 17.6732888976,
			"-0.003": 19.9666414803,
			"-0.002": 22.4690536024,
			"-0.001": 25.0143693441,
			"0.0": 22.8353793684,
			"0.001": 18.252305036,
			"0.002": 18.0168803919,
			"0.003": 22.0969825993,
			"0.004": 17.4066923976,
			"0.005": 10.9131760393,
			"0.006": 3.81019281999,
			"0.007": 4.35955984964,
			"0.008": 2.59042221595,
			"0.009": 3.19416084507,
			"0.01": 4.76498417614,
			"0.011": 3.59319594425,
			"0.012": 3.40517946404,
			"0.013": 2.60117444615,
			"0.014": 2.51264857951,
			"0.015": 0.231147743096,
			"0.016": 0.0,
			"0.017": 0.0,
			"0.018": 0.0,
			"0.019": 0.0,
			"0.02": 0.0,
			"0.021": 0.0,
			"0.022": 0.0,
			"0.023": 0.0,
			"0.024": 0.0,
			"0.025": 0.0
		}
	}
}
