{
	 "smiles": "CN(C)N=CC1=CN(C)N=C1", 
	 "Tm": 344.15, 
	 "num_atms": 23, 
	 "gaussian": { 
		 "optdone": 1, 
		 "sigma_profile": "yes", 
		 "theory": "DFT", 
		 "functional": "B3LYP", 
		 "basiset": "6-31G**", 
		 "properties": { 
			 "R2extent": 3464.4578, 
			 "electric_dipole_moment_norm": 3.43171210477, 
			 "electric_quadrupole_moment_norm": 15.5205170916, 
			 "total_energy": -492.915737814, 
			 "HOMO_LUMO_gap": 0.18391, 
			 "cosmo_polarized_energy": -12.15, 
			 "cosmo_cavitation_energy": 26.87, 
			 "cosmo_dispersion_energy": -19.55, 
			 "cosmo_repulsion_energy": 1.59, 
			 "cosmo_total_nonelectrostatic_energy": 8.91, 
			 "SMD_solvation_energy": 3.15 
		},
		"coords": [
			{
				"x": -2.4515627128,
				"y": -1.8231053651,
				"z": -0.1780775132,
				"element": "C" 
			},
			{
				"x": -2.096937318,
				"y": -0.8186576531,
				"z": -1.166581341,
				"element": "N" 
			},
			{
				"x": -3.0524259079,
				"y": -0.6210006552,
				"z": -2.2475103168,
				"element": "C" 
			},
			{
				"x": -1.5336037082,
				"y": 0.3573121024,
				"z": -0.7695044683,
				"element": "N" 
			},
			{
				"x": -1.0368875444,
				"y": 0.4951505485,
				"z": 0.4135219145,
				"element": "C" 
			},
			{
				"x": -0.3714577409,
				"y": 1.7331656336,
				"z": 0.7875753361,
				"element": "C" 
			},
			{
				"x": 0.1936962526,
				"y": 2.0442681855,
				"z": 2.0187170685,
				"element": "C" 
			},
			{
				"x": 0.695939767,
				"y": 3.3037173619,
				"z": 1.9224723854,
				"element": "N" 
			},
			{
				"x": 1.3827402895,
				"y": 4.0750656025,
				"z": 2.9388537847,
				"element": "C" 
			},
			{
				"x": 0.4965304016,
				"y": 3.8432459002,
				"z": 0.6975120899,
				"element": "N" 
			},
			{
				"x": -0.1450601212,
				"y": 2.9019996286,
				"z": 0.0116882872,
				"element": "C" 
			},
			{
				"x": -2.9299284496,
				"y": -2.661515346,
				"z": -0.68813999,
				"element": "H" 
			},
			{
				"x": -3.1413766558,
				"y": -1.4349421562,
				"z": 0.591602155,
				"element": "H" 
			},
			{
				"x": -1.5555874331,
				"y": -2.2021562745,
				"z": 0.324735634,
				"element": "H" 
			},
			{
				"x": -2.633964594,
				"y": 0.1088981941,
				"z": -2.9418391331,
				"element": "H" 
			},
			{
				"x": -4.0274948103,
				"y": -0.2461156396,
				"z": -1.8944477775,
				"element": "H" 
			},
			{
				"x": -3.2124238758,
				"y": -1.5671833438,
				"z": -2.7732888027,
				"element": "H" 
			},
			{
				"x": -1.0756362683,
				"y": -0.2878753043,
				"z": 1.1751990312,
				"element": "H" 
			},
			{
				"x": 0.2706805515,
				"y": 1.4712403181,
				"z": 2.9319005335,
				"element": "H" 
			},
			{
				"x": 2.390169189,
				"y": 4.3337886255,
				"z": 2.6013648601,
				"element": "H" 
			},
			{
				"x": 1.4503417896,
				"y": 3.4797419506,
				"z": 3.8510759179,
				"element": "H" 
			},
			{
				"x": 0.8340881846,
				"y": 4.9972114298,
				"z": 3.1496100411,
				"element": "H" 
			},
			{
				"x": -0.4306392851,
				"y": 3.0727462568,
				"z": -1.0165396966,
				"element": "H" 
			}
		],
		 "valence_orbital": [ 
			{
				"type": "occ",
				"energy": -0.27976,
				"method": "rhf"
			},
			{
				"type": "occ",
				"energy": -0.25825,
				"method": "rhf"
			},
			{
				"type": "occ",
				"energy": -0.25668,
				"method": "rhf"
			},
			{
				"type": "occ",
				"energy": -0.24276,
				"method": "rhf"
			},
			{
				"type": "occ",
				"energy": -0.18387,
				"method": "rhf"
			},
			{
				"type": "unocc",
				"energy": 4e-05,
				"method": "rhf"
			},
			{
				"type": "unocc",
				"energy": 0.0291,
				"method": "rhf"
			},
			{
				"type": "unocc",
				"energy": 0.09533,
				"method": "rhf"
			},
			{
				"type": "unocc",
				"energy": 0.09878,
				"method": "rhf"
			},
			{
				"type": "unocc",
				"energy": 0.11855,
				"method": "rhf"
			}
		],
		"cosmo_sigma_profile": { 
			"-0.025": 0.0,
			"-0.024": 0.0,
			"-0.023": 0.0,
			"-0.022": 0.0,
			"-0.021": 0.0,
			"-0.02": 0.0,
			"-0.019": 0.0,
			"-0.018": 0.0,
			"-0.017": 0.0,
			"-0.016": 0.0,
			"-0.015": 0.0,
			"-0.014": 0.0,
			"-0.013": 0.0,
			"-0.012": 0.0,
			"-0.011": 0.0,
			"-0.01": 0.0,
			"-0.009": 1.88428315726,
			"-0.008": 3.51412627944,
			"-0.007": 4.13342426106,
			"-0.006": 11.9676260402,
			"-0.005": 16.9769299178,
			"-0.004": 18.547590368,
			"-0.003": 26.0074185654,
			"-0.002": 23.5065447295,
			"-0.001": 19.5085392232,
			"0.0": 9.60770669755,
			"0.001": 7.98954751226,
			"0.002": 5.58121812999,
			"0.003": 7.62294463854,
			"0.004": 9.9413373682,
			"0.005": 11.9822732169,
			"0.006": 6.7725167467,
			"0.007": 5.46394242648,
			"0.008": 4.24256734965,
			"0.009": 4.32602367157,
			"0.01": 3.2084867284,
			"0.011": 3.80501976752,
			"0.012": 1.97173725154,
			"0.013": 1.19636751903,
			"0.014": 0.74518070708,
			"0.015": 1.2402841596,
			"0.016": 0.734608319506,
			"0.017": 0.0239637186579,
			"0.018": 0.0,
			"0.019": 0.0,
			"0.02": 0.0,
			"0.021": 0.0,
			"0.022": 0.0,
			"0.023": 0.0,
			"0.024": 0.0,
			"0.025": 0.0
		}
	}
}
