{
	 "smiles": "NC(=O)C1=C(Cl)N=NC(Cl)=C1", 
	 "Tm": 450.15, 
	 "num_atms": 14, 
	 "gaussian": { 
		 "optdone": 1, 
		 "sigma_profile": "yes", 
		 "theory": "DFT", 
		 "functional": "B3LYP", 
		 "basiset": "6-31G**", 
		 "properties": { 
			 "R2extent": 2783.6074, 
			 "electric_dipole_moment_norm": 5.69581805977, 
			 "electric_quadrupole_moment_norm": 13.2640725982, 
			 "total_energy": -1352.16019103, 
			 "HOMO_LUMO_gap": 0.17664, 
			 "cosmo_polarized_energy": -19.28, 
			 "cosmo_cavitation_energy": 23.48, 
			 "cosmo_dispersion_energy": -17.46, 
			 "cosmo_repulsion_energy": 1.44, 
			 "cosmo_total_nonelectrostatic_energy": 7.46, 
			 "SMD_solvation_energy": 2.69 
		},
		"coords": [
			{
				"x": 0.8795938596,
				"y": 0.1594310097,
				"z": -2.5073506197,
				"element": "N" 
			},
			{
				"x": 1.4569925275,
				"y": 0.1671534581,
				"z": -1.2684560929,
				"element": "C" 
			},
			{
				"x": 2.5595360679,
				"y": -0.2882668128,
				"z": -1.0267789144,
				"element": "O" 
			},
			{
				"x": 0.5679824128,
				"y": 0.717493338,
				"z": -0.1726242951,
				"element": "C" 
			},
			{
				"x": 0.9721871758,
				"y": 1.7248516681,
				"z": 0.7313736351,
				"element": "C" 
			},
			{
				"x": 2.5021697136,
				"y": 2.5332499697,
				"z": 0.5412515564,
				"element": "Cl" 
			},
			{
				"x": 0.2306167116,
				"y": 2.1537303929,
				"z": 1.7410934038,
				"element": "N" 
			},
			{
				"x": -0.9735209052,
				"y": 1.6169283635,
				"z": 1.9627116158,
				"element": "N" 
			},
			{
				"x": -1.4123135679,
				"y": 0.6748448315,
				"z": 1.1456130125,
				"element": "C" 
			},
			{
				"x": -2.9982720123,
				"y": 0.0291402261,
				"z": 1.4851909939,
				"element": "Cl" 
			},
			{
				"x": -0.6895440056,
				"y": 0.1826740387,
				"z": 0.0504868418,
				"element": "C" 
			},
			{
				"x": 0.0781880645,
				"y": 0.7349156026,
				"z": -2.7157356629,
				"element": "H" 
			},
			{
				"x": 1.4569588016,
				"y": -0.1467773578,
				"z": -3.2781340991,
				"element": "H" 
			},
			{
				"x": -1.0942748439,
				"y": -0.599068728,
				"z": -0.5824413752,
				"element": "H" 
			}
		],
		 "valence_orbital": [ 
			{
				"type": "occ",
				"energy": -0.32785,
				"method": "rhf"
			},
			{
				"type": "occ",
				"energy": -0.30164,
				"method": "rhf"
			},
			{
				"type": "occ",
				"energy": -0.28924,
				"method": "rhf"
			},
			{
				"type": "occ",
				"energy": -0.28334,
				"method": "rhf"
			},
			{
				"type": "occ",
				"energy": -0.2659,
				"method": "rhf"
			},
			{
				"type": "unocc",
				"energy": -0.08926,
				"method": "rhf"
			},
			{
				"type": "unocc",
				"energy": -0.0622,
				"method": "rhf"
			},
			{
				"type": "unocc",
				"energy": -0.00447,
				"method": "rhf"
			},
			{
				"type": "unocc",
				"energy": 0.01388,
				"method": "rhf"
			},
			{
				"type": "unocc",
				"energy": 0.01932,
				"method": "rhf"
			}
		],
		"cosmo_sigma_profile": { 
			"-0.025": 0.0,
			"-0.024": 0.0,
			"-0.023": 0.0,
			"-0.022": 0.0,
			"-0.021": 0.0,
			"-0.02": 0.0,
			"-0.019": 0.0,
			"-0.018": 0.0,
			"-0.017": 0.0,
			"-0.016": 0.600420281506,
			"-0.015": 2.46771935245,
			"-0.014": 2.09014662237,
			"-0.013": 2.85484189853,
			"-0.012": 2.89988040042,
			"-0.011": 3.18646408721,
			"-0.01": 4.72588857652,
			"-0.009": 4.37575613692,
			"-0.008": 3.51257308626,
			"-0.007": 5.30702654948,
			"-0.006": 6.48975503794,
			"-0.005": 8.41334780389,
			"-0.004": 11.6503464075,
			"-0.003": 8.74854385376,
			"-0.002": 10.0963984302,
			"-0.001": 9.53587625313,
			"0.0": 11.1811459162,
			"0.001": 11.8780109573,
			"0.002": 15.9764670989,
			"0.003": 17.021358114,
			"0.004": 7.82151035248,
			"0.005": 5.63628451313,
			"0.006": 4.17848799659,
			"0.007": 3.32646357228,
			"0.008": 4.48921305556,
			"0.009": 4.21235784006,
			"0.01": 4.84552405808,
			"0.011": 4.96711451648,
			"0.012": 8.03013895839,
			"0.013": 2.98949163338,
			"0.014": 0.0900135149978,
			"0.015": 0.0,
			"0.016": 0.0,
			"0.017": 0.0,
			"0.018": 0.0,
			"0.019": 0.0,
			"0.02": 0.0,
			"0.021": 0.0,
			"0.022": 0.0,
			"0.023": 0.0,
			"0.024": 0.0,
			"0.025": 0.0
		}
	}
}
