{
	 "smiles": "CC(C)(C)OC(=O)N1CCN(CC1)S(=O)(=O)C1CNC1", 
	 "Tm": 406.15, 
	 "num_atms": 43, 
	 "gaussian": { 
		 "optdone": 1, 
		 "sigma_profile": "yes", 
		 "theory": "DFT", 
		 "functional": "B3LYP", 
		 "basiset": "6-31G**", 
		 "properties": { 
			 "R2extent": 9494.8729, 
			 "electric_dipole_moment_norm": 2.15317456097, 
			 "electric_quadrupole_moment_norm": 20.596505289, 
			 "total_energy": -1334.39557484, 
			 "HOMO_LUMO_gap": 0.28601, 
			 "cosmo_polarized_energy": -18.9, 
			 "cosmo_cavitation_energy": 44.34, 
			 "cosmo_dispersion_energy": -31.01, 
			 "cosmo_repulsion_energy": 2.36, 
			 "cosmo_total_nonelectrostatic_energy": 15.69, 
			 "SMD_solvation_energy": 2.79 
		},
		"coords": [
			{
				"x": 2.8039791929,
				"y": -4.548859271,
				"z": 0.7998348028,
				"element": "C" 
			},
			{
				"x": 2.8732720402,
				"y": -3.4059603163,
				"z": 1.8160823031,
				"element": "C" 
			},
			{
				"x": 2.6069147042,
				"y": -3.9217231485,
				"z": 3.2341899256,
				"element": "C" 
			},
			{
				"x": 4.2091326876,
				"y": -2.6631054524,
				"z": 1.7084114288,
				"element": "C" 
			},
			{
				"x": 1.7732427969,
				"y": -2.5279975358,
				"z": 1.3832622023,
				"element": "O" 
			},
			{
				"x": 1.4957221641,
				"y": -1.3811418174,
				"z": 2.0481778481,
				"element": "C" 
			},
			{
				"x": 2.0954196782,
				"y": -0.9528003644,
				"z": 3.0251188511,
				"element": "O" 
			},
			{
				"x": 0.4242277171,
				"y": -0.7479445109,
				"z": 1.4717399257,
				"element": "N" 
			},
			{
				"x": -0.2426328327,
				"y": -1.2498581889,
				"z": 0.264942882,
				"element": "C" 
			},
			{
				"x": -1.5326155023,
				"y": -0.464389787,
				"z": 0.0315710865,
				"element": "C" 
			},
			{
				"x": -1.2915662875,
				"y": 0.9890827098,
				"z": -0.0452819972,
				"element": "N" 
			},
			{
				"x": -0.2314184342,
				"y": 1.5339989342,
				"z": 0.8393163294,
				"element": "C" 
			},
			{
				"x": 0.020636215,
				"y": 0.5575720591,
				"z": 1.9860190457,
				"element": "C" 
			},
			{
				"x": -1.527309397,
				"y": 1.7675317316,
				"z": -1.5254933049,
				"element": "S" 
			},
			{
				"x": -1.7397008418,
				"y": 0.7551208464,
				"z": -2.5692671144,
				"element": "O" 
			},
			{
				"x": -0.4800479303,
				"y": 2.7880622066,
				"z": -1.6633687868,
				"element": "O" 
			},
			{
				"x": -3.1033667745,
				"y": 2.616669219,
				"z": -1.3001198057,
				"element": "C" 
			},
			{
				"x": -3.1478061079,
				"y": 3.8423205134,
				"z": -0.3587302794,
				"element": "C" 
			},
			{
				"x": -3.9392648313,
				"y": 4.558034539,
				"z": -1.3907750794,
				"element": "N" 
			},
			{
				"x": -3.5171327979,
				"y": 3.588039399,
				"z": -2.4329132085,
				"element": "C" 
			},
			{
				"x": 3.5859240722,
				"y": -5.2848377775,
				"z": 1.0089441532,
				"element": "H" 
			},
			{
				"x": 2.9465682354,
				"y": -4.1712624689,
				"z": -0.2168281995,
				"element": "H" 
			},
			{
				"x": 1.8336807767,
				"y": -5.0518729142,
				"z": 0.848434801,
				"element": "H" 
			},
			{
				"x": 3.3677716151,
				"y": -4.6612329266,
				"z": 3.5042966521,
				"element": "H" 
			},
			{
				"x": 2.6338710468,
				"y": -3.1066885746,
				"z": 3.957587608,
				"element": "H" 
			},
			{
				"x": 1.6279903797,
				"y": -4.4093826943,
				"z": 3.2834670854,
				"element": "H" 
			},
			{
				"x": 4.3467161538,
				"y": -2.2744652127,
				"z": 0.6943507026,
				"element": "H" 
			},
			{
				"x": 5.03132498,
				"y": -3.3540840027,
				"z": 1.9212560172,
				"element": "H" 
			},
			{
				"x": 4.2523301168,
				"y": -1.8339850649,
				"z": 2.4147850999,
				"element": "H" 
			},
			{
				"x": -0.478766165,
				"y": -2.3110730907,
				"z": 0.3859386173,
				"element": "H" 
			},
			{
				"x": 0.4113019374,
				"y": -1.1572672653,
				"z": -0.6118059762,
				"element": "H" 
			},
			{
				"x": -2.2447311029,
				"y": -0.666667408,
				"z": 0.8411849187,
				"element": "H" 
			},
			{
				"x": -1.9848208689,
				"y": -0.7910337833,
				"z": -0.9051773865,
				"element": "H" 
			},
			{
				"x": -0.5515713514,
				"y": 2.4976434908,
				"z": 1.2479723202,
				"element": "H" 
			},
			{
				"x": 0.6959633814,
				"y": 1.6995837731,
				"z": 0.2820474786,
				"element": "H" 
			},
			{
				"x": -0.8766285685,
				"y": 0.4721366692,
				"z": 2.6148132791,
				"element": "H" 
			},
			{
				"x": 0.8284981373,
				"y": 0.9286701001,
				"z": 2.6178866704,
				"element": "H" 
			},
			{
				"x": -3.8453201883,
				"y": 1.8479071087,
				"z": -1.0779564465,
				"element": "H" 
			},
			{
				"x": -3.6611720776,
				"y": 3.7069021866,
				"z": 0.5987164256,
				"element": "H" 
			},
			{
				"x": -2.1456357686,
				"y": 4.2544071153,
				"z": -0.1832440978,
				"element": "H" 
			},
			{
				"x": -3.6401241593,
				"y": 5.5146247794,
				"z": -1.561015035,
				"element": "H" 
			},
			{
				"x": -4.3176900823,
				"y": 3.2496137032,
				"z": -3.0972084652,
				"element": "H" 
			},
			{
				"x": -2.6552659591,
				"y": 3.904312492,
				"z": -3.0345632775,
				"element": "H" 
			}
		],
		 "valence_orbital": [ 
			{
				"type": "occ",
				"energy": -0.28896,
				"method": "rhf"
			},
			{
				"type": "occ",
				"energy": -0.26474,
				"method": "rhf"
			},
			{
				"type": "occ",
				"energy": -0.25496,
				"method": "rhf"
			},
			{
				"type": "occ",
				"energy": -0.24128,
				"method": "rhf"
			},
			{
				"type": "occ",
				"energy": -0.23752,
				"method": "rhf"
			},
			{
				"type": "unocc",
				"energy": 0.04849,
				"method": "rhf"
			},
			{
				"type": "unocc",
				"energy": 0.05107,
				"method": "rhf"
			},
			{
				"type": "unocc",
				"energy": 0.06038,
				"method": "rhf"
			},
			{
				"type": "unocc",
				"energy": 0.0664,
				"method": "rhf"
			},
			{
				"type": "unocc",
				"energy": 0.07943,
				"method": "rhf"
			}
		],
		"cosmo_sigma_profile": { 
			"-0.025": 0.0,
			"-0.024": 0.0,
			"-0.023": 0.0,
			"-0.022": 0.0,
			"-0.021": 0.0,
			"-0.02": 0.0,
			"-0.019": 0.0,
			"-0.018": 0.0,
			"-0.017": 0.0,
			"-0.016": 0.0,
			"-0.015": 0.0,
			"-0.014": 0.0,
			"-0.013": 0.0,
			"-0.012": 0.0,
			"-0.011": 0.590613516886,
			"-0.01": 1.71858456162,
			"-0.009": 1.68929479226,
			"-0.008": 3.86740120931,
			"-0.007": 3.30937790905,
			"-0.006": 9.51915691956,
			"-0.005": 31.6378272382,
			"-0.004": 43.0483307147,
			"-0.003": 40.4708440216,
			"-0.002": 31.1978220352,
			"-0.001": 27.8470147231,
			"0.0": 31.307679446,
			"0.001": 27.5485145348,
			"0.002": 11.8786051012,
			"0.003": 8.87568367961,
			"0.004": 8.47243852509,
			"0.005": 7.07739180341,
			"0.006": 5.8689949614,
			"0.007": 5.65431276942,
			"0.008": 5.34844166718,
			"0.009": 5.61824860291,
			"0.01": 7.45487352112,
			"0.011": 10.4631211398,
			"0.012": 7.13926821609,
			"0.013": 3.62699543773,
			"0.014": 1.79766464662,
			"0.015": 0.470392543444,
			"0.016": 0.555626790597,
			"0.017": 0.715954787019,
			"0.018": 0.259907749109,
			"0.019": 0.0,
			"0.02": 0.0,
			"0.021": 0.0,
			"0.022": 0.0,
			"0.023": 0.0,
			"0.024": 0.0,
			"0.025": 0.0
		}
	}
}
