{
	 "smiles": "CCOC(=O)C(N)=S", 
	 "Tm": 336.15, 
	 "num_atms": 15, 
	 "gaussian": { 
		 "optdone": 1, 
		 "sigma_profile": "yes", 
		 "theory": "DFT", 
		 "functional": "B3LYP", 
		 "basiset": "6-31G**", 
		 "properties": { 
			 "R2extent": 2113.7121, 
			 "electric_dipole_moment_norm": 2.75363822969, 
			 "electric_quadrupole_moment_norm": 13.8354876141, 
			 "total_energy": -760.044561483, 
			 "HOMO_LUMO_gap": 0.13763, 
			 "cosmo_polarized_energy": -13.34, 
			 "cosmo_cavitation_energy": 21.15, 
			 "cosmo_dispersion_energy": -15.95, 
			 "cosmo_repulsion_energy": 1.32, 
			 "cosmo_total_nonelectrostatic_energy": 6.52, 
			 "SMD_solvation_energy": 4.22 
		},
		"coords": [
			{
				"x": -1.6206379284,
				"y": -2.6325386668,
				"z": 1.7476923888,
				"element": "C" 
			},
			{
				"x": -1.776897006,
				"y": -1.2978159248,
				"z": 1.0363218395,
				"element": "C" 
			},
			{
				"x": -0.6887311063,
				"y": -1.074016527,
				"z": 0.1011391566,
				"element": "O" 
			},
			{
				"x": -0.8277023275,
				"y": -1.5922901925,
				"z": -1.1111917065,
				"element": "C" 
			},
			{
				"x": -1.7920684047,
				"y": -2.2288379461,
				"z": -1.5020526492,
				"element": "O" 
			},
			{
				"x": 0.364697064,
				"y": -1.3142035183,
				"z": -2.0334591543,
				"element": "C" 
			},
			{
				"x": 0.1294155635,
				"y": -1.8430762769,
				"z": -3.2434963653,
				"element": "N" 
			},
			{
				"x": 1.7298343246,
				"y": -0.4908534256,
				"z": -1.5922830441,
				"element": "S" 
			},
			{
				"x": -1.7130894646,
				"y": -3.4614427789,
				"z": 1.0416568024,
				"element": "H" 
			},
			{
				"x": -2.4047490006,
				"y": -2.7383209103,
				"z": 2.504533682,
				"element": "H" 
			},
			{
				"x": -0.6494736625,
				"y": -2.6955440872,
				"z": 2.246238603,
				"element": "H" 
			},
			{
				"x": -2.7232497157,
				"y": -1.2422357925,
				"z": 0.4931801909,
				"element": "H" 
			},
			{
				"x": -1.7023995737,
				"y": -0.4589739684,
				"z": 1.7309099328,
				"element": "H" 
			},
			{
				"x": 0.8194280611,
				"y": -1.7524989086,
				"z": -3.9730351586,
				"element": "H" 
			},
			{
				"x": -0.7429768233,
				"y": -2.3335510762,
				"z": -3.397754518,
				"element": "H" 
			}
		],
		 "valence_orbital": [ 
			{
				"type": "occ",
				"energy": -0.35051,
				"method": "rhf"
			},
			{
				"type": "occ",
				"energy": -0.31598,
				"method": "rhf"
			},
			{
				"type": "occ",
				"energy": -0.30608,
				"method": "rhf"
			},
			{
				"type": "occ",
				"energy": -0.24212,
				"method": "rhf"
			},
			{
				"type": "occ",
				"energy": -0.21491,
				"method": "rhf"
			},
			{
				"type": "unocc",
				"energy": -0.07728,
				"method": "rhf"
			},
			{
				"type": "unocc",
				"energy": 0.05376,
				"method": "rhf"
			},
			{
				"type": "unocc",
				"energy": 0.07848,
				"method": "rhf"
			},
			{
				"type": "unocc",
				"energy": 0.09835,
				"method": "rhf"
			},
			{
				"type": "unocc",
				"energy": 0.1028,
				"method": "rhf"
			}
		],
		"cosmo_sigma_profile": { 
			"-0.025": 0.0,
			"-0.024": 0.0,
			"-0.023": 0.0,
			"-0.022": 0.0,
			"-0.021": 0.0,
			"-0.02": 0.0,
			"-0.019": 0.0,
			"-0.018": 0.0,
			"-0.017": 0.00123789451762,
			"-0.016": 0.764331985524,
			"-0.015": 1.4869713151,
			"-0.014": 2.37130011945,
			"-0.013": 1.75435216017,
			"-0.012": 2.60046172425,
			"-0.011": 1.60539574369,
			"-0.01": 1.30149151444,
			"-0.009": 1.46493821894,
			"-0.008": 1.26065415581,
			"-0.007": 1.8774510055,
			"-0.006": 6.26404857839,
			"-0.005": 11.7285092894,
			"-0.004": 16.2712462159,
			"-0.003": 14.7180044282,
			"-0.002": 11.8180938627,
			"-0.001": 12.7256643065,
			"0.0": 12.1945146919,
			"0.001": 5.02657403992,
			"0.002": 4.92354474206,
			"0.003": 5.9266488465,
			"0.004": 5.95180076627,
			"0.005": 4.51425568578,
			"0.006": 8.2744119608,
			"0.007": 8.33551154722,
			"0.008": 6.22540079294,
			"0.009": 6.06515977608,
			"0.01": 5.96630206507,
			"0.011": 3.39710009053,
			"0.012": 1.68713646077,
			"0.013": 1.40457887661,
			"0.014": 0.222591256963,
			"0.015": 0.0,
			"0.016": 0.0,
			"0.017": 0.0,
			"0.018": 0.0,
			"0.019": 0.0,
			"0.02": 0.0,
			"0.021": 0.0,
			"0.022": 0.0,
			"0.023": 0.0,
			"0.024": 0.0,
			"0.025": 0.0
		}
	}
}
