{
	 "smiles": "CN1N=C(C)C2=C1N=CC(N)=C2", 
	 "Tm": 358.15, 
	 "num_atms": 22, 
	 "gaussian": { 
		 "optdone": 1, 
		 "sigma_profile": "yes", 
		 "theory": "DFT", 
		 "functional": "B3LYP", 
		 "basiset": "6-31G**", 
		 "properties": { 
			 "R2extent": 2343.1989, 
			 "electric_dipole_moment_norm": 2.71138920482, 
			 "electric_quadrupole_moment_norm": 9.59134166527, 
			 "total_energy": -529.878654893, 
			 "HOMO_LUMO_gap": 0.15898, 
			 "cosmo_polarized_energy": -12.27, 
			 "cosmo_cavitation_energy": 25.77, 
			 "cosmo_dispersion_energy": -19.17, 
			 "cosmo_repulsion_energy": 1.53, 
			 "cosmo_total_nonelectrostatic_energy": 8.13, 
			 "SMD_solvation_energy": 2.22 
		},
		"coords": [
			{
				"x": -1.1995571832,
				"y": -3.596024222,
				"z": -0.3140950813,
				"element": "C" 
			},
			{
				"x": -0.1577081954,
				"y": -2.593121196,
				"z": -0.300645035,
				"element": "N" 
			},
			{
				"x": 1.1248319238,
				"y": -2.9067407119,
				"z": -0.619072512,
				"element": "N" 
			},
			{
				"x": 1.8453876615,
				"y": -1.7951265478,
				"z": -0.514864681,
				"element": "C" 
			},
			{
				"x": 3.3139729654,
				"y": -1.8011936506,
				"z": -0.8017583128,
				"element": "C" 
			},
			{
				"x": 1.0160157645,
				"y": -0.7012373723,
				"z": -0.1116308582,
				"element": "C" 
			},
			{
				"x": -0.2755417916,
				"y": -1.2656194983,
				"z": 0.0155898073,
				"element": "C" 
			},
			{
				"x": -1.3903287702,
				"y": -0.6196148831,
				"z": 0.3726030079,
				"element": "N" 
			},
			{
				"x": -1.2224201146,
				"y": 0.6735886076,
				"z": 0.6256576313,
				"element": "C" 
			},
			{
				"x": 0.0151965057,
				"y": 1.3736565875,
				"z": 0.5367680593,
				"element": "C" 
			},
			{
				"x": 0.0599383889,
				"y": 2.7304059728,
				"z": 0.8917687209,
				"element": "N" 
			},
			{
				"x": 1.157189032,
				"y": 0.6682950024,
				"z": 0.1581060986,
				"element": "C" 
			},
			{
				"x": -0.9751400345,
				"y": -4.3937026705,
				"z": 0.4004082388,
				"element": "H" 
			},
			{
				"x": -2.1326408569,
				"y": -3.1056979141,
				"z": -0.0331239803,
				"element": "H" 
			},
			{
				"x": -1.2999490991,
				"y": -4.0317776518,
				"z": -1.3125864254,
				"element": "H" 
			},
			{
				"x": 3.6294772163,
				"y": -2.8077174271,
				"z": -1.0850161897,
				"element": "H" 
			},
			{
				"x": 3.8962866267,
				"y": -1.4904829713,
				"z": 0.0738705584,
				"element": "H" 
			},
			{
				"x": 3.5674282167,
				"y": -1.1169976471,
				"z": -1.62040155,
				"element": "H" 
			},
			{
				"x": -2.1134315355,
				"y": 1.2257702694,
				"z": 0.9255545715,
				"element": "H" 
			},
			{
				"x": 0.8293816542,
				"y": 3.2423188171,
				"z": 0.4804748494,
				"element": "H" 
			},
			{
				"x": -0.8123888746,
				"y": 3.2246022249,
				"z": 0.7555580578,
				"element": "H" 
			},
			{
				"x": 2.1190004999,
				"y": 1.1697168823,
				"z": 0.0815350243,
				"element": "H" 
			}
		],
		 "valence_orbital": [ 
			{
				"type": "occ",
				"energy": -0.28501,
				"method": "rhf"
			},
			{
				"type": "occ",
				"energy": -0.27608,
				"method": "rhf"
			},
			{
				"type": "occ",
				"energy": -0.26001,
				"method": "rhf"
			},
			{
				"type": "occ",
				"energy": -0.22738,
				"method": "rhf"
			},
			{
				"type": "occ",
				"energy": -0.19453,
				"method": "rhf"
			},
			{
				"type": "unocc",
				"energy": -0.03555,
				"method": "rhf"
			},
			{
				"type": "unocc",
				"energy": 0.02964,
				"method": "rhf"
			},
			{
				"type": "unocc",
				"energy": 0.05613,
				"method": "rhf"
			},
			{
				"type": "unocc",
				"energy": 0.07814,
				"method": "rhf"
			},
			{
				"type": "unocc",
				"energy": 0.11059,
				"method": "rhf"
			}
		],
		"cosmo_sigma_profile": { 
			"-0.025": 0.0,
			"-0.024": 0.0,
			"-0.023": 0.0,
			"-0.022": 0.0,
			"-0.021": 0.0,
			"-0.02": 0.0,
			"-0.019": 0.0,
			"-0.018": 0.0,
			"-0.017": 0.0,
			"-0.016": 0.0,
			"-0.015": 0.0,
			"-0.014": 0.0,
			"-0.013": 0.399267017193,
			"-0.012": 2.74735219473,
			"-0.011": 3.51457552384,
			"-0.01": 3.23283380224,
			"-0.009": 2.74444266308,
			"-0.008": 3.7031330616,
			"-0.007": 4.2213130801,
			"-0.006": 7.19560318843,
			"-0.005": 10.9441327037,
			"-0.004": 14.8431663632,
			"-0.003": 17.6847490365,
			"-0.002": 17.9812266111,
			"-0.001": 13.1064907013,
			"0.0": 12.6557212616,
			"0.001": 11.1827870754,
			"0.002": 17.5567670154,
			"0.003": 15.0129411292,
			"0.004": 10.1919462049,
			"0.005": 7.2060858879,
			"0.006": 3.85460445046,
			"0.007": 3.30925243631,
			"0.008": 3.42337309104,
			"0.009": 3.16315398912,
			"0.01": 2.78050467334,
			"0.011": 3.72964135963,
			"0.012": 2.15534591998,
			"0.013": 2.19828556581,
			"0.014": 2.27242672989,
			"0.015": 1.23553301228,
			"0.016": 0.370887095732,
			"0.017": 0.0,
			"0.018": 0.0,
			"0.019": 0.0,
			"0.02": 0.0,
			"0.021": 0.0,
			"0.022": 0.0,
			"0.023": 0.0,
			"0.024": 0.0,
			"0.025": 0.0
		}
	}
}
