{
	 "smiles": "CN1C=NN=C1SC1=C(N)C=C(Br)C=C1", 
	 "Tm": 418.15, 
	 "num_atms": 24, 
	 "gaussian": { 
		 "optdone": 1, 
		 "sigma_profile": "yes", 
		 "theory": "DFT", 
		 "functional": "B3LYP", 
		 "basiset": "6-31G**", 
		 "properties": { 
			 "R2extent": 6629.2952, 
			 "electric_dipole_moment_norm": 6.78457056194, 
			 "electric_quadrupole_moment_norm": 22.1628944082, 
			 "total_energy": -3536.94816769, 
			 "HOMO_LUMO_gap": 0.18907, 
			 "cosmo_polarized_energy": -22.03, 
			 "cosmo_cavitation_energy": 34.78, 
			 "cosmo_dispersion_energy": -23.46, 
			 "cosmo_repulsion_energy": 1.78, 
			 "cosmo_total_nonelectrostatic_energy": 13.11, 
			 "SMD_solvation_energy": 2.29 
		},
		"coords": [
			{
				"x": 2.48121695,
				"y": -0.8684427522,
				"z": 0.208797174,
				"element": "C" 
			},
			{
				"x": 2.9541526467,
				"y": -0.473903605,
				"z": -1.1084189577,
				"element": "N" 
			},
			{
				"x": 3.7902546879,
				"y": -1.1627299456,
				"z": -1.9389861937,
				"element": "C" 
			},
			{
				"x": 3.9770580609,
				"y": -0.5188910982,
				"z": -3.0681458592,
				"element": "N" 
			},
			{
				"x": 3.230498512,
				"y": 0.635260863,
				"z": -3.0051803089,
				"element": "N" 
			},
			{
				"x": 2.6244782059,
				"y": 0.6512525137,
				"z": -1.8348012361,
				"element": "C" 
			},
			{
				"x": 1.6028477128,
				"y": 1.9694960438,
				"z": -1.2608906844,
				"element": "S" 
			},
			{
				"x": -0.0173665538,
				"y": 1.1775702753,
				"z": -1.2553015058,
				"element": "C" 
			},
			{
				"x": -0.8334461918,
				"y": 1.2867871594,
				"z": -0.1043676309,
				"element": "C" 
			},
			{
				"x": -0.4330364763,
				"y": 2.0127672974,
				"z": 1.0041137015,
				"element": "N" 
			},
			{
				"x": -2.1030677598,
				"y": 0.6765122479,
				"z": -0.1281877792,
				"element": "C" 
			},
			{
				"x": -2.5275489281,
				"y": -0.0073314501,
				"z": -1.2586979483,
				"element": "C" 
			},
			{
				"x": -4.2531854075,
				"y": -0.8298198101,
				"z": -1.2430770588,
				"element": "Br" 
			},
			{
				"x": -1.7335126326,
				"y": -0.1108295732,
				"z": -2.4013933264,
				"element": "C" 
			},
			{
				"x": -0.4819407004,
				"y": 0.4993844264,
				"z": -2.3861476658,
				"element": "C" 
			},
			{
				"x": 2.552813467,
				"y": -0.0222481123,
				"z": 0.8955266918,
				"element": "H" 
			},
			{
				"x": 3.1074952426,
				"y": -1.681591157,
				"z": 0.5789689194,
				"element": "H" 
			},
			{
				"x": 1.4411940049,
				"y": -1.2033374823,
				"z": 0.1642227432,
				"element": "H" 
			},
			{
				"x": 4.2274895562,
				"y": -2.1162474851,
				"z": -1.6760521277,
				"element": "H" 
			},
			{
				"x": 0.5599615181,
				"y": 2.1806973717,
				"z": 1.093419481,
				"element": "H" 
			},
			{
				"x": -0.9054264127,
				"y": 1.8102504393,
				"z": 1.8724313004,
				"element": "H" 
			},
			{
				"x": -2.7474582697,
				"y": 0.7448189286,
				"z": 0.74185487,
				"element": "H" 
			},
			{
				"x": -2.084943527,
				"y": -0.6415950062,
				"z": -3.2773964525,
				"element": "H" 
			},
			{
				"x": 0.1554722948,
				"y": 0.4432699108,
				"z": -3.2634901458,
				"element": "H" 
			}
		],
		 "valence_orbital": [ 
			{
				"type": "occ",
				"energy": -0.28357,
				"method": "rhf"
			},
			{
				"type": "occ",
				"energy": -0.26536,
				"method": "rhf"
			},
			{
				"type": "occ",
				"energy": -0.25768,
				"method": "rhf"
			},
			{
				"type": "occ",
				"energy": -0.24246,
				"method": "rhf"
			},
			{
				"type": "occ",
				"energy": -0.21939,
				"method": "rhf"
			},
			{
				"type": "unocc",
				"energy": -0.03032,
				"method": "rhf"
			},
			{
				"type": "unocc",
				"energy": -0.01592,
				"method": "rhf"
			},
			{
				"type": "unocc",
				"energy": -0.00466,
				"method": "rhf"
			},
			{
				"type": "unocc",
				"energy": 0.00372,
				"method": "rhf"
			},
			{
				"type": "unocc",
				"energy": 0.02947,
				"method": "rhf"
			}
		],
		"cosmo_sigma_profile": { 
			"-0.025": 0.0,
			"-0.024": 0.0,
			"-0.023": 0.0,
			"-0.022": 0.0,
			"-0.021": 0.0,
			"-0.02": 0.0,
			"-0.019": 0.0,
			"-0.018": 0.0,
			"-0.017": 0.0,
			"-0.016": 0.0,
			"-0.015": 0.0,
			"-0.014": 0.0,
			"-0.013": 0.451360849105,
			"-0.012": 1.560022377,
			"-0.011": 4.07294885895,
			"-0.01": 5.4193050107,
			"-0.009": 5.8240034355,
			"-0.008": 5.59263047795,
			"-0.007": 7.30962690906,
			"-0.006": 12.0058150184,
			"-0.005": 16.9027188754,
			"-0.004": 18.9350089522,
			"-0.003": 16.4446375088,
			"-0.002": 17.6947898671,
			"-0.001": 16.0647287595,
			"0.0": 20.8173322339,
			"0.001": 31.7915025448,
			"0.002": 25.5218432421,
			"0.003": 24.4026467746,
			"0.004": 14.9673455336,
			"0.005": 4.58738695052,
			"0.006": 3.94747451263,
			"0.007": 3.61264780547,
			"0.008": 3.38058936011,
			"0.009": 2.71252836259,
			"0.01": 2.49624149058,
			"0.011": 3.05706616104,
			"0.012": 3.1616716876,
			"0.013": 3.6561244978,
			"0.014": 2.94421601742,
			"0.015": 2.63192571105,
			"0.016": 2.16903070868,
			"0.017": 0.649674721835,
			"0.018": 0.0,
			"0.019": 0.0,
			"0.02": 0.0,
			"0.021": 0.0,
			"0.022": 0.0,
			"0.023": 0.0,
			"0.024": 0.0,
			"0.025": 0.0
		}
	}
}
