{
	 "smiles": "NC1=C(N)C(=CC=C1)[N+]([O-])=O", 
	 "Tm": 431.15, 
	 "num_atms": 18, 
	 "gaussian": { 
		 "optdone": 1, 
		 "sigma_profile": "yes", 
		 "theory": "DFT", 
		 "functional": "B3LYP", 
		 "basiset": "6-31G**", 
		 "properties": { 
			 "R2extent": 1724.342, 
			 "electric_dipole_moment_norm": 5.57696235329, 
			 "electric_quadrupole_moment_norm": 8.45198451194, 
			 "total_energy": -547.470021095, 
			 "HOMO_LUMO_gap": 0.13265, 
			 "cosmo_polarized_energy": -13.27, 
			 "cosmo_cavitation_energy": 21.99, 
			 "cosmo_dispersion_energy": -16.93, 
			 "cosmo_repulsion_energy": 1.35, 
			 "cosmo_total_nonelectrostatic_energy": 6.41, 
			 "SMD_solvation_energy": 5.77 
		},
		"coords": [
			{
				"x": 2.3181521861,
				"y": -0.3302602231,
				"z": 1.3482067094,
				"element": "N" 
			},
			{
				"x": 1.4714786405,
				"y": 0.1743944678,
				"z": 0.3388789567,
				"element": "C" 
			},
			{
				"x": 0.0673321859,
				"y": 0.1166908739,
				"z": 0.5986929969,
				"element": "C" 
			},
			{
				"x": -0.3257257755,
				"y": -0.3864296371,
				"z": 1.8136540772,
				"element": "N" 
			},
			{
				"x": -0.7951932589,
				"y": 0.6149490011,
				"z": -0.4067265403,
				"element": "C" 
			},
			{
				"x": -0.3004998071,
				"y": 1.1127069662,
				"z": -1.6264816664,
				"element": "C" 
			},
			{
				"x": 1.0585426217,
				"y": 1.1176210621,
				"z": -1.8645609135,
				"element": "C" 
			},
			{
				"x": 1.9412766786,
				"y": 0.6580586065,
				"z": -0.872798199,
				"element": "C" 
			},
			{
				"x": -2.2384555722,
				"y": 0.5964852923,
				"z": -0.2428584411,
				"element": "N" 
			},
			{
				"x": -2.9387115809,
				"y": 1.0108278442,
				"z": -1.1668051914,
				"element": "O" 
			},
			{
				"x": -2.7204691904,
				"y": 0.1631789963,
				"z": 0.8206345158,
				"element": "O" 
			},
			{
				"x": 2.1360978671,
				"y": 0.093963914,
				"z": 2.2542295674,
				"element": "H" 
			},
			{
				"x": 3.3003723522,
				"y": -0.236113059,
				"z": 1.1195441013,
				"element": "H" 
			},
			{
				"x": 0.2918623354,
				"y": -1.0931614594,
				"z": 2.1928048955,
				"element": "H" 
			},
			{
				"x": -1.3223271124,
				"y": -0.5336028979,
				"z": 1.9097514793,
				"element": "H" 
			},
			{
				"x": -1.0128501414,
				"y": 1.475183452,
				"z": -2.3551020726,
				"element": "H" 
			},
			{
				"x": 1.4479186029,
				"y": 1.4960102561,
				"z": -2.8034960852,
				"element": "H" 
			},
			{
				"x": 3.0144989684,
				"y": 0.6905965439,
				"z": -1.0452681901,
				"element": "H" 
			}
		],
		 "valence_orbital": [ 
			{
				"type": "occ",
				"energy": -0.29948,
				"method": "rhf"
			},
			{
				"type": "occ",
				"energy": -0.29863,
				"method": "rhf"
			},
			{
				"type": "occ",
				"energy": -0.28069,
				"method": "rhf"
			},
			{
				"type": "occ",
				"energy": -0.25058,
				"method": "rhf"
			},
			{
				"type": "occ",
				"energy": -0.20999,
				"method": "rhf"
			},
			{
				"type": "unocc",
				"energy": -0.07734,
				"method": "rhf"
			},
			{
				"type": "unocc",
				"energy": 0.00291,
				"method": "rhf"
			},
			{
				"type": "unocc",
				"energy": 0.01632,
				"method": "rhf"
			},
			{
				"type": "unocc",
				"energy": 0.0636,
				"method": "rhf"
			},
			{
				"type": "unocc",
				"energy": 0.08797,
				"method": "rhf"
			}
		],
		"cosmo_sigma_profile": { 
			"-0.025": 0.0,
			"-0.024": 0.0,
			"-0.023": 0.0,
			"-0.022": 0.0,
			"-0.021": 0.0,
			"-0.02": 0.0,
			"-0.019": 0.0,
			"-0.018": 0.0,
			"-0.017": 0.0,
			"-0.016": 0.0,
			"-0.015": 0.0,
			"-0.014": 0.0,
			"-0.013": 0.669433477969,
			"-0.012": 2.93804788325,
			"-0.011": 4.24457297678,
			"-0.01": 4.26562004574,
			"-0.009": 5.85567818552,
			"-0.008": 4.53064044398,
			"-0.007": 5.08630004623,
			"-0.006": 7.20499920923,
			"-0.005": 7.57250532665,
			"-0.004": 9.91084316818,
			"-0.003": 9.18973834637,
			"-0.002": 9.48595690382,
			"-0.001": 8.41004593008,
			"0.0": 9.82415693258,
			"0.001": 12.2987137752,
			"0.002": 10.9445479161,
			"0.003": 11.2776702651,
			"0.004": 11.3100623718,
			"0.005": 7.50532338618,
			"0.006": 4.55101513622,
			"0.007": 4.06243338803,
			"0.008": 7.54744548296,
			"0.009": 6.80495053173,
			"0.01": 5.00795997082,
			"0.011": 3.49221069988,
			"0.012": 0.632012276352,
			"0.013": 0.469879458139,
			"0.014": 0.0365437691116,
			"0.015": 0.0,
			"0.016": 0.0,
			"0.017": 0.0,
			"0.018": 0.0,
			"0.019": 0.0,
			"0.02": 0.0,
			"0.021": 0.0,
			"0.022": 0.0,
			"0.023": 0.0,
			"0.024": 0.0,
			"0.025": 0.0
		}
	}
}
