{
	 "smiles": "CC(C=CC1=CC=C(C=C/C(/C)=N/O)C=C1)=N/O", 
	 "Tm": 553.15, 
	 "num_atms": 34, 
	 "gaussian": { 
		 "optdone": 1, 
		 "sigma_profile": "yes", 
		 "theory": "DFT", 
		 "functional": "B3LYP", 
		 "basiset": "6-31G**", 
		 "properties": { 
			 "R2extent": 9482.0196, 
			 "electric_dipole_moment_norm": 0.566229794341, 
			 "electric_quadrupole_moment_norm": 10.3616190106, 
			 "total_energy": -802.945894388, 
			 "HOMO_LUMO_gap": 0.13176, 
			 "cosmo_polarized_energy": -14.49, 
			 "cosmo_cavitation_energy": 39.05, 
			 "cosmo_dispersion_energy": -27.62, 
			 "cosmo_repulsion_energy": 2.16, 
			 "cosmo_total_nonelectrostatic_energy": 13.59, 
			 "SMD_solvation_energy": 7.0 
		},
		"coords": [
			{
				"x": -0.6356481911,
				"y": -4.3572413447,
				"z": 4.7307403169,
				"element": "C" 
			},
			{
				"x": -0.1792162735,
				"y": -4.0792242698,
				"z": 3.3201207779,
				"element": "C" 
			},
			{
				"x": -0.4029283564,
				"y": -2.7495856005,
				"z": 2.7390338836,
				"element": "C" 
			},
			{
				"x": -0.1166888053,
				"y": -2.3950714751,
				"z": 1.4680567723,
				"element": "C" 
			},
			{
				"x": -0.3177835325,
				"y": -1.0870152222,
				"z": 0.8501141241,
				"element": "C" 
			},
			{
				"x": -0.0182649728,
				"y": -0.9280527494,
				"z": -0.5169720775,
				"element": "C" 
			},
			{
				"x": -0.1942285679,
				"y": 0.2888151749,
				"z": -1.1650232179,
				"element": "C" 
			},
			{
				"x": -0.6873196818,
				"y": 1.4110892869,
				"z": -0.4757877559,
				"element": "C" 
			},
			{
				"x": -0.8408477908,
				"y": 2.7310186127,
				"z": -1.1037412726,
				"element": "C" 
			},
			{
				"x": -1.2356625164,
				"y": 3.0820006127,
				"z": -2.3483482128,
				"element": "C" 
			},
			{
				"x": -1.8171826187,
				"y": 2.2907601117,
				"z": -3.4389994168,
				"element": "C" 
			},
			{
				"x": -2.5184753639,
				"y": 0.9695662077,
				"z": -3.2524281586,
				"element": "C" 
			},
			{
				"x": -1.7663201569,
				"y": 2.8951609733,
				"z": -4.5839169892,
				"element": "N" 
			},
			{
				"x": -2.3598412966,
				"y": 2.129935683,
				"z": -5.5966881355,
				"element": "O" 
			},
			{
				"x": -0.9526571569,
				"y": 1.2633686347,
				"z": 0.9018413036,
				"element": "C" 
			},
			{
				"x": -0.784376549,
				"y": 0.0474964273,
				"z": 1.5467493606,
				"element": "C" 
			},
			{
				"x": 0.4062830487,
				"y": -4.9691875221,
				"z": 2.5894594144,
				"element": "N" 
			},
			{
				"x": 0.5340736627,
				"y": -6.1860878444,
				"z": 3.2769570362,
				"element": "O" 
			},
			{
				"x": -1.3719397414,
				"y": -5.1677145812,
				"z": 4.7399093748,
				"element": "H" 
			},
			{
				"x": -1.0789499312,
				"y": -3.4710138706,
				"z": 5.1890182861,
				"element": "H" 
			},
			{
				"x": 0.2054183255,
				"y": -4.6956367177,
				"z": 5.3442238756,
				"element": "H" 
			},
			{
				"x": -0.8419966988,
				"y": -2.0251224756,
				"z": 3.420435813,
				"element": "H" 
			},
			{
				"x": 0.3054138346,
				"y": -3.1610321702,
				"z": 0.8206852467,
				"element": "H" 
			},
			{
				"x": 0.3700113603,
				"y": -1.777989087,
				"z": -1.0723632267,
				"element": "H" 
			},
			{
				"x": 0.0791098514,
				"y": 0.3844199143,
				"z": -2.2106799344,
				"element": "H" 
			},
			{
				"x": -0.5632916944,
				"y": 3.5607878412,
				"z": -0.4537395305,
				"element": "H" 
			},
			{
				"x": -1.1383316332,
				"y": 4.1332276542,
				"z": -2.6098068188,
				"element": "H" 
			},
			{
				"x": -1.9488436669,
				"y": 0.1486197683,
				"z": -3.7003877874,
				"element": "H" 
			},
			{
				"x": -2.6833362482,
				"y": 0.7462342356,
				"z": -2.1999186338,
				"element": "H" 
			},
			{
				"x": -3.4781213233,
				"y": 1.003386771,
				"z": -3.7760823309,
				"element": "H" 
			},
			{
				"x": -2.2769724485,
				"y": 2.7118879978,
				"z": -6.3637067729,
				"element": "H" 
			},
			{
				"x": -1.3066085601,
				"y": 2.1228966667,
				"z": 1.4655210169,
				"element": "H" 
			},
			{
				"x": -1.0075421673,
				"y": -0.0206933908,
				"z": 2.6070055829,
				"element": "H" 
			},
			{
				"x": 0.9894658606,
				"y": -6.7382042529,
				"z": 2.6277180866,
				"element": "H" 
			}
		],
		 "valence_orbital": [ 
			{
				"type": "occ",
				"energy": -0.27054,
				"method": "rhf"
			},
			{
				"type": "occ",
				"energy": -0.2657,
				"method": "rhf"
			},
			{
				"type": "occ",
				"energy": -0.25567,
				"method": "rhf"
			},
			{
				"type": "occ",
				"energy": -0.22863,
				"method": "rhf"
			},
			{
				"type": "occ",
				"energy": -0.19883,
				"method": "rhf"
			},
			{
				"type": "unocc",
				"energy": -0.06707,
				"method": "rhf"
			},
			{
				"type": "unocc",
				"energy": -0.02834,
				"method": "rhf"
			},
			{
				"type": "unocc",
				"energy": -0.00431,
				"method": "rhf"
			},
			{
				"type": "unocc",
				"energy": 0.02405,
				"method": "rhf"
			},
			{
				"type": "unocc",
				"energy": 0.06744,
				"method": "rhf"
			}
		],
		"cosmo_sigma_profile": { 
			"-0.025": 0.0,
			"-0.024": 0.0,
			"-0.023": 0.0,
			"-0.022": 0.0,
			"-0.021": 0.0,
			"-0.02": 0.0,
			"-0.019": 0.0,
			"-0.018": 0.169628721017,
			"-0.017": 1.58537712373,
			"-0.016": 1.95791420163,
			"-0.015": 2.24289166715,
			"-0.014": 1.57673604411,
			"-0.013": 0.779995622047,
			"-0.012": 1.01635319439,
			"-0.011": 1.67394456826,
			"-0.01": 1.44735318004,
			"-0.009": 1.33682539746,
			"-0.008": 1.74384471503,
			"-0.007": 4.75220148093,
			"-0.006": 13.4291338608,
			"-0.005": 20.9443663832,
			"-0.004": 22.2790651806,
			"-0.003": 20.5429286787,
			"-0.002": 20.4849475639,
			"-0.001": 25.6267131771,
			"0.0": 23.9668949013,
			"0.001": 18.6333183308,
			"0.002": 18.3389126014,
			"0.003": 23.359525653,
			"0.004": 25.6544861307,
			"0.005": 17.0622360217,
			"0.006": 8.73354754831,
			"0.007": 7.52562485713,
			"0.008": 6.83241324953,
			"0.009": 6.85230354792,
			"0.01": 4.73741061368,
			"0.011": 2.04076218419,
			"0.012": 0.97035137076,
			"0.013": 0.774225055115,
			"0.014": 0.27161380858,
			"0.015": 0.0,
			"0.016": 0.0,
			"0.017": 0.0,
			"0.018": 0.0,
			"0.019": 0.0,
			"0.02": 0.0,
			"0.021": 0.0,
			"0.022": 0.0,
			"0.023": 0.0,
			"0.024": 0.0,
			"0.025": 0.0
		}
	}
}
