{
	 "smiles": "CC1=CC=CC2=C1ON=C2O", 
	 "Tm": 429.15, 
	 "num_atms": 18, 
	 "gaussian": { 
		 "optdone": 1, 
		 "sigma_profile": "yes", 
		 "theory": "DFT", 
		 "functional": "B3LYP", 
		 "basiset": "6-31G**", 
		 "properties": { 
			 "R2extent": 1945.8702, 
			 "electric_dipole_moment_norm": 4.51636448263, 
			 "electric_quadrupole_moment_norm": 13.1001728351, 
			 "total_energy": -514.219061799, 
			 "HOMO_LUMO_gap": 0.19239, 
			 "cosmo_polarized_energy": -14.17, 
			 "cosmo_cavitation_energy": 22.31, 
			 "cosmo_dispersion_energy": -16.8, 
			 "cosmo_repulsion_energy": 1.34, 
			 "cosmo_total_nonelectrostatic_energy": 6.85, 
			 "SMD_solvation_energy": 3.99 
		},
		"coords": [
			{
				"x": 0.0587533311,
				"y": -3.1288837128,
				"z": -1.428470538,
				"element": "C" 
			},
			{
				"x": -0.476272657,
				"y": -1.8754415495,
				"z": -0.7825465925,
				"element": "C" 
			},
			{
				"x": -1.4995504702,
				"y": -1.1034040968,
				"z": -1.3362519351,
				"element": "C" 
			},
			{
				"x": -1.992731176,
				"y": 0.067146242,
				"z": -0.7241460261,
				"element": "C" 
			},
			{
				"x": -1.475588578,
				"y": 0.5197811796,
				"z": 0.483468013,
				"element": "C" 
			},
			{
				"x": -0.4469765784,
				"y": -0.2360702231,
				"z": 1.0623138605,
				"element": "C" 
			},
			{
				"x": 0.0230962915,
				"y": -1.3928371091,
				"z": 0.4337051237,
				"element": "C" 
			},
			{
				"x": 1.0125277978,
				"y": -1.9535202293,
				"z": 1.1737051301,
				"element": "O" 
			},
			{
				"x": 1.2198556532,
				"y": -1.16269493,
				"z": 2.3286658023,
				"element": "N" 
			},
			{
				"x": 0.3683644498,
				"y": -0.1743034046,
				"z": 2.2487137211,
				"element": "C" 
			},
			{
				"x": 0.3430919421,
				"y": 0.7498750682,
				"z": 3.2313882252,
				"element": "O" 
			},
			{
				"x": -0.7321242651,
				"y": -3.8768428772,
				"z": -1.550716178,
				"element": "H" 
			},
			{
				"x": 0.4645312136,
				"y": -2.9163083824,
				"z": -2.4234718831,
				"element": "H" 
			},
			{
				"x": 0.8540658072,
				"y": -3.5730547944,
				"z": -0.826843141,
				"element": "H" 
			},
			{
				"x": -1.9340586433,
				"y": -1.4204337349,
				"z": -2.2812442534,
				"element": "H" 
			},
			{
				"x": -2.7906314043,
				"y": 0.6199100577,
				"z": -1.2100960878,
				"element": "H" 
			},
			{
				"x": -1.859764303,
				"y": 1.4227351325,
				"z": 0.9505205979,
				"element": "H" 
			},
			{
				"x": -0.3335884109,
				"y": 1.4066473643,
				"z": 3.0261061613,
				"element": "H" 
			}
		],
		 "valence_orbital": [ 
			{
				"type": "occ",
				"energy": -0.34996,
				"method": "rhf"
			},
			{
				"type": "occ",
				"energy": -0.30281,
				"method": "rhf"
			},
			{
				"type": "occ",
				"energy": -0.28181,
				"method": "rhf"
			},
			{
				"type": "occ",
				"energy": -0.25427,
				"method": "rhf"
			},
			{
				"type": "occ",
				"energy": -0.23294,
				"method": "rhf"
			},
			{
				"type": "unocc",
				"energy": -0.04055,
				"method": "rhf"
			},
			{
				"type": "unocc",
				"energy": 0.00114,
				"method": "rhf"
			},
			{
				"type": "unocc",
				"energy": 0.03623,
				"method": "rhf"
			},
			{
				"type": "unocc",
				"energy": 0.05673,
				"method": "rhf"
			},
			{
				"type": "unocc",
				"energy": 0.08955,
				"method": "rhf"
			}
		],
		"cosmo_sigma_profile": { 
			"-0.025": 0.0,
			"-0.024": 0.0,
			"-0.023": 0.0,
			"-0.022": 0.0,
			"-0.021": 0.0,
			"-0.02": 0.0,
			"-0.019": 0.388678381061,
			"-0.018": 1.26514803945,
			"-0.017": 1.17280864916,
			"-0.016": 1.39681640453,
			"-0.015": 1.61879280664,
			"-0.014": 0.894105252976,
			"-0.013": 1.20459987749,
			"-0.012": 1.07994153706,
			"-0.011": 1.1454141237,
			"-0.01": 0.592456374337,
			"-0.009": 0.926040947674,
			"-0.008": 1.55180290869,
			"-0.007": 3.49317936531,
			"-0.006": 6.67094226592,
			"-0.005": 9.81557407163,
			"-0.004": 11.0551587111,
			"-0.003": 11.6992284272,
			"-0.002": 11.7423601301,
			"-0.001": 16.6579230637,
			"0.0": 15.9861577683,
			"0.001": 11.8275779665,
			"0.002": 10.0406070575,
			"0.003": 11.3900722693,
			"0.004": 9.47489417677,
			"0.005": 3.93171390959,
			"0.006": 3.4915802112,
			"0.007": 4.76648202368,
			"0.008": 6.74079681655,
			"0.009": 6.41388646484,
			"0.01": 4.02169403021,
			"0.011": 1.38678546843,
			"0.012": 2.13425690315,
			"0.013": 1.22561303548,
			"0.014": 1.29390359642,
			"0.015": 0.0657594981814,
			"0.016": 0.0,
			"0.017": 0.0,
			"0.018": 0.0,
			"0.019": 0.0,
			"0.02": 0.0,
			"0.021": 0.0,
			"0.022": 0.0,
			"0.023": 0.0,
			"0.024": 0.0,
			"0.025": 0.0
		}
	}
}
