{
	 "smiles": "CC1=CC2=NN=C(S)N2C(C)=N1", 
	 "Tm": 524.15, 
	 "num_atms": 20, 
	 "gaussian": { 
		 "optdone": 1, 
		 "sigma_profile": "yes", 
		 "theory": "DFT", 
		 "functional": "B3LYP", 
		 "basiset": "6-31G**", 
		 "properties": { 
			 "R2extent": 2429.8431, 
			 "electric_dipole_moment_norm": 3.45006277914, 
			 "electric_quadrupole_moment_norm": 13.042208627, 
			 "total_energy": -888.734054763, 
			 "HOMO_LUMO_gap": 0.16477, 
			 "cosmo_polarized_energy": -13.67, 
			 "cosmo_cavitation_energy": 25.46, 
			 "cosmo_dispersion_energy": -19.6, 
			 "cosmo_repulsion_energy": 1.5, 
			 "cosmo_total_nonelectrostatic_energy": 7.36, 
			 "SMD_solvation_energy": 0.96 
		},
		"coords": [
			{
				"x": 1.1644489078,
				"y": 1.6689008034,
				"z": -2.8229853747,
				"element": "C" 
			},
			{
				"x": 0.6759881071,
				"y": 1.0322995761,
				"z": -1.5531497519,
				"element": "C" 
			},
			{
				"x": -0.4490141048,
				"y": 1.4433847141,
				"z": -0.8936159641,
				"element": "C" 
			},
			{
				"x": -0.8143711816,
				"y": 0.7671713639,
				"z": 0.297602387,
				"element": "C" 
			},
			{
				"x": -1.8224227954,
				"y": 0.9359375945,
				"z": 1.1294835884,
				"element": "N" 
			},
			{
				"x": -1.6877050934,
				"y": -0.0022587018,
				"z": 2.1230539792,
				"element": "N" 
			},
			{
				"x": -0.6143352948,
				"y": -0.7234786074,
				"z": 1.8906670791,
				"element": "C" 
			},
			{
				"x": -0.0723078281,
				"y": -2.0477950907,
				"z": 2.9316327181,
				"element": "S" 
			},
			{
				"x": 0.0081552074,
				"y": -0.2909606226,
				"z": 0.7293934786,
				"element": "N" 
			},
			{
				"x": 1.1412387893,
				"y": -0.650019614,
				"z": -0.0011088234,
				"element": "C" 
			},
			{
				"x": 1.9988243127,
				"y": -1.7811475981,
				"z": 0.4829722515,
				"element": "C" 
			},
			{
				"x": 1.4541755392,
				"y": -0.0158392461,
				"z": -1.0877290964,
				"element": "N" 
			},
			{
				"x": 0.5125528355,
				"y": 2.4862615383,
				"z": -3.1395310498,
				"element": "H" 
			},
			{
				"x": 1.2147257123,
				"y": 0.9256725796,
				"z": -3.6261054529,
				"element": "H" 
			},
			{
				"x": 2.1791829205,
				"y": 2.0585068523,
				"z": -2.6871904959,
				"element": "H" 
			},
			{
				"x": -1.0687882903,
				"y": 2.2602005846,
				"z": -1.242589498,
				"element": "H" 
			},
			{
				"x": -1.1071006968,
				"y": -1.862981794,
				"z": 3.7736131029,
				"element": "H" 
			},
			{
				"x": 1.4349108811,
				"y": -2.7182335702,
				"z": 0.5352611974,
				"element": "H" 
			},
			{
				"x": 2.4050131752,
				"y": -1.578651866,
				"z": 1.4793982812,
				"element": "H" 
			},
			{
				"x": 2.822628897,
				"y": -1.899968896,
				"z": -0.2200725564,
				"element": "H" 
			}
		],
		 "valence_orbital": [ 
			{
				"type": "occ",
				"energy": -0.31009,
				"method": "rhf"
			},
			{
				"type": "occ",
				"energy": -0.28641,
				"method": "rhf"
			},
			{
				"type": "occ",
				"energy": -0.28071,
				"method": "rhf"
			},
			{
				"type": "occ",
				"energy": -0.26243,
				"method": "rhf"
			},
			{
				"type": "occ",
				"energy": -0.21749,
				"method": "rhf"
			},
			{
				"type": "unocc",
				"energy": -0.05272,
				"method": "rhf"
			},
			{
				"type": "unocc",
				"energy": -0.01884,
				"method": "rhf"
			},
			{
				"type": "unocc",
				"energy": 0.00083,
				"method": "rhf"
			},
			{
				"type": "unocc",
				"energy": 0.04168,
				"method": "rhf"
			},
			{
				"type": "unocc",
				"energy": 0.05314,
				"method": "rhf"
			}
		],
		"cosmo_sigma_profile": { 
			"-0.025": 0.0,
			"-0.024": 0.0,
			"-0.023": 0.0,
			"-0.022": 0.0,
			"-0.021": 0.0,
			"-0.02": 0.0,
			"-0.019": 0.0,
			"-0.018": 0.0,
			"-0.017": 0.0,
			"-0.016": 0.0,
			"-0.015": 0.0,
			"-0.014": 0.0,
			"-0.013": 0.139301991821,
			"-0.012": 1.44360768838,
			"-0.011": 1.1710789332,
			"-0.01": 1.51538155542,
			"-0.009": 1.31332430712,
			"-0.008": 4.10681236241,
			"-0.007": 6.51272103348,
			"-0.006": 10.4822272289,
			"-0.005": 16.5868880148,
			"-0.004": 16.7076409382,
			"-0.003": 18.0971096381,
			"-0.002": 19.094569508,
			"-0.001": 18.7442999162,
			"0.0": 15.8183459459,
			"0.001": 14.3812147869,
			"0.002": 8.35121079939,
			"0.003": 6.07387045042,
			"0.004": 5.61603085453,
			"0.005": 6.32189191583,
			"0.006": 4.95146718083,
			"0.007": 2.54604392815,
			"0.008": 2.64101614647,
			"0.009": 2.76163306238,
			"0.01": 2.97187291177,
			"0.011": 3.13352102257,
			"0.012": 4.26419791167,
			"0.013": 3.51212079261,
			"0.014": 3.09072073676,
			"0.015": 2.01615565483,
			"0.016": 1.37419613293,
			"0.017": 0.301766554993,
			"0.018": 0.0,
			"0.019": 0.0,
			"0.02": 0.0,
			"0.021": 0.0,
			"0.022": 0.0,
			"0.023": 0.0,
			"0.024": 0.0,
			"0.025": 0.0
		}
	}
}
