{
	 "smiles": "CC1=C(C)C2=C(S1)N=C(CN1C=NC(=C1)[N+]([O-])=O)N=C2Cl", 
	 "Tm": 459.15, 
	 "num_atms": 31, 
	 "gaussian": { 
		 "optdone": 1, 
		 "sigma_profile": "yes", 
		 "theory": "DFT", 
		 "functional": "B3LYP", 
		 "basiset": "6-31G**", 
		 "properties": { 
			 "R2extent": 9891.1404, 
			 "electric_dipole_moment_norm": 10.75383026, 
			 "electric_quadrupole_moment_norm": 49.3995334108, 
			 "total_energy": -1745.78668676, 
			 "HOMO_LUMO_gap": 0.17695, 
			 "cosmo_polarized_energy": -20.75, 
			 "cosmo_cavitation_energy": 40.32, 
			 "cosmo_dispersion_energy": -29.01, 
			 "cosmo_repulsion_energy": 2.18, 
			 "cosmo_total_nonelectrostatic_energy": 13.48, 
			 "SMD_solvation_energy": 4.84 
		},
		"coords": [
			{
				"x": -3.8350688054,
				"y": 2.2315595179,
				"z": 2.6563349895,
				"element": "C" 
			},
			{
				"x": -2.6756227924,
				"y": 1.7202683865,
				"z": 1.8535057276,
				"element": "C" 
			},
			{
				"x": -2.0729630134,
				"y": 0.4892530641,
				"z": 1.8798148816,
				"element": "C" 
			},
			{
				"x": -2.4949249309,
				"y": -0.6433577931,
				"z": 2.7791499675,
				"element": "C" 
			},
			{
				"x": -0.980369279,
				"y": 0.4168023845,
				"z": 0.927824431,
				"element": "C" 
			},
			{
				"x": -0.7998529295,
				"y": 1.6256961072,
				"z": 0.202925192,
				"element": "C" 
			},
			{
				"x": -1.9554164989,
				"y": 2.8348845565,
				"z": 0.6879773527,
				"element": "S" 
			},
			{
				"x": 0.1217984245,
				"y": 1.8427034033,
				"z": -0.7356379644,
				"element": "N" 
			},
			{
				"x": 0.9221907243,
				"y": 0.8078441245,
				"z": -0.97581311,
				"element": "C" 
			},
			{
				"x": 1.9827280373,
				"y": 0.9710398414,
				"z": -2.0452687564,
				"element": "C" 
			},
			{
				"x": 1.6704898593,
				"y": 0.2127633149,
				"z": -3.2576357241,
				"element": "N" 
			},
			{
				"x": 1.1931175829,
				"y": 0.7297010512,
				"z": -4.4424825845,
				"element": "C" 
			},
			{
				"x": 0.9739199003,
				"y": -0.2005574519,
				"z": -5.3407117078,
				"element": "N" 
			},
			{
				"x": 1.3164244768,
				"y": -1.3582624348,
				"z": -4.7078772564,
				"element": "C" 
			},
			{
				"x": 1.7499553666,
				"y": -1.1458831749,
				"z": -3.4183073122,
				"element": "C" 
			},
			{
				"x": 1.2274981395,
				"y": -2.6496388162,
				"z": -5.3457416694,
				"element": "N" 
			},
			{
				"x": 1.578143711,
				"y": -3.6185098454,
				"z": -4.6611629088,
				"element": "O" 
			},
			{
				"x": 0.8181727567,
				"y": -2.7033796675,
				"z": -6.5003156451,
				"element": "O" 
			},
			{
				"x": 0.8738774408,
				"y": -0.388437581,
				"z": -0.3626519213,
				"element": "N" 
			},
			{
				"x": -0.0520012298,
				"y": -0.5765763558,
				"z": 0.5570619309,
				"element": "C" 
			},
			{
				"x": -0.0489690123,
				"y": -2.1625972674,
				"z": 1.3076374643,
				"element": "Cl" 
			},
			{
				"x": -3.5563396362,
				"y": 3.1218555794,
				"z": 3.2310887662,
				"element": "H" 
			},
			{
				"x": -4.1948338846,
				"y": 1.4800338458,
				"z": 3.3602049181,
				"element": "H" 
			},
			{
				"x": -4.6728895196,
				"y": 2.5105355079,
				"z": 2.0073497237,
				"element": "H" 
			},
			{
				"x": -3.3418128693,
				"y": -0.3576852149,
				"z": 3.404427215,
				"element": "H" 
			},
			{
				"x": -2.789283166,
				"y": -1.5229475225,
				"z": 2.199385079,
				"element": "H" 
			},
			{
				"x": -1.6800411222,
				"y": -0.9525579118,
				"z": 3.4400545368,
				"element": "H" 
			},
			{
				"x": 2.948853259,
				"y": 0.6313838076,
				"z": -1.6625707869,
				"element": "H" 
			},
			{
				"x": 2.0556275608,
				"y": 2.0246478614,
				"z": -2.3167714379,
				"element": "H" 
			},
			{
				"x": 1.037665934,
				"y": 1.7915103255,
				"z": -4.577112493,
				"element": "H" 
			},
			{
				"x": 2.0734255156,
				"y": -1.8162916422,
				"z": -2.6401808979,
				"element": "H" 
			}
		],
		 "valence_orbital": [ 
			{
				"type": "occ",
				"energy": -0.28772,
				"method": "rhf"
			},
			{
				"type": "occ",
				"energy": -0.2859,
				"method": "rhf"
			},
			{
				"type": "occ",
				"energy": -0.27105,
				"method": "rhf"
			},
			{
				"type": "occ",
				"energy": -0.25476,
				"method": "rhf"
			},
			{
				"type": "occ",
				"energy": -0.251,
				"method": "rhf"
			},
			{
				"type": "unocc",
				"energy": -0.07405,
				"method": "rhf"
			},
			{
				"type": "unocc",
				"energy": -0.06623,
				"method": "rhf"
			},
			{
				"type": "unocc",
				"energy": -0.05859,
				"method": "rhf"
			},
			{
				"type": "unocc",
				"energy": -0.01317,
				"method": "rhf"
			},
			{
				"type": "unocc",
				"energy": 0.00042,
				"method": "rhf"
			}
		],
		"cosmo_sigma_profile": { 
			"-0.025": 0.0,
			"-0.024": 0.0,
			"-0.023": 0.0,
			"-0.022": 0.0,
			"-0.021": 0.0,
			"-0.02": 0.0,
			"-0.019": 0.0,
			"-0.018": 0.0,
			"-0.017": 0.0,
			"-0.016": 0.0,
			"-0.015": 0.0,
			"-0.014": 0.0,
			"-0.013": 0.0,
			"-0.012": 0.237853833846,
			"-0.011": 2.23029672738,
			"-0.01": 3.52661808694,
			"-0.009": 5.93568077157,
			"-0.008": 7.05405450704,
			"-0.007": 6.9136674478,
			"-0.006": 11.3573525832,
			"-0.005": 17.8504919528,
			"-0.004": 23.3651488851,
			"-0.003": 27.713933494,
			"-0.002": 31.903368401,
			"-0.001": 35.0558550333,
			"0.0": 27.9114962743,
			"0.001": 24.249391249,
			"0.002": 18.4032224319,
			"0.003": 15.4722489288,
			"0.004": 9.37788915947,
			"0.005": 5.82832032221,
			"0.006": 7.2954643291,
			"0.007": 7.888619841,
			"0.008": 12.9107157004,
			"0.009": 8.94397872095,
			"0.01": 7.04430335046,
			"0.011": 3.04332181658,
			"0.012": 2.31390244938,
			"0.013": 1.18987094713,
			"0.014": 1.46089893443,
			"0.015": 1.40589253128,
			"0.016": 0.375724453734,
			"0.017": 0.0,
			"0.018": 0.0,
			"0.019": 0.0,
			"0.02": 0.0,
			"0.021": 0.0,
			"0.022": 0.0,
			"0.023": 0.0,
			"0.024": 0.0,
			"0.025": 0.0
		}
	}
}
