{
	 "smiles": "OC(=O)C1=CC=CN1CC1=CN=CC=C1", 
	 "Tm": 446.15, 
	 "num_atms": 25, 
	 "gaussian": { 
		 "optdone": 1, 
		 "sigma_profile": "yes", 
		 "theory": "DFT", 
		 "functional": "B3LYP", 
		 "basiset": "6-31G**", 
		 "properties": { 
			 "R2extent": 3206.051, 
			 "electric_dipole_moment_norm": 3.1459227899, 
			 "electric_quadrupole_moment_norm": 10.7695081229, 
			 "total_energy": -685.146017503, 
			 "HOMO_LUMO_gap": 0.19715, 
			 "cosmo_polarized_energy": -15.31, 
			 "cosmo_cavitation_energy": 29.5, 
			 "cosmo_dispersion_energy": -20.84, 
			 "cosmo_repulsion_energy": 1.62, 
			 "cosmo_total_nonelectrostatic_energy": 10.28, 
			 "SMD_solvation_energy": 4.95 
		},
		"coords": [
			{
				"x": 1.3894303373,
				"y": -1.4019971401,
				"z": 1.5721112721,
				"element": "O" 
			},
			{
				"x": 1.4642899245,
				"y": -1.7560216453,
				"z": 0.2566356269,
				"element": "C" 
			},
			{
				"x": 1.5224752034,
				"y": -2.9221132101,
				"z": -0.0861080385,
				"element": "O" 
			},
			{
				"x": 1.4815247466,
				"y": -0.6305829236,
				"z": -0.6726962407,
				"element": "C" 
			},
			{
				"x": 1.6583430075,
				"y": -0.7454042214,
				"z": -2.0471594698,
				"element": "C" 
			},
			{
				"x": 1.6460616515,
				"y": 0.5516882412,
				"z": -2.595951007,
				"element": "C" 
			},
			{
				"x": 1.4598741913,
				"y": 1.430402633,
				"z": -1.541819457,
				"element": "C" 
			},
			{
				"x": 1.3649421691,
				"y": 0.7249898833,
				"z": -0.3725099895,
				"element": "N" 
			},
			{
				"x": 1.0644481501,
				"y": 1.3504840508,
				"z": 0.9154708026,
				"element": "C" 
			},
			{
				"x": -0.3840733567,
				"y": 1.2163770226,
				"z": 1.3482295715,
				"element": "C" 
			},
			{
				"x": -0.6962607565,
				"y": 1.0418594672,
				"z": 2.7013922684,
				"element": "C" 
			},
			{
				"x": -1.9402607263,
				"y": 0.9633637147,
				"z": 3.1847022236,
				"element": "N" 
			},
			{
				"x": -2.9456155286,
				"y": 1.0486142265,
				"z": 2.3049836022,
				"element": "C" 
			},
			{
				"x": -2.7522426478,
				"y": 1.2093435688,
				"z": 0.9320658534,
				"element": "C" 
			},
			{
				"x": -1.4490510232,
				"y": 1.2964997315,
				"z": 0.4470488764,
				"element": "C" 
			},
			{
				"x": 1.3714506471,
				"y": -2.241204516,
				"z": 2.0611957956,
				"element": "H" 
			},
			{
				"x": 1.7939814341,
				"y": -1.6857370277,
				"z": -2.5609733469,
				"element": "H" 
			},
			{
				"x": 1.7681382636,
				"y": 0.8251065443,
				"z": -3.634157413,
				"element": "H" 
			},
			{
				"x": 1.3933875791,
				"y": 2.5094041635,
				"z": -1.532033258,
				"element": "H" 
			},
			{
				"x": 1.7183752466,
				"y": 0.9291977019,
				"z": 1.6794523661,
				"element": "H" 
			},
			{
				"x": 1.3259825187,
				"y": 2.4088300332,
				"z": 0.8066699433,
				"element": "H" 
			},
			{
				"x": 0.1070358055,
				"y": 0.954950976,
				"z": 3.4328264742,
				"element": "H" 
			},
			{
				"x": -3.9511853271,
				"y": 0.9793254515,
				"z": 2.7160772006,
				"element": "H" 
			},
			{
				"x": -3.603410643,
				"y": 1.2626055172,
				"z": 0.2604111456,
				"element": "H" 
			},
			{
				"x": -1.2601408668,
				"y": 1.4129177573,
				"z": -0.6166648021,
				"element": "H" 
			}
		],
		 "valence_orbital": [ 
			{
				"type": "occ",
				"energy": -0.27469,
				"method": "rhf"
			},
			{
				"type": "occ",
				"energy": -0.26463,
				"method": "rhf"
			},
			{
				"type": "occ",
				"energy": -0.25923,
				"method": "rhf"
			},
			{
				"type": "occ",
				"energy": -0.24891,
				"method": "rhf"
			},
			{
				"type": "occ",
				"energy": -0.2289,
				"method": "rhf"
			},
			{
				"type": "unocc",
				"energy": -0.03175,
				"method": "rhf"
			},
			{
				"type": "unocc",
				"energy": -0.02822,
				"method": "rhf"
			},
			{
				"type": "unocc",
				"energy": -0.01699,
				"method": "rhf"
			},
			{
				"type": "unocc",
				"energy": 0.05357,
				"method": "rhf"
			},
			{
				"type": "unocc",
				"energy": 0.07689,
				"method": "rhf"
			}
		],
		"cosmo_sigma_profile": { 
			"-0.025": 0.0,
			"-0.024": 0.0,
			"-0.023": 0.0,
			"-0.022": 0.0,
			"-0.021": 0.0,
			"-0.02": 0.0,
			"-0.019": 0.0,
			"-0.018": 0.428061186286,
			"-0.017": 1.20866869351,
			"-0.016": 0.427801226575,
			"-0.015": 0.956827823775,
			"-0.014": 0.841240302155,
			"-0.013": 0.3867002847,
			"-0.012": 0.455527524105,
			"-0.011": 0.68489900549,
			"-0.01": 0.85511531952,
			"-0.009": 3.57382886122,
			"-0.008": 4.47585707899,
			"-0.007": 7.06394914504,
			"-0.006": 17.4166017099,
			"-0.005": 17.4311268764,
			"-0.004": 15.4613380278,
			"-0.003": 13.9854242465,
			"-0.002": 12.7475902197,
			"-0.001": 13.121881277,
			"0.0": 16.2848875657,
			"0.001": 15.203183318,
			"0.002": 19.2446538356,
			"0.003": 17.5673906237,
			"0.004": 12.7308031265,
			"0.005": 10.2587620535,
			"0.006": 6.52996649723,
			"0.007": 2.90183233289,
			"0.008": 2.63068483859,
			"0.009": 2.44707998765,
			"0.01": 3.47539697351,
			"0.011": 2.95364961035,
			"0.012": 6.0872643679,
			"0.013": 3.50651975649,
			"0.014": 0.766471271672,
			"0.015": 1.0001006006,
			"0.016": 0.793248522583,
			"0.017": 0.308870913924,
			"0.018": 0.0,
			"0.019": 0.0,
			"0.02": 0.0,
			"0.021": 0.0,
			"0.022": 0.0,
			"0.023": 0.0,
			"0.024": 0.0,
			"0.025": 0.0
		}
	}
}
