{
	 "smiles": "CC(C)(C)C1=CC(CC(O)=O)=CC(=C1O)C(C)(C)C", 
	 "Tm": 431.15, 
	 "num_atms": 43, 
	 "gaussian": { 
		 "optdone": 1, 
		 "sigma_profile": "yes", 
		 "theory": "DFT", 
		 "functional": "B3LYP", 
		 "basiset": "6-31G**", 
		 "properties": { 
			 "R2extent": 6280.5207, 
			 "electric_dipole_moment_norm": 3.36461746414, 
			 "electric_quadrupole_moment_norm": 4.43233551189, 
			 "total_energy": -849.874305293, 
			 "HOMO_LUMO_gap": 0.20965, 
			 "cosmo_polarized_energy": -12.2, 
			 "cosmo_cavitation_energy": 42.15, 
			 "cosmo_dispersion_energy": -28.44, 
			 "cosmo_repulsion_energy": 2.21, 
			 "cosmo_total_nonelectrostatic_energy": 15.92, 
			 "SMD_solvation_energy": 8.6 
		},
		"coords": [
			{
				"x": 0.4145808177,
				"y": 0.2283036667,
				"z": 3.9012604466,
				"element": "C" 
			},
			{
				"x": 0.4786468352,
				"y": -0.8515529228,
				"z": 2.7863275512,
				"element": "C" 
			},
			{
				"x": -0.7060169374,
				"y": -1.8494808056,
				"z": 2.9036662607,
				"element": "C" 
			},
			{
				"x": 1.7559767352,
				"y": -1.673279,
				"z": 3.0633619971,
				"element": "C" 
			},
			{
				"x": 0.5060175539,
				"y": -0.1920430192,
				"z": 1.3839581115,
				"element": "C" 
			},
			{
				"x": 1.6045914724,
				"y": -0.3724149641,
				"z": 0.531705845,
				"element": "C" 
			},
			{
				"x": 1.6624992279,
				"y": 0.2005271786,
				"z": -0.7350658689,
				"element": "C" 
			},
			{
				"x": 2.8695721639,
				"y": -0.0164710419,
				"z": -1.6364295299,
				"element": "C" 
			},
			{
				"x": 3.6048304784,
				"y": 1.2877379607,
				"z": -1.8806898009,
				"element": "C" 
			},
			{
				"x": 4.6026713411,
				"y": 1.4862820495,
				"z": -0.9857734405,
				"element": "O" 
			},
			{
				"x": 3.3340266158,
				"y": 2.093781973,
				"z": -2.7443914453,
				"element": "O" 
			},
			{
				"x": 0.5937897756,
				"y": 0.9893800297,
				"z": -1.1675318807,
				"element": "C" 
			},
			{
				"x": -0.5344870892,
				"y": 1.2177790105,
				"z": -0.3764052214,
				"element": "C" 
			},
			{
				"x": -0.5559304822,
				"y": 0.6110340684,
				"z": 0.9042884545,
				"element": "C" 
			},
			{
				"x": -1.6791555211,
				"y": 0.8484371263,
				"z": 1.6635536232,
				"element": "O" 
			},
			{
				"x": -1.7007487236,
				"y": 2.0963317544,
				"z": -0.8861178597,
				"element": "C" 
			},
			{
				"x": -3.0089028068,
				"y": 1.2692154643,
				"z": -0.9535709476,
				"element": "C" 
			},
			{
				"x": -1.4301140465,
				"y": 2.6361617668,
				"z": -2.3063029982,
				"element": "C" 
			},
			{
				"x": -1.8931771966,
				"y": 3.3238122484,
				"z": 0.0393209913,
				"element": "C" 
			},
			{
				"x": 1.3026169898,
				"y": 0.8660868178,
				"z": 3.8564464829,
				"element": "H" 
			},
			{
				"x": 0.3864053245,
				"y": -0.247268095,
				"z": 4.8877005235,
				"element": "H" 
			},
			{
				"x": -0.4496649822,
				"y": 0.8966828412,
				"z": 3.8374602758,
				"element": "H" 
			},
			{
				"x": -1.6920710789,
				"y": -1.4068177736,
				"z": 2.7321654234,
				"element": "H" 
			},
			{
				"x": -0.5948909809,
				"y": -2.651339534,
				"z": 2.1673612458,
				"element": "H" 
			},
			{
				"x": -0.7214904258,
				"y": -2.3028725353,
				"z": 3.9007526341,
				"element": "H" 
			},
			{
				"x": 1.6898880405,
				"y": -2.1173015516,
				"z": 4.0618122455,
				"element": "H" 
			},
			{
				"x": 1.8799849158,
				"y": -2.4910872819,
				"z": 2.3470469333,
				"element": "H" 
			},
			{
				"x": 2.6562076001,
				"y": -1.0519096923,
				"z": 3.0380710439,
				"element": "H" 
			},
			{
				"x": 2.4418416019,
				"y": -0.9769162427,
				"z": 0.8580431139,
				"element": "H" 
			},
			{
				"x": 2.5555891572,
				"y": -0.3912954459,
				"z": -2.6153486968,
				"element": "H" 
			},
			{
				"x": 3.5521584982,
				"y": -0.7410559521,
				"z": -1.1860774197,
				"element": "H" 
			},
			{
				"x": 4.9781416131,
				"y": 2.3589456695,
				"z": -1.1930242408,
				"element": "H" 
			},
			{
				"x": 0.6629104544,
				"y": 1.4409316814,
				"z": -2.1492442216,
				"element": "H" 
			},
			{
				"x": -1.5985720937,
				"y": 0.400965743,
				"z": 2.5107998098,
				"element": "H" 
			},
			{
				"x": -3.2996785169,
				"y": 0.8871678499,
				"z": 0.0250823026,
				"element": "H" 
			},
			{
				"x": -3.8245905039,
				"y": 1.8943520383,
				"z": -1.3350001279,
				"element": "H" 
			},
			{
				"x": -2.8922236538,
				"y": 0.4195321326,
				"z": -1.6353084705,
				"element": "H" 
			},
			{
				"x": -0.5351588184,
				"y": 3.2652991923,
				"z": -2.3472730869,
				"element": "H" 
			},
			{
				"x": -1.3180557491,
				"y": 1.8312516907,
				"z": -3.0401640583,
				"element": "H" 
			},
			{
				"x": -2.2789815031,
				"y": 3.2511181987,
				"z": -2.6220693298,
				"element": "H" 
			},
			{
				"x": -2.7090372786,
				"y": 3.9504400567,
				"z": -0.3392906354,
				"element": "H" 
			},
			{
				"x": -2.1341434646,
				"y": 3.029175885,
				"z": 1.0608351968,
				"element": "H" 
			},
			{
				"x": -0.9844553592,
				"y": 3.9352717638,
				"z": 0.0610587684,
				"element": "H" 
			}
		],
		 "valence_orbital": [ 
			{
				"type": "occ",
				"energy": -0.30838,
				"method": "rhf"
			},
			{
				"type": "occ",
				"energy": -0.30041,
				"method": "rhf"
			},
			{
				"type": "occ",
				"energy": -0.27083,
				"method": "rhf"
			},
			{
				"type": "occ",
				"energy": -0.23756,
				"method": "rhf"
			},
			{
				"type": "occ",
				"energy": -0.21055,
				"method": "rhf"
			},
			{
				"type": "unocc",
				"energy": -0.0009,
				"method": "rhf"
			},
			{
				"type": "unocc",
				"energy": 0.00277,
				"method": "rhf"
			},
			{
				"type": "unocc",
				"energy": 0.02661,
				"method": "rhf"
			},
			{
				"type": "unocc",
				"energy": 0.06134,
				"method": "rhf"
			},
			{
				"type": "unocc",
				"energy": 0.08145,
				"method": "rhf"
			}
		],
		"cosmo_sigma_profile": { 
			"-0.025": 0.0,
			"-0.024": 0.0,
			"-0.023": 0.0,
			"-0.022": 0.0,
			"-0.021": 0.0,
			"-0.02": 0.0,
			"-0.019": 0.0,
			"-0.018": 0.647706440677,
			"-0.017": 0.852661046109,
			"-0.016": 0.710358853776,
			"-0.015": 1.33284115787,
			"-0.014": 0.962503662153,
			"-0.013": 0.942886309433,
			"-0.012": 0.86889535215,
			"-0.011": 2.30452215919,
			"-0.01": 1.66194204562,
			"-0.009": 0.966554319541,
			"-0.008": 1.02333903637,
			"-0.007": 2.19642444896,
			"-0.006": 5.17138063219,
			"-0.005": 8.0721451888,
			"-0.004": 13.6143596781,
			"-0.003": 32.8499556572,
			"-0.002": 42.4841335012,
			"-0.001": 35.0761540519,
			"0.0": 41.2040293205,
			"0.001": 36.8792447125,
			"0.002": 26.5495185213,
			"0.003": 14.5754245901,
			"0.004": 14.0785439952,
			"0.005": 13.0775674953,
			"0.006": 9.08145762036,
			"0.007": 3.57104566694,
			"0.008": 2.71020465133,
			"0.009": 3.22882566689,
			"0.01": 2.73965107317,
			"0.011": 2.64527329187,
			"0.012": 4.8058526833,
			"0.013": 0.751460616148,
			"0.014": 0.0,
			"0.015": 0.0,
			"0.016": 0.0,
			"0.017": 0.0,
			"0.018": 0.0,
			"0.019": 0.0,
			"0.02": 0.0,
			"0.021": 0.0,
			"0.022": 0.0,
			"0.023": 0.0,
			"0.024": 0.0,
			"0.025": 0.0
		}
	}
}
