{
	 "smiles": "CN1CCC2=C(C1)C=C1OCOC1=C2", 
	 "Tm": 339.15, 
	 "num_atms": 27, 
	 "gaussian": { 
		 "optdone": 1, 
		 "sigma_profile": "yes", 
		 "theory": "DFT", 
		 "functional": "B3LYP", 
		 "basiset": "6-31G**", 
		 "properties": { 
			 "R2extent": 3312.0697, 
			 "electric_dipole_moment_norm": 0.322447933782, 
			 "electric_quadrupole_moment_norm": 7.90871891965, 
			 "total_energy": -632.174281294, 
			 "HOMO_LUMO_gap": 0.19934, 
			 "cosmo_polarized_energy": -7.1, 
			 "cosmo_cavitation_energy": 28.59, 
			 "cosmo_dispersion_energy": -21.91, 
			 "cosmo_repulsion_energy": 1.7, 
			 "cosmo_total_nonelectrostatic_energy": 8.39, 
			 "SMD_solvation_energy": 2.33 
		},
		"coords": [
			{
				"x": 0.6874043592,
				"y": 3.6886289231,
				"z": -1.5839774926,
				"element": "C" 
			},
			{
				"x": 0.619486233,
				"y": 2.2420973693,
				"z": -1.45641854,
				"element": "N" 
			},
			{
				"x": 1.936765405,
				"y": 1.612987685,
				"z": -1.4921116012,
				"element": "C" 
			},
			{
				"x": 1.7787981241,
				"y": 0.1016208415,
				"z": -1.6600722745,
				"element": "C" 
			},
			{
				"x": 0.7995796445,
				"y": -0.4793485704,
				"z": -0.6608754041,
				"element": "C" 
			},
			{
				"x": -0.1190761616,
				"y": 0.35744877,
				"z": -0.0150947744,
				"element": "C" 
			},
			{
				"x": -0.1109075984,
				"y": 1.8554202409,
				"z": -0.2540019279,
				"element": "C" 
			},
			{
				"x": -1.0520034957,
				"y": -0.1690956973,
				"z": 0.9063681556,
				"element": "C" 
			},
			{
				"x": -1.0280474602,
				"y": -1.5264396217,
				"z": 1.1365242004,
				"element": "C" 
			},
			{
				"x": -1.8093774391,
				"y": -2.2678046712,
				"z": 1.9941934957,
				"element": "O" 
			},
			{
				"x": -1.4758465966,
				"y": -3.6347670163,
				"z": 1.7303713562,
				"element": "C" 
			},
			{
				"x": -0.2946550382,
				"y": -3.6574625777,
				"z": 0.9220899309,
				"element": "O" 
			},
			{
				"x": -0.1181052396,
				"y": -2.361436921,
				"z": 0.4916801966,
				"element": "C" 
			},
			{
				"x": 0.8035987726,
				"y": -1.8697256498,
				"z": -0.4054651138,
				"element": "C" 
			},
			{
				"x": 1.1850602244,
				"y": 3.9552610267,
				"z": -2.5217883727,
				"element": "H" 
			},
			{
				"x": 1.2343821642,
				"y": 4.1777375235,
				"z": -0.7537173867,
				"element": "H" 
			},
			{
				"x": -0.3250789933,
				"y": 4.1058002456,
				"z": -1.607695416,
				"element": "H" 
			},
			{
				"x": 2.4966335329,
				"y": 2.024946551,
				"z": -2.3387545641,
				"element": "H" 
			},
			{
				"x": 2.5238443042,
				"y": 1.8353819415,
				"z": -0.5774362966,
				"element": "H" 
			},
			{
				"x": 2.7553854582,
				"y": -0.387768576,
				"z": -1.5598665644,
				"element": "H" 
			},
			{
				"x": 1.4254662372,
				"y": -0.1019380588,
				"z": -2.6797144215,
				"element": "H" 
			},
			{
				"x": -1.1429587072,
				"y": 2.2175341514,
				"z": -0.3469106258,
				"element": "H" 
			},
			{
				"x": 0.310152554,
				"y": 2.3547746029,
				"z": 0.6465362861,
				"element": "H" 
			},
			{
				"x": -1.7643174162,
				"y": 0.4727242024,
				"z": 1.4152469071,
				"element": "H" 
			},
			{
				"x": -2.3023264728,
				"y": -4.1161995232,
				"z": 1.1866147061,
				"element": "H" 
			},
			{
				"x": -1.2809025815,
				"y": -4.1510601917,
				"z": 2.6754287231,
				"element": "H" 
			},
			{
				"x": 1.5123461869,
				"y": -2.527217,
				"z": -0.8986531817,
				"element": "H" 
			}
		],
		 "valence_orbital": [ 
			{
				"type": "occ",
				"energy": -0.32625,
				"method": "rhf"
			},
			{
				"type": "occ",
				"energy": -0.29249,
				"method": "rhf"
			},
			{
				"type": "occ",
				"energy": -0.23799,
				"method": "rhf"
			},
			{
				"type": "occ",
				"energy": -0.21062,
				"method": "rhf"
			},
			{
				"type": "occ",
				"energy": -0.19723,
				"method": "rhf"
			},
			{
				"type": "unocc",
				"energy": 0.00211,
				"method": "rhf"
			},
			{
				"type": "unocc",
				"energy": 0.01897,
				"method": "rhf"
			},
			{
				"type": "unocc",
				"energy": 0.09007,
				"method": "rhf"
			},
			{
				"type": "unocc",
				"energy": 0.10671,
				"method": "rhf"
			},
			{
				"type": "unocc",
				"energy": 0.1125,
				"method": "rhf"
			}
		],
		"cosmo_sigma_profile": { 
			"-0.025": 0.0,
			"-0.024": 0.0,
			"-0.023": 0.0,
			"-0.022": 0.0,
			"-0.021": 0.0,
			"-0.02": 0.0,
			"-0.019": 0.0,
			"-0.018": 0.0,
			"-0.017": 0.0,
			"-0.016": 0.0,
			"-0.015": 0.0,
			"-0.014": 0.0,
			"-0.013": 0.0,
			"-0.012": 0.0,
			"-0.011": 0.0,
			"-0.01": 0.0,
			"-0.009": 0.0,
			"-0.008": 1.60604824578,
			"-0.007": 5.83681668085,
			"-0.006": 10.6589978119,
			"-0.005": 9.589960049,
			"-0.004": 16.7139758528,
			"-0.003": 20.101421683,
			"-0.002": 24.3423510945,
			"-0.001": 33.202376443,
			"0.0": 23.4412147933,
			"0.001": 10.055235815,
			"0.002": 10.666583866,
			"0.003": 12.3143225617,
			"0.004": 11.1910486896,
			"0.005": 11.3940376006,
			"0.006": 5.98329339613,
			"0.007": 3.55471806749,
			"0.008": 3.64536622485,
			"0.009": 3.84168868073,
			"0.01": 3.69761821477,
			"0.011": 0.524867959611,
			"0.012": 0.737407770361,
			"0.013": 0.530222206321,
			"0.014": 0.458646644652,
			"0.015": 0.536060785328,
			"0.016": 0.231888067526,
			"0.017": 0.0662078212942,
			"0.018": 0.0,
			"0.019": 0.0,
			"0.02": 0.0,
			"0.021": 0.0,
			"0.022": 0.0,
			"0.023": 0.0,
			"0.024": 0.0,
			"0.025": 0.0
		}
	}
}
