{
	 "smiles": "CC1=NC(=NC=C1)C1=CC(N)=CC=C1", 
	 "Tm": 397.15, 
	 "num_atms": 25, 
	 "gaussian": { 
		 "optdone": 1, 
		 "sigma_profile": "yes", 
		 "theory": "DFT", 
		 "functional": "B3LYP", 
		 "basiset": "6-31G**", 
		 "properties": { 
			 "R2extent": 3585.8005, 
			 "electric_dipole_moment_norm": 2.25045406529, 
			 "electric_quadrupole_moment_norm": 18.8841107514, 
			 "total_energy": -590.071240419, 
			 "HOMO_LUMO_gap": 0.1532, 
			 "cosmo_polarized_energy": -12.51, 
			 "cosmo_cavitation_energy": 29.08, 
			 "cosmo_dispersion_energy": -21.55, 
			 "cosmo_repulsion_energy": 1.7, 
			 "cosmo_total_nonelectrostatic_energy": 9.23, 
			 "SMD_solvation_energy": 2.99 
		},
		"coords": [
			{
				"x": -0.8421426163,
				"y": -2.4794610287,
				"z": 2.0239825597,
				"element": "C" 
			},
			{
				"x": 0.1171663442,
				"y": -2.1498178893,
				"z": 0.9093726331,
				"element": "C" 
			},
			{
				"x": -0.0746492626,
				"y": -1.001501817,
				"z": 0.2512161534,
				"element": "N" 
			},
			{
				"x": 0.7754589077,
				"y": -0.6947743243,
				"z": -0.7486968299,
				"element": "C" 
			},
			{
				"x": 1.812029599,
				"y": -1.4564503966,
				"z": -1.1405423247,
				"element": "N" 
			},
			{
				"x": 1.9947695746,
				"y": -2.600667819,
				"z": -0.4766083077,
				"element": "C" 
			},
			{
				"x": 1.1724137804,
				"y": -3.0064871969,
				"z": 0.5676162449,
				"element": "C" 
			},
			{
				"x": 0.5495409103,
				"y": 0.5825246795,
				"z": -1.4733587189,
				"element": "C" 
			},
			{
				"x": -0.5172204956,
				"y": 1.4128315246,
				"z": -1.1082496261,
				"element": "C" 
			},
			{
				"x": -0.7483523057,
				"y": 2.623314852,
				"z": -1.7761761775,
				"element": "C" 
			},
			{
				"x": -1.849993032,
				"y": 3.4192215151,
				"z": -1.4445134883,
				"element": "N" 
			},
			{
				"x": 0.1136100681,
				"y": 2.9930114487,
				"z": -2.8234227006,
				"element": "C" 
			},
			{
				"x": 1.175086386,
				"y": 2.1650160944,
				"z": -3.1842184012,
				"element": "C" 
			},
			{
				"x": 1.4038875587,
				"y": 0.9618926355,
				"z": -2.5206623787,
				"element": "C" 
			},
			{
				"x": -1.5817579261,
				"y": -1.6838173253,
				"z": 2.1234002827,
				"element": "H" 
			},
			{
				"x": -0.3119151564,
				"y": -2.5939351864,
				"z": 2.9760920431,
				"element": "H" 
			},
			{
				"x": -1.3607905549,
				"y": -3.4244329086,
				"z": 1.8271225995,
				"element": "H" 
			},
			{
				"x": 2.8351936014,
				"y": -3.215582988,
				"z": -0.7965311563,
				"element": "H" 
			},
			{
				"x": 1.3403199663,
				"y": -3.9412964744,
				"z": 1.0922492431,
				"element": "H" 
			},
			{
				"x": -1.166932401,
				"y": 1.1002165356,
				"z": -0.2974701051,
				"element": "H" 
			},
			{
				"x": -1.7489262432,
				"y": 4.3999988194,
				"z": -1.6678613184,
				"element": "H" 
			},
			{
				"x": -2.1997684903,
				"y": 3.2853754806,
				"z": -0.5054871607,
				"element": "H" 
			},
			{
				"x": -0.0561681253,
				"y": 3.9273459358,
				"z": -3.3535301319,
				"element": "H" 
			},
			{
				"x": 1.8325414456,
				"y": 2.4672970059,
				"z": -3.9947818349,
				"element": "H" 
			},
			{
				"x": 2.2269984669,
				"y": 0.3135788273,
				"z": -2.7940410988,
				"element": "H" 
			}
		],
		 "valence_orbital": [ 
			{
				"type": "occ",
				"energy": -0.29595,
				"method": "rhf"
			},
			{
				"type": "occ",
				"energy": -0.27677,
				"method": "rhf"
			},
			{
				"type": "occ",
				"energy": -0.24029,
				"method": "rhf"
			},
			{
				"type": "occ",
				"energy": -0.22915,
				"method": "rhf"
			},
			{
				"type": "occ",
				"energy": -0.19623,
				"method": "rhf"
			},
			{
				"type": "unocc",
				"energy": -0.04303,
				"method": "rhf"
			},
			{
				"type": "unocc",
				"energy": -0.02867,
				"method": "rhf"
			},
			{
				"type": "unocc",
				"energy": 0.02229,
				"method": "rhf"
			},
			{
				"type": "unocc",
				"energy": 0.04063,
				"method": "rhf"
			},
			{
				"type": "unocc",
				"energy": 0.0869,
				"method": "rhf"
			}
		],
		"cosmo_sigma_profile": { 
			"-0.025": 0.0,
			"-0.024": 0.0,
			"-0.023": 0.0,
			"-0.022": 0.0,
			"-0.021": 0.0,
			"-0.02": 0.0,
			"-0.019": 0.0,
			"-0.018": 0.0,
			"-0.017": 0.0,
			"-0.016": 0.0,
			"-0.015": 0.0,
			"-0.014": 0.0,
			"-0.013": 0.27206389651,
			"-0.012": 2.23541916036,
			"-0.011": 2.90307841147,
			"-0.01": 2.18776444531,
			"-0.009": 3.50781914598,
			"-0.008": 3.74366712098,
			"-0.007": 6.97220477832,
			"-0.006": 10.028083418,
			"-0.005": 14.2464918112,
			"-0.004": 16.6754195558,
			"-0.003": 15.4876323801,
			"-0.002": 15.0502812278,
			"-0.001": 16.8972253292,
			"0.0": 18.2239903353,
			"0.001": 16.0479270468,
			"0.002": 11.6203488642,
			"0.003": 11.1877076204,
			"0.004": 13.7569873273,
			"0.005": 15.0404715619,
			"0.006": 14.849320663,
			"0.007": 5.024848185,
			"0.008": 4.04078124922,
			"0.009": 4.79706847689,
			"0.01": 2.37102424852,
			"0.011": 1.77688250311,
			"0.012": 1.60720488574,
			"0.013": 0.665078471601,
			"0.014": 0.589526200728,
			"0.015": 0.32490075444,
			"0.016": 0.0,
			"0.017": 0.0,
			"0.018": 0.0,
			"0.019": 0.0,
			"0.02": 0.0,
			"0.021": 0.0,
			"0.022": 0.0,
			"0.023": 0.0,
			"0.024": 0.0,
			"0.025": 0.0
		}
	}
}
