{
	 "smiles": "CC1=CC(=NC2=CC3=NC(=CC(C)=C3C=C12)C1=CC=CC=C1)C1=CC=CC=C1", 
	 "Tm": 557.15, 
	 "num_atms": 48, 
	 "gaussian": { 
		 "optdone": 1, 
		 "sigma_profile": "yes", 
		 "theory": "DFT", 
		 "functional": "B3LYP", 
		 "basiset": "6-31G**", 
		 "properties": { 
			 "R2extent": 16353.804, 
			 "electric_dipole_moment_norm": 3.77768807341, 
			 "electric_quadrupole_moment_norm": 20.6891574364, 
			 "total_energy": -1112.37171484, 
			 "HOMO_LUMO_gap": 0.12801, 
			 "cosmo_polarized_energy": -14.87, 
			 "cosmo_cavitation_energy": 51.24, 
			 "cosmo_dispersion_energy": -36.94, 
			 "cosmo_repulsion_energy": 2.69, 
			 "cosmo_total_nonelectrostatic_energy": 16.99, 
			 "SMD_solvation_energy": 5.62 
		},
		"coords": [
			{
				"x": 1.467425639,
				"y": -3.0247977451,
				"z": 2.6139900499,
				"element": "C" 
			},
			{
				"x": 0.7840270851,
				"y": -1.6848694818,
				"z": 2.5285312587,
				"element": "C" 
			},
			{
				"x": 0.4439711704,
				"y": -0.9898050035,
				"z": 3.6597112646,
				"element": "C" 
			},
			{
				"x": -0.2145071345,
				"y": 0.283325133,
				"z": 3.5793020327,
				"element": "C" 
			},
			{
				"x": -0.5384866606,
				"y": 0.8320814392,
				"z": 2.4255575193,
				"element": "N" 
			},
			{
				"x": -0.2207160459,
				"y": 0.1739258683,
				"z": 1.267508843,
				"element": "C" 
			},
			{
				"x": -0.5706013521,
				"y": 0.7746751928,
				"z": 0.0519443149,
				"element": "C" 
			},
			{
				"x": -0.2758356691,
				"y": 0.1692127362,
				"z": -1.175844614,
				"element": "C" 
			},
			{
				"x": -0.6560301451,
				"y": 0.8173524063,
				"z": -2.3206401545,
				"element": "N" 
			},
			{
				"x": -0.3894572738,
				"y": 0.2614633651,
				"z": -3.4856065498,
				"element": "C" 
			},
			{
				"x": 0.3023146901,
				"y": -0.9919739013,
				"z": -3.5916057793,
				"element": "C" 
			},
			{
				"x": 0.700583779,
				"y": -1.6787550001,
				"z": -2.474444727,
				"element": "C" 
			},
			{
				"x": 1.4340501164,
				"y": -2.989909688,
				"z": -2.5868516127,
				"element": "C" 
			},
			{
				"x": 0.405768436,
				"y": -1.1020884614,
				"z": -1.1898537682,
				"element": "C" 
			},
			{
				"x": 0.7536831137,
				"y": -1.7032226816,
				"z": 0.0268395454,
				"element": "C" 
			},
			{
				"x": 0.4575205798,
				"y": -1.0991913703,
				"z": 1.2557411578,
				"element": "C" 
			},
			{
				"x": -0.8206513851,
				"y": 1.0011521375,
				"z": -4.7034683056,
				"element": "C" 
			},
			{
				"x": -1.1206697854,
				"y": 2.3713568297,
				"z": -4.6083766962,
				"element": "C" 
			},
			{
				"x": -1.523717138,
				"y": 3.0910399648,
				"z": -5.7292958962,
				"element": "C" 
			},
			{
				"x": -1.6433394462,
				"y": 2.4567661863,
				"z": -6.9691281622,
				"element": "C" 
			},
			{
				"x": -1.359851898,
				"y": 1.0946987277,
				"z": -7.0750412362,
				"element": "C" 
			},
			{
				"x": -0.9509477152,
				"y": 0.3734920265,
				"z": -5.9533210123,
				"element": "C" 
			},
			{
				"x": -0.5792768685,
				"y": 1.0335854586,
				"z": 4.8122961574,
				"element": "C" 
			},
			{
				"x": -1.5532353518,
				"y": 2.0449886228,
				"z": 4.7418232572,
				"element": "C" 
			},
			{
				"x": -1.9176909834,
				"y": 2.762288009,
				"z": 5.8773949219,
				"element": "C" 
			},
			{
				"x": -1.3122591128,
				"y": 2.490631004,
				"z": 7.1076232195,
				"element": "C" 
			},
			{
				"x": -0.3358004737,
				"y": 1.4973101962,
				"z": 7.1891662241,
				"element": "C" 
			},
			{
				"x": 0.0266495529,
				"y": 0.7743022096,
				"z": 6.052731405,
				"element": "C" 
			},
			{
				"x": 0.8735347624,
				"y": -3.8076348996,
				"z": 2.1282201395,
				"element": "H" 
			},
			{
				"x": 2.4436771581,
				"y": -3.0063036913,
				"z": 2.115565528,
				"element": "H" 
			},
			{
				"x": 1.6259621835,
				"y": -3.3176205494,
				"z": 3.6545479036,
				"element": "H" 
			},
			{
				"x": 0.6529274893,
				"y": -1.423890799,
				"z": 4.6311983067,
				"element": "H" 
			},
			{
				"x": -1.0814288159,
				"y": 1.7305584284,
				"z": 0.0616267474,
				"element": "H" 
			},
			{
				"x": 0.5390016742,
				"y": -1.3914670274,
				"z": -4.5715352711,
				"element": "H" 
			},
			{
				"x": 1.5810475984,
				"y": -3.2676495136,
				"z": -3.633221908,
				"element": "H" 
			},
			{
				"x": 2.4187727701,
				"y": -2.9388915904,
				"z": -2.1080803642,
				"element": "H" 
			},
			{
				"x": 0.8801698297,
				"y": -3.7992590785,
				"z": -2.0969311445,
				"element": "H" 
			},
			{
				"x": 1.2646859898,
				"y": -2.6592905589,
				"z": 0.0171599329,
				"element": "H" 
			},
			{
				"x": -1.0304229681,
				"y": 2.8499607688,
				"z": -3.6398922922,
				"element": "H" 
			},
			{
				"x": -1.7443249222,
				"y": 4.150853774,
				"z": -5.6373621221,
				"element": "H" 
			},
			{
				"x": -1.9583442422,
				"y": 3.0188978012,
				"z": -7.8436727757,
				"element": "H" 
			},
			{
				"x": -1.461860667,
				"y": 0.5889800423,
				"z": -8.0310504526,
				"element": "H" 
			},
			{
				"x": -0.7598074695,
				"y": -0.689927868,
				"z": -6.0550420818,
				"element": "H" 
			},
			{
				"x": -2.0103689807,
				"y": 2.2505125026,
				"z": 3.7805933579,
				"element": "H" 
			},
			{
				"x": -2.6775524118,
				"y": 3.5353422405,
				"z": 5.8044449941,
				"element": "H" 
			},
			{
				"x": -1.5968245361,
				"y": 3.0510914069,
				"z": 7.9935997885,
				"element": "H" 
			},
			{
				"x": 0.1503254742,
				"y": 1.2867561811,
				"z": 8.1375650062,
				"element": "H" 
			},
			{
				"x": 0.8060103609,
				"y": 0.0236482496,
				"z": 6.1355840501,
				"element": "H" 
			}
		],
		 "valence_orbital": [ 
			{
				"type": "occ",
				"energy": -0.24736,
				"method": "rhf"
			},
			{
				"type": "occ",
				"energy": -0.24627,
				"method": "rhf"
			},
			{
				"type": "occ",
				"energy": -0.24543,
				"method": "rhf"
			},
			{
				"type": "occ",
				"energy": -0.22084,
				"method": "rhf"
			},
			{
				"type": "occ",
				"energy": -0.20612,
				"method": "rhf"
			},
			{
				"type": "unocc",
				"energy": -0.07811,
				"method": "rhf"
			},
			{
				"type": "unocc",
				"energy": -0.04153,
				"method": "rhf"
			},
			{
				"type": "unocc",
				"energy": -0.01469,
				"method": "rhf"
			},
			{
				"type": "unocc",
				"energy": -0.00767,
				"method": "rhf"
			},
			{
				"type": "unocc",
				"energy": 0.00269,
				"method": "rhf"
			}
		],
		"cosmo_sigma_profile": { 
			"-0.025": 0.0,
			"-0.024": 0.0,
			"-0.023": 0.0,
			"-0.022": 0.0,
			"-0.021": 0.0,
			"-0.02": 0.0,
			"-0.019": 0.0,
			"-0.018": 0.0,
			"-0.017": 0.0,
			"-0.016": 0.0,
			"-0.015": 0.0,
			"-0.014": 0.0,
			"-0.013": 0.0,
			"-0.012": 0.0,
			"-0.011": 0.0,
			"-0.01": 0.0,
			"-0.009": 0.00337617923942,
			"-0.008": 1.70982710396,
			"-0.007": 4.78315748985,
			"-0.006": 18.1420980038,
			"-0.005": 35.4195242586,
			"-0.004": 37.411659233,
			"-0.003": 33.8002856484,
			"-0.002": 27.108049579,
			"-0.001": 30.7691711492,
			"0.0": 29.2533856645,
			"0.001": 36.5204336387,
			"0.002": 43.8718397335,
			"0.003": 33.9761226634,
			"0.004": 25.752957492,
			"0.005": 28.3557658802,
			"0.006": 8.07862137255,
			"0.007": 3.78817996935,
			"0.008": 3.99845875145,
			"0.009": 3.01305487849,
			"0.01": 2.05293724066,
			"0.011": 1.5996038913,
			"0.012": 1.20589444758,
			"0.013": 0.908608492687,
			"0.014": 0.000792801690475,
			"0.015": 0.0,
			"0.016": 0.0,
			"0.017": 0.0,
			"0.018": 0.0,
			"0.019": 0.0,
			"0.02": 0.0,
			"0.021": 0.0,
			"0.022": 0.0,
			"0.023": 0.0,
			"0.024": 0.0,
			"0.025": 0.0
		}
	}
}
