{
	 "smiles": "NC1=C(Cl)C=C(F)C(Br)=C1", 
	 "Tm": 345.15, 
	 "num_atms": 14, 
	 "gaussian": { 
		 "optdone": 1, 
		 "sigma_profile": "yes", 
		 "theory": "DFT", 
		 "functional": "B3LYP", 
		 "basiset": "6-31G**", 
		 "properties": { 
			 "R2extent": 3473.789, 
			 "electric_dipole_moment_norm": 2.8862514686, 
			 "electric_quadrupole_moment_norm": 7.80317511209, 
			 "total_energy": -3417.22908015, 
			 "HOMO_LUMO_gap": 0.18835, 
			 "cosmo_polarized_energy": -7.69, 
			 "cosmo_cavitation_energy": 22.8, 
			 "cosmo_dispersion_energy": -17.56, 
			 "cosmo_repulsion_energy": 1.41, 
			 "cosmo_total_nonelectrostatic_energy": 6.65, 
			 "SMD_solvation_energy": 2.95 
		},
		"coords": [
			{
				"x": 1.6274453751,
				"y": 1.2500892282,
				"z": 0.6202055807,
				"element": "N" 
			},
			{
				"x": 0.4628403228,
				"y": 0.5105201932,
				"z": 0.7567906834,
				"element": "C" 
			},
			{
				"x": 0.4018340805,
				"y": -0.6468611858,
				"z": 1.5582191236,
				"element": "C" 
			},
			{
				"x": 1.8187341712,
				"y": -1.1271912589,
				"z": 2.4833654354,
				"element": "Cl" 
			},
			{
				"x": -0.7514531334,
				"y": -1.4205524889,
				"z": 1.6460312591,
				"element": "C" 
			},
			{
				"x": -1.8804115705,
				"y": -1.0489050843,
				"z": 0.9288601651,
				"element": "C" 
			},
			{
				"x": -2.9918415906,
				"y": -1.7992740244,
				"z": 1.0187734006,
				"element": "F" 
			},
			{
				"x": -1.8568946165,
				"y": 0.0920987226,
				"z": 0.1293609817,
				"element": "C" 
			},
			{
				"x": -3.4099540879,
				"y": 0.5920070209,
				"z": -0.8427347638,
				"element": "Br" 
			},
			{
				"x": -0.7002648836,
				"y": 0.859326365,
				"z": 0.046334516,
				"element": "C" 
			},
			{
				"x": 2.3071971142,
				"y": 1.1376268419,
				"z": 1.3590597286,
				"element": "H" 
			},
			{
				"x": 1.5047619881,
				"y": 2.2092662699,
				"z": 0.3304032342,
				"element": "H" 
			},
			{
				"x": -0.7816897067,
				"y": -2.3067611402,
				"z": 2.2685322033,
				"element": "H" 
			},
			{
				"x": -0.6935034626,
				"y": 1.7408105406,
				"z": -0.5857015478,
				"element": "H" 
			}
		],
		 "valence_orbital": [ 
			{
				"type": "occ",
				"energy": -0.32954,
				"method": "rhf"
			},
			{
				"type": "occ",
				"energy": -0.29872,
				"method": "rhf"
			},
			{
				"type": "occ",
				"energy": -0.29323,
				"method": "rhf"
			},
			{
				"type": "occ",
				"energy": -0.25283,
				"method": "rhf"
			},
			{
				"type": "occ",
				"energy": -0.21735,
				"method": "rhf"
			},
			{
				"type": "unocc",
				"energy": -0.029,
				"method": "rhf"
			},
			{
				"type": "unocc",
				"energy": -0.0053,
				"method": "rhf"
			},
			{
				"type": "unocc",
				"energy": -0.00062,
				"method": "rhf"
			},
			{
				"type": "unocc",
				"energy": 0.02357,
				"method": "rhf"
			},
			{
				"type": "unocc",
				"energy": 0.07399,
				"method": "rhf"
			}
		],
		"cosmo_sigma_profile": { 
			"-0.025": 0.0,
			"-0.024": 0.0,
			"-0.023": 0.0,
			"-0.022": 0.0,
			"-0.021": 0.0,
			"-0.02": 0.0,
			"-0.019": 0.0,
			"-0.018": 0.0,
			"-0.017": 0.0,
			"-0.016": 0.0,
			"-0.015": 0.0,
			"-0.014": 0.524744246144,
			"-0.013": 1.84482465666,
			"-0.012": 2.00752367613,
			"-0.011": 3.03548292135,
			"-0.01": 2.76563115043,
			"-0.009": 3.01455197546,
			"-0.008": 4.65410578155,
			"-0.007": 4.42212229847,
			"-0.006": 4.09740393641,
			"-0.005": 5.30520316231,
			"-0.004": 5.82113313032,
			"-0.003": 6.41762352205,
			"-0.002": 7.84253470654,
			"-0.001": 10.3121517588,
			"0.0": 17.5137621421,
			"0.001": 23.5430723205,
			"0.002": 25.0168782099,
			"0.003": 20.369442627,
			"0.004": 27.1057474003,
			"0.005": 7.62326112914,
			"0.006": 1.41149157286,
			"0.007": 0.565165456532,
			"0.008": 0.739465172262,
			"0.009": 0.430383334958,
			"0.01": 0.645839130981,
			"0.011": 0.887897527945,
			"0.012": 0.419132365767,
			"0.013": 0.265791216059,
			"0.014": 0.0,
			"0.015": 0.0,
			"0.016": 0.0,
			"0.017": 0.0,
			"0.018": 0.0,
			"0.019": 0.0,
			"0.02": 0.0,
			"0.021": 0.0,
			"0.022": 0.0,
			"0.023": 0.0,
			"0.024": 0.0,
			"0.025": 0.0
		}
	}
}
