{
	 "smiles": "OC(=O)C1CSC2(CCC(=O)N12)C1=CC=C(F)C=C1", 
	 "Tm": 476.15, 
	 "num_atms": 31, 
	 "gaussian": { 
		 "optdone": 1, 
		 "sigma_profile": "yes", 
		 "theory": "DFT", 
		 "functional": "B3LYP", 
		 "basiset": "6-31G**", 
		 "properties": { 
			 "R2extent": 5943.956, 
			 "electric_dipole_moment_norm": 5.13457032087, 
			 "electric_quadrupole_moment_norm": 13.8796392475, 
			 "total_energy": -1281.0894292, 
			 "HOMO_LUMO_gap": 0.20959, 
			 "cosmo_polarized_energy": -16.25, 
			 "cosmo_cavitation_energy": 35.03, 
			 "cosmo_dispersion_energy": -24.88, 
			 "cosmo_repulsion_energy": 1.83, 
			 "cosmo_total_nonelectrostatic_energy": 11.98, 
			 "SMD_solvation_energy": 7.19 
		},
		"coords": [
			{
				"x": -2.1963701148,
				"y": -3.3629570316,
				"z": 2.1542282243,
				"element": "O" 
			},
			{
				"x": -2.7278373545,
				"y": -2.1376628169,
				"z": 2.1359658949,
				"element": "C" 
			},
			{
				"x": -3.2876220607,
				"y": -1.6529475465,
				"z": 3.0915548284,
				"element": "O" 
			},
			{
				"x": -2.6039803014,
				"y": -1.3960781106,
				"z": 0.7845804121,
				"element": "C" 
			},
			{
				"x": -3.1092721687,
				"y": 0.052462191,
				"z": 0.8584813602,
				"element": "C" 
			},
			{
				"x": -2.1987095199,
				"y": 0.9795805441,
				"z": -0.4406914912,
				"element": "S" 
			},
			{
				"x": -0.6674551513,
				"y": -0.0047870303,
				"z": -0.0210953503,
				"element": "C" 
			},
			{
				"x": 0.2433123641,
				"y": -0.3029367322,
				"z": -1.2491119288,
				"element": "C" 
			},
			{
				"x": 0.6059014629,
				"y": -1.7925907957,
				"z": -1.0835968327,
				"element": "C" 
			},
			{
				"x": -0.5784819307,
				"y": -2.3601242325,
				"z": -0.3170979857,
				"element": "C" 
			},
			{
				"x": -0.928748877,
				"y": -3.5392551126,
				"z": -0.2239158576,
				"element": "O" 
			},
			{
				"x": -1.2180865852,
				"y": -1.3267078046,
				"z": 0.2962467314,
				"element": "N" 
			},
			{
				"x": 0.1011965575,
				"y": 0.6076807866,
				"z": 1.1508347659,
				"element": "C" 
			},
			{
				"x": 0.5722659243,
				"y": 1.9270198765,
				"z": 1.0545666786,
				"element": "C" 
			},
			{
				"x": 1.3143545271,
				"y": 2.5024941182,
				"z": 2.0805338275,
				"element": "C" 
			},
			{
				"x": 1.5803126163,
				"y": 1.7461810188,
				"z": 3.2194848142,
				"element": "C" 
			},
			{
				"x": 2.2944754039,
				"y": 2.3008310828,
				"z": 4.2183359339,
				"element": "F" 
			},
			{
				"x": 1.1272672278,
				"y": 0.4418224959,
				"z": 3.3516318403,
				"element": "C" 
			},
			{
				"x": 0.3891464178,
				"y": -0.1240710909,
				"z": 2.308723369,
				"element": "C" 
			},
			{
				"x": -1.7976473061,
				"y": -3.5976900473,
				"z": 1.2756016067,
				"element": "H" 
			},
			{
				"x": -3.1792045834,
				"y": -1.9727149382,
				"z": 0.0470412008,
				"element": "H" 
			},
			{
				"x": -4.1791753958,
				"y": 0.1169040743,
				"z": 0.6579403976,
				"element": "H" 
			},
			{
				"x": -2.9133597893,
				"y": 0.4718365043,
				"z": 1.8465718659,
				"element": "H" 
			},
			{
				"x": 1.1128520296,
				"y": 0.3548371358,
				"z": -1.2768475537,
				"element": "H" 
			},
			{
				"x": -0.331228558,
				"y": -0.1615955356,
				"z": -2.1686601398,
				"element": "H" 
			},
			{
				"x": 1.5140803437,
				"y": -1.9377434302,
				"z": -0.4868451132,
				"element": "H" 
			},
			{
				"x": 0.7395053089,
				"y": -2.3290109449,
				"z": -2.0249934624,
				"element": "H" 
			},
			{
				"x": 0.3411809906,
				"y": 2.5183869213,
				"z": 0.1732682283,
				"element": "H" 
			},
			{
				"x": 1.6791040312,
				"y": 3.5218027166,
				"z": 2.0161372948,
				"element": "H" 
			},
			{
				"x": 1.3465932067,
				"y": -0.1162112602,
				"z": 4.2551602647,
				"element": "H" 
			},
			{
				"x": 0.0394312844,
				"y": -1.1456550054,
				"z": 2.4090661759,
				"element": "H" 
			}
		],
		 "valence_orbital": [ 
			{
				"type": "occ",
				"energy": -0.28906,
				"method": "rhf"
			},
			{
				"type": "occ",
				"energy": -0.274,
				"method": "rhf"
			},
			{
				"type": "occ",
				"energy": -0.26277,
				"method": "rhf"
			},
			{
				"type": "occ",
				"energy": -0.25928,
				"method": "rhf"
			},
			{
				"type": "occ",
				"energy": -0.24168,
				"method": "rhf"
			},
			{
				"type": "unocc",
				"energy": -0.03209,
				"method": "rhf"
			},
			{
				"type": "unocc",
				"energy": -0.0247,
				"method": "rhf"
			},
			{
				"type": "unocc",
				"energy": -0.01499,
				"method": "rhf"
			},
			{
				"type": "unocc",
				"energy": 0.00278,
				"method": "rhf"
			},
			{
				"type": "unocc",
				"energy": 0.00778,
				"method": "rhf"
			}
		],
		"cosmo_sigma_profile": { 
			"-0.025": 0.0,
			"-0.024": 0.0,
			"-0.023": 0.0,
			"-0.022": 0.0,
			"-0.021": 0.0,
			"-0.02": 0.0,
			"-0.019": 0.0,
			"-0.018": 0.0,
			"-0.017": 0.0,
			"-0.016": 0.0,
			"-0.015": 0.0,
			"-0.014": 0.0,
			"-0.013": 0.0,
			"-0.012": 0.0,
			"-0.011": 0.0,
			"-0.01": 0.548695324218,
			"-0.009": 3.13757002073,
			"-0.008": 6.07581876317,
			"-0.007": 12.8801327167,
			"-0.006": 21.6560517857,
			"-0.005": 26.5565417604,
			"-0.004": 22.6008360505,
			"-0.003": 20.9221020032,
			"-0.002": 15.9192178518,
			"-0.001": 13.1809790758,
			"0.0": 13.5421531358,
			"0.001": 16.3111471272,
			"0.002": 16.2158209802,
			"0.003": 19.7726822117,
			"0.004": 19.1089567278,
			"0.005": 8.58847326812,
			"0.006": 5.99571912655,
			"0.007": 6.23999780036,
			"0.008": 4.72016957317,
			"0.009": 5.7691725653,
			"0.01": 6.50731757776,
			"0.011": 7.44456462576,
			"0.012": 5.55682727262,
			"0.013": 1.58468102352,
			"0.014": 0.0,
			"0.015": 0.0,
			"0.016": 0.0,
			"0.017": 0.0,
			"0.018": 0.0,
			"0.019": 0.0,
			"0.02": 0.0,
			"0.021": 0.0,
			"0.022": 0.0,
			"0.023": 0.0,
			"0.024": 0.0,
			"0.025": 0.0
		}
	}
}
