{
	 "smiles": "ClS(=O)(=O)CC1=CC(Br)=CC=C1", 
	 "Tm": 361.65, 
	 "num_atms": 18, 
	 "gaussian": { 
		 "optdone": 1, 
		 "sigma_profile": "yes", 
		 "theory": "DFT", 
		 "functional": "B3LYP", 
		 "basiset": "6-31G**", 
		 "properties": { 
			 "R2extent": 4657.4703, 
			 "electric_dipole_moment_norm": 3.98937132516, 
			 "electric_quadrupole_moment_norm": 19.1633464437, 
			 "total_energy": -3850.52939436, 
			 "HOMO_LUMO_gap": 0.17017, 
			 "cosmo_polarized_energy": -12.07, 
			 "cosmo_cavitation_energy": 28.19, 
			 "cosmo_dispersion_energy": -21.04, 
			 "cosmo_repulsion_energy": 1.64, 
			 "cosmo_total_nonelectrostatic_energy": 8.79, 
			 "SMD_solvation_energy": 2.18 
		},
		"coords": [
			{
				"x": -2.2216230967,
				"y": -2.0080989364,
				"z": -0.7113446202,
				"element": "Cl" 
			},
			{
				"x": -3.2680011262,
				"y": -0.1556038817,
				"z": -0.6085931861,
				"element": "S" 
			},
			{
				"x": -4.0926102917,
				"y": -0.0610326111,
				"z": -1.8074310661,
				"element": "O" 
			},
			{
				"x": -3.8437250291,
				"y": -0.0571637181,
				"z": 0.727067741,
				"element": "O" 
			},
			{
				"x": -1.87677574,
				"y": 1.0415991604,
				"z": -0.7847197206,
				"element": "C" 
			},
			{
				"x": -0.8843121327,
				"y": 1.0318399961,
				"z": 0.3371516318,
				"element": "C" 
			},
			{
				"x": 0.3787418588,
				"y": 0.4588327869,
				"z": 0.1402005803,
				"element": "C" 
			},
			{
				"x": 1.3057769171,
				"y": 0.4675009316,
				"z": 1.1795123273,
				"element": "C" 
			},
			{
				"x": 3.0291429467,
				"y": -0.3032523414,
				"z": 0.8986211051,
				"element": "Br" 
			},
			{
				"x": 0.9977312445,
				"y": 1.0292912726,
				"z": 2.4172294372,
				"element": "C" 
			},
			{
				"x": -0.2652211191,
				"y": 1.5928932919,
				"z": 2.6091341253,
				"element": "C" 
			},
			{
				"x": -1.20295566,
				"y": 1.5985831229,
				"z": 1.5791326732,
				"element": "C" 
			},
			{
				"x": -1.4393235803,
				"y": 0.8101473271,
				"z": -1.7573762514,
				"element": "H" 
			},
			{
				"x": -2.4236840257,
				"y": 1.987576306,
				"z": -0.8593067004,
				"element": "H" 
			},
			{
				"x": 0.6378878461,
				"y": 0.0120989821,
				"z": -0.8132227864,
				"element": "H" 
			},
			{
				"x": 1.7317710196,
				"y": 1.0265579253,
				"z": 3.2147594523,
				"element": "H" 
			},
			{
				"x": -0.5142759957,
				"y": 2.0308216302,
				"z": 3.5706418117,
				"element": "H" 
			},
			{
				"x": -2.1855440356,
				"y": 2.0301087556,
				"z": 1.739643446,
				"element": "H" 
			}
		],
		 "valence_orbital": [ 
			{
				"type": "occ",
				"energy": -0.32442,
				"method": "rhf"
			},
			{
				"type": "occ",
				"energy": -0.31832,
				"method": "rhf"
			},
			{
				"type": "occ",
				"energy": -0.30011,
				"method": "rhf"
			},
			{
				"type": "occ",
				"energy": -0.28061,
				"method": "rhf"
			},
			{
				"type": "occ",
				"energy": -0.25952,
				"method": "rhf"
			},
			{
				"type": "unocc",
				"energy": -0.08935,
				"method": "rhf"
			},
			{
				"type": "unocc",
				"energy": -0.042,
				"method": "rhf"
			},
			{
				"type": "unocc",
				"energy": -0.03375,
				"method": "rhf"
			},
			{
				"type": "unocc",
				"energy": -0.00743,
				"method": "rhf"
			},
			{
				"type": "unocc",
				"energy": 0.04504,
				"method": "rhf"
			}
		],
		"cosmo_sigma_profile": { 
			"-0.025": 0.0,
			"-0.024": 0.0,
			"-0.023": 0.0,
			"-0.022": 0.0,
			"-0.021": 0.0,
			"-0.02": 0.0,
			"-0.019": 0.0,
			"-0.018": 0.0,
			"-0.017": 0.0,
			"-0.016": 0.0,
			"-0.015": 0.0,
			"-0.014": 0.0,
			"-0.013": 0.252812871729,
			"-0.012": 1.27599786949,
			"-0.011": 3.67536423605,
			"-0.01": 5.3079396154,
			"-0.009": 4.66180942951,
			"-0.008": 5.11500099134,
			"-0.007": 9.79392236713,
			"-0.006": 10.7985652172,
			"-0.005": 8.98107659133,
			"-0.004": 9.34912067288,
			"-0.003": 9.63033976079,
			"-0.002": 8.18838778955,
			"-0.001": 12.9118493782,
			"0.0": 14.829885965,
			"0.001": 21.0226482396,
			"0.002": 28.4342549666,
			"0.003": 25.5141487067,
			"0.004": 19.2176261447,
			"0.005": 7.04214159882,
			"0.006": 3.59308537596,
			"0.007": 4.65192729957,
			"0.008": 10.6432714743,
			"0.009": 6.59141563106,
			"0.01": 0.201183594075,
			"0.011": 0.0,
			"0.012": 0.0,
			"0.013": 0.0,
			"0.014": 0.0,
			"0.015": 0.0,
			"0.016": 0.0,
			"0.017": 0.0,
			"0.018": 0.0,
			"0.019": 0.0,
			"0.02": 0.0,
			"0.021": 0.0,
			"0.022": 0.0,
			"0.023": 0.0,
			"0.024": 0.0,
			"0.025": 0.0
		}
	}
}
