{
	 "smiles": "COC1=CC=C(CN2C=NC=N2)C=C1", 
	 "Tm": 314.65, 
	 "num_atms": 25, 
	 "gaussian": { 
		 "optdone": 1, 
		 "sigma_profile": "yes", 
		 "theory": "DFT", 
		 "functional": "B3LYP", 
		 "basiset": "6-31G**", 
		 "properties": { 
			 "R2extent": 4042.0644, 
			 "electric_dipole_moment_norm": 3.08215295694, 
			 "electric_quadrupole_moment_norm": 18.6458121293, 
			 "total_energy": -627.14215775, 
			 "HOMO_LUMO_gap": 0.21318, 
			 "cosmo_polarized_energy": -12.96, 
			 "cosmo_cavitation_energy": 29.39, 
			 "cosmo_dispersion_energy": -21.2, 
			 "cosmo_repulsion_energy": 1.65, 
			 "cosmo_total_nonelectrostatic_energy": 9.84, 
			 "SMD_solvation_energy": 3.81 
		},
		"coords": [
			{
				"x": 2.4169277048,
				"y": -3.1337850363,
				"z": 0.8887128887,
				"element": "C" 
			},
			{
				"x": 1.0075687941,
				"y": -3.0371064052,
				"z": 1.0264580209,
				"element": "O" 
			},
			{
				"x": 0.4554261152,
				"y": -1.7993534027,
				"z": 1.1759187771,
				"element": "C" 
			},
			{
				"x": -0.9406549132,
				"y": -1.7656722363,
				"z": 1.2987463974,
				"element": "C" 
			},
			{
				"x": -1.595503124,
				"y": -0.5491458945,
				"z": 1.4516470117,
				"element": "C" 
			},
			{
				"x": -0.8825732638,
				"y": 0.656501318,
				"z": 1.4926791222,
				"element": "C" 
			},
			{
				"x": -1.6047894808,
				"y": 1.9756657288,
				"z": 1.6821153015,
				"element": "C" 
			},
			{
				"x": -1.3669458959,
				"y": 2.940029142,
				"z": 0.6080087201,
				"element": "N" 
			},
			{
				"x": -2.034901972,
				"y": 3.1224744105,
				"z": -0.5529770265,
				"element": "C" 
			},
			{
				"x": -1.4487914489,
				"y": 4.0551170751,
				"z": -1.2866944303,
				"element": "N" 
			},
			{
				"x": -0.3899277966,
				"y": 4.4131291059,
				"z": -0.5093977577,
				"element": "C" 
			},
			{
				"x": -0.29141309,
				"y": 3.7697940563,
				"z": 0.6468830472,
				"element": "N" 
			},
			{
				"x": 0.5096489258,
				"y": 0.611064051,
				"z": 1.3723061644,
				"element": "C" 
			},
			{
				"x": 1.1818935182,
				"y": -0.6010987048,
				"z": 1.2113206278,
				"element": "C" 
			},
			{
				"x": 2.7748465906,
				"y": -2.5983682026,
				"z": 0.0000288035,
				"element": "H" 
			},
			{
				"x": 2.938219965,
				"y": -2.7476992008,
				"z": 1.7740731489,
				"element": "H" 
			},
			{
				"x": 2.6362736202,
				"y": -4.1968892646,
				"z": 0.7792151792,
				"element": "H" 
			},
			{
				"x": -1.4876281726,
				"y": -2.702116706,
				"z": 1.2665053928,
				"element": "H" 
			},
			{
				"x": -2.6792759121,
				"y": -0.5390738913,
				"z": 1.5428009913,
				"element": "H" 
			},
			{
				"x": -1.29076503,
				"y": 2.4740411416,
				"z": 2.6034983259,
				"element": "H" 
			},
			{
				"x": -2.6843305252,
				"y": 1.8115361323,
				"z": 1.7439756459,
				"element": "H" 
			},
			{
				"x": -2.9273665575,
				"y": 2.5691731858,
				"z": -0.8116442888,
				"element": "H" 
			},
			{
				"x": 0.3241105512,
				"y": 5.1731164897,
				"z": -0.7959310352,
				"element": "H" 
			},
			{
				"x": 1.0756875582,
				"y": 1.537961607,
				"z": 1.3915410911,
				"element": "H" 
			},
			{
				"x": 2.2612638396,
				"y": -0.6001944991,
				"z": 1.1171098809,
				"element": "H" 
			}
		],
		 "valence_orbital": [ 
			{
				"type": "occ",
				"energy": -0.28406,
				"method": "rhf"
			},
			{
				"type": "occ",
				"energy": -0.27091,
				"method": "rhf"
			},
			{
				"type": "occ",
				"energy": -0.26026,
				"method": "rhf"
			},
			{
				"type": "occ",
				"energy": -0.25747,
				"method": "rhf"
			},
			{
				"type": "occ",
				"energy": -0.22334,
				"method": "rhf"
			},
			{
				"type": "unocc",
				"energy": -0.01016,
				"method": "rhf"
			},
			{
				"type": "unocc",
				"energy": -0.00145,
				"method": "rhf"
			},
			{
				"type": "unocc",
				"energy": 0.01387,
				"method": "rhf"
			},
			{
				"type": "unocc",
				"energy": 0.05697,
				"method": "rhf"
			},
			{
				"type": "unocc",
				"energy": 0.08747,
				"method": "rhf"
			}
		],
		"cosmo_sigma_profile": { 
			"-0.025": 0.0,
			"-0.024": 0.0,
			"-0.023": 0.0,
			"-0.022": 0.0,
			"-0.021": 0.0,
			"-0.02": 0.0,
			"-0.019": 0.0,
			"-0.018": 0.0,
			"-0.017": 0.0,
			"-0.016": 0.0,
			"-0.015": 0.0,
			"-0.014": 0.0,
			"-0.013": 0.0,
			"-0.012": 0.0,
			"-0.011": 0.194029505124,
			"-0.01": 2.60810684715,
			"-0.009": 2.88829626348,
			"-0.008": 5.99271769408,
			"-0.007": 7.62572348437,
			"-0.006": 14.7074186198,
			"-0.005": 20.7460224385,
			"-0.004": 20.7369932828,
			"-0.003": 18.7691587582,
			"-0.002": 13.7925439523,
			"-0.001": 10.3683788124,
			"0.0": 12.7762479774,
			"0.001": 13.4001473921,
			"0.002": 15.38903496,
			"0.003": 13.5368050148,
			"0.004": 14.0681502235,
			"0.005": 16.0796253853,
			"0.006": 4.91998028889,
			"0.007": 4.27674292692,
			"0.008": 4.29767538069,
			"0.009": 4.00146312298,
			"0.01": 3.24527030009,
			"0.011": 2.01303629921,
			"0.012": 2.40811016135,
			"0.013": 1.69770853088,
			"0.014": 1.4728030391,
			"0.015": 1.46190524619,
			"0.016": 0.952967804389,
			"0.017": 0.479869459794,
			"0.018": 0.0,
			"0.019": 0.0,
			"0.02": 0.0,
			"0.021": 0.0,
			"0.022": 0.0,
			"0.023": 0.0,
			"0.024": 0.0,
			"0.025": 0.0
		}
	}
}
