{
	 "smiles": "COC1=CC=C(I)C(=C1)[N+]([O-])=O", 
	 "Tm": 335.15, 
	 "num_atms": 18, 
	 "gaussian": { 
		 "optdone": 1, 
		 "sigma_profile": "no", 
		 "theory": "DFT", 
		 "functional": "B3LYP", 
		 "basiset": "6-31G**", 
		 "properties": { 
			 "R2extent": 2544.3231, 
			 "electric_dipole_moment_norm": 4.41179687769, 
			 "electric_quadrupole_moment_norm": 14.7345995819, 
			 "total_energy": -562.039017355, 
			 "HOMO_LUMO_gap": 0.16092, 
			 "cosmo_polarized_energy": -92160.74, 
			 "cosmo_cavitation_energy": 26.64, 
			 "cosmo_dispersion_energy": -20.26, 
			 "cosmo_repulsion_energy": 1.59, 
			 "cosmo_total_nonelectrostatic_energy": 7.98, 
			 "SMD_solvation_energy": 7.24 
		},
		"coords": [
			{
				"x": -2.1647011541,
				"y": 1.759650807,
				"z": 0.3293018671,
				"element": "C" 
			},
			{
				"x": -1.2357720376,
				"y": 1.3852131943,
				"z": -0.6817989411,
				"element": "O" 
			},
			{
				"x": -0.2613097022,
				"y": 0.4956969328,
				"z": -0.3689233148,
				"element": "C" 
			},
			{
				"x": 0.6262852647,
				"y": 0.1633570861,
				"z": -1.4056446698,
				"element": "C" 
			},
			{
				"x": 1.6583839987,
				"y": -0.737597684,
				"z": -1.1883606403,
				"element": "C" 
			},
			{
				"x": 1.8374649431,
				"y": -1.3345946182,
				"z": 0.0680206322,
				"element": "C" 
			},
			{
				"x": 3.4171194958,
				"y": -2.6999181111,
				"z": 0.3621409071,
				"element": "I" 
			},
			{
				"x": 0.9485686888,
				"y": -0.9923283844,
				"z": 1.0804606919,
				"element": "C" 
			},
			{
				"x": -0.0975977692,
				"y": -0.0899440963,
				"z": 0.8901338275,
				"element": "C" 
			},
			{
				"x": 1.0685073991,
				"y": -1.5770095838,
				"z": 2.4336884999,
				"element": "N" 
			},
			{
				"x": 1.7589687915,
				"y": -0.9656494396,
				"z": 3.2413256706,
				"element": "O" 
			},
			{
				"x": 0.447182734,
				"y": -2.6121703474,
				"z": 2.6462289518,
				"element": "O" 
			},
			{
				"x": -2.8447858456,
				"y": 2.4712443575,
				"z": -0.1394463597,
				"element": "H" 
			},
			{
				"x": -1.6623510424,
				"y": 2.2425620939,
				"z": 1.176475359,
				"element": "H" 
			},
			{
				"x": -2.7361562626,
				"y": 0.8951370267,
				"z": 0.6889183633,
				"element": "H" 
			},
			{
				"x": 0.4865097638,
				"y": 0.6258487099,
				"z": -2.3766215011,
				"element": "H" 
			},
			{
				"x": 2.3349317771,
				"y": -0.9835928605,
				"z": -1.9989657141,
				"element": "H" 
			},
			{
				"x": -0.756249043,
				"y": 0.1351949171,
				"z": 1.7190663705,
				"element": "H" 
			}
		],
		 "valence_orbital": [ 
			{
				"type": "occ",
				"energy": -0.30881,
				"method": "rhf"
			},
			{
				"type": "occ",
				"energy": -0.28928,
				"method": "rhf"
			},
			{
				"type": "occ",
				"energy": -0.27846,
				"method": "rhf"
			},
			{
				"type": "occ",
				"energy": -0.27497,
				"method": "rhf"
			},
			{
				"type": "occ",
				"energy": -0.23804,
				"method": "rhf"
			},
			{
				"type": "unocc",
				"energy": -0.07712,
				"method": "rhf"
			},
			{
				"type": "unocc",
				"energy": -0.04956,
				"method": "rhf"
			},
			{
				"type": "unocc",
				"energy": -0.03686,
				"method": "rhf"
			},
			{
				"type": "unocc",
				"energy": -0.02496,
				"method": "rhf"
			},
			{
				"type": "unocc",
				"energy": 0.04996,
				"method": "rhf"
			}
		],
		"cosmo_sigma_profile": { 
			"0.0": 0.0,
			"0.0": 0.0,
			"0.0": 0.0,
			"0.0": 0.0,
			"0.0": 0.0,
			"0.0": 0.0,
			"0.0": 0.0,
			"0.0": 0.0,
			"0.0": 0.0,
			"0.0": 0.0,
			"0.0": 0.0,
			"0.0": 0.0,
			"0.0": 0.0,
			"0.0": 0.0,
			"0.0": 0.0,
			"0.0": 0.0,
			"0.0": 0.0,
			"0.0": 0.0,
			"0.0": 0.0,
			"0.0": 0.0,
			"0.0": 0.0,
			"0.0": 0.0,
			"0.0": 0.0,
			"0.0": 0.0,
			"0.0": 0.0,
			"0.0": 0.0,
			"0.0": 0.0,
			"0.0": 0.0,
			"0.0": 0.0,
			"0.0": 0.0,
			"0.0": 0.0,
			"0.0": 0.0,
			"0.0": 0.0,
			"0.0": 0.0,
			"0.0": 0.0,
			"0.0": 0.0,
			"0.0": 0.0,
			"0.0": 0.0,
			"0.0": 0.0,
			"0.0": 0.0,
			"0.0": 0.0,
			"0.0": 0.0,
			"0.0": 0.0,
			"0.0": 0.0,
			"0.0": 0.0,
			"0.0": 0.0,
			"0.0": 0.0,
			"0.0": 0.0,
			"0.0": 0.0,
			"0.0": 0.0,
			"0.0": 0.0
		}
	}
}
