{
	 "smiles": "CON(C(=O)OC)C1=CC=CC=C1COC1=NN(C=C1)C1=CC=C(Cl)C=C1", 
	 "Tm": 337.6, 
	 "num_atms": 45, 
	 "gaussian": { 
		 "optdone": 1, 
		 "sigma_profile": "yes", 
		 "theory": "DFT", 
		 "functional": "B3LYP", 
		 "basiset": "6-31G**", 
		 "properties": { 
			 "R2extent": 15248.3286, 
			 "electric_dipole_moment_norm": 3.98487257136, 
			 "electric_quadrupole_moment_norm": 16.5726266243, 
			 "total_energy": -1660.11894334, 
			 "HOMO_LUMO_gap": 0.18081, 
			 "cosmo_polarized_energy": -21.05, 
			 "cosmo_cavitation_energy": 51.35, 
			 "cosmo_dispersion_energy": -34.18, 
			 "cosmo_repulsion_energy": 2.58, 
			 "cosmo_total_nonelectrostatic_energy": 19.75, 
			 "SMD_solvation_energy": 10.63 
		},
		"coords": [
			{
				"x": 3.3721025984,
				"y": 3.502437511,
				"z": 2.1975677492,
				"element": "C" 
			},
			{
				"x": 2.9503887311,
				"y": 2.4369484427,
				"z": 1.3461182007,
				"element": "O" 
			},
			{
				"x": 1.61635607,
				"y": 2.0788892325,
				"z": 1.6573804374,
				"element": "N" 
			},
			{
				"x": 0.6471074117,
				"y": 2.4665475892,
				"z": 0.7267471148,
				"element": "C" 
			},
			{
				"x": -0.4577035826,
				"y": 1.9645644467,
				"z": 0.6899687576,
				"element": "O" 
			},
			{
				"x": 1.0703106467,
				"y": 3.4914039261,
				"z": -0.0286172065,
				"element": "O" 
			},
			{
				"x": 0.147423707,
				"y": 3.8737220042,
				"z": -1.0645754053,
				"element": "C" 
			},
			{
				"x": 1.5189132655,
				"y": 0.7720104318,
				"z": 2.2431669215,
				"element": "C" 
			},
			{
				"x": 0.8701035911,
				"y": 0.6588756523,
				"z": 3.4725699055,
				"element": "C" 
			},
			{
				"x": 0.7712139028,
				"y": -0.5775694534,
				"z": 4.1115645524,
				"element": "C" 
			},
			{
				"x": 1.3392392836,
				"y": -1.7045201322,
				"z": 3.5210036125,
				"element": "C" 
			},
			{
				"x": 1.9786969834,
				"y": -1.5906226269,
				"z": 2.2848204523,
				"element": "C" 
			},
			{
				"x": 2.0699812732,
				"y": -0.3647433893,
				"z": 1.6179687152,
				"element": "C" 
			},
			{
				"x": 2.7903693334,
				"y": -0.2914325398,
				"z": 0.2856362282,
				"element": "C" 
			},
			{
				"x": 2.0695402355,
				"y": 0.3940674268,
				"z": -0.7440959009,
				"element": "O" 
			},
			{
				"x": 1.0634136324,
				"y": -0.2651088573,
				"z": -1.3627344375,
				"element": "C" 
			},
			{
				"x": 0.498362337,
				"y": 0.33341423,
				"z": -2.402317097,
				"element": "N" 
			},
			{
				"x": -0.4664859723,
				"y": -0.5394930376,
				"z": -2.8154029984,
				"element": "N" 
			},
			{
				"x": -0.4882258247,
				"y": -1.6692994725,
				"z": -2.050846767,
				"element": "C" 
			},
			{
				"x": 0.4887993838,
				"y": -1.5356265231,
				"z": -1.0897012569,
				"element": "C" 
			},
			{
				"x": -1.265083502,
				"y": -0.2243848466,
				"z": -3.9374946397,
				"element": "C" 
			},
			{
				"x": -2.4893134479,
				"y": -0.8707860169,
				"z": -4.1473091936,
				"element": "C" 
			},
			{
				"x": -3.2575689801,
				"y": -0.5675008323,
				"z": -5.2692427658,
				"element": "C" 
			},
			{
				"x": -2.8079633405,
				"y": 0.3960813689,
				"z": -6.1704983418,
				"element": "C" 
			},
			{
				"x": -3.7806923195,
				"y": 0.7851857778,
				"z": -7.5821840287,
				"element": "Cl" 
			},
			{
				"x": -1.5987096347,
				"y": 1.0589116843,
				"z": -5.9606667436,
				"element": "C" 
			},
			{
				"x": -0.8252678564,
				"y": 0.7460082607,
				"z": -4.846489424,
				"element": "C" 
			},
			{
				"x": 4.4125452227,
				"y": 3.6932269498,
				"z": 1.92239199,
				"element": "H" 
			},
			{
				"x": 3.3160315654,
				"y": 3.2159046946,
				"z": 3.2545183071,
				"element": "H" 
			},
			{
				"x": 2.7734093785,
				"y": 4.4022348119,
				"z": 2.022564052,
				"element": "H" 
			},
			{
				"x": -0.8171076002,
				"y": 4.1594142225,
				"z": -0.6380310087,
				"element": "H" 
			},
			{
				"x": 0.612964097,
				"y": 4.7234651497,
				"z": -1.5643813919,
				"element": "H" 
			},
			{
				"x": 0.0082717046,
				"y": 3.0439118104,
				"z": -1.761502697,
				"element": "H" 
			},
			{
				"x": 0.4462039687,
				"y": 1.553394957,
				"z": 3.9163290061,
				"element": "H" 
			},
			{
				"x": 0.26262696,
				"y": -0.6542802359,
				"z": 5.0677790753,
				"element": "H" 
			},
			{
				"x": 1.2800872674,
				"y": -2.6709637687,
				"z": 4.0128309784,
				"element": "H" 
			},
			{
				"x": 2.4121285938,
				"y": -2.4746054209,
				"z": 1.8221978353,
				"element": "H" 
			},
			{
				"x": 3.7083086352,
				"y": 0.2896188897,
				"z": 0.3898444854,
				"element": "H" 
			},
			{
				"x": 3.0507832151,
				"y": -1.3028485451,
				"z": -0.0501959913,
				"element": "H" 
			},
			{
				"x": -1.1680389687,
				"y": -2.482931181,
				"z": -2.2509418099,
				"element": "H" 
			},
			{
				"x": 0.7265700037,
				"y": -2.2304849858,
				"z": -0.3014022765,
				"element": "H" 
			},
			{
				"x": -2.8619384404,
				"y": -1.593855828,
				"z": -3.4302831206,
				"element": "H" 
			},
			{
				"x": -4.2065028808,
				"y": -1.0657789972,
				"z": -5.4326456308,
				"element": "H" 
			},
			{
				"x": -1.2602616154,
				"y": 1.8084785341,
				"z": -6.66735326,
				"element": "H" 
			},
			{
				"x": 0.1197109677,
				"y": 1.2428186859,
				"z": -4.6661549831,
				"element": "H" 
			}
		],
		 "valence_orbital": [ 
			{
				"type": "occ",
				"energy": -0.25831,
				"method": "rhf"
			},
			{
				"type": "occ",
				"energy": -0.25265,
				"method": "rhf"
			},
			{
				"type": "occ",
				"energy": -0.24341,
				"method": "rhf"
			},
			{
				"type": "occ",
				"energy": -0.24146,
				"method": "rhf"
			},
			{
				"type": "occ",
				"energy": -0.20898,
				"method": "rhf"
			},
			{
				"type": "unocc",
				"energy": -0.02817,
				"method": "rhf"
			},
			{
				"type": "unocc",
				"energy": -0.02331,
				"method": "rhf"
			},
			{
				"type": "unocc",
				"energy": -0.01638,
				"method": "rhf"
			},
			{
				"type": "unocc",
				"energy": -0.01191,
				"method": "rhf"
			},
			{
				"type": "unocc",
				"energy": 0.03089,
				"method": "rhf"
			}
		],
		"cosmo_sigma_profile": { 
			"-0.025": 0.0,
			"-0.024": 0.0,
			"-0.023": 0.0,
			"-0.022": 0.0,
			"-0.021": 0.0,
			"-0.02": 0.0,
			"-0.019": 0.0,
			"-0.018": 0.0,
			"-0.017": 0.0,
			"-0.016": 0.0,
			"-0.015": 0.0,
			"-0.014": 0.0,
			"-0.013": 0.0,
			"-0.012": 0.0,
			"-0.011": 0.185803120207,
			"-0.01": 2.2275398531,
			"-0.009": 2.53475380277,
			"-0.008": 6.10158508192,
			"-0.007": 13.3779421493,
			"-0.006": 26.9942969076,
			"-0.005": 29.483599434,
			"-0.004": 32.786434061,
			"-0.003": 32.2448166171,
			"-0.002": 25.13381881,
			"-0.001": 24.7826449952,
			"0.0": 27.1548105193,
			"0.001": 27.1028629781,
			"0.002": 35.7386386095,
			"0.003": 37.0969843427,
			"0.004": 29.1745222973,
			"0.005": 17.6515504124,
			"0.006": 7.08195368176,
			"0.007": 5.75622569133,
			"0.008": 5.15274568672,
			"0.009": 5.88528505442,
			"0.01": 6.13659701081,
			"0.011": 5.4356745025,
			"0.012": 5.37552288531,
			"0.013": 2.23720561074,
			"0.014": 0.0,
			"0.015": 0.0,
			"0.016": 0.0,
			"0.017": 0.0,
			"0.018": 0.0,
			"0.019": 0.0,
			"0.02": 0.0,
			"0.021": 0.0,
			"0.022": 0.0,
			"0.023": 0.0,
			"0.024": 0.0,
			"0.025": 0.0
		}
	}
}
