{
	 "smiles": "CCOC(=O)CC(=O)C1=CC=NC=C1", 
	 "Tm": 329.15, 
	 "num_atms": 25, 
	 "gaussian": { 
		 "optdone": 1, 
		 "sigma_profile": "yes", 
		 "theory": "DFT", 
		 "functional": "B3LYP", 
		 "basiset": "6-31G**", 
		 "properties": { 
			 "R2extent": 3288.2702, 
			 "electric_dipole_moment_norm": 2.03056253043, 
			 "electric_quadrupole_moment_norm": 11.0284234313, 
			 "total_energy": -668.120216402, 
			 "HOMO_LUMO_gap": 0.17992, 
			 "cosmo_polarized_energy": -11.53, 
			 "cosmo_cavitation_energy": 29.82, 
			 "cosmo_dispersion_energy": -20.65, 
			 "cosmo_repulsion_energy": 1.65, 
			 "cosmo_total_nonelectrostatic_energy": 10.82, 
			 "SMD_solvation_energy": 5.37 
		},
		"coords": [
			{
				"x": -1.0384801775,
				"y": 3.606904875,
				"z": -0.5083092863,
				"element": "C" 
			},
			{
				"x": -2.2785041877,
				"y": 2.7563527426,
				"z": -0.2830728739,
				"element": "C" 
			},
			{
				"x": -1.9663888912,
				"y": 1.3405249305,
				"z": -0.3744481948,
				"element": "O" 
			},
			{
				"x": -1.5141631151,
				"y": 0.7464382036,
				"z": 0.7426961094,
				"element": "C" 
			},
			{
				"x": -1.3720936755,
				"y": 1.3026082282,
				"z": 1.8123702388,
				"element": "O" 
			},
			{
				"x": -1.1970193252,
				"y": -0.7202225481,
				"z": 0.479312279,
				"element": "C" 
			},
			{
				"x": 0.0886306452,
				"y": -0.9185599162,
				"z": -0.339342665,
				"element": "C" 
			},
			{
				"x": 0.0232130509,
				"y": -1.311456489,
				"z": -1.4896253884,
				"element": "O" 
			},
			{
				"x": 1.4171766387,
				"y": -0.650508524,
				"z": 0.3084438034,
				"element": "C" 
			},
			{
				"x": 1.560668519,
				"y": -0.1614296332,
				"z": 1.6128760377,
				"element": "C" 
			},
			{
				"x": 2.851713742,
				"y": 0.0392329001,
				"z": 2.1083409145,
				"element": "C" 
			},
			{
				"x": 3.9663201207,
				"y": -0.2126168309,
				"z": 1.4132586891,
				"element": "N" 
			},
			{
				"x": 3.8169330435,
				"y": -0.679332272,
				"z": 0.1644108985,
				"element": "C" 
			},
			{
				"x": 2.5797911141,
				"y": -0.9114072043,
				"z": -0.4293505602,
				"element": "C" 
			},
			{
				"x": -1.3137881837,
				"y": 4.6666630759,
				"z": -0.5119663898,
				"element": "H" 
			},
			{
				"x": -0.5723518826,
				"y": 3.369499513,
				"z": -1.4688161448,
				"element": "H" 
			},
			{
				"x": -0.3094986735,
				"y": 3.4464803174,
				"z": 0.2898622397,
				"element": "H" 
			},
			{
				"x": -3.0242060327,
				"y": 2.9156790471,
				"z": -1.0647737239,
				"element": "H" 
			},
			{
				"x": -2.7253683817,
				"y": 2.9535132536,
				"z": 0.6939466855,
				"element": "H" 
			},
			{
				"x": -2.0023821795,
				"y": -1.1642871959,
				"z": -0.1078381269,
				"element": "H" 
			},
			{
				"x": -1.1172789895,
				"y": -1.2201828115,
				"z": 1.447135986,
				"element": "H" 
			},
			{
				"x": 0.7029019858,
				"y": 0.0847239834,
				"z": 2.2289270703,
				"element": "H" 
			},
			{
				"x": 2.9919189126,
				"y": 0.4222849488,
				"z": 3.1173593525,
				"element": "H" 
			},
			{
				"x": 4.7351620484,
				"y": -0.8769523346,
				"z": -0.3853421904,
				"element": "H" 
			},
			{
				"x": 2.4962938746,
				"y": -1.2894502596,
				"z": -1.4421547602,
				"element": "H" 
			}
		],
		 "valence_orbital": [ 
			{
				"type": "occ",
				"energy": -0.29518,
				"method": "rhf"
			},
			{
				"type": "occ",
				"energy": -0.29171,
				"method": "rhf"
			},
			{
				"type": "occ",
				"energy": -0.27176,
				"method": "rhf"
			},
			{
				"type": "occ",
				"energy": -0.26869,
				"method": "rhf"
			},
			{
				"type": "occ",
				"energy": -0.26083,
				"method": "rhf"
			},
			{
				"type": "unocc",
				"energy": -0.08091,
				"method": "rhf"
			},
			{
				"type": "unocc",
				"energy": -0.02043,
				"method": "rhf"
			},
			{
				"type": "unocc",
				"energy": -0.00701,
				"method": "rhf"
			},
			{
				"type": "unocc",
				"energy": 0.02355,
				"method": "rhf"
			},
			{
				"type": "unocc",
				"energy": 0.09709,
				"method": "rhf"
			}
		],
		"cosmo_sigma_profile": { 
			"-0.025": 0.0,
			"-0.024": 0.0,
			"-0.023": 0.0,
			"-0.022": 0.0,
			"-0.021": 0.0,
			"-0.02": 0.0,
			"-0.019": 0.0,
			"-0.018": 0.0,
			"-0.017": 0.0,
			"-0.016": 0.0,
			"-0.015": 0.0,
			"-0.014": 0.0,
			"-0.013": 0.0,
			"-0.012": 0.0,
			"-0.011": 0.0,
			"-0.01": 0.0,
			"-0.009": 0.0411750352005,
			"-0.008": 3.24992316307,
			"-0.007": 9.62703242719,
			"-0.006": 15.0899350316,
			"-0.005": 17.6171835593,
			"-0.004": 24.351467182,
			"-0.003": 19.6377889511,
			"-0.002": 17.4103898271,
			"-0.001": 19.4339214523,
			"0.0": 22.0727721468,
			"0.001": 21.1419118978,
			"0.002": 8.81059160105,
			"0.003": 6.66472210411,
			"0.004": 7.27640072227,
			"0.005": 5.28981132647,
			"0.006": 5.3376468598,
			"0.007": 5.51384780144,
			"0.008": 5.03856876683,
			"0.009": 4.86800696883,
			"0.01": 6.91004341007,
			"0.011": 7.48698845211,
			"0.012": 1.61728830782,
			"0.013": 0.596985497061,
			"0.014": 1.09822266329,
			"0.015": 0.855464431623,
			"0.016": 0.434460967259,
			"0.017": 0.00194139348941,
			"0.018": 0.0,
			"0.019": 0.0,
			"0.02": 0.0,
			"0.021": 0.0,
			"0.022": 0.0,
			"0.023": 0.0,
			"0.024": 0.0,
			"0.025": 0.0
		}
	}
}
