{
	 "smiles": "COC(=O)C=CC1=CC=C(C=C1)[N+]([O-])=O", 
	 "Tm": 435.15, 
	 "num_atms": 24, 
	 "gaussian": { 
		 "optdone": 1, 
		 "sigma_profile": "yes", 
		 "theory": "DFT", 
		 "functional": "B3LYP", 
		 "basiset": "6-31G**", 
		 "properties": { 
			 "R2extent": 5929.2546, 
			 "electric_dipole_moment_norm": 4.18442964572, 
			 "electric_quadrupole_moment_norm": 21.4736701518, 
			 "total_energy": -742.030696361, 
			 "HOMO_LUMO_gap": 0.15341, 
			 "cosmo_polarized_energy": -12.89, 
			 "cosmo_cavitation_energy": 30.5, 
			 "cosmo_dispersion_energy": -22.08, 
			 "cosmo_repulsion_energy": 1.71, 
			 "cosmo_total_nonelectrostatic_energy": 10.13, 
			 "SMD_solvation_energy": 9.24 
		},
		"coords": [
			{
				"x": 0.9175804028,
				"y": 2.7414260756,
				"z": 5.2429707739,
				"element": "C" 
			},
			{
				"x": 0.6858117398,
				"y": 1.5910024132,
				"z": 4.4150466636,
				"element": "O" 
			},
			{
				"x": 0.3888890831,
				"y": 1.8618199832,
				"z": 3.1229266663,
				"element": "C" 
			},
			{
				"x": 0.3170393443,
				"y": 2.9881420583,
				"z": 2.6694762822,
				"element": "O" 
			},
			{
				"x": 0.1705209303,
				"y": 0.608717015,
				"z": 2.3652830222,
				"element": "C" 
			},
			{
				"x": -0.1365621573,
				"y": 0.6618812551,
				"z": 1.0575059944,
				"element": "C" 
			},
			{
				"x": -0.3848548464,
				"y": -0.4639162838,
				"z": 0.1553370085,
				"element": "C" 
			},
			{
				"x": -0.6921376092,
				"y": -0.1901340078,
				"z": -1.1915791797,
				"element": "C" 
			},
			{
				"x": -0.9382542156,
				"y": -1.2140410654,
				"z": -2.0993850452,
				"element": "C" 
			},
			{
				"x": -0.8753185332,
				"y": -2.5305417438,
				"z": -1.6497658988,
				"element": "C" 
			},
			{
				"x": -0.5742097683,
				"y": -2.8438334838,
				"z": -0.3230782573,
				"element": "C" 
			},
			{
				"x": -0.3311082164,
				"y": -1.8106058113,
				"z": 0.5704638185,
				"element": "C" 
			},
			{
				"x": -1.1334590793,
				"y": -3.6231570734,
				"z": -2.5995075971,
				"element": "N" 
			},
			{
				"x": -1.0705904864,
				"y": -4.7758230417,
				"z": -2.1725634189,
				"element": "O" 
			},
			{
				"x": -1.3963808004,
				"y": -3.3176380299,
				"z": -3.7622252659,
				"element": "O" 
			},
			{
				"x": 0.0310572367,
				"y": 3.3801395141,
				"z": 5.2708618651,
				"element": "H" 
			},
			{
				"x": 1.1399930052,
				"y": 2.3505208503,
				"z": 6.2356563748,
				"element": "H" 
			},
			{
				"x": 1.7590690119,
				"y": 3.3259784058,
				"z": 4.8623747839,
				"element": "H" 
			},
			{
				"x": 0.2722398783,
				"y": -0.318657081,
				"z": 2.9190328966,
				"element": "H" 
			},
			{
				"x": -0.2088927672,
				"y": 1.6553168786,
				"z": 0.6180506134,
				"element": "H" 
			},
			{
				"x": -0.7371093618,
				"y": 0.8422360358,
				"z": -1.5254974582,
				"element": "H" 
			},
			{
				"x": -1.1752534701,
				"y": -1.0148448327,
				"z": -3.136854635,
				"element": "H" 
			},
			{
				"x": -0.5364348791,
				"y": -3.8821390182,
				"z": -0.0185362115,
				"element": "H" 
			},
			{
				"x": -0.0971344417,
				"y": -2.0520490121,
				"z": 1.6017062042,
				"element": "H" 
			}
		],
		 "valence_orbital": [ 
			{
				"type": "occ",
				"energy": -0.30808,
				"method": "rhf"
			},
			{
				"type": "occ",
				"energy": -0.29496,
				"method": "rhf"
			},
			{
				"type": "occ",
				"energy": -0.28683,
				"method": "rhf"
			},
			{
				"type": "occ",
				"energy": -0.28282,
				"method": "rhf"
			},
			{
				"type": "occ",
				"energy": -0.26013,
				"method": "rhf"
			},
			{
				"type": "unocc",
				"energy": -0.10672,
				"method": "rhf"
			},
			{
				"type": "unocc",
				"energy": -0.05766,
				"method": "rhf"
			},
			{
				"type": "unocc",
				"energy": -0.03436,
				"method": "rhf"
			},
			{
				"type": "unocc",
				"energy": 0.01527,
				"method": "rhf"
			},
			{
				"type": "unocc",
				"energy": 0.07469,
				"method": "rhf"
			}
		],
		"cosmo_sigma_profile": { 
			"-0.025": 0.0,
			"-0.024": 0.0,
			"-0.023": 0.0,
			"-0.022": 0.0,
			"-0.021": 0.0,
			"-0.02": 0.0,
			"-0.019": 0.0,
			"-0.018": 0.0,
			"-0.017": 0.0,
			"-0.016": 0.0,
			"-0.015": 0.0,
			"-0.014": 0.0,
			"-0.013": 0.0,
			"-0.012": 0.0,
			"-0.011": 0.0,
			"-0.01": 0.6106328605,
			"-0.009": 2.92691070465,
			"-0.008": 6.59522262356,
			"-0.007": 10.5607833432,
			"-0.006": 14.4650208464,
			"-0.005": 15.4970655926,
			"-0.004": 17.0493461966,
			"-0.003": 18.2434810074,
			"-0.002": 17.5572748347,
			"-0.001": 20.8736363624,
			"0.0": 22.3481171241,
			"0.001": 24.2242754693,
			"0.002": 10.6205636162,
			"0.003": 6.00151014619,
			"0.004": 5.45787482697,
			"0.005": 5.95991021793,
			"0.006": 6.03687851996,
			"0.007": 11.2617618152,
			"0.008": 10.0584936644,
			"0.009": 6.17999776961,
			"0.01": 4.03251314622,
			"0.011": 3.03156780341,
			"0.012": 4.60183541954,
			"0.013": 0.392327421908,
			"0.014": 0.0,
			"0.015": 0.0,
			"0.016": 0.0,
			"0.017": 0.0,
			"0.018": 0.0,
			"0.019": 0.0,
			"0.02": 0.0,
			"0.021": 0.0,
			"0.022": 0.0,
			"0.023": 0.0,
			"0.024": 0.0,
			"0.025": 0.0
		}
	}
}
