{
	 "smiles": "OC(=O)CCNC(=O)C12CC3CC(CC(C3)C1)C2", 
	 "Tm": 459.15, 
	 "num_atms": 39, 
	 "gaussian": { 
		 "optdone": 1, 
		 "sigma_profile": "yes", 
		 "theory": "DFT", 
		 "functional": "B3LYP", 
		 "basiset": "6-31G**", 
		 "properties": { 
			 "R2extent": 6704.0282, 
			 "electric_dipole_moment_norm": 5.02618251161, 
			 "electric_quadrupole_moment_norm": 23.244988621, 
			 "total_energy": -826.626909729, 
			 "HOMO_LUMO_gap": 0.25575, 
			 "cosmo_polarized_energy": -20.41, 
			 "cosmo_cavitation_energy": 37.42, 
			 "cosmo_dispersion_energy": -27.24, 
			 "cosmo_repulsion_energy": 2.1, 
			 "cosmo_total_nonelectrostatic_energy": 12.29, 
			 "SMD_solvation_energy": 5.92 
		},
		"coords": [
			{
				"x": -3.1610376254,
				"y": 5.2770708961,
				"z": -0.8284306495,
				"element": "O" 
			},
			{
				"x": -2.7904826047,
				"y": 4.4488139774,
				"z": 0.1846377222,
				"element": "C" 
			},
			{
				"x": -3.0480850075,
				"y": 4.7391281289,
				"z": 1.3270940262,
				"element": "O" 
			},
			{
				"x": -2.0305505453,
				"y": 3.2001677192,
				"z": -0.2345872622,
				"element": "C" 
			},
			{
				"x": -1.9005071556,
				"y": 2.1998428705,
				"z": 0.9202382066,
				"element": "C" 
			},
			{
				"x": -1.0410938376,
				"y": 1.0702982054,
				"z": 0.5904543989,
				"element": "N" 
			},
			{
				"x": -1.4393662158,
				"y": 0.0983553573,
				"z": -0.2864471075,
				"element": "C" 
			},
			{
				"x": -2.5048048027,
				"y": 0.1938772713,
				"z": -0.8923621269,
				"element": "O" 
			},
			{
				"x": -0.485539558,
				"y": -1.0978518403,
				"z": -0.4605389193,
				"element": "C" 
			},
			{
				"x": -0.3259523333,
				"y": -1.8715981817,
				"z": 0.87909788,
				"element": "C" 
			},
			{
				"x": 0.6036943977,
				"y": -3.0877078062,
				"z": 0.6849045917,
				"element": "C" 
			},
			{
				"x": 0.0020437382,
				"y": -4.0321381392,
				"z": -0.3754123793,
				"element": "C" 
			},
			{
				"x": -0.1422993885,
				"y": -3.2765431283,
				"z": -1.7122551062,
				"element": "C" 
			},
			{
				"x": 1.2453038451,
				"y": -2.796773852,
				"z": -2.1846012775,
				"element": "C" 
			},
			{
				"x": 1.8480025382,
				"y": -1.8507613259,
				"z": -1.1263735832,
				"element": "C" 
			},
			{
				"x": 1.9903675791,
				"y": -2.6022383059,
				"z": 0.2136651545,
				"element": "C" 
			},
			{
				"x": 0.9201352585,
				"y": -0.632492908,
				"z": -0.9344165036,
				"element": "C" 
			},
			{
				"x": -1.070071381,
				"y": -2.0610465545,
				"z": -1.5200399239,
				"element": "C" 
			},
			{
				"x": -2.9154931113,
				"y": 4.8890704007,
				"z": -1.6804439993,
				"element": "H" 
			},
			{
				"x": -2.5294477341,
				"y": 2.7077133095,
				"z": -1.0763415418,
				"element": "H" 
			},
			{
				"x": -1.0350777995,
				"y": 3.5063465337,
				"z": -0.5847312631,
				"element": "H" 
			},
			{
				"x": -2.897249877,
				"y": 1.8325965905,
				"z": 1.1834356459,
				"element": "H" 
			},
			{
				"x": -1.4931135375,
				"y": 2.7032416423,
				"z": 1.7989019103,
				"element": "H" 
			},
			{
				"x": -0.1825586197,
				"y": 0.9519046395,
				"z": 1.1043670849,
				"element": "H" 
			},
			{
				"x": 0.0865443712,
				"y": -1.2157261336,
				"z": 1.657477619,
				"element": "H" 
			},
			{
				"x": -1.3118343818,
				"y": -2.1984290223,
				"z": 1.2330416086,
				"element": "H" 
			},
			{
				"x": 0.7031731667,
				"y": -3.6179130012,
				"z": 1.6405126992,
				"element": "H" 
			},
			{
				"x": -0.9772475109,
				"y": -4.3988923768,
				"z": -0.041668386,
				"element": "H" 
			},
			{
				"x": 0.6460899337,
				"y": -4.9118981764,
				"z": -0.503358026,
				"element": "H" 
			},
			{
				"x": -0.5773671482,
				"y": -3.9437891721,
				"z": -2.4667417797,
				"element": "H" 
			},
			{
				"x": 1.9111354841,
				"y": -3.6550214674,
				"z": -2.3432878806,
				"element": "H" 
			},
			{
				"x": 1.1576154119,
				"y": -2.278297509,
				"z": -3.1483022187,
				"element": "H" 
			},
			{
				"x": 2.8331881711,
				"y": -1.5005871101,
				"z": -1.459793679,
				"element": "H" 
			},
			{
				"x": 2.4391842778,
				"y": -1.945025162,
				"z": 0.970808182,
				"element": "H" 
			},
			{
				"x": 2.6678205076,
				"y": -3.4574704655,
				"z": 0.0945424698,
				"element": "H" 
			},
			{
				"x": 0.8248864235,
				"y": -0.0751900617,
				"z": -1.8751391683,
				"element": "H" 
			},
			{
				"x": 1.3685630567,
				"y": 0.0553279204,
				"z": -0.20506525,
				"element": "H" 
			},
			{
				"x": -2.0693855564,
				"y": -2.3810759722,
				"z": -1.2070806797,
				"element": "H" 
			},
			{
				"x": -1.2043824295,
				"y": -1.5237877906,
				"z": -2.4652604885,
				"element": "H" 
			}
		],
		 "valence_orbital": [ 
			{
				"type": "occ",
				"energy": -0.28565,
				"method": "rhf"
			},
			{
				"type": "occ",
				"energy": -0.28541,
				"method": "rhf"
			},
			{
				"type": "occ",
				"energy": -0.27287,
				"method": "rhf"
			},
			{
				"type": "occ",
				"energy": -0.25514,
				"method": "rhf"
			},
			{
				"type": "occ",
				"energy": -0.24429,
				"method": "rhf"
			},
			{
				"type": "unocc",
				"energy": 0.01146,
				"method": "rhf"
			},
			{
				"type": "unocc",
				"energy": 0.02258,
				"method": "rhf"
			},
			{
				"type": "unocc",
				"energy": 0.04968,
				"method": "rhf"
			},
			{
				"type": "unocc",
				"energy": 0.05965,
				"method": "rhf"
			},
			{
				"type": "unocc",
				"energy": 0.07735,
				"method": "rhf"
			}
		],
		"cosmo_sigma_profile": { 
			"-0.025": 0.0,
			"-0.024": 0.0,
			"-0.023": 0.0,
			"-0.022": 0.0,
			"-0.021": 0.0,
			"-0.02": 0.0,
			"-0.019": 0.647971790073,
			"-0.018": 0.858563223776,
			"-0.017": 1.03821576215,
			"-0.016": 1.52494269371,
			"-0.015": 0.972272687992,
			"-0.014": 0.787915070056,
			"-0.013": 2.10014353003,
			"-0.012": 3.10278887612,
			"-0.011": 2.50521639879,
			"-0.01": 2.84444669745,
			"-0.009": 1.83883706833,
			"-0.008": 3.39136995209,
			"-0.007": 5.98414319171,
			"-0.006": 5.79420659966,
			"-0.005": 6.89746334834,
			"-0.004": 8.81939918971,
			"-0.003": 12.2259770324,
			"-0.002": 40.5185753,
			"-0.001": 46.2786049828,
			"0.0": 41.0135185732,
			"0.001": 29.9159727333,
			"0.002": 11.7854493347,
			"0.003": 3.73250437743,
			"0.004": 3.24861458845,
			"0.005": 4.52552545487,
			"0.006": 4.26402117553,
			"0.007": 4.38492784394,
			"0.008": 3.5033624228,
			"0.009": 4.82925837961,
			"0.01": 6.06722396741,
			"0.011": 7.56999287439,
			"0.012": 6.20451188985,
			"0.013": 4.01540055817,
			"0.014": 3.7744986484,
			"0.015": 1.30909577456,
			"0.016": 0.0222481122949,
			"0.017": 0.0,
			"0.018": 0.0,
			"0.019": 0.0,
			"0.02": 0.0,
			"0.021": 0.0,
			"0.022": 0.0,
			"0.023": 0.0,
			"0.024": 0.0,
			"0.025": 0.0
		}
	}
}
