{
	 "smiles": "OC1(CCN(CCCC(C2=CC=C(F)C=C2)C2=CC=C(F)C=C2)CC1)C1=CC(=C(Cl)C=C1)C(F)(F)F", 
	 "Tm": 379.15, 
	 "num_atms": 63, 
	 "gaussian": { 
		 "optdone": 1, 
		 "sigma_profile": "yes", 
		 "theory": "DFT", 
		 "functional": "B3LYP", 
		 "basiset": "6-31G**", 
		 "properties": { 
			 "R2extent": 26365.8553, 
			 "electric_dipole_moment_norm": 3.3067718246, 
			 "electric_quadrupole_moment_norm": 23.8239893859, 
			 "total_energy": -2172.60077396, 
			 "HOMO_LUMO_gap": 0.16076, 
			 "cosmo_polarized_energy": -14.91, 
			 "cosmo_cavitation_energy": 67.31, 
			 "cosmo_dispersion_energy": -42.9, 
			 "cosmo_repulsion_energy": 3.12, 
			 "cosmo_total_nonelectrostatic_energy": 27.53, 
			 "SMD_solvation_energy": 9.83 
		},
		"coords": [
			{
				"x": 0.7818238007,
				"y": -3.3190990262,
				"z": 3.3310228851,
				"element": "O" 
			},
			{
				"x": 1.1592602023,
				"y": -2.0805280286,
				"z": 2.7127663339,
				"element": "C" 
			},
			{
				"x": 2.1835080052,
				"y": -2.3577929896,
				"z": 1.5670239882,
				"element": "C" 
			},
			{
				"x": 1.8285946486,
				"y": -1.6529616739,
				"z": 0.2535076514,
				"element": "C" 
			},
			{
				"x": 0.5341819243,
				"y": -2.1151308583,
				"z": -0.2285609457,
				"element": "N" 
			},
			{
				"x": 0.1089942007,
				"y": -1.557895725,
				"z": -1.5029471202,
				"element": "C" 
			},
			{
				"x": -0.2314877358,
				"y": -0.0483325473,
				"z": -1.5368183512,
				"element": "C" 
			},
			{
				"x": -0.6852732028,
				"y": 0.4176542549,
				"z": -2.9428698655,
				"element": "C" 
			},
			{
				"x": -2.1889428573,
				"y": 0.7707697617,
				"z": -3.1161783726,
				"element": "C" 
			},
			{
				"x": -2.6146890438,
				"y": 2.0997953912,
				"z": -2.4887144078,
				"element": "C" 
			},
			{
				"x": -1.7733856972,
				"y": 2.8884502251,
				"z": -1.6941637972,
				"element": "C" 
			},
			{
				"x": -2.1982042998,
				"y": 4.115944278,
				"z": -1.1761861263,
				"element": "C" 
			},
			{
				"x": -3.481746429,
				"y": 4.5556741379,
				"z": -1.4631356905,
				"element": "C" 
			},
			{
				"x": -3.9012081174,
				"y": 5.739829039,
				"z": -0.9689587163,
				"element": "F" 
			},
			{
				"x": -4.3495412501,
				"y": 3.805688014,
				"z": -2.251232574,
				"element": "C" 
			},
			{
				"x": -3.9071097947,
				"y": 2.5858276512,
				"z": -2.7548540026,
				"element": "C" 
			},
			{
				"x": -3.0886294388,
				"y": -0.39936341,
				"z": -2.7120610562,
				"element": "C" 
			},
			{
				"x": -3.6852553156,
				"y": -0.4904769096,
				"z": -1.4461043619,
				"element": "C" 
			},
			{
				"x": -4.4596894082,
				"y": -1.5953238874,
				"z": -1.0861870661,
				"element": "C" 
			},
			{
				"x": -4.6400332817,
				"y": -2.6167180527,
				"z": -2.0106958169,
				"element": "C" 
			},
			{
				"x": -5.3921792935,
				"y": -3.6853126363,
				"z": -1.6729196934,
				"element": "F" 
			},
			{
				"x": -4.0743869913,
				"y": -2.5610275859,
				"z": -3.2793994697,
				"element": "C" 
			},
			{
				"x": -3.3035407427,
				"y": -1.449248527,
				"z": -3.6179515566,
				"element": "C" 
			},
			{
				"x": -0.5114054215,
				"y": -2.2488653887,
				"z": 0.8032035695,
				"element": "C" 
			},
			{
				"x": -0.1517512926,
				"y": -1.5277477947,
				"z": 2.1061109665,
				"element": "C" 
			},
			{
				"x": 1.6878924583,
				"y": -1.1117623347,
				"z": 3.7782924357,
				"element": "C" 
			},
			{
				"x": 2.4589466404,
				"y": 0.0063515637,
				"z": 3.4406024166,
				"element": "C" 
			},
			{
				"x": 2.9093837356,
				"y": 0.9134694615,
				"z": 4.4038586374,
				"element": "C" 
			},
			{
				"x": 2.5745322877,
				"y": 0.692430665,
				"z": 5.7486009257,
				"element": "C" 
			},
			{
				"x": 3.1025599877,
				"y": 1.773832145,
				"z": 7.0238702303,
				"element": "Cl" 
			},
			{
				"x": 1.8028263368,
				"y": -0.4115748877,
				"z": 6.1034962841,
				"element": "C" 
			},
			{
				"x": 1.3625229318,
				"y": -1.3013786304,
				"z": 5.1253798819,
				"element": "C" 
			},
			{
				"x": 3.7431156187,
				"y": 2.0966279517,
				"z": 3.9674777734,
				"element": "C" 
			},
			{
				"x": 3.1577579551,
				"y": 3.2698207365,
				"z": 4.2835192265,
				"element": "F" 
			},
			{
				"x": 3.9321120093,
				"y": 2.0996987787,
				"z": 2.6271302338,
				"element": "F" 
			},
			{
				"x": 4.9662698573,
				"y": 2.0887232701,
				"z": 4.5358587075,
				"element": "F" 
			},
			{
				"x": 1.5917148923,
				"y": -3.7758897354,
				"z": 3.5976481215,
				"element": "H" 
			},
			{
				"x": 2.1616769828,
				"y": -3.4361567923,
				"z": 1.3765690543,
				"element": "H" 
			},
			{
				"x": 3.200613738,
				"y": -2.0940022135,
				"z": 1.8745398944,
				"element": "H" 
			},
			{
				"x": 2.5856942304,
				"y": -1.8952162921,
				"z": -0.5037929627,
				"element": "H" 
			},
			{
				"x": 1.8848805752,
				"y": -0.555779023,
				"z": 0.3979777621,
				"element": "H" 
			},
			{
				"x": 0.9060200487,
				"y": -1.749532002,
				"z": -2.2360509903,
				"element": "H" 
			},
			{
				"x": -0.7642987369,
				"y": -2.1243671005,
				"z": -1.8480587288,
				"element": "H" 
			},
			{
				"x": 0.6507189614,
				"y": 0.5238449512,
				"z": -1.2269252324,
				"element": "H" 
			},
			{
				"x": -1.0076809381,
				"y": 0.1611018282,
				"z": -0.7924806749,
				"element": "H" 
			},
			{
				"x": -0.0975700901,
				"y": 1.2832441707,
				"z": -3.2687872273,
				"element": "H" 
			},
			{
				"x": -0.4596216728,
				"y": -0.3762216024,
				"z": -3.6661772812,
				"element": "H" 
			},
			{
				"x": -2.3290002913,
				"y": 0.8981036187,
				"z": -4.199074927,
				"element": "H" 
			},
			{
				"x": -0.7660763132,
				"y": 2.55824874,
				"z": -1.4681033996,
				"element": "H" 
			},
			{
				"x": -1.5463111379,
				"y": 4.7262587934,
				"z": -0.5603963041,
				"element": "H" 
			},
			{
				"x": -5.3454667189,
				"y": 4.1812167958,
				"z": -2.4606123822,
				"element": "H" 
			},
			{
				"x": -4.5808587332,
				"y": 1.9938384455,
				"z": -3.3685173269,
				"element": "H" 
			},
			{
				"x": -3.5614191572,
				"y": 0.3206115595,
				"z": -0.7357039344,
				"element": "H" 
			},
			{
				"x": -4.9274578509,
				"y": -1.6672657393,
				"z": -0.1100413139,
				"element": "H" 
			},
			{
				"x": -4.2460514232,
				"y": -3.3710163125,
				"z": -3.9801661306,
				"element": "H" 
			},
			{
				"x": -2.8619647443,
				"y": -1.396872651,
				"z": -4.6103327441,
				"element": "H" 
			},
			{
				"x": -0.6823338674,
				"y": -3.3105301967,
				"z": 1.0298463337,
				"element": "H" 
			},
			{
				"x": -1.4583572951,
				"y": -1.8522806665,
				"z": 0.4208066128,
				"element": "H" 
			},
			{
				"x": -0.0417794372,
				"y": -0.4534311396,
				"z": 1.9242301008,
				"element": "H" 
			},
			{
				"x": -0.9469418599,
				"y": -1.6530207052,
				"z": 2.848261419,
				"element": "H" 
			},
			{
				"x": 2.7255602707,
				"y": 0.1940694362,
				"z": 2.4076877972,
				"element": "H" 
			},
			{
				"x": 1.5496914514,
				"y": -0.5686826426,
				"z": 7.1461946011,
				"element": "H" 
			},
			{
				"x": 0.7608961301,
				"y": -2.1590199558,
				"z": 5.4045767066,
				"element": "H" 
			}
		],
		 "valence_orbital": [ 
			{
				"type": "occ",
				"energy": -0.26084,
				"method": "rhf"
			},
			{
				"type": "occ",
				"energy": -0.2525,
				"method": "rhf"
			},
			{
				"type": "occ",
				"energy": -0.2483,
				"method": "rhf"
			},
			{
				"type": "occ",
				"energy": -0.23368,
				"method": "rhf"
			},
			{
				"type": "occ",
				"energy": -0.1973,
				"method": "rhf"
			},
			{
				"type": "unocc",
				"energy": -0.03654,
				"method": "rhf"
			},
			{
				"type": "unocc",
				"energy": -0.02815,
				"method": "rhf"
			},
			{
				"type": "unocc",
				"energy": -0.02216,
				"method": "rhf"
			},
			{
				"type": "unocc",
				"energy": -0.00848,
				"method": "rhf"
			},
			{
				"type": "unocc",
				"energy": -0.00633,
				"method": "rhf"
			}
		],
		"cosmo_sigma_profile": { 
			"-0.025": 0.0,
			"-0.024": 0.0,
			"-0.023": 0.0,
			"-0.022": 0.0,
			"-0.021": 0.0,
			"-0.02": 0.0,
			"-0.019": 0.0,
			"-0.018": 0.0,
			"-0.017": 0.0,
			"-0.016": 0.143157553735,
			"-0.015": 0.788000635821,
			"-0.014": 1.07237250849,
			"-0.013": 1.08261840315,
			"-0.012": 0.189689261641,
			"-0.011": 1.09978296703,
			"-0.01": 1.14171481332,
			"-0.009": 0.749269399632,
			"-0.008": 1.55265411532,
			"-0.007": 7.16261111468,
			"-0.006": 16.2613847166,
			"-0.005": 24.2566970788,
			"-0.004": 32.0688775451,
			"-0.003": 43.6282562435,
			"-0.002": 52.7176909502,
			"-0.001": 49.6587434661,
			"0.0": 52.0046683752,
			"0.001": 52.2834132195,
			"0.002": 56.1613662506,
			"0.003": 58.2291309742,
			"0.004": 46.1151960477,
			"0.005": 21.0332755139,
			"0.006": 2.61502305533,
			"0.007": 2.25434586594,
			"0.008": 1.66142065928,
			"0.009": 1.16705973462,
			"0.01": 1.77104440757,
			"0.011": 1.65459838157,
			"0.012": 1.87083079496,
			"0.013": 1.14138682084,
			"0.014": 0.516391768751,
			"0.015": 0.38617809526,
			"0.016": 0.0334100356665,
			"0.017": 0.0,
			"0.018": 0.0,
			"0.019": 0.0,
			"0.02": 0.0,
			"0.021": 0.0,
			"0.022": 0.0,
			"0.023": 0.0,
			"0.024": 0.0,
			"0.025": 0.0
		}
	}
}
