{
	 "smiles": "SC1=NC(C2=CC=CS2)=C(N1)C1=CC=CS1", 
	 "Tm": 567.15, 
	 "num_atms": 24, 
	 "gaussian": { 
		 "optdone": 1, 
		 "sigma_profile": "yes", 
		 "theory": "DFT", 
		 "functional": "B3LYP", 
		 "basiset": "6-31G**", 
		 "properties": { 
			 "R2extent": 6733.3184, 
			 "electric_dipole_moment_norm": 1.93856145118, 
			 "electric_quadrupole_moment_norm": 12.8738555736, 
			 "total_energy": -1728.02734791, 
			 "HOMO_LUMO_gap": 0.1469, 
			 "cosmo_polarized_energy": -13.32, 
			 "cosmo_cavitation_energy": 33.55, 
			 "cosmo_dispersion_energy": -25.73, 
			 "cosmo_repulsion_energy": 1.87, 
			 "cosmo_total_nonelectrostatic_energy": 9.7, 
			 "SMD_solvation_energy": 3.57 
		},
		"coords": [
			{
				"x": -1.2034760831,
				"y": -5.071394273,
				"z": -1.6374074091,
				"element": "S" 
			},
			{
				"x": -1.0859726648,
				"y": -3.5266443605,
				"z": -0.779443809,
				"element": "C" 
			},
			{
				"x": -1.6654227453,
				"y": -2.4027965681,
				"z": -1.1208886295,
				"element": "N" 
			},
			{
				"x": -1.2919810521,
				"y": -1.4722771434,
				"z": -0.1590352722,
				"element": "C" 
			},
			{
				"x": -1.8475259697,
				"y": -0.1296393773,
				"z": -0.2551233275,
				"element": "C" 
			},
			{
				"x": -2.6707791614,
				"y": 0.3120019277,
				"z": -1.2681965103,
				"element": "C" 
			},
			{
				"x": -3.1121910619,
				"y": 1.6544530126,
				"z": -1.0999422,
				"element": "C" 
			},
			{
				"x": -2.6282476868,
				"y": 2.2320501453,
				"z": 0.0410899568,
				"element": "C" 
			},
			{
				"x": -1.6165387227,
				"y": 1.1393828246,
				"z": 0.9329123283,
				"element": "S" 
			},
			{
				"x": -0.4511441703,
				"y": -2.0684772055,
				"z": 0.7759938017,
				"element": "C" 
			},
			{
				"x": -0.3513350153,
				"y": -3.3976696605,
				"z": 0.3603921675,
				"element": "N" 
			},
			{
				"x": 0.2454304119,
				"y": -1.6151324923,
				"z": 1.9671739686,
				"element": "C" 
			},
			{
				"x": 1.0425527709,
				"y": -0.5079841253,
				"z": 2.1462269931,
				"element": "C" 
			},
			{
				"x": 1.5860221687,
				"y": -0.404249091,
				"z": 3.4597754302,
				"element": "C" 
			},
			{
				"x": 1.2177922764,
				"y": -1.4393875581,
				"z": 4.2742103512,
				"element": "C" 
			},
			{
				"x": 0.1657296112,
				"y": -2.5494676593,
				"z": 3.4586884039,
				"element": "S" 
			},
			{
				"x": -1.9586266416,
				"y": -4.5538962998,
				"z": -2.6232101768,
				"element": "H" 
			},
			{
				"x": -2.9445260232,
				"y": -0.3301934355,
				"z": -2.095447237,
				"element": "H" 
			},
			{
				"x": -3.7625804449,
				"y": 2.1671236171,
				"z": -1.7997078363,
				"element": "H" 
			},
			{
				"x": -2.7966024645,
				"y": 3.2322077433,
				"z": 0.4157465474,
				"element": "H" 
			},
			{
				"x": 0.2482415243,
				"y": -4.0906096538,
				"z": 0.7835973734,
				"element": "H" 
			},
			{
				"x": 1.2477638967,
				"y": 0.1968584465,
				"z": 1.3498750809,
				"element": "H" 
			},
			{
				"x": 2.2389069574,
				"y": 0.4005265288,
				"z": 3.7777349971,
				"element": "H" 
			},
			{
				"x": 1.4971102902,
				"y": -1.6168853427,
				"z": 5.3034850074,
				"element": "H" 
			}
		],
		 "valence_orbital": [ 
			{
				"type": "occ",
				"energy": -0.25868,
				"method": "rhf"
			},
			{
				"type": "occ",
				"energy": -0.25322,
				"method": "rhf"
			},
			{
				"type": "occ",
				"energy": -0.24303,
				"method": "rhf"
			},
			{
				"type": "occ",
				"energy": -0.23281,
				"method": "rhf"
			},
			{
				"type": "occ",
				"energy": -0.18919,
				"method": "rhf"
			},
			{
				"type": "unocc",
				"energy": -0.04229,
				"method": "rhf"
			},
			{
				"type": "unocc",
				"energy": -0.00817,
				"method": "rhf"
			},
			{
				"type": "unocc",
				"energy": 0.00134,
				"method": "rhf"
			},
			{
				"type": "unocc",
				"energy": 0.01317,
				"method": "rhf"
			},
			{
				"type": "unocc",
				"energy": 0.03358,
				"method": "rhf"
			}
		],
		"cosmo_sigma_profile": { 
			"-0.025": 0.0,
			"-0.024": 0.0,
			"-0.023": 0.0,
			"-0.022": 0.0,
			"-0.021": 0.0,
			"-0.02": 0.0,
			"-0.019": 0.0,
			"-0.018": 0.0,
			"-0.017": 0.534710588542,
			"-0.016": 1.41911075621,
			"-0.015": 0.700110965501,
			"-0.014": 1.20940254184,
			"-0.013": 1.4125754008,
			"-0.012": 1.77698287294,
			"-0.011": 2.73585144501,
			"-0.01": 2.56849559725,
			"-0.009": 3.13163320248,
			"-0.008": 6.48512735084,
			"-0.007": 8.19941927623,
			"-0.006": 10.4636656502,
			"-0.005": 13.4279804334,
			"-0.004": 15.0500911265,
			"-0.003": 14.9151016134,
			"-0.002": 13.3416663694,
			"-0.001": 12.4886530095,
			"0.0": 15.8955533088,
			"0.001": 23.0305302872,
			"0.002": 25.5734023,
			"0.003": 26.656131308,
			"0.004": 30.4406579077,
			"0.005": 23.1731853854,
			"0.006": 10.3447249316,
			"0.007": 4.02525832519,
			"0.008": 2.2377659535,
			"0.009": 1.03782616202,
			"0.01": 1.71736708336,
			"0.011": 1.30712026346,
			"0.012": 1.57660351642,
			"0.013": 0.152126115336,
			"0.014": 0.0,
			"0.015": 0.0,
			"0.016": 0.0,
			"0.017": 0.0,
			"0.018": 0.0,
			"0.019": 0.0,
			"0.02": 0.0,
			"0.021": 0.0,
			"0.022": 0.0,
			"0.023": 0.0,
			"0.024": 0.0,
			"0.025": 0.0
		}
	}
}
