{
	 "smiles": "CC1=CN=C(Cl)C(=C1)[N+]([O-])=O", 
	 "Tm": 321.15, 
	 "num_atms": 16, 
	 "gaussian": { 
		 "optdone": 1, 
		 "sigma_profile": "yes", 
		 "theory": "DFT", 
		 "functional": "B3LYP", 
		 "basiset": "6-31G**", 
		 "properties": { 
			 "R2extent": 2970.7131, 
			 "electric_dipole_moment_norm": 5.16963776294, 
			 "electric_quadrupole_moment_norm": 12.30863446, 
			 "total_energy": -951.681063892, 
			 "HOMO_LUMO_gap": 0.17752, 
			 "cosmo_polarized_energy": -10.44, 
			 "cosmo_cavitation_energy": 23.03, 
			 "cosmo_dispersion_energy": -17.1, 
			 "cosmo_repulsion_energy": 1.38, 
			 "cosmo_total_nonelectrostatic_energy": 7.31, 
			 "SMD_solvation_energy": 4.79 
		},
		"coords": [
			{
				"x": -0.4846190185,
				"y": 2.5066534719,
				"z": -0.079127083,
				"element": "C" 
			},
			{
				"x": 0.3141495857,
				"y": 1.251736932,
				"z": -0.3190274652,
				"element": "C" 
			},
			{
				"x": 0.1864512815,
				"y": 0.5059258115,
				"z": -1.4959058661,
				"element": "C" 
			},
			{
				"x": 0.8561404043,
				"y": -0.622946544,
				"z": -1.7487942637,
				"element": "N" 
			},
			{
				"x": 1.7249709263,
				"y": -1.0726127026,
				"z": -0.8602530535,
				"element": "C" 
			},
			{
				"x": 2.4957554062,
				"y": -2.5864001605,
				"z": -1.2552416667,
				"element": "Cl" 
			},
			{
				"x": 1.9527150788,
				"y": -0.3916349657,
				"z": 0.3495320956,
				"element": "C" 
			},
			{
				"x": 1.2242137701,
				"y": 0.762915461,
				"z": 0.6198283928,
				"element": "C" 
			},
			{
				"x": 2.9274848081,
				"y": -0.8134977705,
				"z": 1.3709253621,
				"element": "N" 
			},
			{
				"x": 2.6484095737,
				"y": -0.540873163,
				"z": 2.5390673815,
				"element": "O" 
			},
			{
				"x": 3.9526347629,
				"y": -1.3699317379,
				"z": 0.9970435448,
				"element": "O" 
			},
			{
				"x": 0.1706502048,
				"y": 3.3720874459,
				"z": 0.0666021472,
				"element": "H" 
			},
			{
				"x": -1.1072239407,
				"y": 2.4143871433,
				"z": 0.8172026364,
				"element": "H" 
			},
			{
				"x": -1.1427165076,
				"y": 2.72234014,
				"z": -0.9246117169,
				"element": "H" 
			},
			{
				"x": -0.498710244,
				"y": 0.8305916649,
				"z": -2.2769595952,
				"element": "H" 
			},
			{
				"x": 1.3875939084,
				"y": 1.2625589737,
				"z": 1.5685191497,
				"element": "H" 
			}
		],
		 "valence_orbital": [ 
			{
				"type": "occ",
				"energy": -0.3201,
				"method": "rhf"
			},
			{
				"type": "occ",
				"energy": -0.31301,
				"method": "rhf"
			},
			{
				"type": "occ",
				"energy": -0.29618,
				"method": "rhf"
			},
			{
				"type": "occ",
				"energy": -0.29043,
				"method": "rhf"
			},
			{
				"type": "occ",
				"energy": -0.2763,
				"method": "rhf"
			},
			{
				"type": "unocc",
				"energy": -0.09878,
				"method": "rhf"
			},
			{
				"type": "unocc",
				"energy": -0.05692,
				"method": "rhf"
			},
			{
				"type": "unocc",
				"energy": -0.02642,
				"method": "rhf"
			},
			{
				"type": "unocc",
				"energy": 0.01905,
				"method": "rhf"
			},
			{
				"type": "unocc",
				"energy": 0.08731,
				"method": "rhf"
			}
		],
		"cosmo_sigma_profile": { 
			"-0.025": 0.0,
			"-0.024": 0.0,
			"-0.023": 0.0,
			"-0.022": 0.0,
			"-0.021": 0.0,
			"-0.02": 0.0,
			"-0.019": 0.0,
			"-0.018": 0.0,
			"-0.017": 0.0,
			"-0.016": 0.0,
			"-0.015": 0.0,
			"-0.014": 0.0,
			"-0.013": 0.0,
			"-0.012": 0.0,
			"-0.011": 0.0,
			"-0.01": 0.0,
			"-0.009": 1.40785076484,
			"-0.008": 6.3663524024,
			"-0.007": 6.12248272533,
			"-0.006": 9.45830813978,
			"-0.005": 13.3264093804,
			"-0.004": 13.0884806445,
			"-0.003": 17.0184941638,
			"-0.002": 20.1616816054,
			"-0.001": 17.1272169136,
			"0.0": 7.66430698227,
			"0.001": 7.52102921704,
			"0.002": 7.74605314465,
			"0.003": 11.4477365392,
			"0.004": 6.44619852427,
			"0.005": 6.7761425899,
			"0.006": 7.37461232932,
			"0.007": 12.3587258521,
			"0.008": 7.8354630509,
			"0.009": 4.27658537905,
			"0.01": 0.835897921431,
			"0.011": 1.299655599,
			"0.012": 0.93241921282,
			"0.013": 0.440603021095,
			"0.014": 0.0961617049443,
			"0.015": 0.0,
			"0.016": 0.0,
			"0.017": 0.0,
			"0.018": 0.0,
			"0.019": 0.0,
			"0.02": 0.0,
			"0.021": 0.0,
			"0.022": 0.0,
			"0.023": 0.0,
			"0.024": 0.0,
			"0.025": 0.0
		}
	}
}
