{
	 "smiles": "NNC1=CC=CC=C1", 
	 "Tm": 292.45, 
	 "num_atms": 16, 
	 "gaussian": { 
		 "optdone": 1, 
		 "sigma_profile": "yes", 
		 "theory": "DFT", 
		 "functional": "B3LYP", 
		 "basiset": "6-31G**", 
		 "properties": { 
			 "R2extent": 1337.6567, 
			 "electric_dipole_moment_norm": 2.84162388433, 
			 "electric_quadrupole_moment_norm": 8.24067272921, 
			 "total_energy": -342.924131683, 
			 "HOMO_LUMO_gap": 0.2063, 
			 "cosmo_polarized_energy": -10.04, 
			 "cosmo_cavitation_energy": 19.38, 
			 "cosmo_dispersion_energy": -14.76, 
			 "cosmo_repulsion_energy": 1.25, 
			 "cosmo_total_nonelectrostatic_energy": 5.86, 
			 "SMD_solvation_energy": 3.92 
		},
		"coords": [
			{
				"x": -1.3849483435,
				"y": -2.1229355094,
				"z": 0.0212727777,
				"element": "N" 
			},
			{
				"x": -0.3449845039,
				"y": -1.6850453332,
				"z": 0.8669495973,
				"element": "N" 
			},
			{
				"x": 0.7268165057,
				"y": -1.0043169681,
				"z": 0.2663925595,
				"element": "C" 
			},
			{
				"x": 0.6006430796,
				"y": -0.3716802732,
				"z": -0.9798960027,
				"element": "C" 
			},
			{
				"x": 1.6756215323,
				"y": 0.3421572831,
				"z": -1.5079699328,
				"element": "C" 
			},
			{
				"x": 2.8858838759,
				"y": 0.4408106753,
				"z": -0.8183105851,
				"element": "C" 
			},
			{
				"x": 3.0101887928,
				"y": -0.1921156,
				"z": 0.4207667649,
				"element": "C" 
			},
			{
				"x": 1.9461424176,
				"y": -0.9110380286,
				"z": 0.9596028451,
				"element": "C" 
			},
			{
				"x": -1.2387478115,
				"y": -3.0819467119,
				"z": -0.2941520405,
				"element": "H" 
			},
			{
				"x": -2.261195152,
				"y": -2.0748847564,
				"z": 0.5304664301,
				"element": "H" 
			},
			{
				"x": -0.0431067198,
				"y": -2.3546280423,
				"z": 1.5687681494,
				"element": "H" 
			},
			{
				"x": -0.3384951315,
				"y": -0.4521530816,
				"z": -1.5136737791,
				"element": "H" 
			},
			{
				"x": 1.5625263225,
				"y": 0.8261438376,
				"z": -2.4746852686,
				"element": "H" 
			},
			{
				"x": 3.7177161687,
				"y": 0.9975928266,
				"z": -1.2386726704,
				"element": "H" 
			},
			{
				"x": 3.9443882931,
				"y": -0.132178241,
				"z": 0.9728340566,
				"element": "H" 
			},
			{
				"x": 2.0536506741,
				"y": -1.4005820771,
				"z": 1.9256070985,
				"element": "H" 
			}
		],
		 "valence_orbital": [ 
			{
				"type": "occ",
				"energy": -0.32801,
				"method": "rhf"
			},
			{
				"type": "occ",
				"energy": -0.29223,
				"method": "rhf"
			},
			{
				"type": "occ",
				"energy": -0.26387,
				"method": "rhf"
			},
			{
				"type": "occ",
				"energy": -0.23563,
				"method": "rhf"
			},
			{
				"type": "occ",
				"energy": -0.19293,
				"method": "rhf"
			},
			{
				"type": "unocc",
				"energy": 0.01337,
				"method": "rhf"
			},
			{
				"type": "unocc",
				"energy": 0.02627,
				"method": "rhf"
			},
			{
				"type": "unocc",
				"energy": 0.07239,
				"method": "rhf"
			},
			{
				"type": "unocc",
				"energy": 0.1037,
				"method": "rhf"
			},
			{
				"type": "unocc",
				"energy": 0.10964,
				"method": "rhf"
			}
		],
		"cosmo_sigma_profile": { 
			"-0.025": 0.0,
			"-0.024": 0.0,
			"-0.023": 0.0,
			"-0.022": 0.0,
			"-0.021": 0.0,
			"-0.02": 0.0,
			"-0.019": 0.0,
			"-0.018": 0.0,
			"-0.017": 0.0,
			"-0.016": 0.0,
			"-0.015": 0.0,
			"-0.014": 0.0,
			"-0.013": 0.0293829006245,
			"-0.012": 1.27162569442,
			"-0.011": 3.63423630593,
			"-0.01": 5.61341946081,
			"-0.009": 4.88724801098,
			"-0.008": 4.94598844033,
			"-0.007": 3.98153259183,
			"-0.006": 3.68210397197,
			"-0.005": 7.11585761751,
			"-0.004": 9.57889816284,
			"-0.003": 10.8358632229,
			"-0.002": 9.57042538842,
			"-0.001": 9.15155497532,
			"0.0": 6.87067949099,
			"0.001": 6.09218299192,
			"0.002": 6.44480676135,
			"0.003": 7.93668138933,
			"0.004": 7.39815344044,
			"0.005": 9.93119120853,
			"0.006": 10.7935787193,
			"0.007": 10.9129878764,
			"0.008": 6.16748722324,
			"0.009": 1.6377241466,
			"0.01": 0.972085892545,
			"0.011": 1.71524952863,
			"0.012": 1.40572349751,
			"0.013": 0.466422661735,
			"0.014": 0.0824381115547,
			"0.015": 0.0,
			"0.016": 0.0,
			"0.017": 0.0,
			"0.018": 0.0,
			"0.019": 0.0,
			"0.02": 0.0,
			"0.021": 0.0,
			"0.022": 0.0,
			"0.023": 0.0,
			"0.024": 0.0,
			"0.025": 0.0
		}
	}
}
