{
	 "smiles": "ClCC(=O)C1=CC2=C(C=C1)N(CCC2)C(=O)C1=CC=CC=C1", 
	 "Tm": 452.15, 
	 "num_atms": 38, 
	 "gaussian": { 
		 "optdone": 1, 
		 "sigma_profile": "yes", 
		 "theory": "DFT", 
		 "functional": "B3LYP", 
		 "basiset": "6-31G**", 
		 "properties": { 
			 "R2extent": 9636.4127, 
			 "electric_dipole_moment_norm": 3.02221698261, 
			 "electric_quadrupole_moment_norm": 39.8996745346, 
			 "total_energy": -1360.96977571, 
			 "HOMO_LUMO_gap": 0.16217, 
			 "cosmo_polarized_energy": -18.16, 
			 "cosmo_cavitation_energy": 42.61, 
			 "cosmo_dispersion_energy": -29.94, 
			 "cosmo_repulsion_energy": 2.3, 
			 "cosmo_total_nonelectrostatic_energy": 14.97, 
			 "SMD_solvation_energy": 7.19 
		},
		"coords": [
			{
				"x": -2.426278275,
				"y": -5.101776027,
				"z": 4.0964648792,
				"element": "Cl" 
			},
			{
				"x": -2.319281623,
				"y": -3.7596799181,
				"z": 2.9169934583,
				"element": "C" 
			},
			{
				"x": -0.9979703199,
				"y": -3.7434576086,
				"z": 2.1354703665,
				"element": "C" 
			},
			{
				"x": -0.1336442182,
				"y": -4.5790280601,
				"z": 2.3229631698,
				"element": "O" 
			},
			{
				"x": -0.8303720674,
				"y": -2.6471787547,
				"z": 1.1360685287,
				"element": "C" 
			},
			{
				"x": 0.3627841323,
				"y": -2.6076327422,
				"z": 0.403098354,
				"element": "C" 
			},
			{
				"x": 0.6261300337,
				"y": -1.6228613063,
				"z": -0.5462873301,
				"element": "C" 
			},
			{
				"x": -0.3449678813,
				"y": -0.615614706,
				"z": -0.7620517301,
				"element": "C" 
			},
			{
				"x": -1.5675297299,
				"y": -0.6762402293,
				"z": -0.0665380222,
				"element": "C" 
			},
			{
				"x": -1.8013669786,
				"y": -1.6655068048,
				"z": 0.876661811,
				"element": "C" 
			},
			{
				"x": -0.0979932117,
				"y": 0.3823148705,
				"z": -1.7314046087,
				"element": "N" 
			},
			{
				"x": 0.7930019364,
				"y": -0.0025559704,
				"z": -2.8395937394,
				"element": "C" 
			},
			{
				"x": 2.1271059889,
				"y": -0.4660583736,
				"z": -2.2555401301,
				"element": "C" 
			},
			{
				"x": 1.9132483216,
				"y": -1.6870790642,
				"z": -1.3514699167,
				"element": "C" 
			},
			{
				"x": -0.6634672197,
				"y": 1.6607918204,
				"z": -1.778912347,
				"element": "C" 
			},
			{
				"x": -0.7186422165,
				"y": 2.2765113781,
				"z": -2.8376203164,
				"element": "O" 
			},
			{
				"x": -1.1114888273,
				"y": 2.3233813475,
				"z": -0.5078549,
				"element": "C" 
			},
			{
				"x": -2.195542002,
				"y": 3.208917674,
				"z": -0.5869463076,
				"element": "C" 
			},
			{
				"x": -2.6004932198,
				"y": 3.926931512,
				"z": 0.5364352195,
				"element": "C" 
			},
			{
				"x": -1.9050658503,
				"y": 3.7915666786,
				"z": 1.74061008,
				"element": "C" 
			},
			{
				"x": -0.804442359,
				"y": 2.9350000493,
				"z": 1.8171366534,
				"element": "C" 
			},
			{
				"x": -0.411671748,
				"y": 2.1977279321,
				"z": 0.7008022175,
				"element": "C" 
			},
			{
				"x": -2.4401119279,
				"y": -2.8234363152,
				"z": 3.4677395884,
				"element": "H" 
			},
			{
				"x": -3.160741949,
				"y": -3.8577599031,
				"z": 2.2262850601,
				"element": "H" 
			},
			{
				"x": 1.0989567335,
				"y": -3.3827704573,
				"z": 0.5958568399,
				"element": "H" 
			},
			{
				"x": -2.3378377776,
				"y": 0.0556064459,
				"z": -0.2739982694,
				"element": "H" 
			},
			{
				"x": -2.756487176,
				"y": -1.6708772827,
				"z": 1.3916953605,
				"element": "H" 
			},
			{
				"x": 0.8979084491,
				"y": 0.8673610906,
				"z": -3.4854902053,
				"element": "H" 
			},
			{
				"x": 0.3233180998,
				"y": -0.8030372697,
				"z": -3.4258910695,
				"element": "H" 
			},
			{
				"x": 2.8275552499,
				"y": -0.7074766823,
				"z": -3.0619191537,
				"element": "H" 
			},
			{
				"x": 2.5633951316,
				"y": 0.3637962663,
				"z": -1.6875249404,
				"element": "H" 
			},
			{
				"x": 1.8773427508,
				"y": -2.5940651981,
				"z": -1.9699657475,
				"element": "H" 
			},
			{
				"x": 2.765596209,
				"y": -1.8207764262,
				"z": -0.6756815734,
				"element": "H" 
			},
			{
				"x": -2.70240372,
				"y": 3.329052513,
				"z": -1.5386673111,
				"element": "H" 
			},
			{
				"x": -3.4498104371,
				"y": 4.6005337748,
				"z": 0.4702856487,
				"element": "H" 
			},
			{
				"x": -2.2139696308,
				"y": 4.3584244963,
				"z": 2.6141794908,
				"element": "H" 
			},
			{
				"x": -0.2499320127,
				"y": 2.8420552912,
				"z": 2.746298762,
				"element": "H" 
			},
			{
				"x": 0.4452693423,
				"y": 1.5355959592,
				"z": 0.7655121304,
				"element": "H" 
			}
		],
		 "valence_orbital": [ 
			{
				"type": "occ",
				"energy": -0.26889,
				"method": "rhf"
			},
			{
				"type": "occ",
				"energy": -0.26135,
				"method": "rhf"
			},
			{
				"type": "occ",
				"energy": -0.25929,
				"method": "rhf"
			},
			{
				"type": "occ",
				"energy": -0.25434,
				"method": "rhf"
			},
			{
				"type": "occ",
				"energy": -0.22969,
				"method": "rhf"
			},
			{
				"type": "unocc",
				"energy": -0.06752,
				"method": "rhf"
			},
			{
				"type": "unocc",
				"energy": -0.04148,
				"method": "rhf"
			},
			{
				"type": "unocc",
				"energy": -0.02605,
				"method": "rhf"
			},
			{
				"type": "unocc",
				"energy": -0.01048,
				"method": "rhf"
			},
			{
				"type": "unocc",
				"energy": 0.0211,
				"method": "rhf"
			}
		],
		"cosmo_sigma_profile": { 
			"-0.025": 0.0,
			"-0.024": 0.0,
			"-0.023": 0.0,
			"-0.022": 0.0,
			"-0.021": 0.0,
			"-0.02": 0.0,
			"-0.019": 0.0,
			"-0.018": 0.0,
			"-0.017": 0.0,
			"-0.016": 0.0,
			"-0.015": 0.0,
			"-0.014": 0.0,
			"-0.013": 0.0,
			"-0.012": 0.0,
			"-0.011": 0.0,
			"-0.01": 0.231336798163,
			"-0.009": 7.50193103384,
			"-0.008": 6.51416081055,
			"-0.007": 5.93628701358,
			"-0.006": 14.682929869,
			"-0.005": 23.5669528823,
			"-0.004": 35.617713822,
			"-0.003": 37.0237402123,
			"-0.002": 26.9382269852,
			"-0.001": 23.0221261178,
			"0.0": 19.5070817348,
			"0.001": 17.3003718614,
			"0.002": 20.0761872713,
			"0.003": 24.0284911386,
			"0.004": 21.6196029764,
			"0.005": 12.4472507839,
			"0.006": 10.5616660354,
			"0.007": 4.73095972438,
			"0.008": 3.36415136427,
			"0.009": 4.30568680867,
			"0.01": 4.89718619267,
			"0.011": 5.93505399842,
			"0.012": 6.50830629051,
			"0.013": 4.70297273822,
			"0.014": 0.436675397336,
			"0.015": 0.0,
			"0.016": 0.0,
			"0.017": 0.0,
			"0.018": 0.0,
			"0.019": 0.0,
			"0.02": 0.0,
			"0.021": 0.0,
			"0.022": 0.0,
			"0.023": 0.0,
			"0.024": 0.0,
			"0.025": 0.0
		}
	}
}
