{
	 "smiles": "CN1C(C(CCC1=O)C(N)=O)C1=CC(Cl)=CC=C1", 
	 "Tm": 489.15, 
	 "num_atms": 33, 
	 "gaussian": { 
		 "optdone": 1, 
		 "sigma_profile": "yes", 
		 "theory": "DFT", 
		 "functional": "B3LYP", 
		 "basiset": "6-31G**", 
		 "properties": { 
			 "R2extent": 5982.8846, 
			 "electric_dipole_moment_norm": 4.70162066632, 
			 "electric_quadrupole_moment_norm": 21.4648644172, 
			 "total_energy": -1224.60672374, 
			 "HOMO_LUMO_gap": 0.21521, 
			 "cosmo_polarized_energy": -20.6, 
			 "cosmo_cavitation_energy": 37.11, 
			 "cosmo_dispersion_energy": -25.37, 
			 "cosmo_repulsion_energy": 2.0, 
			 "cosmo_total_nonelectrostatic_energy": 13.73, 
			 "SMD_solvation_energy": 7.1 
		},
		"coords": [
			{
				"x": 2.200939222,
				"y": -1.0723512317,
				"z": 1.8290641123,
				"element": "C" 
			},
			{
				"x": 0.8516515725,
				"y": -0.6890461719,
				"z": 1.4135071482,
				"element": "N" 
			},
			{
				"x": 0.711681163,
				"y": -0.3431135529,
				"z": -0.011078273,
				"element": "C" 
			},
			{
				"x": -0.7377230619,
				"y": 0.009615445,
				"z": -0.4170542107,
				"element": "C" 
			},
			{
				"x": -1.7448009529,
				"y": -0.8984715038,
				"z": 0.3046457627,
				"element": "C" 
			},
			{
				"x": -1.5988869952,
				"y": -0.689265059,
				"z": 1.8086787442,
				"element": "C" 
			},
			{
				"x": -0.1756971069,
				"y": -0.8915890182,
				"z": 2.3130443427,
				"element": "C" 
			},
			{
				"x": 0.0292529898,
				"y": -1.221913881,
				"z": 3.4762739064,
				"element": "O" 
			},
			{
				"x": -0.883631911,
				"y": -0.1455830997,
				"z": -1.9366409148,
				"element": "C" 
			},
			{
				"x": -1.6181461232,
				"y": 0.8234554995,
				"z": -2.5536254691,
				"element": "N" 
			},
			{
				"x": -0.4250358968,
				"y": -1.1072402704,
				"z": -2.5402754477,
				"element": "O" 
			},
			{
				"x": 1.6477743477,
				"y": 0.7998844502,
				"z": -0.4058146665,
				"element": "C" 
			},
			{
				"x": 2.3334860198,
				"y": 0.7406324245,
				"z": -1.6242312182,
				"element": "C" 
			},
			{
				"x": 3.1398877463,
				"y": 1.8105727646,
				"z": -2.0124990174,
				"element": "C" 
			},
			{
				"x": 3.9950062499,
				"y": 1.725742641,
				"z": -3.5474646886,
				"element": "Cl" 
			},
			{
				"x": 3.287464145,
				"y": 2.9411623696,
				"z": -1.2113736641,
				"element": "C" 
			},
			{
				"x": 2.6028400802,
				"y": 2.9917948669,
				"z": 0.0046500677,
				"element": "C" 
			},
			{
				"x": 1.7874692688,
				"y": 1.9341411933,
				"z": 0.4048096106,
				"element": "C" 
			},
			{
				"x": 2.6037836329,
				"y": -1.8259356459,
				"z": 1.1411318028,
				"element": "H" 
			},
			{
				"x": 2.1367058203,
				"y": -1.4848522409,
				"z": 2.8341169019,
				"element": "H" 
			},
			{
				"x": 2.8768255671,
				"y": -0.212260549,
				"z": 1.8309070702,
				"element": "H" 
			},
			{
				"x": 0.9881992436,
				"y": -1.2258124899,
				"z": -0.6029910242,
				"element": "H" 
			},
			{
				"x": -0.9437444341,
				"y": 1.0490457843,
				"z": -0.1292697799,
				"element": "H" 
			},
			{
				"x": -1.5452833752,
				"y": -1.9417973442,
				"z": 0.0346611924,
				"element": "H" 
			},
			{
				"x": -2.7645862484,
				"y": -0.6710044318,
				"z": -0.0247954256,
				"element": "H" 
			},
			{
				"x": -1.9148153547,
				"y": 0.3258953702,
				"z": 2.0849294249,
				"element": "H" 
			},
			{
				"x": -2.2236487762,
				"y": -1.375967185,
				"z": 2.3848633112,
				"element": "H" 
			},
			{
				"x": -1.8764769203,
				"y": 1.6782563189,
				"z": -2.0881837311,
				"element": "H" 
			},
			{
				"x": -1.7193015063,
				"y": 0.7690970703,
				"z": -3.5565913276,
				"element": "H" 
			},
			{
				"x": 2.228768508,
				"y": -0.1255907518,
				"z": -2.2688790891,
				"element": "H" 
			},
			{
				"x": 3.9260310124,
				"y": 3.7572057029,
				"z": -1.5305138646,
				"element": "H" 
			},
			{
				"x": 2.7127554095,
				"y": 3.8637520591,
				"z": 0.642856597,
				"element": "H" 
			},
			{
				"x": 1.2690566642,
				"y": 1.9751404665,
				"z": 1.3585418172,
				"element": "H" 
			}
		],
		 "valence_orbital": [ 
			{
				"type": "occ",
				"energy": -0.26617,
				"method": "rhf"
			},
			{
				"type": "occ",
				"energy": -0.26444,
				"method": "rhf"
			},
			{
				"type": "occ",
				"energy": -0.25111,
				"method": "rhf"
			},
			{
				"type": "occ",
				"energy": -0.24205,
				"method": "rhf"
			},
			{
				"type": "occ",
				"energy": -0.2383,
				"method": "rhf"
			},
			{
				"type": "unocc",
				"energy": -0.02309,
				"method": "rhf"
			},
			{
				"type": "unocc",
				"energy": -0.02024,
				"method": "rhf"
			},
			{
				"type": "unocc",
				"energy": 0.0107,
				"method": "rhf"
			},
			{
				"type": "unocc",
				"energy": 0.02562,
				"method": "rhf"
			},
			{
				"type": "unocc",
				"energy": 0.02949,
				"method": "rhf"
			}
		],
		"cosmo_sigma_profile": { 
			"-0.025": 0.0,
			"-0.024": 0.0,
			"-0.023": 0.0,
			"-0.022": 0.0,
			"-0.021": 0.0,
			"-0.02": 0.0,
			"-0.019": 0.0,
			"-0.018": 0.0,
			"-0.017": 0.0,
			"-0.016": 0.0,
			"-0.015": 0.300336431901,
			"-0.014": 2.35433929055,
			"-0.013": 2.59134662547,
			"-0.012": 2.72895488901,
			"-0.011": 2.61724072918,
			"-0.01": 2.60396158878,
			"-0.009": 1.7370971151,
			"-0.008": 2.30381293851,
			"-0.007": 5.20914901412,
			"-0.006": 12.0967441928,
			"-0.005": 22.1875412986,
			"-0.004": 24.7368719755,
			"-0.003": 23.5105772853,
			"-0.002": 25.9112444925,
			"-0.001": 22.8386786076,
			"0.0": 16.8149674766,
			"0.001": 17.6198825824,
			"0.002": 21.525001295,
			"0.003": 19.8662848696,
			"0.004": 17.5922263798,
			"0.005": 10.7636117956,
			"0.006": 3.30520559661,
			"0.007": 2.99971957091,
			"0.008": 2.81800663428,
			"0.009": 2.60894753001,
			"0.01": 2.15643901537,
			"0.011": 2.53861795623,
			"0.012": 3.1384875032,
			"0.013": 6.23464840042,
			"0.014": 8.54931832037,
			"0.015": 2.25655552108,
			"0.016": 0.153621176481,
			"0.017": 0.0,
			"0.018": 0.0,
			"0.019": 0.0,
			"0.02": 0.0,
			"0.021": 0.0,
			"0.022": 0.0,
			"0.023": 0.0,
			"0.024": 0.0,
			"0.025": 0.0
		}
	}
}
