{
	 "smiles": "NC1=CN=C(C=C1)N1C=CN=C1", 
	 "Tm": 388.15, 
	 "num_atms": 20, 
	 "gaussian": { 
		 "optdone": 1, 
		 "sigma_profile": "yes", 
		 "theory": "DFT", 
		 "functional": "B3LYP", 
		 "basiset": "6-31G**", 
		 "properties": { 
			 "R2extent": 2785.7369, 
			 "electric_dipole_moment_norm": 6.72540310242, 
			 "electric_quadrupole_moment_norm": 20.883933199, 
			 "total_energy": -528.666639859, 
			 "HOMO_LUMO_gap": 0.17444, 
			 "cosmo_polarized_energy": -16.78, 
			 "cosmo_cavitation_energy": 24.42, 
			 "cosmo_dispersion_energy": -18.37, 
			 "cosmo_repulsion_energy": 1.43, 
			 "cosmo_total_nonelectrostatic_energy": 7.47, 
			 "SMD_solvation_energy": 2.43 
		},
		"coords": [
			{
				"x": -3.0326361865,
				"y": -2.1515014058,
				"z": -0.5878367012,
				"element": "N" 
			},
			{
				"x": -2.1148515762,
				"y": -1.236159847,
				"z": -0.0792779602,
				"element": "C" 
			},
			{
				"x": -2.4995626572,
				"y": 0.0700647245,
				"z": 0.2694063712,
				"element": "C" 
			},
			{
				"x": -1.6563546019,
				"y": 1.0026049182,
				"z": 0.7072827678,
				"element": "N" 
			},
			{
				"x": -0.364920445,
				"y": 0.6947561284,
				"z": 0.8280648653,
				"element": "C" 
			},
			{
				"x": 0.1344815069,
				"y": -0.5746229312,
				"z": 0.511415082,
				"element": "C" 
			},
			{
				"x": -0.751516322,
				"y": -1.5419324433,
				"z": 0.0550916093,
				"element": "C" 
			},
			{
				"x": 0.4762733223,
				"y": 1.7325135953,
				"z": 1.3012459791,
				"element": "N" 
			},
			{
				"x": 1.8459956514,
				"y": 1.69365516,
				"z": 1.5311524015,
				"element": "C" 
			},
			{
				"x": 2.1796777153,
				"y": 2.9424163657,
				"z": 1.9810976594,
				"element": "C" 
			},
			{
				"x": 1.0675010489,
				"y": 3.7576298329,
				"z": 2.039426118,
				"element": "N" 
			},
			{
				"x": 0.0703798679,
				"y": 3.0096220187,
				"z": 1.6290942354,
				"element": "C" 
			},
			{
				"x": -3.9995718609,
				"y": -1.9673523595,
				"z": -0.3578905971,
				"element": "H" 
			},
			{
				"x": -2.7929621866,
				"y": -3.1251548274,
				"z": -0.4621817549,
				"element": "H" 
			},
			{
				"x": -3.5445591689,
				"y": 0.3680375615,
				"z": 0.1851330031,
				"element": "H" 
			},
			{
				"x": 1.1862381772,
				"y": -0.8119799084,
				"z": 0.6158680142,
				"element": "H" 
			},
			{
				"x": -0.3868037918,
				"y": -2.5331077934,
				"z": -0.2015728865,
				"element": "H" 
			},
			{
				"x": 2.4407094696,
				"y": 0.8117040173,
				"z": 1.3603850749,
				"element": "H" 
			},
			{
				"x": 3.1589317347,
				"y": 3.3016230571,
				"z": 2.2666539943,
				"element": "H" 
			},
			{
				"x": -0.9634496972,
				"y": 3.3027841362,
				"z": 1.5377427244,
				"element": "H" 
			}
		],
		 "valence_orbital": [ 
			{
				"type": "occ",
				"energy": -0.27891,
				"method": "rhf"
			},
			{
				"type": "occ",
				"energy": -0.2744,
				"method": "rhf"
			},
			{
				"type": "occ",
				"energy": -0.25457,
				"method": "rhf"
			},
			{
				"type": "occ",
				"energy": -0.2253,
				"method": "rhf"
			},
			{
				"type": "occ",
				"energy": -0.20819,
				"method": "rhf"
			},
			{
				"type": "unocc",
				"energy": -0.03375,
				"method": "rhf"
			},
			{
				"type": "unocc",
				"energy": -0.01765,
				"method": "rhf"
			},
			{
				"type": "unocc",
				"energy": 0.05274,
				"method": "rhf"
			},
			{
				"type": "unocc",
				"energy": 0.06763,
				"method": "rhf"
			},
			{
				"type": "unocc",
				"energy": 0.07961,
				"method": "rhf"
			}
		],
		"cosmo_sigma_profile": { 
			"-0.025": 0.0,
			"-0.024": 0.0,
			"-0.023": 0.0,
			"-0.022": 0.0,
			"-0.021": 0.0,
			"-0.02": 0.0,
			"-0.019": 0.0,
			"-0.018": 0.0,
			"-0.017": 0.0,
			"-0.016": 0.0,
			"-0.015": 0.0,
			"-0.014": 0.0453814401064,
			"-0.013": 2.41214184633,
			"-0.012": 2.61552691932,
			"-0.011": 3.71671654939,
			"-0.01": 5.06418449448,
			"-0.009": 5.36731551353,
			"-0.008": 5.90494828924,
			"-0.007": 9.20753111493,
			"-0.006": 10.1311518109,
			"-0.005": 8.55667896235,
			"-0.004": 8.03413811837,
			"-0.003": 8.36276549287,
			"-0.002": 7.93636513744,
			"-0.001": 9.38707568207,
			"0.0": 10.1032081374,
			"0.001": 16.2828710261,
			"0.002": 18.2804122571,
			"0.003": 13.9522121303,
			"0.004": 9.79500867675,
			"0.005": 8.7436706285,
			"0.006": 5.80122858708,
			"0.007": 4.27649958254,
			"0.008": 2.67662810703,
			"0.009": 4.34271982522,
			"0.01": 3.81350234048,
			"0.011": 2.28369961364,
			"0.012": 1.59861130556,
			"0.013": 1.96449997363,
			"0.014": 1.39903404466,
			"0.015": 1.23669917378,
			"0.016": 0.95982773572,
			"0.017": 1.14655856198,
			"0.018": 0.766097926166,
			"0.019": 0.0,
			"0.02": 0.0,
			"0.021": 0.0,
			"0.022": 0.0,
			"0.023": 0.0,
			"0.024": 0.0,
			"0.025": 0.0
		}
	}
}
