{
	 "smiles": "COC1=CC(C(=O)NC2CC2)=C(N)C=C1", 
	 "Tm": 411.15, 
	 "num_atms": 29, 
	 "gaussian": { 
		 "optdone": 1, 
		 "sigma_profile": "yes", 
		 "theory": "DFT", 
		 "functional": "B3LYP", 
		 "basiset": "6-31G**", 
		 "properties": { 
			 "R2extent": 4093.4182, 
			 "electric_dipole_moment_norm": 2.52189049326, 
			 "electric_quadrupole_moment_norm": 16.1290091825, 
			 "total_energy": -687.530484, 
			 "HOMO_LUMO_gap": 0.15447, 
			 "cosmo_polarized_energy": -13.74, 
			 "cosmo_cavitation_energy": 31.88, 
			 "cosmo_dispersion_energy": -23.14, 
			 "cosmo_repulsion_energy": 1.82, 
			 "cosmo_total_nonelectrostatic_energy": 10.56, 
			 "SMD_solvation_energy": 5.54 
		},
		"coords": [
			{
				"x": -4.4548114525,
				"y": -0.4822874485,
				"z": -1.2158199678,
				"element": "C" 
			},
			{
				"x": -3.1755095744,
				"y": -0.8467812094,
				"z": -0.7338750469,
				"element": "O" 
			},
			{
				"x": -2.5676992368,
				"y": -0.0051495845,
				"z": 0.1665515093,
				"element": "C" 
			},
			{
				"x": -1.3189787002,
				"y": -0.4101986994,
				"z": 0.6358288739,
				"element": "C" 
			},
			{
				"x": -0.5929461108,
				"y": 0.3509647032,
				"z": 1.5614068141,
				"element": "C" 
			},
			{
				"x": 0.7184282444,
				"y": -0.1251165049,
				"z": 2.0929227989,
				"element": "C" 
			},
			{
				"x": 1.1021421609,
				"y": 0.1533044359,
				"z": 3.2370135005,
				"element": "O" 
			},
			{
				"x": 1.5355997901,
				"y": -0.9064312914,
				"z": 1.305331463,
				"element": "N" 
			},
			{
				"x": 1.5688619565,
				"y": -1.0073411376,
				"z": -0.132281427,
				"element": "C" 
			},
			{
				"x": 2.6625618465,
				"y": -1.8412627608,
				"z": -0.7392971766,
				"element": "C" 
			},
			{
				"x": 1.2286938642,
				"y": -2.3108136541,
				"z": -0.8205053063,
				"element": "C" 
			},
			{
				"x": -1.1555450227,
				"y": 1.559250132,
				"z": 2.0682557829,
				"element": "C" 
			},
			{
				"x": -0.4796963233,
				"y": 2.3546194573,
				"z": 2.9779853712,
				"element": "N" 
			},
			{
				"x": -2.4049503761,
				"y": 1.9587427454,
				"z": 1.5642584892,
				"element": "C" 
			},
			{
				"x": -3.1068164667,
				"y": 1.1992995146,
				"z": 0.6320509846,
				"element": "C" 
			},
			{
				"x": -4.4307542762,
				"y": 0.4702624713,
				"z": -1.7632492978,
				"element": "H" 
			},
			{
				"x": -5.1914185315,
				"y": -0.404951652,
				"z": -0.4041788938,
				"element": "H" 
			},
			{
				"x": -4.7607894328,
				"y": -1.2766279671,
				"z": -1.8991535692,
				"element": "H" 
			},
			{
				"x": -0.9268521106,
				"y": -1.352203136,
				"z": 0.2749131248,
				"element": "H" 
			},
			{
				"x": 2.4073895459,
				"y": -1.0898431769,
				"z": 1.7876029294,
				"element": "H" 
			},
			{
				"x": 1.2944602045,
				"y": -0.0925863339,
				"z": -0.6512471318,
				"element": "H" 
			},
			{
				"x": 3.1498007701,
				"y": -1.4719909541,
				"z": -1.6360976566,
				"element": "H" 
			},
			{
				"x": 3.3246665948,
				"y": -2.3735724874,
				"z": -0.0611743311,
				"element": "H" 
			},
			{
				"x": 0.9410841053,
				"y": -3.1421968078,
				"z": -0.1842919824,
				"element": "H" 
			},
			{
				"x": 0.7168775849,
				"y": -2.2677122109,
				"z": -1.7773035092,
				"element": "H" 
			},
			{
				"x": 0.190630358,
				"y": 1.8429852099,
				"z": 3.5419834141,
				"element": "H" 
			},
			{
				"x": -1.0536179722,
				"y": 3.0132553064,
				"z": 3.4837069728,
				"element": "H" 
			},
			{
				"x": -2.8402407676,
				"y": 2.8871140319,
				"z": 1.9259002992,
				"element": "H" 
			},
			{
				"x": -4.0726706715,
				"y": 1.5514690086,
				"z": 0.2882629685,
				"element": "H" 
			}
		],
		 "valence_orbital": [ 
			{
				"type": "occ",
				"energy": -0.27162,
				"method": "rhf"
			},
			{
				"type": "occ",
				"energy": -0.25469,
				"method": "rhf"
			},
			{
				"type": "occ",
				"energy": -0.2438,
				"method": "rhf"
			},
			{
				"type": "occ",
				"energy": -0.23716,
				"method": "rhf"
			},
			{
				"type": "occ",
				"energy": -0.18106,
				"method": "rhf"
			},
			{
				"type": "unocc",
				"energy": -0.02659,
				"method": "rhf"
			},
			{
				"type": "unocc",
				"energy": 0.02323,
				"method": "rhf"
			},
			{
				"type": "unocc",
				"energy": 0.06518,
				"method": "rhf"
			},
			{
				"type": "unocc",
				"energy": 0.08837,
				"method": "rhf"
			},
			{
				"type": "unocc",
				"energy": 0.09632,
				"method": "rhf"
			}
		],
		"cosmo_sigma_profile": { 
			"-0.025": 0.0,
			"-0.024": 0.0,
			"-0.023": 0.0,
			"-0.022": 0.0,
			"-0.021": 0.0,
			"-0.02": 0.0,
			"-0.019": 0.0,
			"-0.018": 0.0,
			"-0.017": 0.0,
			"-0.016": 0.0,
			"-0.015": 0.0,
			"-0.014": 0.0,
			"-0.013": 0.16284631463,
			"-0.012": 2.10505037965,
			"-0.011": 2.37155528731,
			"-0.01": 2.25671742206,
			"-0.009": 2.61196993394,
			"-0.008": 3.41006152997,
			"-0.007": 4.09844603099,
			"-0.006": 9.66504132653,
			"-0.005": 23.3203471708,
			"-0.004": 23.4261120913,
			"-0.003": 22.7525976195,
			"-0.002": 17.9679388239,
			"-0.001": 16.6791273724,
			"0.0": 14.744713082,
			"0.001": 14.7931709532,
			"0.002": 11.8900127763,
			"0.003": 13.4353007263,
			"0.004": 17.1494972987,
			"0.005": 16.0986926941,
			"0.006": 6.74489757116,
			"0.007": 3.35240501594,
			"0.008": 3.36751416008,
			"0.009": 3.80476259359,
			"0.01": 3.09981461961,
			"0.011": 4.03862451723,
			"0.012": 2.61829651724,
			"0.013": 3.60771208801,
			"0.014": 2.21498128714,
			"0.015": 0.191309018443,
			"0.016": 0.0,
			"0.017": 0.0,
			"0.018": 0.0,
			"0.019": 0.0,
			"0.02": 0.0,
			"0.021": 0.0,
			"0.022": 0.0,
			"0.023": 0.0,
			"0.024": 0.0,
			"0.025": 0.0
		}
	}
}
