{
	 "smiles": "FC1=C(F)C(F)=C(C=O)C(F)=C1F", 
	 "Tm": 298.65, 
	 "num_atms": 14, 
	 "gaussian": { 
		 "optdone": 1, 
		 "sigma_profile": "yes", 
		 "theory": "DFT", 
		 "functional": "B3LYP", 
		 "basiset": "6-31G**", 
		 "properties": { 
			 "R2extent": 2649.5919, 
			 "electric_dipole_moment_norm": 1.9961474144, 
			 "electric_quadrupole_moment_norm": 10.3390817769, 
			 "total_energy": -841.687438199, 
			 "HOMO_LUMO_gap": 0.18479, 
			 "cosmo_polarized_energy": -6.78, 
			 "cosmo_cavitation_energy": 22.33, 
			 "cosmo_dispersion_energy": -15.62, 
			 "cosmo_repulsion_energy": 1.12, 
			 "cosmo_total_nonelectrostatic_energy": 7.84, 
			 "SMD_solvation_energy": 7.4 
		},
		"coords": [
			{
				"x": 0.8165072221,
				"y": -2.0228592151,
				"z": -1.4597344152,
				"element": "F" 
			},
			{
				"x": 0.3969113236,
				"y": -1.4044192061,
				"z": -0.3588954461,
				"element": "C" 
			},
			{
				"x": 0.0549392669,
				"y": -2.1495997416,
				"z": 0.7690289778,
				"element": "C" 
			},
			{
				"x": 0.1485601172,
				"y": -3.4816564692,
				"z": 0.7440153231,
				"element": "F" 
			},
			{
				"x": -0.3812950136,
				"y": -1.486703601,
				"z": 1.9097799599,
				"element": "C" 
			},
			{
				"x": -0.7036258014,
				"y": -2.2264827701,
				"z": 2.9798935996,
				"element": "F" 
			},
			{
				"x": -0.4901353766,
				"y": -0.0883513998,
				"z": 1.966551801,
				"element": "C" 
			},
			{
				"x": -0.9637275567,
				"y": 0.5620948195,
				"z": 3.2174958714,
				"element": "C" 
			},
			{
				"x": -1.0927166042,
				"y": 1.7590261881,
				"z": 3.3671231399,
				"element": "O" 
			},
			{
				"x": -0.1380752144,
				"y": 0.6344101945,
				"z": 0.8136278768,
				"element": "C" 
			},
			{
				"x": -0.2125996602,
				"y": 1.9613423596,
				"z": 0.7842647559,
				"element": "F" 
			},
			{
				"x": 0.301008471,
				"y": -0.0130375662,
				"z": -0.3381367438,
				"element": "C" 
			},
			{
				"x": 0.6319358018,
				"y": 0.6874677604,
				"z": -1.4256280405,
				"element": "F" 
			},
			{
				"x": -1.1996869756,
				"y": -0.1511313532,
				"z": 4.0293133402,
				"element": "H" 
			}
		],
		 "valence_orbital": [ 
			{
				"type": "occ",
				"energy": -0.39642,
				"method": "rhf"
			},
			{
				"type": "occ",
				"energy": -0.36413,
				"method": "rhf"
			},
			{
				"type": "occ",
				"energy": -0.28655,
				"method": "rhf"
			},
			{
				"type": "occ",
				"energy": -0.27317,
				"method": "rhf"
			},
			{
				"type": "occ",
				"energy": -0.27304,
				"method": "rhf"
			},
			{
				"type": "unocc",
				"energy": -0.08825,
				"method": "rhf"
			},
			{
				"type": "unocc",
				"energy": -0.03294,
				"method": "rhf"
			},
			{
				"type": "unocc",
				"energy": -0.00148,
				"method": "rhf"
			},
			{
				"type": "unocc",
				"energy": 0.01361,
				"method": "rhf"
			},
			{
				"type": "unocc",
				"energy": 0.0865,
				"method": "rhf"
			}
		],
		"cosmo_sigma_profile": { 
			"-0.025": 0.0,
			"-0.024": 0.0,
			"-0.023": 0.0,
			"-0.022": 0.0,
			"-0.021": 0.0,
			"-0.02": 0.0,
			"-0.019": 0.0,
			"-0.018": 0.0,
			"-0.017": 0.0,
			"-0.016": 0.0,
			"-0.015": 0.0,
			"-0.014": 0.0,
			"-0.013": 0.0,
			"-0.012": 0.0,
			"-0.011": 0.0,
			"-0.01": 0.0,
			"-0.009": 0.0,
			"-0.008": 0.932347000269,
			"-0.007": 4.02667135964,
			"-0.006": 8.08987117954,
			"-0.005": 16.9038499002,
			"-0.004": 20.7117267174,
			"-0.003": 11.3538540888,
			"-0.002": 9.0804749243,
			"-0.001": 8.17860372058,
			"0.0": 9.37917592445,
			"0.001": 18.2112325323,
			"0.002": 43.78665366,
			"0.003": 9.94286712179,
			"0.004": 2.19531193253,
			"0.005": 1.97808055708,
			"0.006": 2.13862321786,
			"0.007": 1.66417673862,
			"0.008": 2.30168905529,
			"0.009": 3.04862576877,
			"0.01": 4.63112550651,
			"0.011": 2.90222570074,
			"0.012": 0.81655345628,
			"0.013": 0.0,
			"0.014": 0.0,
			"0.015": 0.0,
			"0.016": 0.0,
			"0.017": 0.0,
			"0.018": 0.0,
			"0.019": 0.0,
			"0.02": 0.0,
			"0.021": 0.0,
			"0.022": 0.0,
			"0.023": 0.0,
			"0.024": 0.0,
			"0.025": 0.0
		}
	}
}
