{
	 "smiles": "OC(=O)C1=C2C=CC=CC2=NC2=C1CCCC2=CC1=CC=CS1", 
	 "Tm": 450.15, 
	 "num_atms": 38, 
	 "gaussian": { 
		 "optdone": 1, 
		 "sigma_profile": "yes", 
		 "theory": "DFT", 
		 "functional": "B3LYP", 
		 "basiset": "6-31G**", 
		 "properties": { 
			 "R2extent": 10309.4301, 
			 "electric_dipole_moment_norm": 2.29052649406, 
			 "electric_quadrupole_moment_norm": 16.4328947392, 
			 "total_energy": -1336.45559607, 
			 "HOMO_LUMO_gap": 0.12629, 
			 "cosmo_polarized_energy": -13.78, 
			 "cosmo_cavitation_energy": 42.44, 
			 "cosmo_dispersion_energy": -31.29, 
			 "cosmo_repulsion_energy": 2.31, 
			 "cosmo_total_nonelectrostatic_energy": 13.45, 
			 "SMD_solvation_energy": 6.16 
		},
		"coords": [
			{
				"x": 1.6084248665,
				"y": -3.7791057385,
				"z": -2.4382860766,
				"element": "O" 
			},
			{
				"x": 0.4990846601,
				"y": -3.2249928329,
				"z": -2.9835220116,
				"element": "C" 
			},
			{
				"x": 0.2201609048,
				"y": -3.3671025115,
				"z": -4.1556690254,
				"element": "O" 
			},
			{
				"x": -0.3247228545,
				"y": -2.4715914552,
				"z": -1.9804583858,
				"element": "C" 
			},
			{
				"x": -1.7218983245,
				"y": -2.7606097628,
				"z": -1.9028370059,
				"element": "C" 
			},
			{
				"x": -2.4009452247,
				"y": -3.7226314094,
				"z": -2.6999208673,
				"element": "C" 
			},
			{
				"x": -3.7497476709,
				"y": -3.9424805336,
				"z": -2.5293339306,
				"element": "C" 
			},
			{
				"x": -4.4879618198,
				"y": -3.2175430066,
				"z": -1.5608235493,
				"element": "C" 
			},
			{
				"x": -3.8614253583,
				"y": -2.2790525162,
				"z": -0.7767337972,
				"element": "C" 
			},
			{
				"x": -2.4688950672,
				"y": -2.0271487161,
				"z": -0.9269495759,
				"element": "C" 
			},
			{
				"x": -1.9031413465,
				"y": -1.0925021322,
				"z": -0.1304285748,
				"element": "N" 
			},
			{
				"x": -0.6089408741,
				"y": -0.8211747648,
				"z": -0.2282790443,
				"element": "C" 
			},
			{
				"x": 0.2474874891,
				"y": -1.5024179691,
				"z": -1.1664081181,
				"element": "C" 
			},
			{
				"x": 1.7191859679,
				"y": -1.1361087186,
				"z": -1.2696040818,
				"element": "C" 
			},
			{
				"x": 2.0281492133,
				"y": 0.2524253001,
				"z": -0.7059723646,
				"element": "C" 
			},
			{
				"x": 1.438598123,
				"y": 0.3779907606,
				"z": 0.7016508904,
				"element": "C" 
			},
			{
				"x": -0.0650462239,
				"y": 0.2368562061,
				"z": 0.6704404454,
				"element": "C" 
			},
			{
				"x": -0.9349135101,
				"y": 0.9639664309,
				"z": 1.413796361,
				"element": "C" 
			},
			{
				"x": -0.6855780034,
				"y": 2.0664849034,
				"z": 2.3287664905,
				"element": "C" 
			},
			{
				"x": 0.266443249,
				"y": 3.0678463733,
				"z": 2.3635903216,
				"element": "C" 
			},
			{
				"x": 0.0915441869,
				"y": 3.9923108086,
				"z": 3.4309610576,
				"element": "C" 
			},
			{
				"x": -0.9959895235,
				"y": 3.7070947731,
				"z": 4.2127580797,
				"element": "C" 
			},
			{
				"x": -1.8298818815,
				"y": 2.3020929904,
				"z": 3.6461184254,
				"element": "S" 
			},
			{
				"x": 2.0635432784,
				"y": -4.2351933289,
				"z": -3.1673990557,
				"element": "H" 
			},
			{
				"x": -1.8529458124,
				"y": -4.2692817885,
				"z": -3.457274334,
				"element": "H" 
			},
			{
				"x": -4.2552866862,
				"y": -4.6784308588,
				"z": -3.1476542456,
				"element": "H" 
			},
			{
				"x": -5.5510084949,
				"y": -3.4065033035,
				"z": -1.4429439887,
				"element": "H" 
			},
			{
				"x": -4.3942627104,
				"y": -1.7047801276,
				"z": -0.0260948865,
				"element": "H" 
			},
			{
				"x": 2.3080659534,
				"y": -1.8832349217,
				"z": -0.7214678591,
				"element": "H" 
			},
			{
				"x": 2.0498068114,
				"y": -1.2041555097,
				"z": -2.3105501142,
				"element": "H" 
			},
			{
				"x": 1.6045949276,
				"y": 1.0289004371,
				"z": -1.3553846335,
				"element": "H" 
			},
			{
				"x": 3.1126296787,
				"y": 0.4057087817,
				"z": -0.6854480687,
				"element": "H" 
			},
			{
				"x": 1.853494708,
				"y": -0.4314838731,
				"z": 1.3233475154,
				"element": "H" 
			},
			{
				"x": 1.74131541,
				"y": 1.3086120112,
				"z": 1.1775112795,
				"element": "H" 
			},
			{
				"x": -1.9753089501,
				"y": 0.6590818395,
				"z": 1.3274836408,
				"element": "H" 
			},
			{
				"x": 1.0432297755,
				"y": 3.1738039063,
				"z": 1.6169873135,
				"element": "H" 
			},
			{
				"x": 0.7441830998,
				"y": 4.8408242193,
				"z": 3.6033392008,
				"element": "H" 
			},
			{
				"x": -1.3510419666,
				"y": 4.2360260374,
				"z": 5.0862925735,
				"element": "H" 
			}
		],
		 "valence_orbital": [ 
			{
				"type": "occ",
				"energy": -0.25406,
				"method": "rhf"
			},
			{
				"type": "occ",
				"energy": -0.2504,
				"method": "rhf"
			},
			{
				"type": "occ",
				"energy": -0.24861,
				"method": "rhf"
			},
			{
				"type": "occ",
				"energy": -0.23211,
				"method": "rhf"
			},
			{
				"type": "occ",
				"energy": -0.20049,
				"method": "rhf"
			},
			{
				"type": "unocc",
				"energy": -0.0742,
				"method": "rhf"
			},
			{
				"type": "unocc",
				"energy": -0.0429,
				"method": "rhf"
			},
			{
				"type": "unocc",
				"energy": -0.00825,
				"method": "rhf"
			},
			{
				"type": "unocc",
				"energy": -0.00412,
				"method": "rhf"
			},
			{
				"type": "unocc",
				"energy": 0.02558,
				"method": "rhf"
			}
		],
		"cosmo_sigma_profile": { 
			"-0.025": 0.0,
			"-0.024": 0.0,
			"-0.023": 0.0,
			"-0.022": 0.0,
			"-0.021": 0.0,
			"-0.02": 0.0,
			"-0.019": 0.232185384765,
			"-0.018": 0.823913356005,
			"-0.017": 0.907287433715,
			"-0.016": 1.21696424752,
			"-0.015": 0.549760435949,
			"-0.014": 0.743670095733,
			"-0.013": 0.235553635786,
			"-0.012": 0.846164020032,
			"-0.011": 1.18982201001,
			"-0.01": 0.607265009519,
			"-0.009": 0.74697211133,
			"-0.008": 2.96471341125,
			"-0.007": 6.33100658124,
			"-0.006": 12.1402208962,
			"-0.005": 17.532119135,
			"-0.004": 27.9984591538,
			"-0.003": 28.1437130813,
			"-0.002": 28.2110853382,
			"-0.001": 26.2471612961,
			"0.0": 25.4521968365,
			"0.001": 23.9014270599,
			"0.002": 26.0653126943,
			"0.003": 28.4044918718,
			"0.004": 35.2020861328,
			"0.005": 17.8043341654,
			"0.006": 6.61157749884,
			"0.007": 4.24872989271,
			"0.008": 4.54289830212,
			"0.009": 3.45316724105,
			"0.01": 3.16910958377,
			"0.011": 4.48030458274,
			"0.012": 0.828233610705,
			"0.013": 0.0,
			"0.014": 0.0,
			"0.015": 0.0,
			"0.016": 0.0,
			"0.017": 0.0,
			"0.018": 0.0,
			"0.019": 0.0,
			"0.02": 0.0,
			"0.021": 0.0,
			"0.022": 0.0,
			"0.023": 0.0,
			"0.024": 0.0,
			"0.0": 0.0
		}
	}
}
