{
	 "smiles": "NC(=O)C1=C(OC2=C(C=CC=N2)C(O)=O)C=CC=C1", 
	 "Tm": 527.15, 
	 "num_atms": 29, 
	 "gaussian": { 
		 "optdone": 1, 
		 "sigma_profile": "yes", 
		 "theory": "DFT", 
		 "functional": "B3LYP", 
		 "basiset": "6-31G**", 
		 "properties": { 
			 "R2extent": 5479.817, 
			 "electric_dipole_moment_norm": 6.93804257554, 
			 "electric_quadrupole_moment_norm": 15.120004462, 
			 "total_energy": -911.828551602, 
			 "HOMO_LUMO_gap": 0.16329, 
			 "cosmo_polarized_energy": -20.85, 
			 "cosmo_cavitation_energy": 34.43, 
			 "cosmo_dispersion_energy": -24.49, 
			 "cosmo_repulsion_energy": 1.88, 
			 "cosmo_total_nonelectrostatic_energy": 11.82, 
			 "SMD_solvation_energy": 7.44 
		},
		"coords": [
			{
				"x": -2.0293300272,
				"y": 1.1311442081,
				"z": 1.6583004048,
				"element": "N" 
			},
			{
				"x": -1.4837582956,
				"y": 1.116692543,
				"z": 2.9042082267,
				"element": "C" 
			},
			{
				"x": -2.1504976837,
				"y": 1.2403705478,
				"z": 3.926892557,
				"element": "O" 
			},
			{
				"x": 0.020471356,
				"y": 0.9863714803,
				"z": 2.977325425,
				"element": "C" 
			},
			{
				"x": 0.8305243788,
				"y": 0.2227365085,
				"z": 2.127227129,
				"element": "C" 
			},
			{
				"x": 0.2727190464,
				"y": -0.626179162,
				"z": 1.1594973464,
				"element": "O" 
			},
			{
				"x": 0.4021163308,
				"y": -0.3265057795,
				"z": -0.1553644921,
				"element": "C" 
			},
			{
				"x": 0.7992834769,
				"y": -1.3433081281,
				"z": -1.0512874109,
				"element": "C" 
			},
			{
				"x": 0.7590650848,
				"y": -1.043576167,
				"z": -2.4168862714,
				"element": "C" 
			},
			{
				"x": 0.3935125146,
				"y": 0.2334060744,
				"z": -2.8374677391,
				"element": "C" 
			},
			{
				"x": 0.0625265958,
				"y": 1.1706564863,
				"z": -1.862947103,
				"element": "C" 
			},
			{
				"x": 0.0484632983,
				"y": 0.8943427664,
				"z": -0.5519454607,
				"element": "N" 
			},
			{
				"x": 1.326421041,
				"y": -2.6523319998,
				"z": -0.5725037666,
				"element": "C" 
			},
			{
				"x": 1.1532702905,
				"y": -3.6298730133,
				"z": -1.4986142477,
				"element": "O" 
			},
			{
				"x": 1.8870216668,
				"y": -2.8508790471,
				"z": 0.4831172259,
				"element": "O" 
			},
			{
				"x": 2.2141745174,
				"y": 0.1612938606,
				"z": 2.2970164329,
				"element": "C" 
			},
			{
				"x": 2.816521343,
				"y": 0.8902676485,
				"z": 3.3194616575,
				"element": "C" 
			},
			{
				"x": 2.0300507763,
				"y": 1.6493536705,
				"z": 4.1898110047,
				"element": "C" 
			},
			{
				"x": 0.649002687,
				"y": 1.6775120525,
				"z": 4.0250382836,
				"element": "C" 
			},
			{
				"x": -3.0180384576,
				"y": 1.3259696215,
				"z": 1.6068441138,
				"element": "H" 
			},
			{
				"x": -1.448859292,
				"y": 1.2474283772,
				"z": 0.8342215039,
				"element": "H" 
			},
			{
				"x": 1.0387963774,
				"y": -1.8085424394,
				"z": -3.1326236055,
				"element": "H" 
			},
			{
				"x": 0.3703213274,
				"y": 0.4966482834,
				"z": -3.8889458612,
				"element": "H" 
			},
			{
				"x": -0.2185710075,
				"y": 2.1850780577,
				"z": -2.1371533926,
				"element": "H" 
			},
			{
				"x": 1.5700278657,
				"y": -4.4247807276,
				"z": -1.1257468878,
				"element": "H" 
			},
			{
				"x": 2.7871397691,
				"y": -0.4945403602,
				"z": 1.6505207604,
				"element": "H" 
			},
			{
				"x": 3.8938532534,
				"y": 0.8448281775,
				"z": 3.4491570508,
				"element": "H" 
			},
			{
				"x": 2.4910111203,
				"y": 2.2053785956,
				"z": 5.0004900766,
				"element": "H" 
			},
			{
				"x": 0.0139606458,
				"y": 2.2358378642,
				"z": 4.7044570395,
				"element": "H" 
			}
		],
		 "valence_orbital": [ 
			{
				"type": "occ",
				"energy": -0.27016,
				"method": "rhf"
			},
			{
				"type": "occ",
				"energy": -0.25542,
				"method": "rhf"
			},
			{
				"type": "occ",
				"energy": -0.25131,
				"method": "rhf"
			},
			{
				"type": "occ",
				"energy": -0.24434,
				"method": "rhf"
			},
			{
				"type": "occ",
				"energy": -0.23362,
				"method": "rhf"
			},
			{
				"type": "unocc",
				"energy": -0.07033,
				"method": "rhf"
			},
			{
				"type": "unocc",
				"energy": -0.04166,
				"method": "rhf"
			},
			{
				"type": "unocc",
				"energy": -0.02198,
				"method": "rhf"
			},
			{
				"type": "unocc",
				"energy": -0.00244,
				"method": "rhf"
			},
			{
				"type": "unocc",
				"energy": 0.02469,
				"method": "rhf"
			}
		],
		"cosmo_sigma_profile": { 
			"-0.025": 0.0,
			"-0.024": 0.0,
			"-0.023": 0.0,
			"-0.022": 0.0,
			"-0.021": 0.0,
			"-0.02": 0.0,
			"-0.019": 0.19542580994,
			"-0.018": 1.05694968587,
			"-0.017": 0.605118316239,
			"-0.016": 1.16486257297,
			"-0.015": 0.64827908903,
			"-0.014": 1.22735868266,
			"-0.013": 1.4021285579,
			"-0.012": 1.77376865381,
			"-0.011": 2.24495044288,
			"-0.01": 1.64762483302,
			"-0.009": 1.32683707479,
			"-0.008": 6.55039662434,
			"-0.007": 11.2609333999,
			"-0.006": 14.0607503103,
			"-0.005": 15.7203178125,
			"-0.004": 16.8742156597,
			"-0.003": 16.8187147725,
			"-0.002": 19.3173524254,
			"-0.001": 21.3808053056,
			"0.0": 20.4164543695,
			"0.001": 19.2201806372,
			"0.002": 15.2528833494,
			"0.003": 18.2858082332,
			"0.004": 14.8732627052,
			"0.005": 7.16721370211,
			"0.006": 6.00149367868,
			"0.007": 7.24929080977,
			"0.008": 6.34587787496,
			"0.009": 4.49881379701,
			"0.01": 4.61982605556,
			"0.011": 5.40150820475,
			"0.012": 2.32720764599,
			"0.013": 4.00537129442,
			"0.014": 5.09915089865,
			"0.015": 0.635916746203,
			"0.016": 0.0,
			"0.017": 0.0,
			"0.018": 0.0,
			"0.019": 0.0,
			"0.02": 0.0,
			"0.021": 0.0,
			"0.022": 0.0,
			"0.023": 0.0,
			"0.024": 0.0,
			"0.025": 0.0
		}
	}
}
