{
	 "smiles": "CON(C)C(=O)NC1=CC=C(OC2=CC=C3C(OC(C)(CC3(C)C)OC)=C2)C=C1", 
	 "Tm": 375.15, 
	 "num_atms": 57, 
	 "gaussian": { 
		 "optdone": 1, 
		 "sigma_profile": "yes", 
		 "theory": "DFT", 
		 "functional": "B3LYP", 
		 "basiset": "6-31G**", 
		 "properties": { 
			 "R2extent": 16294.2232, 
			 "electric_dipole_moment_norm": 4.70739330097, 
			 "electric_quadrupole_moment_norm": 12.8991287531, 
			 "total_energy": -1340.78067766, 
			 "HOMO_LUMO_gap": 0.19576, 
			 "cosmo_polarized_energy": -17.65, 
			 "cosmo_cavitation_energy": 57.34, 
			 "cosmo_dispersion_energy": -37.64, 
			 "cosmo_repulsion_energy": 2.83, 
			 "cosmo_total_nonelectrostatic_energy": 22.54, 
			 "SMD_solvation_energy": 12.07 
		},
		"coords": [
			{
				"x": -1.0569689858,
				"y": -2.5460917101,
				"z": 1.7106223345,
				"element": "C" 
			},
			{
				"x": -0.2272014819,
				"y": -3.3583704082,
				"z": 2.5370066273,
				"element": "O" 
			},
			{
				"x": -0.1445802529,
				"y": -2.8118297308,
				"z": 3.8532039292,
				"element": "N" 
			},
			{
				"x": -1.207295876,
				"y": -3.3557008935,
				"z": 4.6988379171,
				"element": "C" 
			},
			{
				"x": 1.1515870644,
				"y": -2.9279754466,
				"z": 4.3922927471,
				"element": "C" 
			},
			{
				"x": 1.323251069,
				"y": -3.1620456437,
				"z": 5.5821318726,
				"element": "O" 
			},
			{
				"x": 2.2187611202,
				"y": -2.7588959603,
				"z": 3.532121472,
				"element": "N" 
			},
			{
				"x": 2.3050050923,
				"y": -2.000819215,
				"z": 2.3295842413,
				"element": "C" 
			},
			{
				"x": 3.0223619467,
				"y": -2.5214332269,
				"z": 1.247377323,
				"element": "C" 
			},
			{
				"x": 3.1959768812,
				"y": -1.7718257482,
				"z": 0.0857466544,
				"element": "C" 
			},
			{
				"x": 2.6437173243,
				"y": -0.4930986671,
				"z": -0.0037930347,
				"element": "C" 
			},
			{
				"x": 2.9156387704,
				"y": 0.2323201753,
				"z": -1.1470726595,
				"element": "O" 
			},
			{
				"x": 1.9289851261,
				"y": 0.9701374687,
				"z": -1.7705520777,
				"element": "C" 
			},
			{
				"x": 2.3449382549,
				"y": 2.1147480102,
				"z": -2.4571261627,
				"element": "C" 
			},
			{
				"x": 1.4037833229,
				"y": 2.8523020131,
				"z": -3.1660111659,
				"element": "C" 
			},
			{
				"x": 0.045821677,
				"y": 2.5006104328,
				"z": -3.2167713336,
				"element": "C" 
			},
			{
				"x": -0.3400772546,
				"y": 1.3548462296,
				"z": -2.4982169803,
				"element": "C" 
			},
			{
				"x": -1.6263359964,
				"y": 0.8884437274,
				"z": -2.4487526203,
				"element": "O" 
			},
			{
				"x": -2.695915458,
				"y": 1.8018116537,
				"z": -2.7887999219,
				"element": "C" 
			},
			{
				"x": -3.0052233387,
				"y": 2.6665732479,
				"z": -1.5680739873,
				"element": "C" 
			},
			{
				"x": -2.317697223,
				"y": 2.5591928823,
				"z": -4.0683740697,
				"element": "C" 
			},
			{
				"x": -0.9590097987,
				"y": 3.3088162162,
				"z": -4.0416690264,
				"element": "C" 
			},
			{
				"x": -1.1104218416,
				"y": 4.7432211759,
				"z": -3.4810139108,
				"element": "C" 
			},
			{
				"x": -0.4717115783,
				"y": 3.426330347,
				"z": -5.5067415827,
				"element": "C" 
			},
			{
				"x": -3.8449024962,
				"y": 1.0123950684,
				"z": -2.9597992932,
				"element": "O" 
			},
			{
				"x": -3.818245637,
				"y": -0.0043226684,
				"z": -3.9563508144,
				"element": "C" 
			},
			{
				"x": 0.5919232309,
				"y": 0.586942459,
				"z": -1.787044127,
				"element": "C" 
			},
			{
				"x": 1.930383185,
				"y": 0.0428067038,
				"z": 1.0730412198,
				"element": "C" 
			},
			{
				"x": 1.7725235486,
				"y": -0.7080301752,
				"z": 2.236486212,
				"element": "C" 
			},
			{
				"x": -2.0942301102,
				"y": -2.5260527921,
				"z": 2.0687211592,
				"element": "H" 
			},
			{
				"x": -0.674480392,
				"y": -1.5241658333,
				"z": 1.6370249036,
				"element": "H" 
			},
			{
				"x": -1.0314821865,
				"y": -3.0237785185,
				"z": 0.7281967923,
				"element": "H" 
			},
			{
				"x": -1.1147576588,
				"y": -2.9151593015,
				"z": 5.690224424,
				"element": "H" 
			},
			{
				"x": -2.171627565,
				"y": -3.0776839066,
				"z": 4.2685034772,
				"element": "H" 
			},
			{
				"x": -1.1416686494,
				"y": -4.4466669894,
				"z": 4.7833680084,
				"element": "H" 
			},
			{
				"x": 3.0873524307,
				"y": -2.9113827922,
				"z": 4.0286624432,
				"element": "H" 
			},
			{
				"x": 3.4327526301,
				"y": -3.5239889098,
				"z": 1.317619553,
				"element": "H" 
			},
			{
				"x": 3.7511567102,
				"y": -2.1650073209,
				"z": -0.7592860466,
				"element": "H" 
			},
			{
				"x": 3.3903784372,
				"y": 2.4009628452,
				"z": -2.4302595204,
				"element": "H" 
			},
			{
				"x": 1.7388508238,
				"y": 3.7351762924,
				"z": -3.7028024501,
				"element": "H" 
			},
			{
				"x": -3.7681564845,
				"y": 3.412422257,
				"z": -1.8055139811,
				"element": "H" 
			},
			{
				"x": -2.1090538939,
				"y": 3.1732982594,
				"z": -1.2065779058,
				"element": "H" 
			},
			{
				"x": -3.3838406477,
				"y": 2.0149185891,
				"z": -0.7777946716,
				"element": "H" 
			},
			{
				"x": -3.128356814,
				"y": 3.2515612952,
				"z": -4.3197270585,
				"element": "H" 
			},
			{
				"x": -2.2742536253,
				"y": 1.8166072661,
				"z": -4.8709643007,
				"element": "H" 
			},
			{
				"x": -1.467426749,
				"y": 4.7556426739,
				"z": -2.449543414,
				"element": "H" 
			},
			{
				"x": -0.1507255276,
				"y": 5.2689744304,
				"z": -3.5026151692,
				"element": "H" 
			},
			{
				"x": -1.8178072239,
				"y": 5.3169290569,
				"z": -4.0911610922,
				"element": "H" 
			},
			{
				"x": 0.4524734899,
				"y": 4.0072786677,
				"z": -5.5793045168,
				"element": "H" 
			},
			{
				"x": -0.2831499448,
				"y": 2.439110648,
				"z": -5.9399212986,
				"element": "H" 
			},
			{
				"x": -1.2276512639,
				"y": 3.9312083829,
				"z": -6.1192920112,
				"element": "H" 
			},
			{
				"x": -2.88785814,
				"y": -0.5794285745,
				"z": -3.9191402501,
				"element": "H" 
			},
			{
				"x": -3.9585333099,
				"y": 0.3984232405,
				"z": -4.9679313481,
				"element": "H" 
			},
			{
				"x": -4.6570587652,
				"y": -0.6664313782,
				"z": -3.7301302192,
				"element": "H" 
			},
			{
				"x": 0.2463788296,
				"y": -0.2941579281,
				"z": -1.26015541,
				"element": "H" 
			},
			{
				"x": 1.5223104577,
				"y": 1.0455500724,
				"z": 1.0065538084,
				"element": "H" 
			},
			{
				"x": 1.2399947474,
				"y": -0.2884180492,
				"z": 3.0838563129,
				"element": "H" 
			}
		],
		 "valence_orbital": [ 
			{
				"type": "occ",
				"energy": -0.25408,
				"method": "rhf"
			},
			{
				"type": "occ",
				"energy": -0.24189,
				"method": "rhf"
			},
			{
				"type": "occ",
				"energy": -0.23672,
				"method": "rhf"
			},
			{
				"type": "occ",
				"energy": -0.22244,
				"method": "rhf"
			},
			{
				"type": "occ",
				"energy": -0.21058,
				"method": "rhf"
			},
			{
				"type": "unocc",
				"energy": -0.01482,
				"method": "rhf"
			},
			{
				"type": "unocc",
				"energy": -0.01103,
				"method": "rhf"
			},
			{
				"type": "unocc",
				"energy": 0.00073,
				"method": "rhf"
			},
			{
				"type": "unocc",
				"energy": 0.01376,
				"method": "rhf"
			},
			{
				"type": "unocc",
				"energy": 0.03532,
				"method": "rhf"
			}
		],
		"cosmo_sigma_profile": { 
			"-0.025": 0.0,
			"-0.024": 0.0,
			"-0.023": 0.0,
			"-0.022": 0.0,
			"-0.021": 0.0,
			"-0.02": 0.0,
			"-0.019": 0.0,
			"-0.018": 0.0,
			"-0.017": 0.0,
			"-0.016": 0.0,
			"-0.015": 0.0198016825103,
			"-0.014": 0.759752454096,
			"-0.013": 0.890309722758,
			"-0.012": 1.1210407582,
			"-0.011": 0.940555512814,
			"-0.01": 0.616716027,
			"-0.009": 0.873727836832,
			"-0.008": 1.10148163088,
			"-0.007": 3.28333960931,
			"-0.006": 14.9323938835,
			"-0.005": 27.4543504827,
			"-0.004": 40.4037048428,
			"-0.003": 52.7766044686,
			"-0.002": 55.3042785203,
			"-0.001": 41.3011204534,
			"0.0": 35.5278794716,
			"0.001": 33.6242747082,
			"0.002": 24.5590403647,
			"0.003": 25.1554395263,
			"0.004": 25.6898463452,
			"0.005": 14.6621867825,
			"0.006": 10.1099317644,
			"0.007": 7.05221619378,
			"0.008": 5.55663704693,
			"0.009": 6.8579386255,
			"0.01": 5.79490833602,
			"0.011": 3.22622786451,
			"0.012": 3.9881477274,
			"0.013": 4.96267540116,
			"0.014": 2.39460309356,
			"0.015": 0.00775216042708,
			"0.016": 0.0,
			"0.017": 0.0,
			"0.018": 0.0,
			"0.019": 0.0,
			"0.02": 0.0,
			"0.021": 0.0,
			"0.022": 0.0,
			"0.023": 0.0,
			"0.024": 0.0,
			"0.025": 0.0
		}
	}
}
