{
	 "smiles": "OC(=O)CCCCCC#CC#C", 
	 "Tm": 309.15, 
	 "num_atms": 24, 
	 "gaussian": { 
		 "optdone": 1, 
		 "sigma_profile": "yes", 
		 "theory": "DFT", 
		 "functional": "B3LYP", 
		 "basiset": "6-31G**", 
		 "properties": { 
			 "R2extent": 4354.307, 
			 "electric_dipole_moment_norm": 4.65066965501, 
			 "electric_quadrupole_moment_norm": 25.7324066634, 
			 "total_energy": -538.630422824, 
			 "HOMO_LUMO_gap": 0.22888, 
			 "cosmo_polarized_energy": -17.87, 
			 "cosmo_cavitation_energy": 30.42, 
			 "cosmo_dispersion_energy": -20.54, 
			 "cosmo_repulsion_energy": 1.7, 
			 "cosmo_total_nonelectrostatic_energy": 11.58, 
			 "SMD_solvation_energy": 7.55 
		},
		"coords": [
			{
				"x": 3.6179635622,
				"y": -1.5702824092,
				"z": 2.4436941359,
				"element": "O" 
			},
			{
				"x": 2.6391976024,
				"y": -0.7503441552,
				"z": 2.9241435511,
				"element": "C" 
			},
			{
				"x": 2.8274726953,
				"y": -0.1212878463,
				"z": 3.9340325074,
				"element": "O" 
			},
			{
				"x": 1.3570254899,
				"y": -0.7029034323,
				"z": 2.1032700106,
				"element": "C" 
			},
			{
				"x": 1.5617506882,
				"y": -0.2138524364,
				"z": 0.6562154246,
				"element": "C" 
			},
			{
				"x": 0.2436966944,
				"y": -0.1136799979,
				"z": -0.1213640328,
				"element": "C" 
			},
			{
				"x": 0.4350037366,
				"y": 0.3806692614,
				"z": -1.5593264944,
				"element": "C" 
			},
			{
				"x": -0.886479317,
				"y": 0.4926285253,
				"z": -2.354668925,
				"element": "C" 
			},
			{
				"x": -1.8252382919,
				"y": 1.4634693346,
				"z": -1.7989572247,
				"element": "C" 
			},
			{
				"x": -2.5927510887,
				"y": 2.2799155729,
				"z": -1.3261976278,
				"element": "C" 
			},
			{
				"x": -3.4599892824,
				"y": 3.1966582135,
				"z": -0.7985030673,
				"element": "C" 
			},
			{
				"x": -4.2292657012,
				"y": 4.0096289706,
				"z": -0.3300266598,
				"element": "C" 
			},
			{
				"x": 3.3169928611,
				"y": -2.015869263,
				"z": 1.6395276414,
				"element": "H" 
			},
			{
				"x": 0.669432576,
				"y": -0.0409889343,
				"z": 2.6342234541,
				"element": "H" 
			},
			{
				"x": 0.9062533756,
				"y": -1.7054883334,
				"z": 2.0947992837,
				"element": "H" 
			},
			{
				"x": 2.0536665858,
				"y": 0.766684691,
				"z": 0.6753147521,
				"element": "H" 
			},
			{
				"x": 2.2461768773,
				"y": -0.8858454428,
				"z": 0.1178766769,
				"element": "H" 
			},
			{
				"x": -0.248151102,
				"y": -1.0968576079,
				"z": -0.1355792841,
				"element": "H" 
			},
			{
				"x": -0.4390194327,
				"y": 0.5639686271,
				"z": 0.40577864,
				"element": "H" 
			},
			{
				"x": 0.9289300482,
				"y": 1.3596678445,
				"z": -1.5519931459,
				"element": "H" 
			},
			{
				"x": 1.0981924395,
				"y": -0.3036870926,
				"z": -2.1038187142,
				"element": "H" 
			},
			{
				"x": -1.3714076821,
				"y": -0.4928082563,
				"z": -2.3984533426,
				"element": "H" 
			},
			{
				"x": -0.6615796644,
				"y": 0.7671684098,
				"z": -3.3936736313,
				"element": "H" 
			},
			{
				"x": -4.90397367,
				"y": 4.7238357569,
				"z": 0.081086072,
				"element": "H" 
			}
		],
		 "valence_orbital": [ 
			{
				"type": "occ",
				"energy": -0.33687,
				"method": "rhf"
			},
			{
				"type": "occ",
				"energy": -0.31309,
				"method": "rhf"
			},
			{
				"type": "occ",
				"energy": -0.26639,
				"method": "rhf"
			},
			{
				"type": "occ",
				"energy": -0.24677,
				"method": "rhf"
			},
			{
				"type": "occ",
				"energy": -0.24582,
				"method": "rhf"
			},
			{
				"type": "unocc",
				"energy": -0.01694,
				"method": "rhf"
			},
			{
				"type": "unocc",
				"energy": -0.01435,
				"method": "rhf"
			},
			{
				"type": "unocc",
				"energy": 0.00981,
				"method": "rhf"
			},
			{
				"type": "unocc",
				"energy": 0.04343,
				"method": "rhf"
			},
			{
				"type": "unocc",
				"energy": 0.08288,
				"method": "rhf"
			}
		],
		"cosmo_sigma_profile": { 
			"-0.025": 0.0,
			"-0.024": 0.0,
			"-0.023": 0.0,
			"-0.022": 0.0,
			"-0.021": 0.0,
			"-0.02": 0.0,
			"-0.019": 0.00362939527648,
			"-0.018": 0.599259893974,
			"-0.017": 1.27468218416,
			"-0.016": 0.672034656041,
			"-0.015": 1.37412367998,
			"-0.014": 0.903512755683,
			"-0.013": 1.1306223317,
			"-0.012": 2.44700079746,
			"-0.011": 2.1855497688,
			"-0.01": 2.51350227398,
			"-0.009": 2.43878771823,
			"-0.008": 2.07725071935,
			"-0.007": 3.40577151203,
			"-0.006": 8.37917074574,
			"-0.005": 11.1949665784,
			"-0.004": 19.2605117556,
			"-0.003": 31.8118441568,
			"-0.002": 22.1875352879,
			"-0.001": 14.8233757862,
			"0.0": 10.3292713831,
			"0.001": 8.16199448682,
			"0.002": 6.02299126355,
			"0.003": 15.5481719651,
			"0.004": 20.2682032395,
			"0.005": 18.7394375945,
			"0.006": 6.1722591461,
			"0.007": 2.44901733406,
			"0.008": 2.36385517651,
			"0.009": 3.15006035616,
			"0.01": 4.25525160148,
			"0.011": 5.89915616437,
			"0.012": 6.06111612994,
			"0.013": 3.11411654467,
			"0.014": 0.211558320838,
			"0.015": 0.0,
			"0.016": 0.0,
			"0.017": 0.0,
			"0.018": 0.0,
			"0.019": 0.0,
			"0.02": 0.0,
			"0.021": 0.0,
			"0.022": 0.0,
			"0.023": 0.0,
			"0.024": 0.0,
			"0.025": 0.0
		}
	}
}
