{
	 "smiles": "FC1=CC(=CC=C1)S(=O)(=O)N1CCNCC1", 
	 "Tm": 371.15, 
	 "num_atms": 29, 
	 "gaussian": { 
		 "optdone": 1, 
		 "sigma_profile": "yes", 
		 "theory": "DFT", 
		 "functional": "B3LYP", 
		 "basiset": "6-31G**", 
		 "properties": { 
			 "R2extent": 4670.6823, 
			 "electric_dipole_moment_norm": 2.96969126173, 
			 "electric_quadrupole_moment_norm": 20.126042179, 
			 "total_energy": -1146.77766344, 
			 "HOMO_LUMO_gap": 0.17932, 
			 "cosmo_polarized_energy": -14.53, 
			 "cosmo_cavitation_energy": 33.11, 
			 "cosmo_dispersion_energy": -23.88, 
			 "cosmo_repulsion_energy": 1.79, 
			 "cosmo_total_nonelectrostatic_energy": 11.02, 
			 "SMD_solvation_energy": 1.85 
		},
		"coords": [
			{
				"x": -2.5609946735,
				"y": -3.14191952,
				"z": 2.3704747798,
				"element": "F" 
			},
			{
				"x": -2.4760706356,
				"y": -1.9328261198,
				"z": 1.7833156807,
				"element": "C" 
			},
			{
				"x": -1.2881899687,
				"y": -1.5698330349,
				"z": 1.1652454821,
				"element": "C" 
			},
			{
				"x": -1.2269107302,
				"y": -0.3081446833,
				"z": 0.5686732606,
				"element": "C" 
			},
			{
				"x": -2.316429454,
				"y": 0.5620894528,
				"z": 0.5745997058,
				"element": "C" 
			},
			{
				"x": -3.4970997862,
				"y": 0.1610606904,
				"z": 1.2065578435,
				"element": "C" 
			},
			{
				"x": -3.5846249774,
				"y": -1.0890721803,
				"z": 1.8168767936,
				"element": "C" 
			},
			{
				"x": 0.2815688744,
				"y": 0.1764120064,
				"z": -0.2862176653,
				"element": "S" 
			},
			{
				"x": 0.0488112059,
				"y": 1.5270561631,
				"z": -0.820828882,
				"element": "O" 
			},
			{
				"x": 0.6979499336,
				"y": -0.912889628,
				"z": -1.1743384948,
				"element": "O" 
			},
			{
				"x": 1.4039436428,
				"y": 0.1931574232,
				"z": 0.9715730196,
				"element": "N" 
			},
			{
				"x": 2.7680939996,
				"y": -0.2712350324,
				"z": 0.609651109,
				"element": "C" 
			},
			{
				"x": 3.6899579107,
				"y": 0.0318325301,
				"z": 1.7946231372,
				"element": "C" 
			},
			{
				"x": 3.7885561661,
				"y": 1.4628149386,
				"z": 2.1181084623,
				"element": "N" 
			},
			{
				"x": 2.5844085569,
				"y": 2.2337513352,
				"z": 1.7665974711,
				"element": "C" 
			},
			{
				"x": 1.3447645452,
				"y": 1.351388621,
				"z": 1.8969267904,
				"element": "C" 
			},
			{
				"x": -0.4456068814,
				"y": -2.2508654093,
				"z": 1.1508696976,
				"element": "H" 
			},
			{
				"x": -2.2322345943,
				"y": 1.5260916684,
				"z": 0.0868091324,
				"element": "H" 
			},
			{
				"x": -4.3544097329,
				"y": 0.8267127966,
				"z": 1.220871719,
				"element": "H" 
			},
			{
				"x": -4.4901498043,
				"y": -1.4213902161,
				"z": 2.3127036018,
				"element": "H" 
			},
			{
				"x": 3.1459666225,
				"y": 0.2309425099,
				"z": -0.2913368396,
				"element": "H" 
			},
			{
				"x": 2.7316677145,
				"y": -1.3427407739,
				"z": 0.40043864,
				"element": "H" 
			},
			{
				"x": 3.3259388736,
				"y": -0.5208633235,
				"z": 2.6711690525,
				"element": "H" 
			},
			{
				"x": 4.6905195014,
				"y": -0.3540346686,
				"z": 1.577442036,
				"element": "H" 
			},
			{
				"x": 4.5940042836,
				"y": 1.8657426418,
				"z": 1.6516581742,
				"element": "H" 
			},
			{
				"x": 2.4873757145,
				"y": 3.0911289796,
				"z": 2.4449033333,
				"element": "H" 
			},
			{
				"x": 2.6077208189,
				"y": 2.6327225032,
				"z": 0.7402140063,
				"element": "H" 
			},
			{
				"x": 1.255844935,
				"y": 0.9768703536,
				"z": 2.9233080484,
				"element": "H" 
			},
			{
				"x": 0.4527279394,
				"y": 1.9412399764,
				"z": 1.6784109044,
				"element": "H" 
			}
		],
		 "valence_orbital": [ 
			{
				"type": "occ",
				"energy": -0.29788,
				"method": "rhf"
			},
			{
				"type": "occ",
				"energy": -0.28253,
				"method": "rhf"
			},
			{
				"type": "occ",
				"energy": -0.26453,
				"method": "rhf"
			},
			{
				"type": "occ",
				"energy": -0.24622,
				"method": "rhf"
			},
			{
				"type": "occ",
				"energy": -0.22474,
				"method": "rhf"
			},
			{
				"type": "unocc",
				"energy": -0.04542,
				"method": "rhf"
			},
			{
				"type": "unocc",
				"energy": -0.01846,
				"method": "rhf"
			},
			{
				"type": "unocc",
				"energy": 0.04991,
				"method": "rhf"
			},
			{
				"type": "unocc",
				"energy": 0.0718,
				"method": "rhf"
			},
			{
				"type": "unocc",
				"energy": 0.08409,
				"method": "rhf"
			}
		],
		"cosmo_sigma_profile": { 
			"-0.025": 0.0,
			"-0.024": 0.0,
			"-0.023": 0.0,
			"-0.022": 0.0,
			"-0.021": 0.0,
			"-0.02": 0.0,
			"-0.019": 0.0,
			"-0.018": 0.0,
			"-0.017": 0.0,
			"-0.016": 0.0,
			"-0.015": 0.0,
			"-0.014": 0.0,
			"-0.013": 0.0,
			"-0.012": 0.0,
			"-0.011": 0.30557655254,
			"-0.01": 1.43749752792,
			"-0.009": 2.15484952658,
			"-0.008": 4.81960549303,
			"-0.007": 8.08553694167,
			"-0.006": 11.9142228946,
			"-0.005": 17.18175126,
			"-0.004": 27.2426314865,
			"-0.003": 26.3168180566,
			"-0.002": 19.7853753916,
			"-0.001": 20.6099492417,
			"0.0": 18.7778073699,
			"0.001": 20.7412844243,
			"0.002": 15.0929047917,
			"0.003": 11.1946034204,
			"0.004": 13.7323539042,
			"0.005": 4.15341860087,
			"0.006": 3.33589544357,
			"0.007": 3.67944509755,
			"0.008": 3.70440954939,
			"0.009": 4.29150220632,
			"0.01": 7.09036917223,
			"0.011": 8.36695501606,
			"0.012": 4.47088380064,
			"0.013": 0.723959965872,
			"0.014": 0.514347224361,
			"0.015": 0.456600708529,
			"0.016": 0.692638988706,
			"0.017": 0.414132114011,
			"0.018": 0.365720842755,
			"0.019": 0.0,
			"0.02": 0.0,
			"0.021": 0.0,
			"0.022": 0.0,
			"0.023": 0.0,
			"0.024": 0.0,
			"0.025": 0.0
		}
	}
}
