{
	 "smiles": "C1=CC=C(C=C1)C1C2=C(C=CC=C2)C2=C1C=CC=C2", 
	 "Tm": 420.15, 
	 "num_atms": 33, 
	 "gaussian": { 
		 "optdone": 1, 
		 "sigma_profile": "yes", 
		 "theory": "DFT", 
		 "functional": "B3LYP", 
		 "basiset": "6-31G**", 
		 "properties": { 
			 "R2extent": 5021.1878, 
			 "electric_dipole_moment_norm": 0.284142956978, 
			 "electric_quadrupole_moment_norm": 6.74427800806, 
			 "total_energy": -732.479026914, 
			 "HOMO_LUMO_gap": 0.18353, 
			 "cosmo_polarized_energy": -7.08, 
			 "cosmo_cavitation_energy": 36.37, 
			 "cosmo_dispersion_energy": -25.38, 
			 "cosmo_repulsion_energy": 1.94, 
			 "cosmo_total_nonelectrostatic_energy": 12.93, 
			 "SMD_solvation_energy": 5.48 
		},
		"coords": [
			{
				"x": 0.6154575181,
				"y": 3.3650350085,
				"z": 3.7512918431,
				"element": "C" 
			},
			{
				"x": 1.3555721275,
				"y": 3.018744943,
				"z": 2.6166683451,
				"element": "C" 
			},
			{
				"x": 0.910590466,
				"y": 2.0057355303,
				"z": 1.770150065,
				"element": "C" 
			},
			{
				"x": -0.282600077,
				"y": 1.3193524324,
				"z": 2.0412934458,
				"element": "C" 
			},
			{
				"x": -1.0155322051,
				"y": 1.6737928827,
				"z": 3.1792771487,
				"element": "C" 
			},
			{
				"x": -0.571728228,
				"y": 2.6896010391,
				"z": 4.0304381541,
				"element": "C" 
			},
			{
				"x": -0.7715556933,
				"y": 0.2119656554,
				"z": 1.118338839,
				"element": "C" 
			},
			{
				"x": -1.0134188124,
				"y": 0.6344627861,
				"z": -0.327890288,
				"element": "C" 
			},
			{
				"x": -0.322854596,
				"y": -0.2178414745,
				"z": -1.2130860574,
				"element": "C" 
			},
			{
				"x": -0.4227037628,
				"y": -0.0320472997,
				"z": -2.5939548004,
				"element": "C" 
			},
			{
				"x": -1.2123628641,
				"y": 1.0134033577,
				"z": -3.0780954606,
				"element": "C" 
			},
			{
				"x": -1.8921125857,
				"y": 1.8621838465,
				"z": -2.1971492724,
				"element": "C" 
			},
			{
				"x": -1.7954902183,
				"y": 1.6759879582,
				"z": -0.8133426074,
				"element": "C" 
			},
			{
				"x": 0.425449185,
				"y": -1.206168545,
				"z": -0.4236453634,
				"element": "C" 
			},
			{
				"x": 0.1923991991,
				"y": -0.9580904271,
				"z": 0.9442046857,
				"element": "C" 
			},
			{
				"x": 0.7946062089,
				"y": -1.74480635,
				"z": 1.9191393066,
				"element": "C" 
			},
			{
				"x": 1.6325127315,
				"y": -2.7929225255,
				"z": 1.5212758046,
				"element": "C" 
			},
			{
				"x": 1.8604227299,
				"y": -3.0450262281,
				"z": 0.1636883233,
				"element": "C" 
			},
			{
				"x": 1.2599067631,
				"y": -2.2544311204,
				"z": -0.8187907566,
				"element": "C" 
			},
			{
				"x": 0.9634352449,
				"y": 4.1550608356,
				"z": 4.4105834604,
				"element": "H" 
			},
			{
				"x": 2.2819084893,
				"y": 3.5400459787,
				"z": 2.3916508894,
				"element": "H" 
			},
			{
				"x": 1.4899407205,
				"y": 1.7410380433,
				"z": 0.889914791,
				"element": "H" 
			},
			{
				"x": -1.9424231919,
				"y": 1.1503510293,
				"z": 3.4021437264,
				"element": "H" 
			},
			{
				"x": -1.1550989132,
				"y": 2.95014342,
				"z": 4.9092170408,
				"element": "H" 
			},
			{
				"x": -1.7152616076,
				"y": -0.1703856857,
				"z": 1.534214016,
				"element": "H" 
			},
			{
				"x": 0.1049086279,
				"y": -0.6854252424,
				"z": -3.2834874274,
				"element": "H" 
			},
			{
				"x": -1.2978856362,
				"y": 1.170912481,
				"z": -4.1495989732,
				"element": "H" 
			},
			{
				"x": -2.498326935,
				"y": 2.6730885202,
				"z": -2.5906685552,
				"element": "H" 
			},
			{
				"x": -2.3179810611,
				"y": 2.3406747259,
				"z": -0.1305470232,
				"element": "H" 
			},
			{
				"x": 0.624763516,
				"y": -1.5457996922,
				"z": 2.9739214623,
				"element": "H" 
			},
			{
				"x": 2.1111969738,
				"y": -3.4148229336,
				"z": 2.2722897563,
				"element": "H" 
			},
			{
				"x": 2.5132042275,
				"y": -3.8626512895,
				"z": -0.1289018189,
				"element": "H" 
			},
			{
				"x": 1.4436616586,
				"y": -2.4537616603,
				"z": -1.8710426995,
				"element": "H" 
			}
		],
		 "valence_orbital": [ 
			{
				"type": "occ",
				"energy": -0.2551,
				"method": "rhf"
			},
			{
				"type": "occ",
				"energy": -0.24769,
				"method": "rhf"
			},
			{
				"type": "occ",
				"energy": -0.24157,
				"method": "rhf"
			},
			{
				"type": "occ",
				"energy": -0.23562,
				"method": "rhf"
			},
			{
				"type": "occ",
				"energy": -0.21175,
				"method": "rhf"
			},
			{
				"type": "unocc",
				"energy": -0.02822,
				"method": "rhf"
			},
			{
				"type": "unocc",
				"energy": -0.01065,
				"method": "rhf"
			},
			{
				"type": "unocc",
				"energy": -0.00257,
				"method": "rhf"
			},
			{
				"type": "unocc",
				"energy": -0.00119,
				"method": "rhf"
			},
			{
				"type": "unocc",
				"energy": 0.01507,
				"method": "rhf"
			}
		],
		"cosmo_sigma_profile": { 
			"-0.025": 0.0,
			"-0.024": 0.0,
			"-0.023": 0.0,
			"-0.022": 0.0,
			"-0.021": 0.0,
			"-0.02": 0.0,
			"-0.019": 0.0,
			"-0.018": 0.0,
			"-0.017": 0.0,
			"-0.016": 0.0,
			"-0.015": 0.0,
			"-0.014": 0.0,
			"-0.013": 0.0,
			"-0.012": 0.0,
			"-0.011": 0.0,
			"-0.01": 0.0,
			"-0.009": 0.0,
			"-0.008": 0.0,
			"-0.007": 0.0579234857141,
			"-0.006": 12.1186869732,
			"-0.005": 28.0736150477,
			"-0.004": 28.3165081969,
			"-0.003": 30.6793591177,
			"-0.002": 22.4723653863,
			"-0.001": 19.4118784492,
			"0.0": 17.5914734555,
			"0.001": 18.3694354729,
			"0.002": 19.0173026853,
			"0.003": 23.7006307768,
			"0.004": 26.384752325,
			"0.005": 25.034503509,
			"0.006": 19.3459929498,
			"0.007": 1.13221280815,
			"0.008": 0.0,
			"0.009": 0.0,
			"0.01": 0.0,
			"0.011": 0.0,
			"0.012": 0.0,
			"0.013": 0.0,
			"0.014": 0.0,
			"0.015": 0.0,
			"0.016": 0.0,
			"0.017": 0.0,
			"0.018": 0.0,
			"0.019": 0.0,
			"0.02": 0.0,
			"0.021": 0.0,
			"0.022": 0.0,
			"0.023": 0.0,
			"0.024": 0.0,
			"0.025": 0.0
		}
	}
}
