{
	 "smiles": "COC(=O)C1=CC(Br)=CC(Br)=C1O", 
	 "Tm": 424.15, 
	 "num_atms": 19, 
	 "gaussian": { 
		 "optdone": 1, 
		 "sigma_profile": "yes", 
		 "theory": "DFT", 
		 "functional": "B3LYP", 
		 "basiset": "6-31G**", 
		 "properties": { 
			 "R2extent": 10307.2964, 
			 "electric_dipole_moment_norm": 2.67944982039, 
			 "electric_quadrupole_moment_norm": 9.42072137684, 
			 "total_energy": -5676.94767098, 
			 "HOMO_LUMO_gap": 0.17676, 
			 "cosmo_polarized_energy": -9.63, 
			 "cosmo_cavitation_energy": 28.55, 
			 "cosmo_dispersion_energy": -21.93, 
			 "cosmo_repulsion_energy": 1.74, 
			 "cosmo_total_nonelectrostatic_energy": 8.37, 
			 "SMD_solvation_energy": 4.64 
		},
		"coords": [
			{
				"x": 2.6560549119,
				"y": -3.2166314613,
				"z": -1.2208939663,
				"element": "C" 
			},
			{
				"x": 2.7444468694,
				"y": -1.8950675696,
				"z": -0.6629463784,
				"element": "O" 
			},
			{
				"x": 2.2733888117,
				"y": -1.7738405531,
				"z": 0.5876357526,
				"element": "C" 
			},
			{
				"x": 1.803267402,
				"y": -2.7044866167,
				"z": 1.2159050301,
				"element": "O" 
			},
			{
				"x": 2.3740767888,
				"y": -0.3883058466,
				"z": 1.1519526588,
				"element": "C" 
			},
			{
				"x": 1.8842351579,
				"y": -0.2491941807,
				"z": 2.4588961029,
				"element": "C" 
			},
			{
				"x": 1.9128685972,
				"y": 0.9751896329,
				"z": 3.1080611995,
				"element": "C" 
			},
			{
				"x": 1.2398263819,
				"y": 1.1356153853,
				"z": 4.8855840328,
				"element": "Br" 
			},
			{
				"x": 2.4327233308,
				"y": 2.1006897847,
				"z": 2.4703736998,
				"element": "C" 
			},
			{
				"x": 2.917669917,
				"y": 1.9650180943,
				"z": 1.1776685346,
				"element": "C" 
			},
			{
				"x": 3.6359972648,
				"y": 3.5038906296,
				"z": 0.2863993817,
				"element": "Br" 
			},
			{
				"x": 2.9070538451,
				"y": 0.7381625863,
				"z": 0.482220552,
				"element": "C" 
			},
			{
				"x": 3.3835334435,
				"y": 0.6324372979,
				"z": -0.7713547138,
				"element": "O" 
			},
			{
				"x": 1.6154441486,
				"y": -3.5475159915,
				"z": -1.2631430205,
				"element": "H" 
			},
			{
				"x": 3.0757794247,
				"y": -3.1361322367,
				"z": -2.2231998255,
				"element": "H" 
			},
			{
				"x": 3.2272174981,
				"y": -3.9274359637,
				"z": -0.6186826088,
				"element": "H" 
			},
			{
				"x": 1.4839552718,
				"y": -1.1330713115,
				"z": 2.9395574003,
				"element": "H" 
			},
			{
				"x": 2.4599221703,
				"y": 3.0618045951,
				"z": 2.9679819352,
				"element": "H" 
			},
			{
				"x": 3.7018387646,
				"y": 1.5074737253,
				"z": -1.0517157668,
				"element": "H" 
			}
		],
		 "valence_orbital": [ 
			{
				"type": "occ",
				"energy": -0.29986,
				"method": "rhf"
			},
			{
				"type": "occ",
				"energy": -0.29488,
				"method": "rhf"
			},
			{
				"type": "occ",
				"energy": -0.28099,
				"method": "rhf"
			},
			{
				"type": "occ",
				"energy": -0.27078,
				"method": "rhf"
			},
			{
				"type": "occ",
				"energy": -0.23717,
				"method": "rhf"
			},
			{
				"type": "unocc",
				"energy": -0.06041,
				"method": "rhf"
			},
			{
				"type": "unocc",
				"energy": -0.02957,
				"method": "rhf"
			},
			{
				"type": "unocc",
				"energy": -0.02069,
				"method": "rhf"
			},
			{
				"type": "unocc",
				"energy": 0.0147,
				"method": "rhf"
			},
			{
				"type": "unocc",
				"energy": 0.04044,
				"method": "rhf"
			}
		],
		"cosmo_sigma_profile": { 
			"-0.025": 0.0,
			"-0.024": 0.0,
			"-0.023": 0.0,
			"-0.022": 0.0,
			"-0.021": 0.0,
			"-0.02": 0.0,
			"-0.019": 0.0,
			"-0.018": 0.0,
			"-0.017": 0.0,
			"-0.016": 0.0,
			"-0.015": 0.427500497978,
			"-0.014": 0.560573653835,
			"-0.013": 0.183720346439,
			"-0.012": 0.754529913791,
			"-0.011": 1.31321142772,
			"-0.01": 0.942033999533,
			"-0.009": 1.74129199231,
			"-0.008": 2.80653284352,
			"-0.007": 3.51110346551,
			"-0.006": 9.72733807352,
			"-0.005": 12.9704283034,
			"-0.004": 16.5183070744,
			"-0.003": 19.2748131949,
			"-0.002": 17.6717221264,
			"-0.001": 22.1909352269,
			"0.0": 25.7713320825,
			"0.001": 22.6249058515,
			"0.002": 16.4984220898,
			"0.003": 16.2944101268,
			"0.004": 14.9643661695,
			"0.005": 4.23507221645,
			"0.006": 3.16481685262,
			"0.007": 3.20851272073,
			"0.008": 2.85576250219,
			"0.009": 2.80875862364,
			"0.01": 3.30898758361,
			"0.011": 4.87798754253,
			"0.012": 4.12134030292,
			"0.013": 0.39381738413,
			"0.014": 0.0,
			"0.015": 0.0,
			"0.016": 0.0,
			"0.017": 0.0,
			"0.018": 0.0,
			"0.019": 0.0,
			"0.02": 0.0,
			"0.021": 0.0,
			"0.022": 0.0,
			"0.023": 0.0,
			"0.024": 0.0,
			"0.025": 0.0
		}
	}
}
