{
	 "smiles": "CCC1=NNC(N)=C1Br", 
	 "Tm": 391.15, 
	 "num_atms": 17, 
	 "gaussian": { 
		 "optdone": 1, 
		 "sigma_profile": "yes", 
		 "theory": "DFT", 
		 "functional": "B3LYP", 
		 "basiset": "6-31G**", 
		 "properties": { 
			 "R2extent": 2769.9536, 
			 "electric_dipole_moment_norm": 2.86069700248, 
			 "electric_quadrupole_moment_norm": 16.1688622825, 
			 "total_energy": -2930.99590332, 
			 "HOMO_LUMO_gap": 0.2299, 
			 "cosmo_polarized_energy": -12.42, 
			 "cosmo_cavitation_energy": 22.87, 
			 "cosmo_dispersion_energy": -17.23, 
			 "cosmo_repulsion_energy": 1.44, 
			 "cosmo_total_nonelectrostatic_energy": 7.09, 
			 "SMD_solvation_energy": 1.87 
		},
		"coords": [
			{
				"x": -1.4394045106,
				"y": 1.0950296363,
				"z": 0.2192484296,
				"element": "C" 
			},
			{
				"x": -0.7098197465,
				"y": -0.1705810439,
				"z": 0.7031628207,
				"element": "C" 
			},
			{
				"x": -0.6725333104,
				"y": -1.2619475332,
				"z": -0.324491494,
				"element": "C" 
			},
			{
				"x": -1.4922597774,
				"y": -2.3072557001,
				"z": -0.249217456,
				"element": "N" 
			},
			{
				"x": -1.2049278167,
				"y": -3.0625255098,
				"z": -1.3505018596,
				"element": "N" 
			},
			{
				"x": -0.2245826127,
				"y": -2.5313096991,
				"z": -2.1250722819,
				"element": "C" 
			},
			{
				"x": 0.2788930869,
				"y": -3.1649655936,
				"z": -3.2570102238,
				"element": "N" 
			},
			{
				"x": 0.1375233452,
				"y": -1.3565645997,
				"z": -1.4861245445,
				"element": "C" 
			},
			{
				"x": 1.4585691786,
				"y": -0.1579294774,
				"z": -2.1080908313,
				"element": "Br" 
			},
			{
				"x": -2.4769941182,
				"y": 0.866779131,
				"z": -0.0432711687,
				"element": "H" 
			},
			{
				"x": -0.9514824276,
				"y": 1.5183469752,
				"z": -0.664048268,
				"element": "H" 
			},
			{
				"x": -1.4455820585,
				"y": 1.8608629732,
				"z": 1.0017219694,
				"element": "H" 
			},
			{
				"x": -1.2049202783,
				"y": -0.5687085831,
				"z": 1.5942135673,
				"element": "H" 
			},
			{
				"x": 0.317048982,
				"y": 0.0875129092,
				"z": 0.9890177563,
				"element": "H" 
			},
			{
				"x": -1.637090827,
				"y": -3.9669878037,
				"z": -1.4535696657,
				"element": "H" 
			},
			{
				"x": -0.431147275,
				"y": -3.4065879705,
				"z": -3.9402913908,
				"element": "H" 
			},
			{
				"x": 1.0015101663,
				"y": -2.6037681107,
				"z": -3.6942753591,
				"element": "H" 
			}
		],
		 "valence_orbital": [ 
			{
				"type": "occ",
				"energy": -0.314,
				"method": "rhf"
			},
			{
				"type": "occ",
				"energy": -0.30136,
				"method": "rhf"
			},
			{
				"type": "occ",
				"energy": -0.27612,
				"method": "rhf"
			},
			{
				"type": "occ",
				"energy": -0.23879,
				"method": "rhf"
			},
			{
				"type": "occ",
				"energy": -0.21034,
				"method": "rhf"
			},
			{
				"type": "unocc",
				"energy": 0.01956,
				"method": "rhf"
			},
			{
				"type": "unocc",
				"energy": 0.02574,
				"method": "rhf"
			},
			{
				"type": "unocc",
				"energy": 0.06568,
				"method": "rhf"
			},
			{
				"type": "unocc",
				"energy": 0.07211,
				"method": "rhf"
			},
			{
				"type": "unocc",
				"energy": 0.09951,
				"method": "rhf"
			}
		],
		"cosmo_sigma_profile": { 
			"-0.025": 0.0,
			"-0.024": 0.0,
			"-0.023": 0.0,
			"-0.022": 0.0,
			"-0.021": 0.0,
			"-0.02": 0.0,
			"-0.019": 0.0,
			"-0.018": 0.0,
			"-0.017": 0.146038237055,
			"-0.016": 1.32950246316,
			"-0.015": 1.48054597932,
			"-0.014": 1.88225005817,
			"-0.013": 3.81449511931,
			"-0.012": 2.40410402563,
			"-0.011": 3.66869293687,
			"-0.01": 3.69941201023,
			"-0.009": 2.17405337617,
			"-0.008": 2.52765042298,
			"-0.007": 2.23009707147,
			"-0.006": 2.52265040856,
			"-0.005": 2.70212805989,
			"-0.004": 5.1169489225,
			"-0.003": 9.85201899262,
			"-0.002": 13.4731387508,
			"-0.001": 17.1287861154,
			"0.0": 17.7904881967,
			"0.001": 17.9955897401,
			"0.002": 12.1679941714,
			"0.003": 13.8209426638,
			"0.004": 15.2615829337,
			"0.005": 9.53430111916,
			"0.006": 3.22479147956,
			"0.007": 2.92429471063,
			"0.008": 1.52342602749,
			"0.009": 1.60315165065,
			"0.01": 1.76777308172,
			"0.011": 3.17105321628,
			"0.012": 1.22341705909,
			"0.013": 1.22269974657,
			"0.014": 1.9741010678,
			"0.015": 1.00849877254,
			"0.016": 0.89015465046,
			"0.017": 0.240000361053,
			"0.018": 0.0,
			"0.019": 0.0,
			"0.02": 0.0,
			"0.021": 0.0,
			"0.022": 0.0,
			"0.023": 0.0,
			"0.024": 0.0,
			"0.025": 0.0
		}
	}
}
