{
	 "smiles": "CC1=C(CC(N)=NO)C=CC=C1", 
	 "Tm": 395.15, 
	 "num_atms": 24, 
	 "gaussian": { 
		 "optdone": 1, 
		 "sigma_profile": "yes", 
		 "theory": "DFT", 
		 "functional": "B3LYP", 
		 "basiset": "6-31G**", 
		 "properties": { 
			 "R2extent": 2434.626, 
			 "electric_dipole_moment_norm": 1.65170998968, 
			 "electric_quadrupole_moment_norm": 4.14499444752, 
			 "total_energy": -534.876628741, 
			 "HOMO_LUMO_gap": 0.20231, 
			 "cosmo_polarized_energy": -11.06, 
			 "cosmo_cavitation_energy": 27.14, 
			 "cosmo_dispersion_energy": -19.59, 
			 "cosmo_repulsion_energy": 1.58, 
			 "cosmo_total_nonelectrostatic_energy": 9.14, 
			 "SMD_solvation_energy": 4.42 
		},
		"coords": [
			{
				"x": -0.9848458939,
				"y": -1.7568406201,
				"z": -1.634929854,
				"element": "C" 
			},
			{
				"x": 0.1036766065,
				"y": -0.7031159825,
				"z": -1.6236078921,
				"element": "C" 
			},
			{
				"x": -0.0451966112,
				"y": 0.5189980348,
				"z": -0.9332568226,
				"element": "C" 
			},
			{
				"x": -1.2923689394,
				"y": 0.8454446875,
				"z": -0.1253973126,
				"element": "C" 
			},
			{
				"x": -1.0924741997,
				"y": 0.6985881962,
				"z": 1.3672625488,
				"element": "C" 
			},
			{
				"x": -0.5981043881,
				"y": -0.5007345698,
				"z": 1.8367459994,
				"element": "N" 
			},
			{
				"x": -1.4684508047,
				"y": 1.6838202141,
				"z": 2.1095878043,
				"element": "N" 
			},
			{
				"x": -1.2328228603,
				"y": 1.3593194226,
				"z": 3.4833827484,
				"element": "O" 
			},
			{
				"x": 0.9936627918,
				"y": 1.4594683597,
				"z": -0.9702242562,
				"element": "C" 
			},
			{
				"x": 2.1689620518,
				"y": 1.2162500045,
				"z": -1.6778543413,
				"element": "C" 
			},
			{
				"x": 2.3190655743,
				"y": 0.0103776547,
				"z": -2.3633088249,
				"element": "C" 
			},
			{
				"x": 1.2934208795,
				"y": -0.9329307369,
				"z": -2.330837877,
				"element": "C" 
			},
			{
				"x": -1.8834622981,
				"y": -1.4049772099,
				"z": -2.1560924884,
				"element": "H" 
			},
			{
				"x": -1.2954157227,
				"y": -2.0448743103,
				"z": -0.6248253891,
				"element": "H" 
			},
			{
				"x": -0.6424061814,
				"y": -2.6592455647,
				"z": -2.1482435026,
				"element": "H" 
			},
			{
				"x": -1.6033381362,
				"y": 1.8781418207,
				"z": -0.30205792,
				"element": "H" 
			},
			{
				"x": -2.1247685065,
				"y": 0.2019514552,
				"z": -0.4275497994,
				"element": "H" 
			},
			{
				"x": -0.3256586487,
				"y": -0.4713036004,
				"z": 2.8107221528,
				"element": "H" 
			},
			{
				"x": 0.0716439015,
				"y": -0.9532693292,
				"z": 1.2295088802,
				"element": "H" 
			},
			{
				"x": -1.4962777525,
				"y": 2.1752906021,
				"z": 3.9246915131,
				"element": "H" 
			},
			{
				"x": 0.8702773419,
				"y": 2.3949797488,
				"z": -0.4298497344,
				"element": "H" 
			},
			{
				"x": 2.9588454517,
				"y": 1.9616501153,
				"z": -1.6946499381,
				"element": "H" 
			},
			{
				"x": 3.2282205814,
				"y": -0.1956698951,
				"z": -2.921030553,
				"element": "H" 
			},
			{
				"x": 1.4117157629,
				"y": -1.8715184973,
				"z": -2.8667851413,
				"element": "H" 
			}
		],
		 "valence_orbital": [ 
			{
				"type": "occ",
				"energy": -0.30426,
				"method": "rhf"
			},
			{
				"type": "occ",
				"energy": -0.26605,
				"method": "rhf"
			},
			{
				"type": "occ",
				"energy": -0.2469,
				"method": "rhf"
			},
			{
				"type": "occ",
				"energy": -0.24125,
				"method": "rhf"
			},
			{
				"type": "occ",
				"energy": -0.20893,
				"method": "rhf"
			},
			{
				"type": "unocc",
				"energy": -0.00662,
				"method": "rhf"
			},
			{
				"type": "unocc",
				"energy": -0.00204,
				"method": "rhf"
			},
			{
				"type": "unocc",
				"energy": 0.0452,
				"method": "rhf"
			},
			{
				"type": "unocc",
				"energy": 0.07759,
				"method": "rhf"
			},
			{
				"type": "unocc",
				"energy": 0.09642,
				"method": "rhf"
			}
		],
		"cosmo_sigma_profile": { 
			"-0.025": 0.0,
			"-0.024": 0.0,
			"-0.023": 0.0,
			"-0.022": 0.0,
			"-0.021": 0.0,
			"-0.02": 0.0,
			"-0.019": 0.0,
			"-0.018": 0.0,
			"-0.017": 0.0980532002714,
			"-0.016": 0.804892491635,
			"-0.015": 1.18604850771,
			"-0.014": 0.504987145192,
			"-0.013": 0.73938910887,
			"-0.012": 1.1396792512,
			"-0.011": 2.18308625841,
			"-0.01": 2.36919600158,
			"-0.009": 2.16395306177,
			"-0.008": 2.61506395116,
			"-0.007": 2.68798952758,
			"-0.006": 4.33630406404,
			"-0.005": 15.2268106357,
			"-0.004": 19.0041626571,
			"-0.003": 20.0529399195,
			"-0.002": 17.1968971844,
			"-0.001": 17.1516161579,
			"0.0": 16.2689502824,
			"0.001": 12.9918271389,
			"0.002": 9.56700038005,
			"0.003": 9.85268153541,
			"0.004": 11.1130992154,
			"0.005": 9.89338147321,
			"0.006": 9.31957431214,
			"0.007": 4.64570225313,
			"0.008": 5.98020627502,
			"0.009": 3.508746611,
			"0.01": 3.92127294829,
			"0.011": 2.59187379047,
			"0.012": 1.99389207566,
			"0.013": 0.87641788472,
			"0.014": 0.892144369019,
			"0.015": 0.796217225273,
			"0.016": 0.274297176964,
			"0.017": 0.0,
			"0.018": 0.0,
			"0.019": 0.0,
			"0.02": 0.0,
			"0.021": 0.0,
			"0.022": 0.0,
			"0.023": 0.0,
			"0.024": 0.0,
			"0.025": 0.0
		}
	}
}
