{
	 "smiles": "FC(F)C(F)(F)OC1=C(Cl)C=C(NC(=O)NC(=O)C2=C(F)C=CC=C2F)C=C1Cl", 
	 "Tm": 477.15, 
	 "num_atms": 37, 
	 "gaussian": { 
		 "optdone": 1, 
		 "sigma_profile": "yes", 
		 "theory": "DFT", 
		 "functional": "B3LYP", 
		 "basiset": "6-31G**", 
		 "properties": { 
			 "R2extent": 18394.1009, 
			 "electric_dipole_moment_norm": 3.77406003397, 
			 "electric_quadrupole_moment_norm": 11.5570147144, 
			 "total_energy": -2469.11098968, 
			 "HOMO_LUMO_gap": 0.19571, 
			 "cosmo_polarized_energy": -21.63, 
			 "cosmo_cavitation_energy": 49.81, 
			 "cosmo_dispersion_energy": -33.19, 
			 "cosmo_repulsion_energy": 2.39, 
			 "cosmo_total_nonelectrostatic_energy": 19.01, 
			 "SMD_solvation_energy": 11.75 
		},
		"coords": [
			{
				"x": -5.5313351183,
				"y": 0.2770315256,
				"z": 3.2745311128,
				"element": "F" 
			},
			{
				"x": -5.8902199735,
				"y": -0.9599262335,
				"z": 2.8584262324,
				"element": "C" 
			},
			{
				"x": -5.7011902086,
				"y": -1.8431861564,
				"z": 3.8670293408,
				"element": "F" 
			},
			{
				"x": -5.013477273,
				"y": -1.3626707869,
				"z": 1.6650737971,
				"element": "C" 
			},
			{
				"x": -5.228378758,
				"y": -0.4876199884,
				"z": 0.6500670879,
				"element": "F" 
			},
			{
				"x": -5.4278623371,
				"y": -2.5755327944,
				"z": 1.2141623392,
				"element": "F" 
			},
			{
				"x": -3.6969138584,
				"y": -1.3857460157,
				"z": 2.0535665577,
				"element": "O" 
			},
			{
				"x": -2.7140388926,
				"y": -1.4826575236,
				"z": 1.0847682211,
				"element": "C" 
			},
			{
				"x": -2.1889244202,
				"y": -2.7280979595,
				"z": 0.7084333299,
				"element": "C" 
			},
			{
				"x": -2.7934945388,
				"y": -4.1958468393,
				"z": 1.42726157,
				"element": "Cl" 
			},
			{
				"x": -1.1369677511,
				"y": -2.8159642106,
				"z": -0.1994287926,
				"element": "C" 
			},
			{
				"x": -0.5941753653,
				"y": -1.6533383532,
				"z": -0.7589771156,
				"element": "C" 
			},
			{
				"x": 0.433051945,
				"y": -1.7865178872,
				"z": -1.7183817618,
				"element": "N" 
			},
			{
				"x": 1.4966482051,
				"y": -0.9415680765,
				"z": -2.0059962025,
				"element": "C" 
			},
			{
				"x": 2.0812390378,
				"y": -0.9938030787,
				"z": -3.0710557275,
				"element": "O" 
			},
			{
				"x": 1.8559498171,
				"y": -0.0989232293,
				"z": -0.9474973316,
				"element": "N" 
			},
			{
				"x": 2.7429790412,
				"y": 0.9812015836,
				"z": -0.9755584472,
				"element": "C" 
			},
			{
				"x": 3.2260568354,
				"y": 1.3817388208,
				"z": 0.0668670481,
				"element": "O" 
			},
			{
				"x": 2.9964098913,
				"y": 1.6571114698,
				"z": -2.2855670165,
				"element": "C" 
			},
			{
				"x": 4.2942784211,
				"y": 2.0341015539,
				"z": -2.6508346707,
				"element": "C" 
			},
			{
				"x": 5.3190941861,
				"y": 1.6626187501,
				"z": -1.8706678267,
				"element": "F" 
			},
			{
				"x": 4.5662630086,
				"y": 2.7519459185,
				"z": -3.8092313854,
				"element": "C" 
			},
			{
				"x": 3.5050022642,
				"y": 3.1289107363,
				"z": -4.6313131581,
				"element": "C" 
			},
			{
				"x": 2.1920175069,
				"y": 2.7864976978,
				"z": -4.3041493782,
				"element": "C" 
			},
			{
				"x": 1.9695630367,
				"y": 2.0575205319,
				"z": -3.1461288836,
				"element": "C" 
			},
			{
				"x": 0.6948116946,
				"y": 1.7380072018,
				"z": -2.8243243973,
				"element": "F" 
			},
			{
				"x": -1.0966973682,
				"y": -0.4004469563,
				"z": -0.3836060578,
				"element": "C" 
			},
			{
				"x": -2.1281156034,
				"y": -0.3251854037,
				"z": 0.5495692138,
				"element": "C" 
			},
			{
				"x": -2.682140039,
				"y": 1.2466723756,
				"z": 1.0567811408,
				"element": "Cl" 
			},
			{
				"x": -6.9451094289,
				"y": -0.9584686058,
				"z": 2.5615089099,
				"element": "H" 
			},
			{
				"x": -0.7320341776,
				"y": -3.7881528629,
				"z": -0.4558922715,
				"element": "H" 
			},
			{
				"x": 0.3255170973,
				"y": -2.5070701581,
				"z": -2.4199719852,
				"element": "H" 
			},
			{
				"x": 1.6089522909,
				"y": -0.3737676529,
				"z": -0.0036891141,
				"element": "H" 
			},
			{
				"x": 5.5940765435,
				"y": 3.0008328542,
				"z": -4.0460455931,
				"element": "H" 
			},
			{
				"x": 3.7016589383,
				"y": 3.6950794699,
				"z": -5.5359975106,
				"element": "H" 
			},
			{
				"x": 1.3497636198,
				"y": 3.0721353132,
				"z": -4.9232290393,
				"element": "H" 
			},
			{
				"x": -0.703358269,
				"y": 0.5072849697,
				"z": -0.8229022346,
				"element": "H" 
			}
		],
		 "valence_orbital": [ 
			{
				"type": "occ",
				"energy": -0.27797,
				"method": "rhf"
			},
			{
				"type": "occ",
				"energy": -0.27065,
				"method": "rhf"
			},
			{
				"type": "occ",
				"energy": -0.26536,
				"method": "rhf"
			},
			{
				"type": "occ",
				"energy": -0.2583,
				"method": "rhf"
			},
			{
				"type": "occ",
				"energy": -0.25556,
				"method": "rhf"
			},
			{
				"type": "unocc",
				"energy": -0.05985,
				"method": "rhf"
			},
			{
				"type": "unocc",
				"energy": -0.04783,
				"method": "rhf"
			},
			{
				"type": "unocc",
				"energy": -0.0428,
				"method": "rhf"
			},
			{
				"type": "unocc",
				"energy": -0.01387,
				"method": "rhf"
			},
			{
				"type": "unocc",
				"energy": -0.01092,
				"method": "rhf"
			}
		],
		"cosmo_sigma_profile": { 
			"-0.025": 0.0,
			"-0.024": 0.0,
			"-0.023": 0.0,
			"-0.022": 0.0,
			"-0.021": 0.0,
			"-0.02": 0.0,
			"-0.019": 0.0,
			"-0.018": 0.0,
			"-0.017": 0.0,
			"-0.016": 0.966851863793,
			"-0.015": 1.91461739174,
			"-0.014": 2.2156929462,
			"-0.013": 1.43753285869,
			"-0.012": 2.93151666849,
			"-0.011": 5.61853460387,
			"-0.01": 4.96608430556,
			"-0.009": 5.17502984462,
			"-0.008": 9.19103340508,
			"-0.007": 10.2575482141,
			"-0.006": 12.7825871577,
			"-0.005": 12.7625459481,
			"-0.004": 14.8749212165,
			"-0.003": 19.7158643914,
			"-0.002": 26.2622429978,
			"-0.001": 35.3581191535,
			"0.0": 34.3811183206,
			"0.001": 27.8073796239,
			"0.002": 44.4004156732,
			"0.003": 63.6796557849,
			"0.004": 28.0860465148,
			"0.005": 6.80618710177,
			"0.006": 3.88578176944,
			"0.007": 3.48607586424,
			"0.008": 3.26476912777,
			"0.009": 3.64966315123,
			"0.01": 5.1277708502,
			"0.011": 7.46155073809,
			"0.012": 6.33206885591,
			"0.013": 0.595064439027,
			"0.014": 0.0,
			"0.015": 0.0,
			"0.016": 0.0,
			"0.017": 0.0,
			"0.018": 0.0,
			"0.019": 0.0,
			"0.02": 0.0,
			"0.021": 0.0,
			"0.022": 0.0,
			"0.023": 0.0,
			"0.024": 0.0,
			"0.025": 0.0
		}
	}
}
