{
	 "smiles": "CNC(=O)C1=CC=C(C=C1)S(Cl)(=O)=O", 
	 "Tm": 401.15, 
	 "num_atms": 22, 
	 "gaussian": { 
		 "optdone": 1, 
		 "sigma_profile": "yes", 
		 "theory": "DFT", 
		 "functional": "B3LYP", 
		 "basiset": "6-31G**", 
		 "properties": { 
			 "R2extent": 4630.8018, 
			 "electric_dipole_moment_norm": 6.06870389128, 
			 "electric_quadrupole_moment_norm": 19.049300962, 
			 "total_energy": -1448.41516116, 
			 "HOMO_LUMO_gap": 0.16591, 
			 "cosmo_polarized_energy": -16.15, 
			 "cosmo_cavitation_energy": 30.14, 
			 "cosmo_dispersion_energy": -22.25, 
			 "cosmo_repulsion_energy": 1.73, 
			 "cosmo_total_nonelectrostatic_energy": 9.62, 
			 "SMD_solvation_energy": 4.21 
		},
		"coords": [
			{
				"x": -2.6538990832,
				"y": 2.6971932373,
				"z": 0.9499497595,
				"element": "C" 
			},
			{
				"x": -1.3367855371,
				"y": 3.3192136,
				"z": 0.9116692356,
				"element": "N" 
			},
			{
				"x": -0.1851425032,
				"y": 2.8716434596,
				"z": 0.3213743434,
				"element": "C" 
			},
			{
				"x": 0.7449207267,
				"y": 3.6327683073,
				"z": 0.074931677,
				"element": "O" 
			},
			{
				"x": -0.0564911632,
				"y": 1.4023499228,
				"z": 0.0026543958,
				"element": "C" 
			},
			{
				"x": 0.6474850957,
				"y": 1.0614327518,
				"z": -1.1613333388,
				"element": "C" 
			},
			{
				"x": 0.8638906593,
				"y": -0.2719495855,
				"z": -1.4932348172,
				"element": "C" 
			},
			{
				"x": 0.3910684868,
				"y": -1.256564452,
				"z": -0.6232466707,
				"element": "C" 
			},
			{
				"x": -0.2788471063,
				"y": -0.9496297584,
				"z": 0.5602317341,
				"element": "C" 
			},
			{
				"x": -0.5032678948,
				"y": 0.3918811705,
				"z": 0.8656292279,
				"element": "C" 
			},
			{
				"x": 0.681640025,
				"y": -2.9749531662,
				"z": -1.0237735202,
				"element": "S" 
			},
			{
				"x": -1.0694866922,
				"y": -3.4320766056,
				"z": -2.1595851098,
				"element": "Cl" 
			},
			{
				"x": 0.5962605881,
				"y": -3.7759146791,
				"z": 0.1907562601,
				"element": "O" 
			},
			{
				"x": 1.8023979066,
				"y": -3.0745333759,
				"z": -1.9493604394,
				"element": "O" 
			},
			{
				"x": -2.6892943648,
				"y": 1.8376738177,
				"z": 0.2798047918,
				"element": "H" 
			},
			{
				"x": -3.4091989321,
				"y": 3.4143617677,
				"z": 0.6142235216,
				"element": "H" 
			},
			{
				"x": -2.9254539699,
				"y": 2.3628517528,
				"z": 1.9587913327,
				"element": "H" 
			},
			{
				"x": -1.2908185752,
				"y": 4.3112762737,
				"z": 1.107413732,
				"element": "H" 
			},
			{
				"x": 1.0308810963,
				"y": 1.8574441811,
				"z": -1.7900159528,
				"element": "H" 
			},
			{
				"x": 1.4012569909,
				"y": -0.5487907922,
				"z": -2.3931821728,
				"element": "H" 
			},
			{
				"x": -0.6024757676,
				"y": -1.7407012643,
				"z": 1.2271043491,
				"element": "H" 
			},
			{
				"x": -1.003839986,
				"y": 0.647923437,
				"z": 1.793297661,
				"element": "H" 
			}
		],
		 "valence_orbital": [ 
			{
				"type": "occ",
				"energy": -0.31597,
				"method": "rhf"
			},
			{
				"type": "occ",
				"energy": -0.29655,
				"method": "rhf"
			},
			{
				"type": "occ",
				"energy": -0.29359,
				"method": "rhf"
			},
			{
				"type": "occ",
				"energy": -0.27349,
				"method": "rhf"
			},
			{
				"type": "occ",
				"energy": -0.26262,
				"method": "rhf"
			},
			{
				"type": "unocc",
				"energy": -0.09671,
				"method": "rhf"
			},
			{
				"type": "unocc",
				"energy": -0.05907,
				"method": "rhf"
			},
			{
				"type": "unocc",
				"energy": -0.0428,
				"method": "rhf"
			},
			{
				"type": "unocc",
				"energy": 0.01908,
				"method": "rhf"
			},
			{
				"type": "unocc",
				"energy": 0.04987,
				"method": "rhf"
			}
		],
		"cosmo_sigma_profile": { 
			"-0.025": 0.0,
			"-0.024": 0.0,
			"-0.023": 0.0,
			"-0.022": 0.0,
			"-0.021": 0.0,
			"-0.02": 0.0,
			"-0.019": 0.0,
			"-0.018": 0.0,
			"-0.017": 0.0,
			"-0.016": 0.0,
			"-0.015": 0.0,
			"-0.014": 0.822071548782,
			"-0.013": 0.996253285908,
			"-0.012": 0.974100140882,
			"-0.011": 0.93085187788,
			"-0.01": 1.33070531475,
			"-0.009": 2.71234984825,
			"-0.008": 6.25647776698,
			"-0.007": 9.84673809291,
			"-0.006": 12.544930532,
			"-0.005": 15.549910666,
			"-0.004": 16.965906798,
			"-0.003": 19.3603720639,
			"-0.002": 17.987205499,
			"-0.001": 17.1197979057,
			"0.0": 20.2933071662,
			"0.001": 14.3025213851,
			"0.002": 11.6781065563,
			"0.003": 17.4197572373,
			"0.004": 10.7956142652,
			"0.005": 5.32359778758,
			"0.006": 3.79594755018,
			"0.007": 7.8879224934,
			"0.008": 11.2939515829,
			"0.009": 4.5421967325,
			"0.01": 0.941444644452,
			"0.011": 1.6340717165,
			"0.012": 2.23731854674,
			"0.013": 5.25984881107,
			"0.014": 2.92221259641,
			"0.015": 0.018500656203,
			"0.016": 0.0,
			"0.017": 0.0,
			"0.018": 0.0,
			"0.019": 0.0,
			"0.02": 0.0,
			"0.021": 0.0,
			"0.022": 0.0,
			"0.023": 0.0,
			"0.024": 0.0,
			"0.025": 0.0
		}
	}
}
