{
	 "smiles": "ClC1=C(NCC2=CC=CC=C2)C(=O)C(C#N)=C(C#N)C1=O", 
	 "Tm": 506.15, 
	 "num_atms": 29, 
	 "gaussian": { 
		 "optdone": 1, 
		 "sigma_profile": "yes", 
		 "theory": "DFT", 
		 "functional": "B3LYP", 
		 "basiset": "6-31G**", 
		 "properties": { 
			 "R2extent": 8080.9704, 
			 "electric_dipole_moment_norm": 7.96439974512, 
			 "electric_quadrupole_moment_norm": 32.5450580084, 
			 "total_energy": -1351.22427102, 
			 "HOMO_LUMO_gap": 0.08379, 
			 "cosmo_polarized_energy": -20.33, 
			 "cosmo_cavitation_energy": 38.86, 
			 "cosmo_dispersion_energy": -26.07, 
			 "cosmo_repulsion_energy": 1.98, 
			 "cosmo_total_nonelectrostatic_energy": 14.77, 
			 "SMD_solvation_energy": 9.28 
		},
		"coords": [
			{
				"x": 1.2003957994,
				"y": 2.2650677516,
				"z": 0.1277418451,
				"element": "Cl" 
			},
			{
				"x": 1.7571678903,
				"y": 0.7108311988,
				"z": 0.6978379347,
				"element": "C" 
			},
			{
				"x": 0.9120423694,
				"y": -0.3329625829,
				"z": 1.0101320632,
				"element": "C" 
			},
			{
				"x": -0.4298555326,
				"y": -0.4440042537,
				"z": 0.9659760388,
				"element": "N" 
			},
			{
				"x": -1.4629529498,
				"y": 0.3593733947,
				"z": 0.2945362213,
				"element": "C" 
			},
			{
				"x": -1.8328126682,
				"y": -0.2042101939,
				"z": -1.0661948519,
				"element": "C" 
			},
			{
				"x": -2.9253816971,
				"y": -1.0695195433,
				"z": -1.1984835964,
				"element": "C" 
			},
			{
				"x": -3.2541160913,
				"y": -1.6137665125,
				"z": -2.4412272438,
				"element": "C" 
			},
			{
				"x": -2.4908066103,
				"y": -1.2954409389,
				"z": -3.5652974661,
				"element": "C" 
			},
			{
				"x": -1.401215968,
				"y": -0.4295657312,
				"z": -3.4429819306,
				"element": "C" 
			},
			{
				"x": -1.0732720538,
				"y": 0.1127920204,
				"z": -2.2006550727,
				"element": "C" 
			},
			{
				"x": 1.524727055,
				"y": -1.6185244584,
				"z": 1.5411716925,
				"element": "C" 
			},
			{
				"x": 0.8058758267,
				"y": -2.5608816144,
				"z": 1.8308305022,
				"element": "O" 
			},
			{
				"x": 3.0010356368,
				"y": -1.7185506895,
				"z": 1.6987012931,
				"element": "C" 
			},
			{
				"x": 3.5128388191,
				"y": -2.949939618,
				"z": 2.2093743428,
				"element": "C" 
			},
			{
				"x": 3.9288316512,
				"y": -3.952409602,
				"z": 2.625693019,
				"element": "N" 
			},
			{
				"x": 3.7907309484,
				"y": -0.6692178745,
				"z": 1.3533765096,
				"element": "C" 
			},
			{
				"x": 5.2115587433,
				"y": -0.716612043,
				"z": 1.4721885406,
				"element": "C" 
			},
			{
				"x": 6.3687552802,
				"y": -0.7692652196,
				"z": 1.5731269885,
				"element": "N" 
			},
			{
				"x": 3.2063905092,
				"y": 0.6227255803,
				"z": 0.8252016096,
				"element": "C" 
			},
			{
				"x": 3.9784162486,
				"y": 1.5279027237,
				"z": 0.5401832063,
				"element": "O" 
			},
			{
				"x": -0.7275783456,
				"y": -1.3758807048,
				"z": 1.2452137663,
				"element": "H" 
			},
			{
				"x": -1.1201874918,
				"y": 1.3869944219,
				"z": 0.2168925987,
				"element": "H" 
			},
			{
				"x": -2.3376742415,
				"y": 0.3493300317,
				"z": 0.9525905256,
				"element": "H" 
			},
			{
				"x": -3.5279964615,
				"y": -1.3134081523,
				"z": -0.3262455447,
				"element": "H" 
			},
			{
				"x": -4.1063456981,
				"y": -2.2809285737,
				"z": -2.5310774045,
				"element": "H" 
			},
			{
				"x": -2.7458462695,
				"y": -1.7159504694,
				"z": -4.5335622958,
				"element": "H" 
			},
			{
				"x": -0.8092909156,
				"y": -0.172838129,
				"z": -4.3166617563,
				"element": "H" 
			},
			{
				"x": -0.229333783,
				"y": 0.7916597824,
				"z": -2.1114815352,
				"element": "H" 
			}
		],
		 "valence_orbital": [ 
			{
				"type": "occ",
				"energy": -0.3183,
				"method": "rhf"
			},
			{
				"type": "occ",
				"energy": -0.29733,
				"method": "rhf"
			},
			{
				"type": "occ",
				"energy": -0.27201,
				"method": "rhf"
			},
			{
				"type": "occ",
				"energy": -0.27056,
				"method": "rhf"
			},
			{
				"type": "occ",
				"energy": -0.2499,
				"method": "rhf"
			},
			{
				"type": "unocc",
				"energy": -0.16611,
				"method": "rhf"
			},
			{
				"type": "unocc",
				"energy": -0.08247,
				"method": "rhf"
			},
			{
				"type": "unocc",
				"energy": -0.03352,
				"method": "rhf"
			},
			{
				"type": "unocc",
				"energy": -0.02481,
				"method": "rhf"
			},
			{
				"type": "unocc",
				"energy": -0.02246,
				"method": "rhf"
			}
		],
		"cosmo_sigma_profile": { 
			"-0.025": 0.0,
			"-0.024": 0.0,
			"-0.023": 0.0,
			"-0.022": 0.0,
			"-0.021": 0.0,
			"-0.02": 0.0,
			"-0.019": 0.0,
			"-0.018": 0.0,
			"-0.017": 0.0,
			"-0.016": 0.0,
			"-0.015": 0.0,
			"-0.014": 0.114051197612,
			"-0.013": 0.731111325147,
			"-0.012": 1.37657484679,
			"-0.011": 2.75856132371,
			"-0.01": 3.85172134329,
			"-0.009": 6.69742498389,
			"-0.008": 10.9975379203,
			"-0.007": 9.27085291272,
			"-0.006": 16.4359533089,
			"-0.005": 18.7677517031,
			"-0.004": 21.9557909692,
			"-0.003": 22.4612938421,
			"-0.002": 21.9524357395,
			"-0.001": 18.7347241907,
			"0.0": 17.1469058753,
			"0.001": 15.7060910939,
			"0.002": 16.4961636651,
			"0.003": 16.0983325153,
			"0.004": 21.0445438761,
			"0.005": 21.6020775561,
			"0.006": 14.0234574151,
			"0.007": 9.53856590555,
			"0.008": 9.70448679761,
			"0.009": 7.58277618826,
			"0.01": 8.92465471691,
			"0.011": 3.71999774806,
			"0.012": 0.449748684615,
			"0.013": 0.0,
			"0.014": 0.0,
			"0.015": 0.0,
			"0.016": 0.0,
			"0.017": 0.0,
			"0.018": 0.0,
			"0.019": 0.0,
			"0.02": 0.0,
			"0.021": 0.0,
			"0.022": 0.0,
			"0.023": 0.0,
			"0.024": 0.0,
			"0.025": 0.0
		}
	}
}
