{
	 "smiles": "CC1=CC(N)=NO1", 
	 "Tm": 334.15, 
	 "num_atms": 13, 
	 "gaussian": { 
		 "optdone": 1, 
		 "sigma_profile": "yes", 
		 "theory": "DFT", 
		 "functional": "B3LYP", 
		 "basiset": "6-31G**", 
		 "properties": { 
			 "R2extent": 974.6176, 
			 "electric_dipole_moment_norm": 3.26062155118, 
			 "electric_quadrupole_moment_norm": 11.9068900944, 
			 "total_energy": -340.72118845, 
			 "HOMO_LUMO_gap": 0.23346, 
			 "cosmo_polarized_energy": -11.98, 
			 "cosmo_cavitation_energy": 17.15, 
			 "cosmo_dispersion_energy": -13.01, 
			 "cosmo_repulsion_energy": 1.12, 
			 "cosmo_total_nonelectrostatic_energy": 5.26, 
			 "SMD_solvation_energy": 3.2 
		},
		"coords": [
			{
				"x": 0.0670090251,
				"y": -1.7309970855,
				"z": 0.0081782336,
				"element": "C" 
			},
			{
				"x": -0.3164974126,
				"y": -0.345948977,
				"z": 0.4017849616,
				"element": "C" 
			},
			{
				"x": 0.136340533,
				"y": 0.5125098638,
				"z": 1.3566671501,
				"element": "C" 
			},
			{
				"x": -0.6838049367,
				"y": 1.6723226193,
				"z": 1.1875701373,
				"element": "C" 
			},
			{
				"x": -0.6748864845,
				"y": 2.8200625474,
				"z": 1.9671529172,
				"element": "N" 
			},
			{
				"x": -1.5500239644,
				"y": 1.5272685855,
				"z": 0.2043377992,
				"element": "N" 
			},
			{
				"x": -1.320961706,
				"y": 0.226426995,
				"z": -0.2913761382,
				"element": "O" 
			},
			{
				"x": -0.7808204842,
				"y": -2.4155781648,
				"z": 0.1165744321,
				"element": "H" 
			},
			{
				"x": 0.8863882287,
				"y": -2.0898168514,
				"z": 0.6342203113,
				"element": "H" 
			},
			{
				"x": 0.3861382414,
				"y": -1.7653983658,
				"z": -1.0388642869,
				"element": "H" 
			},
			{
				"x": 0.9167442175,
				"y": 0.3477707712,
				"z": 2.08392922,
				"element": "H" 
			},
			{
				"x": 0.2482028461,
				"y": 3.1248357381,
				"z": 2.2458454084,
				"element": "H" 
			},
			{
				"x": -1.2122281036,
				"y": 3.5741423242,
				"z": 1.5567798543,
				"element": "H" 
			}
		],
		 "valence_orbital": [ 
			{
				"type": "occ",
				"energy": -0.37045,
				"method": "rhf"
			},
			{
				"type": "occ",
				"energy": -0.34098,
				"method": "rhf"
			},
			{
				"type": "occ",
				"energy": -0.28994,
				"method": "rhf"
			},
			{
				"type": "occ",
				"energy": -0.24849,
				"method": "rhf"
			},
			{
				"type": "occ",
				"energy": -0.22603,
				"method": "rhf"
			},
			{
				"type": "unocc",
				"energy": 0.00743,
				"method": "rhf"
			},
			{
				"type": "unocc",
				"energy": 0.06658,
				"method": "rhf"
			},
			{
				"type": "unocc",
				"energy": 0.09,
				"method": "rhf"
			},
			{
				"type": "unocc",
				"energy": 0.10499,
				"method": "rhf"
			},
			{
				"type": "unocc",
				"energy": 0.12287,
				"method": "rhf"
			}
		],
		"cosmo_sigma_profile": { 
			"-0.025": 0.0,
			"-0.024": 0.0,
			"-0.023": 0.0,
			"-0.022": 0.0,
			"-0.021": 0.0,
			"-0.02": 0.0,
			"-0.019": 0.0,
			"-0.018": 0.0,
			"-0.017": 0.0,
			"-0.016": 0.0,
			"-0.015": 0.0,
			"-0.014": 0.349458132596,
			"-0.013": 1.89079499074,
			"-0.012": 2.54575907321,
			"-0.011": 2.33175457144,
			"-0.01": 2.74183674845,
			"-0.009": 2.7337450325,
			"-0.008": 2.90869031551,
			"-0.007": 3.85317916474,
			"-0.006": 8.19181907548,
			"-0.005": 10.0372249877,
			"-0.004": 8.35837037885,
			"-0.003": 8.6938394123,
			"-0.002": 10.7363186528,
			"-0.001": 9.63672800876,
			"0.0": 4.64812018682,
			"0.001": 4.98197637686,
			"0.002": 4.99527958144,
			"0.003": 7.58879220278,
			"0.004": 5.47729899644,
			"0.005": 2.78814270611,
			"0.006": 3.20702161585,
			"0.007": 3.34408355727,
			"0.008": 3.43898491991,
			"0.009": 5.25815184543,
			"0.01": 4.39486192354,
			"0.011": 2.70062384405,
			"0.012": 2.06993085301,
			"0.013": 2.1723215157,
			"0.014": 1.85753396523,
			"0.015": 1.36333107516,
			"0.016": 0.633794714371,
			"0.017": 0.0,
			"0.018": 0.0,
			"0.019": 0.0,
			"0.02": 0.0,
			"0.021": 0.0,
			"0.022": 0.0,
			"0.023": 0.0,
			"0.024": 0.0,
			"0.025": 0.0
		}
	}
}
