{
	 "smiles": "COC1=C(OCC(=O)NC(C)C)C=CC(=C1)C(O)=O", 
	 "Tm": 467.15, 
	 "num_atms": 36, 
	 "gaussian": { 
		 "optdone": 1, 
		 "sigma_profile": "yes", 
		 "theory": "DFT", 
		 "functional": "B3LYP", 
		 "basiset": "6-31G**", 
		 "properties": { 
			 "R2extent": 8934.5645, 
			 "electric_dipole_moment_norm": 4.78055165541, 
			 "electric_quadrupole_moment_norm": 6.77679562773, 
			 "total_energy": -936.523495633, 
			 "HOMO_LUMO_gap": 0.17896, 
			 "cosmo_polarized_energy": -18.88, 
			 "cosmo_cavitation_energy": 40.75, 
			 "cosmo_dispersion_energy": -28.0, 
			 "cosmo_repulsion_energy": 2.21, 
			 "cosmo_total_nonelectrostatic_energy": 14.95, 
			 "SMD_solvation_energy": 9.78 
		},
		"coords": [
			{
				"x": 1.8052356938,
				"y": 1.6938623392,
				"z": 0.7582367849,
				"element": "C" 
			},
			{
				"x": 0.5508349222,
				"y": 1.1381359444,
				"z": 0.3916728446,
				"element": "O" 
			},
			{
				"x": -0.545004077,
				"y": 1.9468437097,
				"z": 0.4606922965,
				"element": "C" 
			},
			{
				"x": -1.7715829177,
				"y": 1.3390780393,
				"z": 0.0828005261,
				"element": "C" 
			},
			{
				"x": -1.676978553,
				"y": 0.0372558254,
				"z": -0.2937379767,
				"element": "O" 
			},
			{
				"x": -2.8448153803,
				"y": -0.6711631243,
				"z": -0.6907619545,
				"element": "C" 
			},
			{
				"x": -2.4849220737,
				"y": -2.111311024,
				"z": -1.065548155,
				"element": "C" 
			},
			{
				"x": -3.3769916284,
				"y": -2.8677641919,
				"z": -1.4330799618,
				"element": "O" 
			},
			{
				"x": -1.1730134681,
				"y": -2.4310327143,
				"z": -0.9546757478,
				"element": "N" 
			},
			{
				"x": -0.6449154841,
				"y": -3.7584328057,
				"z": -1.2686853372,
				"element": "C" 
			},
			{
				"x": 0.3600467306,
				"y": -3.6777049351,
				"z": -2.4248802532,
				"element": "C" 
			},
			{
				"x": -0.0365788397,
				"y": -4.4057511301,
				"z": -0.0179439233,
				"element": "C" 
			},
			{
				"x": -2.9548655471,
				"y": 2.076040442,
				"z": 0.1162876023,
				"element": "C" 
			},
			{
				"x": -2.9367118706,
				"y": 3.4117975582,
				"z": 0.5210439063,
				"element": "C" 
			},
			{
				"x": -1.7365138474,
				"y": 4.014797104,
				"z": 0.8933970183,
				"element": "C" 
			},
			{
				"x": -0.5374033536,
				"y": 3.2760916393,
				"z": 0.8618415801,
				"element": "C" 
			},
			{
				"x": -1.7668187469,
				"y": 5.4342530626,
				"z": 1.3157169802,
				"element": "C" 
			},
			{
				"x": -0.5412785357,
				"y": 5.9174108992,
				"z": 1.6562511793,
				"element": "O" 
			},
			{
				"x": -2.7635523622,
				"y": 6.1293518679,
				"z": 1.3662008089,
				"element": "O" 
			},
			{
				"x": 2.5361872691,
				"y": 0.8936575713,
				"z": 0.6337569569,
				"element": "H" 
			},
			{
				"x": 1.8086728679,
				"y": 2.0280735815,
				"z": 1.8034584726,
				"element": "H" 
			},
			{
				"x": 2.0777380929,
				"y": 2.5371126364,
				"z": 0.1110321846,
				"element": "H" 
			},
			{
				"x": -3.5824546963,
				"y": -0.7060139997,
				"z": 0.1205034063,
				"element": "H" 
			},
			{
				"x": -3.3162421793,
				"y": -0.2015791169,
				"z": -1.5629740559,
				"element": "H" 
			},
			{
				"x": -0.5448337718,
				"y": -1.7037221859,
				"z": -0.6365906323,
				"element": "H" 
			},
			{
				"x": -1.5154184435,
				"y": -4.3385372317,
				"z": -1.5873977935,
				"element": "H" 
			},
			{
				"x": -0.1031924734,
				"y": -3.240062328,
				"z": -3.3136371966,
				"element": "H" 
			},
			{
				"x": 1.2258596341,
				"y": -3.0619547726,
				"z": -2.1523046051,
				"element": "H" 
			},
			{
				"x": 0.7295733125,
				"y": -4.6750518321,
				"z": -2.6846074946,
				"element": "H" 
			},
			{
				"x": -0.7782556903,
				"y": -4.4787791013,
				"z": 0.7824175334,
				"element": "H" 
			},
			{
				"x": 0.3270853286,
				"y": -5.4135026151,
				"z": -0.2436321711,
				"element": "H" 
			},
			{
				"x": 0.8126869041,
				"y": -3.8205408024,
				"z": 0.3553068995,
				"element": "H" 
			},
			{
				"x": -3.8919830379,
				"y": 1.6148127936,
				"z": -0.1715227008,
				"element": "H" 
			},
			{
				"x": -3.8495824782,
				"y": 3.995565029,
				"z": 0.5514726115,
				"element": "H" 
			},
			{
				"x": 0.3840587772,
				"y": 3.7608991054,
				"z": 1.1542614774,
				"element": "H" 
			},
			{
				"x": -0.689970077,
				"y": 6.8425647628,
				"z": 1.9109288897,
				"element": "H" 
			}
		],
		 "valence_orbital": [ 
			{
				"type": "occ",
				"energy": -0.27414,
				"method": "rhf"
			},
			{
				"type": "occ",
				"energy": -0.25594,
				"method": "rhf"
			},
			{
				"type": "occ",
				"energy": -0.24986,
				"method": "rhf"
			},
			{
				"type": "occ",
				"energy": -0.24889,
				"method": "rhf"
			},
			{
				"type": "occ",
				"energy": -0.22159,
				"method": "rhf"
			},
			{
				"type": "unocc",
				"energy": -0.04263,
				"method": "rhf"
			},
			{
				"type": "unocc",
				"energy": -0.00406,
				"method": "rhf"
			},
			{
				"type": "unocc",
				"energy": 0.03103,
				"method": "rhf"
			},
			{
				"type": "unocc",
				"energy": 0.06489,
				"method": "rhf"
			},
			{
				"type": "unocc",
				"energy": 0.07156,
				"method": "rhf"
			}
		],
		"cosmo_sigma_profile": { 
			"-0.025": 0.0,
			"-0.024": 0.0,
			"-0.023": 0.0,
			"-0.022": 0.0,
			"-0.021": 0.0,
			"-0.02": 0.0,
			"-0.019": 0.0218779739977,
			"-0.018": 0.560279456236,
			"-0.017": 0.822846976723,
			"-0.016": 0.953329162362,
			"-0.015": 1.03940361175,
			"-0.014": 0.455532439514,
			"-0.013": 0.130871486421,
			"-0.012": 0.685098473519,
			"-0.011": 1.19491863726,
			"-0.01": 1.41256818679,
			"-0.009": 1.45147129072,
			"-0.008": 4.81768875969,
			"-0.007": 10.9875238455,
			"-0.006": 16.1851651965,
			"-0.005": 18.5794405196,
			"-0.004": 20.9417670807,
			"-0.003": 29.051236575,
			"-0.002": 24.6192653627,
			"-0.001": 27.5079940075,
			"0.0": 28.6047777495,
			"0.001": 29.7898763695,
			"0.002": 19.3750155327,
			"0.003": 17.1724241276,
			"0.004": 11.1740373302,
			"0.005": 7.9170976703,
			"0.006": 6.46641822636,
			"0.007": 5.57798865491,
			"0.008": 6.51174440393,
			"0.009": 2.84366690215,
			"0.01": 2.62099390785,
			"0.011": 4.28447843345,
			"0.012": 7.50766394556,
			"0.013": 3.28814634191,
			"0.014": 6.0240216147,
			"0.015": 0.84481507485,
			"0.016": 0.0,
			"0.017": 0.0,
			"0.018": 0.0,
			"0.019": 0.0,
			"0.02": 0.0,
			"0.021": 0.0,
			"0.022": 0.0,
			"0.023": 0.0,
			"0.024": 0.0,
			"0.025": 0.0
		}
	}
}
