{
	 "smiles": "CCN(C1=CC=CC=C1)S(=O)(=O)C1=CC(=C(Cl)C=C1)[N+]([O-])=O", 
	 "Tm": 396.15, 
	 "num_atms": 35, 
	 "gaussian": { 
		 "optdone": 1, 
		 "sigma_profile": "yes", 
		 "theory": "DFT", 
		 "functional": "B3LYP", 
		 "basiset": "6-31G**", 
		 "properties": { 
			 "R2extent": 9428.5987, 
			 "electric_dipole_moment_norm": 5.99151852705, 
			 "electric_quadrupole_moment_norm": 14.0123415249, 
			 "total_energy": -1809.91231402, 
			 "HOMO_LUMO_gap": 0.15815, 
			 "cosmo_polarized_energy": -17.56, 
			 "cosmo_cavitation_energy": 43.19, 
			 "cosmo_dispersion_energy": -29.32, 
			 "cosmo_repulsion_energy": 2.22, 
			 "cosmo_total_nonelectrostatic_energy": 16.09, 
			 "SMD_solvation_energy": 8.28 
		},
		"coords": [
			{
				"x": 1.6093134647,
				"y": 0.9380481362,
				"z": 2.7796315909,
				"element": "C" 
			},
			{
				"x": 1.6311284578,
				"y": 0.2158190177,
				"z": 1.43555731,
				"element": "C" 
			},
			{
				"x": 0.437232176,
				"y": -0.6539546992,
				"z": 1.2753567011,
				"element": "N" 
			},
			{
				"x": 0.3495645967,
				"y": -1.7784192492,
				"z": 2.1869956216,
				"element": "C" 
			},
			{
				"x": 1.2844177706,
				"y": -2.81978128,
				"z": 2.1497885254,
				"element": "C" 
			},
			{
				"x": 1.1848856597,
				"y": -3.8719109516,
				"z": 3.0598541909,
				"element": "C" 
			},
			{
				"x": 0.1584231705,
				"y": -3.88583537,
				"z": 4.0069935547,
				"element": "C" 
			},
			{
				"x": -0.7739658444,
				"y": -2.8471747995,
				"z": 4.0404665149,
				"element": "C" 
			},
			{
				"x": -0.6809745524,
				"y": -1.7947294435,
				"z": 3.1291557739,
				"element": "C" 
			},
			{
				"x": 0.0761726682,
				"y": -1.055234021,
				"z": -0.3463808794,
				"element": "S" 
			},
			{
				"x": 1.3002748244,
				"y": -1.3086515282,
				"z": -1.1185192498,
				"element": "O" 
			},
			{
				"x": -1.0090875721,
				"y": -2.0344728518,
				"z": -0.304399021,
				"element": "O" 
			},
			{
				"x": -0.6066586005,
				"y": 0.5006332976,
				"z": -0.9438973157,
				"element": "C" 
			},
			{
				"x": 0.1079076572,
				"y": 1.2511884623,
				"z": -1.8668561673,
				"element": "C" 
			},
			{
				"x": -0.4508563913,
				"y": 2.4266510845,
				"z": -2.3727282633,
				"element": "C" 
			},
			{
				"x": -1.712455784,
				"y": 2.8628765651,
				"z": -1.9415223017,
				"element": "C" 
			},
			{
				"x": -2.4429823482,
				"y": 4.3521918045,
				"z": -2.4585023141,
				"element": "Cl" 
			},
			{
				"x": -2.4113463346,
				"y": 2.0912164019,
				"z": -1.0033008209,
				"element": "C" 
			},
			{
				"x": -1.8720238997,
				"y": 0.9085759018,
				"z": -0.512977651,
				"element": "C" 
			},
			{
				"x": 0.3587120355,
				"y": 3.1532410015,
				"z": -3.369780752,
				"element": "N" 
			},
			{
				"x": 1.5795425099,
				"y": 3.0848561258,
				"z": -3.2358469545,
				"element": "O" 
			},
			{
				"x": -0.2278782294,
				"y": 3.7444552567,
				"z": -4.2684230291,
				"element": "O" 
			},
			{
				"x": 2.4827677484,
				"y": 1.5927571201,
				"z": 2.8572455121,
				"element": "H" 
			},
			{
				"x": 0.707477908,
				"y": 1.5492782017,
				"z": 2.8784593969,
				"element": "H" 
			},
			{
				"x": 1.6399075267,
				"y": 0.2327544477,
				"z": 3.6141374441,
				"element": "H" 
			},
			{
				"x": 1.612587512,
				"y": 0.9519400943,
				"z": 0.6267187878,
				"element": "H" 
			},
			{
				"x": 2.5542966121,
				"y": -0.3655742916,
				"z": 1.3180366303,
				"element": "H" 
			},
			{
				"x": 2.0730837361,
				"y": -2.8100563065,
				"z": 1.4034049568,
				"element": "H" 
			},
			{
				"x": 1.9062491845,
				"y": -4.6828758373,
				"z": 3.0255908308,
				"element": "H" 
			},
			{
				"x": 0.0838783146,
				"y": -4.706077586,
				"z": 4.714854205,
				"element": "H" 
			},
			{
				"x": -1.575415915,
				"y": -2.8569637834,
				"z": 4.7731734418,
				"element": "H" 
			},
			{
				"x": -1.3981159729,
				"y": -0.980560815,
				"z": 3.137818175,
				"element": "H" 
			},
			{
				"x": 1.0852158345,
				"y": 0.9312656284,
				"z": -2.207609138,
				"element": "H" 
			},
			{
				"x": -3.3835683888,
				"y": 2.4339949324,
				"z": -0.66828789,
				"element": "H" 
			},
			{
				"x": -2.4270095348,
				"y": 0.3033293336,
				"z": 0.195192584,
				"element": "H" 
			}
		],
		 "valence_orbital": [ 
			{
				"type": "occ",
				"energy": -0.29398,
				"method": "rhf"
			},
			{
				"type": "occ",
				"energy": -0.29141,
				"method": "rhf"
			},
			{
				"type": "occ",
				"energy": -0.26767,
				"method": "rhf"
			},
			{
				"type": "occ",
				"energy": -0.26442,
				"method": "rhf"
			},
			{
				"type": "occ",
				"energy": -0.2607,
				"method": "rhf"
			},
			{
				"type": "unocc",
				"energy": -0.10255,
				"method": "rhf"
			},
			{
				"type": "unocc",
				"energy": -0.06551,
				"method": "rhf"
			},
			{
				"type": "unocc",
				"energy": -0.03656,
				"method": "rhf"
			},
			{
				"type": "unocc",
				"energy": -0.02226,
				"method": "rhf"
			},
			{
				"type": "unocc",
				"energy": -0.01643,
				"method": "rhf"
			}
		],
		"cosmo_sigma_profile": { 
			"-0.025": 0.0,
			"-0.024": 0.0,
			"-0.023": 0.0,
			"-0.022": 0.0,
			"-0.021": 0.0,
			"-0.02": 0.0,
			"-0.019": 0.0,
			"-0.018": 0.0,
			"-0.017": 0.0,
			"-0.016": 0.0,
			"-0.015": 0.0,
			"-0.014": 0.0,
			"-0.013": 0.0,
			"-0.012": 0.0,
			"-0.011": 0.0,
			"-0.01": 0.895498644055,
			"-0.009": 5.38767286336,
			"-0.008": 5.2501992262,
			"-0.007": 7.08918545315,
			"-0.006": 17.4375149827,
			"-0.005": 23.500937735,
			"-0.004": 28.9277060753,
			"-0.003": 34.6309562396,
			"-0.002": 31.4163587584,
			"-0.001": 28.508800993,
			"0.0": 25.6486719505,
			"0.001": 19.47234807,
			"0.002": 20.6061822899,
			"0.003": 16.6286418346,
			"0.004": 14.9182304147,
			"0.005": 10.7106541501,
			"0.006": 10.6388628944,
			"0.007": 13.9292235494,
			"0.008": 9.18616963976,
			"0.009": 7.47906526662,
			"0.01": 9.7606562544,
			"0.011": 5.22807892957,
			"0.012": 0.259648484262,
			"0.013": 0.0,
			"0.014": 0.0,
			"0.015": 0.0,
			"0.016": 0.0,
			"0.017": 0.0,
			"0.018": 0.0,
			"0.019": 0.0,
			"0.02": 0.0,
			"0.021": 0.0,
			"0.022": 0.0,
			"0.023": 0.0,
			"0.024": 0.0,
			"0.0": 0.0
		}
	}
}
