{
	 "smiles": "OC(=O)CC1=CC2=C(OCCO2)C=C1", 
	 "Tm": 328.15, 
	 "num_atms": 24, 
	 "gaussian": { 
		 "optdone": 1, 
		 "sigma_profile": "yes", 
		 "theory": "DFT", 
		 "functional": "B3LYP", 
		 "basiset": "6-31G**", 
		 "properties": { 
			 "R2extent": 3424.5715, 
			 "electric_dipole_moment_norm": 1.90658657029, 
			 "electric_quadrupole_moment_norm": 15.0286233718, 
			 "total_energy": -687.982974714, 
			 "HOMO_LUMO_gap": 0.20593, 
			 "cosmo_polarized_energy": -13.19, 
			 "cosmo_cavitation_energy": 28.07, 
			 "cosmo_dispersion_energy": -20.81, 
			 "cosmo_repulsion_energy": 1.65, 
			 "cosmo_total_nonelectrostatic_energy": 8.91, 
			 "SMD_solvation_energy": 6.14 
		},
		"coords": [
			{
				"x": -3.7048178081,
				"y": 0.5907789389,
				"z": 1.4758974203,
				"element": "O" 
			},
			{
				"x": -2.7376893777,
				"y": -0.3252423432,
				"z": 1.7190408416,
				"element": "C" 
			},
			{
				"x": -2.8137752857,
				"y": -1.4731347151,
				"z": 1.3380975328,
				"element": "O" 
			},
			{
				"x": -1.5645336485,
				"y": 0.2698669801,
				"z": 2.4752731896,
				"element": "C" 
			},
			{
				"x": -0.4765751913,
				"y": 0.7389519735,
				"z": 1.5203107079,
				"element": "C" 
			},
			{
				"x": 0.174087345,
				"y": -0.1823103391,
				"z": 0.6924649352,
				"element": "C" 
			},
			{
				"x": 1.1778942974,
				"y": 0.233053948,
				"z": -0.1800513089,
				"element": "C" 
			},
			{
				"x": 1.5347882572,
				"y": 1.5922749365,
				"z": -0.2446246757,
				"element": "C" 
			},
			{
				"x": 2.5080737827,
				"y": 2.0478152782,
				"z": -1.1012701043,
				"element": "O" 
			},
			{
				"x": 2.8444471635,
				"y": 1.1216926997,
				"z": -2.1340726983,
				"element": "C" 
			},
			{
				"x": 3.0148027276,
				"y": -0.2722470873,
				"z": -1.552073852,
				"element": "C" 
			},
			{
				"x": 1.791537419,
				"y": -0.7135522494,
				"z": -0.9644301545,
				"element": "O" 
			},
			{
				"x": 0.8924027269,
				"y": 2.5103078572,
				"z": 0.5843478734,
				"element": "C" 
			},
			{
				"x": -0.1046211052,
				"y": 2.0872038791,
				"z": 1.4619639862,
				"element": "C" 
			},
			{
				"x": -4.3850885869,
				"y": 0.1314042506,
				"z": 0.9546136286,
				"element": "H" 
			},
			{
				"x": -1.1819149405,
				"y": -0.5153036238,
				"z": 3.1345772623,
				"element": "H" 
			},
			{
				"x": -1.9101840611,
				"y": 1.1048870812,
				"z": 3.0886573828,
				"element": "H" 
			},
			{
				"x": -0.0931427555,
				"y": -1.234222604,
				"z": 0.7109209895,
				"element": "H" 
			},
			{
				"x": 3.7736152228,
				"y": 1.4814974901,
				"z": -2.5833861334,
				"element": "H" 
			},
			{
				"x": 2.0565991359,
				"y": 1.1124206963,
				"z": -2.8998881339,
				"element": "H" 
			},
			{
				"x": 3.8125458457,
				"y": -0.2656898734,
				"z": -0.7964619059,
				"element": "H" 
			},
			{
				"x": 3.2661574616,
				"y": -0.9993492435,
				"z": -2.328476493,
				"element": "H" 
			},
			{
				"x": 1.1842931924,
				"y": 3.5536604499,
				"z": 0.5208454034,
				"element": "H" 
			},
			{
				"x": -0.5995018173,
				"y": 2.8136356196,
				"z": 2.0998243062,
				"element": "H" 
			}
		],
		 "valence_orbital": [ 
			{
				"type": "occ",
				"energy": -0.31313,
				"method": "rhf"
			},
			{
				"type": "occ",
				"energy": -0.30324,
				"method": "rhf"
			},
			{
				"type": "occ",
				"energy": -0.27191,
				"method": "rhf"
			},
			{
				"type": "occ",
				"energy": -0.23308,
				"method": "rhf"
			},
			{
				"type": "occ",
				"energy": -0.20984,
				"method": "rhf"
			},
			{
				"type": "unocc",
				"energy": -0.00391,
				"method": "rhf"
			},
			{
				"type": "unocc",
				"energy": 0.00338,
				"method": "rhf"
			},
			{
				"type": "unocc",
				"energy": 0.02708,
				"method": "rhf"
			},
			{
				"type": "unocc",
				"energy": 0.08083,
				"method": "rhf"
			},
			{
				"type": "unocc",
				"energy": 0.08546,
				"method": "rhf"
			}
		],
		"cosmo_sigma_profile": { 
			"-0.025": 0.0,
			"-0.024": 0.0,
			"-0.023": 0.0,
			"-0.022": 0.0,
			"-0.021": 0.0,
			"-0.02": 0.0,
			"-0.019": 0.0301328337444,
			"-0.018": 0.725964823333,
			"-0.017": 1.09708763177,
			"-0.016": 0.885435169567,
			"-0.015": 0.301965126382,
			"-0.014": 0.69392871186,
			"-0.013": 0.590197604917,
			"-0.012": 0.743836401062,
			"-0.011": 1.50553835018,
			"-0.01": 0.65631591434,
			"-0.009": 0.260505008872,
			"-0.008": 0.504022595369,
			"-0.007": 7.37956410836,
			"-0.006": 19.264552955,
			"-0.005": 20.9724199783,
			"-0.004": 18.3250057547,
			"-0.003": 14.690747721,
			"-0.002": 12.7192822027,
			"-0.001": 9.34534866382,
			"0.0": 10.0964868893,
			"0.001": 9.68862803572,
			"0.002": 11.3543769742,
			"0.003": 15.9918107651,
			"0.004": 16.4421740592,
			"0.005": 11.51618961,
			"0.006": 6.27121682454,
			"0.007": 4.81587714865,
			"0.008": 5.8738369111,
			"0.009": 5.02842120516,
			"0.01": 5.81964889,
			"0.011": 4.4449160515,
			"0.012": 4.00519592162,
			"0.013": 0.434667607754,
			"0.014": 0.0,
			"0.015": 0.0,
			"0.016": 0.0,
			"0.017": 0.0,
			"0.018": 0.0,
			"0.019": 0.0,
			"0.02": 0.0,
			"0.021": 0.0,
			"0.022": 0.0,
			"0.023": 0.0,
			"0.024": 0.0,
			"0.025": 0.0
		}
	}
}
