{
	 "smiles": "OC(=O)C1=C2SC(=NC2=NC(=C1)C1=CC(Cl)=CC=C1)N1CCCCC1", 
	 "Tm": 474.15, 
	 "num_atms": 41, 
	 "gaussian": { 
		 "optdone": 1, 
		 "sigma_profile": "yes", 
		 "theory": "DFT", 
		 "functional": "B3LYP", 
		 "basiset": "6-31G**", 
		 "properties": { 
			 "R2extent": 16663.1898, 
			 "electric_dipole_moment_norm": 7.38925510454, 
			 "electric_quadrupole_moment_norm": 15.93234995, 
			 "total_energy": -1868.68907107, 
			 "HOMO_LUMO_gap": 0.14232, 
			 "cosmo_polarized_energy": -17.36, 
			 "cosmo_cavitation_energy": 47.22, 
			 "cosmo_dispersion_energy": -35.35, 
			 "cosmo_repulsion_energy": 2.63, 
			 "cosmo_total_nonelectrostatic_energy": 14.5, 
			 "SMD_solvation_energy": 4.71 
		},
		"coords": [
			{
				"x": -3.438218093,
				"y": 2.666485009,
				"z": 0.5192197997,
				"element": "O" 
			},
			{
				"x": -3.2827404713,
				"y": 2.6043032707,
				"z": -0.825471599,
				"element": "C" 
			},
			{
				"x": -4.1180675106,
				"y": 3.0278676484,
				"z": -1.5966624327,
				"element": "O" 
			},
			{
				"x": -1.996667864,
				"y": 1.9718211259,
				"z": -1.2278131103,
				"element": "C" 
			},
			{
				"x": -1.0431759034,
				"y": 1.4703991264,
				"z": -0.3417751324,
				"element": "C" 
			},
			{
				"x": -0.9967705731,
				"y": 1.4128231451,
				"z": 1.4075836156,
				"element": "S" 
			},
			{
				"x": 0.6001826565,
				"y": 0.5795632248,
				"z": 1.2675487743,
				"element": "C" 
			},
			{
				"x": 1.0358719495,
				"y": 0.3919689545,
				"z": 0.0529981817,
				"element": "N" 
			},
			{
				"x": 0.1398643705,
				"y": 0.8734002282,
				"z": -0.8748818029,
				"element": "C" 
			},
			{
				"x": 0.3789874839,
				"y": 0.7852256484,
				"z": -2.1805518491,
				"element": "N" 
			},
			{
				"x": -0.5331264304,
				"y": 1.2783043995,
				"z": -3.0395597614,
				"element": "C" 
			},
			{
				"x": -1.728024624,
				"y": 1.8645816706,
				"z": -2.5983706645,
				"element": "C" 
			},
			{
				"x": -0.2060631099,
				"y": 1.1472636102,
				"z": -4.4868339157,
				"element": "C" 
			},
			{
				"x": -0.8938050406,
				"y": 1.8807935508,
				"z": -5.4669461955,
				"element": "C" 
			},
			{
				"x": -0.5603794049,
				"y": 1.7231648654,
				"z": -6.8092127756,
				"element": "C" 
			},
			{
				"x": -1.4316602009,
				"y": 2.6578887666,
				"z": -8.0215045158,
				"element": "Cl" 
			},
			{
				"x": 0.4486260686,
				"y": 0.8520755677,
				"z": -7.2158640357,
				"element": "C" 
			},
			{
				"x": 1.1359258752,
				"y": 0.1309064251,
				"z": -6.237620173,
				"element": "C" 
			},
			{
				"x": 0.8185113282,
				"y": 0.2751884448,
				"z": -4.8898656602,
				"element": "C" 
			},
			{
				"x": 1.2566543082,
				"y": 0.1676760389,
				"z": 2.3807421509,
				"element": "N" 
			},
			{
				"x": 0.8523209036,
				"y": 0.5509698653,
				"z": 3.7335320987,
				"element": "C" 
			},
			{
				"x": 1.0465169656,
				"y": -0.6131756425,
				"z": 4.7133736164,
				"element": "C" 
			},
			{
				"x": 2.477163437,
				"y": -1.164520192,
				"z": 4.6470818941,
				"element": "C" 
			},
			{
				"x": 2.8355046347,
				"y": -1.5454672626,
				"z": 3.2042855659,
				"element": "C" 
			},
			{
				"x": 2.6210927667,
				"y": -0.3677429591,
				"z": 2.2491365246,
				"element": "C" 
			},
			{
				"x": -4.2979227827,
				"y": 3.0906767121,
				"z": 0.6769542002,
				"element": "H" 
			},
			{
				"x": -2.4792241427,
				"y": 2.2311804923,
				"z": -3.285723453,
				"element": "H" 
			},
			{
				"x": -1.6704073903,
				"y": 2.5870636961,
				"z": -5.1993655351,
				"element": "H" 
			},
			{
				"x": 0.6894070013,
				"y": 0.7471215999,
				"z": -8.2677783573,
				"element": "H" 
			},
			{
				"x": 1.9269545785,
				"y": -0.5510424799,
				"z": -6.535773726,
				"element": "H" 
			},
			{
				"x": 1.3542264215,
				"y": -0.2775549393,
				"z": -4.12744529,
				"element": "H" 
			},
			{
				"x": 1.4455471366,
				"y": 1.420047301,
				"z": 4.0613116672,
				"element": "H" 
			},
			{
				"x": -0.1959014093,
				"y": 0.8584287044,
				"z": 3.7251448066,
				"element": "H" 
			},
			{
				"x": 0.8069683263,
				"y": -0.2666751268,
				"z": 5.7250321111,
				"element": "H" 
			},
			{
				"x": 0.3322616451,
				"y": -1.4074520338,
				"z": 4.4634876068,
				"element": "H" 
			},
			{
				"x": 3.1798885962,
				"y": -0.4006383493,
				"z": 5.009018858,
				"element": "H" 
			},
			{
				"x": 2.5823949147,
				"y": -2.0288834244,
				"z": 5.311743422,
				"element": "H" 
			},
			{
				"x": 3.879955173,
				"y": -1.8699443893,
				"z": 3.1353776007,
				"element": "H" 
			},
			{
				"x": 2.2128384259,
				"y": -2.3876951368,
				"z": 2.8777385154,
				"element": "H" 
			},
			{
				"x": 2.761607029,
				"y": -0.6562533632,
				"z": 1.2082370395,
				"element": "H" 
			},
			{
				"x": 3.340282955,
				"y": 0.4357562069,
				"z": 2.4749719357,
				"element": "H" 
			}
		],
		 "valence_orbital": [ 
			{
				"type": "occ",
				"energy": -0.26681,
				"method": "rhf"
			},
			{
				"type": "occ",
				"energy": -0.2597,
				"method": "rhf"
			},
			{
				"type": "occ",
				"energy": -0.24744,
				"method": "rhf"
			},
			{
				"type": "occ",
				"energy": -0.23551,
				"method": "rhf"
			},
			{
				"type": "occ",
				"energy": -0.20996,
				"method": "rhf"
			},
			{
				"type": "unocc",
				"energy": -0.06764,
				"method": "rhf"
			},
			{
				"type": "unocc",
				"energy": -0.03822,
				"method": "rhf"
			},
			{
				"type": "unocc",
				"energy": -0.00449,
				"method": "rhf"
			},
			{
				"type": "unocc",
				"energy": -0.00191,
				"method": "rhf"
			},
			{
				"type": "unocc",
				"energy": 0.00864,
				"method": "rhf"
			}
		],
		"cosmo_sigma_profile": { 
			"-0.025": 0.0,
			"-0.024": 0.0,
			"-0.023": 0.0,
			"-0.022": 0.0,
			"-0.021": 0.0,
			"-0.02": 0.0,
			"-0.019": 0.616242984757,
			"-0.018": 0.965164887779,
			"-0.017": 0.784198359027,
			"-0.016": 1.19101414615,
			"-0.015": 0.525033025637,
			"-0.014": 0.498095853533,
			"-0.013": 0.316827632622,
			"-0.012": 1.21331803826,
			"-0.011": 0.9146008517,
			"-0.01": 0.549711348768,
			"-0.009": 1.61346483984,
			"-0.008": 2.93768384086,
			"-0.007": 5.47550370187,
			"-0.006": 8.16468935286,
			"-0.005": 15.7872366576,
			"-0.004": 27.9898267735,
			"-0.003": 42.3155926096,
			"-0.002": 36.1304586016,
			"-0.001": 36.7288847971,
			"0.0": 39.0297876622,
			"0.001": 29.6578108439,
			"0.002": 25.9658444288,
			"0.003": 27.2404814231,
			"0.004": 25.8346230273,
			"0.005": 15.2595783955,
			"0.006": 4.0054162903,
			"0.007": 3.21220530109,
			"0.008": 4.36242989616,
			"0.009": 3.92338537694,
			"0.01": 4.55738588836,
			"0.011": 6.73130531879,
			"0.012": 1.93157638699,
			"0.013": 1.81994409866,
			"0.014": 1.74469015372,
			"0.015": 0.720813847074,
			"0.016": 0.0,
			"0.017": 0.0,
			"0.018": 0.0,
			"0.019": 0.0,
			"0.02": 0.0,
			"0.021": 0.0,
			"0.022": 0.0,
			"0.023": 0.0,
			"0.024": 0.0,
			"0.025": 0.0
		}
	}
}
