{
	 "smiles": "C[C@@H]1C[C@H]2[C@@H]3CCC4=CC(=O)C=C[C@]4(C)[C@@]3(F)[C@@H](O)C[C@]2(C)[C@@]1(O)C(=O)CO", 
	 "Tm": 535.15, 
	 "num_atms": 57, 
	 "gaussian": { 
		 "optdone": 1, 
		 "sigma_profile": "yes", 
		 "theory": "DFT", 
		 "functional": "B3LYP", 
		 "basiset": "6-31G**", 
		 "properties": { 
			 "R2extent": 11391.4999, 
			 "electric_dipole_moment_norm": 4.371593205, 
			 "electric_quadrupole_moment_norm": 46.0209591252, 
			 "total_energy": -1331.72192757, 
			 "HOMO_LUMO_gap": 0.1754, 
			 "cosmo_polarized_energy": -25.1, 
			 "cosmo_cavitation_energy": 50.33, 
			 "cosmo_dispersion_energy": -34.64, 
			 "cosmo_repulsion_energy": 2.5, 
			 "cosmo_total_nonelectrostatic_energy": 18.19, 
			 "SMD_solvation_energy": 9.26 
		},
		"coords": [
			{
				"x": -1.3016058863,
				"y": -4.7779168371,
				"z": 1.5600685654,
				"element": "C" 
			},
			{
				"x": -0.8692391533,
				"y": -3.3657820752,
				"z": 1.9710203879,
				"element": "C" 
			},
			{
				"x": -1.8502617947,
				"y": -2.2468289544,
				"z": 1.4982136742,
				"element": "C" 
			},
			{
				"x": -0.9913748579,
				"y": -1.3351634738,
				"z": 0.6070105996,
				"element": "C" 
			},
			{
				"x": -1.4441368079,
				"y": 0.1012634461,
				"z": 0.3042477018,
				"element": "C" 
			},
			{
				"x": -2.9142842114,
				"y": 0.2286414004,
				"z": -0.2016314402,
				"element": "C" 
			},
			{
				"x": -3.0553209775,
				"y": 0.6513550125,
				"z": -1.6743042125,
				"element": "C" 
			},
			{
				"x": -2.1407499553,
				"y": 1.7756928071,
				"z": -2.1226549282,
				"element": "C" 
			},
			{
				"x": -2.3468304142,
				"y": 2.4160509835,
				"z": -3.2883054653,
				"element": "C" 
			},
			{
				"x": -1.360325175,
				"y": 3.3272242304,
				"z": -3.8936127261,
				"element": "C" 
			},
			{
				"x": -1.5734466614,
				"y": 3.9217293144,
				"z": -4.9481885402,
				"element": "O" 
			},
			{
				"x": -0.0704337703,
				"y": 3.4488800448,
				"z": -3.1772721105,
				"element": "C" 
			},
			{
				"x": 0.1350190142,
				"y": 2.8572663255,
				"z": -1.9935644697,
				"element": "C" 
			},
			{
				"x": -0.9351063847,
				"y": 2.0946797718,
				"z": -1.2446852252,
				"element": "C" 
			},
			{
				"x": -1.3896426105,
				"y": 3.0698659154,
				"z": -0.1042036132,
				"element": "C" 
			},
			{
				"x": -0.4314801306,
				"y": 0.7208445647,
				"z": -0.6887640824,
				"element": "C" 
			},
			{
				"x": -0.3652558849,
				"y": -0.1327611294,
				"z": -1.8259628954,
				"element": "F" 
			},
			{
				"x": 1.0241654512,
				"y": 0.6736190552,
				"z": -0.1710217289,
				"element": "C" 
			},
			{
				"x": 1.1656854454,
				"y": 1.6763519814,
				"z": 0.8357788568,
				"element": "O" 
			},
			{
				"x": 1.4307691193,
				"y": -0.742865155,
				"z": 0.299551149,
				"element": "C" 
			},
			{
				"x": 0.4195037764,
				"y": -1.3915398795,
				"z": 1.2642076072,
				"element": "C" 
			},
			{
				"x": 0.4757526219,
				"y": -0.7085557482,
				"z": 2.6498222583,
				"element": "C" 
			},
			{
				"x": 0.5459102984,
				"y": -2.9569589796,
				"z": 1.4361443803,
				"element": "C" 
			},
			{
				"x": 0.7991876936,
				"y": -3.4900707562,
				"z": 0.1212126583,
				"element": "O" 
			},
			{
				"x": 1.6727260329,
				"y": -3.3787632405,
				"z": 2.408850374,
				"element": "C" 
			},
			{
				"x": 1.4562743056,
				"y": -3.4690739962,
				"z": 3.6046085945,
				"element": "O" 
			},
			{
				"x": 3.1062152974,
				"y": -3.5868488848,
				"z": 1.8911095695,
				"element": "C" 
			},
			{
				"x": 3.2522776151,
				"y": -4.4273427877,
				"z": 0.7654686787,
				"element": "O" 
			},
			{
				"x": -0.5715652314,
				"y": -5.5361745836,
				"z": 1.8694224778,
				"element": "H" 
			},
			{
				"x": -1.4622088164,
				"y": -4.8616330339,
				"z": 0.4782088824,
				"element": "H" 
			},
			{
				"x": -2.2498322915,
				"y": -5.0356618766,
				"z": 2.0410007801,
				"element": "H" 
			},
			{
				"x": -0.7870425326,
				"y": -3.3534183312,
				"z": 3.0599103555,
				"element": "H" 
			},
			{
				"x": -2.6998284078,
				"y": -2.6704530494,
				"z": 0.9536615242,
				"element": "H" 
			},
			{
				"x": -2.2628656856,
				"y": -1.7043249305,
				"z": 2.3563489153,
				"element": "H" 
			},
			{
				"x": -0.8899373627,
				"y": -1.8430960882,
				"z": -0.3569943541,
				"element": "H" 
			},
			{
				"x": -1.3605818382,
				"y": 0.6876445661,
				"z": 1.2243230828,
				"element": "H" 
			},
			{
				"x": -3.4353420287,
				"y": -0.7238161266,
				"z": -0.0683245965,
				"element": "H" 
			},
			{
				"x": -3.4492147831,
				"y": 0.9443871875,
				"z": 0.4310801072,
				"element": "H" 
			},
			{
				"x": -4.0980699168,
				"y": 0.9090090696,
				"z": -1.890355977,
				"element": "H" 
			},
			{
				"x": -2.8141889412,
				"y": -0.20943562,
				"z": -2.3093402691,
				"element": "H" 
			},
			{
				"x": -3.2328308765,
				"y": 2.2192495574,
				"z": -3.8878770188,
				"element": "H" 
			},
			{
				"x": 0.688477836,
				"y": 4.0620407681,
				"z": -3.6548719818,
				"element": "H" 
			},
			{
				"x": 1.0651200651,
				"y": 3.0202425584,
				"z": -1.4548465881,
				"element": "H" 
			},
			{
				"x": -1.7297951814,
				"y": 4.0022193722,
				"z": -0.5601486366,
				"element": "H" 
			},
			{
				"x": -2.213284607,
				"y": 2.6659161297,
				"z": 0.4860927898,
				"element": "H" 
			},
			{
				"x": -0.5544608934,
				"y": 3.281473714,
				"z": 0.564496218,
				"element": "H" 
			},
			{
				"x": 1.6616652176,
				"y": 0.9209207412,
				"z": -1.0313903046,
				"element": "H" 
			},
			{
				"x": 2.0594156299,
				"y": 1.614202894,
				"z": 1.1968169664,
				"element": "H" 
			},
			{
				"x": 1.5258324714,
				"y": -1.3634452701,
				"z": -0.5944533578,
				"element": "H" 
			},
			{
				"x": 2.4320288893,
				"y": -0.6721879813,
				"z": 0.7490188433,
				"element": "H" 
			},
			{
				"x": 1.4797271083,
				"y": -0.7935186196,
				"z": 3.0778317118,
				"element": "H" 
			},
			{
				"x": 0.2530676832,
				"y": 0.3547138449,
				"z": 2.567083675,
				"element": "H" 
			},
			{
				"x": -0.2099852326,
				"y": -1.1557908383,
				"z": 3.3716111802,
				"element": "H" 
			},
			{
				"x": 0.561717633,
				"y": -4.4274240435,
				"z": 0.1324193884,
				"element": "H" 
			},
			{
				"x": 3.6695932506,
				"y": -4.030741863,
				"z": 2.7153721555,
				"element": "H" 
			},
			{
				"x": 3.5282753127,
				"y": -2.5795262749,
				"z": 1.7120392007,
				"element": "H" 
			},
			{
				"x": 2.7008215341,
				"y": -4.0380648281,
				"z": 0.0702212119,
				"element": "H" 
			}
		],
		 "valence_orbital": [ 
			{
				"type": "occ",
				"energy": -0.2849,
				"method": "rhf"
			},
			{
				"type": "occ",
				"energy": -0.26469,
				"method": "rhf"
			},
			{
				"type": "occ",
				"energy": -0.25073,
				"method": "rhf"
			},
			{
				"type": "occ",
				"energy": -0.23808,
				"method": "rhf"
			},
			{
				"type": "occ",
				"energy": -0.22981,
				"method": "rhf"
			},
			{
				"type": "unocc",
				"energy": -0.05441,
				"method": "rhf"
			},
			{
				"type": "unocc",
				"energy": -0.04115,
				"method": "rhf"
			},
			{
				"type": "unocc",
				"energy": 0.00373,
				"method": "rhf"
			},
			{
				"type": "unocc",
				"energy": 0.04367,
				"method": "rhf"
			},
			{
				"type": "unocc",
				"energy": 0.05142,
				"method": "rhf"
			}
		],
		"cosmo_sigma_profile": { 
			"-0.025": 0.0,
			"-0.024": 0.0,
			"-0.023": 0.0,
			"-0.022": 0.0,
			"-0.021": 0.0,
			"-0.02": 0.0,
			"-0.019": 0.0,
			"-0.018": 0.0,
			"-0.017": 0.0,
			"-0.016": 0.476804462383,
			"-0.015": 1.16524394031,
			"-0.014": 1.56735798136,
			"-0.013": 1.6944864022,
			"-0.012": 2.25067062736,
			"-0.011": 2.23088168209,
			"-0.01": 2.1451711492,
			"-0.009": 2.90521693807,
			"-0.008": 4.41165867153,
			"-0.007": 5.15848635042,
			"-0.006": 10.7360102677,
			"-0.005": 23.2042758156,
			"-0.004": 30.1765459395,
			"-0.003": 37.9583506297,
			"-0.002": 44.7929167935,
			"-0.001": 43.1882570705,
			"0.0": 37.1875034006,
			"0.001": 25.8241108083,
			"0.002": 16.0404164867,
			"0.003": 14.0120909321,
			"0.004": 13.0011264216,
			"0.005": 11.4254067901,
			"0.006": 10.4450876633,
			"0.007": 6.45233760283,
			"0.008": 5.30630011441,
			"0.009": 5.71194977013,
			"0.01": 4.36661641592,
			"0.011": 6.13605585718,
			"0.012": 6.65939847697,
			"0.013": 6.2840495097,
			"0.014": 6.2195220691,
			"0.015": 1.21235515861,
			"0.016": 0.0,
			"0.017": 0.0,
			"0.018": 0.0,
			"0.019": 0.0,
			"0.02": 0.0,
			"0.021": 0.0,
			"0.022": 0.0,
			"0.023": 0.0,
			"0.024": 0.0,
			"0.025": 0.0
		}
	}
}
