{
	 "smiles": "ClS(=O)(=O)C1=CC=CC(=C1)C#N", 
	 "Tm": 323.15, 
	 "num_atms": 16, 
	 "gaussian": { 
		 "optdone": 1, 
		 "sigma_profile": "yes", 
		 "theory": "DFT", 
		 "functional": "B3LYP", 
		 "basiset": "6-31G**", 
		 "properties": { 
			 "R2extent": 3060.9664, 
			 "electric_dipole_moment_norm": 4.60962686017, 
			 "electric_quadrupole_moment_norm": 21.9551583094, 
			 "total_energy": -1332.64212755, 
			 "HOMO_LUMO_gap": 0.19469, 
			 "cosmo_polarized_energy": -13.44, 
			 "cosmo_cavitation_energy": 25.7, 
			 "cosmo_dispersion_energy": -18.64, 
			 "cosmo_repulsion_energy": 1.45, 
			 "cosmo_total_nonelectrostatic_energy": 8.51, 
			 "SMD_solvation_energy": 4.58 
		},
		"coords": [
			{
				"x": -2.3647199989,
				"y": 0.0592311743,
				"z": -2.6394423462,
				"element": "Cl" 
			},
			{
				"x": -2.4751772649,
				"y": 0.5835768411,
				"z": -0.5819030232,
				"element": "S" 
			},
			{
				"x": -3.7063800254,
				"y": -0.0049008261,
				"z": -0.072235992,
				"element": "O" 
			},
			{
				"x": -2.1927705036,
				"y": 2.0100721857,
				"z": -0.5024393639,
				"element": "O" 
			},
			{
				"x": -1.0792919617,
				"y": -0.3276924486,
				"z": 0.07847396,
				"element": "C" 
			},
			{
				"x": -1.2804811786,
				"y": -1.6345150439,
				"z": 0.5248035455,
				"element": "C" 
			},
			{
				"x": -0.1936528946,
				"y": -2.330879655,
				"z": 1.0540635313,
				"element": "C" 
			},
			{
				"x": 1.059498803,
				"y": -1.7264550906,
				"z": 1.1314810264,
				"element": "C" 
			},
			{
				"x": 1.2389244435,
				"y": -0.4067725012,
				"z": 0.6802895225,
				"element": "C" 
			},
			{
				"x": 0.1565215253,
				"y": 0.3079846308,
				"z": 0.1454488246,
				"element": "C" 
			},
			{
				"x": 2.5299018976,
				"y": 0.2127668894,
				"z": 0.7709275898,
				"element": "C" 
			},
			{
				"x": 3.5789929215,
				"y": 0.7078631654,
				"z": 0.8470466573,
				"element": "N" 
			},
			{
				"x": -2.2649643459,
				"y": -2.0848315228,
				"z": 0.465591061,
				"element": "H" 
			},
			{
				"x": -0.3261794163,
				"y": -3.3469496445,
				"z": 1.4103864972,
				"element": "H" 
			},
			{
				"x": 1.9055970102,
				"y": -2.2664794435,
				"z": 1.542516587,
				"element": "H" 
			},
			{
				"x": 0.2759809886,
				"y": 1.3289812893,
				"z": -0.1978080775,
				"element": "H" 
			}
		],
		 "valence_orbital": [ 
			{
				"type": "occ",
				"energy": -0.34975,
				"method": "rhf"
			},
			{
				"type": "occ",
				"energy": -0.34507,
				"method": "rhf"
			},
			{
				"type": "occ",
				"energy": -0.32689,
				"method": "rhf"
			},
			{
				"type": "occ",
				"energy": -0.31304,
				"method": "rhf"
			},
			{
				"type": "occ",
				"energy": -0.30048,
				"method": "rhf"
			},
			{
				"type": "unocc",
				"energy": -0.10579,
				"method": "rhf"
			},
			{
				"type": "unocc",
				"energy": -0.0838,
				"method": "rhf"
			},
			{
				"type": "unocc",
				"energy": -0.06361,
				"method": "rhf"
			},
			{
				"type": "unocc",
				"energy": 0.01061,
				"method": "rhf"
			},
			{
				"type": "unocc",
				"energy": 0.02377,
				"method": "rhf"
			}
		],
		"cosmo_sigma_profile": { 
			"-0.025": 0.0,
			"-0.024": 0.0,
			"-0.023": 0.0,
			"-0.022": 0.0,
			"-0.021": 0.0,
			"-0.02": 0.0,
			"-0.019": 0.0,
			"-0.018": 0.0,
			"-0.017": 0.0,
			"-0.016": 0.0,
			"-0.015": 0.0,
			"-0.014": 0.0,
			"-0.013": 0.0,
			"-0.012": 0.0,
			"-0.011": 0.173657683111,
			"-0.01": 2.21247988234,
			"-0.009": 8.1411026022,
			"-0.008": 10.3767658654,
			"-0.007": 8.56466012163,
			"-0.006": 8.16635653105,
			"-0.005": 8.68723852273,
			"-0.004": 9.85806894333,
			"-0.003": 15.7183494732,
			"-0.002": 19.5616977683,
			"-0.001": 16.9112269504,
			"0.0": 12.0101593612,
			"0.001": 9.57037001979,
			"0.002": 11.2284682895,
			"0.003": 16.7126886617,
			"0.004": 6.55562131804,
			"0.005": 5.67135443886,
			"0.006": 5.90789502784,
			"0.007": 10.8802617167,
			"0.008": 11.7703640385,
			"0.009": 5.36285686312,
			"0.01": 2.63666016779,
			"0.011": 2.5862572759,
			"0.012": 1.93915546407,
			"0.013": 0.227319679416,
			"0.014": 0.0,
			"0.015": 0.0,
			"0.016": 0.0,
			"0.017": 0.0,
			"0.018": 0.0,
			"0.019": 0.0,
			"0.02": 0.0,
			"0.021": 0.0,
			"0.022": 0.0,
			"0.023": 0.0,
			"0.024": 0.0,
			"0.025": 0.0
		}
	}
}
