{
	 "smiles": "CC(C)N1C2=C(NC1=C1C=CC=C(C)C1=N)C=C(F)C=C2", 
	 "Tm": 459.15, 
	 "num_atms": 39, 
	 "gaussian": { 
		 "optdone": 1, 
		 "sigma_profile": "yes", 
		 "theory": "DFT", 
		 "functional": "B3LYP", 
		 "basiset": "6-31G**", 
		 "properties": { 
			 "R2extent": 7131.3585, 
			 "electric_dipole_moment_norm": 5.72088789787, 
			 "electric_quadrupole_moment_norm": 9.16565993369, 
			 "total_energy": -922.72641862, 
			 "HOMO_LUMO_gap": 0.10646, 
			 "cosmo_polarized_energy": -18.53, 
			 "cosmo_cavitation_energy": 40.37, 
			 "cosmo_dispersion_energy": -28.58, 
			 "cosmo_repulsion_energy": 2.12, 
			 "cosmo_total_nonelectrostatic_energy": 13.91, 
			 "SMD_solvation_energy": 6.13 
		},
		"coords": [
			{
				"x": -0.8718833746,
				"y": -0.1848482117,
				"z": -2.4934253599,
				"element": "C" 
			},
			{
				"x": -0.82211801,
				"y": -1.385488229,
				"z": -1.5428451525,
				"element": "C" 
			},
			{
				"x": -2.1997349963,
				"y": -1.9918828527,
				"z": -1.2388807958,
				"element": "C" 
			},
			{
				"x": -0.0166316269,
				"y": -1.1519604957,
				"z": -0.3115987784,
				"element": "N" 
			},
			{
				"x": 0.8675656105,
				"y": -2.157437917,
				"z": 0.1220363501,
				"element": "C" 
			},
			{
				"x": 1.799953695,
				"y": -1.5606064619,
				"z": 0.9885517403,
				"element": "C" 
			},
			{
				"x": 1.4636468765,
				"y": -0.2248704836,
				"z": 1.0517020611,
				"element": "N" 
			},
			{
				"x": 0.3163346183,
				"y": 0.037515603,
				"z": 0.3262464183,
				"element": "C" 
			},
			{
				"x": -0.3627691856,
				"y": 1.2697907878,
				"z": 0.4001464982,
				"element": "C" 
			},
			{
				"x": -1.7887276822,
				"y": 1.3215318326,
				"z": 0.2589316276,
				"element": "C" 
			},
			{
				"x": -2.4980178676,
				"y": 2.4403350248,
				"z": 0.5878367582,
				"element": "C" 
			},
			{
				"x": -1.8121786304,
				"y": 3.5838846636,
				"z": 1.1043750919,
				"element": "C" 
			},
			{
				"x": -0.4557060647,
				"y": 3.6157952451,
				"z": 1.2613133672,
				"element": "C" 
			},
			{
				"x": 0.2572546759,
				"y": 4.8229389586,
				"z": 1.8030035557,
				"element": "C" 
			},
			{
				"x": 0.3700786481,
				"y": 2.4782994113,
				"z": 0.8372007091,
				"element": "C" 
			},
			{
				"x": 1.673064866,
				"y": 2.6522775044,
				"z": 0.8690652874,
				"element": "N" 
			},
			{
				"x": 2.8294641901,
				"y": -2.2837567644,
				"z": 1.5825227505,
				"element": "C" 
			},
			{
				"x": 2.8795725076,
				"y": -3.6403266258,
				"z": 1.2676311727,
				"element": "C" 
			},
			{
				"x": 3.8542809301,
				"y": -4.3876931715,
				"z": 1.8256379169,
				"element": "F" 
			},
			{
				"x": 1.9742196698,
				"y": -4.2604456533,
				"z": 0.4084014649,
				"element": "C" 
			},
			{
				"x": 0.9452504303,
				"y": -3.5140907859,
				"z": -0.1793837407,
				"element": "C" 
			},
			{
				"x": -1.2868809943,
				"y": -0.5277248877,
				"z": -3.4463027261,
				"element": "H" 
			},
			{
				"x": 0.1311483313,
				"y": 0.2068634987,
				"z": -2.6826154326,
				"element": "H" 
			},
			{
				"x": -1.494136542,
				"y": 0.6301400042,
				"z": -2.1248892878,
				"element": "H" 
			},
			{
				"x": -0.2458738458,
				"y": -2.1574209743,
				"z": -2.0649196245,
				"element": "H" 
			},
			{
				"x": -2.6548136493,
				"y": -2.3400697051,
				"z": -2.1716699095,
				"element": "H" 
			},
			{
				"x": -2.8836039118,
				"y": -1.2716815351,
				"z": -0.7845641841,
				"element": "H" 
			},
			{
				"x": -2.1123550411,
				"y": -2.8472748776,
				"z": -0.5628570541,
				"element": "H" 
			},
			{
				"x": 1.8276849274,
				"y": 0.468737752,
				"z": 1.6946976264,
				"element": "H" 
			},
			{
				"x": -2.3207137242,
				"y": 0.4225688622,
				"z": -0.0240382707,
				"element": "H" 
			},
			{
				"x": -3.5809139181,
				"y": 2.4459843778,
				"z": 0.5145093441,
				"element": "H" 
			},
			{
				"x": -2.3950834975,
				"y": 4.4574683432,
				"z": 1.3893522417,
				"element": "H" 
			},
			{
				"x": -0.4520260835,
				"y": 5.6088609729,
				"z": 2.0793986627,
				"element": "H" 
			},
			{
				"x": 0.8590914249,
				"y": 4.5626006542,
				"z": 2.6810414959,
				"element": "H" 
			},
			{
				"x": 0.9657175679,
				"y": 5.2182263199,
				"z": 1.0672758251,
				"element": "H" 
			},
			{
				"x": 2.1566582364,
				"y": 1.8889605559,
				"z": 0.3938431422,
				"element": "H" 
			},
			{
				"x": 3.5564335259,
				"y": -1.8405322228,
				"z": 2.2525295301,
				"element": "H" 
			},
			{
				"x": 2.0770469534,
				"y": -5.3214628413,
				"z": 0.2132309928,
				"element": "H" 
			},
			{
				"x": 0.2304009601,
				"y": -3.9978056756,
				"z": -0.8350913144,
				"element": "H" 
			}
		],
		 "valence_orbital": [ 
			{
				"type": "occ",
				"energy": -0.26751,
				"method": "rhf"
			},
			{
				"type": "occ",
				"energy": -0.2556,
				"method": "rhf"
			},
			{
				"type": "occ",
				"energy": -0.2257,
				"method": "rhf"
			},
			{
				"type": "occ",
				"energy": -0.22176,
				"method": "rhf"
			},
			{
				"type": "occ",
				"energy": -0.1588,
				"method": "rhf"
			},
			{
				"type": "unocc",
				"energy": -0.05234,
				"method": "rhf"
			},
			{
				"type": "unocc",
				"energy": -0.01038,
				"method": "rhf"
			},
			{
				"type": "unocc",
				"energy": -0.00054,
				"method": "rhf"
			},
			{
				"type": "unocc",
				"energy": 0.03548,
				"method": "rhf"
			},
			{
				"type": "unocc",
				"energy": 0.05456,
				"method": "rhf"
			}
		],
		"cosmo_sigma_profile": { 
			"-0.025": 0.0,
			"-0.024": 0.0,
			"-0.023": 0.0,
			"-0.022": 0.0,
			"-0.021": 0.0,
			"-0.02": 0.0,
			"-0.019": 0.0,
			"-0.018": 0.0,
			"-0.017": 0.0,
			"-0.016": 0.0,
			"-0.015": 0.675244708615,
			"-0.014": 0.995850058823,
			"-0.013": 0.781908679499,
			"-0.012": 0.717651244057,
			"-0.011": 0.99226114924,
			"-0.01": 1.40918352265,
			"-0.009": 1.3712814562,
			"-0.008": 5.0164259406,
			"-0.007": 8.58232888513,
			"-0.006": 11.0923318978,
			"-0.005": 16.5423929065,
			"-0.004": 26.1114884649,
			"-0.003": 25.8980105155,
			"-0.002": 28.8657596795,
			"-0.001": 29.2763819406,
			"0.0": 28.5153999011,
			"0.001": 27.4933249348,
			"0.002": 26.7142808269,
			"0.003": 14.3974745783,
			"0.004": 18.7655576339,
			"0.005": 11.309509664,
			"0.006": 8.87857860417,
			"0.007": 7.65743158217,
			"0.008": 4.30728765335,
			"0.009": 1.43608786068,
			"0.01": 1.87121507347,
			"0.011": 1.17106794614,
			"0.012": 1.29186220684,
			"0.013": 1.28772897047,
			"0.014": 1.23772872867,
			"0.015": 1.12980926272,
			"0.016": 1.03631891987,
			"0.017": 1.00294540217,
			"0.018": 1.1943925222,
			"0.019": 0.779753817332,
			"0.02": 0.893222390885,
			"0.021": 0.082046580396,
			"0.022": 0.0,
			"0.023": 0.0,
			"0.024": 0.0,
			"0.025": 0.0
		}
	}
}
