{
	 "smiles": "OC(=O)C1CNC1", 
	 "Tm": 544.15, 
	 "num_atms": 14, 
	 "gaussian": { 
		 "optdone": 1, 
		 "sigma_profile": "yes", 
		 "theory": "DFT", 
		 "functional": "B3LYP", 
		 "basiset": "6-31G**", 
		 "properties": { 
			 "R2extent": 1155.8911, 
			 "electric_dipole_moment_norm": 5.10986977818, 
			 "electric_quadrupole_moment_norm": 11.0751099516, 
			 "total_energy": -361.803628578, 
			 "HOMO_LUMO_gap": 0.24263, 
			 "cosmo_polarized_energy": -16.55, 
			 "cosmo_cavitation_energy": 17.39, 
			 "cosmo_dispersion_energy": -13.08, 
			 "cosmo_repulsion_energy": 1.13, 
			 "cosmo_total_nonelectrostatic_energy": 5.44, 
			 "SMD_solvation_energy": 1.08 
		},
		"coords": [
			{
				"x": -2.5541916088,
				"y": -1.0214209263,
				"z": 1.4613950558,
				"element": "O" 
			},
			{
				"x": -1.3005838234,
				"y": -0.7129447373,
				"z": 1.895124127,
				"element": "C" 
			},
			{
				"x": -0.6409132307,
				"y": -1.5387343146,
				"z": 2.4729060048,
				"element": "O" 
			},
			{
				"x": -0.8613753345,
				"y": 0.7206936463,
				"z": 1.636104137,
				"element": "C" 
			},
			{
				"x": 0.6712375236,
				"y": 0.909665748,
				"z": 1.5880099944,
				"element": "C" 
			},
			{
				"x": 0.5963542617,
				"y": 0.9123795811,
				"z": 0.1059268371,
				"element": "N" 
			},
			{
				"x": -0.8548004566,
				"y": 1.1799057405,
				"z": 0.1452510812,
				"element": "C" 
			},
			{
				"x": -2.9434893812,
				"y": -0.2638892644,
				"z": 1.0019828185,
				"element": "H" 
			},
			{
				"x": -1.4096645341,
				"y": 1.373514143,
				"z": 2.3241405997,
				"element": "H" 
			},
			{
				"x": 1.2582537385,
				"y": 0.0930758499,
				"z": 2.0164663535,
				"element": "H" 
			},
			{
				"x": 0.9837686781,
				"y": 1.8636138122,
				"z": 2.0360227214,
				"element": "H" 
			},
			{
				"x": 1.1580368998,
				"y": 1.6157997612,
				"z": -0.3650153249,
				"element": "H" 
			},
			{
				"x": -1.14074395,
				"y": 2.237947599,
				"z": 0.0468530843,
				"element": "H" 
			},
			{
				"x": -1.4444887824,
				"y": 0.5931933616,
				"z": -0.5720674899,
				"element": "H" 
			}
		],
		 "valence_orbital": [ 
			{
				"type": "occ",
				"energy": -0.35324,
				"method": "rhf"
			},
			{
				"type": "occ",
				"energy": -0.33782,
				"method": "rhf"
			},
			{
				"type": "occ",
				"energy": -0.31385,
				"method": "rhf"
			},
			{
				"type": "occ",
				"energy": -0.26968,
				"method": "rhf"
			},
			{
				"type": "occ",
				"energy": -0.23583,
				"method": "rhf"
			},
			{
				"type": "unocc",
				"energy": 0.0068,
				"method": "rhf"
			},
			{
				"type": "unocc",
				"energy": 0.0478,
				"method": "rhf"
			},
			{
				"type": "unocc",
				"energy": 0.07379,
				"method": "rhf"
			},
			{
				"type": "unocc",
				"energy": 0.10076,
				"method": "rhf"
			},
			{
				"type": "unocc",
				"energy": 0.12384,
				"method": "rhf"
			}
		],
		"cosmo_sigma_profile": { 
			"-0.025": 0.0,
			"-0.024": 0.0,
			"-0.023": 0.0,
			"-0.022": 0.0,
			"-0.021": 0.0,
			"-0.02": 0.0,
			"-0.019": 0.0703617268944,
			"-0.018": 0.693998111843,
			"-0.017": 0.918731452697,
			"-0.016": 1.10127166284,
			"-0.015": 1.1353191915,
			"-0.014": 0.686313234723,
			"-0.013": 1.59443507699,
			"-0.012": 0.723027322274,
			"-0.011": 1.19125630004,
			"-0.01": 2.4997071449,
			"-0.009": 2.97719854923,
			"-0.008": 3.16510059232,
			"-0.007": 5.75296299607,
			"-0.006": 6.14483168219,
			"-0.005": 6.44816532289,
			"-0.004": 16.6298874475,
			"-0.003": 10.461196319,
			"-0.002": 8.22080434006,
			"-0.001": 7.99028890195,
			"0.0": 4.6795073852,
			"0.001": 3.27550697304,
			"0.002": 2.79165503553,
			"0.003": 3.6103149318,
			"0.004": 2.77793984891,
			"0.005": 3.69980287032,
			"0.006": 4.05418435223,
			"0.007": 2.87023580549,
			"0.008": 3.618299492,
			"0.009": 3.55968973466,
			"0.01": 5.72679515998,
			"0.011": 6.49161642365,
			"0.012": 5.83998986057,
			"0.013": 2.11993497679,
			"0.014": 0.80011901128,
			"0.015": 0.325126121642,
			"0.016": 0.536010208377,
			"0.017": 0.645197109255,
			"0.018": 0.319407228368,
			"0.019": 0.0,
			"0.02": 0.0,
			"0.021": 0.0,
			"0.022": 0.0,
			"0.023": 0.0,
			"0.024": 0.0,
			"0.025": 0.0
		}
	}
}
