{
	 "smiles": "ClS(=O)(=O)C1=CC=C(CBr)C=C1", 
	 "Tm": 347.15, 
	 "num_atms": 18, 
	 "gaussian": { 
		 "optdone": 1, 
		 "sigma_profile": "yes", 
		 "theory": "DFT", 
		 "functional": "B3LYP", 
		 "basiset": "6-31G**", 
		 "properties": { 
			 "R2extent": 5784.1055, 
			 "electric_dipole_moment_norm": 4.78647203481, 
			 "electric_quadrupole_moment_norm": 14.3094200483, 
			 "total_energy": -3850.52784635, 
			 "HOMO_LUMO_gap": 0.18466, 
			 "cosmo_polarized_energy": -11.79, 
			 "cosmo_cavitation_energy": 28.44, 
			 "cosmo_dispersion_energy": -21.38, 
			 "cosmo_repulsion_energy": 1.68, 
			 "cosmo_total_nonelectrostatic_energy": 8.73, 
			 "SMD_solvation_energy": 2.29 
		},
		"coords": [
			{
				"x": 3.5212550561,
				"y": -0.5365563922,
				"z": -2.1861168453,
				"element": "Cl" 
			},
			{
				"x": 2.4239546222,
				"y": -2.1525386781,
				"z": -1.3218617176,
				"element": "S" 
			},
			{
				"x": 3.3230854,
				"y": -2.7874590085,
				"z": -0.3669479697,
				"element": "O" 
			},
			{
				"x": 1.8259022712,
				"y": -2.8772943764,
				"z": -2.4356369023,
				"element": "O" 
			},
			{
				"x": 1.1473114306,
				"y": -1.2696525316,
				"z": -0.4362687572,
				"element": "C" 
			},
			{
				"x": 1.38087212,
				"y": -0.8981673896,
				"z": 0.8881966405,
				"element": "C" 
			},
			{
				"x": 0.3765414232,
				"y": -0.2187254118,
				"z": 1.5715678285,
				"element": "C" 
			},
			{
				"x": -0.8391316558,
				"y": 0.0878066134,
				"z": 0.9423059988,
				"element": "C" 
			},
			{
				"x": -1.9055684473,
				"y": 0.8329205741,
				"z": 1.6817358067,
				"element": "C" 
			},
			{
				"x": -3.1422075196,
				"y": -0.4127194848,
				"z": 2.6345390819,
				"element": "Br" 
			},
			{
				"x": -1.0433762718,
				"y": -0.3060173049,
				"z": -0.3884615901,
				"element": "C" 
			},
			{
				"x": -0.0522197747,
				"y": -0.9861911444,
				"z": -1.0901187668,
				"element": "C" 
			},
			{
				"x": 2.3215505063,
				"y": -1.1434991804,
				"z": 1.3679705928,
				"element": "H" 
			},
			{
				"x": 0.5350390392,
				"y": 0.0722836595,
				"z": 2.6058240204,
				"element": "H" 
			},
			{
				"x": -2.5488530616,
				"y": 1.4095617534,
				"z": 1.0197370378,
				"element": "H" 
			},
			{
				"x": -1.5025910233,
				"y": 1.4746850632,
				"z": 2.4629735418,
				"element": "H" 
			},
			{
				"x": -1.9875994824,
				"y": -0.0827980849,
				"z": -0.8764198776,
				"element": "H" 
			},
			{
				"x": -0.2030646323,
				"y": -1.2985386758,
				"z": -2.1172181227,
				"element": "H" 
			}
		],
		 "valence_orbital": [ 
			{
				"type": "occ",
				"energy": -0.31637,
				"method": "rhf"
			},
			{
				"type": "occ",
				"energy": -0.29885,
				"method": "rhf"
			},
			{
				"type": "occ",
				"energy": -0.29728,
				"method": "rhf"
			},
			{
				"type": "occ",
				"energy": -0.28753,
				"method": "rhf"
			},
			{
				"type": "occ",
				"energy": -0.28227,
				"method": "rhf"
			},
			{
				"type": "unocc",
				"energy": -0.09761,
				"method": "rhf"
			},
			{
				"type": "unocc",
				"energy": -0.06291,
				"method": "rhf"
			},
			{
				"type": "unocc",
				"energy": -0.04519,
				"method": "rhf"
			},
			{
				"type": "unocc",
				"energy": -0.00547,
				"method": "rhf"
			},
			{
				"type": "unocc",
				"energy": 0.04942,
				"method": "rhf"
			}
		],
		"cosmo_sigma_profile": { 
			"-0.025": 0.0,
			"-0.024": 0.0,
			"-0.023": 0.0,
			"-0.022": 0.0,
			"-0.021": 0.0,
			"-0.02": 0.0,
			"-0.019": 0.0,
			"-0.018": 0.0,
			"-0.017": 0.0,
			"-0.016": 0.0,
			"-0.015": 0.0,
			"-0.014": 0.0,
			"-0.013": 0.0,
			"-0.012": 0.0,
			"-0.011": 0.0,
			"-0.01": 0.00608345634897,
			"-0.009": 4.72267943865,
			"-0.008": 13.393037318,
			"-0.007": 12.7079473594,
			"-0.006": 10.791209542,
			"-0.005": 10.4724990166,
			"-0.004": 9.94716646914,
			"-0.003": 9.89238357325,
			"-0.002": 12.1265205167,
			"-0.001": 15.5936110332,
			"0.0": 19.6977478135,
			"0.001": 19.7193004233,
			"0.002": 16.8766026699,
			"0.003": 18.6480783691,
			"0.004": 15.2531556495,
			"0.005": 11.8447135168,
			"0.006": 12.303944542,
			"0.007": 6.20177395783,
			"0.008": 9.49704245404,
			"0.009": 4.37429567909,
			"0.01": 0.00533459649411,
			"0.011": 0.0,
			"0.012": 0.0,
			"0.013": 0.0,
			"0.014": 0.0,
			"0.015": 0.0,
			"0.016": 0.0,
			"0.017": 0.0,
			"0.018": 0.0,
			"0.019": 0.0,
			"0.02": 0.0,
			"0.021": 0.0,
			"0.022": 0.0,
			"0.023": 0.0,
			"0.024": 0.0,
			"0.025": 0.0
		}
	}
}
