{
	 "smiles": "CS(=O)(=O)C1=CC(=C(Cl)C=C1)S(Cl)(=O)=O", 
	 "Tm": 415.15, 
	 "num_atms": 21, 
	 "gaussian": { 
		 "optdone": 1, 
		 "sigma_profile": "yes", 
		 "theory": "DFT", 
		 "functional": "B3LYP", 
		 "basiset": "6-31G**", 
		 "properties": { 
			 "R2extent": 6226.1118, 
			 "electric_dipole_moment_norm": 5.59180214332, 
			 "electric_quadrupole_moment_norm": 21.4014998159, 
			 "total_energy": -2287.8660559, 
			 "HOMO_LUMO_gap": 0.19136, 
			 "cosmo_polarized_energy": -18.92, 
			 "cosmo_cavitation_energy": 32.18, 
			 "cosmo_dispersion_energy": -24.03, 
			 "cosmo_repulsion_energy": 1.8, 
			 "cosmo_total_nonelectrostatic_energy": 9.95, 
			 "SMD_solvation_energy": 3.79 
		},
		"coords": [
			{
				"x": 1.8067659898,
				"y": 2.192054972,
				"z": 1.0409169257,
				"element": "C" 
			},
			{
				"x": 2.3990582428,
				"y": 0.8863492209,
				"z": -0.0593989026,
				"element": "S" 
			},
			{
				"x": 2.8290946166,
				"y": 1.5165260853,
				"z": -1.3137902604,
				"element": "O" 
			},
			{
				"x": 3.291337703,
				"y": 0.0135166276,
				"z": 0.7162155688,
				"element": "O" 
			},
			{
				"x": 0.9089125295,
				"y": -0.0728119194,
				"z": -0.4194240287,
				"element": "C" 
			},
			{
				"x": 0.0785530046,
				"y": 0.322673105,
				"z": -1.4639847791,
				"element": "C" 
			},
			{
				"x": -1.0653787186,
				"y": -0.4284036701,
				"z": -1.7428930614,
				"element": "C" 
			},
			{
				"x": -1.3704225735,
				"y": -1.5740535458,
				"z": -0.9865359437,
				"element": "C" 
			},
			{
				"x": -2.7871068425,
				"y": -2.5374497385,
				"z": -1.2691311784,
				"element": "Cl" 
			},
			{
				"x": -0.5109801362,
				"y": -1.9610202581,
				"z": 0.0461202234,
				"element": "C" 
			},
			{
				"x": 0.6294147471,
				"y": -1.2147178379,
				"z": 0.3307732622,
				"element": "C" 
			},
			{
				"x": -2.0466494791,
				"y": 0.1455800986,
				"z": -3.1450690786,
				"element": "S" 
			},
			{
				"x": -3.7892671685,
				"y": 0.8496553135,
				"z": -2.1619257117,
				"element": "Cl" 
			},
			{
				"x": -1.3871663866,
				"y": 1.323419435,
				"z": -3.6917453509,
				"element": "O" 
			},
			{
				"x": -2.4436603736,
				"y": -0.9736476957,
				"z": -3.9834657127,
				"element": "O" 
			},
			{
				"x": 1.3907274979,
				"y": 1.7424304643,
				"z": 1.9435223438,
				"element": "H" 
			},
			{
				"x": 1.0641701668,
				"y": 2.7960949254,
				"z": 0.5178045991,
				"element": "H" 
			},
			{
				"x": 2.6818270789,
				"y": 2.7973791893,
				"z": 1.2870583802,
				"element": "H" 
			},
			{
				"x": 0.3199191937,
				"y": 1.1878941452,
				"z": -2.0715065179,
				"element": "H" 
			},
			{
				"x": -0.745067274,
				"y": -2.8524748357,
				"z": 0.6169026125,
				"element": "H" 
			},
			{
				"x": 1.3109181818,
				"y": -1.5211940809,
				"z": 1.1173566105,
				"element": "H" 
			}
		],
		 "valence_orbital": [ 
			{
				"type": "occ",
				"energy": -0.32673,
				"method": "rhf"
			},
			{
				"type": "occ",
				"energy": -0.31784,
				"method": "rhf"
			},
			{
				"type": "occ",
				"energy": -0.31614,
				"method": "rhf"
			},
			{
				"type": "occ",
				"energy": -0.31094,
				"method": "rhf"
			},
			{
				"type": "occ",
				"energy": -0.29675,
				"method": "rhf"
			},
			{
				"type": "unocc",
				"energy": -0.10539,
				"method": "rhf"
			},
			{
				"type": "unocc",
				"energy": -0.0796,
				"method": "rhf"
			},
			{
				"type": "unocc",
				"energy": -0.06869,
				"method": "rhf"
			},
			{
				"type": "unocc",
				"energy": -0.00959,
				"method": "rhf"
			},
			{
				"type": "unocc",
				"energy": 0.0313,
				"method": "rhf"
			}
		],
		"cosmo_sigma_profile": { 
			"-0.025": 0.0,
			"-0.024": 0.0,
			"-0.023": 0.0,
			"-0.022": 0.0,
			"-0.021": 0.0,
			"-0.02": 0.0,
			"-0.019": 0.0,
			"-0.018": 0.0,
			"-0.017": 0.0,
			"-0.016": 0.0,
			"-0.015": 0.0,
			"-0.014": 0.0,
			"-0.013": 0.0,
			"-0.012": 0.0,
			"-0.011": 0.157769900749,
			"-0.01": 3.01316614962,
			"-0.009": 11.5392973141,
			"-0.008": 10.9082494323,
			"-0.007": 10.4483586765,
			"-0.006": 10.6761154797,
			"-0.005": 14.3786662345,
			"-0.004": 15.4578753491,
			"-0.003": 23.1588150818,
			"-0.002": 20.1011969422,
			"-0.001": 14.08124654,
			"0.0": 12.2094742785,
			"0.001": 15.0026672404,
			"0.002": 22.1127345176,
			"0.003": 14.6184938986,
			"0.004": 6.11836530795,
			"0.005": 5.87329408306,
			"0.006": 7.37867864956,
			"0.007": 11.7071140929,
			"0.008": 11.1925483292,
			"0.009": 3.53483138744,
			"0.01": 7.38585201513,
			"0.011": 9.82928246806,
			"0.012": 2.52706520699,
			"0.013": 0.0,
			"0.014": 0.0,
			"0.015": 0.0,
			"0.016": 0.0,
			"0.017": 0.0,
			"0.018": 0.0,
			"0.019": 0.0,
			"0.02": 0.0,
			"0.021": 0.0,
			"0.022": 0.0,
			"0.023": 0.0,
			"0.024": 0.0,
			"0.025": 0.0
		}
	}
}
