{
	 "smiles": "N=C1NC(=N)C2=CC=CC=C12", 
	 "Tm": 463.15, 
	 "num_atms": 18, 
	 "gaussian": { 
		 "optdone": 1, 
		 "sigma_profile": "yes", 
		 "theory": "DFT", 
		 "functional": "B3LYP", 
		 "basiset": "6-31G**", 
		 "properties": { 
			 "R2extent": 1673.4162, 
			 "electric_dipole_moment_norm": 1.65465830309, 
			 "electric_quadrupole_moment_norm": 12.040958836, 
			 "total_energy": -473.324389651, 
			 "HOMO_LUMO_gap": 0.18007, 
			 "cosmo_polarized_energy": -14.0, 
			 "cosmo_cavitation_energy": 22.54, 
			 "cosmo_dispersion_energy": -16.71, 
			 "cosmo_repulsion_energy": 1.33, 
			 "cosmo_total_nonelectrostatic_energy": 7.16, 
			 "SMD_solvation_energy": 1.65 
		},
		"coords": [
			{
				"x": -2.4609501651,
				"y": 1.1834148116,
				"z": -1.1370469538,
				"element": "N" 
			},
			{
				"x": -1.3605700957,
				"y": 1.1718454242,
				"z": -0.489374936,
				"element": "C" 
			},
			{
				"x": -0.607580826,
				"y": 2.3329355459,
				"z": -0.2871838831,
				"element": "N" 
			},
			{
				"x": 0.5662336872,
				"y": 2.1245717305,
				"z": 0.4439655117,
				"element": "C" 
			},
			{
				"x": 1.4743896166,
				"y": 2.9462366886,
				"z": 0.8070045092,
				"element": "N" 
			},
			{
				"x": 0.5651441619,
				"y": 0.6718700194,
				"z": 0.742850187,
				"element": "C" 
			},
			{
				"x": 1.4910180616,
				"y": -0.0921065048,
				"z": 1.4432772865,
				"element": "C" 
			},
			{
				"x": 1.2381426186,
				"y": -1.4603904313,
				"z": 1.577195992,
				"element": "C" 
			},
			{
				"x": 0.0879707798,
				"y": -2.0390917543,
				"z": 1.0221484636,
				"element": "C" 
			},
			{
				"x": -0.8389927176,
				"y": -1.264002513,
				"z": 0.3187686045,
				"element": "C" 
			},
			{
				"x": -0.5847093459,
				"y": 0.0975005477,
				"z": 0.1870824228,
				"element": "C" 
			},
			{
				"x": -2.857439437,
				"y": 0.2434698052,
				"z": -1.175808742,
				"element": "H" 
			},
			{
				"x": -0.911447706,
				"y": 3.2243703959,
				"z": -0.6492921479,
				"element": "H" 
			},
			{
				"x": 1.2723344176,
				"y": 3.8983229682,
				"z": 0.4922498664,
				"element": "H" 
			},
			{
				"x": 2.376069166,
				"y": 0.3709194815,
				"z": 1.8667093563,
				"element": "H" 
			},
			{
				"x": 1.9412569336,
				"y": -2.0864713869,
				"z": 2.1185873536,
				"element": "H" 
			},
			{
				"x": -0.084763438,
				"y": -3.104652993,
				"z": 1.1406347318,
				"element": "H" 
			},
			{
				"x": -1.7286057115,
				"y": -1.7181418353,
				"z": -0.1091676227,
				"element": "H" 
			}
		],
		 "valence_orbital": [ 
			{
				"type": "occ",
				"energy": -0.28221,
				"method": "rhf"
			},
			{
				"type": "occ",
				"energy": -0.26819,
				"method": "rhf"
			},
			{
				"type": "occ",
				"energy": -0.26445,
				"method": "rhf"
			},
			{
				"type": "occ",
				"energy": -0.26304,
				"method": "rhf"
			},
			{
				"type": "occ",
				"energy": -0.23876,
				"method": "rhf"
			},
			{
				"type": "unocc",
				"energy": -0.05869,
				"method": "rhf"
			},
			{
				"type": "unocc",
				"energy": -0.02989,
				"method": "rhf"
			},
			{
				"type": "unocc",
				"energy": 0.04197,
				"method": "rhf"
			},
			{
				"type": "unocc",
				"energy": 0.07721,
				"method": "rhf"
			},
			{
				"type": "unocc",
				"energy": 0.09116,
				"method": "rhf"
			}
		],
		"cosmo_sigma_profile": { 
			"-0.025": 0.0,
			"-0.024": 0.0,
			"-0.023": 0.0,
			"-0.022": 0.0,
			"-0.021": 0.0,
			"-0.02": 0.0,
			"-0.019": 0.0,
			"-0.018": 0.0,
			"-0.017": 0.0,
			"-0.016": 0.204574132754,
			"-0.015": 1.46425410147,
			"-0.014": 1.6647192814,
			"-0.013": 1.77931916076,
			"-0.012": 1.6882816797,
			"-0.011": 2.68059555798,
			"-0.01": 4.10476774434,
			"-0.009": 4.0585279355,
			"-0.008": 2.9262529704,
			"-0.007": 5.58471997835,
			"-0.006": 10.1264287885,
			"-0.005": 11.6506452963,
			"-0.004": 9.01566203936,
			"-0.003": 7.3376696653,
			"-0.002": 8.17315139684,
			"-0.001": 10.4679557687,
			"0.0": 12.6476162804,
			"0.001": 13.2151993717,
			"0.002": 15.0290626366,
			"0.003": 15.479549907,
			"0.004": 8.43659785272,
			"0.005": 4.1379836836,
			"0.006": 3.23980620721,
			"0.007": 1.95864264173,
			"0.008": 3.59191241873,
			"0.009": 2.17375922791,
			"0.01": 2.60486719232,
			"0.011": 1.78860459684,
			"0.012": 2.81889397351,
			"0.013": 2.56477368064,
			"0.014": 2.04823845903,
			"0.015": 1.9315120028,
			"0.016": 2.43756099729,
			"0.017": 1.29028204064,
			"0.018": 0.237084865599,
			"0.019": 0.0,
			"0.02": 0.0,
			"0.021": 0.0,
			"0.022": 0.0,
			"0.023": 0.0,
			"0.024": 0.0,
			"0.025": 0.0
		}
	}
}
