{
	 "smiles": "[O-][N+](=O)C1=C(Br)C2=C(S1)C=CC=C2", 
	 "Tm": 439.15, 
	 "num_atms": 17, 
	 "gaussian": { 
		 "optdone": 1, 
		 "sigma_profile": "yes", 
		 "theory": "DFT", 
		 "functional": "B3LYP", 
		 "basiset": "6-31G**", 
		 "properties": { 
			 "R2extent": 3639.7016, 
			 "electric_dipole_moment_norm": 5.59417530026, 
			 "electric_quadrupole_moment_norm": 14.505612268, 
			 "total_energy": -3481.93675853, 
			 "HOMO_LUMO_gap": 0.14019, 
			 "cosmo_polarized_energy": -8.72, 
			 "cosmo_cavitation_energy": 25.84, 
			 "cosmo_dispersion_energy": -20.19, 
			 "cosmo_repulsion_energy": 1.52, 
			 "cosmo_total_nonelectrostatic_energy": 7.18, 
			 "SMD_solvation_energy": 5.16 
		},
		"coords": [
			{
				"x": 0.2979892177,
				"y": -1.5871266996,
				"z": -3.4598367362,
				"element": "O" 
			},
			{
				"x": 0.2419433921,
				"y": -0.3657920696,
				"z": -3.3361469948,
				"element": "N" 
			},
			{
				"x": 0.1737825751,
				"y": 0.445553672,
				"z": -4.2671279227,
				"element": "O" 
			},
			{
				"x": 0.2546940481,
				"y": 0.1987511966,
				"z": -2.0126421203,
				"element": "C" 
			},
			{
				"x": 0.3226483529,
				"y": -0.4284071134,
				"z": -0.7953556539,
				"element": "C" 
			},
			{
				"x": 0.4228803421,
				"y": -2.27779116,
				"z": -0.4860290723,
				"element": "Br" 
			},
			{
				"x": 0.3100911722,
				"y": 0.5093761108,
				"z": 0.2967302359,
				"element": "C" 
			},
			{
				"x": 0.230491198,
				"y": 1.8466101244,
				"z": -0.1658009183,
				"element": "C" 
			},
			{
				"x": 0.1719269895,
				"y": 1.9470224714,
				"z": -1.9141385876,
				"element": "S" 
			},
			{
				"x": 0.2052912656,
				"y": 2.9221864275,
				"z": 0.7297406386,
				"element": "C" 
			},
			{
				"x": 0.2603760266,
				"y": 2.6485229232,
				"z": 2.0902728328,
				"element": "C" 
			},
			{
				"x": 0.3397202594,
				"y": 1.3234406339,
				"z": 2.5629950925,
				"element": "C" 
			},
			{
				"x": 0.3648732366,
				"y": 0.2563743572,
				"z": 1.6804676868,
				"element": "C" 
			},
			{
				"x": 0.1442350456,
				"y": 3.9440249721,
				"z": 0.3689703072,
				"element": "H" 
			},
			{
				"x": 0.24192356,
				"y": 3.4699874464,
				"z": 2.800030227,
				"element": "H" 
			},
			{
				"x": 0.381495493,
				"y": 1.1389331551,
				"z": 3.6317483769,
				"element": "H" 
			},
			{
				"x": 0.4258378256,
				"y": -0.7667664481,
				"z": 2.0353226083,
				"element": "H" 
			}
		],
		 "valence_orbital": [ 
			{
				"type": "occ",
				"energy": -0.30601,
				"method": "rhf"
			},
			{
				"type": "occ",
				"energy": -0.29383,
				"method": "rhf"
			},
			{
				"type": "occ",
				"energy": -0.28672,
				"method": "rhf"
			},
			{
				"type": "occ",
				"energy": -0.26796,
				"method": "rhf"
			},
			{
				"type": "occ",
				"energy": -0.24543,
				"method": "rhf"
			},
			{
				"type": "unocc",
				"energy": -0.10524,
				"method": "rhf"
			},
			{
				"type": "unocc",
				"energy": -0.03011,
				"method": "rhf"
			},
			{
				"type": "unocc",
				"energy": -0.0284,
				"method": "rhf"
			},
			{
				"type": "unocc",
				"energy": -0.02426,
				"method": "rhf"
			},
			{
				"type": "unocc",
				"energy": 0.01732,
				"method": "rhf"
			}
		],
		"cosmo_sigma_profile": { 
			"-0.025": 0.0,
			"-0.024": 0.0,
			"-0.023": 0.0,
			"-0.022": 0.0,
			"-0.021": 0.0,
			"-0.02": 0.0,
			"-0.019": 0.0,
			"-0.018": 0.0,
			"-0.017": 0.0,
			"-0.016": 0.0,
			"-0.015": 0.0,
			"-0.014": 0.0,
			"-0.013": 0.0,
			"-0.012": 0.0,
			"-0.011": 0.0,
			"-0.01": 0.0,
			"-0.009": 0.8575136921,
			"-0.008": 2.78576709124,
			"-0.007": 8.81605606813,
			"-0.006": 12.6323187732,
			"-0.005": 12.3396989227,
			"-0.004": 10.7419090665,
			"-0.003": 13.0611397596,
			"-0.002": 20.0812754806,
			"-0.001": 16.9304005973,
			"0.0": 19.1798612834,
			"0.001": 20.4297545063,
			"0.002": 23.131361504,
			"0.003": 16.4209235656,
			"0.004": 4.77782192762,
			"0.005": 4.07093364698,
			"0.006": 4.3648126142,
			"0.007": 10.5017954365,
			"0.008": 7.57676580505,
			"0.009": 4.14864580683,
			"0.01": 1.49239574125,
			"0.011": 0.0,
			"0.012": 0.0,
			"0.013": 0.0,
			"0.014": 0.0,
			"0.015": 0.0,
			"0.016": 0.0,
			"0.017": 0.0,
			"0.018": 0.0,
			"0.019": 0.0,
			"0.02": 0.0,
			"0.021": 0.0,
			"0.022": 0.0,
			"0.023": 0.0,
			"0.024": 0.0,
			"0.025": 0.0
		}
	}
}
