{
	 "smiles": "CC1=CC=C(C=C1)C(=O)C(=O)C1=CC=C(Cl)C=C1", 
	 "Tm": 397.15, 
	 "num_atms": 29, 
	 "gaussian": { 
		 "optdone": 1, 
		 "sigma_profile": "yes", 
		 "theory": "DFT", 
		 "functional": "B3LYP", 
		 "basiset": "6-31G**", 
		 "properties": { 
			 "R2extent": 8042.3875, 
			 "electric_dipole_moment_norm": 3.36273453903, 
			 "electric_quadrupole_moment_norm": 11.9237790197, 
			 "total_energy": -1188.86656662, 
			 "HOMO_LUMO_gap": 0.15037, 
			 "cosmo_polarized_energy": -9.53, 
			 "cosmo_cavitation_energy": 36.07, 
			 "cosmo_dispersion_energy": -26.08, 
			 "cosmo_repulsion_energy": 2.0, 
			 "cosmo_total_nonelectrostatic_energy": 11.98, 
			 "SMD_solvation_energy": 6.76 
		},
		"coords": [
			{
				"x": -0.5185634914,
				"y": -5.7175302008,
				"z": 0.2591748171,
				"element": "C" 
			},
			{
				"x": -0.3640940725,
				"y": -4.2441529393,
				"z": -0.0258132905,
				"element": "C" 
			},
			{
				"x": 0.7382087293,
				"y": -3.5246445786,
				"z": 0.4533260132,
				"element": "C" 
			},
			{
				"x": 0.8744036373,
				"y": -2.1603859414,
				"z": 0.2059725934,
				"element": "C" 
			},
			{
				"x": -0.1032669073,
				"y": -1.478117135,
				"z": -0.5359563209,
				"element": "C" 
			},
			{
				"x": -1.2131158498,
				"y": -2.1955984468,
				"z": -1.0192653892,
				"element": "C" 
			},
			{
				"x": -1.3373214526,
				"y": -3.5543507001,
				"z": -0.7700731564,
				"element": "C" 
			},
			{
				"x": -0.056243221,
				"y": -0.0208355647,
				"z": -0.8116894439,
				"element": "C" 
			},
			{
				"x": -0.9355839955,
				"y": 0.5614428975,
				"z": -1.4364209241,
				"element": "O" 
			},
			{
				"x": 1.1679254446,
				"y": 0.8029362781,
				"z": -0.3641677953,
				"element": "C" 
			},
			{
				"x": 2.2847736533,
				"y": 0.367223468,
				"z": -0.6125189249,
				"element": "O" 
			},
			{
				"x": 0.9642746202,
				"y": 2.1271566501,
				"z": 0.2868454564,
				"element": "C" 
			},
			{
				"x": -0.2999431718,
				"y": 2.650958058,
				"z": 0.6037173115,
				"element": "C" 
			},
			{
				"x": -0.412779309,
				"y": 3.8799981488,
				"z": 1.2494568933,
				"element": "C" 
			},
			{
				"x": 0.7446561884,
				"y": 4.5868510735,
				"z": 1.5771129519,
				"element": "C" 
			},
			{
				"x": 0.6057495121,
				"y": 6.1336969792,
				"z": 2.3900975266,
				"element": "Cl" 
			},
			{
				"x": 2.0137116816,
				"y": 4.0870931509,
				"z": 1.2709936122,
				"element": "C" 
			},
			{
				"x": 2.114091619,
				"y": 2.8594132895,
				"z": 0.6293986385,
				"element": "C" 
			},
			{
				"x": -0.8075188822,
				"y": -6.2687879642,
				"z": -0.6417307235,
				"element": "H" 
			},
			{
				"x": 0.4081319471,
				"y": -6.1523698719,
				"z": 0.642658334,
				"element": "H" 
			},
			{
				"x": -1.3018602744,
				"y": -5.8918717988,
				"z": 1.0071310193,
				"element": "H" 
			},
			{
				"x": 1.5044760158,
				"y": -4.0417009537,
				"z": 1.024706493,
				"element": "H" 
			},
			{
				"x": 1.7468354009,
				"y": -1.6332026898,
				"z": 0.5718502397,
				"element": "H" 
			},
			{
				"x": -1.9634805949,
				"y": -1.6596859133,
				"z": -1.5910503665,
				"element": "H" 
			},
			{
				"x": -2.1982215709,
				"y": -4.0956786784,
				"z": -1.1545661577,
				"element": "H" 
			},
			{
				"x": -1.1972885811,
				"y": 2.1101199872,
				"z": 0.3306515884,
				"element": "H" 
			},
			{
				"x": -1.3863803126,
				"y": 4.2897910901,
				"z": 1.4933177677,
				"element": "H" 
			},
			{
				"x": 2.8993476819,
				"y": 4.6541333063,
				"z": 1.5350303908,
				"element": "H" 
			},
			{
				"x": 3.0841755557,
				"y": 2.4421989997,
				"z": 0.380910846,
				"element": "H" 
			}
		],
		 "valence_orbital": [ 
			{
				"type": "occ",
				"energy": -0.27472,
				"method": "rhf"
			},
			{
				"type": "occ",
				"energy": -0.26369,
				"method": "rhf"
			},
			{
				"type": "occ",
				"energy": -0.2595,
				"method": "rhf"
			},
			{
				"type": "occ",
				"energy": -0.25593,
				"method": "rhf"
			},
			{
				"type": "occ",
				"energy": -0.23952,
				"method": "rhf"
			},
			{
				"type": "unocc",
				"energy": -0.08915,
				"method": "rhf"
			},
			{
				"type": "unocc",
				"energy": -0.05668,
				"method": "rhf"
			},
			{
				"type": "unocc",
				"energy": -0.02232,
				"method": "rhf"
			},
			{
				"type": "unocc",
				"energy": -0.01252,
				"method": "rhf"
			},
			{
				"type": "unocc",
				"energy": 0.01325,
				"method": "rhf"
			}
		],
		"cosmo_sigma_profile": { 
			"-0.025": 0.0,
			"-0.024": 0.0,
			"-0.023": 0.0,
			"-0.022": 0.0,
			"-0.021": 0.0,
			"-0.02": 0.0,
			"-0.019": 0.0,
			"-0.018": 0.0,
			"-0.017": 0.0,
			"-0.016": 0.0,
			"-0.015": 0.0,
			"-0.014": 0.0,
			"-0.013": 0.0,
			"-0.012": 0.0,
			"-0.011": 0.0,
			"-0.01": 0.0,
			"-0.009": 0.00392192920332,
			"-0.008": 2.24664139759,
			"-0.007": 6.48991207572,
			"-0.006": 14.7680681062,
			"-0.005": 21.8222181778,
			"-0.004": 20.598153922,
			"-0.003": 19.6720596903,
			"-0.002": 22.0072383059,
			"-0.001": 24.2527693679,
			"0.0": 29.1590180149,
			"0.001": 31.2212339474,
			"0.002": 27.6113788455,
			"0.003": 23.1193808593,
			"0.004": 21.399515095,
			"0.005": 4.34789342225,
			"0.006": 2.32809294406,
			"0.007": 3.73931720465,
			"0.008": 3.92193974914,
			"0.009": 3.65572848306,
			"0.01": 5.95440877275,
			"0.011": 3.89709041141,
			"0.012": 0.0,
			"0.013": 0.0,
			"0.014": 0.0,
			"0.015": 0.0,
			"0.016": 0.0,
			"0.017": 0.0,
			"0.018": 0.0,
			"0.019": 0.0,
			"0.02": 0.0,
			"0.021": 0.0,
			"0.022": 0.0,
			"0.023": 0.0,
			"0.024": 0.0,
			"0.025": 0.0
		}
	}
}
