{
	 "smiles": "COC1=C(Br)C=C(C=C1)C1=CSC(N)=N1", 
	 "Tm": 462.15, 
	 "num_atms": 24, 
	 "gaussian": { 
		 "optdone": 1, 
		 "sigma_profile": "yes", 
		 "theory": "DFT", 
		 "functional": "B3LYP", 
		 "basiset": "6-31G**", 
		 "properties": { 
			 "R2extent": 6736.7715, 
			 "electric_dipole_moment_norm": 2.86310474311, 
			 "electric_quadrupole_moment_norm": 29.2131247887, 
			 "total_energy": -3540.79338272, 
			 "HOMO_LUMO_gap": 0.16746, 
			 "cosmo_polarized_energy": -14.82, 
			 "cosmo_cavitation_energy": 32.4, 
			 "cosmo_dispersion_energy": -24.91, 
			 "cosmo_repulsion_energy": 1.91, 
			 "cosmo_total_nonelectrostatic_energy": 9.4, 
			 "SMD_solvation_energy": 3.82 
		},
		"coords": [
			{
				"x": 0.1695717249,
				"y": -0.2123964377,
				"z": -4.4596094324,
				"element": "C" 
			},
			{
				"x": -0.8499695329,
				"y": 0.0834915476,
				"z": -3.5174038784,
				"element": "O" 
			},
			{
				"x": -0.5143460587,
				"y": 0.1658759701,
				"z": -2.2051106245,
				"element": "C" 
			},
			{
				"x": -1.5401885385,
				"y": 0.4629543527,
				"z": -1.2895176265,
				"element": "C" 
			},
			{
				"x": -3.3188934902,
				"y": 0.7299200919,
				"z": -1.9271614851,
				"element": "Br" 
			},
			{
				"x": -1.2846007973,
				"y": 0.5657129043,
				"z": 0.0692085088,
				"element": "C" 
			},
			{
				"x": 0.0126353556,
				"y": 0.3744331366,
				"z": 0.5755775344,
				"element": "C" 
			},
			{
				"x": 1.0349126545,
				"y": 0.0805446155,
				"z": -0.3360033108,
				"element": "C" 
			},
			{
				"x": 0.7801885783,
				"y": -0.0231437642,
				"z": -1.7011093366,
				"element": "C" 
			},
			{
				"x": 0.249763561,
				"y": 0.4880160523,
				"z": 2.0262388272,
				"element": "C" 
			},
			{
				"x": 1.4388393666,
				"y": 0.2899747461,
				"z": 2.674856515,
				"element": "C" 
			},
			{
				"x": 1.2502450375,
				"y": 0.5378446152,
				"z": 4.3920893202,
				"element": "S" 
			},
			{
				"x": -0.4614958932,
				"y": 0.8765641135,
				"z": 4.0954363955,
				"element": "C" 
			},
			{
				"x": -1.2992805252,
				"y": 1.2500400889,
				"z": 5.1215450144,
				"element": "N" 
			},
			{
				"x": -0.820645057,
				"y": 0.8147488584,
				"z": 2.8492226707,
				"element": "N" 
			},
			{
				"x": -0.3213805061,
				"y": -0.2273927,
				"z": -5.4334536085,
				"element": "H" 
			},
			{
				"x": 0.9536031879,
				"y": 0.555378573,
				"z": -4.4614312076,
				"element": "H" 
			},
			{
				"x": 0.6245805894,
				"y": -1.1925712033,
				"z": -4.2686616476,
				"element": "H" 
			},
			{
				"x": -2.0885748237,
				"y": 0.7963307756,
				"z": 0.7562718508,
				"element": "H" 
			},
			{
				"x": 2.0521539071,
				"y": -0.0687754932,
				"z": 0.0120409269,
				"element": "H" 
			},
			{
				"x": 1.5972938607,
				"y": -0.2510353244,
				"z": -2.3750674977,
				"element": "H" 
			},
			{
				"x": 2.4002130459,
				"y": 0.0094023209,
				"z": 2.2726178024,
				"element": "H" 
			},
			{
				"x": -2.2757846715,
				"y": 1.234383781,
				"z": 4.8570099122,
				"element": "H" 
			},
			{
				"x": -1.1148409751,
				"y": 0.8507983793,
				"z": 6.0307143772,
				"element": "H" 
			}
		],
		 "valence_orbital": [ 
			{
				"type": "occ",
				"energy": -0.27474,
				"method": "rhf"
			},
			{
				"type": "occ",
				"energy": -0.27092,
				"method": "rhf"
			},
			{
				"type": "occ",
				"energy": -0.24253,
				"method": "rhf"
			},
			{
				"type": "occ",
				"energy": -0.23112,
				"method": "rhf"
			},
			{
				"type": "occ",
				"energy": -0.19554,
				"method": "rhf"
			},
			{
				"type": "unocc",
				"energy": -0.02808,
				"method": "rhf"
			},
			{
				"type": "unocc",
				"energy": -0.0055,
				"method": "rhf"
			},
			{
				"type": "unocc",
				"energy": 0.00655,
				"method": "rhf"
			},
			{
				"type": "unocc",
				"energy": 0.01658,
				"method": "rhf"
			},
			{
				"type": "unocc",
				"energy": 0.02248,
				"method": "rhf"
			}
		],
		"cosmo_sigma_profile": { 
			"-0.025": 0.0,
			"-0.024": 0.0,
			"-0.023": 0.0,
			"-0.022": 0.0,
			"-0.021": 0.0,
			"-0.02": 0.0,
			"-0.019": 0.0,
			"-0.018": 0.0,
			"-0.017": 0.0,
			"-0.016": 0.0,
			"-0.015": 0.382240758584,
			"-0.014": 2.04650413601,
			"-0.013": 2.94325355363,
			"-0.012": 1.92221432317,
			"-0.011": 2.84809723535,
			"-0.01": 2.89359858012,
			"-0.009": 3.64209559807,
			"-0.008": 4.47747681256,
			"-0.007": 7.00618180166,
			"-0.006": 12.9106238597,
			"-0.005": 15.431261205,
			"-0.004": 15.3341849065,
			"-0.003": 14.6687734645,
			"-0.002": 11.128823549,
			"-0.001": 11.0524225967,
			"0.0": 12.8059477161,
			"0.001": 16.040048592,
			"0.002": 23.6807376758,
			"0.003": 31.5588224519,
			"0.004": 30.7908758177,
			"0.005": 16.7190757109,
			"0.006": 5.66038994705,
			"0.007": 4.77181975717,
			"0.008": 4.52925074541,
			"0.009": 3.62276294609,
			"0.01": 3.95550270808,
			"0.011": 1.73056949118,
			"0.012": 0.31073147115,
			"0.013": 0.0,
			"0.014": 0.0,
			"0.015": 0.0,
			"0.016": 0.0,
			"0.017": 0.0,
			"0.018": 0.0,
			"0.019": 0.0,
			"0.02": 0.0,
			"0.021": 0.0,
			"0.022": 0.0,
			"0.023": 0.0,
			"0.024": 0.0,
			"0.025": 0.0
		}
	}
}
