{
	 "smiles": "CC1=CC2=C(S1)C=CC(Br)=C2", 
	 "Tm": 343.15, 
	 "num_atms": 18, 
	 "gaussian": { 
		 "optdone": 1, 
		 "sigma_profile": "yes", 
		 "theory": "DFT", 
		 "functional": "B3LYP", 
		 "basiset": "6-31G**", 
		 "properties": { 
			 "R2extent": 3820.5812, 
			 "electric_dipole_moment_norm": 2.44307991887, 
			 "electric_quadrupole_moment_norm": 11.4758937212, 
			 "total_energy": -3316.77735314, 
			 "HOMO_LUMO_gap": 0.19003, 
			 "cosmo_polarized_energy": -5.06, 
			 "cosmo_cavitation_energy": 25.72, 
			 "cosmo_dispersion_energy": -20.06, 
			 "cosmo_repulsion_energy": 1.55, 
			 "cosmo_total_nonelectrostatic_energy": 7.2, 
			 "SMD_solvation_energy": 2.72 
		},
		"coords": [
			{
				"x": 4.5422940792,
				"y": 1.6813260919,
				"z": -0.7915807226,
				"element": "C" 
			},
			{
				"x": 3.1433278323,
				"y": 1.146723832,
				"z": -0.7532996078,
				"element": "C" 
			},
			{
				"x": 2.6872716482,
				"y": 0.03195714,
				"z": -0.1207450772,
				"element": "C" 
			},
			{
				"x": 1.2750859463,
				"y": -0.1963603035,
				"z": -0.287401515,
				"element": "C" 
			},
			{
				"x": 0.6667111817,
				"y": 0.8048286962,
				"z": -1.0841885123,
				"element": "C" 
			},
			{
				"x": 1.8483778112,
				"y": 1.9955905234,
				"z": -1.6038592248,
				"element": "S" 
			},
			{
				"x": -0.6997838997,
				"y": 0.7777871268,
				"z": -1.3731756228,
				"element": "C" 
			},
			{
				"x": -1.4735549848,
				"y": -0.2596543087,
				"z": -0.8627809218,
				"element": "C" 
			},
			{
				"x": -0.8722214642,
				"y": -1.2523588944,
				"z": -0.0731419633,
				"element": "C" 
			},
			{
				"x": -1.965975856,
				"y": -2.6661007008,
				"z": 0.6137633633,
				"element": "Br" 
			},
			{
				"x": 0.4820637086,
				"y": -1.2400005895,
				"z": 0.222724763,
				"element": "C" 
			},
			{
				"x": 4.6015179588,
				"y": 2.6899969942,
				"z": -0.3671367481,
				"element": "H" 
			},
			{
				"x": 4.9269398063,
				"y": 1.7346249037,
				"z": -1.8164129252,
				"element": "H" 
			},
			{
				"x": 5.2052729292,
				"y": 1.0315050419,
				"z": -0.2143576421,
				"element": "H" 
			},
			{
				"x": 3.3333034983,
				"y": -0.6219540611,
				"z": 0.4554997158,
				"element": "H" 
			},
			{
				"x": -1.1590935729,
				"y": 1.5484278993,
				"z": -1.9844291313,
				"element": "H" 
			},
			{
				"x": -2.5359605897,
				"y": -0.3057279657,
				"z": -1.0709050818,
				"element": "H" 
			},
			{
				"x": 0.9209239672,
				"y": -2.0196114256,
				"z": 0.835326854,
				"element": "H" 
			}
		],
		 "valence_orbital": [ 
			{
				"type": "occ",
				"energy": -0.29677,
				"method": "rhf"
			},
			{
				"type": "occ",
				"energy": -0.28396,
				"method": "rhf"
			},
			{
				"type": "occ",
				"energy": -0.28312,
				"method": "rhf"
			},
			{
				"type": "occ",
				"energy": -0.22963,
				"method": "rhf"
			},
			{
				"type": "occ",
				"energy": -0.22251,
				"method": "rhf"
			},
			{
				"type": "unocc",
				"energy": -0.03248,
				"method": "rhf"
			},
			{
				"type": "unocc",
				"energy": -0.01109,
				"method": "rhf"
			},
			{
				"type": "unocc",
				"energy": 0.00409,
				"method": "rhf"
			},
			{
				"type": "unocc",
				"energy": 0.02203,
				"method": "rhf"
			},
			{
				"type": "unocc",
				"energy": 0.04304,
				"method": "rhf"
			}
		],
		"cosmo_sigma_profile": { 
			"-0.025": 0.0,
			"-0.024": 0.0,
			"-0.023": 0.0,
			"-0.022": 0.0,
			"-0.021": 0.0,
			"-0.02": 0.0,
			"-0.019": 0.0,
			"-0.018": 0.0,
			"-0.017": 0.0,
			"-0.016": 0.0,
			"-0.015": 0.0,
			"-0.014": 0.0,
			"-0.013": 0.0,
			"-0.012": 0.0,
			"-0.011": 0.0,
			"-0.01": 0.0,
			"-0.009": 0.0,
			"-0.008": 0.601031883915,
			"-0.007": 6.36083031015,
			"-0.006": 10.117004128,
			"-0.005": 14.6615191559,
			"-0.004": 14.9256684093,
			"-0.003": 14.3959737188,
			"-0.002": 15.1209326069,
			"-0.001": 15.1794628116,
			"0.0": 13.2665827504,
			"0.001": 14.1289990382,
			"0.002": 20.2991182074,
			"0.003": 33.0640191229,
			"0.004": 25.4594037567,
			"0.005": 13.2490475081,
			"0.006": 0.989116475549,
			"0.007": 0.0,
			"0.008": 0.0,
			"0.009": 0.0,
			"0.01": 0.0,
			"0.011": 0.0,
			"0.012": 0.0,
			"0.013": 0.0,
			"0.014": 0.0,
			"0.015": 0.0,
			"0.016": 0.0,
			"0.017": 0.0,
			"0.018": 0.0,
			"0.019": 0.0,
			"0.02": 0.0,
			"0.021": 0.0,
			"0.022": 0.0,
			"0.023": 0.0,
			"0.024": 0.0,
			"0.025": 0.0
		}
	}
}
