{
	 "smiles": "CCOC(=O)C1=CC=C(O)C(O)=C1", 
	 "Tm": 406.65, 
	 "num_atms": 23, 
	 "gaussian": { 
		 "optdone": 1, 
		 "sigma_profile": "yes", 
		 "theory": "DFT", 
		 "functional": "B3LYP", 
		 "basiset": "6-31G**", 
		 "properties": { 
			 "R2extent": 3269.4142, 
			 "electric_dipole_moment_norm": 0.604743160358, 
			 "electric_quadrupole_moment_norm": 17.1829674312, 
			 "total_energy": -649.894725984, 
			 "HOMO_LUMO_gap": 0.18472, 
			 "cosmo_polarized_energy": -12.81, 
			 "cosmo_cavitation_energy": 27.47, 
			 "cosmo_dispersion_energy": -20.35, 
			 "cosmo_repulsion_energy": 1.63, 
			 "cosmo_total_nonelectrostatic_energy": 8.74, 
			 "SMD_solvation_energy": 6.49 
		},
		"coords": [
			{
				"x": -2.8567648881,
				"y": -0.7716639084,
				"z": -3.3200453367,
				"element": "C" 
			},
			{
				"x": -2.0615446702,
				"y": -1.9097586112,
				"z": -2.6972753449,
				"element": "C" 
			},
			{
				"x": -0.9755693987,
				"y": -1.4109646149,
				"z": -1.8838388467,
				"element": "O" 
			},
			{
				"x": -1.2785980122,
				"y": -1.0904306413,
				"z": -0.6031122251,
				"element": "C" 
			},
			{
				"x": -2.3947260222,
				"y": -1.2106710868,
				"z": -0.1278165883,
				"element": "O" 
			},
			{
				"x": -0.1028793217,
				"y": -0.5851719209,
				"z": 0.1483155714,
				"element": "C" 
			},
			{
				"x": 1.1692096707,
				"y": -0.4549269925,
				"z": -0.4224063538,
				"element": "C" 
			},
			{
				"x": 2.2338583715,
				"y": 0.0266101046,
				"z": 0.3374137154,
				"element": "C" 
			},
			{
				"x": 2.0375557675,
				"y": 0.381286076,
				"z": 1.6715543536,
				"element": "C" 
			},
			{
				"x": 3.0722701637,
				"y": 0.8501916481,
				"z": 2.4131912781,
				"element": "O" 
			},
			{
				"x": 0.7562489716,
				"y": 0.2496587259,
				"z": 2.2451143261,
				"element": "C" 
			},
			{
				"x": 0.6772786383,
				"y": 0.6281686025,
				"z": 3.5657039367,
				"element": "O" 
			},
			{
				"x": -0.3024163295,
				"y": -0.2274523567,
				"z": 1.4930297288,
				"element": "C" 
			},
			{
				"x": -3.6224145378,
				"y": -1.1761514926,
				"z": -3.9906618552,
				"element": "H" 
			},
			{
				"x": -3.3549745726,
				"y": -0.1844063016,
				"z": -2.544985909,
				"element": "H" 
			},
			{
				"x": -2.2046916657,
				"y": -0.1124922153,
				"z": -3.9007729953,
				"element": "H" 
			},
			{
				"x": -2.7018484341,
				"y": -2.5446333475,
				"z": -2.0803480146,
				"element": "H" 
			},
			{
				"x": -1.5714616616,
				"y": -2.5195954935,
				"z": -3.4603468827,
				"element": "H" 
			},
			{
				"x": 1.3208378598,
				"y": -0.7306436034,
				"z": -1.4588836494,
				"element": "H" 
			},
			{
				"x": 3.226869251,
				"y": 0.1351320617,
				"z": -0.0856454973,
				"element": "H" 
			},
			{
				"x": 2.7345366856,
				"y": 1.037216886,
				"z": 3.3026788701,
				"element": "H" 
			},
			{
				"x": -0.2249536144,
				"y": 0.5093040818,
				"z": 3.8871485681,
				"element": "H" 
			},
			{
				"x": -1.2962222509,
				"y": -0.3352056001,
				"z": 1.9187891508,
				"element": "H" 
			}
		],
		 "valence_orbital": [ 
			{
				"type": "occ",
				"energy": -0.32738,
				"method": "rhf"
			},
			{
				"type": "occ",
				"energy": -0.29282,
				"method": "rhf"
			},
			{
				"type": "occ",
				"energy": -0.26792,
				"method": "rhf"
			},
			{
				"type": "occ",
				"energy": -0.24685,
				"method": "rhf"
			},
			{
				"type": "occ",
				"energy": -0.2189,
				"method": "rhf"
			},
			{
				"type": "unocc",
				"energy": -0.03418,
				"method": "rhf"
			},
			{
				"type": "unocc",
				"energy": 0.00194,
				"method": "rhf"
			},
			{
				"type": "unocc",
				"energy": 0.04992,
				"method": "rhf"
			},
			{
				"type": "unocc",
				"energy": 0.07341,
				"method": "rhf"
			},
			{
				"type": "unocc",
				"energy": 0.09673,
				"method": "rhf"
			}
		],
		"cosmo_sigma_profile": { 
			"-0.025": 0.0,
			"-0.024": 0.0,
			"-0.023": 0.0,
			"-0.022": 0.0,
			"-0.021": 0.0,
			"-0.02": 0.0,
			"-0.019": 0.391569210711,
			"-0.018": 1.05035625383,
			"-0.017": 1.39516053948,
			"-0.016": 0.852469190375,
			"-0.015": 1.36540811869,
			"-0.014": 1.41923422625,
			"-0.013": 1.02238173827,
			"-0.012": 1.63170133217,
			"-0.011": 1.79816641732,
			"-0.01": 1.94882377788,
			"-0.009": 2.07998289377,
			"-0.008": 1.11521487542,
			"-0.007": 2.00128378553,
			"-0.006": 5.70557732909,
			"-0.005": 10.192218725,
			"-0.004": 14.3175834765,
			"-0.003": 16.8709566179,
			"-0.002": 14.7240286499,
			"-0.001": 17.272247962,
			"0.0": 17.123557699,
			"0.001": 17.5216112414,
			"0.002": 17.3479814972,
			"0.003": 17.5442183341,
			"0.004": 15.5470185499,
			"0.005": 7.04369209076,
			"0.006": 6.16437593411,
			"0.007": 4.38896757166,
			"0.008": 3.00791805502,
			"0.009": 3.11215173087,
			"0.01": 2.97422800413,
			"0.011": 3.98530951627,
			"0.012": 3.76152937047,
			"0.013": 1.13566352006,
			"0.014": 0.0,
			"0.015": 0.0,
			"0.016": 0.0,
			"0.017": 0.0,
			"0.018": 0.0,
			"0.019": 0.0,
			"0.02": 0.0,
			"0.021": 0.0,
			"0.022": 0.0,
			"0.023": 0.0,
			"0.024": 0.0,
			"0.025": 0.0
		}
	}
}
