{
	 "smiles": "NC1=NN=C(CC2=CSC=C2)S1", 
	 "Tm": 451.15, 
	 "num_atms": 19, 
	 "gaussian": { 
		 "optdone": 1, 
		 "sigma_profile": "yes", 
		 "theory": "DFT", 
		 "functional": "B3LYP", 
		 "basiset": "6-31G**", 
		 "properties": { 
			 "R2extent": 3271.5861, 
			 "electric_dipole_moment_norm": 2.86700773979, 
			 "electric_quadrupole_moment_norm": 13.8289089266, 
			 "total_energy": -1231.55034255, 
			 "HOMO_LUMO_gap": 0.20738, 
			 "cosmo_polarized_energy": -15.44, 
			 "cosmo_cavitation_energy": 27.18, 
			 "cosmo_dispersion_energy": -20.61, 
			 "cosmo_repulsion_energy": 1.57, 
			 "cosmo_total_nonelectrostatic_energy": 8.15, 
			 "SMD_solvation_energy": 2.41 
		},
		"coords": [
			{
				"x": -3.9580676318,
				"y": 1.6561973638,
				"z": -1.6225708441,
				"element": "N" 
			},
			{
				"x": -2.9473912954,
				"y": 0.7867782446,
				"z": -1.2874105014,
				"element": "C" 
			},
			{
				"x": -3.1594096943,
				"y": -0.4026161501,
				"z": -0.7914667105,
				"element": "N" 
			},
			{
				"x": -2.0005769095,
				"y": -1.1147653456,
				"z": -0.6219873586,
				"element": "N" 
			},
			{
				"x": -0.9263398915,
				"y": -0.477709094,
				"z": -0.9678272516,
				"element": "C" 
			},
			{
				"x": 0.4610858899,
				"y": -1.0451336503,
				"z": -0.8483242536,
				"element": "C" 
			},
			{
				"x": 1.3352292318,
				"y": -0.3173422298,
				"z": 0.1494586058,
				"element": "C" 
			},
			{
				"x": 2.5175981017,
				"y": 0.300163612,
				"z": -0.1627197536,
				"element": "C" 
			},
			{
				"x": 3.2621563967,
				"y": 1.0231249796,
				"z": 1.2270310624,
				"element": "S" 
			},
			{
				"x": 1.963090694,
				"y": 0.492433703,
				"z": 2.248974313,
				"element": "C" 
			},
			{
				"x": 1.0203852655,
				"y": -0.1997587152,
				"z": 1.544852323,
				"element": "C" 
			},
			{
				"x": -1.250606381,
				"y": 1.1534421918,
				"z": -1.5876027004,
				"element": "S" 
			},
			{
				"x": -4.8548590246,
				"y": 1.3682070398,
				"z": -1.2509983355,
				"element": "H" 
			},
			{
				"x": -3.767771631,
				"y": 2.6417699433,
				"z": -1.5107047105,
				"element": "H" 
			},
			{
				"x": 0.9489330867,
				"y": -1.0498175537,
				"z": -1.8294812379,
				"element": "H" 
			},
			{
				"x": 0.3265179182,
				"y": -2.0904692985,
				"z": -0.5490520244,
				"element": "H" 
			},
			{
				"x": 2.9970522903,
				"y": 0.3661853248,
				"z": -1.1300888614,
				"element": "H" 
			},
			{
				"x": 1.9765128481,
				"y": 0.7229850407,
				"z": 3.3051566426,
				"element": "H" 
			},
			{
				"x": 0.1241607363,
				"y": -0.6185754064,
				"z": 1.9892615968,
				"element": "H" 
			}
		],
		 "valence_orbital": [ 
			{
				"type": "occ",
				"energy": -0.28614,
				"method": "rhf"
			},
			{
				"type": "occ",
				"energy": -0.2576,
				"method": "rhf"
			},
			{
				"type": "occ",
				"energy": -0.24905,
				"method": "rhf"
			},
			{
				"type": "occ",
				"energy": -0.23706,
				"method": "rhf"
			},
			{
				"type": "occ",
				"energy": -0.23019,
				"method": "rhf"
			},
			{
				"type": "unocc",
				"energy": -0.02281,
				"method": "rhf"
			},
			{
				"type": "unocc",
				"energy": -0.00847,
				"method": "rhf"
			},
			{
				"type": "unocc",
				"energy": 0.00049,
				"method": "rhf"
			},
			{
				"type": "unocc",
				"energy": 0.03104,
				"method": "rhf"
			},
			{
				"type": "unocc",
				"energy": 0.04536,
				"method": "rhf"
			}
		],
		"cosmo_sigma_profile": { 
			"-0.025": 0.0,
			"-0.024": 0.0,
			"-0.023": 0.0,
			"-0.022": 0.0,
			"-0.021": 0.0,
			"-0.02": 0.0,
			"-0.019": 0.0,
			"-0.018": 0.0,
			"-0.017": 0.0,
			"-0.016": 0.0723128712877,
			"-0.015": 0.985185725082,
			"-0.014": 2.29404805655,
			"-0.013": 2.8237433506,
			"-0.012": 2.18021272162,
			"-0.011": 3.38097324817,
			"-0.01": 2.05767106907,
			"-0.009": 1.84928309376,
			"-0.008": 5.4545830646,
			"-0.007": 9.03215286804,
			"-0.006": 11.1197759536,
			"-0.005": 10.2195606085,
			"-0.004": 10.6878517252,
			"-0.003": 12.4583750166,
			"-0.002": 11.8712899098,
			"-0.001": 13.0549532734,
			"0.0": 15.5197177074,
			"0.001": 16.3569463552,
			"0.002": 17.1450061596,
			"0.003": 15.2638216435,
			"0.004": 17.7763110891,
			"0.005": 11.7703215413,
			"0.006": 3.8411358496,
			"0.007": 3.30767990713,
			"0.008": 2.53464890834,
			"0.009": 1.64585587988,
			"0.01": 3.33751410871,
			"0.011": 2.82858140929,
			"0.012": 3.00607224459,
			"0.013": 3.10408168649,
			"0.014": 2.76198509702,
			"0.015": 1.81607760577,
			"0.016": 0.44930928324,
			"0.017": 0.0,
			"0.018": 0.0,
			"0.019": 0.0,
			"0.02": 0.0,
			"0.021": 0.0,
			"0.022": 0.0,
			"0.023": 0.0,
			"0.024": 0.0,
			"0.025": 0.0
		}
	}
}
