{
	 "smiles": "CC(NC(=O)C1=C(N)C=CC(F)=C1)C1=CC=C(C=C1)C#N", 
	 "Tm": 413.15, 
	 "num_atms": 35, 
	 "gaussian": { 
		 "optdone": 1, 
		 "sigma_profile": "yes", 
		 "theory": "DFT", 
		 "functional": "B3LYP", 
		 "basiset": "6-31G**", 
		 "properties": { 
			 "R2extent": 7173.5563, 
			 "electric_dipole_moment_norm": 3.61786338051, 
			 "electric_quadrupole_moment_norm": 38.7257325405, 
			 "total_energy": -957.461546527, 
			 "HOMO_LUMO_gap": 0.15312, 
			 "cosmo_polarized_energy": -18.62, 
			 "cosmo_cavitation_energy": 40.72, 
			 "cosmo_dispersion_energy": -27.02, 
			 "cosmo_repulsion_energy": 2.06, 
			 "cosmo_total_nonelectrostatic_energy": 15.77, 
			 "SMD_solvation_energy": 8.56 
		},
		"coords": [
			{
				"x": -2.372930467,
				"y": 2.0254447909,
				"z": -1.3749303698,
				"element": "C" 
			},
			{
				"x": -1.348106608,
				"y": 1.0081263799,
				"z": -0.8439178208,
				"element": "C" 
			},
			{
				"x": -0.1841381598,
				"y": 1.7462431065,
				"z": -0.3419876192,
				"element": "N" 
			},
			{
				"x": 0.8333814919,
				"y": 1.2374890494,
				"z": 0.450804135,
				"element": "C" 
			},
			{
				"x": 1.9993451457,
				"y": 1.5796573798,
				"z": 0.2242374913,
				"element": "O" 
			},
			{
				"x": 0.4747027341,
				"y": 0.343503099,
				"z": 1.5854384942,
				"element": "C" 
			},
			{
				"x": 1.3990231189,
				"y": -0.642951087,
				"z": 2.0301233691,
				"element": "C" 
			},
			{
				"x": 2.608309643,
				"y": -0.8365408216,
				"z": 1.3971999156,
				"element": "N" 
			},
			{
				"x": 1.0206541878,
				"y": -1.4684059227,
				"z": 3.1113207213,
				"element": "C" 
			},
			{
				"x": -0.1905768566,
				"y": -1.300936598,
				"z": 3.7668753476,
				"element": "C" 
			},
			{
				"x": -1.0558414089,
				"y": -0.2924309955,
				"z": 3.3479633274,
				"element": "C" 
			},
			{
				"x": -2.2220172353,
				"y": -0.1007637416,
				"z": 4.0084583654,
				"element": "F" 
			},
			{
				"x": -0.7380373979,
				"y": 0.5200089963,
				"z": 2.2765812857,
				"element": "C" 
			},
			{
				"x": -1.0051222157,
				"y": -0.0403312617,
				"z": -1.9071202233,
				"element": "C" 
			},
			{
				"x": 0.2388577397,
				"y": -0.0871898065,
				"z": -2.5478440271,
				"element": "C" 
			},
			{
				"x": 0.4998755417,
				"y": -1.0390208408,
				"z": -3.5316054197,
				"element": "C" 
			},
			{
				"x": -0.4863357417,
				"y": -1.9699139324,
				"z": -3.8897610194,
				"element": "C" 
			},
			{
				"x": -1.7345812708,
				"y": -1.9392048541,
				"z": -3.2433405044,
				"element": "C" 
			},
			{
				"x": -1.9810429619,
				"y": -0.9838765229,
				"z": -2.2655742079,
				"element": "C" 
			},
			{
				"x": -0.221982501,
				"y": -2.951508557,
				"z": -4.9009893988,
				"element": "C" 
			},
			{
				"x": -0.0096252721,
				"y": -3.7472595712,
				"z": -5.7226797675,
				"element": "N" 
			},
			{
				"x": -3.2726286434,
				"y": 1.5220030118,
				"z": -1.7368120937,
				"element": "H" 
			},
			{
				"x": -1.9531901436,
				"y": 2.5951587861,
				"z": -2.2115281443,
				"element": "H" 
			},
			{
				"x": -2.6552683416,
				"y": 2.7264803981,
				"z": -0.5846210058,
				"element": "H" 
			},
			{
				"x": -1.7959791423,
				"y": 0.4781793926,
				"z": -0.0003918882,
				"element": "H" 
			},
			{
				"x": 0.2102088342,
				"y": 2.3957055657,
				"z": -1.0158225835,
				"element": "H" 
			},
			{
				"x": 3.2938027624,
				"y": -1.3762845149,
				"z": 1.9034460344,
				"element": "H" 
			},
			{
				"x": 2.9619652983,
				"y": -0.0223257231,
				"z": 0.9089113985,
				"element": "H" 
			},
			{
				"x": 1.7073521238,
				"y": -2.2420806328,
				"z": 3.444070642,
				"element": "H" 
			},
			{
				"x": -0.465288237,
				"y": -1.9287485998,
				"z": 4.6079618711,
				"element": "H" 
			},
			{
				"x": -1.4152199026,
				"y": 1.3199666585,
				"z": 1.9997481657,
				"element": "H" 
			},
			{
				"x": 1.025003571,
				"y": 0.6052444228,
				"z": -2.2666246157,
				"element": "H" 
			},
			{
				"x": 1.4678860257,
				"y": -1.0682934895,
				"z": -4.0205238332,
				"element": "H" 
			},
			{
				"x": -2.4951988192,
				"y": -2.6656718146,
				"z": -3.5092372233,
				"element": "H" 
			},
			{
				"x": -2.9466568917,
				"y": -0.9751717496,
				"z": -1.7663287987,
				"element": "H" 
			}
		],
		 "valence_orbital": [ 
			{
				"type": "occ",
				"energy": -0.2774,
				"method": "rhf"
			},
			{
				"type": "occ",
				"energy": -0.26882,
				"method": "rhf"
			},
			{
				"type": "occ",
				"energy": -0.26118,
				"method": "rhf"
			},
			{
				"type": "occ",
				"energy": -0.25881,
				"method": "rhf"
			},
			{
				"type": "occ",
				"energy": -0.20779,
				"method": "rhf"
			},
			{
				"type": "unocc",
				"energy": -0.05467,
				"method": "rhf"
			},
			{
				"type": "unocc",
				"energy": -0.04827,
				"method": "rhf"
			},
			{
				"type": "unocc",
				"energy": -0.02709,
				"method": "rhf"
			},
			{
				"type": "unocc",
				"energy": 0.00329,
				"method": "rhf"
			},
			{
				"type": "unocc",
				"energy": 0.03667,
				"method": "rhf"
			}
		],
		"cosmo_sigma_profile": { 
			"-0.025": 0.0,
			"-0.024": 0.0,
			"-0.023": 0.0,
			"-0.022": 0.0,
			"-0.021": 0.0,
			"-0.02": 0.0,
			"-0.019": 0.0,
			"-0.018": 0.0,
			"-0.017": 0.0,
			"-0.016": 0.0,
			"-0.015": 0.0,
			"-0.014": 0.0,
			"-0.013": 0.99250106678,
			"-0.012": 2.49612409328,
			"-0.011": 2.79566868156,
			"-0.01": 3.3251949891,
			"-0.009": 2.66434684068,
			"-0.008": 6.71535592557,
			"-0.007": 16.737584959,
			"-0.006": 17.9426479585,
			"-0.005": 18.89089985,
			"-0.004": 17.6976678169,
			"-0.003": 17.1098742134,
			"-0.002": 19.7376239475,
			"-0.001": 25.4079038488,
			"0.0": 24.0058356725,
			"0.001": 22.7235345599,
			"0.002": 27.7513609401,
			"0.003": 26.2074916929,
			"0.004": 17.9240925328,
			"0.005": 14.2408067307,
			"0.006": 4.61547333271,
			"0.007": 5.2880821176,
			"0.008": 4.91376013538,
			"0.009": 5.33660247423,
			"0.01": 5.36354574012,
			"0.011": 5.24034433227,
			"0.012": 5.59467286476,
			"0.013": 3.84903707677,
			"0.014": 0.444813701188,
			"0.015": 0.0,
			"0.016": 0.0,
			"0.017": 0.0,
			"0.018": 0.0,
			"0.019": 0.0,
			"0.02": 0.0,
			"0.021": 0.0,
			"0.022": 0.0,
			"0.023": 0.0,
			"0.024": 0.0,
			"0.025": 0.0
		}
	}
}
