{
	 "smiles": "SCC(=O)NC1=CC=C2C=CC=CC2=C1", 
	 "Tm": 385.15, 
	 "num_atms": 26, 
	 "gaussian": { 
		 "optdone": 1, 
		 "sigma_profile": "yes", 
		 "theory": "DFT", 
		 "functional": "B3LYP", 
		 "basiset": "6-31G**", 
		 "properties": { 
			 "R2extent": 4514.5429, 
			 "electric_dipole_moment_norm": 4.31825788253, 
			 "electric_quadrupole_moment_norm": 15.6613069554, 
			 "total_energy": -992.086614723, 
			 "HOMO_LUMO_gap": 0.16816, 
			 "cosmo_polarized_energy": -14.95, 
			 "cosmo_cavitation_energy": 31.5, 
			 "cosmo_dispersion_energy": -23.09, 
			 "cosmo_repulsion_energy": 1.74, 
			 "cosmo_total_nonelectrostatic_energy": 10.15, 
			 "SMD_solvation_energy": 5.06 
		},
		"coords": [
			{
				"x": -1.0806278449,
				"y": -3.294869928,
				"z": 2.447924877,
				"element": "S" 
			},
			{
				"x": -0.1588653757,
				"y": -1.777621403,
				"z": 2.9546796834,
				"element": "C" 
			},
			{
				"x": -1.0763077604,
				"y": -0.6463747214,
				"z": 3.3923574719,
				"element": "C" 
			},
			{
				"x": -1.604054618,
				"y": -0.633380407,
				"z": 4.4928909497,
				"element": "O" 
			},
			{
				"x": -1.3002533389,
				"y": 0.4031410303,
				"z": 2.5140033705,
				"element": "N" 
			},
			{
				"x": -0.7701858502,
				"y": 0.7445451403,
				"z": 1.2479915103,
				"element": "C" 
			},
			{
				"x": -0.5247260561,
				"y": 2.1284062759,
				"z": 1.0094112893,
				"element": "C" 
			},
			{
				"x": -0.0370142595,
				"y": 2.5584347738,
				"z": -0.1991105004,
				"element": "C" 
			},
			{
				"x": 0.2514512164,
				"y": 1.6397120535,
				"z": -1.2441787725,
				"element": "C" 
			},
			{
				"x": 0.7677863019,
				"y": 2.0504614728,
				"z": -2.500908929,
				"element": "C" 
			},
			{
				"x": 1.0255659512,
				"y": 1.128574378,
				"z": -3.4911480267,
				"element": "C" 
			},
			{
				"x": 0.7750688357,
				"y": -0.2470493313,
				"z": -3.2649621493,
				"element": "C" 
			},
			{
				"x": 0.2753545551,
				"y": -0.6766993822,
				"z": -2.0557614529,
				"element": "C" 
			},
			{
				"x": 0.0023739813,
				"y": 0.2489526329,
				"z": -1.0120312673,
				"element": "C" 
			},
			{
				"x": -0.5277578929,
				"y": -0.1683151005,
				"z": 0.2382828522,
				"element": "C" 
			},
			{
				"x": -1.9257547618,
				"y": -2.7001300602,
				"z": 1.5819196961,
				"element": "H" 
			},
			{
				"x": 0.5432416899,
				"y": -1.4807384511,
				"z": 2.1755039106,
				"element": "H" 
			},
			{
				"x": 0.396278884,
				"y": -2.0875803209,
				"z": 3.8414912766,
				"element": "H" 
			},
			{
				"x": -1.841407457,
				"y": 1.1284018284,
				"z": 2.9707353343,
				"element": "H" 
			},
			{
				"x": -0.7188594334,
				"y": 2.8408083547,
				"z": 1.8067717437,
				"element": "H" 
			},
			{
				"x": 0.1443718617,
				"y": 3.617189793,
				"z": -0.3640553061,
				"element": "H" 
			},
			{
				"x": 0.9563523355,
				"y": 3.1077596332,
				"z": -2.6688043603,
				"element": "H" 
			},
			{
				"x": 1.4209632087,
				"y": 1.4527712837,
				"z": -4.4491608555,
				"element": "H" 
			},
			{
				"x": 0.9806368816,
				"y": -0.9659980783,
				"z": -4.0526967776,
				"element": "H" 
			},
			{
				"x": 0.0853027907,
				"y": -1.7328366659,
				"z": -1.8831407828,
				"element": "H" 
			},
			{
				"x": -0.7544338451,
				"y": -1.2201648007,
				"z": 0.3700952148,
				"element": "H" 
			}
		],
		 "valence_orbital": [ 
			{
				"type": "occ",
				"energy": -0.28457,
				"method": "rhf"
			},
			{
				"type": "occ",
				"energy": -0.26846,
				"method": "rhf"
			},
			{
				"type": "occ",
				"energy": -0.24409,
				"method": "rhf"
			},
			{
				"type": "occ",
				"energy": -0.24187,
				"method": "rhf"
			},
			{
				"type": "occ",
				"energy": -0.21911,
				"method": "rhf"
			},
			{
				"type": "unocc",
				"energy": -0.05095,
				"method": "rhf"
			},
			{
				"type": "unocc",
				"energy": -0.02678,
				"method": "rhf"
			},
			{
				"type": "unocc",
				"energy": -0.00314,
				"method": "rhf"
			},
			{
				"type": "unocc",
				"energy": 0.01858,
				"method": "rhf"
			},
			{
				"type": "unocc",
				"energy": 0.02884,
				"method": "rhf"
			}
		],
		"cosmo_sigma_profile": { 
			"-0.025": 0.0,
			"-0.024": 0.0,
			"-0.023": 0.0,
			"-0.022": 0.0,
			"-0.021": 0.0,
			"-0.02": 0.0,
			"-0.019": 0.0,
			"-0.018": 0.0,
			"-0.017": 0.0,
			"-0.016": 0.0,
			"-0.015": 0.0832669341151,
			"-0.014": 0.844463526364,
			"-0.013": 1.59615770382,
			"-0.012": 0.757355221261,
			"-0.011": 1.61532184607,
			"-0.01": 2.7117152228,
			"-0.009": 4.6229233362,
			"-0.008": 5.23385087425,
			"-0.007": 6.15720962615,
			"-0.006": 16.6658301542,
			"-0.005": 20.0198709713,
			"-0.004": 21.0204089458,
			"-0.003": 15.9906050209,
			"-0.002": 12.0878937382,
			"-0.001": 13.2767089623,
			"0.0": 12.6424633103,
			"0.001": 13.4073254287,
			"0.002": 15.2381508556,
			"0.003": 20.4452766874,
			"0.004": 24.7616734496,
			"0.005": 13.7900060382,
			"0.006": 4.65664139964,
			"0.007": 3.63969347221,
			"0.008": 2.70390516377,
			"0.009": 4.6519233099,
			"0.01": 2.8893748377,
			"0.011": 2.17191936264,
			"0.012": 3.15973956215,
			"0.013": 5.70666852659,
			"0.014": 1.79346055164,
			"0.015": 0.0202898621826,
			"0.016": 0.0,
			"0.017": 0.0,
			"0.018": 0.0,
			"0.019": 0.0,
			"0.02": 0.0,
			"0.021": 0.0,
			"0.022": 0.0,
			"0.023": 0.0,
			"0.024": 0.0,
			"0.025": 0.0
		}
	}
}
