{
	 "smiles": "COC(=O)C1=CC=C(CO)C=C1", 
	 "Tm": 320.65, 
	 "num_atms": 22, 
	 "gaussian": { 
		 "optdone": 1, 
		 "sigma_profile": "yes", 
		 "theory": "DFT", 
		 "functional": "B3LYP", 
		 "basiset": "6-31G**", 
		 "properties": { 
			 "R2extent": 3520.4885, 
			 "electric_dipole_moment_norm": 1.15143163062, 
			 "electric_quadrupole_moment_norm": 14.3816299382, 
			 "total_energy": -574.658595616, 
			 "HOMO_LUMO_gap": 0.20597, 
			 "cosmo_polarized_energy": -11.2, 
			 "cosmo_cavitation_energy": 26.37, 
			 "cosmo_dispersion_energy": -19.39, 
			 "cosmo_repulsion_energy": 1.56, 
			 "cosmo_total_nonelectrostatic_energy": 8.55, 
			 "SMD_solvation_energy": 6.17 
		},
		"coords": [
			{
				"x": 0.7136250712,
				"y": 0.3546951504,
				"z": 5.459718794,
				"element": "C" 
			},
			{
				"x": 0.1344911652,
				"y": 0.5532225332,
				"z": 4.1617498098,
				"element": "O" 
			},
			{
				"x": 0.5612495892,
				"y": -0.3033815322,
				"z": 3.2040501989,
				"element": "C" 
			},
			{
				"x": 1.3745952708,
				"y": -1.1820819398,
				"z": 3.4176928497,
				"element": "O" 
			},
			{
				"x": -0.0738249513,
				"y": -0.0434320713,
				"z": 1.8825030694,
				"element": "C" 
			},
			{
				"x": -1.0095873667,
				"y": 0.9805658304,
				"z": 1.6815637167,
				"element": "C" 
			},
			{
				"x": -1.5711570061,
				"y": 1.1757758457,
				"z": 0.4219566513,
				"element": "C" 
			},
			{
				"x": -1.2131340586,
				"y": 0.3542362113,
				"z": -0.6544679823,
				"element": "C" 
			},
			{
				"x": -1.8052806115,
				"y": 0.5895356488,
				"z": -2.0315930135,
				"element": "C" 
			},
			{
				"x": -3.083690048,
				"y": 1.2047017908,
				"z": -2.0117347742,
				"element": "O" 
			},
			{
				"x": -0.2818056465,
				"y": -0.6721076836,
				"z": -0.4455616872,
				"element": "C" 
			},
			{
				"x": 0.2873077362,
				"y": -0.8683182032,
				"z": 0.8083040057,
				"element": "C" 
			},
			{
				"x": 0.4842041553,
				"y": -0.645658098,
				"z": 5.835636852,
				"element": "H" 
			},
			{
				"x": 0.2685499742,
				"y": 1.1160299513,
				"z": 6.1004075417,
				"element": "H" 
			},
			{
				"x": 1.7994346388,
				"y": 0.4732588014,
				"z": 5.4198737186,
				"element": "H" 
			},
			{
				"x": -1.2901696873,
				"y": 1.6185395582,
				"z": 2.5119137208,
				"element": "H" 
			},
			{
				"x": -2.2965428349,
				"y": 1.9664645702,
				"z": 0.258913937,
				"element": "H" 
			},
			{
				"x": -1.8186852032,
				"y": -0.3583284826,
				"z": -2.5925862823,
				"element": "H" 
			},
			{
				"x": -1.163997805,
				"y": 1.2780262325,
				"z": -2.5955492696,
				"element": "H" 
			},
			{
				"x": -3.6813710578,
				"y": 0.6205295042,
				"z": -1.5259867915,
				"element": "H" 
			},
			{
				"x": -0.004395491,
				"y": -1.3236789587,
				"z": -1.2709766171,
				"element": "H" 
			},
			{
				"x": 1.0078841674,
				"y": -1.6603946591,
				"z": 0.9820715522,
				"element": "H" 
			}
		],
		 "valence_orbital": [ 
			{
				"type": "occ",
				"energy": -0.30051,
				"method": "rhf"
			},
			{
				"type": "occ",
				"energy": -0.28462,
				"method": "rhf"
			},
			{
				"type": "occ",
				"energy": -0.27212,
				"method": "rhf"
			},
			{
				"type": "occ",
				"energy": -0.25938,
				"method": "rhf"
			},
			{
				"type": "occ",
				"energy": -0.25151,
				"method": "rhf"
			},
			{
				"type": "unocc",
				"energy": -0.04554,
				"method": "rhf"
			},
			{
				"type": "unocc",
				"energy": -0.00951,
				"method": "rhf"
			},
			{
				"type": "unocc",
				"energy": 0.05316,
				"method": "rhf"
			},
			{
				"type": "unocc",
				"energy": 0.08067,
				"method": "rhf"
			},
			{
				"type": "unocc",
				"energy": 0.10173,
				"method": "rhf"
			}
		],
		"cosmo_sigma_profile": { 
			"-0.025": 0.0,
			"-0.024": 0.0,
			"-0.023": 0.0,
			"-0.022": 0.0,
			"-0.021": 0.0,
			"-0.02": 0.0,
			"-0.019": 0.0,
			"-0.018": 0.0,
			"-0.017": 0.0,
			"-0.016": 0.417066849282,
			"-0.015": 1.09005690909,
			"-0.014": 1.07481274521,
			"-0.013": 0.541116183225,
			"-0.012": 0.776445588699,
			"-0.011": 0.630936419153,
			"-0.01": 0.84374717777,
			"-0.009": 0.945317107722,
			"-0.008": 1.07627184076,
			"-0.007": 1.99459299208,
			"-0.006": 11.5912266155,
			"-0.005": 18.9461052703,
			"-0.004": 20.0972313513,
			"-0.003": 19.2733821704,
			"-0.002": 15.8847126603,
			"-0.001": 11.9638076971,
			"0.0": 11.820604167,
			"0.001": 13.9287008832,
			"0.002": 13.4028129649,
			"0.003": 15.3952693922,
			"0.004": 14.4605512282,
			"0.005": 4.55880589969,
			"0.006": 4.15429350005,
			"0.007": 2.33754232803,
			"0.008": 2.81070294312,
			"0.009": 3.20353374533,
			"0.01": 2.2278964439,
			"0.011": 3.90697242516,
			"0.012": 6.28273277996,
			"0.013": 2.239078049,
			"0.014": 1.32631076142,
			"0.015": 0.0,
			"0.016": 0.0,
			"0.017": 0.0,
			"0.018": 0.0,
			"0.019": 0.0,
			"0.02": 0.0,
			"0.021": 0.0,
			"0.022": 0.0,
			"0.023": 0.0,
			"0.024": 0.0,
			"0.025": 0.0
		}
	}
}
