{
	 "smiles": "ClC1=C(Cl)C2(Cl)C3COS(=O)OCC3C1(Cl)C2(Cl)Cl", 
	 "Tm": 382.15, 
	 "num_atms": 25, 
	 "gaussian": { 
		 "optdone": 1, 
		 "sigma_profile": "yes", 
		 "theory": "DFT", 
		 "functional": "B3LYP", 
		 "basiset": "6-31G**", 
		 "properties": { 
			 "R2extent": 7297.2216, 
			 "electric_dipole_moment_norm": 1.38491770875, 
			 "electric_quadrupole_moment_norm": 12.5044573445, 
			 "total_energy": -3731.44922866, 
			 "HOMO_LUMO_gap": 0.21613, 
			 "cosmo_polarized_energy": -10.73, 
			 "cosmo_cavitation_energy": 37.34, 
			 "cosmo_dispersion_energy": -27.07, 
			 "cosmo_repulsion_energy": 1.99, 
			 "cosmo_total_nonelectrostatic_energy": 12.26, 
			 "SMD_solvation_energy": 3.03 
		},
		"coords": [
			{
				"x": 0.8393881317,
				"y": -3.0946915563,
				"z": 1.6014396878,
				"element": "Cl" 
			},
			{
				"x": 1.1338779228,
				"y": -1.717976141,
				"z": 0.6228112533,
				"element": "C" 
			},
			{
				"x": 1.7272226819,
				"y": -0.5680388023,
				"z": 0.9766731754,
				"element": "C" 
			},
			{
				"x": 2.3395111037,
				"y": -0.1209995855,
				"z": 2.5100592483,
				"element": "Cl" 
			},
			{
				"x": 1.624272483,
				"y": 0.387034988,
				"z": -0.2218911488,
				"element": "C" 
			},
			{
				"x": 2.726873591,
				"y": 1.7787567801,
				"z": -0.21274416,
				"element": "Cl" 
			},
			{
				"x": 0.0907421672,
				"y": 0.7337062658,
				"z": -0.2756238463,
				"element": "C" 
			},
			{
				"x": -0.4121986188,
				"y": 1.9808090341,
				"z": -1.0280870317,
				"element": "C" 
			},
			{
				"x": -1.742503237,
				"y": 1.7141721485,
				"z": -1.5485439676,
				"element": "O" 
			},
			{
				"x": -3.0288237548,
				"y": 1.5093471407,
				"z": -0.5003432581,
				"element": "S" 
			},
			{
				"x": -3.0333448167,
				"y": 2.591776908,
				"z": 0.4880047949,
				"element": "O" 
			},
			{
				"x": -2.4574831748,
				"y": 0.2117372148,
				"z": 0.4387040303,
				"element": "O" 
			},
			{
				"x": -1.8485500474,
				"y": -0.9418418892,
				"z": -0.1727800282,
				"element": "C" 
			},
			{
				"x": -0.5293426437,
				"y": -0.5643429637,
				"z": -0.8764058092,
				"element": "C" 
			},
			{
				"x": 0.6597304261,
				"y": -1.5684919799,
				"z": -0.8260107292,
				"element": "C" 
			},
			{
				"x": 0.3693914134,
				"y": -3.0840676032,
				"z": -1.7097304872,
				"element": "Cl" 
			},
			{
				"x": 1.8244491347,
				"y": -0.6557000759,
				"z": -1.372243577,
				"element": "C" 
			},
			{
				"x": 1.5505060857,
				"y": 0.0014742005,
				"z": -3.0211685791,
				"element": "Cl" 
			},
			{
				"x": 3.4315422224,
				"y": -1.4467678283,
				"z": -1.3770683883,
				"element": "Cl" 
			},
			{
				"x": -0.2341733709,
				"y": 0.8388458699,
				"z": 0.7601966985,
				"element": "H" 
			},
			{
				"x": -0.4428196279,
				"y": 2.853963545,
				"z": -0.372194503,
				"element": "H" 
			},
			{
				"x": 0.1803582484,
				"y": 2.2134249095,
				"z": -1.9123006955,
				"element": "H" 
			},
			{
				"x": -2.5377124813,
				"y": -1.4248689094,
				"z": -0.8739391059,
				"element": "H" 
			},
			{
				"x": -1.6856678693,
				"y": -1.6224626637,
				"z": 0.6667402909,
				"element": "H" 
			},
			{
				"x": -0.7445459692,
				"y": -0.3938990066,
				"z": -1.9302538643,
				"element": "H" 
			}
		],
		 "valence_orbital": [ 
			{
				"type": "occ",
				"energy": -0.32211,
				"method": "rhf"
			},
			{
				"type": "occ",
				"energy": -0.32109,
				"method": "rhf"
			},
			{
				"type": "occ",
				"energy": -0.31333,
				"method": "rhf"
			},
			{
				"type": "occ",
				"energy": -0.2896,
				"method": "rhf"
			},
			{
				"type": "occ",
				"energy": -0.26983,
				"method": "rhf"
			},
			{
				"type": "unocc",
				"energy": -0.0537,
				"method": "rhf"
			},
			{
				"type": "unocc",
				"energy": -0.04927,
				"method": "rhf"
			},
			{
				"type": "unocc",
				"energy": -0.02021,
				"method": "rhf"
			},
			{
				"type": "unocc",
				"energy": -0.01452,
				"method": "rhf"
			},
			{
				"type": "unocc",
				"energy": -0.00313,
				"method": "rhf"
			}
		],
		"cosmo_sigma_profile": { 
			"-0.025": 0.0,
			"-0.024": 0.0,
			"-0.023": 0.0,
			"-0.022": 0.0,
			"-0.021": 0.0,
			"-0.02": 0.0,
			"-0.019": 0.0,
			"-0.018": 0.0,
			"-0.017": 0.0,
			"-0.016": 0.0,
			"-0.015": 0.0,
			"-0.014": 0.0,
			"-0.013": 0.0,
			"-0.012": 0.0,
			"-0.011": 0.0,
			"-0.01": 0.00396767991783,
			"-0.009": 1.07293820909,
			"-0.008": 5.60771982611,
			"-0.007": 9.96445130871,
			"-0.006": 12.4903416588,
			"-0.005": 14.4010623869,
			"-0.004": 20.9942798499,
			"-0.003": 22.8509732823,
			"-0.002": 21.9168737466,
			"-0.001": 24.0356355478,
			"0.0": 26.8387057536,
			"0.001": 32.121477825,
			"0.002": 44.380255302,
			"0.003": 37.2644751674,
			"0.004": 11.585924106,
			"0.005": 2.81561422573,
			"0.006": 2.65410361308,
			"0.007": 2.29143978979,
			"0.008": 4.08239953443,
			"0.009": 3.49474710564,
			"0.01": 6.90469163365,
			"0.011": 3.7188874907,
			"0.012": 0.0,
			"0.013": 0.0,
			"0.014": 0.0,
			"0.015": 0.0,
			"0.016": 0.0,
			"0.017": 0.0,
			"0.018": 0.0,
			"0.019": 0.0,
			"0.02": 0.0,
			"0.021": 0.0,
			"0.022": 0.0,
			"0.023": 0.0,
			"0.024": 0.0,
			"0.025": 0.0
		}
	}
}
