{
	 "smiles": "N#CC1COCCN1", 
	 "Tm": 350.15, 
	 "num_atms": 16, 
	 "gaussian": { 
		 "optdone": 1, 
		 "sigma_profile": "yes", 
		 "theory": "DFT", 
		 "functional": "B3LYP", 
		 "basiset": "6-31G**", 
		 "properties": { 
			 "R2extent": 1280.7774, 
			 "electric_dipole_moment_norm": 3.65037545192, 
			 "electric_quadrupole_moment_norm": 16.0743479697, 
			 "total_energy": -380.03517268, 
			 "HOMO_LUMO_gap": 0.27973, 
			 "cosmo_polarized_energy": -12.36, 
			 "cosmo_cavitation_energy": 19.1, 
			 "cosmo_dispersion_energy": -14.14, 
			 "cosmo_repulsion_energy": 1.19, 
			 "cosmo_total_nonelectrostatic_energy": 6.15, 
			 "SMD_solvation_energy": 2.33 
		},
		"coords": [
			{
				"x": 3.0296136038,
				"y": -2.0706733469,
				"z": -1.9285956097,
				"element": "N" 
			},
			{
				"x": 2.1215141463,
				"y": -1.9019297878,
				"z": -1.2244549881,
				"element": "C" 
			},
			{
				"x": 1.0099689582,
				"y": -1.6559361958,
				"z": -0.2687214923,
				"element": "C" 
			},
			{
				"x": -0.3318375522,
				"y": -1.4679714534,
				"z": -1.0065397181,
				"element": "C" 
			},
			{
				"x": -0.3490906522,
				"y": -0.2649206587,
				"z": -1.7458205123,
				"element": "O" 
			},
			{
				"x": -0.1381912485,
				"y": 0.8690053374,
				"z": -0.9068843067,
				"element": "C" 
			},
			{
				"x": 1.2062384072,
				"y": 0.7701347825,
				"z": -0.1920424541,
				"element": "C" 
			},
			{
				"x": 1.2294335196,
				"y": -0.4816022342,
				"z": 0.578993584,
				"element": "N" 
			},
			{
				"x": 0.9311852238,
				"y": -2.5415946134,
				"z": 0.3737348142,
				"element": "H" 
			},
			{
				"x": -1.1260741663,
				"y": -1.4746127397,
				"z": -0.2435959101,
				"element": "H" 
			},
			{
				"x": -0.5036982449,
				"y": -2.282219591,
				"z": -1.7146401687,
				"element": "H" 
			},
			{
				"x": -0.1722773915,
				"y": 1.745339247,
				"z": -1.5591622169,
				"element": "H" 
			},
			{
				"x": -0.9477770245,
				"y": 0.9435514375,
				"z": -0.1637028605,
				"element": "H" 
			},
			{
				"x": 1.3208614813,
				"y": 1.6077817965,
				"z": 0.5038704234,
				"element": "H" 
			},
			{
				"x": 2.0163838753,
				"y": 0.8282388384,
				"z": -0.9373259082,
				"element": "H" 
			},
			{
				"x": 2.1041470645,
				"y": -0.5734908184,
				"z": 1.087487324,
				"element": "H" 
			}
		],
		 "valence_orbital": [ 
			{
				"type": "occ",
				"energy": -0.3361,
				"method": "rhf"
			},
			{
				"type": "occ",
				"energy": -0.33217,
				"method": "rhf"
			},
			{
				"type": "occ",
				"energy": -0.31515,
				"method": "rhf"
			},
			{
				"type": "occ",
				"energy": -0.27194,
				"method": "rhf"
			},
			{
				"type": "occ",
				"energy": -0.25279,
				"method": "rhf"
			},
			{
				"type": "unocc",
				"energy": 0.02694,
				"method": "rhf"
			},
			{
				"type": "unocc",
				"energy": 0.03249,
				"method": "rhf"
			},
			{
				"type": "unocc",
				"energy": 0.07004,
				"method": "rhf"
			},
			{
				"type": "unocc",
				"energy": 0.1088,
				"method": "rhf"
			},
			{
				"type": "unocc",
				"energy": 0.11429,
				"method": "rhf"
			}
		],
		"cosmo_sigma_profile": { 
			"-0.025": 0.0,
			"-0.024": 0.0,
			"-0.023": 0.0,
			"-0.022": 0.0,
			"-0.021": 0.0,
			"-0.02": 0.0,
			"-0.019": 0.0,
			"-0.018": 0.0,
			"-0.017": 0.0,
			"-0.016": 0.0,
			"-0.015": 0.0,
			"-0.014": 0.0,
			"-0.013": 0.0532748846425,
			"-0.012": 1.22738387854,
			"-0.011": 1.72176371748,
			"-0.01": 1.80337736092,
			"-0.009": 4.05362920621,
			"-0.008": 5.80417690266,
			"-0.007": 5.61881010849,
			"-0.006": 8.1240115657,
			"-0.005": 13.7347692544,
			"-0.004": 14.8199039627,
			"-0.003": 14.8518562366,
			"-0.002": 10.1003153851,
			"-0.001": 6.28852547322,
			"0.0": 5.07756027163,
			"0.001": 3.30368565928,
			"0.002": 3.81703501651,
			"0.003": 3.23134588552,
			"0.004": 4.89507102152,
			"0.005": 3.46611650917,
			"0.006": 5.60002057346,
			"0.007": 4.32259579677,
			"0.008": 4.80225969089,
			"0.009": 4.9266993794,
			"0.01": 5.14996690968,
			"0.011": 5.18001590472,
			"0.012": 4.07546606155,
			"0.013": 2.92868307081,
			"0.014": 0.954912049172,
			"0.015": 0.375079522103,
			"0.016": 0.0117834050341,
			"0.017": 0.0,
			"0.018": 0.0,
			"0.019": 0.0,
			"0.02": 0.0,
			"0.021": 0.0,
			"0.022": 0.0,
			"0.023": 0.0,
			"0.024": 0.0,
			"0.025": 0.0
		}
	}
}
