{
	 "smiles": "CC1=CC=C(C=C1)S(=O)(=O)N1C=C(C=O)C2=CC=CC=C12", 
	 "Tm": 412.15, 
	 "num_atms": 34, 
	 "gaussian": { 
		 "optdone": 1, 
		 "sigma_profile": "yes", 
		 "theory": "DFT", 
		 "functional": "B3LYP", 
		 "basiset": "6-31G**", 
		 "properties": { 
			 "R2extent": 7688.0646, 
			 "electric_dipole_moment_norm": 6.19952195173, 
			 "electric_quadrupole_moment_norm": 24.4820503853, 
			 "total_energy": -1296.07624533, 
			 "HOMO_LUMO_gap": 0.16511, 
			 "cosmo_polarized_energy": -15.63, 
			 "cosmo_cavitation_energy": 40.15, 
			 "cosmo_dispersion_energy": -28.14, 
			 "cosmo_repulsion_energy": 2.09, 
			 "cosmo_total_nonelectrostatic_energy": 14.1, 
			 "SMD_solvation_energy": 7.07 
		},
		"coords": [
			{
				"x": 0.7485856437,
				"y": -4.1506004535,
				"z": 2.93566707,
				"element": "C" 
			},
			{
				"x": 0.4741469156,
				"y": -2.8210843978,
				"z": 2.2772191475,
				"element": "C" 
			},
			{
				"x": -0.6015913696,
				"y": -2.0227733719,
				"z": 2.6959198311,
				"element": "C" 
			},
			{
				"x": -0.8823702881,
				"y": -0.8083963131,
				"z": 2.0765125788,
				"element": "C" 
			},
			{
				"x": -0.071326715,
				"y": -0.3857134708,
				"z": 1.0200325149,
				"element": "C" 
			},
			{
				"x": 1.0150332647,
				"y": -1.1499464782,
				"z": 0.5895861839,
				"element": "C" 
			},
			{
				"x": 1.277647899,
				"y": -2.3622468513,
				"z": 1.2234980377,
				"element": "C" 
			},
			{
				"x": -0.4315426556,
				"y": 1.1665401509,
				"z": 0.2154710526,
				"element": "S" 
			},
			{
				"x": -1.1931087015,
				"y": 2.0088602204,
				"z": 1.1333975354,
				"element": "O" 
			},
			{
				"x": 0.7635605686,
				"y": 1.63001629,
				"z": -0.4805154263,
				"element": "O" 
			},
			{
				"x": -1.5666051875,
				"y": 0.7432109773,
				"z": -1.018383411,
				"element": "N" 
			},
			{
				"x": -2.9339251232,
				"y": 0.7449010619,
				"z": -0.8017904497,
				"element": "C" 
			},
			{
				"x": -3.5702081191,
				"y": 0.1463563208,
				"z": -1.8623750349,
				"element": "C" 
			},
			{
				"x": -5.0141625423,
				"y": -0.0038125176,
				"z": -1.9847558221,
				"element": "C" 
			},
			{
				"x": -5.5770390572,
				"y": -0.5497309971,
				"z": -2.9207289913,
				"element": "O" 
			},
			{
				"x": -2.544558329,
				"y": -0.2761640193,
				"z": -2.7966241067,
				"element": "C" 
			},
			{
				"x": -2.589885309,
				"y": -0.9250462632,
				"z": -4.038311503,
				"element": "C" 
			},
			{
				"x": -1.3908366565,
				"y": -1.1785961344,
				"z": -4.6952972832,
				"element": "C" 
			},
			{
				"x": -0.1598263857,
				"y": -0.7843413255,
				"z": -4.1398712303,
				"element": "C" 
			},
			{
				"x": -0.0888655798,
				"y": -0.130865726,
				"z": -2.9118050594,
				"element": "C" 
			},
			{
				"x": -1.2961754706,
				"y": 0.1047419682,
				"z": -2.2505841207,
				"element": "C" 
			},
			{
				"x": 1.8060878543,
				"y": -4.4203893665,
				"z": 2.86853731,
				"element": "H" 
			},
			{
				"x": 0.1752125808,
				"y": -4.9496891668,
				"z": 2.44971716,
				"element": "H" 
			},
			{
				"x": 0.4631110222,
				"y": -4.1411522061,
				"z": 3.9913990823,
				"element": "H" 
			},
			{
				"x": -1.2229672773,
				"y": -2.3534015533,
				"z": 3.5235827014,
				"element": "H" 
			},
			{
				"x": -1.7013360016,
				"y": -0.1850752193,
				"z": 2.4179968508,
				"element": "H" 
			},
			{
				"x": 1.6517761951,
				"y": -0.7908476847,
				"z": -0.2104252232,
				"element": "H" 
			},
			{
				"x": 2.1254560576,
				"y": -2.9585705287,
				"z": 0.898093928,
				"element": "H" 
			},
			{
				"x": -3.335944954,
				"y": 1.2012354627,
				"z": 0.0907848699,
				"element": "H" 
			},
			{
				"x": -5.5988488887,
				"y": 0.4219300012,
				"z": -1.1390943918,
				"element": "H" 
			},
			{
				"x": -3.5476799656,
				"y": -1.2108093998,
				"z": -4.4569633425,
				"element": "H" 
			},
			{
				"x": -1.4026198225,
				"y": -1.6808584283,
				"z": -5.6580083323,
				"element": "H" 
			},
			{
				"x": 0.7586965397,
				"y": -0.9823159108,
				"z": -4.6843122836,
				"element": "H" 
			},
			{
				"x": 0.8556098581,
				"y": 0.2057353304,
				"z": -2.5031698424,
				"element": "H" 
			}
		],
		 "valence_orbital": [ 
			{
				"type": "occ",
				"energy": -0.28401,
				"method": "rhf"
			},
			{
				"type": "occ",
				"energy": -0.27678,
				"method": "rhf"
			},
			{
				"type": "occ",
				"energy": -0.24969,
				"method": "rhf"
			},
			{
				"type": "occ",
				"energy": -0.24276,
				"method": "rhf"
			},
			{
				"type": "occ",
				"energy": -0.22864,
				"method": "rhf"
			},
			{
				"type": "unocc",
				"energy": -0.06353,
				"method": "rhf"
			},
			{
				"type": "unocc",
				"energy": -0.04466,
				"method": "rhf"
			},
			{
				"type": "unocc",
				"energy": -0.03458,
				"method": "rhf"
			},
			{
				"type": "unocc",
				"energy": -0.01274,
				"method": "rhf"
			},
			{
				"type": "unocc",
				"energy": 0.00334,
				"method": "rhf"
			}
		],
		"cosmo_sigma_profile": { 
			"-0.025": 0.0,
			"-0.024": 0.0,
			"-0.023": 0.0,
			"-0.022": 0.0,
			"-0.021": 0.0,
			"-0.02": 0.0,
			"-0.019": 0.0,
			"-0.018": 0.0,
			"-0.017": 0.0,
			"-0.016": 0.0,
			"-0.015": 0.0,
			"-0.014": 0.0,
			"-0.013": 0.0,
			"-0.012": 0.0,
			"-0.011": 0.116121424057,
			"-0.01": 1.47554060295,
			"-0.009": 1.75595643584,
			"-0.008": 2.92499963797,
			"-0.007": 9.60524464058,
			"-0.006": 20.0559619393,
			"-0.005": 25.4361558574,
			"-0.004": 24.1747517294,
			"-0.003": 23.3441434771,
			"-0.002": 24.5533898005,
			"-0.001": 27.3522109483,
			"0.0": 25.1585014818,
			"0.001": 23.7147791378,
			"0.002": 27.372205752,
			"0.003": 20.8731042808,
			"0.004": 14.2782824548,
			"0.005": 10.4169618434,
			"0.006": 5.47182277561,
			"0.007": 4.65586475149,
			"0.008": 6.51190115276,
			"0.009": 8.39745551498,
			"0.01": 7.30935867315,
			"0.011": 3.43418171101,
			"0.012": 2.86268418699,
			"0.013": 1.49408153692,
			"0.014": 0.160433363163,
			"0.015": 0.0,
			"0.016": 0.0,
			"0.017": 0.0,
			"0.018": 0.0,
			"0.019": 0.0,
			"0.02": 0.0,
			"0.021": 0.0,
			"0.022": 0.0,
			"0.023": 0.0,
			"0.024": 0.0,
			"0.025": 0.0
		}
	}
}
