{
	 "smiles": "CSC1=NC2=C(C=CC=C2)C(=O)N1C1=CC=CC=C1", 
	 "Tm": 397.15, 
	 "num_atms": 31, 
	 "gaussian": { 
		 "optdone": 1, 
		 "sigma_profile": "yes", 
		 "theory": "DFT", 
		 "functional": "B3LYP", 
		 "basiset": "6-31G**", 
		 "properties": { 
			 "R2extent": 5511.8591, 
			 "electric_dipole_moment_norm": 2.27868713956, 
			 "electric_quadrupole_moment_norm": 10.9208171956, 
			 "total_energy": -1161.76879952, 
			 "HOMO_LUMO_gap": 0.17882, 
			 "cosmo_polarized_energy": -12.36, 
			 "cosmo_cavitation_energy": 36.75, 
			 "cosmo_dispersion_energy": -26.29, 
			 "cosmo_repulsion_energy": 1.98, 
			 "cosmo_total_nonelectrostatic_energy": 12.43, 
			 "SMD_solvation_energy": 6.15 
		},
		"coords": [
			{
				"x": -2.8999778117,
				"y": -1.8842027301,
				"z": 1.0245429049,
				"element": "C" 
			},
			{
				"x": -1.1492291854,
				"y": -1.5208903782,
				"z": 1.3835596408,
				"element": "S" 
			},
			{
				"x": -0.8092337765,
				"y": -0.3777954328,
				"z": 0.0584461326,
				"element": "C" 
			},
			{
				"x": -1.7392921545,
				"y": -0.0699618746,
				"z": -0.7838237881,
				"element": "N" 
			},
			{
				"x": -1.4350222732,
				"y": 0.8221367109,
				"z": -1.7994405279,
				"element": "C" 
			},
			{
				"x": -0.1516234052,
				"y": 1.3950083438,
				"z": -1.9353259557,
				"element": "C" 
			},
			{
				"x": 0.1207763179,
				"y": 2.2958732551,
				"z": -2.9773830381,
				"element": "C" 
			},
			{
				"x": -0.8753492537,
				"y": 2.6285539798,
				"z": -3.8825204121,
				"element": "C" 
			},
			{
				"x": -2.156023665,
				"y": 2.0608410526,
				"z": -3.752185178,
				"element": "C" 
			},
			{
				"x": -2.4367494344,
				"y": 1.1701178586,
				"z": -2.7273372529,
				"element": "C" 
			},
			{
				"x": 0.9023684416,
				"y": 1.044230058,
				"z": -0.9794597919,
				"element": "C" 
			},
			{
				"x": 2.0460072466,
				"y": 1.4712734096,
				"z": -0.9931852227,
				"element": "O" 
			},
			{
				"x": 0.4875984892,
				"y": 0.1224378339,
				"z": 0.0240013666,
				"element": "N" 
			},
			{
				"x": 1.4746002097,
				"y": -0.2711075396,
				"z": 1.0038619628,
				"element": "C" 
			},
			{
				"x": 2.2892492531,
				"y": -1.3773080449,
				"z": 0.7566878082,
				"element": "C" 
			},
			{
				"x": 3.2465887562,
				"y": -1.7488426695,
				"z": 1.7001813191,
				"element": "C" 
			},
			{
				"x": 3.3898126657,
				"y": -1.0143765685,
				"z": 2.8790926187,
				"element": "C" 
			},
			{
				"x": 2.5763395435,
				"y": 0.0956237203,
				"z": 3.1157934584,
				"element": "C" 
			},
			{
				"x": 1.6170099615,
				"y": 0.4725715274,
				"z": 2.1765165181,
				"element": "C" 
			},
			{
				"x": -3.0037842263,
				"y": -2.3312812106,
				"z": 0.0361681767,
				"element": "H" 
			},
			{
				"x": -3.2117366484,
				"y": -2.5912418267,
				"z": 1.7965648747,
				"element": "H" 
			},
			{
				"x": -3.4988115597,
				"y": -0.975324872,
				"z": 1.0780926543,
				"element": "H" 
			},
			{
				"x": 1.1198328147,
				"y": 2.7133790378,
				"z": -3.0462012706,
				"element": "H" 
			},
			{
				"x": -0.6697448423,
				"y": 3.3246413713,
				"z": -4.6898382262,
				"element": "H" 
			},
			{
				"x": -2.934840972,
				"y": 2.3231907053,
				"z": -4.4628825339,
				"element": "H" 
			},
			{
				"x": -3.4191257766,
				"y": 0.723803199,
				"z": -2.6132959069,
				"element": "H" 
			},
			{
				"x": 2.1696044202,
				"y": -1.9343210496,
				"z": -0.1667943811,
				"element": "H" 
			},
			{
				"x": 3.8815481267,
				"y": -2.6092567037,
				"z": 1.5121998722,
				"element": "H" 
			},
			{
				"x": 4.1370020848,
				"y": -1.3051005553,
				"z": 3.6116424772,
				"element": "H" 
			},
			{
				"x": 2.6896351549,
				"y": 0.6708077731,
				"z": 4.0296567504,
				"element": "H" 
			},
			{
				"x": 0.9811714984,
				"y": 1.3359216197,
				"z": 2.3430649504,
				"element": "H" 
			}
		],
		 "valence_orbital": [ 
			{
				"type": "occ",
				"energy": -0.26112,
				"method": "rhf"
			},
			{
				"type": "occ",
				"energy": -0.25796,
				"method": "rhf"
			},
			{
				"type": "occ",
				"energy": -0.25523,
				"method": "rhf"
			},
			{
				"type": "occ",
				"energy": -0.2542,
				"method": "rhf"
			},
			{
				"type": "occ",
				"energy": -0.21797,
				"method": "rhf"
			},
			{
				"type": "unocc",
				"energy": -0.03915,
				"method": "rhf"
			},
			{
				"type": "unocc",
				"energy": -0.02955,
				"method": "rhf"
			},
			{
				"type": "unocc",
				"energy": -0.01906,
				"method": "rhf"
			},
			{
				"type": "unocc",
				"energy": -0.00994,
				"method": "rhf"
			},
			{
				"type": "unocc",
				"energy": 0.03234,
				"method": "rhf"
			}
		],
		"cosmo_sigma_profile": { 
			"-0.025": 0.0,
			"-0.024": 0.0,
			"-0.023": 0.0,
			"-0.022": 0.0,
			"-0.021": 0.0,
			"-0.02": 0.0,
			"-0.019": 0.0,
			"-0.018": 0.0,
			"-0.017": 0.0,
			"-0.016": 0.0,
			"-0.015": 0.0,
			"-0.014": 0.0,
			"-0.013": 0.0,
			"-0.012": 0.0,
			"-0.011": 0.0,
			"-0.01": 0.0,
			"-0.009": 0.0,
			"-0.008": 0.43111345362,
			"-0.007": 9.17281959236,
			"-0.006": 21.9724221456,
			"-0.005": 26.8922608363,
			"-0.004": 26.3192762797,
			"-0.003": 20.5928312761,
			"-0.002": 23.511544834,
			"-0.001": 16.5546356367,
			"0.0": 16.0372364013,
			"0.001": 21.332486403,
			"0.002": 22.2688472619,
			"0.003": 24.6299066414,
			"0.004": 26.1514549509,
			"0.005": 10.5648912248,
			"0.006": 7.55629996006,
			"0.007": 4.37041457345,
			"0.008": 3.29814400232,
			"0.009": 2.76815578105,
			"0.01": 2.37647844475,
			"0.011": 2.36852351178,
			"0.012": 4.41213969721,
			"0.013": 3.16657546306,
			"0.014": 0.0422261994979,
			"0.015": 0.0,
			"0.016": 0.0,
			"0.017": 0.0,
			"0.018": 0.0,
			"0.019": 0.0,
			"0.02": 0.0,
			"0.021": 0.0,
			"0.022": 0.0,
			"0.023": 0.0,
			"0.024": 0.0,
			"0.025": 0.0
		}
	}
}
