{
	 "smiles": "CCCCC1=CC=C(NC(C)=O)C=C1", 
	 "Tm": 381.15, 
	 "num_atms": 31, 
	 "gaussian": { 
		 "optdone": 1, 
		 "sigma_profile": "yes", 
		 "theory": "DFT", 
		 "functional": "B3LYP", 
		 "basiset": "6-31G**", 
		 "properties": { 
			 "R2extent": 4768.1508, 
			 "electric_dipole_moment_norm": 3.18003760512, 
			 "electric_quadrupole_moment_norm": 19.6771879586, 
			 "total_energy": -597.534894962, 
			 "HOMO_LUMO_gap": 0.20232, 
			 "cosmo_polarized_energy": -12.12, 
			 "cosmo_cavitation_energy": 33.26, 
			 "cosmo_dispersion_energy": -23.58, 
			 "cosmo_repulsion_energy": 1.89, 
			 "cosmo_total_nonelectrostatic_energy": 11.56, 
			 "SMD_solvation_energy": 6.08 
		},
		"coords": [
			{
				"x": -1.8318042068,
				"y": 3.2591729968,
				"z": -1.0238981575,
				"element": "C" 
			},
			{
				"x": -3.2209534395,
				"y": 2.7656205925,
				"z": -1.4480471123,
				"element": "C" 
			},
			{
				"x": -3.9135821812,
				"y": 1.7931166732,
				"z": -0.4759184805,
				"element": "C" 
			},
			{
				"x": -3.3843893511,
				"y": 0.3400581295,
				"z": -0.4618419633,
				"element": "C" 
			},
			{
				"x": -2.0361781765,
				"y": 0.114394194,
				"z": 0.1935467159,
				"element": "C" 
			},
			{
				"x": -0.9388458369,
				"y": -0.3633794339,
				"z": -0.5333944117,
				"element": "C" 
			},
			{
				"x": 0.2934966267,
				"y": -0.5833190675,
				"z": 0.0766778049,
				"element": "C" 
			},
			{
				"x": 0.4661857672,
				"y": -0.3341292276,
				"z": 1.4457013499,
				"element": "C" 
			},
			{
				"x": 1.7429846519,
				"y": -0.5794133539,
				"z": 1.9975008053,
				"element": "N" 
			},
			{
				"x": 2.171350272,
				"y": -0.4172441985,
				"z": 3.2967062302,
				"element": "C" 
			},
			{
				"x": 3.6330079504,
				"y": -0.778709663,
				"z": 3.5277961873,
				"element": "C" 
			},
			{
				"x": 1.463071913,
				"y": -0.0171254431,
				"z": 4.2099428701,
				"element": "O" 
			},
			{
				"x": -0.6240757329,
				"y": 0.1363881721,
				"z": 2.1946986962,
				"element": "C" 
			},
			{
				"x": -1.8473443523,
				"y": 0.3491645917,
				"z": 1.562743893,
				"element": "C" 
			},
			{
				"x": -1.8692266324,
				"y": 3.7330706208,
				"z": -0.0363103663,
				"element": "H" 
			},
			{
				"x": -1.4526425869,
				"y": 4.0026640043,
				"z": -1.7337275232,
				"element": "H" 
			},
			{
				"x": -1.1040357948,
				"y": 2.4462837693,
				"z": -0.9691886211,
				"element": "H" 
			},
			{
				"x": -3.8754892911,
				"y": 3.638131419,
				"z": -1.5736261503,
				"element": "H" 
			},
			{
				"x": -3.159045032,
				"y": 2.2954977039,
				"z": -2.4397745554,
				"element": "H" 
			},
			{
				"x": -3.8776215673,
				"y": 2.205942514,
				"z": 0.5413216095,
				"element": "H" 
			},
			{
				"x": -4.9771353618,
				"y": 1.7451770394,
				"z": -0.7432879292,
				"element": "H" 
			},
			{
				"x": -3.3509109079,
				"y": -0.0333687242,
				"z": -1.4932690133,
				"element": "H" 
			},
			{
				"x": -4.128869413,
				"y": -0.2784340202,
				"z": 0.0578296309,
				"element": "H" 
			},
			{
				"x": -1.0467628316,
				"y": -0.5669907436,
				"z": -1.5959451121,
				"element": "H" 
			},
			{
				"x": 1.1284690257,
				"y": -0.9537224176,
				"z": -0.5150037637,
				"element": "H" 
			},
			{
				"x": 2.4303201104,
				"y": -0.9177715277,
				"z": 1.3404104679,
				"element": "H" 
			},
			{
				"x": 3.6827982225,
				"y": -1.5444317928,
				"z": 4.3065346632,
				"element": "H" 
			},
			{
				"x": 4.1545033363,
				"y": 0.1044414609,
				"z": 3.9071302497,
				"element": "H" 
			},
			{
				"x": 4.1551373687,
				"y": -1.1429093478,
				"z": 2.6384751675,
				"element": "H" 
			},
			{
				"x": -0.4989895361,
				"y": 0.3231422312,
				"z": 3.2516984589,
				"element": "H" 
			},
			{
				"x": -2.6814230129,
				"y": 0.7068828487,
				"z": 2.1620183596,
				"element": "H" 
			}
		],
		 "valence_orbital": [ 
			{
				"type": "occ",
				"energy": -0.31367,
				"method": "rhf"
			},
			{
				"type": "occ",
				"energy": -0.2911,
				"method": "rhf"
			},
			{
				"type": "occ",
				"energy": -0.24988,
				"method": "rhf"
			},
			{
				"type": "occ",
				"energy": -0.24743,
				"method": "rhf"
			},
			{
				"type": "occ",
				"energy": -0.21141,
				"method": "rhf"
			},
			{
				"type": "unocc",
				"energy": -0.00909,
				"method": "rhf"
			},
			{
				"type": "unocc",
				"energy": 0.00058,
				"method": "rhf"
			},
			{
				"type": "unocc",
				"energy": 0.0475,
				"method": "rhf"
			},
			{
				"type": "unocc",
				"energy": 0.06476,
				"method": "rhf"
			},
			{
				"type": "unocc",
				"energy": 0.09222,
				"method": "rhf"
			}
		],
		"cosmo_sigma_profile": { 
			"-0.025": 0.0,
			"-0.024": 0.0,
			"-0.023": 0.0,
			"-0.022": 0.0,
			"-0.021": 0.0,
			"-0.02": 0.0,
			"-0.019": 0.0,
			"-0.018": 0.0,
			"-0.017": 0.0,
			"-0.016": 0.0353271223396,
			"-0.015": 0.753911746954,
			"-0.014": 1.44166882156,
			"-0.013": 1.29332147204,
			"-0.012": 1.30927944145,
			"-0.011": 1.55588177837,
			"-0.01": 1.80668752031,
			"-0.009": 1.790457378,
			"-0.008": 1.31370747299,
			"-0.007": 2.19697637567,
			"-0.006": 5.09313563147,
			"-0.005": 10.0748215655,
			"-0.004": 13.1628173912,
			"-0.003": 21.185365026,
			"-0.002": 31.5732469599,
			"-0.001": 31.7894232418,
			"0.0": 28.8077079951,
			"0.001": 27.6680767537,
			"0.002": 19.953392682,
			"0.003": 11.1739845557,
			"0.004": 11.7321034805,
			"0.005": 11.3949432188,
			"0.006": 6.77758660764,
			"0.007": 2.19958524397,
			"0.008": 1.89917432384,
			"0.009": 1.24193929504,
			"0.01": 1.51060364404,
			"0.011": 1.71442433703,
			"0.012": 2.31259928325,
			"0.013": 3.23619346229,
			"0.014": 2.33710340394,
			"0.015": 0.502056075693,
			"0.016": 0.0,
			"0.017": 0.0,
			"0.018": 0.0,
			"0.019": 0.0,
			"0.02": 0.0,
			"0.021": 0.0,
			"0.022": 0.0,
			"0.023": 0.0,
			"0.024": 0.0,
			"0.025": 0.0
		}
	}
}
