{
	 "smiles": "CNCC(=O)N(C)C1=NC=CC=C1", 
	 "Tm": 382.15, 
	 "num_atms": 26, 
	 "gaussian": { 
		 "optdone": 1, 
		 "sigma_profile": "yes", 
		 "theory": "DFT", 
		 "functional": "B3LYP", 
		 "basiset": "6-31G**", 
		 "properties": { 
			 "R2extent": 3787.7171, 
			 "electric_dipole_moment_norm": 5.34161093117, 
			 "electric_quadrupole_moment_norm": 17.5661683508, 
			 "total_energy": -590.264809917, 
			 "HOMO_LUMO_gap": 0.17052, 
			 "cosmo_polarized_energy": -12.76, 
			 "cosmo_cavitation_energy": 28.77, 
			 "cosmo_dispersion_energy": -20.68, 
			 "cosmo_repulsion_energy": 1.64, 
			 "cosmo_total_nonelectrostatic_energy": 9.73, 
			 "SMD_solvation_energy": 3.2 
		},
		"coords": [
			{
				"x": -0.9586962022,
				"y": 4.1568124399,
				"z": 1.011765026,
				"element": "C" 
			},
			{
				"x": -0.9551932861,
				"y": 2.8420585828,
				"z": 1.6406691465,
				"element": "N" 
			},
			{
				"x": 0.2759724679,
				"y": 2.5857378108,
				"z": 2.3811974269,
				"element": "C" 
			},
			{
				"x": 0.1412666598,
				"y": 1.335343342,
				"z": 3.2505276241,
				"element": "C" 
			},
			{
				"x": -0.2258540066,
				"y": 1.4286354259,
				"z": 4.4114866828,
				"element": "O" 
			},
			{
				"x": 0.4859321142,
				"y": 0.0716687988,
				"z": 2.7357732999,
				"element": "N" 
			},
			{
				"x": 0.4490205625,
				"y": -1.0375052226,
				"z": 3.6965429625,
				"element": "C" 
			},
			{
				"x": 0.942016224,
				"y": -0.2040795989,
				"z": 1.4309681214,
				"element": "C" 
			},
			{
				"x": 0.4285449143,
				"y": 0.5038479852,
				"z": 0.4159243538,
				"element": "N" 
			},
			{
				"x": 0.8435476153,
				"y": 0.2342047366,
				"z": -0.8275784018,
				"element": "C" 
			},
			{
				"x": 1.7576560256,
				"y": -0.7674259126,
				"z": -1.1396728587,
				"element": "C" 
			},
			{
				"x": 2.2852088719,
				"y": -1.5110649491,
				"z": -0.082271502,
				"element": "C" 
			},
			{
				"x": 1.8854089337,
				"y": -1.2295308863,
				"z": 1.2180290865,
				"element": "C" 
			},
			{
				"x": -0.9682214199,
				"y": 4.9367980317,
				"z": 1.7819739086,
				"element": "H" 
			},
			{
				"x": -1.8697234895,
				"y": 4.2703174048,
				"z": 0.4158847639,
				"element": "H" 
			},
			{
				"x": -0.0919957973,
				"y": 4.3533709353,
				"z": 0.3520106994,
				"element": "H" 
			},
			{
				"x": -1.016205477,
				"y": 2.1197492718,
				"z": 0.9264582209,
				"element": "H" 
			},
			{
				"x": 1.1761758996,
				"y": 2.5326841328,
				"z": 1.7441511054,
				"element": "H" 
			},
			{
				"x": 0.4194484933,
				"y": 3.3963358437,
				"z": 3.1015847021,
				"element": "H" 
			},
			{
				"x": 0.1593695295,
				"y": -1.9564548572,
				"z": 3.1834107812,
				"element": "H" 
			},
			{
				"x": 1.4182422363,
				"y": -1.1869432546,
				"z": 4.1879394963,
				"element": "H" 
			},
			{
				"x": -0.2826978811,
				"y": -0.7883617562,
				"z": 4.4623356123,
				"element": "H" 
			},
			{
				"x": 0.4044668292,
				"y": 0.8459706165,
				"z": -1.6133582205,
				"element": "H" 
			},
			{
				"x": 2.0437490737,
				"y": -0.9556258947,
				"z": -2.1686593257,
				"element": "H" 
			},
			{
				"x": 3.0119383572,
				"y": -2.2972061695,
				"z": -0.2658075779,
				"element": "H" 
			},
			{
				"x": 2.3064227516,
				"y": -1.7765368569,
				"z": 2.0526148662,
				"element": "H" 
			}
		],
		 "valence_orbital": [ 
			{
				"type": "occ",
				"energy": -0.29381,
				"method": "rhf"
			},
			{
				"type": "occ",
				"energy": -0.27741,
				"method": "rhf"
			},
			{
				"type": "occ",
				"energy": -0.25368,
				"method": "rhf"
			},
			{
				"type": "occ",
				"energy": -0.23261,
				"method": "rhf"
			},
			{
				"type": "occ",
				"energy": -0.20773,
				"method": "rhf"
			},
			{
				"type": "unocc",
				"energy": -0.03721,
				"method": "rhf"
			},
			{
				"type": "unocc",
				"energy": -0.02555,
				"method": "rhf"
			},
			{
				"type": "unocc",
				"energy": 0.02607,
				"method": "rhf"
			},
			{
				"type": "unocc",
				"energy": 0.0813,
				"method": "rhf"
			},
			{
				"type": "unocc",
				"energy": 0.10951,
				"method": "rhf"
			}
		],
		"cosmo_sigma_profile": { 
			"-0.025": 0.0,
			"-0.024": 0.0,
			"-0.023": 0.0,
			"-0.022": 0.0,
			"-0.021": 0.0,
			"-0.02": 0.0,
			"-0.019": 0.0,
			"-0.018": 0.0,
			"-0.017": 0.0,
			"-0.016": 0.0,
			"-0.015": 0.0,
			"-0.014": 0.0,
			"-0.013": 0.0,
			"-0.012": 0.0,
			"-0.011": 0.0,
			"-0.01": 0.0,
			"-0.009": 0.0,
			"-0.008": 0.480092183385,
			"-0.007": 7.02759312847,
			"-0.006": 11.7480232592,
			"-0.005": 15.5245872982,
			"-0.004": 19.9274702554,
			"-0.003": 23.9294162196,
			"-0.002": 23.9176543097,
			"-0.001": 23.2024578594,
			"0.0": 21.7903447832,
			"0.001": 15.4061090444,
			"0.002": 16.6251533178,
			"0.003": 12.3865857508,
			"0.004": 4.63763047597,
			"0.005": 2.94246099058,
			"0.006": 2.5246757447,
			"0.007": 2.36717895612,
			"0.008": 2.51681363521,
			"0.009": 1.8440729815,
			"0.01": 2.01126691809,
			"0.011": 3.0818241041,
			"0.012": 4.58421059565,
			"0.013": 4.68258518639,
			"0.014": 2.41459416345,
			"0.015": 0.469794471073,
			"0.016": 0.398603135391,
			"0.017": 0.637715426288,
			"0.018": 0.428004753929,
			"0.019": 0.0,
			"0.02": 0.0,
			"0.021": 0.0,
			"0.022": 0.0,
			"0.023": 0.0,
			"0.024": 0.0,
			"0.025": 0.0
		}
	}
}
