{
	 "smiles": "BrCCOC1=CC2=C(C=CC=C2)C=C1", 
	 "Tm": 368.15, 
	 "num_atms": 25, 
	 "gaussian": { 
		 "optdone": 1, 
		 "sigma_profile": "yes", 
		 "theory": "DFT", 
		 "functional": "B3LYP", 
		 "basiset": "6-31G**", 
		 "properties": { 
			 "R2extent": 8069.2067, 
			 "electric_dipole_moment_norm": 2.24424102761, 
			 "electric_quadrupole_moment_norm": 15.7548942259, 
			 "total_energy": -3110.54040786, 
			 "HOMO_LUMO_gap": 0.17426, 
			 "cosmo_polarized_energy": -9.89, 
			 "cosmo_cavitation_energy": 30.99, 
			 "cosmo_dispersion_energy": -23.14, 
			 "cosmo_repulsion_energy": 1.82, 
			 "cosmo_total_nonelectrostatic_energy": 9.67, 
			 "SMD_solvation_energy": 3.9 
		},
		"coords": [
			{
				"x": 5.8526656949,
				"y": -2.0661760181,
				"z": 0.5862309293,
				"element": "Br" 
			},
			{
				"x": 5.0778253182,
				"y": -0.2918475511,
				"z": 0.9722807532,
				"element": "C" 
			},
			{
				"x": 3.5655365616,
				"y": -0.3006763473,
				"z": 0.9302702289,
				"element": "C" 
			},
			{
				"x": 3.1549435613,
				"y": -0.508112101,
				"z": -0.4088157274,
				"element": "O" 
			},
			{
				"x": 1.8154207111,
				"y": -0.5676855257,
				"z": -0.6757248332,
				"element": "C" 
			},
			{
				"x": 0.8104899431,
				"y": -0.4040438536,
				"z": 0.2557325386,
				"element": "C" 
			},
			{
				"x": -0.5540576819,
				"y": -0.4828512474,
				"z": -0.1422731593,
				"element": "C" 
			},
			{
				"x": -0.876165176,
				"y": -0.7315452224,
				"z": -1.5149772898,
				"element": "C" 
			},
			{
				"x": -2.2386215831,
				"y": -0.8078331227,
				"z": -1.9033288996,
				"element": "C" 
			},
			{
				"x": -3.247711302,
				"y": -0.6458561846,
				"z": -0.9790039982,
				"element": "C" 
			},
			{
				"x": -2.9310013693,
				"y": -0.3998551522,
				"z": 0.378287782,
				"element": "C" 
			},
			{
				"x": -1.6170389745,
				"y": -0.3204779956,
				"z": 0.7861298464,
				"element": "C" 
			},
			{
				"x": 0.1917841745,
				"y": -0.8940265826,
				"z": -2.4422450256,
				"element": "C" 
			},
			{
				"x": 1.4999868271,
				"y": -0.8158620183,
				"z": -2.0402687575,
				"element": "C" 
			},
			{
				"x": 5.4341913913,
				"y": -0.0185369197,
				"z": 1.9649589805,
				"element": "H" 
			},
			{
				"x": 5.4896990782,
				"y": 0.3858351948,
				"z": 0.2254238258,
				"element": "H" 
			},
			{
				"x": 3.161442868,
				"y": -1.0796476298,
				"z": 1.5896798718,
				"element": "H" 
			},
			{
				"x": 3.2061703617,
				"y": 0.6763057227,
				"z": 1.2931764166,
				"element": "H" 
			},
			{
				"x": 1.0312648548,
				"y": -0.2139837575,
				"z": 1.3000989773,
				"element": "H" 
			},
			{
				"x": -2.4737424146,
				"y": -0.9974782154,
				"z": -2.9477893333,
				"element": "H" 
			},
			{
				"x": -4.2871223394,
				"y": -0.7064839338,
				"z": -1.2877755708,
				"element": "H" 
			},
			{
				"x": -3.7314433046,
				"y": -0.2734683258,
				"z": 1.1018198823,
				"element": "H" 
			},
			{
				"x": -1.3770616799,
				"y": -0.1319536129,
				"z": 1.8296487035,
				"element": "H" 
			},
			{
				"x": -0.0441684658,
				"y": -1.084805408,
				"z": -3.4859488652,
				"element": "H" 
			},
			{
				"x": 2.3211129455,
				"y": -0.9414341921,
				"z": -2.7381872765,
				"element": "H" 
			}
		],
		 "valence_orbital": [ 
			{
				"type": "occ",
				"energy": -0.28042,
				"method": "rhf"
			},
			{
				"type": "occ",
				"energy": -0.27601,
				"method": "rhf"
			},
			{
				"type": "occ",
				"energy": -0.273,
				"method": "rhf"
			},
			{
				"type": "occ",
				"energy": -0.22993,
				"method": "rhf"
			},
			{
				"type": "occ",
				"energy": -0.20867,
				"method": "rhf"
			},
			{
				"type": "unocc",
				"energy": -0.03441,
				"method": "rhf"
			},
			{
				"type": "unocc",
				"energy": -0.00423,
				"method": "rhf"
			},
			{
				"type": "unocc",
				"energy": -8e-05,
				"method": "rhf"
			},
			{
				"type": "unocc",
				"energy": 0.03433,
				"method": "rhf"
			},
			{
				"type": "unocc",
				"energy": 0.08905,
				"method": "rhf"
			}
		],
		"cosmo_sigma_profile": { 
			"-0.025": 0.0,
			"-0.024": 0.0,
			"-0.023": 0.0,
			"-0.022": 0.0,
			"-0.021": 0.0,
			"-0.02": 0.0,
			"-0.019": 0.0,
			"-0.018": 0.0,
			"-0.017": 0.0,
			"-0.016": 0.0,
			"-0.015": 0.0,
			"-0.014": 0.0,
			"-0.013": 0.0,
			"-0.012": 0.0,
			"-0.011": 0.0,
			"-0.01": 0.0,
			"-0.009": 0.215285624179,
			"-0.008": 3.74818497344,
			"-0.007": 9.83242239663,
			"-0.006": 22.4817733102,
			"-0.005": 21.3069214764,
			"-0.004": 17.4797743355,
			"-0.003": 15.8514168166,
			"-0.002": 12.0214413278,
			"-0.001": 13.2450289101,
			"0.0": 12.3420854012,
			"0.001": 11.3363248051,
			"0.002": 14.8954522901,
			"0.003": 18.1373858814,
			"0.004": 28.3654940896,
			"0.005": 24.0726334173,
			"0.006": 16.6724739297,
			"0.007": 4.12683037108,
			"0.008": 2.30993233771,
			"0.009": 1.83806559463,
			"0.01": 0.228314455275,
			"0.011": 0.0,
			"0.012": 0.0,
			"0.013": 0.0,
			"0.014": 0.0,
			"0.015": 0.0,
			"0.016": 0.0,
			"0.017": 0.0,
			"0.018": 0.0,
			"0.019": 0.0,
			"0.02": 0.0,
			"0.021": 0.0,
			"0.022": 0.0,
			"0.023": 0.0,
			"0.024": 0.0,
			"0.025": 0.0
		}
	}
}
