{
	 "smiles": "CC1=NN(C=C1C(O)=O)C1=NC(C)=CC(C)=N1", 
	 "Tm": 561.15, 
	 "num_atms": 29, 
	 "gaussian": { 
		 "optdone": 1, 
		 "sigma_profile": "yes", 
		 "theory": "DFT", 
		 "functional": "B3LYP", 
		 "basiset": "6-31G**", 
		 "properties": { 
			 "R2extent": 5405.9408, 
			 "electric_dipole_moment_norm": 5.20447172824, 
			 "electric_quadrupole_moment_norm": 7.41815415248, 
			 "total_energy": -795.881076765, 
			 "HOMO_LUMO_gap": 0.18971, 
			 "cosmo_polarized_energy": -16.78, 
			 "cosmo_cavitation_energy": 34.46, 
			 "cosmo_dispersion_energy": -24.84, 
			 "cosmo_repulsion_energy": 1.95, 
			 "cosmo_total_nonelectrostatic_energy": 11.58, 
			 "SMD_solvation_energy": 4.53 
		},
		"coords": [
			{
				"x": 3.795829413,
				"y": -0.2550316793,
				"z": 0.7681594979,
				"element": "C" 
			},
			{
				"x": 2.3927927963,
				"y": -0.6201219312,
				"z": 0.4040819416,
				"element": "C" 
			},
			{
				"x": 1.3694721232,
				"y": 0.0809047663,
				"z": 0.8617800854,
				"element": "N" 
			},
			{
				"x": 0.25655594,
				"y": -0.5241772519,
				"z": 0.3371819816,
				"element": "N" 
			},
			{
				"x": 0.5676072058,
				"y": -1.5953253964,
				"z": -0.4434708374,
				"element": "C" 
			},
			{
				"x": 1.9432808576,
				"y": -1.6984000588,
				"z": -0.4314065207,
				"element": "C" 
			},
			{
				"x": 2.7742345132,
				"y": -2.6858818434,
				"z": -1.1158380875,
				"element": "C" 
			},
			{
				"x": 2.0401413362,
				"y": -3.5810594693,
				"z": -1.8312829543,
				"element": "O" 
			},
			{
				"x": 3.9900156505,
				"y": -2.735318532,
				"z": -1.0727085034,
				"element": "O" 
			},
			{
				"x": -1.0465975437,
				"y": -0.0461940999,
				"z": 0.6102473062,
				"element": "C" 
			},
			{
				"x": -1.149618599,
				"y": 1.0178833462,
				"z": 1.3994225554,
				"element": "N" 
			},
			{
				"x": -2.3983702392,
				"y": 1.4482310742,
				"z": 1.6404383873,
				"element": "C" 
			},
			{
				"x": -2.5444688451,
				"y": 2.6529383833,
				"z": 2.5320681952,
				"element": "C" 
			},
			{
				"x": -3.506554565,
				"y": 0.8017634763,
				"z": 1.0851426801,
				"element": "C" 
			},
			{
				"x": -3.2767124846,
				"y": -0.3093092743,
				"z": 0.2689179264,
				"element": "C" 
			},
			{
				"x": -4.4043504846,
				"y": -1.0721735887,
				"z": -0.3748058503,
				"element": "C" 
			},
			{
				"x": -2.0290987766,
				"y": -0.7390227802,
				"z": 0.0283245131,
				"element": "N" 
			},
			{
				"x": 4.3868454255,
				"y": -0.0376180139,
				"z": -0.1265366359,
				"element": "H" 
			},
			{
				"x": 3.7892399721,
				"y": 0.6194455246,
				"z": 1.4216198745,
				"element": "H" 
			},
			{
				"x": 4.2958338555,
				"y": -1.0857140522,
				"z": 1.2751253216,
				"element": "H" 
			},
			{
				"x": -0.1960732639,
				"y": -2.1790833608,
				"z": -0.9294549853,
				"element": "H" 
			},
			{
				"x": 2.6863003854,
				"y": -4.1817561992,
				"z": -2.2375404415,
				"element": "H" 
			},
			{
				"x": -3.1449120794,
				"y": 2.4128293725,
				"z": 3.4164894947,
				"element": "H" 
			},
			{
				"x": -3.0539767946,
				"y": 3.4678098331,
				"z": 2.0059814702,
				"element": "H" 
			},
			{
				"x": -1.5603351443,
				"y": 2.9964137043,
				"z": 2.852434788,
				"element": "H" 
			},
			{
				"x": -4.5150512993,
				"y": 1.1513372608,
				"z": 1.2813377262,
				"element": "H" 
			},
			{
				"x": -5.0857353346,
				"y": -1.4740592462,
				"z": 0.3830343408,
				"element": "H" 
			},
			{
				"x": -4.9943909997,
				"y": -0.4191137082,
				"z": -1.0270938131,
				"element": "H" 
			},
			{
				"x": -4.0066030207,
				"y": -1.8975962559,
				"z": -0.9665494567,
				"element": "H" 
			}
		],
		 "valence_orbital": [ 
			{
				"type": "occ",
				"energy": -0.28898,
				"method": "rhf"
			},
			{
				"type": "occ",
				"energy": -0.27067,
				"method": "rhf"
			},
			{
				"type": "occ",
				"energy": -0.25769,
				"method": "rhf"
			},
			{
				"type": "occ",
				"energy": -0.25603,
				"method": "rhf"
			},
			{
				"type": "occ",
				"energy": -0.2415,
				"method": "rhf"
			},
			{
				"type": "unocc",
				"energy": -0.05179,
				"method": "rhf"
			},
			{
				"type": "unocc",
				"energy": -0.0392,
				"method": "rhf"
			},
			{
				"type": "unocc",
				"energy": -0.00617,
				"method": "rhf"
			},
			{
				"type": "unocc",
				"energy": 0.03335,
				"method": "rhf"
			},
			{
				"type": "unocc",
				"energy": 0.08627,
				"method": "rhf"
			}
		],
		"cosmo_sigma_profile": { 
			"-0.025": 0.0,
			"-0.024": 0.0,
			"-0.023": 0.0,
			"-0.022": 0.0,
			"-0.021": 0.0,
			"-0.02": 0.0,
			"-0.019": 0.0,
			"-0.018": 0.578625042713,
			"-0.017": 1.06042523627,
			"-0.016": 0.875563950204,
			"-0.015": 0.44374912261,
			"-0.014": 0.706031029346,
			"-0.013": 0.50637643997,
			"-0.012": 0.875369325943,
			"-0.011": 1.0237563881,
			"-0.01": 0.924568362039,
			"-0.009": 0.635378184762,
			"-0.008": 1.25346129445,
			"-0.007": 3.91231836133,
			"-0.006": 7.61422959719,
			"-0.005": 18.6997599138,
			"-0.004": 21.4104460509,
			"-0.003": 22.6890706284,
			"-0.002": 32.0153234641,
			"-0.001": 38.3941944356,
			"0.0": 29.5533212345,
			"0.001": 18.2709610164,
			"0.002": 8.00147379311,
			"0.003": 10.2091073936,
			"0.004": 6.27712850422,
			"0.005": 6.3648733177,
			"0.006": 7.09195331922,
			"0.007": 5.84751705644,
			"0.008": 5.9724177988,
			"0.009": 3.51795197194,
			"0.01": 3.2264791402,
			"0.011": 4.43363894708,
			"0.012": 4.8315957119,
			"0.013": 1.41930986184,
			"0.014": 1.44966259105,
			"0.015": 0.879248801208,
			"0.016": 1.02231060607,
			"0.017": 0.659684389595,
			"0.018": 1.05670876088,
			"0.019": 0.643637589099,
			"0.02": 0.146059249518,
			"0.021": 0.0,
			"0.022": 0.0,
			"0.023": 0.0,
			"0.024": 0.0,
			"0.025": 0.0
		}
	}
}
