{
	 "smiles": "NN1C(S)=NN=C1C1=C(Cl)C=CC=C1", 
	 "Tm": 385.15, 
	 "num_atms": 21, 
	 "gaussian": { 
		 "optdone": 1, 
		 "sigma_profile": "yes", 
		 "theory": "DFT", 
		 "functional": "B3LYP", 
		 "basiset": "6-31G**", 
		 "properties": { 
			 "R2extent": 4802.547, 
			 "electric_dipole_moment_norm": 4.09497375938, 
			 "electric_quadrupole_moment_norm": 21.5928519545, 
			 "total_energy": -1386.39048045, 
			 "HOMO_LUMO_gap": 0.19627, 
			 "cosmo_polarized_energy": -18.53, 
			 "cosmo_cavitation_energy": 29.2, 
			 "cosmo_dispersion_energy": -21.65, 
			 "cosmo_repulsion_energy": 1.66, 
			 "cosmo_total_nonelectrostatic_energy": 9.21, 
			 "SMD_solvation_energy": 2.71 
		},
		"coords": [
			{
				"x": -1.3561262918,
				"y": 0.725673779,
				"z": -1.9962574447,
				"element": "N" 
			},
			{
				"x": -0.5278544819,
				"y": -0.3966212984,
				"z": -2.0644037516,
				"element": "N" 
			},
			{
				"x": 0.3322895733,
				"y": -0.7756884133,
				"z": -3.0651927517,
				"element": "C" 
			},
			{
				"x": 0.3953740739,
				"y": 0.0976719187,
				"z": -4.5982619077,
				"element": "S" 
			},
			{
				"x": 1.0507767598,
				"y": -1.8068852459,
				"z": -2.6966339552,
				"element": "N" 
			},
			{
				"x": 0.655449137,
				"y": -2.1336293547,
				"z": -1.408673634,
				"element": "N" 
			},
			{
				"x": -0.2848346366,
				"y": -1.2925769447,
				"z": -1.0405997707,
				"element": "C" 
			},
			{
				"x": -0.9397944958,
				"y": -1.2787560836,
				"z": 0.2763449338,
				"element": "C" 
			},
			{
				"x": -2.3308926142,
				"y": -1.3252937734,
				"z": 0.4662240392,
				"element": "C" 
			},
			{
				"x": -3.4286777527,
				"y": -1.4721084956,
				"z": -0.9030858513,
				"element": "Cl" 
			},
			{
				"x": -2.88897615,
				"y": -1.3203387926,
				"z": 1.7435823438,
				"element": "C" 
			},
			{
				"x": -2.0551493507,
				"y": -1.2887864365,
				"z": 2.8607569933,
				"element": "C" 
			},
			{
				"x": -0.6692081123,
				"y": -1.2742814386,
				"z": 2.699097786,
				"element": "C" 
			},
			{
				"x": -0.1227146133,
				"y": -1.269091666,
				"z": 1.4189560363,
				"element": "C" 
			},
			{
				"x": -0.8321157624,
				"y": 1.544385843,
				"z": -2.2956676143,
				"element": "H" 
			},
			{
				"x": -2.1663161415,
				"y": 0.5904367858,
				"z": -2.5959452634,
				"element": "H" 
			},
			{
				"x": 1.4649689479,
				"y": -0.5945226117,
				"z": -5.0324306827,
				"element": "H" 
			},
			{
				"x": -3.9668519592,
				"y": -1.3576377327,
				"z": 1.8544427281,
				"element": "H" 
			},
			{
				"x": -2.493370387,
				"y": -1.2866192331,
				"z": 3.854203882,
				"element": "H" 
			},
			{
				"x": -0.0158200069,
				"y": -1.2636784853,
				"z": 3.5657366189,
				"element": "H" 
			},
			{
				"x": 0.9523442642,
				"y": -1.2583523205,
				"z": 1.275107266,
				"element": "H" 
			}
		],
		 "valence_orbital": [ 
			{
				"type": "occ",
				"energy": -0.2925,
				"method": "rhf"
			},
			{
				"type": "occ",
				"energy": -0.27298,
				"method": "rhf"
			},
			{
				"type": "occ",
				"energy": -0.25688,
				"method": "rhf"
			},
			{
				"type": "occ",
				"energy": -0.25141,
				"method": "rhf"
			},
			{
				"type": "occ",
				"energy": -0.23123,
				"method": "rhf"
			},
			{
				"type": "unocc",
				"energy": -0.03496,
				"method": "rhf"
			},
			{
				"type": "unocc",
				"energy": -0.01859,
				"method": "rhf"
			},
			{
				"type": "unocc",
				"energy": -0.00281,
				"method": "rhf"
			},
			{
				"type": "unocc",
				"energy": 0.01911,
				"method": "rhf"
			},
			{
				"type": "unocc",
				"energy": 0.02181,
				"method": "rhf"
			}
		],
		"cosmo_sigma_profile": { 
			"-0.025": 0.0,
			"-0.024": 0.0,
			"-0.023": 0.0,
			"-0.022": 0.0,
			"-0.021": 0.0,
			"-0.02": 0.0,
			"-0.019": 0.0,
			"-0.018": 0.0,
			"-0.017": 0.0,
			"-0.016": 0.0,
			"-0.015": 0.0,
			"-0.014": 0.692730553829,
			"-0.013": 3.24208379233,
			"-0.012": 4.59370785471,
			"-0.011": 4.82050891836,
			"-0.01": 3.72491986905,
			"-0.009": 4.03591255526,
			"-0.008": 4.50998664534,
			"-0.007": 8.12045495147,
			"-0.006": 12.1888847734,
			"-0.005": 12.2466732495,
			"-0.004": 9.83943608767,
			"-0.003": 12.7218701036,
			"-0.002": 12.7097691118,
			"-0.001": 12.1175501392,
			"0.0": 15.6915749272,
			"0.001": 18.9857545217,
			"0.002": 20.7370749668,
			"0.003": 22.8033636205,
			"0.004": 14.3232242013,
			"0.005": 7.30761064594,
			"0.006": 5.25332846852,
			"0.007": 2.87202115355,
			"0.008": 3.30620209035,
			"0.009": 2.97860693867,
			"0.01": 2.01393989204,
			"0.011": 3.44577596997,
			"0.012": 2.75976835413,
			"0.013": 4.01170226488,
			"0.014": 2.59762327438,
			"0.015": 2.04820345438,
			"0.016": 2.07708335687,
			"0.017": 0.106507531325,
			"0.018": 0.0,
			"0.019": 0.0,
			"0.02": 0.0,
			"0.021": 0.0,
			"0.022": 0.0,
			"0.023": 0.0,
			"0.024": 0.0,
			"0.025": 0.0
		}
	}
}
