{
	 "smiles": "[O-][N+](=O)C1=CC(=CC(=C1)C(=O)NCCCBr)[N+]([O-])=O", 
	 "Tm": 468.15, 
	 "num_atms": 29, 
	 "gaussian": { 
		 "optdone": 1, 
		 "sigma_profile": "yes", 
		 "theory": "DFT", 
		 "functional": "B3LYP", 
		 "basiset": "6-31G**", 
		 "properties": { 
			 "R2extent": 11904.2472, 
			 "electric_dipole_moment_norm": 4.06921787325, 
			 "electric_quadrupole_moment_norm": 12.5390145965, 
			 "total_energy": -3498.68013745, 
			 "HOMO_LUMO_gap": 0.15147, 
			 "cosmo_polarized_energy": -21.14, 
			 "cosmo_cavitation_energy": 37.88, 
			 "cosmo_dispersion_energy": -26.47, 
			 "cosmo_repulsion_energy": 2.07, 
			 "cosmo_total_nonelectrostatic_energy": 13.48, 
			 "SMD_solvation_energy": 9.89 
		},
		"coords": [
			{
				"x": -2.7208139526,
				"y": -2.5483695509,
				"z": -4.5794263101,
				"element": "O" 
			},
			{
				"x": -2.3118354159,
				"y": -3.0341768643,
				"z": -3.5289907312,
				"element": "N" 
			},
			{
				"x": -2.5139732312,
				"y": -4.1843811089,
				"z": -3.1486212273,
				"element": "O" 
			},
			{
				"x": -1.5050879107,
				"y": -2.162839479,
				"z": -2.6479698478,
				"element": "C" 
			},
			{
				"x": -1.0165679909,
				"y": -2.6945090176,
				"z": -1.4583833905,
				"element": "C" 
			},
			{
				"x": -0.2670801919,
				"y": -1.8460080356,
				"z": -0.6541518737,
				"element": "C" 
			},
			{
				"x": 0.0060326235,
				"y": -0.5253817608,
				"z": -1.0074764826,
				"element": "C" 
			},
			{
				"x": -0.4890154474,
				"y": -0.0222928521,
				"z": -2.2135408673,
				"element": "C" 
			},
			{
				"x": -1.2719439153,
				"y": -0.8470346538,
				"z": -3.0318078876,
				"element": "C" 
			},
			{
				"x": -0.3412743596,
				"y": 1.4208559073,
				"z": -2.6349293308,
				"element": "C" 
			},
			{
				"x": -1.283564203,
				"y": 1.9838593824,
				"z": -3.1797268642,
				"element": "O" 
			},
			{
				"x": 0.828914085,
				"y": 2.078373362,
				"z": -2.3580263664,
				"element": "N" 
			},
			{
				"x": 2.1731482833,
				"y": 1.5355731208,
				"z": -2.1604273394,
				"element": "C" 
			},
			{
				"x": 2.8115113886,
				"y": 2.022287607,
				"z": -0.8527842446,
				"element": "C" 
			},
			{
				"x": 4.2267942221,
				"y": 1.5094584492,
				"z": -0.6286930867,
				"element": "C" 
			},
			{
				"x": 5.5071059538,
				"y": 2.2003371666,
				"z": -1.9801987922,
				"element": "Br" 
			},
			{
				"x": 0.2646255421,
				"y": -2.3619001757,
				"z": 0.6227068633,
				"element": "N" 
			},
			{
				"x": -0.0093478838,
				"y": -3.5194923721,
				"z": 0.9234570609,
				"element": "O" 
			},
			{
				"x": 0.952346831,
				"y": -1.5959490593,
				"z": 1.2965585895,
				"element": "O" 
			},
			{
				"x": -1.2164675702,
				"y": -3.7180360213,
				"z": -1.1722255991,
				"element": "H" 
			},
			{
				"x": 0.5758765341,
				"y": 0.0880651288,
				"z": -0.322487033,
				"element": "H" 
			},
			{
				"x": -1.6996964195,
				"y": -0.4593803727,
				"z": -3.9478116664,
				"element": "H" 
			},
			{
				"x": 0.7828110029,
				"y": 3.0399397305,
				"z": -2.6762158256,
				"element": "H" 
			},
			{
				"x": 2.1214283191,
				"y": 0.4444957168,
				"z": -2.177574205,
				"element": "H" 
			},
			{
				"x": 2.8069224224,
				"y": 1.8319161791,
				"z": -3.0036472209,
				"element": "H" 
			},
			{
				"x": 2.8083995903,
				"y": 3.1176575921,
				"z": -0.8265573169,
				"element": "H" 
			},
			{
				"x": 2.2049082044,
				"y": 1.6880600382,
				"z": 0.0002335673,
				"element": "H" 
			},
			{
				"x": 4.2954561494,
				"y": 0.4231479111,
				"z": -0.6973723881,
				"element": "H" 
			},
			{
				"x": 4.6263873401,
				"y": 1.8359240324,
				"z": 0.3299898165,
				"element": "H" 
			}
		],
		 "valence_orbital": [ 
			{
				"type": "occ",
				"energy": -0.31276,
				"method": "rhf"
			},
			{
				"type": "occ",
				"energy": -0.29655,
				"method": "rhf"
			},
			{
				"type": "occ",
				"energy": -0.29001,
				"method": "rhf"
			},
			{
				"type": "occ",
				"energy": -0.28263,
				"method": "rhf"
			},
			{
				"type": "occ",
				"energy": -0.27186,
				"method": "rhf"
			},
			{
				"type": "unocc",
				"energy": -0.12039,
				"method": "rhf"
			},
			{
				"type": "unocc",
				"energy": -0.11076,
				"method": "rhf"
			},
			{
				"type": "unocc",
				"energy": -0.06509,
				"method": "rhf"
			},
			{
				"type": "unocc",
				"energy": -0.01748,
				"method": "rhf"
			},
			{
				"type": "unocc",
				"energy": -0.01624,
				"method": "rhf"
			}
		],
		"cosmo_sigma_profile": { 
			"-0.025": 0.0,
			"-0.024": 0.0,
			"-0.023": 0.0,
			"-0.022": 0.0,
			"-0.021": 0.0,
			"-0.02": 0.0,
			"-0.019": 0.0,
			"-0.018": 0.0,
			"-0.017": 0.0,
			"-0.016": 0.0,
			"-0.015": 0.0179221707115,
			"-0.014": 1.00600631807,
			"-0.013": 0.921686054629,
			"-0.012": 1.1352858041,
			"-0.011": 1.24822369395,
			"-0.01": 1.26372275006,
			"-0.009": 1.85781258842,
			"-0.008": 8.56453102339,
			"-0.007": 15.7530027605,
			"-0.006": 20.8936509885,
			"-0.005": 25.1035474191,
			"-0.004": 30.3377053809,
			"-0.003": 24.8570347075,
			"-0.002": 17.1099449267,
			"-0.001": 12.867061293,
			"0.0": 11.4523614078,
			"0.001": 10.7624267769,
			"0.002": 9.93083729531,
			"0.003": 12.2142090376,
			"0.004": 12.3261615718,
			"0.005": 14.3380253679,
			"0.006": 23.5109062161,
			"0.007": 18.571838286,
			"0.008": 9.43036713204,
			"0.009": 7.89711956972,
			"0.01": 2.08869674334,
			"0.011": 1.26984089772,
			"0.012": 3.52638804227,
			"0.013": 4.81376366,
			"0.014": 0.523624060885,
			"0.015": 0.0,
			"0.016": 0.0,
			"0.017": 0.0,
			"0.018": 0.0,
			"0.019": 0.0,
			"0.02": 0.0,
			"0.021": 0.0,
			"0.022": 0.0,
			"0.023": 0.0,
			"0.024": 0.0,
			"0.025": 0.0
		}
	}
}
