{
	 "smiles": "[O-][N+](=O)C1=CC(=CC(Br)=C1)S(Cl)(=O)=O", 
	 "Tm": 321.15, 
	 "num_atms": 17, 
	 "gaussian": { 
		 "optdone": 1, 
		 "sigma_profile": "yes", 
		 "theory": "DFT", 
		 "functional": "B3LYP", 
		 "basiset": "6-31G**", 
		 "properties": { 
			 "R2extent": 5399.3623, 
			 "electric_dipole_moment_norm": 3.26599172993, 
			 "electric_quadrupole_moment_norm": 10.9761966177, 
			 "total_energy": -4015.69496935, 
			 "HOMO_LUMO_gap": 0.17011, 
			 "cosmo_polarized_energy": -11.34, 
			 "cosmo_cavitation_energy": 29.1, 
			 "cosmo_dispersion_energy": -21.86, 
			 "cosmo_repulsion_energy": 1.69, 
			 "cosmo_total_nonelectrostatic_energy": 8.94, 
			 "SMD_solvation_energy": 4.85 
		},
		"coords": [
			{
				"x": -1.260111577,
				"y": -3.0080466916,
				"z": -1.3437622635,
				"element": "O" 
			},
			{
				"x": -0.3620656788,
				"y": -2.2556732427,
				"z": -1.7103358128,
				"element": "N" 
			},
			{
				"x": 0.2665271827,
				"y": -2.3502312734,
				"z": -2.7598694194,
				"element": "O" 
			},
			{
				"x": -0.0069357787,
				"y": -1.1367132984,
				"z": -0.8099243593,
				"element": "C" 
			},
			{
				"x": 1.0046459363,
				"y": -0.2651372539,
				"z": -1.1978767124,
				"element": "C" 
			},
			{
				"x": 1.3058469556,
				"y": 0.7709745499,
				"z": -0.3191389441,
				"element": "C" 
			},
			{
				"x": 0.6511365923,
				"y": 0.9479242847,
				"z": 0.9000376165,
				"element": "C" 
			},
			{
				"x": -0.3561659298,
				"y": 0.044935615,
				"z": 1.2425472409,
				"element": "C" 
			},
			{
				"x": -1.2697486645,
				"y": 0.2477447735,
				"z": 2.8943620075,
				"element": "Br" 
			},
			{
				"x": -0.6974754673,
				"y": -1.0059300953,
				"z": 0.3921908636,
				"element": "C" 
			},
			{
				"x": 2.6189167953,
				"y": 1.9160216268,
				"z": -0.7578508732,
				"element": "S" 
			},
			{
				"x": 1.5225391811,
				"y": 3.39131625,
				"z": -1.8155751342,
				"element": "Cl" 
			},
			{
				"x": 3.109108492,
				"y": 2.5513592468,
				"z": 0.4572669803,
				"element": "O" 
			},
			{
				"x": 3.4979176704,
				"y": 1.2740172894,
				"z": -1.7240785553,
				"element": "O" 
			},
			{
				"x": 1.5284719111,
				"y": -0.4023912012,
				"z": -2.135274728,
				"element": "H" 
			},
			{
				"x": 0.9276177112,
				"y": 1.7597251321,
				"z": 1.5619174493,
				"element": "H" 
			},
			{
				"x": -1.4752253317,
				"y": -1.7148957118,
				"z": 0.6437646441,
				"element": "H" 
			}
		],
		 "valence_orbital": [ 
			{
				"type": "occ",
				"energy": -0.33284,
				"method": "rhf"
			},
			{
				"type": "occ",
				"energy": -0.32593,
				"method": "rhf"
			},
			{
				"type": "occ",
				"energy": -0.32496,
				"method": "rhf"
			},
			{
				"type": "occ",
				"energy": -0.32179,
				"method": "rhf"
			},
			{
				"type": "occ",
				"energy": -0.29473,
				"method": "rhf"
			},
			{
				"type": "unocc",
				"energy": -0.12462,
				"method": "rhf"
			},
			{
				"type": "unocc",
				"energy": -0.10942,
				"method": "rhf"
			},
			{
				"type": "unocc",
				"energy": -0.07423,
				"method": "rhf"
			},
			{
				"type": "unocc",
				"energy": -0.04408,
				"method": "rhf"
			},
			{
				"type": "unocc",
				"energy": -0.03422,
				"method": "rhf"
			}
		],
		"cosmo_sigma_profile": { 
			"-0.025": 0.0,
			"-0.024": 0.0,
			"-0.023": 0.0,
			"-0.022": 0.0,
			"-0.021": 0.0,
			"-0.02": 0.0,
			"-0.019": 0.0,
			"-0.018": 0.0,
			"-0.017": 0.0,
			"-0.016": 0.0,
			"-0.015": 0.0,
			"-0.014": 0.0,
			"-0.013": 0.0,
			"-0.012": 0.0,
			"-0.011": 0.021652473818,
			"-0.01": 1.09674493912,
			"-0.009": 4.57147379024,
			"-0.008": 6.71964172086,
			"-0.007": 7.82743171046,
			"-0.006": 9.14195019538,
			"-0.005": 14.6078698058,
			"-0.004": 20.9224329468,
			"-0.003": 22.3079266923,
			"-0.002": 14.9507673623,
			"-0.001": 12.617661726,
			"0.0": 12.748455809,
			"0.001": 15.7240209715,
			"0.002": 21.8291877466,
			"0.003": 21.9672903663,
			"0.004": 6.10957111454,
			"0.005": 7.30992126123,
			"0.006": 11.1593629428,
			"0.007": 15.300559002,
			"0.008": 11.5539709216,
			"0.009": 2.71998500812,
			"0.01": 0.0414876102951,
			"0.011": 0.0,
			"0.012": 0.0,
			"0.013": 0.0,
			"0.014": 0.0,
			"0.015": 0.0,
			"0.016": 0.0,
			"0.017": 0.0,
			"0.018": 0.0,
			"0.019": 0.0,
			"0.02": 0.0,
			"0.021": 0.0,
			"0.022": 0.0,
			"0.023": 0.0,
			"0.024": 0.0,
			"0.025": 0.0
		}
	}
}
