{
	 "smiles": "CCCCCCCC(=O)OCCCC", 
	 "Tm": 230.25, 
	 "num_atms": 38, 
	 "gaussian": { 
		 "optdone": 1, 
		 "sigma_profile": "yes", 
		 "theory": "DFT", 
		 "functional": "B3LYP", 
		 "basiset": "6-31G**", 
		 "properties": { 
			 "R2extent": 4817.1119, 
			 "electric_dipole_moment_norm": 1.59737948528, 
			 "electric_quadrupole_moment_norm": 5.66724915545, 
			 "total_energy": -622.236956284, 
			 "HOMO_LUMO_gap": 0.28254, 
			 "cosmo_polarized_energy": -5.82, 
			 "cosmo_cavitation_energy": 38.59, 
			 "cosmo_dispersion_energy": -25.19, 
			 "cosmo_repulsion_energy": 2.06, 
			 "cosmo_total_nonelectrostatic_energy": 15.47, 
			 "SMD_solvation_energy": 6.41 
		},
		"coords": [
			{
				"x": -2.4822476823,
				"y": -2.782021043,
				"z": 1.0420793279,
				"element": "C" 
			},
			{
				"x": -2.3392739532,
				"y": -1.3408857606,
				"z": 1.5417665293,
				"element": "C" 
			},
			{
				"x": -1.2958643214,
				"y": -1.1885760208,
				"z": 2.6563893362,
				"element": "C" 
			},
			{
				"x": -1.1586417965,
				"y": 0.2546484528,
				"z": 3.1596692796,
				"element": "C" 
			},
			{
				"x": -0.2021014564,
				"y": 0.4336925335,
				"z": 4.3512881837,
				"element": "C" 
			},
			{
				"x": 1.2909269329,
				"y": 0.1578733055,
				"z": 4.093868072,
				"element": "C" 
			},
			{
				"x": 1.9656178638,
				"y": 1.1284720712,
				"z": 3.1112330786,
				"element": "C" 
			},
			{
				"x": 1.8221368084,
				"y": 0.7440476657,
				"z": 1.6500442945,
				"element": "C" 
			},
			{
				"x": 1.6982184634,
				"y": -0.3894822676,
				"z": 1.2322987758,
				"element": "O" 
			},
			{
				"x": 1.9138381339,
				"y": 1.8333811154,
				"z": 0.8528109132,
				"element": "O" 
			},
			{
				"x": 1.8875400073,
				"y": 1.6005774829,
				"z": -0.5777509121,
				"element": "C" 
			},
			{
				"x": 0.4645063667,
				"y": 1.6037287881,
				"z": -1.1267869013,
				"element": "C" 
			},
			{
				"x": -0.2875358233,
				"y": 2.9231061618,
				"z": -0.9115476627,
				"element": "C" 
			},
			{
				"x": -1.717165844,
				"y": 2.8886358449,
				"z": -1.4600671975,
				"element": "C" 
			},
			{
				"x": -2.7893470891,
				"y": -3.4530945803,
				"z": 1.8526766356,
				"element": "H" 
			},
			{
				"x": -1.5324936996,
				"y": -3.1577179723,
				"z": 0.6452632538,
				"element": "H" 
			},
			{
				"x": -3.2305045555,
				"y": -2.8593597223,
				"z": 0.2460549906,
				"element": "H" 
			},
			{
				"x": -3.3129479254,
				"y": -0.9779908131,
				"z": 1.8997707608,
				"element": "H" 
			},
			{
				"x": -2.0641977276,
				"y": -0.6898657569,
				"z": 0.7000448143,
				"element": "H" 
			},
			{
				"x": -1.5728476124,
				"y": -1.838180751,
				"z": 3.5000138203,
				"element": "H" 
			},
			{
				"x": -0.3271845345,
				"y": -1.5447941327,
				"z": 2.2880418213,
				"element": "H" 
			},
			{
				"x": -0.8499283889,
				"y": 0.90383745,
				"z": 2.3280988219,
				"element": "H" 
			},
			{
				"x": -2.1495022396,
				"y": 0.6203596959,
				"z": 3.4631190143,
				"element": "H" 
			},
			{
				"x": -0.535171912,
				"y": -0.2227720827,
				"z": 5.1667143015,
				"element": "H" 
			},
			{
				"x": -0.301885197,
				"y": 1.4596496007,
				"z": 4.7325504712,
				"element": "H" 
			},
			{
				"x": 1.4414749573,
				"y": -0.8640704108,
				"z": 3.7310573224,
				"element": "H" 
			},
			{
				"x": 1.8151829682,
				"y": 0.2272805153,
				"z": 5.0541045779,
				"element": "H" 
			},
			{
				"x": 3.0481201569,
				"y": 1.1501424702,
				"z": 3.2982220564,
				"element": "H" 
			},
			{
				"x": 1.616464917,
				"y": 2.1572880611,
				"z": 3.2465759318,
				"element": "H" 
			},
			{
				"x": 2.3842161678,
				"y": 0.650739087,
				"z": -0.7883414769,
				"element": "H" 
			},
			{
				"x": 2.4752108955,
				"y": 2.4224928565,
				"z": -0.9971523905,
				"element": "H" 
			},
			{
				"x": -0.0875584694,
				"y": 0.7719714134,
				"z": -0.6727619752,
				"element": "H" 
			},
			{
				"x": 0.5265254925,
				"y": 1.3827131474,
				"z": -2.2015938031,
				"element": "H" 
			},
			{
				"x": 0.2712456559,
				"y": 3.7395665829,
				"z": -1.3896240834,
				"element": "H" 
			},
			{
				"x": -0.3072314889,
				"y": 3.1545373717,
				"z": 0.1599601668,
				"element": "H" 
			},
			{
				"x": -2.3082190063,
				"y": 2.1036065511,
				"z": -0.9748087638,
				"element": "H" 
			},
			{
				"x": -1.7255302074,
				"y": 2.6886098439,
				"z": -2.5377728808,
				"element": "H" 
			},
			{
				"x": -2.2309448571,
				"y": 3.841153245,
				"z": -1.2949085046,
				"element": "H" 
			}
		],
		 "valence_orbital": [ 
			{
				"type": "occ",
				"energy": -0.31249,
				"method": "rhf"
			},
			{
				"type": "occ",
				"energy": -0.30739,
				"method": "rhf"
			},
			{
				"type": "occ",
				"energy": -0.30137,
				"method": "rhf"
			},
			{
				"type": "occ",
				"energy": -0.29277,
				"method": "rhf"
			},
			{
				"type": "occ",
				"energy": -0.26857,
				"method": "rhf"
			},
			{
				"type": "unocc",
				"energy": 0.01397,
				"method": "rhf"
			},
			{
				"type": "unocc",
				"energy": 0.06432,
				"method": "rhf"
			},
			{
				"type": "unocc",
				"energy": 0.09247,
				"method": "rhf"
			},
			{
				"type": "unocc",
				"energy": 0.10321,
				"method": "rhf"
			},
			{
				"type": "unocc",
				"energy": 0.11418,
				"method": "rhf"
			}
		],
		"cosmo_sigma_profile": { 
			"-0.025": 0.0,
			"-0.024": 0.0,
			"-0.023": 0.0,
			"-0.022": 0.0,
			"-0.021": 0.0,
			"-0.02": 0.0,
			"-0.019": 0.0,
			"-0.018": 0.0,
			"-0.017": 0.0,
			"-0.016": 0.0,
			"-0.015": 0.0,
			"-0.014": 0.0,
			"-0.013": 0.0,
			"-0.012": 0.0,
			"-0.011": 0.0,
			"-0.01": 0.0,
			"-0.009": 0.0,
			"-0.008": 0.0,
			"-0.007": 0.267530993132,
			"-0.006": 2.53047446629,
			"-0.005": 5.95143348432,
			"-0.004": 10.4930221638,
			"-0.003": 23.4888707069,
			"-0.002": 46.7574436993,
			"-0.001": 53.3100270729,
			"0.0": 53.9878558237,
			"0.001": 46.9960553294,
			"0.002": 22.3013482268,
			"0.003": 4.61235451057,
			"0.004": 4.50848300087,
			"0.005": 3.33435289526,
			"0.006": 3.92343351265,
			"0.007": 2.5394151337,
			"0.008": 2.40279673428,
			"0.009": 2.23230765049,
			"0.01": 1.99734848953,
			"0.011": 1.61328129165,
			"0.012": 3.01065304329,
			"0.013": 0.711131238141,
			"0.014": 0.0,
			"0.015": 0.0,
			"0.016": 0.0,
			"0.017": 0.0,
			"0.018": 0.0,
			"0.019": 0.0,
			"0.02": 0.0,
			"0.021": 0.0,
			"0.022": 0.0,
			"0.023": 0.0,
			"0.024": 0.0,
			"0.025": 0.0
		}
	}
}
