{
	 "smiles": "C1CCC(NC1)C1=CC2=C(N1)C=CC=C2", 
	 "Tm": 425.15, 
	 "num_atms": 31, 
	 "gaussian": { 
		 "optdone": 1, 
		 "sigma_profile": "yes", 
		 "theory": "DFT", 
		 "functional": "B3LYP", 
		 "basiset": "6-31G**", 
		 "properties": { 
			 "R2extent": 4149.3532, 
			 "electric_dipole_moment_norm": 3.0268778535, 
			 "electric_quadrupole_moment_norm": 7.17678485187, 
			 "total_energy": -614.532631027, 
			 "HOMO_LUMO_gap": 0.19221, 
			 "cosmo_polarized_energy": -10.62, 
			 "cosmo_cavitation_energy": 32.24, 
			 "cosmo_dispersion_energy": -23.73, 
			 "cosmo_repulsion_energy": 1.86, 
			 "cosmo_total_nonelectrostatic_energy": 10.36, 
			 "SMD_solvation_energy": 3.4 
		},
		"coords": [
			{
				"x": 1.7097767565,
				"y": -3.1549007285,
				"z": 1.0015394883,
				"element": "C" 
			},
			{
				"x": 0.7294728664,
				"y": -2.1656504992,
				"z": 1.671572307,
				"element": "C" 
			},
			{
				"x": -0.4925487949,
				"y": -1.9395902904,
				"z": 0.7753492175,
				"element": "C" 
			},
			{
				"x": -0.074783919,
				"y": -1.2836697236,
				"z": -0.579837657,
				"element": "C" 
			},
			{
				"x": 1.3146993534,
				"y": -1.6407790747,
				"z": -0.8797907195,
				"element": "N" 
			},
			{
				"x": 1.6467435192,
				"y": -3.02243541,
				"z": -0.5366188701,
				"element": "C" 
			},
			{
				"x": -0.201382036,
				"y": 0.2157299882,
				"z": -0.5582799128,
				"element": "C" 
			},
			{
				"x": 0.7501587748,
				"y": 1.1914072969,
				"z": -0.3928215205,
				"element": "C" 
			},
			{
				"x": 0.07878788,
				"y": 2.4620454802,
				"z": -0.4266673454,
				"element": "C" 
			},
			{
				"x": -1.3060403086,
				"y": 2.193116679,
				"z": -0.6182463802,
				"element": "C" 
			},
			{
				"x": -1.4453376395,
				"y": 0.8201468067,
				"z": -0.6905704308,
				"element": "N" 
			},
			{
				"x": -2.2619897892,
				"y": 3.209482389,
				"z": -0.7051266275,
				"element": "C" 
			},
			{
				"x": -1.8149918874,
				"y": 4.5225948064,
				"z": -0.5946646895,
				"element": "C" 
			},
			{
				"x": -0.4494179951,
				"y": 4.8142388475,
				"z": -0.4019973011,
				"element": "C" 
			},
			{
				"x": 0.4969773273,
				"y": 3.7996655812,
				"z": -0.3176390801,
				"element": "C" 
			},
			{
				"x": 2.7276526141,
				"y": -2.9567233646,
				"z": 1.3536157613,
				"element": "H" 
			},
			{
				"x": 1.4690436619,
				"y": -4.1867826742,
				"z": 1.284562845,
				"element": "H" 
			},
			{
				"x": 0.4189051523,
				"y": -2.5376995224,
				"z": 2.6539145284,
				"element": "H" 
			},
			{
				"x": 1.2261563179,
				"y": -1.2043452608,
				"z": 1.8372632818,
				"element": "H" 
			},
			{
				"x": -0.9798943204,
				"y": -2.902157385,
				"z": 0.5749193175,
				"element": "H" 
			},
			{
				"x": -1.2365721257,
				"y": -1.3073187963,
				"z": 1.2700281837,
				"element": "H" 
			},
			{
				"x": -0.7763854452,
				"y": -1.6672546313,
				"z": -1.3497929949,
				"element": "H" 
			},
			{
				"x": 1.5262049641,
				"y": -1.4313364799,
				"z": -1.8496106488,
				"element": "H" 
			},
			{
				"x": 2.6155119304,
				"y": -3.265680123,
				"z": -0.9840468112,
				"element": "H" 
			},
			{
				"x": 0.9204492517,
				"y": -3.7484885647,
				"z": -0.9490632196,
				"element": "H" 
			},
			{
				"x": 1.8055852436,
				"y": 1.0044381944,
				"z": -0.2647107689,
				"element": "H" 
			},
			{
				"x": -2.3089648665,
				"y": 0.331074914,
				"z": -0.8625460601,
				"element": "H" 
			},
			{
				"x": -3.3150941417,
				"y": 2.9851705928,
				"z": -0.8525918702,
				"element": "H" 
			},
			{
				"x": -2.5315214326,
				"y": 5.3365383189,
				"z": -0.6572747353,
				"element": "H" 
			},
			{
				"x": -0.1352211373,
				"y": 5.8507547145,
				"z": -0.3186517162,
				"element": "H" 
			},
			{
				"x": 1.5473202256,
				"y": 4.0355079188,
				"z": -0.1689155707,
				"element": "H" 
			}
		],
		 "valence_orbital": [ 
			{
				"type": "occ",
				"energy": -0.30844,
				"method": "rhf"
			},
			{
				"type": "occ",
				"energy": -0.26486,
				"method": "rhf"
			},
			{
				"type": "occ",
				"energy": -0.22106,
				"method": "rhf"
			},
			{
				"type": "occ",
				"energy": -0.20795,
				"method": "rhf"
			},
			{
				"type": "occ",
				"energy": -0.19161,
				"method": "rhf"
			},
			{
				"type": "unocc",
				"energy": 0.0006,
				"method": "rhf"
			},
			{
				"type": "unocc",
				"energy": 0.037,
				"method": "rhf"
			},
			{
				"type": "unocc",
				"energy": 0.07026,
				"method": "rhf"
			},
			{
				"type": "unocc",
				"energy": 0.07873,
				"method": "rhf"
			},
			{
				"type": "unocc",
				"energy": 0.08681,
				"method": "rhf"
			}
		],
		"cosmo_sigma_profile": { 
			"-0.025": 0.0,
			"-0.024": 0.0,
			"-0.023": 0.0,
			"-0.022": 0.0,
			"-0.021": 0.0,
			"-0.02": 0.0,
			"-0.019": 0.0,
			"-0.018": 0.0,
			"-0.017": 0.0,
			"-0.016": 0.0,
			"-0.015": 0.560470554947,
			"-0.014": 1.39504509626,
			"-0.013": 1.10051519814,
			"-0.012": 1.31978249157,
			"-0.011": 1.27574087741,
			"-0.01": 2.38375470118,
			"-0.009": 2.29041754791,
			"-0.008": 2.49224574858,
			"-0.007": 2.8113909,
			"-0.006": 4.40544909381,
			"-0.005": 7.88062360029,
			"-0.004": 12.4049319358,
			"-0.003": 21.4030908825,
			"-0.002": 31.1671269019,
			"-0.001": 31.6501539316,
			"0.0": 29.6965506096,
			"0.001": 18.7945900931,
			"0.002": 10.1337876021,
			"0.003": 10.5393465014,
			"0.004": 11.6194700501,
			"0.005": 12.2994518104,
			"0.006": 12.4515170179,
			"0.007": 13.5613915384,
			"0.008": 5.52631623653,
			"0.009": 1.09308242041,
			"0.01": 0.510142833939,
			"0.011": 0.673441173892,
			"0.012": 0.724560614697,
			"0.013": 0.374099508137,
			"0.014": 0.150826404541,
			"0.015": 0.0,
			"0.016": 0.0,
			"0.017": 0.0,
			"0.018": 0.0,
			"0.019": 0.0,
			"0.02": 0.0,
			"0.021": 0.0,
			"0.022": 0.0,
			"0.023": 0.0,
			"0.024": 0.0,
			"0.025": 0.0
		}
	}
}
