{
	 "smiles": "CCC(C)C(CC)C(N)=O", 
	 "Tm": 387.15, 
	 "num_atms": 27, 
	 "gaussian": { 
		 "optdone": 1, 
		 "sigma_profile": "yes", 
		 "theory": "DFT", 
		 "functional": "B3LYP", 
		 "basiset": "6-31G**", 
		 "properties": { 
			 "R2extent": 1999.2689, 
			 "electric_dipole_moment_norm": 3.52714408693, 
			 "electric_quadrupole_moment_norm": 14.8976744386, 
			 "total_energy": -445.106964931, 
			 "HOMO_LUMO_gap": 0.26967, 
			 "cosmo_polarized_energy": -11.74, 
			 "cosmo_cavitation_energy": 27.36, 
			 "cosmo_dispersion_energy": -19.18, 
			 "cosmo_repulsion_energy": 1.57, 
			 "cosmo_total_nonelectrostatic_energy": 9.76, 
			 "SMD_solvation_energy": 5.56 
		},
		"coords": [
			{
				"x": -1.1915316842,
				"y": -2.5048185417,
				"z": -0.1993226218,
				"element": "C" 
			},
			{
				"x": -1.2599703171,
				"y": -1.2074653108,
				"z": 0.615207845,
				"element": "C" 
			},
			{
				"x": -0.6479049262,
				"y": 0.0312480336,
				"z": -0.0802974921,
				"element": "C" 
			},
			{
				"x": -1.4786868509,
				"y": 0.4375322489,
				"z": -1.3096453256,
				"element": "C" 
			},
			{
				"x": -0.5134610978,
				"y": 1.2083026292,
				"z": 0.9226087411,
				"element": "C" 
			},
			{
				"x": -0.0294485144,
				"y": 2.5532609104,
				"z": 0.3114858869,
				"element": "C" 
			},
			{
				"x": 1.3365378158,
				"y": 2.5238886418,
				"z": -0.3848618772,
				"element": "C" 
			},
			{
				"x": 0.3294092382,
				"y": 0.9181480787,
				"z": 2.1758539811,
				"element": "C" 
			},
			{
				"x": 1.458081293,
				"y": 0.1572006836,
				"z": 2.0142634377,
				"element": "N" 
			},
			{
				"x": 0.0417215684,
				"y": 1.4044499397,
				"z": 3.2614029009,
				"element": "O" 
			},
			{
				"x": -1.7616447198,
				"y": -2.4430763473,
				"z": -1.1313524071,
				"element": "H" 
			},
			{
				"x": -0.1563089003,
				"y": -2.7549587168,
				"z": -0.461251546,
				"element": "H" 
			},
			{
				"x": -1.5971055502,
				"y": -3.3442680475,
				"z": 0.3745617207,
				"element": "H" 
			},
			{
				"x": -2.3061971306,
				"y": -0.9839254572,
				"z": 0.8652515917,
				"element": "H" 
			},
			{
				"x": -0.7514817368,
				"y": -1.3727355733,
				"z": 1.5717942115,
				"element": "H" 
			},
			{
				"x": 0.3529635644,
				"y": -0.2478418906,
				"z": -0.4478723519,
				"element": "H" 
			},
			{
				"x": -2.4723310965,
				"y": 0.7889921387,
				"z": -1.0061675127,
				"element": "H" 
			},
			{
				"x": -1.6195982391,
				"y": -0.4076438181,
				"z": -1.9890480961,
				"element": "H" 
			},
			{
				"x": -1.0026514944,
				"y": 1.2366276378,
				"z": -1.8839167529,
				"element": "H" 
			},
			{
				"x": -1.5119974413,
				"y": 1.4015582638,
				"z": 1.3335086565,
				"element": "H" 
			},
			{
				"x": -0.7897302026,
				"y": 2.9089396542,
				"z": -0.3924411162,
				"element": "H" 
			},
			{
				"x": -0.0066043374,
				"y": 3.2852922712,
				"z": 1.1264756218,
				"element": "H" 
			},
			{
				"x": 1.5964390551,
				"y": 3.5209317814,
				"z": -0.7548603621,
				"element": "H" 
			},
			{
				"x": 1.3451936321,
				"y": 1.8458607771,
				"z": -1.2456680476,
				"element": "H" 
			},
			{
				"x": 2.1301863749,
				"y": 2.2076017018,
				"z": 0.2989042221,
				"element": "H" 
			},
			{
				"x": 1.6733334314,
				"y": -0.3232563198,
				"z": 1.1567589569,
				"element": "H" 
			},
			{
				"x": 2.000988266,
				"y": -0.0491453686,
				"z": 2.8393277352,
				"element": "H" 
			}
		],
		 "valence_orbital": [ 
			{
				"type": "occ",
				"energy": -0.32898,
				"method": "rhf"
			},
			{
				"type": "occ",
				"energy": -0.31824,
				"method": "rhf"
			},
			{
				"type": "occ",
				"energy": -0.30821,
				"method": "rhf"
			},
			{
				"type": "occ",
				"energy": -0.26032,
				"method": "rhf"
			},
			{
				"type": "occ",
				"energy": -0.23644,
				"method": "rhf"
			},
			{
				"type": "unocc",
				"energy": 0.03323,
				"method": "rhf"
			},
			{
				"type": "unocc",
				"energy": 0.06033,
				"method": "rhf"
			},
			{
				"type": "unocc",
				"energy": 0.09017,
				"method": "rhf"
			},
			{
				"type": "unocc",
				"energy": 0.10624,
				"method": "rhf"
			},
			{
				"type": "unocc",
				"energy": 0.10969,
				"method": "rhf"
			}
		],
		"cosmo_sigma_profile": { 
			"-0.025": 0.0,
			"-0.024": 0.0,
			"-0.023": 0.0,
			"-0.022": 0.0,
			"-0.021": 0.0,
			"-0.02": 0.0,
			"-0.019": 0.0,
			"-0.018": 0.0,
			"-0.017": 0.0,
			"-0.016": 0.0,
			"-0.015": 0.0,
			"-0.014": 0.315804046912,
			"-0.013": 1.943043141,
			"-0.012": 1.69911795548,
			"-0.011": 2.20589295902,
			"-0.01": 2.4779152371,
			"-0.009": 2.16869145067,
			"-0.008": 2.23954889271,
			"-0.007": 1.75110783515,
			"-0.006": 2.37098210125,
			"-0.005": 1.95053261419,
			"-0.004": 2.70412817801,
			"-0.003": 18.4779246753,
			"-0.002": 32.3683631446,
			"-0.001": 31.5504868108,
			"0.0": 34.6922569383,
			"0.001": 30.2055834356,
			"0.002": 13.8184990656,
			"0.003": 2.27729947523,
			"0.004": 2.5559825552,
			"0.005": 1.67237028227,
			"0.006": 1.32398764103,
			"0.007": 1.10684272271,
			"0.008": 1.25281917034,
			"0.009": 1.76571685797,
			"0.01": 1.11675970621,
			"0.011": 0.960492216334,
			"0.012": 1.63369066754,
			"0.013": 2.06157215661,
			"0.014": 5.60460833955,
			"0.015": 3.76310268737,
			"0.016": 0.493699284057,
			"0.017": 0.0,
			"0.018": 0.0,
			"0.019": 0.0,
			"0.02": 0.0,
			"0.021": 0.0,
			"0.022": 0.0,
			"0.023": 0.0,
			"0.024": 0.0,
			"0.025": 0.0
		}
	}
}
