{
	 "smiles": "CC(NC(=O)C(C)NC(=O)C(C)NC(C)=O)C(O)=O", 
	 "Tm": 521.15, 
	 "num_atms": 38, 
	 "gaussian": { 
		 "optdone": 1, 
		 "sigma_profile": "yes", 
		 "theory": "DFT", 
		 "functional": "B3LYP", 
		 "basiset": "6-31G**", 
		 "properties": { 
			 "R2extent": 6556.336, 
			 "electric_dipole_moment_norm": 2.66109837849, 
			 "electric_quadrupole_moment_norm": 32.2835505315, 
			 "total_energy": -971.064329771, 
			 "HOMO_LUMO_gap": 0.2387, 
			 "cosmo_polarized_energy": -30.05, 
			 "cosmo_cavitation_energy": 41.62, 
			 "cosmo_dispersion_energy": -26.83, 
			 "cosmo_repulsion_energy": 2.13, 
			 "cosmo_total_nonelectrostatic_energy": 16.93, 
			 "SMD_solvation_energy": 9.97 
		},
		"coords": [
			{
				"x": -3.357169004,
				"y": 2.8422007084,
				"z": 0.1429938494,
				"element": "C" 
			},
			{
				"x": -2.4558277317,
				"y": 1.8305615517,
				"z": -0.5759576869,
				"element": "C" 
			},
			{
				"x": -1.1550661336,
				"y": 2.4456181938,
				"z": -0.8993339351,
				"element": "N" 
			},
			{
				"x": 0.0729212601,
				"y": 1.8039040078,
				"z": -0.8568319517,
				"element": "C" 
			},
			{
				"x": 1.1092369896,
				"y": 2.4291824147,
				"z": -0.7017954939,
				"element": "O" 
			},
			{
				"x": 0.1059321703,
				"y": 0.2824308865,
				"z": -1.1232269701,
				"element": "C" 
			},
			{
				"x": 0.7200088955,
				"y": 0.0228687075,
				"z": -2.5028393,
				"element": "C" 
			},
			{
				"x": 0.8938174168,
				"y": -0.3691118013,
				"z": -0.0864081747,
				"element": "N" 
			},
			{
				"x": 0.4266278833,
				"y": -0.4311298785,
				"z": 1.1864729465,
				"element": "C" 
			},
			{
				"x": -0.7080717652,
				"y": -0.0748994854,
				"z": 1.5020772565,
				"element": "O" 
			},
			{
				"x": 1.3892305442,
				"y": -1.0029885035,
				"z": 2.2495794328,
				"element": "C" 
			},
			{
				"x": 1.53493894,
				"y": 0.006557684,
				"z": 3.3964983867,
				"element": "C" 
			},
			{
				"x": 2.697463008,
				"y": -1.3826865502,
				"z": 1.7289810805,
				"element": "N" 
			},
			{
				"x": 3.120871856,
				"y": -2.6314835026,
				"z": 1.3087233128,
				"element": "C" 
			},
			{
				"x": 2.0587419507,
				"y": -3.7098908576,
				"z": 1.1783908952,
				"element": "C" 
			},
			{
				"x": 4.2973616753,
				"y": -2.8288129302,
				"z": 1.0457652907,
				"element": "O" 
			},
			{
				"x": -3.1727537363,
				"y": 1.304632599,
				"z": -1.8352333173,
				"element": "C" 
			},
			{
				"x": -2.6131741872,
				"y": 1.6565922402,
				"z": -3.0128876814,
				"element": "O" 
			},
			{
				"x": -4.1723901522,
				"y": 0.632681764,
				"z": -1.7722647679,
				"element": "O" 
			},
			{
				"x": -3.5096965121,
				"y": 3.7414820802,
				"z": -0.4645513467,
				"element": "H" 
			},
			{
				"x": -2.9151971008,
				"y": 3.1307248834,
				"z": 1.1006070542,
				"element": "H" 
			},
			{
				"x": -4.3312689154,
				"y": 2.3859133549,
				"z": 0.3272115681,
				"element": "H" 
			},
			{
				"x": -2.2954798897,
				"y": 0.9779344134,
				"z": 0.0903033623,
				"element": "H" 
			},
			{
				"x": -1.0561933256,
				"y": 3.4258740139,
				"z": -0.6531871195,
				"element": "H" 
			},
			{
				"x": -0.8971073635,
				"y": -0.1459053169,
				"z": -1.0823249634,
				"element": "H" 
			},
			{
				"x": 0.8233091511,
				"y": -1.0519965641,
				"z": -2.6746899116,
				"element": "H" 
			},
			{
				"x": 0.0755613462,
				"y": 0.4305323837,
				"z": -3.2863924703,
				"element": "H" 
			},
			{
				"x": 1.7022053188,
				"y": 0.4987045037,
				"z": -2.5777707177,
				"element": "H" 
			},
			{
				"x": 1.8860699202,
				"y": -0.5004028682,
				"z": -0.2300593107,
				"element": "H" 
			},
			{
				"x": 0.885695833,
				"y": -1.8932853198,
				"z": 2.6404568777,
				"element": "H" 
			},
			{
				"x": 0.5457250332,
				"y": 0.3042466259,
				"z": 3.7470318179,
				"element": "H" 
			},
			{
				"x": 2.0959720712,
				"y": -0.4350682052,
				"z": 4.2242319629,
				"element": "H" 
			},
			{
				"x": 2.0607926066,
				"y": 0.9059414221,
				"z": 3.0566773884,
				"element": "H" 
			},
			{
				"x": 3.4662980727,
				"y": -0.741247534,
				"z": 1.885306932,
				"element": "H" 
			},
			{
				"x": 1.1982650698,
				"y": -3.3681188075,
				"z": 0.5952133988,
				"element": "H" 
			},
			{
				"x": 1.6931976999,
				"y": -4.0198358199,
				"z": 2.1639277896,
				"element": "H" 
			},
			{
				"x": 2.5147550391,
				"y": -4.5702107676,
				"z": 0.6896377301,
				"element": "H" 
			},
			{
				"x": -1.8406039344,
				"y": 2.2138902738,
				"z": -2.8006332141,
				"element": "H" 
			}
		],
		 "valence_orbital": [ 
			{
				"type": "occ",
				"energy": -0.28908,
				"method": "rhf"
			},
			{
				"type": "occ",
				"energy": -0.26993,
				"method": "rhf"
			},
			{
				"type": "occ",
				"energy": -0.26016,
				"method": "rhf"
			},
			{
				"type": "occ",
				"energy": -0.25975,
				"method": "rhf"
			},
			{
				"type": "occ",
				"energy": -0.25123,
				"method": "rhf"
			},
			{
				"type": "unocc",
				"energy": -0.01253,
				"method": "rhf"
			},
			{
				"type": "unocc",
				"energy": 0.00088,
				"method": "rhf"
			},
			{
				"type": "unocc",
				"energy": 0.00788,
				"method": "rhf"
			},
			{
				"type": "unocc",
				"energy": 0.0144,
				"method": "rhf"
			},
			{
				"type": "unocc",
				"energy": 0.05756,
				"method": "rhf"
			}
		],
		"cosmo_sigma_profile": { 
			"-0.025": 0.0,
			"-0.024": 0.0,
			"-0.023": 0.0,
			"-0.022": 0.0,
			"-0.021": 0.0,
			"-0.02": 0.0,
			"-0.019": 0.0,
			"-0.018": 0.0,
			"-0.017": 0.0,
			"-0.016": 0.0,
			"-0.015": 0.0340288086402,
			"-0.014": 1.13685462671,
			"-0.013": 2.74620654587,
			"-0.012": 3.50207450142,
			"-0.011": 5.53667094209,
			"-0.01": 6.21704561153,
			"-0.009": 5.86826663269,
			"-0.008": 7.46479247782,
			"-0.007": 12.3616563037,
			"-0.006": 14.2406082048,
			"-0.005": 19.7407978001,
			"-0.004": 27.4041654098,
			"-0.003": 31.3389860882,
			"-0.002": 29.0825893399,
			"-0.001": 30.7036248971,
			"0.0": 16.8279239561,
			"0.001": 8.78670287112,
			"0.002": 6.90771597724,
			"0.003": 7.84495436166,
			"0.004": 6.59018659821,
			"0.005": 6.2925218311,
			"0.006": 6.0204886706,
			"0.007": 6.36090615524,
			"0.008": 6.26255334225,
			"0.009": 6.52281995795,
			"0.01": 9.98186028954,
			"0.011": 8.24178944808,
			"0.012": 12.418315074,
			"0.013": 12.2808124638,
			"0.014": 5.86780244288,
			"0.015": 1.06715499886,
			"0.016": 0.0,
			"0.017": 0.0,
			"0.018": 0.0,
			"0.019": 0.0,
			"0.02": 0.0,
			"0.021": 0.0,
			"0.022": 0.0,
			"0.023": 0.0,
			"0.024": 0.0,
			"0.025": 0.0
		}
	}
}
