{
	 "smiles": "NC(=O)CS(=O)C(C1=CC=CC=C1)C1=CC=CC=C1", 
	 "Tm": 437.15, 
	 "num_atms": 34, 
	 "gaussian": { 
		 "optdone": 1, 
		 "sigma_profile": "yes", 
		 "theory": "DFT", 
		 "functional": "B3LYP", 
		 "basiset": "6-31G**", 
		 "properties": { 
			 "R2extent": 5471.267, 
			 "electric_dipole_moment_norm": 2.28984315183, 
			 "electric_quadrupole_moment_norm": 10.8948955167, 
			 "total_energy": -1183.99874553, 
			 "HOMO_LUMO_gap": 0.20011, 
			 "cosmo_polarized_energy": -16.91, 
			 "cosmo_cavitation_energy": 37.81, 
			 "cosmo_dispersion_energy": -26.56, 
			 "cosmo_repulsion_energy": 2.02, 
			 "cosmo_total_nonelectrostatic_energy": 13.27, 
			 "SMD_solvation_energy": 6.19 
		},
		"coords": [
			{
				"x": 2.8681031591,
				"y": -1.4854853512,
				"z": -0.4429768378,
				"element": "N" 
			},
			{
				"x": 1.6766591932,
				"y": -1.9395575348,
				"z": -0.91401238,
				"element": "C" 
			},
			{
				"x": 1.4067831449,
				"y": -2.0753683893,
				"z": -2.1021711079,
				"element": "O" 
			},
			{
				"x": 0.6685408208,
				"y": -2.3118594847,
				"z": 0.1778637163,
				"element": "C" 
			},
			{
				"x": 0.3697117361,
				"y": -0.9826723801,
				"z": 1.4411230806,
				"element": "S" 
			},
			{
				"x": 1.7491630265,
				"y": -0.5936915019,
				"z": 1.9614806728,
				"element": "O" 
			},
			{
				"x": -0.2273309168,
				"y": 0.3820557273,
				"z": 0.2518667553,
				"element": "C" 
			},
			{
				"x": -0.1546053947,
				"y": 1.7181235833,
				"z": 0.9661894515,
				"element": "C" 
			},
			{
				"x": -0.5591821982,
				"y": 1.897439339,
				"z": 2.2970226819,
				"element": "C" 
			},
			{
				"x": -0.5023174082,
				"y": 3.156734919,
				"z": 2.8951127108,
				"element": "C" 
			},
			{
				"x": -0.041292231,
				"y": 4.2581563984,
				"z": 2.1732946539,
				"element": "C" 
			},
			{
				"x": 0.3705373391,
				"y": 4.0905043522,
				"z": 0.8503074636,
				"element": "C" 
			},
			{
				"x": 0.3188107477,
				"y": 2.829926376,
				"z": 0.2561543436,
				"element": "C" 
			},
			{
				"x": -1.58570682,
				"y": -0.0033240289,
				"z": -0.3047496364,
				"element": "C" 
			},
			{
				"x": -2.7691024777,
				"y": 0.199160399,
				"z": 0.4213492949,
				"element": "C" 
			},
			{
				"x": -4.0026993955,
				"y": -0.176812169,
				"z": -0.110491765,
				"element": "C" 
			},
			{
				"x": -4.0753493512,
				"y": -0.7595487473,
				"z": -1.3767862399,
				"element": "C" 
			},
			{
				"x": -2.9041834546,
				"y": -0.9666106982,
				"z": -2.1076278568,
				"element": "C" 
			},
			{
				"x": -1.6689721357,
				"y": -0.5939674426,
				"z": -1.5768147151,
				"element": "C" 
			},
			{
				"x": 2.9046099576,
				"y": -1.132413888,
				"z": 0.5159131096,
				"element": "H" 
			},
			{
				"x": 3.5151780362,
				"y": -1.1280085843,
				"z": -1.1319217829,
				"element": "H" 
			},
			{
				"x": -0.2836107559,
				"y": -2.581784187,
				"z": -0.2774357596,
				"element": "H" 
			},
			{
				"x": 1.0410099332,
				"y": -3.1489227039,
				"z": 0.7762466379,
				"element": "H" 
			},
			{
				"x": 0.5055779741,
				"y": 0.3849093238,
				"z": -0.5595385535,
				"element": "H" 
			},
			{
				"x": -0.9067661248,
				"y": 1.0509701979,
				"z": 2.8823434959,
				"element": "H" 
			},
			{
				"x": -0.8135780493,
				"y": 3.2736178855,
				"z": 3.9290581251,
				"element": "H" 
			},
			{
				"x": 0.0035695798,
				"y": 5.2376022844,
				"z": 2.6403449461,
				"element": "H" 
			},
			{
				"x": 0.7379981862,
				"y": 4.9393343357,
				"z": 0.2808797921,
				"element": "H" 
			},
			{
				"x": 0.6438608663,
				"y": 2.7060866177,
				"z": -0.7736624368,
				"element": "H" 
			},
			{
				"x": -2.7315834372,
				"y": 0.6733279617,
				"z": 1.3961660493,
				"element": "H" 
			},
			{
				"x": -4.9085144833,
				"y": -0.0083378696,
				"z": 0.4648964262,
				"element": "H" 
			},
			{
				"x": -5.0370856468,
				"y": -1.0477492461,
				"z": -1.7912189499,
				"element": "H" 
			},
			{
				"x": -2.9480762949,
				"y": -1.4186452134,
				"z": -3.0942415812,
				"element": "H" 
			},
			{
				"x": -0.761657125,
				"y": -0.7816902807,
				"z": -2.1447638044,
				"element": "H" 
			}
		],
		 "valence_orbital": [ 
			{
				"type": "occ",
				"energy": -0.2578,
				"method": "rhf"
			},
			{
				"type": "occ",
				"energy": -0.25628,
				"method": "rhf"
			},
			{
				"type": "occ",
				"energy": -0.25457,
				"method": "rhf"
			},
			{
				"type": "occ",
				"energy": -0.24694,
				"method": "rhf"
			},
			{
				"type": "occ",
				"energy": -0.23188,
				"method": "rhf"
			},
			{
				"type": "unocc",
				"energy": -0.03177,
				"method": "rhf"
			},
			{
				"type": "unocc",
				"energy": -0.01326,
				"method": "rhf"
			},
			{
				"type": "unocc",
				"energy": -0.01005,
				"method": "rhf"
			},
			{
				"type": "unocc",
				"energy": -0.00513,
				"method": "rhf"
			},
			{
				"type": "unocc",
				"energy": 0.00064,
				"method": "rhf"
			}
		],
		"cosmo_sigma_profile": { 
			"-0.025": 0.0,
			"-0.024": 0.0,
			"-0.023": 0.0,
			"-0.022": 0.0,
			"-0.021": 0.0,
			"-0.02": 0.0,
			"-0.019": 0.0,
			"-0.018": 0.0,
			"-0.017": 0.0,
			"-0.016": 0.0,
			"-0.015": 0.0,
			"-0.014": 0.444965900448,
			"-0.013": 1.19478530575,
			"-0.012": 1.41585896526,
			"-0.011": 0.902581113313,
			"-0.01": 0.741671444868,
			"-0.009": 3.70838628715,
			"-0.008": 4.30645923605,
			"-0.007": 8.83328455249,
			"-0.006": 21.7716353715,
			"-0.005": 27.0263901247,
			"-0.004": 26.2952778435,
			"-0.003": 21.5189601376,
			"-0.002": 19.3027575076,
			"-0.001": 17.1697862442,
			"0.0": 15.8921799935,
			"0.001": 18.1575567774,
			"0.002": 16.8705471199,
			"0.003": 19.2767266516,
			"0.004": 19.7215485993,
			"0.005": 19.9991983431,
			"0.006": 6.2241526578,
			"0.007": 3.0241175053,
			"0.008": 3.48074071741,
			"0.009": 2.58278874923,
			"0.01": 3.19788637142,
			"0.011": 3.20238053,
			"0.012": 4.24630284006,
			"0.013": 7.39925830006,
			"0.014": 3.94719819119,
			"0.015": 0.626950598291,
			"0.016": 0.0,
			"0.017": 0.0,
			"0.018": 0.0,
			"0.019": 0.0,
			"0.02": 0.0,
			"0.021": 0.0,
			"0.022": 0.0,
			"0.023": 0.0,
			"0.024": 0.0,
			"0.025": 0.0
		}
	}
}
