{
	 "smiles": "CNS(=O)(=O)C1=CC=C(O1)C(O)=O", 
	 "Tm": 438.15, 
	 "num_atms": 20, 
	 "gaussian": { 
		 "optdone": 1, 
		 "sigma_profile": "yes", 
		 "theory": "DFT", 
		 "functional": "B3LYP", 
		 "basiset": "6-31G**", 
		 "properties": { 
			 "R2extent": 3921.18, 
			 "electric_dipole_moment_norm": 4.06776194608, 
			 "electric_quadrupole_moment_norm": 23.7249348368, 
			 "total_energy": -1061.81381656, 
			 "HOMO_LUMO_gap": 0.19339, 
			 "cosmo_polarized_energy": -22.01, 
			 "cosmo_cavitation_energy": 27.24, 
			 "cosmo_dispersion_energy": -19.82, 
			 "cosmo_repulsion_energy": 1.55, 
			 "cosmo_total_nonelectrostatic_energy": 8.97, 
			 "SMD_solvation_energy": 5.61 
		},
		"coords": [
			{
				"x": 0.8949477516,
				"y": -2.312539107,
				"z": 0.6585964479,
				"element": "C" 
			},
			{
				"x": -0.5429231362,
				"y": -2.5896423059,
				"z": 0.6613904974,
				"element": "N" 
			},
			{
				"x": -1.5013073644,
				"y": -2.0345771578,
				"z": -0.5794857311,
				"element": "S" 
			},
			{
				"x": -2.858595824,
				"y": -2.4612425508,
				"z": -0.2600108934,
				"element": "O" 
			},
			{
				"x": -0.8192364963,
				"y": -2.3493137139,
				"z": -1.8305312533,
				"element": "O" 
			},
			{
				"x": -1.4702382235,
				"y": -0.2554456118,
				"z": -0.498556327,
				"element": "C" 
			},
			{
				"x": -0.8334244112,
				"y": 0.674205469,
				"z": -1.2736287927,
				"element": "C" 
			},
			{
				"x": -1.1624889657,
				"y": 1.9430338246,
				"z": -0.7124688647,
				"element": "C" 
			},
			{
				"x": -1.9707640085,
				"y": 1.6948562731,
				"z": 0.3623150184,
				"element": "C" 
			},
			{
				"x": -2.1652457772,
				"y": 0.343407449,
				"z": 0.5073856175,
				"element": "O" 
			},
			{
				"x": -2.6358889672,
				"y": 2.6022083613,
				"z": 1.3193800998,
				"element": "C" 
			},
			{
				"x": -3.4497168687,
				"y": 2.0106079061,
				"z": 2.2221284826,
				"element": "O" 
			},
			{
				"x": -2.4603963794,
				"y": 3.7970394775,
				"z": 1.296455385,
				"element": "O" 
			},
			{
				"x": 1.301169473,
				"y": -2.6004702226,
				"z": -0.3118684504,
				"element": "H" 
			},
			{
				"x": 1.1379181937,
				"y": -1.2599422248,
				"z": 0.8559293777,
				"element": "H" 
			},
			{
				"x": 1.3600869983,
				"y": -2.9353176325,
				"z": 1.4257363103,
				"element": "H" 
			},
			{
				"x": -1.021528509,
				"y": -2.5285619854,
				"z": 1.5541357247,
				"element": "H" 
			},
			{
				"x": -0.2250947911,
				"y": 0.4615267898,
				"z": -2.139608893,
				"element": "H" 
			},
			{
				"x": -0.856525178,
				"y": 2.9214398622,
				"z": -1.0515190514,
				"element": "H" 
			},
			{
				"x": -3.497347516,
				"y": 1.0552271002,
				"z": 2.0598252958,
				"element": "H" 
			}
		],
		 "valence_orbital": [ 
			{
				"type": "occ",
				"energy": -0.32603,
				"method": "rhf"
			},
			{
				"type": "occ",
				"energy": -0.32329,
				"method": "rhf"
			},
			{
				"type": "occ",
				"energy": -0.30691,
				"method": "rhf"
			},
			{
				"type": "occ",
				"energy": -0.29363,
				"method": "rhf"
			},
			{
				"type": "occ",
				"energy": -0.27138,
				"method": "rhf"
			},
			{
				"type": "unocc",
				"energy": -0.07799,
				"method": "rhf"
			},
			{
				"type": "unocc",
				"energy": -0.00718,
				"method": "rhf"
			},
			{
				"type": "unocc",
				"energy": 0.04693,
				"method": "rhf"
			},
			{
				"type": "unocc",
				"energy": 0.05152,
				"method": "rhf"
			},
			{
				"type": "unocc",
				"energy": 0.06624,
				"method": "rhf"
			}
		],
		"cosmo_sigma_profile": { 
			"-0.025": 0.0,
			"-0.024": 0.0,
			"-0.023": 0.0,
			"-0.022": 0.0,
			"-0.021": 0.0,
			"-0.02": 0.0,
			"-0.019": 0.0,
			"-0.018": 0.0405879939311,
			"-0.017": 0.777293893092,
			"-0.016": 1.5924603894,
			"-0.015": 2.19422850521,
			"-0.014": 1.61971517528,
			"-0.013": 1.30972322194,
			"-0.012": 2.52923510251,
			"-0.011": 2.60977582788,
			"-0.01": 3.13882070719,
			"-0.009": 5.03775764865,
			"-0.008": 5.85598063055,
			"-0.007": 8.60065547137,
			"-0.006": 9.67292739518,
			"-0.005": 12.4254986815,
			"-0.004": 14.5495136389,
			"-0.003": 19.1643132682,
			"-0.002": 13.8742004626,
			"-0.001": 11.1988881297,
			"0.0": 11.6757684192,
			"0.001": 7.41907877584,
			"0.002": 4.57828954752,
			"0.003": 5.80378716977,
			"0.004": 6.16222252603,
			"0.005": 6.6716140009,
			"0.006": 7.00892730468,
			"0.007": 6.01832151193,
			"0.008": 6.42806312429,
			"0.009": 12.127975067,
			"0.01": 14.3446982559,
			"0.011": 10.7929868872,
			"0.012": 2.40258666106,
			"0.013": 0.201996012466,
			"0.014": 0.0,
			"0.015": 0.0,
			"0.016": 0.0,
			"0.017": 0.0,
			"0.018": 0.0,
			"0.019": 0.0,
			"0.02": 0.0,
			"0.021": 0.0,
			"0.022": 0.0,
			"0.023": 0.0,
			"0.024": 0.0,
			"0.025": 0.0
		}
	}
}
