{
	 "smiles": "NC(=O)C1CCCCC1O", 
	 "Tm": 390.15, 
	 "num_atms": 23, 
	 "gaussian": { 
		 "optdone": 1, 
		 "sigma_profile": "yes", 
		 "theory": "DFT", 
		 "functional": "B3LYP", 
		 "basiset": "6-31G**", 
		 "properties": { 
			 "R2extent": 1817.1837, 
			 "electric_dipole_moment_norm": 4.7801852893, 
			 "electric_quadrupole_moment_norm": 13.0397043525, 
			 "total_energy": -479.801473431, 
			 "HOMO_LUMO_gap": 0.26665, 
			 "cosmo_polarized_energy": -13.7, 
			 "cosmo_cavitation_energy": 23.64, 
			 "cosmo_dispersion_energy": -18.01, 
			 "cosmo_repulsion_energy": 1.47, 
			 "cosmo_total_nonelectrostatic_energy": 7.1, 
			 "SMD_solvation_energy": 3.83 
		},
		"coords": [
			{
				"x": -1.3796699978,
				"y": -1.7308858646,
				"z": 1.8027993995,
				"element": "N" 
			},
			{
				"x": -0.2550581516,
				"y": -2.0298344637,
				"z": 1.0999276176,
				"element": "C" 
			},
			{
				"x": 0.1656071967,
				"y": -3.187024633,
				"z": 1.026313912,
				"element": "O" 
			},
			{
				"x": 0.4791560363,
				"y": -0.8961970405,
				"z": 0.3902623506,
				"element": "C" 
			},
			{
				"x": -0.1383115602,
				"y": 0.5086901604,
				"z": 0.4286831673,
				"element": "C" 
			},
			{
				"x": 0.8610982988,
				"y": 1.5588959034,
				"z": -0.1261365381,
				"element": "C" 
			},
			{
				"x": 1.8473848403,
				"y": 0.9508162931,
				"z": -1.1501311152,
				"element": "C" 
			},
			{
				"x": 1.1775565071,
				"y": -0.1606174135,
				"z": -1.9638857211,
				"element": "C" 
			},
			{
				"x": 0.7493834472,
				"y": -1.3478455089,
				"z": -1.0786670535,
				"element": "C" 
			},
			{
				"x": 1.7701931414,
				"y": -2.326935963,
				"z": -1.1063197255,
				"element": "O" 
			},
			{
				"x": -1.8737298093,
				"y": -2.4908085311,
				"z": 2.2462785068,
				"element": "H" 
			},
			{
				"x": -1.7691456299,
				"y": -0.8041424727,
				"z": 1.8368912122,
				"element": "H" 
			},
			{
				"x": 1.4648555382,
				"y": -0.8586115571,
				"z": 0.8732889605,
				"element": "H" 
			},
			{
				"x": -0.4227827953,
				"y": 0.7892068315,
				"z": 1.450219935,
				"element": "H" 
			},
			{
				"x": -1.0601279759,
				"y": 0.5143221153,
				"z": -0.1685778437,
				"element": "H" 
			},
			{
				"x": 1.423944025,
				"y": 2.0046062126,
				"z": 0.7020559715,
				"element": "H" 
			},
			{
				"x": 0.296877046,
				"y": 2.3763934963,
				"z": -0.5894833268,
				"element": "H" 
			},
			{
				"x": 2.2333255569,
				"y": 1.7358528003,
				"z": -1.8092874853,
				"element": "H" 
			},
			{
				"x": 2.7172130832,
				"y": 0.5302762278,
				"z": -0.6319263876,
				"element": "H" 
			},
			{
				"x": 0.2991489625,
				"y": 0.2451509619,
				"z": -2.4818157884,
				"element": "H" 
			},
			{
				"x": 1.8487363809,
				"y": -0.5540922973,
				"z": -2.7332634451,
				"element": "H" 
			},
			{
				"x": -0.1893591225,
				"y": -1.7664476956,
				"z": -1.4821650466,
				"element": "H" 
			},
			{
				"x": 1.496504982,
				"y": -2.9933675614,
				"z": -0.4494615559,
				"element": "H" 
			}
		],
		 "valence_orbital": [ 
			{
				"type": "occ",
				"energy": -0.31206,
				"method": "rhf"
			},
			{
				"type": "occ",
				"energy": -0.30486,
				"method": "rhf"
			},
			{
				"type": "occ",
				"energy": -0.27602,
				"method": "rhf"
			},
			{
				"type": "occ",
				"energy": -0.25155,
				"method": "rhf"
			},
			{
				"type": "occ",
				"energy": -0.24517,
				"method": "rhf"
			},
			{
				"type": "unocc",
				"energy": 0.02148,
				"method": "rhf"
			},
			{
				"type": "unocc",
				"energy": 0.06169,
				"method": "rhf"
			},
			{
				"type": "unocc",
				"energy": 0.09229,
				"method": "rhf"
			},
			{
				"type": "unocc",
				"energy": 0.09966,
				"method": "rhf"
			},
			{
				"type": "unocc",
				"energy": 0.11747,
				"method": "rhf"
			}
		],
		"cosmo_sigma_profile": { 
			"-0.025": 0.0,
			"-0.024": 0.0,
			"-0.023": 0.0,
			"-0.022": 0.0,
			"-0.021": 0.0,
			"-0.02": 0.0,
			"-0.019": 0.0,
			"-0.018": 0.0,
			"-0.017": 0.0,
			"-0.016": 0.0,
			"-0.015": 0.0396505577188,
			"-0.014": 1.37728866479,
			"-0.013": 2.60101255766,
			"-0.012": 2.18016020657,
			"-0.011": 1.91582209935,
			"-0.01": 2.78780365082,
			"-0.009": 1.5449364449,
			"-0.008": 2.02317437253,
			"-0.007": 1.97375273182,
			"-0.006": 2.70571060879,
			"-0.005": 4.25720426166,
			"-0.004": 10.050283009,
			"-0.003": 20.5022523259,
			"-0.002": 24.9728879892,
			"-0.001": 20.7480809782,
			"0.0": 19.3283232408,
			"0.001": 16.7721966489,
			"0.002": 5.55236173596,
			"0.003": 5.56247113978,
			"0.004": 3.69067896289,
			"0.005": 3.14296255657,
			"0.006": 3.15315356194,
			"0.007": 2.41121106428,
			"0.008": 1.8991633254,
			"0.009": 2.73907454391,
			"0.01": 2.74059990252,
			"0.011": 2.33100046762,
			"0.012": 3.44319338361,
			"0.013": 4.17465285746,
			"0.014": 3.73086610494,
			"0.015": 1.92236191349,
			"0.016": 0.0,
			"0.017": 0.0,
			"0.018": 0.0,
			"0.019": 0.0,
			"0.02": 0.0,
			"0.021": 0.0,
			"0.022": 0.0,
			"0.023": 0.0,
			"0.024": 0.0,
			"0.025": 0.0
		}
	}
}
