{
	 "smiles": "OC(=O)C=CC1=C(F)C=C(Br)C=C1", 
	 "Tm": 494.15, 
	 "num_atms": 19, 
	 "gaussian": { 
		 "optdone": 1, 
		 "sigma_profile": "yes", 
		 "theory": "DFT", 
		 "functional": "B3LYP", 
		 "basiset": "6-31G**", 
		 "properties": { 
			 "R2extent": 6485.2071, 
			 "electric_dipole_moment_norm": 2.91709058138, 
			 "electric_quadrupole_moment_norm": 9.84574543394, 
			 "total_energy": -3168.26102598, 
			 "HOMO_LUMO_gap": 0.16514, 
			 "cosmo_polarized_energy": -10.53, 
			 "cosmo_cavitation_energy": 27.42, 
			 "cosmo_dispersion_energy": -20.39, 
			 "cosmo_repulsion_energy": 1.59, 
			 "cosmo_total_nonelectrostatic_energy": 8.62, 
			 "SMD_solvation_energy": 5.36 
		},
		"coords": [
			{
				"x": 0.6951380918,
				"y": 3.4260486678,
				"z": -0.3124851123,
				"element": "O" 
			},
			{
				"x": 0.9891173903,
				"y": 3.0337813665,
				"z": 0.9575148223,
				"element": "C" 
			},
			{
				"x": 1.3569132024,
				"y": 3.8231652917,
				"z": 1.8062533709,
				"element": "O" 
			},
			{
				"x": 0.8208022543,
				"y": 1.5888002875,
				"z": 1.1953177598,
				"element": "C" 
			},
			{
				"x": 0.41244477,
				"y": 0.7316844719,
				"z": 0.2385433576,
				"element": "C" 
			},
			{
				"x": 0.2037337065,
				"y": -0.7111017461,
				"z": 0.3307348458,
				"element": "C" 
			},
			{
				"x": 0.4022602634,
				"y": -1.4899748467,
				"z": 1.4849247093,
				"element": "C" 
			},
			{
				"x": 0.8188560185,
				"y": -0.9024251282,
				"z": 2.6241337644,
				"element": "F" 
			},
			{
				"x": 0.1900692902,
				"y": -2.8605115261,
				"z": 1.5232093854,
				"element": "C" 
			},
			{
				"x": -0.2410461495,
				"y": -3.4993315042,
				"z": 0.3621036234,
				"element": "C" 
			},
			{
				"x": -0.5388300108,
				"y": -5.3796907286,
				"z": 0.3910408064,
				"element": "Br" 
			},
			{
				"x": -0.4558978451,
				"y": -2.7817532953,
				"z": -0.8147775413,
				"element": "C" 
			},
			{
				"x": -0.23221478,
				"y": -1.4092796967,
				"z": -0.8134860481,
				"element": "C" 
			},
			{
				"x": 0.8469711491,
				"y": 4.3847776464,
				"z": -0.3286826903,
				"element": "H" 
			},
			{
				"x": 1.0537570723,
				"y": 1.2776155106,
				"z": 2.2039051556,
				"element": "H" 
			},
			{
				"x": 0.2040686451,
				"y": 1.1491740081,
				"z": -0.7438641897,
				"element": "H" 
			},
			{
				"x": 0.361915986,
				"y": -3.4014303762,
				"z": 2.4453815019,
				"element": "H" 
			},
			{
				"x": -0.7910558265,
				"y": -3.2879212165,
				"z": -1.7119691428,
				"element": "H" 
			},
			{
				"x": -0.3982032279,
				"y": -0.8464271859,
				"z": -1.7275983783,
				"element": "H" 
			}
		],
		 "valence_orbital": [ 
			{
				"type": "occ",
				"energy": -0.30209,
				"method": "rhf"
			},
			{
				"type": "occ",
				"energy": -0.29697,
				"method": "rhf"
			},
			{
				"type": "occ",
				"energy": -0.27524,
				"method": "rhf"
			},
			{
				"type": "occ",
				"energy": -0.27383,
				"method": "rhf"
			},
			{
				"type": "occ",
				"energy": -0.24327,
				"method": "rhf"
			},
			{
				"type": "unocc",
				"energy": -0.07813,
				"method": "rhf"
			},
			{
				"type": "unocc",
				"energy": -0.02742,
				"method": "rhf"
			},
			{
				"type": "unocc",
				"energy": -0.00907,
				"method": "rhf"
			},
			{
				"type": "unocc",
				"energy": 0.00311,
				"method": "rhf"
			},
			{
				"type": "unocc",
				"energy": 0.07804,
				"method": "rhf"
			}
		],
		"cosmo_sigma_profile": { 
			"-0.025": 0.0,
			"-0.024": 0.0,
			"-0.023": 0.0,
			"-0.022": 0.0,
			"-0.021": 0.0,
			"-0.02": 0.0,
			"-0.019": 0.0,
			"-0.018": 0.54004731604,
			"-0.017": 0.825876288147,
			"-0.016": 1.11679319728,
			"-0.015": 0.308529535908,
			"-0.014": 0.910117499794,
			"-0.013": 0.991797627111,
			"-0.012": 0.769813164263,
			"-0.011": 0.405316107434,
			"-0.01": 0.557494033003,
			"-0.009": 2.46156727084,
			"-0.008": 6.24183102673,
			"-0.007": 6.69262351531,
			"-0.006": 7.96018395816,
			"-0.005": 7.10905706098,
			"-0.004": 8.86216708585,
			"-0.003": 9.38691445903,
			"-0.002": 12.7651588155,
			"-0.001": 22.8098491563,
			"0.0": 27.3524901574,
			"0.001": 29.7143703634,
			"0.002": 21.0620866517,
			"0.003": 17.1289436404,
			"0.004": 13.176018643,
			"0.005": 3.26481696757,
			"0.006": 2.95336666975,
			"0.007": 2.65436114364,
			"0.008": 2.26785891751,
			"0.009": 1.8791987368,
			"0.01": 1.45566757534,
			"0.011": 3.03504218878,
			"0.012": 5.57534878193,
			"0.013": 1.72804192027,
			"0.014": 0.0677714866184,
			"0.015": 0.0,
			"0.016": 0.0,
			"0.017": 0.0,
			"0.018": 0.0,
			"0.019": 0.0,
			"0.02": 0.0,
			"0.021": 0.0,
			"0.022": 0.0,
			"0.023": 0.0,
			"0.024": 0.0,
			"0.025": 0.0
		}
	}
}
