{
	 "smiles": "CN(C)C1=CC=C(C=C1)N=NC1=CC=C(C)C=C1", 
	 "Tm": 439.15, 
	 "num_atms": 35, 
	 "gaussian": { 
		 "optdone": 1, 
		 "sigma_profile": "yes", 
		 "theory": "DFT", 
		 "functional": "B3LYP", 
		 "basiset": "6-31G**", 
		 "properties": { 
			 "R2extent": 6203.7344, 
			 "electric_dipole_moment_norm": 5.92030629951, 
			 "electric_quadrupole_moment_norm": 21.2866319421, 
			 "total_energy": -746.033828415, 
			 "HOMO_LUMO_gap": 0.12652, 
			 "cosmo_polarized_energy": -13.04, 
			 "cosmo_cavitation_energy": 37.97, 
			 "cosmo_dispersion_energy": -26.86, 
			 "cosmo_repulsion_energy": 2.08, 
			 "cosmo_total_nonelectrostatic_energy": 13.19, 
			 "SMD_solvation_energy": 4.22 
		},
		"coords": [
			{
				"x": 0.226929267,
				"y": -2.9560601827,
				"z": -2.9366149806,
				"element": "C" 
			},
			{
				"x": 0.0223384679,
				"y": -1.5857920847,
				"z": -3.3762467237,
				"element": "N" 
			},
			{
				"x": -0.1760563457,
				"y": -1.3299399533,
				"z": -4.7932696302,
				"element": "C" 
			},
			{
				"x": 0.3242922938,
				"y": -0.5375670664,
				"z": -2.5255391928,
				"element": "C" 
			},
			{
				"x": 0.2949679302,
				"y": 0.8066674761,
				"z": -2.9708212355,
				"element": "C" 
			},
			{
				"x": 0.5926963963,
				"y": 1.8466483619,
				"z": -2.1038911769,
				"element": "C" 
			},
			{
				"x": 0.8770373063,
				"y": 1.6178031605,
				"z": -0.7484146354,
				"element": "C" 
			},
			{
				"x": 0.9409087713,
				"y": 0.2843846043,
				"z": -0.305621506,
				"element": "C" 
			},
			{
				"x": 0.6885306307,
				"y": -0.7665057784,
				"z": -1.1744692391,
				"element": "C" 
			},
			{
				"x": 1.2534851288,
				"y": 2.7735162836,
				"z": -0.0055366311,
				"element": "N" 
			},
			{
				"x": 1.0904285083,
				"y": 2.9206294722,
				"z": 1.2296346123,
				"element": "N" 
			},
			{
				"x": 0.3035909018,
				"y": 2.0489840511,
				"z": 2.0498779784,
				"element": "C" 
			},
			{
				"x": -1.0420115136,
				"y": 1.7645587802,
				"z": 1.7685710309,
				"element": "C" 
			},
			{
				"x": -1.811826718,
				"y": 1.0637642158,
				"z": 2.6921626638,
				"element": "C" 
			},
			{
				"x": -1.2706728552,
				"y": 0.6119887432,
				"z": 3.9055476647,
				"element": "C" 
			},
			{
				"x": -2.1061993238,
				"y": -0.1843609774,
				"z": 4.8797383354,
				"element": "C" 
			},
			{
				"x": 0.0690482529,
				"y": 0.9185464006,
				"z": 4.1794673468,
				"element": "C" 
			},
			{
				"x": 0.8421994745,
				"y": 1.6492040957,
				"z": 3.2793644221,
				"element": "C" 
			},
			{
				"x": 1.2809200892,
				"y": -3.1775135577,
				"z": -2.7100448014,
				"element": "H" 
			},
			{
				"x": -0.3649943753,
				"y": -3.1762475696,
				"z": -2.0407194902,
				"element": "H" 
			},
			{
				"x": -0.1015054136,
				"y": -3.6366828934,
				"z": -3.7232445256,
				"element": "H" 
			},
			{
				"x": 0.7221983672,
				"y": -0.9231988604,
				"z": -5.2819431534,
				"element": "H" 
			},
			{
				"x": -0.9983145018,
				"y": -0.6234101351,
				"z": -4.9556957552,
				"element": "H" 
			},
			{
				"x": -0.4411704879,
				"y": -2.263320197,
				"z": -5.2916473864,
				"element": "H" 
			},
			{
				"x": 0.0644624463,
				"y": 1.0386117917,
				"z": -4.0030005349,
				"element": "H" 
			},
			{
				"x": 0.6050773098,
				"y": 2.8714979479,
				"z": -2.4624370735,
				"element": "H" 
			},
			{
				"x": 1.2194945587,
				"y": 0.062660395,
				"z": 0.7176075851,
				"element": "H" 
			},
			{
				"x": 0.7789323177,
				"y": -1.7777669598,
				"z": -0.7978261675,
				"element": "H" 
			},
			{
				"x": -1.4801788843,
				"y": 2.106247246,
				"z": 0.8365280093,
				"element": "H" 
			},
			{
				"x": -2.8566847722,
				"y": 0.8626286414,
				"z": 2.4667787156,
				"element": "H" 
			},
			{
				"x": -3.142089184,
				"y": 0.1689457484,
				"z": 4.9022812625,
				"element": "H" 
			},
			{
				"x": -1.705888735,
				"y": -0.1204891105,
				"z": 5.895882209,
				"element": "H" 
			},
			{
				"x": -2.1340018245,
				"y": -1.2471721955,
				"z": 4.6065786697,
				"element": "H" 
			},
			{
				"x": 0.5082157681,
				"y": 0.5990107159,
				"z": 5.1215340829,
				"element": "H" 
			},
			{
				"x": 1.8677407481,
				"y": 1.9173293906,
				"z": 3.5148292508,
				"element": "H" 
			}
		],
		 "valence_orbital": [ 
			{
				"type": "occ",
				"energy": -0.25399,
				"method": "rhf"
			},
			{
				"type": "occ",
				"energy": -0.24585,
				"method": "rhf"
			},
			{
				"type": "occ",
				"energy": -0.23764,
				"method": "rhf"
			},
			{
				"type": "occ",
				"energy": -0.21052,
				"method": "rhf"
			},
			{
				"type": "occ",
				"energy": -0.18214,
				"method": "rhf"
			},
			{
				"type": "unocc",
				"energy": -0.05562,
				"method": "rhf"
			},
			{
				"type": "unocc",
				"energy": -0.00519,
				"method": "rhf"
			},
			{
				"type": "unocc",
				"energy": 0.0072,
				"method": "rhf"
			},
			{
				"type": "unocc",
				"energy": 0.01451,
				"method": "rhf"
			},
			{
				"type": "unocc",
				"energy": 0.04334,
				"method": "rhf"
			}
		],
		"cosmo_sigma_profile": { 
			"-0.025": 0.0,
			"-0.024": 0.0,
			"-0.023": 0.0,
			"-0.022": 0.0,
			"-0.021": 0.0,
			"-0.02": 0.0,
			"-0.019": 0.0,
			"-0.018": 0.0,
			"-0.017": 0.0,
			"-0.016": 0.0,
			"-0.015": 0.0,
			"-0.014": 0.0,
			"-0.013": 0.0,
			"-0.012": 0.0,
			"-0.011": 0.0,
			"-0.01": 0.0,
			"-0.009": 0.0,
			"-0.008": 0.115767422068,
			"-0.007": 1.84277239772,
			"-0.006": 10.1993742619,
			"-0.005": 23.5090761741,
			"-0.004": 34.8344128598,
			"-0.003": 33.9631828523,
			"-0.002": 34.0053239499,
			"-0.001": 26.8033989666,
			"0.0": 23.1274282351,
			"0.001": 16.3756554282,
			"0.002": 14.2439796548,
			"0.003": 15.8158954323,
			"0.004": 19.5503315005,
			"0.005": 22.8401382178,
			"0.006": 5.98960144087,
			"0.007": 1.89423168962,
			"0.008": 1.85921704035,
			"0.009": 2.08536416513,
			"0.01": 1.46682620702,
			"0.011": 2.19203556588,
			"0.012": 2.01434901763,
			"0.013": 2.53921024521,
			"0.014": 2.42984341858,
			"0.015": 1.59869770957,
			"0.016": 0.204826572158,
			"0.017": 0.0,
			"0.018": 0.0,
			"0.019": 0.0,
			"0.02": 0.0,
			"0.021": 0.0,
			"0.022": 0.0,
			"0.023": 0.0,
			"0.024": 0.0,
			"0.025": 0.0
		}
	}
}
