{
	 "smiles": "COC1=CC2=C(C=C1)C(C)(C)C(=O)N(CCC1=CC=C(C=C1)S(=O)(=O)NC(=O)NC1CCCCC1)C2=O", 
	 "Tm": 454.15, 
	 "num_atms": 70, 
	 "gaussian": { 
		 "optdone": 1, 
		 "sigma_profile": "yes", 
		 "theory": "DFT", 
		 "functional": "B3LYP", 
		 "basiset": "6-31G**", 
		 "properties": { 
			 "R2extent": 18535.5333, 
			 "electric_dipole_moment_norm": 7.00439710896, 
			 "electric_quadrupole_moment_norm": 28.2841457504, 
			 "total_energy": -2062.55358408, 
			 "HOMO_LUMO_gap": 0.17504, 
			 "cosmo_polarized_energy": -30.81, 
			 "cosmo_cavitation_energy": 70.99, 
			 "cosmo_dispersion_energy": -42.45, 
			 "cosmo_repulsion_energy": 3.08, 
			 "cosmo_total_nonelectrostatic_energy": 31.62, 
			 "SMD_solvation_energy": 11.02 
		},
		"coords": [
			{
				"x": -4.1465619068,
				"y": 1.7786418089,
				"z": 1.5510433714,
				"element": "C" 
			},
			{
				"x": -4.0038515284,
				"y": 1.0836607542,
				"z": 0.3186112148,
				"element": "O" 
			},
			{
				"x": -2.8225335336,
				"y": 1.2099913975,
				"z": -0.3526893085,
				"element": "C" 
			},
			{
				"x": -1.7229150848,
				"y": 1.9307051228,
				"z": 0.0989308089,
				"element": "C" 
			},
			{
				"x": -0.5504275208,
				"y": 1.9709254693,
				"z": -0.6756044581,
				"element": "C" 
			},
			{
				"x": -0.4552081981,
				"y": 1.3056683668,
				"z": -1.9000183729,
				"element": "C" 
			},
			{
				"x": -1.5824100542,
				"y": 0.5887716199,
				"z": -2.3382760722,
				"element": "C" 
			},
			{
				"x": -2.7458875692,
				"y": 0.5390173813,
				"z": -1.5861250533,
				"element": "C" 
			},
			{
				"x": 0.8240850354,
				"y": 1.3195085908,
				"z": -2.7176657057,
				"element": "C" 
			},
			{
				"x": 0.5609462032,
				"y": 1.8435225708,
				"z": -4.1524901936,
				"element": "C" 
			},
			{
				"x": 1.412787869,
				"y": -0.1178092755,
				"z": -2.7883144225,
				"element": "C" 
			},
			{
				"x": 1.9305025957,
				"y": 2.2088802551,
				"z": -2.1280819967,
				"element": "C" 
			},
			{
				"x": 2.9807707358,
				"y": 2.3660352857,
				"z": -2.7346309405,
				"element": "O" 
			},
			{
				"x": 1.7538659335,
				"y": 2.8231275264,
				"z": -0.8892619628,
				"element": "N" 
			},
			{
				"x": 2.876669223,
				"y": 3.6238379721,
				"z": -0.3628447895,
				"element": "C" 
			},
			{
				"x": 4.1019147434,
				"y": 2.784598293,
				"z": 0.0673610913,
				"element": "C" 
			},
			{
				"x": 3.7514278242,
				"y": 1.5665821476,
				"z": 0.8929351496,
				"element": "C" 
			},
			{
				"x": 3.2813687208,
				"y": 1.6859168531,
				"z": 2.2097704124,
				"element": "C" 
			},
			{
				"x": 2.9052244723,
				"y": 0.5608782253,
				"z": 2.9389967101,
				"element": "C" 
			},
			{
				"x": 2.9978215189,
				"y": -0.6970420783,
				"z": 2.3380091332,
				"element": "C" 
			},
			{
				"x": 3.4827992491,
				"y": -0.8504667841,
				"z": 1.0398433699,
				"element": "C" 
			},
			{
				"x": 3.8596843778,
				"y": 0.2873637792,
				"z": 0.3294640666,
				"element": "C" 
			},
			{
				"x": 2.473679781,
				"y": -2.1396374711,
				"z": 3.2498746553,
				"element": "S" 
			},
			{
				"x": 3.154503369,
				"y": -3.3082033046,
				"z": 2.7067751534,
				"element": "O" 
			},
			{
				"x": 2.4862950231,
				"y": -1.8251819194,
				"z": 4.6813764472,
				"element": "O" 
			},
			{
				"x": 0.8018366488,
				"y": -2.296664765,
				"z": 2.9432090661,
				"element": "N" 
			},
			{
				"x": 0.2270684863,
				"y": -2.4906285434,
				"z": 1.6730779149,
				"element": "C" 
			},
			{
				"x": 0.877217208,
				"y": -2.4465920164,
				"z": 0.6392499986,
				"element": "O" 
			},
			{
				"x": -1.1271775429,
				"y": -2.6979245228,
				"z": 1.7313720865,
				"element": "N" 
			},
			{
				"x": -1.8968426482,
				"y": -2.9847549057,
				"z": 0.5139768119,
				"element": "C" 
			},
			{
				"x": -1.6751396154,
				"y": -4.4258249556,
				"z": -0.0204300042,
				"element": "C" 
			},
			{
				"x": -2.7125200952,
				"y": -5.4041233127,
				"z": 0.5429729659,
				"element": "C" 
			},
			{
				"x": -4.1397744751,
				"y": -5.0271142619,
				"z": 0.07613746,
				"element": "C" 
			},
			{
				"x": -4.2922441318,
				"y": -3.5032820092,
				"z": -0.1499871036,
				"element": "C" 
			},
			{
				"x": -3.3903334593,
				"y": -2.7054834349,
				"z": 0.8007879581,
				"element": "C" 
			},
			{
				"x": 0.5805904521,
				"y": 2.7537239872,
				"z": -0.1182566801,
				"element": "C" 
			},
			{
				"x": 0.5064848108,
				"y": 3.3292810295,
				"z": 0.9594280403,
				"element": "O" 
			},
			{
				"x": -3.4183468918,
				"y": 1.433456964,
				"z": 2.295350074,
				"element": "H" 
			},
			{
				"x": -5.1553563567,
				"y": 1.5603533148,
				"z": 1.9038013709,
				"element": "H" 
			},
			{
				"x": -4.0346701272,
				"y": 2.8613915917,
				"z": 1.4160454576,
				"element": "H" 
			},
			{
				"x": -1.7202896453,
				"y": 2.4691293721,
				"z": 1.0375428559,
				"element": "H" 
			},
			{
				"x": -1.5506654073,
				"y": 0.0574327282,
				"z": -3.2841231299,
				"element": "H" 
			},
			{
				"x": -3.6145783504,
				"y": -0.0119938421,
				"z": -1.9321929826,
				"element": "H" 
			},
			{
				"x": 0.1187669056,
				"y": 2.8444863938,
				"z": -4.1325138694,
				"element": "H" 
			},
			{
				"x": 1.502419778,
				"y": 1.8895434696,
				"z": -4.7029120473,
				"element": "H" 
			},
			{
				"x": -0.1258521829,
				"y": 1.1798489277,
				"z": -4.6841460698,
				"element": "H" 
			},
			{
				"x": 2.3667104257,
				"y": -0.0990145158,
				"z": -3.320906872,
				"element": "H" 
			},
			{
				"x": 1.5652353935,
				"y": -0.5349703739,
				"z": -1.7886353729,
				"element": "H" 
			},
			{
				"x": 0.725113953,
				"y": -0.7775016642,
				"z": -3.3248617772,
				"element": "H" 
			},
			{
				"x": 3.1838057392,
				"y": 4.3252956659,
				"z": -1.1420462845,
				"element": "H" 
			},
			{
				"x": 2.4704725338,
				"y": 4.1778230203,
				"z": 0.4811997822,
				"element": "H" 
			},
			{
				"x": 4.6457224683,
				"y": 2.4746149141,
				"z": -0.8268161847,
				"element": "H" 
			},
			{
				"x": 4.7602525293,
				"y": 3.4531472169,
				"z": 0.6359723155,
				"element": "H" 
			},
			{
				"x": 3.1980145577,
				"y": 2.668049692,
				"z": 2.6659881878,
				"element": "H" 
			},
			{
				"x": 2.5534991321,
				"y": 0.6489587471,
				"z": 3.9610921858,
				"element": "H" 
			},
			{
				"x": 3.5459598537,
				"y": -1.837966802,
				"z": 0.60048882,
				"element": "H" 
			},
			{
				"x": 4.2350679219,
				"y": 0.1839709639,
				"z": -0.684587955,
				"element": "H" 
			},
			{
				"x": 0.2375083368,
				"y": -2.0129632814,
				"z": 3.7347018386,
				"element": "H" 
			},
			{
				"x": -1.5132144708,
				"y": -3.0320991573,
				"z": 2.6038854095,
				"element": "H" 
			},
			{
				"x": -1.5307300927,
				"y": -2.2797996483,
				"z": -0.2370643881,
				"element": "H" 
			},
			{
				"x": -1.7522763063,
				"y": -4.410087363,
				"z": -1.1150511027,
				"element": "H" 
			},
			{
				"x": -0.652288869,
				"y": -4.7382525951,
				"z": 0.2067750387,
				"element": "H" 
			},
			{
				"x": -2.4738221984,
				"y": -6.431742177,
				"z": 0.2492129218,
				"element": "H" 
			},
			{
				"x": -2.6613706699,
				"y": -5.388775588,
				"z": 1.6402642517,
				"element": "H" 
			},
			{
				"x": -4.8696857511,
				"y": -5.3673257709,
				"z": 0.8203647568,
				"element": "H" 
			},
			{
				"x": -4.3808681159,
				"y": -5.5566421926,
				"z": -0.8529341535,
				"element": "H" 
			},
			{
				"x": -4.0280498997,
				"y": -3.2488793069,
				"z": -1.1845810013,
				"element": "H" 
			},
			{
				"x": -5.3374262822,
				"y": -3.2019459575,
				"z": -0.0225480905,
				"element": "H" 
			},
			{
				"x": -3.5921482152,
				"y": -1.6319088203,
				"z": 0.7361238306,
				"element": "H" 
			},
			{
				"x": -3.6255266129,
				"y": -3.0031388018,
				"z": 1.8338853622,
				"element": "H" 
			}
		],
		 "valence_orbital": [ 
			{
				"type": "occ",
				"energy": -0.26404,
				"method": "rhf"
			},
			{
				"type": "occ",
				"energy": -0.26198,
				"method": "rhf"
			},
			{
				"type": "occ",
				"energy": -0.25921,
				"method": "rhf"
			},
			{
				"type": "occ",
				"energy": -0.2495,
				"method": "rhf"
			},
			{
				"type": "occ",
				"energy": -0.23422,
				"method": "rhf"
			},
			{
				"type": "unocc",
				"energy": -0.05918,
				"method": "rhf"
			},
			{
				"type": "unocc",
				"energy": -0.03434,
				"method": "rhf"
			},
			{
				"type": "unocc",
				"energy": -0.01442,
				"method": "rhf"
			},
			{
				"type": "unocc",
				"energy": -0.01128,
				"method": "rhf"
			},
			{
				"type": "unocc",
				"energy": -0.00242,
				"method": "rhf"
			}
		],
		"cosmo_sigma_profile": { 
			"-0.025": 0.0,
			"-0.024": 0.0,
			"-0.023": 0.0,
			"-0.022": 0.0,
			"-0.021": 0.0,
			"-0.02": 0.0,
			"-0.019": 0.0,
			"-0.018": 0.170899891873,
			"-0.017": 1.20664239493,
			"-0.016": 1.49926676951,
			"-0.015": 1.93227241607,
			"-0.014": 1.64567699042,
			"-0.013": 1.28526867635,
			"-0.012": 1.20753622476,
			"-0.011": 1.72482883913,
			"-0.01": 1.86413404283,
			"-0.009": 1.97718022253,
			"-0.008": 2.87886362481,
			"-0.007": 8.364957596,
			"-0.006": 23.86830367,
			"-0.005": 35.2389086266,
			"-0.004": 34.0245744861,
			"-0.003": 45.0354657213,
			"-0.002": 53.6558663236,
			"-0.001": 58.7506212839,
			"0.0": 63.0900755671,
			"0.001": 51.0439477356,
			"0.002": 35.2516447264,
			"0.003": 28.1517041275,
			"0.004": 13.4510975757,
			"0.005": 12.6601705487,
			"0.006": 12.286134133,
			"0.007": 9.52434356784,
			"0.008": 8.64545493735,
			"0.009": 10.8267725824,
			"0.01": 16.496596539,
			"0.011": 11.9975239618,
			"0.012": 7.13314355505,
			"0.013": 1.02614469091,
			"0.014": 0.0,
			"0.015": 0.0,
			"0.016": 0.0,
			"0.017": 0.0,
			"0.018": 0.0,
			"0.019": 0.0,
			"0.02": 0.0,
			"0.021": 0.0,
			"0.022": 0.0,
			"0.023": 0.0,
			"0.024": 0.0,
			"0.025": 0.0
		}
	}
}
