{
	 "smiles": "CCC1=C(C)C=CC=C1", 
	 "Tm": 256.15, 
	 "num_atms": 21, 
	 "gaussian": { 
		 "optdone": 1, 
		 "sigma_profile": "yes", 
		 "theory": "DFT", 
		 "functional": "B3LYP", 
		 "basiset": "6-31G**", 
		 "properties": { 
			 "R2extent": 1436.0948, 
			 "electric_dipole_moment_norm": 0.525125708759, 
			 "electric_quadrupole_moment_norm": 4.29345071825, 
			 "total_energy": -350.20632449, 
			 "HOMO_LUMO_gap": 0.23516, 
			 "cosmo_polarized_energy": -3.16, 
			 "cosmo_cavitation_energy": 23.09, 
			 "cosmo_dispersion_energy": -16.84, 
			 "cosmo_repulsion_energy": 1.38, 
			 "cosmo_total_nonelectrostatic_energy": 7.63, 
			 "SMD_solvation_energy": 3.98 
		},
		"coords": [
			{
				"x": 1.9558608591,
				"y": 1.1498766041,
				"z": 1.8622168322,
				"element": "C" 
			},
			{
				"x": 0.6178590959,
				"y": 0.3934822781,
				"z": 1.964765106,
				"element": "C" 
			},
			{
				"x": 0.2181061849,
				"y": -0.2865449642,
				"z": 0.669469202,
				"element": "C" 
			},
			{
				"x": 0.6396682885,
				"y": -1.5967207209,
				"z": 0.352753904,
				"element": "C" 
			},
			{
				"x": 1.4727033562,
				"y": -2.4160714602,
				"z": 1.3139927605,
				"element": "C" 
			},
			{
				"x": 0.2609869736,
				"y": -2.1499422441,
				"z": -0.8773288145,
				"element": "C" 
			},
			{
				"x": -0.5171496966,
				"y": -1.4391538027,
				"z": -1.7913130578,
				"element": "C" 
			},
			{
				"x": -0.9351844396,
				"y": -0.1470076574,
				"z": -1.4779069587,
				"element": "C" 
			},
			{
				"x": -0.5670000009,
				"y": 0.4141811332,
				"z": -0.2552563812,
				"element": "C" 
			},
			{
				"x": 1.9043519249,
				"y": 1.9270207506,
				"z": 1.092946752,
				"element": "H" 
			},
			{
				"x": 2.7770612913,
				"y": 0.4773070604,
				"z": 1.594261655,
				"element": "H" 
			},
			{
				"x": 2.2095085649,
				"y": 1.6293807788,
				"z": 2.8137248506,
				"element": "H" 
			},
			{
				"x": -0.1672953876,
				"y": 1.1030749896,
				"z": 2.2513308502,
				"element": "H" 
			},
			{
				"x": 0.678848989,
				"y": -0.3387836864,
				"z": 2.7774784198,
				"element": "H" 
			},
			{
				"x": 1.7262542394,
				"y": -3.3864070727,
				"z": 0.878603801,
				"element": "H" 
			},
			{
				"x": 2.4115024561,
				"y": -1.9164662775,
				"z": 1.577602746,
				"element": "H" 
			},
			{
				"x": 0.9396681926,
				"y": -2.6062597854,
				"z": 2.2535648939,
				"element": "H" 
			},
			{
				"x": 0.5828451527,
				"y": -3.1600549438,
				"z": -1.1197947499,
				"element": "H" 
			},
			{
				"x": -0.7961013567,
				"y": -1.8944012189,
				"z": -2.7374493589,
				"element": "H" 
			},
			{
				"x": -1.546102215,
				"y": 0.4192477747,
				"z": -2.1753345758,
				"element": "H" 
			},
			{
				"x": -0.8970924726,
				"y": 1.4205424648,
				"z": -0.0062278764,
				"element": "H" 
			}
		],
		 "valence_orbital": [ 
			{
				"type": "occ",
				"energy": -0.33775,
				"method": "rhf"
			},
			{
				"type": "occ",
				"energy": -0.32453,
				"method": "rhf"
			},
			{
				"type": "occ",
				"energy": -0.31872,
				"method": "rhf"
			},
			{
				"type": "occ",
				"energy": -0.23758,
				"method": "rhf"
			},
			{
				"type": "occ",
				"energy": -0.22969,
				"method": "rhf"
			},
			{
				"type": "unocc",
				"energy": 0.00547,
				"method": "rhf"
			},
			{
				"type": "unocc",
				"energy": 0.00904,
				"method": "rhf"
			},
			{
				"type": "unocc",
				"energy": 0.09107,
				"method": "rhf"
			},
			{
				"type": "unocc",
				"energy": 0.10463,
				"method": "rhf"
			},
			{
				"type": "unocc",
				"energy": 0.12179,
				"method": "rhf"
			}
		],
		"cosmo_sigma_profile": { 
			"-0.025": 0.0,
			"-0.024": 0.0,
			"-0.023": 0.0,
			"-0.022": 0.0,
			"-0.021": 0.0,
			"-0.02": 0.0,
			"-0.019": 0.0,
			"-0.018": 0.0,
			"-0.017": 0.0,
			"-0.016": 0.0,
			"-0.015": 0.0,
			"-0.014": 0.0,
			"-0.013": 0.0,
			"-0.012": 0.0,
			"-0.011": 0.0,
			"-0.01": 0.0,
			"-0.009": 0.0,
			"-0.008": 0.0,
			"-0.007": 0.0,
			"-0.006": 0.23177902492,
			"-0.005": 5.87583671204,
			"-0.004": 14.6499512401,
			"-0.003": 23.632728544,
			"-0.002": 22.357003965,
			"-0.001": 22.1777247018,
			"0.0": 25.0029259955,
			"0.001": 20.271981765,
			"0.002": 10.0800613158,
			"0.003": 7.69687219412,
			"0.004": 7.85760976573,
			"0.005": 7.41289543198,
			"0.006": 7.38268533004,
			"0.007": 6.2687310613,
			"0.008": 0.631266153631,
			"0.009": 0.0,
			"0.01": 0.0,
			"0.011": 0.0,
			"0.012": 0.0,
			"0.013": 0.0,
			"0.014": 0.0,
			"0.015": 0.0,
			"0.016": 0.0,
			"0.017": 0.0,
			"0.018": 0.0,
			"0.019": 0.0,
			"0.02": 0.0,
			"0.021": 0.0,
			"0.022": 0.0,
			"0.023": 0.0,
			"0.024": 0.0,
			"0.025": 0.0
		}
	}
}
