{
	 "smiles": "NC1=CC=CC=C1OC1CCOCC1", 
	 "Tm": 332.65, 
	 "num_atms": 29, 
	 "gaussian": { 
		 "optdone": 1, 
		 "sigma_profile": "yes", 
		 "theory": "DFT", 
		 "functional": "B3LYP", 
		 "basiset": "6-31G**", 
		 "properties": { 
			 "R2extent": 3243.5569, 
			 "electric_dipole_moment_norm": 1.57761855022, 
			 "electric_quadrupole_moment_norm": 9.07620932493, 
			 "total_energy": -633.399233996, 
			 "HOMO_LUMO_gap": 0.20179, 
			 "cosmo_polarized_energy": -10.57, 
			 "cosmo_cavitation_energy": 30.25, 
			 "cosmo_dispersion_energy": -22.16, 
			 "cosmo_repulsion_energy": 1.75, 
			 "cosmo_total_nonelectrostatic_energy": 9.84, 
			 "SMD_solvation_energy": 4.7 
		},
		"coords": [
			{
				"x": -2.0597262345,
				"y": 0.3817134749,
				"z": 1.265755395,
				"element": "N" 
			},
			{
				"x": -2.1094023762,
				"y": 0.0805280664,
				"z": -0.096375666,
				"element": "C" 
			},
			{
				"x": -3.3166082795,
				"y": -0.0798198474,
				"z": -0.7836446657,
				"element": "C" 
			},
			{
				"x": -3.3351941211,
				"y": -0.43771993,
				"z": -2.134083206,
				"element": "C" 
			},
			{
				"x": -2.1403721263,
				"y": -0.6391289575,
				"z": -2.8176118608,
				"element": "C" 
			},
			{
				"x": -0.9195477721,
				"y": -0.4792539887,
				"z": -2.1487771473,
				"element": "C" 
			},
			{
				"x": -0.8981278702,
				"y": -0.12125046,
				"z": -0.8024186378,
				"element": "C" 
			},
			{
				"x": 0.2324964289,
				"y": 0.0999495989,
				"z": -0.0471200596,
				"element": "O" 
			},
			{
				"x": 1.5335858879,
				"y": -0.1773165733,
				"z": -0.5902401362,
				"element": "C" 
			},
			{
				"x": 1.8179290886,
				"y": -1.688886733,
				"z": -0.5977946335,
				"element": "C" 
			},
			{
				"x": 1.9574967415,
				"y": -2.2207379732,
				"z": 0.8315610511,
				"element": "C" 
			},
			{
				"x": 2.9606901255,
				"y": -1.5162565223,
				"z": 1.5558988212,
				"element": "O" 
			},
			{
				"x": 2.6430643552,
				"y": -0.1368149508,
				"z": 1.6839987669,
				"element": "C" 
			},
			{
				"x": 2.5394529105,
				"y": 0.5430839512,
				"z": 0.3148159131,
				"element": "C" 
			},
			{
				"x": -1.1818797316,
				"y": 0.7880694522,
				"z": 1.5584498882,
				"element": "H" 
			},
			{
				"x": -2.8608913706,
				"y": 0.8890126607,
				"z": 1.6149435132,
				"element": "H" 
			},
			{
				"x": -4.249154742,
				"y": 0.0726043726,
				"z": -0.2453841043,
				"element": "H" 
			},
			{
				"x": -4.286668481,
				"y": -0.5586411702,
				"z": -2.6433050709,
				"element": "H" 
			},
			{
				"x": -2.1426615823,
				"y": -0.9205346802,
				"z": -3.8659959569,
				"element": "H" 
			},
			{
				"x": 0.0066961303,
				"y": -0.6350582473,
				"z": -2.689627234,
				"element": "H" 
			},
			{
				"x": 1.5938673334,
				"y": 0.2362558679,
				"z": -1.6048892603,
				"element": "H" 
			},
			{
				"x": 1.0227078568,
				"y": -2.2265054807,
				"z": -1.1242837297,
				"element": "H" 
			},
			{
				"x": 2.7540449438,
				"y": -1.8636013881,
				"z": -1.1420269691,
				"element": "H" 
			},
			{
				"x": 0.990400382,
				"y": -2.1467064658,
				"z": 1.3534223928,
				"element": "H" 
			},
			{
				"x": 2.2629453336,
				"y": -3.2709462232,
				"z": 0.8279909358,
				"element": "H" 
			},
			{
				"x": 1.6981453089,
				"y": -0.0147656317,
				"z": 2.2374803624,
				"element": "H" 
			},
			{
				"x": 3.4445339354,
				"y": 0.3098785104,
				"z": 2.2799220961,
				"element": "H" 
			},
			{
				"x": 2.2483319497,
				"y": 1.5932917248,
				"z": 0.4272617499,
				"element": "H" 
			},
			{
				"x": 3.5210459755,
				"y": 0.5165575436,
				"z": -0.1722225478,
				"element": "H" 
			}
		],
		 "valence_orbital": [ 
			{
				"type": "occ",
				"energy": -0.30143,
				"method": "rhf"
			},
			{
				"type": "occ",
				"energy": -0.29848,
				"method": "rhf"
			},
			{
				"type": "occ",
				"energy": -0.24629,
				"method": "rhf"
			},
			{
				"type": "occ",
				"energy": -0.22562,
				"method": "rhf"
			},
			{
				"type": "occ",
				"energy": -0.18781,
				"method": "rhf"
			},
			{
				"type": "unocc",
				"energy": 0.01398,
				"method": "rhf"
			},
			{
				"type": "unocc",
				"energy": 0.02607,
				"method": "rhf"
			},
			{
				"type": "unocc",
				"energy": 0.07592,
				"method": "rhf"
			},
			{
				"type": "unocc",
				"energy": 0.0874,
				"method": "rhf"
			},
			{
				"type": "unocc",
				"energy": 0.10055,
				"method": "rhf"
			}
		],
		"cosmo_sigma_profile": { 
			"-0.025": 0.0,
			"-0.024": 0.0,
			"-0.023": 0.0,
			"-0.022": 0.0,
			"-0.021": 0.0,
			"-0.02": 0.0,
			"-0.019": 0.0,
			"-0.018": 0.0,
			"-0.017": 0.0,
			"-0.016": 0.0,
			"-0.015": 0.0,
			"-0.014": 0.0,
			"-0.013": 0.0453647962893,
			"-0.012": 1.08423186677,
			"-0.011": 1.33990332321,
			"-0.01": 1.83389704385,
			"-0.009": 1.72059708535,
			"-0.008": 3.64384996655,
			"-0.007": 2.37818233115,
			"-0.006": 5.02137831857,
			"-0.005": 11.5661584678,
			"-0.004": 25.1815951876,
			"-0.003": 31.0394671187,
			"-0.002": 29.8921153832,
			"-0.001": 20.6515844302,
			"0.0": 14.5528187722,
			"0.001": 11.3727890558,
			"0.002": 8.19996505935,
			"0.003": 9.07460738698,
			"0.004": 11.4600929767,
			"0.005": 8.94144376119,
			"0.006": 10.1981891585,
			"0.007": 9.49733221608,
			"0.008": 5.00510685071,
			"0.009": 2.35169881031,
			"0.01": 2.07628416629,
			"0.011": 2.18668567793,
			"0.012": 1.95818301715,
			"0.013": 2.31601987824,
			"0.014": 1.87727369742,
			"0.015": 0.54861608065,
			"0.016": 0.0167849264907,
			"0.017": 0.0,
			"0.018": 0.0,
			"0.019": 0.0,
			"0.02": 0.0,
			"0.021": 0.0,
			"0.022": 0.0,
			"0.023": 0.0,
			"0.024": 0.0,
			"0.025": 0.0
		}
	}
}
