{
	 "smiles": "OC(=O)C1=CC(OCC2=CC=CS2)=CC=C1", 
	 "Tm": 421.15, 
	 "num_atms": 26, 
	 "gaussian": { 
		 "optdone": 1, 
		 "sigma_profile": "yes", 
		 "theory": "DFT", 
		 "functional": "B3LYP", 
		 "basiset": "6-31G**", 
		 "properties": { 
			 "R2extent": 4796.9627, 
			 "electric_dipole_moment_norm": 2.67567560067, 
			 "electric_quadrupole_moment_norm": 14.2242774751, 
			 "total_energy": -1087.15392344, 
			 "HOMO_LUMO_gap": 0.18272, 
			 "cosmo_polarized_energy": -12.62, 
			 "cosmo_cavitation_energy": 32.62, 
			 "cosmo_dispersion_energy": -23.36, 
			 "cosmo_repulsion_energy": 1.79, 
			 "cosmo_total_nonelectrostatic_energy": 11.05, 
			 "SMD_solvation_energy": 6.87 
		},
		"coords": [
			{
				"x": -2.696005029,
				"y": -1.2727441285,
				"z": -1.0632369552,
				"element": "O" 
			},
			{
				"x": -3.3588544221,
				"y": -1.1966772099,
				"z": 0.1207873338,
				"element": "C" 
			},
			{
				"x": -4.3709414563,
				"y": -1.8368546965,
				"z": 0.3283577918,
				"element": "O" 
			},
			{
				"x": -2.7217027304,
				"y": -0.2684368618,
				"z": 1.0922367749,
				"element": "C" 
			},
			{
				"x": -1.5409064841,
				"y": 0.4217470229,
				"z": 0.7741173068,
				"element": "C" 
			},
			{
				"x": -0.9801820915,
				"y": 1.285588578,
				"z": 1.717007761,
				"element": "C" 
			},
			{
				"x": 0.1500153301,
				"y": 2.0340443761,
				"z": 1.5231618123,
				"element": "O" 
			},
			{
				"x": 0.8233896933,
				"y": 1.9908416808,
				"z": 0.2631354277,
				"element": "C" 
			},
			{
				"x": 1.6501606859,
				"y": 0.7556155187,
				"z": 0.0496170165,
				"element": "C" 
			},
			{
				"x": 1.7327574238,
				"y": -0.0201829541,
				"z": -1.0776597779,
				"element": "C" 
			},
			{
				"x": 2.6803228529,
				"y": -1.0829380381,
				"z": -0.9652901604,
				"element": "C" 
			},
			{
				"x": 3.3033670239,
				"y": -1.1022183316,
				"z": 0.2511950899,
				"element": "C" 
			},
			{
				"x": 2.7482162829,
				"y": 0.1799829531,
				"z": 1.279025208,
				"element": "S" 
			},
			{
				"x": -1.5919672076,
				"y": 1.4465580204,
				"z": 2.9698324837,
				"element": "C" 
			},
			{
				"x": -2.7596614195,
				"y": 0.753744951,
				"z": 3.2734373612,
				"element": "C" 
			},
			{
				"x": -3.3347385652,
				"y": -0.1065162825,
				"z": 2.3379222517,
				"element": "C" 
			},
			{
				"x": -3.2007887642,
				"y": -1.903708883,
				"z": -1.6018705327,
				"element": "H" 
			},
			{
				"x": -1.0772656754,
				"y": 0.2545666618,
				"z": -0.1872806449,
				"element": "H" 
			},
			{
				"x": 0.113241481,
				"y": 2.1000935278,
				"z": -0.5667704265,
				"element": "H" 
			},
			{
				"x": 1.4550640845,
				"y": 2.884676988,
				"z": 0.2795176682,
				"element": "H" 
			},
			{
				"x": 1.1337629805,
				"y": 0.1634086276,
				"z": -1.9638020398,
				"element": "H" 
			},
			{
				"x": 2.877319352,
				"y": -1.8036377354,
				"z": -1.7506236906,
				"element": "H" 
			},
			{
				"x": 4.0415064844,
				"y": -1.8032628821,
				"z": 0.61568066,
				"element": "H" 
			},
			{
				"x": -1.132919313,
				"y": 2.1225796951,
				"z": 3.6838941642,
				"element": "H" 
			},
			{
				"x": -3.2240125822,
				"y": 0.8884027206,
				"z": 4.2457291229,
				"element": "H" 
			},
			{
				"x": -4.2441779345,
				"y": -0.6561733184,
				"z": 2.5512789935,
				"element": "H" 
			}
		],
		 "valence_orbital": [ 
			{
				"type": "occ",
				"energy": -0.27389,
				"method": "rhf"
			},
			{
				"type": "occ",
				"energy": -0.26063,
				"method": "rhf"
			},
			{
				"type": "occ",
				"energy": -0.25569,
				"method": "rhf"
			},
			{
				"type": "occ",
				"energy": -0.23734,
				"method": "rhf"
			},
			{
				"type": "occ",
				"energy": -0.22857,
				"method": "rhf"
			},
			{
				"type": "unocc",
				"energy": -0.04585,
				"method": "rhf"
			},
			{
				"type": "unocc",
				"energy": -0.0216,
				"method": "rhf"
			},
			{
				"type": "unocc",
				"energy": 0.00342,
				"method": "rhf"
			},
			{
				"type": "unocc",
				"energy": 0.02997,
				"method": "rhf"
			},
			{
				"type": "unocc",
				"energy": 0.05496,
				"method": "rhf"
			}
		],
		"cosmo_sigma_profile": { 
			"-0.025": 0.0,
			"-0.024": 0.0,
			"-0.023": 0.0,
			"-0.022": 0.0,
			"-0.021": 0.0,
			"-0.02": 0.0,
			"-0.019": 0.0259744896533,
			"-0.018": 0.659262824177,
			"-0.017": 1.16474039727,
			"-0.016": 0.658899822954,
			"-0.015": 0.818211136253,
			"-0.014": 0.540413769975,
			"-0.013": 0.321839992807,
			"-0.012": 1.06299625638,
			"-0.011": 0.975735369936,
			"-0.01": 0.540832074778,
			"-0.009": 0.797194739664,
			"-0.008": 4.25528524121,
			"-0.007": 11.4030709385,
			"-0.006": 16.8261706472,
			"-0.005": 15.8764698577,
			"-0.004": 16.2225400671,
			"-0.003": 13.7499800069,
			"-0.002": 14.8455152491,
			"-0.001": 12.6935059177,
			"0.0": 14.4867849653,
			"0.001": 17.6251734115,
			"0.002": 25.1267811522,
			"0.003": 30.5534742309,
			"0.004": 24.7714942098,
			"0.005": 11.9564581861,
			"0.006": 5.67346428545,
			"0.007": 4.31153838352,
			"0.008": 2.82813939662,
			"0.009": 2.5959373112,
			"0.01": 2.16879241588,
			"0.011": 3.84458906703,
			"0.012": 4.10928268686,
			"0.013": 0.0987902874471,
			"0.014": 0.0,
			"0.015": 0.0,
			"0.016": 0.0,
			"0.017": 0.0,
			"0.018": 0.0,
			"0.019": 0.0,
			"0.02": 0.0,
			"0.021": 0.0,
			"0.022": 0.0,
			"0.023": 0.0,
			"0.024": 0.0,
			"0.025": 0.0
		}
	}
}
