{
	 "smiles": "CSC1=C(C(O)=O)C(C)=NC(=N1)C1=CC=C(F)C=C1", 
	 "Tm": 505.15, 
	 "num_atms": 30, 
	 "gaussian": { 
		 "optdone": 1, 
		 "sigma_profile": "yes", 
		 "theory": "DFT", 
		 "functional": "B3LYP", 
		 "basiset": "6-31G**", 
		 "properties": { 
			 "R2extent": 6993.0573, 
			 "electric_dipole_moment_norm": 1.59199317524, 
			 "electric_quadrupole_moment_norm": 8.14829879361, 
			 "total_energy": -1260.01824954, 
			 "HOMO_LUMO_gap": 0.16026, 
			 "cosmo_polarized_energy": -11.02, 
			 "cosmo_cavitation_energy": 36.66, 
			 "cosmo_dispersion_energy": -26.71, 
			 "cosmo_repulsion_energy": 1.96, 
			 "cosmo_total_nonelectrostatic_energy": 11.91, 
			 "SMD_solvation_energy": 6.6 
		},
		"coords": [
			{
				"x": -3.0164909619,
				"y": 1.4211119952,
				"z": 0.5351945546,
				"element": "C" 
			},
			{
				"x": -3.053801718,
				"y": 0.6492789755,
				"z": -1.1163813712,
				"element": "S" 
			},
			{
				"x": -1.481689178,
				"y": -0.1853808722,
				"z": -1.1331038272,
				"element": "C" 
			},
			{
				"x": -1.0657973479,
				"y": -1.0415796326,
				"z": -2.1937911968,
				"element": "C" 
			},
			{
				"x": -1.8770300816,
				"y": -1.3510127934,
				"z": -3.3951027501,
				"element": "C" 
			},
			{
				"x": -2.8888962,
				"y": -0.4744180981,
				"z": -3.597251688,
				"element": "O" 
			},
			{
				"x": -1.6897968958,
				"y": -2.2807546702,
				"z": -4.1579041812,
				"element": "O" 
			},
			{
				"x": 0.208371905,
				"y": -1.6441151518,
				"z": -2.0403129875,
				"element": "C" 
			},
			{
				"x": 0.8245813971,
				"y": -2.5745371323,
				"z": -3.0520005634,
				"element": "C" 
			},
			{
				"x": 0.9663277533,
				"y": -1.4102750219,
				"z": -0.9624344486,
				"element": "N" 
			},
			{
				"x": 0.4828521433,
				"y": -0.5939130426,
				"z": -0.0158639105,
				"element": "C" 
			},
			{
				"x": -0.7081682844,
				"y": 0.0201833833,
				"z": -0.0662813751,
				"element": "N" 
			},
			{
				"x": 1.3300539318,
				"y": -0.3521489049,
				"z": 1.174119499,
				"element": "C" 
			},
			{
				"x": 0.8900199494,
				"y": 0.4885723658,
				"z": 2.2101660527,
				"element": "C" 
			},
			{
				"x": 1.6853952147,
				"y": 0.7156841097,
				"z": 3.3286602534,
				"element": "C" 
			},
			{
				"x": 2.9279519211,
				"y": 0.0926816033,
				"z": 3.4019163701,
				"element": "C" 
			},
			{
				"x": 3.7024628879,
				"y": 0.3088183113,
				"z": 4.4825722842,
				"element": "F" 
			},
			{
				"x": 3.3951195538,
				"y": -0.7460404299,
				"z": 2.3942771235,
				"element": "C" 
			},
			{
				"x": 2.5903531391,
				"y": -0.9648603522,
				"z": 1.2809038974,
				"element": "C" 
			},
			{
				"x": -2.9212215556,
				"y": 0.6711949178,
				"z": 1.3206982967,
				"element": "H" 
			},
			{
				"x": -2.2035327486,
				"y": 2.1427269077,
				"z": 0.6142727696,
				"element": "H" 
			},
			{
				"x": -3.9782645732,
				"y": 1.9326871051,
				"z": 0.6231084799,
				"element": "H" 
			},
			{
				"x": -3.3715786729,
				"y": -0.7953191074,
				"z": -4.3772977538,
				"element": "H" 
			},
			{
				"x": 1.8501880712,
				"y": -2.7808146483,
				"z": -2.7441611897,
				"element": "H" 
			},
			{
				"x": 0.8087453332,
				"y": -2.1489156724,
				"z": -4.0580907619,
				"element": "H" 
			},
			{
				"x": 0.2605822371,
				"y": -3.5089332897,
				"z": -3.1140557704,
				"element": "H" 
			},
			{
				"x": -0.0819904938,
				"y": 0.9593551361,
				"z": 2.1249955262,
				"element": "H" 
			},
			{
				"x": 1.3620475733,
				"y": 1.3614582216,
				"z": 4.1377818605,
				"element": "H" 
			},
			{
				"x": 4.3701700571,
				"y": -1.2104577518,
				"z": 2.4934077853,
				"element": "H" 
			},
			{
				"x": 2.9232356433,
				"y": -1.6117764607,
				"z": 0.4779590223,
				"element": "H" 
			}
		],
		 "valence_orbital": [ 
			{
				"type": "occ",
				"energy": -0.28172,
				"method": "rhf"
			},
			{
				"type": "occ",
				"energy": -0.26614,
				"method": "rhf"
			},
			{
				"type": "occ",
				"energy": -0.25429,
				"method": "rhf"
			},
			{
				"type": "occ",
				"energy": -0.24577,
				"method": "rhf"
			},
			{
				"type": "occ",
				"energy": -0.23527,
				"method": "rhf"
			},
			{
				"type": "unocc",
				"energy": -0.07501,
				"method": "rhf"
			},
			{
				"type": "unocc",
				"energy": -0.0394,
				"method": "rhf"
			},
			{
				"type": "unocc",
				"energy": -0.01186,
				"method": "rhf"
			},
			{
				"type": "unocc",
				"energy": -0.00448,
				"method": "rhf"
			},
			{
				"type": "unocc",
				"energy": 0.0361,
				"method": "rhf"
			}
		],
		"cosmo_sigma_profile": { 
			"-0.025": 0.0,
			"-0.024": 0.0,
			"-0.023": 0.0,
			"-0.022": 0.0,
			"-0.021": 0.0,
			"-0.02": 0.0,
			"-0.019": 0.173204519774,
			"-0.018": 1.07999307734,
			"-0.017": 0.610500482176,
			"-0.016": 0.930467540953,
			"-0.015": 0.727307622575,
			"-0.014": 0.866328178815,
			"-0.013": 0.466983874771,
			"-0.012": 1.05229827297,
			"-0.011": 0.747824139688,
			"-0.01": 0.709475028398,
			"-0.009": 0.218398422671,
			"-0.008": 1.47589884236,
			"-0.007": 6.48113894193,
			"-0.006": 7.46669745512,
			"-0.005": 15.1770475061,
			"-0.004": 18.8708407138,
			"-0.003": 20.3381389441,
			"-0.002": 29.0007600264,
			"-0.001": 29.4251720097,
			"0.0": 26.6910788783,
			"0.001": 23.7809417314,
			"0.002": 26.3300885117,
			"0.003": 24.8356443822,
			"0.004": 20.0432637785,
			"0.005": 8.09806179807,
			"0.006": 7.06757923461,
			"0.007": 7.58155522622,
			"0.008": 5.21924115869,
			"0.009": 2.87604701439,
			"0.01": 2.35589110121,
			"0.011": 3.0322653669,
			"0.012": 1.69283721822,
			"0.013": 0.0,
			"0.014": 0.0,
			"0.015": 0.0,
			"0.016": 0.0,
			"0.017": 0.0,
			"0.018": 0.0,
			"0.019": 0.0,
			"0.02": 0.0,
			"0.021": 0.0,
			"0.022": 0.0,
			"0.023": 0.0,
			"0.024": 0.0,
			"0.025": 0.0
		}
	}
}
