{
	 "smiles": "OC(=O)CS", 
	 "Tm": 262.15, 
	 "num_atms": 9, 
	 "gaussian": { 
		 "optdone": 1, 
		 "sigma_profile": "yes", 
		 "theory": "DFT", 
		 "functional": "B3LYP", 
		 "basiset": "6-31G**", 
		 "properties": { 
			 "R2extent": 1167.9116, 
			 "electric_dipole_moment_norm": 5.23313711171, 
			 "electric_quadrupole_moment_norm": 16.6313743473, 
			 "total_energy": -627.253312218, 
			 "HOMO_LUMO_gap": 0.24699, 
			 "cosmo_polarized_energy": -18.44, 
			 "cosmo_cavitation_energy": 14.82, 
			 "cosmo_dispersion_energy": -11.73, 
			 "cosmo_repulsion_energy": 1.01, 
			 "cosmo_total_nonelectrostatic_energy": 4.1, 
			 "SMD_solvation_energy": 3.59 
		},
		"coords": [
			{
				"x": 1.2031235744,
				"y": -3.5412836073,
				"z": 1.0347030727,
				"element": "O" 
			},
			{
				"x": 0.8874962112,
				"y": -2.3554614354,
				"z": 0.4507658147,
				"element": "C" 
			},
			{
				"x": 1.682353982,
				"y": -1.4540609735,
				"z": 0.4238092747,
				"element": "O" 
			},
			{
				"x": -0.5172581256,
				"y": -2.2911104387,
				"z": -0.1403677325,
				"element": "C" 
			},
			{
				"x": -0.7860770313,
				"y": -0.6371103052,
				"z": -0.8859835045,
				"element": "S" 
			},
			{
				"x": 0.463405326,
				"y": -4.1628544477,
				"z": 0.9759706612,
				"element": "H" 
			},
			{
				"x": -1.2480092517,
				"y": -2.4813871336,
				"z": 0.6537753555,
				"element": "H" 
			},
			{
				"x": -0.6234663394,
				"y": -3.0782238009,
				"z": -0.8953795648,
				"element": "H" 
			},
			{
				"x": -2.0454683455,
				"y": -0.9049078575,
				"z": -1.290493377,
				"element": "H" 
			}
		],
		 "valence_orbital": [ 
			{
				"type": "occ",
				"energy": -0.38427,
				"method": "rhf"
			},
			{
				"type": "occ",
				"energy": -0.34999,
				"method": "rhf"
			},
			{
				"type": "occ",
				"energy": -0.3294,
				"method": "rhf"
			},
			{
				"type": "occ",
				"energy": -0.28774,
				"method": "rhf"
			},
			{
				"type": "occ",
				"energy": -0.24958,
				"method": "rhf"
			},
			{
				"type": "unocc",
				"energy": -0.00259,
				"method": "rhf"
			},
			{
				"type": "unocc",
				"energy": 0.00609,
				"method": "rhf"
			},
			{
				"type": "unocc",
				"energy": 0.05496,
				"method": "rhf"
			},
			{
				"type": "unocc",
				"energy": 0.06883,
				"method": "rhf"
			},
			{
				"type": "unocc",
				"energy": 0.10665,
				"method": "rhf"
			}
		],
		"cosmo_sigma_profile": { 
			"-0.025": 0.0,
			"-0.024": 0.0,
			"-0.023": 0.0,
			"-0.022": 0.0,
			"-0.021": 0.0,
			"-0.02": 0.326369329787,
			"-0.019": 1.30262289629,
			"-0.018": 1.44027538625,
			"-0.017": 1.41620458013,
			"-0.016": 1.27498654071,
			"-0.015": 0.749863312519,
			"-0.014": 1.12732476965,
			"-0.013": 1.16233983102,
			"-0.012": 1.67204476916,
			"-0.011": 1.54149159854,
			"-0.01": 2.26161726728,
			"-0.009": 6.98944260813,
			"-0.008": 7.16832604028,
			"-0.007": 6.19260931432,
			"-0.006": 4.97255939596,
			"-0.005": 3.41322428349,
			"-0.004": 3.00852743584,
			"-0.003": 3.43986477367,
			"-0.002": 2.67668309848,
			"-0.001": 3.30853833853,
			"0.0": 2.53789043812,
			"0.001": 3.06781161757,
			"0.002": 3.5278425043,
			"0.003": 3.35206791454,
			"0.004": 4.00048419631,
			"0.005": 5.48091955855,
			"0.006": 3.95918278294,
			"0.007": 5.80377882056,
			"0.008": 7.1258778617,
			"0.009": 7.66554098056,
			"0.01": 7.78592463857,
			"0.011": 6.68811687981,
			"0.012": 2.80989871435,
			"0.013": 0.251591741081,
			"0.014": 0.0,
			"0.015": 0.0,
			"0.016": 0.0,
			"0.017": 0.0,
			"0.018": 0.0,
			"0.019": 0.0,
			"0.02": 0.0,
			"0.021": 0.0,
			"0.022": 0.0,
			"0.023": 0.0,
			"0.024": 0.0,
			"0.025": 0.0
		}
	}
}
