{
	 "smiles": "CCOC(=O)C1=NNC(N)=C1", 
	 "Tm": 392.15, 
	 "num_atms": 20, 
	 "gaussian": { 
		 "optdone": 1, 
		 "sigma_profile": "yes", 
		 "theory": "DFT", 
		 "functional": "B3LYP", 
		 "basiset": "6-31G**", 
		 "properties": { 
			 "R2extent": 2617.6095, 
			 "electric_dipole_moment_norm": 3.61046433994, 
			 "electric_quadrupole_moment_norm": 18.8529473966, 
			 "total_energy": -548.754031974, 
			 "HOMO_LUMO_gap": 0.20271, 
			 "cosmo_polarized_energy": -19.28, 
			 "cosmo_cavitation_energy": 25.02, 
			 "cosmo_dispersion_energy": -18.53, 
			 "cosmo_repulsion_energy": 1.55, 
			 "cosmo_total_nonelectrostatic_energy": 8.04, 
			 "SMD_solvation_energy": 4.71 
		},
		"coords": [
			{
				"x": -2.3729377819,
				"y": -3.0714800457,
				"z": -2.6344487664,
				"element": "C" 
			},
			{
				"x": -1.0292803329,
				"y": -2.3757835599,
				"z": -2.744821046,
				"element": "C" 
			},
			{
				"x": -1.000243366,
				"y": -1.333721013,
				"z": -1.7464075005,
				"element": "O" 
			},
			{
				"x": 0.1321250681,
				"y": -0.6068025816,
				"z": -1.6990477179,
				"element": "C" 
			},
			{
				"x": 1.0869655809,
				"y": -0.7852773359,
				"z": -2.4333816133,
				"element": "O" 
			},
			{
				"x": 0.1047424787,
				"y": 0.44210367,
				"z": -0.6566198613,
				"element": "C" 
			},
			{
				"x": -0.9384152536,
				"y": 0.638535967,
				"z": 0.1531687968,
				"element": "N" 
			},
			{
				"x": -0.5470071848,
				"y": 1.6720946824,
				"z": 0.9283781225,
				"element": "N" 
			},
			{
				"x": 0.700678525,
				"y": 2.1437207962,
				"z": 0.6271322773,
				"element": "C" 
			},
			{
				"x": 1.2756664279,
				"y": 3.1777669407,
				"z": 1.3724732369,
				"element": "N" 
			},
			{
				"x": 1.1604557399,
				"y": 1.3570764169,
				"z": -0.4113681833,
				"element": "C" 
			},
			{
				"x": -2.5051488182,
				"y": -3.5085407108,
				"z": -1.6406353608,
				"element": "H" 
			},
			{
				"x": -2.4390804034,
				"y": -3.8732816649,
				"z": -3.3767562239,
				"element": "H" 
			},
			{
				"x": -3.1918224853,
				"y": -2.3683175588,
				"z": -2.811093845,
				"element": "H" 
			},
			{
				"x": -0.8780104819,
				"y": -1.927207998,
				"z": -3.7322368068,
				"element": "H" 
			},
			{
				"x": -0.1947206175,
				"y": -3.0621381131,
				"z": -2.5675195237,
				"element": "H" 
			},
			{
				"x": -1.1438937813,
				"y": 1.9772933525,
				"z": 1.6822359091,
				"element": "H" 
			},
			{
				"x": 0.7344910009,
				"y": 4.036610117,
				"z": 1.3574405236,
				"element": "H" 
			},
			{
				"x": 2.2217459786,
				"y": 3.373514704,
				"z": 1.0701790446,
				"element": "H" 
			},
			{
				"x": 2.0997897066,
				"y": 1.4229339349,
				"z": -0.9371714621,
				"element": "H" 
			}
		],
		 "valence_orbital": [ 
			{
				"type": "occ",
				"energy": -0.29066,
				"method": "rhf"
			},
			{
				"type": "occ",
				"energy": -0.28606,
				"method": "rhf"
			},
			{
				"type": "occ",
				"energy": -0.26116,
				"method": "rhf"
			},
			{
				"type": "occ",
				"energy": -0.25773,
				"method": "rhf"
			},
			{
				"type": "occ",
				"energy": -0.22006,
				"method": "rhf"
			},
			{
				"type": "unocc",
				"energy": -0.01735,
				"method": "rhf"
			},
			{
				"type": "unocc",
				"energy": 0.04173,
				"method": "rhf"
			},
			{
				"type": "unocc",
				"energy": 0.06242,
				"method": "rhf"
			},
			{
				"type": "unocc",
				"energy": 0.09034,
				"method": "rhf"
			},
			{
				"type": "unocc",
				"energy": 0.11111,
				"method": "rhf"
			}
		],
		"cosmo_sigma_profile": { 
			"-0.025": 0.0,
			"-0.024": 0.0,
			"-0.023": 0.0,
			"-0.022": 0.0,
			"-0.021": 0.0,
			"-0.02": 0.0,
			"-0.019": 0.0,
			"-0.018": 0.0,
			"-0.017": 0.500692031107,
			"-0.016": 1.75926287706,
			"-0.015": 1.14595545514,
			"-0.014": 1.44055938772,
			"-0.013": 4.6190132036,
			"-0.012": 3.86209078236,
			"-0.011": 4.54604727401,
			"-0.01": 3.78299486771,
			"-0.009": 2.28340660231,
			"-0.008": 3.11714376227,
			"-0.007": 3.40206600779,
			"-0.006": 4.39172714173,
			"-0.005": 8.25117102884,
			"-0.004": 14.53166638,
			"-0.003": 14.6005630189,
			"-0.002": 14.1939308554,
			"-0.001": 13.0954072274,
			"0.0": 14.2191084499,
			"0.001": 7.05186745162,
			"0.002": 7.78406880679,
			"0.003": 11.2319425867,
			"0.004": 10.5649178719,
			"0.005": 6.07362744805,
			"0.006": 4.81585237581,
			"0.007": 4.0305767905,
			"0.008": 5.22498875456,
			"0.009": 3.11993862895,
			"0.01": 3.50477021941,
			"0.011": 4.90332394438,
			"0.012": 7.45734104642,
			"0.013": 3.15282751999,
			"0.014": 2.35406007502,
			"0.015": 1.32672033824,
			"0.016": 1.20627342361,
			"0.017": 0.0247087659067,
			"0.018": 0.0,
			"0.019": 0.0,
			"0.02": 0.0,
			"0.021": 0.0,
			"0.022": 0.0,
			"0.023": 0.0,
			"0.024": 0.0,
			"0.025": 0.0
		}
	}
}
