{
	 "smiles": "NC1CONC1=O", 
	 "Tm": 429.15, 
	 "num_atms": 13, 
	 "gaussian": { 
		 "optdone": 1, 
		 "sigma_profile": "yes", 
		 "theory": "DFT", 
		 "functional": "B3LYP", 
		 "basiset": "6-31G**", 
		 "properties": { 
			 "R2extent": 1116.1669, 
			 "electric_dipole_moment_norm": 2.41433882668, 
			 "electric_quadrupole_moment_norm": 9.67728827048, 
			 "total_energy": -377.813005262, 
			 "HOMO_LUMO_gap": 0.23189, 
			 "cosmo_polarized_energy": -13.32, 
			 "cosmo_cavitation_energy": 16.58, 
			 "cosmo_dispersion_energy": -12.77, 
			 "cosmo_repulsion_energy": 1.11, 
			 "cosmo_total_nonelectrostatic_energy": 4.92, 
			 "SMD_solvation_energy": 3.38 
		},
		"coords": [
			{
				"x": -1.2714818769,
				"y": -2.6048608619,
				"z": 0.3251998599,
				"element": "N" 
			},
			{
				"x": -0.7578040639,
				"y": -1.2355433941,
				"z": 0.3521872034,
				"element": "C" 
			},
			{
				"x": 0.3678057773,
				"y": -0.9889163258,
				"z": -0.6594204384,
				"element": "C" 
			},
			{
				"x": 1.5964732467,
				"y": -1.2709213519,
				"z": 0.0374370923,
				"element": "O" 
			},
			{
				"x": 1.3134174268,
				"y": -0.8530367711,
				"z": 1.3723981203,
				"element": "N" 
			},
			{
				"x": -0.0099064621,
				"y": -1.0692055018,
				"z": 1.6875321104,
				"element": "C" 
			},
			{
				"x": -0.4859176133,
				"y": -1.109319854,
				"z": 2.8062494269,
				"element": "O" 
			},
			{
				"x": -1.944436225,
				"y": -2.71218734,
				"z": -0.4293304274,
				"element": "H" 
			},
			{
				"x": -1.7694188379,
				"y": -2.7831308521,
				"z": 1.1951106985,
				"element": "H" 
			},
			{
				"x": -1.5299581037,
				"y": -0.4538392157,
				"z": 0.2786941804,
				"element": "H" 
			},
			{
				"x": 0.3391494003,
				"y": -1.659524448,
				"z": -1.5200272209,
				"element": "H" 
			},
			{
				"x": 0.3668317297,
				"y": 0.0583203888,
				"z": -0.9913966672,
				"element": "H" 
			},
			{
				"x": 2.041045602,
				"y": -1.1732344724,
				"z": 2.0008660618,
				"element": "H" 
			}
		],
		 "valence_orbital": [ 
			{
				"type": "occ",
				"energy": -0.37704,
				"method": "rhf"
			},
			{
				"type": "occ",
				"energy": -0.33364,
				"method": "rhf"
			},
			{
				"type": "occ",
				"energy": -0.2693,
				"method": "rhf"
			},
			{
				"type": "occ",
				"energy": -0.25243,
				"method": "rhf"
			},
			{
				"type": "occ",
				"energy": -0.2327,
				"method": "rhf"
			},
			{
				"type": "unocc",
				"energy": -0.00081,
				"method": "rhf"
			},
			{
				"type": "unocc",
				"energy": 0.06679,
				"method": "rhf"
			},
			{
				"type": "unocc",
				"energy": 0.08811,
				"method": "rhf"
			},
			{
				"type": "unocc",
				"energy": 0.10483,
				"method": "rhf"
			},
			{
				"type": "unocc",
				"energy": 0.11815,
				"method": "rhf"
			}
		],
		"cosmo_sigma_profile": { 
			"-0.025": 0.0,
			"-0.024": 0.0,
			"-0.023": 0.0,
			"-0.022": 0.0,
			"-0.021": 0.0,
			"-0.02": 0.0,
			"-0.019": 0.0,
			"-0.018": 0.0,
			"-0.017": 0.218314885486,
			"-0.016": 1.48477573167,
			"-0.015": 1.24920802804,
			"-0.014": 0.670229775392,
			"-0.013": 0.490876304705,
			"-0.012": 0.943607165109,
			"-0.011": 2.44142812499,
			"-0.01": 3.34829696159,
			"-0.009": 3.33739502914,
			"-0.008": 3.49970537991,
			"-0.007": 5.51960670456,
			"-0.006": 12.6620905566,
			"-0.005": 12.5455630449,
			"-0.004": 7.84413167834,
			"-0.003": 5.91703086047,
			"-0.002": 3.19881095065,
			"-0.001": 4.16570215599,
			"0.0": 3.42930527591,
			"0.001": 3.79870550499,
			"0.002": 4.74903788238,
			"0.003": 3.90146304337,
			"0.004": 4.12666701087,
			"0.005": 3.29663983723,
			"0.006": 3.87090498919,
			"0.007": 4.29495883702,
			"0.008": 4.0129921982,
			"0.009": 4.64782142059,
			"0.01": 4.34039302743,
			"0.011": 4.05120130818,
			"0.012": 5.80572182777,
			"0.013": 3.41589895543,
			"0.014": 0.645301399441,
			"0.015": 0.443542821611,
			"0.016": 0.596261022756,
			"0.017": 0.481661607646,
			"0.018": 0.308727022733,
			"0.019": 0.00821986369898,
			"0.02": 0.0,
			"0.021": 0.0,
			"0.022": 0.0,
			"0.023": 0.0,
			"0.024": 0.0,
			"0.025": 0.0
		}
	}
}
