{
	 "smiles": "OC(=O)C1=C(O)C=CC(NS(=O)(=O)C2=CC(=C(Cl)C=C2)[N+]([O-])=O)=C1", 
	 "Tm": 513.15, 
	 "num_atms": 33, 
	 "gaussian": { 
		 "optdone": 1, 
		 "sigma_profile": "yes", 
		 "theory": "DFT", 
		 "functional": "B3LYP", 
		 "basiset": "6-31G**", 
		 "properties": { 
			 "R2extent": 10378.0348, 
			 "electric_dipole_moment_norm": 2.24186510968, 
			 "electric_quadrupole_moment_norm": 47.5063987968, 
			 "total_energy": -1995.07911901, 
			 "HOMO_LUMO_gap": 0.14146, 
			 "cosmo_polarized_energy": -30.93, 
			 "cosmo_cavitation_energy": 43.01, 
			 "cosmo_dispersion_energy": -29.54, 
			 "cosmo_repulsion_energy": 2.22, 
			 "cosmo_total_nonelectrostatic_energy": 15.69, 
			 "SMD_solvation_energy": 9.87 
		},
		"coords": [
			{
				"x": 1.2189203332,
				"y": -5.3465673257,
				"z": 0.9315559988,
				"element": "O" 
			},
			{
				"x": 0.5839119696,
				"y": -4.2955809727,
				"z": 0.3851559727,
				"element": "C" 
			},
			{
				"x": 0.3310903666,
				"y": -4.2739259997,
				"z": -0.8001354361,
				"element": "O" 
			},
			{
				"x": 0.2000059352,
				"y": -3.1488278115,
				"z": 1.2888774237,
				"element": "C" 
			},
			{
				"x": 0.4425548333,
				"y": -3.0740502218,
				"z": 2.6721173608,
				"element": "C" 
			},
			{
				"x": 1.0718485382,
				"y": -4.1314163488,
				"z": 3.282032767,
				"element": "O" 
			},
			{
				"x": 0.0403341774,
				"y": -1.9527381013,
				"z": 3.4030332813,
				"element": "C" 
			},
			{
				"x": -0.6139800345,
				"y": -0.8980572089,
				"z": 2.7778039025,
				"element": "C" 
			},
			{
				"x": -0.8417093364,
				"y": -0.9449690925,
				"z": 1.3943255038,
				"element": "C" 
			},
			{
				"x": -1.5266667882,
				"y": 0.1214358637,
				"z": 0.7408202914,
				"element": "N" 
			},
			{
				"x": -0.9077005072,
				"y": 1.6981511325,
				"z": 0.7012470462,
				"element": "S" 
			},
			{
				"x": -0.6391918524,
				"y": 2.0875160568,
				"z": 2.0834130885,
				"element": "O" 
			},
			{
				"x": -1.8209199228,
				"y": 2.4287686917,
				"z": -0.1747067363,
				"element": "O" 
			},
			{
				"x": 0.6837151393,
				"y": 1.6033023986,
				"z": -0.1337808197,
				"element": "C" 
			},
			{
				"x": 1.8231339662,
				"y": 1.2902659397,
				"z": 0.5987216251,
				"element": "C" 
			},
			{
				"x": 3.052916018,
				"y": 1.2028024441,
				"z": -0.052767521,
				"element": "C" 
			},
			{
				"x": 3.1467979561,
				"y": 1.4047919839,
				"z": -1.4396998999,
				"element": "C" 
			},
			{
				"x": 4.6224522637,
				"y": 1.2379110128,
				"z": -2.3385426547,
				"element": "Cl" 
			},
			{
				"x": 1.9837898853,
				"y": 1.7119156433,
				"z": -2.1566855828,
				"element": "C" 
			},
			{
				"x": 0.756456934,
				"y": 1.8207380512,
				"z": -1.5119635985,
				"element": "C" 
			},
			{
				"x": 4.2173805735,
				"y": 0.9039960632,
				"z": 0.8042837518,
				"element": "N" 
			},
			{
				"x": 5.2998681386,
				"y": 1.3864395911,
				"z": 0.4955109379,
				"element": "O" 
			},
			{
				"x": 4.0019654502,
				"y": 0.2073941775,
				"z": 1.7955303867,
				"element": "O" 
			},
			{
				"x": -0.4304882406,
				"y": -2.0625838788,
				"z": 0.6709114637,
				"element": "C" 
			},
			{
				"x": 1.3524188662,
				"y": -5.2099799695,
				"z": 1.8865334849,
				"element": "H" 
			},
			{
				"x": 1.239812897,
				"y": -3.9417808963,
				"z": 4.2139099855,
				"element": "H" 
			},
			{
				"x": 0.2233317259,
				"y": -1.9144015399,
				"z": 4.4742528384,
				"element": "H" 
			},
			{
				"x": -0.9442202165,
				"y": -0.0376770266,
				"z": 3.3470662667,
				"element": "H" 
			},
			{
				"x": -1.9360503976,
				"y": -0.1122041344,
				"z": -0.158752863,
				"element": "H" 
			},
			{
				"x": 1.7812835795,
				"y": 1.1322760389,
				"z": 1.6687167523,
				"element": "H" 
			},
			{
				"x": 2.0573820623,
				"y": 1.8651952848,
				"z": -3.2271871787,
				"element": "H" 
			},
			{
				"x": -0.1375002997,
				"y": 2.0848224687,
				"z": -2.0664739769,
				"element": "H" 
			},
			{
				"x": -0.5890440132,
				"y": -2.134562314,
				"z": -0.400723862,
				"element": "H" 
			}
		],
		 "valence_orbital": [ 
			{
				"type": "occ",
				"energy": -0.29909,
				"method": "rhf"
			},
			{
				"type": "occ",
				"energy": -0.2896,
				"method": "rhf"
			},
			{
				"type": "occ",
				"energy": -0.28493,
				"method": "rhf"
			},
			{
				"type": "occ",
				"energy": -0.27736,
				"method": "rhf"
			},
			{
				"type": "occ",
				"energy": -0.24922,
				"method": "rhf"
			},
			{
				"type": "unocc",
				"energy": -0.10776,
				"method": "rhf"
			},
			{
				"type": "unocc",
				"energy": -0.07326,
				"method": "rhf"
			},
			{
				"type": "unocc",
				"energy": -0.06338,
				"method": "rhf"
			},
			{
				"type": "unocc",
				"energy": -0.03966,
				"method": "rhf"
			},
			{
				"type": "unocc",
				"energy": -0.02894,
				"method": "rhf"
			}
		],
		"cosmo_sigma_profile": { 
			"-0.025": 0.0,
			"-0.024": 0.0,
			"-0.023": 0.0,
			"-0.022": 0.0,
			"-0.021": 0.0178592373493,
			"-0.02": 0.634032726846,
			"-0.019": 1.32662644167,
			"-0.018": 1.22979767179,
			"-0.017": 0.707374212039,
			"-0.016": 2.62852348949,
			"-0.015": 1.75513438109,
			"-0.014": 2.0312506996,
			"-0.013": 2.95782681893,
			"-0.012": 3.21220093438,
			"-0.011": 1.88439952072,
			"-0.01": 3.08350437355,
			"-0.009": 8.27271934094,
			"-0.008": 10.1846961673,
			"-0.007": 11.3331663836,
			"-0.006": 11.8765109768,
			"-0.005": 14.6804256248,
			"-0.004": 17.3270211301,
			"-0.003": 22.7650325175,
			"-0.002": 24.9939800026,
			"-0.001": 22.8475254943,
			"0.0": 23.8862092494,
			"0.001": 23.8224001161,
			"0.002": 21.170718799,
			"0.003": 14.8384726287,
			"0.004": 9.65078640942,
			"0.005": 10.3313993202,
			"0.006": 12.0460885097,
			"0.007": 17.2972853064,
			"0.008": 10.4396359812,
			"0.009": 11.3168860974,
			"0.01": 11.5222109286,
			"0.011": 8.55079298316,
			"0.012": 5.05722875421,
			"0.013": 2.31729509318,
			"0.014": 0.349880516918,
			"0.015": 0.0,
			"0.016": 0.0,
			"0.017": 0.0,
			"0.018": 0.0,
			"0.019": 0.0,
			"0.02": 0.0,
			"0.021": 0.0,
			"0.022": 0.0,
			"0.023": 0.0,
			"0.024": 0.0,
			"0.0": 0.0
		}
	}
}
