{
	 "smiles": "OC(=O)C1CCC2=C(C1)NN=C2", 
	 "Tm": 508.15, 
	 "num_atms": 22, 
	 "gaussian": { 
		 "optdone": 1, 
		 "sigma_profile": "yes", 
		 "theory": "DFT", 
		 "functional": "B3LYP", 
		 "basiset": "6-31G**", 
		 "properties": { 
			 "R2extent": 2555.8465, 
			 "electric_dipole_moment_norm": 4.83976435067, 
			 "electric_quadrupole_moment_norm": 15.5906991235, 
			 "total_energy": -570.821948465, 
			 "HOMO_LUMO_gap": 0.23053, 
			 "cosmo_polarized_energy": -20.62, 
			 "cosmo_cavitation_energy": 24.5, 
			 "cosmo_dispersion_energy": -18.31, 
			 "cosmo_repulsion_energy": 1.46, 
			 "cosmo_total_nonelectrostatic_energy": 7.65, 
			 "SMD_solvation_energy": 3.75 
		},
		"coords": [
			{
				"x": 0.6156429182,
				"y": -2.2076369539,
				"z": 0.050024991,
				"element": "O" 
			},
			{
				"x": 0.5541448153,
				"y": -1.2060536227,
				"z": -0.8672596948,
				"element": "C" 
			},
			{
				"x": 1.1422342653,
				"y": -1.3186203695,
				"z": -1.9135414168,
				"element": "O" 
			},
			{
				"x": -0.3355269213,
				"y": -0.0065676548,
				"z": -0.4964350987,
				"element": "C" 
			},
			{
				"x": -0.1484224666,
				"y": 0.4793149295,
				"z": 0.9650104158,
				"element": "C" 
			},
			{
				"x": 1.2821469556,
				"y": 0.9769837308,
				"z": 1.2528535237,
				"element": "C" 
			},
			{
				"x": 1.7249136203,
				"y": 1.8920269119,
				"z": 0.1471163001,
				"element": "C" 
			},
			{
				"x": 1.0878359703,
				"y": 1.9375780824,
				"z": -1.0804081552,
				"element": "C" 
			},
			{
				"x": -0.1150000205,
				"y": 1.1488363386,
				"z": -1.4974743094,
				"element": "C" 
			},
			{
				"x": 1.7609274259,
				"y": 2.8561642133,
				"z": -1.8224842884,
				"element": "N" 
			},
			{
				"x": 2.8030129331,
				"y": 3.414218027,
				"z": -1.1619230606,
				"element": "N" 
			},
			{
				"x": 2.7811657107,
				"y": 2.8288600642,
				"z": 0.0341282486,
				"element": "C" 
			},
			{
				"x": 0.0960878981,
				"y": -1.9796950366,
				"z": 0.8334673057,
				"element": "H" 
			},
			{
				"x": -1.3685655583,
				"y": -0.3669673695,
				"z": -0.6053484045,
				"element": "H" 
			},
			{
				"x": -0.857716272,
				"y": 1.2985258437,
				"z": 1.1307340852,
				"element": "H" 
			},
			{
				"x": -0.4331176685,
				"y": -0.2999484324,
				"z": 1.6854195072,
				"element": "H" 
			},
			{
				"x": 1.961770895,
				"y": 0.1175246632,
				"z": 1.341974815,
				"element": "H" 
			},
			{
				"x": 1.3030718618,
				"y": 1.4840744248,
				"z": 2.2247015495,
				"element": "H" 
			},
			{
				"x": -1.0093616048,
				"y": 1.7861285094,
				"z": -1.5129586085,
				"element": "H" 
			},
			{
				"x": 0.0118007058,
				"y": 0.731082522,
				"z": -2.5004685523,
				"element": "H" 
			},
			{
				"x": 1.5882327263,
				"y": 3.1279786565,
				"z": -2.7777820538,
				"element": "H" 
			},
			{
				"x": 3.5239218105,
				"y": 3.100592522,
				"z": 0.7733529013,
				"element": "H" 
			}
		],
		 "valence_orbital": [ 
			{
				"type": "occ",
				"energy": -0.3193,
				"method": "rhf"
			},
			{
				"type": "occ",
				"energy": -0.27965,
				"method": "rhf"
			},
			{
				"type": "occ",
				"energy": -0.27358,
				"method": "rhf"
			},
			{
				"type": "occ",
				"energy": -0.2479,
				"method": "rhf"
			},
			{
				"type": "occ",
				"energy": -0.22893,
				"method": "rhf"
			},
			{
				"type": "unocc",
				"energy": 0.0016,
				"method": "rhf"
			},
			{
				"type": "unocc",
				"energy": 0.02555,
				"method": "rhf"
			},
			{
				"type": "unocc",
				"energy": 0.03687,
				"method": "rhf"
			},
			{
				"type": "unocc",
				"energy": 0.07195,
				"method": "rhf"
			},
			{
				"type": "unocc",
				"energy": 0.08644,
				"method": "rhf"
			}
		],
		"cosmo_sigma_profile": { 
			"-0.025": 0.0,
			"-0.024": 0.0,
			"-0.023": 0.0,
			"-0.022": 0.0,
			"-0.021": 0.0,
			"-0.02": 0.0,
			"-0.019": 0.0,
			"-0.018": 0.428485868551,
			"-0.017": 0.894377396836,
			"-0.016": 2.05599103079,
			"-0.015": 2.54668421172,
			"-0.014": 2.80187289299,
			"-0.013": 1.78824734443,
			"-0.012": 1.53280111047,
			"-0.011": 1.63892350553,
			"-0.01": 3.03248682561,
			"-0.009": 2.22004325553,
			"-0.008": 2.91931745362,
			"-0.007": 5.37495475046,
			"-0.006": 6.42383030159,
			"-0.005": 12.0831816875,
			"-0.004": 17.986786676,
			"-0.003": 16.434872903,
			"-0.002": 16.4916401902,
			"-0.001": 11.5777703496,
			"0.0": 6.50962809434,
			"0.001": 5.62927760908,
			"0.002": 4.33358909465,
			"0.003": 5.45849196477,
			"0.004": 6.22363646485,
			"0.005": 8.66411086455,
			"0.006": 7.07472461361,
			"0.007": 5.25151023316,
			"0.008": 4.56731157316,
			"0.009": 5.35552398119,
			"0.01": 5.83147765492,
			"0.011": 7.07640106632,
			"0.012": 5.80565427101,
			"0.013": 2.76266280694,
			"0.014": 1.3328887322,
			"0.015": 0.935803591246,
			"0.016": 1.26389050142,
			"0.017": 0.51694235411,
			"0.018": 0.0,
			"0.019": 0.0,
			"0.02": 0.0,
			"0.021": 0.0,
			"0.022": 0.0,
			"0.023": 0.0,
			"0.024": 0.0,
			"0.025": 0.0
		}
	}
}
