{
	 "smiles": "CSC1=C(C#N)C(=C(S1)C(O)=O)C1=CC=C(Cl)C=C1", 
	 "Tm": 515.15, 
	 "num_atms": 27, 
	 "gaussian": { 
		 "optdone": 1, 
		 "sigma_profile": "yes", 
		 "theory": "DFT", 
		 "functional": "B3LYP", 
		 "basiset": "6-31G**", 
		 "properties": { 
			 "R2extent": 7936.9414, 
			 "electric_dipole_moment_norm": 1.99907711707, 
			 "electric_quadrupole_moment_norm": 19.0596166488, 
			 "total_energy": -1961.95655326, 
			 "HOMO_LUMO_gap": 0.1584, 
			 "cosmo_polarized_energy": -15.22, 
			 "cosmo_cavitation_energy": 38.22, 
			 "cosmo_dispersion_energy": -27.07, 
			 "cosmo_repulsion_energy": 2.03, 
			 "cosmo_total_nonelectrostatic_energy": 13.18, 
			 "SMD_solvation_energy": 8.02 
		},
		"coords": [
			{
				"x": 1.2924190977,
				"y": 5.3018117986,
				"z": 0.2356363365,
				"element": "C" 
			},
			{
				"x": 0.5552734204,
				"y": 4.8062515871,
				"z": -1.3720912564,
				"element": "S" 
			},
			{
				"x": -0.2367332077,
				"y": 3.2810276901,
				"z": -0.9778511125,
				"element": "C" 
			},
			{
				"x": 0.2951440793,
				"y": 2.1146026398,
				"z": -0.4348713276,
				"element": "C" 
			},
			{
				"x": 1.662172656,
				"y": 2.0070629078,
				"z": -0.0443493294,
				"element": "C" 
			},
			{
				"x": 2.7820024166,
				"y": 1.9493150291,
				"z": 0.2684277296,
				"element": "N" 
			},
			{
				"x": -0.6605475919,
				"y": 1.042700073,
				"z": -0.3084606511,
				"element": "C" 
			},
			{
				"x": -1.9004559569,
				"y": 1.4284810467,
				"z": -0.7925534849,
				"element": "C" 
			},
			{
				"x": -1.9132269872,
				"y": 3.0845915383,
				"z": -1.3434961943,
				"element": "S" 
			},
			{
				"x": -3.1664297365,
				"y": 0.7035968783,
				"z": -0.9984005572,
				"element": "C" 
			},
			{
				"x": -3.1253620154,
				"y": -0.6018147906,
				"z": -0.6604041305,
				"element": "O" 
			},
			{
				"x": -4.1636833828,
				"y": 1.2359538725,
				"z": -1.4506254215,
				"element": "O" 
			},
			{
				"x": -0.2989067099,
				"y": -0.2703191937,
				"z": 0.2811545665,
				"element": "C" 
			},
			{
				"x": 0.7666561571,
				"y": -1.0147569136,
				"z": -0.2464248853,
				"element": "C" 
			},
			{
				"x": 1.1388458209,
				"y": -2.2324397657,
				"z": 0.3201135981,
				"element": "C" 
			},
			{
				"x": 0.4449139079,
				"y": -2.7036835707,
				"z": 1.4331680569,
				"element": "C" 
			},
			{
				"x": 0.9090825501,
				"y": -4.2338824781,
				"z": 2.1572922508,
				"element": "Cl" 
			},
			{
				"x": -0.6115970147,
				"y": -1.9775894864,
				"z": 1.9837874344,
				"element": "C" 
			},
			{
				"x": -0.9782807306,
				"y": -0.7666162279,
				"z": 1.4037348999,
				"element": "C" 
			},
			{
				"x": 1.7451591931,
				"y": 6.2781359147,
				"z": 0.0488316952,
				"element": "H" 
			},
			{
				"x": 2.0630589607,
				"y": 4.5997071145,
				"z": 0.5528196921,
				"element": "H" 
			},
			{
				"x": 0.5160505133,
				"y": 5.4018449491,
				"z": 0.995516379,
				"element": "H" 
			},
			{
				"x": -4.0086245739,
				"y": -0.9544765768,
				"z": -0.8621675405,
				"element": "H" 
			},
			{
				"x": 1.3064100431,
				"y": -0.6487637787,
				"z": -1.1137873527,
				"element": "H" 
			},
			{
				"x": 1.9588103169,
				"y": -2.8069258096,
				"z": -0.0955231597,
				"element": "H" 
			},
			{
				"x": -1.1353360729,
				"y": -2.3546979931,
				"z": 2.8549852348,
				"element": "H" 
			},
			{
				"x": -1.7973151528,
				"y": -0.1976164547,
				"z": 1.8302385301,
				"element": "H" 
			}
		],
		 "valence_orbital": [ 
			{
				"type": "occ",
				"energy": -0.29309,
				"method": "rhf"
			},
			{
				"type": "occ",
				"energy": -0.27959,
				"method": "rhf"
			},
			{
				"type": "occ",
				"energy": -0.27278,
				"method": "rhf"
			},
			{
				"type": "occ",
				"energy": -0.25167,
				"method": "rhf"
			},
			{
				"type": "occ",
				"energy": -0.24493,
				"method": "rhf"
			},
			{
				"type": "unocc",
				"energy": -0.08653,
				"method": "rhf"
			},
			{
				"type": "unocc",
				"energy": -0.05157,
				"method": "rhf"
			},
			{
				"type": "unocc",
				"energy": -0.02552,
				"method": "rhf"
			},
			{
				"type": "unocc",
				"energy": -0.01783,
				"method": "rhf"
			},
			{
				"type": "unocc",
				"energy": -0.00633,
				"method": "rhf"
			}
		],
		"cosmo_sigma_profile": { 
			"-0.025": 0.0,
			"-0.024": 0.0,
			"-0.023": 0.0,
			"-0.022": 0.0,
			"-0.021": 0.0,
			"-0.02": 0.0,
			"-0.019": 0.488614816201,
			"-0.018": 0.891875909355,
			"-0.017": 0.98473539739,
			"-0.016": 0.991048264338,
			"-0.015": 0.437658484096,
			"-0.014": 0.646248556799,
			"-0.013": 0.282606476442,
			"-0.012": 1.14680918743,
			"-0.011": 0.931814988381,
			"-0.01": 0.312591901325,
			"-0.009": 0.673622451813,
			"-0.008": 4.78195805029,
			"-0.007": 12.5377314058,
			"-0.006": 14.2808962208,
			"-0.005": 14.0246049485,
			"-0.004": 16.7396826273,
			"-0.003": 25.5006795068,
			"-0.002": 29.4085853418,
			"-0.001": 25.2765582853,
			"0.0": 21.5135166568,
			"0.001": 26.4720823704,
			"0.002": 22.8791018886,
			"0.003": 23.1150814169,
			"0.004": 19.7600778763,
			"0.005": 11.4986369177,
			"0.006": 7.48446508823,
			"0.007": 6.40759707668,
			"0.008": 4.74205579388,
			"0.009": 4.48661641541,
			"0.01": 5.1260669149,
			"0.011": 7.35357193509,
			"0.012": 2.86304934764,
			"0.013": 0.357230193329,
			"0.014": 0.0,
			"0.015": 0.0,
			"0.016": 0.0,
			"0.017": 0.0,
			"0.018": 0.0,
			"0.019": 0.0,
			"0.02": 0.0,
			"0.021": 0.0,
			"0.022": 0.0,
			"0.023": 0.0,
			"0.024": 0.0,
			"0.025": 0.0
		}
	}
}
