{
	 "smiles": "OC(=O)CC1=CC(OCC2=CN=CC=C2)=CC=C1", 
	 "Tm": 413.15, 
	 "num_atms": 31, 
	 "gaussian": { 
		 "optdone": 1, 
		 "sigma_profile": "yes", 
		 "theory": "DFT", 
		 "functional": "B3LYP", 
		 "basiset": "6-31G**", 
		 "properties": { 
			 "R2extent": 5152.0684, 
			 "electric_dipole_moment_norm": 4.5739677043, 
			 "electric_quadrupole_moment_norm": 22.841117972, 
			 "total_energy": -821.73558862, 
			 "HOMO_LUMO_gap": 0.21614, 
			 "cosmo_polarized_energy": -20.71, 
			 "cosmo_cavitation_energy": 35.48, 
			 "cosmo_dispersion_energy": -24.23, 
			 "cosmo_repulsion_energy": 1.85, 
			 "cosmo_total_nonelectrostatic_energy": 13.1, 
			 "SMD_solvation_energy": 5.43 
		},
		"coords": [
			{
				"x": -2.2877073665,
				"y": -2.4405654647,
				"z": 3.1076446242,
				"element": "O" 
			},
			{
				"x": -1.8084634152,
				"y": -1.4580509209,
				"z": 2.2983250515,
				"element": "C" 
			},
			{
				"x": -1.3864350063,
				"y": -1.7325814452,
				"z": 1.2044244515,
				"element": "O" 
			},
			{
				"x": -1.8533363626,
				"y": -0.0517276902,
				"z": 2.9114357348,
				"element": "C" 
			},
			{
				"x": -1.3888987818,
				"y": 1.0332092372,
				"z": 1.9714287657,
				"element": "C" 
			},
			{
				"x": -0.0253095416,
				"y": 1.1734845706,
				"z": 1.6909770703,
				"element": "C" 
			},
			{
				"x": 0.4099299059,
				"y": 2.1224275879,
				"z": 0.7650901902,
				"element": "C" 
			},
			{
				"x": 1.7557402363,
				"y": 2.2502616976,
				"z": 0.4934337522,
				"element": "O" 
			},
			{
				"x": 2.2243212497,
				"y": 1.5307006344,
				"z": -0.6718999381,
				"element": "C" 
			},
			{
				"x": 2.5017734363,
				"y": 0.0727248448,
				"z": -0.3958548844,
				"element": "C" 
			},
			{
				"x": 3.7980147553,
				"y": -0.3519295962,
				"z": -0.0750745303,
				"element": "C" 
			},
			{
				"x": 4.1318117921,
				"y": -1.6134173763,
				"z": 0.2159361688,
				"element": "N" 
			},
			{
				"x": 3.146330886,
				"y": -2.521449895,
				"z": 0.20749749,
				"element": "C" 
			},
			{
				"x": 1.8180693219,
				"y": -2.2163690928,
				"z": -0.0925646077,
				"element": "C" 
			},
			{
				"x": 1.4931329526,
				"y": -0.8985497981,
				"z": -0.408033528,
				"element": "C" 
			},
			{
				"x": -0.5116511075,
				"y": 2.9662160332,
				"z": 0.1347097675,
				"element": "C" 
			},
			{
				"x": -1.8680058046,
				"y": 2.8434089712,
				"z": 0.4310971016,
				"element": "C" 
			},
			{
				"x": -2.3073701549,
				"y": 1.8765163001,
				"z": 1.3380801292,
				"element": "C" 
			},
			{
				"x": -2.587138151,
				"y": -2.0697423708,
				"z": 3.950091448,
				"element": "H" 
			},
			{
				"x": -2.880353184,
				"y": 0.1410734516,
				"z": 3.2472189597,
				"element": "H" 
			},
			{
				"x": -1.2316371174,
				"y": -0.0744236943,
				"z": 3.8175310525,
				"element": "H" 
			},
			{
				"x": 0.7108317514,
				"y": 0.5351883378,
				"z": 2.168051234,
				"element": "H" 
			},
			{
				"x": 3.1460137406,
				"y": 2.0416114612,
				"z": -0.9628152414,
				"element": "H" 
			},
			{
				"x": 1.4954431116,
				"y": 1.6433524315,
				"z": -1.4842954616,
				"element": "H" 
			},
			{
				"x": 4.6117605602,
				"y": 0.3737277732,
				"z": -0.0570914263,
				"element": "H" 
			},
			{
				"x": 3.4348065039,
				"y": -3.5424715357,
				"z": 0.4525385206,
				"element": "H" 
			},
			{
				"x": 1.051596684,
				"y": -2.9838800806,
				"z": -0.0719201604,
				"element": "H" 
			},
			{
				"x": 0.4657615735,
				"y": -0.6345111333,
				"z": -0.6375070551,
				"element": "H" 
			},
			{
				"x": -0.1528922365,
				"y": 3.7132743924,
				"z": -0.5664614834,
				"element": "H" 
			},
			{
				"x": -2.5871210114,
				"y": 3.5013333886,
				"z": -0.0481547817,
				"element": "H" 
			},
			{
				"x": -3.3684192201,
				"y": 1.7773589808,
				"z": 1.5515615862,
				"element": "H" 
			}
		],
		 "valence_orbital": [ 
			{
				"type": "occ",
				"energy": -0.27528,
				"method": "rhf"
			},
			{
				"type": "occ",
				"energy": -0.25547,
				"method": "rhf"
			},
			{
				"type": "occ",
				"energy": -0.2536,
				"method": "rhf"
			},
			{
				"type": "occ",
				"energy": -0.24661,
				"method": "rhf"
			},
			{
				"type": "occ",
				"energy": -0.23937,
				"method": "rhf"
			},
			{
				"type": "unocc",
				"energy": -0.02323,
				"method": "rhf"
			},
			{
				"type": "unocc",
				"energy": -0.01437,
				"method": "rhf"
			},
			{
				"type": "unocc",
				"energy": -0.00748,
				"method": "rhf"
			},
			{
				"type": "unocc",
				"energy": -0.00267,
				"method": "rhf"
			},
			{
				"type": "unocc",
				"energy": 0.00559,
				"method": "rhf"
			}
		],
		"cosmo_sigma_profile": { 
			"-0.025": 0.0,
			"-0.024": 0.0,
			"-0.023": 0.0,
			"-0.022": 0.0,
			"-0.021": 0.0,
			"-0.02": 0.0298388298794,
			"-0.019": 0.950467903889,
			"-0.018": 0.88556376213,
			"-0.017": 1.11194916855,
			"-0.016": 1.43412180186,
			"-0.015": 0.950857207418,
			"-0.014": 0.618714302107,
			"-0.013": 1.78108664684,
			"-0.012": 1.35348805408,
			"-0.011": 0.998529822534,
			"-0.01": 1.26984599402,
			"-0.009": 1.79527995315,
			"-0.008": 3.97875803609,
			"-0.007": 9.31947168778,
			"-0.006": 19.8091208034,
			"-0.005": 23.0198635109,
			"-0.004": 21.0265396359,
			"-0.003": 18.7622367685,
			"-0.002": 15.1381366533,
			"-0.001": 12.84836529,
			"0.0": 13.482626351,
			"0.001": 15.1139766785,
			"0.002": 21.1981365141,
			"0.003": 17.7100996525,
			"0.004": 15.103603485,
			"0.005": 15.2360495586,
			"0.006": 7.83493814269,
			"0.007": 4.81802637346,
			"0.008": 7.55360689403,
			"0.009": 6.60224156405,
			"0.01": 6.26980961308,
			"0.011": 6.31507093168,
			"0.012": 3.74095829187,
			"0.013": 1.54221017189,
			"0.014": 0.666294906781,
			"0.015": 1.01747167537,
			"0.016": 0.839169639713,
			"0.017": 0.288607688505,
			"0.018": 0.0,
			"0.019": 0.0,
			"0.02": 0.0,
			"0.021": 0.0,
			"0.022": 0.0,
			"0.023": 0.0,
			"0.024": 0.0,
			"0.025": 0.0
		}
	}
}
