{
	 "smiles": "COC(=O)C1=CC=CC(Cl)=C1", 
	 "Tm": 294.15, 
	 "num_atms": 18, 
	 "gaussian": { 
		 "optdone": 1, 
		 "sigma_profile": "yes", 
		 "theory": "DFT", 
		 "functional": "B3LYP", 
		 "basiset": "6-31G**", 
		 "properties": { 
			 "R2extent": 3780.6209, 
			 "electric_dipole_moment_norm": 3.25927863338, 
			 "electric_quadrupole_moment_norm": 8.57030301798, 
			 "total_energy": -919.72179916, 
			 "HOMO_LUMO_gap": 0.19944, 
			 "cosmo_polarized_energy": -7.19, 
			 "cosmo_cavitation_energy": 24.56, 
			 "cosmo_dispersion_energy": -18.24, 
			 "cosmo_repulsion_energy": 1.47, 
			 "cosmo_total_nonelectrostatic_energy": 7.8, 
			 "SMD_solvation_energy": 5.59 
		},
		"coords": [
			{
				"x": -0.0470649758,
				"y": -1.5990613303,
				"z": 2.5018776797,
				"element": "C" 
			},
			{
				"x": 0.5492289064,
				"y": -1.0910566986,
				"z": 1.297967587,
				"element": "O" 
			},
			{
				"x": 0.8316690719,
				"y": 0.2305264392,
				"z": 1.3092332653,
				"element": "C" 
			},
			{
				"x": 0.6045801885,
				"y": 0.9523272844,
				"z": 2.2598686815,
				"element": "O" 
			},
			{
				"x": 1.4480369338,
				"y": 0.690091132,
				"z": 0.0294972792,
				"element": "C" 
			},
			{
				"x": 1.692861058,
				"y": -0.1770851183,
				"z": -1.0431779458,
				"element": "C" 
			},
			{
				"x": 2.2716561856,
				"y": 0.3180263259,
				"z": -2.2105899413,
				"element": "C" 
			},
			{
				"x": 2.6086347232,
				"y": 1.668095326,
				"z": -2.3193993252,
				"element": "C" 
			},
			{
				"x": 2.358332851,
				"y": 2.5198775301,
				"z": -1.2414661553,
				"element": "C" 
			},
			{
				"x": 2.7801257557,
				"y": 4.2201065999,
				"z": -1.372191752,
				"element": "Cl" 
			},
			{
				"x": 1.7818111417,
				"y": 2.0468430652,
				"z": -0.0677469636,
				"element": "C" 
			},
			{
				"x": -0.2068704895,
				"y": -2.662493789,
				"z": 2.3253503065,
				"element": "H" 
			},
			{
				"x": 0.6189931262,
				"y": -1.4455534818,
				"z": 3.3545648597,
				"element": "H" 
			},
			{
				"x": -0.9955062986,
				"y": -1.0947758081,
				"z": 2.7029512778,
				"element": "H" 
			},
			{
				"x": 1.4302834629,
				"y": -1.2243795668,
				"z": -0.9558586871,
				"element": "H" 
			},
			{
				"x": 2.4643056431,
				"y": -0.3482403989,
				"z": -3.0459731226,
				"element": "H" 
			},
			{
				"x": 3.0591629071,
				"y": 2.0591500897,
				"z": -3.2250566632,
				"element": "H" 
			},
			{
				"x": 1.5854598091,
				"y": 2.7033023993,
				"z": 0.7716496193,
				"element": "H" 
			}
		],
		 "valence_orbital": [ 
			{
				"type": "occ",
				"energy": -0.31645,
				"method": "rhf"
			},
			{
				"type": "occ",
				"energy": -0.30814,
				"method": "rhf"
			},
			{
				"type": "occ",
				"energy": -0.2807,
				"method": "rhf"
			},
			{
				"type": "occ",
				"energy": -0.27159,
				"method": "rhf"
			},
			{
				"type": "occ",
				"energy": -0.25488,
				"method": "rhf"
			},
			{
				"type": "unocc",
				"energy": -0.05544,
				"method": "rhf"
			},
			{
				"type": "unocc",
				"energy": -0.02015,
				"method": "rhf"
			},
			{
				"type": "unocc",
				"energy": 0.02643,
				"method": "rhf"
			},
			{
				"type": "unocc",
				"energy": 0.04801,
				"method": "rhf"
			},
			{
				"type": "unocc",
				"energy": 0.10283,
				"method": "rhf"
			}
		],
		"cosmo_sigma_profile": { 
			"-0.025": 0.0,
			"-0.024": 0.0,
			"-0.023": 0.0,
			"-0.022": 0.0,
			"-0.021": 0.0,
			"-0.02": 0.0,
			"-0.019": 0.0,
			"-0.018": 0.0,
			"-0.017": 0.0,
			"-0.016": 0.0,
			"-0.015": 0.0,
			"-0.014": 0.0,
			"-0.013": 0.0,
			"-0.012": 0.0,
			"-0.011": 0.0,
			"-0.01": 0.0,
			"-0.009": 0.0,
			"-0.008": 1.23217999015,
			"-0.007": 6.13695981248,
			"-0.006": 11.9166300807,
			"-0.005": 13.5722127327,
			"-0.004": 13.9033839794,
			"-0.003": 16.8252782612,
			"-0.002": 13.1463222384,
			"-0.001": 12.9106836301,
			"0.0": 17.6682155076,
			"0.001": 21.1782211245,
			"0.002": 21.3607452016,
			"0.003": 13.872550089,
			"0.004": 13.1274905269,
			"0.005": 7.31072856633,
			"0.006": 2.0362832951,
			"0.007": 1.76198629803,
			"0.008": 1.09950215169,
			"0.009": 1.49223632113,
			"0.01": 1.79556362832,
			"0.011": 3.62481057549,
			"0.012": 3.15790426996,
			"0.013": 0.0321078551698,
			"0.014": 0.0,
			"0.015": 0.0,
			"0.016": 0.0,
			"0.017": 0.0,
			"0.018": 0.0,
			"0.019": 0.0,
			"0.02": 0.0,
			"0.021": 0.0,
			"0.022": 0.0,
			"0.023": 0.0,
			"0.024": 0.0,
			"0.025": 0.0
		}
	}
}
