{
	 "smiles": "OC1=CC=C(C=C1C1=CC(=CC=C1O)[N+]([O-])=O)[N+]([O-])=O", 
	 "Tm": 459.15, 
	 "num_atms": 28, 
	 "gaussian": { 
		 "optdone": 1, 
		 "sigma_profile": "yes", 
		 "theory": "DFT", 
		 "functional": "B3LYP", 
		 "basiset": "6-31G**", 
		 "properties": { 
			 "R2extent": 7225.499, 
			 "electric_dipole_moment_norm": 4.25751634759, 
			 "electric_quadrupole_moment_norm": 48.6584224849, 
			 "total_energy": -1022.74212648, 
			 "HOMO_LUMO_gap": 0.16139, 
			 "cosmo_polarized_energy": -24.89, 
			 "cosmo_cavitation_energy": 34.83, 
			 "cosmo_dispersion_energy": -24.93, 
			 "cosmo_repulsion_energy": 1.9, 
			 "cosmo_total_nonelectrostatic_energy": 11.8, 
			 "SMD_solvation_energy": 11.1 
		},
		"coords": [
			{
				"x": -1.1194445357,
				"y": 1.5713569272,
				"z": 2.0404929553,
				"element": "O" 
			},
			{
				"x": 0.11897255,
				"y": 2.0801841611,
				"z": 1.8157013006,
				"element": "C" 
			},
			{
				"x": 0.6518167866,
				"y": 3.0883425481,
				"z": 2.6327082209,
				"element": "C" 
			},
			{
				"x": 1.9136245852,
				"y": 3.607544672,
				"z": 2.3838876891,
				"element": "C" 
			},
			{
				"x": 2.6366355836,
				"y": 3.1040693121,
				"z": 1.304101513,
				"element": "C" 
			},
			{
				"x": 2.1237029237,
				"y": 2.1032524161,
				"z": 0.4830040313,
				"element": "C" 
			},
			{
				"x": 0.8558390687,
				"y": 1.567316591,
				"z": 0.7211797872,
				"element": "C" 
			},
			{
				"x": 0.3104853685,
				"y": 0.4819058221,
				"z": -0.1393639021,
				"element": "C" 
			},
			{
				"x": -0.2452191857,
				"y": -0.6694476096,
				"z": 0.4236874032,
				"element": "C" 
			},
			{
				"x": -0.7349724489,
				"y": -1.6902929947,
				"z": -0.3868356717,
				"element": "C" 
			},
			{
				"x": -0.6927908974,
				"y": -1.6054350664,
				"z": -1.7772281966,
				"element": "C" 
			},
			{
				"x": -0.1467466377,
				"y": -0.4676937868,
				"z": -2.3525758232,
				"element": "C" 
			},
			{
				"x": 0.3508754024,
				"y": 0.5708721948,
				"z": -1.5516035211,
				"element": "C" 
			},
			{
				"x": 0.8769768273,
				"y": 1.6952065705,
				"z": -2.1013333649,
				"element": "O" 
			},
			{
				"x": -1.3081609102,
				"y": -2.8835494801,
				"z": 0.2383285993,
				"element": "N" 
			},
			{
				"x": -1.3311146038,
				"y": -2.9334302228,
				"z": 1.4689171172,
				"element": "O" 
			},
			{
				"x": -1.7346754848,
				"y": -3.7686622181,
				"z": -0.5054044942,
				"element": "O" 
			},
			{
				"x": 3.9701942159,
				"y": 3.6402287272,
				"z": 1.0259076057,
				"element": "N" 
			},
			{
				"x": 4.5881680681,
				"y": 3.1759243521,
				"z": 0.0667989381,
				"element": "O" 
			},
			{
				"x": 4.3957311161,
				"y": 4.5261599863,
				"z": 1.7692270674,
				"element": "O" 
			},
			{
				"x": -1.5167657489,
				"y": 2.0072934318,
				"z": 2.8062350045,
				"element": "H" 
			},
			{
				"x": 0.0647279847,
				"y": 3.4663883029,
				"z": 3.46624573,
				"element": "H" 
			},
			{
				"x": 2.3427048071,
				"y": 4.3859368889,
				"z": 3.0018141196,
				"element": "H" 
			},
			{
				"x": 2.7239985372,
				"y": 1.7496938812,
				"z": -0.3438669041,
				"element": "H" 
			},
			{
				"x": -0.3047333353,
				"y": -0.7832230003,
				"z": 1.4972738328,
				"element": "H" 
			},
			{
				"x": -1.0826439734,
				"y": -2.4177122353,
				"z": -2.377279983,
				"element": "H" 
			},
			{
				"x": -0.1054562422,
				"y": -0.3740735845,
				"z": -3.4351221261,
				"element": "H" 
			},
			{
				"x": 0.8397701791,
				"y": 1.634743413,
				"z": -3.0652969285,
				"element": "H" 
			}
		],
		 "valence_orbital": [ 
			{
				"type": "occ",
				"energy": -0.28842,
				"method": "rhf"
			},
			{
				"type": "occ",
				"energy": -0.28799,
				"method": "rhf"
			},
			{
				"type": "occ",
				"energy": -0.27522,
				"method": "rhf"
			},
			{
				"type": "occ",
				"energy": -0.26308,
				"method": "rhf"
			},
			{
				"type": "occ",
				"energy": -0.24642,
				"method": "rhf"
			},
			{
				"type": "unocc",
				"energy": -0.08503,
				"method": "rhf"
			},
			{
				"type": "unocc",
				"energy": -0.0849,
				"method": "rhf"
			},
			{
				"type": "unocc",
				"energy": -0.05348,
				"method": "rhf"
			},
			{
				"type": "unocc",
				"energy": -0.02032,
				"method": "rhf"
			},
			{
				"type": "unocc",
				"energy": 0.00202,
				"method": "rhf"
			}
		],
		"cosmo_sigma_profile": { 
			"-0.025": 0.0,
			"-0.024": 0.0,
			"-0.023": 0.0,
			"-0.022": 0.0,
			"-0.021": 0.0,
			"-0.02": 0.101729101408,
			"-0.019": 2.12579608746,
			"-0.018": 2.25258687832,
			"-0.017": 2.67775238147,
			"-0.016": 2.27663159406,
			"-0.015": 2.03646104711,
			"-0.014": 1.75203466829,
			"-0.013": 1.91713120043,
			"-0.012": 2.10122331525,
			"-0.011": 2.28687556219,
			"-0.01": 2.40362229268,
			"-0.009": 2.73653100977,
			"-0.008": 4.59092526262,
			"-0.007": 8.23608882609,
			"-0.006": 10.3789695147,
			"-0.005": 11.0628573776,
			"-0.004": 10.6830367229,
			"-0.003": 12.2830995365,
			"-0.002": 14.745382414,
			"-0.001": 20.6723564736,
			"0.0": 26.1853362236,
			"0.001": 29.3939431772,
			"0.002": 16.6111929484,
			"0.003": 8.90407461175,
			"0.004": 7.43360138806,
			"0.005": 8.80373696515,
			"0.006": 9.17843156764,
			"0.007": 13.4375708344,
			"0.008": 22.1000534817,
			"0.009": 11.2941032383,
			"0.01": 7.35949415793,
			"0.011": 1.72718940425,
			"0.012": 0.0,
			"0.013": 0.0,
			"0.014": 0.0,
			"0.015": 0.0,
			"0.016": 0.0,
			"0.017": 0.0,
			"0.018": 0.0,
			"0.019": 0.0,
			"0.02": 0.0,
			"0.021": 0.0,
			"0.022": 0.0,
			"0.023": 0.0,
			"0.024": 0.0,
			"0.025": 0.0
		}
	}
}
