{
	 "smiles": "BrC1=CC=C(OC2=CC=C(Br)C(Br)=C2)C(Br)=C1", 
	 "Tm": 293.15, 
	 "num_atms": 23, 
	 "gaussian": { 
		 "optdone": 1, 
		 "sigma_profile": "yes", 
		 "theory": "DFT", 
		 "functional": "B3LYP", 
		 "basiset": "6-31G**", 
		 "properties": { 
			 "R2extent": 16476.0793, 
			 "electric_dipole_moment_norm": 1.65293188607, 
			 "electric_quadrupole_moment_norm": 9.33498346222, 
			 "total_energy": -10821.7130702, 
			 "HOMO_LUMO_gap": 0.19308, 
			 "cosmo_polarized_energy": -7.46, 
			 "cosmo_cavitation_energy": 37.72, 
			 "cosmo_dispersion_energy": -28.4, 
			 "cosmo_repulsion_energy": 2.23, 
			 "cosmo_total_nonelectrostatic_energy": 11.55, 
			 "SMD_solvation_energy": 2.14 
		},
		"coords": [
			{
				"x": 0.4273071654,
				"y": -2.1447053486,
				"z": 4.8129277099,
				"element": "Br" 
			},
			{
				"x": 0.6179797198,
				"y": -1.0541770695,
				"z": 3.2595693814,
				"element": "C" 
			},
			{
				"x": -0.4917867533,
				"y": -0.7967505362,
				"z": 2.4556699135,
				"element": "C" 
			},
			{
				"x": -0.3431054255,
				"y": 0.0021040626,
				"z": 1.3249180504,
				"element": "C" 
			},
			{
				"x": 0.9055167176,
				"y": 0.5335549958,
				"z": 0.9870592961,
				"element": "C" 
			},
			{
				"x": 1.0737720392,
				"y": 1.3850776239,
				"z": -0.0777472138,
				"element": "O" 
			},
			{
				"x": 0.4953601114,
				"y": 1.1052913761,
				"z": -1.2979714566,
				"element": "C" 
			},
			{
				"x": 0.3817477565,
				"y": -0.1891669014,
				"z": -1.8111830135,
				"element": "C" 
			},
			{
				"x": -0.1543702121,
				"y": -0.3672163511,
				"z": -3.0829441838,
				"element": "C" 
			},
			{
				"x": -0.5693152909,
				"y": 0.7241994343,
				"z": -3.8503463034,
				"element": "C" 
			},
			{
				"x": -1.2881703177,
				"y": 0.3906554102,
				"z": -5.577576879,
				"element": "Br" 
			},
			{
				"x": -0.4414588928,
				"y": 2.0166655619,
				"z": -3.3273215921,
				"element": "C" 
			},
			{
				"x": -0.9777073254,
				"y": 3.5577773259,
				"z": -4.3009259745,
				"element": "Br" 
			},
			{
				"x": 0.0868673455,
				"y": 2.2054303832,
				"z": -2.0503301062,
				"element": "C" 
			},
			{
				"x": 2.0092170404,
				"y": 0.2640047213,
				"z": 1.8067084263,
				"element": "C" 
			},
			{
				"x": 3.7165731298,
				"y": 0.9776498676,
				"z": 1.3742459051,
				"element": "Br" 
			},
			{
				"x": 1.8683994166,
				"y": -0.5261508308,
				"z": 2.9471901458,
				"element": "C" 
			},
			{
				"x": -1.4617029491,
				"y": -1.2053624144,
				"z": 2.7133862321,
				"element": "H" 
			},
			{
				"x": -1.199807989,
				"y": 0.2233480118,
				"z": 0.6973368689,
				"element": "H" 
			},
			{
				"x": 0.7118677741,
				"y": -1.0439318837,
				"z": -1.2322398757,
				"element": "H" 
			},
			{
				"x": -0.2461505217,
				"y": -1.365386663,
				"z": -3.4953806472,
				"element": "H" 
			},
			{
				"x": 0.1890938116,
				"y": 3.2008929721,
				"z": -1.63642286,
				"element": "H" 
			},
			{
				"x": 2.7274736496,
				"y": -0.7275037479,
				"z": 3.5741781761,
				"element": "H" 
			}
		],
		 "valence_orbital": [ 
			{
				"type": "occ",
				"energy": -0.2826,
				"method": "rhf"
			},
			{
				"type": "occ",
				"energy": -0.26817,
				"method": "rhf"
			},
			{
				"type": "occ",
				"energy": -0.265,
				"method": "rhf"
			},
			{
				"type": "occ",
				"energy": -0.25451,
				"method": "rhf"
			},
			{
				"type": "occ",
				"energy": -0.23509,
				"method": "rhf"
			},
			{
				"type": "unocc",
				"energy": -0.04201,
				"method": "rhf"
			},
			{
				"type": "unocc",
				"energy": -0.0371,
				"method": "rhf"
			},
			{
				"type": "unocc",
				"energy": -0.02997,
				"method": "rhf"
			},
			{
				"type": "unocc",
				"energy": -0.02676,
				"method": "rhf"
			},
			{
				"type": "unocc",
				"energy": -0.02444,
				"method": "rhf"
			}
		],
		"cosmo_sigma_profile": { 
			"-0.025": 0.0,
			"-0.024": 0.0,
			"-0.023": 0.0,
			"-0.022": 0.0,
			"-0.021": 0.0,
			"-0.02": 0.0,
			"-0.019": 0.0,
			"-0.018": 0.0,
			"-0.017": 0.0,
			"-0.016": 0.0,
			"-0.015": 0.0,
			"-0.014": 0.0,
			"-0.013": 0.0,
			"-0.012": 0.0,
			"-0.011": 0.0,
			"-0.01": 0.0,
			"-0.009": 0.617937762448,
			"-0.008": 8.27707207438,
			"-0.007": 9.86929632639,
			"-0.006": 11.4600787557,
			"-0.005": 13.1013579558,
			"-0.004": 15.6616925798,
			"-0.003": 16.4195265469,
			"-0.002": 18.4012166101,
			"-0.001": 21.2888260432,
			"0.0": 36.5150834213,
			"0.001": 49.3978549798,
			"0.002": 32.1534366559,
			"0.003": 31.2390789559,
			"0.004": 37.9248537252,
			"0.005": 10.1203990791,
			"0.006": 2.56082388337,
			"0.007": 1.79655821967,
			"0.008": 0.699747501199,
			"0.009": 0.0,
			"0.01": 0.0,
			"0.011": 0.0,
			"0.012": 0.0,
			"0.013": 0.0,
			"0.014": 0.0,
			"0.015": 0.0,
			"0.016": 0.0,
			"0.017": 0.0,
			"0.018": 0.0,
			"0.019": 0.0,
			"0.02": 0.0,
			"0.021": 0.0,
			"0.022": 0.0,
			"0.023": 0.0,
			"0.024": 0.0,
			"0.025": 0.0
		}
	}
}
