{
	 "smiles": "OC1=C(CC=C)C=CC=C1", 
	 "Tm": 267.15, 
	 "num_atms": 20, 
	 "gaussian": { 
		 "optdone": 1, 
		 "sigma_profile": "yes", 
		 "theory": "DFT", 
		 "functional": "B3LYP", 
		 "basiset": "6-31G**", 
		 "properties": { 
			 "R2extent": 1998.6091, 
			 "electric_dipole_moment_norm": 1.78229241428, 
			 "electric_quadrupole_moment_norm": 7.79164931962, 
			 "total_energy": -424.185356661, 
			 "HOMO_LUMO_gap": 0.21706, 
			 "cosmo_polarized_energy": -6.4, 
			 "cosmo_cavitation_energy": 22.96, 
			 "cosmo_dispersion_energy": -16.77, 
			 "cosmo_repulsion_energy": 1.36, 
			 "cosmo_total_nonelectrostatic_energy": 7.55, 
			 "SMD_solvation_energy": 4.49 
		},
		"coords": [
			{
				"x": 0.8565304002,
				"y": -0.5535429308,
				"z": -2.8659716251,
				"element": "O" 
			},
			{
				"x": 1.3602866086,
				"y": -0.7616661581,
				"z": -1.6105545399,
				"element": "C" 
			},
			{
				"x": 0.6425235374,
				"y": -1.465340558,
				"z": -0.6220531946,
				"element": "C" 
			},
			{
				"x": -0.7011220682,
				"y": -2.0860298481,
				"z": -0.94028277,
				"element": "C" 
			},
			{
				"x": -1.8327053457,
				"y": -1.1378223626,
				"z": -1.2844164402,
				"element": "C" 
			},
			{
				"x": -1.8211956688,
				"y": 0.1920133387,
				"z": -1.1599283955,
				"element": "C" 
			},
			{
				"x": 1.2391539636,
				"y": -1.6285870625,
				"z": 0.6336590019,
				"element": "C" 
			},
			{
				"x": 2.5150077849,
				"y": -1.1359184197,
				"z": 0.9084677477,
				"element": "C" 
			},
			{
				"x": 3.2189633441,
				"y": -0.4630668684,
				"z": -0.0921965756,
				"element": "C" 
			},
			{
				"x": 2.6426041572,
				"y": -0.2711483203,
				"z": -1.3459186058,
				"element": "C" 
			},
			{
				"x": -0.1116756517,
				"y": -0.5765154717,
				"z": -2.8239553729,
				"element": "H" 
			},
			{
				"x": -1.0205937189,
				"y": -2.709236058,
				"z": -0.0944708712,
				"element": "H" 
			},
			{
				"x": -0.5851303933,
				"y": -2.7871376599,
				"z": -1.7812452952,
				"element": "H" 
			},
			{
				"x": -2.7332086509,
				"y": -1.6230354934,
				"z": -1.6622447187,
				"element": "H" 
			},
			{
				"x": -2.6880623754,
				"y": 0.7892118874,
				"z": -1.425877105,
				"element": "H" 
			},
			{
				"x": -0.9562819376,
				"y": 0.7238767168,
				"z": -0.7727736356,
				"element": "H" 
			},
			{
				"x": 0.6918781304,
				"y": -2.1666439913,
				"z": 1.404214524,
				"element": "H" 
			},
			{
				"x": 2.9558427968,
				"y": -1.2817482908,
				"z": 1.8897708876,
				"element": "H" 
			},
			{
				"x": 4.2155340172,
				"y": -0.0778771554,
				"z": 0.1042994624,
				"element": "H" 
			},
			{
				"x": 3.1638510702,
				"y": 0.2601147061,
				"z": -2.1357224782,
				"element": "H" 
			}
		],
		 "valence_orbital": [ 
			{
				"type": "occ",
				"energy": -0.33386,
				"method": "rhf"
			},
			{
				"type": "occ",
				"energy": -0.31705,
				"method": "rhf"
			},
			{
				"type": "occ",
				"energy": -0.27005,
				"method": "rhf"
			},
			{
				"type": "occ",
				"energy": -0.2424,
				"method": "rhf"
			},
			{
				"type": "occ",
				"energy": -0.21586,
				"method": "rhf"
			},
			{
				"type": "unocc",
				"energy": 0.0012,
				"method": "rhf"
			},
			{
				"type": "unocc",
				"energy": 0.00793,
				"method": "rhf"
			},
			{
				"type": "unocc",
				"energy": 0.01547,
				"method": "rhf"
			},
			{
				"type": "unocc",
				"energy": 0.09188,
				"method": "rhf"
			},
			{
				"type": "unocc",
				"energy": 0.10061,
				"method": "rhf"
			}
		],
		"cosmo_sigma_profile": { 
			"-0.025": 0.0,
			"-0.024": 0.0,
			"-0.023": 0.0,
			"-0.022": 0.0,
			"-0.021": 0.0,
			"-0.02": 0.0,
			"-0.019": 0.0,
			"-0.018": 0.0,
			"-0.017": 0.0,
			"-0.016": 0.0,
			"-0.015": 0.0,
			"-0.014": 0.0,
			"-0.013": 0.0,
			"-0.012": 0.0,
			"-0.011": 0.397715913036,
			"-0.01": 0.773797023091,
			"-0.009": 0.830132075646,
			"-0.008": 0.978420724902,
			"-0.007": 0.890688871045,
			"-0.006": 4.49759002494,
			"-0.005": 17.9364040295,
			"-0.004": 18.084808376,
			"-0.003": 20.4780939021,
			"-0.002": 16.1228498584,
			"-0.001": 13.1603464974,
			"0.0": 12.9444607456,
			"0.001": 11.3627006161,
			"0.002": 9.5241598801,
			"0.003": 10.4163671371,
			"0.004": 11.8696510621,
			"0.005": 10.6622763957,
			"0.006": 10.3825285806,
			"0.007": 3.5041921995,
			"0.008": 1.37255722906,
			"0.009": 0.992817708731,
			"0.01": 1.63945346432,
			"0.011": 1.95798272379,
			"0.012": 1.52761106102,
			"0.013": 0.136647388177,
			"0.014": 0.0,
			"0.015": 0.0,
			"0.016": 0.0,
			"0.017": 0.0,
			"0.018": 0.0,
			"0.019": 0.0,
			"0.02": 0.0,
			"0.021": 0.0,
			"0.022": 0.0,
			"0.023": 0.0,
			"0.024": 0.0,
			"0.025": 0.0
		}
	}
}
