{
	 "smiles": "NCC1=C(CS(=O)(=O)N2CCOCC2)C=CC=C1", 
	 "Tm": 364.15, 
	 "num_atms": 36, 
	 "gaussian": { 
		 "optdone": 1, 
		 "sigma_profile": "yes", 
		 "theory": "DFT", 
		 "functional": "B3LYP", 
		 "basiset": "6-31G**", 
		 "properties": { 
			 "R2extent": 5369.3314, 
			 "electric_dipole_moment_norm": 3.92405219767, 
			 "electric_quadrupole_moment_norm": 11.9988055089, 
			 "total_energy": -1201.40576249, 
			 "HOMO_LUMO_gap": 0.20844, 
			 "cosmo_polarized_energy": -16.11, 
			 "cosmo_cavitation_energy": 37.75, 
			 "cosmo_dispersion_energy": -26.71, 
			 "cosmo_repulsion_energy": 2.03, 
			 "cosmo_total_nonelectrostatic_energy": 13.07, 
			 "SMD_solvation_energy": 4.55 
		},
		"coords": [
			{
				"x": -4.1038475972,
				"y": 0.9014030361,
				"z": 2.022535092,
				"element": "N" 
			},
			{
				"x": -3.4788486993,
				"y": 1.3195610521,
				"z": 0.755998792,
				"element": "C" 
			},
			{
				"x": -3.1311553947,
				"y": 0.1216826411,
				"z": -0.1103301385,
				"element": "C" 
			},
			{
				"x": -2.2114158539,
				"y": -0.868026383,
				"z": 0.30520667,
				"element": "C" 
			},
			{
				"x": -1.5187677034,
				"y": -0.7908013488,
				"z": 1.64004596,
				"element": "C" 
			},
			{
				"x": 0.0626565354,
				"y": 0.1272193021,
				"z": 1.629263125,
				"element": "S" 
			},
			{
				"x": -0.1767958475,
				"y": 1.453090727,
				"z": 1.036485738,
				"element": "O" 
			},
			{
				"x": 0.6257112949,
				"y": -0.0013936902,
				"z": 2.9806775954,
				"element": "O" 
			},
			{
				"x": 1.036872426,
				"y": -0.7586861842,
				"z": 0.5659700037,
				"element": "N" 
			},
			{
				"x": 2.1813068377,
				"y": -1.5038571558,
				"z": 1.1249882027,
				"element": "C" 
			},
			{
				"x": 3.4664351876,
				"y": -0.6787474613,
				"z": 1.0415496703,
				"element": "C" 
			},
			{
				"x": 3.7063577586,
				"y": -0.2378455478,
				"z": -0.2898183066,
				"element": "O" 
			},
			{
				"x": 2.6409018854,
				"y": 0.5783979023,
				"z": -0.7649785293,
				"element": "C" 
			},
			{
				"x": 1.3177386157,
				"y": -0.1877232929,
				"z": -0.7661299927,
				"element": "C" 
			},
			{
				"x": -1.9406774161,
				"y": -1.9516372606,
				"z": -0.5403831035,
				"element": "C" 
			},
			{
				"x": -2.5578055603,
				"y": -2.0726074344,
				"z": -1.7856070946,
				"element": "C" 
			},
			{
				"x": -3.4643595796,
				"y": -1.0984752212,
				"z": -2.1985683132,
				"element": "C" 
			},
			{
				"x": -3.7449079397,
				"y": -0.0182465408,
				"z": -1.3600089097,
				"element": "C" 
			},
			{
				"x": -4.267973974,
				"y": 1.7146110517,
				"z": 2.6105553335,
				"element": "H" 
			},
			{
				"x": -5.010829411,
				"y": 0.4783175231,
				"z": 1.8408688162,
				"element": "H" 
			},
			{
				"x": -4.1034793334,
				"y": 2.0045248442,
				"z": 0.1600276372,
				"element": "H" 
			},
			{
				"x": -2.5607033098,
				"y": 1.8618492588,
				"z": 1.0033507431,
				"element": "H" 
			},
			{
				"x": -1.2526549703,
				"y": -1.7798588493,
				"z": 2.0204631858,
				"element": "H" 
			},
			{
				"x": -2.1385214464,
				"y": -0.2755193673,
				"z": 2.3797701089,
				"element": "H" 
			},
			{
				"x": 2.2923893594,
				"y": -2.4195788563,
				"z": 0.5305265968,
				"element": "H" 
			},
			{
				"x": 1.9662398479,
				"y": -1.7792399767,
				"z": 2.1582166894,
				"element": "H" 
			},
			{
				"x": 4.3316104609,
				"y": -1.2839122916,
				"z": 1.3304139677,
				"element": "H" 
			},
			{
				"x": 3.3933401158,
				"y": 0.1808759668,
				"z": 1.7264086141,
				"element": "H" 
			},
			{
				"x": 2.9109995684,
				"y": 0.8816365035,
				"z": -1.7814461971,
				"element": "H" 
			},
			{
				"x": 2.5392965432,
				"y": 1.4811558461,
				"z": -0.1425107114,
				"element": "H" 
			},
			{
				"x": 1.3735627412,
				"y": -1.0267746431,
				"z": -1.4705972363,
				"element": "H" 
			},
			{
				"x": 0.4940961836,
				"y": 0.4608242299,
				"z": -1.0647932655,
				"element": "H" 
			},
			{
				"x": -1.2341334778,
				"y": -2.7091915697,
				"z": -0.2126795841,
				"element": "H" 
			},
			{
				"x": -2.3342076058,
				"y": -2.9232314303,
				"z": -2.4228191588,
				"element": "H" 
			},
			{
				"x": -3.9570263145,
				"y": -1.1794063225,
				"z": -3.1632780872,
				"element": "H" 
			},
			{
				"x": -4.4563039269,
				"y": 0.7387109425,
				"z": -1.6812739137,
				"element": "H" 
			}
		],
		 "valence_orbital": [ 
			{
				"type": "occ",
				"energy": -0.27895,
				"method": "rhf"
			},
			{
				"type": "occ",
				"energy": -0.2538,
				"method": "rhf"
			},
			{
				"type": "occ",
				"energy": -0.24771,
				"method": "rhf"
			},
			{
				"type": "occ",
				"energy": -0.24303,
				"method": "rhf"
			},
			{
				"type": "occ",
				"energy": -0.2292,
				"method": "rhf"
			},
			{
				"type": "unocc",
				"energy": -0.02076,
				"method": "rhf"
			},
			{
				"type": "unocc",
				"energy": -0.00725,
				"method": "rhf"
			},
			{
				"type": "unocc",
				"energy": 0.06514,
				"method": "rhf"
			},
			{
				"type": "unocc",
				"energy": 0.07777,
				"method": "rhf"
			},
			{
				"type": "unocc",
				"energy": 0.08706,
				"method": "rhf"
			}
		],
		"cosmo_sigma_profile": { 
			"-0.025": 0.0,
			"-0.024": 0.0,
			"-0.023": 0.0,
			"-0.022": 0.0,
			"-0.021": 0.0,
			"-0.02": 0.0,
			"-0.019": 0.0,
			"-0.018": 0.0,
			"-0.017": 0.0,
			"-0.016": 0.0,
			"-0.015": 0.0,
			"-0.014": 0.0,
			"-0.013": 0.0,
			"-0.012": 0.0,
			"-0.011": 0.0576286756993,
			"-0.01": 1.77759587069,
			"-0.009": 2.98527920903,
			"-0.008": 3.76865595569,
			"-0.007": 5.06028620729,
			"-0.006": 13.2983496769,
			"-0.005": 29.8669943792,
			"-0.004": 32.2330241735,
			"-0.003": 32.4694186418,
			"-0.002": 25.3222023073,
			"-0.001": 18.7953187853,
			"0.0": 15.0597401026,
			"0.001": 14.2785427318,
			"0.002": 13.0206418441,
			"0.003": 15.9245246348,
			"0.004": 12.8395587463,
			"0.005": 12.9925100359,
			"0.006": 7.76737327851,
			"0.007": 4.02805140624,
			"0.008": 4.83174490097,
			"0.009": 5.54450567233,
			"0.01": 6.77759514513,
			"0.011": 8.3986001953,
			"0.012": 6.85544552288,
			"0.013": 1.98411027754,
			"0.014": 0.111906550133,
			"0.015": 0.0,
			"0.016": 0.0,
			"0.017": 0.0,
			"0.018": 0.0,
			"0.019": 0.0,
			"0.02": 0.0,
			"0.021": 0.0,
			"0.022": 0.0,
			"0.023": 0.0,
			"0.024": 0.0,
			"0.025": 0.0
		}
	}
}
