{
	 "smiles": "CC1=C(SC=C1)C(N)=O", 
	 "Tm": 396.65, 
	 "num_atms": 16, 
	 "gaussian": { 
		 "optdone": 1, 
		 "sigma_profile": "yes", 
		 "theory": "DFT", 
		 "functional": "B3LYP", 
		 "basiset": "6-31G**", 
		 "properties": { 
			 "R2extent": 1707.2094, 
			 "electric_dipole_moment_norm": 2.72378286396, 
			 "electric_quadrupole_moment_norm": 11.397847123, 
			 "total_energy": -761.028218604, 
			 "HOMO_LUMO_gap": 0.19416, 
			 "cosmo_polarized_energy": -11.38, 
			 "cosmo_cavitation_energy": 21.24, 
			 "cosmo_dispersion_energy": -16.49, 
			 "cosmo_repulsion_energy": 1.3, 
			 "cosmo_total_nonelectrostatic_energy": 6.05, 
			 "SMD_solvation_energy": 4.5 
		},
		"coords": [
			{
				"x": -0.2348157826,
				"y": 2.1136360286,
				"z": -0.5859953177,
				"element": "C" 
			},
			{
				"x": 0.1071764606,
				"y": 0.6697827566,
				"z": -0.3340607322,
				"element": "C" 
			},
			{
				"x": 0.184922296,
				"y": -0.3193025519,
				"z": -1.2994644381,
				"element": "C" 
			},
			{
				"x": 0.6118139201,
				"y": -1.8653489298,
				"z": -0.5886054269,
				"element": "S" 
			},
			{
				"x": 0.6828409636,
				"y": -1.1774640829,
				"z": 0.9929377302,
				"element": "C" 
			},
			{
				"x": 0.3952656891,
				"y": 0.1590780282,
				"z": 0.9701733772,
				"element": "C" 
			},
			{
				"x": -0.0538291753,
				"y": -0.1358736799,
				"z": -2.7511722319,
				"element": "C" 
			},
			{
				"x": 0.0725596187,
				"y": -1.2412720064,
				"z": -3.5508003374,
				"element": "N" 
			},
			{
				"x": -0.3517370381,
				"y": 0.9599789838,
				"z": -3.2205646099,
				"element": "O" 
			},
			{
				"x": -0.2257804262,
				"y": 2.6761461961,
				"z": 0.3518551356,
				"element": "H" 
			},
			{
				"x": -1.218976407,
				"y": 2.2105556829,
				"z": -1.0517365489,
				"element": "H" 
			},
			{
				"x": 0.4716477465,
				"y": 2.5705267134,
				"z": -1.2838885214,
				"element": "H" 
			},
			{
				"x": 0.9315729962,
				"y": -1.7964069123,
				"z": 1.8439420999,
				"element": "H" 
			},
			{
				"x": 0.3857486444,
				"y": 0.7788457759,
				"z": 1.8602291392,
				"element": "H" 
			},
			{
				"x": 0.3148379293,
				"y": -2.1583332051,
				"z": -3.2137493797,
				"element": "H" 
			},
			{
				"x": -0.0902474353,
				"y": -1.1122487972,
				"z": -4.536999938,
				"element": "H" 
			}
		],
		 "valence_orbital": [ 
			{
				"type": "occ",
				"energy": -0.34549,
				"method": "rhf"
			},
			{
				"type": "occ",
				"energy": -0.26555,
				"method": "rhf"
			},
			{
				"type": "occ",
				"energy": -0.25245,
				"method": "rhf"
			},
			{
				"type": "occ",
				"energy": -0.25017,
				"method": "rhf"
			},
			{
				"type": "occ",
				"energy": -0.23665,
				"method": "rhf"
			},
			{
				"type": "unocc",
				"energy": -0.04249,
				"method": "rhf"
			},
			{
				"type": "unocc",
				"energy": 0.0143,
				"method": "rhf"
			},
			{
				"type": "unocc",
				"energy": 0.04317,
				"method": "rhf"
			},
			{
				"type": "unocc",
				"energy": 0.07773,
				"method": "rhf"
			},
			{
				"type": "unocc",
				"energy": 0.10075,
				"method": "rhf"
			}
		],
		"cosmo_sigma_profile": { 
			"-0.025": 0.0,
			"-0.024": 0.0,
			"-0.023": 0.0,
			"-0.022": 0.0,
			"-0.021": 0.0,
			"-0.02": 0.0,
			"-0.019": 0.0,
			"-0.018": 0.0,
			"-0.017": 0.0,
			"-0.016": 0.0,
			"-0.015": 0.125979356378,
			"-0.014": 1.4888127494,
			"-0.013": 1.67748982136,
			"-0.012": 2.24612371956,
			"-0.011": 1.84295943163,
			"-0.01": 2.52825187392,
			"-0.009": 4.53507404997,
			"-0.008": 3.33731970722,
			"-0.007": 3.6655540304,
			"-0.006": 6.18454277959,
			"-0.005": 6.4221832931,
			"-0.004": 9.10146116966,
			"-0.003": 9.77606194704,
			"-0.002": 9.53141255549,
			"-0.001": 10.2335870181,
			"0.0": 17.2787356213,
			"0.001": 13.4678234414,
			"0.002": 13.3636987491,
			"0.003": 17.5803989579,
			"0.004": 13.4098213069,
			"0.005": 4.1967028526,
			"0.006": 2.02649372738,
			"0.007": 1.31705473201,
			"0.008": 1.93578548348,
			"0.009": 1.6308752699,
			"0.01": 1.45198910781,
			"0.011": 0.865592178661,
			"0.012": 2.18717348373,
			"0.013": 2.80133526472,
			"0.014": 4.00169895396,
			"0.015": 0.6897555443,
			"0.016": 0.0,
			"0.017": 0.0,
			"0.018": 0.0,
			"0.019": 0.0,
			"0.02": 0.0,
			"0.021": 0.0,
			"0.022": 0.0,
			"0.023": 0.0,
			"0.024": 0.0,
			"0.025": 0.0
		}
	}
}
