{
	 "smiles": "COC(=O)C1=C(Br)C(=CC(F)=C1)S(Cl)(=O)=O", 
	 "Tm": 347.15, 
	 "num_atms": 21, 
	 "gaussian": { 
		 "optdone": 1, 
		 "sigma_profile": "yes", 
		 "theory": "DFT", 
		 "functional": "B3LYP", 
		 "basiset": "6-31G**", 
		 "properties": { 
			 "R2extent": 5943.9432, 
			 "electric_dipole_moment_norm": 4.08099225924, 
			 "electric_quadrupole_moment_norm": 13.9506480416, 
			 "total_energy": -4138.29089809, 
			 "HOMO_LUMO_gap": 0.17322, 
			 "cosmo_polarized_energy": -11.1, 
			 "cosmo_cavitation_energy": 32.24, 
			 "cosmo_dispersion_energy": -23.74, 
			 "cosmo_repulsion_energy": 1.77, 
			 "cosmo_total_nonelectrostatic_energy": 10.27, 
			 "SMD_solvation_energy": 5.56 
		},
		"coords": [
			{
				"x": -1.2945343841,
				"y": 0.3274409882,
				"z": 4.2122876741,
				"element": "C" 
			},
			{
				"x": -0.9936183715,
				"y": 0.2830675052,
				"z": 2.803343512,
				"element": "O" 
			},
			{
				"x": -0.1802006083,
				"y": -0.7070403479,
				"z": 2.420955845,
				"element": "C" 
			},
			{
				"x": 0.3356947825,
				"y": -1.5010581029,
				"z": 3.1797504445,
				"element": "O" 
			},
			{
				"x": 0.1224714681,
				"y": -0.695181569,
				"z": 0.9429630783,
				"element": "C" 
			},
			{
				"x": -0.7852762978,
				"y": -0.4002723444,
				"z": -0.0938777597,
				"element": "C" 
			},
			{
				"x": -2.6206111334,
				"y": -0.0934336742,
				"z": 0.2718690603,
				"element": "Br" 
			},
			{
				"x": -0.3109517141,
				"y": -0.4236875678,
				"z": -1.4179825225,
				"element": "C" 
			},
			{
				"x": 1.0136126558,
				"y": -0.7415325644,
				"z": -1.7232994092,
				"element": "C" 
			},
			{
				"x": 1.8727841456,
				"y": -1.0531441055,
				"z": -0.6809103856,
				"element": "C" 
			},
			{
				"x": 3.1452004111,
				"y": -1.371798683,
				"z": -0.9578167765,
				"element": "F" 
			},
			{
				"x": 1.444074683,
				"y": -1.0415701139,
				"z": 0.6353643339,
				"element": "C" 
			},
			{
				"x": -1.3081341106,
				"y": -0.0053794057,
				"z": -2.873776781,
				"element": "S" 
			},
			{
				"x": -2.5769736323,
				"y": -1.6942048653,
				"z": -3.0287835649,
				"element": "Cl" 
			},
			{
				"x": -2.1446425817,
				"y": 1.1549072356,
				"z": -2.6127459437,
				"element": "O" 
			},
			{
				"x": -0.4303444596,
				"y": -0.0608535617,
				"z": -4.0361086155,
				"element": "O" 
			},
			{
				"x": -1.9682642851,
				"y": 1.1739070842,
				"z": 4.3368993452,
				"element": "H" 
			},
			{
				"x": -1.7752789006,
				"y": -0.6010913574,
				"z": 4.5278271386,
				"element": "H" 
			},
			{
				"x": -0.3792743567,
				"y": 0.4706950322,
				"z": 4.7909973456,
				"element": "H" 
			},
			{
				"x": 1.3587798805,
				"y": -0.7508785231,
				"z": -2.7494408852,
				"element": "H" 
			},
			{
				"x": 2.1237868091,
				"y": -1.3054910594,
				"z": 1.4368848663,
				"element": "H" 
			}
		],
		 "valence_orbital": [ 
			{
				"type": "occ",
				"energy": -0.32115,
				"method": "rhf"
			},
			{
				"type": "occ",
				"energy": -0.31516,
				"method": "rhf"
			},
			{
				"type": "occ",
				"energy": -0.29983,
				"method": "rhf"
			},
			{
				"type": "occ",
				"energy": -0.29459,
				"method": "rhf"
			},
			{
				"type": "occ",
				"energy": -0.27265,
				"method": "rhf"
			},
			{
				"type": "unocc",
				"energy": -0.09943,
				"method": "rhf"
			},
			{
				"type": "unocc",
				"energy": -0.07721,
				"method": "rhf"
			},
			{
				"type": "unocc",
				"energy": -0.06323,
				"method": "rhf"
			},
			{
				"type": "unocc",
				"energy": -0.02092,
				"method": "rhf"
			},
			{
				"type": "unocc",
				"energy": 0.00853,
				"method": "rhf"
			}
		],
		"cosmo_sigma_profile": { 
			"-0.025": 0.0,
			"-0.024": 0.0,
			"-0.023": 0.0,
			"-0.022": 0.0,
			"-0.021": 0.0,
			"-0.02": 0.0,
			"-0.019": 0.0,
			"-0.018": 0.0,
			"-0.017": 0.0,
			"-0.016": 0.0,
			"-0.015": 0.0,
			"-0.014": 0.0,
			"-0.013": 0.0,
			"-0.012": 0.0,
			"-0.011": 0.0,
			"-0.01": 0.847036409656,
			"-0.009": 2.34415538814,
			"-0.008": 2.978408462,
			"-0.007": 6.94389937694,
			"-0.006": 13.6135786258,
			"-0.005": 16.162329802,
			"-0.004": 23.9017847495,
			"-0.003": 30.6648484161,
			"-0.002": 17.7333757177,
			"-0.001": 16.1666826775,
			"0.0": 14.1831770957,
			"0.001": 15.8580166514,
			"0.002": 23.7142238596,
			"0.003": 28.9046747448,
			"0.004": 7.22823345258,
			"0.005": 6.37879125747,
			"0.006": 6.40107673673,
			"0.007": 11.2819221704,
			"0.008": 10.4736336621,
			"0.009": 2.3412690063,
			"0.01": 3.01563404243,
			"0.011": 3.7994142041,
			"0.012": 0.111840214108,
			"0.013": 0.0,
			"0.014": 0.0,
			"0.015": 0.0,
			"0.016": 0.0,
			"0.017": 0.0,
			"0.018": 0.0,
			"0.019": 0.0,
			"0.02": 0.0,
			"0.021": 0.0,
			"0.022": 0.0,
			"0.023": 0.0,
			"0.024": 0.0,
			"0.025": 0.0
		}
	}
}
