{
	 "smiles": "ClC(=O)C1=CC(=CC(=C1)N(=O)=O)N(=O)=O", 
	 "Tm": 347.15, 
	 "num_atms": 18, 
	 "gaussian": { 
		 "optdone": 1, 
		 "sigma_profile": "yes", 
		 "theory": "DFT", 
		 "functional": "B3LYP", 
		 "basiset": "6-31G**", 
		 "properties": { 
			 "R2extent": 4274.4859, 
			 "electric_dipole_moment_norm": 0.914917209369, 
			 "electric_quadrupole_moment_norm": 14.4692496481, 
			 "total_energy": -1214.16010348, 
			 "HOMO_LUMO_gap": 0.19276, 
			 "cosmo_polarized_energy": -12.63, 
			 "cosmo_cavitation_energy": 27.43, 
			 "cosmo_dispersion_energy": -19.82, 
			 "cosmo_repulsion_energy": 1.55, 
			 "cosmo_total_nonelectrostatic_energy": 9.16, 
			 "SMD_solvation_energy": 9.96 
		},
		"coords": [
			{
				"x": -2.5781688066,
				"y": -1.4445724213,
				"z": 3.0076117357,
				"element": "Cl" 
			},
			{
				"x": -1.6503980009,
				"y": -0.077273356,
				"z": 2.277285469,
				"element": "C" 
			},
			{
				"x": -1.5215724366,
				"y": 0.9465967588,
				"z": 2.8772449118,
				"element": "O" 
			},
			{
				"x": -1.0890819899,
				"y": -0.3399463294,
				"z": 0.918672237,
				"element": "C" 
			},
			{
				"x": -0.3652703519,
				"y": 0.7102669016,
				"z": 0.3336902539,
				"element": "C" 
			},
			{
				"x": 0.1817766133,
				"y": 0.5273858654,
				"z": -0.9294855841,
				"element": "C" 
			},
			{
				"x": 0.0397971957,
				"y": -0.6603851571,
				"z": -1.6398400786,
				"element": "C" 
			},
			{
				"x": -0.6826717837,
				"y": -1.6796818568,
				"z": -1.0312830586,
				"element": "C" 
			},
			{
				"x": -1.2509624128,
				"y": -1.5476920224,
				"z": 0.2319731995,
				"element": "C" 
			},
			{
				"x": -0.8538798656,
				"y": -2.9571374662,
				"z": -1.7576824398,
				"element": "N" 
			},
			{
				"x": -1.4962704302,
				"y": -3.839374119,
				"z": -1.1958865317,
				"element": "O" 
			},
			{
				"x": -0.3411284151,
				"y": -3.0417929082,
				"z": -2.8692229669,
				"element": "O" 
			},
			{
				"x": 0.9447826885,
				"y": 1.6349646509,
				"z": -1.546209659,
				"element": "N" 
			},
			{
				"x": 1.0534321548,
				"y": 2.6700497334,
				"z": -0.8962703538,
				"element": "O" 
			},
			{
				"x": 1.4131305456,
				"y": 1.4369070542,
				"z": -2.6630820769,
				"element": "O" 
			},
			{
				"x": -0.2338546708,
				"y": 1.6493158507,
				"z": 0.8565341391,
				"element": "H" 
			},
			{
				"x": 0.4729966211,
				"y": -0.7851064984,
				"z": -2.6232934892,
				"element": "H" 
			},
			{
				"x": -1.8032566551,
				"y": -2.3756246802,
				"z": 0.6560442926,
				"element": "H" 
			}
		],
		 "valence_orbital": [ 
			{
				"type": "occ",
				"energy": -0.33232,
				"method": "rhf"
			},
			{
				"type": "occ",
				"energy": -0.32949,
				"method": "rhf"
			},
			{
				"type": "occ",
				"energy": -0.32731,
				"method": "rhf"
			},
			{
				"type": "occ",
				"energy": -0.32429,
				"method": "rhf"
			},
			{
				"type": "occ",
				"energy": -0.32315,
				"method": "rhf"
			},
			{
				"type": "unocc",
				"energy": -0.13039,
				"method": "rhf"
			},
			{
				"type": "unocc",
				"energy": -0.12822,
				"method": "rhf"
			},
			{
				"type": "unocc",
				"energy": -0.10111,
				"method": "rhf"
			},
			{
				"type": "unocc",
				"energy": -0.02797,
				"method": "rhf"
			},
			{
				"type": "unocc",
				"energy": -0.00765,
				"method": "rhf"
			}
		],
		"cosmo_sigma_profile": { 
			"-0.025": 0.0,
			"-0.024": 0.0,
			"-0.023": 0.0,
			"-0.022": 0.0,
			"-0.021": 0.0,
			"-0.02": 0.0,
			"-0.019": 0.0,
			"-0.018": 0.0,
			"-0.017": 0.0,
			"-0.016": 0.0,
			"-0.015": 0.0,
			"-0.014": 0.0,
			"-0.013": 0.0,
			"-0.012": 0.0,
			"-0.011": 0.0,
			"-0.01": 0.24172974857,
			"-0.009": 2.51399276598,
			"-0.008": 4.75920345576,
			"-0.007": 11.6987458413,
			"-0.006": 17.8266970709,
			"-0.005": 26.6684826428,
			"-0.004": 18.9296513086,
			"-0.003": 9.37019924303,
			"-0.002": 8.84830279639,
			"-0.001": 9.6948458571,
			"0.0": 8.68600001,
			"0.001": 9.78915504631,
			"0.002": 12.9760929129,
			"0.003": 12.5365537259,
			"0.004": 9.97441898362,
			"0.005": 10.7733102559,
			"0.006": 18.0443473859,
			"0.007": 16.4230142601,
			"0.008": 10.7122967618,
			"0.009": 4.16362441173,
			"0.01": 0.00368407843106,
			"0.011": 0.0,
			"0.012": 0.0,
			"0.013": 0.0,
			"0.014": 0.0,
			"0.015": 0.0,
			"0.016": 0.0,
			"0.017": 0.0,
			"0.018": 0.0,
			"0.019": 0.0,
			"0.02": 0.0,
			"0.021": 0.0,
			"0.022": 0.0,
			"0.023": 0.0,
			"0.024": 0.0,
			"0.025": 0.0
		}
	}
}
