{
	 "smiles": "CC1CN(CC(C)O1)C(=O)C1=CC=C(N)C=C1", 
	 "Tm": 448.15, 
	 "num_atms": 35, 
	 "gaussian": { 
		 "optdone": 1, 
		 "sigma_profile": "yes", 
		 "theory": "DFT", 
		 "functional": "B3LYP", 
		 "basiset": "6-31G**", 
		 "properties": { 
			 "R2extent": 5684.1978, 
			 "electric_dipole_moment_norm": 4.6452236663, 
			 "electric_quadrupole_moment_norm": 21.5739933805, 
			 "total_energy": -766.204401765, 
			 "HOMO_LUMO_gap": 0.19169, 
			 "cosmo_polarized_energy": -17.02, 
			 "cosmo_cavitation_energy": 36.66, 
			 "cosmo_dispersion_energy": -26.06, 
			 "cosmo_repulsion_energy": 2.05, 
			 "cosmo_total_nonelectrostatic_energy": 12.65, 
			 "SMD_solvation_energy": 5.8 
		},
		"coords": [
			{
				"x": 2.9072684494,
				"y": 2.1270733494,
				"z": -2.386836489,
				"element": "C" 
			},
			{
				"x": 1.9887368304,
				"y": 1.2491312981,
				"z": -1.551194171,
				"element": "C" 
			},
			{
				"x": 0.5706451176,
				"y": 1.1593461141,
				"z": -2.1244058408,
				"element": "C" 
			},
			{
				"x": -0.3182999276,
				"y": 0.4263414552,
				"z": -1.2212454657,
				"element": "N" 
			},
			{
				"x": -0.2992434151,
				"y": 0.9431547809,
				"z": 0.1471852948,
				"element": "C" 
			},
			{
				"x": 1.1453200224,
				"y": 1.0529416942,
				"z": 0.6658977585,
				"element": "C" 
			},
			{
				"x": 1.2221402469,
				"y": 1.7346929873,
				"z": 2.0244154578,
				"element": "C" 
			},
			{
				"x": 1.9442779572,
				"y": 1.8128648413,
				"z": -0.2359405928,
				"element": "O" 
			},
			{
				"x": -0.7063013025,
				"y": -0.854043819,
				"z": -1.5836798155,
				"element": "C" 
			},
			{
				"x": -0.2574382615,
				"y": -1.3990988041,
				"z": -2.5925183431,
				"element": "O" 
			},
			{
				"x": -1.7391758589,
				"y": -1.550353245,
				"z": -0.7509470945,
				"element": "C" 
			},
			{
				"x": -2.8502609301,
				"y": -0.9061268231,
				"z": -0.1857917207,
				"element": "C" 
			},
			{
				"x": -3.8301893189,
				"y": -1.623298655,
				"z": 0.4917439371,
				"element": "C" 
			},
			{
				"x": -3.7269972308,
				"y": -3.0194889969,
				"z": 0.6312432086,
				"element": "C" 
			},
			{
				"x": -4.7240135035,
				"y": -3.7460421577,
				"z": 1.2710544001,
				"element": "N" 
			},
			{
				"x": -2.6218707616,
				"y": -3.6706179268,
				"z": 0.049891766,
				"element": "C" 
			},
			{
				"x": -1.6598857987,
				"y": -2.9469948023,
				"z": -0.6402773644,
				"element": "C" 
			},
			{
				"x": 3.0209837523,
				"y": 1.7168720316,
				"z": -3.3949675705,
				"element": "H" 
			},
			{
				"x": 2.5018823395,
				"y": 3.1410649907,
				"z": -2.4651881302,
				"element": "H" 
			},
			{
				"x": 3.8948538234,
				"y": 2.1899354805,
				"z": -1.9221481053,
				"element": "H" 
			},
			{
				"x": 2.3972827431,
				"y": 0.2263623902,
				"z": -1.4884566119,
				"element": "H" 
			},
			{
				"x": 0.1757801435,
				"y": 2.1770402829,
				"z": -2.2529157883,
				"element": "H" 
			},
			{
				"x": 0.5710081106,
				"y": 0.6437357171,
				"z": -3.0847500788,
				"element": "H" 
			},
			{
				"x": -0.8723996275,
				"y": 0.2860197152,
				"z": 0.8002835763,
				"element": "H" 
			},
			{
				"x": -0.7600039383,
				"y": 1.941538492,
				"z": 0.1677618172,
				"element": "H" 
			},
			{
				"x": 1.5554558475,
				"y": 0.0295140776,
				"z": 0.7351709731,
				"element": "H" 
			},
			{
				"x": 0.8066198826,
				"y": 2.7459827237,
				"z": 1.9692276598,
				"element": "H" 
			},
			{
				"x": 2.2637420517,
				"y": 1.8121619778,
				"z": 2.3466888298,
				"element": "H" 
			},
			{
				"x": 0.665494467,
				"y": 1.1677585998,
				"z": 2.7774372167,
				"element": "H" 
			},
			{
				"x": -2.9675093778,
				"y": 0.1676241642,
				"z": -0.2985691896,
				"element": "H" 
			},
			{
				"x": -4.6925688445,
				"y": -1.1062676624,
				"z": 0.90539171,
				"element": "H" 
			},
			{
				"x": -5.2962861547,
				"y": -3.2345370838,
				"z": 1.9272467162,
				"element": "H" 
			},
			{
				"x": -4.4588569713,
				"y": -4.659228526,
				"z": 1.6110042944,
				"element": "H" 
			},
			{
				"x": -2.5345984021,
				"y": -4.7513278551,
				"z": 0.1318026637,
				"element": "H" 
			},
			{
				"x": -0.8273921596,
				"y": -3.4569308067,
				"z": -1.1140149084,
				"element": "H" 
			}
		],
		 "valence_orbital": [ 
			{
				"type": "occ",
				"energy": -0.26739,
				"method": "rhf"
			},
			{
				"type": "occ",
				"energy": -0.25261,
				"method": "rhf"
			},
			{
				"type": "occ",
				"energy": -0.24248,
				"method": "rhf"
			},
			{
				"type": "occ",
				"energy": -0.21843,
				"method": "rhf"
			},
			{
				"type": "occ",
				"energy": -0.20578,
				"method": "rhf"
			},
			{
				"type": "unocc",
				"energy": -0.01409,
				"method": "rhf"
			},
			{
				"type": "unocc",
				"energy": -0.00174,
				"method": "rhf"
			},
			{
				"type": "unocc",
				"energy": 0.06094,
				"method": "rhf"
			},
			{
				"type": "unocc",
				"energy": 0.07754,
				"method": "rhf"
			},
			{
				"type": "unocc",
				"energy": 0.0958,
				"method": "rhf"
			}
		],
		"cosmo_sigma_profile": { 
			"-0.025": 0.0,
			"-0.024": 0.0,
			"-0.023": 0.0,
			"-0.022": 0.0,
			"-0.021": 0.0,
			"-0.02": 0.0,
			"-0.019": 0.0,
			"-0.018": 0.0,
			"-0.017": 0.0,
			"-0.016": 0.0,
			"-0.015": 0.0,
			"-0.014": 0.0,
			"-0.013": 0.91528893004,
			"-0.012": 3.17561857245,
			"-0.011": 2.3678466197,
			"-0.01": 3.4835187494,
			"-0.009": 3.67028590646,
			"-0.008": 2.3415115491,
			"-0.007": 3.56069641494,
			"-0.006": 5.01800986169,
			"-0.005": 11.6199397211,
			"-0.004": 30.9761208201,
			"-0.003": 37.2393698103,
			"-0.002": 25.7496789421,
			"-0.001": 27.6284067224,
			"0.0": 24.4367225452,
			"0.001": 17.1132495928,
			"0.002": 11.5011143982,
			"0.003": 9.73448701666,
			"0.004": 10.5384967773,
			"0.005": 14.4145732894,
			"0.006": 9.45924714596,
			"0.007": 4.14036443978,
			"0.008": 3.21887615981,
			"0.009": 3.88162928109,
			"0.01": 3.54197973029,
			"0.011": 3.26394977154,
			"0.012": 3.50301345107,
			"0.013": 3.99844492407,
			"0.014": 5.01894342536,
			"0.015": 1.41214028005,
			"0.016": 0.0398805167909,
			"0.017": 0.0,
			"0.018": 0.0,
			"0.019": 0.0,
			"0.02": 0.0,
			"0.021": 0.0,
			"0.022": 0.0,
			"0.023": 0.0,
			"0.024": 0.0,
			"0.025": 0.0
		}
	}
}
