{
	 "smiles": "BrCCCCN1C(=O)C2=CC=CC=C2C1=O", 
	 "Tm": 352.15, 
	 "num_atms": 28, 
	 "gaussian": { 
		 "optdone": 1, 
		 "sigma_profile": "yes", 
		 "theory": "DFT", 
		 "functional": "B3LYP", 
		 "basiset": "6-31G**", 
		 "properties": { 
			 "R2extent": 8815.4228, 
			 "electric_dipole_moment_norm": 2.84751109216, 
			 "electric_quadrupole_moment_norm": 23.6001302054, 
			 "total_energy": -3241.15977197, 
			 "HOMO_LUMO_gap": 0.18413, 
			 "cosmo_polarized_energy": -13.11, 
			 "cosmo_cavitation_energy": 34.87, 
			 "cosmo_dispersion_energy": -24.9, 
			 "cosmo_repulsion_energy": 1.96, 
			 "cosmo_total_nonelectrostatic_energy": 11.93, 
			 "SMD_solvation_energy": 5.42 
		},
		"coords": [
			{
				"x": 2.9219425387,
				"y": 5.0019338587,
				"z": 1.9097728727,
				"element": "Br" 
			},
			{
				"x": 4.1810533602,
				"y": 3.4695144318,
				"z": 2.0306212139,
				"element": "C" 
			},
			{
				"x": 3.9758516302,
				"y": 2.4523455395,
				"z": 0.9176465893,
				"element": "C" 
			},
			{
				"x": 2.6316980383,
				"y": 1.719046574,
				"z": 0.9683902802,
				"element": "C" 
			},
			{
				"x": 2.5194265725,
				"y": 0.6621004352,
				"z": -0.1379464555,
				"element": "C" 
			},
			{
				"x": 1.2547793084,
				"y": -0.0598167661,
				"z": -0.1001727761,
				"element": "N" 
			},
			{
				"x": 0.1531577058,
				"y": 0.2409832964,
				"z": -0.9200531597,
				"element": "C" 
			},
			{
				"x": 0.1218779071,
				"y": 1.1174552205,
				"z": -1.7607762052,
				"element": "O" 
			},
			{
				"x": -0.9110174981,
				"y": -0.7339736399,
				"z": -0.5342862001,
				"element": "C" 
			},
			{
				"x": -2.2001145368,
				"y": -0.890921688,
				"z": -1.0218264147,
				"element": "C" 
			},
			{
				"x": -2.9821233808,
				"y": -1.9093859206,
				"z": -0.4601122649,
				"element": "C" 
			},
			{
				"x": -2.4763044235,
				"y": -2.7344052141,
				"z": 0.552696655,
				"element": "C" 
			},
			{
				"x": -1.1718212592,
				"y": -2.5680886858,
				"z": 1.0373973537,
				"element": "C" 
			},
			{
				"x": -0.4065769144,
				"y": -1.5566318587,
				"z": 0.4756393627,
				"element": "C" 
			},
			{
				"x": 0.9951379242,
				"y": -1.1312787832,
				"z": 0.7683267107,
				"element": "C" 
			},
			{
				"x": 1.7841181431,
				"y": -1.5867010576,
				"z": 1.5738824145,
				"element": "O" 
			},
			{
				"x": 4.0123345323,
				"y": 3.0419540998,
				"z": 3.0195455325,
				"element": "H" 
			},
			{
				"x": 5.1712475488,
				"y": 3.9220192193,
				"z": 1.9932985243,
				"element": "H" 
			},
			{
				"x": 4.7947296767,
				"y": 1.7226201393,
				"z": 1.0095072516,
				"element": "H" 
			},
			{
				"x": 4.1040432017,
				"y": 2.9454563829,
				"z": -0.0532489332,
				"element": "H" 
			},
			{
				"x": 2.5147470091,
				"y": 1.2261398334,
				"z": 1.9409628466,
				"element": "H" 
			},
			{
				"x": 1.8142559813,
				"y": 2.4400432905,
				"z": 0.865059709,
				"element": "H" 
			},
			{
				"x": 3.3222145753,
				"y": -0.0760930987,
				"z": -0.043385135,
				"element": "H" 
			},
			{
				"x": 2.5843586419,
				"y": 1.1273247179,
				"z": -1.1254793475,
				"element": "H" 
			},
			{
				"x": -2.5811161933,
				"y": -0.2461108653,
				"z": -1.8071516576,
				"element": "H" 
			},
			{
				"x": -3.9970682157,
				"y": -2.063206559,
				"z": -0.8143049399,
				"element": "H" 
			},
			{
				"x": -3.1070552659,
				"y": -3.5148830235,
				"z": 0.967728844,
				"element": "H" 
			},
			{
				"x": -0.7692766079,
				"y": -3.2016398785,
				"z": 1.8211673287,
				"element": "H" 
			}
		],
		 "valence_orbital": [ 
			{
				"type": "occ",
				"energy": -0.27817,
				"method": "rhf"
			},
			{
				"type": "occ",
				"energy": -0.27161,
				"method": "rhf"
			},
			{
				"type": "occ",
				"energy": -0.26933,
				"method": "rhf"
			},
			{
				"type": "occ",
				"energy": -0.26767,
				"method": "rhf"
			},
			{
				"type": "occ",
				"energy": -0.26592,
				"method": "rhf"
			},
			{
				"type": "unocc",
				"energy": -0.08179,
				"method": "rhf"
			},
			{
				"type": "unocc",
				"energy": -0.04092,
				"method": "rhf"
			},
			{
				"type": "unocc",
				"energy": 0.00337,
				"method": "rhf"
			},
			{
				"type": "unocc",
				"energy": 0.0279,
				"method": "rhf"
			},
			{
				"type": "unocc",
				"energy": 0.07188,
				"method": "rhf"
			}
		],
		"cosmo_sigma_profile": { 
			"-0.025": 0.0,
			"-0.024": 0.0,
			"-0.023": 0.0,
			"-0.022": 0.0,
			"-0.021": 0.0,
			"-0.02": 0.0,
			"-0.019": 0.0,
			"-0.018": 0.0,
			"-0.017": 0.0,
			"-0.016": 0.0,
			"-0.015": 0.0,
			"-0.014": 0.0,
			"-0.013": 0.0,
			"-0.012": 0.0,
			"-0.011": 0.0,
			"-0.01": 0.0,
			"-0.009": 0.0,
			"-0.008": 1.50798065646,
			"-0.007": 10.5486508122,
			"-0.006": 16.1247666139,
			"-0.005": 25.4973864013,
			"-0.004": 26.0814452084,
			"-0.003": 26.7024857992,
			"-0.002": 23.1351501838,
			"-0.001": 19.2426220033,
			"0.0": 18.4098263075,
			"0.001": 18.7125911458,
			"0.002": 20.1561533972,
			"0.003": 12.2497233138,
			"0.004": 7.9679283303,
			"0.005": 9.76115160202,
			"0.006": 11.9863400593,
			"0.007": 7.62701224363,
			"0.008": 2.51440493573,
			"0.009": 3.22597927869,
			"0.01": 4.95387637865,
			"0.011": 9.2075788171,
			"0.012": 4.7813033943,
			"0.013": 0.0620098874857,
			"0.014": 0.0,
			"0.015": 0.0,
			"0.016": 0.0,
			"0.017": 0.0,
			"0.018": 0.0,
			"0.019": 0.0,
			"0.02": 0.0,
			"0.021": 0.0,
			"0.022": 0.0,
			"0.023": 0.0,
			"0.024": 0.0,
			"0.025": 0.0
		}
	}
}
