{
	 "smiles": "NNC(=O)C1=CC=C(OCC2=CC=CC=C2)C=C1", 
	 "Tm": 413.15, 
	 "num_atms": 32, 
	 "gaussian": { 
		 "optdone": 1, 
		 "sigma_profile": "yes", 
		 "theory": "DFT", 
		 "functional": "B3LYP", 
		 "basiset": "6-31G**", 
		 "properties": { 
			 "R2extent": 6385.1033, 
			 "electric_dipole_moment_norm": 2.80699158709, 
			 "electric_quadrupole_moment_norm": 26.9774624737, 
			 "total_energy": -801.845845769, 
			 "HOMO_LUMO_gap": 0.19693, 
			 "cosmo_polarized_energy": -17.72, 
			 "cosmo_cavitation_energy": 36.33, 
			 "cosmo_dispersion_energy": -26.07, 
			 "cosmo_repulsion_energy": 2.05, 
			 "cosmo_total_nonelectrostatic_energy": 12.3, 
			 "SMD_solvation_energy": 7.63 
		},
		"coords": [
			{
				"x": 3.5528627756,
				"y": 0.1481092525,
				"z": 3.3354809765,
				"element": "N" 
			},
			{
				"x": 4.2106801259,
				"y": -0.4802082487,
				"z": 2.2644307615,
				"element": "N" 
			},
			{
				"x": 3.622540915,
				"y": -0.7277839594,
				"z": 1.0325503686,
				"element": "C" 
			},
			{
				"x": 4.3688326117,
				"y": -0.8846315568,
				"z": 0.0684269176,
				"element": "O" 
			},
			{
				"x": 2.1386889892,
				"y": -0.8451024863,
				"z": 0.8973056966,
				"element": "C" 
			},
			{
				"x": 1.2369885562,
				"y": -1.1077800828,
				"z": 1.9442917519,
				"element": "C" 
			},
			{
				"x": -0.1173018274,
				"y": -1.2677859589,
				"z": 1.6862664501,
				"element": "C" 
			},
			{
				"x": -0.6093571216,
				"y": -1.1603887511,
				"z": 0.3769345176,
				"element": "C" 
			},
			{
				"x": -1.957695357,
				"y": -1.3388158769,
				"z": 0.2417010472,
				"element": "O" 
			},
			{
				"x": -2.5289535437,
				"y": -1.3969531334,
				"z": -1.0646806805,
				"element": "C" 
			},
			{
				"x": -2.7268095692,
				"y": -0.0427122861,
				"z": -1.718628916,
				"element": "C" 
			},
			{
				"x": -2.7030591818,
				"y": 0.0710084061,
				"z": -3.1134867224,
				"element": "C" 
			},
			{
				"x": -2.9461646231,
				"y": 1.2997152096,
				"z": -3.7297815321,
				"element": "C" 
			},
			{
				"x": -3.2072639889,
				"y": 2.430488912,
				"z": -2.9543329792,
				"element": "C" 
			},
			{
				"x": -3.2263882268,
				"y": 2.3244162244,
				"z": -1.5618018831,
				"element": "C" 
			},
			{
				"x": -2.9917263224,
				"y": 1.0944520107,
				"z": -0.9468733992,
				"element": "C" 
			},
			{
				"x": 0.2747990848,
				"y": -0.8960802457,
				"z": -0.6772047152,
				"element": "C" 
			},
			{
				"x": 1.6333817605,
				"y": -0.7554715076,
				"z": -0.4068966812,
				"element": "C" 
			},
			{
				"x": 3.7975758108,
				"y": 1.1359276428,
				"z": 3.3802460382,
				"element": "H" 
			},
			{
				"x": 3.8358744489,
				"y": -0.2950104334,
				"z": 4.204868124,
				"element": "H" 
			},
			{
				"x": 5.2142771761,
				"y": -0.3511081555,
				"z": 2.1611440095,
				"element": "H" 
			},
			{
				"x": 1.5975779995,
				"y": -1.1841954169,
				"z": 2.9607441897,
				"element": "H" 
			},
			{
				"x": -0.8185656495,
				"y": -1.485143469,
				"z": 2.4854052997,
				"element": "H" 
			},
			{
				"x": -3.4995103279,
				"y": -1.8797572383,
				"z": -0.9053212127,
				"element": "H" 
			},
			{
				"x": -1.9376631325,
				"y": -2.0571684502,
				"z": -1.7123018162,
				"element": "H" 
			},
			{
				"x": -2.4916287976,
				"y": -0.8055167393,
				"z": -3.7223388946,
				"element": "H" 
			},
			{
				"x": -2.9225103189,
				"y": 1.3744497228,
				"z": -4.8132710343,
				"element": "H" 
			},
			{
				"x": -3.3901626247,
				"y": 3.3889196664,
				"z": -3.4315453296,
				"element": "H" 
			},
			{
				"x": -3.4248620948,
				"y": 3.201772168,
				"z": -0.9525971487,
				"element": "H" 
			},
			{
				"x": -3.0022502219,
				"y": 1.0101296269,
				"z": 0.1353220085,
				"element": "H" 
			},
			{
				"x": -0.0827552022,
				"y": -0.783253153,
				"z": -1.693155885,
				"element": "H" 
			},
			{
				"x": 2.3338478777,
				"y": -0.5727216929,
				"z": -1.214499327,
				"element": "H" 
			}
		],
		 "valence_orbital": [ 
			{
				"type": "occ",
				"energy": -0.25268,
				"method": "rhf"
			},
			{
				"type": "occ",
				"energy": -0.24902,
				"method": "rhf"
			},
			{
				"type": "occ",
				"energy": -0.24441,
				"method": "rhf"
			},
			{
				"type": "occ",
				"energy": -0.23985,
				"method": "rhf"
			},
			{
				"type": "occ",
				"energy": -0.21743,
				"method": "rhf"
			},
			{
				"type": "unocc",
				"energy": -0.0205,
				"method": "rhf"
			},
			{
				"type": "unocc",
				"energy": -0.00756,
				"method": "rhf"
			},
			{
				"type": "unocc",
				"energy": -0.00501,
				"method": "rhf"
			},
			{
				"type": "unocc",
				"energy": 0.00681,
				"method": "rhf"
			},
			{
				"type": "unocc",
				"energy": 0.06218,
				"method": "rhf"
			}
		],
		"cosmo_sigma_profile": { 
			"-0.025": 0.0,
			"-0.024": 0.0,
			"-0.023": 0.0,
			"-0.022": 0.0,
			"-0.021": 0.0,
			"-0.02": 0.0,
			"-0.019": 0.0,
			"-0.018": 0.0,
			"-0.017": 0.0,
			"-0.016": 0.0,
			"-0.015": 0.0,
			"-0.014": 0.0,
			"-0.013": 0.470214912069,
			"-0.012": 3.44406631105,
			"-0.011": 4.69301271464,
			"-0.01": 5.86807333377,
			"-0.009": 4.4351131869,
			"-0.008": 2.55573618744,
			"-0.007": 5.31790071776,
			"-0.006": 15.8874308896,
			"-0.005": 19.5166079789,
			"-0.004": 22.516037447,
			"-0.003": 20.6772658076,
			"-0.002": 15.038465122,
			"-0.001": 16.8781641916,
			"0.0": 16.0318109187,
			"0.001": 17.1878169319,
			"0.002": 18.4586345951,
			"0.003": 19.3998817299,
			"0.004": 24.7516465182,
			"0.005": 20.0153323944,
			"0.006": 9.53528595658,
			"0.007": 3.84304264559,
			"0.008": 3.72393188082,
			"0.009": 3.20138010971,
			"0.01": 2.15022537729,
			"0.011": 2.62188566521,
			"0.012": 1.66721385411,
			"0.013": 3.65400776119,
			"0.014": 4.98756823001,
			"0.015": 0.452539031084,
			"0.016": 0.0,
			"0.017": 0.0,
			"0.018": 0.0,
			"0.019": 0.0,
			"0.02": 0.0,
			"0.021": 0.0,
			"0.022": 0.0,
			"0.023": 0.0,
			"0.024": 0.0,
			"0.025": 0.0
		}
	}
}
