{
	 "smiles": "CCCCCCCCCCCCCCCCCC(C)=O", 
	 "Tm": 329.15, 
	 "num_atms": 58, 
	 "gaussian": { 
		 "optdone": 1, 
		 "sigma_profile": "yes", 
		 "theory": "DFT", 
		 "functional": "B3LYP", 
		 "basiset": "6-31G**", 
		 "properties": { 
			 "R2extent": 17313.135, 
			 "electric_dipole_moment_norm": 2.59781361148, 
			 "electric_quadrupole_moment_norm": 23.5456676376, 
			 "total_energy": -822.197795359, 
			 "HOMO_LUMO_gap": 0.22723, 
			 "cosmo_polarized_energy": -7.4, 
			 "cosmo_cavitation_energy": 55.77, 
			 "cosmo_dispersion_energy": -37.32, 
			 "cosmo_repulsion_energy": 2.96, 
			 "cosmo_total_nonelectrostatic_energy": 21.41, 
			 "SMD_solvation_energy": 7.88 
		},
		"coords": [
			{
				"x": -2.6297723582,
				"y": 6.0605670923,
				"z": -0.42928866,
				"element": "C" 
			},
			{
				"x": -1.1495829289,
				"y": 6.0786044329,
				"z": -0.0295941206,
				"element": "C" 
			},
			{
				"x": -0.9021765193,
				"y": 6.1271156616,
				"z": 1.4884898393,
				"element": "C" 
			},
			{
				"x": -1.4303891706,
				"y": 4.9234437304,
				"z": 2.2917952754,
				"element": "C" 
			},
			{
				"x": -0.8458476255,
				"y": 3.5524013531,
				"z": 1.9077430897,
				"element": "C" 
			},
			{
				"x": 0.6684037976,
				"y": 3.4229176495,
				"z": 2.1337683777,
				"element": "C" 
			},
			{
				"x": 1.2264106289,
				"y": 2.006921877,
				"z": 1.9096021722,
				"element": "C" 
			},
			{
				"x": 1.1488200369,
				"y": 1.5176600899,
				"z": 0.4548368967,
				"element": "C" 
			},
			{
				"x": 1.8470216653,
				"y": 0.1717500388,
				"z": 0.1926678564,
				"element": "C" 
			},
			{
				"x": 1.1893958155,
				"y": -1.0326923115,
				"z": 0.8831013703,
				"element": "C" 
			},
			{
				"x": 1.8943720293,
				"y": -2.3773632964,
				"z": 0.6271549738,
				"element": "C" 
			},
			{
				"x": 1.9213889724,
				"y": -2.859320708,
				"z": -0.8358835981,
				"element": "C" 
			},
			{
				"x": 0.5452994599,
				"y": -3.0709417402,
				"z": -1.4948752737,
				"element": "C" 
			},
			{
				"x": -0.3704200178,
				"y": -4.1058195098,
				"z": -0.8163402378,
				"element": "C" 
			},
			{
				"x": 0.1837312503,
				"y": -5.5399509762,
				"z": -0.7334138965,
				"element": "C" 
			},
			{
				"x": 0.54904689,
				"y": -6.1948396462,
				"z": -2.0775852673,
				"element": "C" 
			},
			{
				"x": -0.602239132,
				"y": -6.2736092441,
				"z": -3.1117421831,
				"element": "C" 
			},
			{
				"x": -1.8080723076,
				"y": -7.0387686715,
				"z": -2.5821766725,
				"element": "C" 
			},
			{
				"x": -1.7903842252,
				"y": -8.5503511999,
				"z": -2.7343793405,
				"element": "C" 
			},
			{
				"x": -2.7387587556,
				"y": -6.4638647063,
				"z": -2.0458199963,
				"element": "O" 
			},
			{
				"x": -3.1391821023,
				"y": 5.1594447041,
				"z": -0.0722710992,
				"element": "H" 
			},
			{
				"x": -3.1610099489,
				"y": 6.9255150097,
				"z": -0.0147009392,
				"element": "H" 
			},
			{
				"x": -2.7448709981,
				"y": 6.0914042195,
				"z": -1.5178756392,
				"element": "H" 
			},
			{
				"x": -0.6447342882,
				"y": 5.2048425954,
				"z": -0.4617398448,
				"element": "H" 
			},
			{
				"x": -0.6685008058,
				"y": 6.954220308,
				"z": -0.4842513684,
				"element": "H" 
			},
			{
				"x": 0.1749812953,
				"y": 6.238789738,
				"z": 1.6661594643,
				"element": "H" 
			},
			{
				"x": -1.366193259,
				"y": 7.0384760602,
				"z": 1.8905023535,
				"element": "H" 
			},
			{
				"x": -1.2295607987,
				"y": 5.1060570413,
				"z": 3.3565210109,
				"element": "H" 
			},
			{
				"x": -2.5229895956,
				"y": 4.877489018,
				"z": 2.1997657753,
				"element": "H" 
			},
			{
				"x": -1.3558639098,
				"y": 2.7814207805,
				"z": 2.5021111394,
				"element": "H" 
			},
			{
				"x": -1.0876786016,
				"y": 3.3291144453,
				"z": 0.8611920635,
				"element": "H" 
			},
			{
				"x": 1.2060034948,
				"y": 4.124085341,
				"z": 1.4810624079,
				"element": "H" 
			},
			{
				"x": 0.896319508,
				"y": 3.7326839086,
				"z": 3.1633052606,
				"element": "H" 
			},
			{
				"x": 2.2779805287,
				"y": 1.9880751983,
				"z": 2.2285620776,
				"element": "H" 
			},
			{
				"x": 0.696355733,
				"y": 1.3077112667,
				"z": 2.5699334737,
				"element": "H" 
			},
			{
				"x": 0.0991969026,
				"y": 1.4402495233,
				"z": 0.1413106035,
				"element": "H" 
			},
			{
				"x": 1.6027524622,
				"y": 2.2804789463,
				"z": -0.1932998944,
				"element": "H" 
			},
			{
				"x": 1.8701436508,
				"y": 0.0013457941,
				"z": -0.8910321533,
				"element": "H" 
			},
			{
				"x": 2.8979026201,
				"y": 0.2405632466,
				"z": 0.5106342603,
				"element": "H" 
			},
			{
				"x": 1.1678385043,
				"y": -0.8641560611,
				"z": 1.9668138271,
				"element": "H" 
			},
			{
				"x": 0.1378644713,
				"y": -1.0956582847,
				"z": 0.5708551745,
				"element": "H" 
			},
			{
				"x": 1.4196519189,
				"y": -3.1444891312,
				"z": 1.2522488808,
				"element": "H" 
			},
			{
				"x": 2.9309767025,
				"y": -2.304213659,
				"z": 0.9841978541,
				"element": "H" 
			},
			{
				"x": 2.4932472335,
				"y": -3.7957487995,
				"z": -0.8761468175,
				"element": "H" 
			},
			{
				"x": 2.4901806761,
				"y": -2.1454413515,
				"z": -1.4449666212,
				"element": "H" 
			},
			{
				"x": 0.0101926994,
				"y": -2.1135945999,
				"z": -1.5353238186,
				"element": "H" 
			},
			{
				"x": 0.7072396974,
				"y": -3.3552103134,
				"z": -2.5432990084,
				"element": "H" 
			},
			{
				"x": -0.6023652916,
				"y": -3.7737454964,
				"z": 0.2034388727,
				"element": "H" 
			},
			{
				"x": -1.3327247587,
				"y": -4.1308351474,
				"z": -1.3401986645,
				"element": "H" 
			},
			{
				"x": 1.078199127,
				"y": -5.5585205373,
				"z": -0.0976396451,
				"element": "H" 
			},
			{
				"x": -0.5613459316,
				"y": -6.1603888567,
				"z": -0.2207948067,
				"element": "H" 
			},
			{
				"x": 1.3772145302,
				"y": -5.6508584023,
				"z": -2.5470797419,
				"element": "H" 
			},
			{
				"x": 0.9292830038,
				"y": -7.2065115158,
				"z": -1.8846826085,
				"element": "H" 
			},
			{
				"x": -0.2235228719,
				"y": -6.7565141468,
				"z": -4.0208667591,
				"element": "H" 
			},
			{
				"x": -0.9398968913,
				"y": -5.2677398458,
				"z": -3.3762573233,
				"element": "H" 
			},
			{
				"x": -1.8816285062,
				"y": -8.8140017186,
				"z": -3.7953513527,
				"element": "H" 
			},
			{
				"x": -0.841209531,
				"y": -8.9718633523,
				"z": -2.3847631729,
				"element": "H" 
			},
			{
				"x": -2.6209941749,
				"y": -8.9910358408,
				"z": -2.1813338258,
				"element": "H" 
			}
		],
		 "valence_orbital": [ 
			{
				"type": "occ",
				"energy": -0.29928,
				"method": "rhf"
			},
			{
				"type": "occ",
				"energy": -0.29872,
				"method": "rhf"
			},
			{
				"type": "occ",
				"energy": -0.29509,
				"method": "rhf"
			},
			{
				"type": "occ",
				"energy": -0.2925,
				"method": "rhf"
			},
			{
				"type": "occ",
				"energy": -0.23963,
				"method": "rhf"
			},
			{
				"type": "unocc",
				"energy": -0.0124,
				"method": "rhf"
			},
			{
				"type": "unocc",
				"energy": 0.0673,
				"method": "rhf"
			},
			{
				"type": "unocc",
				"energy": 0.07979,
				"method": "rhf"
			},
			{
				"type": "unocc",
				"energy": 0.09143,
				"method": "rhf"
			},
			{
				"type": "unocc",
				"energy": 0.10264,
				"method": "rhf"
			}
		],
		"cosmo_sigma_profile": { 
			"-0.025": 0.0,
			"-0.024": 0.0,
			"-0.023": 0.0,
			"-0.022": 0.0,
			"-0.021": 0.0,
			"-0.02": 0.0,
			"-0.019": 0.0,
			"-0.018": 0.0,
			"-0.017": 0.0,
			"-0.016": 0.0,
			"-0.015": 0.0,
			"-0.014": 0.0,
			"-0.013": 0.0,
			"-0.012": 0.0,
			"-0.011": 0.0,
			"-0.01": 0.0,
			"-0.009": 0.0,
			"-0.008": 0.0,
			"-0.007": 0.0888024807734,
			"-0.006": 3.20134646025,
			"-0.005": 8.67178163645,
			"-0.004": 11.1858760722,
			"-0.003": 15.9720993629,
			"-0.002": 55.3182195296,
			"-0.001": 98.3584943733,
			"0.0": 94.4031877936,
			"0.001": 80.5932268349,
			"0.002": 33.0968347487,
			"0.003": 2.49824925206,
			"0.004": 2.37453408813,
			"0.005": 1.83097422025,
			"0.006": 1.80457763347,
			"0.007": 2.1046523918,
			"0.008": 2.05435520982,
			"0.009": 2.0149537866,
			"0.01": 1.51348002727,
			"0.011": 2.2727166838,
			"0.012": 4.0795025274,
			"0.013": 2.68587891011,
			"0.014": 0.4417087976,
			"0.015": 0.0,
			"0.016": 0.0,
			"0.017": 0.0,
			"0.018": 0.0,
			"0.019": 0.0,
			"0.02": 0.0,
			"0.021": 0.0,
			"0.022": 0.0,
			"0.023": 0.0,
			"0.024": 0.0,
			"0.025": 0.0
		}
	}
}
