{
	 "smiles": "COC(=O)C1=CC=C(CC#N)C=C1", 
	 "Tm": 329.65, 
	 "num_atms": 22, 
	 "gaussian": { 
		 "optdone": 1, 
		 "sigma_profile": "yes", 
		 "theory": "DFT", 
		 "functional": "B3LYP", 
		 "basiset": "6-31G**", 
		 "properties": { 
			 "R2extent": 3641.6864, 
			 "electric_dipole_moment_norm": 1.93802208966, 
			 "electric_quadrupole_moment_norm": 29.2635422514, 
			 "total_energy": -591.682294305, 
			 "HOMO_LUMO_gap": 0.21066, 
			 "cosmo_polarized_energy": -13.54, 
			 "cosmo_cavitation_energy": 27.76, 
			 "cosmo_dispersion_energy": -19.69, 
			 "cosmo_repulsion_energy": 1.56, 
			 "cosmo_total_nonelectrostatic_energy": 9.62, 
			 "SMD_solvation_energy": 7.64 
		},
		"coords": [
			{
				"x": -1.1633967353,
				"y": -1.4065554439,
				"z": 3.5154874617,
				"element": "C" 
			},
			{
				"x": -0.9284213149,
				"y": -0.8229595937,
				"z": 2.2244492803,
				"element": "O" 
			},
			{
				"x": -0.1216609561,
				"y": 0.2617381585,
				"z": 2.2208282292,
				"element": "C" 
			},
			{
				"x": 0.3774931664,
				"y": 0.7232472834,
				"z": 3.2288785684,
				"element": "O" 
			},
			{
				"x": 0.0802753491,
				"y": 0.8170838431,
				"z": 0.8522438845,
				"element": "C" 
			},
			{
				"x": -0.5111874823,
				"y": 0.2569691968,
				"z": -0.285386712,
				"element": "C" 
			},
			{
				"x": -0.2869976001,
				"y": 0.8190258308,
				"z": -1.5421851134,
				"element": "C" 
			},
			{
				"x": 0.5291681782,
				"y": 1.9454191999,
				"z": -1.6774168512,
				"element": "C" 
			},
			{
				"x": 0.8092496707,
				"y": 2.5990151877,
				"z": -3.026640814,
				"element": "C" 
			},
			{
				"x": 0.144470414,
				"y": 1.9669737833,
				"z": -4.1680983441,
				"element": "C" 
			},
			{
				"x": -0.3828845614,
				"y": 1.4643486791,
				"z": -5.071246128,
				"element": "N" 
			},
			{
				"x": 1.1202847667,
				"y": 2.5043876338,
				"z": -0.5349575913,
				"element": "C" 
			},
			{
				"x": 0.8992965812,
				"y": 1.94709336,
				"z": 0.7182927708,
				"element": "C" 
			},
			{
				"x": -0.2236712204,
				"y": -1.7371035916,
				"z": 3.9649146087,
				"element": "H" 
			},
			{
				"x": -1.8234625706,
				"y": -2.2555399606,
				"z": 3.3385217156,
				"element": "H" 
			},
			{
				"x": -1.6374806858,
				"y": -0.6834782773,
				"z": 4.1838601297,
				"element": "H" 
			},
			{
				"x": -1.1449895979,
				"y": -0.6164479428,
				"z": -0.1853207728,
				"element": "H" 
			},
			{
				"x": -0.749924538,
				"y": 0.3784198319,
				"z": -2.4196477746,
				"element": "H" 
			},
			{
				"x": 0.5049018345,
				"y": 3.6531983255,
				"z": -3.0004632624,
				"element": "H" 
			},
			{
				"x": 1.8890993535,
				"y": 2.5994531502,
				"z": -3.2235043394,
				"element": "H" 
			},
			{
				"x": 1.7567279949,
				"y": 3.3808745468,
				"z": -0.6295655703,
				"element": "H" 
			},
			{
				"x": 1.3508099535,
				"y": 2.370336799,
				"z": 1.6090566247,
				"element": "H" 
			}
		],
		 "valence_orbital": [ 
			{
				"type": "occ",
				"energy": -0.33344,
				"method": "rhf"
			},
			{
				"type": "occ",
				"energy": -0.30658,
				"method": "rhf"
			},
			{
				"type": "occ",
				"energy": -0.27893,
				"method": "rhf"
			},
			{
				"type": "occ",
				"energy": -0.26952,
				"method": "rhf"
			},
			{
				"type": "occ",
				"energy": -0.26506,
				"method": "rhf"
			},
			{
				"type": "unocc",
				"energy": -0.0544,
				"method": "rhf"
			},
			{
				"type": "unocc",
				"energy": -0.02132,
				"method": "rhf"
			},
			{
				"type": "unocc",
				"energy": 0.02431,
				"method": "rhf"
			},
			{
				"type": "unocc",
				"energy": 0.03364,
				"method": "rhf"
			},
			{
				"type": "unocc",
				"energy": 0.04769,
				"method": "rhf"
			}
		],
		"cosmo_sigma_profile": { 
			"-0.025": 0.0,
			"-0.024": 0.0,
			"-0.023": 0.0,
			"-0.022": 0.0,
			"-0.021": 0.0,
			"-0.02": 0.0,
			"-0.019": 0.0,
			"-0.018": 0.0,
			"-0.017": 0.0,
			"-0.016": 0.0,
			"-0.015": 0.0,
			"-0.014": 0.0,
			"-0.013": 0.0,
			"-0.012": 0.0,
			"-0.011": 0.0,
			"-0.01": 0.794601342107,
			"-0.009": 6.01285838225,
			"-0.008": 6.34482417726,
			"-0.007": 9.02833255058,
			"-0.006": 14.8270848463,
			"-0.005": 16.398352486,
			"-0.004": 15.2968759975,
			"-0.003": 17.9220005233,
			"-0.002": 14.8029054129,
			"-0.001": 11.6553229953,
			"0.0": 12.7755233969,
			"0.001": 15.2422248831,
			"0.002": 14.4987302956,
			"0.003": 16.9591644861,
			"0.004": 7.73846645264,
			"0.005": 6.04215055989,
			"0.006": 3.95192044545,
			"0.007": 4.05291125911,
			"0.008": 5.14742034153,
			"0.009": 4.79166834646,
			"0.01": 4.31426289603,
			"0.011": 6.10977465765,
			"0.012": 6.33991407582,
			"0.013": 1.75881033367,
			"0.014": 0.0442623196185,
			"0.015": 0.0,
			"0.016": 0.0,
			"0.017": 0.0,
			"0.018": 0.0,
			"0.019": 0.0,
			"0.02": 0.0,
			"0.021": 0.0,
			"0.022": 0.0,
			"0.023": 0.0,
			"0.024": 0.0,
			"0.025": 0.0
		}
	}
}
