{
	 "smiles": "CCCCCCCCCCCCCCCCCCCCCCCCCCCCCC[Si](Cl)(Cl)Cl", 
	 "Tm": 343.15, 
	 "num_atms": 95, 
	 "gaussian": { 
		 "optdone": 1, 
		 "sigma_profile": "yes", 
		 "theory": "DFT", 
		 "functional": "B3LYP", 
		 "basiset": "6-31G**", 
		 "properties": { 
			 "R2extent": 47585.6782, 
			 "electric_dipole_moment_norm": 3.03668631406, 
			 "electric_quadrupole_moment_norm": 21.3223619311, 
			 "total_energy": -2850.28322072, 
			 "HOMO_LUMO_gap": 0.28336, 
			 "cosmo_polarized_energy": -4.84, 
			 "cosmo_cavitation_energy": 96.35, 
			 "cosmo_dispersion_energy": -59.33, 
			 "cosmo_repulsion_energy": 4.88, 
			 "cosmo_total_nonelectrostatic_energy": 41.9, 
			 "SMD_solvation_energy": 10.62 
		},
		"coords": [
			{
				"x": -8.5258903457,
				"y": -0.1796885535,
				"z": 4.7635170432,
				"element": "C" 
			},
			{
				"x": -8.3590821338,
				"y": 1.0364256106,
				"z": 3.8447988815,
				"element": "C" 
			},
			{
				"x": -7.1322729182,
				"y": 0.9674010659,
				"z": 2.9177506841,
				"element": "C" 
			},
			{
				"x": -5.7590382123,
				"y": 0.9286976536,
				"z": 3.6130656596,
				"element": "C" 
			},
			{
				"x": -5.4197039339,
				"y": 2.191522971,
				"z": 4.4184371515,
				"element": "C" 
			},
			{
				"x": -4.0486902183,
				"y": 2.1513558095,
				"z": 5.1186281899,
				"element": "C" 
			},
			{
				"x": -2.8183729237,
				"y": 2.0649687799,
				"z": 4.1973658186,
				"element": "C" 
			},
			{
				"x": -2.6348119565,
				"y": 3.2772668787,
				"z": 3.2715808476,
				"element": "C" 
			},
			{
				"x": -1.3180954973,
				"y": 3.2767119548,
				"z": 2.4760427008,
				"element": "C" 
			},
			{
				"x": -1.2031551009,
				"y": 2.1494891041,
				"z": 1.438483786,
				"element": "C" 
			},
			{
				"x": 0.0362566079,
				"y": 2.247949628,
				"z": 0.5307013615,
				"element": "C" 
			},
			{
				"x": 1.4000862169,
				"y": 2.1320826685,
				"z": 1.2349289663,
				"element": "C" 
			},
			{
				"x": 1.6567539846,
				"y": 0.7815267962,
				"z": 1.9178027925,
				"element": "C" 
			},
			{
				"x": 3.0588091652,
				"y": 0.6691409537,
				"z": 2.5317277122,
				"element": "C" 
			},
			{
				"x": 3.3147487985,
				"y": -0.6792813293,
				"z": 3.2199325321,
				"element": "C" 
			},
			{
				"x": 4.7036404273,
				"y": -0.8034142556,
				"z": 3.8759864682,
				"element": "C" 
			},
			{
				"x": 5.9185589972,
				"y": -0.8868536336,
				"z": 2.9230809281,
				"element": "C" 
			},
			{
				"x": 6.3509132574,
				"y": -2.3081205888,
				"z": 2.5111370383,
				"element": "C" 
			},
			{
				"x": 5.3707624085,
				"y": -3.1211484378,
				"z": 1.6451424474,
				"element": "C" 
			},
			{
				"x": 5.0291505243,
				"y": -2.5250769408,
				"z": 0.2673133466,
				"element": "C" 
			},
			{
				"x": 6.2235353019,
				"y": -2.4192348062,
				"z": -0.6932849416,
				"element": "C" 
			},
			{
				"x": 5.8849618099,
				"y": -1.8261755124,
				"z": -2.0718624202,
				"element": "C" 
			},
			{
				"x": 4.9616066196,
				"y": -2.6913287744,
				"z": -2.9418438035,
				"element": "C" 
			},
			{
				"x": 4.7294244947,
				"y": -2.0993578171,
				"z": -4.3398250922,
				"element": "C" 
			},
			{
				"x": 3.8049889911,
				"y": -2.9451693062,
				"z": -5.2368041734,
				"element": "C" 
			},
			{
				"x": 2.3048764616,
				"y": -2.9397232493,
				"z": -4.8571933851,
				"element": "C" 
			},
			{
				"x": 1.4308551356,
				"y": -1.932644419,
				"z": -5.6279030677,
				"element": "C" 
			},
			{
				"x": 1.7735449758,
				"y": -0.4535601413,
				"z": -5.4016664215,
				"element": "C" 
			},
			{
				"x": 0.8673471735,
				"y": 0.5342621517,
				"z": -6.1603666053,
				"element": "C" 
			},
			{
				"x": -0.5918570081,
				"y": 0.5465769812,
				"z": -5.6601465045,
				"element": "C" 
			},
			{
				"x": -1.7162946473,
				"y": 1.7765619312,
				"z": -6.5014862394,
				"element": "Si" 
			},
			{
				"x": -1.02851693,
				"y": 3.7112241696,
				"z": -6.2504366393,
				"element": "Cl" 
			},
			{
				"x": -3.6183989025,
				"y": 1.6587887833,
				"z": -5.6977158419,
				"element": "Cl" 
			},
			{
				"x": -1.8484481804,
				"y": 1.3996284364,
				"z": -8.5310691919,
				"element": "Cl" 
			},
			{
				"x": -9.4466713454,
				"y": -0.1061728086,
				"z": 5.3516951215,
				"element": "H" 
			},
			{
				"x": -8.5757229401,
				"y": -1.1088367893,
				"z": 4.1835026173,
				"element": "H" 
			},
			{
				"x": -7.6943605588,
				"y": -0.2766325491,
				"z": 5.4694168683,
				"element": "H" 
			},
			{
				"x": -9.2554605992,
				"y": 1.1353622732,
				"z": 3.2191070371,
				"element": "H" 
			},
			{
				"x": -8.3189033952,
				"y": 1.9498802135,
				"z": 4.451662715,
				"element": "H" 
			},
			{
				"x": -7.227042691,
				"y": 0.077072262,
				"z": 2.2807218258,
				"element": "H" 
			},
			{
				"x": -7.1569558443,
				"y": 1.8294802181,
				"z": 2.2368632681,
				"element": "H" 
			},
			{
				"x": -4.995057715,
				"y": 0.7726371481,
				"z": 2.8410799924,
				"element": "H" 
			},
			{
				"x": -5.6977718511,
				"y": 0.0522092023,
				"z": 4.2727424092,
				"element": "H" 
			},
			{
				"x": -5.4774695097,
				"y": 3.0672338881,
				"z": 3.7576668601,
				"element": "H" 
			},
			{
				"x": -6.1855434473,
				"y": 2.3497666066,
				"z": 5.1881324279,
				"element": "H" 
			},
			{
				"x": -3.9514021991,
				"y": 3.046612316,
				"z": 5.7482297957,
				"element": "H" 
			},
			{
				"x": -4.0320108906,
				"y": 1.2952487917,
				"z": 5.807259147,
				"element": "H" 
			},
			{
				"x": -2.8653193502,
				"y": 1.1439223271,
				"z": 3.6037424821,
				"element": "H" 
			},
			{
				"x": -1.9235538074,
				"y": 1.9676255653,
				"z": 4.8281416779,
				"element": "H" 
			},
			{
				"x": -2.678783232,
				"y": 4.1918366547,
				"z": 3.8793467816,
				"element": "H" 
			},
			{
				"x": -3.4753721387,
				"y": 3.3416775955,
				"z": 2.5673898682,
				"element": "H" 
			},
			{
				"x": -1.2186626431,
				"y": 4.2407844901,
				"z": 1.9579574266,
				"element": "H" 
			},
			{
				"x": -0.4773374976,
				"y": 3.2241383139,
				"z": 3.1811045589,
				"element": "H" 
			},
			{
				"x": -2.0984566641,
				"y": 2.1677524215,
				"z": 0.8013556126,
				"element": "H" 
			},
			{
				"x": -1.2150361711,
				"y": 1.1747748849,
				"z": 1.9412554753,
				"element": "H" 
			},
			{
				"x": -0.0287703519,
				"y": 1.4650159791,
				"z": -0.2377959596,
				"element": "H" 
			},
			{
				"x": 0.000595862,
				"y": 3.2046042496,
				"z": -0.0085421219,
				"element": "H" 
			},
			{
				"x": 1.5093060181,
				"y": 2.9378199678,
				"z": 1.9730474548,
				"element": "H" 
			},
			{
				"x": 2.1882432178,
				"y": 2.3050414618,
				"z": 0.4892120422,
				"element": "H" 
			},
			{
				"x": 0.9090247433,
				"y": 0.6103341384,
				"z": 2.7037259208,
				"element": "H" 
			},
			{
				"x": 1.5155063026,
				"y": -0.0267287951,
				"z": 1.1851926392,
				"element": "H" 
			},
			{
				"x": 3.2012166087,
				"y": 1.4784014729,
				"z": 3.2626346499,
				"element": "H" 
			},
			{
				"x": 3.8072179698,
				"y": 0.839220401,
				"z": 1.7456438586,
				"element": "H" 
			},
			{
				"x": 3.1603294,
				"y": -1.4888502043,
				"z": 2.4959238498,
				"element": "H" 
			},
			{
				"x": 2.5511003418,
				"y": -0.8228603775,
				"z": 3.9968205875,
				"element": "H" 
			},
			{
				"x": 4.8346571626,
				"y": 0.0616383681,
				"z": 4.5401008409,
				"element": "H" 
			},
			{
				"x": 4.7121719987,
				"y": -1.6833028801,
				"z": 4.5337658504,
				"element": "H" 
			},
			{
				"x": 6.7793924106,
				"y": -0.424961777,
				"z": 3.4226312232,
				"element": "H" 
			},
			{
				"x": 5.7407645901,
				"y": -0.2733017559,
				"z": 2.030857416,
				"element": "H" 
			},
			{
				"x": 7.3145018483,
				"y": -2.2362160389,
				"z": 1.990376929,
				"element": "H" 
			},
			{
				"x": 6.5539402258,
				"y": -2.8828603299,
				"z": 3.4254130295,
				"element": "H" 
			},
			{
				"x": 5.799136904,
				"y": -4.1220095377,
				"z": 1.4947618276,
				"element": "H" 
			},
			{
				"x": 4.4398956392,
				"y": -3.2810407281,
				"z": 2.2031129616,
				"element": "H" 
			},
			{
				"x": 4.2504166534,
				"y": -3.1499704904,
				"z": -0.1874990047,
				"element": "H" 
			},
			{
				"x": 4.5798577111,
				"y": -1.5299317866,
				"z": 0.3896320017,
				"element": "H" 
			},
			{
				"x": 6.6690278136,
				"y": -3.41597754,
				"z": -0.8268831604,
				"element": "H" 
			},
			{
				"x": 7.0042364243,
				"y": -1.7992528353,
				"z": -0.2353942793,
				"element": "H" 
			},
			{
				"x": 6.821626452,
				"y": -1.6540927747,
				"z": -2.6196531599,
				"element": "H" 
			},
			{
				"x": 5.4298175239,
				"y": -0.8341956436,
				"z": -1.9364135317,
				"element": "H" 
			},
			{
				"x": 3.9985305635,
				"y": -2.8313352978,
				"z": -2.4353376795,
				"element": "H" 
			},
			{
				"x": 5.3984902204,
				"y": -3.6953844163,
				"z": -3.0457338854,
				"element": "H" 
			},
			{
				"x": 4.3299811134,
				"y": -1.0819763493,
				"z": -4.238100575,
				"element": "H" 
			},
			{
				"x": 5.7021988009,
				"y": -1.9918606169,
				"z": -4.838876921,
				"element": "H" 
			},
			{
				"x": 4.1755310828,
				"y": -3.978506668,
				"z": -5.2210751041,
				"element": "H" 
			},
			{
				"x": 3.9083464053,
				"y": -2.6125964043,
				"z": -6.2785990887,
				"element": "H" 
			},
			{
				"x": 1.888098922,
				"y": -3.9380694371,
				"z": -5.037072979,
				"element": "H" 
			},
			{
				"x": 2.1915661738,
				"y": -2.7643495946,
				"z": -3.7789773897,
				"element": "H" 
			},
			{
				"x": 0.38413493,
				"y": -2.1122665312,
				"z": -5.3494671564,
				"element": "H" 
			},
			{
				"x": 1.4996110901,
				"y": -2.1516388968,
				"z": -6.7034057946,
				"element": "H" 
			},
			{
				"x": 1.7361199048,
				"y": -0.2258523917,
				"z": -4.326725426,
				"element": "H" 
			},
			{
				"x": 2.8067102498,
				"y": -0.2673354593,
				"z": -5.7175865012,
				"element": "H" 
			},
			{
				"x": 0.8859966949,
				"y": 0.2935456489,
				"z": -7.2307737463,
				"element": "H" 
			},
			{
				"x": 1.28746432,
				"y": 1.5420882131,
				"z": -6.0631686796,
				"element": "H" 
			},
			{
				"x": -0.6271121835,
				"y": 0.7726033347,
				"z": -4.5856575379,
				"element": "H" 
			},
			{
				"x": -1.0631797097,
				"y": -0.4362652654,
				"z": -5.7841073978,
				"element": "H" 
			}
		],
		 "valence_orbital": [ 
			{
				"type": "occ",
				"energy": -0.30113,
				"method": "rhf"
			},
			{
				"type": "occ",
				"energy": -0.30006,
				"method": "rhf"
			},
			{
				"type": "occ",
				"energy": -0.29702,
				"method": "rhf"
			},
			{
				"type": "occ",
				"energy": -0.29526,
				"method": "rhf"
			},
			{
				"type": "occ",
				"energy": -0.29331,
				"method": "rhf"
			},
			{
				"type": "unocc",
				"energy": -0.00995,
				"method": "rhf"
			},
			{
				"type": "unocc",
				"energy": 0.02398,
				"method": "rhf"
			},
			{
				"type": "unocc",
				"energy": 0.02938,
				"method": "rhf"
			},
			{
				"type": "unocc",
				"energy": 0.06311,
				"method": "rhf"
			},
			{
				"type": "unocc",
				"energy": 0.0702,
				"method": "rhf"
			}
		],
		"cosmo_sigma_profile": { 
			"-0.025": 0.0,
			"-0.024": 0.0,
			"-0.023": 0.0,
			"-0.022": 0.0,
			"-0.021": 0.0,
			"-0.02": 0.0,
			"-0.019": 0.0,
			"-0.018": 0.0,
			"-0.017": 0.0,
			"-0.016": 0.0,
			"-0.015": 0.0,
			"-0.014": 0.0,
			"-0.013": 0.0,
			"-0.012": 0.0,
			"-0.011": 0.0,
			"-0.01": 0.0,
			"-0.009": 0.0,
			"-0.008": 0.0,
			"-0.007": 1.93337736427,
			"-0.006": 4.79367979655,
			"-0.005": 5.05209940277,
			"-0.004": 5.52922986848,
			"-0.003": 14.6514773754,
			"-0.002": 81.0349423433,
			"-0.001": 173.009701713,
			"0.0": 177.845741324,
			"0.001": 152.043493357,
			"0.002": 78.7417694519,
			"0.003": 32.0740543085,
			"0.004": 14.8739115557,
			"0.005": 0.0,
			"0.006": 0.0,
			"0.007": 0.0,
			"0.008": 0.0,
			"0.009": 0.0,
			"0.01": 0.0,
			"0.011": 0.0,
			"0.012": 0.0,
			"0.013": 0.0,
			"0.014": 0.0,
			"0.015": 0.0,
			"0.016": 0.0,
			"0.017": 0.0,
			"0.018": 0.0,
			"0.019": 0.0,
			"0.02": 0.0,
			"0.021": 0.0,
			"0.022": 0.0,
			"0.023": 0.0,
			"0.024": 0.0,
			"0.025": 0.0
		}
	}
}
