{
	 "smiles": "CC1CN1", 
	 "Tm": 208.15, 
	 "num_atms": 11, 
	 "gaussian": { 
		 "optdone": 1, 
		 "sigma_profile": "yes", 
		 "theory": "DFT", 
		 "functional": "B3LYP", 
		 "basiset": "6-31G**", 
		 "properties": { 
			 "R2extent": 354.8039, 
			 "electric_dipole_moment_norm": 1.82916337433, 
			 "electric_quadrupole_moment_norm": 2.78004945819, 
			 "total_energy": -173.247204245, 
			 "HOMO_LUMO_gap": 0.32449, 
			 "cosmo_polarized_energy": -5.48, 
			 "cosmo_cavitation_energy": 13.57, 
			 "cosmo_dispersion_energy": -10.25, 
			 "cosmo_repulsion_energy": 0.94, 
			 "cosmo_total_nonelectrostatic_energy": 4.26, 
			 "SMD_solvation_energy": -2.38 
		},
		"coords": [
			{
				"x": 0.6844090453,
				"y": 0.1776009717,
				"z": 1.7131002366,
				"element": "C" 
			},
			{
				"x": 0.7381752019,
				"y": 0.3725644404,
				"z": 0.2149794457,
				"element": "C" 
			},
			{
				"x": 1.5272407341,
				"y": -0.5496325064,
				"z": -0.6418532022,
				"element": "C" 
			},
			{
				"x": 0.0518400868,
				"y": -0.5645725222,
				"z": -0.6904932783,
				"element": "N" 
			},
			{
				"x": -0.2774673345,
				"y": 0.5082250253,
				"z": 2.1214668847,
				"element": "H" 
			},
			{
				"x": 0.8183717665,
				"y": -0.878071261,
				"z": 1.9773570581,
				"element": "H" 
			},
			{
				"x": 1.473198005,
				"y": 0.7497813965,
				"z": 2.2146643188,
				"element": "H" 
			},
			{
				"x": 0.6507748304,
				"y": 1.4094896829,
				"z": -0.1097840666,
				"element": "H" 
			},
			{
				"x": 2.0134516111,
				"y": -0.186464456,
				"z": -1.5444159782,
				"element": "H" 
			},
			{
				"x": 2.0461001389,
				"y": -1.3732150742,
				"z": -0.1532170862,
				"element": "H" 
			},
			{
				"x": -0.2988940855,
				"y": -1.3594056969,
				"z": -0.1557043323,
				"element": "H" 
			}
		],
		 "valence_orbital": [ 
			{
				"type": "occ",
				"energy": -0.39455,
				"method": "rhf"
			},
			{
				"type": "occ",
				"energy": -0.36113,
				"method": "rhf"
			},
			{
				"type": "occ",
				"energy": -0.32543,
				"method": "rhf"
			},
			{
				"type": "occ",
				"energy": -0.31848,
				"method": "rhf"
			},
			{
				"type": "occ",
				"energy": -0.23764,
				"method": "rhf"
			},
			{
				"type": "unocc",
				"energy": 0.08685,
				"method": "rhf"
			},
			{
				"type": "unocc",
				"energy": 0.11803,
				"method": "rhf"
			},
			{
				"type": "unocc",
				"energy": 0.13076,
				"method": "rhf"
			},
			{
				"type": "unocc",
				"energy": 0.13828,
				"method": "rhf"
			},
			{
				"type": "unocc",
				"energy": 0.14445,
				"method": "rhf"
			}
		],
		"cosmo_sigma_profile": { 
			"-0.025": 0.0,
			"-0.024": 0.0,
			"-0.023": 0.0,
			"-0.022": 0.0,
			"-0.021": 0.0,
			"-0.02": 0.0,
			"-0.019": 0.0,
			"-0.018": 0.0,
			"-0.017": 0.0,
			"-0.016": 0.0,
			"-0.015": 0.0,
			"-0.014": 0.0,
			"-0.013": 0.0,
			"-0.012": 0.0,
			"-0.011": 0.0519104777949,
			"-0.01": 1.25030564402,
			"-0.009": 0.801173342231,
			"-0.008": 1.68675163766,
			"-0.007": 1.72544567645,
			"-0.006": 1.99361758622,
			"-0.005": 5.05527443464,
			"-0.004": 10.0427825326,
			"-0.003": 11.4408452118,
			"-0.002": 12.8382300596,
			"-0.001": 14.091122467,
			"0.0": 13.0909502383,
			"0.001": 7.98749875082,
			"0.002": 3.70597114396,
			"0.003": 4.31695434297,
			"0.004": 1.57558596521,
			"0.005": 1.30119209295,
			"0.006": 0.80450787862,
			"0.007": 0.582375943706,
			"0.008": 1.60757790183,
			"0.009": 1.52972738293,
			"0.01": 0.621912340996,
			"0.011": 0.901993968958,
			"0.012": 0.371167932269,
			"0.013": 1.7833295063,
			"0.014": 0.528733520103,
			"0.015": 0.645133702076,
			"0.016": 1.03582746303,
			"0.017": 0.828432428535,
			"0.018": 0.904113395416,
			"0.019": 0.567655686045,
			"0.02": 0.067269608903,
			"0.021": 0.0,
			"0.022": 0.0,
			"0.023": 0.0,
			"0.024": 0.0,
			"0.025": 0.0
		}
	}
}
