{
	 "smiles": "COC1=C(OC)C=C(C=C1)C(=O)CC1=CC=CC=C1", 
	 "Tm": 360.65, 
	 "num_atms": 35, 
	 "gaussian": { 
		 "optdone": 1, 
		 "sigma_profile": "yes", 
		 "theory": "DFT", 
		 "functional": "B3LYP", 
		 "basiset": "6-31G**", 
		 "properties": { 
			 "R2extent": 6168.5263, 
			 "electric_dipole_moment_norm": 3.40865366237, 
			 "electric_quadrupole_moment_norm": 9.01853097128, 
			 "total_energy": -844.988374328, 
			 "HOMO_LUMO_gap": 0.1796, 
			 "cosmo_polarized_energy": -11.08, 
			 "cosmo_cavitation_energy": 38.74, 
			 "cosmo_dispersion_energy": -26.57, 
			 "cosmo_repulsion_energy": 2.06, 
			 "cosmo_total_nonelectrostatic_energy": 14.24, 
			 "SMD_solvation_energy": 8.3 
		},
		"coords": [
			{
				"x": 1.6342633703,
				"y": 2.2371683843,
				"z": 4.1616100263,
				"element": "C" 
			},
			{
				"x": 0.8433832197,
				"y": 1.0459534568,
				"z": 4.0393342472,
				"element": "O" 
			},
			{
				"x": 0.9420329614,
				"y": 0.3882788964,
				"z": 2.8398244178,
				"element": "C" 
			},
			{
				"x": 0.4904529249,
				"y": 0.9630097547,
				"z": 1.6343455275,
				"element": "C" 
			},
			{
				"x": -0.0370321068,
				"y": 2.2356197041,
				"z": 1.5979799956,
				"element": "O" 
			},
			{
				"x": -1.3323042113,
				"y": 2.3602609247,
				"z": 2.2004330155,
				"element": "C" 
			},
			{
				"x": 0.6062967364,
				"y": 0.2494566787,
				"z": 0.4439661937,
				"element": "C" 
			},
			{
				"x": 1.1433470593,
				"y": -1.0468177256,
				"z": 0.4295513832,
				"element": "C" 
			},
			{
				"x": 1.5528051501,
				"y": -1.6252391467,
				"z": 1.6417990947,
				"element": "C" 
			},
			{
				"x": 1.4590388689,
				"y": -0.9117747092,
				"z": 2.8301076538,
				"element": "C" 
			},
			{
				"x": 1.2882750015,
				"y": -1.8537001227,
				"z": -0.8199963368,
				"element": "C" 
			},
			{
				"x": 1.6699073612,
				"y": -3.0156898448,
				"z": -0.7731899577,
				"element": "O" 
			},
			{
				"x": 0.9373601291,
				"y": -1.2313071455,
				"z": -2.1753789543,
				"element": "C" 
			},
			{
				"x": -0.5527406712,
				"y": -1.3048023353,
				"z": -2.4774032156,
				"element": "C" 
			},
			{
				"x": -1.2688734336,
				"y": -0.1630336704,
				"z": -2.8569454906,
				"element": "C" 
			},
			{
				"x": -2.6316343198,
				"y": -0.2398059572,
				"z": -3.1525102253,
				"element": "C" 
			},
			{
				"x": -3.2978026135,
				"y": -1.4627482548,
				"z": -3.0686520917,
				"element": "C" 
			},
			{
				"x": -2.5918089304,
				"y": -2.6075462487,
				"z": -2.6908520351,
				"element": "C" 
			},
			{
				"x": -1.230641489,
				"y": -2.5299965502,
				"z": -2.3977961293,
				"element": "C" 
			},
			{
				"x": 1.4298150611,
				"y": 2.6339495514,
				"z": 5.1576532161,
				"element": "H" 
			},
			{
				"x": 2.7015717359,
				"y": 1.9983952787,
				"z": 4.0789800765,
				"element": "H" 
			},
			{
				"x": 1.3651642644,
				"y": 2.9763486975,
				"z": 3.402231627,
				"element": "H" 
			},
			{
				"x": -1.6166884628,
				"y": 3.4094966366,
				"z": 2.0991447189,
				"element": "H" 
			},
			{
				"x": -1.307845744,
				"y": 2.084244319,
				"z": 3.2594445213,
				"element": "H" 
			},
			{
				"x": -2.0643680604,
				"y": 1.7333010087,
				"z": 1.6768374184,
				"element": "H" 
			},
			{
				"x": 0.2426629715,
				"y": 0.726319146,
				"z": -0.4587831871,
				"element": "H" 
			},
			{
				"x": 1.9552466935,
				"y": -2.6319648038,
				"z": 1.6213211303,
				"element": "H" 
			},
			{
				"x": 1.7864108518,
				"y": -1.3372583908,
				"z": 3.7734614879,
				"element": "H" 
			},
			{
				"x": 1.2784652275,
				"y": -0.1933151154,
				"z": -2.2305058648,
				"element": "H" 
			},
			{
				"x": 1.4971528797,
				"y": -1.8080832365,
				"z": -2.9183106824,
				"element": "H" 
			},
			{
				"x": -0.7550107501,
				"y": 0.7926802931,
				"z": -2.9318225515,
				"element": "H" 
			},
			{
				"x": -3.17005103,
				"y": 0.6561906988,
				"z": -3.4487162829,
				"element": "H" 
			},
			{
				"x": -4.3578110018,
				"y": -1.524706308,
				"z": -3.2975086225,
				"element": "H" 
			},
			{
				"x": -3.1021632036,
				"y": -3.5643710986,
				"z": -2.6247446846,
				"element": "H" 
			},
			{
				"x": -0.6834764398,
				"y": -3.4213127653,
				"z": -2.1039094396,
				"element": "H" 
			}
		],
		 "valence_orbital": [ 
			{
				"type": "occ",
				"energy": -0.25823,
				"method": "rhf"
			},
			{
				"type": "occ",
				"energy": -0.25029,
				"method": "rhf"
			},
			{
				"type": "occ",
				"energy": -0.2496,
				"method": "rhf"
			},
			{
				"type": "occ",
				"energy": -0.23679,
				"method": "rhf"
			},
			{
				"type": "occ",
				"energy": -0.23397,
				"method": "rhf"
			},
			{
				"type": "unocc",
				"energy": -0.05437,
				"method": "rhf"
			},
			{
				"type": "unocc",
				"energy": -0.00816,
				"method": "rhf"
			},
			{
				"type": "unocc",
				"energy": -0.00266,
				"method": "rhf"
			},
			{
				"type": "unocc",
				"energy": 0.00074,
				"method": "rhf"
			},
			{
				"type": "unocc",
				"energy": 0.04169,
				"method": "rhf"
			}
		],
		"cosmo_sigma_profile": { 
			"-0.025": 0.0,
			"-0.024": 0.0,
			"-0.023": 0.0,
			"-0.022": 0.0,
			"-0.021": 0.0,
			"-0.02": 0.0,
			"-0.019": 0.0,
			"-0.018": 0.0,
			"-0.017": 0.0,
			"-0.016": 0.0,
			"-0.015": 0.0,
			"-0.014": 0.0,
			"-0.013": 0.0,
			"-0.012": 0.0,
			"-0.011": 0.0,
			"-0.01": 0.0,
			"-0.009": 0.235456093613,
			"-0.008": 1.36829582538,
			"-0.007": 3.08248909211,
			"-0.006": 11.8081264538,
			"-0.005": 25.184960963,
			"-0.004": 29.477675012,
			"-0.003": 37.8889026472,
			"-0.002": 28.2612880037,
			"-0.001": 24.849296751,
			"0.0": 18.9084042174,
			"0.001": 20.6584888215,
			"0.002": 24.2455357889,
			"0.003": 22.5842582535,
			"0.004": 13.7371896712,
			"0.005": 12.8839991383,
			"0.006": 10.4567200549,
			"0.007": 2.88310109675,
			"0.008": 3.28397188706,
			"0.009": 3.22685764114,
			"0.01": 4.43079599093,
			"0.011": 4.13503726796,
			"0.012": 3.91516788733,
			"0.013": 0.912704521799,
			"0.014": 0.0514055636405,
			"0.015": 0.0,
			"0.016": 0.0,
			"0.017": 0.0,
			"0.018": 0.0,
			"0.019": 0.0,
			"0.02": 0.0,
			"0.021": 0.0,
			"0.022": 0.0,
			"0.023": 0.0,
			"0.024": 0.0,
			"0.025": 0.0
		}
	}
}
