{
	 "smiles": "COC1=CC(=CC(OC)=C1)N1CCCNCC1", 
	 "Tm": 324.15, 
	 "num_atms": 37, 
	 "gaussian": { 
		 "optdone": 1, 
		 "sigma_profile": "yes", 
		 "theory": "DFT", 
		 "functional": "B3LYP", 
		 "basiset": "6-31G**", 
		 "properties": { 
			 "R2extent": 5352.6462, 
			 "electric_dipole_moment_norm": 0.948257971229, 
			 "electric_quadrupole_moment_norm": 7.1951677298, 
			 "total_energy": -767.34171301, 
			 "HOMO_LUMO_gap": 0.20863, 
			 "cosmo_polarized_energy": -11.76, 
			 "cosmo_cavitation_energy": 36.87, 
			 "cosmo_dispersion_energy": -26.77, 
			 "cosmo_repulsion_energy": 2.07, 
			 "cosmo_total_nonelectrostatic_energy": 12.16, 
			 "SMD_solvation_energy": 4.6 
		},
		"coords": [
			{
				"x": -1.9293755133,
				"y": 0.24940051,
				"z": -3.4684833219,
				"element": "C" 
			},
			{
				"x": -2.4588510774,
				"y": 0.9751460359,
				"z": -2.3742736257,
				"element": "O" 
			},
			{
				"x": -1.8752971982,
				"y": 0.8225256812,
				"z": -1.1450147356,
				"element": "C" 
			},
			{
				"x": -0.8034074455,
				"y": -0.0310609715,
				"z": -0.8986591784,
				"element": "C" 
			},
			{
				"x": -0.2663826563,
				"y": -0.1265555088,
				"z": 0.4117633877,
				"element": "C" 
			},
			{
				"x": -0.8459382442,
				"y": 0.6394948023,
				"z": 1.434926902,
				"element": "C" 
			},
			{
				"x": -1.9332920074,
				"y": 1.4805216425,
				"z": 1.1597478225,
				"element": "C" 
			},
			{
				"x": -2.4051277988,
				"y": 2.1774946021,
				"z": 2.2381956934,
				"element": "O" 
			},
			{
				"x": -3.4852841247,
				"y": 3.07188963,
				"z": 2.0343365899,
				"element": "C" 
			},
			{
				"x": -2.4594567956,
				"y": 1.5902098385,
				"z": -0.1248478037,
				"element": "C" 
			},
			{
				"x": 0.80319638,
				"y": -0.9739846375,
				"z": 0.6817874294,
				"element": "N" 
			},
			{
				"x": 1.6722293024,
				"y": -1.4912566807,
				"z": -0.3654721734,
				"element": "C" 
			},
			{
				"x": 1.3911102125,
				"y": -2.9753722723,
				"z": -0.7507725012,
				"element": "C" 
			},
			{
				"x": 0.5866951028,
				"y": -3.7363575115,
				"z": 0.3073592236,
				"element": "C" 
			},
			{
				"x": 1.2931763278,
				"y": -3.8843613554,
				"z": 1.5872701178,
				"element": "N" 
			},
			{
				"x": 1.8988190555,
				"y": -2.6776435141,
				"z": 2.1547023747,
				"element": "C" 
			},
			{
				"x": 1.1023909774,
				"y": -1.3623033457,
				"z": 2.0590143444,
				"element": "C" 
			},
			{
				"x": -0.8749978677,
				"y": 0.4969954907,
				"z": -3.649366406,
				"element": "H" 
			},
			{
				"x": -2.5201199618,
				"y": 0.5405000519,
				"z": -4.3390452258,
				"element": "H" 
			},
			{
				"x": -2.0194837805,
				"y": -0.835171042,
				"z": -3.3209270188,
				"element": "H" 
			},
			{
				"x": -0.4098541782,
				"y": -0.6507847238,
				"z": -1.6910528326,
				"element": "H" 
			},
			{
				"x": -0.4564288385,
				"y": 0.6386441188,
				"z": 2.4439964614,
				"element": "H" 
			},
			{
				"x": -3.2283272035,
				"y": 3.8625475813,
				"z": 1.3174600693,
				"element": "H" 
			},
			{
				"x": -4.3838569517,
				"y": 2.5501374427,
				"z": 1.6800506113,
				"element": "H" 
			},
			{
				"x": -3.6926501892,
				"y": 3.5225312727,
				"z": 3.0066924882,
				"element": "H" 
			},
			{
				"x": -3.2937346371,
				"y": 2.2316987256,
				"z": -0.3731792588,
				"element": "H" 
			},
			{
				"x": 1.5833165174,
				"y": -0.843802102,
				"z": -1.2395548489,
				"element": "H" 
			},
			{
				"x": 2.7119634286,
				"y": -1.3881924896,
				"z": -0.035014734,
				"element": "H" 
			},
			{
				"x": 2.3389993406,
				"y": -3.4904017113,
				"z": -0.9448715855,
				"element": "H" 
			},
			{
				"x": 0.8133233516,
				"y": -3.0136354393,
				"z": -1.6821300272,
				"element": "H" 
			},
			{
				"x": -0.3862374326,
				"y": -3.2294181605,
				"z": 0.4132271387,
				"element": "H" 
			},
			{
				"x": 0.3784699627,
				"y": -4.7454940191,
				"z": -0.0697059275,
				"element": "H" 
			},
			{
				"x": 0.651010417,
				"y": -4.2883185165,
				"z": 2.26246413,
				"element": "H" 
			},
			{
				"x": 2.0874057402,
				"y": -2.8683153786,
				"z": 3.2170456092,
				"element": "H" 
			},
			{
				"x": 2.8896820167,
				"y": -2.5355568037,
				"z": 1.7072396733,
				"element": "H" 
			},
			{
				"x": 1.6757808786,
				"y": -0.5791784735,
				"z": 2.5868023797,
				"element": "H" 
			},
			{
				"x": 0.1542348904,
				"y": -1.477272769,
				"z": 2.5983887587,
				"element": "H" 
			}
		],
		 "valence_orbital": [ 
			{
				"type": "occ",
				"energy": -0.3033,
				"method": "rhf"
			},
			{
				"type": "occ",
				"energy": -0.2416,
				"method": "rhf"
			},
			{
				"type": "occ",
				"energy": -0.21477,
				"method": "rhf"
			},
			{
				"type": "occ",
				"energy": -0.20001,
				"method": "rhf"
			},
			{
				"type": "occ",
				"energy": -0.17753,
				"method": "rhf"
			},
			{
				"type": "unocc",
				"energy": 0.0311,
				"method": "rhf"
			},
			{
				"type": "unocc",
				"energy": 0.03319,
				"method": "rhf"
			},
			{
				"type": "unocc",
				"energy": 0.07059,
				"method": "rhf"
			},
			{
				"type": "unocc",
				"energy": 0.09396,
				"method": "rhf"
			},
			{
				"type": "unocc",
				"energy": 0.09957,
				"method": "rhf"
			}
		],
		"cosmo_sigma_profile": { 
			"-0.025": 0.0,
			"-0.024": 0.0,
			"-0.023": 0.0,
			"-0.022": 0.0,
			"-0.021": 0.0,
			"-0.02": 0.0,
			"-0.019": 0.0,
			"-0.018": 0.0,
			"-0.017": 0.0,
			"-0.016": 0.0,
			"-0.015": 0.0,
			"-0.014": 0.0,
			"-0.013": 0.0,
			"-0.012": 0.0,
			"-0.011": 0.0,
			"-0.01": 0.459808660709,
			"-0.009": 1.55195420622,
			"-0.008": 1.2551777321,
			"-0.007": 1.22253454112,
			"-0.006": 5.55233555913,
			"-0.005": 21.5424125824,
			"-0.004": 33.7883672684,
			"-0.003": 42.5758298419,
			"-0.002": 34.3108924399,
			"-0.001": 26.254069871,
			"0.0": 19.8278406105,
			"0.001": 13.7711415253,
			"0.002": 9.98783804757,
			"0.003": 7.52543072543,
			"0.004": 9.51307860969,
			"0.005": 11.7710642351,
			"0.006": 16.7716564886,
			"0.007": 11.5458499075,
			"0.008": 4.02499078607,
			"0.009": 3.65294278869,
			"0.01": 3.7046154187,
			"0.011": 3.24234129573,
			"0.012": 1.01514363111,
			"0.013": 0.523176898592,
			"0.014": 0.33968854453,
			"0.015": 0.212733101176,
			"0.016": 0.91103578847,
			"0.017": 0.418804623775,
			"0.018": 0.476200818916,
			"0.019": 0.150698913768,
			"0.02": 0.0,
			"0.021": 0.0,
			"0.022": 0.0,
			"0.023": 0.0,
			"0.024": 0.0,
			"0.025": 0.0
		}
	}
}
