{
	 "smiles": "OC(=O)C1=CN=C(C=C1)N1C=CN=C1", 
	 "Tm": 545.15, 
	 "num_atms": 21, 
	 "gaussian": { 
		 "optdone": 1, 
		 "sigma_profile": "yes", 
		 "theory": "DFT", 
		 "functional": "B3LYP", 
		 "basiset": "6-31G**", 
		 "properties": { 
			 "R2extent": 3876.4341, 
			 "electric_dipole_moment_norm": 5.32096521131, 
			 "electric_quadrupole_moment_norm": 25.5811210233, 
			 "total_energy": -661.869774312, 
			 "HOMO_LUMO_gap": 0.16531, 
			 "cosmo_polarized_energy": -22.03, 
			 "cosmo_cavitation_energy": 26.47, 
			 "cosmo_dispersion_energy": -19.69, 
			 "cosmo_repulsion_energy": 1.5, 
			 "cosmo_total_nonelectrostatic_energy": 8.27, 
			 "SMD_solvation_energy": 3.98 
		},
		"coords": [
			{
				"x": -1.8463215137,
				"y": 0.084587415,
				"z": -4.5430303467,
				"element": "O" 
			},
			{
				"x": -0.8204821578,
				"y": -0.6721649595,
				"z": -4.0683515527,
				"element": "C" 
			},
			{
				"x": -0.1334883211,
				"y": -1.3086895319,
				"z": -4.8312275269,
				"element": "O" 
			},
			{
				"x": -0.605714954,
				"y": -0.6694320639,
				"z": -2.5890282462,
				"element": "C" 
			},
			{
				"x": 0.6360109103,
				"y": -1.1003159827,
				"z": -2.0998023802,
				"element": "C" 
			},
			{
				"x": 0.9481482205,
				"y": -1.1487219731,
				"z": -0.8073673795,
				"element": "N" 
			},
			{
				"x": 0.0159237225,
				"y": -0.7853014012,
				"z": 0.0822013122,
				"element": "C" 
			},
			{
				"x": -1.2713511506,
				"y": -0.3652748974,
				"z": -0.2884631119,
				"element": "C" 
			},
			{
				"x": -1.5729257393,
				"y": -0.3082776362,
				"z": -1.6421809529,
				"element": "C" 
			},
			{
				"x": 0.4040926171,
				"y": -0.8577300383,
				"z": 1.4299037372,
				"element": "N" 
			},
			{
				"x": -0.3273927463,
				"y": -0.5066434266,
				"z": 2.5633275302,
				"element": "C" 
			},
			{
				"x": 0.4932176356,
				"y": -0.7659160704,
				"z": 3.623055444,
				"element": "C" 
			},
			{
				"x": 1.7106464859,
				"y": -1.2676850481,
				"z": 3.1957891775,
				"element": "N" 
			},
			{
				"x": 1.6310204056,
				"y": -1.3108248953,
				"z": 1.8919048543,
				"element": "C" 
			},
			{
				"x": -2.1883877494,
				"y": 0.6702130571,
				"z": -3.8539605705,
				"element": "H" 
			},
			{
				"x": 1.401683525,
				"y": -1.4124610952,
				"z": -2.8047907033,
				"element": "H" 
			},
			{
				"x": -2.0172960154,
				"y": -0.1048640033,
				"z": 0.4514932603,
				"element": "H" 
			},
			{
				"x": -2.5756924431,
				"y": -0.0146274104,
				"z": -1.943082865,
				"element": "H" 
			},
			{
				"x": -1.3280463659,
				"y": -0.1112843951,
				"z": 2.5131480337,
				"element": "H" 
			},
			{
				"x": 0.281755679,
				"y": -0.6208048356,
				"z": 4.6733130792,
				"element": "H" 
			},
			{
				"x": 2.3905999551,
				"y": -1.6481808078,
				"z": 1.2046492071,
				"element": "H" 
			}
		],
		 "valence_orbital": [ 
			{
				"type": "occ",
				"energy": -0.30037,
				"method": "rhf"
			},
			{
				"type": "occ",
				"energy": -0.28616,
				"method": "rhf"
			},
			{
				"type": "occ",
				"energy": -0.27518,
				"method": "rhf"
			},
			{
				"type": "occ",
				"energy": -0.26443,
				"method": "rhf"
			},
			{
				"type": "occ",
				"energy": -0.24241,
				"method": "rhf"
			},
			{
				"type": "unocc",
				"energy": -0.0771,
				"method": "rhf"
			},
			{
				"type": "unocc",
				"energy": -0.05639,
				"method": "rhf"
			},
			{
				"type": "unocc",
				"energy": 0.0003,
				"method": "rhf"
			},
			{
				"type": "unocc",
				"energy": 0.0404,
				"method": "rhf"
			},
			{
				"type": "unocc",
				"energy": 0.05312,
				"method": "rhf"
			}
		],
		"cosmo_sigma_profile": { 
			"-0.025": 0.0,
			"-0.024": 0.0,
			"-0.023": 0.0,
			"-0.022": 0.0,
			"-0.021": 0.0,
			"-0.02": 0.0225103366756,
			"-0.019": 1.05865934351,
			"-0.018": 0.892739117253,
			"-0.017": 1.22105991777,
			"-0.016": 1.17368947855,
			"-0.015": 1.1516566583,
			"-0.014": 0.864226462529,
			"-0.013": 1.01957610646,
			"-0.012": 2.01740272191,
			"-0.011": 3.50502013177,
			"-0.01": 3.21867760032,
			"-0.009": 5.09102084305,
			"-0.008": 6.68493080905,
			"-0.007": 7.05165976315,
			"-0.006": 8.22326503837,
			"-0.005": 8.71833776688,
			"-0.004": 9.97274008052,
			"-0.003": 12.1570157272,
			"-0.002": 15.5650032445,
			"-0.001": 17.9803329633,
			"0.0": 16.6748287173,
			"0.001": 9.64972254771,
			"0.002": 9.84558015635,
			"0.003": 8.82994106826,
			"0.004": 8.82958097791,
			"0.005": 5.97015821768,
			"0.006": 5.90518643122,
			"0.007": 4.70902012524,
			"0.008": 6.43327760381,
			"0.009": 6.38289406356,
			"0.01": 5.83894060955,
			"0.011": 6.24249661705,
			"0.012": 4.83872343501,
			"0.013": 2.07207205053,
			"0.014": 1.37153416863,
			"0.015": 0.789160809463,
			"0.016": 1.19395920202,
			"0.017": 0.846993851499,
			"0.018": 0.103323735109,
			"0.019": 0.0,
			"0.02": 0.0,
			"0.021": 0.0,
			"0.022": 0.0,
			"0.023": 0.0,
			"0.024": 0.0,
			"0.025": 0.0
		}
	}
}
