{
	 "smiles": "CC(=O)C=C(C)N1CCCC1", 
	 "Tm": 388.15, 
	 "num_atms": 26, 
	 "gaussian": { 
		 "optdone": 1, 
		 "sigma_profile": "yes", 
		 "theory": "DFT", 
		 "functional": "B3LYP", 
		 "basiset": "6-31G**", 
		 "properties": { 
			 "R2extent": 2477.3621, 
			 "electric_dipole_moment_norm": 6.33693060795, 
			 "electric_quadrupole_moment_norm": 12.4483508249, 
			 "total_energy": -481.96207765, 
			 "HOMO_LUMO_gap": 0.18039, 
			 "cosmo_polarized_energy": -14.07, 
			 "cosmo_cavitation_energy": 27.15, 
			 "cosmo_dispersion_energy": -20.04, 
			 "cosmo_repulsion_energy": 1.62, 
			 "cosmo_total_nonelectrostatic_energy": 8.72, 
			 "SMD_solvation_energy": 4.36 
		},
		"coords": [
			{
				"x": -3.3887185864,
				"y": 0.675983155,
				"z": 0.4193534797,
				"element": "C" 
			},
			{
				"x": -2.5665836999,
				"y": 0.281449103,
				"z": -0.806626813,
				"element": "C" 
			},
			{
				"x": -3.1770389506,
				"y": 0.0112567292,
				"z": -1.843043345,
				"element": "O" 
			},
			{
				"x": -1.1052073935,
				"y": 0.2101261624,
				"z": -0.8216439404,
				"element": "C" 
			},
			{
				"x": -0.1394235443,
				"y": 0.4504479413,
				"z": 0.1255502187,
				"element": "C" 
			},
			{
				"x": -0.3921046739,
				"y": 0.8994311611,
				"z": 1.5456547712,
				"element": "C" 
			},
			{
				"x": 1.188952708,
				"y": 0.295042378,
				"z": -0.1871029135,
				"element": "N" 
			},
			{
				"x": 1.6501953543,
				"y": -0.2015062427,
				"z": -1.4880378501,
				"element": "C" 
			},
			{
				"x": 3.1585438111,
				"y": -0.4140642564,
				"z": -1.2970329951,
				"element": "C" 
			},
			{
				"x": 3.5273381485,
				"y": 0.6212460321,
				"z": -0.2246810005,
				"element": "C" 
			},
			{
				"x": 2.3112800848,
				"y": 0.5976967132,
				"z": 0.7106802256,
				"element": "C" 
			},
			{
				"x": -3.2509688125,
				"y": -0.0306339554,
				"z": 1.2455889688,
				"element": "H" 
			},
			{
				"x": -4.4388916833,
				"y": 0.666343419,
				"z": 0.1238220787,
				"element": "H" 
			},
			{
				"x": -3.1314278461,
				"y": 1.6763626883,
				"z": 0.7831293372,
				"element": "H" 
			},
			{
				"x": -0.7727325069,
				"y": -0.0839161481,
				"z": -1.8107447218,
				"element": "H" 
			},
			{
				"x": -0.0548920758,
				"y": 1.9323126593,
				"z": 1.694235478,
				"element": "H" 
			},
			{
				"x": 0.1602495835,
				"y": 0.2741659641,
				"z": 2.254786942,
				"element": "H" 
			},
			{
				"x": -1.4425421755,
				"y": 0.8532103054,
				"z": 1.8087734722,
				"element": "H" 
			},
			{
				"x": 1.4381057838,
				"y": 0.5335516742,
				"z": -2.278347913,
				"element": "H" 
			},
			{
				"x": 1.127175975,
				"y": -1.1265762443,
				"z": -1.7557876162,
				"element": "H" 
			},
			{
				"x": 3.3504994676,
				"y": -1.4267559735,
				"z": -0.9248194804,
				"element": "H" 
			},
			{
				"x": 3.7166537853,
				"y": -0.2903847481,
				"z": -2.2285945351,
				"element": "H" 
			},
			{
				"x": 4.4591448614,
				"y": 0.3932139569,
				"z": 0.2996581459,
				"element": "H" 
			},
			{
				"x": 3.6289374427,
				"y": 1.6143107496,
				"z": -0.6766871731,
				"element": "H" 
			},
			{
				"x": 2.1695030369,
				"y": 1.5528000602,
				"z": 1.2251607683,
				"element": "H" 
			},
			{
				"x": 2.4275519056,
				"y": -0.179013284,
				"z": 1.4827564109,
				"element": "H" 
			}
		],
		 "valence_orbital": [ 
			{
				"type": "occ",
				"energy": -0.33856,
				"method": "rhf"
			},
			{
				"type": "occ",
				"energy": -0.33161,
				"method": "rhf"
			},
			{
				"type": "occ",
				"energy": -0.29517,
				"method": "rhf"
			},
			{
				"type": "occ",
				"energy": -0.21258,
				"method": "rhf"
			},
			{
				"type": "occ",
				"energy": -0.1934,
				"method": "rhf"
			},
			{
				"type": "unocc",
				"energy": -0.01301,
				"method": "rhf"
			},
			{
				"type": "unocc",
				"energy": 0.0676,
				"method": "rhf"
			},
			{
				"type": "unocc",
				"energy": 0.09108,
				"method": "rhf"
			},
			{
				"type": "unocc",
				"energy": 0.09683,
				"method": "rhf"
			},
			{
				"type": "unocc",
				"energy": 0.09789,
				"method": "rhf"
			}
		],
		"cosmo_sigma_profile": { 
			"-0.025": 0.0,
			"-0.024": 0.0,
			"-0.023": 0.0,
			"-0.022": 0.0,
			"-0.021": 0.0,
			"-0.02": 0.0,
			"-0.019": 0.0,
			"-0.018": 0.0,
			"-0.017": 0.0,
			"-0.016": 0.0,
			"-0.015": 0.0,
			"-0.014": 0.0,
			"-0.013": 0.0,
			"-0.012": 0.0,
			"-0.011": 0.0,
			"-0.01": 0.0,
			"-0.009": 0.0,
			"-0.008": 0.0,
			"-0.007": 0.0,
			"-0.006": 2.54554198597,
			"-0.005": 12.4781415553,
			"-0.004": 27.7146034616,
			"-0.003": 38.7872536123,
			"-0.002": 32.5075700339,
			"-0.001": 24.4330333692,
			"0.0": 19.3719242088,
			"0.001": 7.90147092128,
			"0.002": 4.87481561239,
			"0.003": 4.29559349565,
			"0.004": 3.41374406645,
			"0.005": 3.70957332936,
			"0.006": 4.56572292528,
			"0.007": 3.49086445246,
			"0.008": 1.47222634739,
			"0.009": 2.03202757486,
			"0.01": 1.40577758132,
			"0.011": 1.76148853435,
			"0.012": 1.66156500582,
			"0.013": 2.16106847643,
			"0.014": 3.66261659831,
			"0.015": 5.25996176532,
			"0.016": 2.18122582864,
			"0.017": 0.0842576345984,
			"0.018": 0.0,
			"0.019": 0.0,
			"0.02": 0.0,
			"0.021": 0.0,
			"0.022": 0.0,
			"0.023": 0.0,
			"0.024": 0.0,
			"0.025": 0.0
		}
	}
}
