{
	 "smiles": "OC(=O)C1=CC(F)=C(F)C=C1[N+]([O-])=O", 
	 "Tm": 438.15, 
	 "num_atms": 17, 
	 "gaussian": { 
		 "optdone": 1, 
		 "sigma_profile": "yes", 
		 "theory": "DFT", 
		 "functional": "B3LYP", 
		 "basiset": "6-31G**", 
		 "properties": { 
			 "R2extent": 4474.8242, 
			 "electric_dipole_moment_norm": 2.12311812907, 
			 "electric_quadrupole_moment_norm": 14.1197259743, 
			 "total_energy": -823.759190205, 
			 "HOMO_LUMO_gap": 0.17744, 
			 "cosmo_polarized_energy": -12.28, 
			 "cosmo_cavitation_energy": 24.64, 
			 "cosmo_dispersion_energy": -17.44, 
			 "cosmo_repulsion_energy": 1.33, 
			 "cosmo_total_nonelectrostatic_energy": 8.53, 
			 "SMD_solvation_energy": 8.7 
		},
		"coords": [
			{
				"x": -1.4654805071,
				"y": 2.3857252078,
				"z": 0.0295983815,
				"element": "O" 
			},
			{
				"x": -0.7059441771,
				"y": 1.293661438,
				"z": 0.2327616932,
				"element": "C" 
			},
			{
				"x": -1.0456708941,
				"y": 0.3456311238,
				"z": 0.9031957337,
				"element": "O" 
			},
			{
				"x": 0.5628932132,
				"y": 1.3231483418,
				"z": -0.5715801454,
				"element": "C" 
			},
			{
				"x": 0.8530864892,
				"y": 0.1734879653,
				"z": -1.3133179653,
				"element": "C" 
			},
			{
				"x": 1.9620181064,
				"y": 0.1378217717,
				"z": -2.145758408,
				"element": "C" 
			},
			{
				"x": 2.2380081223,
				"y": -0.9566418006,
				"z": -2.8599728102,
				"element": "F" 
			},
			{
				"x": 2.8026255797,
				"y": 1.2482573929,
				"z": -2.2553069323,
				"element": "C" 
			},
			{
				"x": 3.8620178801,
				"y": 1.1862817991,
				"z": -3.0673732759,
				"element": "F" 
			},
			{
				"x": 2.5490752986,
				"y": 2.3912170568,
				"z": -1.5150570788,
				"element": "C" 
			},
			{
				"x": 1.4398124554,
				"y": 2.4118045477,
				"z": -0.6717550416,
				"element": "C" 
			},
			{
				"x": 1.2874006163,
				"y": 3.5988113763,
				"z": 0.1864888295,
				"element": "N" 
			},
			{
				"x": 1.7371038165,
				"y": 4.661196079,
				"z": -0.2375269407,
				"element": "O" 
			},
			{
				"x": 0.7604947028,
				"y": 3.4351621891,
				"z": 1.2836091974,
				"element": "O" 
			},
			{
				"x": -2.248568702,
				"y": 2.2922397517,
				"z": 0.5982780146,
				"element": "H" 
			},
			{
				"x": 0.2051114229,
				"y": -0.6928713888,
				"z": -1.2476958042,
				"element": "H" 
			},
			{
				"x": 3.2081165767,
				"y": 3.2478671483,
				"z": -1.5767874474,
				"element": "H" 
			}
		],
		 "valence_orbital": [ 
			{
				"type": "occ",
				"energy": -0.32227,
				"method": "rhf"
			},
			{
				"type": "occ",
				"energy": -0.31565,
				"method": "rhf"
			},
			{
				"type": "occ",
				"energy": -0.30714,
				"method": "rhf"
			},
			{
				"type": "occ",
				"energy": -0.29464,
				"method": "rhf"
			},
			{
				"type": "occ",
				"energy": -0.28166,
				"method": "rhf"
			},
			{
				"type": "unocc",
				"energy": -0.10422,
				"method": "rhf"
			},
			{
				"type": "unocc",
				"energy": -0.06213,
				"method": "rhf"
			},
			{
				"type": "unocc",
				"energy": -0.03074,
				"method": "rhf"
			},
			{
				"type": "unocc",
				"energy": 0.01241,
				"method": "rhf"
			},
			{
				"type": "unocc",
				"energy": 0.04486,
				"method": "rhf"
			}
		],
		"cosmo_sigma_profile": { 
			"-0.025": 0.0,
			"-0.024": 0.0,
			"-0.023": 0.0,
			"-0.022": 0.0,
			"-0.021": 0.0,
			"-0.02": 0.0630609007202,
			"-0.019": 0.774035088477,
			"-0.018": 0.978109096417,
			"-0.017": 1.21403792618,
			"-0.016": 0.429533262553,
			"-0.015": 0.537246940875,
			"-0.014": 0.857939083942,
			"-0.013": 1.01287693666,
			"-0.012": 0.566102516858,
			"-0.011": 0.596280551067,
			"-0.01": 2.42307793616,
			"-0.009": 3.14451908515,
			"-0.008": 5.48025817941,
			"-0.007": 4.57071034146,
			"-0.006": 4.67723017128,
			"-0.005": 8.81702731241,
			"-0.004": 14.4543522042,
			"-0.003": 18.8810924777,
			"-0.002": 13.9852253655,
			"-0.001": 9.62053302015,
			"0.0": 8.65286747295,
			"0.001": 10.0032439926,
			"0.002": 22.1559036945,
			"0.003": 13.9827177517,
			"0.004": 5.74880418423,
			"0.005": 6.69163991275,
			"0.006": 9.08580613908,
			"0.007": 10.0107192741,
			"0.008": 6.62306717299,
			"0.009": 4.84319494749,
			"0.01": 4.0363210388,
			"0.011": 3.79215593246,
			"0.012": 0.178030252252,
			"0.013": 0.0,
			"0.014": 0.0,
			"0.015": 0.0,
			"0.016": 0.0,
			"0.017": 0.0,
			"0.018": 0.0,
			"0.019": 0.0,
			"0.02": 0.0,
			"0.021": 0.0,
			"0.022": 0.0,
			"0.023": 0.0,
			"0.024": 0.0,
			"0.025": 0.0
		}
	}
}
