{
	 "smiles": "OC1=CC=CC=C1C1=NC2=C(S1)C=CC=C2", 
	 "Tm": 405.15, 
	 "num_atms": 25, 
	 "gaussian": { 
		 "optdone": 1, 
		 "sigma_profile": "yes", 
		 "theory": "DFT", 
		 "functional": "B3LYP", 
		 "basiset": "6-31G**", 
		 "properties": { 
			 "R2extent": 4768.3045, 
			 "electric_dipole_moment_norm": 2.59566711271, 
			 "electric_quadrupole_moment_norm": 22.7629174503, 
			 "total_energy": -1028.98121044, 
			 "HOMO_LUMO_gap": 0.16068, 
			 "cosmo_polarized_energy": -12.0, 
			 "cosmo_cavitation_energy": 30.59, 
			 "cosmo_dispersion_energy": -23.61, 
			 "cosmo_repulsion_energy": 1.76, 
			 "cosmo_total_nonelectrostatic_energy": 8.74, 
			 "SMD_solvation_energy": 3.66 
		},
		"coords": [
			{
				"x": 0.6053013073,
				"y": -3.6596074678,
				"z": -0.3265803911,
				"element": "O" 
			},
			{
				"x": -0.6590576585,
				"y": -3.4530280474,
				"z": 0.1424476781,
				"element": "C" 
			},
			{
				"x": -1.4609075533,
				"y": -4.5190667699,
				"z": 0.5634644361,
				"element": "C" 
			},
			{
				"x": -2.7480678519,
				"y": -4.2871603817,
				"z": 1.0385654959,
				"element": "C" 
			},
			{
				"x": -3.2446976835,
				"y": -2.9817225074,
				"z": 1.0961362464,
				"element": "C" 
			},
			{
				"x": -2.4472277275,
				"y": -1.924287425,
				"z": 0.6776284921,
				"element": "C" 
			},
			{
				"x": -1.1405757747,
				"y": -2.1280007933,
				"z": 0.1921863898,
				"element": "C" 
			},
			{
				"x": -0.3654666592,
				"y": -0.9515966357,
				"z": -0.2296562207,
				"element": "C" 
			},
			{
				"x": -0.8578165926,
				"y": 0.2537528948,
				"z": -0.1633209113,
				"element": "N" 
			},
			{
				"x": 0.0359133507,
				"y": 1.2042882374,
				"z": -0.6074113664,
				"element": "C" 
			},
			{
				"x": 1.2871156601,
				"y": 0.7014786847,
				"z": -1.0400204609,
				"element": "C" 
			},
			{
				"x": 1.3040511801,
				"y": -1.0381314486,
				"z": -0.8671817073,
				"element": "S" 
			},
			{
				"x": 2.2877569296,
				"y": 1.5543174492,
				"z": -1.5155214757,
				"element": "C" 
			},
			{
				"x": 2.0236362283,
				"y": 2.9206199525,
				"z": -1.5542003079,
				"element": "C" 
			},
			{
				"x": 0.7840315137,
				"y": 3.4317524514,
				"z": -1.126922653,
				"element": "C" 
			},
			{
				"x": -0.2110345304,
				"y": 2.5865525301,
				"z": -0.6544029115,
				"element": "C" 
			},
			{
				"x": 0.8122268136,
				"y": -4.6027386168,
				"z": -0.306451934,
				"element": "H" 
			},
			{
				"x": -1.0658683801,
				"y": -5.5317775092,
				"z": 0.5147739345,
				"element": "H" 
			},
			{
				"x": -3.3591461962,
				"y": -5.1245654695,
				"z": 1.3620042904,
				"element": "H" 
			},
			{
				"x": -4.247410864,
				"y": -2.7917924286,
				"z": 1.4652836772,
				"element": "H" 
			},
			{
				"x": -2.8099829842,
				"y": -0.9035710941,
				"z": 0.7127671415,
				"element": "H" 
			},
			{
				"x": 3.2456979366,
				"y": 1.1652414083,
				"z": -1.8462995191,
				"element": "H" 
			},
			{
				"x": 2.7868849427,
				"y": 3.6011594741,
				"z": -1.9199553337,
				"element": "H" 
			},
			{
				"x": 0.6056842991,
				"y": 4.5021872378,
				"z": -1.1682956225,
				"element": "H" 
			},
			{
				"x": -1.171839706,
				"y": 2.9652962746,
				"z": -0.321436967,
				"element": "H" 
			}
		],
		 "valence_orbital": [ 
			{
				"type": "occ",
				"energy": -0.27149,
				"method": "rhf"
			},
			{
				"type": "occ",
				"energy": -0.26678,
				"method": "rhf"
			},
			{
				"type": "occ",
				"energy": -0.23933,
				"method": "rhf"
			},
			{
				"type": "occ",
				"energy": -0.22637,
				"method": "rhf"
			},
			{
				"type": "occ",
				"energy": -0.21291,
				"method": "rhf"
			},
			{
				"type": "unocc",
				"energy": -0.05223,
				"method": "rhf"
			},
			{
				"type": "unocc",
				"energy": 0.00101,
				"method": "rhf"
			},
			{
				"type": "unocc",
				"energy": 0.00222,
				"method": "rhf"
			},
			{
				"type": "unocc",
				"energy": 0.01698,
				"method": "rhf"
			},
			{
				"type": "unocc",
				"energy": 0.02694,
				"method": "rhf"
			}
		],
		"cosmo_sigma_profile": { 
			"-0.025": 0.0,
			"-0.024": 0.0,
			"-0.023": 0.0,
			"-0.022": 0.0,
			"-0.021": 0.0,
			"-0.02": 0.0,
			"-0.019": 0.439690467645,
			"-0.018": 1.00095105414,
			"-0.017": 1.07904699304,
			"-0.016": 1.24150145604,
			"-0.015": 1.15581341011,
			"-0.014": 0.475264722798,
			"-0.013": 0.951664217979,
			"-0.012": 0.959958015007,
			"-0.011": 1.64634047637,
			"-0.01": 0.995685127421,
			"-0.009": 0.648479730246,
			"-0.008": 1.00966116666,
			"-0.007": 5.09800929412,
			"-0.006": 12.7574692531,
			"-0.005": 14.6397731328,
			"-0.004": 18.7479810613,
			"-0.003": 12.1663530999,
			"-0.002": 12.8748296117,
			"-0.001": 10.7187766209,
			"0.0": 13.117525398,
			"0.001": 21.0309251417,
			"0.002": 23.9253073941,
			"0.003": 27.1537383825,
			"0.004": 27.8995140746,
			"0.005": 20.2684395106,
			"0.006": 5.90784011475,
			"0.007": 4.07783555826,
			"0.008": 2.38891691463,
			"0.009": 1.69093060333,
			"0.01": 1.09317378847,
			"0.011": 1.2186637526,
			"0.012": 0.0904192670963,
			"0.013": 0.0,
			"0.014": 0.0,
			"0.015": 0.0,
			"0.016": 0.0,
			"0.017": 0.0,
			"0.018": 0.0,
			"0.019": 0.0,
			"0.02": 0.0,
			"0.021": 0.0,
			"0.022": 0.0,
			"0.023": 0.0,
			"0.024": 0.0,
			"0.025": 0.0
		}
	}
}
