{
	 "smiles": "CC(=O)C1=C(C)N2CCCC2=C1C#N", 
	 "Tm": 406.15, 
	 "num_atms": 26, 
	 "gaussian": { 
		 "optdone": 1, 
		 "sigma_profile": "yes", 
		 "theory": "DFT", 
		 "functional": "B3LYP", 
		 "basiset": "6-31G**", 
		 "properties": { 
			 "R2extent": 3024.6343, 
			 "electric_dipole_moment_norm": 6.85239120745, 
			 "electric_quadrupole_moment_norm": 8.54574465919, 
			 "total_energy": -611.126023698, 
			 "HOMO_LUMO_gap": 0.18644, 
			 "cosmo_polarized_energy": -15.85, 
			 "cosmo_cavitation_energy": 29.64, 
			 "cosmo_dispersion_energy": -20.85, 
			 "cosmo_repulsion_energy": 1.65, 
			 "cosmo_total_nonelectrostatic_energy": 10.44, 
			 "SMD_solvation_energy": 6.04 
		},
		"coords": [
			{
				"x": 0.6080328372,
				"y": 0.4481387126,
				"z": 3.9409044735,
				"element": "C" 
			},
			{
				"x": 1.312310534,
				"y": -0.3421858574,
				"z": 2.8546212484,
				"element": "C" 
			},
			{
				"x": 2.2816051586,
				"y": -1.0476911282,
				"z": 3.1240303529,
				"element": "O" 
			},
			{
				"x": 0.820762024,
				"y": -0.2527729541,
				"z": 1.467316922,
				"element": "C" 
			},
			{
				"x": 1.4036173678,
				"y": -0.9520140589,
				"z": 0.405760059,
				"element": "C" 
			},
			{
				"x": 2.5726659468,
				"y": -1.8823581777,
				"z": 0.3802558945,
				"element": "C" 
			},
			{
				"x": 0.6792775371,
				"y": -0.6433144475,
				"z": -0.7155493255,
				"element": "N" 
			},
			{
				"x": 0.7734060887,
				"y": -0.9763217655,
				"z": -2.1385569541,
				"element": "C" 
			},
			{
				"x": -0.6037439871,
				"y": -0.5056384445,
				"z": -2.6711199978,
				"element": "C" 
			},
			{
				"x": -1.0800706126,
				"y": 0.5952865888,
				"z": -1.6799829019,
				"element": "C" 
			},
			{
				"x": -0.3352120738,
				"y": 0.2318495806,
				"z": -0.432668826,
				"element": "C" 
			},
			{
				"x": -0.2920867384,
				"y": 0.5063921233,
				"z": 0.9218491188,
				"element": "C" 
			},
			{
				"x": -1.2002552903,
				"y": 1.3731610455,
				"z": 1.5820850939,
				"element": "C" 
			},
			{
				"x": -1.9588339216,
				"y": 2.0896750322,
				"z": 2.1007826752,
				"element": "N" 
			},
			{
				"x": 0.6252075112,
				"y": 1.5214513678,
				"z": 3.7245519653,
				"element": "H" 
			},
			{
				"x": 1.1109959537,
				"y": 0.2567735714,
				"z": 4.8895640936,
				"element": "H" 
			},
			{
				"x": -0.4462831935,
				"y": 0.1626115188,
				"z": 4.0184175926,
				"element": "H" 
			},
			{
				"x": 3.4769693351,
				"y": -1.3802172475,
				"z": 0.7348900221,
				"element": "H" 
			},
			{
				"x": 2.7518655623,
				"y": -2.2629168636,
				"z": -0.6294404203,
				"element": "H" 
			},
			{
				"x": 2.4138574136,
				"y": -2.7261675962,
				"z": 1.0570206707,
				"element": "H" 
			},
			{
				"x": 1.6057575739,
				"y": -0.429701416,
				"z": -2.5979120092,
				"element": "H" 
			},
			{
				"x": 0.9427702928,
				"y": -2.0459458898,
				"z": -2.2844476998,
				"element": "H" 
			},
			{
				"x": -0.5408428368,
				"y": -0.149885397,
				"z": -3.7017194709,
				"element": "H" 
			},
			{
				"x": -1.3046727185,
				"y": -1.3451910617,
				"z": -2.6493112834,
				"element": "H" 
			},
			{
				"x": -0.7960936111,
				"y": 1.5970992647,
				"z": -2.0279652419,
				"element": "H" 
			},
			{
				"x": -2.1653061533,
				"y": 0.5982835001,
				"z": -1.5472760515,
				"element": "H" 
			}
		],
		 "valence_orbital": [ 
			{
				"type": "occ",
				"energy": -0.33936,
				"method": "rhf"
			},
			{
				"type": "occ",
				"energy": -0.31714,
				"method": "rhf"
			},
			{
				"type": "occ",
				"energy": -0.25329,
				"method": "rhf"
			},
			{
				"type": "occ",
				"energy": -0.2382,
				"method": "rhf"
			},
			{
				"type": "occ",
				"energy": -0.22439,
				"method": "rhf"
			},
			{
				"type": "unocc",
				"energy": -0.03795,
				"method": "rhf"
			},
			{
				"type": "unocc",
				"energy": -0.0025,
				"method": "rhf"
			},
			{
				"type": "unocc",
				"energy": 0.03781,
				"method": "rhf"
			},
			{
				"type": "unocc",
				"energy": 0.0625,
				"method": "rhf"
			},
			{
				"type": "unocc",
				"energy": 0.06714,
				"method": "rhf"
			}
		],
		"cosmo_sigma_profile": { 
			"-0.025": 0.0,
			"-0.024": 0.0,
			"-0.023": 0.0,
			"-0.022": 0.0,
			"-0.021": 0.0,
			"-0.02": 0.0,
			"-0.019": 0.0,
			"-0.018": 0.0,
			"-0.017": 0.0,
			"-0.016": 0.0,
			"-0.015": 0.0,
			"-0.014": 0.0,
			"-0.013": 0.0,
			"-0.012": 0.0,
			"-0.011": 0.0,
			"-0.01": 0.0,
			"-0.009": 0.0,
			"-0.008": 0.0,
			"-0.007": 2.60120080445,
			"-0.006": 12.4903609021,
			"-0.005": 28.2283258808,
			"-0.004": 29.7331307407,
			"-0.003": 24.0477915363,
			"-0.002": 22.5525019149,
			"-0.001": 23.4102886483,
			"0.0": 14.8405611954,
			"0.001": 10.1579784316,
			"0.002": 10.2228302132,
			"0.003": 8.83508762553,
			"0.004": 4.71684133836,
			"0.005": 4.30453579533,
			"0.006": 3.0582202483,
			"0.007": 4.46094373139,
			"0.008": 4.05385550369,
			"0.009": 4.42889047433,
			"0.01": 5.03317153671,
			"0.011": 4.58933987968,
			"0.012": 5.52147316909,
			"0.013": 5.15217264375,
			"0.014": 2.73572755331,
			"0.015": 0.0984445887857,
			"0.016": 0.0,
			"0.017": 0.0,
			"0.018": 0.0,
			"0.019": 0.0,
			"0.02": 0.0,
			"0.021": 0.0,
			"0.022": 0.0,
			"0.023": 0.0,
			"0.024": 0.0,
			"0.025": 0.0
		}
	}
}
