{
	 "smiles": "CCC1=NN(C)C(=O)C1", 
	 "Tm": 363.15, 
	 "num_atms": 19, 
	 "gaussian": { 
		 "optdone": 1, 
		 "sigma_profile": "yes", 
		 "theory": "DFT", 
		 "functional": "B3LYP", 
		 "basiset": "6-31G**", 
		 "properties": { 
			 "R2extent": 2031.609, 
			 "electric_dipole_moment_norm": 2.69963723674, 
			 "electric_quadrupole_moment_norm": 14.5018950151, 
			 "total_energy": -419.381739796, 
			 "HOMO_LUMO_gap": 0.20379, 
			 "cosmo_polarized_energy": -10.36, 
			 "cosmo_cavitation_energy": 22.32, 
			 "cosmo_dispersion_energy": -16.5, 
			 "cosmo_repulsion_energy": 1.4, 
			 "cosmo_total_nonelectrostatic_energy": 7.22, 
			 "SMD_solvation_energy": 3.97 
		},
		"coords": [
			{
				"x": -0.8787202183,
				"y": 0.0366218571,
				"z": -2.9609602424,
				"element": "C" 
			},
			{
				"x": -2.0099564904,
				"y": -0.6621206186,
				"z": -2.2028455608,
				"element": "C" 
			},
			{
				"x": -1.8513730981,
				"y": -0.6616169345,
				"z": -0.7120908722,
				"element": "C" 
			},
			{
				"x": -0.8432342203,
				"y": -0.1158917588,
				"z": -0.120439203,
				"element": "N" 
			},
			{
				"x": -1.0003399677,
				"y": -0.2903331618,
				"z": 1.2535541666,
				"element": "N" 
			},
			{
				"x": -0.0091557009,
				"y": 0.2258469956,
				"z": 2.1679833502,
				"element": "C" 
			},
			{
				"x": -2.1462322576,
				"y": -0.9733786319,
				"z": 1.6052415583,
				"element": "C" 
			},
			{
				"x": -2.5071953145,
				"y": -1.2505192715,
				"z": 2.7362972594,
				"element": "O" 
			},
			{
				"x": -2.8189989656,
				"y": -1.2794989145,
				"z": 0.2637174447,
				"element": "C" 
			},
			{
				"x": -0.7953113296,
				"y": 1.0847912283,
				"z": -2.6620671792,
				"element": "H" 
			},
			{
				"x": -1.0616794019,
				"y": -0.0032870545,
				"z": -4.0386003779,
				"element": "H" 
			},
			{
				"x": 0.0836883543,
				"y": -0.4390293766,
				"z": -2.7548564264,
				"element": "H" 
			},
			{
				"x": -2.1057138783,
				"y": -1.7048542729,
				"z": -2.5399799657,
				"element": "H" 
			},
			{
				"x": -2.9758820781,
				"y": -0.196238651,
				"z": -2.4479307861,
				"element": "H" 
			},
			{
				"x": 0.0801122575,
				"y": 1.3128886195,
				"z": 2.0740261417,
				"element": "H" 
			},
			{
				"x": -0.3439376452,
				"y": -0.0287589234,
				"z": 3.174905459,
				"element": "H" 
			},
			{
				"x": 0.9692146324,
				"y": -0.2279493076,
				"z": 1.9800389147,
				"element": "H" 
			},
			{
				"x": -3.8203564507,
				"y": -0.8361894853,
				"z": 0.2217956341,
				"element": "H" 
			},
			{
				"x": -2.9410282271,
				"y": -2.3601823377,
				"z": 0.128710685,
				"element": "H" 
			}
		],
		 "valence_orbital": [ 
			{
				"type": "occ",
				"energy": -0.36249,
				"method": "rhf"
			},
			{
				"type": "occ",
				"energy": -0.34003,
				"method": "rhf"
			},
			{
				"type": "occ",
				"energy": -0.30725,
				"method": "rhf"
			},
			{
				"type": "occ",
				"energy": -0.24685,
				"method": "rhf"
			},
			{
				"type": "occ",
				"energy": -0.22369,
				"method": "rhf"
			},
			{
				"type": "unocc",
				"energy": -0.0199,
				"method": "rhf"
			},
			{
				"type": "unocc",
				"energy": 0.0463,
				"method": "rhf"
			},
			{
				"type": "unocc",
				"energy": 0.08689,
				"method": "rhf"
			},
			{
				"type": "unocc",
				"energy": 0.11285,
				"method": "rhf"
			},
			{
				"type": "unocc",
				"energy": 0.12099,
				"method": "rhf"
			}
		],
		"cosmo_sigma_profile": { 
			"-0.025": 0.0,
			"-0.024": 0.0,
			"-0.023": 0.0,
			"-0.022": 0.0,
			"-0.021": 0.0,
			"-0.02": 0.0,
			"-0.019": 0.0,
			"-0.018": 0.0,
			"-0.017": 0.0,
			"-0.016": 0.0,
			"-0.015": 0.0,
			"-0.014": 0.0,
			"-0.013": 0.0,
			"-0.012": 0.0,
			"-0.011": 0.0,
			"-0.01": 0.0,
			"-0.009": 0.0834448056385,
			"-0.008": 3.33780379418,
			"-0.007": 4.77679857997,
			"-0.006": 7.40082414066,
			"-0.005": 15.4246314349,
			"-0.004": 16.3314529888,
			"-0.003": 19.3499756021,
			"-0.002": 21.9257918517,
			"-0.001": 17.8777322058,
			"0.0": 13.6196699993,
			"0.001": 9.67440932573,
			"0.002": 5.56219546259,
			"0.003": 3.63795083368,
			"0.004": 4.14266860214,
			"0.005": 3.82418337283,
			"0.006": 2.01797659947,
			"0.007": 3.24931377029,
			"0.008": 3.19643010697,
			"0.009": 1.90771247044,
			"0.01": 2.38359987284,
			"0.011": 2.47319265055,
			"0.012": 3.05847334315,
			"0.013": 6.95493245062,
			"0.014": 2.98591705015,
			"0.015": 0.245764956459,
			"0.016": 0.0,
			"0.017": 0.0,
			"0.018": 0.0,
			"0.019": 0.0,
			"0.02": 0.0,
			"0.021": 0.0,
			"0.022": 0.0,
			"0.023": 0.0,
			"0.024": 0.0,
			"0.025": 0.0
		}
	}
}
