{
	 "smiles": "CC(C)(C)OC(=O)NCCCN1C=CC2=C1C=CC(=C2)C(O)=O", 
	 "Tm": 446.15, 
	 "num_atms": 45, 
	 "gaussian": { 
		 "optdone": 1, 
		 "sigma_profile": "yes", 
		 "theory": "DFT", 
		 "functional": "B3LYP", 
		 "basiset": "6-31G**", 
		 "properties": { 
			 "R2extent": 7524.4256, 
			 "electric_dipole_moment_norm": 6.99823815542, 
			 "electric_quadrupole_moment_norm": 23.1988684817, 
			 "total_energy": -1071.52673076, 
			 "HOMO_LUMO_gap": 0.18216, 
			 "cosmo_polarized_energy": -24.03, 
			 "cosmo_cavitation_energy": 47.27, 
			 "cosmo_dispersion_energy": -29.65, 
			 "cosmo_repulsion_energy": 2.24, 
			 "cosmo_total_nonelectrostatic_energy": 19.85, 
			 "SMD_solvation_energy": 8.75 
		},
		"coords": [
			{
				"x": 0.4430111431,
				"y": 0.1906681988,
				"z": -3.0299840485,
				"element": "C" 
			},
			{
				"x": -0.8430829097,
				"y": 0.7109104928,
				"z": -2.3828616492,
				"element": "C" 
			},
			{
				"x": -0.56010072,
				"y": 1.9625748934,
				"z": -1.5453240799,
				"element": "C" 
			},
			{
				"x": -1.928656246,
				"y": 0.9498523717,
				"z": -3.4376400099,
				"element": "C" 
			},
			{
				"x": -1.2336679901,
				"y": -0.4079626731,
				"z": -1.5092647778,
				"element": "O" 
			},
			{
				"x": -2.3323088205,
				"y": -0.3299991543,
				"z": -0.7245486331,
				"element": "C" 
			},
			{
				"x": -3.1195321569,
				"y": 0.6032743428,
				"z": -0.6586658023,
				"element": "O" 
			},
			{
				"x": -2.4596856458,
				"y": -1.4870801891,
				"z": -0.0010551905,
				"element": "N" 
			},
			{
				"x": -3.4607467809,
				"y": -1.5817893238,
				"z": 1.0485839029,
				"element": "C" 
			},
			{
				"x": -3.0707658439,
				"y": -0.9108838811,
				"z": 2.3794270804,
				"element": "C" 
			},
			{
				"x": -2.0742688473,
				"y": -1.6939787247,
				"z": 3.2505437522,
				"element": "C" 
			},
			{
				"x": -0.8182589382,
				"y": -2.0358305133,
				"z": 2.5891061036,
				"element": "N" 
			},
			{
				"x": -0.5243204862,
				"y": -3.2697828099,
				"z": 2.0288151117,
				"element": "C" 
			},
			{
				"x": 0.6623403283,
				"y": -3.2136966773,
				"z": 1.3445033138,
				"element": "C" 
			},
			{
				"x": 1.1523251179,
				"y": -1.8716171677,
				"z": 1.4804719144,
				"element": "C" 
			},
			{
				"x": 0.1941828323,
				"y": -1.1590366471,
				"z": 2.2590390499,
				"element": "C" 
			},
			{
				"x": 0.351438435,
				"y": 0.2014488292,
				"z": 2.563746888,
				"element": "C" 
			},
			{
				"x": 1.4840374636,
				"y": 0.8419001589,
				"z": 2.0901141665,
				"element": "C" 
			},
			{
				"x": 2.4648641899,
				"y": 0.1513306717,
				"z": 1.3359118893,
				"element": "C" 
			},
			{
				"x": 2.2953926877,
				"y": -1.1992997584,
				"z": 1.0249997472,
				"element": "C" 
			},
			{
				"x": 3.6404101759,
				"y": 0.9442095185,
				"z": 0.8603319179,
				"element": "C" 
			},
			{
				"x": 4.7576467448,
				"y": 0.2396721457,
				"z": 0.5226814699,
				"element": "O" 
			},
			{
				"x": 3.6412210218,
				"y": 2.1500807347,
				"z": 0.7642045151,
				"element": "O" 
			},
			{
				"x": 0.8476541989,
				"y": 0.9394890188,
				"z": -3.7171839107,
				"element": "H" 
			},
			{
				"x": 1.1969576522,
				"y": -0.0221860167,
				"z": -2.2668002747,
				"element": "H" 
			},
			{
				"x": 0.248740257,
				"y": -0.7278662333,
				"z": -3.5918301653,
				"element": "H" 
			},
			{
				"x": -0.1572976656,
				"y": 2.7503768279,
				"z": -2.190078068,
				"element": "H" 
			},
			{
				"x": 0.1838784113,
				"y": 1.7455739579,
				"z": -0.7727906255,
				"element": "H" 
			},
			{
				"x": -1.4706751132,
				"y": 2.3284906162,
				"z": -1.0701684714,
				"element": "H" 
			},
			{
				"x": -1.5881180136,
				"y": 1.7070378569,
				"z": -4.1514826846,
				"element": "H" 
			},
			{
				"x": -2.8532305058,
				"y": 1.2936075082,
				"z": -2.9728748494,
				"element": "H" 
			},
			{
				"x": -2.1306695021,
				"y": 0.0272220876,
				"z": -3.9912663665,
				"element": "H" 
			},
			{
				"x": -1.6706819035,
				"y": -2.1184223049,
				"z": -0.003342662,
				"element": "H" 
			},
			{
				"x": -4.3630179571,
				"y": -1.0969632276,
				"z": 0.6690193436,
				"element": "H" 
			},
			{
				"x": -3.6964380173,
				"y": -2.6415671453,
				"z": 1.2039936156,
				"element": "H" 
			},
			{
				"x": -2.686858312,
				"y": 0.0896719866,
				"z": 2.1568826822,
				"element": "H" 
			},
			{
				"x": -3.9775612516,
				"y": -0.7700811535,
				"z": 2.9817967748,
				"element": "H" 
			},
			{
				"x": -2.5241373051,
				"y": -2.6376016356,
				"z": 3.5768101883,
				"element": "H" 
			},
			{
				"x": -1.8439795918,
				"y": -1.1240830969,
				"z": 4.1578249945,
				"element": "H" 
			},
			{
				"x": -1.194465552,
				"y": -4.1038731833,
				"z": 2.185959416,
				"element": "H" 
			},
			{
				"x": 1.1413707881,
				"y": -4.0352078849,
				"z": 0.8312913789,
				"element": "H" 
			},
			{
				"x": -0.3868060698,
				"y": 0.7429452328,
				"z": 3.1462412933,
				"element": "H" 
			},
			{
				"x": 1.6483152506,
				"y": 1.8952498541,
				"z": 2.2871506714,
				"element": "H" 
			},
			{
				"x": 3.0094233459,
				"y": -1.7289541055,
				"z": 0.3983601747,
				"element": "H" 
			},
			{
				"x": 4.6682221016,
				"y": -0.675923798,
				"z": 0.8208509131,
				"element": "H" 
			}
		],
		 "valence_orbital": [ 
			{
				"type": "occ",
				"energy": -0.26604,
				"method": "rhf"
			},
			{
				"type": "occ",
				"energy": -0.26034,
				"method": "rhf"
			},
			{
				"type": "occ",
				"energy": -0.24823,
				"method": "rhf"
			},
			{
				"type": "occ",
				"energy": -0.23916,
				"method": "rhf"
			},
			{
				"type": "occ",
				"energy": -0.22342,
				"method": "rhf"
			},
			{
				"type": "unocc",
				"energy": -0.04126,
				"method": "rhf"
			},
			{
				"type": "unocc",
				"energy": -0.02095,
				"method": "rhf"
			},
			{
				"type": "unocc",
				"energy": 0.04249,
				"method": "rhf"
			},
			{
				"type": "unocc",
				"energy": 0.05605,
				"method": "rhf"
			},
			{
				"type": "unocc",
				"energy": 0.06189,
				"method": "rhf"
			}
		],
		"cosmo_sigma_profile": { 
			"-0.025": 0.0,
			"-0.024": 0.0,
			"-0.023": 0.0,
			"-0.022": 0.0,
			"-0.021": 0.0,
			"-0.02": 0.0,
			"-0.019": 0.0175776895635,
			"-0.018": 0.615207223668,
			"-0.017": 0.704696783094,
			"-0.016": 0.978384057881,
			"-0.015": 0.854934203716,
			"-0.014": 0.412239620098,
			"-0.013": 1.70533980329,
			"-0.012": 0.830012684574,
			"-0.011": 1.17981853874,
			"-0.01": 0.973675045995,
			"-0.009": 2.29378580065,
			"-0.008": 5.1977906334,
			"-0.007": 9.47054137668,
			"-0.006": 17.1664408959,
			"-0.005": 18.8121872548,
			"-0.004": 31.6805808401,
			"-0.003": 30.2364321105,
			"-0.002": 27.4282736411,
			"-0.001": 31.0682091945,
			"0.0": 36.4361854391,
			"0.001": 36.707345439,
			"0.002": 21.3917236864,
			"0.003": 17.7788723251,
			"0.004": 17.4190327428,
			"0.005": 10.8494543228,
			"0.006": 7.79722886464,
			"0.007": 5.67623881738,
			"0.008": 4.29267523215,
			"0.009": 4.89935744653,
			"0.01": 5.73009198987,
			"0.011": 6.5309835957,
			"0.012": 6.75739955367,
			"0.013": 6.10672360173,
			"0.014": 1.91439739776,
			"0.015": 0.0,
			"0.016": 0.0,
			"0.017": 0.0,
			"0.018": 0.0,
			"0.019": 0.0,
			"0.02": 0.0,
			"0.021": 0.0,
			"0.022": 0.0,
			"0.023": 0.0,
			"0.024": 0.0,
			"0.025": 0.0
		}
	}
}
