{
	 "smiles": "COCN1CCOCCOCCN(COC)CCOCCOCC1", 
	 "Tm": 308.65, 
	 "num_atms": 58, 
	 "gaussian": { 
		 "optdone": 1, 
		 "sigma_profile": "yes", 
		 "theory": "DFT", 
		 "functional": "B3LYP", 
		 "basiset": "6-31G**", 
		 "properties": { 
			 "R2extent": 8637.7383, 
			 "electric_dipole_moment_norm": 1.28020365958, 
			 "electric_quadrupole_moment_norm": 18.3780853135, 
			 "total_energy": -1190.92034527, 
			 "HOMO_LUMO_gap": 0.28486, 
			 "cosmo_polarized_energy": -18.02, 
			 "cosmo_cavitation_energy": 53.49, 
			 "cosmo_dispersion_energy": -33.33, 
			 "cosmo_repulsion_energy": 2.5, 
			 "cosmo_total_nonelectrostatic_energy": 22.66, 
			 "SMD_solvation_energy": 8.9 
		},
		"coords": [
			{
				"x": 0.9848499606,
				"y": -0.8878047254,
				"z": -4.690978261,
				"element": "C" 
			},
			{
				"x": 0.6944112585,
				"y": -0.1102394564,
				"z": -3.5470343907,
				"element": "O" 
			},
			{
				"x": 1.6514863001,
				"y": 0.912931419,
				"z": -3.3234959415,
				"element": "C" 
			},
			{
				"x": 1.2133887585,
				"y": 1.7198694509,
				"z": -2.2170635405,
				"element": "N" 
			},
			{
				"x": 0.1181791664,
				"y": 2.6222981957,
				"z": -2.5909793722,
				"element": "C" 
			},
			{
				"x": -0.8375801523,
				"y": 2.9487196338,
				"z": -1.4515831795,
				"element": "C" 
			},
			{
				"x": -0.216075015,
				"y": 3.8739981832,
				"z": -0.5618115028,
				"element": "O" 
			},
			{
				"x": -0.9419829902,
				"y": 4.1501175281,
				"z": 0.6219214691,
				"element": "C" 
			},
			{
				"x": -0.8679440232,
				"y": 3.0584094857,
				"z": 1.6843711442,
				"element": "C" 
			},
			{
				"x": -1.798961785,
				"y": 2.0244407297,
				"z": 1.389634173,
				"element": "O" 
			},
			{
				"x": -1.8521826811,
				"y": 1.0328271151,
				"z": 2.3980206405,
				"element": "C" 
			},
			{
				"x": -2.8912487259,
				"y": -0.0209310689,
				"z": 2.0205117753,
				"element": "C" 
			},
			{
				"x": -2.5532748001,
				"y": -0.8655571332,
				"z": 0.8693435032,
				"element": "N" 
			},
			{
				"x": -3.6857194296,
				"y": -0.9923311221,
				"z": -0.0559991865,
				"element": "C" 
			},
			{
				"x": -3.3465144424,
				"y": -1.6049908757,
				"z": -1.2681950808,
				"element": "O" 
			},
			{
				"x": -2.5054641346,
				"y": -0.823476779,
				"z": -2.1092500606,
				"element": "C" 
			},
			{
				"x": -2.0116174202,
				"y": -2.1826461003,
				"z": 1.2268788791,
				"element": "C" 
			},
			{
				"x": -0.5289356199,
				"y": -2.2161175796,
				"z": 1.6172334306,
				"element": "C" 
			},
			{
				"x": 0.3562653986,
				"y": -2.0628923848,
				"z": 0.5205618518,
				"element": "O" 
			},
			{
				"x": 0.6736627421,
				"y": -0.7189976761,
				"z": 0.1539654836,
				"element": "C" 
			},
			{
				"x": 1.8971163092,
				"y": -0.2208068872,
				"z": 0.9306195239,
				"element": "C" 
			},
			{
				"x": 2.1886160248,
				"y": 1.1427155098,
				"z": 0.6519929926,
				"element": "O" 
			},
			{
				"x": 3.00136386,
				"y": 1.3983889989,
				"z": -0.485949115,
				"element": "C" 
			},
			{
				"x": 2.3147955844,
				"y": 2.342438707,
				"z": -1.475438072,
				"element": "C" 
			},
			{
				"x": 1.9514257911,
				"y": -1.4077860857,
				"z": -4.5996744624,
				"element": "H" 
			},
			{
				"x": 1.0087222961,
				"y": -0.2778163113,
				"z": -5.6079072721,
				"element": "H" 
			},
			{
				"x": 0.1934770228,
				"y": -1.634661457,
				"z": -4.7828993395,
				"element": "H" 
			},
			{
				"x": 2.6304535557,
				"y": 0.4706045214,
				"z": -3.0843081095,
				"element": "H" 
			},
			{
				"x": 1.7756848149,
				"y": 1.4980493471,
				"z": -4.2621240439,
				"element": "H" 
			},
			{
				"x": -0.4674650567,
				"y": 2.1071843438,
				"z": -3.3582343058,
				"element": "H" 
			},
			{
				"x": 0.4894612619,
				"y": 3.5647894539,
				"z": -3.0330209695,
				"element": "H" 
			},
			{
				"x": -1.1219163472,
				"y": 2.0299666542,
				"z": -0.929805933,
				"element": "H" 
			},
			{
				"x": -1.7521386589,
				"y": 3.4046744939,
				"z": -1.8691366947,
				"element": "H" 
			},
			{
				"x": -0.4934323071,
				"y": 5.0607937235,
				"z": 1.0343414744,
				"element": "H" 
			},
			{
				"x": -1.9995765483,
				"y": 4.3629775404,
				"z": 0.3974888582,
				"element": "H" 
			},
			{
				"x": -1.1064386058,
				"y": 3.5044745756,
				"z": 2.6663912191,
				"element": "H" 
			},
			{
				"x": 0.1569760414,
				"y": 2.6603630622,
				"z": 1.7244820891,
				"element": "H" 
			},
			{
				"x": -0.8605141127,
				"y": 0.5825458327,
				"z": 2.5487516474,
				"element": "H" 
			},
			{
				"x": -2.1507160481,
				"y": 1.4882986453,
				"z": 3.3595097618,
				"element": "H" 
			},
			{
				"x": -3.09287196,
				"y": -0.6358483402,
				"z": 2.9146416955,
				"element": "H" 
			},
			{
				"x": -3.8194794076,
				"y": 0.5225566084,
				"z": 1.8069794482,
				"element": "H" 
			},
			{
				"x": -4.4942549371,
				"y": -1.6215432475,
				"z": 0.358234136,
				"element": "H" 
			},
			{
				"x": -4.0807567573,
				"y": 0.0210487921,
				"z": -0.2253574499,
				"element": "H" 
			},
			{
				"x": -2.4371265024,
				"y": -1.3555189599,
				"z": -3.0608594826,
				"element": "H" 
			},
			{
				"x": -1.501721435,
				"y": -0.6978815779,
				"z": -1.696839562,
				"element": "H" 
			},
			{
				"x": -2.9433082884,
				"y": 0.1704800296,
				"z": -2.288673926,
				"element": "H" 
			},
			{
				"x": -2.126465232,
				"y": -2.8281643828,
				"z": 0.3522001136,
				"element": "H" 
			},
			{
				"x": -2.5921889012,
				"y": -2.6372995244,
				"z": 2.0557860384,
				"element": "H" 
			},
			{
				"x": -0.3233456906,
				"y": -3.211111547,
				"z": 2.0314816046,
				"element": "H" 
			},
			{
				"x": -0.3117238295,
				"y": -1.4914811594,
				"z": 2.4154665087,
				"element": "H" 
			},
			{
				"x": -0.1715168741,
				"y": -0.0454665664,
				"z": 0.3184235122,
				"element": "H" 
			},
			{
				"x": 0.8783878814,
				"y": -0.7238883133,
				"z": -0.9195591222,
				"element": "H" 
			},
			{
				"x": 1.7054196934,
				"y": -0.2776581705,
				"z": 2.0088893204,
				"element": "H" 
			},
			{
				"x": 2.7636161536,
				"y": -0.8660446061,
				"z": 0.7230655883,
				"element": "H" 
			},
			{
				"x": 3.9311482766,
				"y": 1.8801754475,
				"z": -0.1461390265,
				"element": "H" 
			},
			{
				"x": 3.287693691,
				"y": 0.456650362,
				"z": -0.9741629601,
				"element": "H" 
			},
			{
				"x": 1.9015661795,
				"y": 3.1776308593,
				"z": -0.9094948342,
				"element": "H" 
			},
			{
				"x": 3.0873906966,
				"y": 2.7584427885,
				"z": -2.1509126854,
				"element": "H" 
			}
		],
		 "valence_orbital": [ 
			{
				"type": "occ",
				"energy": -0.25165,
				"method": "rhf"
			},
			{
				"type": "occ",
				"energy": -0.24362,
				"method": "rhf"
			},
			{
				"type": "occ",
				"energy": -0.22833,
				"method": "rhf"
			},
			{
				"type": "occ",
				"energy": -0.21344,
				"method": "rhf"
			},
			{
				"type": "occ",
				"energy": -0.2078,
				"method": "rhf"
			},
			{
				"type": "unocc",
				"energy": 0.07706,
				"method": "rhf"
			},
			{
				"type": "unocc",
				"energy": 0.08191,
				"method": "rhf"
			},
			{
				"type": "unocc",
				"energy": 0.08966,
				"method": "rhf"
			},
			{
				"type": "unocc",
				"energy": 0.09619,
				"method": "rhf"
			},
			{
				"type": "unocc",
				"energy": 0.10577,
				"method": "rhf"
			}
		],
		"cosmo_sigma_profile": { 
			"-0.025": 0.0,
			"-0.024": 0.0,
			"-0.023": 0.0,
			"-0.022": 0.0,
			"-0.021": 0.0,
			"-0.02": 0.0,
			"-0.019": 0.0,
			"-0.018": 0.0,
			"-0.017": 0.0,
			"-0.016": 0.0,
			"-0.015": 0.0,
			"-0.014": 0.0,
			"-0.013": 0.0,
			"-0.012": 0.0,
			"-0.011": 0.0,
			"-0.01": 0.0,
			"-0.009": 0.0,
			"-0.008": 0.0,
			"-0.007": 0.0807725370893,
			"-0.006": 2.56353752027,
			"-0.005": 17.3984928758,
			"-0.004": 48.8155221787,
			"-0.003": 79.9612979246,
			"-0.002": 69.4188936683,
			"-0.001": 40.9033677667,
			"0.0": 23.1104641591,
			"0.001": 15.0517099075,
			"0.002": 14.7180700906,
			"0.003": 15.4476775917,
			"0.004": 13.7916132846,
			"0.005": 13.7000293279,
			"0.006": 13.8541505774,
			"0.007": 11.3689118578,
			"0.008": 9.0189344504,
			"0.009": 6.68103153878,
			"0.01": 4.68721324989,
			"0.011": 3.98567337094,
			"0.012": 3.44471706287,
			"0.013": 3.20446962952,
			"0.014": 1.43193657282,
			"0.015": 0.0299921926976,
			"0.016": 0.0,
			"0.017": 0.0,
			"0.018": 0.0,
			"0.019": 0.0,
			"0.02": 0.0,
			"0.021": 0.0,
			"0.022": 0.0,
			"0.023": 0.0,
			"0.024": 0.0,
			"0.025": 0.0
		}
	}
}
