{
	 "smiles": "COC(=O)C1=C(CBr)C2=C(O1)C=CC=C2", 
	 "Tm": 378.15, 
	 "num_atms": 24, 
	 "gaussian": { 
		 "optdone": 1, 
		 "sigma_profile": "yes", 
		 "theory": "DFT", 
		 "functional": "B3LYP", 
		 "basiset": "6-31G**", 
		 "properties": { 
			 "R2extent": 5977.2171, 
			 "electric_dipole_moment_norm": 2.82679915983, 
			 "electric_quadrupole_moment_norm": 14.4682669394, 
			 "total_energy": -3221.67437654, 
			 "HOMO_LUMO_gap": 0.16704, 
			 "cosmo_polarized_energy": -9.59, 
			 "cosmo_cavitation_energy": 31.19, 
			 "cosmo_dispersion_energy": -22.85, 
			 "cosmo_repulsion_energy": 1.8, 
			 "cosmo_total_nonelectrostatic_energy": 10.14, 
			 "SMD_solvation_energy": 5.98 
		},
		"coords": [
			{
				"x": -0.349130843,
				"y": -3.2557446867,
				"z": -2.577652657,
				"element": "C" 
			},
			{
				"x": -0.0275205668,
				"y": -1.8905143989,
				"z": -2.2613067818,
				"element": "O" 
			},
			{
				"x": -1.0693105575,
				"y": -1.1365930168,
				"z": -1.8694324658,
				"element": "C" 
			},
			{
				"x": -2.2143759337,
				"y": -1.544768205,
				"z": -1.7795875227,
				"element": "O" 
			},
			{
				"x": -0.6715414078,
				"y": 0.2455311386,
				"z": -1.5590121107,
				"element": "C" 
			},
			{
				"x": -1.4255919814,
				"y": 1.2965151972,
				"z": -1.0954837559,
				"element": "C" 
			},
			{
				"x": -2.87833542,
				"y": 1.294473743,
				"z": -0.8040028369,
				"element": "C" 
			},
			{
				"x": -3.2397851401,
				"y": 1.516912739,
				"z": 1.1551173639,
				"element": "Br" 
			},
			{
				"x": -0.5131626635,
				"y": 2.4091010169,
				"z": -0.9864977101,
				"element": "C" 
			},
			{
				"x": 0.7352744129,
				"y": 1.919983133,
				"z": -1.4097338995,
				"element": "C" 
			},
			{
				"x": 0.6406114549,
				"y": 0.6035510115,
				"z": -1.7578914845,
				"element": "O" 
			},
			{
				"x": 1.88964996,
				"y": 2.6952058752,
				"z": -1.4584271013,
				"element": "C" 
			},
			{
				"x": 1.7571442649,
				"y": 4.0212178781,
				"z": -1.0547795166,
				"element": "C" 
			},
			{
				"x": 0.5198503996,
				"y": 4.5399720075,
				"z": -0.6191163383,
				"element": "C" 
			},
			{
				"x": -0.6214591944,
				"y": 3.7484477014,
				"z": -0.5764431849,
				"element": "C" 
			},
			{
				"x": 0.5943753297,
				"y": -3.7159602607,
				"z": -2.8689663348,
				"element": "H" 
			},
			{
				"x": -0.7728855562,
				"y": -3.7618125504,
				"z": -1.7068447255,
				"element": "H" 
			},
			{
				"x": -1.0697552229,
				"y": -3.3004923119,
				"z": -3.3979595516,
				"element": "H" 
			},
			{
				"x": -3.3456357651,
				"y": 0.3545156497,
				"z": -1.0801043222,
				"element": "H" 
			},
			{
				"x": -3.389569353,
				"y": 2.1410905023,
				"z": -1.2605812386,
				"element": "H" 
			},
			{
				"x": 2.8344815742,
				"y": 2.280902814,
				"z": -1.7917997054,
				"element": "H" 
			},
			{
				"x": 2.6275081128,
				"y": 4.6700930371,
				"z": -1.0724389374,
				"element": "H" 
			},
			{
				"x": 0.4634926886,
				"y": 5.5781630174,
				"z": -0.3066889452,
				"element": "H" 
			},
			{
				"x": -1.5669285924,
				"y": 4.1469089686,
				"z": -0.2233662373,
				"element": "H" 
			}
		],
		 "valence_orbital": [ 
			{
				"type": "occ",
				"energy": -0.28941,
				"method": "rhf"
			},
			{
				"type": "occ",
				"energy": -0.27117,
				"method": "rhf"
			},
			{
				"type": "occ",
				"energy": -0.26781,
				"method": "rhf"
			},
			{
				"type": "occ",
				"energy": -0.2506,
				"method": "rhf"
			},
			{
				"type": "occ",
				"energy": -0.2365,
				"method": "rhf"
			},
			{
				"type": "unocc",
				"energy": -0.06946,
				"method": "rhf"
			},
			{
				"type": "unocc",
				"energy": -0.01256,
				"method": "rhf"
			},
			{
				"type": "unocc",
				"energy": -0.00129,
				"method": "rhf"
			},
			{
				"type": "unocc",
				"energy": 0.02562,
				"method": "rhf"
			},
			{
				"type": "unocc",
				"energy": 0.08609,
				"method": "rhf"
			}
		],
		"cosmo_sigma_profile": { 
			"-0.025": 0.0,
			"-0.024": 0.0,
			"-0.023": 0.0,
			"-0.022": 0.0,
			"-0.021": 0.0,
			"-0.02": 0.0,
			"-0.019": 0.0,
			"-0.018": 0.0,
			"-0.017": 0.0,
			"-0.016": 0.0,
			"-0.015": 0.0,
			"-0.014": 0.0,
			"-0.013": 0.0,
			"-0.012": 0.0,
			"-0.011": 0.0,
			"-0.01": 0.0,
			"-0.009": 0.38307194632,
			"-0.008": 2.80707999389,
			"-0.007": 7.49613270754,
			"-0.006": 16.8836715409,
			"-0.005": 20.0185077704,
			"-0.004": 22.1085824411,
			"-0.003": 19.3507282007,
			"-0.002": 16.8222924432,
			"-0.001": 16.2765627906,
			"0.0": 17.5917780362,
			"0.001": 17.4526122266,
			"0.002": 16.1606611125,
			"0.003": 18.3576790879,
			"0.004": 19.8125437207,
			"0.005": 13.1797728564,
			"0.006": 11.3805430197,
			"0.007": 3.31291602271,
			"0.008": 3.16800531508,
			"0.009": 3.4438559508,
			"0.01": 3.72757273857,
			"0.011": 2.93971925553,
			"0.012": 0.770537059678,
			"0.013": 0.0,
			"0.014": 0.0,
			"0.015": 0.0,
			"0.016": 0.0,
			"0.017": 0.0,
			"0.018": 0.0,
			"0.019": 0.0,
			"0.02": 0.0,
			"0.021": 0.0,
			"0.022": 0.0,
			"0.023": 0.0,
			"0.024": 0.0,
			"0.025": 0.0
		}
	}
}
