{
	 "smiles": "O=C(CC1CCCC1)N1CCNCC1", 
	 "Tm": 311.15, 
	 "num_atms": 34, 
	 "gaussian": { 
		 "optdone": 1, 
		 "sigma_profile": "yes", 
		 "theory": "DFT", 
		 "functional": "B3LYP", 
		 "basiset": "6-31G**", 
		 "properties": { 
			 "R2extent": 5254.0862, 
			 "electric_dipole_moment_norm": 2.8272775527, 
			 "electric_quadrupole_moment_norm": 5.72073868919, 
			 "total_energy": -615.960955959, 
			 "HOMO_LUMO_gap": 0.25276, 
			 "cosmo_polarized_energy": -11.76, 
			 "cosmo_cavitation_energy": 33.18, 
			 "cosmo_dispersion_energy": -24.48, 
			 "cosmo_repulsion_energy": 1.95, 
			 "cosmo_total_nonelectrostatic_energy": 10.65, 
			 "SMD_solvation_energy": 1.86 
		},
		"coords": [
			{
				"x": 0.2578048214,
				"y": 0.2589133787,
				"z": 0.4667518244,
				"element": "O" 
			},
			{
				"x": -0.3097319045,
				"y": -0.7750212974,
				"z": 0.8137797446,
				"element": "C" 
			},
			{
				"x": -1.7335406785,
				"y": -1.1022950509,
				"z": 0.3598812692,
				"element": "C" 
			},
			{
				"x": -2.3488641154,
				"y": -0.0215124564,
				"z": -0.5298110593,
				"element": "C" 
			},
			{
				"x": -3.691127627,
				"y": -0.4345542943,
				"z": -1.1649041114,
				"element": "C" 
			},
			{
				"x": -4.3303847363,
				"y": 0.8923412781,
				"z": -1.6427622068,
				"element": "C" 
			},
			{
				"x": -3.6496271373,
				"y": 2.0174105196,
				"z": -0.8032856632,
				"element": "C" 
			},
			{
				"x": -2.7120429833,
				"y": 1.2924250835,
				"z": 0.1861967118,
				"element": "C" 
			},
			{
				"x": 0.3069111085,
				"y": -1.702311296,
				"z": 1.6235875785,
				"element": "N" 
			},
			{
				"x": -0.2838863547,
				"y": -2.9877670216,
				"z": 2.0084648088,
				"element": "C" 
			},
			{
				"x": 0.4913974682,
				"y": -3.5786218511,
				"z": 3.2091498159,
				"element": "C" 
			},
			{
				"x": 0.8934195846,
				"y": -2.5669055985,
				"z": 4.1791144296,
				"element": "N" 
			},
			{
				"x": 1.8073608296,
				"y": -1.5732454276,
				"z": 3.5828718617,
				"element": "C" 
			},
			{
				"x": 1.6892455349,
				"y": -1.4810939856,
				"z": 2.0449609849,
				"element": "C" 
			},
			{
				"x": -1.7163470221,
				"y": -2.064974382,
				"z": -0.1706979531,
				"element": "H" 
			},
			{
				"x": -2.3725292879,
				"y": -1.2631309837,
				"z": 1.2398798122,
				"element": "H" 
			},
			{
				"x": -1.6310461626,
				"y": 0.213794521,
				"z": -1.3261239284,
				"element": "H" 
			},
			{
				"x": -3.5744234337,
				"y": -1.1664530721,
				"z": -1.9719440668,
				"element": "H" 
			},
			{
				"x": -4.3236733983,
				"y": -0.9033251368,
				"z": -0.3982738945,
				"element": "H" 
			},
			{
				"x": -5.4174317335,
				"y": 0.8820593542,
				"z": -1.5156848573,
				"element": "H" 
			},
			{
				"x": -4.1435805074,
				"y": 1.0463444495,
				"z": -2.7107240715,
				"element": "H" 
			},
			{
				"x": -3.0669050971,
				"y": 2.6750473077,
				"z": -1.4573745668,
				"element": "H" 
			},
			{
				"x": -4.3780336038,
				"y": 2.6529163258,
				"z": -0.2900024111,
				"element": "H" 
			},
			{
				"x": -1.828563287,
				"y": 1.8740611047,
				"z": 0.4563305808,
				"element": "H" 
			},
			{
				"x": -3.2524433488,
				"y": 1.056714098,
				"z": 1.1148325267,
				"element": "H" 
			},
			{
				"x": -0.2875859395,
				"y": -3.7019393645,
				"z": 1.1689254993,
				"element": "H" 
			},
			{
				"x": -1.3275861611,
				"y": -2.8334797942,
				"z": 2.3030326267,
				"element": "H" 
			},
			{
				"x": -0.1311782078,
				"y": -4.3338644841,
				"z": 3.7000512557,
				"element": "H" 
			},
			{
				"x": 1.3925483851,
				"y": -4.0975048997,
				"z": 2.8620596423,
				"element": "H" 
			},
			{
				"x": 0.0618893176,
				"y": -2.0923248938,
				"z": 4.5196171881,
				"element": "H" 
			},
			{
				"x": 2.8453793252,
				"y": -1.8260368627,
				"z": 3.8400423739,
				"element": "H" 
			},
			{
				"x": 1.5952156868,
				"y": -0.5991127525,
				"z": 4.0344631954,
				"element": "H" 
			},
			{
				"x": 2.3396662076,
				"y": -2.2273842895,
				"z": 1.5676086501,
				"element": "H" 
			},
			{
				"x": 1.9880944579,
				"y": -0.500268226,
				"z": 1.6759864095,
				"element": "H" 
			}
		],
		 "valence_orbital": [ 
			{
				"type": "occ",
				"energy": -0.30787,
				"method": "rhf"
			},
			{
				"type": "occ",
				"energy": -0.30555,
				"method": "rhf"
			},
			{
				"type": "occ",
				"energy": -0.2417,
				"method": "rhf"
			},
			{
				"type": "occ",
				"energy": -0.23849,
				"method": "rhf"
			},
			{
				"type": "occ",
				"energy": -0.22142,
				"method": "rhf"
			},
			{
				"type": "unocc",
				"energy": 0.03134,
				"method": "rhf"
			},
			{
				"type": "unocc",
				"energy": 0.06684,
				"method": "rhf"
			},
			{
				"type": "unocc",
				"energy": 0.08864,
				"method": "rhf"
			},
			{
				"type": "unocc",
				"energy": 0.10031,
				"method": "rhf"
			},
			{
				"type": "unocc",
				"energy": 0.1019,
				"method": "rhf"
			}
		],
		"cosmo_sigma_profile": { 
			"-0.025": 0.0,
			"-0.024": 0.0,
			"-0.023": 0.0,
			"-0.022": 0.0,
			"-0.021": 0.0,
			"-0.02": 0.0,
			"-0.019": 0.0,
			"-0.018": 0.0,
			"-0.017": 0.0,
			"-0.016": 0.0,
			"-0.015": 0.0,
			"-0.014": 0.0,
			"-0.013": 0.0,
			"-0.012": 0.0,
			"-0.011": 0.0170526947658,
			"-0.01": 0.985233457577,
			"-0.009": 1.52078988231,
			"-0.008": 1.01389039122,
			"-0.007": 1.88993058383,
			"-0.006": 3.18961805918,
			"-0.005": 11.3741364734,
			"-0.004": 24.5631530968,
			"-0.003": 27.6629333776,
			"-0.002": 35.8258462746,
			"-0.001": 37.036825794,
			"0.0": 32.276460752,
			"0.001": 21.3658221514,
			"0.002": 17.4409300883,
			"0.003": 4.69719939878,
			"0.004": 3.70837112746,
			"0.005": 2.61770541222,
			"0.006": 3.15545865536,
			"0.007": 1.95009995458,
			"0.008": 2.51654771719,
			"0.009": 2.69004068872,
			"0.01": 1.8394391622,
			"0.011": 3.10902582993,
			"0.012": 2.25946264649,
			"0.013": 2.50714520205,
			"0.014": 4.76940474621,
			"0.015": 2.04276155745,
			"0.016": 0.195060096648,
			"0.017": 0.912878627193,
			"0.018": 0.432084536178,
			"0.019": 0.0496469894325,
			"0.02": 0.0,
			"0.021": 0.0,
			"0.022": 0.0,
			"0.023": 0.0,
			"0.024": 0.0,
			"0.025": 0.0
		}
	}
}
