{
	 "smiles": "CC1=CC(C)=C(C=C1)C(N)=S", 
	 "Tm": 334.15, 
	 "num_atms": 22, 
	 "gaussian": { 
		 "optdone": 1, 
		 "sigma_profile": "yes", 
		 "theory": "DFT", 
		 "functional": "B3LYP", 
		 "basiset": "6-31G**", 
		 "properties": { 
			 "R2extent": 2975.4578, 
			 "electric_dipole_moment_norm": 4.87917357551, 
			 "electric_quadrupole_moment_norm": 19.6310032795, 
			 "total_energy": -802.546836471, 
			 "HOMO_LUMO_gap": 0.15417, 
			 "cosmo_polarized_energy": -15.23, 
			 "cosmo_cavitation_energy": 26.77, 
			 "cosmo_dispersion_energy": -19.79, 
			 "cosmo_repulsion_energy": 1.56, 
			 "cosmo_total_nonelectrostatic_energy": 8.53, 
			 "SMD_solvation_energy": 3.73 
		},
		"coords": [
			{
				"x": -1.0151627623,
				"y": -1.7505344569,
				"z": -2.3805433763,
				"element": "C" 
			},
			{
				"x": -0.9948048948,
				"y": -1.0743833856,
				"z": -1.0308480655,
				"element": "C" 
			},
			{
				"x": -0.8859665333,
				"y": 0.3134801772,
				"z": -0.9169744942,
				"element": "C" 
			},
			{
				"x": -0.8818178629,
				"y": 0.97964659,
				"z": 0.3171017555,
				"element": "C" 
			},
			{
				"x": -0.7155385009,
				"y": 2.4862432552,
				"z": 0.3204476983,
				"element": "C" 
			},
			{
				"x": -0.9777241572,
				"y": 0.2026432883,
				"z": 1.4939229813,
				"element": "C" 
			},
			{
				"x": -1.0505977396,
				"y": -1.1968042778,
				"z": 1.3876424348,
				"element": "C" 
			},
			{
				"x": -1.0741679394,
				"y": -1.8252519748,
				"z": 0.1506751428,
				"element": "C" 
			},
			{
				"x": -0.9847687382,
				"y": 0.7993927792,
				"z": 2.8629597686,
				"element": "C" 
			},
			{
				"x": -1.8468784939,
				"y": 1.8237477902,
				"z": 3.0429750106,
				"element": "N" 
			},
			{
				"x": -0.0073172665,
				"y": 0.2556931183,
				"z": 4.1012746656,
				"element": "S" 
			},
			{
				"x": -0.2455355993,
				"y": -2.5274790813,
				"z": -2.4475953553,
				"element": "H" 
			},
			{
				"x": -1.9796628922,
				"y": -2.238824184,
				"z": -2.5643024076,
				"element": "H" 
			},
			{
				"x": -0.8440182356,
				"y": -1.0363249083,
				"z": -3.190464625,
				"element": "H" 
			},
			{
				"x": -0.7878939735,
				"y": 0.9073156236,
				"z": -1.8233417516,
				"element": "H" 
			},
			{
				"x": -0.2142036466,
				"y": 2.809396691,
				"z": -0.5959573969,
				"element": "H" 
			},
			{
				"x": -0.1251427506,
				"y": 2.8343907874,
				"z": 1.1711292496,
				"element": "H" 
			},
			{
				"x": -1.677824628,
				"y": 3.0136255515,
				"z": 0.3547571085,
				"element": "H" 
			},
			{
				"x": -1.0885596728,
				"y": -1.781121584,
				"z": 2.3007060728,
				"element": "H" 
			},
			{
				"x": -1.1438468068,
				"y": -2.9088857955,
				"z": 0.1001169519,
				"element": "H" 
			},
			{
				"x": -1.9085468786,
				"y": 2.249208569,
				"z": 3.9567931433,
				"element": "H" 
			},
			{
				"x": -2.5351200272,
				"y": 2.0617254272,
				"z": 2.3447254888,
				"element": "H" 
			}
		],
		 "valence_orbital": [ 
			{
				"type": "occ",
				"energy": -0.3363,
				"method": "rhf"
			},
			{
				"type": "occ",
				"energy": -0.25292,
				"method": "rhf"
			},
			{
				"type": "occ",
				"energy": -0.24703,
				"method": "rhf"
			},
			{
				"type": "occ",
				"energy": -0.22594,
				"method": "rhf"
			},
			{
				"type": "occ",
				"energy": -0.20122,
				"method": "rhf"
			},
			{
				"type": "unocc",
				"energy": -0.04705,
				"method": "rhf"
			},
			{
				"type": "unocc",
				"energy": -0.00547,
				"method": "rhf"
			},
			{
				"type": "unocc",
				"energy": 0.01234,
				"method": "rhf"
			},
			{
				"type": "unocc",
				"energy": 0.0662,
				"method": "rhf"
			},
			{
				"type": "unocc",
				"energy": 0.09479,
				"method": "rhf"
			}
		],
		"cosmo_sigma_profile": { 
			"-0.025": 0.0,
			"-0.024": 0.0,
			"-0.023": 0.0,
			"-0.022": 0.0,
			"-0.021": 0.0,
			"-0.02": 0.0,
			"-0.019": 0.0,
			"-0.018": 0.0,
			"-0.017": 0.0,
			"-0.016": 0.0476647722605,
			"-0.015": 1.58500282717,
			"-0.014": 2.59613772319,
			"-0.013": 1.75437000329,
			"-0.012": 2.69365671394,
			"-0.011": 2.29829069863,
			"-0.01": 2.34882742662,
			"-0.009": 1.78244384242,
			"-0.008": 1.98181284459,
			"-0.007": 2.03932043821,
			"-0.006": 3.00902301492,
			"-0.005": 10.4849416696,
			"-0.004": 18.4189335486,
			"-0.003": 17.0223888363,
			"-0.002": 18.7410512073,
			"-0.001": 20.0621115484,
			"0.0": 21.0128311357,
			"0.001": 12.4716817498,
			"0.002": 9.3729926946,
			"0.003": 8.22150240928,
			"0.004": 9.66560240539,
			"0.005": 12.4988810212,
			"0.006": 4.63928960808,
			"0.007": 4.67531701186,
			"0.008": 5.63945859584,
			"0.009": 7.14994047728,
			"0.01": 4.70665444123,
			"0.011": 3.52551824148,
			"0.012": 3.14195224968,
			"0.013": 0.761254999093,
			"0.014": 0.0,
			"0.015": 0.0,
			"0.016": 0.0,
			"0.017": 0.0,
			"0.018": 0.0,
			"0.019": 0.0,
			"0.02": 0.0,
			"0.021": 0.0,
			"0.022": 0.0,
			"0.023": 0.0,
			"0.024": 0.0,
			"0.025": 0.0
		}
	}
}
