{
	 "smiles": "CCCOC1=CC(OCCC)=C(C=O)C=C1", 
	 "Tm": 332.15, 
	 "num_atms": 34, 
	 "gaussian": { 
		 "optdone": 1, 
		 "sigma_profile": "yes", 
		 "theory": "DFT", 
		 "functional": "B3LYP", 
		 "basiset": "6-31G**", 
		 "properties": { 
			 "R2extent": 5895.9494, 
			 "electric_dipole_moment_norm": 3.99077811085, 
			 "electric_quadrupole_moment_norm": 14.0893637603, 
			 "total_energy": -731.890327733, 
			 "HOMO_LUMO_gap": 0.17864, 
			 "cosmo_polarized_energy": -10.53, 
			 "cosmo_cavitation_energy": 36.85, 
			 "cosmo_dispersion_energy": -25.88, 
			 "cosmo_repulsion_energy": 2.07, 
			 "cosmo_total_nonelectrostatic_energy": 13.03, 
			 "SMD_solvation_energy": 7.5 
		},
		"coords": [
			{
				"x": -3.7534107296,
				"y": -1.3027072671,
				"z": -1.6722457627,
				"element": "C" 
			},
			{
				"x": -2.9414660386,
				"y": -0.9153495212,
				"z": -0.4316189087,
				"element": "C" 
			},
			{
				"x": -2.4315894123,
				"y": -2.1447452641,
				"z": 0.3194709185,
				"element": "C" 
			},
			{
				"x": -1.7398418997,
				"y": -1.8048399348,
				"z": 1.5281299443,
				"element": "O" 
			},
			{
				"x": -0.4311647881,
				"y": -1.4520065847,
				"z": 1.4964608229,
				"element": "C" 
			},
			{
				"x": 0.3529528988,
				"y": -1.3795565386,
				"z": 0.3375829921,
				"element": "C" 
			},
			{
				"x": 1.7015253373,
				"y": -1.0190525671,
				"z": 0.4100935891,
				"element": "C" 
			},
			{
				"x": 2.3961955682,
				"y": -1.038235916,
				"z": -0.761496183,
				"element": "O" 
			},
			{
				"x": 2.8485804588,
				"y": 0.2224157882,
				"z": -1.2961102822,
				"element": "C" 
			},
			{
				"x": 3.9049129128,
				"y": -0.0726591763,
				"z": -2.3477601461,
				"element": "C" 
			},
			{
				"x": 4.4061797044,
				"y": 1.2011025031,
				"z": -3.0351502816,
				"element": "C" 
			},
			{
				"x": 2.2986521005,
				"y": -0.7311144431,
				"z": 1.6634410422,
				"element": "C" 
			},
			{
				"x": 3.7245027842,
				"y": -0.4466657361,
				"z": 1.8799184611,
				"element": "C" 
			},
			{
				"x": 4.5956602151,
				"y": -0.3113484812,
				"z": 1.0361591484,
				"element": "O" 
			},
			{
				"x": 1.4796619856,
				"y": -0.8079588404,
				"z": 2.8088347972,
				"element": "C" 
			},
			{
				"x": 0.1423022809,
				"y": -1.1491646722,
				"z": 2.745233847,
				"element": "C" 
			},
			{
				"x": -4.6203805872,
				"y": -1.9180201581,
				"z": -1.4066295284,
				"element": "H" 
			},
			{
				"x": -3.14830823,
				"y": -1.8725002781,
				"z": -2.386406747,
				"element": "H" 
			},
			{
				"x": -4.1247818813,
				"y": -0.4134417082,
				"z": -2.1894968464,
				"element": "H" 
			},
			{
				"x": -3.5563134615,
				"y": -0.3236709092,
				"z": 0.2563317681,
				"element": "H" 
			},
			{
				"x": -2.0952040313,
				"y": -0.281393236,
				"z": -0.7191351434,
				"element": "H" 
			},
			{
				"x": -3.2737687739,
				"y": -2.7592147821,
				"z": 0.6518481409,
				"element": "H" 
			},
			{
				"x": -1.7974676366,
				"y": -2.7732681998,
				"z": -0.3182515444,
				"element": "H" 
			},
			{
				"x": -0.0457649743,
				"y": -1.5969041173,
				"z": -0.6448190921,
				"element": "H" 
			},
			{
				"x": 3.2702855575,
				"y": 0.8406389642,
				"z": -0.499939799,
				"element": "H" 
			},
			{
				"x": 1.9835519253,
				"y": 0.7441379621,
				"z": -1.732786372,
				"element": "H" 
			},
			{
				"x": 4.7313129626,
				"y": -0.5910803837,
				"z": -1.8512176505,
				"element": "H" 
			},
			{
				"x": 3.4848125461,
				"y": -0.7648069366,
				"z": -3.0875822826,
				"element": "H" 
			},
			{
				"x": 3.5934466708,
				"y": 1.7314719528,
				"z": -3.5450868353,
				"element": "H" 
			},
			{
				"x": 4.8545226669,
				"y": 1.8928212628,
				"z": -2.3134349897,
				"element": "H" 
			},
			{
				"x": 5.1683120814,
				"y": 0.9662424285,
				"z": -3.7842196191,
				"element": "H" 
			},
			{
				"x": 3.9837530375,
				"y": -0.3626534744,
				"z": 2.9605842926,
				"element": "H" 
			},
			{
				"x": 1.9295581382,
				"y": -0.5992151569,
				"z": 3.776879985,
				"element": "H" 
			},
			{
				"x": -0.4774193886,
				"y": -1.2096565785,
				"z": 3.6328182647,
				"element": "H" 
			}
		],
		 "valence_orbital": [ 
			{
				"type": "occ",
				"energy": -0.31142,
				"method": "rhf"
			},
			{
				"type": "occ",
				"energy": -0.27638,
				"method": "rhf"
			},
			{
				"type": "occ",
				"energy": -0.25027,
				"method": "rhf"
			},
			{
				"type": "occ",
				"energy": -0.24051,
				"method": "rhf"
			},
			{
				"type": "occ",
				"energy": -0.22758,
				"method": "rhf"
			},
			{
				"type": "unocc",
				"energy": -0.04894,
				"method": "rhf"
			},
			{
				"type": "unocc",
				"energy": -0.0072,
				"method": "rhf"
			},
			{
				"type": "unocc",
				"energy": 0.05122,
				"method": "rhf"
			},
			{
				"type": "unocc",
				"energy": 0.07329,
				"method": "rhf"
			},
			{
				"type": "unocc",
				"energy": 0.09921,
				"method": "rhf"
			}
		],
		"cosmo_sigma_profile": { 
			"-0.025": 0.0,
			"-0.024": 0.0,
			"-0.023": 0.0,
			"-0.022": 0.0,
			"-0.021": 0.0,
			"-0.02": 0.0,
			"-0.019": 0.0,
			"-0.018": 0.0,
			"-0.017": 0.0,
			"-0.016": 0.0,
			"-0.015": 0.0,
			"-0.014": 0.0,
			"-0.013": 0.0,
			"-0.012": 0.0,
			"-0.011": 0.0,
			"-0.01": 0.0,
			"-0.009": 0.0,
			"-0.008": 0.744474509105,
			"-0.007": 5.71972109212,
			"-0.006": 8.95488991937,
			"-0.005": 13.5450839627,
			"-0.004": 15.745128072,
			"-0.003": 36.0367136358,
			"-0.002": 36.3906007365,
			"-0.001": 34.638961096,
			"0.0": 33.1847792343,
			"0.001": 28.0811349326,
			"0.002": 17.8920059395,
			"0.003": 14.8829521445,
			"0.004": 7.73916911348,
			"0.005": 5.0662930263,
			"0.006": 4.4995378445,
			"0.007": 3.32360192644,
			"0.008": 4.82630494152,
			"0.009": 5.63607991233,
			"0.01": 4.25246628516,
			"0.011": 3.8982174491,
			"0.012": 2.15420192736,
			"0.013": 1.68843902651,
			"0.014": 0.46614904977,
			"0.015": 0.0,
			"0.016": 0.0,
			"0.017": 0.0,
			"0.018": 0.0,
			"0.019": 0.0,
			"0.02": 0.0,
			"0.021": 0.0,
			"0.022": 0.0,
			"0.023": 0.0,
			"0.024": 0.0,
			"0.0": 0.0
		}
	}
}
