{
	 "smiles": "CC(Cl)C(=O)C1=CC=C(CNC(C)=O)S1", 
	 "Tm": 353.15, 
	 "num_atms": 27, 
	 "gaussian": { 
		 "optdone": 1, 
		 "sigma_profile": "yes", 
		 "theory": "DFT", 
		 "functional": "B3LYP", 
		 "basiset": "6-31G**", 
		 "properties": { 
			 "R2extent": 6254.3567, 
			 "electric_dipole_moment_norm": 5.15735555881, 
			 "electric_quadrupole_moment_norm": 11.2711551063, 
			 "total_energy": -1451.88652716, 
			 "HOMO_LUMO_gap": 0.16848, 
			 "cosmo_polarized_energy": -17.56, 
			 "cosmo_cavitation_energy": 34.67, 
			 "cosmo_dispersion_energy": -24.87, 
			 "cosmo_repulsion_energy": 1.94, 
			 "cosmo_total_nonelectrostatic_energy": 11.74, 
			 "SMD_solvation_energy": 5.97 
		},
		"coords": [
			{
				"x": 2.7703000777,
				"y": 2.9183715861,
				"z": 3.3924182307,
				"element": "C" 
			},
			{
				"x": 1.5616219388,
				"y": 2.0453460002,
				"z": 3.1120219175,
				"element": "C" 
			},
			{
				"x": 0.9103757808,
				"y": 1.3374856802,
				"z": 4.6783784607,
				"element": "Cl" 
			},
			{
				"x": 1.8879418298,
				"y": 0.8639409569,
				"z": 2.1784024551,
				"element": "C" 
			},
			{
				"x": 3.047380329,
				"y": 0.5093647264,
				"z": 2.0266217284,
				"element": "O" 
			},
			{
				"x": 0.7927095458,
				"y": 0.1931236546,
				"z": 1.4605482727,
				"element": "C" 
			},
			{
				"x": 0.9592162564,
				"y": -0.8719461954,
				"z": 0.5968444423,
				"element": "C" 
			},
			{
				"x": -0.2490934931,
				"y": -1.3252452892,
				"z": 0.0176987481,
				"element": "C" 
			},
			{
				"x": -1.3490590825,
				"y": -0.6084133508,
				"z": 0.4360788959,
				"element": "C" 
			},
			{
				"x": -2.7805354206,
				"y": -0.7897221727,
				"z": -0.0076893559,
				"element": "C" 
			},
			{
				"x": -3.0699750774,
				"y": -0.2063203699,
				"z": -1.3141724756,
				"element": "N" 
			},
			{
				"x": -2.8141164183,
				"y": -0.9064819286,
				"z": -2.4657158179,
				"element": "C" 
			},
			{
				"x": -3.0510328022,
				"y": -0.1479691986,
				"z": -3.7609424174,
				"element": "C" 
			},
			{
				"x": -2.4280559925,
				"y": -2.0693665299,
				"z": -2.4498965059,
				"element": "O" 
			},
			{
				"x": -0.8979175733,
				"y": 0.6364602353,
				"z": 1.5606972868,
				"element": "S" 
			},
			{
				"x": 2.516821127,
				"y": 3.7066913543,
				"z": 4.1041534743,
				"element": "H" 
			},
			{
				"x": 3.5914263996,
				"y": 2.317285277,
				"z": 3.785204419,
				"element": "H" 
			},
			{
				"x": 3.1062498961,
				"y": 3.3806806233,
				"z": 2.4580753534,
				"element": "H" 
			},
			{
				"x": 0.7302209304,
				"y": 2.6310091779,
				"z": 2.7118681673,
				"element": "H" 
			},
			{
				"x": 1.9389049028,
				"y": -1.2938171745,
				"z": 0.407186033,
				"element": "H" 
			},
			{
				"x": -0.3320569584,
				"y": -2.1386860169,
				"z": -0.6935647817,
				"element": "H" 
			},
			{
				"x": -3.4733407406,
				"y": -0.3650286712,
				"z": 0.7242910141,
				"element": "H" 
			},
			{
				"x": -2.9881536789,
				"y": -1.8589617911,
				"z": -0.0923573597,
				"element": "H" 
			},
			{
				"x": -3.2397330054,
				"y": 0.7868286037,
				"z": -1.3707871643,
				"element": "H" 
			},
			{
				"x": -3.6480178993,
				"y": -0.7748855274,
				"z": -4.4270657528,
				"element": "H" 
			},
			{
				"x": -3.5549722258,
				"y": 0.8125116892,
				"z": -3.6228608586,
				"element": "H" 
			},
			{
				"x": -2.0876086461,
				"y": 0.0246446514,
				"z": -4.2504364096,
				"element": "H" 
			}
		],
		 "valence_orbital": [ 
			{
				"type": "occ",
				"energy": -0.27394,
				"method": "rhf"
			},
			{
				"type": "occ",
				"energy": -0.26679,
				"method": "rhf"
			},
			{
				"type": "occ",
				"energy": -0.26081,
				"method": "rhf"
			},
			{
				"type": "occ",
				"energy": -0.25755,
				"method": "rhf"
			},
			{
				"type": "occ",
				"energy": -0.24424,
				"method": "rhf"
			},
			{
				"type": "unocc",
				"energy": -0.07576,
				"method": "rhf"
			},
			{
				"type": "unocc",
				"energy": -0.00791,
				"method": "rhf"
			},
			{
				"type": "unocc",
				"energy": 0.00764,
				"method": "rhf"
			},
			{
				"type": "unocc",
				"energy": 0.01765,
				"method": "rhf"
			},
			{
				"type": "unocc",
				"energy": 0.03729,
				"method": "rhf"
			}
		],
		"cosmo_sigma_profile": { 
			"-0.025": 0.0,
			"-0.024": 0.0,
			"-0.023": 0.0,
			"-0.022": 0.0,
			"-0.021": 0.0,
			"-0.02": 0.0,
			"-0.019": 0.0,
			"-0.018": 0.0,
			"-0.017": 0.0,
			"-0.016": 0.0,
			"-0.015": 0.381359470858,
			"-0.014": 1.19133166296,
			"-0.013": 1.4568736746,
			"-0.012": 1.23800537601,
			"-0.011": 1.57191219539,
			"-0.01": 1.74627560979,
			"-0.009": 2.43349847636,
			"-0.008": 6.77833508736,
			"-0.007": 8.80692619777,
			"-0.006": 12.9095514319,
			"-0.005": 17.8268396649,
			"-0.004": 19.1607194903,
			"-0.003": 20.504444361,
			"-0.002": 19.0898791957,
			"-0.001": 22.0395965942,
			"0.0": 17.747944388,
			"0.001": 17.5501099101,
			"0.002": 26.3502449332,
			"0.003": 17.9388100716,
			"0.004": 11.9343668022,
			"0.005": 14.2318781738,
			"0.006": 6.83694314768,
			"0.007": 3.86011756329,
			"0.008": 2.31865689639,
			"0.009": 3.332703786,
			"0.01": 3.96617353367,
			"0.011": 5.83597355693,
			"0.012": 2.75500885437,
			"0.013": 2.27506705665,
			"0.014": 3.39641882066,
			"0.015": 1.19457195732,
			"0.016": 0.02170099895,
			"0.017": 0.0,
			"0.018": 0.0,
			"0.019": 0.0,
			"0.02": 0.0,
			"0.021": 0.0,
			"0.022": 0.0,
			"0.023": 0.0,
			"0.024": 0.0,
			"0.025": 0.0
		}
	}
}
