{
	 "smiles": "CC1=CC(Br)=CC=C1S(Cl)(=O)=O", 
	 "Tm": 339.15, 
	 "num_atms": 18, 
	 "gaussian": { 
		 "optdone": 1, 
		 "sigma_profile": "yes", 
		 "theory": "DFT", 
		 "functional": "B3LYP", 
		 "basiset": "6-31G**", 
		 "properties": { 
			 "R2extent": 5564.9068, 
			 "electric_dipole_moment_norm": 3.71263545881, 
			 "electric_quadrupole_moment_norm": 15.2068155897, 
			 "total_energy": -3850.52801169, 
			 "HOMO_LUMO_gap": 0.17912, 
			 "cosmo_polarized_energy": -7.91, 
			 "cosmo_cavitation_energy": 27.44, 
			 "cosmo_dispersion_energy": -21.13, 
			 "cosmo_repulsion_energy": 1.63, 
			 "cosmo_total_nonelectrostatic_energy": 7.94, 
			 "SMD_solvation_energy": 2.38 
		},
		"coords": [
			{
				"x": -3.0814398031,
				"y": -0.8010653373,
				"z": -2.4211579012,
				"element": "C" 
			},
			{
				"x": -2.1271841975,
				"y": -0.2798445891,
				"z": -1.3749810124,
				"element": "C" 
			},
			{
				"x": -2.5519880751,
				"y": 0.7269906398,
				"z": -0.4992466593,
				"element": "C" 
			},
			{
				"x": -1.7035086462,
				"y": 1.2407965749,
				"z": 0.4805929552,
				"element": "C" 
			},
			{
				"x": -2.3464689169,
				"y": 2.6070551541,
				"z": 1.6391223084,
				"element": "Br" 
			},
			{
				"x": -0.3977338476,
				"y": 0.7778169499,
				"z": 0.6274717093,
				"element": "C" 
			},
			{
				"x": 0.052975353,
				"y": -0.2198686974,
				"z": -0.2309402628,
				"element": "C" 
			},
			{
				"x": -0.8042647277,
				"y": -0.7371584255,
				"z": -1.2059269574,
				"element": "C" 
			},
			{
				"x": -0.1167326498,
				"y": -2.0471106679,
				"z": -2.2180233819,
				"element": "S" 
			},
			{
				"x": 0.227081819,
				"y": -1.0243899208,
				"z": -4.066912402,
				"element": "Cl" 
			},
			{
				"x": -1.1252052777,
				"y": -3.0612760585,
				"z": -2.4997012346,
				"element": "O" 
			},
			{
				"x": 1.2009127539,
				"y": -2.4027762822,
				"z": -1.7068215127,
				"element": "O" 
			},
			{
				"x": -4.0063214897,
				"y": -0.220928156,
				"z": -2.4068008652,
				"element": "H" 
			},
			{
				"x": -3.3210000408,
				"y": -1.8528980018,
				"z": -2.2462807562,
				"element": "H" 
			},
			{
				"x": -2.6509816166,
				"y": -0.736982801,
				"z": -3.4248441928,
				"element": "H" 
			},
			{
				"x": -3.5613406252,
				"y": 1.1124761312,
				"z": -0.5884894679,
				"element": "H" 
			},
			{
				"x": 0.2527752019,
				"y": 1.1850156883,
				"z": 1.39197223,
				"element": "H" 
			},
			{
				"x": 1.0625247862,
				"y": -0.6043522007,
				"z": -0.1464325967,
				"element": "H" 
			}
		],
		 "valence_orbital": [ 
			{
				"type": "occ",
				"energy": -0.32886,
				"method": "rhf"
			},
			{
				"type": "occ",
				"energy": -0.31768,
				"method": "rhf"
			},
			{
				"type": "occ",
				"energy": -0.3096,
				"method": "rhf"
			},
			{
				"type": "occ",
				"energy": -0.28827,
				"method": "rhf"
			},
			{
				"type": "occ",
				"energy": -0.2738,
				"method": "rhf"
			},
			{
				"type": "unocc",
				"energy": -0.09468,
				"method": "rhf"
			},
			{
				"type": "unocc",
				"energy": -0.05375,
				"method": "rhf"
			},
			{
				"type": "unocc",
				"energy": -0.04294,
				"method": "rhf"
			},
			{
				"type": "unocc",
				"energy": -0.01517,
				"method": "rhf"
			},
			{
				"type": "unocc",
				"energy": 0.04823,
				"method": "rhf"
			}
		],
		"cosmo_sigma_profile": { 
			"-0.025": 0.0,
			"-0.024": 0.0,
			"-0.023": 0.0,
			"-0.022": 0.0,
			"-0.021": 0.0,
			"-0.02": 0.0,
			"-0.019": 0.0,
			"-0.018": 0.0,
			"-0.017": 0.0,
			"-0.016": 0.0,
			"-0.015": 0.0,
			"-0.014": 0.0,
			"-0.013": 0.0,
			"-0.012": 0.0,
			"-0.011": 0.0,
			"-0.01": 0.0,
			"-0.009": 1.27034906111,
			"-0.008": 6.63049319259,
			"-0.007": 5.45117499808,
			"-0.006": 7.01319697401,
			"-0.005": 9.5067380249,
			"-0.004": 12.5627748531,
			"-0.003": 14.8698046713,
			"-0.002": 22.1807781802,
			"-0.001": 23.7669466638,
			"0.0": 27.3689650026,
			"0.001": 18.9952106071,
			"0.002": 15.1071148388,
			"0.003": 21.8831716025,
			"0.004": 14.728152457,
			"0.005": 3.50879588065,
			"0.006": 3.61999055897,
			"0.007": 5.33905461663,
			"0.008": 8.31951683164,
			"0.009": 4.04974014503,
			"0.01": 0.0,
			"0.011": 0.0,
			"0.012": 0.0,
			"0.013": 0.0,
			"0.014": 0.0,
			"0.015": 0.0,
			"0.016": 0.0,
			"0.017": 0.0,
			"0.018": 0.0,
			"0.019": 0.0,
			"0.02": 0.0,
			"0.021": 0.0,
			"0.022": 0.0,
			"0.023": 0.0,
			"0.024": 0.0,
			"0.025": 0.0
		}
	}
}
