{
	 "smiles": "CCCCCC=O", 
	 "Tm": 217.15, 
	 "num_atms": 19, 
	 "gaussian": { 
		 "optdone": 1, 
		 "sigma_profile": "yes", 
		 "theory": "DFT", 
		 "functional": "B3LYP", 
		 "basiset": "6-31G**", 
		 "properties": { 
			 "R2extent": 1774.3592, 
			 "electric_dipole_moment_norm": 2.56924665612, 
			 "electric_quadrupole_moment_norm": 16.4893678972, 
			 "total_energy": -311.094836829, 
			 "HOMO_LUMO_gap": 0.23291, 
			 "cosmo_polarized_energy": -6.08, 
			 "cosmo_cavitation_energy": 21.36, 
			 "cosmo_dispersion_energy": -15.28, 
			 "cosmo_repulsion_energy": 1.32, 
			 "cosmo_total_nonelectrostatic_energy": 7.39, 
			 "SMD_solvation_energy": 4.5 
		},
		"coords": [
			{
				"x": -0.687979626,
				"y": -2.3484337739,
				"z": 0.1955652213,
				"element": "C" 
			},
			{
				"x": -0.1942613626,
				"y": -0.9852311551,
				"z": -0.3031687188,
				"element": "C" 
			},
			{
				"x": 0.8599235875,
				"y": -0.3228544648,
				"z": 0.6019828356,
				"element": "C" 
			},
			{
				"x": 0.399468177,
				"y": 0.0290680432,
				"z": 2.026246051,
				"element": "C" 
			},
			{
				"x": -0.7137105237,
				"y": 1.0770551333,
				"z": 2.0816751374,
				"element": "C" 
			},
			{
				"x": -1.103879674,
				"y": 1.4944329072,
				"z": 3.4807721698,
				"element": "C" 
			},
			{
				"x": -0.6110996641,
				"y": 1.0567056364,
				"z": 4.4975733188,
				"element": "O" 
			},
			{
				"x": 0.1473339364,
				"y": -3.0461181756,
				"z": 0.3263695073,
				"element": "H" 
			},
			{
				"x": -1.2051287534,
				"y": -2.2714996727,
				"z": 1.1577582495,
				"element": "H" 
			},
			{
				"x": -1.3877252597,
				"y": -2.7982614701,
				"z": -0.5163630906,
				"element": "H" 
			},
			{
				"x": 0.241468305,
				"y": -1.1077510908,
				"z": -1.3028463923,
				"element": "H" 
			},
			{
				"x": -1.0514487591,
				"y": -0.3117200947,
				"z": -0.4359736829,
				"element": "H" 
			},
			{
				"x": 1.7273356762,
				"y": -0.9924446756,
				"z": 0.6758735239,
				"element": "H" 
			},
			{
				"x": 1.2246007696,
				"y": 0.5898763833,
				"z": 0.1105221925,
				"element": "H" 
			},
			{
				"x": 1.2556085073,
				"y": 0.4036804871,
				"z": 2.5982235866,
				"element": "H" 
			},
			{
				"x": 0.0684527584,
				"y": -0.870449984,
				"z": 2.5569933605,
				"element": "H" 
			},
			{
				"x": -1.6333242602,
				"y": 0.732736629,
				"z": 1.5848846968,
				"element": "H" 
			},
			{
				"x": -0.4316813121,
				"y": 1.9927033846,
				"z": 1.5374478694,
				"element": "H" 
			},
			{
				"x": -1.9091525226,
				"y": 2.2641059532,
				"z": 3.5278641643,
				"element": "H" 
			}
		],
		 "valence_orbital": [ 
			{
				"type": "occ",
				"energy": -0.35187,
				"method": "rhf"
			},
			{
				"type": "occ",
				"energy": -0.32654,
				"method": "rhf"
			},
			{
				"type": "occ",
				"energy": -0.32187,
				"method": "rhf"
			},
			{
				"type": "occ",
				"energy": -0.31894,
				"method": "rhf"
			},
			{
				"type": "occ",
				"energy": -0.25151,
				"method": "rhf"
			},
			{
				"type": "unocc",
				"energy": -0.0186,
				"method": "rhf"
			},
			{
				"type": "unocc",
				"energy": 0.07659,
				"method": "rhf"
			},
			{
				"type": "unocc",
				"energy": 0.10841,
				"method": "rhf"
			},
			{
				"type": "unocc",
				"energy": 0.11778,
				"method": "rhf"
			},
			{
				"type": "unocc",
				"energy": 0.13128,
				"method": "rhf"
			}
		],
		"cosmo_sigma_profile": { 
			"-0.025": 0.0,
			"-0.024": 0.0,
			"-0.023": 0.0,
			"-0.022": 0.0,
			"-0.021": 0.0,
			"-0.02": 0.0,
			"-0.019": 0.0,
			"-0.018": 0.0,
			"-0.017": 0.0,
			"-0.016": 0.0,
			"-0.015": 0.0,
			"-0.014": 0.0,
			"-0.013": 0.0,
			"-0.012": 0.0,
			"-0.011": 0.0,
			"-0.01": 0.0,
			"-0.009": 0.0,
			"-0.008": 0.0,
			"-0.007": 0.0,
			"-0.006": 7.08475796893,
			"-0.005": 11.3886234102,
			"-0.004": 8.0518401609,
			"-0.003": 12.7279378414,
			"-0.002": 25.2636695718,
			"-0.001": 22.6691460464,
			"0.0": 24.3295132281,
			"0.001": 20.5647259519,
			"0.002": 9.36529884432,
			"0.003": 2.1794200842,
			"0.004": 1.54004338264,
			"0.005": 1.64925811603,
			"0.006": 1.95782841389,
			"0.007": 1.19199704202,
			"0.008": 1.53574626743,
			"0.009": 2.06732262055,
			"0.01": 2.85860554497,
			"0.011": 3.9971544852,
			"0.012": 3.79125908168,
			"0.013": 1.12537460759,
			"0.014": 0.0,
			"0.015": 0.0,
			"0.016": 0.0,
			"0.017": 0.0,
			"0.018": 0.0,
			"0.019": 0.0,
			"0.02": 0.0,
			"0.021": 0.0,
			"0.022": 0.0,
			"0.023": 0.0,
			"0.024": 0.0,
			"0.025": 0.0
		}
	}
}
