{
	 "smiles": "CCOC(=O)C(C#N)C1=CC=CC=C1[N+]([O-])=O", 
	 "Tm": 333.15, 
	 "num_atms": 27, 
	 "gaussian": { 
		 "optdone": 1, 
		 "sigma_profile": "yes", 
		 "theory": "DFT", 
		 "functional": "B3LYP", 
		 "basiset": "6-31G**", 
		 "properties": { 
			 "R2extent": 4533.2377, 
			 "electric_dipole_moment_norm": 1.82538865998, 
			 "electric_quadrupole_moment_norm": 22.2485533514, 
			 "total_energy": -835.48016303, 
			 "HOMO_LUMO_gap": 0.18083, 
			 "cosmo_polarized_energy": -14.5, 
			 "cosmo_cavitation_energy": 33.28, 
			 "cosmo_dispersion_energy": -22.61, 
			 "cosmo_repulsion_energy": 1.79, 
			 "cosmo_total_nonelectrostatic_energy": 12.46, 
			 "SMD_solvation_energy": 9.85 
		},
		"coords": [
			{
				"x": -3.7501165062,
				"y": 3.1984859949,
				"z": 1.6574152545,
				"element": "C" 
			},
			{
				"x": -3.3151700538,
				"y": 2.1564613185,
				"z": 0.646633681,
				"element": "C" 
			},
			{
				"x": -2.0021683383,
				"y": 1.6819475088,
				"z": 1.0507950663,
				"element": "O" 
			},
			{
				"x": -1.4488854687,
				"y": 0.7546642745,
				"z": 0.2654954948,
				"element": "C" 
			},
			{
				"x": -1.9320653023,
				"y": 0.2952648839,
				"z": -0.7401394194,
				"element": "O" 
			},
			{
				"x": -0.0503494685,
				"y": 0.3683972522,
				"z": 0.8208254962,
				"element": "C" 
			},
			{
				"x": 0.8783013429,
				"y": 1.4786451834,
				"z": 0.5648421049,
				"element": "C" 
			},
			{
				"x": 1.6012547592,
				"y": 2.3647061637,
				"z": 0.3668300653,
				"element": "N" 
			},
			{
				"x": 0.4340333616,
				"y": -0.9534298739,
				"z": 0.2328055913,
				"element": "C" 
			},
			{
				"x": 1.4292619559,
				"y": -0.9535495003,
				"z": -0.7503225697,
				"element": "C" 
			},
			{
				"x": 1.8973951547,
				"y": -2.1350658511,
				"z": -1.3238472614,
				"element": "C" 
			},
			{
				"x": 1.3820090943,
				"y": -3.3651082549,
				"z": -0.9178901485,
				"element": "C" 
			},
			{
				"x": 0.3972811481,
				"y": -3.4006428633,
				"z": 0.0620732591,
				"element": "C" 
			},
			{
				"x": -0.0723470563,
				"y": -2.2106464944,
				"z": 0.6219780863,
				"element": "C" 
			},
			{
				"x": -1.125046414,
				"y": -2.356302222,
				"z": 1.6434142431,
				"element": "N" 
			},
			{
				"x": -1.3602056136,
				"y": -3.4838224584,
				"z": 2.0689154377,
				"element": "O" 
			},
			{
				"x": -1.7218309446,
				"y": -1.3430325276,
				"z": 2.0222322508,
				"element": "O" 
			},
			{
				"x": -4.7387929975,
				"y": 3.5818135746,
				"z": 1.3869744053,
				"element": "H" 
			},
			{
				"x": -3.8101980072,
				"y": 2.7682418579,
				"z": 2.6608846818,
				"element": "H" 
			},
			{
				"x": -3.0495196013,
				"y": 4.0377911014,
				"z": 1.6805866615,
				"element": "H" 
			},
			{
				"x": -3.2391582836,
				"y": 2.5644276793,
				"z": -0.3656154375,
				"element": "H" 
			},
			{
				"x": -3.9936894503,
				"y": 1.2991056753,
				"z": 0.6145719114,
				"element": "H" 
			},
			{
				"x": -0.1655184648,
				"y": 0.288663499,
				"z": 1.9044710929,
				"element": "H" 
			},
			{
				"x": 1.8483447397,
				"y": -0.0053119241,
				"z": -1.0686059839,
				"element": "H" 
			},
			{
				"x": 2.6669915031,
				"y": -2.0882355143,
				"z": -2.0880210964,
				"element": "H" 
			},
			{
				"x": 1.7411161282,
				"y": -4.2897051578,
				"z": -1.3576381504,
				"element": "H" 
			},
			{
				"x": -0.0259272169,
				"y": -4.3343633253,
				"z": 0.4086352831,
				"element": "H" 
			}
		],
		 "valence_orbital": [ 
			{
				"type": "occ",
				"energy": -0.31406,
				"method": "rhf"
			},
			{
				"type": "occ",
				"energy": -0.30596,
				"method": "rhf"
			},
			{
				"type": "occ",
				"energy": -0.29136,
				"method": "rhf"
			},
			{
				"type": "occ",
				"energy": -0.28983,
				"method": "rhf"
			},
			{
				"type": "occ",
				"energy": -0.28365,
				"method": "rhf"
			},
			{
				"type": "unocc",
				"energy": -0.10282,
				"method": "rhf"
			},
			{
				"type": "unocc",
				"energy": -0.03942,
				"method": "rhf"
			},
			{
				"type": "unocc",
				"energy": -0.02229,
				"method": "rhf"
			},
			{
				"type": "unocc",
				"energy": -0.00514,
				"method": "rhf"
			},
			{
				"type": "unocc",
				"energy": 0.02112,
				"method": "rhf"
			}
		],
		"cosmo_sigma_profile": { 
			"-0.025": 0.0,
			"-0.024": 0.0,
			"-0.023": 0.0,
			"-0.022": 0.0,
			"-0.021": 0.0,
			"-0.02": 0.0,
			"-0.019": 0.0,
			"-0.018": 0.0,
			"-0.017": 0.0,
			"-0.016": 0.0,
			"-0.015": 0.0,
			"-0.014": 0.0,
			"-0.013": 0.0,
			"-0.012": 0.0,
			"-0.011": 1.28672076795,
			"-0.01": 2.38383097826,
			"-0.009": 1.51711376481,
			"-0.008": 5.88699032495,
			"-0.007": 11.6332461422,
			"-0.006": 15.3327425019,
			"-0.005": 19.3752058991,
			"-0.004": 22.5566768971,
			"-0.003": 20.0533210778,
			"-0.002": 19.4268630885,
			"-0.001": 20.1423670428,
			"0.0": 19.0746631158,
			"0.001": 17.7042283835,
			"0.002": 12.4980378984,
			"0.003": 8.79971348481,
			"0.004": 8.5332747385,
			"0.005": 8.18309119031,
			"0.006": 9.98581333226,
			"0.007": 9.8492701477,
			"0.008": 9.18202999712,
			"0.009": 8.46019924633,
			"0.01": 7.35070431858,
			"0.011": 5.31604046161,
			"0.012": 1.84074056052,
			"0.013": 0.165449706102,
			"0.014": 0.0,
			"0.015": 0.0,
			"0.016": 0.0,
			"0.017": 0.0,
			"0.018": 0.0,
			"0.019": 0.0,
			"0.02": 0.0,
			"0.021": 0.0,
			"0.022": 0.0,
			"0.023": 0.0,
			"0.024": 0.0,
			"0.025": 0.0
		}
	}
}
