{
	 "smiles": "COC(=O)C1=CC(C)=CC(C)=C1", 
	 "Tm": 305.15, 
	 "num_atms": 24, 
	 "gaussian": { 
		 "optdone": 1, 
		 "sigma_profile": "yes", 
		 "theory": "DFT", 
		 "functional": "B3LYP", 
		 "basiset": "6-31G**", 
		 "properties": { 
			 "R2extent": 2857.858, 
			 "electric_dipole_moment_norm": 2.06097871168, 
			 "electric_quadrupole_moment_norm": 10.4490237008, 
			 "total_energy": -538.771603397, 
			 "HOMO_LUMO_gap": 0.20035, 
			 "cosmo_polarized_energy": -7.34, 
			 "cosmo_cavitation_energy": 27.82, 
			 "cosmo_dispersion_energy": -20.16, 
			 "cosmo_repulsion_energy": 1.62, 
			 "cosmo_total_nonelectrostatic_energy": 9.28, 
			 "SMD_solvation_energy": 6.51 
		},
		"coords": [
			{
				"x": 1.0362679804,
				"y": -0.0994968392,
				"z": 3.9250994145,
				"element": "C" 
			},
			{
				"x": 1.3346788614,
				"y": -0.0751298937,
				"z": 2.5221381157,
				"element": "O" 
			},
			{
				"x": 0.3280541903,
				"y": -0.483963138,
				"z": 1.7128770395,
				"element": "C" 
			},
			{
				"x": -0.7522111275,
				"y": -0.8467019071,
				"z": 2.1382227429,
				"element": "O" 
			},
			{
				"x": 0.6979931589,
				"y": -0.4357756707,
				"z": 0.2701119583,
				"element": "C" 
			},
			{
				"x": -0.2681309803,
				"y": -0.8329116193,
				"z": -0.6607161498,
				"element": "C" 
			},
			{
				"x": 0.0111550439,
				"y": -0.8103435861,
				"z": -2.0296716317,
				"element": "C" 
			},
			{
				"x": -1.0390958213,
				"y": -1.2043160823,
				"z": -3.0423916411,
				"element": "C" 
			},
			{
				"x": 1.281625576,
				"y": -0.3877847364,
				"z": -2.441114121,
				"element": "C" 
			},
			{
				"x": 2.2669118221,
				"y": 0.0119528649,
				"z": -1.5278472443,
				"element": "C" 
			},
			{
				"x": 3.6351316461,
				"y": 0.4360264011,
				"z": -2.0101612797,
				"element": "C" 
			},
			{
				"x": 1.9609176887,
				"y": -0.0131520004,
				"z": -0.1646322591,
				"element": "C" 
			},
			{
				"x": 0.1899085045,
				"y": 0.5541118312,
				"z": 4.151504964,
				"element": "H" 
			},
			{
				"x": 1.9380552408,
				"y": 0.2551413159,
				"z": 4.4245398557,
				"element": "H" 
			},
			{
				"x": 0.7912032086,
				"y": -1.1138746173,
				"z": 4.2503735649,
				"element": "H" 
			},
			{
				"x": -1.2370223319,
				"y": -1.1565176842,
				"z": -0.2936297957,
				"element": "H" 
			},
			{
				"x": -1.7526087185,
				"y": -1.9172679252,
				"z": -2.6195053245,
				"element": "H" 
			},
			{
				"x": -1.6115616865,
				"y": -0.3307749039,
				"z": -3.378593882,
				"element": "H" 
			},
			{
				"x": -0.5893187305,
				"y": -1.6589464975,
				"z": -3.9303981531,
				"element": "H" 
			},
			{
				"x": 1.5117025304,
				"y": -0.3696434951,
				"z": -3.5051100472,
				"element": "H" 
			},
			{
				"x": 4.2449129459,
				"y": -0.4327053796,
				"z": -2.2875333831,
				"element": "H" 
			},
			{
				"x": 4.178512139,
				"y": 0.9843606466,
				"z": -1.2356863427,
				"element": "H" 
			},
			{
				"x": 3.5671315458,
				"y": 1.0776404154,
				"z": -2.8947591453,
				"element": "H" 
			},
			{
				"x": 2.7017873137,
				"y": 0.2922725009,
				"z": 0.5660827449,
				"element": "H" 
			}
		],
		 "valence_orbital": [ 
			{
				"type": "occ",
				"energy": -0.33655,
				"method": "rhf"
			},
			{
				"type": "occ",
				"energy": -0.29676,
				"method": "rhf"
			},
			{
				"type": "occ",
				"energy": -0.26782,
				"method": "rhf"
			},
			{
				"type": "occ",
				"energy": -0.24775,
				"method": "rhf"
			},
			{
				"type": "occ",
				"energy": -0.23994,
				"method": "rhf"
			},
			{
				"type": "unocc",
				"energy": -0.03959,
				"method": "rhf"
			},
			{
				"type": "unocc",
				"energy": 0.00079,
				"method": "rhf"
			},
			{
				"type": "unocc",
				"energy": 0.05904,
				"method": "rhf"
			},
			{
				"type": "unocc",
				"energy": 0.0988,
				"method": "rhf"
			},
			{
				"type": "unocc",
				"energy": 0.11675,
				"method": "rhf"
			}
		],
		"cosmo_sigma_profile": { 
			"-0.025": 0.0,
			"-0.024": 0.0,
			"-0.023": 0.0,
			"-0.022": 0.0,
			"-0.021": 0.0,
			"-0.02": 0.0,
			"-0.019": 0.0,
			"-0.018": 0.0,
			"-0.017": 0.0,
			"-0.016": 0.0,
			"-0.015": 0.0,
			"-0.014": 0.0,
			"-0.013": 0.0,
			"-0.012": 0.0,
			"-0.011": 0.0,
			"-0.01": 0.0,
			"-0.009": 0.0,
			"-0.008": 0.0,
			"-0.007": 0.583623367752,
			"-0.006": 4.32416734166,
			"-0.005": 13.1354869673,
			"-0.004": 26.9707589582,
			"-0.003": 24.1263834297,
			"-0.002": 23.5719907018,
			"-0.001": 22.9822091243,
			"0.0": 22.7774008186,
			"0.001": 15.9949069031,
			"0.002": 13.3584553211,
			"0.003": 12.7420973584,
			"0.004": 13.1524866883,
			"0.005": 8.0604689784,
			"0.006": 3.84372030518,
			"0.007": 1.70278922896,
			"0.008": 1.55625285437,
			"0.009": 1.59377848605,
			"0.01": 1.37034876544,
			"0.011": 2.81938953692,
			"0.012": 4.61889673959,
			"0.013": 0.791977751944,
			"0.014": 0.0,
			"0.015": 0.0,
			"0.016": 0.0,
			"0.017": 0.0,
			"0.018": 0.0,
			"0.019": 0.0,
			"0.02": 0.0,
			"0.021": 0.0,
			"0.022": 0.0,
			"0.023": 0.0,
			"0.024": 0.0,
			"0.025": 0.0
		}
	}
}
