{
	 "smiles": "ClC1=CC=C(CN=C=S)C(Cl)=C1", 
	 "Tm": 300.15, 
	 "num_atms": 17, 
	 "gaussian": { 
		 "optdone": 1, 
		 "sigma_profile": "yes", 
		 "theory": "DFT", 
		 "functional": "B3LYP", 
		 "basiset": "6-31G**", 
		 "properties": { 
			 "R2extent": 5008.9322, 
			 "electric_dipole_moment_norm": 1.33847741483, 
			 "electric_quadrupole_moment_norm": 11.7435500084, 
			 "total_energy": -1681.17913701, 
			 "HOMO_LUMO_gap": 0.21591, 
			 "cosmo_polarized_energy": -6.25, 
			 "cosmo_cavitation_energy": 28.19, 
			 "cosmo_dispersion_energy": -21.2, 
			 "cosmo_repulsion_energy": 1.67, 
			 "cosmo_total_nonelectrostatic_energy": 8.67, 
			 "SMD_solvation_energy": 3.98 
		},
		"coords": [
			{
				"x": -0.9202940765,
				"y": -2.6334081497,
				"z": -4.0692450784,
				"element": "Cl" 
			},
			{
				"x": -0.3200466614,
				"y": -1.6042063766,
				"z": -2.7825859616,
				"element": "C" 
			},
			{
				"x": -0.7378368352,
				"y": -0.2775146859,
				"z": -2.704425614,
				"element": "C" 
			},
			{
				"x": -0.2505120684,
				"y": 0.5260581898,
				"z": -1.6749788103,
				"element": "C" 
			},
			{
				"x": 0.6451844358,
				"y": 0.0344704815,
				"z": -0.721151963,
				"element": "C" 
			},
			{
				"x": 1.1803425584,
				"y": 0.9014530065,
				"z": 0.40204723,
				"element": "C" 
			},
			{
				"x": 0.6647183408,
				"y": 2.2385669737,
				"z": 0.3552412648,
				"element": "N" 
			},
			{
				"x": 0.6581321409,
				"y": 3.3209247362,
				"z": 0.8659364795,
				"element": "C" 
			},
			{
				"x": 0.5698655484,
				"y": 4.7935507514,
				"z": 1.4543242258,
				"element": "S" 
			},
			{
				"x": 1.04061867,
				"y": -1.304651172,
				"z": -0.8349463681,
				"element": "C" 
			},
			{
				"x": 2.1669918432,
				"y": -1.9857911986,
				"z": 0.3344799295,
				"element": "Cl" 
			},
			{
				"x": 0.5720840194,
				"y": -2.1336755525,
				"z": -1.8515888692,
				"element": "C" 
			},
			{
				"x": -1.432010249,
				"y": 0.1204047379,
				"z": -3.4355522356,
				"element": "H" 
			},
			{
				"x": -0.5681214675,
				"y": 1.5607705597,
				"z": -1.6031127526,
				"element": "H" 
			},
			{
				"x": 0.9263283188,
				"y": 0.4527610311,
				"z": 1.3713702198,
				"element": "H" 
			},
			{
				"x": 2.2765847137,
				"y": 0.9379129339,
				"z": 0.3534978665,
				"element": "H" 
			},
			{
				"x": 0.8959707685,
				"y": -3.1651262666,
				"z": -1.913609563,
				"element": "H" 
			}
		],
		 "valence_orbital": [ 
			{
				"type": "occ",
				"energy": -0.3258,
				"method": "rhf"
			},
			{
				"type": "occ",
				"energy": -0.2743,
				"method": "rhf"
			},
			{
				"type": "occ",
				"energy": -0.26564,
				"method": "rhf"
			},
			{
				"type": "occ",
				"energy": -0.26268,
				"method": "rhf"
			},
			{
				"type": "occ",
				"energy": -0.25332,
				"method": "rhf"
			},
			{
				"type": "unocc",
				"energy": -0.03741,
				"method": "rhf"
			},
			{
				"type": "unocc",
				"energy": -0.03325,
				"method": "rhf"
			},
			{
				"type": "unocc",
				"energy": -0.03126,
				"method": "rhf"
			},
			{
				"type": "unocc",
				"energy": -0.0029,
				"method": "rhf"
			},
			{
				"type": "unocc",
				"energy": -0.00159,
				"method": "rhf"
			}
		],
		"cosmo_sigma_profile": { 
			"-0.025": 0.0,
			"-0.024": 0.0,
			"-0.023": 0.0,
			"-0.022": 0.0,
			"-0.021": 0.0,
			"-0.02": 0.0,
			"-0.019": 0.0,
			"-0.018": 0.0,
			"-0.017": 0.0,
			"-0.016": 0.0,
			"-0.015": 0.0,
			"-0.014": 0.0,
			"-0.013": 0.0,
			"-0.012": 0.0,
			"-0.011": 0.0,
			"-0.01": 0.0,
			"-0.009": 0.872386422769,
			"-0.008": 6.62378623794,
			"-0.007": 9.15285723211,
			"-0.006": 10.4221341066,
			"-0.005": 9.79741977422,
			"-0.004": 9.00595728768,
			"-0.003": 10.2452536474,
			"-0.002": 14.4618825714,
			"-0.001": 18.3543682656,
			"0.0": 24.0445046786,
			"0.001": 32.99281782,
			"0.002": 25.8567909674,
			"0.003": 19.0738319459,
			"0.004": 22.9696253745,
			"0.005": 14.5839317013,
			"0.006": 6.65958030986,
			"0.007": 0.230774264536,
			"0.008": 0.0,
			"0.009": 0.0,
			"0.01": 0.0,
			"0.011": 0.0,
			"0.012": 0.0,
			"0.013": 0.0,
			"0.014": 0.0,
			"0.015": 0.0,
			"0.016": 0.0,
			"0.017": 0.0,
			"0.018": 0.0,
			"0.019": 0.0,
			"0.02": 0.0,
			"0.021": 0.0,
			"0.022": 0.0,
			"0.023": 0.0,
			"0.024": 0.0,
			"0.025": 0.0
		}
	}
}
