{
	 "smiles": "COC1=CC(=CC=C1)C(=O)C(=O)C1=CC(OC)=CC=C1", 
	 "Tm": 355.15, 
	 "num_atms": 34, 
	 "gaussian": { 
		 "optdone": 1, 
		 "sigma_profile": "yes", 
		 "theory": "DFT", 
		 "functional": "B3LYP", 
		 "basiset": "6-31G**", 
		 "properties": { 
			 "R2extent": 8562.8247, 
			 "electric_dipole_moment_norm": 3.75291248366, 
			 "electric_quadrupole_moment_norm": 35.055101557, 
			 "total_energy": -919.000183178, 
			 "HOMO_LUMO_gap": 0.14882, 
			 "cosmo_polarized_energy": -14.41, 
			 "cosmo_cavitation_energy": 39.17, 
			 "cosmo_dispersion_energy": -28.1, 
			 "cosmo_repulsion_energy": 2.14, 
			 "cosmo_total_nonelectrostatic_energy": 13.21, 
			 "SMD_solvation_energy": 9.09 
		},
		"coords": [
			{
				"x": -4.8311975904,
				"y": 2.5081774239,
				"z": -4.2379981359,
				"element": "C" 
			},
			{
				"x": -3.5776574453,
				"y": 1.9861637135,
				"z": -3.8268389585,
				"element": "O" 
			},
			{
				"x": -3.5670943093,
				"y": 0.884892772,
				"z": -3.0221993676,
				"element": "C" 
			},
			{
				"x": -2.2962805268,
				"y": 0.4101080225,
				"z": -2.6691804445,
				"element": "C" 
			},
			{
				"x": -2.1719111661,
				"y": -0.7136154626,
				"z": -1.8470267345,
				"element": "C" 
			},
			{
				"x": -3.3233084807,
				"y": -1.369543389,
				"z": -1.3716536017,
				"element": "C" 
			},
			{
				"x": -4.5764159357,
				"y": -0.8947175274,
				"z": -1.7289154251,
				"element": "C" 
			},
			{
				"x": -4.7118078538,
				"y": 0.2309184334,
				"z": -2.5519864034,
				"element": "C" 
			},
			{
				"x": -0.8497642168,
				"y": -1.2374181514,
				"z": -1.4029202958,
				"element": "C" 
			},
			{
				"x": -0.7432622123,
				"y": -2.2076378235,
				"z": -0.664776211,
				"element": "O" 
			},
			{
				"x": 0.4447737769,
				"y": -0.5963509156,
				"z": -1.9396119832,
				"element": "C" 
			},
			{
				"x": 0.5628171176,
				"y": -0.4771100636,
				"z": -3.1517909568,
				"element": "O" 
			},
			{
				"x": 1.5274237241,
				"y": -0.2129350589,
				"z": -0.9906704195,
				"element": "C" 
			},
			{
				"x": 1.3857150068,
				"y": -0.3264808993,
				"z": 0.395405508,
				"element": "C" 
			},
			{
				"x": 2.4216249318,
				"y": 0.0887772763,
				"z": 1.243632385,
				"element": "C" 
			},
			{
				"x": 2.1826947411,
				"y": -0.0644219193,
				"z": 2.5777327005,
				"element": "O" 
			},
			{
				"x": 3.197502192,
				"y": 0.3187513437,
				"z": 3.492199447,
				"element": "C" 
			},
			{
				"x": 3.5992402617,
				"y": 0.6157079948,
				"z": 0.7007322104,
				"element": "C" 
			},
			{
				"x": 3.7315543687,
				"y": 0.724929859,
				"z": -0.6897255772,
				"element": "C" 
			},
			{
				"x": 2.7107549957,
				"y": 0.3197074845,
				"z": -1.5365469155,
				"element": "C" 
			},
			{
				"x": -5.4334498045,
				"y": 2.8398617016,
				"z": -3.3821027469,
				"element": "H" 
			},
			{
				"x": -5.4055530995,
				"y": 1.7740305822,
				"z": -4.8177416137,
				"element": "H" 
			},
			{
				"x": -4.6058810191,
				"y": 3.367400369,
				"z": -4.871286611,
				"element": "H" 
			},
			{
				"x": -1.4286203064,
				"y": 0.9221988174,
				"z": -3.0653508845,
				"element": "H" 
			},
			{
				"x": -3.2029823338,
				"y": -2.2363638324,
				"z": -0.7321082456,
				"element": "H" 
			},
			{
				"x": -5.4703497812,
				"y": -1.3954150258,
				"z": -1.3684266428,
				"element": "H" 
			},
			{
				"x": -5.70202435,
				"y": 0.5832560547,
				"z": -2.8156627691,
				"element": "H" 
			},
			{
				"x": 0.4953060457,
				"y": -0.7505812583,
				"z": 0.8418643009,
				"element": "H" 
			},
			{
				"x": 4.1194211339,
				"y": -0.2571375834,
				"z": 3.3392988446,
				"element": "H" 
			},
			{
				"x": 3.4271739413,
				"y": 1.3897806194,
				"z": 3.418530952,
				"element": "H" 
			},
			{
				"x": 2.8025458794,
				"y": 0.1050952428,
				"z": 4.4864047978,
				"element": "H" 
			},
			{
				"x": 4.4106402136,
				"y": 0.9407603196,
				"z": 1.3411637169,
				"element": "H" 
			},
			{
				"x": 4.6487958623,
				"y": 1.1355055391,
				"z": -1.101871758,
				"element": "H" 
			},
			{
				"x": 2.7969762394,
				"y": 0.402205341,
				"z": -2.6138721613,
				"element": "H" 
			}
		],
		 "valence_orbital": [ 
			{
				"type": "occ",
				"energy": -0.26378,
				"method": "rhf"
			},
			{
				"type": "occ",
				"energy": -0.25901,
				"method": "rhf"
			},
			{
				"type": "occ",
				"energy": -0.23167,
				"method": "rhf"
			},
			{
				"type": "occ",
				"energy": -0.22708,
				"method": "rhf"
			},
			{
				"type": "occ",
				"energy": -0.22635,
				"method": "rhf"
			},
			{
				"type": "unocc",
				"energy": -0.07753,
				"method": "rhf"
			},
			{
				"type": "unocc",
				"energy": -0.04875,
				"method": "rhf"
			},
			{
				"type": "unocc",
				"energy": -0.00255,
				"method": "rhf"
			},
			{
				"type": "unocc",
				"energy": 0.00214,
				"method": "rhf"
			},
			{
				"type": "unocc",
				"energy": 0.03227,
				"method": "rhf"
			}
		],
		"cosmo_sigma_profile": { 
			"-0.025": 0.0,
			"-0.024": 0.0,
			"-0.023": 0.0,
			"-0.022": 0.0,
			"-0.021": 0.0,
			"-0.02": 0.0,
			"-0.019": 0.0,
			"-0.018": 0.0,
			"-0.017": 0.0,
			"-0.016": 0.0,
			"-0.015": 0.0,
			"-0.014": 0.0,
			"-0.013": 0.0,
			"-0.012": 0.0,
			"-0.011": 0.0,
			"-0.01": 0.0,
			"-0.009": 0.0,
			"-0.008": 0.383080744222,
			"-0.007": 7.05212630302,
			"-0.006": 23.8767075992,
			"-0.005": 32.6032738095,
			"-0.004": 28.9708491659,
			"-0.003": 25.4074684734,
			"-0.002": 18.9661396585,
			"-0.001": 15.0870396454,
			"0.0": 17.4368662442,
			"0.001": 21.0745535479,
			"0.002": 28.5183996596,
			"0.003": 30.8160280009,
			"0.004": 17.9512891102,
			"0.005": 7.50645236154,
			"0.006": 6.01656246332,
			"0.007": 6.27132532736,
			"0.008": 5.5203860387,
			"0.009": 7.45758185638,
			"0.01": 8.36548735946,
			"0.011": 4.21518098784,
			"0.012": 0.0677574313837,
			"0.013": 0.0,
			"0.014": 0.0,
			"0.015": 0.0,
			"0.016": 0.0,
			"0.017": 0.0,
			"0.018": 0.0,
			"0.019": 0.0,
			"0.02": 0.0,
			"0.021": 0.0,
			"0.022": 0.0,
			"0.023": 0.0,
			"0.024": 0.0,
			"0.025": 0.0
		}
	}
}
