{
	 "smiles": "[O-][N+](=O)C1=CC=C(C=C1)C1=C(C(=NO1)C(=O)C1=CC=CS1)S(=O)(=O)C1=CC=CC=C1", 
	 "Tm": 412.15, 
	 "num_atms": 42, 
	 "gaussian": { 
		 "optdone": 1, 
		 "sigma_profile": "yes", 
		 "theory": "DFT", 
		 "functional": "B3LYP", 
		 "basiset": "6-31G**", 
		 "properties": { 
			 "R2extent": 14359.143, 
			 "electric_dipole_moment_norm": 7.11863765126, 
			 "electric_quadrupole_moment_norm": 22.0041770435, 
			 "total_energy": -2126.32613915, 
			 "HOMO_LUMO_gap": 0.14626, 
			 "cosmo_polarized_energy": -24.48, 
			 "cosmo_cavitation_energy": 52.23, 
			 "cosmo_dispersion_energy": -34.86, 
			 "cosmo_repulsion_energy": 2.53, 
			 "cosmo_total_nonelectrostatic_energy": 19.9, 
			 "SMD_solvation_energy": 10.67 
		},
		"coords": [
			{
				"x": 2.6809326746,
				"y": 4.2132013128,
				"z": -4.3067086121,
				"element": "O" 
			},
			{
				"x": 1.4757297865,
				"y": 4.0986062793,
				"z": -4.0915933992,
				"element": "N" 
			},
			{
				"x": 0.5845310897,
				"y": 4.5296757772,
				"z": -4.8212663535,
				"element": "O" 
			},
			{
				"x": 1.0673304858,
				"y": 3.3866249655,
				"z": -2.8667541218,
				"element": "C" 
			},
			{
				"x": -0.292032431,
				"y": 3.2294647387,
				"z": -2.6017420438,
				"element": "C" 
			},
			{
				"x": -0.6721045925,
				"y": 2.5530359281,
				"z": -1.4496367559,
				"element": "C" 
			},
			{
				"x": 0.3016021755,
				"y": 2.0335499941,
				"z": -0.5750790327,
				"element": "C" 
			},
			{
				"x": 1.6662532828,
				"y": 2.2182691629,
				"z": -0.8593461298,
				"element": "C" 
			},
			{
				"x": 2.0512937997,
				"y": 2.8965220949,
				"z": -2.0119933401,
				"element": "C" 
			},
			{
				"x": -0.1343041406,
				"y": 1.3468374977,
				"z": 0.6444035511,
				"element": "C" 
			},
			{
				"x": 0.3478229351,
				"y": 0.3298672063,
				"z": 1.4418861294,
				"element": "C" 
			},
			{
				"x": -0.6342283688,
				"y": 0.198089558,
				"z": 2.4757639977,
				"element": "C" 
			},
			{
				"x": -1.6254393823,
				"y": 1.0399357768,
				"z": 2.3056287905,
				"element": "N" 
			},
			{
				"x": -1.3132360567,
				"y": 1.7636233042,
				"z": 1.1527468887,
				"element": "O" 
			},
			{
				"x": -0.5971053315,
				"y": -0.6307914093,
				"z": 3.7500743504,
				"element": "C" 
			},
			{
				"x": 0.2081315158,
				"y": -0.332166563,
				"z": 4.6134633084,
				"element": "O" 
			},
			{
				"x": -1.5600680509,
				"y": -1.7228509087,
				"z": 3.900104624,
				"element": "C" 
			},
			{
				"x": -1.6292870116,
				"y": -2.5765359939,
				"z": 4.9824579723,
				"element": "C" 
			},
			{
				"x": -2.6416986019,
				"y": -3.5582035493,
				"z": 4.8516107199,
				"element": "C" 
			},
			{
				"x": -3.333728642,
				"y": -3.4458481498,
				"z": 3.669125984,
				"element": "C" 
			},
			{
				"x": -2.7674251724,
				"y": -2.1355912363,
				"z": 2.7014380297,
				"element": "S" 
			},
			{
				"x": 1.7482461038,
				"y": -0.7633191224,
				"z": 1.2220642754,
				"element": "S" 
			},
			{
				"x": 1.6342735034,
				"y": -1.7610428461,
				"z": 2.2912390773,
				"element": "O" 
			},
			{
				"x": 2.9645399545,
				"y": 0.0467183234,
				"z": 1.0538472809,
				"element": "O" 
			},
			{
				"x": 1.411968545,
				"y": -1.5892174743,
				"z": -0.340463254,
				"element": "C" 
			},
			{
				"x": 0.406125849,
				"y": -2.5594907506,
				"z": -0.3870811201,
				"element": "C" 
			},
			{
				"x": 0.1640767081,
				"y": -3.2194063486,
				"z": -1.590171587,
				"element": "C" 
			},
			{
				"x": 0.927898552,
				"y": -2.9177977203,
				"z": -2.7220836636,
				"element": "C" 
			},
			{
				"x": 1.9402596672,
				"y": -1.9592524745,
				"z": -2.6557234102,
				"element": "C" 
			},
			{
				"x": 2.18976411,
				"y": -1.2857553383,
				"z": -1.4582973436,
				"element": "C" 
			},
			{
				"x": -1.0213249149,
				"y": 3.6317058649,
				"z": -3.2933164663,
				"element": "H" 
			},
			{
				"x": -1.7235020827,
				"y": 2.4193563338,
				"z": -1.2224457755,
				"element": "H" 
			},
			{
				"x": 2.4174333343,
				"y": 1.8461744797,
				"z": -0.1720909702,
				"element": "H" 
			},
			{
				"x": 3.0947735925,
				"y": 3.0585332175,
				"z": -2.2511655225,
				"element": "H" 
			},
			{
				"x": -0.9560284798,
				"y": -2.479463311,
				"z": 5.8253711504,
				"element": "H" 
			},
			{
				"x": -2.8534434786,
				"y": -4.3170841062,
				"z": 5.5956528927,
				"element": "H" 
			},
			{
				"x": -4.1560553831,
				"y": -4.05590591,
				"z": 3.3200360805,
				"element": "H" 
			},
			{
				"x": -0.1640329947,
				"y": -2.8006940746,
				"z": 0.5041392741,
				"element": "H" 
			},
			{
				"x": -0.6135932226,
				"y": -3.9750777308,
				"z": -1.6426084608,
				"element": "H" 
			},
			{
				"x": 0.7373051183,
				"y": -3.4383434643,
				"z": -3.6558865221,
				"element": "H" 
			},
			{
				"x": 2.5404746373,
				"y": -1.7371379984,
				"z": -3.5326186439,
				"element": "H" 
			},
			{
				"x": 2.9827709179,
				"y": -0.5515153352,
				"z": -1.3788818488,
				"element": "H" 
			}
		],
		 "valence_orbital": [ 
			{
				"type": "occ",
				"energy": -0.28316,
				"method": "rhf"
			},
			{
				"type": "occ",
				"energy": -0.27575,
				"method": "rhf"
			},
			{
				"type": "occ",
				"energy": -0.27405,
				"method": "rhf"
			},
			{
				"type": "occ",
				"energy": -0.27153,
				"method": "rhf"
			},
			{
				"type": "occ",
				"energy": -0.25839,
				"method": "rhf"
			},
			{
				"type": "unocc",
				"energy": -0.11213,
				"method": "rhf"
			},
			{
				"type": "unocc",
				"energy": -0.08116,
				"method": "rhf"
			},
			{
				"type": "unocc",
				"energy": -0.06118,
				"method": "rhf"
			},
			{
				"type": "unocc",
				"energy": -0.05337,
				"method": "rhf"
			},
			{
				"type": "unocc",
				"energy": -0.04493,
				"method": "rhf"
			}
		],
		"cosmo_sigma_profile": { 
			"-0.025": 0.0,
			"-0.024": 0.0,
			"-0.023": 0.0,
			"-0.022": 0.0,
			"-0.021": 0.0,
			"-0.02": 0.0,
			"-0.019": 0.0,
			"-0.018": 0.0,
			"-0.017": 0.0,
			"-0.016": 0.0,
			"-0.015": 0.0,
			"-0.014": 0.0,
			"-0.013": 0.0,
			"-0.012": 0.0,
			"-0.011": 0.0,
			"-0.01": 1.45362681317,
			"-0.009": 4.13582396151,
			"-0.008": 10.0216277225,
			"-0.007": 20.8711101686,
			"-0.006": 24.0044756154,
			"-0.005": 30.7350344359,
			"-0.004": 26.7518890213,
			"-0.003": 26.8524432272,
			"-0.002": 30.2092509609,
			"-0.001": 35.1848260917,
			"0.0": 35.3046764655,
			"0.001": 33.3608473119,
			"0.002": 31.0626542081,
			"0.003": 21.6468670043,
			"0.004": 11.2880513054,
			"0.005": 9.87511057192,
			"0.006": 10.5683780949,
			"0.007": 15.5821055054,
			"0.008": 12.0267947108,
			"0.009": 11.381936924,
			"0.01": 12.9525259994,
			"0.011": 9.26660575825,
			"0.012": 0.320006509045,
			"0.013": 0.0,
			"0.014": 0.0,
			"0.015": 0.0,
			"0.016": 0.0,
			"0.017": 0.0,
			"0.018": 0.0,
			"0.019": 0.0,
			"0.02": 0.0,
			"0.021": 0.0,
			"0.022": 0.0,
			"0.023": 0.0,
			"0.024": 0.0,
			"0.025": 0.0
		}
	}
}
