{
	 "smiles": "N#CC1=NC(=CC=C1)N1CCOCC1", 
	 "Tm": 407.15, 
	 "num_atms": 25, 
	 "gaussian": { 
		 "optdone": 1, 
		 "sigma_profile": "yes", 
		 "theory": "DFT", 
		 "functional": "B3LYP", 
		 "basiset": "6-31G**", 
		 "properties": { 
			 "R2extent": 3627.2402, 
			 "electric_dipole_moment_norm": 5.57885000605, 
			 "electric_quadrupole_moment_norm": 23.7108739546, 
			 "total_energy": -627.130028961, 
			 "HOMO_LUMO_gap": 0.16194, 
			 "cosmo_polarized_energy": -13.11, 
			 "cosmo_cavitation_energy": 28.72, 
			 "cosmo_dispersion_energy": -20.95, 
			 "cosmo_repulsion_energy": 1.65, 
			 "cosmo_total_nonelectrostatic_energy": 9.42, 
			 "SMD_solvation_energy": 4.56 
		},
		"coords": [
			{
				"x": 3.4307790738,
				"y": -0.3460583521,
				"z": -3.3138510183,
				"element": "N" 
			},
			{
				"x": 2.8957654636,
				"y": -0.8447699746,
				"z": -2.4106303244,
				"element": "C" 
			},
			{
				"x": 2.2456907369,
				"y": -1.496202106,
				"z": -1.295073163,
				"element": "C" 
			},
			{
				"x": 1.4240472587,
				"y": -0.7289025447,
				"z": -0.5655478047,
				"element": "N" 
			},
			{
				"x": 0.7909751369,
				"y": -1.2870174546,
				"z": 0.4816587196,
				"element": "C" 
			},
			{
				"x": 0.9846932297,
				"y": -2.6548224128,
				"z": 0.8202871509,
				"element": "C" 
			},
			{
				"x": 1.8432123124,
				"y": -3.4177607722,
				"z": 0.047310662,
				"element": "C" 
			},
			{
				"x": 2.5030148191,
				"y": -2.8454059627,
				"z": -1.0450656646,
				"element": "C" 
			},
			{
				"x": -0.0498948198,
				"y": -0.4819526092,
				"z": 1.2081392616,
				"element": "N" 
			},
			{
				"x": -0.2636380683,
				"y": 0.9220500477,
				"z": 0.8649366146,
				"element": "C" 
			},
			{
				"x": -1.758118198,
				"y": 1.2492517317,
				"z": 0.883288944,
				"element": "C" 
			},
			{
				"x": -2.4418475396,
				"y": 0.7357031155,
				"z": 2.0346006689,
				"element": "O" 
			},
			{
				"x": -1.5933876379,
				"y": 0.1396633982,
				"z": 2.9957593996,
				"element": "C" 
			},
			{
				"x": -0.7593525525,
				"y": -0.9863193898,
				"z": 2.3820021934,
				"element": "C" 
			},
			{
				"x": 0.471708976,
				"y": -3.0996524653,
				"z": 1.6631903801,
				"element": "H" 
			},
			{
				"x": 2.0015496084,
				"y": -4.4639053812,
				"z": 0.2921941209,
				"element": "H" 
			},
			{
				"x": 3.182889133,
				"y": -3.4086966275,
				"z": -1.6722885874,
				"element": "H" 
			},
			{
				"x": 0.2843405159,
				"y": 1.5732139879,
				"z": 1.5603115413,
				"element": "H" 
			},
			{
				"x": 0.1467159355,
				"y": 1.0980621692,
				"z": -0.1288915205,
				"element": "H" 
			},
			{
				"x": -1.8901958771,
				"y": 2.3395328112,
				"z": 0.8423187122,
				"element": "H" 
			},
			{
				"x": -2.2434842879,
				"y": 0.8156522554,
				"z": 0.0005032349,
				"element": "H" 
			},
			{
				"x": -0.937398169,
				"y": 0.8821219592,
				"z": 3.4765458934,
				"element": "H" 
			},
			{
				"x": -2.2442531616,
				"y": -0.2719022679,
				"z": 3.7719449502,
				"element": "H" 
			},
			{
				"x": -0.0560548006,
				"y": -1.3734544583,
				"z": 3.1353581499,
				"element": "H" 
			},
			{
				"x": -1.4283570874,
				"y": -1.8104286972,
				"z": 2.0961974854,
				"element": "H" 
			}
		],
		 "valence_orbital": [ 
			{
				"type": "occ",
				"energy": -0.30757,
				"method": "rhf"
			},
			{
				"type": "occ",
				"energy": -0.28471,
				"method": "rhf"
			},
			{
				"type": "occ",
				"energy": -0.27827,
				"method": "rhf"
			},
			{
				"type": "occ",
				"energy": -0.26098,
				"method": "rhf"
			},
			{
				"type": "occ",
				"energy": -0.21729,
				"method": "rhf"
			},
			{
				"type": "unocc",
				"energy": -0.05535,
				"method": "rhf"
			},
			{
				"type": "unocc",
				"energy": -0.01559,
				"method": "rhf"
			},
			{
				"type": "unocc",
				"energy": 0.04022,
				"method": "rhf"
			},
			{
				"type": "unocc",
				"energy": 0.07464,
				"method": "rhf"
			},
			{
				"type": "unocc",
				"energy": 0.08308,
				"method": "rhf"
			}
		],
		"cosmo_sigma_profile": { 
			"-0.025": 0.0,
			"-0.024": 0.0,
			"-0.023": 0.0,
			"-0.022": 0.0,
			"-0.021": 0.0,
			"-0.02": 0.0,
			"-0.019": 0.0,
			"-0.018": 0.0,
			"-0.017": 0.0,
			"-0.016": 0.0,
			"-0.015": 0.0,
			"-0.014": 0.0,
			"-0.013": 0.0,
			"-0.012": 0.0,
			"-0.011": 0.0,
			"-0.01": 0.0,
			"-0.009": 0.0,
			"-0.008": 1.92746569092,
			"-0.007": 7.38311298911,
			"-0.006": 11.7831741676,
			"-0.005": 25.2552349087,
			"-0.004": 29.1464452456,
			"-0.003": 18.1267996877,
			"-0.002": 14.9426114881,
			"-0.001": 13.1253198561,
			"0.0": 13.7316835524,
			"0.001": 18.7964551301,
			"0.002": 14.2667021612,
			"0.003": 9.11341944222,
			"0.004": 6.88276558526,
			"0.005": 5.79196004817,
			"0.006": 6.05600054355,
			"0.007": 7.0393792283,
			"0.008": 5.935973287,
			"0.009": 5.33636384024,
			"0.01": 3.5276593671,
			"0.011": 3.87694630433,
			"0.012": 3.7039324974,
			"0.013": 2.67226343458,
			"0.014": 0.543022111313,
			"0.015": 0.0,
			"0.016": 0.0,
			"0.017": 0.0,
			"0.018": 0.0,
			"0.019": 0.0,
			"0.02": 0.0,
			"0.021": 0.0,
			"0.022": 0.0,
			"0.023": 0.0,
			"0.024": 0.0,
			"0.025": 0.0
		}
	}
}
