{
	 "smiles": "CC1=C(Br)C2=C(C=C1)N=CC=C2", 
	 "Tm": 318.15, 
	 "num_atms": 20, 
	 "gaussian": { 
		 "optdone": 1, 
		 "sigma_profile": "yes", 
		 "theory": "DFT", 
		 "functional": "B3LYP", 
		 "basiset": "6-31G**", 
		 "properties": { 
			 "R2extent": 2943.7351, 
			 "electric_dipole_moment_norm": 0.682284881849, 
			 "electric_quadrupole_moment_norm": 11.1411326525, 
			 "total_energy": -3012.05383533, 
			 "HOMO_LUMO_gap": 0.17004, 
			 "cosmo_polarized_energy": -5.92, 
			 "cosmo_cavitation_energy": 25.49, 
			 "cosmo_dispersion_energy": -19.53, 
			 "cosmo_repulsion_energy": 1.51, 
			 "cosmo_total_nonelectrostatic_energy": 7.48, 
			 "SMD_solvation_energy": 1.8 
		},
		"coords": [
			{
				"x": 1.6525450607,
				"y": 1.6729811443,
				"z": -0.5657165324,
				"element": "C" 
			},
			{
				"x": 1.3178838503,
				"y": 0.2401975467,
				"z": -0.237405933,
				"element": "C" 
			},
			{
				"x": 0.0474891881,
				"y": -0.1734558662,
				"z": 0.1236008586,
				"element": "C" 
			},
			{
				"x": -1.3567381242,
				"y": 1.1382244746,
				"z": 0.2107635779,
				"element": "Br" 
			},
			{
				"x": -0.2632352059,
				"y": -1.5280791008,
				"z": 0.4328188647,
				"element": "C" 
			},
			{
				"x": 0.795183076,
				"y": -2.4951707821,
				"z": 0.3631204861,
				"element": "C" 
			},
			{
				"x": 2.0958949149,
				"y": -2.0704342028,
				"z": -0.0068121913,
				"element": "C" 
			},
			{
				"x": 2.3385414975,
				"y": -0.7502944018,
				"z": -0.2944206407,
				"element": "C" 
			},
			{
				"x": 0.6047414255,
				"y": -3.8174800411,
				"z": 0.6394027088,
				"element": "N" 
			},
			{
				"x": -0.6043054809,
				"y": -4.2103358315,
				"z": 0.9830678643,
				"element": "C" 
			},
			{
				"x": -1.7174915287,
				"y": -3.3404429196,
				"z": 1.0823433343,
				"element": "C" 
			},
			{
				"x": -1.5459934403,
				"y": -2.0046665948,
				"z": 0.8078986392,
				"element": "C" 
			},
			{
				"x": 1.4399022921,
				"y": 2.3353444612,
				"z": 0.2800394013,
				"element": "H" 
			},
			{
				"x": 1.0569300614,
				"y": 2.0377521748,
				"z": -1.4091786457,
				"element": "H" 
			},
			{
				"x": 2.7096422302,
				"y": 1.7731236098,
				"z": -0.8230214723,
				"element": "H" 
			},
			{
				"x": 2.8780405051,
				"y": -2.8204941052,
				"z": -0.052068152,
				"element": "H" 
			},
			{
				"x": 3.338847765,
				"y": -0.4342162808,
				"z": -0.5770009798,
				"element": "H" 
			},
			{
				"x": -0.7268833462,
				"y": -5.2713858397,
				"z": 1.1979513219,
				"element": "H" 
			},
			{
				"x": -2.6874273389,
				"y": -3.7322876487,
				"z": 1.3715607776,
				"element": "H" 
			},
			{
				"x": -2.3748674017,
				"y": -1.3090797963,
				"z": 0.8733567123,
				"element": "H" 
			}
		],
		 "valence_orbital": [ 
			{
				"type": "occ",
				"energy": -0.29024,
				"method": "rhf"
			},
			{
				"type": "occ",
				"energy": -0.29021,
				"method": "rhf"
			},
			{
				"type": "occ",
				"energy": -0.25826,
				"method": "rhf"
			},
			{
				"type": "occ",
				"energy": -0.25415,
				"method": "rhf"
			},
			{
				"type": "occ",
				"energy": -0.2296,
				"method": "rhf"
			},
			{
				"type": "unocc",
				"energy": -0.05956,
				"method": "rhf"
			},
			{
				"type": "unocc",
				"energy": -0.0215,
				"method": "rhf"
			},
			{
				"type": "unocc",
				"energy": 0.00635,
				"method": "rhf"
			},
			{
				"type": "unocc",
				"energy": 0.01429,
				"method": "rhf"
			},
			{
				"type": "unocc",
				"energy": 0.08189,
				"method": "rhf"
			}
		],
		"cosmo_sigma_profile": { 
			"-0.025": 0.0,
			"-0.024": 0.0,
			"-0.023": 0.0,
			"-0.022": 0.0,
			"-0.021": 0.0,
			"-0.02": 0.0,
			"-0.019": 0.0,
			"-0.018": 0.0,
			"-0.017": 0.0,
			"-0.016": 0.0,
			"-0.015": 0.0,
			"-0.014": 0.0,
			"-0.013": 0.0,
			"-0.012": 0.0,
			"-0.011": 0.0,
			"-0.01": 0.0,
			"-0.009": 0.0,
			"-0.008": 0.137455893897,
			"-0.007": 4.26753904621,
			"-0.006": 11.6708828513,
			"-0.005": 12.8999811696,
			"-0.004": 13.1028945687,
			"-0.003": 14.3967507024,
			"-0.002": 14.7944358613,
			"-0.001": 17.3674067131,
			"0.0": 21.3533726528,
			"0.001": 26.558028266,
			"0.002": 28.3240907286,
			"0.003": 17.2900225098,
			"0.004": 10.6246698325,
			"0.005": 4.18339427536,
			"0.006": 1.25996993041,
			"0.007": 1.79443161537,
			"0.008": 1.393994851,
			"0.009": 0.389462780046,
			"0.01": 1.34186863701,
			"0.011": 0.668279621534,
			"0.012": 1.0191998281,
			"0.013": 0.860781588791,
			"0.014": 0.998293686033,
			"0.015": 0.573745298409,
			"0.016": 0.439977237425,
			"0.017": 0.00905217221261,
			"0.018": 0.0,
			"0.019": 0.0,
			"0.02": 0.0,
			"0.021": 0.0,
			"0.022": 0.0,
			"0.023": 0.0,
			"0.024": 0.0,
			"0.025": 0.0
		}
	}
}
