{
	 "smiles": "OC(=O)C1=CC=C(OC2CCCC2)C=C1", 
	 "Tm": 445.15, 
	 "num_atms": 29, 
	 "gaussian": { 
		 "optdone": 1, 
		 "sigma_profile": "yes", 
		 "theory": "DFT", 
		 "functional": "B3LYP", 
		 "basiset": "6-31G**", 
		 "properties": { 
			 "R2extent": 6537.9942, 
			 "electric_dipole_moment_norm": 6.67573642829, 
			 "electric_quadrupole_moment_norm": 37.1609026073, 
			 "total_energy": -691.397056704, 
			 "HOMO_LUMO_gap": 0.19542, 
			 "cosmo_polarized_energy": -15.41, 
			 "cosmo_cavitation_energy": 31.55, 
			 "cosmo_dispersion_energy": -23.28, 
			 "cosmo_repulsion_energy": 1.83, 
			 "cosmo_total_nonelectrostatic_energy": 10.11, 
			 "SMD_solvation_energy": 6.01 
		},
		"coords": [
			{
				"x": 2.5384419962,
				"y": 0.359061505,
				"z": -6.2938286367,
				"element": "O" 
			},
			{
				"x": 3.0061466694,
				"y": -0.5393469118,
				"z": -5.3805710974,
				"element": "C" 
			},
			{
				"x": 3.804275613,
				"y": -1.3806641498,
				"z": -5.7251396647,
				"element": "O" 
			},
			{
				"x": 2.4855621014,
				"y": -0.4180006601,
				"z": -3.9867651814,
				"element": "C" 
			},
			{
				"x": 1.8855170803,
				"y": 0.7406670367,
				"z": -3.48037695,
				"element": "C" 
			},
			{
				"x": 1.4286328858,
				"y": 0.8065826265,
				"z": -2.1640714447,
				"element": "C" 
			},
			{
				"x": 1.5748075904,
				"y": -0.3077977024,
				"z": -1.323826259,
				"element": "C" 
			},
			{
				"x": 1.1815110258,
				"y": -0.3627811962,
				"z": -0.0278684841,
				"element": "O" 
			},
			{
				"x": 0.5701250448,
				"y": 0.7868192374,
				"z": 0.5953729923,
				"element": "C" 
			},
			{
				"x": 0.5164111831,
				"y": 0.4714904916,
				"z": 2.0944201013,
				"element": "C" 
			},
			{
				"x": -0.76235276,
				"y": -0.3663342087,
				"z": 2.2446178853,
				"element": "C" 
			},
			{
				"x": -1.7664118707,
				"y": 0.3621997879,
				"z": 1.3286091697,
				"element": "C" 
			},
			{
				"x": -0.9134189739,
				"y": 0.9428600167,
				"z": 0.1644330061,
				"element": "C" 
			},
			{
				"x": 2.1873849456,
				"y": -1.4733142189,
				"z": -1.8220720229,
				"element": "C" 
			},
			{
				"x": 2.6425736038,
				"y": -1.5204252846,
				"z": -3.1277401293,
				"element": "C" 
			},
			{
				"x": 1.7878804126,
				"y": 0.8444680256,
				"z": -5.9254894435,
				"element": "H" 
			},
			{
				"x": 1.7946068876,
				"y": 1.6340057628,
				"z": -4.0944493196,
				"element": "H" 
			},
			{
				"x": 0.9707586349,
				"y": 1.72010652,
				"z": -1.806041613,
				"element": "H" 
			},
			{
				"x": 1.18125559,
				"y": 1.6692489519,
				"z": 0.374436649,
				"element": "H" 
			},
			{
				"x": 0.4180333683,
				"y": 1.4139081847,
				"z": 2.6476597607,
				"element": "H" 
			},
			{
				"x": 1.4290084275,
				"y": -0.0261187734,
				"z": 2.4325785039,
				"element": "H" 
			},
			{
				"x": -0.5773351589,
				"y": -1.3817779672,
				"z": 1.8773692577,
				"element": "H" 
			},
			{
				"x": -1.1074576082,
				"y": -0.4444233005,
				"z": 3.2797947032,
				"element": "H" 
			},
			{
				"x": -2.5650419787,
				"y": -0.2940851572,
				"z": 0.9715228121,
				"element": "H" 
			},
			{
				"x": -2.2467537939,
				"y": 1.1777197392,
				"z": 1.8812006376,
				"element": "H" 
			},
			{
				"x": -1.1545107123,
				"y": 1.9946583531,
				"z": -0.021824977,
				"element": "H" 
			},
			{
				"x": -1.0828100583,
				"y": 0.4072285777,
				"z": -0.7733702936,
				"element": "H" 
			},
			{
				"x": 2.2977147579,
				"y": -2.3212172692,
				"z": -1.1542758024,
				"element": "H" 
			},
			{
				"x": 3.1287450965,
				"y": -2.4091380167,
				"z": -3.5155041596,
				"element": "H" 
			}
		],
		 "valence_orbital": [ 
			{
				"type": "occ",
				"energy": -0.32154,
				"method": "rhf"
			},
			{
				"type": "occ",
				"energy": -0.30542,
				"method": "rhf"
			},
			{
				"type": "occ",
				"energy": -0.2688,
				"method": "rhf"
			},
			{
				"type": "occ",
				"energy": -0.26399,
				"method": "rhf"
			},
			{
				"type": "occ",
				"energy": -0.23322,
				"method": "rhf"
			},
			{
				"type": "unocc",
				"energy": -0.0378,
				"method": "rhf"
			},
			{
				"type": "unocc",
				"energy": -0.01762,
				"method": "rhf"
			},
			{
				"type": "unocc",
				"energy": 0.05779,
				"method": "rhf"
			},
			{
				"type": "unocc",
				"energy": 0.06404,
				"method": "rhf"
			},
			{
				"type": "unocc",
				"energy": 0.07045,
				"method": "rhf"
			}
		],
		"cosmo_sigma_profile": { 
			"-0.025": 0.0,
			"-0.024": 0.0,
			"-0.023": 0.0,
			"-0.022": 0.0,
			"-0.021": 0.0,
			"-0.02": 0.0,
			"-0.019": 0.00459993881899,
			"-0.018": 0.863997603299,
			"-0.017": 0.821080984663,
			"-0.016": 0.651746678882,
			"-0.015": 1.20949599634,
			"-0.014": 1.05050874953,
			"-0.013": 0.971233394297,
			"-0.012": 0.885766664756,
			"-0.011": 1.31037988626,
			"-0.01": 1.27064608313,
			"-0.009": 1.17366524132,
			"-0.008": 1.97846775527,
			"-0.007": 3.99039177264,
			"-0.006": 7.90970873543,
			"-0.005": 9.78974399021,
			"-0.004": 15.3099847968,
			"-0.003": 22.5188035939,
			"-0.002": 25.7829761981,
			"-0.001": 27.0243380044,
			"0.0": 25.2449099104,
			"0.001": 20.5632867251,
			"0.002": 14.9046810485,
			"0.003": 15.9890532161,
			"0.004": 10.577304775,
			"0.005": 3.76400465092,
			"0.006": 3.96928270933,
			"0.007": 4.58784110945,
			"0.008": 2.63872370688,
			"0.009": 3.66948809326,
			"0.01": 4.38785957934,
			"0.011": 4.88023499122,
			"0.012": 6.05794507531,
			"0.013": 2.60045468921,
			"0.014": 0.473381857931,
			"0.015": 0.0,
			"0.016": 0.0,
			"0.017": 0.0,
			"0.018": 0.0,
			"0.019": 0.0,
			"0.02": 0.0,
			"0.021": 0.0,
			"0.022": 0.0,
			"0.023": 0.0,
			"0.024": 0.0,
			"0.025": 0.0
		}
	}
}
