{
	 "smiles": "OC(=O)CN1CSCC1=O", 
	 "Tm": 445.15, 
	 "num_atms": 17, 
	 "gaussian": { 
		 "optdone": 1, 
		 "sigma_profile": "yes", 
		 "theory": "DFT", 
		 "functional": "B3LYP", 
		 "basiset": "6-31G**", 
		 "properties": { 
			 "R2extent": 2012.9716, 
			 "electric_dipole_moment_norm": 4.11656656693, 
			 "electric_quadrupole_moment_norm": 14.2812659715, 
			 "total_energy": -873.377937269, 
			 "HOMO_LUMO_gap": 0.2327, 
			 "cosmo_polarized_energy": -15.76, 
			 "cosmo_cavitation_energy": 22.2, 
			 "cosmo_dispersion_energy": -17.13, 
			 "cosmo_repulsion_energy": 1.35, 
			 "cosmo_total_nonelectrostatic_energy": 6.41, 
			 "SMD_solvation_energy": 4.63 
		},
		"coords": [
			{
				"x": -2.3064908451,
				"y": 1.49321685,
				"z": 0.7906015634,
				"element": "O" 
			},
			{
				"x": -2.0508730443,
				"y": 1.4677952702,
				"z": -0.524302302,
				"element": "C" 
			},
			{
				"x": -2.8526607474,
				"y": 1.8262920434,
				"z": -1.352872367,
				"element": "O" 
			},
			{
				"x": -0.6440808943,
				"y": 0.9645396078,
				"z": -0.9069237816,
				"element": "C" 
			},
			{
				"x": -0.377010082,
				"y": -0.4175066701,
				"z": -0.4992093359,
				"element": "N" 
			},
			{
				"x": -0.5077146503,
				"y": -1.5132346802,
				"z": -1.4458146836,
				"element": "C" 
			},
			{
				"x": 0.2553732275,
				"y": -2.9829975819,
				"z": -0.6280705792,
				"element": "S" 
			},
			{
				"x": 0.1695221054,
				"y": -2.1889538382,
				"z": 1.0210463505,
				"element": "C" 
			},
			{
				"x": -0.1220449464,
				"y": -0.713145439,
				"z": 0.8002593333,
				"element": "C" 
			},
			{
				"x": -0.1464145178,
				"y": 0.1210999515,
				"z": 1.7097980648,
				"element": "O" 
			},
			{
				"x": -1.5272350105,
				"y": 1.1633193054,
				"z": 1.2983458777,
				"element": "H" 
			},
			{
				"x": -0.5433705928,
				"y": 1.0398717925,
				"z": -1.9890298668,
				"element": "H" 
			},
			{
				"x": 0.1062120471,
				"y": 1.6047894205,
				"z": -0.4291679773,
				"element": "H" 
			},
			{
				"x": 0.0413715974,
				"y": -1.2955106066,
				"z": -2.3658113838,
				"element": "H" 
			},
			{
				"x": -1.558716981,
				"y": -1.7017642093,
				"z": -1.6916278077,
				"element": "H" 
			},
			{
				"x": -0.6203720253,
				"y": -2.6170463408,
				"z": 1.6453890658,
				"element": "H" 
			},
			{
				"x": 1.1201053597,
				"y": -2.2950648753,
				"z": 1.5474898293,
				"element": "H" 
			}
		],
		 "valence_orbital": [ 
			{
				"type": "occ",
				"energy": -0.31193,
				"method": "rhf"
			},
			{
				"type": "occ",
				"energy": -0.30601,
				"method": "rhf"
			},
			{
				"type": "occ",
				"energy": -0.29012,
				"method": "rhf"
			},
			{
				"type": "occ",
				"energy": -0.26302,
				"method": "rhf"
			},
			{
				"type": "occ",
				"energy": -0.25444,
				"method": "rhf"
			},
			{
				"type": "unocc",
				"energy": -0.02174,
				"method": "rhf"
			},
			{
				"type": "unocc",
				"energy": -0.00941,
				"method": "rhf"
			},
			{
				"type": "unocc",
				"energy": 0.00664,
				"method": "rhf"
			},
			{
				"type": "unocc",
				"energy": 0.03066,
				"method": "rhf"
			},
			{
				"type": "unocc",
				"energy": 0.08444,
				"method": "rhf"
			}
		],
		"cosmo_sigma_profile": { 
			"-0.025": 0.0,
			"-0.024": 0.0,
			"-0.023": 0.0,
			"-0.022": 0.0,
			"-0.021": 0.0,
			"-0.02": 0.0,
			"-0.019": 0.0,
			"-0.018": 0.0,
			"-0.017": 0.0,
			"-0.016": 0.0,
			"-0.015": 0.0,
			"-0.014": 0.0,
			"-0.013": 0.0,
			"-0.012": 0.0,
			"-0.011": 0.0,
			"-0.01": 1.00710618499,
			"-0.009": 4.77593855033,
			"-0.008": 14.0216379694,
			"-0.007": 16.5028094806,
			"-0.006": 15.0157493646,
			"-0.005": 14.0866957693,
			"-0.004": 10.8980581252,
			"-0.003": 7.73150685198,
			"-0.002": 7.79866414768,
			"-0.001": 5.90890531598,
			"0.0": 5.20474677502,
			"0.001": 5.60891300954,
			"0.002": 5.8571260412,
			"0.003": 6.5453104002,
			"0.004": 5.57291862776,
			"0.005": 5.7856741786,
			"0.006": 4.82086610669,
			"0.007": 5.94033637434,
			"0.008": 4.91403983169,
			"0.009": 6.17840607374,
			"0.01": 6.84367456116,
			"0.011": 8.01753771768,
			"0.012": 6.88660630384,
			"0.013": 2.40527121363,
			"0.014": 0.0303171208437,
			"0.015": 0.0,
			"0.016": 0.0,
			"0.017": 0.0,
			"0.018": 0.0,
			"0.019": 0.0,
			"0.02": 0.0,
			"0.021": 0.0,
			"0.022": 0.0,
			"0.023": 0.0,
			"0.024": 0.0,
			"0.025": 0.0
		}
	}
}
