{
	 "smiles": "CC(=O)C1=CC=C(C=C1)C1=CC=C(O1)C(O)=O", 
	 "Tm": 493.15, 
	 "num_atms": 27, 
	 "gaussian": { 
		 "optdone": 1, 
		 "sigma_profile": "yes", 
		 "theory": "DFT", 
		 "functional": "B3LYP", 
		 "basiset": "6-31G**", 
		 "properties": { 
			 "R2extent": 6326.6402, 
			 "electric_dipole_moment_norm": 7.47984471831, 
			 "electric_quadrupole_moment_norm": 14.4704131641, 
			 "total_energy": -802.298604197, 
			 "HOMO_LUMO_gap": 0.15033, 
			 "cosmo_polarized_energy": -22.83, 
			 "cosmo_cavitation_energy": 33.01, 
			 "cosmo_dispersion_energy": -23.81, 
			 "cosmo_repulsion_energy": 1.81, 
			 "cosmo_total_nonelectrostatic_energy": 11.02, 
			 "SMD_solvation_energy": 7.96 
		},
		"coords": [
			{
				"x": 4.195995124,
				"y": -1.9416752852,
				"z": -2.5493748703,
				"element": "C" 
			},
			{
				"x": 3.8948430786,
				"y": -1.5620590121,
				"z": -1.109280727,
				"element": "C" 
			},
			{
				"x": 4.7689642202,
				"y": -1.6097293811,
				"z": -0.257045016,
				"element": "O" 
			},
			{
				"x": 2.5055245508,
				"y": -1.1272861207,
				"z": -0.749824351,
				"element": "C" 
			},
			{
				"x": 2.2410570646,
				"y": -0.7794573318,
				"z": 0.5846088026,
				"element": "C" 
			},
			{
				"x": 0.9752647993,
				"y": -0.3695223309,
				"z": 0.9778404763,
				"element": "C" 
			},
			{
				"x": -0.0708489381,
				"y": -0.2955742666,
				"z": 0.0375827748,
				"element": "C" 
			},
			{
				"x": 0.1912273527,
				"y": -0.643398184,
				"z": -1.2995570196,
				"element": "C" 
			},
			{
				"x": 1.4618157386,
				"y": -1.0531251379,
				"z": -1.6857718515,
				"element": "C" 
			},
			{
				"x": -1.4030584831,
				"y": 0.1337219805,
				"z": 0.4406533683,
				"element": "C" 
			},
			{
				"x": -2.5910776471,
				"y": 0.299085464,
				"z": -0.2394126972,
				"element": "C" 
			},
			{
				"x": -3.5423070897,
				"y": 0.7448103338,
				"z": 0.7137946685,
				"element": "C" 
			},
			{
				"x": -2.8844380562,
				"y": 0.8264325606,
				"z": 1.9186034517,
				"element": "C" 
			},
			{
				"x": -1.5842003359,
				"y": 0.4544893553,
				"z": 1.7500483709,
				"element": "O" 
			},
			{
				"x": -3.270926078,
				"y": 1.2132296212,
				"z": 3.2887496541,
				"element": "C" 
			},
			{
				"x": -4.5711640617,
				"y": 1.583620302,
				"z": 3.4486282455,
				"element": "O" 
			},
			{
				"x": -2.509669498,
				"y": 1.2115595211,
				"z": 4.2248817323,
				"element": "O" 
			},
			{
				"x": 5.2454729494,
				"y": -2.227874828,
				"z": -2.6216313066,
				"element": "H" 
			},
			{
				"x": 3.5682641545,
				"y": -2.7783783259,
				"z": -2.8756148641,
				"element": "H" 
			},
			{
				"x": 4.0009458123,
				"y": -1.1029421205,
				"z": -3.2268909007,
				"element": "H" 
			},
			{
				"x": 3.0547991271,
				"y": -0.84041502,
				"z": 1.2992657945,
				"element": "H" 
			},
			{
				"x": 0.7817918562,
				"y": -0.1031458322,
				"z": 2.0110210235,
				"element": "H" 
			},
			{
				"x": -0.601506396,
				"y": -0.5931720234,
				"z": -2.0394122498,
				"element": "H" 
			},
			{
				"x": 1.6360140501,
				"y": -1.3156010598,
				"z": -2.7240529526,
				"element": "H" 
			},
			{
				"x": -2.7628899458,
				"y": 0.1236362894,
				"z": -1.2908726239,
				"element": "H" 
			},
			{
				"x": -4.5812854567,
				"y": 0.9722538546,
				"z": 0.514930968,
				"element": "H" 
			},
			{
				"x": -5.054807892,
				"y": 1.5343169774,
				"z": 2.6127320994,
				"element": "H" 
			}
		],
		 "valence_orbital": [ 
			{
				"type": "occ",
				"energy": -0.29657,
				"method": "rhf"
			},
			{
				"type": "occ",
				"energy": -0.28052,
				"method": "rhf"
			},
			{
				"type": "occ",
				"energy": -0.27143,
				"method": "rhf"
			},
			{
				"type": "occ",
				"energy": -0.25328,
				"method": "rhf"
			},
			{
				"type": "occ",
				"energy": -0.23325,
				"method": "rhf"
			},
			{
				"type": "unocc",
				"energy": -0.08292,
				"method": "rhf"
			},
			{
				"type": "unocc",
				"energy": -0.04028,
				"method": "rhf"
			},
			{
				"type": "unocc",
				"energy": -0.01992,
				"method": "rhf"
			},
			{
				"type": "unocc",
				"energy": 0.00801,
				"method": "rhf"
			},
			{
				"type": "unocc",
				"energy": 0.04412,
				"method": "rhf"
			}
		],
		"cosmo_sigma_profile": { 
			"-0.025": 0.0,
			"-0.024": 0.0,
			"-0.023": 0.0,
			"-0.022": 0.0,
			"-0.021": 0.0,
			"-0.02": 0.0500838476391,
			"-0.019": 0.985393849547,
			"-0.018": 1.13961555324,
			"-0.017": 1.21259886153,
			"-0.016": 0.930968952627,
			"-0.015": 1.06770502606,
			"-0.014": 0.772654997471,
			"-0.013": 1.24548465615,
			"-0.012": 1.50931219187,
			"-0.011": 1.31323009173,
			"-0.01": 1.6772428858,
			"-0.009": 3.64045078127,
			"-0.008": 4.64300268747,
			"-0.007": 8.07750754277,
			"-0.006": 16.4635882018,
			"-0.005": 16.336893397,
			"-0.004": 14.3512892677,
			"-0.003": 14.762328017,
			"-0.002": 17.2098902116,
			"-0.001": 19.6890327014,
			"0.0": 22.7960709728,
			"0.001": 19.9091517827,
			"0.002": 20.5089650319,
			"0.003": 17.9896642353,
			"0.004": 4.45460847144,
			"0.005": 4.91017612037,
			"0.006": 4.14830782848,
			"0.007": 4.16120267524,
			"0.008": 4.43067722933,
			"0.009": 5.58487055104,
			"0.01": 7.21116801282,
			"0.011": 8.82141275132,
			"0.012": 9.70760343555,
			"0.013": 3.23454086767,
			"0.014": 0.187239557321,
			"0.015": 0.0,
			"0.016": 0.0,
			"0.017": 0.0,
			"0.018": 0.0,
			"0.019": 0.0,
			"0.02": 0.0,
			"0.021": 0.0,
			"0.022": 0.0,
			"0.023": 0.0,
			"0.024": 0.0,
			"0.025": 0.0
		}
	}
}
