{
	 "smiles": "OC(=O)C1=CC=C2CCCCC2=C1", 
	 "Tm": 429.15, 
	 "num_atms": 25, 
	 "gaussian": { 
		 "optdone": 1, 
		 "sigma_profile": "yes", 
		 "theory": "DFT", 
		 "functional": "B3LYP", 
		 "basiset": "6-31G**", 
		 "properties": { 
			 "R2extent": 3725.5608, 
			 "electric_dipole_moment_norm": 5.73436115012, 
			 "electric_quadrupole_moment_norm": 21.5484771515, 
			 "total_energy": -576.880128184, 
			 "HOMO_LUMO_gap": 0.20393, 
			 "cosmo_polarized_energy": -13.35, 
			 "cosmo_cavitation_energy": 27.31, 
			 "cosmo_dispersion_energy": -20.48, 
			 "cosmo_repulsion_energy": 1.61, 
			 "cosmo_total_nonelectrostatic_energy": 8.45, 
			 "SMD_solvation_energy": 4.88 
		},
		"coords": [
			{
				"x": -4.2416629286,
				"y": -0.2009068877,
				"z": -2.2657742492,
				"element": "O" 
			},
			{
				"x": -3.2489558555,
				"y": -1.0704193047,
				"z": -2.603786077,
				"element": "C" 
			},
			{
				"x": -3.5196238781,
				"y": -2.0924348117,
				"z": -3.1902729775,
				"element": "O" 
			},
			{
				"x": -1.8550750556,
				"y": -0.6852244933,
				"z": -2.2156732838,
				"element": "C" 
			},
			{
				"x": -0.7920490832,
				"y": -1.3077134293,
				"z": -2.8848037757,
				"element": "C" 
			},
			{
				"x": 0.5151703497,
				"y": -0.978066427,
				"z": -2.5563587417,
				"element": "C" 
			},
			{
				"x": 0.8075898237,
				"y": -0.0438407373,
				"z": -1.5495254504,
				"element": "C" 
			},
			{
				"x": 2.2543211784,
				"y": 0.3062548848,
				"z": -1.2505981571,
				"element": "C" 
			},
			{
				"x": 2.4497720304,
				"y": 0.9933601097,
				"z": 0.1067763583,
				"element": "C" 
			},
			{
				"x": 1.4196243685,
				"y": 2.1131176458,
				"z": 0.2905341153,
				"element": "C" 
			},
			{
				"x": -0.0008471823,
				"y": 1.5342765726,
				"z": 0.289339089,
				"element": "C" 
			},
			{
				"x": -0.2533846044,
				"y": 0.5646157231,
				"z": -0.8534229469,
				"element": "C" 
			},
			{
				"x": -1.5690943836,
				"y": 0.2353930767,
				"z": -1.2021314914,
				"element": "C" 
			},
			{
				"x": -3.8586324049,
				"y": 0.6314887814,
				"z": -1.9565110916,
				"element": "H" 
			},
			{
				"x": -1.0166406835,
				"y": -2.0388247797,
				"z": -3.6537258398,
				"element": "H" 
			},
			{
				"x": 1.3368455016,
				"y": -1.4547002956,
				"z": -3.085801675,
				"element": "H" 
			},
			{
				"x": 2.6190633745,
				"y": 0.9742215672,
				"z": -2.0450580368,
				"element": "H" 
			},
			{
				"x": 2.869650489,
				"y": -0.5987349608,
				"z": -1.3174993505,
				"element": "H" 
			},
			{
				"x": 3.4700344098,
				"y": 1.3853510056,
				"z": 0.180575048,
				"element": "H" 
			},
			{
				"x": 2.3343190484,
				"y": 0.2583972922,
				"z": 0.9146955098,
				"element": "H" 
			},
			{
				"x": 1.5970770527,
				"y": 2.6577605433,
				"z": 1.2243067564,
				"element": "H" 
			},
			{
				"x": 1.5248594231,
				"y": 2.8410299857,
				"z": -0.5252574199,
				"element": "H" 
			},
			{
				"x": -0.1705963928,
				"y": 1.0064376,
				"z": 1.2393074327,
				"element": "H" 
			},
			{
				"x": -0.7436176741,
				"y": 2.3405469457,
				"z": 0.2586611572,
				"element": "H" 
			},
			{
				"x": -2.3753469232,
				"y": 0.6894143933,
				"z": -0.6272949023,
				"element": "H" 
			}
		],
		 "valence_orbital": [ 
			{
				"type": "occ",
				"energy": -0.32412,
				"method": "rhf"
			},
			{
				"type": "occ",
				"energy": -0.30928,
				"method": "rhf"
			},
			{
				"type": "occ",
				"energy": -0.26832,
				"method": "rhf"
			},
			{
				"type": "occ",
				"energy": -0.25955,
				"method": "rhf"
			},
			{
				"type": "occ",
				"energy": -0.24812,
				"method": "rhf"
			},
			{
				"type": "unocc",
				"energy": -0.04419,
				"method": "rhf"
			},
			{
				"type": "unocc",
				"energy": -0.01668,
				"method": "rhf"
			},
			{
				"type": "unocc",
				"energy": 0.04989,
				"method": "rhf"
			},
			{
				"type": "unocc",
				"energy": 0.06798,
				"method": "rhf"
			},
			{
				"type": "unocc",
				"energy": 0.08432,
				"method": "rhf"
			}
		],
		"cosmo_sigma_profile": { 
			"-0.025": 0.0,
			"-0.024": 0.0,
			"-0.023": 0.0,
			"-0.022": 0.0,
			"-0.021": 0.0,
			"-0.02": 0.0,
			"-0.019": 0.0189491540821,
			"-0.018": 0.633230459134,
			"-0.017": 0.640596401723,
			"-0.016": 1.3176110814,
			"-0.015": 0.883442597995,
			"-0.014": 0.637155308813,
			"-0.013": 0.743707817527,
			"-0.012": 0.866961179529,
			"-0.011": 1.52096088517,
			"-0.01": 1.13457561354,
			"-0.009": 1.16829661146,
			"-0.008": 1.50183225175,
			"-0.007": 1.37071933894,
			"-0.006": 3.31250099072,
			"-0.005": 6.34364197938,
			"-0.004": 14.503094707,
			"-0.003": 22.9453663003,
			"-0.002": 29.8679422103,
			"-0.001": 28.0453454745,
			"0.0": 22.5614332375,
			"0.001": 12.3369594543,
			"0.002": 9.10181632089,
			"0.003": 8.98369105386,
			"0.004": 11.7355378133,
			"0.005": 4.34057327007,
			"0.006": 2.84241877503,
			"0.007": 1.99214388976,
			"0.008": 2.87291826637,
			"0.009": 3.30724502773,
			"0.01": 3.83447526713,
			"0.011": 5.6409416126,
			"0.012": 5.62256318092,
			"0.013": 2.2954434087,
			"0.014": 0.198088814422,
			"0.015": 0.0,
			"0.016": 0.0,
			"0.017": 0.0,
			"0.018": 0.0,
			"0.019": 0.0,
			"0.02": 0.0,
			"0.021": 0.0,
			"0.022": 0.0,
			"0.023": 0.0,
			"0.024": 0.0,
			"0.025": 0.0
		}
	}
}
