{
	 "smiles": "CC1CCC2=CC=C(CCC(C)=O)C=C2N1", 
	 "Tm": 327.15, 
	 "num_atms": 35, 
	 "gaussian": { 
		 "optdone": 1, 
		 "sigma_profile": "yes", 
		 "theory": "DFT", 
		 "functional": "B3LYP", 
		 "basiset": "6-31G**", 
		 "properties": { 
			 "R2extent": 5314.799, 
			 "electric_dipole_moment_norm": 3.38401854605, 
			 "electric_quadrupole_moment_norm": 14.7518129645, 
			 "total_energy": -674.942263425, 
			 "HOMO_LUMO_gap": 0.17354, 
			 "cosmo_polarized_energy": -11.54, 
			 "cosmo_cavitation_energy": 36.06, 
			 "cosmo_dispersion_energy": -25.61, 
			 "cosmo_repulsion_energy": 2.02, 
			 "cosmo_total_nonelectrostatic_energy": 12.47, 
			 "SMD_solvation_energy": 5.08 
		},
		"coords": [
			{
				"x": 0.0309696919,
				"y": 4.5615192391,
				"z": 2.3056437118,
				"element": "C" 
			},
			{
				"x": 0.9485674443,
				"y": 3.3269830494,
				"z": 2.3602494526,
				"element": "C" 
			},
			{
				"x": 0.6080318073,
				"y": 2.3706528947,
				"z": 3.5154535419,
				"element": "C" 
			},
			{
				"x": -0.7582610461,
				"y": 1.7015511513,
				"z": 3.3084211246,
				"element": "C" 
			},
			{
				"x": -0.915145155,
				"y": 1.1618562312,
				"z": 1.9004493802,
				"element": "C" 
			},
			{
				"x": -1.885164017,
				"y": 0.2053512576,
				"z": 1.5896996297,
				"element": "C" 
			},
			{
				"x": -2.0701082382,
				"y": -0.2731951704,
				"z": 0.2940847397,
				"element": "C" 
			},
			{
				"x": -1.2592986654,
				"y": 0.2077493412,
				"z": -0.7447781039,
				"element": "C" 
			},
			{
				"x": -1.4076897493,
				"y": -0.3095020664,
				"z": -2.1624557887,
				"element": "C" 
			},
			{
				"x": -0.5671237488,
				"y": -1.5683866728,
				"z": -2.4445117134,
				"element": "C" 
			},
			{
				"x": -1.1641201812,
				"y": -2.8614212344,
				"z": -1.8944348566,
				"element": "C" 
			},
			{
				"x": -0.2097255248,
				"y": -4.0326382687,
				"z": -1.7462241838,
				"element": "C" 
			},
			{
				"x": -2.3436136148,
				"y": -2.9615228535,
				"z": -1.6110004626,
				"element": "O" 
			},
			{
				"x": -0.2814692213,
				"y": 1.1586216213,
				"z": -0.44672388,
				"element": "C" 
			},
			{
				"x": -0.091045026,
				"y": 1.6434212037,
				"z": 0.8597824181,
				"element": "C" 
			},
			{
				"x": 0.9381362009,
				"y": 2.5521123632,
				"z": 1.119457923,
				"element": "N" 
			},
			{
				"x": -1.0102051752,
				"y": 4.2779953947,
				"z": 2.1250204763,
				"element": "H" 
			},
			{
				"x": 0.3367725436,
				"y": 5.2335321817,
				"z": 1.4960502731,
				"element": "H" 
			},
			{
				"x": 0.0769666976,
				"y": 5.126435204,
				"z": 3.2437621271,
				"element": "H" 
			},
			{
				"x": 1.9791088266,
				"y": 3.677541502,
				"z": 2.5039540883,
				"element": "H" 
			},
			{
				"x": 1.3887719173,
				"y": 1.602954475,
				"z": 3.5613660949,
				"element": "H" 
			},
			{
				"x": 0.6295689327,
				"y": 2.9162665671,
				"z": 4.4649813529,
				"element": "H" 
			},
			{
				"x": -1.558621763,
				"y": 2.4248845915,
				"z": 3.5205611832,
				"element": "H" 
			},
			{
				"x": -0.8904098993,
				"y": 0.8927583162,
				"z": 4.036923185,
				"element": "H" 
			},
			{
				"x": -2.5197654993,
				"y": -0.1680363627,
				"z": 2.3913593697,
				"element": "H" 
			},
			{
				"x": -2.8289950176,
				"y": -1.0188464706,
				"z": 0.0826169653,
				"element": "H" 
			},
			{
				"x": -1.1065897261,
				"y": 0.4730927396,
				"z": -2.8676979073,
				"element": "H" 
			},
			{
				"x": -2.4556885288,
				"y": -0.5481606402,
				"z": -2.3673093678,
				"element": "H" 
			},
			{
				"x": 0.4579354242,
				"y": -1.4501535078,
				"z": -2.0724217303,
				"element": "H" 
			},
			{
				"x": -0.4727360014,
				"y": -1.7238161527,
				"z": -3.5307292058,
				"element": "H" 
			},
			{
				"x": 0.4684494608,
				"y": -3.8403372358,
				"z": -0.9056413047,
				"element": "H" 
			},
			{
				"x": 0.4147405949,
				"y": -4.1528554816,
				"z": -2.638456565,
				"element": "H" 
			},
			{
				"x": -0.7693047261,
				"y": -4.9487946467,
				"z": -1.5519621438,
				"element": "H" 
			},
			{
				"x": 0.3558230632,
				"y": 1.540638829,
				"z": -1.2436421729,
				"element": "H" 
			},
			{
				"x": 1.2598379197,
				"y": 3.0570486108,
				"z": 0.3043523491,
				"element": "H" 
			}
		],
		 "valence_orbital": [ 
			{
				"type": "occ",
				"energy": -0.30921,
				"method": "rhf"
			},
			{
				"type": "occ",
				"energy": -0.27811,
				"method": "rhf"
			},
			{
				"type": "occ",
				"energy": -0.24225,
				"method": "rhf"
			},
			{
				"type": "occ",
				"energy": -0.22275,
				"method": "rhf"
			},
			{
				"type": "occ",
				"energy": -0.18199,
				"method": "rhf"
			},
			{
				"type": "unocc",
				"energy": -0.00845,
				"method": "rhf"
			},
			{
				"type": "unocc",
				"energy": 0.01138,
				"method": "rhf"
			},
			{
				"type": "unocc",
				"energy": 0.03007,
				"method": "rhf"
			},
			{
				"type": "unocc",
				"energy": 0.07759,
				"method": "rhf"
			},
			{
				"type": "unocc",
				"energy": 0.09468,
				"method": "rhf"
			}
		],
		"cosmo_sigma_profile": { 
			"-0.025": 0.0,
			"-0.024": 0.0,
			"-0.023": 0.0,
			"-0.022": 0.0,
			"-0.021": 0.0,
			"-0.02": 0.0,
			"-0.019": 0.0,
			"-0.018": 0.0,
			"-0.017": 0.0,
			"-0.016": 0.0,
			"-0.015": 0.0,
			"-0.014": 0.0,
			"-0.013": 0.0,
			"-0.012": 0.392497509203,
			"-0.011": 1.25188844563,
			"-0.01": 1.28254372416,
			"-0.009": 0.831752463572,
			"-0.008": 1.72935310076,
			"-0.007": 1.6435711291,
			"-0.006": 8.78335003762,
			"-0.005": 13.1518294564,
			"-0.004": 19.0716408987,
			"-0.003": 34.2130301806,
			"-0.002": 37.1972941388,
			"-0.001": 37.9753296916,
			"0.0": 28.8328097938,
			"0.001": 19.5654873203,
			"0.002": 10.7779463625,
			"0.003": 8.63293100626,
			"0.004": 8.55513304348,
			"0.005": 7.74176137072,
			"0.006": 9.45541699312,
			"0.007": 9.09563876481,
			"0.008": 7.29958608519,
			"0.009": 2.70624748303,
			"0.01": 1.9959776377,
			"0.011": 2.94525020542,
			"0.012": 4.12209935136,
			"0.013": 1.7725985176,
			"0.014": 0.290550739546,
			"0.015": 0.0,
			"0.016": 0.0,
			"0.017": 0.0,
			"0.018": 0.0,
			"0.019": 0.0,
			"0.02": 0.0,
			"0.021": 0.0,
			"0.022": 0.0,
			"0.023": 0.0,
			"0.024": 0.0,
			"0.025": 0.0
		}
	}
}
