{
	 "smiles": "CC(=O)N1CCC2=C1C=C(C=C2)S(Cl)(=O)=O", 
	 "Tm": 418.15, 
	 "num_atms": 26, 
	 "gaussian": { 
		 "optdone": 1, 
		 "sigma_profile": "yes", 
		 "theory": "DFT", 
		 "functional": "B3LYP", 
		 "basiset": "6-31G**", 
		 "properties": { 
			 "R2extent": 6367.7161, 
			 "electric_dipole_moment_norm": 9.68438884701, 
			 "electric_quadrupole_moment_norm": 21.9275598615, 
			 "total_energy": -1525.84645187, 
			 "HOMO_LUMO_gap": 0.15536, 
			 "cosmo_polarized_energy": -17.7, 
			 "cosmo_cavitation_energy": 32.95, 
			 "cosmo_dispersion_energy": -24.45, 
			 "cosmo_repulsion_energy": 1.86, 
			 "cosmo_total_nonelectrostatic_energy": 10.36, 
			 "SMD_solvation_energy": 4.32 
		},
		"coords": [
			{
				"x": -0.8047068691,
				"y": -3.2911932804,
				"z": -1.2124624513,
				"element": "C" 
			},
			{
				"x": -0.5155307403,
				"y": -2.3036160764,
				"z": -0.0957313725,
				"element": "C" 
			},
			{
				"x": -0.2634360047,
				"y": -2.6673377942,
				"z": 1.0443328904,
				"element": "O" 
			},
			{
				"x": -0.5454258468,
				"y": -0.9635655457,
				"z": -0.4481682476,
				"element": "N" 
			},
			{
				"x": -0.9102808524,
				"y": -0.4523560261,
				"z": -1.7899698169,
				"element": "C" 
			},
			{
				"x": -0.6141643568,
				"y": 1.0663125519,
				"z": -1.7313058338,
				"element": "C" 
			},
			{
				"x": -0.4090752517,
				"y": 1.3308995138,
				"z": -0.258599396,
				"element": "C" 
			},
			{
				"x": -0.3450743084,
				"y": 0.1125820202,
				"z": 0.438959081,
				"element": "C" 
			},
			{
				"x": -0.1198454351,
				"y": 0.0793085719,
				"z": 1.8161480557,
				"element": "C" 
			},
			{
				"x": 0.0273942859,
				"y": 1.3188801318,
				"z": 2.4466041276,
				"element": "C" 
			},
			{
				"x": -0.0374614016,
				"y": 2.5453325703,
				"z": 1.7855060982,
				"element": "C" 
			},
			{
				"x": -0.2601051862,
				"y": 2.5412303085,
				"z": 0.4052074023,
				"element": "C" 
			},
			{
				"x": 0.3013925468,
				"y": 1.3325875937,
				"z": 4.2133200225,
				"element": "S" 
			},
			{
				"x": 2.4336682494,
				"y": 1.1801911967,
				"z": 4.3081048484,
				"element": "Cl" 
			},
			{
				"x": -0.2171466314,
				"y": 0.1064154015,
				"z": 4.8046325625,
				"element": "O" 
			},
			{
				"x": -0.0289947291,
				"y": 2.6505763283,
				"z": 4.7432850616,
				"element": "O" 
			},
			{
				"x": -1.7779736767,
				"y": -3.1060015346,
				"z": -1.6791177951,
				"element": "H" 
			},
			{
				"x": -0.7976027868,
				"y": -4.2905546152,
				"z": -0.778959918,
				"element": "H" 
			},
			{
				"x": -0.0440386689,
				"y": -3.2381804639,
				"z": -1.9990551143,
				"element": "H" 
			},
			{
				"x": -1.972460949,
				"y": -0.6418250357,
				"z": -1.985614778,
				"element": "H" 
			},
			{
				"x": -0.3297788399,
				"y": -0.9569852583,
				"z": -2.565273222,
				"element": "H" 
			},
			{
				"x": 0.291762914,
				"y": 1.3163554303,
				"z": -2.296283195,
				"element": "H" 
			},
			{
				"x": -1.4313928701,
				"y": 1.655187316,
				"z": -2.1577557358,
				"element": "H" 
			},
			{
				"x": -0.0726315631,
				"y": -0.8546181769,
				"z": 2.3570420385,
				"element": "H" 
			},
			{
				"x": 0.0749850198,
				"y": 3.4707214743,
				"z": 2.3374111908,
				"element": "H" 
			},
			{
				"x": -0.3166760477,
				"y": 3.4797533983,
				"z": -0.1382565034,
				"element": "H" 
			}
		],
		 "valence_orbital": [ 
			{
				"type": "occ",
				"energy": -0.31418,
				"method": "rhf"
			},
			{
				"type": "occ",
				"energy": -0.30356,
				"method": "rhf"
			},
			{
				"type": "occ",
				"energy": -0.28021,
				"method": "rhf"
			},
			{
				"type": "occ",
				"energy": -0.26777,
				"method": "rhf"
			},
			{
				"type": "occ",
				"energy": -0.23724,
				"method": "rhf"
			},
			{
				"type": "unocc",
				"energy": -0.08188,
				"method": "rhf"
			},
			{
				"type": "unocc",
				"energy": -0.03772,
				"method": "rhf"
			},
			{
				"type": "unocc",
				"energy": -0.03557,
				"method": "rhf"
			},
			{
				"type": "unocc",
				"energy": 0.01966,
				"method": "rhf"
			},
			{
				"type": "unocc",
				"energy": 0.05736,
				"method": "rhf"
			}
		],
		"cosmo_sigma_profile": { 
			"-0.025": 0.0,
			"-0.024": 0.0,
			"-0.023": 0.0,
			"-0.022": 0.0,
			"-0.021": 0.0,
			"-0.02": 0.0,
			"-0.019": 0.0,
			"-0.018": 0.0,
			"-0.017": 0.0,
			"-0.016": 0.0,
			"-0.015": 0.0,
			"-0.014": 0.0,
			"-0.013": 0.0,
			"-0.012": 0.0,
			"-0.011": 0.0,
			"-0.01": 0.0,
			"-0.009": 0.0297497726262,
			"-0.008": 2.5586694591,
			"-0.007": 11.0177470749,
			"-0.006": 21.7917859816,
			"-0.005": 23.4724157196,
			"-0.004": 21.1349822539,
			"-0.003": 17.9474848352,
			"-0.002": 17.1502703845,
			"-0.001": 17.3529759601,
			"0.0": 19.076039722,
			"0.001": 22.3023872868,
			"0.002": 16.5954254419,
			"0.003": 15.5955704756,
			"0.004": 14.2935124919,
			"0.005": 5.80291442056,
			"0.006": 4.84010991976,
			"0.007": 6.4228521587,
			"0.008": 11.7111429756,
			"0.009": 6.55550022475,
			"0.01": 2.08549393065,
			"0.011": 1.93336984031,
			"0.012": 2.31191695081,
			"0.013": 2.27628445996,
			"0.014": 1.28076316397,
			"0.015": 0.0236965362874,
			"0.016": 0.0,
			"0.017": 0.0,
			"0.018": 0.0,
			"0.019": 0.0,
			"0.02": 0.0,
			"0.021": 0.0,
			"0.022": 0.0,
			"0.023": 0.0,
			"0.024": 0.0,
			"0.025": 0.0
		}
	}
}
