{
	 "smiles": "CC1=C2C(NCCNC2=O)=CC=C1", 
	 "Tm": 456.15, 
	 "num_atms": 25, 
	 "gaussian": { 
		 "optdone": 1, 
		 "sigma_profile": "yes", 
		 "theory": "DFT", 
		 "functional": "B3LYP", 
		 "basiset": "6-31G**", 
		 "properties": { 
			 "R2extent": 2467.6399, 
			 "electric_dipole_moment_norm": 4.48550201092, 
			 "electric_quadrupole_moment_norm": 6.9638161808, 
			 "total_energy": -573.032431981, 
			 "HOMO_LUMO_gap": 0.18281, 
			 "cosmo_polarized_energy": -13.79, 
			 "cosmo_cavitation_energy": 26.69, 
			 "cosmo_dispersion_energy": -20.32, 
			 "cosmo_repulsion_energy": 1.59, 
			 "cosmo_total_nonelectrostatic_energy": 7.96, 
			 "SMD_solvation_energy": 2.97 
		},
		"coords": [
			{
				"x": 2.3956889921,
				"y": 0.3919403056,
				"z": 2.574727183,
				"element": "C" 
			},
			{
				"x": 1.3856049516,
				"y": -0.5560450183,
				"z": 1.9638596363,
				"element": "C" 
			},
			{
				"x": 0.4465954464,
				"y": -0.1784548225,
				"z": 0.9589502562,
				"element": "C" 
			},
			{
				"x": -0.5038866587,
				"y": -1.1404241858,
				"z": 0.527473268,
				"element": "C" 
			},
			{
				"x": -1.5253467787,
				"y": -0.8282479626,
				"z": -0.3813131176,
				"element": "N" 
			},
			{
				"x": -2.3240122127,
				"y": 0.3671160653,
				"z": -0.1221092433,
				"element": "C" 
			},
			{
				"x": -1.7058864857,
				"y": 1.5856563457,
				"z": -0.7772362265,
				"element": "C" 
			},
			{
				"x": -0.3834941141,
				"y": 1.9037766872,
				"z": -0.2660880477,
				"element": "N" 
			},
			{
				"x": 0.6359835621,
				"y": 1.1722129541,
				"z": 0.31212912,
				"element": "C" 
			},
			{
				"x": 1.7488010476,
				"y": 1.7016576919,
				"z": 0.3249256672,
				"element": "O" 
			},
			{
				"x": -0.4370241663,
				"y": -2.4617848857,
				"z": 1.001400934,
				"element": "C" 
			},
			{
				"x": 0.513407881,
				"y": -2.8287029175,
				"z": 1.9389638976,
				"element": "C" 
			},
			{
				"x": 1.3911553828,
				"y": -1.8698362406,
				"z": 2.4406286721,
				"element": "C" 
			},
			{
				"x": 3.2399768236,
				"y": 0.557926089,
				"z": 1.9020038355,
				"element": "H" 
			},
			{
				"x": 2.7680983563,
				"y": -0.029437481,
				"z": 3.5136480254,
				"element": "H" 
			},
			{
				"x": 1.9724741895,
				"y": 1.3781683456,
				"z": 2.7750102158,
				"element": "H" 
			},
			{
				"x": -2.1032714895,
				"y": -1.6373275225,
				"z": -0.5668669457,
				"element": "H" 
			},
			{
				"x": -2.4499423042,
				"y": 0.5424539656,
				"z": 0.9569427033,
				"element": "H" 
			},
			{
				"x": -3.3182675783,
				"y": 0.2179762904,
				"z": -0.5540176964,
				"element": "H" 
			},
			{
				"x": -2.3554659691,
				"y": 2.454190686,
				"z": -0.6048016503,
				"element": "H" 
			},
			{
				"x": -1.6671532155,
				"y": 1.4105844185,
				"z": -1.8620576355,
				"element": "H" 
			},
			{
				"x": 0.0203346055,
				"y": 2.7531043198,
				"z": -0.6430412656,
				"element": "H" 
			},
			{
				"x": -1.1623180093,
				"y": -3.1873171775,
				"z": 0.639791193,
				"element": "H" 
			},
			{
				"x": 0.5501371988,
				"y": -3.8511341666,
				"z": 2.3045560553,
				"element": "H" 
			},
			{
				"x": 2.1070105448,
				"y": -2.1445517841,
				"z": 3.2095211658,
				"element": "H" 
			}
		],
		 "valence_orbital": [ 
			{
				"type": "occ",
				"energy": -0.28802,
				"method": "rhf"
			},
			{
				"type": "occ",
				"energy": -0.24665,
				"method": "rhf"
			},
			{
				"type": "occ",
				"energy": -0.23932,
				"method": "rhf"
			},
			{
				"type": "occ",
				"energy": -0.23226,
				"method": "rhf"
			},
			{
				"type": "occ",
				"energy": -0.20746,
				"method": "rhf"
			},
			{
				"type": "unocc",
				"energy": -0.02465,
				"method": "rhf"
			},
			{
				"type": "unocc",
				"energy": 0.01127,
				"method": "rhf"
			},
			{
				"type": "unocc",
				"energy": 0.06104,
				"method": "rhf"
			},
			{
				"type": "unocc",
				"energy": 0.06794,
				"method": "rhf"
			},
			{
				"type": "unocc",
				"energy": 0.09949,
				"method": "rhf"
			}
		],
		"cosmo_sigma_profile": { 
			"-0.025": 0.0,
			"-0.024": 0.0,
			"-0.023": 0.0,
			"-0.022": 0.0,
			"-0.021": 0.0,
			"-0.02": 0.0,
			"-0.019": 0.0,
			"-0.018": 0.0,
			"-0.017": 0.0,
			"-0.016": 0.0,
			"-0.015": 0.0,
			"-0.014": 0.0,
			"-0.013": 0.686667532369,
			"-0.012": 2.46095349252,
			"-0.011": 2.68610053187,
			"-0.01": 2.40002028794,
			"-0.009": 2.76781872437,
			"-0.008": 2.72231184212,
			"-0.007": 3.39332582432,
			"-0.006": 7.74326154671,
			"-0.005": 13.5319887583,
			"-0.004": 18.8590553988,
			"-0.003": 20.3741362208,
			"-0.002": 15.9832839048,
			"-0.001": 13.5303829995,
			"0.0": 11.4249840389,
			"0.001": 16.4468207057,
			"0.002": 11.6125977684,
			"0.003": 10.1771186951,
			"0.004": 11.1442088992,
			"0.005": 12.8789587872,
			"0.006": 8.60333566764,
			"0.007": 3.10033669629,
			"0.008": 2.07327568695,
			"0.009": 2.50030391986,
			"0.01": 1.95511276238,
			"0.011": 2.06092857835,
			"0.012": 1.9230911405,
			"0.013": 2.17222306516,
			"0.014": 3.56360744396,
			"0.015": 1.44995446107,
			"0.016": 0.0,
			"0.017": 0.0,
			"0.018": 0.0,
			"0.019": 0.0,
			"0.02": 0.0,
			"0.021": 0.0,
			"0.022": 0.0,
			"0.023": 0.0,
			"0.024": 0.0,
			"0.025": 0.0
		}
	}
}
