{
	 "smiles": "CCN(CC)S(=O)(=O)C1=CC2=C(NCC2)C=C1", 
	 "Tm": 354.15, 
	 "num_atms": 35, 
	 "gaussian": { 
		 "optdone": 1, 
		 "sigma_profile": "yes", 
		 "theory": "DFT", 
		 "functional": "B3LYP", 
		 "basiset": "6-31G**", 
		 "properties": { 
			 "R2extent": 4974.4537, 
			 "electric_dipole_moment_norm": 6.70653864001, 
			 "electric_quadrupole_moment_norm": 15.5379961482, 
			 "total_energy": -1126.20025403, 
			 "HOMO_LUMO_gap": 0.19172, 
			 "cosmo_polarized_energy": -16.78, 
			 "cosmo_cavitation_energy": 37.43, 
			 "cosmo_dispersion_energy": -26.42, 
			 "cosmo_repulsion_energy": 2.03, 
			 "cosmo_total_nonelectrostatic_energy": 13.05, 
			 "SMD_solvation_energy": 3.69 
		},
		"coords": [
			{
				"x": 2.1479970375,
				"y": 0.4232650285,
				"z": 3.6857460809,
				"element": "C" 
			},
			{
				"x": 2.5650612181,
				"y": 0.7234306478,
				"z": 2.246389276,
				"element": "C" 
			},
			{
				"x": 1.7129025702,
				"y": 0.0137333897,
				"z": 1.2682441498,
				"element": "N" 
			},
			{
				"x": 1.8953446499,
				"y": -1.4551603658,
				"z": 1.1979291884,
				"element": "C" 
			},
			{
				"x": 0.7215775715,
				"y": -2.2288703779,
				"z": 1.8012609746,
				"element": "C" 
			},
			{
				"x": 1.5700056362,
				"y": 0.7856226474,
				"z": -0.2481717246,
				"element": "S" 
			},
			{
				"x": 1.5196436353,
				"y": 2.225340271,
				"z": 0.0380242217,
				"element": "O" 
			},
			{
				"x": 2.5582830858,
				"y": 0.2655878074,
				"z": -1.2086924204,
				"element": "O" 
			},
			{
				"x": -0.0384417361,
				"y": 0.2385079577,
				"z": -0.7891309578,
				"element": "C" 
			},
			{
				"x": -1.1812366697,
				"y": 0.657220735,
				"z": -0.0822958212,
				"element": "C" 
			},
			{
				"x": -2.4198026685,
				"y": 0.2500335742,
				"z": -0.5357049691,
				"element": "C" 
			},
			{
				"x": -2.5296149091,
				"y": -0.5529166147,
				"z": -1.6931284761,
				"element": "C" 
			},
			{
				"x": -3.8638115733,
				"y": -0.8048967855,
				"z": -1.9786406904,
				"element": "N" 
			},
			{
				"x": -4.6741605327,
				"y": -0.4969188251,
				"z": -0.7864351805,
				"element": "C" 
			},
			{
				"x": -3.8177507228,
				"y": 0.5539731893,
				"z": -0.0357784623,
				"element": "C" 
			},
			{
				"x": -1.3955868519,
				"y": -0.9581166525,
				"z": -2.4013611444,
				"element": "C" 
			},
			{
				"x": -0.1428919224,
				"y": -0.549372001,
				"z": -1.936767833,
				"element": "C" 
			},
			{
				"x": 2.2745599717,
				"y": -0.6334252145,
				"z": 3.9414353695,
				"element": "H" 
			},
			{
				"x": 2.7680392472,
				"y": 1.0048982356,
				"z": 4.3760650018,
				"element": "H" 
			},
			{
				"x": 1.1006345192,
				"y": 0.6933900767,
				"z": 3.8498006329,
				"element": "H" 
			},
			{
				"x": 2.4632976456,
				"y": 1.7911962495,
				"z": 2.0494091216,
				"element": "H" 
			},
			{
				"x": 3.623033022,
				"y": 0.4570570333,
				"z": 2.0975750357,
				"element": "H" 
			},
			{
				"x": 2.0453317796,
				"y": -1.751657635,
				"z": 0.1556058668,
				"element": "H" 
			},
			{
				"x": 2.8290362698,
				"y": -1.7094802189,
				"z": 1.714998001,
				"element": "H" 
			},
			{
				"x": -0.2049185176,
				"y": -2.0049310275,
				"z": 1.2659150583,
				"element": "H" 
			},
			{
				"x": 0.5730946484,
				"y": -1.9744114485,
				"z": 2.8543239268,
				"element": "H" 
			},
			{
				"x": 0.9064229323,
				"y": -3.3069814335,
				"z": 1.7333386096,
				"element": "H" 
			},
			{
				"x": -1.07636892,
				"y": 1.2793795219,
				"z": 0.8007302552,
				"element": "H" 
			},
			{
				"x": -4.0905398992,
				"y": -1.6415031715,
				"z": -2.4989260221,
				"element": "H" 
			},
			{
				"x": -5.6596047692,
				"y": -0.1181089035,
				"z": -1.0708254545,
				"element": "H" 
			},
			{
				"x": -4.8177045074,
				"y": -1.391464193,
				"z": -0.1610210592,
				"element": "H" 
			},
			{
				"x": -3.9266771062,
				"y": 0.4780192348,
				"z": 1.0494706336,
				"element": "H" 
			},
			{
				"x": -4.1135056105,
				"y": 1.5701334897,
				"z": -0.326788658,
				"element": "H" 
			},
			{
				"x": -1.4788267301,
				"y": -1.5725094812,
				"z": -3.2927369488,
				"element": "H" 
			},
			{
				"x": 0.7621782065,
				"y": -0.8368647397,
				"z": -2.4603555819,
				"element": "H" 
			}
		],
		 "valence_orbital": [ 
			{
				"type": "occ",
				"energy": -0.29028,
				"method": "rhf"
			},
			{
				"type": "occ",
				"energy": -0.28128,
				"method": "rhf"
			},
			{
				"type": "occ",
				"energy": -0.25814,
				"method": "rhf"
			},
			{
				"type": "occ",
				"energy": -0.23897,
				"method": "rhf"
			},
			{
				"type": "occ",
				"energy": -0.20864,
				"method": "rhf"
			},
			{
				"type": "unocc",
				"energy": -0.01692,
				"method": "rhf"
			},
			{
				"type": "unocc",
				"energy": -0.01148,
				"method": "rhf"
			},
			{
				"type": "unocc",
				"energy": 0.06911,
				"method": "rhf"
			},
			{
				"type": "unocc",
				"energy": 0.07638,
				"method": "rhf"
			},
			{
				"type": "unocc",
				"energy": 0.08707,
				"method": "rhf"
			}
		],
		"cosmo_sigma_profile": { 
			"-0.025": 0.0,
			"-0.024": 0.0,
			"-0.023": 0.0,
			"-0.022": 0.0,
			"-0.021": 0.0,
			"-0.02": 0.0,
			"-0.019": 0.0,
			"-0.018": 0.0,
			"-0.017": 0.0,
			"-0.016": 0.0,
			"-0.015": 0.0,
			"-0.014": 0.152570827791,
			"-0.013": 1.39908530269,
			"-0.012": 1.37222372775,
			"-0.011": 1.41836544483,
			"-0.01": 1.15400325493,
			"-0.009": 1.51035572725,
			"-0.008": 1.30577280194,
			"-0.007": 2.93474407102,
			"-0.006": 5.33033768142,
			"-0.005": 13.9501191069,
			"-0.004": 30.2093335118,
			"-0.003": 39.9563118421,
			"-0.002": 35.3461130813,
			"-0.001": 28.05852685,
			"0.0": 24.8052193653,
			"0.001": 20.410369964,
			"0.002": 13.1965972807,
			"0.003": 12.061690683,
			"0.004": 14.467730674,
			"0.005": 6.11693361067,
			"0.006": 4.73111140813,
			"0.007": 3.45530964812,
			"0.008": 3.4064306212,
			"0.009": 4.2120851352,
			"0.01": 5.02030497337,
			"0.011": 8.84118944942,
			"0.012": 7.57179901621,
			"0.013": 1.68090020022,
			"0.014": 0.0,
			"0.015": 0.0,
			"0.016": 0.0,
			"0.017": 0.0,
			"0.018": 0.0,
			"0.019": 0.0,
			"0.02": 0.0,
			"0.021": 0.0,
			"0.022": 0.0,
			"0.023": 0.0,
			"0.024": 0.0,
			"0.025": 0.0
		}
	}
}
