{
	 "smiles": "C1CC=CCN1", 
	 "Tm": 225.15, 
	 "num_atms": 15, 
	 "gaussian": { 
		 "optdone": 1, 
		 "sigma_profile": "yes", 
		 "theory": "DFT", 
		 "functional": "B3LYP", 
		 "basiset": "6-31G**", 
		 "properties": { 
			 "R2extent": 617.4221, 
			 "electric_dipole_moment_norm": 1.0222513683, 
			 "electric_quadrupole_moment_norm": 3.23987535254, 
			 "total_energy": -250.680437462, 
			 "HOMO_LUMO_gap": 0.2425, 
			 "cosmo_polarized_energy": -4.32, 
			 "cosmo_cavitation_energy": 16.67, 
			 "cosmo_dispersion_energy": -13.03, 
			 "cosmo_repulsion_energy": 1.13, 
			 "cosmo_total_nonelectrostatic_energy": 4.77, 
			 "SMD_solvation_energy": -0.04 
		},
		"coords": [
			{
				"x": -0.4739606034,
				"y": 1.7995731743,
				"z": -0.1044389116,
				"element": "C" 
			},
			{
				"x": 0.1945987713,
				"y": 1.336337717,
				"z": -1.4119863813,
				"element": "C" 
			},
			{
				"x": 1.2816502821,
				"y": 0.3262457943,
				"z": -1.1315108051,
				"element": "C" 
			},
			{
				"x": 1.4065703092,
				"y": -0.2796042882,
				"z": 0.0530546217,
				"element": "C" 
			},
			{
				"x": 0.4469570536,
				"y": -0.0308784655,
				"z": 1.1958154755,
				"element": "C" 
			},
			{
				"x": -0.7676126147,
				"y": 0.7039287531,
				"z": 0.8251438346,
				"element": "N" 
			},
			{
				"x": 0.1938502503,
				"y": 2.4995001676,
				"z": 0.414378762,
				"element": "H" 
			},
			{
				"x": -1.4025640077,
				"y": 2.3421027037,
				"z": -0.313516379,
				"element": "H" 
			},
			{
				"x": 0.611378396,
				"y": 2.1989223565,
				"z": -1.9502214885,
				"element": "H" 
			},
			{
				"x": -0.5557232117,
				"y": 0.9010548803,
				"z": -2.0907555954,
				"element": "H" 
			},
			{
				"x": 1.9830912149,
				"y": 0.1035533338,
				"z": -1.9338385965,
				"element": "H" 
			},
			{
				"x": 2.2262127912,
				"y": -0.9741835361,
				"z": 0.2324130632,
				"element": "H" 
			},
			{
				"x": 0.1461104553,
				"y": -0.9833901388,
				"z": 1.6503772166,
				"element": "H" 
			},
			{
				"x": 0.9652716521,
				"y": 0.5244331478,
				"z": 1.994188267,
				"element": "H" 
			},
			{
				"x": -1.4069307384,
				"y": 0.0569044002,
				"z": 0.3675969169,
				"element": "H" 
			}
		],
		 "valence_orbital": [ 
			{
				"type": "occ",
				"energy": -0.36129,
				"method": "rhf"
			},
			{
				"type": "occ",
				"energy": -0.34581,
				"method": "rhf"
			},
			{
				"type": "occ",
				"energy": -0.32675,
				"method": "rhf"
			},
			{
				"type": "occ",
				"energy": -0.23944,
				"method": "rhf"
			},
			{
				"type": "occ",
				"energy": -0.21422,
				"method": "rhf"
			},
			{
				"type": "unocc",
				"energy": 0.02828,
				"method": "rhf"
			},
			{
				"type": "unocc",
				"energy": 0.08656,
				"method": "rhf"
			},
			{
				"type": "unocc",
				"energy": 0.1267,
				"method": "rhf"
			},
			{
				"type": "unocc",
				"energy": 0.1341,
				"method": "rhf"
			},
			{
				"type": "unocc",
				"energy": 0.14024,
				"method": "rhf"
			}
		],
		"cosmo_sigma_profile": { 
			"-0.025": 0.0,
			"-0.024": 0.0,
			"-0.023": 0.0,
			"-0.022": 0.0,
			"-0.021": 0.0,
			"-0.02": 0.0,
			"-0.019": 0.0,
			"-0.018": 0.0,
			"-0.017": 0.0,
			"-0.016": 0.0,
			"-0.015": 0.0,
			"-0.014": 0.0,
			"-0.013": 0.0,
			"-0.012": 0.0,
			"-0.011": 0.0,
			"-0.01": 0.254388636978,
			"-0.009": 1.33049852824,
			"-0.008": 1.09103396988,
			"-0.007": 1.43603019517,
			"-0.006": 1.18029591532,
			"-0.005": 2.58884445077,
			"-0.004": 8.65129732699,
			"-0.003": 18.2968650172,
			"-0.002": 20.4102501212,
			"-0.001": 20.7253378167,
			"0.0": 15.0442931214,
			"0.001": 7.6402307339,
			"0.002": 5.16850335326,
			"0.003": 4.59450181166,
			"0.004": 3.80332132906,
			"0.005": 3.93625121108,
			"0.006": 2.78309095934,
			"0.007": 2.62998218654,
			"0.008": 1.06246750308,
			"0.009": 1.05819177607,
			"0.01": 0.747750019932,
			"0.011": 0.804887416199,
			"0.012": 0.538513123775,
			"0.013": 0.643280843616,
			"0.014": 0.510516140832,
			"0.015": 0.51535814405,
			"0.016": 0.537489457975,
			"0.017": 0.786264600591,
			"0.018": 0.47352627602,
			"0.019": 0.387840121102,
			"0.02": 0.0,
			"0.021": 0.0,
			"0.022": 0.0,
			"0.023": 0.0,
			"0.024": 0.0,
			"0.025": 0.0
		}
	}
}
