{
	 "smiles": "COC1=CC=C(C=O)C(C)=C1C", 
	 "Tm": 326.15, 
	 "num_atms": 24, 
	 "gaussian": { 
		 "optdone": 1, 
		 "sigma_profile": "yes", 
		 "theory": "DFT", 
		 "functional": "B3LYP", 
		 "basiset": "6-31G**", 
		 "properties": { 
			 "R2extent": 2849.5777, 
			 "electric_dipole_moment_norm": 4.02463250869, 
			 "electric_quadrupole_moment_norm": 13.4360805978, 
			 "total_energy": -538.734001959, 
			 "HOMO_LUMO_gap": 0.17507, 
			 "cosmo_polarized_energy": -9.42, 
			 "cosmo_cavitation_energy": 26.82, 
			 "cosmo_dispersion_energy": -19.63, 
			 "cosmo_repulsion_energy": 1.55, 
			 "cosmo_total_nonelectrostatic_energy": 8.74, 
			 "SMD_solvation_energy": 6.47 
		},
		"coords": [
			{
				"x": 1.1929672151,
				"y": -0.4955409332,
				"z": 2.6059246258,
				"element": "C" 
			},
			{
				"x": 0.4459726356,
				"y": -1.357139939,
				"z": 1.7591577012,
				"element": "O" 
			},
			{
				"x": -0.2370541454,
				"y": -0.8221305879,
				"z": 0.7077999672,
				"element": "C" 
			},
			{
				"x": -0.2358541901,
				"y": 0.5497136203,
				"z": 0.4213437333,
				"element": "C" 
			},
			{
				"x": -0.9571811939,
				"y": 1.0121143341,
				"z": -0.6675006591,
				"element": "C" 
			},
			{
				"x": -1.6818390598,
				"y": 0.1324810049,
				"z": -1.4794948493,
				"element": "C" 
			},
			{
				"x": -2.421879853,
				"y": 0.7134387299,
				"z": -2.618317176,
				"element": "C" 
			},
			{
				"x": -2.4385819562,
				"y": 1.903767223,
				"z": -2.890939782,
				"element": "O" 
			},
			{
				"x": -1.6853304781,
				"y": -1.2568865118,
				"z": -1.1929169424,
				"element": "C" 
			},
			{
				"x": -2.4694115549,
				"y": -2.2134637175,
				"z": -2.0717209801,
				"element": "C" 
			},
			{
				"x": -0.9597305106,
				"y": -1.7411252647,
				"z": -0.0926417059,
				"element": "C" 
			},
			{
				"x": -0.9253315557,
				"y": -3.2128760899,
				"z": 0.2648651887,
				"element": "C" 
			},
			{
				"x": 0.5497701176,
				"y": 0.2440760414,
				"z": 3.0983133765,
				"element": "H" 
			},
			{
				"x": 1.9852347825,
				"y": 0.025416022,
				"z": 2.0544790033,
				"element": "H" 
			},
			{
				"x": 1.644737402,
				"y": -1.139234809,
				"z": 3.3620168051,
				"element": "H" 
			},
			{
				"x": 0.3184698666,
				"y": 1.2469948819,
				"z": 1.0371374181,
				"element": "H" 
			},
			{
				"x": -0.9777261642,
				"y": 2.068050945,
				"z": -0.9172229199,
				"element": "H" 
			},
			{
				"x": -2.9893594661,
				"y": -0.0007368728,
				"z": -3.2480181229,
				"element": "H" 
			},
			{
				"x": -2.3762780928,
				"y": -3.2449393024,
				"z": -1.73493517,
				"element": "H" 
			},
			{
				"x": -3.5371221333,
				"y": -1.9689562004,
				"z": -2.0789496942,
				"element": "H" 
			},
			{
				"x": -2.1247551636,
				"y": -2.1785193644,
				"z": -3.1107978914,
				"element": "H" 
			},
			{
				"x": -0.3136411089,
				"y": -3.381415312,
				"z": 1.1496813259,
				"element": "H" 
			},
			{
				"x": -0.5075246335,
				"y": -3.8151826654,
				"z": -0.5495869127,
				"element": "H" 
			},
			{
				"x": -1.9289507593,
				"y": -3.599605232,
				"z": 0.4739236606,
				"element": "H" 
			}
		],
		 "valence_orbital": [ 
			{
				"type": "occ",
				"energy": -0.32714,
				"method": "rhf"
			},
			{
				"type": "occ",
				"energy": -0.31574,
				"method": "rhf"
			},
			{
				"type": "occ",
				"energy": -0.24606,
				"method": "rhf"
			},
			{
				"type": "occ",
				"energy": -0.24036,
				"method": "rhf"
			},
			{
				"type": "occ",
				"energy": -0.22432,
				"method": "rhf"
			},
			{
				"type": "unocc",
				"energy": -0.04925,
				"method": "rhf"
			},
			{
				"type": "unocc",
				"energy": -0.0054,
				"method": "rhf"
			},
			{
				"type": "unocc",
				"energy": 0.0565,
				"method": "rhf"
			},
			{
				"type": "unocc",
				"energy": 0.08801,
				"method": "rhf"
			},
			{
				"type": "unocc",
				"energy": 0.09544,
				"method": "rhf"
			}
		],
		"cosmo_sigma_profile": { 
			"-0.025": 0.0,
			"-0.024": 0.0,
			"-0.023": 0.0,
			"-0.022": 0.0,
			"-0.021": 0.0,
			"-0.02": 0.0,
			"-0.019": 0.0,
			"-0.018": 0.0,
			"-0.017": 0.0,
			"-0.016": 0.0,
			"-0.015": 0.0,
			"-0.014": 0.0,
			"-0.013": 0.0,
			"-0.012": 0.0,
			"-0.011": 0.0,
			"-0.01": 0.0,
			"-0.009": 0.0,
			"-0.008": 0.0,
			"-0.007": 1.38714022297,
			"-0.006": 10.513516172,
			"-0.005": 20.1633694298,
			"-0.004": 23.5237701124,
			"-0.003": 21.3816266143,
			"-0.002": 17.7131271954,
			"-0.001": 18.2431629846,
			"0.0": 17.8210214617,
			"0.001": 12.7265097161,
			"0.002": 12.3187621255,
			"0.003": 13.7581061949,
			"0.004": 13.8036522237,
			"0.005": 6.4323150111,
			"0.006": 3.71806237831,
			"0.007": 2.83820243672,
			"0.008": 2.04613742305,
			"0.009": 1.8205072037,
			"0.01": 1.92799917284,
			"0.011": 2.7392036076,
			"0.012": 4.7315802827,
			"0.013": 2.31541807681,
			"0.014": 0.546020753887,
			"0.015": 0.0,
			"0.016": 0.0,
			"0.017": 0.0,
			"0.018": 0.0,
			"0.019": 0.0,
			"0.02": 0.0,
			"0.021": 0.0,
			"0.022": 0.0,
			"0.023": 0.0,
			"0.024": 0.0,
			"0.025": 0.0
		}
	}
}
