{
	 "smiles": "FC1=C(F)C2=C(C(F)=C1F)C(F)=C(F)C(F)=C2F", 
	 "Tm": 360.35, 
	 "num_atms": 18, 
	 "gaussian": { 
		 "optdone": 1, 
		 "sigma_profile": "yes", 
		 "theory": "DFT", 
		 "functional": "B3LYP", 
		 "basiset": "6-31G**", 
		 "properties": { 
			 "R2extent": 4467.8955, 
			 "electric_dipole_moment_norm": 0.0, 
			 "electric_quadrupole_moment_norm": 7.89049213104, 
			 "total_energy": -1179.6840045, 
			 "HOMO_LUMO_gap": 0.16747, 
			 "cosmo_polarized_energy": -3.6, 
			 "cosmo_cavitation_energy": 27.45, 
			 "cosmo_dispersion_energy": -19.32, 
			 "cosmo_repulsion_energy": 1.28, 
			 "cosmo_total_nonelectrostatic_energy": 9.42, 
			 "SMD_solvation_energy": 8.21 
		},
		"coords": [
			{
				"x": 3.8074977001,
				"y": 1.17921145,
				"z": 1.6150030939,
				"element": "F" 
			},
			{
				"x": 2.6546968033,
				"y": 0.794290128,
				"z": 1.063954173,
				"element": "C" 
			},
			{
				"x": 2.2849571425,
				"y": -0.5302404526,
				"z": 1.0614827781,
				"element": "C" 
			},
			{
				"x": 3.1101995793,
				"y": -1.419970843,
				"z": 1.6250189629,
				"element": "F" 
			},
			{
				"x": 1.0612608489,
				"y": -0.9483200002,
				"z": 0.4779667737,
				"element": "C" 
			},
			{
				"x": 0.2050956478,
				"y": 0.0481755085,
				"z": -0.1172896427,
				"element": "C" 
			},
			{
				"x": 0.6234654349,
				"y": 1.4035769951,
				"z": -0.0936684725,
				"element": "C" 
			},
			{
				"x": -0.1387387498,
				"y": 2.3614755226,
				"z": -0.6337400751,
				"element": "F" 
			},
			{
				"x": 1.8178646022,
				"y": 1.7683049709,
				"z": 0.4820783128,
				"element": "C" 
			},
			{
				"x": 2.2040840082,
				"y": 3.0455241937,
				"z": 0.5000132528,
				"element": "F" 
			},
			{
				"x": -1.0186015342,
				"y": -0.3699038302,
				"z": -0.7008064154,
				"element": "C" 
			},
			{
				"x": -1.8438455438,
				"y": 0.5198253051,
				"z": -1.2643429154,
				"element": "F" 
			},
			{
				"x": -1.3883408513,
				"y": -1.6944342056,
				"z": -0.703275905,
				"element": "C" 
			},
			{
				"x": -2.5411430213,
				"y": -2.0793562262,
				"z": -1.2543235587,
				"element": "F" 
			},
			{
				"x": -0.5515100558,
				"y": -2.668450806,
				"z": -0.1214003487,
				"element": "C" 
			},
			{
				"x": -0.9377260492,
				"y": -3.9456697791,
				"z": -0.1393309424,
				"element": "F" 
			},
			{
				"x": 0.6428898,
				"y": -2.3037200793,
				"z": 0.4543445057,
				"element": "C" 
			},
			{
				"x": 1.4050942384,
				"y": -3.2616178516,
				"z": 0.9944164229,
				"element": "F" 
			}
		],
		 "valence_orbital": [ 
			{
				"type": "occ",
				"energy": -0.38625,
				"method": "rhf"
			},
			{
				"type": "occ",
				"energy": -0.32964,
				"method": "rhf"
			},
			{
				"type": "occ",
				"energy": -0.3026,
				"method": "rhf"
			},
			{
				"type": "occ",
				"energy": -0.27535,
				"method": "rhf"
			},
			{
				"type": "occ",
				"energy": -0.23739,
				"method": "rhf"
			},
			{
				"type": "unocc",
				"energy": -0.06992,
				"method": "rhf"
			},
			{
				"type": "unocc",
				"energy": -0.05085,
				"method": "rhf"
			},
			{
				"type": "unocc",
				"energy": 0.00712,
				"method": "rhf"
			},
			{
				"type": "unocc",
				"energy": 0.01279,
				"method": "rhf"
			},
			{
				"type": "unocc",
				"energy": 0.0262,
				"method": "rhf"
			}
		],
		"cosmo_sigma_profile": { 
			"-0.025": 0.0,
			"-0.024": 0.0,
			"-0.023": 0.0,
			"-0.022": 0.0,
			"-0.021": 0.0,
			"-0.02": 0.0,
			"-0.019": 0.0,
			"-0.018": 0.0,
			"-0.017": 0.0,
			"-0.016": 0.0,
			"-0.015": 0.0,
			"-0.014": 0.0,
			"-0.013": 0.0,
			"-0.012": 0.0,
			"-0.011": 0.0,
			"-0.01": 0.0,
			"-0.009": 0.0,
			"-0.008": 0.0,
			"-0.007": 0.0,
			"-0.006": 0.615331498526,
			"-0.005": 6.0587597715,
			"-0.004": 28.8072946263,
			"-0.003": 30.2920840128,
			"-0.002": 12.2742344623,
			"-0.001": 12.9917252158,
			"0.0": 12.2791033274,
			"0.001": 13.5143238128,
			"0.002": 62.8639865822,
			"0.003": 41.2755497043,
			"0.004": 3.95590750906,
			"0.005": 0.0,
			"0.006": 0.0,
			"0.007": 0.0,
			"0.008": 0.0,
			"0.009": 0.0,
			"0.01": 0.0,
			"0.011": 0.0,
			"0.012": 0.0,
			"0.013": 0.0,
			"0.014": 0.0,
			"0.015": 0.0,
			"0.016": 0.0,
			"0.017": 0.0,
			"0.018": 0.0,
			"0.019": 0.0,
			"0.02": 0.0,
			"0.021": 0.0,
			"0.022": 0.0,
			"0.023": 0.0,
			"0.024": 0.0,
			"0.025": 0.0
		}
	}
}
