{
	 "smiles": "CC1=CC(N2C=C(O)C(=N2)C(O)=O)=C(F)C=C1", 
	 "Tm": 475.15, 
	 "num_atms": 26, 
	 "gaussian": { 
		 "optdone": 1, 
		 "sigma_profile": "yes", 
		 "theory": "DFT", 
		 "functional": "B3LYP", 
		 "basiset": "6-31G**", 
		 "properties": { 
			 "R2extent": 5649.8813, 
			 "electric_dipole_moment_norm": 6.21401754825, 
			 "electric_quadrupole_moment_norm": 14.188856788, 
			 "total_energy": -859.597842592, 
			 "HOMO_LUMO_gap": 0.1672, 
			 "cosmo_polarized_energy": -11.86, 
			 "cosmo_cavitation_energy": 31.4, 
			 "cosmo_dispersion_energy": -23.2, 
			 "cosmo_repulsion_energy": 1.76, 
			 "cosmo_total_nonelectrostatic_energy": 9.96, 
			 "SMD_solvation_energy": 7.12 
		},
		"coords": [
			{
				"x": 1.96446701,
				"y": -1.974019227,
				"z": -2.8927178701,
				"element": "C" 
			},
			{
				"x": 0.7321964479,
				"y": -1.2178240289,
				"z": -2.4543175732,
				"element": "C" 
			},
			{
				"x": 0.8344567051,
				"y": -0.1446509248,
				"z": -1.5667260554,
				"element": "C" 
			},
			{
				"x": -0.2970928019,
				"y": 0.5524680281,
				"z": -1.1246993838,
				"element": "C" 
			},
			{
				"x": -0.148636663,
				"y": 1.6290275302,
				"z": -0.2116176242,
				"element": "N" 
			},
			{
				"x": -0.9875394702,
				"y": 2.7121125541,
				"z": -0.0255502212,
				"element": "C" 
			},
			{
				"x": -0.3823001167,
				"y": 3.5064484588,
				"z": 0.9279873032,
				"element": "C" 
			},
			{
				"x": -0.8129252712,
				"y": 4.6698733635,
				"z": 1.4441092734,
				"element": "O" 
			},
			{
				"x": 0.8150384208,
				"y": 2.8239403746,
				"z": 1.2571106158,
				"element": "C" 
			},
			{
				"x": 0.9493142575,
				"y": 1.6892398832,
				"z": 0.5605930106,
				"element": "N" 
			},
			{
				"x": 1.786752577,
				"y": 3.2887197147,
				"z": 2.2468267206,
				"element": "C" 
			},
			{
				"x": 2.8623782298,
				"y": 2.5099841686,
				"z": 2.4553542545,
				"element": "O" 
			},
			{
				"x": 1.6225399113,
				"y": 4.3373113342,
				"z": 2.853046364,
				"element": "O" 
			},
			{
				"x": -1.5502117592,
				"y": 0.1516188145,
				"z": -1.5988252553,
				"element": "C" 
			},
			{
				"x": -2.67038389,
				"y": 0.7904751875,
				"z": -1.1903164464,
				"element": "F" 
			},
			{
				"x": -1.6767518495,
				"y": -0.9016895153,
				"z": -2.4934285944,
				"element": "C" 
			},
			{
				"x": -0.5398737574,
				"y": -1.5840712023,
				"z": -2.9179913121,
				"element": "C" 
			},
			{
				"x": 2.8674068839,
				"y": -1.3679502277,
				"z": -2.7798486312,
				"element": "H" 
			},
			{
				"x": 2.1024895395,
				"y": -2.8836695097,
				"z": -2.2955890605,
				"element": "H" 
			},
			{
				"x": 1.8916188575,
				"y": -2.2814620577,
				"z": -3.9403341306,
				"element": "H" 
			},
			{
				"x": 1.8012786964,
				"y": 0.1740525575,
				"z": -1.1955887348,
				"element": "H" 
			},
			{
				"x": -1.9104276667,
				"y": 2.8203440392,
				"z": -0.5659559434,
				"element": "H" 
			},
			{
				"x": -0.1285503648,
				"y": 4.9422573467,
				"z": 2.0894995707,
				"element": "H" 
			},
			{
				"x": 2.7856686635,
				"y": 1.7286516743,
				"z": 1.8804942255,
				"element": "H" 
			},
			{
				"x": -2.6691273462,
				"y": -1.1723395179,
				"z": -2.8372920894,
				"element": "H" 
			},
			{
				"x": -0.6434852434,
				"y": -2.4072488182,
				"z": -3.6190224125,
				"element": "H" 
			}
		],
		 "valence_orbital": [ 
			{
				"type": "occ",
				"energy": -0.30161,
				"method": "rhf"
			},
			{
				"type": "occ",
				"energy": -0.28652,
				"method": "rhf"
			},
			{
				"type": "occ",
				"energy": -0.26637,
				"method": "rhf"
			},
			{
				"type": "occ",
				"energy": -0.25302,
				"method": "rhf"
			},
			{
				"type": "occ",
				"energy": -0.22725,
				"method": "rhf"
			},
			{
				"type": "unocc",
				"energy": -0.06005,
				"method": "rhf"
			},
			{
				"type": "unocc",
				"energy": -0.01972,
				"method": "rhf"
			},
			{
				"type": "unocc",
				"energy": -0.0119,
				"method": "rhf"
			},
			{
				"type": "unocc",
				"energy": 0.03133,
				"method": "rhf"
			},
			{
				"type": "unocc",
				"energy": 0.06414,
				"method": "rhf"
			}
		],
		"cosmo_sigma_profile": { 
			"-0.025": 0.0,
			"-0.024": 0.0,
			"-0.023": 0.0,
			"-0.022": 0.0,
			"-0.021": 0.0,
			"-0.02": 0.0,
			"-0.019": 0.0,
			"-0.018": 0.0,
			"-0.017": 0.089163133136,
			"-0.016": 0.555580560582,
			"-0.015": 0.544197539591,
			"-0.014": 0.454977091092,
			"-0.013": 0.710972518526,
			"-0.012": 0.731685244788,
			"-0.011": 1.13309298687,
			"-0.01": 1.0110701032,
			"-0.009": 1.60613597942,
			"-0.008": 3.49614903799,
			"-0.007": 6.44409587097,
			"-0.006": 9.43971427586,
			"-0.005": 14.1935614735,
			"-0.004": 17.9033729748,
			"-0.003": 17.4714852191,
			"-0.002": 18.8451558572,
			"-0.001": 24.1394545304,
			"0.0": 25.9648369657,
			"0.001": 20.4132855398,
			"0.002": 20.7788790639,
			"0.003": 20.5196137296,
			"0.004": 9.69240861009,
			"0.005": 4.52869989669,
			"0.006": 4.0945547699,
			"0.007": 4.34213036674,
			"0.008": 4.50344493981,
			"0.009": 6.80382959355,
			"0.01": 5.25106139219,
			"0.011": 3.94312759179,
			"0.012": 2.10709145477,
			"0.013": 0.43941939857,
			"0.014": 0.0,
			"0.015": 0.0,
			"0.016": 0.0,
			"0.017": 0.0,
			"0.018": 0.0,
			"0.019": 0.0,
			"0.02": 0.0,
			"0.021": 0.0,
			"0.022": 0.0,
			"0.023": 0.0,
			"0.024": 0.0,
			"0.025": 0.0
		}
	}
}
