{
	 "smiles": "CC12CCC[C@@]1(O)C1CC=C3CC(O)CCC3(C)C1CC2", 
	 "Tm": 475.15, 
	 "num_atms": 51, 
	 "gaussian": { 
		 "optdone": 1, 
		 "sigma_profile": "yes", 
		 "theory": "DFT", 
		 "functional": "B3LYP", 
		 "basiset": "6-31G**", 
		 "properties": { 
			 "R2extent": 7023.7997, 
			 "electric_dipole_moment_norm": 2.62119979399, 
			 "electric_quadrupole_moment_norm": 10.7750934395, 
			 "total_energy": -892.528247495, 
			 "HOMO_LUMO_gap": 0.25346, 
			 "cosmo_polarized_energy": -10.61, 
			 "cosmo_cavitation_energy": 42.8, 
			 "cosmo_dispersion_energy": -30.63, 
			 "cosmo_repulsion_energy": 2.26, 
			 "cosmo_total_nonelectrostatic_energy": 14.43, 
			 "SMD_solvation_energy": 5.74 
		},
		"coords": [
			{
				"x": -2.2247611855,
				"y": 0.9701183824,
				"z": 1.3626533766,
				"element": "C" 
			},
			{
				"x": -0.7527216062,
				"y": 1.1900892562,
				"z": 1.7910481619,
				"element": "C" 
			},
			{
				"x": -0.7816877122,
				"y": 1.9154621786,
				"z": 3.1619393717,
				"element": "C" 
			},
			{
				"x": -1.0249850791,
				"y": 0.7865670144,
				"z": 4.2123118761,
				"element": "C" 
			},
			{
				"x": -0.718276549,
				"y": -0.5596144202,
				"z": 3.4828775103,
				"element": "C" 
			},
			{
				"x": -0.0308063201,
				"y": -0.1365177837,
				"z": 2.1691399908,
				"element": "C" 
			},
			{
				"x": 1.3541425832,
				"y": 0.163297574,
				"z": 2.4606362077,
				"element": "O" 
			},
			{
				"x": -0.0151194738,
				"y": -1.1691969037,
				"z": 1.0147680476,
				"element": "C" 
			},
			{
				"x": 1.0087505656,
				"y": -2.3070578817,
				"z": 1.3249855175,
				"element": "C" 
			},
			{
				"x": 2.0652459863,
				"y": -2.5436117949,
				"z": 0.2839192647,
				"element": "C" 
			},
			{
				"x": 1.963186698,
				"y": -2.1666024988,
				"z": -0.9933711907,
				"element": "C" 
			},
			{
				"x": 2.9763224157,
				"y": -2.5601217072,
				"z": -2.0410165065,
				"element": "C" 
			},
			{
				"x": 3.5104400573,
				"y": -1.3808737867,
				"z": -2.8809544526,
				"element": "C" 
			},
			{
				"x": 3.6935175702,
				"y": -1.8974385909,
				"z": -4.2038844668,
				"element": "O" 
			},
			{
				"x": 2.5333768087,
				"y": -0.1915340164,
				"z": -2.8557134307,
				"element": "C" 
			},
			{
				"x": 1.0738829504,
				"y": -0.6619963835,
				"z": -2.8048154523,
				"element": "C" 
			},
			{
				"x": 0.7262352975,
				"y": -1.4198827513,
				"z": -1.4858795704,
				"element": "C" 
			},
			{
				"x": -0.3728069014,
				"y": -2.4627041261,
				"z": -1.8228064891,
				"element": "C" 
			},
			{
				"x": 0.1564202245,
				"y": -0.4593412763,
				"z": -0.3826812564,
				"element": "C" 
			},
			{
				"x": 0.8583256532,
				"y": 0.9072939409,
				"z": -0.2275869179,
				"element": "C" 
			},
			{
				"x": 0.0486152427,
				"y": 1.8904772853,
				"z": 0.6638744485,
				"element": "C" 
			},
			{
				"x": -2.8224752883,
				"y": 0.5075592081,
				"z": 2.154206631,
				"element": "H" 
			},
			{
				"x": -2.6813401143,
				"y": 1.9407281226,
				"z": 1.1388643977,
				"element": "H" 
			},
			{
				"x": -2.3262583084,
				"y": 0.3512603201,
				"z": 0.4688522793,
				"element": "H" 
			},
			{
				"x": -1.5505661265,
				"y": 2.6934548329,
				"z": 3.2031651172,
				"element": "H" 
			},
			{
				"x": 0.1737664137,
				"y": 2.4218465581,
				"z": 3.3453591072,
				"element": "H" 
			},
			{
				"x": -2.0559346665,
				"y": 0.8012360316,
				"z": 4.5770340469,
				"element": "H" 
			},
			{
				"x": -0.3917153992,
				"y": 0.9244013415,
				"z": 5.0950647431,
				"element": "H" 
			},
			{
				"x": -0.0738185266,
				"y": -1.2227586089,
				"z": 4.06726834,
				"element": "H" 
			},
			{
				"x": -1.6423596263,
				"y": -1.1084234048,
				"z": 3.2775021435,
				"element": "H" 
			},
			{
				"x": 1.388679167,
				"y": 0.6893722747,
				"z": 3.2682367639,
				"element": "H" 
			},
			{
				"x": -1.0116006026,
				"y": -1.6227233556,
				"z": 1.0105593419,
				"element": "H" 
			},
			{
				"x": 0.459747106,
				"y": -3.248752794,
				"z": 1.4753897131,
				"element": "H" 
			},
			{
				"x": 1.5035519741,
				"y": -2.0971164059,
				"z": 2.2764271188,
				"element": "H" 
			},
			{
				"x": 2.938691261,
				"y": -3.1119766287,
				"z": 0.6040754123,
				"element": "H" 
			},
			{
				"x": 2.49543261,
				"y": -3.2359169113,
				"z": -2.7626866083,
				"element": "H" 
			},
			{
				"x": 3.8006617525,
				"y": -3.1229554173,
				"z": -1.592648607,
				"element": "H" 
			},
			{
				"x": 4.4802850738,
				"y": -1.0493263511,
				"z": -2.4780084601,
				"element": "H" 
			},
			{
				"x": 4.0952137803,
				"y": -1.1997961706,
				"z": -4.7380743553,
				"element": "H" 
			},
			{
				"x": 2.7085717317,
				"y": 0.4356075741,
				"z": -3.7402342487,
				"element": "H" 
			},
			{
				"x": 2.7643409213,
				"y": 0.4289606717,
				"z": -1.9847554354,
				"element": "H" 
			},
			{
				"x": 0.3814088632,
				"y": 0.1758320155,
				"z": -2.9479797618,
				"element": "H" 
			},
			{
				"x": 0.9130406926,
				"y": -1.3344639794,
				"z": -3.656322658,
				"element": "H" 
			},
			{
				"x": -0.7134517841,
				"y": -2.9992020012,
				"z": -0.9325250002,
				"element": "H" 
			},
			{
				"x": -1.2424802604,
				"y": -1.9744209475,
				"z": -2.279968775,
				"element": "H" 
			},
			{
				"x": 0.0015579176,
				"y": -3.2072121779,
				"z": -2.5329994776,
				"element": "H" 
			},
			{
				"x": -0.8549557412,
				"y": -0.2250380737,
				"z": -0.7406203539,
				"element": "H" 
			},
			{
				"x": 1.8519154287,
				"y": 0.7615248174,
				"z": 0.2019990515,
				"element": "H" 
			},
			{
				"x": 0.9866214427,
				"y": 1.3779718405,
				"z": -1.2055646688,
				"element": "H" 
			},
			{
				"x": -0.6452082608,
				"y": 2.4640116919,
				"z": 0.0365390913,
				"element": "H" 
			},
			{
				"x": 0.742881343,
				"y": 2.6205042171,
				"z": 1.0937010713,
				"element": "H" 
			}
		],
		 "valence_orbital": [ 
			{
				"type": "occ",
				"energy": -0.28292,
				"method": "rhf"
			},
			{
				"type": "occ",
				"energy": -0.27142,
				"method": "rhf"
			},
			{
				"type": "occ",
				"energy": -0.253,
				"method": "rhf"
			},
			{
				"type": "occ",
				"energy": -0.24771,
				"method": "rhf"
			},
			{
				"type": "occ",
				"energy": -0.21475,
				"method": "rhf"
			},
			{
				"type": "unocc",
				"energy": 0.03871,
				"method": "rhf"
			},
			{
				"type": "unocc",
				"energy": 0.05286,
				"method": "rhf"
			},
			{
				"type": "unocc",
				"energy": 0.08355,
				"method": "rhf"
			},
			{
				"type": "unocc",
				"energy": 0.08757,
				"method": "rhf"
			},
			{
				"type": "unocc",
				"energy": 0.09273,
				"method": "rhf"
			}
		],
		"cosmo_sigma_profile": { 
			"-0.025": 0.0,
			"-0.024": 0.0,
			"-0.023": 0.0,
			"-0.022": 0.0,
			"-0.021": 0.0,
			"-0.02": 0.0,
			"-0.019": 0.0,
			"-0.018": 0.0,
			"-0.017": 0.0,
			"-0.016": 0.0,
			"-0.015": 0.363797924115,
			"-0.014": 1.09555628365,
			"-0.013": 2.08902059518,
			"-0.012": 1.50648787953,
			"-0.011": 1.77100045004,
			"-0.01": 1.17218316288,
			"-0.009": 2.06225769611,
			"-0.008": 1.75218051634,
			"-0.007": 1.75765374519,
			"-0.006": 3.10695399232,
			"-0.005": 2.83787340722,
			"-0.004": 3.4609735616,
			"-0.003": 25.0644086349,
			"-0.002": 55.5468420941,
			"-0.001": 56.8207722094,
			"0.0": 49.5476905544,
			"0.001": 45.4616737748,
			"0.002": 24.9374003507,
			"0.003": 7.38558378213,
			"0.004": 5.56688248189,
			"0.005": 4.58141125685,
			"0.006": 5.74647348342,
			"0.007": 3.65087966681,
			"0.008": 3.85355372212,
			"0.009": 2.77831955171,
			"0.01": 3.27494001355,
			"0.011": 2.92161674684,
			"0.012": 1.45755682769,
			"0.013": 2.5685472957,
			"0.014": 1.89081931006,
			"0.015": 0.743650356796,
			"0.016": 0.0,
			"0.017": 0.0,
			"0.018": 0.0,
			"0.019": 0.0,
			"0.02": 0.0,
			"0.021": 0.0,
			"0.022": 0.0,
			"0.023": 0.0,
			"0.024": 0.0,
			"0.025": 0.0
		}
	}
}
