{
	 "smiles": "OC(=O)C(CC1=NC=CC=C1)NC(=O)OCC1C2=C(C=CC=C2)C2=C1C=CC=C2", 
	 "Tm": 427.15, 
	 "num_atms": 49, 
	 "gaussian": { 
		 "optdone": 1, 
		 "sigma_profile": "yes", 
		 "theory": "DFT", 
		 "functional": "B3LYP", 
		 "basiset": "6-31G**", 
		 "properties": { 
			 "R2extent": 15642.9095, 
			 "electric_dipole_moment_norm": 3.1551973203, 
			 "electric_quadrupole_moment_norm": 35.3084731808, 
			 "total_energy": -1298.95693733, 
			 "HOMO_LUMO_gap": 0.1691, 
			 "cosmo_polarized_energy": -20.23, 
			 "cosmo_cavitation_energy": 53.34, 
			 "cosmo_dispersion_energy": -35.52, 
			 "cosmo_repulsion_energy": 2.63, 
			 "cosmo_total_nonelectrostatic_energy": 20.45, 
			 "SMD_solvation_energy": 9.52 
		},
		"coords": [
			{
				"x": -0.6795807277,
				"y": -1.247670695,
				"z": -3.2055160218,
				"element": "O" 
			},
			{
				"x": -1.7122235885,
				"y": -1.9126220322,
				"z": -2.6580387634,
				"element": "C" 
			},
			{
				"x": -2.0292739172,
				"y": -3.0247908023,
				"z": -3.0073103353,
				"element": "O" 
			},
			{
				"x": -2.4526740505,
				"y": -1.1633757683,
				"z": -1.5281913749,
				"element": "C" 
			},
			{
				"x": -3.9802122065,
				"y": -1.256664544,
				"z": -1.7462076008,
				"element": "C" 
			},
			{
				"x": -4.4751732829,
				"y": -0.5516533051,
				"z": -2.9923566618,
				"element": "C" 
			},
			{
				"x": -4.2588342817,
				"y": 0.7768847142,
				"z": -3.0575930757,
				"element": "N" 
			},
			{
				"x": -4.6926019538,
				"y": 1.443817369,
				"z": -4.1338468183,
				"element": "C" 
			},
			{
				"x": -5.3652274654,
				"y": 0.8351398654,
				"z": -5.1927427962,
				"element": "C" 
			},
			{
				"x": -5.5776306583,
				"y": -0.5412031942,
				"z": -5.1326179921,
				"element": "C" 
			},
			{
				"x": -5.1233692727,
				"y": -1.2464880046,
				"z": -4.0194541361,
				"element": "C" 
			},
			{
				"x": -1.9950169333,
				"y": 0.2221768991,
				"z": -1.3915967047,
				"element": "N" 
			},
			{
				"x": -1.2894648996,
				"y": 0.7059278511,
				"z": -0.307322107,
				"element": "C" 
			},
			{
				"x": -1.1828398148,
				"y": 1.8871959197,
				"z": -0.0407332227,
				"element": "O" 
			},
			{
				"x": -0.694608758,
				"y": -0.3014649791,
				"z": 0.3827994896,
				"element": "O" 
			},
			{
				"x": 0.1211373919,
				"y": 0.1031084517,
				"z": 1.5043606333,
				"element": "C" 
			},
			{
				"x": 1.5433041534,
				"y": 0.495490779,
				"z": 1.0721626842,
				"element": "C" 
			},
			{
				"x": 2.3618803426,
				"y": 0.9672604605,
				"z": 2.2645225391,
				"element": "C" 
			},
			{
				"x": 3.5085420256,
				"y": 0.1616808274,
				"z": 2.4196284171,
				"element": "C" 
			},
			{
				"x": 4.4078614342,
				"y": 0.4073943755,
				"z": 3.4593484207,
				"element": "C" 
			},
			{
				"x": 4.1496802771,
				"y": 1.4608830629,
				"z": 4.3397610173,
				"element": "C" 
			},
			{
				"x": 3.0128027812,
				"y": 2.2610430224,
				"z": 4.1831384008,
				"element": "C" 
			},
			{
				"x": 2.1103304022,
				"y": 2.0177316686,
				"z": 3.1407076849,
				"element": "C" 
			},
			{
				"x": 3.5203507996,
				"y": -0.8460140185,
				"z": 1.3508313815,
				"element": "C" 
			},
			{
				"x": 2.3784330471,
				"y": -0.6610850842,
				"z": 0.5417966532,
				"element": "C" 
			},
			{
				"x": 2.1570427113,
				"y": -1.4838309196,
				"z": -0.5588146345,
				"element": "C" 
			},
			{
				"x": 3.0800064142,
				"y": -2.4969978688,
				"z": -0.8447848432,
				"element": "C" 
			},
			{
				"x": 4.2097409145,
				"y": -2.681493073,
				"z": -0.04087863,
				"element": "C" 
			},
			{
				"x": 4.4396045661,
				"y": -1.856622727,
				"z": 1.062344344,
				"element": "C" 
			},
			{
				"x": -0.6755407873,
				"y": -0.3601263677,
				"z": -2.7946473872,
				"element": "H" 
			},
			{
				"x": -2.2059323356,
				"y": -1.7025354433,
				"z": -0.6100733738,
				"element": "H" 
			},
			{
				"x": -4.2353420012,
				"y": -2.3169270222,
				"z": -1.7953558068,
				"element": "H" 
			},
			{
				"x": -4.4756200885,
				"y": -0.8265926349,
				"z": -0.8685436193,
				"element": "H" 
			},
			{
				"x": -4.4926084385,
				"y": 2.5132184968,
				"z": -4.1457127634,
				"element": "H" 
			},
			{
				"x": -5.7028158302,
				"y": 1.4244111276,
				"z": -6.0389133081,
				"element": "H" 
			},
			{
				"x": -6.0853526856,
				"y": -1.0595757024,
				"z": -5.9407437572,
				"element": "H" 
			},
			{
				"x": -5.2582521299,
				"y": -2.3203316978,
				"z": -3.9445125815,
				"element": "H" 
			},
			{
				"x": -2.6173410618,
				"y": 0.910576714,
				"z": -1.8202132223,
				"element": "H" 
			},
			{
				"x": 0.1435888584,
				"y": -0.7664703482,
				"z": 2.1637887234,
				"element": "H" 
			},
			{
				"x": -0.3659802189,
				"y": 0.9403633859,
				"z": 2.0075778554,
				"element": "H" 
			},
			{
				"x": 1.4477120111,
				"y": 1.2976347421,
				"z": 0.3285715609,
				"element": "H" 
			},
			{
				"x": 5.295524448,
				"y": -0.2065087644,
				"z": 3.584659512,
				"element": "H" 
			},
			{
				"x": 4.8410066405,
				"y": 1.6634408493,
				"z": 5.1529158035,
				"element": "H" 
			},
			{
				"x": 2.8304922038,
				"y": 3.0795334949,
				"z": 4.8734439478,
				"element": "H" 
			},
			{
				"x": 1.2341647759,
				"y": 2.6492297072,
				"z": 3.0176722499,
				"element": "H" 
			},
			{
				"x": 1.285926791,
				"y": -1.353518965,
				"z": -1.1925283924,
				"element": "H" 
			},
			{
				"x": 2.9155717628,
				"y": -3.1440025309,
				"z": -1.7014198094,
				"element": "H" 
			},
			{
				"x": 4.9163144794,
				"y": -3.4715744994,
				"z": -0.2789770334,
				"element": "H" 
			},
			{
				"x": 5.3210981564,
				"y": -2.0005027924,
				"z": 1.6812154546,
				"element": "H" 
			}
		],
		 "valence_orbital": [ 
			{
				"type": "occ",
				"energy": -0.27255,
				"method": "rhf"
			},
			{
				"type": "occ",
				"energy": -0.25458,
				"method": "rhf"
			},
			{
				"type": "occ",
				"energy": -0.24869,
				"method": "rhf"
			},
			{
				"type": "occ",
				"energy": -0.24144,
				"method": "rhf"
			},
			{
				"type": "occ",
				"energy": -0.2133,
				"method": "rhf"
			},
			{
				"type": "unocc",
				"energy": -0.0442,
				"method": "rhf"
			},
			{
				"type": "unocc",
				"energy": -0.02898,
				"method": "rhf"
			},
			{
				"type": "unocc",
				"energy": -0.027,
				"method": "rhf"
			},
			{
				"type": "unocc",
				"energy": -0.01066,
				"method": "rhf"
			},
			{
				"type": "unocc",
				"energy": 0.00803,
				"method": "rhf"
			}
		],
		"cosmo_sigma_profile": { 
			"-0.025": 0.0,
			"-0.024": 0.0,
			"-0.023": 0.0,
			"-0.022": 0.0,
			"-0.021": 0.0,
			"-0.02": 0.0,
			"-0.019": 0.0,
			"-0.018": 0.0,
			"-0.017": 0.0,
			"-0.016": 0.0,
			"-0.015": 0.015191326944,
			"-0.014": 0.355821776658,
			"-0.013": 0.76314502541,
			"-0.012": 0.367491278554,
			"-0.011": 1.12082274855,
			"-0.01": 1.16639996425,
			"-0.009": 1.40153317787,
			"-0.008": 2.78053185284,
			"-0.007": 11.0956108971,
			"-0.006": 29.201287671,
			"-0.005": 40.4980139694,
			"-0.004": 35.7967996005,
			"-0.003": 34.9922181652,
			"-0.002": 29.712453822,
			"-0.001": 26.0207866054,
			"0.0": 25.5687127982,
			"0.001": 28.0978818978,
			"0.002": 31.0913859687,
			"0.003": 27.5327836436,
			"0.004": 22.5019310014,
			"0.005": 22.8578102537,
			"0.006": 14.6982786138,
			"0.007": 4.07658602669,
			"0.008": 3.9381656706,
			"0.009": 5.41067543731,
			"0.01": 6.34073851055,
			"0.011": 5.80484043589,
			"0.012": 8.41159375032,
			"0.013": 4.43661837093,
			"0.014": 0.165051524756,
			"0.015": 0.0,
			"0.016": 0.0,
			"0.017": 0.0,
			"0.018": 0.0,
			"0.019": 0.0,
			"0.02": 0.0,
			"0.021": 0.0,
			"0.022": 0.0,
			"0.023": 0.0,
			"0.024": 0.0,
			"0.025": 0.0
		}
	}
}
