{
	 "smiles": "O=N(=O)C1=CC2=C(C(=C1)N(=O)=O)C(=CC(=C2)N(=O)=O)N(=O)=O", 
	 "Tm": 480.15, 
	 "num_atms": 26, 
	 "gaussian": { 
		 "optdone": 1, 
		 "sigma_profile": "yes", 
		 "theory": "DFT", 
		 "functional": "B3LYP", 
		 "basiset": "6-31G**", 
		 "properties": { 
			 "R2extent": 7794.385, 
			 "electric_dipole_moment_norm": 3.3914397857, 
			 "electric_quadrupole_moment_norm": 19.640151044, 
			 "total_energy": -1203.84004224, 
			 "HOMO_LUMO_gap": 0.15278, 
			 "cosmo_polarized_energy": -21.57, 
			 "cosmo_cavitation_energy": 34.66, 
			 "cosmo_dispersion_energy": -24.47, 
			 "cosmo_repulsion_energy": 1.8, 
			 "cosmo_total_nonelectrostatic_energy": 11.99, 
			 "SMD_solvation_energy": 14.76 
		},
		"coords": [
			{
				"x": 1.2452058644,
				"y": 5.4990534859,
				"z": 1.1961270731,
				"element": "O" 
			},
			{
				"x": 0.1762474327,
				"y": 5.2884851861,
				"z": 0.6298928447,
				"element": "N" 
			},
			{
				"x": -0.6350862085,
				"y": 6.1433669932,
				"z": 0.2878978957,
				"element": "O" 
			},
			{
				"x": -0.1632548907,
				"y": 3.8834532812,
				"z": 0.3305382459,
				"element": "C" 
			},
			{
				"x": 0.7004170648,
				"y": 2.8886124823,
				"z": 0.7082969542,
				"element": "C" 
			},
			{
				"x": 0.3905851285,
				"y": 1.5393553232,
				"z": 0.398442257,
				"element": "C" 
			},
			{
				"x": -0.8176009079,
				"y": 1.2151195825,
				"z": -0.3144411164,
				"element": "C" 
			},
			{
				"x": -1.7184386675,
				"y": 2.2953755483,
				"z": -0.5623403388,
				"element": "C" 
			},
			{
				"x": -1.393556302,
				"y": 3.6018800617,
				"z": -0.2884237094,
				"element": "C" 
			},
			{
				"x": -3.1253183696,
				"y": 2.0695094143,
				"z": -0.9582641244,
				"element": "N" 
			},
			{
				"x": -3.6561119288,
				"y": 2.9125430781,
				"z": -1.6677296545,
				"element": "O" 
			},
			{
				"x": -3.6741391833,
				"y": 1.0854081233,
				"z": -0.4676964445,
				"element": "O" 
			},
			{
				"x": -0.9830891842,
				"y": -0.1512992226,
				"z": -0.6957921699,
				"element": "C" 
			},
			{
				"x": -0.1290017957,
				"y": -1.1414096622,
				"z": -0.274202029,
				"element": "C" 
			},
			{
				"x": 0.9940507386,
				"y": -0.7914258236,
				"z": 0.4954125658,
				"element": "C" 
			},
			{
				"x": 1.2845362559,
				"y": 0.5131560534,
				"z": 0.7987650025,
				"element": "C" 
			},
			{
				"x": 1.9124914386,
				"y": -1.8588741158,
				"z": 0.9381367899,
				"element": "N" 
			},
			{
				"x": 1.6202852456,
				"y": -3.0099217596,
				"z": 0.6286989029,
				"element": "O" 
			},
			{
				"x": 2.8989324509,
				"y": -1.5178449902,
				"z": 1.5848764645,
				"element": "O" 
			},
			{
				"x": -1.9718292119,
				"y": -0.5683163479,
				"z": -1.7134274137,
				"element": "N" 
			},
			{
				"x": -2.4595090818,
				"y": -1.6846357601,
				"z": -1.6048808214,
				"element": "O" 
			},
			{
				"x": -2.1601208979,
				"y": 0.2179557384,
				"z": -2.6389742684,
				"element": "O" 
			},
			{
				"x": 1.6136450505,
				"y": 3.1381769251,
				"z": 1.235299012,
				"element": "H" 
			},
			{
				"x": -2.0916295662,
				"y": 4.3989704683,
				"z": -0.509060241,
				"element": "H" 
			},
			{
				"x": -0.296057312,
				"y": -2.1706658654,
				"z": -0.5641475065,
				"element": "H" 
			},
			{
				"x": 2.1896468377,
				"y": 0.751571802,
				"z": 1.3445958298,
				"element": "H" 
			}
		],
		 "valence_orbital": [ 
			{
				"type": "occ",
				"energy": -0.33006,
				"method": "rhf"
			},
			{
				"type": "occ",
				"energy": -0.32825,
				"method": "rhf"
			},
			{
				"type": "occ",
				"energy": -0.32796,
				"method": "rhf"
			},
			{
				"type": "occ",
				"energy": -0.3187,
				"method": "rhf"
			},
			{
				"type": "occ",
				"energy": -0.29936,
				"method": "rhf"
			},
			{
				"type": "unocc",
				"energy": -0.14658,
				"method": "rhf"
			},
			{
				"type": "unocc",
				"energy": -0.13734,
				"method": "rhf"
			},
			{
				"type": "unocc",
				"energy": -0.11601,
				"method": "rhf"
			},
			{
				"type": "unocc",
				"energy": -0.10861,
				"method": "rhf"
			},
			{
				"type": "unocc",
				"energy": -0.06269,
				"method": "rhf"
			}
		],
		"cosmo_sigma_profile": { 
			"-0.025": 0.0,
			"-0.024": 0.0,
			"-0.023": 0.0,
			"-0.022": 0.0,
			"-0.021": 0.0,
			"-0.02": 0.0,
			"-0.019": 0.0,
			"-0.018": 0.0,
			"-0.017": 0.0,
			"-0.016": 0.0,
			"-0.015": 0.0,
			"-0.014": 0.191485162769,
			"-0.013": 1.26914501329,
			"-0.012": 2.11027466316,
			"-0.011": 1.72820250576,
			"-0.01": 3.05400927376,
			"-0.009": 8.10678593138,
			"-0.008": 9.56142414397,
			"-0.007": 12.9928941414,
			"-0.006": 20.3695213113,
			"-0.005": 26.7426672103,
			"-0.004": 19.73459116,
			"-0.003": 10.726844652,
			"-0.002": 8.69337044882,
			"-0.001": 8.9941523762,
			"0.0": 8.17031452406,
			"0.001": 10.1032161525,
			"0.002": 11.173584162,
			"0.003": 11.3312223894,
			"0.004": 13.1554624955,
			"0.005": 16.9197234817,
			"0.006": 34.531248919,
			"0.007": 21.8677926378,
			"0.008": 14.0090440847,
			"0.009": 5.25251780893,
			"0.01": 0.00198857207258,
			"0.011": 0.0,
			"0.012": 0.0,
			"0.013": 0.0,
			"0.014": 0.0,
			"0.015": 0.0,
			"0.016": 0.0,
			"0.017": 0.0,
			"0.018": 0.0,
			"0.019": 0.0,
			"0.02": 0.0,
			"0.021": 0.0,
			"0.022": 0.0,
			"0.023": 0.0,
			"0.024": 0.0,
			"0.025": 0.0
		}
	}
}
