{
	 "smiles": "NC1=C(C=CC(Br)=C1)S(N)(=O)=O", 
	 "Tm": 416.15, 
	 "num_atms": 19, 
	 "gaussian": { 
		 "optdone": 1, 
		 "sigma_profile": "yes", 
		 "theory": "DFT", 
		 "functional": "B3LYP", 
		 "basiset": "6-31G**", 
		 "properties": { 
			 "R2extent": 4974.3591, 
			 "electric_dipole_moment_norm": 4.391779004, 
			 "electric_quadrupole_moment_norm": 20.0046070014, 
			 "total_energy": -3462.33838391, 
			 "HOMO_LUMO_gap": 0.19357, 
			 "cosmo_polarized_energy": -17.9, 
			 "cosmo_cavitation_energy": 26.37, 
			 "cosmo_dispersion_energy": -20.78, 
			 "cosmo_repulsion_energy": 1.61, 
			 "cosmo_total_nonelectrostatic_energy": 7.19, 
			 "SMD_solvation_energy": 2.97 
		},
		"coords": [
			{
				"x": 1.3979290626,
				"y": -2.4503683359,
				"z": 0.5452022248,
				"element": "N" 
			},
			{
				"x": 0.2397526321,
				"y": -1.7218634518,
				"z": 0.7887121439,
				"element": "C" 
			},
			{
				"x": -0.5645673107,
				"y": -1.2472147308,
				"z": -0.2747382877,
				"element": "C" 
			},
			{
				"x": -1.709178214,
				"y": -0.4873155927,
				"z": -0.0328156777,
				"element": "C" 
			},
			{
				"x": -2.0799275441,
				"y": -0.1546826038,
				"z": 1.2671492267,
				"element": "C" 
			},
			{
				"x": -1.2724804291,
				"y": -0.6007704418,
				"z": 2.3143774934,
				"element": "C" 
			},
			{
				"x": -1.7457641191,
				"y": -0.1537893776,
				"z": 4.1085310414,
				"element": "Br" 
			},
			{
				"x": -0.1365695836,
				"y": -1.3721219668,
				"z": 2.0971459629,
				"element": "C" 
			},
			{
				"x": -0.0924000015,
				"y": -1.5787870835,
				"z": -1.9687481488,
				"element": "S" 
			},
			{
				"x": 1.3221646936,
				"y": -0.712032214,
				"z": -2.2366410703,
				"element": "N" 
			},
			{
				"x": -1.1049819715,
				"y": -1.0011927081,
				"z": -2.8480405312,
				"element": "O" 
			},
			{
				"x": 0.2950399212,
				"y": -2.9939348462,
				"z": -2.0482208186,
				"element": "O" 
			},
			{
				"x": 1.8133328904,
				"y": -2.8684687329,
				"z": 1.3667039635,
				"element": "H" 
			},
			{
				"x": 1.3271757318,
				"y": -3.0948102347,
				"z": -0.2380393686,
				"element": "H" 
			},
			{
				"x": -2.3026322896,
				"y": -0.1590758802,
				"z": -0.8794357102,
				"element": "H" 
			},
			{
				"x": -2.9667440178,
				"y": 0.4349830485,
				"z": 1.4623612045,
				"element": "H" 
			},
			{
				"x": 0.4576967045,
				"y": -1.7145922222,
				"z": 2.9375709956,
				"element": "H" 
			},
			{
				"x": 2.051626749,
				"y": -0.9788815573,
				"z": -1.5783237298,
				"element": "H" 
			},
			{
				"x": 1.1510270957,
				"y": 0.2895189319,
				"z": -2.2396509136,
				"element": "H" 
			}
		],
		 "valence_orbital": [ 
			{
				"type": "occ",
				"energy": -0.30928,
				"method": "rhf"
			},
			{
				"type": "occ",
				"energy": -0.30675,
				"method": "rhf"
			},
			{
				"type": "occ",
				"energy": -0.29926,
				"method": "rhf"
			},
			{
				"type": "occ",
				"energy": -0.26258,
				"method": "rhf"
			},
			{
				"type": "occ",
				"energy": -0.23886,
				"method": "rhf"
			},
			{
				"type": "unocc",
				"energy": -0.04529,
				"method": "rhf"
			},
			{
				"type": "unocc",
				"energy": -0.02036,
				"method": "rhf"
			},
			{
				"type": "unocc",
				"energy": -0.00583,
				"method": "rhf"
			},
			{
				"type": "unocc",
				"energy": 0.05354,
				"method": "rhf"
			},
			{
				"type": "unocc",
				"energy": 0.06649,
				"method": "rhf"
			}
		],
		"cosmo_sigma_profile": { 
			"-0.025": 0.0,
			"-0.024": 0.0,
			"-0.023": 0.0,
			"-0.022": 0.0,
			"-0.021": 0.0,
			"-0.02": 0.0,
			"-0.019": 0.0,
			"-0.018": 0.0,
			"-0.017": 0.0,
			"-0.016": 0.432538186668,
			"-0.015": 1.2196265734,
			"-0.014": 2.29172684288,
			"-0.013": 3.66954772673,
			"-0.012": 4.53013604792,
			"-0.011": 4.25780462699,
			"-0.01": 4.49724444097,
			"-0.009": 3.64443277647,
			"-0.008": 4.62967236212,
			"-0.007": 6.96654332678,
			"-0.006": 7.52016078207,
			"-0.005": 8.13538386972,
			"-0.004": 7.82044706022,
			"-0.003": 9.52067116001,
			"-0.002": 8.84714559192,
			"-0.001": 10.0025120702,
			"0.0": 13.2739741836,
			"0.001": 18.2010231929,
			"0.002": 21.0232439269,
			"0.003": 15.2653030066,
			"0.004": 15.2166970916,
			"0.005": 5.11444147735,
			"0.006": 3.76292815196,
			"0.007": 5.06473359104,
			"0.008": 5.03515924243,
			"0.009": 4.49165887702,
			"0.01": 7.67919444212,
			"0.011": 8.69310643187,
			"0.012": 2.77783787562,
			"0.013": 0.234794670817,
			"0.014": 0.0,
			"0.015": 0.0,
			"0.016": 0.0,
			"0.017": 0.0,
			"0.018": 0.0,
			"0.019": 0.0,
			"0.02": 0.0,
			"0.021": 0.0,
			"0.022": 0.0,
			"0.023": 0.0,
			"0.024": 0.0,
			"0.025": 0.0
		}
	}
}
