{
	 "smiles": "CCC1=CC=CN=C1", 
	 "Tm": 196.15, 
	 "num_atms": 17, 
	 "gaussian": { 
		 "optdone": 1, 
		 "sigma_profile": "yes", 
		 "theory": "DFT", 
		 "functional": "B3LYP", 
		 "basiset": "6-31G**", 
		 "properties": { 
			 "R2extent": 1324.9244, 
			 "electric_dipole_moment_norm": 2.38881093643, 
			 "electric_quadrupole_moment_norm": 5.86755409093, 
			 "total_energy": -326.923104538, 
			 "HOMO_LUMO_gap": 0.22758, 
			 "cosmo_polarized_energy": -5.8, 
			 "cosmo_cavitation_energy": 20.24, 
			 "cosmo_dispersion_energy": -14.86, 
			 "cosmo_repulsion_energy": 1.24, 
			 "cosmo_total_nonelectrostatic_energy": 6.62, 
			 "SMD_solvation_energy": 2.14 
		},
		"coords": [
			{
				"x": 2.4503936454,
				"y": 3.0456195622,
				"z": -0.1112600996,
				"element": "C" 
			},
			{
				"x": 2.0826103294,
				"y": 1.6939377307,
				"z": -0.7497179841,
				"element": "C" 
			},
			{
				"x": 0.7404232572,
				"y": 1.1711229151,
				"z": -0.289921807,
				"element": "C" 
			},
			{
				"x": -0.4600223232,
				"y": 1.5951583187,
				"z": -0.871135576,
				"element": "C" 
			},
			{
				"x": -1.6698623951,
				"y": 1.1056639749,
				"z": -0.3833995876,
				"element": "C" 
			},
			{
				"x": -1.6425347675,
				"y": 0.2005337479,
				"z": 0.6786121802,
				"element": "C" 
			},
			{
				"x": -0.5103955606,
				"y": -0.2258449099,
				"z": 1.2513351768,
				"element": "N" 
			},
			{
				"x": 0.6398119338,
				"y": 0.2559579186,
				"z": 0.7671380457,
				"element": "C" 
			},
			{
				"x": 3.4250371071,
				"y": 3.3940638246,
				"z": -0.468214344,
				"element": "H" 
			},
			{
				"x": 2.4965235595,
				"y": 2.9639672435,
				"z": 0.9793852884,
				"element": "H" 
			},
			{
				"x": 1.7068081104,
				"y": 3.8115878664,
				"z": -0.3548174828,
				"element": "H" 
			},
			{
				"x": 2.8593623154,
				"y": 0.9579873379,
				"z": -0.511017888,
				"element": "H" 
			},
			{
				"x": 2.0791697984,
				"y": 1.798711824,
				"z": -1.8415915267,
				"element": "H" 
			},
			{
				"x": -0.4447602025,
				"y": 2.2983959088,
				"z": -1.7009816517,
				"element": "H" 
			},
			{
				"x": -2.6160387461,
				"y": 1.4140249355,
				"z": -0.8178169579,
				"element": "H" 
			},
			{
				"x": -2.5688896043,
				"y": -0.2024810841,
				"z": 1.0845993764,
				"element": "H" 
			},
			{
				"x": 1.548263543,
				"y": -0.1113071148,
				"z": 1.2457048378,
				"element": "H" 
			}
		],
		 "valence_orbital": [ 
			{
				"type": "occ",
				"energy": -0.35263,
				"method": "rhf"
			},
			{
				"type": "occ",
				"energy": -0.34271,
				"method": "rhf"
			},
			{
				"type": "occ",
				"energy": -0.27922,
				"method": "rhf"
			},
			{
				"type": "occ",
				"energy": -0.25087,
				"method": "rhf"
			},
			{
				"type": "occ",
				"energy": -0.24775,
				"method": "rhf"
			},
			{
				"type": "unocc",
				"energy": -0.02017,
				"method": "rhf"
			},
			{
				"type": "unocc",
				"energy": -0.00638,
				"method": "rhf"
			},
			{
				"type": "unocc",
				"energy": 0.09179,
				"method": "rhf"
			},
			{
				"type": "unocc",
				"energy": 0.11247,
				"method": "rhf"
			},
			{
				"type": "unocc",
				"energy": 0.1342,
				"method": "rhf"
			}
		],
		"cosmo_sigma_profile": { 
			"-0.025": 0.0,
			"-0.024": 0.0,
			"-0.023": 0.0,
			"-0.022": 0.0,
			"-0.021": 0.0,
			"-0.02": 0.0,
			"-0.019": 0.0,
			"-0.018": 0.0,
			"-0.017": 0.0,
			"-0.016": 0.0,
			"-0.015": 0.0,
			"-0.014": 0.0,
			"-0.013": 0.0,
			"-0.012": 0.0,
			"-0.011": 0.0,
			"-0.01": 0.0,
			"-0.009": 0.0,
			"-0.008": 0.0,
			"-0.007": 0.977553040599,
			"-0.006": 6.53114382569,
			"-0.005": 10.0839943358,
			"-0.004": 14.7382184457,
			"-0.003": 16.1666327841,
			"-0.002": 16.4141538059,
			"-0.001": 17.9414993294,
			"0.0": 16.6042539017,
			"0.001": 15.6217398829,
			"0.002": 9.95873363074,
			"0.003": 13.9393174668,
			"0.004": 5.7331445533,
			"0.005": 1.96534337102,
			"0.006": 1.98757248581,
			"0.007": 1.33371501474,
			"0.008": 0.967688122488,
			"0.009": 1.24454430568,
			"0.01": 1.49038275495,
			"0.011": 1.33229927538,
			"0.012": 0.850825124556,
			"0.013": 1.14237939254,
			"0.014": 0.68785553684,
			"0.015": 0.630528386863,
			"0.016": 1.24318973685,
			"0.017": 0.585502298438,
			"0.018": 0.0164056140743,
			"0.019": 0.0,
			"0.02": 0.0,
			"0.021": 0.0,
			"0.022": 0.0,
			"0.023": 0.0,
			"0.024": 0.0,
			"0.025": 0.0
		}
	}
}
