{
	 "smiles": "FC(F)(F)COC(=O)NC1CCS(=O)(=O)C1", 
	 "Tm": 353.15, 
	 "num_atms": 26, 
	 "gaussian": { 
		 "optdone": 1, 
		 "sigma_profile": "yes", 
		 "theory": "DFT", 
		 "functional": "B3LYP", 
		 "basiset": "6-31G**", 
		 "properties": { 
			 "R2extent": 5947.5803, 
			 "electric_dipole_moment_norm": 3.47733106132, 
			 "electric_quadrupole_moment_norm": 25.4982494946, 
			 "total_energy": -1326.09250574, 
			 "HOMO_LUMO_gap": 0.30437, 
			 "cosmo_polarized_energy": -19.36, 
			 "cosmo_cavitation_energy": 32.4, 
			 "cosmo_dispersion_energy": -23.43, 
			 "cosmo_repulsion_energy": 1.75, 
			 "cosmo_total_nonelectrostatic_energy": 10.72, 
			 "SMD_solvation_energy": 6.14 
		},
		"coords": [
			{
				"x": 0.4326576242,
				"y": 4.3449395299,
				"z": 3.5097573171,
				"element": "F" 
			},
			{
				"x": -0.0206144188,
				"y": 3.7036239797,
				"z": 2.4115471283,
				"element": "C" 
			},
			{
				"x": -1.1273390373,
				"y": 3.0164484484,
				"z": 2.7498684093,
				"element": "F" 
			},
			{
				"x": -0.3760478971,
				"y": 4.6334146369,
				"z": 1.5055540021,
				"element": "F" 
			},
			{
				"x": 1.0661531092,
				"y": 2.7827452752,
				"z": 1.8819991721,
				"element": "C" 
			},
			{
				"x": 0.5885737188,
				"y": 2.08408536,
				"z": 0.7400184994,
				"element": "O" 
			},
			{
				"x": 0.2220308747,
				"y": 0.7783530288,
				"z": 0.9489728652,
				"element": "C" 
			},
			{
				"x": 0.3889471107,
				"y": 0.1684402578,
				"z": 1.989050324,
				"element": "O" 
			},
			{
				"x": -0.3403688334,
				"y": 0.2769214371,
				"z": -0.1806426054,
				"element": "N" 
			},
			{
				"x": -0.7255110036,
				"y": -1.1255051308,
				"z": -0.2489717123,
				"element": "C" 
			},
			{
				"x": 0.4453041206,
				"y": -2.0617894673,
				"z": -0.6663562072,
				"element": "C" 
			},
			{
				"x": 0.6798523677,
				"y": -1.9297004021,
				"z": -2.1830727556,
				"element": "C" 
			},
			{
				"x": -0.8862124923,
				"y": -1.2539817012,
				"z": -2.8870753546,
				"element": "S" 
			},
			{
				"x": -1.4568884017,
				"y": -2.1489193783,
				"z": -3.901432587,
				"element": "O" 
			},
			{
				"x": -0.67067593,
				"y": 0.1796643471,
				"z": -3.1806948525,
				"element": "O" 
			},
			{
				"x": -1.8100083302,
				"y": -1.3290011544,
				"z": -1.3100435969,
				"element": "C" 
			},
			{
				"x": 1.3540619586,
				"y": 2.0836681711,
				"z": 2.6692252949,
				"element": "H" 
			},
			{
				"x": 1.9201128982,
				"y": 3.3886953723,
				"z": 1.5727031743,
				"element": "H" 
			},
			{
				"x": -0.3497371263,
				"y": 0.8390505453,
				"z": -1.0245590121,
				"element": "H" 
			},
			{
				"x": -1.0851785301,
				"y": -1.4113394459,
				"z": 0.7416994884,
				"element": "H" 
			},
			{
				"x": 1.3422428607,
				"y": -1.8169313152,
				"z": -0.0937976469,
				"element": "H" 
			},
			{
				"x": 0.1674633696,
				"y": -3.0921150565,
				"z": -0.4210230102,
				"element": "H" 
			},
			{
				"x": 1.4514281588,
				"y": -1.2029770283,
				"z": -2.4433103021,
				"element": "H" 
			},
			{
				"x": 0.8830345506,
				"y": -2.877383616,
				"z": -2.683200374,
				"element": "H" 
			},
			{
				"x": -2.263674065,
				"y": -2.3196172682,
				"z": -1.2326335446,
				"element": "H" 
			},
			{
				"x": -2.5799066569,
				"y": -0.5563894253,
				"z": -1.3295821134,
				"element": "H" 
			}
		],
		 "valence_orbital": [ 
			{
				"type": "occ",
				"energy": -0.31663,
				"method": "rhf"
			},
			{
				"type": "occ",
				"energy": -0.31277,
				"method": "rhf"
			},
			{
				"type": "occ",
				"energy": -0.29717,
				"method": "rhf"
			},
			{
				"type": "occ",
				"energy": -0.29407,
				"method": "rhf"
			},
			{
				"type": "occ",
				"energy": -0.27714,
				"method": "rhf"
			},
			{
				"type": "unocc",
				"energy": 0.02723,
				"method": "rhf"
			},
			{
				"type": "unocc",
				"energy": 0.03866,
				"method": "rhf"
			},
			{
				"type": "unocc",
				"energy": 0.04876,
				"method": "rhf"
			},
			{
				"type": "unocc",
				"energy": 0.06069,
				"method": "rhf"
			},
			{
				"type": "unocc",
				"energy": 0.06183,
				"method": "rhf"
			}
		],
		"cosmo_sigma_profile": { 
			"-0.025": 0.0,
			"-0.024": 0.0,
			"-0.023": 0.0,
			"-0.022": 0.0,
			"-0.021": 0.0,
			"-0.02": 0.0,
			"-0.019": 0.0,
			"-0.018": 0.0,
			"-0.017": 0.0,
			"-0.016": 0.0,
			"-0.015": 0.0,
			"-0.014": 0.0,
			"-0.013": 0.0,
			"-0.012": 0.0,
			"-0.011": 0.0547074619669,
			"-0.01": 1.82272630403,
			"-0.009": 7.43338949782,
			"-0.008": 13.1460443698,
			"-0.007": 16.6270205754,
			"-0.006": 19.9923373969,
			"-0.005": 19.7241805907,
			"-0.004": 15.4015218878,
			"-0.003": 12.4809243818,
			"-0.002": 9.12300374788,
			"-0.001": 8.664027957,
			"0.0": 10.0385388701,
			"0.001": 12.5687945947,
			"0.002": 26.2602883367,
			"0.003": 25.8766133384,
			"0.004": 5.92684485054,
			"0.005": 5.13202601142,
			"0.006": 3.56350377342,
			"0.007": 4.60022066663,
			"0.008": 3.46048783066,
			"0.009": 4.67046061567,
			"0.01": 6.96876829116,
			"0.011": 11.0991922648,
			"0.012": 10.6712141242,
			"0.013": 1.02411010248,
			"0.014": 0.0,
			"0.015": 0.0,
			"0.016": 0.0,
			"0.017": 0.0,
			"0.018": 0.0,
			"0.019": 0.0,
			"0.02": 0.0,
			"0.021": 0.0,
			"0.022": 0.0,
			"0.023": 0.0,
			"0.024": 0.0,
			"0.025": 0.0
		}
	}
}
