{
	 "smiles": "SC1=NN=C(N1)C1=CC=CS1", 
	 "Tm": 513.15, 
	 "num_atms": 16, 
	 "gaussian": { 
		 "optdone": 1, 
		 "sigma_profile": "yes", 
		 "theory": "DFT", 
		 "functional": "B3LYP", 
		 "basiset": "6-31G**", 
		 "properties": { 
			 "R2extent": 2908.5183, 
			 "electric_dipole_moment_norm": 3.74942370638, 
			 "electric_quadrupole_moment_norm": 13.7383087391, 
			 "total_energy": -1192.23813012, 
			 "HOMO_LUMO_gap": 0.16612, 
			 "cosmo_polarized_energy": -17.54, 
			 "cosmo_cavitation_energy": 24.47, 
			 "cosmo_dispersion_energy": -19.38, 
			 "cosmo_repulsion_energy": 1.45, 
			 "cosmo_total_nonelectrostatic_energy": 6.54, 
			 "SMD_solvation_energy": 1.59 
		},
		"coords": [
			{
				"x": -1.5797796709,
				"y": -0.5024509102,
				"z": 3.4412712259,
				"element": "S" 
			},
			{
				"x": -0.2316086986,
				"y": -0.4604120255,
				"z": 2.3034478441,
				"element": "C" 
			},
			{
				"x": 1.0457881955,
				"y": -0.5457895792,
				"z": 2.5945700635,
				"element": "N" 
			},
			{
				"x": 1.7409993755,
				"y": -0.4691392496,
				"z": 1.4063611643,
				"element": "N" 
			},
			{
				"x": 0.8673728279,
				"y": -0.3395214973,
				"z": 0.4275709462,
				"element": "C" 
			},
			{
				"x": -0.4093233457,
				"y": -0.3287564022,
				"z": 0.9521209939,
				"element": "N" 
			},
			{
				"x": 1.193008801,
				"y": -0.2258788769,
				"z": -0.9799290487,
				"element": "C" 
			},
			{
				"x": 2.4530054208,
				"y": -0.2327011888,
				"z": -1.5321873025,
				"element": "C" 
			},
			{
				"x": 2.4395774495,
				"y": -0.1027124833,
				"z": -2.9493762883,
				"element": "C" 
			},
			{
				"x": 1.1773626088,
				"y": 0.0019012635,
				"z": -3.4675791642,
				"element": "C" 
			},
			{
				"x": -0.0286177833,
				"y": -0.0570700054,
				"z": -2.221490271,
				"element": "S" 
			},
			{
				"x": -0.7665298708,
				"y": -0.6381274292,
				"z": 4.5057583307,
				"element": "H" 
			},
			{
				"x": -1.2834413742,
				"y": -0.2430343386,
				"z": 0.4548046679,
				"element": "H" 
			},
			{
				"x": 3.3440333461,
				"y": -0.3286408785,
				"z": -0.9242845069,
				"element": "H" 
			},
			{
				"x": 3.3340940422,
				"y": -0.0874603634,
				"z": -3.5612081259,
				"element": "H" 
			},
			{
				"x": 0.8758586764,
				"y": 0.1097939644,
				"z": -4.4998505289,
				"element": "H" 
			}
		],
		 "valence_orbital": [ 
			{
				"type": "occ",
				"energy": -0.31209,
				"method": "rhf"
			},
			{
				"type": "occ",
				"energy": -0.26852,
				"method": "rhf"
			},
			{
				"type": "occ",
				"energy": -0.26533,
				"method": "rhf"
			},
			{
				"type": "occ",
				"energy": -0.26167,
				"method": "rhf"
			},
			{
				"type": "occ",
				"energy": -0.21488,
				"method": "rhf"
			},
			{
				"type": "unocc",
				"energy": -0.04876,
				"method": "rhf"
			},
			{
				"type": "unocc",
				"energy": -0.0047,
				"method": "rhf"
			},
			{
				"type": "unocc",
				"energy": 0.00646,
				"method": "rhf"
			},
			{
				"type": "unocc",
				"energy": 0.02701,
				"method": "rhf"
			},
			{
				"type": "unocc",
				"energy": 0.03549,
				"method": "rhf"
			}
		],
		"cosmo_sigma_profile": { 
			"-0.025": 0.0,
			"-0.024": 0.0,
			"-0.023": 0.0,
			"-0.022": 0.0,
			"-0.021": 0.0,
			"-0.02": 0.0,
			"-0.019": 0.0908080555778,
			"-0.018": 1.05337892463,
			"-0.017": 0.953661409921,
			"-0.016": 1.48882282269,
			"-0.015": 1.06557975111,
			"-0.014": 1.47594479489,
			"-0.013": 1.40488596293,
			"-0.012": 2.64232251871,
			"-0.011": 2.91986133364,
			"-0.01": 2.40003022218,
			"-0.009": 3.38519439138,
			"-0.008": 5.13229142646,
			"-0.007": 6.87874980705,
			"-0.006": 8.24297709326,
			"-0.005": 8.48404220815,
			"-0.004": 8.38774313472,
			"-0.003": 9.2914772276,
			"-0.002": 10.0225794369,
			"-0.001": 12.9552663339,
			"0.0": 12.1913478526,
			"0.001": 14.9561139874,
			"0.002": 16.6916821338,
			"0.003": 20.8588519571,
			"0.004": 14.0849479398,
			"0.005": 7.19457374555,
			"0.006": 4.93451898392,
			"0.007": 2.17258778333,
			"0.008": 1.69494678,
			"0.009": 1.47942820451,
			"0.01": 2.07225653541,
			"0.011": 2.66360303276,
			"0.012": 2.97512159492,
			"0.013": 3.24155540071,
			"0.014": 3.06270067339,
			"0.015": 1.88654167074,
			"0.016": 1.73082793237,
			"0.017": 0.0588206920619,
			"0.018": 0.0,
			"0.019": 0.0,
			"0.02": 0.0,
			"0.021": 0.0,
			"0.022": 0.0,
			"0.023": 0.0,
			"0.024": 0.0,
			"0.025": 0.0
		}
	}
}
