{
	 "smiles": "[O-][N+](=O)C1=C(C=O)C=CC2=C1C(=O)C1=C(Cl)C(Cl)=C(Cl)C(Cl)=C1C2=O", 
	 "Tm": 539.15, 
	 "num_atms": 28, 
	 "gaussian": { 
		 "optdone": 1, 
		 "sigma_profile": "yes", 
		 "theory": "DFT", 
		 "functional": "B3LYP", 
		 "basiset": "6-31G**", 
		 "properties": { 
			 "R2extent": 12658.4739, 
			 "electric_dipole_moment_norm": 3.25085837434, 
			 "electric_quadrupole_moment_norm": 14.3448794223, 
			 "total_energy": -2844.88188474, 
			 "HOMO_LUMO_gap": 0.13897, 
			 "cosmo_polarized_energy": -15.73, 
			 "cosmo_cavitation_energy": 41.59, 
			 "cosmo_dispersion_energy": -29.96, 
			 "cosmo_repulsion_energy": 2.18, 
			 "cosmo_total_nonelectrostatic_energy": 13.81, 
			 "SMD_solvation_energy": 10.03 
		},
		"coords": [
			{
				"x": -3.8946969577,
				"y": -2.0881297013,
				"z": 1.8770293866,
				"element": "O" 
			},
			{
				"x": -2.9063554374,
				"y": -2.736674002,
				"z": 2.1950178005,
				"element": "N" 
			},
			{
				"x": -2.8698728279,
				"y": -3.9354837715,
				"z": 2.4515056587,
				"element": "O" 
			},
			{
				"x": -1.6431007709,
				"y": -1.9794032254,
				"z": 2.3549221281,
				"element": "C" 
			},
			{
				"x": -1.0577255824,
				"y": -1.9152971165,
				"z": 3.6232584999,
				"element": "C" 
			},
			{
				"x": -1.6257712152,
				"y": -2.5874247451,
				"z": 4.8391085572,
				"element": "C" 
			},
			{
				"x": -1.0792098241,
				"y": -2.5127878828,
				"z": 5.9204481379,
				"element": "O" 
			},
			{
				"x": 0.1140757008,
				"y": -1.1551829928,
				"z": 3.7819242121,
				"element": "C" 
			},
			{
				"x": 0.6788842162,
				"y": -0.4828392549,
				"z": 2.7102581206,
				"element": "C" 
			},
			{
				"x": 0.0639397468,
				"y": -0.5422289142,
				"z": 1.4523916747,
				"element": "C" 
			},
			{
				"x": -1.0982441051,
				"y": -1.2970271673,
				"z": 1.2590841055,
				"element": "C" 
			},
			{
				"x": -1.6118310082,
				"y": -1.4773293995,
				"z": -0.1309507938,
				"element": "C" 
			},
			{
				"x": -2.2041915773,
				"y": -2.4946061632,
				"z": -0.4386832538,
				"element": "O" 
			},
			{
				"x": -1.3099567495,
				"y": -0.375604188,
				"z": -1.1116354048,
				"element": "C" 
			},
			{
				"x": -2.1338818179,
				"y": -0.1629582091,
				"z": -2.2310686625,
				"element": "C" 
			},
			{
				"x": -3.5867162902,
				"y": -1.0732411455,
				"z": -2.4901357019,
				"element": "Cl" 
			},
			{
				"x": -1.8112333812,
				"y": 0.8494803376,
				"z": -3.1551174726,
				"element": "C" 
			},
			{
				"x": -2.8266001165,
				"y": 1.1296632803,
				"z": -4.5278810691,
				"element": "Cl" 
			},
			{
				"x": -0.6663295619,
				"y": 1.6399359069,
				"z": -2.9653431922,
				"element": "C" 
			},
			{
				"x": -0.2858828413,
				"y": 2.8783494384,
				"z": -4.1137827333,
				"element": "Cl" 
			},
			{
				"x": 0.1623808692,
				"y": 1.4326343776,
				"z": -1.8453068003,
				"element": "C" 
			},
			{
				"x": 1.5340890622,
				"y": 2.4765402428,
				"z": -1.6519437215,
				"element": "Cl" 
			},
			{
				"x": -0.157745667,
				"y": 0.4280315014,
				"z": -0.9112858994,
				"element": "C" 
			},
			{
				"x": 0.6942596214,
				"y": 0.184119545,
				"z": 0.3057469002,
				"element": "C" 
			},
			{
				"x": 1.8453775661,
				"y": 0.5726129261,
				"z": 0.4061606247,
				"element": "O" 
			},
			{
				"x": -2.5635653662,
				"y": -3.1518078658,
				"z": 4.7067664823,
				"element": "H" 
			},
			{
				"x": 0.5519355674,
				"y": -1.1158487273,
				"z": 4.7738740744,
				"element": "H" 
			},
			{
				"x": 1.5915687479,
				"y": 0.0926069162,
				"z": 2.8157383417,
				"element": "H" 
			}
		],
		 "valence_orbital": [ 
			{
				"type": "occ",
				"energy": -0.29749,
				"method": "rhf"
			},
			{
				"type": "occ",
				"energy": -0.28972,
				"method": "rhf"
			},
			{
				"type": "occ",
				"energy": -0.2883,
				"method": "rhf"
			},
			{
				"type": "occ",
				"energy": -0.28243,
				"method": "rhf"
			},
			{
				"type": "occ",
				"energy": -0.27813,
				"method": "rhf"
			},
			{
				"type": "unocc",
				"energy": -0.13916,
				"method": "rhf"
			},
			{
				"type": "unocc",
				"energy": -0.11413,
				"method": "rhf"
			},
			{
				"type": "unocc",
				"energy": -0.09116,
				"method": "rhf"
			},
			{
				"type": "unocc",
				"energy": -0.08555,
				"method": "rhf"
			},
			{
				"type": "unocc",
				"energy": -0.05829,
				"method": "rhf"
			}
		],
		"cosmo_sigma_profile": { 
			"-0.025": 0.0,
			"-0.024": 0.0,
			"-0.023": 0.0,
			"-0.022": 0.0,
			"-0.021": 0.0,
			"-0.02": 0.0,
			"-0.019": 0.0,
			"-0.018": 0.0,
			"-0.017": 0.0,
			"-0.016": 0.0,
			"-0.015": 0.0,
			"-0.014": 0.0,
			"-0.013": 0.126441619435,
			"-0.012": 0.910845910113,
			"-0.011": 1.29915976623,
			"-0.01": 1.97672153504,
			"-0.009": 3.58594606201,
			"-0.008": 8.24120151016,
			"-0.007": 9.43717290801,
			"-0.006": 9.80510479311,
			"-0.005": 19.3527907875,
			"-0.004": 37.7390826288,
			"-0.003": 29.6247358403,
			"-0.002": 24.9227057462,
			"-0.001": 21.6159075393,
			"0.0": 19.6034243669,
			"0.001": 23.4620859778,
			"0.002": 32.6553135913,
			"0.003": 25.3162793903,
			"0.004": 11.021887608,
			"0.005": 10.5733183138,
			"0.006": 16.6811255317,
			"0.007": 12.8796770983,
			"0.008": 9.4596762926,
			"0.009": 9.73273085892,
			"0.01": 5.38744803577,
			"0.011": 1.12857602856,
			"0.012": 0.0582971206919,
			"0.013": 0.0,
			"0.014": 0.0,
			"0.015": 0.0,
			"0.016": 0.0,
			"0.017": 0.0,
			"0.018": 0.0,
			"0.019": 0.0,
			"0.02": 0.0,
			"0.021": 0.0,
			"0.022": 0.0,
			"0.023": 0.0,
			"0.024": 0.0,
			"0.025": 0.0
		}
	}
}
