{
	 "smiles": "O=C(C1=CC=CS1)C1=NOC2C1C(=O)N(C2=O)C1=CC=CC=C1", 
	 "Tm": 447.15, 
	 "num_atms": 33, 
	 "gaussian": { 
		 "optdone": 1, 
		 "sigma_profile": "yes", 
		 "theory": "DFT", 
		 "functional": "B3LYP", 
		 "basiset": "6-31G**", 
		 "properties": { 
			 "R2extent": 9613.2492, 
			 "electric_dipole_moment_norm": 1.03432728863, 
			 "electric_quadrupole_moment_norm": 29.0884833807, 
			 "total_energy": -1424.24765882, 
			 "HOMO_LUMO_gap": 0.15881, 
			 "cosmo_polarized_energy": -19.83, 
			 "cosmo_cavitation_energy": 40.55, 
			 "cosmo_dispersion_energy": -29.26, 
			 "cosmo_repulsion_energy": 2.17, 
			 "cosmo_total_nonelectrostatic_energy": 13.46, 
			 "SMD_solvation_energy": 8.41 
		},
		"coords": [
			{
				"x": -1.4762679994,
				"y": 0.3540445065,
				"z": 1.96647683,
				"element": "O" 
			},
			{
				"x": -1.4543056867,
				"y": -0.6796971768,
				"z": 1.3043195298,
				"element": "C" 
			},
			{
				"x": -2.6625293072,
				"y": -1.1946054554,
				"z": 0.6455784332,
				"element": "C" 
			},
			{
				"x": -3.8812401172,
				"y": -0.5444121467,
				"z": 0.7097902029,
				"element": "C" 
			},
			{
				"x": -4.9044191404,
				"y": -1.1953702149,
				"z": -0.0191202464,
				"element": "C" 
			},
			{
				"x": -4.4547396499,
				"y": -2.3376515794,
				"z": -0.6373171312,
				"element": "C" 
			},
			{
				"x": -2.7848421422,
				"y": -2.6417462388,
				"z": -0.3350404141,
				"element": "S" 
			},
			{
				"x": -0.1511071368,
				"y": -1.4003498611,
				"z": 1.2079472323,
				"element": "C" 
			},
			{
				"x": -0.0428279288,
				"y": -2.6277653989,
				"z": 0.8458507086,
				"element": "N" 
			},
			{
				"x": 1.2545625666,
				"y": -3.0704224293,
				"z": 0.9853555014,
				"element": "O" 
			},
			{
				"x": 2.0806885253,
				"y": -1.9962943411,
				"z": 1.5413332661,
				"element": "C" 
			},
			{
				"x": 1.1625424399,
				"y": -0.7834996114,
				"z": 1.6330336816,
				"element": "C" 
			},
			{
				"x": 1.7083272186,
				"y": 0.212593882,
				"z": 0.5914230359,
				"element": "C" 
			},
			{
				"x": 1.2466055841,
				"y": 1.2927888999,
				"z": 0.318301978,
				"element": "O" 
			},
			{
				"x": 2.8517407126,
				"y": -0.3644469317,
				"z": 0.0018372592,
				"element": "N" 
			},
			{
				"x": 3.1679566001,
				"y": -1.6272542758,
				"z": 0.5264542708,
				"element": "C" 
			},
			{
				"x": 4.1231805707,
				"y": -2.3069493851,
				"z": 0.234207206,
				"element": "O" 
			},
			{
				"x": 3.6239662308,
				"y": 0.2866598026,
				"z": -1.0174161948,
				"element": "C" 
			},
			{
				"x": 5.0200914339,
				"y": 0.2809280157,
				"z": -0.939724226,
				"element": "C" 
			},
			{
				"x": 5.7628619817,
				"y": 0.9105319107,
				"z": -1.9376620093,
				"element": "C" 
			},
			{
				"x": 5.1213475199,
				"y": 1.5495113527,
				"z": -2.9997740289,
				"element": "C" 
			},
			{
				"x": 3.727090824,
				"y": 1.5535868277,
				"z": -3.0656449242,
				"element": "C" 
			},
			{
				"x": 2.9719105498,
				"y": 0.9198016482,
				"z": -2.0800611079,
				"element": "C" 
			},
			{
				"x": -3.9995134762,
				"y": 0.3751141641,
				"z": 1.2697226959,
				"element": "H" 
			},
			{
				"x": -5.9251610748,
				"y": -0.8381811829,
				"z": -0.0875764801,
				"element": "H" 
			},
			{
				"x": -5.0209025965,
				"y": -3.0262485354,
				"z": -1.2507815517,
				"element": "H" 
			},
			{
				"x": 2.5234978037,
				"y": -2.3629802934,
				"z": 2.4695453596,
				"element": "H" 
			},
			{
				"x": 1.0852338581,
				"y": -0.2841384673,
				"z": 2.6010448763,
				"element": "H" 
			},
			{
				"x": 5.5165229471,
				"y": -0.2210988032,
				"z": -0.1189560178,
				"element": "H" 
			},
			{
				"x": 6.8470375511,
				"y": 0.9016403907,
				"z": -1.8798856352,
				"element": "H" 
			},
			{
				"x": 5.7047772108,
				"y": 2.0414722676,
				"z": -3.7722188961,
				"element": "H" 
			},
			{
				"x": 3.2203322688,
				"y": 2.0488823399,
				"z": -3.8882490821,
				"element": "H" 
			},
			{
				"x": 1.8901818586,
				"y": 0.9263563201,
				"z": -2.1269941217,
				"element": "H" 
			}
		],
		 "valence_orbital": [ 
			{
				"type": "occ",
				"energy": -0.26773,
				"method": "rhf"
			},
			{
				"type": "occ",
				"energy": -0.2624,
				"method": "rhf"
			},
			{
				"type": "occ",
				"energy": -0.26025,
				"method": "rhf"
			},
			{
				"type": "occ",
				"energy": -0.25145,
				"method": "rhf"
			},
			{
				"type": "occ",
				"energy": -0.25057,
				"method": "rhf"
			},
			{
				"type": "unocc",
				"energy": -0.09176,
				"method": "rhf"
			},
			{
				"type": "unocc",
				"energy": -0.04832,
				"method": "rhf"
			},
			{
				"type": "unocc",
				"energy": -0.03742,
				"method": "rhf"
			},
			{
				"type": "unocc",
				"energy": -0.02226,
				"method": "rhf"
			},
			{
				"type": "unocc",
				"energy": -0.0107,
				"method": "rhf"
			}
		],
		"cosmo_sigma_profile": { 
			"-0.025": 0.0,
			"-0.024": 0.0,
			"-0.023": 0.0,
			"-0.022": 0.0,
			"-0.021": 0.0,
			"-0.02": 0.0,
			"-0.019": 0.0,
			"-0.018": 0.0,
			"-0.017": 0.0,
			"-0.016": 0.0,
			"-0.015": 0.0,
			"-0.014": 0.0,
			"-0.013": 0.100128604242,
			"-0.012": 0.940665755815,
			"-0.011": 2.66584634097,
			"-0.01": 8.94832429576,
			"-0.009": 8.83413745079,
			"-0.008": 7.10911688695,
			"-0.007": 12.9444493181,
			"-0.006": 20.5639859888,
			"-0.005": 21.1540436833,
			"-0.004": 20.0990094564,
			"-0.003": 16.5056529913,
			"-0.002": 15.227203744,
			"-0.001": 15.8973634536,
			"0.0": 17.8553408811,
			"0.001": 20.6187995441,
			"0.002": 27.4588224665,
			"0.003": 24.2145390798,
			"0.004": 20.7242616867,
			"0.005": 11.4344045726,
			"0.006": 8.85796338521,
			"0.007": 9.1049096779,
			"0.008": 9.58653395152,
			"0.009": 7.6704667133,
			"0.01": 11.4705352343,
			"0.011": 8.72727456807,
			"0.012": 0.504524030805,
			"0.013": 0.0,
			"0.014": 0.0,
			"0.015": 0.0,
			"0.016": 0.0,
			"0.017": 0.0,
			"0.018": 0.0,
			"0.019": 0.0,
			"0.02": 0.0,
			"0.021": 0.0,
			"0.022": 0.0,
			"0.023": 0.0,
			"0.024": 0.0,
			"0.025": 0.0
		}
	}
}
