{
	 "smiles": "COC(=O)C1=C(C)C=C(N)C=C1", 
	 "Tm": 343.15, 
	 "num_atms": 23, 
	 "gaussian": { 
		 "optdone": 1, 
		 "sigma_profile": "yes", 
		 "theory": "DFT", 
		 "functional": "B3LYP", 
		 "basiset": "6-31G**", 
		 "properties": { 
			 "R2extent": 2605.2684, 
			 "electric_dipole_moment_norm": 3.35509786593, 
			 "electric_quadrupole_moment_norm": 16.5329249155, 
			 "total_energy": -554.807841654, 
			 "HOMO_LUMO_gap": 0.1835, 
			 "cosmo_polarized_energy": -12.6, 
			 "cosmo_cavitation_energy": 26.56, 
			 "cosmo_dispersion_energy": -19.5, 
			 "cosmo_repulsion_energy": 1.55, 
			 "cosmo_total_nonelectrostatic_energy": 8.61, 
			 "SMD_solvation_energy": 6.11 
		},
		"coords": [
			{
				"x": -3.5344976867,
				"y": 2.1889930344,
				"z": -0.4854975331,
				"element": "C" 
			},
			{
				"x": -2.2613695304,
				"y": 1.5437092213,
				"z": -0.3443152965,
				"element": "O" 
			},
			{
				"x": -2.2569302933,
				"y": 0.45873012,
				"z": 0.4727071762,
				"element": "C" 
			},
			{
				"x": -3.2708636139,
				"y": 0.0783152051,
				"z": 1.0332062097,
				"element": "O" 
			},
			{
				"x": -0.9314744579,
				"y": -0.1974285891,
				"z": 0.6101500933,
				"element": "C" 
			},
			{
				"x": 0.2785020666,
				"y": 0.1965954087,
				"z": -0.0194949827,
				"element": "C" 
			},
			{
				"x": 0.408902885,
				"y": 1.3791027965,
				"z": -0.9536714682,
				"element": "C" 
			},
			{
				"x": 1.4282413685,
				"y": -0.5535615744,
				"z": 0.2332453209,
				"element": "C" 
			},
			{
				"x": 1.4349710805,
				"y": -1.6742508355,
				"z": 1.0819535615,
				"element": "C" 
			},
			{
				"x": 2.6131840113,
				"y": -2.3565260108,
				"z": 1.3413989661,
				"element": "N" 
			},
			{
				"x": 0.2295094898,
				"y": -2.0524368713,
				"z": 1.6991568705,
				"element": "C" 
			},
			{
				"x": -0.9188204697,
				"y": -1.3200620541,
				"z": 1.4583685314,
				"element": "C" 
			},
			{
				"x": -3.3652430059,
				"y": 3.0281083994,
				"z": -1.1611233367,
				"element": "H" 
			},
			{
				"x": -4.2734397418,
				"y": 1.5016041822,
				"z": -0.905233858,
				"element": "H" 
			},
			{
				"x": -3.899340839,
				"y": 2.5430380934,
				"z": 0.4820562681,
				"element": "H" 
			},
			{
				"x": 0.1279284694,
				"y": 2.3132360202,
				"z": -0.4602636404,
				"element": "H" 
			},
			{
				"x": 1.4398640213,
				"y": 1.4692379944,
				"z": -1.3065765108,
				"element": "H" 
			},
			{
				"x": -0.2485573891,
				"y": 1.2808952049,
				"z": -1.8215156036,
				"element": "H" 
			},
			{
				"x": 2.3602278371,
				"y": -0.2567167368,
				"z": -0.2427350228,
				"element": "H" 
			},
			{
				"x": 3.3538449155,
				"y": -2.2517536104,
				"z": 0.6633632109,
				"element": "H" 
			},
			{
				"x": 2.5187325504,
				"y": -3.3006172967,
				"z": 1.6864570271,
				"element": "H" 
			},
			{
				"x": 0.2046241952,
				"y": -2.9125930151,
				"z": 2.3631019056,
				"element": "H" 
			},
			{
				"x": -1.8557958627,
				"y": -1.6020190864,
				"z": 1.9260621116,
				"element": "H" 
			}
		],
		 "valence_orbital": [ 
			{
				"type": "occ",
				"energy": -0.30442,
				"method": "rhf"
			},
			{
				"type": "occ",
				"energy": -0.28687,
				"method": "rhf"
			},
			{
				"type": "occ",
				"energy": -0.25924,
				"method": "rhf"
			},
			{
				"type": "occ",
				"energy": -0.24317,
				"method": "rhf"
			},
			{
				"type": "occ",
				"energy": -0.20759,
				"method": "rhf"
			},
			{
				"type": "unocc",
				"energy": -0.02409,
				"method": "rhf"
			},
			{
				"type": "unocc",
				"energy": 0.00474,
				"method": "rhf"
			},
			{
				"type": "unocc",
				"energy": 0.06843,
				"method": "rhf"
			},
			{
				"type": "unocc",
				"energy": 0.08198,
				"method": "rhf"
			},
			{
				"type": "unocc",
				"energy": 0.10758,
				"method": "rhf"
			}
		],
		"cosmo_sigma_profile": { 
			"-0.025": 0.0,
			"-0.024": 0.0,
			"-0.023": 0.0,
			"-0.022": 0.0,
			"-0.021": 0.0,
			"-0.02": 0.0,
			"-0.019": 0.0,
			"-0.018": 0.0,
			"-0.017": 0.0,
			"-0.016": 0.0,
			"-0.015": 0.0,
			"-0.014": 0.0407562934981,
			"-0.013": 1.89167933769,
			"-0.012": 2.80000886266,
			"-0.011": 2.91376844284,
			"-0.01": 3.12136933204,
			"-0.009": 3.37179909703,
			"-0.008": 2.08359117671,
			"-0.007": 3.10301839442,
			"-0.006": 7.04257152979,
			"-0.005": 11.9540979812,
			"-0.004": 14.1081561434,
			"-0.003": 18.3097775059,
			"-0.002": 13.8130867313,
			"-0.001": 14.7944524772,
			"0.0": 15.631625324,
			"0.001": 15.3973073561,
			"0.002": 12.8624263573,
			"0.003": 12.7963637321,
			"0.004": 14.2128015682,
			"0.005": 14.9380193035,
			"0.006": 5.6904860482,
			"0.007": 1.90225633352,
			"0.008": 1.87608917088,
			"0.009": 2.1674375554,
			"0.01": 2.76656930467,
			"0.011": 2.12795725479,
			"0.012": 4.00625272259,
			"0.013": 4.14298362271,
			"0.014": 0.0652808895615,
			"0.015": 0.0,
			"0.016": 0.0,
			"0.017": 0.0,
			"0.018": 0.0,
			"0.019": 0.0,
			"0.02": 0.0,
			"0.021": 0.0,
			"0.022": 0.0,
			"0.023": 0.0,
			"0.024": 0.0,
			"0.025": 0.0
		}
	}
}
