{
	 "smiles": "O=C1N2C=CC=CC2CC2=CC=CC=C12", 
	 "Tm": 366.15, 
	 "num_atms": 26, 
	 "gaussian": { 
		 "optdone": 1, 
		 "sigma_profile": "yes", 
		 "theory": "DFT", 
		 "functional": "B3LYP", 
		 "basiset": "6-31G**", 
		 "properties": { 
			 "R2extent": 3292.9148, 
			 "electric_dipole_moment_norm": 3.45438721773, 
			 "electric_quadrupole_moment_norm": 10.4738072385, 
			 "total_energy": -631.982201071, 
			 "HOMO_LUMO_gap": 0.14313, 
			 "cosmo_polarized_energy": -9.75, 
			 "cosmo_cavitation_energy": 28.58, 
			 "cosmo_dispersion_energy": -21.4, 
			 "cosmo_repulsion_energy": 1.62, 
			 "cosmo_total_nonelectrostatic_energy": 8.8, 
			 "SMD_solvation_energy": 4.92 
		},
		"coords": [
			{
				"x": 1.1497475649,
				"y": 1.7438701273,
				"z": 1.4588544202,
				"element": "O" 
			},
			{
				"x": 0.5550022087,
				"y": 1.1961604366,
				"z": 0.5351532047,
				"element": "C" 
			},
			{
				"x": 0.4401425305,
				"y": -0.1942983883,
				"z": 0.4629932193,
				"element": "N" 
			},
			{
				"x": 0.9775577836,
				"y": -0.9466088384,
				"z": 1.5122982774,
				"element": "C" 
			},
			{
				"x": 0.9729575414,
				"y": -2.2931737153,
				"z": 1.4988195771,
				"element": "C" 
			},
			{
				"x": 0.4404790775,
				"y": -2.9936741404,
				"z": 0.3395293823,
				"element": "C" 
			},
			{
				"x": -0.2026658493,
				"y": -2.3184984775,
				"z": -0.6242563903,
				"element": "C" 
			},
			{
				"x": -0.4768310273,
				"y": -0.8343963933,
				"z": -0.5197812855,
				"element": "C" 
			},
			{
				"x": -0.3453948814,
				"y": -0.1396542876,
				"z": -1.8792485507,
				"element": "C" 
			},
			{
				"x": -0.5211791603,
				"y": 1.3512640611,
				"z": -1.7472514161,
				"element": "C" 
			},
			{
				"x": -1.0746232325,
				"y": 2.1362572301,
				"z": -2.7629120249,
				"element": "C" 
			},
			{
				"x": -1.192280061,
				"y": 3.5174433756,
				"z": -2.6063471011,
				"element": "C" 
			},
			{
				"x": -0.7483518336,
				"y": 4.133279821,
				"z": -1.4316267732,
				"element": "C" 
			},
			{
				"x": -0.1884018852,
				"y": 3.362901642,
				"z": -0.4177098212,
				"element": "C" 
			},
			{
				"x": -0.0785289095,
				"y": 1.9739415568,
				"z": -0.5684104594,
				"element": "C" 
			},
			{
				"x": 1.4183360417,
				"y": -0.3431333225,
				"z": 2.2945964682,
				"element": "H" 
			},
			{
				"x": 1.4111406331,
				"y": -2.8404698932,
				"z": 2.3247295567,
				"element": "H" 
			},
			{
				"x": 0.5937342241,
				"y": -4.0657149341,
				"z": 0.2510264567,
				"element": "H" 
			},
			{
				"x": -0.5888875943,
				"y": -2.8172910591,
				"z": -1.508913294,
				"element": "H" 
			},
			{
				"x": -1.5144438844,
				"y": -0.678990388,
				"z": -0.1675730798,
				"element": "H" 
			},
			{
				"x": -1.0887451492,
				"y": -0.5588331555,
				"z": -2.5658707482,
				"element": "H" 
			},
			{
				"x": 0.6442300284,
				"y": -0.3703744986,
				"z": -2.2990825054,
				"element": "H" 
			},
			{
				"x": -1.4186986058,
				"y": 1.6615041902,
				"z": -3.6783731658,
				"element": "H" 
			},
			{
				"x": -1.6328520464,
				"y": 4.114175757,
				"z": -3.4000923334,
				"element": "H" 
			},
			{
				"x": -0.839177176,
				"y": 5.2086844557,
				"z": -1.3118132817,
				"element": "H" 
			},
			{
				"x": 0.1766336624,
				"y": 3.8086288385,
				"z": 0.501261668,
				"element": "H" 
			}
		],
		 "valence_orbital": [ 
			{
				"type": "occ",
				"energy": -0.28553,
				"method": "rhf"
			},
			{
				"type": "occ",
				"energy": -0.26063,
				"method": "rhf"
			},
			{
				"type": "occ",
				"energy": -0.254,
				"method": "rhf"
			},
			{
				"type": "occ",
				"energy": -0.25299,
				"method": "rhf"
			},
			{
				"type": "occ",
				"energy": -0.19543,
				"method": "rhf"
			},
			{
				"type": "unocc",
				"energy": -0.0523,
				"method": "rhf"
			},
			{
				"type": "unocc",
				"energy": -0.01757,
				"method": "rhf"
			},
			{
				"type": "unocc",
				"energy": -0.00763,
				"method": "rhf"
			},
			{
				"type": "unocc",
				"energy": 0.05915,
				"method": "rhf"
			},
			{
				"type": "unocc",
				"energy": 0.08589,
				"method": "rhf"
			}
		],
		"cosmo_sigma_profile": { 
			"-0.025": 0.0,
			"-0.024": 0.0,
			"-0.023": 0.0,
			"-0.022": 0.0,
			"-0.021": 0.0,
			"-0.02": 0.0,
			"-0.019": 0.0,
			"-0.018": 0.0,
			"-0.017": 0.0,
			"-0.016": 0.0,
			"-0.015": 0.0,
			"-0.014": 0.0,
			"-0.013": 0.0,
			"-0.012": 0.0,
			"-0.011": 0.0,
			"-0.01": 0.0,
			"-0.009": 0.0,
			"-0.008": 0.0,
			"-0.007": 0.729672907541,
			"-0.006": 15.0479671851,
			"-0.005": 24.4111084569,
			"-0.004": 24.5506515879,
			"-0.003": 19.2214162578,
			"-0.002": 17.3081885583,
			"-0.001": 15.3966437589,
			"0.0": 13.5210737468,
			"0.001": 15.1728373119,
			"0.002": 15.7852552878,
			"0.003": 17.19042896,
			"0.004": 18.4261191543,
			"0.005": 11.7374745671,
			"0.006": 4.52115366778,
			"0.007": 1.69627988061,
			"0.008": 2.08424638549,
			"0.009": 1.08338832738,
			"0.01": 1.07381387126,
			"0.011": 1.85598394193,
			"0.012": 2.74234350475,
			"0.013": 4.37594299748,
			"0.014": 0.472116339083,
			"0.015": 0.0,
			"0.016": 0.0,
			"0.017": 0.0,
			"0.018": 0.0,
			"0.019": 0.0,
			"0.02": 0.0,
			"0.021": 0.0,
			"0.022": 0.0,
			"0.023": 0.0,
			"0.024": 0.0,
			"0.025": 0.0
		}
	}
}
