{
	 "smiles": "CC(=O)CC(=O)NC1=CC=C(NC(=O)C2CC2)C=C1", 
	 "Tm": 457.15, 
	 "num_atms": 35, 
	 "gaussian": { 
		 "optdone": 1, 
		 "sigma_profile": "yes", 
		 "theory": "DFT", 
		 "functional": "B3LYP", 
		 "basiset": "6-31G**", 
		 "properties": { 
			 "R2extent": 8927.5965, 
			 "electric_dipole_moment_norm": 6.54216702324, 
			 "electric_quadrupole_moment_norm": 6.1905891634, 
			 "total_energy": -878.318963807, 
			 "HOMO_LUMO_gap": 0.16356, 
			 "cosmo_polarized_energy": -20.06, 
			 "cosmo_cavitation_energy": 39.53, 
			 "cosmo_dispersion_energy": -28.06, 
			 "cosmo_repulsion_energy": 2.18, 
			 "cosmo_total_nonelectrostatic_energy": 13.65, 
			 "SMD_solvation_energy": 8.03 
		},
		"coords": [
			{
				"x": 5.4711331382,
				"y": -2.74498952,
				"z": -0.1625518312,
				"element": "C" 
			},
			{
				"x": 4.0353783842,
				"y": -2.4043544818,
				"z": -0.4888993679,
				"element": "C" 
			},
			{
				"x": 3.1064332735,
				"y": -2.9160169513,
				"z": 0.1194493706,
				"element": "O" 
			},
			{
				"x": 3.8141192551,
				"y": -1.4199503141,
				"z": -1.631924391,
				"element": "C" 
			},
			{
				"x": 2.6315092551,
				"y": -0.4343759883,
				"z": -1.5614726637,
				"element": "C" 
			},
			{
				"x": 2.7318783563,
				"y": 0.6571207718,
				"z": -2.1065429513,
				"element": "O" 
			},
			{
				"x": 1.5231854466,
				"y": -0.9082373361,
				"z": -0.9202393809,
				"element": "N" 
			},
			{
				"x": 0.286919312,
				"y": -0.2613333553,
				"z": -0.7209832731,
				"element": "C" 
			},
			{
				"x": -0.6784597111,
				"y": -0.9381664168,
				"z": 0.0419391385,
				"element": "C" 
			},
			{
				"x": -1.9189506826,
				"y": -0.3633037035,
				"z": 0.2885238711,
				"element": "C" 
			},
			{
				"x": -2.2389713487,
				"y": 0.8961460769,
				"z": -0.2375730696,
				"element": "C" 
			},
			{
				"x": -3.5298507558,
				"y": 1.4324420518,
				"z": -0.0080480302,
				"element": "N" 
			},
			{
				"x": -3.9336093019,
				"y": 2.7131466294,
				"z": 0.3217128111,
				"element": "C" 
			},
			{
				"x": -5.1309541411,
				"y": 2.98351511,
				"z": 0.3421932659,
				"element": "O" 
			},
			{
				"x": -2.8864301011,
				"y": 3.7175222599,
				"z": 0.6804513233,
				"element": "C" 
			},
			{
				"x": -3.0864847118,
				"y": 5.1317049495,
				"z": 0.1513687269,
				"element": "C" 
			},
			{
				"x": -3.3256027531,
				"y": 4.8445794571,
				"z": 1.5972977745,
				"element": "C" 
			},
			{
				"x": -1.2846019822,
				"y": 1.554786723,
				"z": -1.0239058584,
				"element": "C" 
			},
			{
				"x": -0.0271785914,
				"y": 0.9990291532,
				"z": -1.2521799832,
				"element": "C" 
			},
			{
				"x": 6.018677783,
				"y": -3.0262577888,
				"z": -1.0691355605,
				"element": "H" 
			},
			{
				"x": 5.5073594241,
				"y": -3.5555707237,
				"z": 0.5661185577,
				"element": "H" 
			},
			{
				"x": 5.9721072336,
				"y": -1.8596824109,
				"z": 0.2476637232,
				"element": "H" 
			},
			{
				"x": 4.7075263773,
				"y": -0.8188115484,
				"z": -1.8133489308,
				"element": "H" 
			},
			{
				"x": 3.6696962949,
				"y": -2.0305208102,
				"z": -2.5363047628,
				"element": "H" 
			},
			{
				"x": 1.6531670487,
				"y": -1.808051548,
				"z": -0.4607255959,
				"element": "H" 
			},
			{
				"x": -0.4486414463,
				"y": -1.9166621103,
				"z": 0.4560427189,
				"element": "H" 
			},
			{
				"x": -2.6466591685,
				"y": -0.8883614888,
				"z": 0.9006888088,
				"element": "H" 
			},
			{
				"x": -4.3183812847,
				"y": 0.8052938967,
				"z": -0.1110277544,
				"element": "H" 
			},
			{
				"x": -1.8677082293,
				"y": 3.3631934776,
				"z": 0.7803584027,
				"element": "H" 
			},
			{
				"x": -3.9587717241,
				"y": 5.2844935083,
				"z": -0.4756490371,
				"element": "H" 
			},
			{
				"x": -2.1985139481,
				"y": 5.6847005584,
				"z": -0.1389008969,
				"element": "H" 
			},
			{
				"x": -4.3560285609,
				"y": 4.8035865155,
				"z": 1.9327447737,
				"element": "H" 
			},
			{
				"x": -2.6018941394,
				"y": 5.1937692113,
				"z": 2.3269887065,
				"element": "H" 
			},
			{
				"x": -1.5314212422,
				"y": 2.5096951111,
				"z": -1.4758168651,
				"element": "H" 
			},
			{
				"x": 0.7062232418,
				"y": 1.519521035,
				"z": -1.8515117692,
				"element": "H" 
			}
		],
		 "valence_orbital": [ 
			{
				"type": "occ",
				"energy": -0.26622,
				"method": "rhf"
			},
			{
				"type": "occ",
				"energy": -0.25891,
				"method": "rhf"
			},
			{
				"type": "occ",
				"energy": -0.25749,
				"method": "rhf"
			},
			{
				"type": "occ",
				"energy": -0.24611,
				"method": "rhf"
			},
			{
				"type": "occ",
				"energy": -0.20882,
				"method": "rhf"
			},
			{
				"type": "unocc",
				"energy": -0.04526,
				"method": "rhf"
			},
			{
				"type": "unocc",
				"energy": -0.02073,
				"method": "rhf"
			},
			{
				"type": "unocc",
				"energy": -0.00895,
				"method": "rhf"
			},
			{
				"type": "unocc",
				"energy": 0.02372,
				"method": "rhf"
			},
			{
				"type": "unocc",
				"energy": 0.04598,
				"method": "rhf"
			}
		],
		"cosmo_sigma_profile": { 
			"-0.025": 0.0,
			"-0.024": 0.0,
			"-0.023": 0.0,
			"-0.022": 0.0,
			"-0.021": 0.0,
			"-0.02": 0.0,
			"-0.019": 0.0,
			"-0.018": 0.0,
			"-0.017": 0.0,
			"-0.016": 0.0,
			"-0.015": 0.0,
			"-0.014": 0.48094554873,
			"-0.013": 1.06899828883,
			"-0.012": 1.10486414977,
			"-0.011": 1.14716804865,
			"-0.01": 0.929208285355,
			"-0.009": 4.78745923461,
			"-0.008": 6.9607409844,
			"-0.007": 14.9019422065,
			"-0.006": 17.4914855182,
			"-0.005": 22.6990012607,
			"-0.004": 22.9817361313,
			"-0.003": 23.7330851268,
			"-0.002": 22.3121438158,
			"-0.001": 23.9375153748,
			"0.0": 19.4357635855,
			"0.001": 17.6133604961,
			"0.002": 21.164669944,
			"0.003": 18.9681921977,
			"0.004": 17.4997715405,
			"0.005": 9.51050018858,
			"0.006": 4.08708622534,
			"0.007": 3.50246629683,
			"0.008": 5.26113951721,
			"0.009": 4.4508826706,
			"0.01": 4.97666237735,
			"0.011": 4.82027151203,
			"0.012": 5.40928883289,
			"0.013": 6.26533431264,
			"0.014": 5.7885775797,
			"0.015": 0.586299306548,
			"0.016": 0.0,
			"0.017": 0.0,
			"0.018": 0.0,
			"0.019": 0.0,
			"0.02": 0.0,
			"0.021": 0.0,
			"0.022": 0.0,
			"0.023": 0.0,
			"0.024": 0.0,
			"0.025": 0.0
		}
	}
}
