{
	 "smiles": "CON=C(C(=O)OC)C1=CC=CC=C1CON=C(C)C1=CC(=CC=C1)C(F)(F)F", 
	 "Tm": 346.05, 
	 "num_atms": 48, 
	 "gaussian": { 
		 "optdone": 1, 
		 "sigma_profile": "yes", 
		 "theory": "DFT", 
		 "functional": "B3LYP", 
		 "basiset": "6-31G**", 
		 "properties": { 
			 "R2extent": 14278.3821, 
			 "electric_dipole_moment_norm": 1.07803533337, 
			 "electric_quadrupole_moment_norm": 19.4673142983, 
			 "total_energy": -1483.38330303, 
			 "HOMO_LUMO_gap": 0.178, 
			 "cosmo_polarized_energy": -16.2, 
			 "cosmo_cavitation_energy": 55.47, 
			 "cosmo_dispersion_energy": -33.49, 
			 "cosmo_repulsion_energy": 2.54, 
			 "cosmo_total_nonelectrostatic_energy": 24.52, 
			 "SMD_solvation_energy": 12.19 
		},
		"coords": [
			{
				"x": -0.5921339657,
				"y": 3.3399344191,
				"z": -2.4938970517,
				"element": "C" 
			},
			{
				"x": 0.1254843259,
				"y": 3.2608979211,
				"z": -1.2578044708,
				"element": "O" 
			},
			{
				"x": 1.3110374729,
				"y": 2.5987086424,
				"z": -1.4644131842,
				"element": "N" 
			},
			{
				"x": 1.9989765324,
				"y": 2.4479688594,
				"z": -0.3843502176,
				"element": "C" 
			},
			{
				"x": 3.3059137738,
				"y": 1.7262979736,
				"z": -0.5366982689,
				"element": "C" 
			},
			{
				"x": 4.0128511149,
				"y": 1.4343536862,
				"z": 0.4102414491,
				"element": "O" 
			},
			{
				"x": 3.6159244685,
				"y": 1.4376718139,
				"z": -1.8126745329,
				"element": "O" 
			},
			{
				"x": 4.8607446438,
				"y": 0.7436324733,
				"z": -1.9906433597,
				"element": "C" 
			},
			{
				"x": 1.6377764985,
				"y": 2.9819854133,
				"z": 0.9636984226,
				"element": "C" 
			},
			{
				"x": 1.6370041672,
				"y": 4.3716235455,
				"z": 1.1378468923,
				"element": "C" 
			},
			{
				"x": 1.3250054789,
				"y": 4.938843018,
				"z": 2.3726353718,
				"element": "C" 
			},
			{
				"x": 0.9951447281,
				"y": 4.1147926756,
				"z": 3.4473479171,
				"element": "C" 
			},
			{
				"x": 0.9771606355,
				"y": 2.7307223596,
				"z": 3.2750916309,
				"element": "C" 
			},
			{
				"x": 1.2994992963,
				"y": 2.1454340203,
				"z": 2.0468482534,
				"element": "C" 
			},
			{
				"x": 1.2606601893,
				"y": 0.6403900892,
				"z": 1.9087452387,
				"element": "C" 
			},
			{
				"x": 0.2885910468,
				"y": 0.1925856256,
				"z": 0.9462649193,
				"element": "O" 
			},
			{
				"x": -0.9806787333,
				"y": 0.2620822523,
				"z": 1.5195208628,
				"element": "N" 
			},
			{
				"x": -1.966846236,
				"y": 0.0893590529,
				"z": 0.7044795187,
				"element": "C" 
			},
			{
				"x": -3.312258318,
				"y": 0.1773262331,
				"z": 1.393697669,
				"element": "C" 
			},
			{
				"x": -1.9323550716,
				"y": -0.1663342123,
				"z": -0.7606742117,
				"element": "C" 
			},
			{
				"x": -3.0823728253,
				"y": 0.1147085048,
				"z": -1.5218612356,
				"element": "C" 
			},
			{
				"x": -3.1093531236,
				"y": -0.1079190579,
				"z": -2.8974350706,
				"element": "C" 
			},
			{
				"x": -1.9927052737,
				"y": -0.6353893087,
				"z": -3.551364008,
				"element": "C" 
			},
			{
				"x": -0.8532777686,
				"y": -0.93432631,
				"z": -2.8076716653,
				"element": "C" 
			},
			{
				"x": -0.8160516118,
				"y": -0.7031849426,
				"z": -1.4330335714,
				"element": "C" 
			},
			{
				"x": -4.3689524118,
				"y": 0.1613257717,
				"z": -3.6757230238,
				"element": "C" 
			},
			{
				"x": -4.0999671477,
				"y": 0.5831213543,
				"z": -4.9322354281,
				"element": "F" 
			},
			{
				"x": -5.138395345,
				"y": 1.1047956557,
				"z": -3.0874562918,
				"element": "F" 
			},
			{
				"x": -5.1322301523,
				"y": -0.9503323098,
				"z": -3.7928809815,
				"element": "F" 
			},
			{
				"x": -1.5098735501,
				"y": 3.8814898848,
				"z": -2.2582179865,
				"element": "H" 
			},
			{
				"x": -0.0146270066,
				"y": 3.8886487431,
				"z": -3.2445252852,
				"element": "H" 
			},
			{
				"x": -0.8312993895,
				"y": 2.3406150984,
				"z": -2.8684043309,
				"element": "H" 
			},
			{
				"x": 5.6933430386,
				"y": 1.3376752417,
				"z": -1.6054042178,
				"element": "H" 
			},
			{
				"x": 4.960210504,
				"y": 0.59609617,
				"z": -3.0658375993,
				"element": "H" 
			},
			{
				"x": 4.8458891233,
				"y": -0.2176799178,
				"z": -1.470406365,
				"element": "H" 
			},
			{
				"x": 1.8889948742,
				"y": 5.0095382232,
				"z": 0.296331195,
				"element": "H" 
			},
			{
				"x": 1.3383851639,
				"y": 6.0183763018,
				"z": 2.490775699,
				"element": "H" 
			},
			{
				"x": 0.7454804549,
				"y": 4.5452535288,
				"z": 4.4128104863,
				"element": "H" 
			},
			{
				"x": 0.7037862209,
				"y": 2.0864859758,
				"z": 4.1063145637,
				"element": "H" 
			},
			{
				"x": 2.2125784854,
				"y": 0.2597767185,
				"z": 1.5332299856,
				"element": "H" 
			},
			{
				"x": 1.0426135849,
				"y": 0.174993591,
				"z": 2.87446536,
				"element": "H" 
			},
			{
				"x": -3.9268006479,
				"y": -0.7046104257,
				"z": 1.1834430321,
				"element": "H" 
			},
			{
				"x": -3.1563487083,
				"y": 0.2570115929,
				"z": 2.469989492,
				"element": "H" 
			},
			{
				"x": -3.8754974497,
				"y": 1.0590159081,
				"z": 1.0672469066,
				"element": "H" 
			},
			{
				"x": -3.9645821287,
				"y": 0.5267129,
				"z": -1.0489437468,
				"element": "H" 
			},
			{
				"x": -2.0182503326,
				"y": -0.8031790061,
				"z": -4.6227998214,
				"element": "H" 
			},
			{
				"x": 0.0204474583,
				"y": -1.3477199647,
				"z": -3.3019967692,
				"element": "H" 
			},
			{
				"x": 0.0773539164,
				"y": -0.9392757833,
				"z": -0.8750721706,
				"element": "H" 
			}
		],
		 "valence_orbital": [ 
			{
				"type": "occ",
				"energy": -0.26614,
				"method": "rhf"
			},
			{
				"type": "occ",
				"energy": -0.26306,
				"method": "rhf"
			},
			{
				"type": "occ",
				"energy": -0.24923,
				"method": "rhf"
			},
			{
				"type": "occ",
				"energy": -0.24269,
				"method": "rhf"
			},
			{
				"type": "occ",
				"energy": -0.23351,
				"method": "rhf"
			},
			{
				"type": "unocc",
				"energy": -0.05551,
				"method": "rhf"
			},
			{
				"type": "unocc",
				"energy": -0.04792,
				"method": "rhf"
			},
			{
				"type": "unocc",
				"energy": -0.0253,
				"method": "rhf"
			},
			{
				"type": "unocc",
				"energy": -0.01074,
				"method": "rhf"
			},
			{
				"type": "unocc",
				"energy": -0.00241,
				"method": "rhf"
			}
		],
		"cosmo_sigma_profile": { 
			"-0.025": 0.0,
			"-0.024": 0.0,
			"-0.023": 0.0,
			"-0.022": 0.0,
			"-0.021": 0.0,
			"-0.02": 0.0,
			"-0.019": 0.0,
			"-0.018": 0.0,
			"-0.017": 0.0,
			"-0.016": 0.0,
			"-0.015": 0.0,
			"-0.014": 0.0,
			"-0.013": 0.0,
			"-0.012": 0.0,
			"-0.011": 0.0,
			"-0.01": 0.0,
			"-0.009": 0.0,
			"-0.008": 0.649128967565,
			"-0.007": 8.76309233791,
			"-0.006": 26.2103058477,
			"-0.005": 34.5040098,
			"-0.004": 40.3049736406,
			"-0.003": 39.3334267589,
			"-0.002": 29.6104859255,
			"-0.001": 35.5623051749,
			"0.0": 32.9711072276,
			"0.001": 30.8830405472,
			"0.002": 36.910518422,
			"0.003": 47.6131821147,
			"0.004": 20.8881748968,
			"0.005": 16.8796827803,
			"0.006": 9.29360376476,
			"0.007": 7.11324366286,
			"0.008": 6.51639171102,
			"0.009": 4.93226975152,
			"0.01": 4.25177101876,
			"0.011": 6.11895268979,
			"0.012": 1.81529919161,
			"0.013": 1.24660952955,
			"0.014": 0.385710971481,
			"0.015": 0.0,
			"0.016": 0.0,
			"0.017": 0.0,
			"0.018": 0.0,
			"0.019": 0.0,
			"0.02": 0.0,
			"0.021": 0.0,
			"0.022": 0.0,
			"0.023": 0.0,
			"0.024": 0.0,
			"0.025": 0.0
		}
	}
}
