{
	 "smiles": "N#CC1=C(N=CC=C1)C1CC1", 
	 "Tm": 334.15, 
	 "num_atms": 19, 
	 "gaussian": { 
		 "optdone": 1, 
		 "sigma_profile": "yes", 
		 "theory": "DFT", 
		 "functional": "B3LYP", 
		 "basiset": "6-31G**", 
		 "properties": { 
			 "R2extent": 1722.6524, 
			 "electric_dipole_moment_norm": 3.3246174607, 
			 "electric_quadrupole_moment_norm": 17.025335592, 
			 "total_energy": -457.236550486, 
			 "HOMO_LUMO_gap": 0.19526, 
			 "cosmo_polarized_energy": -8.92, 
			 "cosmo_cavitation_energy": 23.79, 
			 "cosmo_dispersion_energy": -16.92, 
			 "cosmo_repulsion_energy": 1.36, 
			 "cosmo_total_nonelectrostatic_energy": 8.23, 
			 "SMD_solvation_energy": 4.26 
		},
		"coords": [
			{
				"x": -0.05754278,
				"y": -3.3462535006,
				"z": 1.1361589811,
				"element": "N" 
			},
			{
				"x": -0.1018859227,
				"y": -2.4057852905,
				"z": 0.4519674845,
				"element": "C" 
			},
			{
				"x": -0.1557081263,
				"y": -1.2532778086,
				"z": -0.3962458066,
				"element": "C" 
			},
			{
				"x": -0.3199320271,
				"y": 0.0479390912,
				"z": 0.1434488808,
				"element": "C" 
			},
			{
				"x": -0.3694664851,
				"y": 1.1240626009,
				"z": -0.6572463362,
				"element": "N" 
			},
			{
				"x": -0.2623233346,
				"y": 0.9599763045,
				"z": -1.9772168071,
				"element": "C" 
			},
			{
				"x": -0.0987400212,
				"y": -0.2814616918,
				"z": -2.5962216893,
				"element": "C" 
			},
			{
				"x": -0.0447711026,
				"y": -1.4081554443,
				"z": -1.7865765454,
				"element": "C" 
			},
			{
				"x": -0.4423057347,
				"y": 0.2755544772,
				"z": 1.6022047013,
				"element": "C" 
			},
			{
				"x": 0.1440062585,
				"y": 1.5426773488,
				"z": 2.2091641264,
				"element": "C" 
			},
			{
				"x": -1.3384787499,
				"y": 1.3980048473,
				"z": 2.1073021819,
				"element": "C" 
			},
			{
				"x": -0.3099569375,
				"y": 1.8688269911,
				"z": -2.5747260012,
				"element": "H" 
			},
			{
				"x": -0.017039171,
				"y": -0.3573824126,
				"z": -3.674918684,
				"element": "H" 
			},
			{
				"x": 0.0809544424,
				"y": -2.400450021,
				"z": -2.2075144732,
				"element": "H" 
			},
			{
				"x": -0.3966898567,
				"y": -0.6209298175,
				"z": 2.2109565681,
				"element": "H" 
			},
			{
				"x": 0.6273107056,
				"y": 2.2229156104,
				"z": 1.5158491878,
				"element": "H" 
			},
			{
				"x": 0.6189978113,
				"y": 1.4472409127,
				"z": 3.1805745356,
				"element": "H" 
			},
			{
				"x": -1.845096735,
				"y": 1.9815955273,
				"z": 1.3458753866,
				"element": "H" 
			},
			{
				"x": -1.9133322333,
				"y": 1.2000022755,
				"z": 3.0065643088,
				"element": "H" 
			}
		],
		 "valence_orbital": [ 
			{
				"type": "occ",
				"energy": -0.32904,
				"method": "rhf"
			},
			{
				"type": "occ",
				"energy": -0.30971,
				"method": "rhf"
			},
			{
				"type": "occ",
				"energy": -0.29441,
				"method": "rhf"
			},
			{
				"type": "occ",
				"energy": -0.27378,
				"method": "rhf"
			},
			{
				"type": "occ",
				"energy": -0.25494,
				"method": "rhf"
			},
			{
				"type": "unocc",
				"energy": -0.05968,
				"method": "rhf"
			},
			{
				"type": "unocc",
				"energy": -0.03878,
				"method": "rhf"
			},
			{
				"type": "unocc",
				"energy": 0.03004,
				"method": "rhf"
			},
			{
				"type": "unocc",
				"energy": 0.06668,
				"method": "rhf"
			},
			{
				"type": "unocc",
				"energy": 0.08291,
				"method": "rhf"
			}
		],
		"cosmo_sigma_profile": { 
			"-0.025": 0.0,
			"-0.024": 0.0,
			"-0.023": 0.0,
			"-0.022": 0.0,
			"-0.021": 0.0,
			"-0.02": 0.0,
			"-0.019": 0.0,
			"-0.018": 0.0,
			"-0.017": 0.0,
			"-0.016": 0.0,
			"-0.015": 0.0,
			"-0.014": 0.0,
			"-0.013": 0.0,
			"-0.012": 0.0,
			"-0.011": 0.0,
			"-0.01": 0.0,
			"-0.009": 1.45749097247,
			"-0.008": 4.09487903892,
			"-0.007": 7.57899557557,
			"-0.006": 8.62076477003,
			"-0.005": 11.601773211,
			"-0.004": 13.5107728973,
			"-0.003": 12.7619104124,
			"-0.002": 18.1563774895,
			"-0.001": 19.7894256155,
			"0.0": 18.9874691945,
			"0.001": 16.7613391492,
			"0.002": 12.3837130564,
			"0.003": 8.86662949329,
			"0.004": 6.17295012008,
			"0.005": 4.06109582472,
			"0.006": 3.25657028646,
			"0.007": 3.8859682882,
			"0.008": 4.73301734932,
			"0.009": 3.39363310242,
			"0.01": 4.25982375019,
			"0.011": 2.92964279657,
			"0.012": 3.01790633589,
			"0.013": 1.32761749207,
			"0.014": 0.0,
			"0.015": 0.0,
			"0.016": 0.0,
			"0.017": 0.0,
			"0.018": 0.0,
			"0.019": 0.0,
			"0.02": 0.0,
			"0.021": 0.0,
			"0.022": 0.0,
			"0.023": 0.0,
			"0.024": 0.0,
			"0.025": 0.0
		}
	}
}
