{
	 "smiles": "OC(=O)C1=NNC=N1", 
	 "Tm": 407.15, 
	 "num_atms": 11, 
	 "gaussian": { 
		 "optdone": 1, 
		 "sigma_profile": "yes", 
		 "theory": "DFT", 
		 "functional": "B3LYP", 
		 "basiset": "6-31G**", 
		 "properties": { 
			 "R2extent": 1377.6947, 
			 "electric_dipole_moment_norm": 7.43328288511, 
			 "electric_quadrupole_moment_norm": 11.54690011, 
			 "total_energy": -430.814069358, 
			 "HOMO_LUMO_gap": 0.22716, 
			 "cosmo_polarized_energy": -21.66, 
			 "cosmo_cavitation_energy": 16.36, 
			 "cosmo_dispersion_energy": -12.58, 
			 "cosmo_repulsion_energy": 1.06, 
			 "cosmo_total_nonelectrostatic_energy": 4.84, 
			 "SMD_solvation_energy": 2.38 
		},
		"coords": [
			{
				"x": -2.4462267814,
				"y": -0.6500502417,
				"z": -2.6143666037,
				"element": "O" 
			},
			{
				"x": -1.6733722911,
				"y": -1.4878297465,
				"z": -1.8863727277,
				"element": "C" 
			},
			{
				"x": -1.4706868267,
				"y": -2.6285777319,
				"z": -2.2121988271,
				"element": "O" 
			},
			{
				"x": -1.1051440515,
				"y": -0.8590074495,
				"z": -0.6525989541,
				"element": "C" 
			},
			{
				"x": -1.3761420411,
				"y": 0.4112636844,
				"z": -0.359545897,
				"element": "N" 
			},
			{
				"x": -0.6986168819,
				"y": 0.5898090089,
				"z": 0.7910416605,
				"element": "N" 
			},
			{
				"x": -0.0604735559,
				"y": -0.5570046293,
				"z": 1.1364665444,
				"element": "C" 
			},
			{
				"x": -0.2978135983,
				"y": -1.4946302476,
				"z": 0.2420029025,
				"element": "N" 
			},
			{
				"x": -2.4759843502,
				"y": 0.2167068004,
				"z": -2.1741210595,
				"element": "H" 
			},
			{
				"x": -0.7194351542,
				"y": 1.4839492468,
				"z": 1.2607675337,
				"element": "H" 
			},
			{
				"x": 0.5473955323,
				"y": -0.651728694,
				"z": 2.0256254282,
				"element": "H" 
			}
		],
		 "valence_orbital": [ 
			{
				"type": "occ",
				"energy": -0.33175,
				"method": "rhf"
			},
			{
				"type": "occ",
				"energy": -0.31212,
				"method": "rhf"
			},
			{
				"type": "occ",
				"energy": -0.30649,
				"method": "rhf"
			},
			{
				"type": "occ",
				"energy": -0.29894,
				"method": "rhf"
			},
			{
				"type": "occ",
				"energy": -0.2754,
				"method": "rhf"
			},
			{
				"type": "unocc",
				"energy": -0.04824,
				"method": "rhf"
			},
			{
				"type": "unocc",
				"energy": -0.00887,
				"method": "rhf"
			},
			{
				"type": "unocc",
				"energy": 0.04854,
				"method": "rhf"
			},
			{
				"type": "unocc",
				"energy": 0.08772,
				"method": "rhf"
			},
			{
				"type": "unocc",
				"energy": 0.10161,
				"method": "rhf"
			}
		],
		"cosmo_sigma_profile": { 
			"-0.025": 0.0,
			"-0.024": 0.0,
			"-0.023": 0.0,
			"-0.022": 0.0,
			"-0.021": 0.0,
			"-0.02": 0.0,
			"-0.019": 1.17981769717,
			"-0.018": 2.63481674406,
			"-0.017": 1.07618833307,
			"-0.016": 1.311571686,
			"-0.015": 1.55519781951,
			"-0.014": 2.01270556567,
			"-0.013": 1.84707344919,
			"-0.012": 2.5677406922,
			"-0.011": 4.30971490919,
			"-0.01": 3.03440355002,
			"-0.009": 2.77924078671,
			"-0.008": 2.70890739917,
			"-0.007": 3.69696820114,
			"-0.006": 3.42841737273,
			"-0.005": 4.02744862406,
			"-0.004": 5.55525609159,
			"-0.003": 6.93782153925,
			"-0.002": 9.31263527327,
			"-0.001": 5.04470205951,
			"0.0": 4.87745294784,
			"0.001": 4.62339752744,
			"0.002": 3.5543412876,
			"0.003": 3.52072342111,
			"0.004": 4.11945009128,
			"0.005": 4.91809688225,
			"0.006": 3.87424992923,
			"0.007": 3.89485960969,
			"0.008": 3.97440392572,
			"0.009": 6.24427504434,
			"0.01": 6.21110229241,
			"0.011": 6.74453483716,
			"0.012": 4.77156583864,
			"0.013": 3.13049704962,
			"0.014": 1.3621441873,
			"0.015": 1.01889775292,
			"0.016": 0.0300245859246,
			"0.017": 0.0,
			"0.018": 0.0,
			"0.019": 0.0,
			"0.02": 0.0,
			"0.021": 0.0,
			"0.022": 0.0,
			"0.023": 0.0,
			"0.024": 0.0,
			"0.025": 0.0
		}
	}
}
