{
	 "smiles": "CCCC(C1CCCCC1)C1CCCCC1", 
	 "Tm": 262.65, 
	 "num_atms": 46, 
	 "gaussian": { 
		 "optdone": 1, 
		 "sigma_profile": "yes", 
		 "theory": "DFT", 
		 "functional": "B3LYP", 
		 "basiset": "6-31G**", 
		 "properties": { 
			 "R2extent": 4925.1031, 
			 "electric_dipole_moment_norm": 0.0426682551788, 
			 "electric_quadrupole_moment_norm": 0.588665227443, 
			 "total_energy": -627.80470356, 
			 "HOMO_LUMO_gap": 0.34075, 
			 "cosmo_polarized_energy": -0.94, 
			 "cosmo_cavitation_energy": 40.17, 
			 "cosmo_dispersion_energy": -27.97, 
			 "cosmo_repulsion_energy": 2.2, 
			 "cosmo_total_nonelectrostatic_energy": 14.41, 
			 "SMD_solvation_energy": 4.94 
		},
		"coords": [
			{
				"x": 3.9938333001,
				"y": 0.71349286,
				"z": -1.3113507598,
				"element": "C" 
			},
			{
				"x": 2.8283263797,
				"y": -0.2660895332,
				"z": -1.1371385379,
				"element": "C" 
			},
			{
				"x": 1.456644039,
				"y": 0.4258276179,
				"z": -1.1448546106,
				"element": "C" 
			},
			{
				"x": 0.2561909876,
				"y": -0.5285634723,
				"z": -0.9023702219,
				"element": "C" 
			},
			{
				"x": -1.0509116954,
				"y": 0.0568221073,
				"z": -1.5357828046,
				"element": "C" 
			},
			{
				"x": -0.9549696228,
				"y": 0.2286323344,
				"z": -3.0708063058,
				"element": "C" 
			},
			{
				"x": -0.8119628367,
				"y": -1.1118057644,
				"z": -3.8243820945,
				"element": "C" 
			},
			{
				"x": -1.6614286648,
				"y": -2.2351248813,
				"z": -3.181698108,
				"element": "C" 
			},
			{
				"x": -2.8442954212,
				"y": -1.6429766645,
				"z": -2.4061276608,
				"element": "C" 
			},
			{
				"x": -2.376283451,
				"y": -0.7260519722,
				"z": -1.2480270227,
				"element": "C" 
			},
			{
				"x": 0.1847498993,
				"y": -0.8610969123,
				"z": 0.625854191,
				"element": "C" 
			},
			{
				"x": -0.2323014816,
				"y": -2.3293199032,
				"z": 0.9397519019,
				"element": "C" 
			},
			{
				"x": -0.8625015543,
				"y": -2.4862431591,
				"z": 2.3393835019,
				"element": "C" 
			},
			{
				"x": -0.1660612182,
				"y": -1.5741073811,
				"z": 3.3576124625,
				"element": "C" 
			},
			{
				"x": -0.3488314103,
				"y": -0.0783521501,
				"z": 2.9911358068,
				"element": "C" 
			},
			{
				"x": -0.6181933722,
				"y": 0.1383659779,
				"z": 1.4834270907,
				"element": "C" 
			},
			{
				"x": 3.9073926526,
				"y": 1.27037385,
				"z": -2.2515715479,
				"element": "H" 
			},
			{
				"x": 4.0203067746,
				"y": 1.4465179666,
				"z": -0.4968382033,
				"element": "H" 
			},
			{
				"x": 4.9573219765,
				"y": 0.1930747936,
				"z": -1.3212310493,
				"element": "H" 
			},
			{
				"x": 2.9672387407,
				"y": -0.8275430811,
				"z": -0.2041106542,
				"element": "H" 
			},
			{
				"x": 2.8539977581,
				"y": -1.0118418431,
				"z": -1.9435918724,
				"element": "H" 
			},
			{
				"x": 1.4433702223,
				"y": 1.2172667609,
				"z": -0.3811429019,
				"element": "H" 
			},
			{
				"x": 1.3540280061,
				"y": 0.9432344409,
				"z": -2.1040007856,
				"element": "H" 
			},
			{
				"x": 0.4892095465,
				"y": -1.4724414824,
				"z": -1.4156390611,
				"element": "H" 
			},
			{
				"x": -1.1690694156,
				"y": 1.0604204183,
				"z": -1.1065266282,
				"element": "H" 
			},
			{
				"x": -1.8765017739,
				"y": 0.7267956331,
				"z": -3.398550766,
				"element": "H" 
			},
			{
				"x": -0.1446641447,
				"y": 0.9044650269,
				"z": -3.3591370335,
				"element": "H" 
			},
			{
				"x": -1.1175706361,
				"y": -0.9607854174,
				"z": -4.8668378624,
				"element": "H" 
			},
			{
				"x": 0.2405454211,
				"y": -1.4165039936,
				"z": -3.8605194645,
				"element": "H" 
			},
			{
				"x": -2.0140410127,
				"y": -2.9339617976,
				"z": -3.948903145,
				"element": "H" 
			},
			{
				"x": -1.0455442965,
				"y": -2.8267482001,
				"z": -2.4928352895,
				"element": "H" 
			},
			{
				"x": -3.4733854918,
				"y": -1.0741643247,
				"z": -3.103183714,
				"element": "H" 
			},
			{
				"x": -3.4824903887,
				"y": -2.4407509155,
				"z": -2.0086659646,
				"element": "H" 
			},
			{
				"x": -3.1700767262,
				"y": 0.0015836088,
				"z": -1.0391847487,
				"element": "H" 
			},
			{
				"x": -2.281239396,
				"y": -1.3228152986,
				"z": -0.340817433,
				"element": "H" 
			},
			{
				"x": 1.2179069794,
				"y": -0.7712102448,
				"z": 0.9870663524,
				"element": "H" 
			},
			{
				"x": -0.9222082588,
				"y": -2.7165254534,
				"z": 0.1834510905,
				"element": "H" 
			},
			{
				"x": 0.6629709778,
				"y": -2.9614099407,
				"z": 0.8717316043,
				"element": "H" 
			},
			{
				"x": -1.9302962086,
				"y": -2.2316644889,
				"z": 2.3006102873,
				"element": "H" 
			},
			{
				"x": -0.8118616132,
				"y": -3.5339544661,
				"z": 2.6578812239,
				"element": "H" 
			},
			{
				"x": 0.9025936259,
				"y": -1.825767493,
				"z": 3.37776291,
				"element": "H" 
			},
			{
				"x": -0.5411217558,
				"y": -1.7649206491,
				"z": 4.369439898,
				"element": "H" 
			},
			{
				"x": -1.1792915121,
				"y": 0.3490018647,
				"z": 3.5657881511,
				"element": "H" 
			},
			{
				"x": 0.5468962118,
				"y": 0.4799409638,
				"z": 3.2895612365,
				"element": "H" 
			},
			{
				"x": -0.3605480906,
				"y": 1.1690410055,
				"z": 1.2124771485,
				"element": "H" 
			},
			{
				"x": -1.690172049,
				"y": 0.0342836532,
				"z": 1.2849913946,
				"element": "H" 
			}
		],
		 "valence_orbital": [ 
			{
				"type": "occ",
				"energy": -0.29348,
				"method": "rhf"
			},
			{
				"type": "occ",
				"energy": -0.2917,
				"method": "rhf"
			},
			{
				"type": "occ",
				"energy": -0.27881,
				"method": "rhf"
			},
			{
				"type": "occ",
				"energy": -0.27455,
				"method": "rhf"
			},
			{
				"type": "occ",
				"energy": -0.27042,
				"method": "rhf"
			},
			{
				"type": "unocc",
				"energy": 0.07033,
				"method": "rhf"
			},
			{
				"type": "unocc",
				"energy": 0.0827,
				"method": "rhf"
			},
			{
				"type": "unocc",
				"energy": 0.08774,
				"method": "rhf"
			},
			{
				"type": "unocc",
				"energy": 0.09532,
				"method": "rhf"
			},
			{
				"type": "unocc",
				"energy": 0.1079,
				"method": "rhf"
			}
		],
		"cosmo_sigma_profile": { 
			"-0.025": 0.0,
			"-0.024": 0.0,
			"-0.023": 0.0,
			"-0.022": 0.0,
			"-0.021": 0.0,
			"-0.02": 0.0,
			"-0.019": 0.0,
			"-0.018": 0.0,
			"-0.017": 0.0,
			"-0.016": 0.0,
			"-0.015": 0.0,
			"-0.014": 0.0,
			"-0.013": 0.0,
			"-0.012": 0.0,
			"-0.011": 0.0,
			"-0.01": 0.0,
			"-0.009": 0.0,
			"-0.008": 0.0,
			"-0.007": 0.0,
			"-0.006": 0.0,
			"-0.005": 0.0,
			"-0.004": 0.0,
			"-0.003": 2.70090705155,
			"-0.002": 33.0002024572,
			"-0.001": 77.4147458955,
			"0.0": 84.0048414962,
			"0.001": 67.3463901529,
			"0.002": 40.2676643496,
			"0.003": 1.33179364502,
			"0.004": 0.0,
			"0.005": 0.0,
			"0.006": 0.0,
			"0.007": 0.0,
			"0.008": 0.0,
			"0.009": 0.0,
			"0.01": 0.0,
			"0.011": 0.0,
			"0.012": 0.0,
			"0.013": 0.0,
			"0.014": 0.0,
			"0.015": 0.0,
			"0.016": 0.0,
			"0.017": 0.0,
			"0.018": 0.0,
			"0.019": 0.0,
			"0.02": 0.0,
			"0.021": 0.0,
			"0.022": 0.0,
			"0.023": 0.0,
			"0.024": 0.0,
			"0.025": 0.0
		}
	}
}
