{
	 "smiles": "CN(C)C(=O)NC1CC2CC1C1CCCC21", 
	 "Tm": 450.15, 
	 "num_atms": 38, 
	 "gaussian": { 
		 "optdone": 1, 
		 "sigma_profile": "yes", 
		 "theory": "DFT", 
		 "functional": "B3LYP", 
		 "basiset": "6-31G**", 
		 "properties": { 
			 "R2extent": 5049.5728, 
			 "electric_dipole_moment_norm": 3.4440041144, 
			 "electric_quadrupole_moment_norm": 13.0738743496, 
			 "total_energy": -693.392818352, 
			 "HOMO_LUMO_gap": 0.28592, 
			 "cosmo_polarized_energy": -11.55, 
			 "cosmo_cavitation_energy": 35.72, 
			 "cosmo_dispersion_energy": -26.32, 
			 "cosmo_repulsion_energy": 2.04, 
			 "cosmo_total_nonelectrostatic_energy": 11.44, 
			 "SMD_solvation_energy": 5.08 
		},
		"coords": [
			{
				"x": 4.0068344544,
				"y": -1.5492932066,
				"z": -2.5433385844,
				"element": "C" 
			},
			{
				"x": 2.8356792815,
				"y": -0.691537961,
				"z": -2.4790567008,
				"element": "N" 
			},
			{
				"x": 2.5007047333,
				"y": 0.0771755006,
				"z": -3.6625035554,
				"element": "C" 
			},
			{
				"x": 2.043899049,
				"y": -0.7354830593,
				"z": -1.3432063032,
				"element": "C" 
			},
			{
				"x": 2.3814932536,
				"y": -1.3288379909,
				"z": -0.3196888621,
				"element": "O" 
			},
			{
				"x": 0.8510619209,
				"y": -0.0263412051,
				"z": -1.4156004545,
				"element": "N" 
			},
			{
				"x": -0.0829233415,
				"y": -0.1418016527,
				"z": -0.2899123149,
				"element": "C" 
			},
			{
				"x": 0.402992429,
				"y": 0.6568245063,
				"z": 0.9657940684,
				"element": "C" 
			},
			{
				"x": -0.7175285847,
				"y": 1.7019470362,
				"z": 1.186470323,
				"element": "C" 
			},
			{
				"x": -1.1033814162,
				"y": 2.026359999,
				"z": -0.2732728429,
				"element": "C" 
			},
			{
				"x": -1.423925703,
				"y": 0.5569525158,
				"z": -0.6283197881,
				"element": "C" 
			},
			{
				"x": -2.4453408755,
				"y": 0.138291947,
				"z": 0.462191086,
				"element": "C" 
			},
			{
				"x": -3.9174962246,
				"y": 0.5534355519,
				"z": 0.215274006,
				"element": "C" 
			},
			{
				"x": -4.136020403,
				"y": 1.8892523285,
				"z": 0.9556587029,
				"element": "C" 
			},
			{
				"x": -3.1677538508,
				"y": 1.8308737714,
				"z": 2.155886372,
				"element": "C" 
			},
			{
				"x": -1.964270798,
				"y": 0.9537876008,
				"z": 1.7244513704,
				"element": "C" 
			},
			{
				"x": 4.9044935945,
				"y": -0.9611326932,
				"z": -2.7724846621,
				"element": "H" 
			},
			{
				"x": 3.8963300182,
				"y": -2.3225460364,
				"z": -3.3165991266,
				"element": "H" 
			},
			{
				"x": 4.129493764,
				"y": -2.0274586949,
				"z": -1.5727918949,
				"element": "H" 
			},
			{
				"x": 3.4230348454,
				"y": 0.3509362687,
				"z": -4.1843051093,
				"element": "H" 
			},
			{
				"x": 1.9926400182,
				"y": 1.0044601387,
				"z": -3.3856282691,
				"element": "H" 
			},
			{
				"x": 1.8690131122,
				"y": -0.4759130821,
				"z": -4.3765728475,
				"element": "H" 
			},
			{
				"x": 0.4107666638,
				"y": 0.0267753898,
				"z": -2.3237738951,
				"element": "H" 
			},
			{
				"x": -0.2292961484,
				"y": -1.2008176244,
				"z": -0.0463382499,
				"element": "H" 
			},
			{
				"x": 0.556633565,
				"y": 0.0053561651,
				"z": 1.8300649301,
				"element": "H" 
			},
			{
				"x": 1.35780889,
				"y": 1.1396348189,
				"z": 0.7446953253,
				"element": "H" 
			},
			{
				"x": -0.4126777982,
				"y": 2.5503071987,
				"z": 1.8066837671,
				"element": "H" 
			},
			{
				"x": -0.2648158369,
				"y": 2.4252654096,
				"z": -0.8530266559,
				"element": "H" 
			},
			{
				"x": -1.9513571964,
				"y": 2.7060047516,
				"z": -0.3779862971,
				"element": "H" 
			},
			{
				"x": -1.7766608952,
				"y": 0.3597797745,
				"z": -1.6477679702,
				"element": "H" 
			},
			{
				"x": -2.3869913216,
				"y": -0.9438307568,
				"z": 0.6206203222,
				"element": "H" 
			},
			{
				"x": -4.1621959997,
				"y": 0.6174902846,
				"z": -0.8512842097,
				"element": "H" 
			},
			{
				"x": -4.5774636328,
				"y": -0.2112039893,
				"z": 0.6422280756,
				"element": "H" 
			},
			{
				"x": -5.1771447289,
				"y": 2.0233399331,
				"z": 1.2684140556,
				"element": "H" 
			},
			{
				"x": -3.8971854212,
				"y": 2.7365860977,
				"z": 0.3046412554,
				"element": "H" 
			},
			{
				"x": -2.8572268071,
				"y": 2.8262441534,
				"z": 2.493457281,
				"element": "H" 
			},
			{
				"x": -3.6704889901,
				"y": 1.3547871842,
				"z": 3.0062197828,
				"element": "H" 
			},
			{
				"x": -1.6677336189,
				"y": 0.2981296264,
				"z": 2.5499078701,
				"element": "H" 
			}
		],
		 "valence_orbital": [ 
			{
				"type": "occ",
				"energy": -0.29694,
				"method": "rhf"
			},
			{
				"type": "occ",
				"energy": -0.29049,
				"method": "rhf"
			},
			{
				"type": "occ",
				"energy": -0.24984,
				"method": "rhf"
			},
			{
				"type": "occ",
				"energy": -0.23549,
				"method": "rhf"
			},
			{
				"type": "occ",
				"energy": -0.2241,
				"method": "rhf"
			},
			{
				"type": "unocc",
				"energy": 0.06182,
				"method": "rhf"
			},
			{
				"type": "unocc",
				"energy": 0.07407,
				"method": "rhf"
			},
			{
				"type": "unocc",
				"energy": 0.08147,
				"method": "rhf"
			},
			{
				"type": "unocc",
				"energy": 0.0946,
				"method": "rhf"
			},
			{
				"type": "unocc",
				"energy": 0.11201,
				"method": "rhf"
			}
		],
		"cosmo_sigma_profile": { 
			"-0.025": 0.0,
			"-0.024": 0.0,
			"-0.023": 0.0,
			"-0.022": 0.0,
			"-0.021": 0.0,
			"-0.02": 0.0,
			"-0.019": 0.0,
			"-0.018": 0.0,
			"-0.017": 0.0,
			"-0.016": 0.0,
			"-0.015": 0.0,
			"-0.014": 0.0,
			"-0.013": 0.0,
			"-0.012": 0.337875185495,
			"-0.011": 0.867451733146,
			"-0.01": 2.01471736127,
			"-0.009": 0.928826333062,
			"-0.008": 1.60618360686,
			"-0.007": 2.22806539104,
			"-0.006": 2.05050621847,
			"-0.005": 6.27606452766,
			"-0.004": 14.1778713295,
			"-0.003": 21.1610124464,
			"-0.002": 45.3930275277,
			"-0.001": 48.7353114825,
			"0.0": 40.8939680227,
			"0.001": 33.2340959307,
			"0.002": 20.3611891592,
			"0.003": 4.70446372872,
			"0.004": 4.66391045562,
			"0.005": 3.31837151477,
			"0.006": 2.60336368333,
			"0.007": 2.26043996581,
			"0.008": 1.5426326299,
			"0.009": 2.08183864361,
			"0.01": 1.40395126387,
			"0.011": 1.26702018605,
			"0.012": 1.8875638327,
			"0.013": 1.81287573484,
			"0.014": 2.63946908283,
			"0.015": 4.79008508325,
			"0.016": 0.441296625952,
			"0.017": 0.0,
			"0.018": 0.0,
			"0.019": 0.0,
			"0.02": 0.0,
			"0.021": 0.0,
			"0.022": 0.0,
			"0.023": 0.0,
			"0.024": 0.0,
			"0.025": 0.0
		}
	}
}
