{
	 "smiles": "OCC1=C(OC2=C1C=CC=C2)C(O)=O", 
	 "Tm": 427.15, 
	 "num_atms": 22, 
	 "gaussian": { 
		 "optdone": 1, 
		 "sigma_profile": "yes", 
		 "theory": "DFT", 
		 "functional": "B3LYP", 
		 "basiset": "6-31G**", 
		 "properties": { 
			 "R2extent": 3395.6557, 
			 "electric_dipole_moment_norm": 3.97929642148, 
			 "electric_quadrupole_moment_norm": 21.5251328172, 
			 "total_energy": -686.761652016, 
			 "HOMO_LUMO_gap": 0.17649, 
			 "cosmo_polarized_energy": -18.26, 
			 "cosmo_cavitation_energy": 26.75, 
			 "cosmo_dispersion_energy": -19.71, 
			 "cosmo_repulsion_energy": 1.55, 
			 "cosmo_total_nonelectrostatic_energy": 8.59, 
			 "SMD_solvation_energy": 6.08 
		},
		"coords": [
			{
				"x": -0.1269432737,
				"y": 1.8997622846,
				"z": -1.7216566697,
				"element": "O" 
			},
			{
				"x": -0.2127861073,
				"y": 0.4861867019,
				"z": -1.8329753209,
				"element": "C" 
			},
			{
				"x": -0.8929465519,
				"y": -0.1478268906,
				"z": -0.647423986,
				"element": "C" 
			},
			{
				"x": -1.8239312816,
				"y": -1.1585412119,
				"z": -0.6092569916,
				"element": "C" 
			},
			{
				"x": -2.2384006518,
				"y": -1.4242856097,
				"z": 0.6736775907,
				"element": "O" 
			},
			{
				"x": -1.5498894424,
				"y": -0.5736812187,
				"z": 1.4859698836,
				"element": "C" 
			},
			{
				"x": -0.7009405747,
				"y": 0.2522196271,
				"z": 0.7280239796,
				"element": "C" 
			},
			{
				"x": 0.0862319178,
				"y": 1.2148729661,
				"z": 1.3853301292,
				"element": "C" 
			},
			{
				"x": 0.0009961684,
				"y": 1.2919741092,
				"z": 2.7699016176,
				"element": "C" 
			},
			{
				"x": -0.8535296267,
				"y": 0.4416546347,
				"z": 3.5031349503,
				"element": "C" 
			},
			{
				"x": -1.6496751573,
				"y": -0.5105629448,
				"z": 2.8728773305,
				"element": "C" 
			},
			{
				"x": -2.5222081428,
				"y": -1.9467613378,
				"z": -1.6533128826,
				"element": "C" 
			},
			{
				"x": -1.8492889933,
				"y": -2.088295587,
				"z": -2.8318779889,
				"element": "O" 
			},
			{
				"x": -3.6207050477,
				"y": -2.4202012068,
				"z": -1.5089102305,
				"element": "O" 
			},
			{
				"x": -1.0261641956,
				"y": 2.245588058,
				"z": -1.6418459667,
				"element": "H" 
			},
			{
				"x": 0.8281863777,
				"y": 0.1460577023,
				"z": -1.8961844344,
				"element": "H" 
			},
			{
				"x": -0.7138890739,
				"y": 0.190584694,
				"z": -2.7662697345,
				"element": "H" 
			},
			{
				"x": 0.7276062828,
				"y": 1.8784152329,
				"z": 0.8167179283,
				"element": "H" 
			},
			{
				"x": 0.6003373478,
				"y": 2.0239312685,
				"z": 3.3027117202,
				"element": "H" 
			},
			{
				"x": -0.8949423126,
				"y": 0.53530046,
				"z": 4.5840760749,
				"element": "H" 
			},
			{
				"x": -2.3157671996,
				"y": -1.1672789569,
				"z": 3.420987818,
				"element": "H" 
			},
			{
				"x": -0.9145504616,
				"y": -1.8717127749,
				"z": -2.7106948169,
				"element": "H" 
			}
		],
		 "valence_orbital": [ 
			{
				"type": "occ",
				"energy": -0.31391,
				"method": "rhf"
			},
			{
				"type": "occ",
				"energy": -0.29088,
				"method": "rhf"
			},
			{
				"type": "occ",
				"energy": -0.28451,
				"method": "rhf"
			},
			{
				"type": "occ",
				"energy": -0.25241,
				"method": "rhf"
			},
			{
				"type": "occ",
				"energy": -0.24073,
				"method": "rhf"
			},
			{
				"type": "unocc",
				"energy": -0.06424,
				"method": "rhf"
			},
			{
				"type": "unocc",
				"energy": -0.00453,
				"method": "rhf"
			},
			{
				"type": "unocc",
				"energy": 0.0042,
				"method": "rhf"
			},
			{
				"type": "unocc",
				"energy": 0.05141,
				"method": "rhf"
			},
			{
				"type": "unocc",
				"energy": 0.05249,
				"method": "rhf"
			}
		],
		"cosmo_sigma_profile": { 
			"-0.025": 0.0,
			"-0.024": 0.0,
			"-0.023": 0.0,
			"-0.022": 0.0,
			"-0.021": 0.0,
			"-0.02": 0.0,
			"-0.019": 0.366542459213,
			"-0.018": 0.93788745451,
			"-0.017": 0.98806418642,
			"-0.016": 1.79655388862,
			"-0.015": 2.01480119054,
			"-0.014": 1.42515882057,
			"-0.013": 2.20611821157,
			"-0.012": 2.08631300711,
			"-0.011": 1.51108712359,
			"-0.01": 1.64798802141,
			"-0.009": 2.52965332913,
			"-0.008": 3.1936768307,
			"-0.007": 7.2059743309,
			"-0.006": 11.8551647638,
			"-0.005": 13.6085359139,
			"-0.004": 12.4823215737,
			"-0.003": 10.5984060915,
			"-0.002": 11.7851717961,
			"-0.001": 12.7528286389,
			"0.0": 11.8396505253,
			"0.001": 12.9429332284,
			"0.002": 14.1130524141,
			"0.003": 12.5541528396,
			"0.004": 13.0119808203,
			"0.005": 6.87119173382,
			"0.006": 4.42481650311,
			"0.007": 4.83130753866,
			"0.008": 4.51131683947,
			"0.009": 5.66995454713,
			"0.01": 7.45671633516,
			"0.011": 7.2413516792,
			"0.012": 5.50812401209,
			"0.013": 1.63826615224,
			"0.014": 0.466079000078,
			"0.015": 0.0,
			"0.016": 0.0,
			"0.017": 0.0,
			"0.018": 0.0,
			"0.019": 0.0,
			"0.02": 0.0,
			"0.021": 0.0,
			"0.022": 0.0,
			"0.023": 0.0,
			"0.024": 0.0,
			"0.025": 0.0
		}
	}
}
