{
	 "smiles": "[O-][N+](=O)C1=CC(Cl)=CC(Cl)=C1", 
	 "Tm": 337.85, 
	 "num_atms": 14, 
	 "gaussian": { 
		 "optdone": 1, 
		 "sigma_profile": "yes", 
		 "theory": "DFT", 
		 "functional": "B3LYP", 
		 "basiset": "6-31G**", 
		 "properties": { 
			 "R2extent": 2609.8024, 
			 "electric_dipole_moment_norm": 2.67194200162, 
			 "electric_quadrupole_moment_norm": 6.38749689472, 
			 "total_energy": -1355.92481752, 
			 "HOMO_LUMO_gap": 0.17089, 
			 "cosmo_polarized_energy": -6.7, 
			 "cosmo_cavitation_energy": 23.35, 
			 "cosmo_dispersion_energy": -17.47, 
			 "cosmo_repulsion_energy": 1.41, 
			 "cosmo_total_nonelectrostatic_energy": 7.29, 
			 "SMD_solvation_energy": 5.78 
		},
		"coords": [
			{
				"x": -0.260230063,
				"y": -2.3208437446,
				"z": -2.2786082585,
				"element": "O" 
			},
			{
				"x": 0.4991896599,
				"y": -2.1303475675,
				"z": -1.3318308838,
				"element": "N" 
			},
			{
				"x": 1.4246829153,
				"y": -2.8691823413,
				"z": -1.0047570184,
				"element": "O" 
			},
			{
				"x": 0.2819341064,
				"y": -0.9141820615,
				"z": -0.5209585854,
				"element": "C" 
			},
			{
				"x": 1.1300816021,
				"y": -0.6771237889,
				"z": 0.5568339816,
				"element": "C" 
			},
			{
				"x": 0.9075700073,
				"y": 0.4746345555,
				"z": 1.307457956,
				"element": "C" 
			},
			{
				"x": 1.9436065397,
				"y": 0.8215453273,
				"z": 2.672853676,
				"element": "Cl" 
			},
			{
				"x": -0.1247141902,
				"y": 1.3619283427,
				"z": 0.9966050942,
				"element": "C" 
			},
			{
				"x": -0.947791077,
				"y": 1.0782179894,
				"z": -0.0949944533,
				"element": "C" 
			},
			{
				"x": -2.2433009239,
				"y": 2.1836580555,
				"z": -0.4920236779,
				"element": "Cl" 
			},
			{
				"x": -0.7608232229,
				"y": -0.0619661971,
				"z": -0.8724913833,
				"element": "C" 
			},
			{
				"x": 1.926484992,
				"y": -1.3714317463,
				"z": 0.7883874858,
				"element": "H" 
			},
			{
				"x": -0.2839675158,
				"y": 2.2533023531,
				"z": 1.5909033566,
				"element": "H" 
			},
			{
				"x": -1.3921228299,
				"y": -0.2918091764,
				"z": -1.7201772897,
				"element": "H" 
			}
		],
		 "valence_orbital": [ 
			{
				"type": "occ",
				"energy": -0.32656,
				"method": "rhf"
			},
			{
				"type": "occ",
				"energy": -0.32324,
				"method": "rhf"
			},
			{
				"type": "occ",
				"energy": -0.30869,
				"method": "rhf"
			},
			{
				"type": "occ",
				"energy": -0.29442,
				"method": "rhf"
			},
			{
				"type": "occ",
				"energy": -0.27911,
				"method": "rhf"
			},
			{
				"type": "unocc",
				"energy": -0.10822,
				"method": "rhf"
			},
			{
				"type": "unocc",
				"energy": -0.05239,
				"method": "rhf"
			},
			{
				"type": "unocc",
				"energy": -0.02309,
				"method": "rhf"
			},
			{
				"type": "unocc",
				"energy": -0.01601,
				"method": "rhf"
			},
			{
				"type": "unocc",
				"energy": 0.02878,
				"method": "rhf"
			}
		],
		"cosmo_sigma_profile": { 
			"-0.025": 0.0,
			"-0.024": 0.0,
			"-0.023": 0.0,
			"-0.022": 0.0,
			"-0.021": 0.0,
			"-0.02": 0.0,
			"-0.019": 0.0,
			"-0.018": 0.0,
			"-0.017": 0.0,
			"-0.016": 0.0,
			"-0.015": 0.0,
			"-0.014": 0.0,
			"-0.013": 0.0,
			"-0.012": 0.0,
			"-0.011": 0.0,
			"-0.01": 0.58367340489,
			"-0.009": 2.74304539729,
			"-0.008": 4.23963327798,
			"-0.007": 6.30093456124,
			"-0.006": 5.34494217381,
			"-0.005": 7.09965998599,
			"-0.004": 8.65291661126,
			"-0.003": 15.0086724218,
			"-0.002": 23.2981261208,
			"-0.001": 26.3285570547,
			"0.0": 11.0099890017,
			"0.001": 12.2591130348,
			"0.002": 13.0987744856,
			"0.003": 21.1220430926,
			"0.004": 9.84279043187,
			"0.005": 3.58257470262,
			"0.006": 5.34099083293,
			"0.007": 9.06800699091,
			"0.008": 4.52110124935,
			"0.009": 3.34453612887,
			"0.01": 0.460085481927,
			"0.011": 0.0,
			"0.012": 0.0,
			"0.013": 0.0,
			"0.014": 0.0,
			"0.015": 0.0,
			"0.016": 0.0,
			"0.017": 0.0,
			"0.018": 0.0,
			"0.019": 0.0,
			"0.02": 0.0,
			"0.021": 0.0,
			"0.022": 0.0,
			"0.023": 0.0,
			"0.024": 0.0,
			"0.025": 0.0
		}
	}
}
