{
	 "smiles": "N1C2=C(C3=C1C=CC1=C3C=CC=C1)C1=C(C=CC=C1)C=C2", 
	 "Tm": 431.15, 
	 "num_atms": 34, 
	 "gaussian": { 
		 "optdone": 1, 
		 "sigma_profile": "yes", 
		 "theory": "DFT", 
		 "functional": "B3LYP", 
		 "basiset": "6-31G**", 
		 "properties": { 
			 "R2extent": 5869.4809, 
			 "electric_dipole_moment_norm": 2.35117415348, 
			 "electric_quadrupole_moment_norm": 15.1924049811, 
			 "total_energy": -824.754739123, 
			 "HOMO_LUMO_gap": 0.14511, 
			 "cosmo_polarized_energy": -11.94, 
			 "cosmo_cavitation_energy": 36.28, 
			 "cosmo_dispersion_energy": -27.12, 
			 "cosmo_repulsion_energy": 1.97, 
			 "cosmo_total_nonelectrostatic_energy": 11.13, 
			 "SMD_solvation_energy": 4.75 
		},
		"coords": [
			{
				"x": 1.994293968,
				"y": -1.4295903729,
				"z": -0.8260884256,
				"element": "N" 
			},
			{
				"x": 1.5671291843,
				"y": -1.4122164319,
				"z": 0.4823820308,
				"element": "C" 
			},
			{
				"x": 0.4169675562,
				"y": -0.5959766885,
				"z": 0.5820015066,
				"element": "C" 
			},
			{
				"x": 0.0925335882,
				"y": -0.1859274127,
				"z": -0.7794415976,
				"element": "C" 
			},
			{
				"x": 1.1354674065,
				"y": -0.6790945844,
				"z": -1.5968226037,
				"element": "C" 
			},
			{
				"x": 1.2546624348,
				"y": -0.4073623793,
				"z": -2.9765203289,
				"element": "C" 
			},
			{
				"x": 0.2781484219,
				"y": 0.351039681,
				"z": -3.5666858008,
				"element": "C" 
			},
			{
				"x": -0.8726613009,
				"y": 0.7794922711,
				"z": -2.8361669357,
				"element": "C" 
			},
			{
				"x": -1.0103797587,
				"y": 0.4702282208,
				"z": -1.4367917794,
				"element": "C" 
			},
			{
				"x": -2.2632614197,
				"y": 0.7490936528,
				"z": -0.8316021279,
				"element": "C" 
			},
			{
				"x": -3.2774351957,
				"y": 1.3852562106,
				"z": -1.5209453124,
				"element": "C" 
			},
			{
				"x": -3.1001118242,
				"y": 1.7736359032,
				"z": -2.8644263597,
				"element": "C" 
			},
			{
				"x": -1.9221187372,
				"y": 1.4581204043,
				"z": -3.5065049339,
				"element": "C" 
			},
			{
				"x": -0.0731921398,
				"y": -0.3007834971,
				"z": 1.9055159105,
				"element": "C" 
			},
			{
				"x": 0.4922236533,
				"y": -1.0294867343,
				"z": 3.0110311826,
				"element": "C" 
			},
			{
				"x": 0.008167679,
				"y": -0.7920922731,
				"z": 4.3227371204,
				"element": "C" 
			},
			{
				"x": -0.949065677,
				"y": 0.1672384843,
				"z": 4.5734548509,
				"element": "C" 
			},
			{
				"x": -1.4344789994,
				"y": 0.9508155016,
				"z": 3.5068645334,
				"element": "C" 
			},
			{
				"x": -1.0046852233,
				"y": 0.7244596275,
				"z": 2.2136181162,
				"element": "C" 
			},
			{
				"x": 1.5774611781,
				"y": -1.9361497834,
				"z": 2.8065829307,
				"element": "C" 
			},
			{
				"x": 2.1452780101,
				"y": -2.1001240058,
				"z": 1.5705649359,
				"element": "C" 
			},
			{
				"x": 2.8081532197,
				"y": -1.9154050193,
				"z": -1.1663466732,
				"element": "H" 
			},
			{
				"x": 2.1029441127,
				"y": -0.7815972518,
				"z": -3.5427081469,
				"element": "H" 
			},
			{
				"x": 0.3428046927,
				"y": 0.6011142573,
				"z": -4.6219617556,
				"element": "H" 
			},
			{
				"x": -2.4477561874,
				"y": 0.4143090038,
				"z": 0.1797565412,
				"element": "H" 
			},
			{
				"x": -4.2253048766,
				"y": 1.5729456465,
				"z": -1.024282136,
				"element": "H" 
			},
			{
				"x": -3.8962757035,
				"y": 2.2869479293,
				"z": -3.3954324874,
				"element": "H" 
			},
			{
				"x": -1.7870339752,
				"y": 1.7053947588,
				"z": -4.5567436157,
				"element": "H" 
			},
			{
				"x": 0.4304410399,
				"y": -1.3718133084,
				"z": 5.1400502169,
				"element": "H" 
			},
			{
				"x": -1.3028256171,
				"y": 0.3408403163,
				"z": 5.5854083192,
				"element": "H" 
			},
			{
				"x": -2.1422198067,
				"y": 1.7515781624,
				"z": 3.702416742,
				"element": "H" 
			},
			{
				"x": -1.3526323413,
				"y": 1.3768114216,
				"z": 1.4247306862,
				"element": "H" 
			},
			{
				"x": 1.9786462125,
				"y": -2.4641442041,
				"z": 3.6671624371,
				"element": "H" 
			},
			{
				"x": 3.005916426,
				"y": -2.7462575061,
				"z": 1.4221929598,
				"element": "H" 
			}
		],
		 "valence_orbital": [ 
			{
				"type": "occ",
				"energy": -0.26331,
				"method": "rhf"
			},
			{
				"type": "occ",
				"energy": -0.24021,
				"method": "rhf"
			},
			{
				"type": "occ",
				"energy": -0.2268,
				"method": "rhf"
			},
			{
				"type": "occ",
				"energy": -0.20296,
				"method": "rhf"
			},
			{
				"type": "occ",
				"energy": -0.1879,
				"method": "rhf"
			},
			{
				"type": "unocc",
				"energy": -0.04279,
				"method": "rhf"
			},
			{
				"type": "unocc",
				"energy": -0.02162,
				"method": "rhf"
			},
			{
				"type": "unocc",
				"energy": -0.00128,
				"method": "rhf"
			},
			{
				"type": "unocc",
				"energy": 0.00953,
				"method": "rhf"
			},
			{
				"type": "unocc",
				"energy": 0.02759,
				"method": "rhf"
			}
		],
		"cosmo_sigma_profile": { 
			"-0.025": 0.0,
			"-0.024": 0.0,
			"-0.023": 0.0,
			"-0.022": 0.0,
			"-0.021": 0.0,
			"-0.02": 0.0,
			"-0.019": 0.0,
			"-0.018": 0.0,
			"-0.017": 0.0,
			"-0.016": 0.865837864288,
			"-0.015": 1.38521183813,
			"-0.014": 1.36214123978,
			"-0.013": 1.6475083832,
			"-0.012": 1.11087358434,
			"-0.011": 1.3294939678,
			"-0.01": 1.80573128494,
			"-0.009": 1.43631708822,
			"-0.008": 1.72409056451,
			"-0.007": 3.82452352461,
			"-0.006": 11.7841884285,
			"-0.005": 20.9500221009,
			"-0.004": 22.0031491023,
			"-0.003": 23.7028106903,
			"-0.002": 17.1800362862,
			"-0.001": 16.7983071883,
			"0.0": 14.3883301489,
			"0.001": 15.0764432324,
			"0.002": 17.1771845945,
			"0.003": 25.2963484189,
			"0.004": 40.6703369944,
			"0.005": 37.4019060926,
			"0.006": 13.5185777195,
			"0.007": 0.246263861347,
			"0.008": 0.0,
			"0.009": 0.0,
			"0.01": 0.0,
			"0.011": 0.0,
			"0.012": 0.0,
			"0.013": 0.0,
			"0.014": 0.0,
			"0.015": 0.0,
			"0.016": 0.0,
			"0.017": 0.0,
			"0.018": 0.0,
			"0.019": 0.0,
			"0.02": 0.0,
			"0.021": 0.0,
			"0.022": 0.0,
			"0.023": 0.0,
			"0.024": 0.0,
			"0.025": 0.0
		}
	}
}
