{
	 "smiles": "CCCCCCC(=O)CC", 
	 "Tm": 265.15, 
	 "num_atms": 28, 
	 "gaussian": { 
		 "optdone": 1, 
		 "sigma_profile": "yes", 
		 "theory": "DFT", 
		 "functional": "B3LYP", 
		 "basiset": "6-31G**", 
		 "properties": { 
			 "R2extent": 3893.531, 
			 "electric_dipole_moment_norm": 2.4767016635, 
			 "electric_quadrupole_moment_norm": 9.49635709522, 
			 "total_energy": -429.05591287, 
			 "HOMO_LUMO_gap": 0.23347, 
			 "cosmo_polarized_energy": -6.77, 
			 "cosmo_cavitation_energy": 29.83, 
			 "cosmo_dispersion_energy": -21.3, 
			 "cosmo_repulsion_energy": 1.8, 
			 "cosmo_total_nonelectrostatic_energy": 10.32, 
			 "SMD_solvation_energy": 5.14 
		},
		"coords": [
			{
				"x": 0.0969374061,
				"y": 3.8731008267,
				"z": -1.4663055455,
				"element": "C" 
			},
			{
				"x": 0.2813014978,
				"y": 4.0374487013,
				"z": 0.0472150222,
				"element": "C" 
			},
			{
				"x": 0.7282083962,
				"y": 2.760509262,
				"z": 0.7780196616,
				"element": "C" 
			},
			{
				"x": -0.3024540836,
				"y": 1.6227415901,
				"z": 0.7719039269,
				"element": "C" 
			},
			{
				"x": 0.1593816653,
				"y": 0.3944482073,
				"z": 1.5657569603,
				"element": "C" 
			},
			{
				"x": -0.8659806743,
				"y": -0.7404675274,
				"z": 1.5640601536,
				"element": "C" 
			},
			{
				"x": -0.4182787857,
				"y": -1.9852512308,
				"z": 2.3235277946,
				"element": "C" 
			},
			{
				"x": 0.6974064276,
				"y": -2.0795404342,
				"z": 2.801429106,
				"element": "O" 
			},
			{
				"x": -1.4423194154,
				"y": -3.1093014042,
				"z": 2.4532974748,
				"element": "C" 
			},
			{
				"x": -0.8938449142,
				"y": -4.3614852039,
				"z": 3.1341631564,
				"element": "C" 
			},
			{
				"x": 1.0195641414,
				"y": 3.5161344212,
				"z": -1.9389855524,
				"element": "H" 
			},
			{
				"x": -0.695857549,
				"y": 3.1574157524,
				"z": -1.7073109117,
				"element": "H" 
			},
			{
				"x": -0.169020257,
				"y": 4.8256291063,
				"z": -1.9365108552,
				"element": "H" 
			},
			{
				"x": -0.6560800603,
				"y": 4.3987824154,
				"z": 0.4925216336,
				"element": "H" 
			},
			{
				"x": 1.0249252061,
				"y": 4.8234952943,
				"z": 0.2306546232,
				"element": "H" 
			},
			{
				"x": 1.6673077655,
				"y": 2.399581581,
				"z": 0.334481423,
				"element": "H" 
			},
			{
				"x": 0.9646956734,
				"y": 3.0140383134,
				"z": 1.8203024399,
				"element": "H" 
			},
			{
				"x": -0.5220364863,
				"y": 1.3223743921,
				"z": -0.2614879547,
				"element": "H" 
			},
			{
				"x": -1.2509028664,
				"y": 1.9941725802,
				"z": 1.1875995202,
				"element": "H" 
			},
			{
				"x": 1.1059622605,
				"y": 0.0191160951,
				"z": 1.1598551529,
				"element": "H" 
			},
			{
				"x": 0.3763356427,
				"y": 0.6794541571,
				"z": 2.6024561098,
				"element": "H" 
			},
			{
				"x": -1.8256175351,
				"y": -0.4058892614,
				"z": 1.9846868272,
				"element": "H" 
			},
			{
				"x": -1.1023816752,
				"y": -1.0484734166,
				"z": 0.5340843588,
				"element": "H" 
			},
			{
				"x": -2.3048445884,
				"y": -2.707810477,
				"z": 3.0049852931,
				"element": "H" 
			},
			{
				"x": -1.8295590334,
				"y": -3.3377143918,
				"z": 1.4503751717,
				"element": "H" 
			},
			{
				"x": -1.6696714747,
				"y": -5.1281445417,
				"z": 3.2190499927,
				"element": "H" 
			},
			{
				"x": -0.5234512164,
				"y": -4.1289045156,
				"z": 4.1357311275,
				"element": "H" 
			},
			{
				"x": -0.0562254674,
				"y": -4.7788602913,
				"z": 2.5687438894,
				"element": "H" 
			}
		],
		 "valence_orbital": [ 
			{
				"type": "occ",
				"energy": -0.33087,
				"method": "rhf"
			},
			{
				"type": "occ",
				"energy": -0.31903,
				"method": "rhf"
			},
			{
				"type": "occ",
				"energy": -0.31696,
				"method": "rhf"
			},
			{
				"type": "occ",
				"energy": -0.31045,
				"method": "rhf"
			},
			{
				"type": "occ",
				"energy": -0.24089,
				"method": "rhf"
			},
			{
				"type": "unocc",
				"energy": -0.00742,
				"method": "rhf"
			},
			{
				"type": "unocc",
				"energy": 0.08154,
				"method": "rhf"
			},
			{
				"type": "unocc",
				"energy": 0.09175,
				"method": "rhf"
			},
			{
				"type": "unocc",
				"energy": 0.11718,
				"method": "rhf"
			},
			{
				"type": "unocc",
				"energy": 0.11887,
				"method": "rhf"
			}
		],
		"cosmo_sigma_profile": { 
			"-0.025": 0.0,
			"-0.024": 0.0,
			"-0.023": 0.0,
			"-0.022": 0.0,
			"-0.021": 0.0,
			"-0.02": 0.0,
			"-0.019": 0.0,
			"-0.018": 0.0,
			"-0.017": 0.0,
			"-0.016": 0.0,
			"-0.015": 0.0,
			"-0.014": 0.0,
			"-0.013": 0.0,
			"-0.012": 0.0,
			"-0.011": 0.0,
			"-0.01": 0.0,
			"-0.009": 0.0,
			"-0.008": 0.0,
			"-0.007": 0.0,
			"-0.006": 2.73402892339,
			"-0.005": 10.6435311105,
			"-0.004": 9.8829999878,
			"-0.003": 16.1117181717,
			"-0.002": 37.2260473367,
			"-0.001": 42.2275736906,
			"0.0": 38.0142562518,
			"0.001": 33.1323661982,
			"0.002": 14.5361926974,
			"0.003": 2.25330896118,
			"0.004": 1.88976380078,
			"0.005": 2.53736419928,
			"0.006": 1.38198146476,
			"0.007": 1.55259679711,
			"0.008": 1.90901410484,
			"0.009": 1.88104481575,
			"0.01": 2.19025417768,
			"0.011": 2.29721113164,
			"0.012": 3.96034951883,
			"0.013": 2.9899775049,
			"0.014": 0.18078937523,
			"0.015": 0.0,
			"0.016": 0.0,
			"0.017": 0.0,
			"0.018": 0.0,
			"0.019": 0.0,
			"0.02": 0.0,
			"0.021": 0.0,
			"0.022": 0.0,
			"0.023": 0.0,
			"0.024": 0.0,
			"0.025": 0.0
		}
	}
}
