{
	 "smiles": "CC(=O)NC(CC1=CC=C(O)C=C1)C(N)=O", 
	 "Tm": 497.15, 
	 "num_atms": 30, 
	 "gaussian": { 
		 "optdone": 1, 
		 "sigma_profile": "yes", 
		 "theory": "DFT", 
		 "functional": "B3LYP", 
		 "basiset": "6-31G**", 
		 "properties": { 
			 "R2extent": 5573.4969, 
			 "electric_dipole_moment_norm": 2.93727673535, 
			 "electric_quadrupole_moment_norm": 16.830697558, 
			 "total_energy": -762.812788993, 
			 "HOMO_LUMO_gap": 0.21366, 
			 "cosmo_polarized_energy": -26.19, 
			 "cosmo_cavitation_energy": 34.29, 
			 "cosmo_dispersion_energy": -23.46, 
			 "cosmo_repulsion_energy": 1.86, 
			 "cosmo_total_nonelectrostatic_energy": 12.69, 
			 "SMD_solvation_energy": 7.35 
		},
		"coords": [
			{
				"x": -3.2112975487,
				"y": 1.4065103678,
				"z": -3.0568933981,
				"element": "C" 
			},
			{
				"x": -3.8810692679,
				"y": 0.3273360177,
				"z": -2.2248428439,
				"element": "C" 
			},
			{
				"x": -4.8481463941,
				"y": -0.3084888561,
				"z": -2.6183556089,
				"element": "O" 
			},
			{
				"x": -3.3473368911,
				"y": 0.0868055085,
				"z": -0.971998908,
				"element": "N" 
			},
			{
				"x": -2.1091682313,
				"y": 0.6258278072,
				"z": -0.41425027,
				"element": "C" 
			},
			{
				"x": -1.6287641046,
				"y": -0.3268504397,
				"z": 0.7166994846,
				"element": "C" 
			},
			{
				"x": -0.2570462197,
				"y": -0.0244773252,
				"z": 1.2747973653,
				"element": "C" 
			},
			{
				"x": 0.8921450728,
				"y": -0.5515797785,
				"z": 0.6675050594,
				"element": "C" 
			},
			{
				"x": 2.1644391451,
				"y": -0.2824835901,
				"z": 1.1608554005,
				"element": "C" 
			},
			{
				"x": 2.3108422601,
				"y": 0.5297046228,
				"z": 2.2909050557,
				"element": "C" 
			},
			{
				"x": 3.5799123738,
				"y": 0.7614080946,
				"z": 2.7404264424,
				"element": "O" 
			},
			{
				"x": 1.1771767127,
				"y": 1.0589980161,
				"z": 2.9151071609,
				"element": "C" 
			},
			{
				"x": -0.0902964844,
				"y": 0.7812087435,
				"z": 2.4058858225,
				"element": "C" 
			},
			{
				"x": -2.2604641726,
				"y": 2.0673299155,
				"z": 0.1163968125,
				"element": "C" 
			},
			{
				"x": -3.488177295,
				"y": 2.3619792668,
				"z": 0.6410622806,
				"element": "N" 
			},
			{
				"x": -1.3206641447,
				"y": 2.8466280834,
				"z": 0.1173928494,
				"element": "O" 
			},
			{
				"x": -3.8265851142,
				"y": 1.5821982532,
				"z": -3.9387394304,
				"element": "H" 
			},
			{
				"x": -2.2153407064,
				"y": 1.0821799523,
				"z": -3.3791662511,
				"element": "H" 
			},
			{
				"x": -3.0850438179,
				"y": 2.3411037116,
				"z": -2.5023895915,
				"element": "H" 
			},
			{
				"x": -3.756438329,
				"y": -0.7241016539,
				"z": -0.5231420571,
				"element": "H" 
			},
			{
				"x": -1.3270621435,
				"y": 0.676822583,
				"z": -1.1781257559,
				"element": "H" 
			},
			{
				"x": -1.6364682988,
				"y": -1.3401661781,
				"z": 0.296749616,
				"element": "H" 
			},
			{
				"x": -2.3768064924,
				"y": -0.3065512488,
				"z": 1.5189733253,
				"element": "H" 
			},
			{
				"x": 0.7905385215,
				"y": -1.1897276779,
				"z": -0.2075483415,
				"element": "H" 
			},
			{
				"x": 3.0516529918,
				"y": -0.6932116295,
				"z": 0.6905352189,
				"element": "H" 
			},
			{
				"x": 3.5416374654,
				"y": 1.3492025357,
				"z": 3.5059613438,
				"element": "H" 
			},
			{
				"x": 1.2841067018,
				"y": 1.6883394514,
				"z": 3.7962364902,
				"element": "H" 
			},
			{
				"x": -0.9616642345,
				"y": 1.2030252883,
				"z": 2.8994086649,
				"element": "H" 
			},
			{
				"x": -3.651537734,
				"y": 3.3153897091,
				"z": 0.9285069534,
				"element": "H" 
			},
			{
				"x": -4.2804736201,
				"y": 1.7795404493,
				"z": 0.4164471101,
				"element": "H" 
			}
		],
		 "valence_orbital": [ 
			{
				"type": "occ",
				"energy": -0.27274,
				"method": "rhf"
			},
			{
				"type": "occ",
				"energy": -0.25391,
				"method": "rhf"
			},
			{
				"type": "occ",
				"energy": -0.25186,
				"method": "rhf"
			},
			{
				"type": "occ",
				"energy": -0.24234,
				"method": "rhf"
			},
			{
				"type": "occ",
				"energy": -0.21746,
				"method": "rhf"
			},
			{
				"type": "unocc",
				"energy": -0.0038,
				"method": "rhf"
			},
			{
				"type": "unocc",
				"energy": 0.00561,
				"method": "rhf"
			},
			{
				"type": "unocc",
				"energy": 0.01681,
				"method": "rhf"
			},
			{
				"type": "unocc",
				"energy": 0.02117,
				"method": "rhf"
			},
			{
				"type": "unocc",
				"energy": 0.06817,
				"method": "rhf"
			}
		],
		"cosmo_sigma_profile": { 
			"-0.025": 0.0,
			"-0.024": 0.0,
			"-0.023": 0.0,
			"-0.022": 0.0,
			"-0.021": 0.0,
			"-0.02": 0.0,
			"-0.019": 0.0,
			"-0.018": 0.333703763514,
			"-0.017": 1.07716199077,
			"-0.016": 0.957580854763,
			"-0.015": 1.09176584576,
			"-0.014": 1.83169490513,
			"-0.013": 3.35419985164,
			"-0.012": 3.41590614392,
			"-0.011": 4.17618145302,
			"-0.01": 4.56867146583,
			"-0.009": 4.74937613358,
			"-0.008": 5.14385518115,
			"-0.007": 7.74133008017,
			"-0.006": 12.7868352311,
			"-0.005": 22.9372921863,
			"-0.004": 21.1718716036,
			"-0.003": 19.4844310016,
			"-0.002": 17.0462733095,
			"-0.001": 15.4866097427,
			"0.0": 11.1319819142,
			"0.001": 9.00467160749,
			"0.002": 9.35926120443,
			"0.003": 10.1330812277,
			"0.004": 12.113040782,
			"0.005": 11.620842635,
			"0.006": 9.34387953055,
			"0.007": 5.00713051634,
			"0.008": 5.09888187438,
			"0.009": 4.8311124995,
			"0.01": 4.39232264287,
			"0.011": 4.45154756471,
			"0.012": 5.40796566833,
			"0.013": 8.32280910139,
			"0.014": 9.8505511667,
			"0.015": 2.19465545836,
			"0.016": 0.00520377396958,
			"0.017": 0.0,
			"0.018": 0.0,
			"0.019": 0.0,
			"0.02": 0.0,
			"0.021": 0.0,
			"0.022": 0.0,
			"0.023": 0.0,
			"0.024": 0.0,
			"0.025": 0.0
		}
	}
}
