{
	 "smiles": "CCCCCCCCCCC(=O)CC", 
	 "Tm": 304.15, 
	 "num_atms": 40, 
	 "gaussian": { 
		 "optdone": 1, 
		 "sigma_profile": "yes", 
		 "theory": "DFT", 
		 "functional": "B3LYP", 
		 "basiset": "6-31G**", 
		 "properties": { 
			 "R2extent": 7602.5778, 
			 "electric_dipole_moment_norm": 2.67582242498, 
			 "electric_quadrupole_moment_norm": 12.6560612238, 
			 "total_energy": -586.31365332, 
			 "HOMO_LUMO_gap": 0.22937, 
			 "cosmo_polarized_energy": -6.99, 
			 "cosmo_cavitation_energy": 40.58, 
			 "cosmo_dispersion_energy": -28.17, 
			 "cosmo_repulsion_energy": 2.33, 
			 "cosmo_total_nonelectrostatic_energy": 14.74, 
			 "SMD_solvation_energy": 6.35 
		},
		"coords": [
			{
				"x": 2.491322532,
				"y": -5.9495271418,
				"z": -0.2121369217,
				"element": "C" 
			},
			{
				"x": 1.6098479198,
				"y": -4.796104465,
				"z": 0.277583319,
				"element": "C" 
			},
			{
				"x": 0.7430188515,
				"y": -4.1834543245,
				"z": -0.8298554262,
				"element": "C" 
			},
			{
				"x": -0.1441718014,
				"y": -3.0279576624,
				"z": -0.3486754086,
				"element": "C" 
			},
			{
				"x": -1.0059685848,
				"y": -2.4206156649,
				"z": -1.4642613293,
				"element": "C" 
			},
			{
				"x": -1.978749213,
				"y": -1.3219152169,
				"z": -0.9996533897,
				"element": "C" 
			},
			{
				"x": -1.3378459835,
				"y": -0.0505345393,
				"z": -0.4129465248,
				"element": "C" 
			},
			{
				"x": -0.4798558715,
				"y": 0.7457085556,
				"z": -1.407785972,
				"element": "C" 
			},
			{
				"x": 0.1588335656,
				"y": 2.0186477359,
				"z": -0.8295454266,
				"element": "C" 
			},
			{
				"x": -0.8441710451,
				"y": 3.109105937,
				"z": -0.442494193,
				"element": "C" 
			},
			{
				"x": -0.1874062367,
				"y": 4.4186575654,
				"z": -0.0145440651,
				"element": "C" 
			},
			{
				"x": 1.0042240077,
				"y": 4.6163010268,
				"z": -0.1689410247,
				"element": "O" 
			},
			{
				"x": -1.0795445703,
				"y": 5.4751320252,
				"z": 0.6327970122,
				"element": "C" 
			},
			{
				"x": -2.3270988477,
				"y": 5.852793128,
				"z": -0.1825154602,
				"element": "C" 
			},
			{
				"x": 3.0968252801,
				"y": -6.364867398,
				"z": 0.6002034607,
				"element": "H" 
			},
			{
				"x": 3.1762779591,
				"y": -5.617483375,
				"z": -1.000801816,
				"element": "H" 
			},
			{
				"x": 1.8850156895,
				"y": -6.7641705064,
				"z": -0.6247089463,
				"element": "H" 
			},
			{
				"x": 0.9608052695,
				"y": -5.1506581162,
				"z": 1.0900323138,
				"element": "H" 
			},
			{
				"x": 2.2427033387,
				"y": -4.0126022019,
				"z": 0.7164135608,
				"element": "H" 
			},
			{
				"x": 0.110906439,
				"y": -4.9679590248,
				"z": -1.2705393344,
				"element": "H" 
			},
			{
				"x": 1.3929479636,
				"y": -3.8284073617,
				"z": -1.6427303717,
				"element": "H" 
			},
			{
				"x": -0.7985632204,
				"y": -3.3850517346,
				"z": 0.4600066728,
				"element": "H" 
			},
			{
				"x": 0.4926340204,
				"y": -2.2525969207,
				"z": 0.0979684812,
				"element": "H" 
			},
			{
				"x": -1.5936282458,
				"y": -3.2227495917,
				"z": -1.9312866542,
				"element": "H" 
			},
			{
				"x": -0.3522052271,
				"y": -2.0335810938,
				"z": -2.2572483926,
				"element": "H" 
			},
			{
				"x": -2.6142019308,
				"y": -1.0339243454,
				"z": -1.8485512338,
				"element": "H" 
			},
			{
				"x": -2.6562044644,
				"y": -1.7502433896,
				"z": -0.2481832122,
				"element": "H" 
			},
			{
				"x": -2.1460159411,
				"y": 0.5881863461,
				"z": -0.033680486,
				"element": "H" 
			},
			{
				"x": -0.7267318618,
				"y": -0.308603118,
				"z": 0.4626155539,
				"element": "H" 
			},
			{
				"x": -1.0920924926,
				"y": 1.0087836256,
				"z": -2.2832834519,
				"element": "H" 
			},
			{
				"x": 0.3255166782,
				"y": 0.1046070359,
				"z": -1.7866911589,
				"element": "H" 
			},
			{
				"x": 0.8589501067,
				"y": 2.4425079689,
				"z": -1.5565766574,
				"element": "H" 
			},
			{
				"x": 0.7661228171,
				"y": 1.7625810596,
				"z": 0.0480738947,
				"element": "H" 
			},
			{
				"x": -1.5046513624,
				"y": 3.334806958,
				"z": -1.2937288085,
				"element": "H" 
			},
			{
				"x": -1.518100324,
				"y": 2.7821601622,
				"z": 0.3606104676,
				"element": "H" 
			},
			{
				"x": -1.3926258948,
				"y": 5.0882251093,
				"z": 1.6132815516,
				"element": "H" 
			},
			{
				"x": -0.451626056,
				"y": 6.3519495477,
				"z": 0.8138508908,
				"element": "H" 
			},
			{
				"x": -2.8854656483,
				"y": 6.6459687392,
				"z": 0.3234933489,
				"element": "H" 
			},
			{
				"x": -2.0541499824,
				"y": 6.221634618,
				"z": -1.1767034979,
				"element": "H" 
			},
			{
				"x": -3.0048776328,
				"y": 5.0035500483,
				"z": -0.3113613645,
				"element": "H" 
			}
		],
		 "valence_orbital": [ 
			{
				"type": "occ",
				"energy": -0.31713,
				"method": "rhf"
			},
			{
				"type": "occ",
				"energy": -0.30846,
				"method": "rhf"
			},
			{
				"type": "occ",
				"energy": -0.30515,
				"method": "rhf"
			},
			{
				"type": "occ",
				"energy": -0.29955,
				"method": "rhf"
			},
			{
				"type": "occ",
				"energy": -0.23816,
				"method": "rhf"
			},
			{
				"type": "unocc",
				"energy": -0.00879,
				"method": "rhf"
			},
			{
				"type": "unocc",
				"energy": 0.0778,
				"method": "rhf"
			},
			{
				"type": "unocc",
				"energy": 0.08692,
				"method": "rhf"
			},
			{
				"type": "unocc",
				"energy": 0.09918,
				"method": "rhf"
			},
			{
				"type": "unocc",
				"energy": 0.10849,
				"method": "rhf"
			}
		],
		"cosmo_sigma_profile": { 
			"-0.025": 0.0,
			"-0.024": 0.0,
			"-0.023": 0.0,
			"-0.022": 0.0,
			"-0.021": 0.0,
			"-0.02": 0.0,
			"-0.019": 0.0,
			"-0.018": 0.0,
			"-0.017": 0.0,
			"-0.016": 0.0,
			"-0.015": 0.0,
			"-0.014": 0.0,
			"-0.013": 0.0,
			"-0.012": 0.0,
			"-0.011": 0.0,
			"-0.01": 0.0,
			"-0.009": 0.0,
			"-0.008": 0.0,
			"-0.007": 0.0,
			"-0.006": 1.03226766927,
			"-0.005": 6.65163721877,
			"-0.004": 14.9107016169,
			"-0.003": 20.3834456623,
			"-0.002": 42.6283564309,
			"-0.001": 64.9702213806,
			"0.0": 65.980225995,
			"0.001": 47.3267453185,
			"0.002": 22.3491142122,
			"0.003": 2.63615712965,
			"0.004": 1.60055189775,
			"0.005": 1.77620156022,
			"0.006": 1.71186053271,
			"0.007": 1.24433048431,
			"0.008": 1.87099968755,
			"0.009": 1.68500805889,
			"0.01": 2.27485619641,
			"0.011": 2.32983199037,
			"0.012": 3.99423644746,
			"0.013": 3.41286355998,
			"0.014": 0.503862967253,
			"0.015": 0.0,
			"0.016": 0.0,
			"0.017": 0.0,
			"0.018": 0.0,
			"0.019": 0.0,
			"0.02": 0.0,
			"0.021": 0.0,
			"0.022": 0.0,
			"0.023": 0.0,
			"0.024": 0.0,
			"0.025": 0.0
		}
	}
}
