{
	 "smiles": "CC1=CC(I)=CN=C1Br", 
	 "Tm": 318.15, 
	 "num_atms": 14, 
	 "gaussian": { 
		 "optdone": 1, 
		 "sigma_profile": "no", 
		 "theory": "DFT", 
		 "functional": "B3LYP", 
		 "basiset": "6-31G**", 
		 "properties": { 
			 "R2extent": 4140.0615, 
			 "electric_dipole_moment_norm": 2.4706537394, 
			 "electric_quadrupole_moment_norm": 9.30585763377, 
			 "total_energy": -2869.19240739, 
			 "HOMO_LUMO_gap": 0.19784, 
			 "cosmo_polarized_energy": -99759.37, 
			 "cosmo_cavitation_energy": 23.6, 
			 "cosmo_dispersion_energy": -19.32, 
			 "cosmo_repulsion_energy": 1.54, 
			 "cosmo_total_nonelectrostatic_energy": 5.82, 
			 "SMD_solvation_energy": 0.79 
		},
		"coords": [
			{
				"x": 0.9062888571,
				"y": 1.7751329594,
				"z": -0.4289819053,
				"element": "C" 
			},
			{
				"x": 0.4698517501,
				"y": 0.6669499975,
				"z": -1.3471624808,
				"element": "C" 
			},
			{
				"x": -0.3920948674,
				"y": -0.3444190097,
				"z": -0.9095745058,
				"element": "C" 
			},
			{
				"x": -0.7804203341,
				"y": -1.3604662187,
				"z": -1.783733093,
				"element": "C" 
			},
			{
				"x": -2.0814643401,
				"y": -2.8984246904,
				"z": -1.1448677178,
				"element": "I" 
			},
			{
				"x": -0.2975907659,
				"y": -1.3497672318,
				"z": -3.0914912104,
				"element": "C" 
			},
			{
				"x": 0.5270219062,
				"y": -0.3895679362,
				"z": -3.524304433,
				"element": "N" 
			},
			{
				"x": 0.8847734569,
				"y": 0.5628364633,
				"z": -2.687682232,
				"element": "C" 
			},
			{
				"x": 2.0726942398,
				"y": 1.8977661229,
				"z": -3.4029327095,
				"element": "Br" 
			},
			{
				"x": 0.4623988836,
				"y": 1.6544541155,
				"z": 0.5621942609,
				"element": "H" 
			},
			{
				"x": 1.9957435674,
				"y": 1.7913674473,
				"z": -0.3226153632,
				"element": "H" 
			},
			{
				"x": 0.6124392268,
				"y": 2.7525065091,
				"z": -0.8250744343,
				"element": "H" 
			},
			{
				"x": -0.7533031046,
				"y": -0.3289642875,
				"z": 0.1135463687,
				"element": "H" 
			},
			{
				"x": -0.5722384757,
				"y": -2.1192042408,
				"z": -3.8069205446,
				"element": "H" 
			}
		],
		 "valence_orbital": [ 
			{
				"type": "occ",
				"energy": -0.29341,
				"method": "rhf"
			},
			{
				"type": "occ",
				"energy": -0.2858,
				"method": "rhf"
			},
			{
				"type": "occ",
				"energy": -0.28539,
				"method": "rhf"
			},
			{
				"type": "occ",
				"energy": -0.27495,
				"method": "rhf"
			},
			{
				"type": "occ",
				"energy": -0.24842,
				"method": "rhf"
			},
			{
				"type": "unocc",
				"energy": -0.05058,
				"method": "rhf"
			},
			{
				"type": "unocc",
				"energy": -0.04637,
				"method": "rhf"
			},
			{
				"type": "unocc",
				"energy": -0.03765,
				"method": "rhf"
			},
			{
				"type": "unocc",
				"energy": 0.00436,
				"method": "rhf"
			},
			{
				"type": "unocc",
				"energy": 0.03703,
				"method": "rhf"
			}
		],
		"cosmo_sigma_profile": { 
			"0.0": 0.0,
			"0.0": 0.0,
			"0.0": 0.0,
			"0.0": 0.0,
			"0.0": 0.0,
			"0.0": 0.0,
			"0.0": 0.0,
			"0.0": 0.0,
			"0.0": 0.0,
			"0.0": 0.0,
			"0.0": 0.0,
			"0.0": 0.0,
			"0.0": 0.0,
			"0.0": 0.0,
			"0.0": 0.0,
			"0.0": 0.0,
			"0.0": 0.0,
			"0.0": 0.0,
			"0.0": 0.0,
			"0.0": 0.0,
			"0.0": 0.0,
			"0.0": 0.0,
			"0.0": 0.0,
			"0.0": 0.0,
			"0.0": 0.0,
			"0.0": 0.0,
			"0.0": 0.0,
			"0.0": 0.0,
			"0.0": 0.0,
			"0.0": 0.0,
			"0.0": 0.0,
			"0.0": 0.0,
			"0.0": 0.0,
			"0.0": 0.0,
			"0.0": 0.0,
			"0.0": 0.0,
			"0.0": 0.0,
			"0.0": 0.0,
			"0.0": 0.0,
			"0.0": 0.0,
			"0.0": 0.0,
			"0.0": 0.0,
			"0.0": 0.0,
			"0.0": 0.0,
			"0.0": 0.0,
			"0.0": 0.0,
			"0.0": 0.0,
			"0.0": 0.0,
			"0.0": 0.0,
			"0.0": 0.0,
			"0.0": 0.0
		}
	}
}
