{
	 "smiles": "C=O", 
	 "Tm": 181.15, 
	 "num_atms": 4, 
	 "gaussian": { 
		 "optdone": 1, 
		 "sigma_profile": "yes", 
		 "theory": "DFT", 
		 "functional": "B3LYP", 
		 "basiset": "6-31G**", 
		 "properties": { 
			 "R2extent": 704.895, 
			 "electric_dipole_moment_norm": 2.17580304945, 
			 "electric_quadrupole_moment_norm": 9.3854393781, 
			 "total_energy": -114.500880845, 
			 "HOMO_LUMO_gap": 0.22498, 
			 "cosmo_polarized_energy": -4.98, 
			 "cosmo_cavitation_energy": 7.7, 
			 "cosmo_dispersion_energy": -5.33, 
			 "cosmo_repulsion_energy": 0.57, 
			 "cosmo_total_nonelectrostatic_energy": 2.93, 
			 "SMD_solvation_energy": 4.11 
		},
		"coords": [
			{
				"x": 0.4771737791,
				"y": -2.0746087028,
				"z": 2.1105809908,
				"element": "C" 
			},
			{
				"x": 1.2250805764,
				"y": -1.9804180721,
				"z": 3.0527209215,
				"element": "O" 
			},
			{
				"x": 0.490511639,
				"y": -2.9488718474,
				"z": 1.4255243917,
				"element": "H" 
			},
			{
				"x": -0.2738659945,
				"y": -1.2934013777,
				"z": 1.866773696,
				"element": "H" 
			}
		],
		 "valence_orbital": [ 
			{
				"type": "occ",
				"energy": -0.63628,
				"method": "rhf"
			},
			{
				"type": "occ",
				"energy": -0.494,
				"method": "rhf"
			},
			{
				"type": "occ",
				"energy": -0.4486,
				"method": "rhf"
			},
			{
				"type": "occ",
				"energy": -0.39878,
				"method": "rhf"
			},
			{
				"type": "occ",
				"energy": -0.26763,
				"method": "rhf"
			},
			{
				"type": "unocc",
				"energy": -0.04265,
				"method": "rhf"
			},
			{
				"type": "unocc",
				"energy": 0.10157,
				"method": "rhf"
			},
			{
				"type": "unocc",
				"energy": 0.18207,
				"method": "rhf"
			},
			{
				"type": "unocc",
				"energy": 0.22085,
				"method": "rhf"
			},
			{
				"type": "unocc",
				"energy": 0.50711,
				"method": "rhf"
			}
		],
		"cosmo_sigma_profile": { 
			"-0.025": 0.0,
			"-0.024": 0.0,
			"-0.023": 0.0,
			"-0.022": 0.0,
			"-0.021": 0.0,
			"-0.02": 0.0,
			"-0.019": 0.0,
			"-0.018": 0.0,
			"-0.017": 0.0,
			"-0.016": 0.0,
			"-0.015": 0.0,
			"-0.014": 0.0,
			"-0.013": 0.0,
			"-0.012": 0.0,
			"-0.011": 0.0,
			"-0.01": 0.0,
			"-0.009": 0.0,
			"-0.008": 0.102157040698,
			"-0.007": 9.26519966281,
			"-0.006": 10.2920271588,
			"-0.005": 6.04242023678,
			"-0.004": 3.41546617196,
			"-0.003": 2.17544380535,
			"-0.002": 2.21718785625,
			"-0.001": 1.51548207009,
			"0.0": 2.14844737678,
			"0.001": 1.31074532005,
			"0.002": 0.966654724577,
			"0.003": 1.55984356166,
			"0.004": 1.65540287192,
			"0.005": 1.74213470393,
			"0.006": 1.3341601018,
			"0.007": 1.73245706642,
			"0.008": 2.60584505863,
			"0.009": 2.68368546827,
			"0.01": 4.18669209691,
			"0.011": 3.77192602029,
			"0.012": 0.976522272019,
			"0.013": 0.0,
			"0.014": 0.0,
			"0.015": 0.0,
			"0.016": 0.0,
			"0.017": 0.0,
			"0.018": 0.0,
			"0.019": 0.0,
			"0.02": 0.0,
			"0.021": 0.0,
			"0.022": 0.0,
			"0.023": 0.0,
			"0.024": 0.0,
			"0.025": 0.0
		}
	}
}
