{
	 "smiles": "CC1=CC=CC(C)=C1NC1=NN=C(S)S1", 
	 "Tm": 540.15, 
	 "num_atms": 26, 
	 "gaussian": { 
		 "optdone": 1, 
		 "sigma_profile": "yes", 
		 "theory": "DFT", 
		 "functional": "B3LYP", 
		 "basiset": "6-31G**", 
		 "properties": { 
			 "R2extent": 5089.9976, 
			 "electric_dipole_moment_norm": 4.14735190332, 
			 "electric_quadrupole_moment_norm": 16.1305840462, 
			 "total_energy": -1348.2920626, 
			 "HOMO_LUMO_gap": 0.18209, 
			 "cosmo_polarized_energy": -16.42, 
			 "cosmo_cavitation_energy": 33.13, 
			 "cosmo_dispersion_energy": -24.49, 
			 "cosmo_repulsion_energy": 1.83, 
			 "cosmo_total_nonelectrostatic_energy": 10.47, 
			 "SMD_solvation_energy": 3.26 
		},
		"coords": [
			{
				"x": 0.3134560615,
				"y": 2.0000118004,
				"z": 2.7768230138,
				"element": "C" 
			},
			{
				"x": 0.4215881434,
				"y": 2.3360145641,
				"z": 1.3076347261,
				"element": "C" 
			},
			{
				"x": 0.8399746106,
				"y": 3.6053879571,
				"z": 0.8983679287,
				"element": "C" 
			},
			{
				"x": 0.9583062948,
				"y": 3.9156184464,
				"z": -0.4549364876,
				"element": "C" 
			},
			{
				"x": 0.6415906835,
				"y": 2.9584975046,
				"z": -1.4153023504,
				"element": "C" 
			},
			{
				"x": 0.2002419191,
				"y": 1.6798479106,
				"z": -1.053544686,
				"element": "C" 
			},
			{
				"x": -0.1685716333,
				"y": 0.6739449271,
				"z": -2.1123082792,
				"element": "C" 
			},
			{
				"x": 0.109454982,
				"y": 1.3817058332,
				"z": 0.3191003892,
				"element": "C" 
			},
			{
				"x": -0.3770824106,
				"y": 0.103402508,
				"z": 0.7464639648,
				"element": "N" 
			},
			{
				"x": 0.2894891103,
				"y": -1.0773032682,
				"z": 0.5604376142,
				"element": "C" 
			},
			{
				"x": 1.4078258245,
				"y": -1.214319114,
				"z": -0.1082075541,
				"element": "N" 
			},
			{
				"x": 1.8136964822,
				"y": -2.5159871612,
				"z": -0.2030001631,
				"element": "N" 
			},
			{
				"x": 1.0355480502,
				"y": -3.360641484,
				"z": 0.396521457,
				"element": "C" 
			},
			{
				"x": 1.4274563995,
				"y": -5.0791522187,
				"z": 0.5504247995,
				"element": "S" 
			},
			{
				"x": -0.3656284585,
				"y": -2.5993979114,
				"z": 1.1817396277,
				"element": "S" 
			},
			{
				"x": 0.7074813006,
				"y": 2.815253521,
				"z": 3.3882760154,
				"element": "H" 
			},
			{
				"x": 0.8725036688,
				"y": 1.091519706,
				"z": 3.0263480558,
				"element": "H" 
			},
			{
				"x": -0.7267570158,
				"y": 1.8394470197,
				"z": 3.0937245767,
				"element": "H" 
			},
			{
				"x": 1.08543221,
				"y": 4.349237636,
				"z": 1.6515243921,
				"element": "H" 
			},
			{
				"x": 1.2919095494,
				"y": 4.9031975888,
				"z": -0.7598237676,
				"element": "H" 
			},
			{
				"x": 0.7216857479,
				"y": 3.2034833795,
				"z": -2.4709032493,
				"element": "H" 
			},
			{
				"x": -1.0934621638,
				"y": 0.1473572379,
				"z": -1.8545048692,
				"element": "H" 
			},
			{
				"x": -0.3087949064,
				"y": 1.1644358393,
				"z": -3.0789620258,
				"element": "H" 
			},
			{
				"x": 0.6151295733,
				"y": -0.0838196233,
				"z": -2.2151395994,
				"element": "H" 
			},
			{
				"x": -1.0150942405,
				"y": 0.1184123748,
				"z": 1.5289902954,
				"element": "H" 
			},
			{
				"x": 0.2425202169,
				"y": -5.5521549736,
				"z": 0.1087561751,
				"element": "H" 
			}
		],
		 "valence_orbital": [ 
			{
				"type": "occ",
				"energy": -0.27687,
				"method": "rhf"
			},
			{
				"type": "occ",
				"energy": -0.26463,
				"method": "rhf"
			},
			{
				"type": "occ",
				"energy": -0.25004,
				"method": "rhf"
			},
			{
				"type": "occ",
				"energy": -0.24089,
				"method": "rhf"
			},
			{
				"type": "occ",
				"energy": -0.21998,
				"method": "rhf"
			},
			{
				"type": "unocc",
				"energy": -0.03789,
				"method": "rhf"
			},
			{
				"type": "unocc",
				"energy": -0.01657,
				"method": "rhf"
			},
			{
				"type": "unocc",
				"energy": -0.00614,
				"method": "rhf"
			},
			{
				"type": "unocc",
				"energy": 0.00026,
				"method": "rhf"
			},
			{
				"type": "unocc",
				"energy": 0.02304,
				"method": "rhf"
			}
		],
		"cosmo_sigma_profile": { 
			"-0.025": 0.0,
			"-0.024": 0.0,
			"-0.023": 0.0,
			"-0.022": 0.0,
			"-0.021": 0.0,
			"-0.02": 0.0,
			"-0.019": 0.0,
			"-0.018": 0.0,
			"-0.017": 0.0,
			"-0.016": 0.17999682291,
			"-0.015": 0.664193189421,
			"-0.014": 1.63538117699,
			"-0.013": 1.52808434503,
			"-0.012": 2.30727277818,
			"-0.011": 4.66477351353,
			"-0.01": 3.58969958454,
			"-0.009": 3.08238681865,
			"-0.008": 2.34369485788,
			"-0.007": 3.01131804007,
			"-0.006": 5.6781903065,
			"-0.005": 13.5424084076,
			"-0.004": 16.5552494084,
			"-0.003": 19.0997915787,
			"-0.002": 19.9317090481,
			"-0.001": 27.2240047666,
			"0.0": 29.7475683528,
			"0.001": 23.2142910427,
			"0.002": 18.073205924,
			"0.003": 13.7394689453,
			"0.004": 10.5909205312,
			"0.005": 11.7604393947,
			"0.006": 11.6535682003,
			"0.007": 4.55259271079,
			"0.008": 3.74356454431,
			"0.009": 2.81779724168,
			"0.01": 2.92682467689,
			"0.011": 2.95602389151,
			"0.012": 3.22729197842,
			"0.013": 2.68834382338,
			"0.014": 1.70305896905,
			"0.015": 0.443132117092,
			"0.016": 0.0,
			"0.017": 0.0,
			"0.018": 0.0,
			"0.019": 0.0,
			"0.02": 0.0,
			"0.021": 0.0,
			"0.022": 0.0,
			"0.023": 0.0,
			"0.024": 0.0,
			"0.025": 0.0
		}
	}
}
