{
	 "smiles": "CC1=CC(C(=O)CCl)=C(C)N1C1=CC=C(OC(F)(F)F)C=C1", 
	 "Tm": 351.15, 
	 "num_atms": 35, 
	 "gaussian": { 
		 "optdone": 1, 
		 "sigma_profile": "yes", 
		 "theory": "DFT", 
		 "functional": "B3LYP", 
		 "basiset": "6-31G**", 
		 "properties": { 
			 "R2extent": 11735.7835, 
			 "electric_dipole_moment_norm": 4.61978323517, 
			 "electric_quadrupole_moment_norm": 26.8702945328, 
			 "total_energy": -1544.34653789, 
			 "HOMO_LUMO_gap": 0.16771, 
			 "cosmo_polarized_energy": -13.55, 
			 "cosmo_cavitation_energy": 42.52, 
			 "cosmo_dispersion_energy": -28.83, 
			 "cosmo_repulsion_energy": 2.16, 
			 "cosmo_total_nonelectrostatic_energy": 15.85, 
			 "SMD_solvation_energy": 9.2 
		},
		"coords": [
			{
				"x": 0.0170303708,
				"y": 3.2812026065,
				"z": -1.6948787233,
				"element": "C" 
			},
			{
				"x": -0.0233486576,
				"y": 1.7905390451,
				"z": -1.7966930705,
				"element": "C" 
			},
			{
				"x": -0.0694995319,
				"y": 0.9717774468,
				"z": -2.8889073861,
				"element": "C" 
			},
			{
				"x": -0.0940523032,
				"y": -0.3884268116,
				"z": -2.4370250453,
				"element": "C" 
			},
			{
				"x": -0.1156250308,
				"y": -1.5040233115,
				"z": -3.3847412934,
				"element": "C" 
			},
			{
				"x": -0.053271918,
				"y": -1.3176536977,
				"z": -4.5947732127,
				"element": "O" 
			},
			{
				"x": -0.1950254594,
				"y": -2.9562538544,
				"z": -2.8995992579,
				"element": "C" 
			},
			{
				"x": -1.8915040812,
				"y": -3.3987005574,
				"z": -2.4053471658,
				"element": "Cl" 
			},
			{
				"x": -0.0572135501,
				"y": -0.3653325294,
				"z": -1.038714158,
				"element": "C" 
			},
			{
				"x": -0.042729306,
				"y": -1.4564926379,
				"z": -0.0113400835,
				"element": "C" 
			},
			{
				"x": -0.0123914179,
				"y": 0.9639481341,
				"z": -0.6632001199,
				"element": "N" 
			},
			{
				"x": 0.036681296,
				"y": 1.4525398064,
				"z": 0.6814507677,
				"element": "C" 
			},
			{
				"x": -1.1423187727,
				"y": 1.8216639622,
				"z": 1.338306631,
				"element": "C" 
			},
			{
				"x": -1.092003709,
				"y": 2.3133334434,
				"z": 2.6386889916,
				"element": "C" 
			},
			{
				"x": 0.1402150854,
				"y": 2.4358557438,
				"z": 3.2826125732,
				"element": "C" 
			},
			{
				"x": 0.0563965914,
				"y": 2.9400671006,
				"z": 4.5779769075,
				"element": "O" 
			},
			{
				"x": 1.1639190214,
				"y": 3.1028151701,
				"z": 5.3473454482,
				"element": "C" 
			},
			{
				"x": 0.7634296624,
				"y": 3.5876799947,
				"z": 6.5188745497,
				"element": "F" 
			},
			{
				"x": 2.0451217958,
				"y": 3.963849813,
				"z": 4.8028564209,
				"element": "F" 
			},
			{
				"x": 1.8159612733,
				"y": 1.9437519264,
				"z": 5.5598352009,
				"element": "F" 
			},
			{
				"x": 1.3264045024,
				"y": 2.0726259215,
				"z": 2.6430678481,
				"element": "C" 
			},
			{
				"x": 1.2621081477,
				"y": 1.5823858617,
				"z": 1.3380879222,
				"element": "C" 
			},
			{
				"x": 0.0264964682,
				"y": 3.7082477581,
				"z": -2.7001225131,
				"element": "H" 
			},
			{
				"x": 0.9105419477,
				"y": 3.638346344,
				"z": -1.1690124117,
				"element": "H" 
			},
			{
				"x": -0.8524846593,
				"y": 3.6890295482,
				"z": -1.1657455641,
				"element": "H" 
			},
			{
				"x": -0.0867249833,
				"y": 1.2757081414,
				"z": -3.9249310129,
				"element": "H" 
			},
			{
				"x": 0.4453368458,
				"y": -3.1618791856,
				"z": -2.0413173599,
				"element": "H" 
			},
			{
				"x": 0.0626037724,
				"y": -3.6029749234,
				"z": -3.7361702662,
				"element": "H" 
			},
			{
				"x": 0.9337715737,
				"y": -1.9547131731,
				"z": 0.0434362763,
				"element": "H" 
			},
			{
				"x": -0.7955135001,
				"y": -2.2163922719,
				"z": -0.2327021739,
				"element": "H" 
			},
			{
				"x": -0.2554650703,
				"y": -1.0583213996,
				"z": 0.9828986626,
				"element": "H" 
			},
			{
				"x": -2.094141872,
				"y": 1.7172968742,
				"z": 0.8278383585,
				"element": "H" 
			},
			{
				"x": -1.9931862631,
				"y": 2.6034638063,
				"z": 3.1674002424,
				"element": "H" 
			},
			{
				"x": 2.2845703676,
				"y": 2.1662981692,
				"z": 3.135737116,
				"element": "H" 
			},
			{
				"x": 2.1743113636,
				"y": 1.2985377356,
				"z": 0.8233069016,
				"element": "H" 
			}
		],
		 "valence_orbital": [ 
			{
				"type": "occ",
				"energy": -0.28779,
				"method": "rhf"
			},
			{
				"type": "occ",
				"energy": -0.26829,
				"method": "rhf"
			},
			{
				"type": "occ",
				"energy": -0.24804,
				"method": "rhf"
			},
			{
				"type": "occ",
				"energy": -0.24227,
				"method": "rhf"
			},
			{
				"type": "occ",
				"energy": -0.21321,
				"method": "rhf"
			},
			{
				"type": "unocc",
				"energy": -0.0455,
				"method": "rhf"
			},
			{
				"type": "unocc",
				"energy": -0.03766,
				"method": "rhf"
			},
			{
				"type": "unocc",
				"energy": -0.03319,
				"method": "rhf"
			},
			{
				"type": "unocc",
				"energy": 0.0221,
				"method": "rhf"
			},
			{
				"type": "unocc",
				"energy": 0.04521,
				"method": "rhf"
			}
		],
		"cosmo_sigma_profile": { 
			"-0.025": 0.0,
			"-0.024": 0.0,
			"-0.023": 0.0,
			"-0.022": 0.0,
			"-0.021": 0.0,
			"-0.02": 0.0,
			"-0.019": 0.0,
			"-0.018": 0.0,
			"-0.017": 0.0,
			"-0.016": 0.0,
			"-0.015": 0.0,
			"-0.014": 0.0,
			"-0.013": 0.0,
			"-0.012": 0.0,
			"-0.011": 0.0,
			"-0.01": 0.0,
			"-0.009": 0.0745923970553,
			"-0.008": 6.14018589388,
			"-0.007": 12.6810489901,
			"-0.006": 12.7222607256,
			"-0.005": 16.9863390073,
			"-0.004": 20.9122973806,
			"-0.003": 25.2543856236,
			"-0.002": 27.2007099099,
			"-0.001": 35.3412326709,
			"0.0": 31.5000623135,
			"0.001": 39.8080701043,
			"0.002": 40.5500208453,
			"0.003": 15.0419700767,
			"0.004": 14.4672841189,
			"0.005": 14.6603321313,
			"0.006": 10.8940218621,
			"0.007": 2.43906294058,
			"0.008": 1.74915936997,
			"0.009": 1.90593796678,
			"0.01": 1.70178958938,
			"0.011": 2.3029331345,
			"0.012": 4.67296821054,
			"0.013": 2.70157406469,
			"0.014": 0.193296102607,
			"0.015": 0.0,
			"0.016": 0.0,
			"0.017": 0.0,
			"0.018": 0.0,
			"0.019": 0.0,
			"0.02": 0.0,
			"0.021": 0.0,
			"0.022": 0.0,
			"0.023": 0.0,
			"0.024": 0.0,
			"0.025": 0.0
		}
	}
}
