{
	 "smiles": "NC1=CC(=CC=C1)C1=NC=CO1", 
	 "Tm": 335.15, 
	 "num_atms": 20, 
	 "gaussian": { 
		 "optdone": 1, 
		 "sigma_profile": "yes", 
		 "theory": "DFT", 
		 "functional": "B3LYP", 
		 "basiset": "6-31G**", 
		 "properties": { 
			 "R2extent": 2464.6571, 
			 "electric_dipole_moment_norm": 1.27379333096, 
			 "electric_quadrupole_moment_norm": 12.9023181956, 
			 "total_energy": -532.495780864, 
			 "HOMO_LUMO_gap": 0.16886, 
			 "cosmo_polarized_energy": -11.37, 
			 "cosmo_cavitation_energy": 24.57, 
			 "cosmo_dispersion_energy": -18.44, 
			 "cosmo_repulsion_energy": 1.45, 
			 "cosmo_total_nonelectrostatic_energy": 7.58, 
			 "SMD_solvation_energy": 3.7 
		},
		"coords": [
			{
				"x": -0.9181611527,
				"y": 2.5504261168,
				"z": -1.6240585824,
				"element": "N" 
			},
			{
				"x": -1.264542282,
				"y": 1.3874546375,
				"z": -0.9341887012,
				"element": "C" 
			},
			{
				"x": -0.2896214926,
				"y": 0.4363526611,
				"z": -0.6054983666,
				"element": "C" 
			},
			{
				"x": -0.6263688831,
				"y": -0.702314781,
				"z": 0.1373987941,
				"element": "C" 
			},
			{
				"x": -1.9482354539,
				"y": -0.9061649099,
				"z": 0.5629004838,
				"element": "C" 
			},
			{
				"x": -2.9155717102,
				"y": 0.0414953819,
				"z": 0.2334905213,
				"element": "C" 
			},
			{
				"x": -2.5880799498,
				"y": 1.1760499246,
				"z": -0.5046067514,
				"element": "C" 
			},
			{
				"x": 0.4261503397,
				"y": -1.6669272522,
				"z": 0.4507028654,
				"element": "C" 
			},
			{
				"x": 1.6876214584,
				"y": -1.6244864065,
				"z": 0.1169613593,
				"element": "N" 
			},
			{
				"x": 2.2373282976,
				"y": -2.7729866356,
				"z": 0.6619847539,
				"element": "C" 
			},
			{
				"x": 1.2699772416,
				"y": -3.4698608261,
				"z": 1.3102199288,
				"element": "C" 
			},
			{
				"x": 0.0985906699,
				"y": -2.7723111702,
				"z": 1.1839989597,
				"element": "O" 
			},
			{
				"x": -1.6711821143,
				"y": 2.9864587292,
				"z": -2.1382499153,
				"element": "H" 
			},
			{
				"x": -0.0726881739,
				"y": 2.4865381323,
				"z": -2.1743828429,
				"element": "H" 
			},
			{
				"x": 0.7409224865,
				"y": 0.570291541,
				"z": -0.9196913726,
				"element": "H" 
			},
			{
				"x": -2.2056481257,
				"y": -1.7888341771,
				"z": 1.1363445675,
				"element": "H" 
			},
			{
				"x": -3.9430797117,
				"y": -0.1050803605,
				"z": 0.5545203823,
				"element": "H" 
			},
			{
				"x": -3.3534708171,
				"y": 1.9084105081,
				"z": -0.7490773886,
				"element": "H" 
			},
			{
				"x": 3.2844582097,
				"y": -3.013440514,
				"z": 0.5485857851,
				"element": "H" 
			},
			{
				"x": 1.2293011636,
				"y": -4.3922705996,
				"z": 1.8660455198,
				"element": "H" 
			}
		],
		 "valence_orbital": [ 
			{
				"type": "occ",
				"energy": -0.30973,
				"method": "rhf"
			},
			{
				"type": "occ",
				"energy": -0.28234,
				"method": "rhf"
			},
			{
				"type": "occ",
				"energy": -0.27084,
				"method": "rhf"
			},
			{
				"type": "occ",
				"energy": -0.22071,
				"method": "rhf"
			},
			{
				"type": "occ",
				"energy": -0.20287,
				"method": "rhf"
			},
			{
				"type": "unocc",
				"energy": -0.03401,
				"method": "rhf"
			},
			{
				"type": "unocc",
				"energy": 0.01203,
				"method": "rhf"
			},
			{
				"type": "unocc",
				"energy": 0.04043,
				"method": "rhf"
			},
			{
				"type": "unocc",
				"energy": 0.0767,
				"method": "rhf"
			},
			{
				"type": "unocc",
				"energy": 0.08757,
				"method": "rhf"
			}
		],
		"cosmo_sigma_profile": { 
			"-0.025": 0.0,
			"-0.024": 0.0,
			"-0.023": 0.0,
			"-0.022": 0.0,
			"-0.021": 0.0,
			"-0.02": 0.0,
			"-0.019": 0.0,
			"-0.018": 0.0,
			"-0.017": 0.0,
			"-0.016": 0.0,
			"-0.015": 0.0,
			"-0.014": 0.0,
			"-0.013": 0.461618768303,
			"-0.012": 2.84077049577,
			"-0.011": 2.61317156839,
			"-0.01": 4.34923035178,
			"-0.009": 5.84570791381,
			"-0.008": 5.19285222036,
			"-0.007": 7.01264605294,
			"-0.006": 7.49959308834,
			"-0.005": 10.0617432848,
			"-0.004": 10.8875607634,
			"-0.003": 9.18332304841,
			"-0.002": 8.91879921121,
			"-0.001": 9.19010303245,
			"0.0": 12.2058540835,
			"0.001": 14.7294726568,
			"0.002": 15.6355809744,
			"0.003": 14.7811122992,
			"0.004": 15.0832719786,
			"0.005": 15.5220458838,
			"0.006": 9.28916977197,
			"0.007": 2.34261439858,
			"0.008": 2.87363578428,
			"0.009": 1.91781245556,
			"0.01": 1.78347378769,
			"0.011": 1.50552254785,
			"0.012": 1.89301568823,
			"0.013": 1.46498948354,
			"0.014": 1.62782894152,
			"0.015": 0.481932759649,
			"0.016": 0.0,
			"0.017": 0.0,
			"0.018": 0.0,
			"0.019": 0.0,
			"0.02": 0.0,
			"0.021": 0.0,
			"0.022": 0.0,
			"0.023": 0.0,
			"0.024": 0.0,
			"0.025": 0.0
		}
	}
}
