{
	 "smiles": "OC(=O)C1=C(N(N=C1)C1=C(Cl)C=CC=N1)C(F)(F)F", 
	 "Tm": 423.15, 
	 "num_atms": 24, 
	 "gaussian": { 
		 "optdone": 1, 
		 "sigma_profile": "yes", 
		 "theory": "DFT", 
		 "functional": "B3LYP", 
		 "basiset": "6-31G**", 
		 "properties": { 
			 "R2extent": 5142.2842, 
			 "electric_dipole_moment_norm": 7.31746037502, 
			 "electric_quadrupole_moment_norm": 11.0332771827, 
			 "total_energy": -1458.46248602, 
			 "HOMO_LUMO_gap": 0.19999, 
			 "cosmo_polarized_energy": -15.58, 
			 "cosmo_cavitation_energy": 32.74, 
			 "cosmo_dispersion_energy": -22.86, 
			 "cosmo_repulsion_energy": 1.69, 
			 "cosmo_total_nonelectrostatic_energy": 11.57, 
			 "SMD_solvation_energy": 6.17 
		},
		"coords": [
			{
				"x": -3.0368295343,
				"y": -1.6383193648,
				"z": -2.4276107305,
				"element": "O" 
			},
			{
				"x": -1.7986753976,
				"y": -1.512498929,
				"z": -2.9412845824,
				"element": "C" 
			},
			{
				"x": -1.5883177293,
				"y": -1.778011367,
				"z": -4.1036382604,
				"element": "O" 
			},
			{
				"x": -0.6841532725,
				"y": -1.024214907,
				"z": -2.0736075087,
				"element": "C" 
			},
			{
				"x": -0.5635680959,
				"y": -0.4988864552,
				"z": -0.7870424309,
				"element": "C" 
			},
			{
				"x": 0.7630269747,
				"y": -0.2010704703,
				"z": -0.6116739745,
				"element": "N" 
			},
			{
				"x": 1.5039246625,
				"y": -0.5020039995,
				"z": -1.7080451779,
				"element": "N" 
			},
			{
				"x": 0.6419087905,
				"y": -0.9938695072,
				"z": -2.5783437267,
				"element": "C" 
			},
			{
				"x": 1.3894994151,
				"y": 0.520125549,
				"z": 0.4513616961,
				"element": "C" 
			},
			{
				"x": 2.5065627549,
				"y": -0.0000524381,
				"z": 1.1220231097,
				"element": "C" 
			},
			{
				"x": 3.1288265501,
				"y": -1.5952459376,
				"z": 0.8105621934,
				"element": "Cl" 
			},
			{
				"x": 3.1033654221,
				"y": 0.7912694548,
				"z": 2.1040770042,
				"element": "C" 
			},
			{
				"x": 2.554997511,
				"y": 2.0379396404,
				"z": 2.3932123033,
				"element": "C" 
			},
			{
				"x": 1.4198549767,
				"y": 2.4449321357,
				"z": 1.6924804425,
				"element": "C" 
			},
			{
				"x": 0.8582777943,
				"y": 1.7042181199,
				"z": 0.7336928834,
				"element": "N" 
			},
			{
				"x": -1.5785863683,
				"y": -0.2391547273,
				"z": 0.2868172469,
				"element": "C" 
			},
			{
				"x": -1.052342458,
				"y": -0.3277079175,
				"z": 1.5178872121,
				"element": "F" 
			},
			{
				"x": -2.577185469,
				"y": -1.1793762078,
				"z": 0.2354876822,
				"element": "F" 
			},
			{
				"x": -2.1746673708,
				"y": 0.9537433997,
				"z": 0.1640052497,
				"element": "F" 
			},
			{
				"x": -3.0465808675,
				"y": -1.4854106517,
				"z": -1.4715053492,
				"element": "H" 
			},
			{
				"x": 0.9586789612,
				"y": -1.3215095219,
				"z": -3.5576713583,
				"element": "H" 
			},
			{
				"x": 3.9724912123,
				"y": 0.4190283615,
				"z": 2.6350949375,
				"element": "H" 
			},
			{
				"x": 2.9950435988,
				"y": 2.6748948807,
				"z": 3.1531021747,
				"element": "H" 
			},
			{
				"x": 0.9461479391,
				"y": 3.4013808603,
				"z": 1.8978189638,
				"element": "H" 
			}
		],
		 "valence_orbital": [ 
			{
				"type": "occ",
				"energy": -0.30077,
				"method": "rhf"
			},
			{
				"type": "occ",
				"energy": -0.29463,
				"method": "rhf"
			},
			{
				"type": "occ",
				"energy": -0.28895,
				"method": "rhf"
			},
			{
				"type": "occ",
				"energy": -0.27795,
				"method": "rhf"
			},
			{
				"type": "occ",
				"energy": -0.27076,
				"method": "rhf"
			},
			{
				"type": "unocc",
				"energy": -0.07077,
				"method": "rhf"
			},
			{
				"type": "unocc",
				"energy": -0.05891,
				"method": "rhf"
			},
			{
				"type": "unocc",
				"energy": -0.03923,
				"method": "rhf"
			},
			{
				"type": "unocc",
				"energy": -0.00359,
				"method": "rhf"
			},
			{
				"type": "unocc",
				"energy": 0.00712,
				"method": "rhf"
			}
		],
		"cosmo_sigma_profile": { 
			"-0.025": 0.0,
			"-0.024": 0.0,
			"-0.023": 0.0,
			"-0.022": 0.0,
			"-0.021": 0.0,
			"-0.02": 0.0,
			"-0.019": 0.0,
			"-0.018": 0.0,
			"-0.017": 0.0,
			"-0.016": 0.00499181427444,
			"-0.015": 0.0419941451159,
			"-0.014": 0.313870733701,
			"-0.013": 0.232226432563,
			"-0.012": 0.578605552996,
			"-0.011": 1.553607711,
			"-0.01": 2.12308862503,
			"-0.009": 6.21720008283,
			"-0.008": 10.5362712413,
			"-0.007": 10.916406769,
			"-0.006": 9.71263172154,
			"-0.005": 9.91995552433,
			"-0.004": 10.3804606912,
			"-0.003": 14.1900308078,
			"-0.002": 21.7686951367,
			"-0.001": 27.3790965888,
			"0.0": 28.0129698598,
			"0.001": 26.9145217481,
			"0.002": 18.5461939204,
			"0.003": 14.1509099557,
			"0.004": 7.51857428159,
			"0.005": 6.02771358642,
			"0.006": 6.35330327662,
			"0.007": 4.64422158259,
			"0.008": 5.12553991416,
			"0.009": 5.96183509161,
			"0.01": 6.38253964489,
			"0.011": 6.73296070948,
			"0.012": 4.08795733912,
			"0.013": 1.11505783137,
			"0.014": 0.0,
			"0.015": 0.0,
			"0.016": 0.0,
			"0.017": 0.0,
			"0.018": 0.0,
			"0.019": 0.0,
			"0.02": 0.0,
			"0.021": 0.0,
			"0.022": 0.0,
			"0.023": 0.0,
			"0.024": 0.0,
			"0.025": 0.0
		}
	}
}
