{
	 "smiles": "OC(=O)C1(CCOCC1)C1=CC(=CC=C1)C(F)(F)F", 
	 "Tm": 421.15, 
	 "num_atms": 32, 
	 "gaussian": { 
		 "optdone": 1, 
		 "sigma_profile": "yes", 
		 "theory": "DFT", 
		 "functional": "B3LYP", 
		 "basiset": "6-31G**", 
		 "properties": { 
			 "R2extent": 5073.5689, 
			 "electric_dipole_moment_norm": 0.588157062357, 
			 "electric_quadrupole_moment_norm": 26.8896345349, 
			 "total_energy": -1028.40843639, 
			 "HOMO_LUMO_gap": 0.21682, 
			 "cosmo_polarized_energy": -14.54, 
			 "cosmo_cavitation_energy": 35.01, 
			 "cosmo_dispersion_energy": -23.97, 
			 "cosmo_repulsion_energy": 1.77, 
			 "cosmo_total_nonelectrostatic_energy": 12.82, 
			 "SMD_solvation_energy": 7.68 
		},
		"coords": [
			{
				"x": -2.011732853,
				"y": -1.4467520178,
				"z": -2.7456241754,
				"element": "O" 
			},
			{
				"x": -1.45448435,
				"y": -0.2155081568,
				"z": -2.8826220645,
				"element": "C" 
			},
			{
				"x": -1.4437823926,
				"y": 0.3235016918,
				"z": -3.9616423239,
				"element": "O" 
			},
			{
				"x": -0.9390677173,
				"y": 0.4267710256,
				"z": -1.5780357319,
				"element": "C" 
			},
			{
				"x": -2.2209514154,
				"y": 0.7969306526,
				"z": -0.7441341448,
				"element": "C" 
			},
			{
				"x": -2.0702857681,
				"y": 2.1643508024,
				"z": -0.0507096311,
				"element": "C" 
			},
			{
				"x": -0.7465210096,
				"y": 2.3562613039,
				"z": 0.4174808667,
				"element": "O" 
			},
			{
				"x": 0.1959242066,
				"y": 2.5122205097,
				"z": -0.6488777147,
				"element": "C" 
			},
			{
				"x": -0.1970325507,
				"y": 1.7409362264,
				"z": -1.9197837775,
				"element": "C" 
			},
			{
				"x": 0.0135886338,
				"y": -0.5487982253,
				"z": -0.8615945007,
				"element": "C" 
			},
			{
				"x": 0.0978109432,
				"y": -0.634329981,
				"z": 0.5338109026,
				"element": "C" 
			},
			{
				"x": 1.0037995652,
				"y": -1.5083781218,
				"z": 1.1410917122,
				"element": "C" 
			},
			{
				"x": 1.8482174502,
				"y": -2.309353651,
				"z": 0.3713920864,
				"element": "C" 
			},
			{
				"x": 1.7857798828,
				"y": -2.2199801863,
				"z": -1.0181953465,
				"element": "C" 
			},
			{
				"x": 0.8838460639,
				"y": -1.3477231669,
				"z": -1.6254909707,
				"element": "C" 
			},
			{
				"x": 1.1073086824,
				"y": -1.5360103626,
				"z": 2.6438208096,
				"element": "C" 
			},
			{
				"x": 1.979708933,
				"y": -0.6085808654,
				"z": 3.0994909703,
				"element": "F" 
			},
			{
				"x": 1.5369930894,
				"y": -2.735688623,
				"z": 3.0945901404,
				"element": "F" 
			},
			{
				"x": -0.0811866756,
				"y": -1.2816562408,
				"z": 3.2345734587,
				"element": "F" 
			},
			{
				"x": -1.8604614377,
				"y": -1.7797260877,
				"z": -1.8479322339,
				"element": "H" 
			},
			{
				"x": -2.424621171,
				"y": 0.0160270255,
				"z": -0.0053294274,
				"element": "H" 
			},
			{
				"x": -3.0944856419,
				"y": 0.8371716686,
				"z": -1.4045891133,
				"element": "H" 
			},
			{
				"x": -2.3639716933,
				"y": 2.9765631075,
				"z": -0.7335292419,
				"element": "H" 
			},
			{
				"x": -2.7217905473,
				"y": 2.224558077,
				"z": 0.8256135664,
				"element": "H" 
			},
			{
				"x": 0.313238157,
				"y": 3.580371577,
				"z": -0.8875302756,
				"element": "H" 
			},
			{
				"x": 1.1493471963,
				"y": 2.1512881727,
				"z": -0.251710124,
				"element": "H" 
			},
			{
				"x": 0.6958691212,
				"y": 1.5310695007,
				"z": -2.5158561264,
				"element": "H" 
			},
			{
				"x": -0.8544424834,
				"y": 2.3384173563,
				"z": -2.557117178,
				"element": "H" 
			},
			{
				"x": -0.5176022833,
				"y": 0.0020285249,
				"z": 1.1566548807,
				"element": "H" 
			},
			{
				"x": 2.5383003248,
				"y": -2.9927406053,
				"z": 0.8536667798,
				"element": "H" 
			},
			{
				"x": 2.437616815,
				"y": -2.8342619708,
				"z": -1.6316415268,
				"element": "H" 
			},
			{
				"x": 0.8541709255,
				"y": -1.2930789599,
				"z": -2.7106405449,
				"element": "H" 
			}
		],
		 "valence_orbital": [ 
			{
				"type": "occ",
				"energy": -0.31256,
				"method": "rhf"
			},
			{
				"type": "occ",
				"energy": -0.28149,
				"method": "rhf"
			},
			{
				"type": "occ",
				"energy": -0.27799,
				"method": "rhf"
			},
			{
				"type": "occ",
				"energy": -0.27081,
				"method": "rhf"
			},
			{
				"type": "occ",
				"energy": -0.25741,
				"method": "rhf"
			},
			{
				"type": "unocc",
				"energy": -0.04059,
				"method": "rhf"
			},
			{
				"type": "unocc",
				"energy": -0.03074,
				"method": "rhf"
			},
			{
				"type": "unocc",
				"energy": 0.00262,
				"method": "rhf"
			},
			{
				"type": "unocc",
				"energy": 0.06095,
				"method": "rhf"
			},
			{
				"type": "unocc",
				"energy": 0.07469,
				"method": "rhf"
			}
		],
		"cosmo_sigma_profile": { 
			"-0.025": 0.0,
			"-0.024": 0.0,
			"-0.023": 0.0,
			"-0.022": 0.0,
			"-0.021": 0.0,
			"-0.02": 0.0,
			"-0.019": 0.0,
			"-0.018": 0.0910953945176,
			"-0.017": 0.321695338397,
			"-0.016": 0.860351863209,
			"-0.015": 0.924475331162,
			"-0.014": 0.618880597478,
			"-0.013": 0.567916209687,
			"-0.012": 0.743418014469,
			"-0.011": 1.15601098472,
			"-0.01": 1.40929470897,
			"-0.009": 0.608105578361,
			"-0.008": 1.01286856724,
			"-0.007": 5.24479618819,
			"-0.006": 11.3661466928,
			"-0.005": 23.1686373029,
			"-0.004": 26.6566151541,
			"-0.003": 25.6930640402,
			"-0.002": 19.0528133386,
			"-0.001": 16.9307404118,
			"0.0": 15.5131701679,
			"0.001": 17.517586975,
			"0.002": 25.8709786493,
			"0.003": 37.3438472291,
			"0.004": 6.68580063543,
			"0.005": 3.25971524154,
			"0.006": 2.87456600354,
			"0.007": 3.68814754758,
			"0.008": 3.76965251917,
			"0.009": 3.59997282991,
			"0.01": 6.07506520881,
			"0.011": 6.45706062141,
			"0.012": 5.47918958849,
			"0.013": 1.86493689288,
			"0.014": 0.196754172109,
			"0.015": 0.0,
			"0.016": 0.0,
			"0.017": 0.0,
			"0.018": 0.0,
			"0.019": 0.0,
			"0.02": 0.0,
			"0.021": 0.0,
			"0.022": 0.0,
			"0.023": 0.0,
			"0.024": 0.0,
			"0.025": 0.0
		}
	}
}
