{
	 "smiles": "CC(C)NNC(=O)C1=CC=NC=C1", 
	 "Tm": 423.15, 
	 "num_atms": 26, 
	 "gaussian": { 
		 "optdone": 1, 
		 "sigma_profile": "yes", 
		 "theory": "DFT", 
		 "functional": "B3LYP", 
		 "basiset": "6-31G**", 
		 "properties": { 
			 "R2extent": 3112.4305, 
			 "electric_dipole_moment_norm": 4.85073166131, 
			 "electric_quadrupole_moment_norm": 12.2712625337, 
			 "total_energy": -590.250408837, 
			 "HOMO_LUMO_gap": 0.19706, 
			 "cosmo_polarized_energy": -13.99, 
			 "cosmo_cavitation_energy": 29.44, 
			 "cosmo_dispersion_energy": -20.47, 
			 "cosmo_repulsion_energy": 1.64, 
			 "cosmo_total_nonelectrostatic_energy": 10.61, 
			 "SMD_solvation_energy": 4.58 
		},
		"coords": [
			{
				"x": 1.7253433682,
				"y": -0.6432918861,
				"z": -1.4710136516,
				"element": "C" 
			},
			{
				"x": 0.6389039769,
				"y": -0.965701424,
				"z": -2.4973477711,
				"element": "C" 
			},
			{
				"x": 0.337854111,
				"y": -2.4643103873,
				"z": -2.5616867842,
				"element": "C" 
			},
			{
				"x": -0.6191400606,
				"y": -0.2685258663,
				"z": -2.1524243607,
				"element": "N" 
			},
			{
				"x": -0.5647019474,
				"y": 1.1209966762,
				"z": -2.3321600128,
				"element": "N" 
			},
			{
				"x": -0.4706722307,
				"y": 2.0487008309,
				"z": -1.3149433776,
				"element": "C" 
			},
			{
				"x": -0.0771221812,
				"y": 3.1802313658,
				"z": -1.578007603,
				"element": "O" 
			},
			{
				"x": -0.8920374259,
				"y": 1.6901040465,
				"z": 0.0857757344,
				"element": "C" 
			},
			{
				"x": -1.7942778511,
				"y": 0.6797343593,
				"z": 0.4373716157,
				"element": "C" 
			},
			{
				"x": -2.1355033324,
				"y": 0.5277641266,
				"z": 1.7825012271,
				"element": "C" 
			},
			{
				"x": -1.6453436158,
				"y": 1.2838952541,
				"z": 2.7719992761,
				"element": "N" 
			},
			{
				"x": -0.7869216508,
				"y": 2.2524508968,
				"z": 2.424073217,
				"element": "C" 
			},
			{
				"x": -0.3918100376,
				"y": 2.5008700436,
				"z": 1.111746557,
				"element": "C" 
			},
			{
				"x": 1.417853362,
				"y": -0.9721504726,
				"z": -0.4735005744,
				"element": "H" 
			},
			{
				"x": 1.9330349282,
				"y": 0.429615913,
				"z": -1.4298004943,
				"element": "H" 
			},
			{
				"x": 2.6575983005,
				"y": -1.1517964866,
				"z": -1.7357032567,
				"element": "H" 
			},
			{
				"x": 0.9908859714,
				"y": -0.6359283873,
				"z": -3.4934255553,
				"element": "H" 
			},
			{
				"x": -0.4299994001,
				"y": -2.689348385,
				"z": -3.3112984493,
				"element": "H" 
			},
			{
				"x": -0.0141186955,
				"y": -2.8268755988,
				"z": -1.5906586012,
				"element": "H" 
			},
			{
				"x": 1.2381005538,
				"y": -3.0225612578,
				"z": -2.8325099098,
				"element": "H" 
			},
			{
				"x": -1.3746843464,
				"y": -0.6268984972,
				"z": -2.7333727942,
				"element": "H" 
			},
			{
				"x": -0.182077533,
				"y": 1.4812286684,
				"z": -3.2063504962,
				"element": "H" 
			},
			{
				"x": -2.2161999642,
				"y": 0.0212149008,
				"z": -0.3089781484,
				"element": "H" 
			},
			{
				"x": -2.8406054121,
				"y": -0.2477645679,
				"z": 2.0773342858,
				"element": "H" 
			},
			{
				"x": -0.3998574242,
				"y": 2.8646750036,
				"z": 3.2366598045,
				"element": "H" 
			},
			{
				"x": 0.2850985368,
				"y": 3.3119711312,
				"z": 0.868720123,
				"element": "H" 
			}
		],
		 "valence_orbital": [ 
			{
				"type": "occ",
				"energy": -0.27389,
				"method": "rhf"
			},
			{
				"type": "occ",
				"energy": -0.26892,
				"method": "rhf"
			},
			{
				"type": "occ",
				"energy": -0.25981,
				"method": "rhf"
			},
			{
				"type": "occ",
				"energy": -0.25633,
				"method": "rhf"
			},
			{
				"type": "occ",
				"energy": -0.24695,
				"method": "rhf"
			},
			{
				"type": "unocc",
				"energy": -0.04989,
				"method": "rhf"
			},
			{
				"type": "unocc",
				"energy": -0.00761,
				"method": "rhf"
			},
			{
				"type": "unocc",
				"energy": 0.04987,
				"method": "rhf"
			},
			{
				"type": "unocc",
				"energy": 0.06039,
				"method": "rhf"
			},
			{
				"type": "unocc",
				"energy": 0.09272,
				"method": "rhf"
			}
		],
		"cosmo_sigma_profile": { 
			"-0.025": 0.0,
			"-0.024": 0.0,
			"-0.023": 0.0,
			"-0.022": 0.0,
			"-0.021": 0.0,
			"-0.02": 0.0,
			"-0.019": 0.0,
			"-0.018": 0.0,
			"-0.017": 0.0,
			"-0.016": 0.0,
			"-0.015": 0.0,
			"-0.014": 0.0,
			"-0.013": 0.311659045094,
			"-0.012": 1.56266324689,
			"-0.011": 2.44105068861,
			"-0.01": 3.02051404693,
			"-0.009": 2.55906482538,
			"-0.008": 2.83936945445,
			"-0.007": 5.05266531773,
			"-0.006": 9.98699745004,
			"-0.005": 10.7907738578,
			"-0.004": 12.8597021784,
			"-0.003": 22.4787736564,
			"-0.002": 22.1577489892,
			"-0.001": 21.57462886,
			"0.0": 23.0999055934,
			"0.001": 23.0743224411,
			"0.002": 18.3821031587,
			"0.003": 8.19130215721,
			"0.004": 5.53972433113,
			"0.005": 4.24975823748,
			"0.006": 3.41793540391,
			"0.007": 3.68873029277,
			"0.008": 3.71513121923,
			"0.009": 2.17306785355,
			"0.01": 2.40387605395,
			"0.011": 2.78174259982,
			"0.012": 3.11021661961,
			"0.013": 6.14759840462,
			"0.014": 2.52016614041,
			"0.015": 0.985983984628,
			"0.016": 0.632755914707,
			"0.017": 0.203436348778,
			"0.018": 0.0,
			"0.019": 0.0,
			"0.02": 0.0,
			"0.021": 0.0,
			"0.022": 0.0,
			"0.023": 0.0,
			"0.024": 0.0,
			"0.025": 0.0
		}
	}
}
