{
	 "smiles": "CC1=CC2=C(OCCN2)N=C1", 
	 "Tm": 383.15, 
	 "num_atms": 21, 
	 "gaussian": { 
		 "optdone": 1, 
		 "sigma_profile": "yes", 
		 "theory": "DFT", 
		 "functional": "B3LYP", 
		 "basiset": "6-31G**", 
		 "properties": { 
			 "R2extent": 1990.0357, 
			 "electric_dipole_moment_norm": 4.17514535915, 
			 "electric_quadrupole_moment_norm": 7.25354135854, 
			 "total_energy": -495.59951612, 
			 "HOMO_LUMO_gap": 0.18684, 
			 "cosmo_polarized_energy": -12.92, 
			 "cosmo_cavitation_energy": 23.63, 
			 "cosmo_dispersion_energy": -18.22, 
			 "cosmo_repulsion_energy": 1.46, 
			 "cosmo_total_nonelectrostatic_energy": 6.87, 
			 "SMD_solvation_energy": 1.59 
		},
		"coords": [
			{
				"x": 2.4955378515,
				"y": 2.8998630947,
				"z": -2.3357090231,
				"element": "C" 
			},
			{
				"x": 1.4533545725,
				"y": 2.0846814999,
				"z": -1.6113670326,
				"element": "C" 
			},
			{
				"x": 1.7411735889,
				"y": 0.8096496657,
				"z": -1.1041196883,
				"element": "C" 
			},
			{
				"x": 0.7619754855,
				"y": 0.0730620844,
				"z": -0.4405926416,
				"element": "C" 
			},
			{
				"x": -0.5179213812,
				"y": 0.6729073818,
				"z": -0.3207986247,
				"element": "C" 
			},
			{
				"x": -1.5439503634,
				"y": 0.0327557175,
				"z": 0.3261303565,
				"element": "O" 
			},
			{
				"x": -1.3655600991,
				"y": -1.3682021582,
				"z": 0.5354370978,
				"element": "C" 
			},
			{
				"x": 0.0311884665,
				"y": -1.6741082417,
				"z": 1.0650738186,
				"element": "C" 
			},
			{
				"x": 0.9868679049,
				"y": -1.2105745676,
				"z": 0.0696979909,
				"element": "N" 
			},
			{
				"x": -0.804748447,
				"y": 1.8728543487,
				"z": -0.7837374277,
				"element": "N" 
			},
			{
				"x": 0.1588698933,
				"y": 2.5639311585,
				"z": -1.4109015241,
				"element": "C" 
			},
			{
				"x": 2.0986483596,
				"y": 3.877389431,
				"z": -2.6237670359,
				"element": "H" 
			},
			{
				"x": 3.3804908704,
				"y": 3.070874275,
				"z": -1.7115363147,
				"element": "H" 
			},
			{
				"x": 2.8371506,
				"y": 2.3982105735,
				"z": -3.2489053542,
				"element": "H" 
			},
			{
				"x": 2.7369367786,
				"y": 0.3848251015,
				"z": -1.2208237286,
				"element": "H" 
			},
			{
				"x": -2.132771381,
				"y": -1.6634829743,
				"z": 1.2548304991,
				"element": "H" 
			},
			{
				"x": -1.5320011641,
				"y": -1.9102381284,
				"z": -0.4049090127,
				"element": "H" 
			},
			{
				"x": 0.1468902491,
				"y": -2.754145803,
				"z": 1.2051994401,
				"element": "H" 
			},
			{
				"x": 0.1578309198,
				"y": -1.1854636647,
				"z": 2.0449082181,
				"element": "H" 
			},
			{
				"x": 1.9565193968,
				"y": -1.4104406348,
				"z": 0.2784527751,
				"element": "H" 
			},
			{
				"x": -0.1214821015,
				"y": 3.5519518403,
				"z": -1.7723627879,
				"element": "H" 
			}
		],
		 "valence_orbital": [ 
			{
				"type": "occ",
				"energy": -0.31395,
				"method": "rhf"
			},
			{
				"type": "occ",
				"energy": -0.30624,
				"method": "rhf"
			},
			{
				"type": "occ",
				"energy": -0.24813,
				"method": "rhf"
			},
			{
				"type": "occ",
				"energy": -0.24204,
				"method": "rhf"
			},
			{
				"type": "occ",
				"energy": -0.19395,
				"method": "rhf"
			},
			{
				"type": "unocc",
				"energy": -0.00711,
				"method": "rhf"
			},
			{
				"type": "unocc",
				"energy": 0.01975,
				"method": "rhf"
			},
			{
				"type": "unocc",
				"energy": 0.07595,
				"method": "rhf"
			},
			{
				"type": "unocc",
				"energy": 0.10718,
				"method": "rhf"
			},
			{
				"type": "unocc",
				"energy": 0.11081,
				"method": "rhf"
			}
		],
		"cosmo_sigma_profile": { 
			"-0.025": 0.0,
			"-0.024": 0.0,
			"-0.023": 0.0,
			"-0.022": 0.0,
			"-0.021": 0.0,
			"-0.02": 0.0,
			"-0.019": 0.0,
			"-0.018": 0.0,
			"-0.017": 0.0,
			"-0.016": 0.0,
			"-0.015": 0.0,
			"-0.014": 0.0,
			"-0.013": 0.871815638869,
			"-0.012": 1.52479862947,
			"-0.011": 1.27437733711,
			"-0.01": 1.68799943239,
			"-0.009": 1.73569985028,
			"-0.008": 1.45370025554,
			"-0.007": 2.8203085422,
			"-0.006": 8.068270586,
			"-0.005": 14.0636012546,
			"-0.004": 21.4482532091,
			"-0.003": 18.6539263069,
			"-0.002": 16.7532719467,
			"-0.001": 12.6044207188,
			"0.0": 12.518114973,
			"0.001": 9.59832897534,
			"0.002": 8.04566067455,
			"0.003": 9.15559698362,
			"0.004": 11.0755924053,
			"0.005": 6.32830704541,
			"0.006": 3.37112695386,
			"0.007": 2.73142072229,
			"0.008": 2.53213512417,
			"0.009": 2.96796747487,
			"0.01": 2.34355710344,
			"0.011": 3.12912807148,
			"0.012": 2.05135389136,
			"0.013": 2.57504254929,
			"0.014": 1.83279360872,
			"0.015": 1.33584444803,
			"0.016": 1.34802260813,
			"0.017": 0.755677193743,
			"0.018": 0.00787500948031,
			"0.019": 0.0,
			"0.02": 0.0,
			"0.021": 0.0,
			"0.022": 0.0,
			"0.023": 0.0,
			"0.024": 0.0,
			"0.025": 0.0
		}
	}
}
