{
	 "smiles": "OC(=O)C1=CSC(CCC2=CC=CC=C2)=N1", 
	 "Tm": 406.15, 
	 "num_atms": 27, 
	 "gaussian": { 
		 "optdone": 1, 
		 "sigma_profile": "yes", 
		 "theory": "DFT", 
		 "functional": "B3LYP", 
		 "basiset": "6-31G**", 
		 "properties": { 
			 "R2extent": 5368.7889, 
			 "electric_dipole_moment_norm": 5.3982374392, 
			 "electric_quadrupole_moment_norm": 26.9656618363, 
			 "total_energy": -1067.29169404, 
			 "HOMO_LUMO_gap": 0.1857, 
			 "cosmo_polarized_energy": -20.68, 
			 "cosmo_cavitation_energy": 33.33, 
			 "cosmo_dispersion_energy": -23.65, 
			 "cosmo_repulsion_energy": 1.83, 
			 "cosmo_total_nonelectrostatic_energy": 11.51, 
			 "SMD_solvation_energy": 5.0 
		},
		"coords": [
			{
				"x": 2.6328130238,
				"y": 3.4669590988,
				"z": -3.2820054739,
				"element": "O" 
			},
			{
				"x": 2.8516350952,
				"y": 2.3688947555,
				"z": -2.5038176798,
				"element": "C" 
			},
			{
				"x": 3.8574539751,
				"y": 2.2664683555,
				"z": -1.8510871774,
				"element": "O" 
			},
			{
				"x": 1.7500499203,
				"y": 1.3555030231,
				"z": -2.5062064799,
				"element": "C" 
			},
			{
				"x": 0.4242134128,
				"y": 1.6205860513,
				"z": -2.7424687925,
				"element": "C" 
			},
			{
				"x": -0.5119459375,
				"y": 0.1814466457,
				"z": -2.5581791534,
				"element": "S" 
			},
			{
				"x": 0.980367132,
				"y": -0.6965875113,
				"z": -2.1756165292,
				"element": "C" 
			},
			{
				"x": 0.9827022896,
				"y": -2.1712887028,
				"z": -1.887961468,
				"element": "C" 
			},
			{
				"x": 0.0500171183,
				"y": -2.6184484612,
				"z": -0.744960175,
				"element": "C" 
			},
			{
				"x": 0.3024740266,
				"y": -2.0101171516,
				"z": 0.6252517763,
				"element": "C" 
			},
			{
				"x": -0.7411570339,
				"y": -1.9998774936,
				"z": 1.5629504569,
				"element": "C" 
			},
			{
				"x": -0.5496121441,
				"y": -1.4987758415,
				"z": 2.8494979873,
				"element": "C" 
			},
			{
				"x": 0.6958019135,
				"y": -0.9884979003,
				"z": 3.2226260921,
				"element": "C" 
			},
			{
				"x": 1.7394505141,
				"y": -0.9850859657,
				"z": 2.2979151421,
				"element": "C" 
			},
			{
				"x": 1.5458947941,
				"y": -1.4924060826,
				"z": 1.0104355176,
				"element": "C" 
			},
			{
				"x": 2.0433452923,
				"y": 0.0486131301,
				"z": -2.1840063154,
				"element": "N" 
			},
			{
				"x": 1.8910174064,
				"y": 3.3026190689,
				"z": -3.8810243726,
				"element": "H" 
			},
			{
				"x": -0.0515979639,
				"y": 2.5691693079,
				"z": -2.9513139124,
				"element": "H" 
			},
			{
				"x": 2.021284019,
				"y": -2.4412197799,
				"z": -1.6790371307,
				"element": "H" 
			},
			{
				"x": 0.6957650343,
				"y": -2.7159616656,
				"z": -2.7961808955,
				"element": "H" 
			},
			{
				"x": -0.9911094365,
				"y": -2.4225424612,
				"z": -1.0317323003,
				"element": "H" 
			},
			{
				"x": 0.1293269695,
				"y": -3.7120240865,
				"z": -0.6746109339,
				"element": "H" 
			},
			{
				"x": -1.7159156893,
				"y": -2.3910287788,
				"z": 1.2792432532,
				"element": "H" 
			},
			{
				"x": -1.3734737434,
				"y": -1.501178627,
				"z": 3.5578469824,
				"element": "H" 
			},
			{
				"x": 0.8480869135,
				"y": -0.5918987917,
				"z": 4.222269309,
				"element": "H" 
			},
			{
				"x": 2.7099553289,
				"y": -0.5815158461,
				"z": 2.5720293818,
				"element": "H" 
			},
			{
				"x": 2.3711577695,
				"y": -1.4616042892,
				"z": 0.3066428911,
				"element": "H" 
			}
		],
		 "valence_orbital": [ 
			{
				"type": "occ",
				"energy": -0.28777,
				"method": "rhf"
			},
			{
				"type": "occ",
				"energy": -0.27467,
				"method": "rhf"
			},
			{
				"type": "occ",
				"energy": -0.26164,
				"method": "rhf"
			},
			{
				"type": "occ",
				"energy": -0.24746,
				"method": "rhf"
			},
			{
				"type": "occ",
				"energy": -0.24159,
				"method": "rhf"
			},
			{
				"type": "unocc",
				"energy": -0.05589,
				"method": "rhf"
			},
			{
				"type": "unocc",
				"energy": -0.01436,
				"method": "rhf"
			},
			{
				"type": "unocc",
				"energy": -0.00079,
				"method": "rhf"
			},
			{
				"type": "unocc",
				"energy": 0.00078,
				"method": "rhf"
			},
			{
				"type": "unocc",
				"energy": 0.00226,
				"method": "rhf"
			}
		],
		"cosmo_sigma_profile": { 
			"-0.025": 0.0,
			"-0.024": 0.0,
			"-0.023": 0.0,
			"-0.022": 0.0,
			"-0.021": 0.0,
			"-0.02": 0.0,
			"-0.019": 0.259905995502,
			"-0.018": 0.839806415766,
			"-0.017": 1.47663993762,
			"-0.016": 1.3946402537,
			"-0.015": 0.981576556745,
			"-0.014": 0.864141687937,
			"-0.013": 0.939345929909,
			"-0.012": 1.90317333137,
			"-0.011": 2.47893877457,
			"-0.01": 2.03510502472,
			"-0.009": 1.83086866603,
			"-0.008": 2.73916770435,
			"-0.007": 2.50839941193,
			"-0.006": 10.4533259402,
			"-0.005": 20.8869466135,
			"-0.004": 24.102614774,
			"-0.003": 23.969267305,
			"-0.002": 18.2145592583,
			"-0.001": 19.1338989644,
			"0.0": 17.204423843,
			"0.001": 17.3437064958,
			"0.002": 14.6996369855,
			"0.003": 11.903020252,
			"0.004": 11.5586256227,
			"0.005": 11.5038338364,
			"0.006": 10.9271960098,
			"0.007": 5.41613922249,
			"0.008": 3.48086000617,
			"0.009": 4.3767565522,
			"0.01": 6.18739637558,
			"0.011": 6.25816675082,
			"0.012": 5.6050838147,
			"0.013": 2.60005259253,
			"0.014": 1.8117996226,
			"0.015": 0.410092248236,
			"0.016": 0.0,
			"0.017": 0.0,
			"0.018": 0.0,
			"0.019": 0.0,
			"0.02": 0.0,
			"0.021": 0.0,
			"0.022": 0.0,
			"0.023": 0.0,
			"0.024": 0.0,
			"0.025": 0.0
		}
	}
}
