{
	 "smiles": "CC1=NN(C(=O)OC(C)(C)C)C(C)=C1C=O", 
	 "Tm": 333.65, 
	 "num_atms": 32, 
	 "gaussian": { 
		 "optdone": 1, 
		 "sigma_profile": "yes", 
		 "theory": "DFT", 
		 "functional": "B3LYP", 
		 "basiset": "6-31G**", 
		 "properties": { 
			 "R2extent": 5250.8061, 
			 "electric_dipole_moment_norm": 5.88438009479, 
			 "electric_quadrupole_moment_norm": 10.5598493488, 
			 "total_energy": -763.998177298, 
			 "HOMO_LUMO_gap": 0.1949, 
			 "cosmo_polarized_energy": -15.66, 
			 "cosmo_cavitation_energy": 35.16, 
			 "cosmo_dispersion_energy": -24.11, 
			 "cosmo_repulsion_energy": 1.86, 
			 "cosmo_total_nonelectrostatic_energy": 12.91, 
			 "SMD_solvation_energy": 7.51 
		},
		"coords": [
			{
				"x": 3.6931716544,
				"y": 3.8457814456,
				"z": -0.0634265839,
				"element": "C" 
			},
			{
				"x": 2.6741433657,
				"y": 2.8237775143,
				"z": 0.3236108367,
				"element": "C" 
			},
			{
				"x": 1.9341768993,
				"y": 2.2289655768,
				"z": -0.584627964,
				"element": "N" 
			},
			{
				"x": 1.117822572,
				"y": 1.3619538258,
				"z": 0.1129098212,
				"element": "N" 
			},
			{
				"x": 0.2087970003,
				"y": 0.5894501133,
				"z": -0.6693599609,
				"element": "C" 
			},
			{
				"x": 0.1490511537,
				"y": 0.6842523698,
				"z": -1.8685972871,
				"element": "O" 
			},
			{
				"x": -0.514328158,
				"y": -0.2066133702,
				"z": 0.1271449916,
				"element": "O" 
			},
			{
				"x": -1.5380696038,
				"y": -1.1167621996,
				"z": -0.4508371497,
				"element": "C" 
			},
			{
				"x": -2.6209775498,
				"y": -0.2931516594,
				"z": -1.152541478,
				"element": "C" 
			},
			{
				"x": -0.8626005162,
				"y": -2.1223452695,
				"z": -1.3866885926,
				"element": "C" 
			},
			{
				"x": -2.0980903438,
				"y": -1.813956064,
				"z": 0.7901178947,
				"element": "C" 
			},
			{
				"x": 1.3444714645,
				"y": 1.4100137626,
				"z": 1.4739025106,
				"element": "C" 
			},
			{
				"x": 0.6307725843,
				"y": 0.6002863189,
				"z": 2.5085699553,
				"element": "C" 
			},
			{
				"x": 2.3512563532,
				"y": 2.3513992754,
				"z": 1.6444118034,
				"element": "C" 
			},
			{
				"x": 2.9597880764,
				"y": 2.7776833756,
				"z": 2.8984100543,
				"element": "C" 
			},
			{
				"x": 3.8453797012,
				"y": 3.6144393361,
				"z": 2.985126472,
				"element": "O" 
			},
			{
				"x": 3.6889539901,
				"y": 3.9759192147,
				"z": -1.1473798292,
				"element": "H" 
			},
			{
				"x": 4.6914378552,
				"y": 3.5429853525,
				"z": 0.265916956,
				"element": "H" 
			},
			{
				"x": 3.4860645279,
				"y": 4.803998684,
				"z": 0.4219793725,
				"element": "H" 
			},
			{
				"x": -3.0420379907,
				"y": 0.4484753172,
				"z": -0.4666555358,
				"element": "H" 
			},
			{
				"x": -2.224608992,
				"y": 0.218580692,
				"z": -2.029625501,
				"element": "H" 
			},
			{
				"x": -3.4302049938,
				"y": -0.958165193,
				"z": -1.4701779934,
				"element": "H" 
			},
			{
				"x": -1.6004257026,
				"y": -2.861487842,
				"z": -1.7142010326,
				"element": "H" 
			},
			{
				"x": -0.0611393218,
				"y": -2.6531341942,
				"z": -0.8635532813,
				"element": "H" 
			},
			{
				"x": -0.4476053425,
				"y": -1.629565073,
				"z": -2.2660016111,
				"element": "H" 
			},
			{
				"x": -2.5389189442,
				"y": -1.0886409426,
				"z": 1.48005968,
				"element": "H" 
			},
			{
				"x": -1.3128928265,
				"y": -2.3639531578,
				"z": 1.3168079637,
				"element": "H" 
			},
			{
				"x": -2.8759501565,
				"y": -2.5240515257,
				"z": 0.4953831302,
				"element": "H" 
			},
			{
				"x": -0.4448174253,
				"y": 0.7936346261,
				"z": 2.4951152506,
				"element": "H" 
			},
			{
				"x": 0.7652497711,
				"y": -0.4711621391,
				"z": 2.3402116779,
				"element": "H" 
			},
			{
				"x": 1.0166108572,
				"y": 0.8482408765,
				"z": 3.4985442439,
				"element": "H" 
			},
			{
				"x": 2.5654200408,
				"y": 2.2883509527,
				"z": 3.815351186,
				"element": "H" 
			}
		],
		 "valence_orbital": [ 
			{
				"type": "occ",
				"energy": -0.30031,
				"method": "rhf"
			},
			{
				"type": "occ",
				"energy": -0.28732,
				"method": "rhf"
			},
			{
				"type": "occ",
				"energy": -0.26518,
				"method": "rhf"
			},
			{
				"type": "occ",
				"energy": -0.25794,
				"method": "rhf"
			},
			{
				"type": "occ",
				"energy": -0.24926,
				"method": "rhf"
			},
			{
				"type": "unocc",
				"energy": -0.05436,
				"method": "rhf"
			},
			{
				"type": "unocc",
				"energy": -0.01179,
				"method": "rhf"
			},
			{
				"type": "unocc",
				"energy": 0.05416,
				"method": "rhf"
			},
			{
				"type": "unocc",
				"energy": 0.06266,
				"method": "rhf"
			},
			{
				"type": "unocc",
				"energy": 0.07631,
				"method": "rhf"
			}
		],
		"cosmo_sigma_profile": { 
			"-0.025": 0.0,
			"-0.024": 0.0,
			"-0.023": 0.0,
			"-0.022": 0.0,
			"-0.021": 0.0,
			"-0.02": 0.0,
			"-0.019": 0.0,
			"-0.018": 0.0,
			"-0.017": 0.0,
			"-0.016": 0.0,
			"-0.015": 0.0,
			"-0.014": 0.0,
			"-0.013": 0.0,
			"-0.012": 0.0,
			"-0.011": 0.0,
			"-0.01": 0.0,
			"-0.009": 0.174300031033,
			"-0.008": 2.381976022,
			"-0.007": 3.30409603648,
			"-0.006": 4.23243045812,
			"-0.005": 17.6563388533,
			"-0.004": 30.9902758789,
			"-0.003": 33.1243801623,
			"-0.002": 34.9001422969,
			"-0.001": 37.5081224194,
			"0.0": 39.0832594452,
			"0.001": 13.9300928518,
			"0.002": 5.70200377644,
			"0.003": 5.5840796274,
			"0.004": 4.13351946466,
			"0.005": 3.91444611974,
			"0.006": 4.45234642136,
			"0.007": 3.38207128601,
			"0.008": 4.32247986434,
			"0.009": 3.64311883323,
			"0.01": 5.21447633929,
			"0.011": 5.85705431686,
			"0.012": 5.48799923255,
			"0.013": 3.22959487535,
			"0.014": 1.40492811173,
			"0.015": 1.27251495752,
			"0.016": 1.16633041115,
			"0.017": 0.712040878974,
			"0.018": 0.0109487399738,
			"0.019": 0.0,
			"0.02": 0.0,
			"0.021": 0.0,
			"0.022": 0.0,
			"0.023": 0.0,
			"0.024": 0.0,
			"0.025": 0.0
		}
	}
}
