{
	 "smiles": "CC1(C)NC(C)(C)C(=C1)C(N)=O", 
	 "Tm": 454.15, 
	 "num_atms": 28, 
	 "gaussian": { 
		 "optdone": 1, 
		 "sigma_profile": "yes", 
		 "theory": "DFT", 
		 "functional": "B3LYP", 
		 "basiset": "6-31G**", 
		 "properties": { 
			 "R2extent": 2260.4048, 
			 "electric_dipole_moment_norm": 3.1479877144, 
			 "electric_quadrupole_moment_norm": 15.952930858, 
			 "total_energy": -537.334676866, 
			 "HOMO_LUMO_gap": 0.18986, 
			 "cosmo_polarized_energy": -13.89, 
			 "cosmo_cavitation_energy": 29.08, 
			 "cosmo_dispersion_energy": -20.25, 
			 "cosmo_repulsion_energy": 1.62, 
			 "cosmo_total_nonelectrostatic_energy": 10.45, 
			 "SMD_solvation_energy": 4.82 
		},
		"coords": [
			{
				"x": 2.3556372134,
				"y": 0.0836004481,
				"z": -0.6174308916,
				"element": "C" 
			},
			{
				"x": 1.0187231498,
				"y": -0.6242269212,
				"z": -0.9320989325,
				"element": "C" 
			},
			{
				"x": 1.2513884135,
				"y": -1.7234425101,
				"z": -1.9899935211,
				"element": "C" 
			},
			{
				"x": -0.0247074875,
				"y": 0.3201966396,
				"z": -1.3996575274,
				"element": "N" 
			},
			{
				"x": -1.1004626912,
				"y": 0.5049448634,
				"z": -0.3895006419,
				"element": "C" 
			},
			{
				"x": -2.4534190795,
				"y": 0.2843530272,
				"z": -1.1050609648,
				"element": "C" 
			},
			{
				"x": -1.053905074,
				"y": 1.9187641849,
				"z": 0.2325332605,
				"element": "C" 
			},
			{
				"x": -0.7571459266,
				"y": -0.5826729678,
				"z": 0.6354436305,
				"element": "C" 
			},
			{
				"x": 0.3969797507,
				"y": -1.180357006,
				"z": 0.3199037812,
				"element": "C" 
			},
			{
				"x": -1.4941274824,
				"y": -0.9833253572,
				"z": 1.8759145342,
				"element": "C" 
			},
			{
				"x": -2.6688134908,
				"y": -0.3274738311,
				"z": 2.1511296339,
				"element": "N" 
			},
			{
				"x": -1.0528769868,
				"y": -1.8362689782,
				"z": 2.6393652994,
				"element": "O" 
			},
			{
				"x": 3.1060772139,
				"y": -0.6279708394,
				"z": -0.2574367908,
				"element": "H" 
			},
			{
				"x": 2.7564110058,
				"y": 0.5562590881,
				"z": -1.5223615816,
				"element": "H" 
			},
			{
				"x": 2.2233472021,
				"y": 0.8540363225,
				"z": 0.1482590547,
				"element": "H" 
			},
			{
				"x": 1.642294416,
				"y": -1.2810337026,
				"z": -2.9124982911,
				"element": "H" 
			},
			{
				"x": 0.3099265671,
				"y": -2.2248754796,
				"z": -2.2277577799,
				"element": "H" 
			},
			{
				"x": 1.9703711817,
				"y": -2.4717626491,
				"z": -1.6376234259,
				"element": "H" 
			},
			{
				"x": 0.3713029099,
				"y": 1.209455732,
				"z": -1.6845315447,
				"element": "H" 
			},
			{
				"x": -2.5279303602,
				"y": 0.97382005,
				"z": -1.9517342816,
				"element": "H" 
			},
			{
				"x": -2.5145184765,
				"y": -0.7345749072,
				"z": -1.4950337057,
				"element": "H" 
			},
			{
				"x": -3.326324232,
				"y": 0.4650636058,
				"z": -0.4655833368,
				"element": "H" 
			},
			{
				"x": -0.085993315,
				"y": 2.0992716886,
				"z": 0.7095168214,
				"element": "H" 
			},
			{
				"x": -1.2069140036,
				"y": 2.6788957892,
				"z": -0.5430554487,
				"element": "H" 
			},
			{
				"x": -1.8289612652,
				"y": 2.0607336905,
				"z": 0.9918906074,
				"element": "H" 
			},
			{
				"x": 0.8431100251,
				"y": -1.9736626349,
				"z": 0.9097993357,
				"element": "H" 
			},
			{
				"x": -3.1594968383,
				"y": 0.2004161743,
				"z": 1.4488862293,
				"element": "H" 
			},
			{
				"x": -3.2003723395,
				"y": -0.6862635196,
				"z": 2.9307164778,
				"element": "H" 
			}
		],
		 "valence_orbital": [ 
			{
				"type": "occ",
				"energy": -0.32909,
				"method": "rhf"
			},
			{
				"type": "occ",
				"energy": -0.26725,
				"method": "rhf"
			},
			{
				"type": "occ",
				"energy": -0.25213,
				"method": "rhf"
			},
			{
				"type": "occ",
				"energy": -0.2454,
				"method": "rhf"
			},
			{
				"type": "occ",
				"energy": -0.21512,
				"method": "rhf"
			},
			{
				"type": "unocc",
				"energy": -0.02526,
				"method": "rhf"
			},
			{
				"type": "unocc",
				"energy": 0.05916,
				"method": "rhf"
			},
			{
				"type": "unocc",
				"energy": 0.08471,
				"method": "rhf"
			},
			{
				"type": "unocc",
				"energy": 0.09513,
				"method": "rhf"
			},
			{
				"type": "unocc",
				"energy": 0.11012,
				"method": "rhf"
			}
		],
		"cosmo_sigma_profile": { 
			"-0.025": 0.0,
			"-0.024": 0.0,
			"-0.023": 0.0,
			"-0.022": 0.0,
			"-0.021": 0.0,
			"-0.02": 0.0,
			"-0.019": 0.0,
			"-0.018": 0.0,
			"-0.017": 0.0,
			"-0.016": 0.0,
			"-0.015": 0.0,
			"-0.014": 0.413666725226,
			"-0.013": 1.84593436592,
			"-0.012": 2.29201572313,
			"-0.011": 2.21233082621,
			"-0.01": 2.45425422295,
			"-0.009": 3.15898406146,
			"-0.008": 2.70178340748,
			"-0.007": 3.4521252371,
			"-0.006": 3.62718369848,
			"-0.005": 5.87030808794,
			"-0.004": 10.4228221408,
			"-0.003": 27.1135937869,
			"-0.002": 24.0588699117,
			"-0.001": 25.4207197182,
			"0.0": 27.8401480487,
			"0.001": 27.2391690242,
			"0.002": 11.4603184763,
			"0.003": 5.35785199626,
			"0.004": 5.12253613072,
			"0.005": 3.8783720988,
			"0.006": 3.3851297893,
			"0.007": 2.87614672473,
			"0.008": 2.41950912417,
			"0.009": 2.10594199543,
			"0.01": 2.43796369471,
			"0.011": 2.21812395971,
			"0.012": 2.06872205418,
			"0.013": 3.2784070933,
			"0.014": 6.80991375714,
			"0.015": 1.64692554061,
			"0.016": 0.43534820235,
			"0.017": 0.005712173813,
			"0.018": 0.0,
			"0.019": 0.0,
			"0.02": 0.0,
			"0.021": 0.0,
			"0.022": 0.0,
			"0.023": 0.0,
			"0.024": 0.0,
			"0.025": 0.0
		}
	}
}
