{
	 "smiles": "CC(=O)C1=CN(C=C1)S(=O)(=O)C1=CC=CC=C1", 
	 "Tm": 363.65, 
	 "num_atms": 28, 
	 "gaussian": { 
		 "optdone": 1, 
		 "sigma_profile": "yes", 
		 "theory": "DFT", 
		 "functional": "B3LYP", 
		 "basiset": "6-31G**", 
		 "properties": { 
			 "R2extent": 5280.5162, 
			 "electric_dipole_moment_norm": 5.4755212245, 
			 "electric_quadrupole_moment_norm": 23.3303114246, 
			 "total_energy": -1142.42988344, 
			 "HOMO_LUMO_gap": 0.17791, 
			 "cosmo_polarized_energy": -16.14, 
			 "cosmo_cavitation_energy": 34.62, 
			 "cosmo_dispersion_energy": -24.41, 
			 "cosmo_repulsion_energy": 1.85, 
			 "cosmo_total_nonelectrostatic_energy": 12.06, 
			 "SMD_solvation_energy": 6.47 
		},
		"coords": [
			{
				"x": 0.8326354142,
				"y": -1.1584373865,
				"z": 3.7959112437,
				"element": "C" 
			},
			{
				"x": -0.6281620971,
				"y": -0.8809321015,
				"z": 3.4790794403,
				"element": "C" 
			},
			{
				"x": -1.5286742369,
				"y": -1.4312636705,
				"z": 4.09690948,
				"element": "O" 
			},
			{
				"x": -0.9348866742,
				"y": 0.0780908858,
				"z": 2.3981722494,
				"element": "C" 
			},
			{
				"x": -0.0444689873,
				"y": 0.7666594821,
				"z": 1.5981151581,
				"element": "C" 
			},
			{
				"x": -0.782856726,
				"y": 1.5659886042,
				"z": 0.749003228,
				"element": "N" 
			},
			{
				"x": -2.1465869245,
				"y": 1.3774781431,
				"z": 0.9905083268,
				"element": "C" 
			},
			{
				"x": -2.2605265505,
				"y": 0.4710589499,
				"z": 2.0041551053,
				"element": "C" 
			},
			{
				"x": -0.1246810249,
				"y": 2.5079798389,
				"z": -0.5371412239,
				"element": "S" 
			},
			{
				"x": -1.1066181008,
				"y": 3.5581374275,
				"z": -0.7849468538,
				"element": "O" 
			},
			{
				"x": 1.2557199627,
				"y": 2.7743281881,
				"z": -0.1442338985,
				"element": "O" 
			},
			{
				"x": -0.1192546707,
				"y": 1.3865864307,
				"z": -1.9321474791,
				"element": "C" 
			},
			{
				"x": -1.2402016018,
				"y": 1.3329660205,
				"z": -2.7635386265,
				"element": "C" 
			},
			{
				"x": -1.2297692515,
				"y": 0.4530170592,
				"z": -3.8453239457,
				"element": "C" 
			},
			{
				"x": -0.1129539385,
				"y": -0.3515782654,
				"z": -4.084396288,
				"element": "C" 
			},
			{
				"x": 1.0045047218,
				"y": -0.2772217682,
				"z": -3.2490827713,
				"element": "C" 
			},
			{
				"x": 1.0096026139,
				"y": 0.5972237157,
				"z": -2.1628839619,
				"element": "C" 
			},
			{
				"x": 0.8895771963,
				"y": -1.8953635839,
				"z": 4.5976758474,
				"element": "H" 
			},
			{
				"x": 1.3578312603,
				"y": -1.5392307201,
				"z": 2.9127547839,
				"element": "H" 
			},
			{
				"x": 1.3415690914,
				"y": -0.2398554203,
				"z": 4.1089205441,
				"element": "H" 
			},
			{
				"x": 1.0334534446,
				"y": 0.7889725394,
				"z": 1.5691910557,
				"element": "H" 
			},
			{
				"x": -2.8794477082,
				"y": 1.9402729552,
				"z": 0.4345449718,
				"element": "H" 
			},
			{
				"x": -3.1733378472,
				"y": 0.1136928981,
				"z": 2.4573540467,
				"element": "H" 
			},
			{
				"x": -2.08904929,
				"y": 1.9803839305,
				"z": -2.574072423,
				"element": "H" 
			},
			{
				"x": -2.091101408,
				"y": 0.4008513192,
				"z": -4.5038407824,
				"element": "H" 
			},
			{
				"x": -0.1105144163,
				"y": -1.0338150105,
				"z": -4.929154869,
				"element": "H" 
			},
			{
				"x": 1.8750781688,
				"y": -0.8950338322,
				"z": -3.4458687114,
				"element": "H" 
			},
			{
				"x": 1.8749195807,
				"y": 0.6843433709,
				"z": -1.5153636469,
				"element": "H" 
			}
		],
		 "valence_orbital": [ 
			{
				"type": "occ",
				"energy": -0.29519,
				"method": "rhf"
			},
			{
				"type": "occ",
				"energy": -0.28644,
				"method": "rhf"
			},
			{
				"type": "occ",
				"energy": -0.26407,
				"method": "rhf"
			},
			{
				"type": "occ",
				"energy": -0.24377,
				"method": "rhf"
			},
			{
				"type": "occ",
				"energy": -0.24,
				"method": "rhf"
			},
			{
				"type": "unocc",
				"energy": -0.06209,
				"method": "rhf"
			},
			{
				"type": "unocc",
				"energy": -0.0382,
				"method": "rhf"
			},
			{
				"type": "unocc",
				"energy": -0.03364,
				"method": "rhf"
			},
			{
				"type": "unocc",
				"energy": 0.01383,
				"method": "rhf"
			},
			{
				"type": "unocc",
				"energy": 0.03369,
				"method": "rhf"
			}
		],
		"cosmo_sigma_profile": { 
			"-0.025": 0.0,
			"-0.024": 0.0,
			"-0.023": 0.0,
			"-0.022": 0.0,
			"-0.021": 0.0,
			"-0.02": 0.0,
			"-0.019": 0.0,
			"-0.018": 0.0,
			"-0.017": 0.0,
			"-0.016": 0.0,
			"-0.015": 0.0,
			"-0.014": 0.0,
			"-0.013": 0.0,
			"-0.012": 0.0,
			"-0.011": 0.0,
			"-0.01": 0.0,
			"-0.009": 1.59651844126,
			"-0.008": 4.17810891021,
			"-0.007": 17.0954511664,
			"-0.006": 22.0475764571,
			"-0.005": 19.5961809844,
			"-0.004": 19.0044551655,
			"-0.003": 15.9698869457,
			"-0.002": 18.5993764149,
			"-0.001": 20.3714820211,
			"0.0": 20.8643122455,
			"0.001": 20.5037240032,
			"0.002": 23.1964320837,
			"0.003": 16.2026492569,
			"0.004": 9.97412843423,
			"0.005": 5.85866417586,
			"0.006": 4.45703760503,
			"0.007": 4.79033615886,
			"0.008": 6.28563297108,
			"0.009": 9.1312357736,
			"0.01": 7.71328559928,
			"0.011": 2.95611469176,
			"0.012": 4.17542352414,
			"0.013": 2.78120355956,
			"0.014": 0.567538255623,
			"0.015": 0.0,
			"0.016": 0.0,
			"0.017": 0.0,
			"0.018": 0.0,
			"0.019": 0.0,
			"0.02": 0.0,
			"0.021": 0.0,
			"0.022": 0.0,
			"0.023": 0.0,
			"0.024": 0.0,
			"0.025": 0.0
		}
	}
}
