{
	 "smiles": "NC1=C(C=CC(F)=C1)N1CC(OC1=O)C(F)(F)F", 
	 "Tm": 393.15, 
	 "num_atms": 26, 
	 "gaussian": { 
		 "optdone": 1, 
		 "sigma_profile": "yes", 
		 "theory": "DFT", 
		 "functional": "B3LYP", 
		 "basiset": "6-31G**", 
		 "properties": { 
			 "R2extent": 5316.2799, 
			 "electric_dipole_moment_norm": 3.95551100744, 
			 "electric_quadrupole_moment_norm": 14.5397177204, 
			 "total_energy": -1045.2132941, 
			 "HOMO_LUMO_gap": 0.20718, 
			 "cosmo_polarized_energy": -16.2, 
			 "cosmo_cavitation_energy": 31.73, 
			 "cosmo_dispersion_energy": -22.23, 
			 "cosmo_repulsion_energy": 1.63, 
			 "cosmo_total_nonelectrostatic_energy": 11.12, 
			 "SMD_solvation_energy": 8.08 
		},
		"coords": [
			{
				"x": 0.7960139491,
				"y": 2.8699103513,
				"z": -0.2497090407,
				"element": "N" 
			},
			{
				"x": 1.342002511,
				"y": 1.9417202911,
				"z": 0.6311007815,
				"element": "C" 
			},
			{
				"x": 0.8904252319,
				"y": 0.601548407,
				"z": 0.6194356601,
				"element": "C" 
			},
			{
				"x": 1.4245671218,
				"y": -0.3336115965,
				"z": 1.5070696652,
				"element": "C" 
			},
			{
				"x": 2.3988621171,
				"y": 0.0304223497,
				"z": 2.4336068395,
				"element": "C" 
			},
			{
				"x": 2.8070206221,
				"y": 1.360115553,
				"z": 2.4530314115,
				"element": "C" 
			},
			{
				"x": 3.7392772614,
				"y": 1.7430595036,
				"z": 3.3492567391,
				"element": "F" 
			},
			{
				"x": 2.304500131,
				"y": 2.3153486302,
				"z": 1.5814702952,
				"element": "C" 
			},
			{
				"x": -0.1265737842,
				"y": 0.2437059986,
				"z": -0.3119519086,
				"element": "N" 
			},
			{
				"x": -1.5124499794,
				"y": 0.6793948557,
				"z": -0.1709973397,
				"element": "C" 
			},
			{
				"x": -2.1200451161,
				"y": 0.093820758,
				"z": -1.4577640972,
				"element": "C" 
			},
			{
				"x": -1.2327209341,
				"y": -0.9471367225,
				"z": -1.854122899,
				"element": "O" 
			},
			{
				"x": -0.0119138148,
				"y": -0.7958229454,
				"z": -1.2126706535,
				"element": "C" 
			},
			{
				"x": 0.9381787699,
				"y": -1.492620505,
				"z": -1.4513416794,
				"element": "O" 
			},
			{
				"x": -2.2211435283,
				"y": 1.1250524179,
				"z": -2.5809679532,
				"element": "C" 
			},
			{
				"x": -3.0684699003,
				"y": 2.1114015406,
				"z": -2.2157590555,
				"element": "F" 
			},
			{
				"x": -1.0206071549,
				"y": 1.6947340875,
				"z": -2.8485248978,
				"element": "F" 
			},
			{
				"x": -2.6756333786,
				"y": 0.5778618293,
				"z": -3.7145410977,
				"element": "F" 
			},
			{
				"x": 1.3384167769,
				"y": 3.7140019047,
				"z": -0.3704666129,
				"element": "H" 
			},
			{
				"x": 0.4832167356,
				"y": 2.4833323868,
				"z": -1.1317712647,
				"element": "H" 
			},
			{
				"x": 1.0786115632,
				"y": -1.360279363,
				"z": 1.4541404123,
				"element": "H" 
			},
			{
				"x": 2.8299156494,
				"y": -0.6827342087,
				"z": 3.125787126,
				"element": "H" 
			},
			{
				"x": 2.6742009925,
				"y": 3.334097538,
				"z": 1.6348499343,
				"element": "H" 
			},
			{
				"x": -1.5934905994,
				"y": 1.7680170815,
				"z": -0.118839148,
				"element": "H" 
			},
			{
				"x": -1.9782105924,
				"y": 0.2508737102,
				"z": 0.7253590433,
				"element": "H" 
			},
			{
				"x": -3.1185506503,
				"y": -0.3241138535,
				"z": -1.3097802598,
				"element": "H" 
			}
		],
		 "valence_orbital": [ 
			{
				"type": "occ",
				"energy": -0.31339,
				"method": "rhf"
			},
			{
				"type": "occ",
				"energy": -0.29077,
				"method": "rhf"
			},
			{
				"type": "occ",
				"energy": -0.28004,
				"method": "rhf"
			},
			{
				"type": "occ",
				"energy": -0.24718,
				"method": "rhf"
			},
			{
				"type": "occ",
				"energy": -0.22023,
				"method": "rhf"
			},
			{
				"type": "unocc",
				"energy": -0.01305,
				"method": "rhf"
			},
			{
				"type": "unocc",
				"energy": -6e-05,
				"method": "rhf"
			},
			{
				"type": "unocc",
				"energy": 0.03662,
				"method": "rhf"
			},
			{
				"type": "unocc",
				"energy": 0.0582,
				"method": "rhf"
			},
			{
				"type": "unocc",
				"energy": 0.07945,
				"method": "rhf"
			}
		],
		"cosmo_sigma_profile": { 
			"-0.025": 0.0,
			"-0.024": 0.0,
			"-0.023": 0.0,
			"-0.022": 0.0,
			"-0.021": 0.0,
			"-0.02": 0.0,
			"-0.019": 0.0,
			"-0.018": 0.0,
			"-0.017": 0.0,
			"-0.016": 0.0,
			"-0.015": 0.0,
			"-0.014": 0.173782470428,
			"-0.013": 1.31822330212,
			"-0.012": 1.58069780603,
			"-0.011": 2.82200754651,
			"-0.01": 4.8718055612,
			"-0.009": 5.33273199877,
			"-0.008": 7.34055540314,
			"-0.007": 11.5084610619,
			"-0.006": 14.6782010392,
			"-0.005": 13.2168859212,
			"-0.004": 11.0482208855,
			"-0.003": 8.60832192387,
			"-0.002": 10.5583628184,
			"-0.001": 11.2592867557,
			"0.0": 13.4109710574,
			"0.001": 21.8320698432,
			"0.002": 35.9989481751,
			"0.003": 20.5509119005,
			"0.004": 18.2037967374,
			"0.005": 9.2670164322,
			"0.006": 4.14151416837,
			"0.007": 2.55965379373,
			"0.008": 4.81397488849,
			"0.009": 4.2697394027,
			"0.01": 2.88658859804,
			"0.011": 4.30646090504,
			"0.012": 6.16127445638,
			"0.013": 1.03983808142,
			"0.014": 0.0,
			"0.015": 0.0,
			"0.016": 0.0,
			"0.017": 0.0,
			"0.018": 0.0,
			"0.019": 0.0,
			"0.02": 0.0,
			"0.021": 0.0,
			"0.022": 0.0,
			"0.023": 0.0,
			"0.024": 0.0,
			"0.025": 0.0
		}
	}
}
