{
	 "smiles": "CC12CCC3C(CCC4CCCCC34C)C1CC[C@@]2(O)C#CCl", 
	 "Tm": 436.15, 
	 "num_atms": 54, 
	 "gaussian": { 
		 "optdone": 1, 
		 "sigma_profile": "yes", 
		 "theory": "DFT", 
		 "functional": "B3LYP", 
		 "basiset": "6-31G**", 
		 "properties": { 
			 "R2extent": 9689.5812, 
			 "electric_dipole_moment_norm": 1.14268447526, 
			 "electric_quadrupole_moment_norm": 4.5456505365, 
			 "total_energy": -1354.24845871, 
			 "HOMO_LUMO_gap": 0.28085, 
			 "cosmo_polarized_energy": -5.71, 
			 "cosmo_cavitation_energy": 47.39, 
			 "cosmo_dispersion_energy": -33.24, 
			 "cosmo_repulsion_energy": 2.48, 
			 "cosmo_total_nonelectrostatic_energy": 16.62, 
			 "SMD_solvation_energy": 6.82 
		},
		"coords": [
			{
				"x": -3.4578309736,
				"y": 0.7983510252,
				"z": 0.5689234591,
				"element": "C" 
			},
			{
				"x": -2.1805082807,
				"y": 0.231454148,
				"z": -0.0761558218,
				"element": "C" 
			},
			{
				"x": -1.3214442598,
				"y": 1.3975435667,
				"z": -0.618935115,
				"element": "C" 
			},
			{
				"x": 0.1908395417,
				"y": 1.1497896587,
				"z": -0.5265514447,
				"element": "C" 
			},
			{
				"x": 0.5966508811,
				"y": 1.1479835346,
				"z": 0.9599981267,
				"element": "C" 
			},
			{
				"x": -0.2619855048,
				"y": 0.1021818163,
				"z": 1.7790172718,
				"element": "C" 
			},
			{
				"x": 0.6000823181,
				"y": -0.9231760921,
				"z": 2.5529776093,
				"element": "C" 
			},
			{
				"x": 1.8269751166,
				"y": -1.357798935,
				"z": 1.7511732853,
				"element": "C" 
			},
			{
				"x": 2.8315708136,
				"y": -0.2051273846,
				"z": 1.5917333794,
				"element": "C" 
			},
			{
				"x": 3.9275034466,
				"y": -0.574005578,
				"z": 0.5630791712,
				"element": "C" 
			},
			{
				"x": 3.5010577229,
				"y": -0.248950143,
				"z": -0.8695941613,
				"element": "C" 
			},
			{
				"x": 3.3462908458,
				"y": 1.2742532038,
				"z": -1.0479596985,
				"element": "C" 
			},
			{
				"x": 2.9625843764,
				"y": 1.9935896398,
				"z": 0.2693215012,
				"element": "C" 
			},
			{
				"x": 2.1390711836,
				"y": 1.195259714,
				"z": 1.3223452072,
				"element": "C" 
			},
			{
				"x": 2.2345088869,
				"y": 2.0226154761,
				"z": 2.6332812364,
				"element": "C" 
			},
			{
				"x": -1.3884358628,
				"y": -0.6334585244,
				"z": 0.9792845248,
				"element": "C" 
			},
			{
				"x": -1.0686495025,
				"y": -1.9644781907,
				"z": 0.2580406942,
				"element": "C" 
			},
			{
				"x": -2.3288401958,
				"y": -2.1895439324,
				"z": -0.5792933029,
				"element": "C" 
			},
			{
				"x": -2.5295984401,
				"y": -0.813806278,
				"z": -1.2416922496,
				"element": "C" 
			},
			{
				"x": -1.5576029822,
				"y": -0.7951371521,
				"z": -2.3009660675,
				"element": "O" 
			},
			{
				"x": -3.8659849265,
				"y": -0.6325563376,
				"z": -1.8289355608,
				"element": "C" 
			},
			{
				"x": -4.9409286102,
				"y": -0.4835501881,
				"z": -2.3625796481,
				"element": "C" 
			},
			{
				"x": -6.417132233,
				"y": -0.2890974771,
				"z": -3.0797870443,
				"element": "Cl" 
			},
			{
				"x": -3.196158995,
				"y": 1.3655273106,
				"z": 1.4694131924,
				"element": "H" 
			},
			{
				"x": -3.9901013852,
				"y": 1.4718217988,
				"z": -0.1099911707,
				"element": "H" 
			},
			{
				"x": -4.1530866012,
				"y": 0.0058614144,
				"z": 0.8645312063,
				"element": "H" 
			},
			{
				"x": -1.5506570757,
				"y": 2.3005466939,
				"z": -0.037236781,
				"element": "H" 
			},
			{
				"x": -1.6173908919,
				"y": 1.6442910129,
				"z": -1.6465365884,
				"element": "H" 
			},
			{
				"x": 0.7029048013,
				"y": 1.9646387055,
				"z": -1.0452348804,
				"element": "H" 
			},
			{
				"x": 0.451013361,
				"y": 0.2236572502,
				"z": -1.0464814527,
				"element": "H" 
			},
			{
				"x": 0.2458177631,
				"y": 2.1322413177,
				"z": 1.2991781177,
				"element": "H" 
			},
			{
				"x": -0.8027498182,
				"y": 0.6854726614,
				"z": 2.5344156771,
				"element": "H" 
			},
			{
				"x": 0.9383902321,
				"y": -0.4908816594,
				"z": 3.5029325341,
				"element": "H" 
			},
			{
				"x": -0.0148590261,
				"y": -1.7879811387,
				"z": 2.8274487063,
				"element": "H" 
			},
			{
				"x": 2.3313550827,
				"y": -2.1973048424,
				"z": 2.2462870046,
				"element": "H" 
			},
			{
				"x": 1.5184237602,
				"y": -1.728064289,
				"z": 0.76801775,
				"element": "H" 
			},
			{
				"x": 3.3344257791,
				"y": -0.1127676517,
				"z": 2.5633311229,
				"element": "H" 
			},
			{
				"x": 4.1651316926,
				"y": -1.6404138259,
				"z": 0.6655195571,
				"element": "H" 
			},
			{
				"x": 4.8560305697,
				"y": -0.0336552224,
				"z": 0.7907309625,
				"element": "H" 
			},
			{
				"x": 2.5506266105,
				"y": -0.7529584137,
				"z": -1.0852760342,
				"element": "H" 
			},
			{
				"x": 4.2238168564,
				"y": -0.6453469842,
				"z": -1.5918524775,
				"element": "H" 
			},
			{
				"x": 4.2980127526,
				"y": 1.6972544571,
				"z": -1.3927375714,
				"element": "H" 
			},
			{
				"x": 2.6228489995,
				"y": 1.4823834567,
				"z": -1.8412638,
				"element": "H" 
			},
			{
				"x": 3.893518052,
				"y": 2.2877464502,
				"z": 0.7697579225,
				"element": "H" 
			},
			{
				"x": 2.4482970735,
				"y": 2.9370927823,
				"z": 0.0467256811,
				"element": "H" 
			},
			{
				"x": 1.6339081891,
				"y": 1.5885259746,
				"z": 3.4386513261,
				"element": "H" 
			},
			{
				"x": 3.2697808283,
				"y": 2.0771851175,
				"z": 2.9875053672,
				"element": "H" 
			},
			{
				"x": 1.8829098772,
				"y": 3.0491478342,
				"z": 2.4751024699,
				"element": "H" 
			},
			{
				"x": -2.1208428956,
				"y": -0.9154155725,
				"z": 1.7492975855,
				"element": "H" 
			},
			{
				"x": -0.2108572515,
				"y": -1.8819754767,
				"z": -0.4134983793,
				"element": "H" 
			},
			{
				"x": -0.8737582068,
				"y": -2.7855926706,
				"z": 0.9534913775,
				"element": "H" 
			},
			{
				"x": -2.2401148591,
				"y": -2.969699334,
				"z": -1.3389566591,
				"element": "H" 
			},
			{
				"x": -3.1862852185,
				"y": -2.4227307343,
				"z": 0.0614807071,
				"element": "H" 
			},
			{
				"x": -1.6965434172,
				"y": 0.0057580074,
				"z": -2.8222778257,
				"element": "H" 
			}
		],
		 "valence_orbital": [ 
			{
				"type": "occ",
				"energy": -0.27379,
				"method": "rhf"
			},
			{
				"type": "occ",
				"energy": -0.27064,
				"method": "rhf"
			},
			{
				"type": "occ",
				"energy": -0.26622,
				"method": "rhf"
			},
			{
				"type": "occ",
				"energy": -0.25871,
				"method": "rhf"
			},
			{
				"type": "occ",
				"energy": -0.25014,
				"method": "rhf"
			},
			{
				"type": "unocc",
				"energy": 0.03071,
				"method": "rhf"
			},
			{
				"type": "unocc",
				"energy": 0.03405,
				"method": "rhf"
			},
			{
				"type": "unocc",
				"energy": 0.04376,
				"method": "rhf"
			},
			{
				"type": "unocc",
				"energy": 0.06191,
				"method": "rhf"
			},
			{
				"type": "unocc",
				"energy": 0.07786,
				"method": "rhf"
			}
		],
		"cosmo_sigma_profile": { 
			"-0.025": 0.0,
			"-0.024": 0.0,
			"-0.023": 0.0,
			"-0.022": 0.0,
			"-0.021": 0.0,
			"-0.02": 0.0,
			"-0.019": 0.0,
			"-0.018": 0.0,
			"-0.017": 0.0,
			"-0.016": 0.0,
			"-0.015": 0.257440193834,
			"-0.014": 0.989082955955,
			"-0.013": 0.442640057176,
			"-0.012": 0.880482075785,
			"-0.011": 1.04770702596,
			"-0.01": 0.958672091537,
			"-0.009": 0.875317500401,
			"-0.008": 0.9619473128,
			"-0.007": 0.670973243243,
			"-0.006": 1.64357519974,
			"-0.005": 2.63987870887,
			"-0.004": 3.90454567831,
			"-0.003": 16.1930770358,
			"-0.002": 45.8541949135,
			"-0.001": 75.5589094692,
			"0.0": 70.0925916502,
			"0.001": 68.4831746707,
			"0.002": 46.0180612762,
			"0.003": 8.46872598995,
			"0.004": 6.62349344945,
			"0.005": 3.54664572622,
			"0.006": 2.05137772547,
			"0.007": 1.49811704062,
			"0.008": 1.83658091202,
			"0.009": 0.722127238625,
			"0.01": 1.13629302003,
			"0.011": 1.14857242773,
			"0.012": 1.12922208709,
			"0.013": 1.05788500388,
			"0.014": 0.117930819801,
			"0.015": 0.0,
			"0.016": 0.0,
			"0.017": 0.0,
			"0.018": 0.0,
			"0.019": 0.0,
			"0.02": 0.0,
			"0.021": 0.0,
			"0.022": 0.0,
			"0.023": 0.0,
			"0.024": 0.0,
			"0.025": 0.0
		}
	}
}
