{
	 "smiles": "COC1=C(OC)C=C(N)C(N)=C1", 
	 "Tm": 400.15, 
	 "num_atms": 24, 
	 "gaussian": { 
		 "optdone": 1, 
		 "sigma_profile": "yes", 
		 "theory": "DFT", 
		 "functional": "B3LYP", 
		 "basiset": "6-31G**", 
		 "properties": { 
			 "R2extent": 2490.9066, 
			 "electric_dipole_moment_norm": 2.28196906202, 
			 "electric_quadrupole_moment_norm": 12.2014614842, 
			 "total_energy": -571.998215776, 
			 "HOMO_LUMO_gap": 0.1938, 
			 "cosmo_polarized_energy": -13.27, 
			 "cosmo_cavitation_energy": 27.08, 
			 "cosmo_dispersion_energy": -19.77, 
			 "cosmo_repulsion_energy": 1.61, 
			 "cosmo_total_nonelectrostatic_energy": 8.91, 
			 "SMD_solvation_energy": 6.12 
		},
		"coords": [
			{
				"x": 0.2613501457,
				"y": 1.7990464253,
				"z": 2.4217203456,
				"element": "C" 
			},
			{
				"x": -0.0215259049,
				"y": 0.3991220181,
				"z": 2.4992945105,
				"element": "O" 
			},
			{
				"x": 0.2624331548,
				"y": -0.3006502205,
				"z": 1.3404043172,
				"element": "C" 
			},
			{
				"x": -0.533729512,
				"y": -0.1794118593,
				"z": 0.1909335038,
				"element": "C" 
			},
			{
				"x": -1.6027674371,
				"y": 0.6931732705,
				"z": 0.1408347769,
				"element": "O" 
			},
			{
				"x": -2.7141574272,
				"y": 0.319549727,
				"z": 0.9598456471,
				"element": "C" 
			},
			{
				"x": -0.2118263155,
				"y": -0.9068342486,
				"z": -0.954621895,
				"element": "C" 
			},
			{
				"x": 0.8884287167,
				"y": -1.7743951238,
				"z": -0.9836501782,
				"element": "C" 
			},
			{
				"x": 1.2639052055,
				"y": -2.4264408607,
				"z": -2.1554972169,
				"element": "N" 
			},
			{
				"x": 1.6503990273,
				"y": -1.9460290388,
				"z": 0.1960501966,
				"element": "C" 
			},
			{
				"x": 2.7478173732,
				"y": -2.8610305701,
				"z": 0.1568335963,
				"element": "N" 
			},
			{
				"x": 1.3340583509,
				"y": -1.1950687682,
				"z": 1.3293173005,
				"element": "C" 
			},
			{
				"x": 1.3284494186,
				"y": 1.9727402341,
				"z": 2.2306230105,
				"element": "H" 
			},
			{
				"x": -0.0036624519,
				"y": 2.2230554248,
				"z": 3.3933444113,
				"element": "H" 
			},
			{
				"x": -0.3292652957,
				"y": 2.2816194524,
				"z": 1.6359154443,
				"element": "H" 
			},
			{
				"x": -3.1236918702,
				"y": -0.648801273,
				"z": 0.6432779479,
				"element": "H" 
			},
			{
				"x": -3.4733422548,
				"y": 1.0926111322,
				"z": 0.8197999844,
				"element": "H" 
			},
			{
				"x": -2.4318173838,
				"y": 0.2658172456,
				"z": 2.0160063686,
				"element": "H" 
			},
			{
				"x": -0.8173880027,
				"y": -0.7582990648,
				"z": -1.8438241296,
				"element": "H" 
			},
			{
				"x": 0.5282894224,
				"y": -2.7195073088,
				"z": -2.7793756242,
				"element": "H" 
			},
			{
				"x": 2.0298334436,
				"y": -3.0757693019,
				"z": -2.0611286108,
				"element": "H" 
			},
			{
				"x": 2.4262828092,
				"y": -3.8275552734,
				"z": 0.1558085378,
				"element": "H" 
			},
			{
				"x": 3.3546422598,
				"y": -2.743220318,
				"z": 0.9610714941,
				"element": "H" 
			},
			{
				"x": 1.913684528,
				"y": -1.3095216999,
				"z": 2.2417162615,
				"element": "H" 
			}
		],
		 "valence_orbital": [ 
			{
				"type": "occ",
				"energy": -0.29188,
				"method": "rhf"
			},
			{
				"type": "occ",
				"energy": -0.26036,
				"method": "rhf"
			},
			{
				"type": "occ",
				"energy": -0.25064,
				"method": "rhf"
			},
			{
				"type": "occ",
				"energy": -0.21638,
				"method": "rhf"
			},
			{
				"type": "occ",
				"energy": -0.17883,
				"method": "rhf"
			},
			{
				"type": "unocc",
				"energy": 0.01497,
				"method": "rhf"
			},
			{
				"type": "unocc",
				"energy": 0.0295,
				"method": "rhf"
			},
			{
				"type": "unocc",
				"energy": 0.07541,
				"method": "rhf"
			},
			{
				"type": "unocc",
				"energy": 0.09698,
				"method": "rhf"
			},
			{
				"type": "unocc",
				"energy": 0.10799,
				"method": "rhf"
			}
		],
		"cosmo_sigma_profile": { 
			"-0.025": 0.0,
			"-0.024": 0.0,
			"-0.023": 0.0,
			"-0.022": 0.0,
			"-0.021": 0.0,
			"-0.02": 0.0,
			"-0.019": 0.0,
			"-0.018": 0.0,
			"-0.017": 0.0,
			"-0.016": 0.0,
			"-0.015": 0.0,
			"-0.014": 0.0,
			"-0.013": 0.101979428691,
			"-0.012": 1.42581177388,
			"-0.011": 3.67035568416,
			"-0.01": 5.23871430083,
			"-0.009": 5.45112609086,
			"-0.008": 6.25580519979,
			"-0.007": 4.47929893011,
			"-0.006": 6.4705100378,
			"-0.005": 10.7705955868,
			"-0.004": 14.6437796162,
			"-0.003": 17.308334302,
			"-0.002": 21.6839456681,
			"-0.001": 13.4036316512,
			"0.0": 11.2040424206,
			"0.001": 10.9244782051,
			"0.002": 9.60252145147,
			"0.003": 9.04921437609,
			"0.004": 8.28907342022,
			"0.005": 11.8019588826,
			"0.006": 13.1644878096,
			"0.007": 5.48644895989,
			"0.008": 4.50547688226,
			"0.009": 4.17319396619,
			"0.01": 3.45389886042,
			"0.011": 3.117451305,
			"0.012": 3.02344523081,
			"0.013": 2.6230625309,
			"0.014": 0.959094374072,
			"0.015": 0.485039195056,
			"0.016": 0.015377782287,
			"0.017": 0.0,
			"0.018": 0.0,
			"0.019": 0.0,
			"0.02": 0.0,
			"0.021": 0.0,
			"0.022": 0.0,
			"0.023": 0.0,
			"0.024": 0.0,
			"0.025": 0.0
		}
	}
}
