{
	 "smiles": "O=C1NC(=O)C(=O)N1CCC1=CC=CS1", 
	 "Tm": 392.15, 
	 "num_atms": 23, 
	 "gaussian": { 
		 "optdone": 1, 
		 "sigma_profile": "yes", 
		 "theory": "DFT", 
		 "functional": "B3LYP", 
		 "basiset": "6-31G**", 
		 "properties": { 
			 "R2extent": 5309.6474, 
			 "electric_dipole_moment_norm": 3.24680100099, 
			 "electric_quadrupole_moment_norm": 22.1962023693, 
			 "total_energy": -1081.16434764, 
			 "HOMO_LUMO_gap": 0.14629, 
			 "cosmo_polarized_energy": -16.92, 
			 "cosmo_cavitation_energy": 30.08, 
			 "cosmo_dispersion_energy": -21.02, 
			 "cosmo_repulsion_energy": 1.62, 
			 "cosmo_total_nonelectrostatic_energy": 10.69, 
			 "SMD_solvation_energy": 7.44 
		},
		"coords": [
			{
				"x": -2.2664026529,
				"y": 0.4006014355,
				"z": -1.1917038458,
				"element": "O" 
			},
			{
				"x": -2.5908339531,
				"y": 0.1648523282,
				"z": -0.0528858457,
				"element": "C" 
			},
			{
				"x": -3.8833214345,
				"y": 0.2252007549,
				"z": 0.4815708917,
				"element": "N" 
			},
			{
				"x": -3.9319339497,
				"y": -0.1305401459,
				"z": 1.8205743593,
				"element": "C" 
			},
			{
				"x": -4.8923057393,
				"y": -0.1794419991,
				"z": 2.5473563673,
				"element": "O" 
			},
			{
				"x": -2.457011647,
				"y": -0.4576034665,
				"z": 2.1702163931,
				"element": "C" 
			},
			{
				"x": -2.0150992223,
				"y": -0.8221164313,
				"z": 3.2349216583,
				"element": "O" 
			},
			{
				"x": -1.7509452703,
				"y": -0.2446067546,
				"z": 0.9964256886,
				"element": "N" 
			},
			{
				"x": -0.3083693071,
				"y": -0.4215350142,
				"z": 0.8489414362,
				"element": "C" 
			},
			{
				"x": 0.5182169387,
				"y": 0.63751916,
				"z": 1.6099621856,
				"element": "C" 
			},
			{
				"x": 0.3051851914,
				"y": 2.0505096442,
				"z": 1.1425569606,
				"element": "C" 
			},
			{
				"x": 0.919532839,
				"y": 2.7063477891,
				"z": 0.1069200848,
				"element": "C" 
			},
			{
				"x": 0.449067404,
				"y": 4.0409224369,
				"z": -0.0853496164,
				"element": "C" 
			},
			{
				"x": -0.5226519862,
				"y": 4.3932882465,
				"z": 0.8089157463,
				"element": "C" 
			},
			{
				"x": -0.873626465,
				"y": 3.0945331844,
				"z": 1.9036702377,
				"element": "S" 
			},
			{
				"x": -4.6796076633,
				"y": 0.5040104868,
				"z": -0.0747595475,
				"element": "H" 
			},
			{
				"x": -0.0525849252,
				"y": -1.418336563,
				"z": 1.221734841,
				"element": "H" 
			},
			{
				"x": -0.1033851054,
				"y": -0.3793126461,
				"z": -0.2222437372,
				"element": "H" 
			},
			{
				"x": 1.5738566237,
				"y": 0.374037003,
				"z": 1.4751742076,
				"element": "H" 
			},
			{
				"x": 0.3064570435,
				"y": 0.5418623352,
				"z": 2.6792004131,
				"element": "H" 
			},
			{
				"x": 1.6916063274,
				"y": 2.2477682254,
				"z": -0.5024215584,
				"element": "H" 
			},
			{
				"x": 0.8232353914,
				"y": 4.7084110652,
				"z": -0.8532614557,
				"element": "H" 
			},
			{
				"x": -1.0458784377,
				"y": 5.3349289254,
				"z": 0.8993841354,
				"element": "H" 
			}
		],
		 "valence_orbital": [ 
			{
				"type": "occ",
				"energy": -0.30211,
				"method": "rhf"
			},
			{
				"type": "occ",
				"energy": -0.29736,
				"method": "rhf"
			},
			{
				"type": "occ",
				"energy": -0.276,
				"method": "rhf"
			},
			{
				"type": "occ",
				"energy": -0.25493,
				"method": "rhf"
			},
			{
				"type": "occ",
				"energy": -0.2338,
				"method": "rhf"
			},
			{
				"type": "unocc",
				"energy": -0.08751,
				"method": "rhf"
			},
			{
				"type": "unocc",
				"energy": -0.01741,
				"method": "rhf"
			},
			{
				"type": "unocc",
				"energy": 0.02314,
				"method": "rhf"
			},
			{
				"type": "unocc",
				"energy": 0.03224,
				"method": "rhf"
			},
			{
				"type": "unocc",
				"energy": 0.05828,
				"method": "rhf"
			}
		],
		"cosmo_sigma_profile": { 
			"-0.025": 0.0,
			"-0.024": 0.0,
			"-0.023": 0.0,
			"-0.022": 0.0,
			"-0.021": 0.0,
			"-0.02": 0.0,
			"-0.019": 0.0,
			"-0.018": 1.16692872655,
			"-0.017": 1.28771155892,
			"-0.016": 0.849154213725,
			"-0.015": 1.21924442066,
			"-0.014": 0.790462585202,
			"-0.013": 0.829438460203,
			"-0.012": 1.25514713018,
			"-0.011": 0.732994626778,
			"-0.01": 1.51615181326,
			"-0.009": 2.07321410764,
			"-0.008": 3.75295078014,
			"-0.007": 6.65647441105,
			"-0.006": 17.9327593444,
			"-0.005": 21.7088096088,
			"-0.004": 21.0675536997,
			"-0.003": 16.1745249419,
			"-0.002": 13.2774016623,
			"-0.001": 10.118656734,
			"0.0": 10.0544824923,
			"0.001": 11.0011747188,
			"0.002": 12.0160913046,
			"0.003": 13.9677367554,
			"0.004": 11.4929084892,
			"0.005": 12.2807476939,
			"0.006": 7.85007007504,
			"0.007": 6.00235766706,
			"0.008": 5.52615622126,
			"0.009": 9.00367132159,
			"0.01": 15.3388868294,
			"0.011": 5.73212004572,
			"0.012": 0.0707895151514,
			"0.013": 0.0,
			"0.014": 0.0,
			"0.015": 0.0,
			"0.016": 0.0,
			"0.017": 0.0,
			"0.018": 0.0,
			"0.019": 0.0,
			"0.02": 0.0,
			"0.021": 0.0,
			"0.022": 0.0,
			"0.023": 0.0,
			"0.024": 0.0,
			"0.025": 0.0
		}
	}
}
