{
	 "smiles": "CCCCCCCCCCCCN", 
	 "Tm": 301.45, 
	 "num_atms": 40, 
	 "gaussian": { 
		 "optdone": 1, 
		 "sigma_profile": "yes", 
		 "theory": "DFT", 
		 "functional": "B3LYP", 
		 "basiset": "6-31G**", 
		 "properties": { 
			 "R2extent": 4574.0967, 
			 "electric_dipole_moment_norm": 1.46738905884, 
			 "electric_quadrupole_moment_norm": 9.66999207911, 
			 "total_energy": -528.32692124, 
			 "HOMO_LUMO_gap": 0.29797, 
			 "cosmo_polarized_energy": -5.34, 
			 "cosmo_cavitation_energy": 38.91, 
			 "cosmo_dispersion_energy": -25.88, 
			 "cosmo_repulsion_energy": 2.13, 
			 "cosmo_total_nonelectrostatic_energy": 15.16, 
			 "SMD_solvation_energy": 3.91 
		},
		"coords": [
			{
				"x": 1.3410857137,
				"y": -2.5980899514,
				"z": 0.747660846,
				"element": "C" 
			},
			{
				"x": 2.5315375357,
				"y": -1.8359001612,
				"z": 1.342268451,
				"element": "C" 
			},
			{
				"x": 2.4324601491,
				"y": -0.3052246762,
				"z": 1.2282130317,
				"element": "C" 
			},
			{
				"x": 2.4977270367,
				"y": 0.2326532028,
				"z": -0.2096200435,
				"element": "C" 
			},
			{
				"x": 2.5001841092,
				"y": 1.7711693941,
				"z": -0.301294728,
				"element": "C" 
			},
			{
				"x": 1.1731883497,
				"y": 2.4858409189,
				"z": 0.0480339686,
				"element": "C" 
			},
			{
				"x": 0.2517215314,
				"y": 2.795249254,
				"z": -1.1483793409,
				"element": "C" 
			},
			{
				"x": -0.3520877605,
				"y": 1.5934027082,
				"z": -1.8978921097,
				"element": "C" 
			},
			{
				"x": -1.2930007106,
				"y": 0.6887020538,
				"z": -1.0814312717,
				"element": "C" 
			},
			{
				"x": -2.5724057649,
				"y": 1.3834807407,
				"z": -0.5888506229,
				"element": "C" 
			},
			{
				"x": -3.5306107908,
				"y": 0.4705695743,
				"z": 0.196197263,
				"element": "C" 
			},
			{
				"x": -4.2159894728,
				"y": -0.6226858615,
				"z": -0.6422227685,
				"element": "C" 
			},
			{
				"x": -5.1761533397,
				"y": -1.468439795,
				"z": 0.07412184,
				"element": "N" 
			},
			{
				"x": 1.2460454336,
				"y": -2.4334353139,
				"z": -0.3304141663,
				"element": "H" 
			},
			{
				"x": 1.4449003563,
				"y": -3.6767303888,
				"z": 0.9057489085,
				"element": "H" 
			},
			{
				"x": 0.3996540388,
				"y": -2.2842216565,
				"z": 1.2142466971,
				"element": "H" 
			},
			{
				"x": 3.4589219067,
				"y": -2.1737388289,
				"z": 0.8592689635,
				"element": "H" 
			},
			{
				"x": 2.6290693739,
				"y": -2.1025626118,
				"z": 2.4025406515,
				"element": "H" 
			},
			{
				"x": 1.5043575721,
				"y": 0.02786716,
				"z": 1.7133886267,
				"element": "H" 
			},
			{
				"x": 3.2521509405,
				"y": 0.145190231,
				"z": 1.8051278784,
				"element": "H" 
			},
			{
				"x": 3.4179200689,
				"y": -0.1450736698,
				"z": -0.6771803385,
				"element": "H" 
			},
			{
				"x": 1.6702201577,
				"y": -0.1764441574,
				"z": -0.8001325428,
				"element": "H" 
			},
			{
				"x": 3.290508813,
				"y": 2.1427332566,
				"z": 0.3648281845,
				"element": "H" 
			},
			{
				"x": 2.8043402271,
				"y": 2.0698574844,
				"z": -1.3137288026,
				"element": "H" 
			},
			{
				"x": 0.625562868,
				"y": 1.9136711817,
				"z": 0.807625935,
				"element": "H" 
			},
			{
				"x": 1.4101210838,
				"y": 3.4448894325,
				"z": 0.5253053943,
				"element": "H" 
			},
			{
				"x": 0.8206033598,
				"y": 3.396129554,
				"z": -1.8713332256,
				"element": "H" 
			},
			{
				"x": -0.5600943777,
				"y": 3.4467968918,
				"z": -0.8001646403,
				"element": "H" 
			},
			{
				"x": 0.457781399,
				"y": 0.9803775889,
				"z": -2.3126734325,
				"element": "H" 
			},
			{
				"x": -0.9058361999,
				"y": 1.9761943643,
				"z": -2.7665256413,
				"element": "H" 
			},
			{
				"x": -0.7581985624,
				"y": 0.2717269196,
				"z": -0.2172298635,
				"element": "H" 
			},
			{
				"x": -1.5619704722,
				"y": -0.1708567425,
				"z": -1.7078758005,
				"element": "H" 
			},
			{
				"x": -2.3020516546,
				"y": 2.2331356777,
				"z": 0.0498420678,
				"element": "H" 
			},
			{
				"x": -3.1059510811,
				"y": 1.8120514479,
				"z": -1.4501091596,
				"element": "H" 
			},
			{
				"x": -4.3140080538,
				"y": 1.0884802014,
				"z": 0.6577764816,
				"element": "H" 
			},
			{
				"x": -2.9874154502,
				"y": -0.0027452831,
				"z": 1.0278359024,
				"element": "H" 
			},
			{
				"x": -4.7442701719,
				"y": -0.1531184595,
				"z": -1.4829012507,
				"element": "H" 
			},
			{
				"x": -3.4648227932,
				"y": -1.2848610332,
				"z": -1.0882242057,
				"element": "H" 
			},
			{
				"x": -5.8897851196,
				"y": -0.8835910933,
				"z": 0.5052640372,
				"element": "H" 
			},
			{
				"x": -4.7056102487,
				"y": -1.9423495546,
				"z": 0.8427888261,
				"element": "H" 
			}
		],
		 "valence_orbital": [ 
			{
				"type": "occ",
				"energy": -0.31344,
				"method": "rhf"
			},
			{
				"type": "occ",
				"energy": -0.30344,
				"method": "rhf"
			},
			{
				"type": "occ",
				"energy": -0.29962,
				"method": "rhf"
			},
			{
				"type": "occ",
				"energy": -0.29514,
				"method": "rhf"
			},
			{
				"type": "occ",
				"energy": -0.22663,
				"method": "rhf"
			},
			{
				"type": "unocc",
				"energy": 0.07134,
				"method": "rhf"
			},
			{
				"type": "unocc",
				"energy": 0.08473,
				"method": "rhf"
			},
			{
				"type": "unocc",
				"energy": 0.09226,
				"method": "rhf"
			},
			{
				"type": "unocc",
				"energy": 0.09867,
				"method": "rhf"
			},
			{
				"type": "unocc",
				"energy": 0.1049,
				"method": "rhf"
			}
		],
		"cosmo_sigma_profile": { 
			"-0.025": 0.0,
			"-0.024": 0.0,
			"-0.023": 0.0,
			"-0.022": 0.0,
			"-0.021": 0.0,
			"-0.02": 0.0,
			"-0.019": 0.0,
			"-0.018": 0.0,
			"-0.017": 0.0,
			"-0.016": 0.0,
			"-0.015": 0.0,
			"-0.014": 0.0,
			"-0.013": 0.0,
			"-0.012": 0.0,
			"-0.011": 0.0,
			"-0.01": 0.0,
			"-0.009": 1.69177990448,
			"-0.008": 2.69276328137,
			"-0.007": 2.66832961028,
			"-0.006": 2.72594448385,
			"-0.005": 3.25015052025,
			"-0.004": 3.092041083,
			"-0.003": 6.69204710833,
			"-0.002": 39.7616471256,
			"-0.001": 62.2586354463,
			"0.0": 72.1026594328,
			"0.001": 58.6780825059,
			"0.002": 26.6986983992,
			"0.003": 1.77816319437,
			"0.004": 1.05950691768,
			"0.005": 0.745581658855,
			"0.006": 0.78702242538,
			"0.007": 0.827635076499,
			"0.008": 0.736189297812,
			"0.009": 0.867742170808,
			"0.01": 0.929783938906,
			"0.011": 0.700246610669,
			"0.012": 0.665240577061,
			"0.013": 0.910224358481,
			"0.014": 0.425287674721,
			"0.015": 0.705712236632,
			"0.016": 0.714847605282,
			"0.017": 0.592430193876,
			"0.018": 0.634070486154,
			"0.019": 0.621354823908,
			"0.02": 0.65025113716,
			"0.021": 0.0968442623086,
			"0.022": 0.0,
			"0.023": 0.0,
			"0.024": 0.0,
			"0.025": 0.0
		}
	}
}
