{
	 "smiles": "CC1(C)OC(=O)C(=CC2=CC=C(O2)C2=CC(=CC=C2)[N+]([O-])=O)C(=O)O1", 
	 "Tm": 452.15, 
	 "num_atms": 38, 
	 "gaussian": { 
		 "optdone": 1, 
		 "sigma_profile": "yes", 
		 "theory": "DFT", 
		 "functional": "B3LYP", 
		 "basiset": "6-31G**", 
		 "properties": { 
			 "R2extent": 15788.6549, 
			 "electric_dipole_moment_norm": 2.76874375304, 
			 "electric_quadrupole_moment_norm": 26.6455927238, 
			 "total_energy": -1236.86753333, 
			 "HOMO_LUMO_gap": 0.12493, 
			 "cosmo_polarized_energy": -18.81, 
			 "cosmo_cavitation_energy": 44.44, 
			 "cosmo_dispersion_energy": -31.85, 
			 "cosmo_repulsion_energy": 2.36, 
			 "cosmo_total_nonelectrostatic_energy": 14.95, 
			 "SMD_solvation_energy": 12.05 
		},
		"coords": [
			{
				"x": 2.9731827219,
				"y": 1.1559288559,
				"z": -3.7385692819,
				"element": "C" 
			},
			{
				"x": 3.9045193995,
				"y": 0.5529235686,
				"z": -2.6875308623,
				"element": "C" 
			},
			{
				"x": 5.3544056768,
				"y": 0.4842517144,
				"z": -3.1335007352,
				"element": "C" 
			},
			{
				"x": 3.8921297226,
				"y": 1.3624726314,
				"z": -1.5020071053,
				"element": "O" 
			},
			{
				"x": 2.8303150087,
				"y": 1.3017548326,
				"z": -0.6467419523,
				"element": "C" 
			},
			{
				"x": 2.6987301086,
				"y": 2.1890234253,
				"z": 0.1712070312,
				"element": "O" 
			},
			{
				"x": 1.970137815,
				"y": 0.1123485099,
				"z": -0.7689951625,
				"element": "C" 
			},
			{
				"x": 0.7940585799,
				"y": -0.0860087786,
				"z": -0.0931262075,
				"element": "C" 
			},
			{
				"x": 0.0464483175,
				"y": 0.6983808847,
				"z": 0.8225219249,
				"element": "C" 
			},
			{
				"x": 0.1497639087,
				"y": 1.9160769084,
				"z": 1.4813258294,
				"element": "C" 
			},
			{
				"x": -1.0070836364,
				"y": 2.0593029989,
				"z": 2.2713591555,
				"element": "C" 
			},
			{
				"x": -1.773900944,
				"y": 0.9251515055,
				"z": 2.0712383951,
				"element": "C" 
			},
			{
				"x": -1.1479720357,
				"y": 0.1003776658,
				"z": 1.2024535235,
				"element": "O" 
			},
			{
				"x": -3.0578461634,
				"y": 0.4900392153,
				"z": 2.6031167161,
				"element": "C" 
			},
			{
				"x": -3.7664453904,
				"y": 1.3120643926,
				"z": 3.4930147721,
				"element": "C" 
			},
			{
				"x": -4.9882540048,
				"y": 0.8748282771,
				"z": 3.9869266733,
				"element": "C" 
			},
			{
				"x": -5.5454393681,
				"y": -0.3534633331,
				"z": 3.6345135394,
				"element": "C" 
			},
			{
				"x": -4.8372217735,
				"y": -1.1655754905,
				"z": 2.7499125663,
				"element": "C" 
			},
			{
				"x": -3.6086064645,
				"y": -0.7537631626,
				"z": 2.2378372319,
				"element": "C" 
			},
			{
				"x": -5.7229227789,
				"y": 1.7490849627,
				"z": 4.9209715867,
				"element": "N" 
			},
			{
				"x": -5.2098237793,
				"y": 2.8276369244,
				"z": 5.2149639743,
				"element": "O" 
			},
			{
				"x": -6.802641877,
				"y": 1.3440461227,
				"z": 5.3467347118,
				"element": "O" 
			},
			{
				"x": 2.4145198661,
				"y": -1.0231776144,
				"z": -1.6227324791,
				"element": "C" 
			},
			{
				"x": 1.9001086116,
				"y": -2.1192203398,
				"z": -1.6339590195,
				"element": "O" 
			},
			{
				"x": 3.5117832826,
				"y": -0.795287968,
				"z": -2.4006048543,
				"element": "O" 
			},
			{
				"x": 1.9419208996,
				"y": 1.1878094097,
				"z": -3.3758953846,
				"element": "H" 
			},
			{
				"x": 3.001632632,
				"y": 0.5519654825,
				"z": -4.6486283419,
				"element": "H" 
			},
			{
				"x": 3.2898659243,
				"y": 2.1747669804,
				"z": -3.9741875853,
				"element": "H" 
			},
			{
				"x": 5.9600007181,
				"y": 0.0452933099,
				"z": -2.3380520279,
				"element": "H" 
			},
			{
				"x": 5.4386355011,
				"y": -0.1347470978,
				"z": -4.0294537662,
				"element": "H" 
			},
			{
				"x": 5.7244821579,
				"y": 1.4884460598,
				"z": -3.3517537925,
				"element": "H" 
			},
			{
				"x": 0.3292074089,
				"y": -1.0468416429,
				"z": -0.3073062604,
				"element": "H" 
			},
			{
				"x": 0.9841734038,
				"y": 2.5904021392,
				"z": 1.3861421601,
				"element": "H" 
			},
			{
				"x": -1.2477050992,
				"y": 2.8914025693,
				"z": 2.9166163945,
				"element": "H" 
			},
			{
				"x": -3.3911271901,
				"y": 2.2776589015,
				"z": 3.8065707432,
				"element": "H" 
			},
			{
				"x": -6.5016257253,
				"y": -0.6460029541,
				"z": 4.0489993574,
				"element": "H" 
			},
			{
				"x": -5.2464492398,
				"y": -2.1273091221,
				"z": 2.4581318964,
				"element": "H" 
			},
			{
				"x": -3.0638561949,
				"y": -1.3917407449,
				"z": 1.5511866357,
				"element": "H" 
			}
		],
		 "valence_orbital": [ 
			{
				"type": "occ",
				"energy": -0.29805,
				"method": "rhf"
			},
			{
				"type": "occ",
				"energy": -0.29476,
				"method": "rhf"
			},
			{
				"type": "occ",
				"energy": -0.29097,
				"method": "rhf"
			},
			{
				"type": "occ",
				"energy": -0.27463,
				"method": "rhf"
			},
			{
				"type": "occ",
				"energy": -0.2337,
				"method": "rhf"
			},
			{
				"type": "unocc",
				"energy": -0.10877,
				"method": "rhf"
			},
			{
				"type": "unocc",
				"energy": -0.09779,
				"method": "rhf"
			},
			{
				"type": "unocc",
				"energy": -0.05179,
				"method": "rhf"
			},
			{
				"type": "unocc",
				"energy": -0.01647,
				"method": "rhf"
			},
			{
				"type": "unocc",
				"energy": -0.00487,
				"method": "rhf"
			}
		],
		"cosmo_sigma_profile": { 
			"-0.025": 0.0,
			"-0.024": 0.0,
			"-0.023": 0.0,
			"-0.022": 0.0,
			"-0.021": 0.0,
			"-0.02": 0.0,
			"-0.019": 0.0,
			"-0.018": 0.0,
			"-0.017": 0.0,
			"-0.016": 0.0,
			"-0.015": 0.0,
			"-0.014": 0.0,
			"-0.013": 0.0,
			"-0.012": 0.0,
			"-0.011": 0.345637962744,
			"-0.01": 1.7428979396,
			"-0.009": 2.4931339917,
			"-0.008": 5.23924558922,
			"-0.007": 9.62410272326,
			"-0.006": 20.0590992777,
			"-0.005": 27.2337100398,
			"-0.004": 23.2999360333,
			"-0.003": 27.9318886941,
			"-0.002": 38.5791794811,
			"-0.001": 41.5342930529,
			"0.0": 33.1911845222,
			"0.001": 24.7425267273,
			"0.002": 14.5553370131,
			"0.003": 7.38524562545,
			"0.004": 6.85922116236,
			"0.005": 7.79402185146,
			"0.006": 8.72020850059,
			"0.007": 13.565529944,
			"0.008": 10.5194415083,
			"0.009": 9.62988391362,
			"0.01": 7.99548413374,
			"0.011": 7.03252873422,
			"0.012": 5.31982735704,
			"0.013": 1.59728869615,
			"0.014": 0.0,
			"0.015": 0.0,
			"0.016": 0.0,
			"0.017": 0.0,
			"0.018": 0.0,
			"0.019": 0.0,
			"0.02": 0.0,
			"0.021": 0.0,
			"0.022": 0.0,
			"0.023": 0.0,
			"0.024": 0.0,
			"0.025": 0.0
		}
	}
}
