{
	 "smiles": "OC(=O)CN1C2=C(C=CC=C2)N=C1C1=C(Cl)C=CC=C1", 
	 "Tm": 550.15, 
	 "num_atms": 31, 
	 "gaussian": { 
		 "optdone": 1, 
		 "sigma_profile": "yes", 
		 "theory": "DFT", 
		 "functional": "B3LYP", 
		 "basiset": "6-31G**", 
		 "properties": { 
			 "R2extent": 6164.4952, 
			 "electric_dipole_moment_norm": 4.45507838988, 
			 "electric_quadrupole_moment_norm": 10.6268805178, 
			 "total_energy": -1298.39067865, 
			 "HOMO_LUMO_gap": 0.17711, 
			 "cosmo_polarized_energy": -18.51, 
			 "cosmo_cavitation_energy": 37.01, 
			 "cosmo_dispersion_energy": -26.09, 
			 "cosmo_repulsion_energy": 1.98, 
			 "cosmo_total_nonelectrostatic_energy": 12.91, 
			 "SMD_solvation_energy": 4.77 
		},
		"coords": [
			{
				"x": 1.171674469,
				"y": 2.5384482547,
				"z": 2.1783443095,
				"element": "O" 
			},
			{
				"x": 1.3939149181,
				"y": 1.45630627,
				"z": 1.3973178264,
				"element": "C" 
			},
			{
				"x": 2.1655749456,
				"y": 1.4436234252,
				"z": 0.4704382918,
				"element": "O" 
			},
			{
				"x": 0.5740859509,
				"y": 0.2788196779,
				"z": 1.913331462,
				"element": "C" 
			},
			{
				"x": 0.5583083679,
				"y": -0.860795149,
				"z": 1.0275130034,
				"element": "N" 
			},
			{
				"x": 1.6197750402,
				"y": -1.7325984823,
				"z": 0.8180447226,
				"element": "C" 
			},
			{
				"x": 1.0662446233,
				"y": -2.8300758718,
				"z": 0.120759332,
				"element": "C" 
			},
			{
				"x": 1.8793637666,
				"y": -3.9103448594,
				"z": -0.2465135857,
				"element": "C" 
			},
			{
				"x": 3.2224395173,
				"y": -3.8651168283,
				"z": 0.1095936395,
				"element": "C" 
			},
			{
				"x": 3.7574427216,
				"y": -2.7654509583,
				"z": 0.8117730187,
				"element": "C" 
			},
			{
				"x": 2.9688380777,
				"y": -1.6774268515,
				"z": 1.1761739471,
				"element": "C" 
			},
			{
				"x": -0.2902399225,
				"y": -2.636803626,
				"z": -0.0800704587,
				"element": "N" 
			},
			{
				"x": -0.5598507396,
				"y": -1.4709788004,
				"z": 0.4604251939,
				"element": "C" 
			},
			{
				"x": -1.9348507719,
				"y": -0.9289445215,
				"z": 0.5332530439,
				"element": "C" 
			},
			{
				"x": -2.3338534947,
				"y": 0.3309593266,
				"z": 0.0542787543,
				"element": "C" 
			},
			{
				"x": -1.182116524,
				"y": 1.3980048179,
				"z": -0.7387006401,
				"element": "Cl" 
			},
			{
				"x": -3.6601473971,
				"y": 0.7568945846,
				"z": 0.1406481214,
				"element": "C" 
			},
			{
				"x": -4.6210310654,
				"y": -0.0845054426,
				"z": 0.697650126,
				"element": "C" 
			},
			{
				"x": -4.2576446624,
				"y": -1.3527559778,
				"z": 1.1545216212,
				"element": "C" 
			},
			{
				"x": -2.9315247314,
				"y": -1.7645323637,
				"z": 1.0691420945,
				"element": "C" 
			},
			{
				"x": 1.7366705869,
				"y": 3.2492863511,
				"z": 1.8315391092,
				"element": "H" 
			},
			{
				"x": 0.994707037,
				"y": -0.0079608882,
				"z": 2.8869147472,
				"element": "H" 
			},
			{
				"x": -0.4478830256,
				"y": 0.6130765441,
				"z": 2.0985184164,
				"element": "H" 
			},
			{
				"x": 1.4577895032,
				"y": -4.7511255352,
				"z": -0.7877329793,
				"element": "H" 
			},
			{
				"x": 3.8771230963,
				"y": -4.6886854422,
				"z": -0.159663304,
				"element": "H" 
			},
			{
				"x": 4.8133543495,
				"y": -2.7613053756,
				"z": 1.06563185,
				"element": "H" 
			},
			{
				"x": 3.3945093672,
				"y": -0.8204660351,
				"z": 1.6862186381,
				"element": "H" 
			},
			{
				"x": -3.9305106994,
				"y": 1.734029754,
				"z": -0.243721024,
				"element": "H" 
			},
			{
				"x": -5.65218221,
				"y": 0.2495448381,
				"z": 0.7617269592,
				"element": "H" 
			},
			{
				"x": -5.0042761695,
				"y": -2.0184557205,
				"z": 1.5759822518,
				"element": "H" 
			},
			{
				"x": -2.6344049247,
				"y": -2.7503651148,
				"z": 1.4100615118,
				"element": "H" 
			}
		],
		 "valence_orbital": [ 
			{
				"type": "occ",
				"energy": -0.27668,
				"method": "rhf"
			},
			{
				"type": "occ",
				"energy": -0.26628,
				"method": "rhf"
			},
			{
				"type": "occ",
				"energy": -0.25708,
				"method": "rhf"
			},
			{
				"type": "occ",
				"energy": -0.22241,
				"method": "rhf"
			},
			{
				"type": "occ",
				"energy": -0.21817,
				"method": "rhf"
			},
			{
				"type": "unocc",
				"energy": -0.04106,
				"method": "rhf"
			},
			{
				"type": "unocc",
				"energy": -0.02213,
				"method": "rhf"
			},
			{
				"type": "unocc",
				"energy": -0.00281,
				"method": "rhf"
			},
			{
				"type": "unocc",
				"energy": -0.0011,
				"method": "rhf"
			},
			{
				"type": "unocc",
				"energy": 0.02307,
				"method": "rhf"
			}
		],
		"cosmo_sigma_profile": { 
			"-0.025": 0.0,
			"-0.024": 0.0,
			"-0.023": 0.0,
			"-0.022": 0.0,
			"-0.021": 0.0,
			"-0.02": 0.0,
			"-0.019": 0.375763751344,
			"-0.018": 0.991047747766,
			"-0.017": 1.20083664371,
			"-0.016": 0.384121406782,
			"-0.015": 0.837143882399,
			"-0.014": 0.573006571859,
			"-0.013": 1.04380208911,
			"-0.012": 0.718255755731,
			"-0.011": 0.543712615813,
			"-0.01": 1.1918657097,
			"-0.009": 3.59676451594,
			"-0.008": 6.00373197068,
			"-0.007": 11.6273276956,
			"-0.006": 18.6341927042,
			"-0.005": 21.0940495293,
			"-0.004": 17.5057759665,
			"-0.003": 18.5382331327,
			"-0.002": 14.1967483802,
			"-0.001": 16.8983243195,
			"0.0": 16.8399429377,
			"0.001": 20.5393049257,
			"0.002": 22.8852254533,
			"0.003": 26.3267925869,
			"0.004": 21.8500028297,
			"0.005": 14.0756445136,
			"0.006": 10.2763812904,
			"0.007": 5.74578304259,
			"0.008": 5.3364381049,
			"0.009": 3.98200188803,
			"0.01": 4.13522421569,
			"0.011": 5.68378604381,
			"0.012": 1.58377533491,
			"0.013": 0.629997810684,
			"0.014": 1.23465869887,
			"0.015": 0.625912557981,
			"0.016": 0.810420103655,
			"0.017": 0.388481895619,
			"0.018": 0.0,
			"0.019": 0.0,
			"0.02": 0.0,
			"0.021": 0.0,
			"0.022": 0.0,
			"0.023": 0.0,
			"0.024": 0.0,
			"0.025": 0.0
		}
	}
}
