{
	 "smiles": "COC1=CC=C2C3COC4=CC(O)=CC=C4C3OC2=C1", 
	 "Tm": 401.15, 
	 "num_atms": 34, 
	 "gaussian": { 
		 "optdone": 1, 
		 "sigma_profile": "yes", 
		 "theory": "DFT", 
		 "functional": "B3LYP", 
		 "basiset": "6-31G**", 
		 "properties": { 
			 "R2extent": 6725.0682, 
			 "electric_dipole_moment_norm": 2.30797632787, 
			 "electric_quadrupole_moment_norm": 14.6768407183, 
			 "total_energy": -919.007292392, 
			 "HOMO_LUMO_gap": 0.19412, 
			 "cosmo_polarized_energy": -16.19, 
			 "cosmo_cavitation_energy": 36.82, 
			 "cosmo_dispersion_energy": -27.04, 
			 "cosmo_repulsion_energy": 2.06, 
			 "cosmo_total_nonelectrostatic_energy": 11.83, 
			 "SMD_solvation_energy": 7.04 
		},
		"coords": [
			{
				"x": -4.5246507693,
				"y": 2.2974913815,
				"z": 1.5502397846,
				"element": "C" 
			},
			{
				"x": -3.7154771024,
				"y": 1.2840570383,
				"z": 2.1233214761,
				"element": "O" 
			},
			{
				"x": -2.4665418244,
				"y": 1.0834900229,
				"z": 1.608530771,
				"element": "C" 
			},
			{
				"x": -1.7216940566,
				"y": 0.0599603651,
				"z": 2.2201507555,
				"element": "C" 
			},
			{
				"x": -0.4320143844,
				"y": -0.2317957124,
				"z": 1.7773968921,
				"element": "C" 
			},
			{
				"x": 0.1107234163,
				"y": 0.4905680691,
				"z": 0.7185035575,
				"element": "C" 
			},
			{
				"x": 1.4717529572,
				"y": 0.4757625873,
				"z": 0.0563547001,
				"element": "C" 
			},
			{
				"x": 2.0304473156,
				"y": -0.8903992456,
				"z": -0.3345941843,
				"element": "C" 
			},
			{
				"x": 1.2299824951,
				"y": -1.569123941,
				"z": -1.3000185695,
				"element": "O" 
			},
			{
				"x": 0.9520473863,
				"y": -0.8487991031,
				"z": -2.4285883085,
				"element": "C" 
			},
			{
				"x": 0.636233427,
				"y": -1.5848986259,
				"z": -3.572538501,
				"element": "C" 
			},
			{
				"x": 0.3388528165,
				"y": -0.9171057222,
				"z": -4.7589431299,
				"element": "C" 
			},
			{
				"x": 0.0367153481,
				"y": -1.6816789268,
				"z": -5.8488136599,
				"element": "O" 
			},
			{
				"x": 0.3719268339,
				"y": 0.4847167033,
				"z": -4.8092466689,
				"element": "C" 
			},
			{
				"x": 0.6863917188,
				"y": 1.1970596,
				"z": -3.6576856821,
				"element": "C" 
			},
			{
				"x": 0.9759900487,
				"y": 0.5564867305,
				"z": -2.4472201299,
				"element": "C" 
			},
			{
				"x": 1.2103113765,
				"y": 1.3665617569,
				"z": -1.1922514674,
				"element": "C" 
			},
			{
				"x": 0.0062206492,
				"y": 2.1457972896,
				"z": -0.882849693,
				"element": "O" 
			},
			{
				"x": -0.6469684025,
				"y": 1.4986456177,
				"z": 0.127467041,
				"element": "C" 
			},
			{
				"x": -1.9356318111,
				"y": 1.8243743014,
				"z": 0.5417250531,
				"element": "C" 
			},
			{
				"x": -4.7311351572,
				"y": 2.1010092735,
				"z": 0.4901319385,
				"element": "H" 
			},
			{
				"x": -5.4634100433,
				"y": 2.2846690892,
				"z": 2.1064864703,
				"element": "H" 
			},
			{
				"x": -4.0626242851,
				"y": 3.2887528938,
				"z": 1.6459756403,
				"element": "H" 
			},
			{
				"x": -2.1766703401,
				"y": -0.4883874918,
				"z": 3.0373867954,
				"element": "H" 
			},
			{
				"x": 0.1345530645,
				"y": -1.0228064161,
				"z": 2.2619762202,
				"element": "H" 
			},
			{
				"x": 2.2175983399,
				"y": 0.9543125798,
				"z": 0.7078636992,
				"element": "H" 
			},
			{
				"x": 2.0744814298,
				"y": -1.55603687,
				"z": 0.5311078005,
				"element": "H" 
			},
			{
				"x": 3.0509516817,
				"y": -0.7750678394,
				"z": -0.730141232,
				"element": "H" 
			},
			{
				"x": 0.6278372445,
				"y": -2.6678050273,
				"z": -3.5337406689,
				"element": "H" 
			},
			{
				"x": -0.1412100923,
				"y": -1.1014311953,
				"z": -6.6001759493,
				"element": "H" 
			},
			{
				"x": 0.147444606,
				"y": 1.0059361848,
				"z": -5.7368617825,
				"element": "H" 
			},
			{
				"x": 0.6873870555,
				"y": 2.2834214971,
				"z": -3.6869241525,
				"element": "H" 
			},
			{
				"x": 1.9975036839,
				"y": 2.1089952131,
				"z": -1.3500230261,
				"element": "H" 
			},
			{
				"x": -2.4839246261,
				"y": 2.6123679221,
				"z": 0.0426982104,
				"element": "H" 
			}
		],
		 "valence_orbital": [ 
			{
				"type": "occ",
				"energy": -0.28579,
				"method": "rhf"
			},
			{
				"type": "occ",
				"energy": -0.23238,
				"method": "rhf"
			},
			{
				"type": "occ",
				"energy": -0.22813,
				"method": "rhf"
			},
			{
				"type": "occ",
				"energy": -0.21438,
				"method": "rhf"
			},
			{
				"type": "occ",
				"energy": -0.19806,
				"method": "rhf"
			},
			{
				"type": "unocc",
				"energy": -0.00394,
				"method": "rhf"
			},
			{
				"type": "unocc",
				"energy": 0.00952,
				"method": "rhf"
			},
			{
				"type": "unocc",
				"energy": 0.01213,
				"method": "rhf"
			},
			{
				"type": "unocc",
				"energy": 0.02566,
				"method": "rhf"
			},
			{
				"type": "unocc",
				"energy": 0.07121,
				"method": "rhf"
			}
		],
		"cosmo_sigma_profile": { 
			"-0.025": 0.0,
			"-0.024": 0.0,
			"-0.023": 0.0,
			"-0.022": 0.0,
			"-0.021": 0.0,
			"-0.02": 0.0,
			"-0.019": 0.0,
			"-0.018": 0.450702148602,
			"-0.017": 1.22323308401,
			"-0.016": 0.958486335453,
			"-0.015": 0.911352137172,
			"-0.014": 1.15431079574,
			"-0.013": 0.929562436221,
			"-0.012": 0.778680625376,
			"-0.011": 1.05816515506,
			"-0.01": 1.18018903593,
			"-0.009": 1.23119338698,
			"-0.008": 0.783903317124,
			"-0.007": 3.31650302935,
			"-0.006": 23.0515304632,
			"-0.005": 33.7790454224,
			"-0.004": 23.3351391775,
			"-0.003": 22.1005009202,
			"-0.002": 15.0684710401,
			"-0.001": 11.6295940804,
			"0.0": 12.1276023095,
			"0.001": 11.1812635385,
			"0.002": 14.0123076291,
			"0.003": 18.3950695509,
			"0.004": 27.0745548219,
			"0.005": 24.2540372363,
			"0.006": 13.5744831374,
			"0.007": 7.15546581597,
			"0.008": 5.40665304877,
			"0.009": 5.17538082531,
			"0.01": 6.20480697951,
			"0.011": 4.4642669588,
			"0.012": 0.578069829225,
			"0.013": 0.0,
			"0.014": 0.0,
			"0.015": 0.0,
			"0.016": 0.0,
			"0.017": 0.0,
			"0.018": 0.0,
			"0.019": 0.0,
			"0.02": 0.0,
			"0.021": 0.0,
			"0.022": 0.0,
			"0.023": 0.0,
			"0.024": 0.0,
			"0.025": 0.0
		}
	}
}
