{
	 "smiles": "CCCCCC1CCCC1", 
	 "Tm": 190.15, 
	 "num_atms": 30, 
	 "gaussian": { 
		 "optdone": 1, 
		 "sigma_profile": "yes", 
		 "theory": "DFT", 
		 "functional": "B3LYP", 
		 "basiset": "6-31G**", 
		 "properties": { 
			 "R2extent": 2483.3486, 
			 "electric_dipole_moment_norm": 0.0661910870133, 
			 "electric_quadrupole_moment_norm": 0.820150906846, 
			 "total_energy": -393.142151878, 
			 "HOMO_LUMO_gap": 0.37217, 
			 "cosmo_polarized_energy": -0.69, 
			 "cosmo_cavitation_energy": 29.03, 
			 "cosmo_dispersion_energy": -21.04, 
			 "cosmo_repulsion_energy": 1.74, 
			 "cosmo_total_nonelectrostatic_energy": 9.73, 
			 "SMD_solvation_energy": 3.87 
		},
		"coords": [
			{
				"x": -1.0914023813,
				"y": 3.5719284791,
				"z": -0.7507712881,
				"element": "C" 
			},
			{
				"x": -0.8372279933,
				"y": 3.2297530153,
				"z": 0.7220259645,
				"element": "C" 
			},
			{
				"x": 0.4150952151,
				"y": 2.3687330656,
				"z": 0.9661830348,
				"element": "C" 
			},
			{
				"x": 0.4110769733,
				"y": 0.9698815139,
				"z": 0.3213762095,
				"element": "C" 
			},
			{
				"x": -0.6880810036,
				"y": 0.0408020455,
				"z": 0.8610309006,
				"element": "C" 
			},
			{
				"x": -0.6801629793,
				"y": -1.4099161638,
				"z": 0.3439001623,
				"element": "C" 
			},
			{
				"x": 0.5640536774,
				"y": -2.2568442697,
				"z": 0.681098407,
				"element": "C" 
			},
			{
				"x": 0.4381756152,
				"y": -3.5130018949,
				"z": -0.2154960847,
				"element": "C" 
			},
			{
				"x": -0.4896358536,
				"y": -3.0985336286,
				"z": -1.4002183261,
				"element": "C" 
			},
			{
				"x": -0.8006457642,
				"y": -1.6013894194,
				"z": -1.1808887457,
				"element": "C" 
			},
			{
				"x": -1.2946985473,
				"y": 2.6779031147,
				"z": -1.3495707047,
				"element": "H" 
			},
			{
				"x": -0.2245760126,
				"y": 4.0758143168,
				"z": -1.194529453,
				"element": "H" 
			},
			{
				"x": -1.9531957132,
				"y": 4.2391257626,
				"z": -0.8574236961,
				"element": "H" 
			},
			{
				"x": -0.7270861257,
				"y": 4.1623615578,
				"z": 1.2903144669,
				"element": "H" 
			},
			{
				"x": -1.7213344453,
				"y": 2.7309854978,
				"z": 1.1388910791,
				"element": "H" 
			},
			{
				"x": 0.5586995308,
				"y": 2.2562895352,
				"z": 2.049772882,
				"element": "H" 
			},
			{
				"x": 1.29285894,
				"y": 2.9192402422,
				"z": 0.6001697038,
				"element": "H" 
			},
			{
				"x": 0.3172479486,
				"y": 1.0688905892,
				"z": -0.7669193586,
				"element": "H" 
			},
			{
				"x": 1.3944396989,
				"y": 0.5163253748,
				"z": 0.4967531623,
				"element": "H" 
			},
			{
				"x": -1.6708270625,
				"y": 0.4755253833,
				"z": 0.6357097025,
				"element": "H" 
			},
			{
				"x": -0.6187746249,
				"y": 0.0172075837,
				"z": 1.9583706218,
				"element": "H" 
			},
			{
				"x": -1.5467345963,
				"y": -1.9124869242,
				"z": 0.8016938567,
				"element": "H" 
			},
			{
				"x": 1.4728854806,
				"y": -1.701410262,
				"z": 0.4196172271,
				"element": "H" 
			},
			{
				"x": 0.6338285848,
				"y": -2.5001192961,
				"z": 1.746932872,
				"element": "H" 
			},
			{
				"x": -0.0074289753,
				"y": -4.3422491306,
				"z": 0.3441586418,
				"element": "H" 
			},
			{
				"x": 1.4164146789,
				"y": -3.8616337381,
				"z": -0.5610207372,
				"element": "H" 
			},
			{
				"x": -1.4159626195,
				"y": -3.683038358,
				"z": -1.3759303751,
				"element": "H" 
			},
			{
				"x": -0.0287802969,
				"y": -3.2842846509,
				"z": -2.3753730954,
				"element": "H" 
			},
			{
				"x": -1.7807961609,
				"y": -1.3073528601,
				"z": -1.5725151011,
				"element": "H" 
			},
			{
				"x": -0.0508251878,
				"y": -0.984806481,
				"z": -1.691941929,
				"element": "H" 
			}
		],
		 "valence_orbital": [ 
			{
				"type": "occ",
				"energy": -0.31673,
				"method": "rhf"
			},
			{
				"type": "occ",
				"energy": -0.30792,
				"method": "rhf"
			},
			{
				"type": "occ",
				"energy": -0.30261,
				"method": "rhf"
			},
			{
				"type": "occ",
				"energy": -0.29793,
				"method": "rhf"
			},
			{
				"type": "occ",
				"energy": -0.29292,
				"method": "rhf"
			},
			{
				"type": "unocc",
				"energy": 0.07925,
				"method": "rhf"
			},
			{
				"type": "unocc",
				"energy": 0.0909,
				"method": "rhf"
			},
			{
				"type": "unocc",
				"energy": 0.09999,
				"method": "rhf"
			},
			{
				"type": "unocc",
				"energy": 0.11544,
				"method": "rhf"
			},
			{
				"type": "unocc",
				"energy": 0.12785,
				"method": "rhf"
			}
		],
		"cosmo_sigma_profile": { 
			"-0.025": 0.0,
			"-0.024": 0.0,
			"-0.023": 0.0,
			"-0.022": 0.0,
			"-0.021": 0.0,
			"-0.02": 0.0,
			"-0.019": 0.0,
			"-0.018": 0.0,
			"-0.017": 0.0,
			"-0.016": 0.0,
			"-0.015": 0.0,
			"-0.014": 0.0,
			"-0.013": 0.0,
			"-0.012": 0.0,
			"-0.011": 0.0,
			"-0.01": 0.0,
			"-0.009": 0.0,
			"-0.008": 0.0,
			"-0.007": 0.0,
			"-0.006": 0.0,
			"-0.005": 0.0,
			"-0.004": 0.0,
			"-0.003": 1.94078940083,
			"-0.002": 28.6211395066,
			"-0.001": 47.3272451251,
			"0.0": 63.340929042,
			"0.001": 51.9412603897,
			"0.002": 27.1032666231,
			"0.003": 1.8117842667,
			"0.004": 0.0,
			"0.005": 0.0,
			"0.006": 0.0,
			"0.007": 0.0,
			"0.008": 0.0,
			"0.009": 0.0,
			"0.01": 0.0,
			"0.011": 0.0,
			"0.012": 0.0,
			"0.013": 0.0,
			"0.014": 0.0,
			"0.015": 0.0,
			"0.016": 0.0,
			"0.017": 0.0,
			"0.018": 0.0,
			"0.019": 0.0,
			"0.02": 0.0,
			"0.021": 0.0,
			"0.022": 0.0,
			"0.023": 0.0,
			"0.024": 0.0,
			"0.025": 0.0
		}
	}
}
