{
	 "smiles": "OCC1CN(CCC2=CC=CC=C2)C(=O)C1", 
	 "Tm": 339.15, 
	 "num_atms": 33, 
	 "gaussian": { 
		 "optdone": 1, 
		 "sigma_profile": "yes", 
		 "theory": "DFT", 
		 "functional": "B3LYP", 
		 "basiset": "6-31G**", 
		 "properties": { 
			 "R2extent": 4016.9149, 
			 "electric_dipole_moment_norm": 4.70255981674, 
			 "electric_quadrupole_moment_norm": 11.7151237757, 
			 "total_energy": -710.843402502, 
			 "HOMO_LUMO_gap": 0.22614, 
			 "cosmo_polarized_energy": -16.5, 
			 "cosmo_cavitation_energy": 35.19, 
			 "cosmo_dispersion_energy": -23.57, 
			 "cosmo_repulsion_energy": 1.86, 
			 "cosmo_total_nonelectrostatic_energy": 13.48, 
			 "SMD_solvation_energy": 5.89 
		},
		"coords": [
			{
				"x": -2.9300388357,
				"y": 1.6683349068,
				"z": -0.4618570038,
				"element": "O" 
			},
			{
				"x": -2.0695489557,
				"y": 0.5400116586,
				"z": -0.4983307687,
				"element": "C" 
			},
			{
				"x": -1.5745235395,
				"y": 0.2016965878,
				"z": -1.9139002563,
				"element": "C" 
			},
			{
				"x": -0.5106307934,
				"y": -0.9263751744,
				"z": -1.8711804396,
				"element": "C" 
			},
			{
				"x": 0.7582316652,
				"y": -0.2114027474,
				"z": -1.9368352504,
				"element": "N" 
			},
			{
				"x": 2.05516859,
				"y": -0.8577454636,
				"z": -1.8106463156,
				"element": "C" 
			},
			{
				"x": 2.7275464708,
				"y": -0.6455621589,
				"z": -0.436728199,
				"element": "C" 
			},
			{
				"x": 1.9446541163,
				"y": -1.2031031645,
				"z": 0.731965303,
				"element": "C" 
			},
			{
				"x": 1.8945094549,
				"y": -2.5852458233,
				"z": 0.9698235436,
				"element": "C" 
			},
			{
				"x": 1.1520814116,
				"y": -3.1055620028,
				"z": 2.030184157,
				"element": "C" 
			},
			{
				"x": 0.4448965732,
				"y": -2.2492464584,
				"z": 2.8778574944,
				"element": "C" 
			},
			{
				"x": 0.49102966,
				"y": -0.8719499258,
				"z": 2.6580837208,
				"element": "C" 
			},
			{
				"x": 1.2355637097,
				"y": -0.35599876,
				"z": 1.5943817242,
				"element": "C" 
			},
			{
				"x": 0.6483597684,
				"y": 1.0878276205,
				"z": -2.3657845513,
				"element": "C" 
			},
			{
				"x": 1.5919036581,
				"y": 1.8385226775,
				"z": -2.5697498098,
				"element": "O" 
			},
			{
				"x": -0.8361894627,
				"y": 1.3877122768,
				"z": -2.5632128692,
				"element": "C" 
			},
			{
				"x": -3.7267313955,
				"y": 1.4518940026,
				"z": -0.9639551486,
				"element": "H" 
			},
			{
				"x": -1.2162048352,
				"y": 0.7928365847,
				"z": 0.1393906949,
				"element": "H" 
			},
			{
				"x": -2.5505770883,
				"y": -0.3474228073,
				"z": -0.0569072198,
				"element": "H" 
			},
			{
				"x": -2.4351175874,
				"y": -0.1152894994,
				"z": -2.5153006791,
				"element": "H" 
			},
			{
				"x": -0.5756131977,
				"y": -1.5219292563,
				"z": -0.9531935476,
				"element": "H" 
			},
			{
				"x": -0.6154929935,
				"y": -1.6167819934,
				"z": -2.7218471111,
				"element": "H" 
			},
			{
				"x": 2.7093414492,
				"y": -0.4408909543,
				"z": -2.5836380861,
				"element": "H" 
			},
			{
				"x": 1.9256781842,
				"y": -1.9271150433,
				"z": -2.010975999,
				"element": "H" 
			},
			{
				"x": 2.8870779285,
				"y": 0.4291417967,
				"z": -0.3074054792,
				"element": "H" 
			},
			{
				"x": 3.7195799712,
				"y": -1.113530099,
				"z": -0.4806462627,
				"element": "H" 
			},
			{
				"x": 2.4497193453,
				"y": -3.2600353903,
				"z": 0.3215335264,
				"element": "H" 
			},
			{
				"x": 1.1308272897,
				"y": -4.1787042063,
				"z": 2.1994215345,
				"element": "H" 
			},
			{
				"x": -0.1303866135,
				"y": -2.6524940917,
				"z": 3.7062998842,
				"element": "H" 
			},
			{
				"x": -0.0478995209,
				"y": -0.1963884934,
				"z": 3.316583993,
				"element": "H" 
			},
			{
				"x": 1.2764448878,
				"y": 0.7185992447,
				"z": 1.4349577215,
				"element": "H" 
			},
			{
				"x": -1.1096731506,
				"y": 2.3474728242,
				"z": -2.1190393662,
				"element": "H" 
			},
			{
				"x": -1.0253861643,
				"y": 1.461523333,
				"z": -3.6405489343,
				"element": "H" 
			}
		],
		 "valence_orbital": [ 
			{
				"type": "occ",
				"energy": -0.27351,
				"method": "rhf"
			},
			{
				"type": "occ",
				"energy": -0.25198,
				"method": "rhf"
			},
			{
				"type": "occ",
				"energy": -0.24771,
				"method": "rhf"
			},
			{
				"type": "occ",
				"energy": -0.23709,
				"method": "rhf"
			},
			{
				"type": "occ",
				"energy": -0.23133,
				"method": "rhf"
			},
			{
				"type": "unocc",
				"energy": -0.00519,
				"method": "rhf"
			},
			{
				"type": "unocc",
				"energy": -0.00289,
				"method": "rhf"
			},
			{
				"type": "unocc",
				"energy": 0.03603,
				"method": "rhf"
			},
			{
				"type": "unocc",
				"energy": 0.06836,
				"method": "rhf"
			},
			{
				"type": "unocc",
				"energy": 0.08635,
				"method": "rhf"
			}
		],
		"cosmo_sigma_profile": { 
			"-0.025": 0.0,
			"-0.024": 0.0,
			"-0.023": 0.0,
			"-0.022": 0.0,
			"-0.021": 0.0,
			"-0.02": 0.0,
			"-0.019": 0.0,
			"-0.018": 0.0,
			"-0.017": 0.0,
			"-0.016": 0.117396779839,
			"-0.015": 1.05746124145,
			"-0.014": 1.08075889925,
			"-0.013": 0.840924570596,
			"-0.012": 0.994727050336,
			"-0.011": 1.12266521279,
			"-0.01": 1.06096948989,
			"-0.009": 0.572576693558,
			"-0.008": 1.1958473535,
			"-0.007": 1.45423499321,
			"-0.006": 3.83022421232,
			"-0.005": 20.2532779876,
			"-0.004": 38.3064954246,
			"-0.003": 38.2666142963,
			"-0.002": 26.9355910153,
			"-0.001": 21.5859412656,
			"0.0": 18.1409504038,
			"0.001": 16.357828248,
			"0.002": 11.4697369164,
			"0.003": 11.5340072371,
			"0.004": 9.95469828011,
			"0.005": 10.7000533281,
			"0.006": 8.45368877346,
			"0.007": 3.01568254661,
			"0.008": 2.32288064554,
			"0.009": 2.88464457515,
			"0.01": 2.91753450384,
			"0.011": 1.81505519266,
			"0.012": 2.91556403532,
			"0.013": 3.92795384646,
			"0.014": 7.04153701403,
			"0.015": 3.22615066034,
			"0.016": 0.393015260984,
			"0.017": 0.0,
			"0.018": 0.0,
			"0.019": 0.0,
			"0.02": 0.0,
			"0.021": 0.0,
			"0.022": 0.0,
			"0.023": 0.0,
			"0.024": 0.0,
			"0.025": 0.0
		}
	}
}
