{
	 "smiles": "CCOC(=O)C(=C)C#N", 
	 "Tm": 250.95, 
	 "num_atms": 16, 
	 "gaussian": { 
		 "optdone": 1, 
		 "sigma_profile": "yes", 
		 "theory": "DFT", 
		 "functional": "B3LYP", 
		 "basiset": "6-31G**", 
		 "properties": { 
			 "R2extent": 1961.6052, 
			 "electric_dipole_moment_norm": 2.47511945166, 
			 "electric_quadrupole_moment_norm": 16.6929486317, 
			 "total_energy": -438.025839983, 
			 "HOMO_LUMO_gap": 0.21112, 
			 "cosmo_polarized_energy": -10.36, 
			 "cosmo_cavitation_energy": 21.95, 
			 "cosmo_dispersion_energy": -14.95, 
			 "cosmo_repulsion_energy": 1.26, 
			 "cosmo_total_nonelectrostatic_energy": 8.25, 
			 "SMD_solvation_energy": 7.23 
		},
		"coords": [
			{
				"x": -0.5768331672,
				"y": -0.6572083137,
				"z": 1.9419957791,
				"element": "C" 
			},
			{
				"x": -0.1872345081,
				"y": -1.8461348943,
				"z": 1.0781785478,
				"element": "C" 
			},
			{
				"x": 0.3916473069,
				"y": -1.4103361128,
				"z": -0.1809031133,
				"element": "O" 
			},
			{
				"x": 1.7052653736,
				"y": -1.1470642282,
				"z": -0.1832561276,
				"element": "C" 
			},
			{
				"x": 2.4464361981,
				"y": -1.2485677803,
				"z": 0.7717133083,
				"element": "O" 
			},
			{
				"x": 2.1709484179,
				"y": -0.7048058862,
				"z": -1.5457900661,
				"element": "C" 
			},
			{
				"x": 3.4679701299,
				"y": -0.4082928749,
				"z": -1.7248165385,
				"element": "C" 
			},
			{
				"x": 1.2216108294,
				"y": -0.6100090308,
				"z": -2.6174907563,
				"element": "C" 
			},
			{
				"x": 0.46557974,
				"y": -0.5261491366,
				"z": -3.496764499,
				"element": "N" 
			},
			{
				"x": -1.260375973,
				"y": 0.0067133693,
				"z": 1.4054044566,
				"element": "H" 
			},
			{
				"x": 0.3080911813,
				"y": -0.0907654568,
				"z": 2.2423115536,
				"element": "H" 
			},
			{
				"x": -1.0804263835,
				"y": -1.0110497609,
				"z": 2.8475322375,
				"element": "H" 
			},
			{
				"x": -1.0586062322,
				"y": -2.4322362917,
				"z": 0.7797487794,
				"element": "H" 
			},
			{
				"x": 0.532511889,
				"y": -2.4912789294,
				"z": 1.5870282474,
				"element": "H" 
			},
			{
				"x": 3.8533370244,
				"y": -0.0867453894,
				"z": -2.6854214153,
				"element": "H" 
			},
			{
				"x": 4.1477781735,
				"y": -0.4947692834,
				"z": -0.8839703936,
				"element": "H" 
			}
		],
		 "valence_orbital": [ 
			{
				"type": "occ",
				"energy": -0.3553,
				"method": "rhf"
			},
			{
				"type": "occ",
				"energy": -0.34425,
				"method": "rhf"
			},
			{
				"type": "occ",
				"energy": -0.31722,
				"method": "rhf"
			},
			{
				"type": "occ",
				"energy": -0.29379,
				"method": "rhf"
			},
			{
				"type": "occ",
				"energy": -0.29346,
				"method": "rhf"
			},
			{
				"type": "unocc",
				"energy": -0.08234,
				"method": "rhf"
			},
			{
				"type": "unocc",
				"energy": 0.01384,
				"method": "rhf"
			},
			{
				"type": "unocc",
				"energy": 0.026,
				"method": "rhf"
			},
			{
				"type": "unocc",
				"energy": 0.09986,
				"method": "rhf"
			},
			{
				"type": "unocc",
				"energy": 0.10485,
				"method": "rhf"
			}
		],
		"cosmo_sigma_profile": { 
			"-0.025": 0.0,
			"-0.024": 0.0,
			"-0.023": 0.0,
			"-0.022": 0.0,
			"-0.021": 0.0,
			"-0.02": 0.0,
			"-0.019": 0.0,
			"-0.018": 0.0,
			"-0.017": 0.0,
			"-0.016": 0.0,
			"-0.015": 0.0,
			"-0.014": 0.0,
			"-0.013": 0.0,
			"-0.012": 0.0,
			"-0.011": 0.000742123554576,
			"-0.01": 1.44647527893,
			"-0.009": 2.7973041125,
			"-0.008": 3.69126654473,
			"-0.007": 3.74788661441,
			"-0.006": 7.36950465716,
			"-0.005": 13.6269927885,
			"-0.004": 19.0012456531,
			"-0.003": 20.6435338646,
			"-0.002": 16.7722484137,
			"-0.001": 14.7479975806,
			"0.0": 10.8228230013,
			"0.001": 5.77398699643,
			"0.002": 4.88570604472,
			"0.003": 4.47559842525,
			"0.004": 4.08223347288,
			"0.005": 5.39324348379,
			"0.006": 5.42616562346,
			"0.007": 6.57837259619,
			"0.008": 4.91601781267,
			"0.009": 5.0281904515,
			"0.01": 5.46293534208,
			"0.011": 6.30291830549,
			"0.012": 2.23680839351,
			"0.013": 0.575599889114,
			"0.014": 0.0,
			"0.015": 0.0,
			"0.016": 0.0,
			"0.017": 0.0,
			"0.018": 0.0,
			"0.019": 0.0,
			"0.02": 0.0,
			"0.021": 0.0,
			"0.022": 0.0,
			"0.023": 0.0,
			"0.024": 0.0,
			"0.025": 0.0
		}
	}
}
