{
	 "smiles": "NC1=C(C=C(I)C=C1)C(O)=O", 
	 "Tm": 493.15, 
	 "num_atms": 17, 
	 "gaussian": { 
		 "optdone": 1, 
		 "sigma_profile": "no", 
		 "theory": "DFT", 
		 "functional": "B3LYP", 
		 "basiset": "6-31G**", 
		 "properties": { 
			 "R2extent": 2150.3746, 
			 "electric_dipole_moment_norm": 2.36381861614, 
			 "electric_quadrupole_moment_norm": 10.2908262671, 
			 "total_energy": -486.97455155, 
			 "HOMO_LUMO_gap": 0.15703, 
			 "cosmo_polarized_energy": -98932.91, 
			 "cosmo_cavitation_energy": 24.51, 
			 "cosmo_dispersion_energy": -19.96, 
			 "cosmo_repulsion_energy": 1.57, 
			 "cosmo_total_nonelectrostatic_energy": 6.12, 
			 "SMD_solvation_energy": 4.34 
		},
		"coords": [
			{
				"x": 0.6905117652,
				"y": 2.1675649072,
				"z": -0.0746482118,
				"element": "N" 
			},
			{
				"x": -0.2072782565,
				"y": 1.1830265489,
				"z": -0.3395870034,
				"element": "C" 
			},
			{
				"x": 0.109157819,
				"y": 0.0743115753,
				"z": -1.1804647001,
				"element": "C" 
			},
			{
				"x": -0.8649094049,
				"y": -0.9106211684,
				"z": -1.4400891431,
				"element": "C" 
			},
			{
				"x": -2.1295869053,
				"y": -0.8203298174,
				"z": -0.8860217283,
				"element": "C" 
			},
			{
				"x": -3.5811478621,
				"y": -2.3122631962,
				"z": -1.2873076467,
				"element": "I" 
			},
			{
				"x": -2.4527618021,
				"y": 0.263417934,
				"z": -0.0528913247,
				"element": "C" 
			},
			{
				"x": -1.510483875,
				"y": 1.2401284811,
				"z": 0.2115421042,
				"element": "C" 
			},
			{
				"x": 1.4510226656,
				"y": -0.0473598566,
				"z": -1.7678054104,
				"element": "C" 
			},
			{
				"x": 1.6113739162,
				"y": -1.1419714509,
				"z": -2.549938889,
				"element": "O" 
			},
			{
				"x": 2.3807315773,
				"y": 0.7366772328,
				"z": -1.5991259268,
				"element": "O" 
			},
			{
				"x": 0.4637495676,
				"y": 2.8902815394,
				"z": 0.5869130521,
				"element": "H" 
			},
			{
				"x": 1.6303793825,
				"y": 2.0696386679,
				"z": -0.4368239273,
				"element": "H" 
			},
			{
				"x": -0.5978489907,
				"y": -1.7402394502,
				"z": -2.0817725597,
				"element": "H" 
			},
			{
				"x": -3.4412970134,
				"y": 0.340940049,
				"z": 0.3868553654,
				"element": "H" 
			},
			{
				"x": -1.7706351123,
				"y": 2.0764068801,
				"z": 0.8550272235,
				"element": "H" 
			},
			{
				"x": 2.5280225288,
				"y": -1.1039088761,
				"z": -2.8677612739,
				"element": "H" 
			}
		],
		 "valence_orbital": [ 
			{
				"type": "occ",
				"energy": -0.28505,
				"method": "rhf"
			},
			{
				"type": "occ",
				"energy": -0.27046,
				"method": "rhf"
			},
			{
				"type": "occ",
				"energy": -0.26808,
				"method": "rhf"
			},
			{
				"type": "occ",
				"energy": -0.26482,
				"method": "rhf"
			},
			{
				"type": "occ",
				"energy": -0.20874,
				"method": "rhf"
			},
			{
				"type": "unocc",
				"energy": -0.05171,
				"method": "rhf"
			},
			{
				"type": "unocc",
				"energy": -0.03459,
				"method": "rhf"
			},
			{
				"type": "unocc",
				"energy": -0.00228,
				"method": "rhf"
			},
			{
				"type": "unocc",
				"energy": 0.04489,
				"method": "rhf"
			},
			{
				"type": "unocc",
				"energy": 0.04557,
				"method": "rhf"
			}
		],
		"cosmo_sigma_profile": { 
			"0.0": 0.0,
			"0.0": 0.0,
			"0.0": 0.0,
			"0.0": 0.0,
			"0.0": 0.0,
			"0.0": 0.0,
			"0.0": 0.0,
			"0.0": 0.0,
			"0.0": 0.0,
			"0.0": 0.0,
			"0.0": 0.0,
			"0.0": 0.0,
			"0.0": 0.0,
			"0.0": 0.0,
			"0.0": 0.0,
			"0.0": 0.0,
			"0.0": 0.0,
			"0.0": 0.0,
			"0.0": 0.0,
			"0.0": 0.0,
			"0.0": 0.0,
			"0.0": 0.0,
			"0.0": 0.0,
			"0.0": 0.0,
			"0.0": 0.0,
			"0.0": 0.0,
			"0.0": 0.0,
			"0.0": 0.0,
			"0.0": 0.0,
			"0.0": 0.0,
			"0.0": 0.0,
			"0.0": 0.0,
			"0.0": 0.0,
			"0.0": 0.0,
			"0.0": 0.0,
			"0.0": 0.0,
			"0.0": 0.0,
			"0.0": 0.0,
			"0.0": 0.0,
			"0.0": 0.0,
			"0.0": 0.0,
			"0.0": 0.0,
			"0.0": 0.0,
			"0.0": 0.0,
			"0.0": 0.0,
			"0.0": 0.0,
			"0.0": 0.0,
			"0.0": 0.0,
			"0.0": 0.0,
			"0.0": 0.0,
			"0.0": 0.0
		}
	}
}
