{
	 "smiles": "CC(C)NC(=O)CN(C)CC(N)=S", 
	 "Tm": 414.15, 
	 "num_atms": 30, 
	 "gaussian": { 
		 "optdone": 1, 
		 "sigma_profile": "yes", 
		 "theory": "DFT", 
		 "functional": "B3LYP", 
		 "basiset": "6-31G**", 
		 "properties": { 
			 "R2extent": 4760.8852, 
			 "electric_dipole_moment_norm": 8.5170780459, 
			 "electric_quadrupole_moment_norm": 22.462369645, 
			 "total_energy": -952.781231902, 
			 "HOMO_LUMO_gap": 0.17615, 
			 "cosmo_polarized_energy": -19.52, 
			 "cosmo_cavitation_energy": 33.16, 
			 "cosmo_dispersion_energy": -23.54, 
			 "cosmo_repulsion_energy": 1.86, 
			 "cosmo_total_nonelectrostatic_energy": 11.48, 
			 "SMD_solvation_energy": 4.36 
		},
		"coords": [
			{
				"x": -1.8230672363,
				"y": -2.3142798657,
				"z": 0.5770586522,
				"element": "C" 
			},
			{
				"x": -0.6298803091,
				"y": -2.7243503889,
				"z": -0.2978935807,
				"element": "C" 
			},
			{
				"x": 0.6732799912,
				"y": -2.8641169412,
				"z": 0.505511174,
				"element": "C" 
			},
			{
				"x": -0.4690947866,
				"y": -1.8986435292,
				"z": -1.5113973242,
				"element": "N" 
			},
			{
				"x": -0.2664733903,
				"y": -0.5627172662,
				"z": -1.7134572518,
				"element": "C" 
			},
			{
				"x": -0.0315025373,
				"y": -0.1482113471,
				"z": -2.848861509,
				"element": "O" 
			},
			{
				"x": -0.392749354,
				"y": 0.3968740419,
				"z": -0.5170708543,
				"element": "C" 
			},
			{
				"x": 0.0778609673,
				"y": 1.7202465702,
				"z": -0.8528330649,
				"element": "N" 
			},
			{
				"x": -0.5498532206,
				"y": 2.7969242637,
				"z": -0.0993929936,
				"element": "C" 
			},
			{
				"x": 1.5306597747,
				"y": 1.8649932678,
				"z": -0.9342039788,
				"element": "C" 
			},
			{
				"x": 1.9683382616,
				"y": 2.7290726235,
				"z": -2.1209331413,
				"element": "C" 
			},
			{
				"x": 1.2589052674,
				"y": 2.4930172146,
				"z": -3.2266253622,
				"element": "N" 
			},
			{
				"x": 3.2458899099,
				"y": 3.7970512377,
				"z": -2.0125255267,
				"element": "S" 
			},
			{
				"x": -1.6381522149,
				"y": -1.3873718128,
				"z": 1.1261091126,
				"element": "H" 
			},
			{
				"x": -2.017222079,
				"y": -3.0963742413,
				"z": 1.3176182429,
				"element": "H" 
			},
			{
				"x": -2.7246059956,
				"y": -2.1866394208,
				"z": -0.0289157406,
				"element": "H" 
			},
			{
				"x": -0.8669883334,
				"y": -3.7154619177,
				"z": -0.7008112932,
				"element": "H" 
			},
			{
				"x": 1.4909403801,
				"y": -3.2029097685,
				"z": -0.1369845165,
				"element": "H" 
			},
			{
				"x": 0.9727289866,
				"y": -1.9173091458,
				"z": 0.9650399563,
				"element": "H" 
			},
			{
				"x": 0.5433967977,
				"y": -3.595972315,
				"z": 1.3094447584,
				"element": "H" 
			},
			{
				"x": -0.3628051837,
				"y": -2.4082124583,
				"z": -2.3796069319,
				"element": "H" 
			},
			{
				"x": -1.460337408,
				"y": 0.4605980672,
				"z": -0.2761131744,
				"element": "H" 
			},
			{
				"x": 0.095967874,
				"y": -0.037880384,
				"z": 0.3727354284,
				"element": "H" 
			},
			{
				"x": -0.2226937472,
				"y": 3.7582170013,
				"z": -0.5058966098,
				"element": "H" 
			},
			{
				"x": -1.6381773898,
				"y": 2.7414980833,
				"z": -0.2032435697,
				"element": "H" 
			},
			{
				"x": -0.3013220798,
				"y": 2.7859164068,
				"z": 0.9779398153,
				"element": "H" 
			},
			{
				"x": 1.9698399775,
				"y": 2.2833812697,
				"z": -0.0189599484,
				"element": "H" 
			},
			{
				"x": 1.9817906299,
				"y": 0.8777661202,
				"z": -1.0897414066,
				"element": "H" 
			},
			{
				"x": 1.5203656012,
				"y": 2.9550888972,
				"z": -4.0848060835,
				"element": "H" 
			},
			{
				"x": 0.5559608464,
				"y": 1.7522057372,
				"z": -3.2153832779,
				"element": "H" 
			}
		],
		 "valence_orbital": [ 
			{
				"type": "occ",
				"energy": -0.27008,
				"method": "rhf"
			},
			{
				"type": "occ",
				"energy": -0.26537,
				"method": "rhf"
			},
			{
				"type": "occ",
				"energy": -0.22585,
				"method": "rhf"
			},
			{
				"type": "occ",
				"energy": -0.20914,
				"method": "rhf"
			},
			{
				"type": "occ",
				"energy": -0.18771,
				"method": "rhf"
			},
			{
				"type": "unocc",
				"energy": -0.01156,
				"method": "rhf"
			},
			{
				"type": "unocc",
				"energy": 0.00793,
				"method": "rhf"
			},
			{
				"type": "unocc",
				"energy": 0.05125,
				"method": "rhf"
			},
			{
				"type": "unocc",
				"energy": 0.06904,
				"method": "rhf"
			},
			{
				"type": "unocc",
				"energy": 0.09317,
				"method": "rhf"
			}
		],
		"cosmo_sigma_profile": { 
			"-0.025": 0.0,
			"-0.024": 0.0,
			"-0.023": 0.0,
			"-0.022": 0.0,
			"-0.021": 0.0,
			"-0.02": 0.0,
			"-0.019": 0.0,
			"-0.018": 0.0,
			"-0.017": 0.0,
			"-0.016": 0.0,
			"-0.015": 0.172700638075,
			"-0.014": 1.03544705428,
			"-0.013": 2.14066082194,
			"-0.012": 2.27136524202,
			"-0.011": 2.50315378712,
			"-0.01": 2.12430138694,
			"-0.009": 1.57931358962,
			"-0.008": 2.27190739348,
			"-0.007": 4.88187709471,
			"-0.006": 10.6383617509,
			"-0.005": 14.6002888194,
			"-0.004": 21.8192134081,
			"-0.003": 30.3687199087,
			"-0.002": 27.9182562233,
			"-0.001": 26.0106942003,
			"0.0": 22.0245619843,
			"0.001": 12.4195695922,
			"0.002": 6.45457556578,
			"0.003": 6.87524091741,
			"0.004": 6.74121095183,
			"0.005": 5.25050390299,
			"0.006": 6.26925247021,
			"0.007": 5.87981649866,
			"0.008": 6.09035725653,
			"0.009": 7.46959588125,
			"0.01": 8.49228835179,
			"0.011": 6.33461545593,
			"0.012": 5.64962048218,
			"0.013": 3.76091247498,
			"0.014": 1.15005840308,
			"0.015": 0.0,
			"0.016": 0.0,
			"0.017": 0.0,
			"0.018": 0.0,
			"0.019": 0.0,
			"0.02": 0.0,
			"0.021": 0.0,
			"0.022": 0.0,
			"0.023": 0.0,
			"0.024": 0.0,
			"0.025": 0.0
		}
	}
}
