{
	 "smiles": "C[C@]12CCC3C(CC[C@H]4CCCC[C@]34C)C1CC[C@@H]2OCC1=CC=CC=C1", 
	 "Tm": 433.15, 
	 "num_atms": 65, 
	 "gaussian": { 
		 "optdone": 1, 
		 "sigma_profile": "yes", 
		 "theory": "DFT", 
		 "functional": "B3LYP", 
		 "basiset": "6-31G**", 
		 "properties": { 
			 "R2extent": 15710.5473, 
			 "electric_dipole_moment_norm": 0.907905578791, 
			 "electric_quadrupole_moment_norm": 5.41000910166, 
			 "total_energy": -1088.90924239, 
			 "HOMO_LUMO_gap": 0.23906, 
			 "cosmo_polarized_energy": -5.36, 
			 "cosmo_cavitation_energy": 55.28, 
			 "cosmo_dispersion_energy": -38.32, 
			 "cosmo_repulsion_energy": 2.82, 
			 "cosmo_total_nonelectrostatic_energy": 19.78, 
			 "SMD_solvation_energy": 7.31 
		},
		"coords": [
			{
				"x": 0.3689205344,
				"y": -0.5246209756,
				"z": 1.42035305,
				"element": "C" 
			},
			{
				"x": 0.4607439174,
				"y": 0.4050267406,
				"z": 0.1982411922,
				"element": "C" 
			},
			{
				"x": -0.8829345491,
				"y": 1.1812377625,
				"z": -0.0222626307,
				"element": "C" 
			},
			{
				"x": -1.7787998477,
				"y": 0.6421540219,
				"z": -1.1664609702,
				"element": "C" 
			},
			{
				"x": -1.6727890577,
				"y": -0.8924141355,
				"z": -1.2431626107,
				"element": "C" 
			},
			{
				"x": -0.2275129607,
				"y": -1.2795228921,
				"z": -1.7019823369,
				"element": "C" 
			},
			{
				"x": -0.0831026165,
				"y": -1.4110927558,
				"z": -3.2347390644,
				"element": "C" 
			},
			{
				"x": -1.1799455249,
				"y": -2.2544644788,
				"z": -3.8885694766,
				"element": "C" 
			},
			{
				"x": -2.5630979467,
				"y": -1.6929291605,
				"z": -3.5382678307,
				"element": "C" 
			},
			{
				"x": -3.6956068383,
				"y": -2.3874105798,
				"z": -4.3184502375,
				"element": "C" 
			},
			{
				"x": -5.0759060234,
				"y": -1.7984802105,
				"z": -3.9923307429,
				"element": "C" 
			},
			{
				"x": -5.3403720459,
				"y": -1.7824120401,
				"z": -2.479703563,
				"element": "C" 
			},
			{
				"x": -4.2006992409,
				"y": -1.0696256517,
				"z": -1.7330418891,
				"element": "C" 
			},
			{
				"x": -2.8030399943,
				"y": -1.6890101702,
				"z": -1.9980331644,
				"element": "C" 
			},
			{
				"x": -2.7908613451,
				"y": -3.1282232279,
				"z": -1.418136928,
				"element": "C" 
			},
			{
				"x": 0.8676138162,
				"y": -0.3259601338,
				"z": -1.1124148294,
				"element": "C" 
			},
			{
				"x": 1.3909786104,
				"y": 0.8263420784,
				"z": -2.0226536145,
				"element": "C" 
			},
			{
				"x": 1.8857854358,
				"y": 1.9445507767,
				"z": -1.0664165502,
				"element": "C" 
			},
			{
				"x": 1.6097576525,
				"y": 1.4335782696,
				"z": 0.3649068024,
				"element": "C" 
			},
			{
				"x": 2.7375471862,
				"y": 0.7544982264,
				"z": 0.9303591219,
				"element": "O" 
			},
			{
				"x": 3.7655840756,
				"y": 1.5764478524,
				"z": 1.4575511706,
				"element": "C" 
			},
			{
				"x": 4.9483946558,
				"y": 1.7845258023,
				"z": 0.5256829626,
				"element": "C" 
			},
			{
				"x": 5.3514088154,
				"y": 0.7694880819,
				"z": -0.3513078358,
				"element": "C" 
			},
			{
				"x": 6.4745468598,
				"y": 0.9379927236,
				"z": -1.1612878806,
				"element": "C" 
			},
			{
				"x": 7.2148318333,
				"y": 2.1213366621,
				"z": -1.1008143405,
				"element": "C" 
			},
			{
				"x": 6.8209766924,
				"y": 3.1369132898,
				"z": -0.2282518851,
				"element": "C" 
			},
			{
				"x": 5.6925316497,
				"y": 2.968681367,
				"z": 0.5769284261,
				"element": "C" 
			},
			{
				"x": 1.3056208411,
				"y": -1.0645135754,
				"z": 1.5707143723,
				"element": "H" 
			},
			{
				"x": -0.4385592117,
				"y": -1.2544142269,
				"z": 1.3172777547,
				"element": "H" 
			},
			{
				"x": 0.1703154029,
				"y": 0.0555358412,
				"z": 2.329536249,
				"element": "H" 
			},
			{
				"x": -0.6868402828,
				"y": 2.2450177488,
				"z": -0.2010373846,
				"element": "H" 
			},
			{
				"x": -1.4535128704,
				"y": 1.1416053834,
				"z": 0.9135956326,
				"element": "H" 
			},
			{
				"x": -2.8033424454,
				"y": 0.9663230519,
				"z": -0.9674628298,
				"element": "H" 
			},
			{
				"x": -1.4999378477,
				"y": 1.0971231938,
				"z": -2.1244490794,
				"element": "H" 
			},
			{
				"x": -1.7722433832,
				"y": -1.2283631518,
				"z": -0.2028835406,
				"element": "H" 
			},
			{
				"x": -0.0231993717,
				"y": -2.2745884913,
				"z": -1.2867496642,
				"element": "H" 
			},
			{
				"x": 0.9085075456,
				"y": -1.8221304849,
				"z": -3.4644370648,
				"element": "H" 
			},
			{
				"x": -0.1132653217,
				"y": -0.4191066082,
				"z": -3.6993529902,
				"element": "H" 
			},
			{
				"x": -1.0453721051,
				"y": -2.2513325502,
				"z": -4.9782383775,
				"element": "H" 
			},
			{
				"x": -1.1051672065,
				"y": -3.3042360763,
				"z": -3.5759528217,
				"element": "H" 
			},
			{
				"x": -2.5675068194,
				"y": -0.63624235,
				"z": -3.8545277242,
				"element": "H" 
			},
			{
				"x": -3.6928495431,
				"y": -3.4643687106,
				"z": -4.1035754196,
				"element": "H" 
			},
			{
				"x": -3.4943898062,
				"y": -2.2958037942,
				"z": -5.3937388264,
				"element": "H" 
			},
			{
				"x": -5.8622557628,
				"y": -2.356783442,
				"z": -4.514890563,
				"element": "H" 
			},
			{
				"x": -5.1225783763,
				"y": -0.7674997411,
				"z": -4.3718554052,
				"element": "H" 
			},
			{
				"x": -6.2889757496,
				"y": -1.2734207654,
				"z": -2.2688574687,
				"element": "H" 
			},
			{
				"x": -5.4583226697,
				"y": -2.8093969257,
				"z": -2.1122683621,
				"element": "H" 
			},
			{
				"x": -4.4016011204,
				"y": -1.0563405209,
				"z": -0.6530078958,
				"element": "H" 
			},
			{
				"x": -4.2004850901,
				"y": -0.0235424043,
				"z": -2.0620311482,
				"element": "H" 
			},
			{
				"x": -3.461747229,
				"y": -3.8062424868,
				"z": -1.9505532746,
				"element": "H" 
			},
			{
				"x": -3.1125371196,
				"y": -3.1090535285,
				"z": -0.3705720289,
				"element": "H" 
			},
			{
				"x": -1.7950350058,
				"y": -3.5771856708,
				"z": -1.4425382005,
				"element": "H" 
			},
			{
				"x": 1.7397898848,
				"y": -0.945334754,
				"z": -0.87056873,
				"element": "H" 
			},
			{
				"x": 2.1851748836,
				"y": 0.4749811458,
				"z": -2.6876711994,
				"element": "H" 
			},
			{
				"x": 0.6030202766,
				"y": 1.2215487467,
				"z": -2.6680087384,
				"element": "H" 
			},
			{
				"x": 2.9457802061,
				"y": 2.1702379192,
				"z": -1.1942065721,
				"element": "H" 
			},
			{
				"x": 1.3416728861,
				"y": 2.8778503146,
				"z": -1.2460716294,
				"element": "H" 
			},
			{
				"x": 1.3194032594,
				"y": 2.2470662096,
				"z": 1.0486866083,
				"element": "H" 
			},
			{
				"x": 4.1185186889,
				"y": 1.0691573919,
				"z": 2.3666029982,
				"element": "H" 
			},
			{
				"x": 3.3634711364,
				"y": 2.5506325149,
				"z": 1.7736560954,
				"element": "H" 
			},
			{
				"x": 4.7689794612,
				"y": -0.1453374121,
				"z": -0.3981816436,
				"element": "H" 
			},
			{
				"x": 6.7738896787,
				"y": 0.1441420559,
				"z": -1.8402778112,
				"element": "H" 
			},
			{
				"x": 8.0893987808,
				"y": 2.2518917347,
				"z": -1.731783865,
				"element": "H" 
			},
			{
				"x": 7.3860339233,
				"y": 4.0637053783,
				"z": -0.1797252258,
				"element": "H" 
			},
			{
				"x": 5.3862937395,
				"y": 3.7672117984,
				"z": 1.24947143,
				"element": "H" 
			}
		],
		 "valence_orbital": [ 
			{
				"type": "occ",
				"energy": -0.26279,
				"method": "rhf"
			},
			{
				"type": "occ",
				"energy": -0.26133,
				"method": "rhf"
			},
			{
				"type": "occ",
				"energy": -0.24799,
				"method": "rhf"
			},
			{
				"type": "occ",
				"energy": -0.24372,
				"method": "rhf"
			},
			{
				"type": "occ",
				"energy": -0.23877,
				"method": "rhf"
			},
			{
				"type": "unocc",
				"energy": 0.00029,
				"method": "rhf"
			},
			{
				"type": "unocc",
				"energy": 0.00143,
				"method": "rhf"
			},
			{
				"type": "unocc",
				"energy": 0.07287,
				"method": "rhf"
			},
			{
				"type": "unocc",
				"energy": 0.07711,
				"method": "rhf"
			},
			{
				"type": "unocc",
				"energy": 0.08957,
				"method": "rhf"
			}
		],
		"cosmo_sigma_profile": { 
			"-0.025": 0.0,
			"-0.024": 0.0,
			"-0.023": 0.0,
			"-0.022": 0.0,
			"-0.021": 0.0,
			"-0.02": 0.0,
			"-0.019": 0.0,
			"-0.018": 0.0,
			"-0.017": 0.0,
			"-0.016": 0.0,
			"-0.015": 0.0,
			"-0.014": 0.0,
			"-0.013": 0.0,
			"-0.012": 0.0,
			"-0.011": 0.0,
			"-0.01": 0.0,
			"-0.009": 0.0,
			"-0.008": 0.0,
			"-0.007": 0.0,
			"-0.006": 2.10824321121,
			"-0.005": 12.1470656784,
			"-0.004": 16.0806735518,
			"-0.003": 26.2072820035,
			"-0.002": 49.3085527709,
			"-0.001": 76.7219637272,
			"0.0": 82.3486097517,
			"0.001": 67.9741565181,
			"0.002": 42.7451239721,
			"0.003": 13.1162260814,
			"0.004": 10.3177223563,
			"0.005": 10.4216525896,
			"0.006": 9.59824303946,
			"0.007": 2.89528017217,
			"0.008": 1.87920580844,
			"0.009": 1.25172743828,
			"0.01": 0.369162567911,
			"0.011": 0.00649178864159,
			"0.012": 0.0,
			"0.013": 0.0,
			"0.014": 0.0,
			"0.015": 0.0,
			"0.016": 0.0,
			"0.017": 0.0,
			"0.018": 0.0,
			"0.019": 0.0,
			"0.02": 0.0,
			"0.021": 0.0,
			"0.022": 0.0,
			"0.023": 0.0,
			"0.024": 0.0,
			"0.025": 0.0
		}
	}
}
