{
	 "smiles": "CC1=C(C)C=C2N(CC3=CC=C(F)C=C3)C=NC2=C1", 
	 "Tm": 409.15, 
	 "num_atms": 34, 
	 "gaussian": { 
		 "optdone": 1, 
		 "sigma_profile": "yes", 
		 "theory": "DFT", 
		 "functional": "B3LYP", 
		 "basiset": "6-31G**", 
		 "properties": { 
			 "R2extent": 6071.9533, 
			 "electric_dipole_moment_norm": 2.94977278108, 
			 "electric_quadrupole_moment_norm": 14.6662063258, 
			 "total_energy": -828.102685461, 
			 "HOMO_LUMO_gap": 0.19136, 
			 "cosmo_polarized_energy": -12.91, 
			 "cosmo_cavitation_energy": 38.12, 
			 "cosmo_dispersion_energy": -26.26, 
			 "cosmo_repulsion_energy": 1.98, 
			 "cosmo_total_nonelectrostatic_energy": 13.85, 
			 "SMD_solvation_energy": 5.05 
		},
		"coords": [
			{
				"x": -3.9556797629,
				"y": 0.760125871,
				"z": 2.7849162099,
				"element": "C" 
			},
			{
				"x": -2.8556643278,
				"y": 0.0312236431,
				"z": 2.0471121672,
				"element": "C" 
			},
			{
				"x": -2.6857309462,
				"y": 0.2284717873,
				"z": 0.6434436235,
				"element": "C" 
			},
			{
				"x": -3.6026234869,
				"y": 1.1672241516,
				"z": -0.1060845021,
				"element": "C" 
			},
			{
				"x": -1.6732035616,
				"y": -0.4372764075,
				"z": -0.0485159432,
				"element": "C" 
			},
			{
				"x": -0.8408399606,
				"y": -1.2977421792,
				"z": 0.6701538427,
				"element": "C" 
			},
			{
				"x": 0.2301799,
				"y": -2.1019502337,
				"z": 0.3017744783,
				"element": "N" 
			},
			{
				"x": 0.782043296,
				"y": -2.2838810819,
				"z": -1.0302112479,
				"element": "C" 
			},
			{
				"x": 1.4750285845,
				"y": -1.0552974198,
				"z": -1.5982621632,
				"element": "C" 
			},
			{
				"x": 1.3507902187,
				"y": -0.7509785598,
				"z": -2.9585266006,
				"element": "C" 
			},
			{
				"x": 2.0183712328,
				"y": 0.3400196549,
				"z": -3.5167185631,
				"element": "C" 
			},
			{
				"x": 2.8083833385,
				"y": 1.1286209966,
				"z": -2.6894868439,
				"element": "C" 
			},
			{
				"x": 3.453477216,
				"y": 2.1895131472,
				"z": -3.2161954966,
				"element": "F" 
			},
			{
				"x": 2.9483080511,
				"y": 0.8592427915,
				"z": -1.3318705586,
				"element": "C" 
			},
			{
				"x": 2.2788056899,
				"y": -0.2379453039,
				"z": -0.7933487117,
				"element": "C" 
			},
			{
				"x": 0.6457669037,
				"y": -2.7276347384,
				"z": 1.4610909288,
				"element": "C" 
			},
			{
				"x": -0.0435338666,
				"y": -2.405125128,
				"z": 2.524392375,
				"element": "N" 
			},
			{
				"x": -0.9932824307,
				"y": -1.5034460115,
				"z": 2.05790604,
				"element": "C" 
			},
			{
				"x": -2.0106012828,
				"y": -0.829752048,
				"z": 2.744343709,
				"element": "C" 
			},
			{
				"x": -4.9479357018,
				"y": 0.514826939,
				"z": 2.3863290951,
				"element": "H" 
			},
			{
				"x": -3.9519066208,
				"y": 0.500419218,
				"z": 3.8466834426,
				"element": "H" 
			},
			{
				"x": -3.8474100728,
				"y": 1.849221692,
				"z": 2.7088612227,
				"element": "H" 
			},
			{
				"x": -3.551602077,
				"y": 2.1889316916,
				"z": 0.2899110066,
				"element": "H" 
			},
			{
				"x": -4.6520094654,
				"y": 0.8557204012,
				"z": -0.0339470921,
				"element": "H" 
			},
			{
				"x": -3.3412321422,
				"y": 1.209815504,
				"z": -1.1668561899,
				"element": "H" 
			},
			{
				"x": -1.5389345996,
				"y": -0.2739855929,
				"z": -1.1136826598,
				"element": "H" 
			},
			{
				"x": 1.4880310041,
				"y": -3.1204097189,
				"z": -0.9649549535,
				"element": "H" 
			},
			{
				"x": -0.0173079754,
				"y": -2.6019112423,
				"z": -1.7102098449,
				"element": "H" 
			},
			{
				"x": 0.7248108075,
				"y": -1.3718284335,
				"z": -3.5948318182,
				"element": "H" 
			},
			{
				"x": 1.927680709,
				"y": 0.587297425,
				"z": -4.5687809508,
				"element": "H" 
			},
			{
				"x": 3.5691929619,
				"y": 1.5037764736,
				"z": -0.7191719926,
				"element": "H" 
			},
			{
				"x": 2.3731544577,
				"y": -0.4528818828,
				"z": 0.2669326473,
				"element": "H" 
			},
			{
				"x": 1.4760471738,
				"y": -3.4239762094,
				"z": 1.4416245009,
				"element": "H" 
			},
			{
				"x": -2.1336732641,
				"y": -0.9843291961,
				"z": 3.812280843,
				"element": "H" 
			}
		],
		 "valence_orbital": [ 
			{
				"type": "occ",
				"energy": -0.26929,
				"method": "rhf"
			},
			{
				"type": "occ",
				"energy": -0.26431,
				"method": "rhf"
			},
			{
				"type": "occ",
				"energy": -0.24903,
				"method": "rhf"
			},
			{
				"type": "occ",
				"energy": -0.21531,
				"method": "rhf"
			},
			{
				"type": "occ",
				"energy": -0.21286,
				"method": "rhf"
			},
			{
				"type": "unocc",
				"energy": -0.0215,
				"method": "rhf"
			},
			{
				"type": "unocc",
				"energy": -0.01176,
				"method": "rhf"
			},
			{
				"type": "unocc",
				"energy": -0.00746,
				"method": "rhf"
			},
			{
				"type": "unocc",
				"energy": 0.02418,
				"method": "rhf"
			},
			{
				"type": "unocc",
				"energy": 0.05877,
				"method": "rhf"
			}
		],
		"cosmo_sigma_profile": { 
			"-0.025": 0.0,
			"-0.024": 0.0,
			"-0.023": 0.0,
			"-0.022": 0.0,
			"-0.021": 0.0,
			"-0.02": 0.0,
			"-0.019": 0.0,
			"-0.018": 0.0,
			"-0.017": 0.0,
			"-0.016": 0.0,
			"-0.015": 0.0,
			"-0.014": 0.0,
			"-0.013": 0.0,
			"-0.012": 0.0,
			"-0.011": 0.0,
			"-0.01": 0.647751088849,
			"-0.009": 3.4562087687,
			"-0.008": 3.61008670222,
			"-0.007": 9.47499933969,
			"-0.006": 13.4894589765,
			"-0.005": 18.1533489627,
			"-0.004": 26.8410834988,
			"-0.003": 25.602250335,
			"-0.002": 21.2587570182,
			"-0.001": 20.0012585488,
			"0.0": 28.767997654,
			"0.001": 25.0564180463,
			"0.002": 19.8880034432,
			"0.003": 20.6284045694,
			"0.004": 26.7151165695,
			"0.005": 15.9190354072,
			"0.006": 9.25675037467,
			"0.007": 1.90654174375,
			"0.008": 1.62715537708,
			"0.009": 1.671619781,
			"0.01": 1.26743154133,
			"0.011": 1.09263062887,
			"0.012": 1.61455498708,
			"0.013": 0.888985182543,
			"0.014": 1.11013153553,
			"0.015": 0.912269917337,
			"0.016": 1.42355131877,
			"0.017": 0.99113661009,
			"0.018": 0.519720172069,
			"0.019": 0.0,
			"0.02": 0.0,
			"0.021": 0.0,
			"0.022": 0.0,
			"0.023": 0.0,
			"0.024": 0.0,
			"0.025": 0.0
		}
	}
}
