{
	 "smiles": "CN1C2=C(C(C)=C(C)S2)C(=O)CS1(=O)=O", 
	 "Tm": 396.15, 
	 "num_atms": 26, 
	 "gaussian": { 
		 "optdone": 1, 
		 "sigma_profile": "yes", 
		 "theory": "DFT", 
		 "functional": "B3LYP", 
		 "basiset": "6-31G**", 
		 "properties": { 
			 "R2extent": 3870.5233, 
			 "electric_dipole_moment_norm": 4.46391776582, 
			 "electric_quadrupole_moment_norm": 8.80586005056, 
			 "total_energy": -1426.30857281, 
			 "HOMO_LUMO_gap": 0.15795, 
			 "cosmo_polarized_energy": -14.32, 
			 "cosmo_cavitation_energy": 31.18, 
			 "cosmo_dispersion_energy": -23.73, 
			 "cosmo_repulsion_energy": 1.74, 
			 "cosmo_total_nonelectrostatic_energy": 9.2, 
			 "SMD_solvation_energy": 4.53 
		},
		"coords": [
			{
				"x": 0.5606137771,
				"y": 2.9804257353,
				"z": 0.7958615304,
				"element": "C" 
			},
			{
				"x": 0.3004823764,
				"y": 1.7852881686,
				"z": -0.0132497365,
				"element": "N" 
			},
			{
				"x": 0.5176104284,
				"y": 0.5158972741,
				"z": 0.5002494461,
				"element": "C" 
			},
			{
				"x": 0.3345552522,
				"y": -0.6992617666,
				"z": -0.1539363146,
				"element": "C" 
			},
			{
				"x": 0.6517114174,
				"y": -1.8417459048,
				"z": 0.6884726494,
				"element": "C" 
			},
			{
				"x": 0.5361912444,
				"y": -3.2626554321,
				"z": 0.2060796622,
				"element": "C" 
			},
			{
				"x": 1.046920698,
				"y": -1.4760860771,
				"z": 1.9439593223,
				"element": "C" 
			},
			{
				"x": 1.4333321454,
				"y": -2.3086135153,
				"z": 3.1307984096,
				"element": "C" 
			},
			{
				"x": 1.0744322437,
				"y": 0.2810226351,
				"z": 2.1302210941,
				"element": "S" 
			},
			{
				"x": -0.13635416,
				"y": -0.7719365537,
				"z": -1.5307123821,
				"element": "C" 
			},
			{
				"x": -0.3190323298,
				"y": -1.8041237555,
				"z": -2.160744738,
				"element": "O" 
			},
			{
				"x": -0.4854862827,
				"y": 0.5601260168,
				"z": -2.2265134793,
				"element": "C" 
			},
			{
				"x": 0.5443452271,
				"y": 1.9496879385,
				"z": -1.7259979357,
				"element": "S" 
			},
			{
				"x": -0.0703724265,
				"y": 3.2265373925,
				"z": -2.0882826531,
				"element": "O" 
			},
			{
				"x": 1.9351650426,
				"y": 1.6704513251,
				"z": -2.0829471364,
				"element": "O" 
			},
			{
				"x": 1.6174214331,
				"y": 3.0670237317,
				"z": 1.0754853954,
				"element": "H" 
			},
			{
				"x": 0.2619975586,
				"y": 3.8526787337,
				"z": 0.2144397486,
				"element": "H" 
			},
			{
				"x": -0.0540486367,
				"y": 2.9306441113,
				"z": 1.6984513297,
				"element": "H" 
			},
			{
				"x": 1.1826826161,
				"y": -3.4336199401,
				"z": -0.6592624209,
				"element": "H" 
			},
			{
				"x": 0.8092778127,
				"y": -3.9735597992,
				"z": 0.9883224362,
				"element": "H" 
			},
			{
				"x": -0.4816390848,
				"y": -3.4834597107,
				"z": -0.1268937034,
				"element": "H" 
			},
			{
				"x": 1.3492016347,
				"y": -3.371454827,
				"z": 2.8965974174,
				"element": "H" 
			},
			{
				"x": 2.4673369177,
				"y": -2.1200943424,
				"z": 3.4424768364,
				"element": "H" 
			},
			{
				"x": 0.7876157391,
				"y": -2.1087181046,
				"z": 3.9939118723,
				"element": "H" 
			},
			{
				"x": -0.3634544754,
				"y": 0.4460724436,
				"z": -3.3051699954,
				"element": "H" 
			},
			{
				"x": -1.5166061687,
				"y": 0.8488742228,
				"z": -1.9998166549,
				"element": "H" 
			}
		],
		 "valence_orbital": [ 
			{
				"type": "occ",
				"energy": -0.32096,
				"method": "rhf"
			},
			{
				"type": "occ",
				"energy": -0.30288,
				"method": "rhf"
			},
			{
				"type": "occ",
				"energy": -0.26367,
				"method": "rhf"
			},
			{
				"type": "occ",
				"energy": -0.2615,
				"method": "rhf"
			},
			{
				"type": "occ",
				"energy": -0.21924,
				"method": "rhf"
			},
			{
				"type": "unocc",
				"energy": -0.06129,
				"method": "rhf"
			},
			{
				"type": "unocc",
				"energy": -0.00599,
				"method": "rhf"
			},
			{
				"type": "unocc",
				"energy": 0.00062,
				"method": "rhf"
			},
			{
				"type": "unocc",
				"energy": 0.03255,
				"method": "rhf"
			},
			{
				"type": "unocc",
				"energy": 0.04373,
				"method": "rhf"
			}
		],
		"cosmo_sigma_profile": { 
			"-0.025": 0.0,
			"-0.024": 0.0,
			"-0.023": 0.0,
			"-0.022": 0.0,
			"-0.021": 0.0,
			"-0.02": 0.0,
			"-0.019": 0.0,
			"-0.018": 0.0,
			"-0.017": 0.0,
			"-0.016": 0.0,
			"-0.015": 0.0,
			"-0.014": 0.0,
			"-0.013": 0.0,
			"-0.012": 0.088964046106,
			"-0.011": 3.05611019491,
			"-0.01": 3.60067904521,
			"-0.009": 3.05393396877,
			"-0.008": 3.01239063598,
			"-0.007": 7.29239497702,
			"-0.006": 11.8673043379,
			"-0.005": 17.4087932768,
			"-0.004": 22.6572903451,
			"-0.003": 18.2027845999,
			"-0.002": 16.8058871804,
			"-0.001": 20.582069577,
			"0.0": 21.6347332593,
			"0.001": 19.2190135669,
			"0.002": 15.7268644647,
			"0.003": 11.680207995,
			"0.004": 6.09550666702,
			"0.005": 3.72771125254,
			"0.006": 3.57883725199,
			"0.007": 5.38291755714,
			"0.008": 5.16962939913,
			"0.009": 9.95570810235,
			"0.01": 12.3011733137,
			"0.011": 4.49724208031,
			"0.012": 2.64783905139,
			"0.013": 0.393444403371,
			"0.014": 0.0,
			"0.015": 0.0,
			"0.016": 0.0,
			"0.017": 0.0,
			"0.018": 0.0,
			"0.019": 0.0,
			"0.02": 0.0,
			"0.021": 0.0,
			"0.022": 0.0,
			"0.023": 0.0,
			"0.024": 0.0,
			"0.025": 0.0
		}
	}
}
