{
	 "smiles": "CC1=NC(C)=CN1", 
	 "Tm": 365.15, 
	 "num_atms": 15, 
	 "gaussian": { 
		 "optdone": 1, 
		 "sigma_profile": "yes", 
		 "theory": "DFT", 
		 "functional": "B3LYP", 
		 "basiset": "6-31G**", 
		 "properties": { 
			 "R2extent": 1173.4723, 
			 "electric_dipole_moment_norm": 3.24837838929, 
			 "electric_quadrupole_moment_norm": 9.8244813003, 
			 "total_energy": -304.865519, 
			 "HOMO_LUMO_gap": 0.2448, 
			 "cosmo_polarized_energy": -11.1, 
			 "cosmo_cavitation_energy": 18.39, 
			 "cosmo_dispersion_energy": -13.9, 
			 "cosmo_repulsion_energy": 1.2, 
			 "cosmo_total_nonelectrostatic_energy": 5.69, 
			 "SMD_solvation_energy": 1.98 
		},
		"coords": [
			{
				"x": 2.4793015595,
				"y": -2.2003956152,
				"z": -2.0125359732,
				"element": "C" 
			},
			{
				"x": 1.7950540219,
				"y": -1.0764849739,
				"z": -1.3031266958,
				"element": "C" 
			},
			{
				"x": 0.6862090735,
				"y": -1.1693723004,
				"z": -0.5972097775,
				"element": "N" 
			},
			{
				"x": 0.4180164413,
				"y": 0.1036850221,
				"z": -0.1261711614,
				"element": "C" 
			},
			{
				"x": -0.7804034382,
				"y": 0.3847996342,
				"z": 0.725257376,
				"element": "C" 
			},
			{
				"x": 1.3856725358,
				"y": 0.9757243366,
				"z": -0.558884604,
				"element": "C" 
			},
			{
				"x": 2.2619965204,
				"y": 0.2119839528,
				"z": -1.3108424658,
				"element": "N" 
			},
			{
				"x": 3.4980565825,
				"y": -2.3622132177,
				"z": -1.6401552858,
				"element": "H" 
			},
			{
				"x": 2.5446196902,
				"y": -2.0255059044,
				"z": -3.093213093,
				"element": "H" 
			},
			{
				"x": 1.9049502101,
				"y": -3.1129940589,
				"z": -1.8471438103,
				"element": "H" 
			},
			{
				"x": -1.7064727363,
				"y": 0.1261049541,
				"z": 0.1997598635,
				"element": "H" 
			},
			{
				"x": -0.7577318624,
				"y": -0.2091230847,
				"z": 1.6458121314,
				"element": "H" 
			},
			{
				"x": -0.8290929959,
				"y": 1.4419619989,
				"z": 1.0022784871,
				"element": "H" 
			},
			{
				"x": 1.5293126688,
				"y": 2.0347373817,
				"z": -0.4076317686,
				"element": "H" 
			},
			{
				"x": 3.0911117287,
				"y": 0.5453918747,
				"z": -1.7775932225,
				"element": "H" 
			}
		],
		 "valence_orbital": [ 
			{
				"type": "occ",
				"energy": -0.37494,
				"method": "rhf"
			},
			{
				"type": "occ",
				"energy": -0.3604,
				"method": "rhf"
			},
			{
				"type": "occ",
				"energy": -0.26229,
				"method": "rhf"
			},
			{
				"type": "occ",
				"energy": -0.25321,
				"method": "rhf"
			},
			{
				"type": "occ",
				"energy": -0.20606,
				"method": "rhf"
			},
			{
				"type": "unocc",
				"energy": 0.03874,
				"method": "rhf"
			},
			{
				"type": "unocc",
				"energy": 0.07849,
				"method": "rhf"
			},
			{
				"type": "unocc",
				"energy": 0.07936,
				"method": "rhf"
			},
			{
				"type": "unocc",
				"energy": 0.12481,
				"method": "rhf"
			},
			{
				"type": "unocc",
				"energy": 0.12788,
				"method": "rhf"
			}
		],
		"cosmo_sigma_profile": { 
			"-0.025": 0.0,
			"-0.024": 0.0,
			"-0.023": 0.0,
			"-0.022": 0.0,
			"-0.021": 0.0,
			"-0.02": 0.0,
			"-0.019": 0.0,
			"-0.018": 0.0,
			"-0.017": 0.0,
			"-0.016": 0.708975841067,
			"-0.015": 1.46655389181,
			"-0.014": 1.63103673796,
			"-0.013": 0.478422628452,
			"-0.012": 0.750066787103,
			"-0.011": 1.66639018735,
			"-0.01": 1.37564471796,
			"-0.009": 1.15414398174,
			"-0.008": 1.89982894384,
			"-0.007": 2.82563019922,
			"-0.006": 3.44333367779,
			"-0.005": 6.71856585482,
			"-0.004": 11.2871403069,
			"-0.003": 13.3946298972,
			"-0.002": 11.8538664456,
			"-0.001": 15.0421421591,
			"0.0": 13.8007797433,
			"0.001": 9.17569872516,
			"0.002": 6.54052095853,
			"0.003": 5.1471092996,
			"0.004": 5.57371989641,
			"0.005": 5.63701057063,
			"0.006": 6.3909893305,
			"0.007": 2.80283372261,
			"0.008": 1.75764697414,
			"0.009": 2.14800169352,
			"0.01": 1.46052815002,
			"0.011": 1.16082819556,
			"0.012": 1.01957476332,
			"0.013": 1.08649105938,
			"0.014": 1.2131073808,
			"0.015": 1.13995755584,
			"0.016": 0.824740835432,
			"0.017": 1.12503702392,
			"0.018": 0.764604127919,
			"0.019": 0.632847444889,
			"0.02": 0.0451431526018,
			"0.021": 0.0,
			"0.022": 0.0,
			"0.023": 0.0,
			"0.024": 0.0,
			"0.025": 0.0
		}
	}
}
