{
	 "smiles": "CC1=NN(CCO)C(=C1C(O)=O)C(F)(F)Cl", 
	 "Tm": 398.15, 
	 "num_atms": 25, 
	 "gaussian": { 
		 "optdone": 1, 
		 "sigma_profile": "yes", 
		 "theory": "DFT", 
		 "functional": "B3LYP", 
		 "basiset": "6-31G**", 
		 "properties": { 
			 "R2extent": 3955.3719, 
			 "electric_dipole_moment_norm": 2.88323664828, 
			 "electric_quadrupole_moment_norm": 7.58120294676, 
			 "total_energy": -1305.30217207, 
			 "HOMO_LUMO_gap": 0.20731, 
			 "cosmo_polarized_energy": -15.86, 
			 "cosmo_cavitation_energy": 31.38, 
			 "cosmo_dispersion_energy": -22.09, 
			 "cosmo_repulsion_energy": 1.72, 
			 "cosmo_total_nonelectrostatic_energy": 11.0, 
			 "SMD_solvation_energy": 5.93 
		},
		"coords": [
			{
				"x": 2.3797315248,
				"y": 2.6697122222,
				"z": 0.2198714859,
				"element": "C" 
			},
			{
				"x": 1.8411864112,
				"y": 1.2838801929,
				"z": 0.0590295147,
				"element": "C" 
			},
			{
				"x": 2.19980486,
				"y": 0.3226853188,
				"z": 0.9029262917,
				"element": "N" 
			},
			{
				"x": 1.5618467004,
				"y": -0.8013333935,
				"z": 0.5005272439,
				"element": "N" 
			},
			{
				"x": 1.7745045461,
				"y": -2.0041346057,
				"z": 1.3153831196,
				"element": "C" 
			},
			{
				"x": 0.5604034114,
				"y": -2.4071802017,
				"z": 2.1460099173,
				"element": "C" 
			},
			{
				"x": 0.2821725291,
				"y": -1.360709112,
				"z": 3.0563826108,
				"element": "O" 
			},
			{
				"x": 0.7910469787,
				"y": -0.5764420287,
				"z": -0.5997223359,
				"element": "C" 
			},
			{
				"x": 0.9385601569,
				"y": 0.7797389341,
				"z": -0.9182223851,
				"element": "C" 
			},
			{
				"x": 0.3317327955,
				"y": 1.6122866526,
				"z": -1.9647196332,
				"element": "C" 
			},
			{
				"x": -0.6520584117,
				"y": 0.9977763466,
				"z": -2.6609243208,
				"element": "O" 
			},
			{
				"x": 0.6537231275,
				"y": 2.7658470306,
				"z": -2.1854794902,
				"element": "O" 
			},
			{
				"x": 0.0022374841,
				"y": -1.6464048215,
				"z": -1.2941198159,
				"element": "C" 
			},
			{
				"x": 0.4265164543,
				"y": -2.8845449442,
				"z": -0.9282515904,
				"element": "F" 
			},
			{
				"x": 0.1392410217,
				"y": -1.56921689,
				"z": -2.6256324692,
				"element": "F" 
			},
			{
				"x": -1.7709400526,
				"y": -1.5753565171,
				"z": -0.9042301868,
				"element": "Cl" 
			},
			{
				"x": 1.5697092468,
				"y": 3.3944467669,
				"z": 0.3401259417,
				"element": "H" 
			},
			{
				"x": 3.0303096967,
				"y": 2.7032528958,
				"z": 1.0961437192,
				"element": "H" 
			},
			{
				"x": 2.9419607436,
				"y": 2.9778283068,
				"z": -0.6657448506,
				"element": "H" 
			},
			{
				"x": 2.0835994259,
				"y": -2.8320427841,
				"z": 0.6765607563,
				"element": "H" 
			},
			{
				"x": 2.5962310145,
				"y": -1.7360286671,
				"z": 1.9801635099,
				"element": "H" 
			},
			{
				"x": 0.8199065244,
				"y": -3.3472341161,
				"z": 2.6612522087,
				"element": "H" 
			},
			{
				"x": -0.2926781205,
				"y": -2.6190332792,
				"z": 1.4886917032,
				"element": "H" 
			},
			{
				"x": -0.583105899,
				"y": -1.5223776349,
				"z": 3.4508786464,
				"element": "H" 
			},
			{
				"x": -0.9698421699,
				"y": 1.6529843288,
				"z": -3.3040995911,
				"element": "H" 
			}
		],
		 "valence_orbital": [ 
			{
				"type": "occ",
				"energy": -0.30067,
				"method": "rhf"
			},
			{
				"type": "occ",
				"energy": -0.28218,
				"method": "rhf"
			},
			{
				"type": "occ",
				"energy": -0.27847,
				"method": "rhf"
			},
			{
				"type": "occ",
				"energy": -0.26703,
				"method": "rhf"
			},
			{
				"type": "occ",
				"energy": -0.25998,
				"method": "rhf"
			},
			{
				"type": "unocc",
				"energy": -0.05267,
				"method": "rhf"
			},
			{
				"type": "unocc",
				"energy": 0.00103,
				"method": "rhf"
			},
			{
				"type": "unocc",
				"energy": 0.02122,
				"method": "rhf"
			},
			{
				"type": "unocc",
				"energy": 0.06576,
				"method": "rhf"
			},
			{
				"type": "unocc",
				"energy": 0.07659,
				"method": "rhf"
			}
		],
		"cosmo_sigma_profile": { 
			"-0.025": 0.0,
			"-0.024": 0.0,
			"-0.023": 0.0,
			"-0.022": 0.0,
			"-0.021": 0.0,
			"-0.02": 0.0,
			"-0.019": 0.0299028356948,
			"-0.018": 0.963085863125,
			"-0.017": 0.959658252175,
			"-0.016": 1.51257285312,
			"-0.015": 1.71217793447,
			"-0.014": 1.95103917644,
			"-0.013": 2.03741791796,
			"-0.012": 1.39069575144,
			"-0.011": 1.38530453186,
			"-0.01": 2.01768378095,
			"-0.009": 0.729721556734,
			"-0.008": 1.79472631761,
			"-0.007": 5.62981822582,
			"-0.006": 8.50761596285,
			"-0.005": 12.3163079173,
			"-0.004": 16.8853966196,
			"-0.003": 16.2940915775,
			"-0.002": 18.7989245456,
			"-0.001": 22.4183187947,
			"0.0": 22.8576793024,
			"0.001": 20.9005979564,
			"0.002": 20.8584007575,
			"0.003": 13.718621293,
			"0.004": 8.6359379654,
			"0.005": 7.2583107472,
			"0.006": 6.05137922416,
			"0.007": 5.50979534835,
			"0.008": 3.64110329103,
			"0.009": 3.71780658725,
			"0.01": 4.76229776269,
			"0.011": 6.09632861213,
			"0.012": 5.93461063809,
			"0.013": 2.91058047766,
			"0.014": 0.615532107663,
			"0.015": 0.0,
			"0.016": 0.0,
			"0.017": 0.0,
			"0.018": 0.0,
			"0.019": 0.0,
			"0.02": 0.0,
			"0.021": 0.0,
			"0.022": 0.0,
			"0.023": 0.0,
			"0.024": 0.0,
			"0.025": 0.0
		}
	}
}
