{
	 "smiles": "NS(=O)(=O)C1=CC2=C(O1)SC(CN1CCOCC1)=C2", 
	 "Tm": 517.15, 
	 "num_atms": 33, 
	 "gaussian": { 
		 "optdone": 1, 
		 "sigma_profile": "yes", 
		 "theory": "DFT", 
		 "functional": "B3LYP", 
		 "basiset": "6-31G**", 
		 "properties": { 
			 "R2extent": 9816.7518, 
			 "electric_dipole_moment_norm": 7.24075826485, 
			 "electric_quadrupole_moment_norm": 21.4077778908, 
			 "total_energy": -1634.22246401, 
			 "HOMO_LUMO_gap": 0.19773, 
			 "cosmo_polarized_energy": -21.68, 
			 "cosmo_cavitation_energy": 39.43, 
			 "cosmo_dispersion_energy": -29.51, 
			 "cosmo_repulsion_energy": 2.2, 
			 "cosmo_total_nonelectrostatic_energy": 12.12, 
			 "SMD_solvation_energy": 4.6 
		},
		"coords": [
			{
				"x": -0.0366355384,
				"y": -1.7315742263,
				"z": 5.8767001465,
				"element": "N" 
			},
			{
				"x": -1.2751652358,
				"y": -1.761136514,
				"z": 4.7510474124,
				"element": "S" 
			},
			{
				"x": -1.5952308255,
				"y": -3.1694782468,
				"z": 4.5526016056,
				"element": "O" 
			},
			{
				"x": -2.2547872491,
				"y": -0.765414398,
				"z": 5.1733069945,
				"element": "O" 
			},
			{
				"x": -0.5994124016,
				"y": -1.1201175071,
				"z": 3.2462059342,
				"element": "C" 
			},
			{
				"x": -0.9403997604,
				"y": -0.0182429597,
				"z": 2.5140163231,
				"element": "C" 
			},
			{
				"x": -0.0652911173,
				"y": -0.0274054631,
				"z": 1.3760608132,
				"element": "C" 
			},
			{
				"x": 0.7223054381,
				"y": -1.1484455315,
				"z": 1.5428542136,
				"element": "C" 
			},
			{
				"x": 0.4302180735,
				"y": -1.8407764567,
				"z": 2.6655502289,
				"element": "O" 
			},
			{
				"x": 1.8804693169,
				"y": -1.4122892633,
				"z": 0.287331151,
				"element": "S" 
			},
			{
				"x": 1.2913321021,
				"y": 0.0690167953,
				"z": -0.5095243759,
				"element": "C" 
			},
			{
				"x": 1.9623361777,
				"y": 0.5274335632,
				"z": -1.7832520144,
				"element": "C" 
			},
			{
				"x": 1.0302505879,
				"y": 1.2145039117,
				"z": -2.6615633838,
				"element": "N" 
			},
			{
				"x": 0.0401783283,
				"y": 0.3152139127,
				"z": -3.2748333903,
				"element": "C" 
			},
			{
				"x": -0.5852983826,
				"y": 0.9820860732,
				"z": -4.5157651768,
				"element": "C" 
			},
			{
				"x": -0.6902579479,
				"y": 2.3822065016,
				"z": -4.3392654404,
				"element": "O" 
			},
			{
				"x": 0.587511738,
				"y": 3.0066035519,
				"z": -4.2510373414,
				"element": "C" 
			},
			{
				"x": 1.6597435368,
				"y": 2.0716100345,
				"z": -3.6592324305,
				"element": "C" 
			},
			{
				"x": 0.2768443337,
				"y": 0.6773177881,
				"z": 0.1729437894,
				"element": "C" 
			},
			{
				"x": 0.3095273252,
				"y": -0.7961731837,
				"z": 6.0651581757,
				"element": "H" 
			},
			{
				"x": 0.6965193509,
				"y": -2.4027794825,
				"z": 5.6704885079,
				"element": "H" 
			},
			{
				"x": -1.717751469,
				"y": 0.6838668866,
				"z": 2.7758517967,
				"element": "H" 
			},
			{
				"x": 2.7678019014,
				"y": 1.2300374514,
				"z": -1.5305994218,
				"element": "H" 
			},
			{
				"x": 2.4515298451,
				"y": -0.3375532235,
				"z": -2.2753469049,
				"element": "H" 
			},
			{
				"x": 0.4975241243,
				"y": -0.6453073924,
				"z": -3.5814854806,
				"element": "H" 
			},
			{
				"x": -0.7295293067,
				"y": 0.0840440153,
				"z": -2.5322311206,
				"element": "H" 
			},
			{
				"x": -1.5987666494,
				"y": 0.606156443,
				"z": -4.6788671027,
				"element": "H" 
			},
			{
				"x": 0.0012672211,
				"y": 0.7462095209,
				"z": -5.4183668715,
				"element": "H" 
			},
			{
				"x": 0.9132147626,
				"y": 3.3600322473,
				"z": -5.242828992,
				"element": "H" 
			},
			{
				"x": 0.449640166,
				"y": 3.8788805314,
				"z": -3.6045148876,
				"element": "H" 
			},
			{
				"x": 2.4365597677,
				"y": 2.6762519835,
				"z": -3.1793321113,
				"element": "H" 
			},
			{
				"x": 2.1603642088,
				"y": 1.4930420289,
				"z": -4.4591859481,
				"element": "H" 
			},
			{
				"x": -0.1941124225,
				"y": 1.5816806082,
				"z": -0.1913846978,
				"element": "H" 
			}
		],
		 "valence_orbital": [ 
			{
				"type": "occ",
				"energy": -0.3055,
				"method": "rhf"
			},
			{
				"type": "occ",
				"energy": -0.25587,
				"method": "rhf"
			},
			{
				"type": "occ",
				"energy": -0.24885,
				"method": "rhf"
			},
			{
				"type": "occ",
				"energy": -0.23248,
				"method": "rhf"
			},
			{
				"type": "occ",
				"energy": -0.22645,
				"method": "rhf"
			},
			{
				"type": "unocc",
				"energy": -0.02872,
				"method": "rhf"
			},
			{
				"type": "unocc",
				"energy": -0.01888,
				"method": "rhf"
			},
			{
				"type": "unocc",
				"energy": -0.00103,
				"method": "rhf"
			},
			{
				"type": "unocc",
				"energy": 0.04473,
				"method": "rhf"
			},
			{
				"type": "unocc",
				"energy": 0.05549,
				"method": "rhf"
			}
		],
		"cosmo_sigma_profile": { 
			"-0.025": 0.0,
			"-0.024": 0.0,
			"-0.023": 0.0,
			"-0.022": 0.0,
			"-0.021": 0.0,
			"-0.02": 0.0,
			"-0.019": 0.0,
			"-0.018": 0.0,
			"-0.017": 0.0,
			"-0.016": 0.965328118887,
			"-0.015": 2.70457473326,
			"-0.014": 2.48594514936,
			"-0.013": 2.4882463031,
			"-0.012": 3.02069780488,
			"-0.011": 1.34544194478,
			"-0.01": 2.13324622275,
			"-0.009": 2.95414465602,
			"-0.008": 3.42723157486,
			"-0.007": 3.89029403561,
			"-0.006": 7.14755756421,
			"-0.005": 15.6718578409,
			"-0.004": 26.0759794095,
			"-0.003": 39.066176607,
			"-0.002": 29.0907948003,
			"-0.001": 22.7921415819,
			"0.0": 20.3138440558,
			"0.001": 20.0934816415,
			"0.002": 20.2750762304,
			"0.003": 14.4584827617,
			"0.004": 9.91999693937,
			"0.005": 8.4312155558,
			"0.006": 5.3541894318,
			"0.007": 7.05865006618,
			"0.008": 7.58397752673,
			"0.009": 5.48249923461,
			"0.01": 13.3830866129,
			"0.011": 11.4702682966,
			"0.012": 1.86379466402,
			"0.013": 2.1169961481,
			"0.014": 0.97203844406,
			"0.015": 0.0,
			"0.016": 0.0,
			"0.017": 0.0,
			"0.018": 0.0,
			"0.019": 0.0,
			"0.02": 0.0,
			"0.021": 0.0,
			"0.022": 0.0,
			"0.023": 0.0,
			"0.024": 0.0,
			"0.025": 0.0
		}
	}
}
