{
	 "smiles": "OP(O)(=O)C(Cl)(Cl)P(O)(O)=O", 
	 "Tm": 523.15, 
	 "num_atms": 15, 
	 "gaussian": { 
		 "optdone": 1, 
		 "sigma_profile": "yes", 
		 "theory": "DFT", 
		 "functional": "B3LYP", 
		 "basiset": "6-31G**", 
		 "properties": { 
			 "R2extent": 3169.1605, 
			 "electric_dipole_moment_norm": 4.78336292372, 
			 "electric_quadrupole_moment_norm": 17.8926894689, 
			 "total_energy": -2095.06566259, 
			 "HOMO_LUMO_gap": 0.25028, 
			 "cosmo_polarized_energy": -24.9, 
			 "cosmo_cavitation_energy": 25.72, 
			 "cosmo_dispersion_energy": -19.36, 
			 "cosmo_repulsion_energy": 1.5, 
			 "cosmo_total_nonelectrostatic_energy": 7.86, 
			 "SMD_solvation_energy": 7.89 
		},
		"coords": [
			{
				"x": -1.4065933466,
				"y": 1.4853989002,
				"z": -0.1439756114,
				"element": "O" 
			},
			{
				"x": -1.4224757571,
				"y": 1.2884861216,
				"z": 1.4273521647,
				"element": "P" 
			},
			{
				"x": -2.7099006365,
				"y": 0.351901558,
				"z": 1.7176517762,
				"element": "O" 
			},
			{
				"x": -1.3031102276,
				"y": 2.4937757889,
				"z": 2.266346207,
				"element": "O" 
			},
			{
				"x": -0.0285058828,
				"y": 0.0267942937,
				"z": 1.6981107097,
				"element": "C" 
			},
			{
				"x": 1.5386476759,
				"y": 0.8324750913,
				"z": 1.2791829368,
				"element": "Cl" 
			},
			{
				"x": -0.0149116158,
				"y": -0.4929583118,
				"z": 3.4291274983,
				"element": "Cl" 
			},
			{
				"x": -0.1879169627,
				"y": -1.4699525245,
				"z": 0.5740827427,
				"element": "P" 
			},
			{
				"x": 1.2197017969,
				"y": -2.2388120539,
				"z": 0.6653783698,
				"element": "O" 
			},
			{
				"x": -1.1666091933,
				"y": -2.5081918044,
				"z": 1.2828447357,
				"element": "O" 
			},
			{
				"x": -0.6515584616,
				"y": -1.019644029,
				"z": -0.7649820378,
				"element": "O" 
			},
			{
				"x": -1.2516752254,
				"y": 0.6400425995,
				"z": -0.6377059629,
				"element": "H" 
			},
			{
				"x": -3.1363352774,
				"y": 0.5987242024,
				"z": 2.551066793,
				"element": "H" 
			},
			{
				"x": 1.951425964,
				"y": -1.7480163575,
				"z": 0.2612860544,
				"element": "H" 
			},
			{
				"x": -0.8255828501,
				"y": -2.8828234743,
				"z": 2.1087336238,
				"element": "H" 
			}
		],
		 "valence_orbital": [ 
			{
				"type": "occ",
				"energy": -0.34403,
				"method": "rhf"
			},
			{
				"type": "occ",
				"energy": -0.33557,
				"method": "rhf"
			},
			{
				"type": "occ",
				"energy": -0.32143,
				"method": "rhf"
			},
			{
				"type": "occ",
				"energy": -0.31103,
				"method": "rhf"
			},
			{
				"type": "occ",
				"energy": -0.3048,
				"method": "rhf"
			},
			{
				"type": "unocc",
				"energy": -0.05452,
				"method": "rhf"
			},
			{
				"type": "unocc",
				"energy": -0.0352,
				"method": "rhf"
			},
			{
				"type": "unocc",
				"energy": 0.00089,
				"method": "rhf"
			},
			{
				"type": "unocc",
				"energy": 0.03562,
				"method": "rhf"
			},
			{
				"type": "unocc",
				"energy": 0.04308,
				"method": "rhf"
			}
		],
		"cosmo_sigma_profile": { 
			"-0.025": 0.0,
			"-0.024": 0.0,
			"-0.023": 0.0,
			"-0.022": 0.0,
			"-0.021": 0.132266348989,
			"-0.02": 1.8621058197,
			"-0.019": 2.76798607286,
			"-0.018": 2.49911653334,
			"-0.017": 2.17343174575,
			"-0.016": 1.86534402941,
			"-0.015": 2.52988075394,
			"-0.014": 2.1588408483,
			"-0.013": 2.51350747562,
			"-0.012": 1.83144455561,
			"-0.011": 2.51419600015,
			"-0.01": 3.3459426321,
			"-0.009": 2.49743744338,
			"-0.008": 3.43120840285,
			"-0.007": 3.35099207205,
			"-0.006": 3.1154564018,
			"-0.005": 5.89291345201,
			"-0.004": 8.14103497519,
			"-0.003": 9.0886906601,
			"-0.002": 10.6485402014,
			"-0.001": 11.5567517253,
			"0.0": 11.4539168033,
			"0.001": 13.2349591477,
			"0.002": 17.2618011022,
			"0.003": 11.7112345791,
			"0.004": 8.59976016873,
			"0.005": 7.40644512315,
			"0.006": 8.88830618707,
			"0.007": 6.82667405537,
			"0.008": 7.72435092519,
			"0.009": 5.53098461597,
			"0.01": 4.69322046859,
			"0.011": 3.42527808854,
			"0.012": 5.08023139001,
			"0.013": 6.64308231167,
			"0.014": 0.458321923541,
			"0.015": 0.0,
			"0.016": 0.0,
			"0.017": 0.0,
			"0.018": 0.0,
			"0.019": 0.0,
			"0.02": 0.0,
			"0.021": 0.0,
			"0.022": 0.0,
			"0.023": 0.0,
			"0.024": 0.0,
			"0.025": 0.0
		}
	}
}
