{
	 "smiles": "NCC1=CC=C(C=C1)C1=NC=CS1", 
	 "Tm": 313.65, 
	 "num_atms": 23, 
	 "gaussian": { 
		 "optdone": 1, 
		 "sigma_profile": "yes", 
		 "theory": "DFT", 
		 "functional": "B3LYP", 
		 "basiset": "6-31G**", 
		 "properties": { 
			 "R2extent": 4130.027, 
			 "electric_dipole_moment_norm": 1.44439252975, 
			 "electric_quadrupole_moment_norm": 14.4221622436, 
			 "total_energy": -894.773509611, 
			 "HOMO_LUMO_gap": 0.16619, 
			 "cosmo_polarized_energy": -9.67, 
			 "cosmo_cavitation_energy": 28.32, 
			 "cosmo_dispersion_energy": -21.71, 
			 "cosmo_repulsion_energy": 1.67, 
			 "cosmo_total_nonelectrostatic_energy": 8.28, 
			 "SMD_solvation_energy": 2.73 
		},
		"coords": [
			{
				"x": 3.6072889829,
				"y": -1.2719760587,
				"z": 1.5719930762,
				"element": "N" 
			},
			{
				"x": 2.7129411437,
				"y": -2.2487191819,
				"z": 0.9448451322,
				"element": "C" 
			},
			{
				"x": 1.5666901344,
				"y": -1.5785085555,
				"z": 0.2114313939,
				"element": "C" 
			},
			{
				"x": 0.3189954538,
				"y": -2.2088152594,
				"z": 0.1117318056,
				"element": "C" 
			},
			{
				"x": -0.7293812621,
				"y": -1.6242838216,
				"z": -0.5902994521,
				"element": "C" 
			},
			{
				"x": -0.5594472983,
				"y": -0.3748751665,
				"z": -1.2119123616,
				"element": "C" 
			},
			{
				"x": 0.6881680904,
				"y": 0.260937897,
				"z": -1.1062288854,
				"element": "C" 
			},
			{
				"x": 1.7344471804,
				"y": -0.3323483575,
				"z": -0.4061000447,
				"element": "C" 
			},
			{
				"x": -1.6872321155,
				"y": 0.2192150113,
				"z": -1.9403247835,
				"element": "C" 
			},
			{
				"x": -2.8626422829,
				"y": -0.3438756282,
				"z": -2.0605415803,
				"element": "N" 
			},
			{
				"x": -3.7244511521,
				"y": 0.431285632,
				"z": -2.7920656551,
				"element": "C" 
			},
			{
				"x": -3.224821036,
				"y": 1.615677695,
				"z": -3.2531196628,
				"element": "C" 
			},
			{
				"x": -1.5763647752,
				"y": 1.7902851695,
				"z": -2.7508359342,
				"element": "S" 
			},
			{
				"x": 4.414924922,
				"y": -1.7441192585,
				"z": 1.9689164354,
				"element": "H" 
			},
			{
				"x": 3.1290244073,
				"y": -0.8077733011,
				"z": 2.3405422067,
				"element": "H" 
			},
			{
				"x": 3.3130642854,
				"y": -2.817302221,
				"z": 0.2203105355,
				"element": "H" 
			},
			{
				"x": 2.2931866582,
				"y": -2.9953558678,
				"z": 1.6413646594,
				"element": "H" 
			},
			{
				"x": 0.16553637,
				"y": -3.1716495412,
				"z": 0.593971199,
				"element": "H" 
			},
			{
				"x": -1.6936053255,
				"y": -2.1147702646,
				"z": -0.6638897293,
				"element": "H" 
			},
			{
				"x": 0.8481124124,
				"y": 1.2289784979,
				"z": -1.5740234738,
				"element": "H" 
			},
			{
				"x": 2.693765892,
				"y": 0.1670208541,
				"z": -0.3203949561,
				"element": "H" 
			},
			{
				"x": -4.7344420905,
				"y": 0.0782039258,
				"z": -2.9663680118,
				"element": "H" 
			},
			{
				"x": -3.7175585946,
				"y": 2.3749678009,
				"z": -3.8431019131,
				"element": "H" 
			}
		],
		 "valence_orbital": [ 
			{
				"type": "occ",
				"energy": -0.27154,
				"method": "rhf"
			},
			{
				"type": "occ",
				"energy": -0.26928,
				"method": "rhf"
			},
			{
				"type": "occ",
				"energy": -0.24992,
				"method": "rhf"
			},
			{
				"type": "occ",
				"energy": -0.24187,
				"method": "rhf"
			},
			{
				"type": "occ",
				"energy": -0.21423,
				"method": "rhf"
			},
			{
				"type": "unocc",
				"energy": -0.04804,
				"method": "rhf"
			},
			{
				"type": "unocc",
				"energy": -0.00073,
				"method": "rhf"
			},
			{
				"type": "unocc",
				"energy": 0.02391,
				"method": "rhf"
			},
			{
				"type": "unocc",
				"energy": 0.02486,
				"method": "rhf"
			},
			{
				"type": "unocc",
				"energy": 0.06639,
				"method": "rhf"
			}
		],
		"cosmo_sigma_profile": { 
			"-0.025": 0.0,
			"-0.024": 0.0,
			"-0.023": 0.0,
			"-0.022": 0.0,
			"-0.021": 0.0,
			"-0.02": 0.0,
			"-0.019": 0.0,
			"-0.018": 0.0,
			"-0.017": 0.0,
			"-0.016": 0.0,
			"-0.015": 0.0,
			"-0.014": 0.0,
			"-0.013": 0.0,
			"-0.012": 0.0,
			"-0.011": 0.0489227437183,
			"-0.01": 1.94838797462,
			"-0.009": 4.65666648733,
			"-0.008": 5.19745641403,
			"-0.007": 5.83293463779,
			"-0.006": 9.54835015976,
			"-0.005": 12.9228452284,
			"-0.004": 17.2130277908,
			"-0.003": 17.6754909569,
			"-0.002": 16.6791935297,
			"-0.001": 13.6108203407,
			"0.0": 13.9552623106,
			"0.001": 17.5623827783,
			"0.002": 20.6022815532,
			"0.003": 23.2240281461,
			"0.004": 16.1772697552,
			"0.005": 12.4217653819,
			"0.006": 2.98275801042,
			"0.007": 2.30870574962,
			"0.008": 3.00255361899,
			"0.009": 2.75459984508,
			"0.01": 1.44967456596,
			"0.011": 1.59925037589,
			"0.012": 1.41004563167,
			"0.013": 1.58117832832,
			"0.014": 0.57636564152,
			"0.015": 0.433849338871,
			"0.016": 0.503431953893,
			"0.017": 0.230858679637,
			"0.018": 0.0,
			"0.019": 0.0,
			"0.02": 0.0,
			"0.021": 0.0,
			"0.022": 0.0,
			"0.023": 0.0,
			"0.024": 0.0,
			"0.025": 0.0
		}
	}
}
