{
	 "smiles": "OC(=O)CCC1=C(F)C(F)=CC=C1", 
	 "Tm": 380.15, 
	 "num_atms": 21, 
	 "gaussian": { 
		 "optdone": 1, 
		 "sigma_profile": "yes", 
		 "theory": "DFT", 
		 "functional": "B3LYP", 
		 "basiset": "6-31G**", 
		 "properties": { 
			 "R2extent": 3905.1938, 
			 "electric_dipole_moment_norm": 1.85253111715, 
			 "electric_quadrupole_moment_norm": 19.2686138705, 
			 "total_energy": -697.903656963, 
			 "HOMO_LUMO_gap": 0.23064, 
			 "cosmo_polarized_energy": -14.29, 
			 "cosmo_cavitation_energy": 26.32, 
			 "cosmo_dispersion_energy": -18.59, 
			 "cosmo_repulsion_energy": 1.45, 
			 "cosmo_total_nonelectrostatic_energy": 9.18, 
			 "SMD_solvation_energy": 6.34 
		},
		"coords": [
			{
				"x": 0.1997787052,
				"y": -3.5107076879,
				"z": 1.6410766177,
				"element": "O" 
			},
			{
				"x": -0.3470956345,
				"y": -2.2793522785,
				"z": 1.4646046297,
				"element": "C" 
			},
			{
				"x": 0.2832026937,
				"y": -1.2929473096,
				"z": 1.7555171016,
				"element": "O" 
			},
			{
				"x": -1.7798259527,
				"y": -2.2648730266,
				"z": 0.9416620989,
				"element": "C" 
			},
			{
				"x": -2.2089804795,
				"y": -0.8827815839,
				"z": 0.4202385863,
				"element": "C" 
			},
			{
				"x": -1.5692285419,
				"y": -0.5152962721,
				"z": -0.9007513789,
				"element": "C" 
			},
			{
				"x": -2.0737806253,
				"y": -1.0531111635,
				"z": -2.0845658478,
				"element": "C" 
			},
			{
				"x": -3.1263024566,
				"y": -1.901732658,
				"z": -2.0392715019,
				"element": "F" 
			},
			{
				"x": -1.5188762279,
				"y": -0.7424790897,
				"z": -3.323508514,
				"element": "C" 
			},
			{
				"x": -2.0532893706,
				"y": -1.2899363231,
				"z": -4.4304889724,
				"element": "F" 
			},
			{
				"x": -0.4322568305,
				"y": 0.116801947,
				"z": -3.4113800586,
				"element": "C" 
			},
			{
				"x": 0.0932397651,
				"y": 0.6590481389,
				"z": -2.2363215543,
				"element": "C" 
			},
			{
				"x": -0.4670140933,
				"y": 0.3458869231,
				"z": -0.9975373188,
				"element": "C" 
			},
			{
				"x": -0.4166274605,
				"y": -4.196550746,
				"z": 1.3474233249,
				"element": "H" 
			},
			{
				"x": -1.9086616409,
				"y": -3.0232168679,
				"z": 0.1598255478,
				"element": "H" 
			},
			{
				"x": -2.428055432,
				"y": -2.566263678,
				"z": 1.7763795236,
				"element": "H" 
			},
			{
				"x": -1.9477035202,
				"y": -0.1329989316,
				"z": 1.1706514418,
				"element": "H" 
			},
			{
				"x": -3.2976057227,
				"y": -0.881852524,
				"z": 0.3094657739,
				"element": "H" 
			},
			{
				"x": -0.0173856,
				"y": 0.342927396,
				"z": -4.3876568283,
				"element": "H" 
			},
			{
				"x": 0.9463975221,
				"y": 1.3275586501,
				"z": -2.2906586208,
				"element": "H" 
			},
			{
				"x": -0.045029097,
				"y": 0.7528770851,
				"z": -0.0851040505,
				"element": "H" 
			}
		],
		 "valence_orbital": [ 
			{
				"type": "occ",
				"energy": -0.34709,
				"method": "rhf"
			},
			{
				"type": "occ",
				"energy": -0.32086,
				"method": "rhf"
			},
			{
				"type": "occ",
				"energy": -0.27827,
				"method": "rhf"
			},
			{
				"type": "occ",
				"energy": -0.25447,
				"method": "rhf"
			},
			{
				"type": "occ",
				"energy": -0.24528,
				"method": "rhf"
			},
			{
				"type": "unocc",
				"energy": -0.01464,
				"method": "rhf"
			},
			{
				"type": "unocc",
				"energy": -0.00175,
				"method": "rhf"
			},
			{
				"type": "unocc",
				"energy": 0.00464,
				"method": "rhf"
			},
			{
				"type": "unocc",
				"energy": 0.052,
				"method": "rhf"
			},
			{
				"type": "unocc",
				"energy": 0.06814,
				"method": "rhf"
			}
		],
		"cosmo_sigma_profile": { 
			"-0.025": 0.0,
			"-0.024": 0.0,
			"-0.023": 0.0,
			"-0.022": 0.0,
			"-0.021": 0.0,
			"-0.02": 0.0,
			"-0.019": 0.589598831249,
			"-0.018": 1.3195740827,
			"-0.017": 1.12518527823,
			"-0.016": 1.05319112493,
			"-0.015": 1.31137939799,
			"-0.014": 1.0441301492,
			"-0.013": 0.998624066981,
			"-0.012": 0.717950703055,
			"-0.011": 1.21942413811,
			"-0.01": 1.32442436065,
			"-0.009": 1.17824844661,
			"-0.008": 2.90239882768,
			"-0.007": 7.0704176,
			"-0.006": 7.29093448432,
			"-0.005": 11.9627624551,
			"-0.004": 13.6877038874,
			"-0.003": 13.6731871322,
			"-0.002": 11.2097651966,
			"-0.001": 13.576103662,
			"0.0": 15.1810882243,
			"0.001": 13.3338347215,
			"0.002": 12.6022364276,
			"0.003": 17.8431945157,
			"0.004": 25.7990464764,
			"0.005": 6.55045246539,
			"0.006": 2.09671978973,
			"0.007": 2.55839079559,
			"0.008": 2.67937185255,
			"0.009": 3.36558060943,
			"0.01": 4.10933684093,
			"0.011": 5.11032637983,
			"0.012": 3.32120122589,
			"0.013": 1.68144945092,
			"0.014": 0.103663800202,
			"0.015": 0.0,
			"0.016": 0.0,
			"0.017": 0.0,
			"0.018": 0.0,
			"0.019": 0.0,
			"0.02": 0.0,
			"0.021": 0.0,
			"0.022": 0.0,
			"0.023": 0.0,
			"0.024": 0.0,
			"0.025": 0.0
		}
	}
}
