{
	 "smiles": "ClC1=CC=CC(=C1)C#N", 
	 "Tm": 314.15, 
	 "num_atms": 13, 
	 "gaussian": { 
		 "optdone": 1, 
		 "sigma_profile": "yes", 
		 "theory": "DFT", 
		 "functional": "B3LYP", 
		 "basiset": "6-31G**", 
		 "properties": { 
			 "R2extent": 2716.6412, 
			 "electric_dipole_moment_norm": 3.84486178295, 
			 "electric_quadrupole_moment_norm": 6.56840032504, 
			 "total_energy": -784.080988064, 
			 "HOMO_LUMO_gap": 0.20506, 
			 "cosmo_polarized_energy": -8.28, 
			 "cosmo_cavitation_energy": 20.49, 
			 "cosmo_dispersion_energy": -14.75, 
			 "cosmo_repulsion_energy": 1.21, 
			 "cosmo_total_nonelectrostatic_energy": 6.95, 
			 "SMD_solvation_energy": 4.73 
		},
		"coords": [
			{
				"x": 1.6724026456,
				"y": -3.8688318994,
				"z": 2.1432303286,
				"element": "Cl" 
			},
			{
				"x": 1.4875872324,
				"y": -2.1737336252,
				"z": 1.736926181,
				"element": "C" 
			},
			{
				"x": 1.4406878441,
				"y": -1.2233494219,
				"z": 2.7586331222,
				"element": "C" 
			},
			{
				"x": 1.2934037298,
				"y": 0.1250533756,
				"z": 2.4293632366,
				"element": "C" 
			},
			{
				"x": 1.1937689418,
				"y": 0.5250023018,
				"z": 1.0993473871,
				"element": "C" 
			},
			{
				"x": 1.2425560243,
				"y": -0.4425322284,
				"z": 0.0822828182,
				"element": "C" 
			},
			{
				"x": 1.3904542457,
				"y": -1.8029112237,
				"z": 0.3989387744,
				"element": "C" 
			},
			{
				"x": 1.1410065486,
				"y": -0.0444073922,
				"z": -1.2926542226,
				"element": "C" 
			},
			{
				"x": 1.0583566711,
				"y": 0.2821700642,
				"z": -2.4057783846,
				"element": "N" 
			},
			{
				"x": 1.5185678012,
				"y": -1.5384425776,
				"z": 3.7931437945,
				"element": "H" 
			},
			{
				"x": 1.2565161334,
				"y": 0.8670515678,
				"z": 3.2206251648,
				"element": "H" 
			},
			{
				"x": 1.0792666793,
				"y": 1.5713937181,
				"z": 0.8396728984,
				"element": "H" 
			},
			{
				"x": 1.4280255025,
				"y": -2.5488626592,
				"z": -0.3858310984,
				"element": "H" 
			}
		],
		 "valence_orbital": [ 
			{
				"type": "occ",
				"energy": -0.34088,
				"method": "rhf"
			},
			{
				"type": "occ",
				"energy": -0.34064,
				"method": "rhf"
			},
			{
				"type": "occ",
				"energy": -0.33005,
				"method": "rhf"
			},
			{
				"type": "occ",
				"energy": -0.28308,
				"method": "rhf"
			},
			{
				"type": "occ",
				"energy": -0.26985,
				"method": "rhf"
			},
			{
				"type": "unocc",
				"energy": -0.06479,
				"method": "rhf"
			},
			{
				"type": "unocc",
				"energy": -0.03846,
				"method": "rhf"
			},
			{
				"type": "unocc",
				"energy": 0.00822,
				"method": "rhf"
			},
			{
				"type": "unocc",
				"energy": 0.0309,
				"method": "rhf"
			},
			{
				"type": "unocc",
				"energy": 0.06503,
				"method": "rhf"
			}
		],
		"cosmo_sigma_profile": { 
			"-0.025": 0.0,
			"-0.024": 0.0,
			"-0.023": 0.0,
			"-0.022": 0.0,
			"-0.021": 0.0,
			"-0.02": 0.0,
			"-0.019": 0.0,
			"-0.018": 0.0,
			"-0.017": 0.0,
			"-0.016": 0.0,
			"-0.015": 0.0,
			"-0.014": 0.0,
			"-0.013": 0.0,
			"-0.012": 0.0,
			"-0.011": 0.0,
			"-0.01": 0.0791282580861,
			"-0.009": 2.23208563529,
			"-0.008": 7.66114334322,
			"-0.007": 9.50504737533,
			"-0.006": 8.31667769561,
			"-0.005": 6.8296644396,
			"-0.004": 7.17896165904,
			"-0.003": 8.59074484527,
			"-0.002": 12.5250690977,
			"-0.001": 12.4683639374,
			"0.0": 19.2436985653,
			"0.001": 18.4389543336,
			"0.002": 11.4525333958,
			"0.003": 8.65705878037,
			"0.004": 10.7526432967,
			"0.005": 3.9357124846,
			"0.006": 2.49451618609,
			"0.007": 2.62290978177,
			"0.008": 3.61472307915,
			"0.009": 3.09344993168,
			"0.01": 3.22309640249,
			"0.011": 2.50964229733,
			"0.012": 2.48591396059,
			"0.013": 0.898298104936,
			"0.014": 0.0,
			"0.015": 0.0,
			"0.016": 0.0,
			"0.017": 0.0,
			"0.018": 0.0,
			"0.019": 0.0,
			"0.02": 0.0,
			"0.021": 0.0,
			"0.022": 0.0,
			"0.023": 0.0,
			"0.024": 0.0,
			"0.025": 0.0
		}
	}
}
