{
	 "smiles": "BrC1=CC=C2OC=CC(=O)C2=C1", 
	 "Tm": 414.15, 
	 "num_atms": 17, 
	 "gaussian": { 
		 "optdone": 1, 
		 "sigma_profile": "yes", 
		 "theory": "DFT", 
		 "functional": "B3LYP", 
		 "basiset": "6-31G**", 
		 "properties": { 
			 "R2extent": 3480.3628, 
			 "electric_dipole_moment_norm": 4.18273543749, 
			 "electric_quadrupole_moment_norm": 10.1556860871, 
			 "total_energy": -3067.80931203, 
			 "HOMO_LUMO_gap": 0.17671, 
			 "cosmo_polarized_energy": -10.16, 
			 "cosmo_cavitation_energy": 24.18, 
			 "cosmo_dispersion_energy": -18.57, 
			 "cosmo_repulsion_energy": 1.45, 
			 "cosmo_total_nonelectrostatic_energy": 7.06, 
			 "SMD_solvation_energy": 4.37 
		},
		"coords": [
			{
				"x": 1.0946879156,
				"y": -3.3826849765,
				"z": 1.3787289048,
				"element": "Br" 
			},
			{
				"x": 0.4660110899,
				"y": -1.76666845,
				"z": 0.5794811258,
				"element": "C" 
			},
			{
				"x": -0.1282291801,
				"y": -1.8237434367,
				"z": -0.6912640732,
				"element": "C" 
			},
			{
				"x": -0.5913690335,
				"y": -0.6604002346,
				"z": -1.2889853663,
				"element": "C" 
			},
			{
				"x": -0.4564490161,
				"y": 0.5547146816,
				"z": -0.609596418,
				"element": "C" 
			},
			{
				"x": -0.9304998368,
				"y": 1.6745509037,
				"z": -1.2446279489,
				"element": "O" 
			},
			{
				"x": -0.8174411626,
				"y": 2.8701213449,
				"z": -0.6182497628,
				"element": "C" 
			},
			{
				"x": -0.2673388365,
				"y": 3.0486498452,
				"z": 0.5987100757,
				"element": "C" 
			},
			{
				"x": 0.2683455554,
				"y": 1.9218452687,
				"z": 1.3625482641,
				"element": "C" 
			},
			{
				"x": 0.780304684,
				"y": 2.0278592479,
				"z": 2.4734897147,
				"element": "O" 
			},
			{
				"x": 0.1357755425,
				"y": 0.6195756008,
				"z": 0.6595235609,
				"element": "C" 
			},
			{
				"x": 0.6001998586,
				"y": -0.5651033403,
				"z": 1.2529021361,
				"element": "C" 
			},
			{
				"x": -0.2235867386,
				"y": -2.77521129,
				"z": -1.2015684274,
				"element": "H" 
			},
			{
				"x": -1.0545509003,
				"y": -0.6744584815,
				"z": -2.2696075982,
				"element": "H" 
			},
			{
				"x": -1.2298324077,
				"y": 3.6647533118,
				"z": -1.2294056527,
				"element": "H" 
			},
			{
				"x": -0.2158005428,
				"y": 4.041704531,
				"z": 1.029266565,
				"element": "H" 
			},
			{
				"x": 1.0556730089,
				"y": -0.498604526,
				"z": 2.2342549003,
				"element": "H" 
			}
		],
		 "valence_orbital": [ 
			{
				"type": "occ",
				"energy": -0.29425,
				"method": "rhf"
			},
			{
				"type": "occ",
				"energy": -0.27856,
				"method": "rhf"
			},
			{
				"type": "occ",
				"energy": -0.27656,
				"method": "rhf"
			},
			{
				"type": "occ",
				"energy": -0.25114,
				"method": "rhf"
			},
			{
				"type": "occ",
				"energy": -0.24269,
				"method": "rhf"
			},
			{
				"type": "unocc",
				"energy": -0.06598,
				"method": "rhf"
			},
			{
				"type": "unocc",
				"energy": -0.03373,
				"method": "rhf"
			},
			{
				"type": "unocc",
				"energy": -0.01226,
				"method": "rhf"
			},
			{
				"type": "unocc",
				"energy": -0.00019,
				"method": "rhf"
			},
			{
				"type": "unocc",
				"energy": 0.07363,
				"method": "rhf"
			}
		],
		"cosmo_sigma_profile": { 
			"-0.025": 0.0,
			"-0.024": 0.0,
			"-0.023": 0.0,
			"-0.022": 0.0,
			"-0.021": 0.0,
			"-0.02": 0.0,
			"-0.019": 0.0,
			"-0.018": 0.0,
			"-0.017": 0.0,
			"-0.016": 0.0,
			"-0.015": 0.0,
			"-0.014": 0.0,
			"-0.013": 0.0,
			"-0.012": 0.0,
			"-0.011": 0.38483067783,
			"-0.01": 2.47537425542,
			"-0.009": 2.15128572193,
			"-0.008": 7.20458007826,
			"-0.007": 7.74812824013,
			"-0.006": 8.54795681985,
			"-0.005": 6.86197894257,
			"-0.004": 10.504474336,
			"-0.003": 11.1729326537,
			"-0.002": 13.7918850157,
			"-0.001": 18.1645638535,
			"0.0": 21.6966430426,
			"0.001": 26.9838797294,
			"0.002": 13.1569134896,
			"0.003": 9.92098468129,
			"0.004": 14.3778037897,
			"0.005": 4.84863668106,
			"0.006": 2.09409644344,
			"0.007": 1.52051174611,
			"0.008": 1.24162996628,
			"0.009": 1.11296020474,
			"0.01": 1.81774981303,
			"0.011": 1.98111500319,
			"0.012": 3.38064879766,
			"0.013": 4.29149434972,
			"0.014": 1.47145252495,
			"0.015": 0.0736106473478,
			"0.016": 0.0,
			"0.017": 0.0,
			"0.018": 0.0,
			"0.019": 0.0,
			"0.02": 0.0,
			"0.021": 0.0,
			"0.022": 0.0,
			"0.023": 0.0,
			"0.024": 0.0,
			"0.025": 0.0
		}
	}
}
