{
	 "smiles": "CC(C)(C)OC(=O)N1CCC(O)(CC1)C1=C(CO)C=CC=C1", 
	 "Tm": 380.15, 
	 "num_atms": 47, 
	 "gaussian": { 
		 "optdone": 1, 
		 "sigma_profile": "yes", 
		 "theory": "DFT", 
		 "functional": "B3LYP", 
		 "basiset": "6-31G**", 
		 "properties": { 
			 "R2extent": 9970.3699, 
			 "electric_dipole_moment_norm": 3.76036537852, 
			 "electric_quadrupole_moment_norm": 22.9584765695, 
			 "total_energy": -1018.5462594, 
			 "HOMO_LUMO_gap": 0.2099, 
			 "cosmo_polarized_energy": -16.56, 
			 "cosmo_cavitation_energy": 45.67, 
			 "cosmo_dispersion_energy": -32.12, 
			 "cosmo_repulsion_energy": 2.45, 
			 "cosmo_total_nonelectrostatic_energy": 16.0, 
			 "SMD_solvation_energy": 7.59 
		},
		"coords": [
			{
				"x": 2.2835455281,
				"y": -4.1338989779,
				"z": 3.3001180323,
				"element": "C" 
			},
			{
				"x": 2.6319023412,
				"y": -4.0079178305,
				"z": 1.8125874804,
				"element": "C" 
			},
			{
				"x": 2.0599979586,
				"y": -5.1884450817,
				"z": 1.0219298895,
				"element": "C" 
			},
			{
				"x": 4.1419354841,
				"y": -3.8823845593,
				"z": 1.5796436951,
				"element": "C" 
			},
			{
				"x": 1.9330672,
				"y": -2.8599008493,
				"z": 1.2219482983,
				"element": "O" 
			},
			{
				"x": 2.1587948062,
				"y": -1.5987175328,
				"z": 1.680282993,
				"element": "C" 
			},
			{
				"x": 2.9567233856,
				"y": -1.2964587794,
				"z": 2.5592453356,
				"element": "O" 
			},
			{
				"x": 1.3811670382,
				"y": -0.6833351434,
				"z": 1.0300156745,
				"element": "N" 
			},
			{
				"x": 1.5724770273,
				"y": 0.7316134916,
				"z": 1.3825817759,
				"element": "C" 
			},
			{
				"x": 0.9841752764,
				"y": 1.6258566265,
				"z": 0.2937792606,
				"element": "C" 
			},
			{
				"x": -0.544488929,
				"y": 1.3952327778,
				"z": 0.1355459175,
				"element": "C" 
			},
			{
				"x": -1.1939341642,
				"y": 1.8264929845,
				"z": 1.3269926235,
				"element": "O" 
			},
			{
				"x": -0.8325428103,
				"y": -0.14116145,
				"z": 0.0750541749,
				"element": "C" 
			},
			{
				"x": 0.4210878436,
				"y": -1.0178384559,
				"z": -0.0229708104,
				"element": "C" 
			},
			{
				"x": -1.0407300484,
				"y": 2.126569943,
				"z": -1.1326111973,
				"element": "C" 
			},
			{
				"x": -1.8422389199,
				"y": 3.2936873936,
				"z": -1.1568346591,
				"element": "C" 
			},
			{
				"x": -2.4096231675,
				"y": 3.9791142224,
				"z": 0.068081335,
				"element": "C" 
			},
			{
				"x": -1.3334937316,
				"y": 4.4782660011,
				"z": 0.8950197704,
				"element": "O" 
			},
			{
				"x": -2.1739149559,
				"y": 3.8665218113,
				"z": -2.3956637871,
				"element": "C" 
			},
			{
				"x": -1.749243948,
				"y": 3.3253585786,
				"z": -3.6048412826,
				"element": "C" 
			},
			{
				"x": -0.9594634443,
				"y": 2.1783364036,
				"z": -3.5861152793,
				"element": "C" 
			},
			{
				"x": -0.6161357042,
				"y": 1.6028086287,
				"z": -2.3658846892,
				"element": "C" 
			},
			{
				"x": 2.6712669729,
				"y": -3.2850405329,
				"z": 3.8633098974,
				"element": "H" 
			},
			{
				"x": 1.1977682556,
				"y": -4.1818968517,
				"z": 3.432291826,
				"element": "H" 
			},
			{
				"x": 2.7155511914,
				"y": -5.0560725451,
				"z": 3.7028001951,
				"element": "H" 
			},
			{
				"x": 2.2673801898,
				"y": -5.0741807861,
				"z": -0.0461781445,
				"element": "H" 
			},
			{
				"x": 0.9764271704,
				"y": -5.2561349807,
				"z": 1.1576608772,
				"element": "H" 
			},
			{
				"x": 2.5106339286,
				"y": -6.1249366219,
				"z": 1.3641347982,
				"element": "H" 
			},
			{
				"x": 4.6448779302,
				"y": -4.7931563703,
				"z": 1.9213638067,
				"element": "H" 
			},
			{
				"x": 4.3513172301,
				"y": -3.759032745,
				"z": 0.5121131589,
				"element": "H" 
			},
			{
				"x": 4.5475422199,
				"y": -3.027735443,
				"z": 2.1209243496,
				"element": "H" 
			},
			{
				"x": 1.0858767853,
				"y": 0.949904228,
				"z": 2.3404381263,
				"element": "H" 
			},
			{
				"x": 2.6418839701,
				"y": 0.9180549075,
				"z": 1.5105049484,
				"element": "H" 
			},
			{
				"x": 1.4988427857,
				"y": 1.4491291567,
				"z": -0.6566294442,
				"element": "H" 
			},
			{
				"x": 1.1525096427,
				"y": 2.677931041,
				"z": 0.5492324871,
				"element": "H" 
			},
			{
				"x": -1.0019340318,
				"y": 2.7774335136,
				"z": 1.4359418366,
				"element": "H" 
			},
			{
				"x": -1.5009592979,
				"y": -0.3840879277,
				"z": -0.7557653804,
				"element": "H" 
			},
			{
				"x": -1.3606403969,
				"y": -0.3832675227,
				"z": 1.0012327354,
				"element": "H" 
			},
			{
				"x": 0.889857219,
				"y": -0.9163233669,
				"z": -1.0142777438,
				"element": "H" 
			},
			{
				"x": 0.146432866,
				"y": -2.0663330519,
				"z": 0.0854751244,
				"element": "H" 
			},
			{
				"x": -3.0355035145,
				"y": 4.8187103805,
				"z": -0.2568205074,
				"element": "H" 
			},
			{
				"x": -3.0304434635,
				"y": 3.285246714,
				"z": 0.6453892076,
				"element": "H" 
			},
			{
				"x": -1.7295412005,
				"y": 4.9640853086,
				"z": 1.631659022,
				"element": "H" 
			},
			{
				"x": -2.7863679032,
				"y": 4.7646733794,
				"z": -2.4029598721,
				"element": "H" 
			},
			{
				"x": -2.0280236702,
				"y": 3.7948217219,
				"z": -4.5434425724,
				"element": "H" 
			},
			{
				"x": -0.6093239945,
				"y": 1.7319988039,
				"z": -4.5125360667,
				"element": "H" 
			},
			{
				"x": 0.0021050497,
				"y": 0.7099093883,
				"z": -2.3732672171,
				"element": "H" 
			}
		],
		 "valence_orbital": [ 
			{
				"type": "occ",
				"energy": -0.26027,
				"method": "rhf"
			},
			{
				"type": "occ",
				"energy": -0.2519,
				"method": "rhf"
			},
			{
				"type": "occ",
				"energy": -0.24855,
				"method": "rhf"
			},
			{
				"type": "occ",
				"energy": -0.24066,
				"method": "rhf"
			},
			{
				"type": "occ",
				"energy": -0.22256,
				"method": "rhf"
			},
			{
				"type": "unocc",
				"energy": -0.01266,
				"method": "rhf"
			},
			{
				"type": "unocc",
				"energy": -0.00705,
				"method": "rhf"
			},
			{
				"type": "unocc",
				"energy": 0.06342,
				"method": "rhf"
			},
			{
				"type": "unocc",
				"energy": 0.0651,
				"method": "rhf"
			},
			{
				"type": "unocc",
				"energy": 0.08382,
				"method": "rhf"
			}
		],
		"cosmo_sigma_profile": { 
			"-0.025": 0.0,
			"-0.024": 0.0,
			"-0.023": 0.0,
			"-0.022": 0.0,
			"-0.021": 0.0,
			"-0.02": 0.0,
			"-0.019": 0.0,
			"-0.018": 0.0,
			"-0.017": 0.403110515507,
			"-0.016": 1.13748664634,
			"-0.015": 1.2088662613,
			"-0.014": 1.20354153988,
			"-0.013": 0.316749993403,
			"-0.012": 1.0428215049,
			"-0.011": 0.973250043152,
			"-0.01": 1.2427359281,
			"-0.009": 0.867943322095,
			"-0.008": 1.43565423929,
			"-0.007": 2.51904817975,
			"-0.006": 8.9468084909,
			"-0.005": 14.3853964408,
			"-0.004": 30.0511068173,
			"-0.003": 43.5754502024,
			"-0.002": 37.8736055783,
			"-0.001": 33.4659432091,
			"0.0": 36.7702249373,
			"0.001": 36.0077446913,
			"0.002": 18.1670951379,
			"0.003": 13.857287992,
			"0.004": 13.966916912,
			"0.005": 15.4276326261,
			"0.006": 11.2737522029,
			"0.007": 5.02492334605,
			"0.008": 3.50797909259,
			"0.009": 3.40462444008,
			"0.01": 3.05856601713,
			"0.011": 3.64479468636,
			"0.012": 3.52268767598,
			"0.013": 3.84225573892,
			"0.014": 3.72854474578,
			"0.015": 0.218981740096,
			"0.016": 0.0,
			"0.017": 0.0,
			"0.018": 0.0,
			"0.019": 0.0,
			"0.02": 0.0,
			"0.021": 0.0,
			"0.022": 0.0,
			"0.023": 0.0,
			"0.024": 0.0,
			"0.025": 0.0
		}
	}
}
