{
	 "smiles": "CNC(=O)C1=CC=C(CN)C=C1", 
	 "Tm": 364.15, 
	 "num_atms": 24, 
	 "gaussian": { 
		 "optdone": 1, 
		 "sigma_profile": "yes", 
		 "theory": "DFT", 
		 "functional": "B3LYP", 
		 "basiset": "6-31G**", 
		 "properties": { 
			 "R2extent": 4216.1413, 
			 "electric_dipole_moment_norm": 3.82094854323, 
			 "electric_quadrupole_moment_norm": 14.2365321367, 
			 "total_energy": -534.931952241, 
			 "HOMO_LUMO_gap": 0.20706, 
			 "cosmo_polarized_energy": -14.92, 
			 "cosmo_cavitation_energy": 27.47, 
			 "cosmo_dispersion_energy": -20.37, 
			 "cosmo_repulsion_energy": 1.66, 
			 "cosmo_total_nonelectrostatic_energy": 8.75, 
			 "SMD_solvation_energy": 4.22 
		},
		"coords": [
			{
				"x": 2.9497329347,
				"y": -0.9426911543,
				"z": 1.2054604754,
				"element": "C" 
			},
			{
				"x": 2.2134050652,
				"y": 0.0740214367,
				"z": 0.4766806342,
				"element": "N" 
			},
			{
				"x": 1.0195512221,
				"y": -0.2031994891,
				"z": -0.1382093459,
				"element": "C" 
			},
			{
				"x": 0.483425107,
				"y": -1.3066642561,
				"z": -0.0669486925,
				"element": "O" 
			},
			{
				"x": 0.3960305703,
				"y": 0.927399112,
				"z": -0.9082842001,
				"element": "C" 
			},
			{
				"x": 0.7007829969,
				"y": 2.2801303737,
				"z": -0.6980762818,
				"element": "C" 
			},
			{
				"x": 0.0780461701,
				"y": 3.275055476,
				"z": -1.4496586327,
				"element": "C" 
			},
			{
				"x": -0.8646896991,
				"y": 2.9426417731,
				"z": -2.4305892142,
				"element": "C" 
			},
			{
				"x": -1.5728055682,
				"y": 4.0214439541,
				"z": -3.2288746464,
				"element": "C" 
			},
			{
				"x": -0.7171226136,
				"y": 5.19033266,
				"z": -3.4504012832,
				"element": "N" 
			},
			{
				"x": -1.1717379717,
				"y": 1.5906937626,
				"z": -2.6340781298,
				"element": "C" 
			},
			{
				"x": -0.5597433857,
				"y": 0.5961133729,
				"z": -1.8770608842,
				"element": "C" 
			},
			{
				"x": 3.3589835995,
				"y": -0.5289406864,
				"z": 2.1326154382,
				"element": "H" 
			},
			{
				"x": 2.2535657013,
				"y": -1.7474790221,
				"z": 1.4421157374,
				"element": "H" 
			},
			{
				"x": 3.7734169456,
				"y": -1.3604772363,
				"z": 0.6123815151,
				"element": "H" 
			},
			{
				"x": 2.6951652212,
				"y": 0.9218907654,
				"z": 0.2220556099,
				"element": "H" 
			},
			{
				"x": 1.3998310362,
				"y": 2.5729996127,
				"z": 0.0810080651,
				"element": "H" 
			},
			{
				"x": 0.3140504451,
				"y": 4.3215347484,
				"z": -1.2870233871,
				"element": "H" 
			},
			{
				"x": -2.4478396333,
				"y": 4.3645651473,
				"z": -2.6592286834,
				"element": "H" 
			},
			{
				"x": -1.9721756426,
				"y": 3.5677309592,
				"z": -4.1524538702,
				"element": "H" 
			},
			{
				"x": -1.2508197355,
				"y": 5.9326309361,
				"z": -3.8941519746,
				"element": "H" 
			},
			{
				"x": 0.0392055539,
				"y": 4.9500409698,
				"z": -4.0869157635,
				"element": "H" 
			},
			{
				"x": -1.8991336037,
				"y": 1.31543799,
				"z": -3.394491892,
				"element": "H" 
			},
			{
				"x": -0.8023247159,
				"y": -0.451311206,
				"z": -2.0210705937,
				"element": "H" 
			}
		],
		 "valence_orbital": [ 
			{
				"type": "occ",
				"energy": -0.25474,
				"method": "rhf"
			},
			{
				"type": "occ",
				"energy": -0.25216,
				"method": "rhf"
			},
			{
				"type": "occ",
				"energy": -0.24673,
				"method": "rhf"
			},
			{
				"type": "occ",
				"energy": -0.23948,
				"method": "rhf"
			},
			{
				"type": "occ",
				"energy": -0.23529,
				"method": "rhf"
			},
			{
				"type": "unocc",
				"energy": -0.02823,
				"method": "rhf"
			},
			{
				"type": "unocc",
				"energy": -0.00266,
				"method": "rhf"
			},
			{
				"type": "unocc",
				"energy": 0.06425,
				"method": "rhf"
			},
			{
				"type": "unocc",
				"energy": 0.08348,
				"method": "rhf"
			},
			{
				"type": "unocc",
				"energy": 0.08696,
				"method": "rhf"
			}
		],
		"cosmo_sigma_profile": { 
			"-0.025": 0.0,
			"-0.024": 0.0,
			"-0.023": 0.0,
			"-0.022": 0.0,
			"-0.021": 0.0,
			"-0.02": 0.0,
			"-0.019": 0.0,
			"-0.018": 0.0,
			"-0.017": 0.0,
			"-0.016": 0.0,
			"-0.015": 0.0,
			"-0.014": 0.850224495884,
			"-0.013": 0.835190477074,
			"-0.012": 1.48178630739,
			"-0.011": 1.14003217405,
			"-0.01": 3.5476292557,
			"-0.009": 3.77808114597,
			"-0.008": 4.51860903073,
			"-0.007": 4.05230495003,
			"-0.006": 5.90759696467,
			"-0.005": 13.1705331397,
			"-0.004": 20.1687443781,
			"-0.003": 20.7171917784,
			"-0.002": 20.3423573481,
			"-0.001": 15.8790903516,
			"0.0": 11.8866668694,
			"0.001": 12.2871609096,
			"0.002": 11.2009767468,
			"0.003": 11.915722895,
			"0.004": 12.4205796296,
			"0.005": 11.951582658,
			"0.006": 2.62037353249,
			"0.007": 2.68339920303,
			"0.008": 3.26660259462,
			"0.009": 2.81910373512,
			"0.01": 1.86512160951,
			"0.011": 2.38426357769,
			"0.012": 2.05560668482,
			"0.013": 3.086381066,
			"0.014": 5.83633469201,
			"0.015": 1.25290801999,
			"0.016": 0.652233899386,
			"0.017": 0.0929985175434,
			"0.018": 0.0,
			"0.019": 0.0,
			"0.02": 0.0,
			"0.021": 0.0,
			"0.022": 0.0,
			"0.023": 0.0,
			"0.024": 0.0,
			"0.025": 0.0
		}
	}
}
