{
	 "smiles": "S=C(NC1=CC=CC=C1)N1CC(CC1C1=CC=CC=C1)C1=CC=CC=C1", 
	 "Tm": 461.15, 
	 "num_atms": 48, 
	 "gaussian": { 
		 "optdone": 1, 
		 "sigma_profile": "yes", 
		 "theory": "DFT", 
		 "functional": "B3LYP", 
		 "basiset": "6-31G**", 
		 "properties": { 
			 "R2extent": 10884.2128, 
			 "electric_dipole_moment_norm": 4.68038220875, 
			 "electric_quadrupole_moment_norm": 21.8088920099, 
			 "total_energy": -1397.40767812, 
			 "HOMO_LUMO_gap": 0.16675, 
			 "cosmo_polarized_energy": -18.48, 
			 "cosmo_cavitation_energy": 51.46, 
			 "cosmo_dispersion_energy": -34.22, 
			 "cosmo_repulsion_energy": 2.57, 
			 "cosmo_total_nonelectrostatic_energy": 19.81, 
			 "SMD_solvation_energy": 6.99 
		},
		"coords": [
			{
				"x": -3.7788892945,
				"y": 0.0166514907,
				"z": 0.6957045659,
				"element": "S" 
			},
			{
				"x": -2.3017170995,
				"y": -0.7504185545,
				"z": 0.4742910747,
				"element": "C" 
			},
			{
				"x": -2.2374180441,
				"y": -2.1513630343,
				"z": 0.5184929378,
				"element": "N" 
			},
			{
				"x": -1.4529406855,
				"y": -2.9002470011,
				"z": 1.442508294,
				"element": "C" 
			},
			{
				"x": -0.8439370503,
				"y": -2.3204739769,
				"z": 2.5647039126,
				"element": "C" 
			},
			{
				"x": -0.1078225289,
				"y": -3.1135710771,
				"z": 3.4460169712,
				"element": "C" 
			},
			{
				"x": 0.0113949194,
				"y": -4.4881452546,
				"z": 3.2372755372,
				"element": "C" 
			},
			{
				"x": -0.610507422,
				"y": -5.067889279,
				"z": 2.1287186363,
				"element": "C" 
			},
			{
				"x": -1.3296256713,
				"y": -4.2815625666,
				"z": 1.2312099856,
				"element": "C" 
			},
			{
				"x": -1.1435868538,
				"y": -0.099360845,
				"z": 0.208087478,
				"element": "N" 
			},
			{
				"x": 0.1522960338,
				"y": -0.7055709014,
				"z": -0.1354442817,
				"element": "C" 
			},
			{
				"x": 1.1635266489,
				"y": 0.2637445074,
				"z": 0.5031398287,
				"element": "C" 
			},
			{
				"x": 0.5003757652,
				"y": 1.6342555935,
				"z": 0.243760387,
				"element": "C" 
			},
			{
				"x": -1.0366668971,
				"y": 1.3777210759,
				"z": 0.2554207178,
				"element": "C" 
			},
			{
				"x": -1.7272096675,
				"y": 2.1099149831,
				"z": -0.8874938197,
				"element": "C" 
			},
			{
				"x": -2.1997680292,
				"y": 3.4095031449,
				"z": -0.6736045274,
				"element": "C" 
			},
			{
				"x": -2.7480790755,
				"y": 4.1505833421,
				"z": -1.7205304404,
				"element": "C" 
			},
			{
				"x": -2.8364909353,
				"y": 3.5975314451,
				"z": -2.999016333,
				"element": "C" 
			},
			{
				"x": -2.3734804332,
				"y": 2.2991416064,
				"z": -3.2196361065,
				"element": "C" 
			},
			{
				"x": -1.8183318667,
				"y": 1.5630473735,
				"z": -2.1725790047,
				"element": "C" 
			},
			{
				"x": 2.5868364191,
				"y": 0.1157541643,
				"z": 0.0049240168,
				"element": "C" 
			},
			{
				"x": 2.918572106,
				"y": 0.3227859197,
				"z": -1.3431121292,
				"element": "C" 
			},
			{
				"x": 4.2316176915,
				"y": 0.1724041743,
				"z": -1.7882771027,
				"element": "C" 
			},
			{
				"x": 5.2412172331,
				"y": -0.1865374529,
				"z": -0.892403891,
				"element": "C" 
			},
			{
				"x": 4.925770201,
				"y": -0.3948054278,
				"z": 0.450356591,
				"element": "C" 
			},
			{
				"x": 3.6095901389,
				"y": -0.2456336016,
				"z": 0.8911988648,
				"element": "C" 
			},
			{
				"x": -3.1748229769,
				"y": -2.5249295671,
				"z": 0.4224573282,
				"element": "H" 
			},
			{
				"x": -0.9649502352,
				"y": -1.2591896819,
				"z": 2.7554258803,
				"element": "H" 
			},
			{
				"x": 0.3580246796,
				"y": -2.6524173096,
				"z": 4.3123975438,
				"element": "H" 
			},
			{
				"x": 0.5789037822,
				"y": -5.1010613071,
				"z": 3.930619407,
				"element": "H" 
			},
			{
				"x": -0.5273042881,
				"y": -6.1367210138,
				"z": 1.9538680029,
				"element": "H" 
			},
			{
				"x": -1.7963997278,
				"y": -4.7269421961,
				"z": 0.3571489617,
				"element": "H" 
			},
			{
				"x": 0.2471301021,
				"y": -1.7191501235,
				"z": 0.2446481589,
				"element": "H" 
			},
			{
				"x": 0.2748093358,
				"y": -0.7362188446,
				"z": -1.2267547405,
				"element": "H" 
			},
			{
				"x": 1.154461651,
				"y": 0.0677286319,
				"z": 1.5821731112,
				"element": "H" 
			},
			{
				"x": 0.788749217,
				"y": 2.3849195922,
				"z": 0.9841500008,
				"element": "H" 
			},
			{
				"x": 0.8002675378,
				"y": 2.0152888295,
				"z": -0.7359850034,
				"element": "H" 
			},
			{
				"x": -1.4890588489,
				"y": 1.7094572696,
				"z": 1.1956185723,
				"element": "H" 
			},
			{
				"x": -2.1498783696,
				"y": 3.8399635515,
				"z": 0.3236543861,
				"element": "H" 
			},
			{
				"x": -3.1152396918,
				"y": 5.1560248001,
				"z": -1.5345324036,
				"element": "H" 
			},
			{
				"x": -3.2695725889,
				"y": 4.1698608715,
				"z": -3.8142443499,
				"element": "H" 
			},
			{
				"x": -2.4485461094,
				"y": 1.8551464996,
				"z": -4.2084512251,
				"element": "H" 
			},
			{
				"x": -1.477740804,
				"y": 0.5473957584,
				"z": -2.3526022053,
				"element": "H" 
			},
			{
				"x": 2.1474085758,
				"y": 0.6069086989,
				"z": -2.0547100012,
				"element": "H" 
			},
			{
				"x": 4.4668181267,
				"y": 0.3373469304,
				"z": -2.8359871527,
				"element": "H" 
			},
			{
				"x": 6.2640523104,
				"y": -0.3017810119,
				"z": -1.2390716938,
				"element": "H" 
			},
			{
				"x": 5.7025643404,
				"y": -0.6739372298,
				"z": 1.1566491922,
				"element": "H" 
			},
			{
				"x": 3.3710983791,
				"y": -0.4126529965,
				"z": 1.938816067,
				"element": "H" 
			}
		],
		 "valence_orbital": [ 
			{
				"type": "occ",
				"energy": -0.24439,
				"method": "rhf"
			},
			{
				"type": "occ",
				"energy": -0.23779,
				"method": "rhf"
			},
			{
				"type": "occ",
				"energy": -0.22977,
				"method": "rhf"
			},
			{
				"type": "occ",
				"energy": -0.2157,
				"method": "rhf"
			},
			{
				"type": "occ",
				"energy": -0.19271,
				"method": "rhf"
			},
			{
				"type": "unocc",
				"energy": -0.02596,
				"method": "rhf"
			},
			{
				"type": "unocc",
				"energy": -0.01118,
				"method": "rhf"
			},
			{
				"type": "unocc",
				"energy": -0.01074,
				"method": "rhf"
			},
			{
				"type": "unocc",
				"energy": -0.00678,
				"method": "rhf"
			},
			{
				"type": "unocc",
				"energy": 0.00294,
				"method": "rhf"
			}
		],
		"cosmo_sigma_profile": { 
			"-0.025": 0.0,
			"-0.024": 0.0,
			"-0.023": 0.0,
			"-0.022": 0.0,
			"-0.021": 0.0,
			"-0.02": 0.0,
			"-0.019": 0.0,
			"-0.018": 0.0,
			"-0.017": 0.0,
			"-0.016": 0.0,
			"-0.015": 0.0,
			"-0.014": 0.0,
			"-0.013": 0.543688740977,
			"-0.012": 1.06470749491,
			"-0.011": 0.803440864524,
			"-0.01": 0.798124762178,
			"-0.009": 1.08235549122,
			"-0.008": 0.747222760721,
			"-0.007": 3.21795422579,
			"-0.006": 20.7781035553,
			"-0.005": 43.1692291557,
			"-0.004": 45.7709684232,
			"-0.003": 39.8570312577,
			"-0.002": 30.129500051,
			"-0.001": 26.6654454549,
			"0.0": 21.2733634981,
			"0.001": 23.880982202,
			"0.002": 23.5089169972,
			"0.003": 23.0769188517,
			"0.004": 26.4143468828,
			"0.005": 25.395520506,
			"0.006": 19.6036056166,
			"0.007": 7.41297093065,
			"0.008": 5.31436357906,
			"0.009": 6.2666833797,
			"0.01": 8.29632182541,
			"0.011": 4.34613098155,
			"0.012": 2.4714717775,
			"0.013": 0.233801239567,
			"0.014": 0.0,
			"0.015": 0.0,
			"0.016": 0.0,
			"0.017": 0.0,
			"0.018": 0.0,
			"0.019": 0.0,
			"0.02": 0.0,
			"0.021": 0.0,
			"0.022": 0.0,
			"0.023": 0.0,
			"0.024": 0.0,
			"0.025": 0.0
		}
	}
}
