{
	 "smiles": "ClCC1=C(Cl)C=C2OCCCOC2=C1", 
	 "Tm": 329.15, 
	 "num_atms": 24, 
	 "gaussian": { 
		 "optdone": 1, 
		 "sigma_profile": "yes", 
		 "theory": "DFT", 
		 "functional": "B3LYP", 
		 "basiset": "6-31G**", 
		 "properties": { 
			 "R2extent": 5298.5673, 
			 "electric_dipole_moment_norm": 4.87343932044, 
			 "electric_quadrupole_moment_norm": 10.627336162, 
			 "total_energy": -1457.90534343, 
			 "HOMO_LUMO_gap": 0.19381, 
			 "cosmo_polarized_energy": -9.19, 
			 "cosmo_cavitation_energy": 30.18, 
			 "cosmo_dispersion_energy": -22.61, 
			 "cosmo_repulsion_energy": 1.79, 
			 "cosmo_total_nonelectrostatic_energy": 9.36, 
			 "SMD_solvation_energy": 4.55 
		},
		"coords": [
			{
				"x": 1.1203875607,
				"y": 1.1873295943,
				"z": 5.2564423677,
				"element": "Cl" 
			},
			{
				"x": -0.319955537,
				"y": 0.3188096966,
				"z": 4.5122704269,
				"element": "C" 
			},
			{
				"x": -0.2878459737,
				"y": 0.3305513765,
				"z": 3.0168120247,
				"element": "C" 
			},
			{
				"x": -0.8493063584,
				"y": 1.3600616121,
				"z": 2.2454589708,
				"element": "C" 
			},
			{
				"x": -1.6519863718,
				"y": 2.7239920531,
				"z": 3.0135598266,
				"element": "Cl" 
			},
			{
				"x": -0.8130782784,
				"y": 1.3252320974,
				"z": 0.8555133559,
				"element": "C" 
			},
			{
				"x": -0.1939020225,
				"y": 0.2666792929,
				"z": 0.1870541396,
				"element": "C" 
			},
			{
				"x": -0.2079545783,
				"y": 0.3128118093,
				"z": -1.1821296923,
				"element": "O" 
			},
			{
				"x": -0.3342705805,
				"y": -0.9453080121,
				"z": -1.8662669497,
				"element": "C" 
			},
			{
				"x": 1.0204294626,
				"y": -1.6255747492,
				"z": -2.0655333808,
				"element": "C" 
			},
			{
				"x": 1.8560262406,
				"y": -1.5578670133,
				"z": -0.7853323142,
				"element": "C" 
			},
			{
				"x": 1.0644734636,
				"y": -1.8354332584,
				"z": 0.3811098144,
				"element": "O" 
			},
			{
				"x": 0.4141867168,
				"y": -0.7616295923,
				"z": 0.9388388221,
				"element": "C" 
			},
			{
				"x": 0.3443416415,
				"y": -0.712435356,
				"z": 2.3293675196,
				"element": "C" 
			},
			{
				"x": -1.1971093252,
				"y": 0.8245487512,
				"z": 4.9110879209,
				"element": "H" 
			},
			{
				"x": -0.2718595119,
				"y": -0.6982246408,
				"z": 4.8996089823,
				"element": "H" 
			},
			{
				"x": -1.2761895242,
				"y": 2.1072124122,
				"z": 0.2657454874,
				"element": "H" 
			},
			{
				"x": -1.0138331415,
				"y": -1.5955452536,
				"z": -1.3043928847,
				"element": "H" 
			},
			{
				"x": -0.8026560486,
				"y": -0.7106409622,
				"z": -2.8256428354,
				"element": "H" 
			},
			{
				"x": 1.5809603302,
				"y": -1.1454940158,
				"z": -2.876076008,
				"element": "H" 
			},
			{
				"x": 0.8448185183,
				"y": -2.6667394012,
				"z": -2.3606919634,
				"element": "H" 
			},
			{
				"x": 2.3231123797,
				"y": -0.5722396174,
				"z": -0.6798718239,
				"element": "H" 
			},
			{
				"x": 2.6488687822,
				"y": -2.3105484554,
				"z": -0.7913963775,
				"element": "H" 
			},
			{
				"x": 0.823242156,
				"y": -1.5143483678,
				"z": 2.882764571,
				"element": "H" 
			}
		],
		 "valence_orbital": [ 
			{
				"type": "occ",
				"energy": -0.30122,
				"method": "rhf"
			},
			{
				"type": "occ",
				"energy": -0.28953,
				"method": "rhf"
			},
			{
				"type": "occ",
				"energy": -0.28679,
				"method": "rhf"
			},
			{
				"type": "occ",
				"energy": -0.24884,
				"method": "rhf"
			},
			{
				"type": "occ",
				"energy": -0.22337,
				"method": "rhf"
			},
			{
				"type": "unocc",
				"energy": -0.02956,
				"method": "rhf"
			},
			{
				"type": "unocc",
				"energy": -0.01288,
				"method": "rhf"
			},
			{
				"type": "unocc",
				"energy": 0.02686,
				"method": "rhf"
			},
			{
				"type": "unocc",
				"energy": 0.04613,
				"method": "rhf"
			},
			{
				"type": "unocc",
				"energy": 0.06901,
				"method": "rhf"
			}
		],
		"cosmo_sigma_profile": { 
			"-0.025": 0.0,
			"-0.024": 0.0,
			"-0.023": 0.0,
			"-0.022": 0.0,
			"-0.021": 0.0,
			"-0.02": 0.0,
			"-0.019": 0.0,
			"-0.018": 0.0,
			"-0.017": 0.0,
			"-0.016": 0.0,
			"-0.015": 0.0,
			"-0.014": 0.0,
			"-0.013": 0.0,
			"-0.012": 0.0,
			"-0.011": 0.0,
			"-0.01": 0.0,
			"-0.009": 0.322711738402,
			"-0.008": 3.42494293152,
			"-0.007": 6.44448337456,
			"-0.006": 10.8053556977,
			"-0.005": 20.665984672,
			"-0.004": 27.1261561009,
			"-0.003": 18.9867958814,
			"-0.002": 14.2557738736,
			"-0.001": 12.2451678967,
			"0.0": 13.4868826639,
			"0.001": 16.7960076709,
			"0.002": 25.631382545,
			"0.003": 17.1175730798,
			"0.004": 15.3723245889,
			"0.005": 13.4195391994,
			"0.006": 12.1013487806,
			"0.007": 8.26517240243,
			"0.008": 1.86728969512,
			"0.009": 1.91376144915,
			"0.01": 2.83089068805,
			"0.011": 0.762362421933,
			"0.012": 0.0,
			"0.013": 0.0,
			"0.014": 0.0,
			"0.015": 0.0,
			"0.016": 0.0,
			"0.017": 0.0,
			"0.018": 0.0,
			"0.019": 0.0,
			"0.02": 0.0,
			"0.021": 0.0,
			"0.022": 0.0,
			"0.023": 0.0,
			"0.024": 0.0,
			"0.025": 0.0
		}
	}
}
