{
	 "smiles": "OC(=O)C1=CC=C(OCC2=CSC=N2)C=C1", 
	 "Tm": 465.15, 
	 "num_atms": 25, 
	 "gaussian": { 
		 "optdone": 1, 
		 "sigma_profile": "yes", 
		 "theory": "DFT", 
		 "functional": "B3LYP", 
		 "basiset": "6-31G**", 
		 "properties": { 
			 "R2extent": 6365.2542, 
			 "electric_dipole_moment_norm": 6.65624368995, 
			 "electric_quadrupole_moment_norm": 31.2714267433, 
			 "total_energy": -1103.18890103, 
			 "HOMO_LUMO_gap": 0.19001, 
			 "cosmo_polarized_energy": -17.91, 
			 "cosmo_cavitation_energy": 31.89, 
			 "cosmo_dispersion_energy": -23.52, 
			 "cosmo_repulsion_energy": 1.78, 
			 "cosmo_total_nonelectrostatic_energy": 10.16, 
			 "SMD_solvation_energy": 5.87 
		},
		"coords": [
			{
				"x": -0.7108289212,
				"y": 4.4747042451,
				"z": -1.2919375916,
				"element": "O" 
			},
			{
				"x": -1.3150866378,
				"y": 4.4929262309,
				"z": -0.0701755535,
				"element": "C" 
			},
			{
				"x": -1.9260784461,
				"y": 5.476619452,
				"z": 0.2798504037,
				"element": "O" 
			},
			{
				"x": -1.1784506666,
				"y": 3.2652635879,
				"z": 0.7695155757,
				"element": "C" 
			},
			{
				"x": -2.0727987694,
				"y": 3.1008453932,
				"z": 1.8414253277,
				"element": "C" 
			},
			{
				"x": -1.9985622466,
				"y": 1.9880940916,
				"z": 2.6615802419,
				"element": "C" 
			},
			{
				"x": -1.010197036,
				"y": 1.0132922973,
				"z": 2.4413787331,
				"element": "C" 
			},
			{
				"x": -1.0187842316,
				"y": -0.0315343598,
				"z": 3.3168283345,
				"element": "O" 
			},
			{
				"x": -0.0037019703,
				"y": -1.0346153284,
				"z": 3.2184327764,
				"element": "C" 
			},
			{
				"x": -0.2027975845,
				"y": -1.9843050329,
				"z": 2.0621377828,
				"element": "C" 
			},
			{
				"x": -1.3610313483,
				"y": -2.6523173041,
				"z": 1.768391316,
				"element": "C" 
			},
			{
				"x": -1.1385552087,
				"y": -3.6404029161,
				"z": 0.3675124904,
				"element": "S" 
			},
			{
				"x": 0.5121162854,
				"y": -3.0811191989,
				"z": 0.2831237486,
				"element": "C" 
			},
			{
				"x": 0.8537895994,
				"y": -2.2334617483,
				"z": 1.2094269117,
				"element": "N" 
			},
			{
				"x": -0.0980568677,
				"y": 1.1691328057,
				"z": 1.3890175546,
				"element": "C" 
			},
			{
				"x": -0.1919057963,
				"y": 2.2929187907,
				"z": 0.5676068968,
				"element": "C" 
			},
			{
				"x": -0.4165347881,
				"y": 3.5781832235,
				"z": -1.5025544853,
				"element": "H" 
			},
			{
				"x": -2.8215856146,
				"y": 3.8673222846,
				"z": 2.0094311955,
				"element": "H" 
			},
			{
				"x": -2.6871703132,
				"y": 1.8484504771,
				"z": 3.4882614768,
				"element": "H" 
			},
			{
				"x": 0.9926857754,
				"y": -0.5860780337,
				"z": 3.1444122257,
				"element": "H" 
			},
			{
				"x": -0.0663803533,
				"y": -1.5665332307,
				"z": 4.1716852474,
				"element": "H" 
			},
			{
				"x": -2.3091503177,
				"y": -2.6065035158,
				"z": 2.2845792924,
				"element": "H" 
			},
			{
				"x": 1.175490401,
				"y": -3.4278206134,
				"z": -0.5001262789,
				"element": "H" 
			},
			{
				"x": 0.6720523873,
				"y": 0.4319792772,
				"z": 1.1969511152,
				"element": "H" 
			},
			{
				"x": 0.5519226696,
				"y": 2.4090591256,
				"z": -0.2175547377,
				"element": "H" 
			}
		],
		 "valence_orbital": [ 
			{
				"type": "occ",
				"energy": -0.29563,
				"method": "rhf"
			},
			{
				"type": "occ",
				"energy": -0.26982,
				"method": "rhf"
			},
			{
				"type": "occ",
				"energy": -0.26529,
				"method": "rhf"
			},
			{
				"type": "occ",
				"energy": -0.26242,
				"method": "rhf"
			},
			{
				"type": "occ",
				"energy": -0.23703,
				"method": "rhf"
			},
			{
				"type": "unocc",
				"energy": -0.04702,
				"method": "rhf"
			},
			{
				"type": "unocc",
				"energy": -0.03838,
				"method": "rhf"
			},
			{
				"type": "unocc",
				"energy": -0.01741,
				"method": "rhf"
			},
			{
				"type": "unocc",
				"energy": 0.00172,
				"method": "rhf"
			},
			{
				"type": "unocc",
				"energy": 0.01918,
				"method": "rhf"
			}
		],
		"cosmo_sigma_profile": { 
			"-0.025": 0.0,
			"-0.024": 0.0,
			"-0.023": 0.0,
			"-0.022": 0.0,
			"-0.021": 0.0,
			"-0.02": 0.0,
			"-0.019": 0.238692373464,
			"-0.018": 0.818319185461,
			"-0.017": 0.68048135027,
			"-0.016": 1.25354820321,
			"-0.015": 0.734115037432,
			"-0.014": 1.05901335643,
			"-0.013": 0.684054224644,
			"-0.012": 1.37478291606,
			"-0.011": 1.23921194274,
			"-0.01": 3.15242172651,
			"-0.009": 5.35163779054,
			"-0.008": 5.7686441803,
			"-0.007": 9.1075218397,
			"-0.006": 13.2704481882,
			"-0.005": 14.2345643144,
			"-0.004": 14.9764950078,
			"-0.003": 12.2214887141,
			"-0.002": 13.1478365956,
			"-0.001": 14.5312792246,
			"0.0": 17.2245809719,
			"0.001": 25.3572435169,
			"0.002": 27.8051459773,
			"0.003": 21.2867039345,
			"0.004": 8.35266447864,
			"0.005": 4.72867560424,
			"0.006": 3.49809347998,
			"0.007": 5.8955898656,
			"0.008": 3.87240521603,
			"0.009": 5.28554359839,
			"0.01": 4.9819109459,
			"0.011": 5.78161366347,
			"0.012": 6.50794002971,
			"0.013": 3.10147936003,
			"0.014": 1.11713950793,
			"0.015": 0.0238589500681,
			"0.016": 0.0,
			"0.017": 0.0,
			"0.018": 0.0,
			"0.019": 0.0,
			"0.02": 0.0,
			"0.021": 0.0,
			"0.022": 0.0,
			"0.023": 0.0,
			"0.024": 0.0,
			"0.025": 0.0
		}
	}
}
