{
	 "smiles": "CC1=NC2=CC=CC=C2N1CCC1=NNC(=S)O1", 
	 "Tm": 482.15, 
	 "num_atms": 30, 
	 "gaussian": { 
		 "optdone": 1, 
		 "sigma_profile": "yes", 
		 "theory": "DFT", 
		 "functional": "B3LYP", 
		 "basiset": "6-31G**", 
		 "properties": { 
			 "R2extent": 5198.1331, 
			 "electric_dipole_moment_norm": 6.42690671007, 
			 "electric_quadrupole_moment_norm": 11.665616036, 
			 "total_energy": -1156.92281372, 
			 "HOMO_LUMO_gap": 0.19147, 
			 "cosmo_polarized_energy": -25.21, 
			 "cosmo_cavitation_energy": 36.36, 
			 "cosmo_dispersion_energy": -24.91, 
			 "cosmo_repulsion_energy": 1.89, 
			 "cosmo_total_nonelectrostatic_energy": 13.34, 
			 "SMD_solvation_energy": 2.27 
		},
		"coords": [
			{
				"x": 3.592715209,
				"y": -1.0914481111,
				"z": -0.0509431389,
				"element": "C" 
			},
			{
				"x": 2.4178816771,
				"y": -1.35581312,
				"z": 0.8342712654,
				"element": "C" 
			},
			{
				"x": 1.9871409518,
				"y": -2.5513571106,
				"z": 1.1521425313,
				"element": "N" 
			},
			{
				"x": 0.9030488341,
				"y": -2.3415642797,
				"z": 1.9927880597,
				"element": "C" 
			},
			{
				"x": 0.0746069449,
				"y": -3.2696164651,
				"z": 2.6340249155,
				"element": "C" 
			},
			{
				"x": -0.9474753122,
				"y": -2.7852452501,
				"z": 3.4449505266,
				"element": "C" 
			},
			{
				"x": -1.1489912448,
				"y": -1.4026445842,
				"z": 3.6206697906,
				"element": "C" 
			},
			{
				"x": -0.3373547189,
				"y": -0.4609328639,
				"z": 2.9896647337,
				"element": "C" 
			},
			{
				"x": 0.6853436974,
				"y": -0.9568269266,
				"z": 2.177722077,
				"element": "C" 
			},
			{
				"x": 1.6754136193,
				"y": -0.3345312524,
				"z": 1.4218335745,
				"element": "N" 
			},
			{
				"x": 1.8854723344,
				"y": 1.0931512766,
				"z": 1.2909406919,
				"element": "C" 
			},
			{
				"x": 1.1669964124,
				"y": 1.745634641,
				"z": 0.0838828092,
				"element": "C" 
			},
			{
				"x": -0.319000159,
				"y": 1.6423088458,
				"z": 0.1295726622,
				"element": "C" 
			},
			{
				"x": -1.1379089726,
				"y": 2.3879635994,
				"z": 0.7935429112,
				"element": "N" 
			},
			{
				"x": -2.3651585899,
				"y": 1.8424467225,
				"z": 0.4960086442,
				"element": "N" 
			},
			{
				"x": -2.3004471253,
				"y": 0.784022497,
				"z": -0.3528889993,
				"element": "C" 
			},
			{
				"x": -3.4825730433,
				"y": -0.1487128805,
				"z": -1.0061891123,
				"element": "S" 
			},
			{
				"x": -0.9397426865,
				"y": 0.6564744461,
				"z": -0.5829618591,
				"element": "O" 
			},
			{
				"x": 4.3790610672,
				"y": -0.5283760279,
				"z": 0.4661989385,
				"element": "H" 
			},
			{
				"x": 4.0044017379,
				"y": -2.052423012,
				"z": -0.3602238473,
				"element": "H" 
			},
			{
				"x": 3.3173807976,
				"y": -0.5283701304,
				"z": -0.9504823781,
				"element": "H" 
			},
			{
				"x": 0.2368044978,
				"y": -4.3332882404,
				"z": 2.493276644,
				"element": "H" 
			},
			{
				"x": -1.6064560831,
				"y": -3.4836850489,
				"z": 3.9519002034,
				"element": "H" 
			},
			{
				"x": -1.9578015493,
				"y": -1.0604944198,
				"z": 4.2595234696,
				"element": "H" 
			},
			{
				"x": -0.5066932589,
				"y": 0.6032008327,
				"z": 3.1233698407,
				"element": "H" 
			},
			{
				"x": 1.5539954062,
				"y": 1.5750570763,
				"z": 2.2150699924,
				"element": "H" 
			},
			{
				"x": 2.9577399379,
				"y": 1.2858398226,
				"z": 1.1935240624,
				"element": "H" 
			},
			{
				"x": 1.4339393774,
				"y": 2.806978303,
				"z": 0.0649685514,
				"element": "H" 
			},
			{
				"x": 1.5137198843,
				"y": 1.2934569164,
				"z": -0.8491579169,
				"element": "H" 
			},
			{
				"x": -3.2128596428,
				"y": 2.2385947444,
				"z": 0.8708003563,
				"element": "H" 
			}
		],
		 "valence_orbital": [ 
			{
				"type": "occ",
				"energy": -0.26758,
				"method": "rhf"
			},
			{
				"type": "occ",
				"energy": -0.22896,
				"method": "rhf"
			},
			{
				"type": "occ",
				"energy": -0.22736,
				"method": "rhf"
			},
			{
				"type": "occ",
				"energy": -0.22256,
				"method": "rhf"
			},
			{
				"type": "occ",
				"energy": -0.22017,
				"method": "rhf"
			},
			{
				"type": "unocc",
				"energy": -0.0287,
				"method": "rhf"
			},
			{
				"type": "unocc",
				"energy": -0.01818,
				"method": "rhf"
			},
			{
				"type": "unocc",
				"energy": -0.01356,
				"method": "rhf"
			},
			{
				"type": "unocc",
				"energy": 0.02098,
				"method": "rhf"
			},
			{
				"type": "unocc",
				"energy": 0.04997,
				"method": "rhf"
			}
		],
		"cosmo_sigma_profile": { 
			"-0.025": 0.0,
			"-0.024": 0.0,
			"-0.023": 0.0,
			"-0.022": 0.0,
			"-0.021": 0.0,
			"-0.02": 0.0,
			"-0.019": 0.477509996369,
			"-0.018": 1.51145787916,
			"-0.017": 1.65828145718,
			"-0.016": 0.321774852296,
			"-0.015": 0.231496372872,
			"-0.014": 1.76401806013,
			"-0.013": 1.06853868046,
			"-0.012": 0.34118136592,
			"-0.011": 0.686790793204,
			"-0.01": 1.14075351228,
			"-0.009": 0.955875098635,
			"-0.008": 7.65906466017,
			"-0.007": 17.8536264493,
			"-0.006": 18.4393407268,
			"-0.005": 22.3174719514,
			"-0.004": 20.2927177507,
			"-0.003": 18.6798864863,
			"-0.002": 18.1960910615,
			"-0.001": 16.1395548342,
			"0.0": 12.5401409783,
			"0.001": 13.382926918,
			"0.002": 13.3254175819,
			"0.003": 12.6933701669,
			"0.004": 13.9938055567,
			"0.005": 16.2742791815,
			"0.006": 15.4642544084,
			"0.007": 10.2135699647,
			"0.008": 10.3832409116,
			"0.009": 8.92734647492,
			"0.01": 6.50070556976,
			"0.011": 2.74860893175,
			"0.012": 1.89847708471,
			"0.013": 1.19509428072,
			"0.014": 0.941312572205,
			"0.015": 0.558506771637,
			"0.016": 1.25211018062,
			"0.017": 0.86146936088,
			"0.018": 0.351417313914,
			"0.019": 0.0,
			"0.02": 0.0,
			"0.021": 0.0,
			"0.022": 0.0,
			"0.023": 0.0,
			"0.024": 0.0,
			"0.025": 0.0
		}
	}
}
