{
	 "smiles": "CC1C=C(C)N=N1", 
	 "Tm": 381.15, 
	 "num_atms": 15, 
	 "gaussian": { 
		 "optdone": 1, 
		 "sigma_profile": "yes", 
		 "theory": "DFT", 
		 "functional": "B3LYP", 
		 "basiset": "6-31G**", 
		 "properties": { 
			 "R2extent": 897.8324, 
			 "electric_dipole_moment_norm": 3.33770348743, 
			 "electric_quadrupole_moment_norm": 6.93647260789, 
			 "total_energy": -304.801491107, 
			 "HOMO_LUMO_gap": 0.18072, 
			 "cosmo_polarized_energy": -8.38, 
			 "cosmo_cavitation_energy": 18.39, 
			 "cosmo_dispersion_energy": -13.62, 
			 "cosmo_repulsion_energy": 1.17, 
			 "cosmo_total_nonelectrostatic_energy": 5.94, 
			 "SMD_solvation_energy": 0.0 
		},
		"coords": [
			{
				"x": 1.0181793708,
				"y": -0.2481990088,
				"z": -1.800966452,
				"element": "C" 
			},
			{
				"x": 0.2114988127,
				"y": -0.6184954868,
				"z": -0.5473457754,
				"element": "C" 
			},
			{
				"x": -0.1246641242,
				"y": 0.4931232679,
				"z": 0.3903464735,
				"element": "C" 
			},
			{
				"x": -1.4646105656,
				"y": 0.5233432249,
				"z": 0.4850391129,
				"element": "C" 
			},
			{
				"x": -2.3973543834,
				"y": 1.396910142,
				"z": 1.2555034074,
				"element": "C" 
			},
			{
				"x": -2.0254634978,
				"y": -0.5159472009,
				"z": -0.3475701495,
				"element": "N" 
			},
			{
				"x": -1.1152361823,
				"y": -1.1600914885,
				"z": -0.9321134114,
				"element": "N" 
			},
			{
				"x": 0.5147251014,
				"y": 0.5468031095,
				"z": -2.3576559515,
				"element": "H" 
			},
			{
				"x": 1.1181477493,
				"y": -1.119700026,
				"z": -2.4524279837,
				"element": "H" 
			},
			{
				"x": 2.0172522544,
				"y": 0.0999327318,
				"z": -1.5240509109,
				"element": "H" 
			},
			{
				"x": 0.7246051537,
				"y": -1.4411761868,
				"z": -0.0244597859,
				"element": "H" 
			},
			{
				"x": 0.5882830571,
				"y": 1.1374405204,
				"z": 0.8875861331,
				"element": "H" 
			},
			{
				"x": -3.0038507566,
				"y": 0.8006271779,
				"z": 1.946283988,
				"element": "H" 
			},
			{
				"x": -3.0939402706,
				"y": 1.9068652431,
				"z": 0.5807887472,
				"element": "H" 
			},
			{
				"x": -1.8536717188,
				"y": 2.1500639804,
				"z": 1.8305425582,
				"element": "H" 
			}
		],
		 "valence_orbital": [ 
			{
				"type": "occ",
				"energy": -0.35963,
				"method": "rhf"
			},
			{
				"type": "occ",
				"energy": -0.34578,
				"method": "rhf"
			},
			{
				"type": "occ",
				"energy": -0.32522,
				"method": "rhf"
			},
			{
				"type": "occ",
				"energy": -0.25705,
				"method": "rhf"
			},
			{
				"type": "occ",
				"energy": -0.23322,
				"method": "rhf"
			},
			{
				"type": "unocc",
				"energy": -0.0525,
				"method": "rhf"
			},
			{
				"type": "unocc",
				"energy": 0.04571,
				"method": "rhf"
			},
			{
				"type": "unocc",
				"energy": 0.10844,
				"method": "rhf"
			},
			{
				"type": "unocc",
				"energy": 0.11473,
				"method": "rhf"
			},
			{
				"type": "unocc",
				"energy": 0.1251,
				"method": "rhf"
			}
		],
		"cosmo_sigma_profile": { 
			"-0.025": 0.0,
			"-0.024": 0.0,
			"-0.023": 0.0,
			"-0.022": 0.0,
			"-0.021": 0.0,
			"-0.02": 0.0,
			"-0.019": 0.0,
			"-0.018": 0.0,
			"-0.017": 0.0,
			"-0.016": 0.0,
			"-0.015": 0.0,
			"-0.014": 0.0,
			"-0.013": 0.0,
			"-0.012": 0.0,
			"-0.011": 0.0,
			"-0.01": 0.0,
			"-0.009": 0.0,
			"-0.008": 0.983739562805,
			"-0.007": 4.16504722188,
			"-0.006": 4.27729444002,
			"-0.005": 11.1438566312,
			"-0.004": 18.0564289142,
			"-0.003": 15.5914322689,
			"-0.002": 14.5657432076,
			"-0.001": 17.7504361317,
			"0.0": 16.1249592815,
			"0.001": 7.69694584112,
			"0.002": 5.68264066781,
			"0.003": 3.26467835077,
			"0.004": 2.19479915863,
			"0.005": 1.71427150106,
			"0.006": 1.80558417751,
			"0.007": 2.15297973894,
			"0.008": 1.92951562032,
			"0.009": 2.00932608198,
			"0.01": 1.69359504467,
			"0.011": 2.37907648546,
			"0.012": 3.23677171019,
			"0.013": 2.2427000223,
			"0.014": 2.48706240805,
			"0.015": 1.57449874928,
			"0.016": 0.475997051146,
			"0.017": 0.0,
			"0.018": 0.0,
			"0.019": 0.0,
			"0.02": 0.0,
			"0.021": 0.0,
			"0.022": 0.0,
			"0.023": 0.0,
			"0.024": 0.0,
			"0.025": 0.0
		}
	}
}
