{
	 "smiles": "ClCC1=CC(=CC=C1)C1=NC=CC=N1", 
	 "Tm": 342.15, 
	 "num_atms": 23, 
	 "gaussian": { 
		 "optdone": 1, 
		 "sigma_profile": "yes", 
		 "theory": "DFT", 
		 "functional": "B3LYP", 
		 "basiset": "6-31G**", 
		 "properties": { 
			 "R2extent": 4257.6724, 
			 "electric_dipole_moment_norm": 3.47795742642, 
			 "electric_quadrupole_moment_norm": 15.6235767429, 
			 "total_energy": -994.298290882, 
			 "HOMO_LUMO_gap": 0.18404, 
			 "cosmo_polarized_energy": -9.99, 
			 "cosmo_cavitation_energy": 29.38, 
			 "cosmo_dispersion_energy": -21.64, 
			 "cosmo_repulsion_energy": 1.7, 
			 "cosmo_total_nonelectrostatic_energy": 9.44, 
			 "SMD_solvation_energy": 2.62 
		},
		"coords": [
			{
				"x": -4.0985286115,
				"y": -0.3384584726,
				"z": 1.1775825659,
				"element": "Cl" 
			},
			{
				"x": -3.0548954747,
				"y": -1.7965170858,
				"z": 0.7675814535,
				"element": "C" 
			},
			{
				"x": -1.5885999291,
				"y": -1.4948094276,
				"z": 0.8527034339,
				"element": "C" 
			},
			{
				"x": -0.8768520648,
				"y": -1.1336319194,
				"z": -0.2937315019,
				"element": "C" 
			},
			{
				"x": 0.4961271845,
				"y": -0.8561181727,
				"z": -0.2307020782,
				"element": "C" 
			},
			{
				"x": 1.1557951604,
				"y": -0.9416563689,
				"z": 1.0045913572,
				"element": "C" 
			},
			{
				"x": 0.4501581223,
				"y": -1.3005802274,
				"z": 2.1514143722,
				"element": "C" 
			},
			{
				"x": -0.9145986433,
				"y": -1.5766868222,
				"z": 2.0794280872,
				"element": "C" 
			},
			{
				"x": 1.2413213619,
				"y": -0.4786647319,
				"z": -1.4587177603,
				"element": "C" 
			},
			{
				"x": 0.5516560487,
				"y": -0.4312374581,
				"z": -2.6138628764,
				"element": "N" 
			},
			{
				"x": 1.2309126783,
				"y": -0.0875641832,
				"z": -3.709316881,
				"element": "C" 
			},
			{
				"x": 2.5918677042,
				"y": 0.2118374486,
				"z": -3.6850945733,
				"element": "C" 
			},
			{
				"x": 3.2121022323,
				"y": 0.1304926627,
				"z": -2.4396828785,
				"element": "C" 
			},
			{
				"x": 2.554195054,
				"y": -0.2103241892,
				"z": -1.3302918388,
				"element": "N" 
			},
			{
				"x": -3.3571802707,
				"y": -2.5687932603,
				"z": 1.4753659182,
				"element": "H" 
			},
			{
				"x": -3.3521485099,
				"y": -2.0898329693,
				"z": -0.2389911578,
				"element": "H" 
			},
			{
				"x": -1.377733714,
				"y": -1.0620395336,
				"z": -1.2533312403,
				"element": "H" 
			},
			{
				"x": 2.2172453628,
				"y": -0.7265284584,
				"z": 1.0461000142,
				"element": "H" 
			},
			{
				"x": 0.9666253496,
				"y": -1.367875695,
				"z": 3.1043699421,
				"element": "H" 
			},
			{
				"x": -1.4627330941,
				"y": -1.8534257001,
				"z": 2.9763490864,
				"element": "H" 
			},
			{
				"x": 0.6639762999,
				"y": -0.0513120441,
				"z": -4.6385042791,
				"element": "H" 
			},
			{
				"x": 3.1352022199,
				"y": 0.490640073,
				"z": -4.5808916122,
				"element": "H" 
			},
			{
				"x": 4.2735855332,
				"y": 0.3458865355,
				"z": -2.3255675528,
				"element": "H" 
			}
		],
		 "valence_orbital": [ 
			{
				"type": "occ",
				"energy": -0.29055,
				"method": "rhf"
			},
			{
				"type": "occ",
				"energy": -0.28873,
				"method": "rhf"
			},
			{
				"type": "occ",
				"energy": -0.25343,
				"method": "rhf"
			},
			{
				"type": "occ",
				"energy": -0.25312,
				"method": "rhf"
			},
			{
				"type": "occ",
				"energy": -0.24202,
				"method": "rhf"
			},
			{
				"type": "unocc",
				"energy": -0.05798,
				"method": "rhf"
			},
			{
				"type": "unocc",
				"energy": -0.04561,
				"method": "rhf"
			},
			{
				"type": "unocc",
				"energy": -0.02074,
				"method": "rhf"
			},
			{
				"type": "unocc",
				"energy": 0.0166,
				"method": "rhf"
			},
			{
				"type": "unocc",
				"energy": 0.04997,
				"method": "rhf"
			}
		],
		"cosmo_sigma_profile": { 
			"-0.025": 0.0,
			"-0.024": 0.0,
			"-0.023": 0.0,
			"-0.022": 0.0,
			"-0.021": 0.0,
			"-0.02": 0.0,
			"-0.019": 0.0,
			"-0.018": 0.0,
			"-0.017": 0.0,
			"-0.016": 0.0,
			"-0.015": 0.0,
			"-0.014": 0.0,
			"-0.013": 0.0,
			"-0.012": 0.0,
			"-0.011": 0.0,
			"-0.01": 0.0,
			"-0.009": 0.0207601226283,
			"-0.008": 5.73352571503,
			"-0.007": 15.5764004464,
			"-0.006": 15.9966293364,
			"-0.005": 14.5414998659,
			"-0.004": 15.7012179509,
			"-0.003": 11.492674453,
			"-0.002": 12.5437439407,
			"-0.001": 13.868334109,
			"0.0": 20.4675814692,
			"0.001": 16.9961064159,
			"0.002": 16.4105056404,
			"0.003": 18.8838014435,
			"0.004": 18.5562362146,
			"0.005": 10.8825496215,
			"0.006": 11.5826726813,
			"0.007": 10.5686551411,
			"0.008": 2.57332398312,
			"0.009": 2.41953898944,
			"0.01": 2.26095574618,
			"0.011": 1.46023049117,
			"0.012": 0.0217917575891,
			"0.013": 0.0,
			"0.014": 0.0,
			"0.015": 0.0,
			"0.016": 0.0,
			"0.017": 0.0,
			"0.018": 0.0,
			"0.019": 0.0,
			"0.02": 0.0,
			"0.021": 0.0,
			"0.022": 0.0,
			"0.023": 0.0,
			"0.024": 0.0,
			"0.025": 0.0
		}
	}
}
