{
	 "smiles": "OC(=O)C1=CC=C(CS(=O)(=O)C2=CC=CC=C2)O1", 
	 "Tm": 454.15, 
	 "num_atms": 28, 
	 "gaussian": { 
		 "optdone": 1, 
		 "sigma_profile": "yes", 
		 "theory": "DFT", 
		 "functional": "B3LYP", 
		 "basiset": "6-31G**", 
		 "properties": { 
			 "R2extent": 5391.8878, 
			 "electric_dipole_moment_norm": 2.61954390877, 
			 "electric_quadrupole_moment_norm": 34.4631604514, 
			 "total_energy": -1237.52486478, 
			 "HOMO_LUMO_gap": 0.18992, 
			 "cosmo_polarized_energy": -26.45, 
			 "cosmo_cavitation_energy": 35.38, 
			 "cosmo_dispersion_energy": -24.16, 
			 "cosmo_repulsion_energy": 1.85, 
			 "cosmo_total_nonelectrostatic_energy": 13.07, 
			 "SMD_solvation_energy": 6.91 
		},
		"coords": [
			{
				"x": 0.3226968032,
				"y": -4.4857461145,
				"z": -0.0966283636,
				"element": "O" 
			},
			{
				"x": -0.0497039653,
				"y": -3.3764194527,
				"z": 0.5986513937,
				"element": "C" 
			},
			{
				"x": -1.2049592057,
				"y": -3.1878822942,
				"z": 0.8899202779,
				"element": "O" 
			},
			{
				"x": 1.0490948535,
				"y": -2.4584467213,
				"z": 0.9587550156,
				"element": "C" 
			},
			{
				"x": 2.4190252489,
				"y": -2.5125647395,
				"z": 0.8606963981,
				"element": "C" 
			},
			{
				"x": 2.9157026926,
				"y": -1.3060260877,
				"z": 1.4261857981,
				"element": "C" 
			},
			{
				"x": 1.8162760316,
				"y": -0.5966520412,
				"z": 1.8361922643,
				"element": "C" 
			},
			{
				"x": 1.6479122927,
				"y": 0.7322854704,
				"z": 2.4614715003,
				"element": "C" 
			},
			{
				"x": 1.8285741422,
				"y": 2.1586013539,
				"z": 1.2930673259,
				"element": "S" 
			},
			{
				"x": 1.5826627121,
				"y": 3.3610139661,
				"z": 2.1042053735,
				"element": "O" 
			},
			{
				"x": 3.0963492376,
				"y": 1.965600072,
				"z": 0.5712832343,
				"element": "O" 
			},
			{
				"x": 0.4771457849,
				"y": 1.9688496604,
				"z": 0.1262806243,
				"element": "C" 
			},
			{
				"x": -0.7657909389,
				"y": 2.5266872684,
				"z": 0.4339384914,
				"element": "C" 
			},
			{
				"x": -1.8163748211,
				"y": 2.3649367786,
				"z": -0.4687938243,
				"element": "C" 
			},
			{
				"x": -1.6156787969,
				"y": 1.6586966048,
				"z": -1.6575728152,
				"element": "C" 
			},
			{
				"x": -0.3632099762,
				"y": 1.1171759504,
				"z": -1.9565805658,
				"element": "C" 
			},
			{
				"x": 0.696772169,
				"y": 1.2704138707,
				"z": -1.0627244556,
				"element": "C" 
			},
			{
				"x": 0.6801402601,
				"y": -1.2883456543,
				"z": 1.5538954316,
				"element": "O" 
			},
			{
				"x": 1.2634571126,
				"y": -4.4578113296,
				"z": -0.319328231,
				"element": "H" 
			},
			{
				"x": 3.0166495969,
				"y": -3.317311277,
				"z": 0.4533525398,
				"element": "H" 
			},
			{
				"x": 3.9447820132,
				"y": -0.9899566408,
				"z": 1.5107202076,
				"element": "H" 
			},
			{
				"x": 0.6692624,
				"y": 0.8345572667,
				"z": 2.9341180512,
				"element": "H" 
			},
			{
				"x": 2.4279260339,
				"y": 0.9379355337,
				"z": 3.1997128494,
				"element": "H" 
			},
			{
				"x": -0.8942007372,
				"y": 3.0899672698,
				"z": 1.352106418,
				"element": "H" 
			},
			{
				"x": -2.7887017447,
				"y": 2.7936305662,
				"z": -0.2467793726,
				"element": "H" 
			},
			{
				"x": -2.4377279186,
				"y": 1.5343667265,
				"z": -2.3561371505,
				"element": "H" 
			},
			{
				"x": -0.2103189628,
				"y": 0.5794664124,
				"z": -2.8872647299,
				"element": "H" 
			},
			{
				"x": 1.6827376826,
				"y": 0.8752775818,
				"z": -1.2810436865,
				"element": "H" 
			}
		],
		 "valence_orbital": [ 
			{
				"type": "occ",
				"energy": -0.30225,
				"method": "rhf"
			},
			{
				"type": "occ",
				"energy": -0.28375,
				"method": "rhf"
			},
			{
				"type": "occ",
				"energy": -0.27937,
				"method": "rhf"
			},
			{
				"type": "occ",
				"energy": -0.27512,
				"method": "rhf"
			},
			{
				"type": "occ",
				"energy": -0.25235,
				"method": "rhf"
			},
			{
				"type": "unocc",
				"energy": -0.06243,
				"method": "rhf"
			},
			{
				"type": "unocc",
				"energy": -0.04424,
				"method": "rhf"
			},
			{
				"type": "unocc",
				"energy": -0.02581,
				"method": "rhf"
			},
			{
				"type": "unocc",
				"energy": 0.00486,
				"method": "rhf"
			},
			{
				"type": "unocc",
				"energy": 0.04331,
				"method": "rhf"
			}
		],
		"cosmo_sigma_profile": { 
			"-0.025": 0.0,
			"-0.024": 0.0,
			"-0.023": 0.0,
			"-0.022": 0.0,
			"-0.021": 0.0,
			"-0.02": 0.14592668146,
			"-0.019": 0.941053925562,
			"-0.018": 1.33551196632,
			"-0.017": 1.05333054195,
			"-0.016": 0.663403714855,
			"-0.015": 1.09972443341,
			"-0.014": 0.717538887619,
			"-0.013": 1.67777445228,
			"-0.012": 1.1745669941,
			"-0.011": 1.44202984983,
			"-0.01": 4.45983902949,
			"-0.009": 6.48931270816,
			"-0.008": 8.34484994549,
			"-0.007": 15.0957848165,
			"-0.006": 18.1441497803,
			"-0.005": 17.7772480569,
			"-0.004": 13.9706744545,
			"-0.003": 13.6278460739,
			"-0.002": 14.4438859948,
			"-0.001": 15.6795582458,
			"0.0": 16.4731282613,
			"0.001": 18.4259779656,
			"0.002": 20.9789642733,
			"0.003": 15.758176915,
			"0.004": 6.05936411596,
			"0.005": 5.0737322306,
			"0.006": 5.25159503623,
			"0.007": 5.32619505582,
			"0.008": 6.33134147461,
			"0.009": 8.6676815938,
			"0.01": 12.070241807,
			"0.011": 13.8923025382,
			"0.012": 10.0895939797,
			"0.013": 1.31795879065,
			"0.014": 0.0,
			"0.015": 0.0,
			"0.016": 0.0,
			"0.017": 0.0,
			"0.018": 0.0,
			"0.019": 0.0,
			"0.02": 0.0,
			"0.021": 0.0,
			"0.022": 0.0,
			"0.023": 0.0,
			"0.024": 0.0,
			"0.025": 0.0
		}
	}
}
