{
	 "smiles": "OC(=O)C1=CC(OCC(F)F)=CN=C1", 
	 "Tm": 440.15, 
	 "num_atms": 21, 
	 "gaussian": { 
		 "optdone": 1, 
		 "sigma_profile": "yes", 
		 "theory": "DFT", 
		 "functional": "B3LYP", 
		 "basiset": "6-31G**", 
		 "properties": { 
			 "R2extent": 4181.8923, 
			 "electric_dipole_moment_norm": 3.76982881574, 
			 "electric_quadrupole_moment_norm": 17.8322241083, 
			 "total_energy": -789.15126357, 
			 "HOMO_LUMO_gap": 0.19422, 
			 "cosmo_polarized_energy": -17.98, 
			 "cosmo_cavitation_energy": 27.49, 
			 "cosmo_dispersion_energy": -19.86, 
			 "cosmo_repulsion_energy": 1.53, 
			 "cosmo_total_nonelectrostatic_energy": 9.16, 
			 "SMD_solvation_energy": 5.57 
		},
		"coords": [
			{
				"x": 3.089999906,
				"y": 3.5507979279,
				"z": 0.9969304614,
				"element": "O" 
			},
			{
				"x": 2.9176929209,
				"y": 2.2695003636,
				"z": 0.5839058483,
				"element": "C" 
			},
			{
				"x": 3.872549305,
				"y": 1.5892146941,
				"z": 0.2948430851,
				"element": "O" 
			},
			{
				"x": 1.5052338111,
				"y": 1.765560391,
				"z": 0.5113498184,
				"element": "C" 
			},
			{
				"x": 1.2582481299,
				"y": 0.6224045685,
				"z": -0.2458654177,
				"element": "C" 
			},
			{
				"x": -0.04755056,
				"y": 0.1348476056,
				"z": -0.3244692044,
				"element": "C" 
			},
			{
				"x": -0.2393080909,
				"y": -0.9753840723,
				"z": -1.0871022398,
				"element": "O" 
			},
			{
				"x": -1.5482516981,
				"y": -1.5138775794,
				"z": -1.188380929,
				"element": "C" 
			},
			{
				"x": -1.4495623501,
				"y": -2.7534176047,
				"z": -2.057652279,
				"element": "C" 
			},
			{
				"x": -2.7186468578,
				"y": -3.2132647548,
				"z": -2.2687766632,
				"element": "F" 
			},
			{
				"x": -0.745178,
				"y": -3.7199298231,
				"z": -1.4096034111,
				"element": "F" 
			},
			{
				"x": -1.0568971068,
				"y": 0.8128174422,
				"z": 0.3774599374,
				"element": "C" 
			},
			{
				"x": -0.8188456952,
				"y": 1.8958528101,
				"z": 1.126454047,
				"element": "N" 
			},
			{
				"x": 0.4293811511,
				"y": 2.357383889,
				"z": 1.1920682894,
				"element": "C" 
			},
			{
				"x": 2.240808892,
				"y": 4.0106787722,
				"z": 1.0522889418,
				"element": "H" 
			},
			{
				"x": 2.0693475112,
				"y": 0.1226637118,
				"z": -0.7636884703,
				"element": "H" 
			},
			{
				"x": -2.2393364412,
				"y": -0.8017753144,
				"z": -1.6570103941,
				"element": "H" 
			},
			{
				"x": -1.9434186839,
				"y": -1.8070223737,
				"z": -0.2075277292,
				"element": "H" 
			},
			{
				"x": -0.9708863932,
				"y": -2.5608326918,
				"z": -3.0244446479,
				"element": "H" 
			},
			{
				"x": -2.0891441728,
				"y": 0.4762610832,
				"z": 0.3453923401,
				"element": "H" 
			},
			{
				"x": 0.5756644228,
				"y": 3.2173209549,
				"z": 1.8453286169,
				"element": "H" 
			}
		],
		 "valence_orbital": [ 
			{
				"type": "occ",
				"energy": -0.32951,
				"method": "rhf"
			},
			{
				"type": "occ",
				"energy": -0.30436,
				"method": "rhf"
			},
			{
				"type": "occ",
				"energy": -0.29197,
				"method": "rhf"
			},
			{
				"type": "occ",
				"energy": -0.27232,
				"method": "rhf"
			},
			{
				"type": "occ",
				"energy": -0.26205,
				"method": "rhf"
			},
			{
				"type": "unocc",
				"energy": -0.06783,
				"method": "rhf"
			},
			{
				"type": "unocc",
				"energy": -0.04,
				"method": "rhf"
			},
			{
				"type": "unocc",
				"energy": 0.03738,
				"method": "rhf"
			},
			{
				"type": "unocc",
				"energy": 0.05529,
				"method": "rhf"
			},
			{
				"type": "unocc",
				"energy": 0.06837,
				"method": "rhf"
			}
		],
		"cosmo_sigma_profile": { 
			"-0.025": 0.0,
			"-0.024": 0.0,
			"-0.023": 0.0,
			"-0.022": 0.0,
			"-0.021": 0.0,
			"-0.02": 0.00753848413744,
			"-0.019": 0.779561671576,
			"-0.018": 0.866521367515,
			"-0.017": 1.12146794988,
			"-0.016": 1.02919319585,
			"-0.015": 0.943662379318,
			"-0.014": 0.849923221516,
			"-0.013": 1.17634306723,
			"-0.012": 1.34166125255,
			"-0.011": 1.38639262638,
			"-0.01": 0.820920023008,
			"-0.009": 5.78921412656,
			"-0.008": 14.4417114964,
			"-0.007": 11.6403677204,
			"-0.006": 8.91152777649,
			"-0.005": 6.87017861963,
			"-0.004": 8.94515257966,
			"-0.003": 9.46265328293,
			"-0.002": 8.31342489135,
			"-0.001": 14.4474829615,
			"0.0": 17.7025708217,
			"0.001": 10.1121883471,
			"0.002": 7.95659400789,
			"0.003": 11.1479768306,
			"0.004": 23.6442280747,
			"0.005": 12.4557156363,
			"0.006": 5.19930990412,
			"0.007": 4.27947986396,
			"0.008": 4.84459708934,
			"0.009": 4.30495423829,
			"0.01": 6.02325311665,
			"0.011": 6.08107100816,
			"0.012": 3.83576998655,
			"0.013": 1.53382088743,
			"0.014": 0.810430316076,
			"0.015": 0.827693892073,
			"0.016": 0.157591331217,
			"0.017": 0.0,
			"0.018": 0.0,
			"0.019": 0.0,
			"0.02": 0.0,
			"0.021": 0.0,
			"0.022": 0.0,
			"0.023": 0.0,
			"0.024": 0.0,
			"0.025": 0.0
		}
	}
}
