{
	 "smiles": "ClC1=CC=C(COC2=CC=C(C=O)C=C2)C=C1", 
	 "Tm": 346.15, 
	 "num_atms": 28, 
	 "gaussian": { 
		 "optdone": 1, 
		 "sigma_profile": "yes", 
		 "theory": "DFT", 
		 "functional": "B3LYP", 
		 "basiset": "6-31G**", 
		 "properties": { 
			 "R2extent": 6780.8326, 
			 "electric_dipole_moment_norm": 4.30208259102, 
			 "electric_quadrupole_moment_norm": 26.2960050884, 
			 "total_energy": -1150.74567765, 
			 "HOMO_LUMO_gap": 0.18403, 
			 "cosmo_polarized_energy": -12.22, 
			 "cosmo_cavitation_energy": 34.91, 
			 "cosmo_dispersion_energy": -24.82, 
			 "cosmo_repulsion_energy": 1.93, 
			 "cosmo_total_nonelectrostatic_energy": 12.02, 
			 "SMD_solvation_energy": 6.79 
		},
		"coords": [
			{
				"x": -0.6634360441,
				"y": -0.3465261109,
				"z": 5.6866750596,
				"element": "Cl" 
			},
			{
				"x": -1.2365687068,
				"y": -0.3458094499,
				"z": 4.0257903714,
				"element": "C" 
			},
			{
				"x": -1.1395164676,
				"y": 0.8200751007,
				"z": 3.2659722952,
				"element": "C" 
			},
			{
				"x": -1.5974250655,
				"y": 0.8147414637,
				"z": 1.9493380968,
				"element": "C" 
			},
			{
				"x": -2.1410866901,
				"y": -0.3443475698,
				"z": 1.3843779311,
				"element": "C" 
			},
			{
				"x": -2.6922683208,
				"y": -0.3369635953,
				"z": -0.0279471548,
				"element": "C" 
			},
			{
				"x": -2.0332255231,
				"y": 0.5774072338,
				"z": -0.9047515916,
				"element": "O" 
			},
			{
				"x": -0.8269513632,
				"y": 0.2440877595,
				"z": -1.445995893,
				"element": "C" 
			},
			{
				"x": -0.3284075384,
				"y": 1.1565918561,
				"z": -2.3955403776,
				"element": "C" 
			},
			{
				"x": 0.8819778302,
				"y": 0.9141585507,
				"z": -3.0187986695,
				"element": "C" 
			},
			{
				"x": 1.6232535701,
				"y": -0.2417740584,
				"z": -2.7104334331,
				"element": "C" 
			},
			{
				"x": 2.913117401,
				"y": -0.5045110573,
				"z": -3.3730909814,
				"element": "C" 
			},
			{
				"x": 3.426831668,
				"y": 0.218578862,
				"z": -4.2080022576,
				"element": "O" 
			},
			{
				"x": 1.1208688581,
				"y": -1.1388555952,
				"z": -1.7620056378,
				"element": "C" 
			},
			{
				"x": -0.0964844429,
				"y": -0.9081695019,
				"z": -1.1234142078,
				"element": "C" 
			},
			{
				"x": -2.2224643582,
				"y": -1.5030489503,
				"z": 2.1643914847,
				"element": "C" 
			},
			{
				"x": -1.7770940492,
				"y": -1.5120973112,
				"z": 3.4864487169,
				"element": "C" 
			},
			{
				"x": -0.7129804909,
				"y": 1.7173673112,
				"z": 3.7005111083,
				"element": "H" 
			},
			{
				"x": -1.5237797524,
				"y": 1.7167270417,
				"z": 1.3502931312,
				"element": "H" 
			},
			{
				"x": -2.6847001863,
				"y": -1.3485438897,
				"z": -0.4534519136,
				"element": "H" 
			},
			{
				"x": -3.7315828127,
				"y": 0.0084893157,
				"z": -0.0237448205,
				"element": "H" 
			},
			{
				"x": -0.9195717645,
				"y": 2.037816418,
				"z": -2.622114847,
				"element": "H" 
			},
			{
				"x": 1.2818581536,
				"y": 1.6032949181,
				"z": -3.7559228641,
				"element": "H" 
			},
			{
				"x": 3.4130781245,
				"y": -1.4463013225,
				"z": -3.0509426102,
				"element": "H" 
			},
			{
				"x": 1.6930517275,
				"y": -2.0299184713,
				"z": -1.5132400643,
				"element": "H" 
			},
			{
				"x": -0.4518779992,
				"y": -1.6035956124,
				"z": -0.3736006083,
				"element": "H" 
			},
			{
				"x": -2.6379975095,
				"y": -2.4143249049,
				"z": 1.7404536436,
				"element": "H" 
			},
			{
				"x": -1.8402182478,
				"y": -2.4121484304,
				"z": 4.0878460934,
				"element": "H" 
			}
		],
		 "valence_orbital": [ 
			{
				"type": "occ",
				"energy": -0.27472,
				"method": "rhf"
			},
			{
				"type": "occ",
				"energy": -0.26821,
				"method": "rhf"
			},
			{
				"type": "occ",
				"energy": -0.25294,
				"method": "rhf"
			},
			{
				"type": "occ",
				"energy": -0.24876,
				"method": "rhf"
			},
			{
				"type": "occ",
				"energy": -0.23798,
				"method": "rhf"
			},
			{
				"type": "unocc",
				"energy": -0.05395,
				"method": "rhf"
			},
			{
				"type": "unocc",
				"energy": -0.02829,
				"method": "rhf"
			},
			{
				"type": "unocc",
				"energy": -0.02671,
				"method": "rhf"
			},
			{
				"type": "unocc",
				"energy": -0.01419,
				"method": "rhf"
			},
			{
				"type": "unocc",
				"energy": 0.02277,
				"method": "rhf"
			}
		],
		"cosmo_sigma_profile": { 
			"-0.025": 0.0,
			"-0.024": 0.0,
			"-0.023": 0.0,
			"-0.022": 0.0,
			"-0.021": 0.0,
			"-0.02": 0.0,
			"-0.019": 0.0,
			"-0.018": 0.0,
			"-0.017": 0.0,
			"-0.016": 0.0,
			"-0.015": 0.0,
			"-0.014": 0.0,
			"-0.013": 0.0,
			"-0.012": 0.0,
			"-0.011": 0.0,
			"-0.01": 0.0,
			"-0.009": 0.000423645338794,
			"-0.008": 2.44186412848,
			"-0.007": 15.3475377533,
			"-0.006": 21.3323951797,
			"-0.005": 22.2330355137,
			"-0.004": 17.4146650023,
			"-0.003": 15.7845184761,
			"-0.002": 14.6178846557,
			"-0.001": 16.874820078,
			"0.0": 18.1864537615,
			"0.001": 23.0397762661,
			"0.002": 29.0226260422,
			"0.003": 33.2460756621,
			"0.004": 20.3748343356,
			"0.005": 9.76838932688,
			"0.006": 3.60210356307,
			"0.007": 1.94430060141,
			"0.008": 1.97191870571,
			"0.009": 3.33604510537,
			"0.01": 2.28087671648,
			"0.011": 3.14968051947,
			"0.012": 4.45804230536,
			"0.013": 1.69834375385,
			"0.014": 0.154241005278,
			"0.015": 0.0,
			"0.016": 0.0,
			"0.017": 0.0,
			"0.018": 0.0,
			"0.019": 0.0,
			"0.02": 0.0,
			"0.021": 0.0,
			"0.022": 0.0,
			"0.023": 0.0,
			"0.024": 0.0,
			"0.025": 0.0
		}
	}
}
