{
	 "smiles": "O=C1C2=NC=CC=C2C2=CC=CN=C12", 
	 "Tm": 502.15, 
	 "num_atms": 20, 
	 "gaussian": { 
		 "optdone": 1, 
		 "sigma_profile": "yes", 
		 "theory": "DFT", 
		 "functional": "B3LYP", 
		 "basiset": "6-31G**", 
		 "properties": { 
			 "R2extent": 2720.3831, 
			 "electric_dipole_moment_norm": 6.90997783716, 
			 "electric_quadrupole_moment_norm": 14.7803433614, 
			 "total_energy": -607.492024, 
			 "HOMO_LUMO_gap": 0.14622, 
			 "cosmo_polarized_energy": -17.75, 
			 "cosmo_cavitation_energy": 25.36, 
			 "cosmo_dispersion_energy": -18.81, 
			 "cosmo_repulsion_energy": 1.43, 
			 "cosmo_total_nonelectrostatic_energy": 7.98, 
			 "SMD_solvation_energy": 1.7 
		},
		"coords": [
			{
				"x": -0.6831846802,
				"y": -1.9391139838,
				"z": -2.7953163514,
				"element": "O" 
			},
			{
				"x": -0.4268287905,
				"y": -1.4356048402,
				"z": -1.7254720866,
				"element": "C" 
			},
			{
				"x": -0.5731287238,
				"y": -2.0488268578,
				"z": -0.3476253835,
				"element": "C" 
			},
			{
				"x": -1.0191002148,
				"y": -3.2729033589,
				"z": -0.0927564848,
				"element": "N" 
			},
			{
				"x": -1.0673652563,
				"y": -3.6138378573,
				"z": 1.2061679831,
				"element": "C" 
			},
			{
				"x": -0.6825046145,
				"y": -2.7646783372,
				"z": 2.2495609661,
				"element": "C" 
			},
			{
				"x": -0.2149084088,
				"y": -1.4777667843,
				"z": 1.9615011556,
				"element": "C" 
			},
			{
				"x": -0.159621023,
				"y": -1.1113740927,
				"z": 0.6211491537,
				"element": "C" 
			},
			{
				"x": 0.265137736,
				"y": 0.1272395096,
				"z": -0.0635691435,
				"element": "C" 
			},
			{
				"x": 0.75260314,
				"y": 1.3436568788,
				"z": 0.4017737824,
				"element": "C" 
			},
			{
				"x": 1.059237186,
				"y": 2.3143144176,
				"z": -0.5582172006,
				"element": "C" 
			},
			{
				"x": 0.8692952865,
				"y": 2.0333301808,
				"z": -1.915710173,
				"element": "C" 
			},
			{
				"x": 0.3992373381,
				"y": 0.8627957192,
				"z": -2.3790722774,
				"element": "N" 
			},
			{
				"x": 0.113680035,
				"y": -0.0461794204,
				"z": -1.4547349272,
				"element": "C" 
			},
			{
				"x": -1.4315552317,
				"y": -4.6151934127,
				"z": 1.4248506309,
				"element": "H" 
			},
			{
				"x": -0.7497045755,
				"y": -3.11117101,
				"z": 3.2760902421,
				"element": "H" 
			},
			{
				"x": 0.0887933185,
				"y": -0.8030212497,
				"z": 2.7569127961,
				"element": "H" 
			},
			{
				"x": 0.8927938489,
				"y": 1.5418126781,
				"z": 1.4606774404,
				"element": "H" 
			},
			{
				"x": 1.443579062,
				"y": 3.2846001549,
				"z": -0.2596132832,
				"element": "H" 
			},
			{
				"x": 1.106144568,
				"y": 2.7845216659,
				"z": -2.6658968392,
				"element": "H" 
			}
		],
		 "valence_orbital": [ 
			{
				"type": "occ",
				"energy": -0.2934,
				"method": "rhf"
			},
			{
				"type": "occ",
				"energy": -0.28521,
				"method": "rhf"
			},
			{
				"type": "occ",
				"energy": -0.27336,
				"method": "rhf"
			},
			{
				"type": "occ",
				"energy": -0.24788,
				"method": "rhf"
			},
			{
				"type": "occ",
				"energy": -0.24465,
				"method": "rhf"
			},
			{
				"type": "unocc",
				"energy": -0.09843,
				"method": "rhf"
			},
			{
				"type": "unocc",
				"energy": -0.0649,
				"method": "rhf"
			},
			{
				"type": "unocc",
				"energy": -0.02846,
				"method": "rhf"
			},
			{
				"type": "unocc",
				"energy": 0.00649,
				"method": "rhf"
			},
			{
				"type": "unocc",
				"energy": 0.04577,
				"method": "rhf"
			}
		],
		"cosmo_sigma_profile": { 
			"-0.025": 0.0,
			"-0.024": 0.0,
			"-0.023": 0.0,
			"-0.022": 0.0,
			"-0.021": 0.0,
			"-0.02": 0.0,
			"-0.019": 0.0,
			"-0.018": 0.0,
			"-0.017": 0.0,
			"-0.016": 0.0,
			"-0.015": 0.0,
			"-0.014": 0.0,
			"-0.013": 0.0,
			"-0.012": 0.0,
			"-0.011": 0.0,
			"-0.01": 0.0,
			"-0.009": 1.52112317825,
			"-0.008": 9.89606799526,
			"-0.007": 14.9552068059,
			"-0.006": 15.2551624216,
			"-0.005": 12.3442201339,
			"-0.004": 11.2413665908,
			"-0.003": 10.5574745154,
			"-0.002": 13.2946423416,
			"-0.001": 18.7344024062,
			"0.0": 21.8849520407,
			"0.001": 21.0181608691,
			"0.002": 5.15702641748,
			"0.003": 4.71622732281,
			"0.004": 3.56405851044,
			"0.005": 2.78112413865,
			"0.006": 3.28424384874,
			"0.007": 4.013575079,
			"0.008": 3.79372545434,
			"0.009": 4.90948982169,
			"0.01": 5.856736639,
			"0.011": 4.76579819993,
			"0.012": 5.09427669332,
			"0.013": 3.46436510496,
			"0.014": 2.14977159353,
			"0.015": 1.59438918049,
			"0.016": 0.307864318024,
			"0.017": 0.0,
			"0.018": 0.0,
			"0.019": 0.0,
			"0.02": 0.0,
			"0.021": 0.0,
			"0.022": 0.0,
			"0.023": 0.0,
			"0.024": 0.0,
			"0.025": 0.0
		}
	}
}
