{
	 "smiles": "O=C1CCCCC1CC1=CC=CC=C1", 
	 "Tm": 302.15, 
	 "num_atms": 30, 
	 "gaussian": { 
		 "optdone": 1, 
		 "sigma_profile": "yes", 
		 "theory": "DFT", 
		 "functional": "B3LYP", 
		 "basiset": "6-31G**", 
		 "properties": { 
			 "R2extent": 3560.2575, 
			 "electric_dipole_moment_norm": 2.88093107693, 
			 "electric_quadrupole_moment_norm": 9.1804666401, 
			 "total_energy": -580.264570328, 
			 "HOMO_LUMO_gap": 0.21302, 
			 "cosmo_polarized_energy": -8.83, 
			 "cosmo_cavitation_energy": 31.35, 
			 "cosmo_dispersion_energy": -22.23, 
			 "cosmo_repulsion_energy": 1.75, 
			 "cosmo_total_nonelectrostatic_energy": 10.88, 
			 "SMD_solvation_energy": 5.02 
		},
		"coords": [
			{
				"x": -1.3577838546,
				"y": 1.9183511075,
				"z": 2.5082362339,
				"element": "O" 
			},
			{
				"x": -0.7202310318,
				"y": 0.9721612464,
				"z": 2.0831203804,
				"element": "C" 
			},
			{
				"x": -0.1777041788,
				"y": -0.1132517069,
				"z": 3.005374968,
				"element": "C" 
			},
			{
				"x": 1.2814282243,
				"y": -0.4887150419,
				"z": 2.6803586657,
				"element": "C" 
			},
			{
				"x": 1.4526295495,
				"y": -0.8181088727,
				"z": 1.1914889075,
				"element": "C" 
			},
			{
				"x": 0.9983542427,
				"y": 0.3560562236,
				"z": 0.3111305812,
				"element": "C" 
			},
			{
				"x": -0.4585094992,
				"y": 0.7965194442,
				"z": 0.5839799189,
				"element": "C" 
			},
			{
				"x": -1.5262187883,
				"y": -0.1750634014,
				"z": -0.0086703264,
				"element": "C" 
			},
			{
				"x": -1.5198444875,
				"y": -0.221830471,
				"z": -1.5222855085,
				"element": "C" 
			},
			{
				"x": -2.0606641392,
				"y": 0.836930081,
				"z": -2.2674248111,
				"element": "C" 
			},
			{
				"x": -2.0491535624,
				"y": 0.8114222391,
				"z": -3.6614508579,
				"element": "C" 
			},
			{
				"x": -1.4952618354,
				"y": -0.2776454139,
				"z": -4.3392353056,
				"element": "C" 
			},
			{
				"x": -0.9567005212,
				"y": -1.3387621314,
				"z": -3.6114095843,
				"element": "C" 
			},
			{
				"x": -0.970551465,
				"y": -1.3088564932,
				"z": -2.2148727523,
				"element": "C" 
			},
			{
				"x": -0.8122132456,
				"y": -1.0027841851,
				"z": 2.8743086787,
				"element": "H" 
			},
			{
				"x": -0.3021911138,
				"y": 0.2248042645,
				"z": 4.0376122435,
				"element": "H" 
			},
			{
				"x": 1.9366691873,
				"y": 0.3527392444,
				"z": 2.9426723538,
				"element": "H" 
			},
			{
				"x": 1.5935430964,
				"y": -1.3331189609,
				"z": 3.3052899433,
				"element": "H" 
			},
			{
				"x": 2.5008617333,
				"y": -1.0550944955,
				"z": 0.9757653754,
				"element": "H" 
			},
			{
				"x": 0.8777188443,
				"y": -1.7220165742,
				"z": 0.9481993235,
				"element": "H" 
			},
			{
				"x": 1.6593497904,
				"y": 1.2116802342,
				"z": 0.5031634591,
				"element": "H" 
			},
			{
				"x": 1.1109865629,
				"y": 0.1109302447,
				"z": -0.7505781357,
				"element": "H" 
			},
			{
				"x": -0.6334689762,
				"y": 1.7797485149,
				"z": 0.1345359261,
				"element": "H" 
			},
			{
				"x": -2.5105230932,
				"y": 0.1592711575,
				"z": 0.3404416143,
				"element": "H" 
			},
			{
				"x": -1.3778355947,
				"y": -1.1851152555,
				"z": 0.3889285683,
				"element": "H" 
			},
			{
				"x": -2.5004571155,
				"y": 1.6851979948,
				"z": -1.7478735639,
				"element": "H" 
			},
			{
				"x": -2.4774423281,
				"y": 1.6392687216,
				"z": -4.2197152557,
				"element": "H" 
			},
			{
				"x": -1.4882616507,
				"y": -0.2995303491,
				"z": -5.4251761135,
				"element": "H" 
			},
			{
				"x": -0.528257699,
				"y": -2.1929798865,
				"z": -4.1283379761,
				"element": "H" 
			},
			{
				"x": -0.5565670509,
				"y": -2.1443074791,
				"z": -1.6551769505,
				"element": "H" 
			}
		],
		 "valence_orbital": [ 
			{
				"type": "occ",
				"energy": -0.32122,
				"method": "rhf"
			},
			{
				"type": "occ",
				"energy": -0.31798,
				"method": "rhf"
			},
			{
				"type": "occ",
				"energy": -0.25088,
				"method": "rhf"
			},
			{
				"type": "occ",
				"energy": -0.24549,
				"method": "rhf"
			},
			{
				"type": "occ",
				"energy": -0.23112,
				"method": "rhf"
			},
			{
				"type": "unocc",
				"energy": -0.0181,
				"method": "rhf"
			},
			{
				"type": "unocc",
				"energy": -0.00253,
				"method": "rhf"
			},
			{
				"type": "unocc",
				"energy": 0.00241,
				"method": "rhf"
			},
			{
				"type": "unocc",
				"energy": 0.07516,
				"method": "rhf"
			},
			{
				"type": "unocc",
				"energy": 0.09349,
				"method": "rhf"
			}
		],
		"cosmo_sigma_profile": { 
			"-0.025": 0.0,
			"-0.024": 0.0,
			"-0.023": 0.0,
			"-0.022": 0.0,
			"-0.021": 0.0,
			"-0.02": 0.0,
			"-0.019": 0.0,
			"-0.018": 0.0,
			"-0.017": 0.0,
			"-0.016": 0.0,
			"-0.015": 0.0,
			"-0.014": 0.0,
			"-0.013": 0.0,
			"-0.012": 0.0,
			"-0.011": 0.0,
			"-0.01": 0.0,
			"-0.009": 0.0,
			"-0.008": 0.0,
			"-0.007": 0.00330201240013,
			"-0.006": 3.29853228591,
			"-0.005": 16.7152963199,
			"-0.004": 26.2009605573,
			"-0.003": 35.0140959798,
			"-0.002": 29.7206227896,
			"-0.001": 29.6289619926,
			"0.0": 25.0213580642,
			"0.001": 14.8845628634,
			"0.002": 9.4307180636,
			"0.003": 8.71888192173,
			"0.004": 9.25184254131,
			"0.005": 8.5766041223,
			"0.006": 9.79597409528,
			"0.007": 3.29668346345,
			"0.008": 1.16034312495,
			"0.009": 1.50994964265,
			"0.01": 2.15913109549,
			"0.011": 2.23397798938,
			"0.012": 4.85096229362,
			"0.013": 3.16126401572,
			"0.014": 0.901098991439,
			"0.015": 0.0,
			"0.016": 0.0,
			"0.017": 0.0,
			"0.018": 0.0,
			"0.019": 0.0,
			"0.02": 0.0,
			"0.021": 0.0,
			"0.022": 0.0,
			"0.023": 0.0,
			"0.024": 0.0,
			"0.025": 0.0
		}
	}
}
