{
	 "smiles": "CNS(=O)(=O)C1=CC(=CC=C1)S(Cl)(=O)=O", 
	 "Tm": 372.15, 
	 "num_atms": 23, 
	 "gaussian": { 
		 "optdone": 1, 
		 "sigma_profile": "yes", 
		 "theory": "DFT", 
		 "functional": "B3LYP", 
		 "basiset": "6-31G**", 
		 "properties": { 
			 "R2extent": 6779.2898, 
			 "electric_dipole_moment_norm": 5.43362519318, 
			 "electric_quadrupole_moment_norm": 20.617191623, 
			 "total_energy": -1883.63429734, 
			 "HOMO_LUMO_gap": 0.184, 
			 "cosmo_polarized_energy": -17.8, 
			 "cosmo_cavitation_energy": 32.62, 
			 "cosmo_dispersion_energy": -23.96, 
			 "cosmo_repulsion_energy": 1.81, 
			 "cosmo_total_nonelectrostatic_energy": 10.47, 
			 "SMD_solvation_energy": 3.26 
		},
		"coords": [
			{
				"x": -1.7187600664,
				"y": -1.0283064791,
				"z": 0.4015442492,
				"element": "C" 
			},
			{
				"x": -1.1413976298,
				"y": -1.0376152952,
				"z": -0.9500953332,
				"element": "N" 
			},
			{
				"x": -0.4935411696,
				"y": 0.4063954951,
				"z": -1.5340254894,
				"element": "S" 
			},
			{
				"x": -1.0917336961,
				"y": 1.5621555464,
				"z": -0.8594520791,
				"element": "O" 
			},
			{
				"x": -0.5024321928,
				"y": 0.2660113863,
				"z": -2.9920586526,
				"element": "O" 
			},
			{
				"x": 1.2137238449,
				"y": 0.3047667788,
				"z": -0.970964989,
				"element": "C" 
			},
			{
				"x": 1.6055118566,
				"y": 1.0446145588,
				"z": 0.1415739311,
				"element": "C" 
			},
			{
				"x": 2.9360320307,
				"y": 0.9367032255,
				"z": 0.5472542741,
				"element": "C" 
			},
			{
				"x": 3.8619533198,
				"y": 0.1349014213,
				"z": -0.1196481671,
				"element": "C" 
			},
			{
				"x": 3.4404776868,
				"y": -0.5841259383,
				"z": -1.2398786157,
				"element": "C" 
			},
			{
				"x": 2.1168699541,
				"y": -0.501098523,
				"z": -1.6703147786,
				"element": "C" 
			},
			{
				"x": 3.4668516942,
				"y": 1.8425681681,
				"z": 1.9985436457,
				"element": "S" 
			},
			{
				"x": 4.0694463065,
				"y": 3.6913131413,
				"z": 1.1390215567,
				"element": "Cl" 
			},
			{
				"x": 4.6744908448,
				"y": 1.2221393007,
				"z": 2.5281418557,
				"element": "O" 
			},
			{
				"x": 2.3062331159,
				"y": 2.1320638101,
				"z": 2.8299905721,
				"element": "O" 
			},
			{
				"x": -2.5181276075,
				"y": -0.2910786252,
				"z": 0.5284522483,
				"element": "H" 
			},
			{
				"x": -2.1056745396,
				"y": -2.0298953769,
				"z": 0.6015790879,
				"element": "H" 
			},
			{
				"x": -0.9304705657,
				"y": -0.8229234621,
				"z": 1.1302634234,
				"element": "H" 
			},
			{
				"x": -1.7634169149,
				"y": -1.3950012664,
				"z": -1.6717392992,
				"element": "H" 
			},
			{
				"x": 0.9006926637,
				"y": 1.6823634457,
				"z": 0.6629113247,
				"element": "H" 
			},
			{
				"x": 4.8842561843,
				"y": 0.0748798416,
				"z": 0.2364556519,
				"element": "H" 
			},
			{
				"x": 4.1471991826,
				"y": -1.2089515496,
				"z": -1.7760214296,
				"element": "H" 
			},
			{
				"x": 1.7808156976,
				"y": -1.0449796037,
				"z": -2.5464329872,
				"element": "H" 
			}
		],
		 "valence_orbital": [ 
			{
				"type": "occ",
				"energy": -0.32089,
				"method": "rhf"
			},
			{
				"type": "occ",
				"energy": -0.31981,
				"method": "rhf"
			},
			{
				"type": "occ",
				"energy": -0.31347,
				"method": "rhf"
			},
			{
				"type": "occ",
				"energy": -0.30478,
				"method": "rhf"
			},
			{
				"type": "occ",
				"energy": -0.28332,
				"method": "rhf"
			},
			{
				"type": "unocc",
				"energy": -0.09932,
				"method": "rhf"
			},
			{
				"type": "unocc",
				"energy": -0.06761,
				"method": "rhf"
			},
			{
				"type": "unocc",
				"energy": -0.0567,
				"method": "rhf"
			},
			{
				"type": "unocc",
				"energy": 0.02874,
				"method": "rhf"
			},
			{
				"type": "unocc",
				"energy": 0.04852,
				"method": "rhf"
			}
		],
		"cosmo_sigma_profile": { 
			"-0.025": 0.0,
			"-0.024": 0.0,
			"-0.023": 0.0,
			"-0.022": 0.0,
			"-0.021": 0.0,
			"-0.02": 0.0,
			"-0.019": 0.0,
			"-0.018": 0.0,
			"-0.017": 0.0,
			"-0.016": 0.0,
			"-0.015": 0.741239785021,
			"-0.014": 0.994545638439,
			"-0.013": 1.30490158145,
			"-0.012": 0.982550161773,
			"-0.011": 1.09388775344,
			"-0.01": 1.7900863808,
			"-0.009": 4.77117078863,
			"-0.008": 9.56309682349,
			"-0.007": 9.68708812944,
			"-0.006": 13.3080725997,
			"-0.005": 14.3457150975,
			"-0.004": 15.4668901065,
			"-0.003": 17.9619247128,
			"-0.002": 24.4584242582,
			"-0.001": 18.9674203893,
			"0.0": 17.1345683162,
			"0.001": 11.6600833062,
			"0.002": 14.4584333695,
			"0.003": 17.2966771402,
			"0.004": 8.7820433269,
			"0.005": 5.85017295527,
			"0.006": 6.29041041212,
			"0.007": 10.9491764108,
			"0.008": 12.8367470277,
			"0.009": 7.06742173142,
			"0.01": 8.74224648764,
			"0.011": 6.62512499962,
			"0.012": 0.633101271054,
			"0.013": 0.0,
			"0.014": 0.0,
			"0.015": 0.0,
			"0.016": 0.0,
			"0.017": 0.0,
			"0.018": 0.0,
			"0.019": 0.0,
			"0.02": 0.0,
			"0.021": 0.0,
			"0.022": 0.0,
			"0.023": 0.0,
			"0.024": 0.0,
			"0.025": 0.0
		}
	}
}
