{
	 "smiles": "CC1=C(N)C=C(NC(=O)C2=CC=CC=C2)C=C1", 
	 "Tm": 418.15, 
	 "num_atms": 31, 
	 "gaussian": { 
		 "optdone": 1, 
		 "sigma_profile": "yes", 
		 "theory": "DFT", 
		 "functional": "B3LYP", 
		 "basiset": "6-31G**", 
		 "properties": { 
			 "R2extent": 4704.7303, 
			 "electric_dipole_moment_norm": 4.6891797641, 
			 "electric_quadrupole_moment_norm": 13.6606598003, 
			 "total_energy": -726.679406014, 
			 "HOMO_LUMO_gap": 0.16681, 
			 "cosmo_polarized_energy": -15.44, 
			 "cosmo_cavitation_energy": 34.66, 
			 "cosmo_dispersion_energy": -24.28, 
			 "cosmo_repulsion_energy": 1.9, 
			 "cosmo_total_nonelectrostatic_energy": 12.28, 
			 "SMD_solvation_energy": 6.33 
		},
		"coords": [
			{
				"x": -0.9594636927,
				"y": -1.258310927,
				"z": -4.0602662954,
				"element": "C" 
			},
			{
				"x": -0.1519849535,
				"y": -0.5278744172,
				"z": -3.0169197861,
				"element": "C" 
			},
			{
				"x": 0.2885401341,
				"y": -1.1997834575,
				"z": -1.8522269609,
				"element": "C" 
			},
			{
				"x": 0.0201176197,
				"y": -2.5597597665,
				"z": -1.6826133885,
				"element": "N" 
			},
			{
				"x": 1.0662899151,
				"y": -0.5202261355,
				"z": -0.9035690914,
				"element": "C" 
			},
			{
				"x": 1.3823253029,
				"y": 0.8301702938,
				"z": -1.0741437981,
				"element": "C" 
			},
			{
				"x": 2.1850805694,
				"y": 1.5344583101,
				"z": -0.1371521032,
				"element": "N" 
			},
			{
				"x": 2.3297346972,
				"y": 1.3845144369,
				"z": 1.2306460875,
				"element": "C" 
			},
			{
				"x": 3.3574974854,
				"y": 1.7704466967,
				"z": 1.7790662019,
				"element": "O" 
			},
			{
				"x": 1.1928463882,
				"y": 0.8255342156,
				"z": 2.0363814208,
				"element": "C" 
			},
			{
				"x": -0.1543550225,
				"y": 1.033717776,
				"z": 1.7075964983,
				"element": "C" 
			},
			{
				"x": -1.1608277984,
				"y": 0.5694232731,
				"z": 2.5541881352,
				"element": "C" 
			},
			{
				"x": -0.8325345066,
				"y": -0.1154226595,
				"z": 3.7264941097,
				"element": "C" 
			},
			{
				"x": 0.5083975892,
				"y": -0.3184251267,
				"z": 4.0624259108,
				"element": "C" 
			},
			{
				"x": 1.5157235602,
				"y": 0.1628263009,
				"z": 3.2286142363,
				"element": "C" 
			},
			{
				"x": 0.9457271586,
				"y": 1.504998408,
				"z": -2.219979047,
				"element": "C" 
			},
			{
				"x": 0.1975228461,
				"y": 0.8145474791,
				"z": -3.1724107466,
				"element": "C" 
			},
			{
				"x": -0.4273383249,
				"y": -2.1404821686,
				"z": -4.438216398,
				"element": "H" 
			},
			{
				"x": -1.1778734775,
				"y": -0.6092086003,
				"z": -4.9119565724,
				"element": "H" 
			},
			{
				"x": -1.9246708519,
				"y": -1.6099894433,
				"z": -3.6673033446,
				"element": "H" 
			},
			{
				"x": 0.104679212,
				"y": -2.8955122003,
				"z": -0.7330840324,
				"element": "H" 
			},
			{
				"x": -0.8209100876,
				"y": -2.8982276873,
				"z": -2.1280553112,
				"element": "H" 
			},
			{
				"x": 1.4309630615,
				"y": -1.0538998816,
				"z": -0.0319458583,
				"element": "H" 
			},
			{
				"x": 2.9554158417,
				"y": 2.0656148157,
				"z": -0.5260325292,
				"element": "H" 
			},
			{
				"x": -0.414819879,
				"y": 1.5684944154,
				"z": 0.80078949,
				"element": "H" 
			},
			{
				"x": -2.2021039442,
				"y": 0.7455619719,
				"z": 2.2999060447,
				"element": "H" 
			},
			{
				"x": -1.6190576082,
				"y": -0.481363003,
				"z": 4.3806121949,
				"element": "H" 
			},
			{
				"x": 0.7677265065,
				"y": -0.8408727178,
				"z": 4.9787500786,
				"element": "H" 
			},
			{
				"x": 2.5625404747,
				"y": 0.0449495069,
				"z": 3.4880519701,
				"element": "H" 
			},
			{
				"x": 1.1839783708,
				"y": 2.5554509814,
				"z": -2.3546725417,
				"element": "H" 
			},
			{
				"x": -0.1358665863,
				"y": 1.3390493103,
				"z": -4.064574574,
				"element": "H" 
			}
		],
		 "valence_orbital": [ 
			{
				"type": "occ",
				"energy": -0.26053,
				"method": "rhf"
			},
			{
				"type": "occ",
				"energy": -0.25572,
				"method": "rhf"
			},
			{
				"type": "occ",
				"energy": -0.242,
				"method": "rhf"
			},
			{
				"type": "occ",
				"energy": -0.22313,
				"method": "rhf"
			},
			{
				"type": "occ",
				"energy": -0.20248,
				"method": "rhf"
			},
			{
				"type": "unocc",
				"energy": -0.03567,
				"method": "rhf"
			},
			{
				"type": "unocc",
				"energy": -0.00597,
				"method": "rhf"
			},
			{
				"type": "unocc",
				"energy": 0.00316,
				"method": "rhf"
			},
			{
				"type": "unocc",
				"energy": 0.01451,
				"method": "rhf"
			},
			{
				"type": "unocc",
				"energy": 0.06057,
				"method": "rhf"
			}
		],
		"cosmo_sigma_profile": { 
			"-0.025": 0.0,
			"-0.024": 0.0,
			"-0.023": 0.0,
			"-0.022": 0.0,
			"-0.021": 0.0,
			"-0.02": 0.0,
			"-0.019": 0.0,
			"-0.018": 0.0,
			"-0.017": 0.0,
			"-0.016": 0.0,
			"-0.015": 0.0,
			"-0.014": 0.436055559697,
			"-0.013": 1.09897841838,
			"-0.012": 2.26173739091,
			"-0.011": 3.41950349253,
			"-0.01": 3.98334667251,
			"-0.009": 4.12985545062,
			"-0.008": 4.14251683477,
			"-0.007": 3.65002309522,
			"-0.006": 11.8538275184,
			"-0.005": 18.7326210615,
			"-0.004": 22.8455704359,
			"-0.003": 19.4249081266,
			"-0.002": 19.5154088498,
			"-0.001": 18.4465416155,
			"0.0": 20.2324284463,
			"0.001": 17.1857755833,
			"0.002": 17.5437624478,
			"0.003": 16.1237472471,
			"0.004": 19.6075296751,
			"0.005": 15.5620372928,
			"0.006": 9.3182923368,
			"0.007": 4.73064697217,
			"0.008": 2.50989063152,
			"0.009": 2.0478159461,
			"0.01": 1.71998602152,
			"0.011": 2.38997651029,
			"0.012": 3.31389245658,
			"0.013": 5.52200219245,
			"0.014": 3.39410894028,
			"0.015": 0.157761436616,
			"0.016": 0.0,
			"0.017": 0.0,
			"0.018": 0.0,
			"0.019": 0.0,
			"0.02": 0.0,
			"0.021": 0.0,
			"0.022": 0.0,
			"0.023": 0.0,
			"0.024": 0.0,
			"0.025": 0.0
		}
	}
}
