{
	 "smiles": "O=C1CCC2=C(N1)C=CC=C2", 
	 "Tm": 437.15, 
	 "num_atms": 20, 
	 "gaussian": { 
		 "optdone": 1, 
		 "sigma_profile": "yes", 
		 "theory": "DFT", 
		 "functional": "B3LYP", 
		 "basiset": "6-31G**", 
		 "properties": { 
			 "R2extent": 1961.9219, 
			 "electric_dipole_moment_norm": 2.94859160448, 
			 "electric_quadrupole_moment_norm": 14.5254841472, 
			 "total_energy": -478.387750853, 
			 "HOMO_LUMO_gap": 0.20558, 
			 "cosmo_polarized_energy": -10.73, 
			 "cosmo_cavitation_energy": 23.04, 
			 "cosmo_dispersion_energy": -17.48, 
			 "cosmo_repulsion_energy": 1.4, 
			 "cosmo_total_nonelectrostatic_energy": 6.96, 
			 "SMD_solvation_energy": 4.15 
		},
		"coords": [
			{
				"x": 2.5884633399,
				"y": 0.2362446636,
				"z": 3.0917386621,
				"element": "O" 
			},
			{
				"x": 1.9641698024,
				"y": 0.1873422066,
				"z": 2.0440853432,
				"element": "C" 
			},
			{
				"x": 1.7706826062,
				"y": 1.372414045,
				"z": 1.1086917632,
				"element": "C" 
			},
			{
				"x": 1.6780850552,
				"y": 0.9506757613,
				"z": -0.3651732684,
				"element": "C" 
			},
			{
				"x": 0.6689286439,
				"y": -0.1592914414,
				"z": -0.5491668398,
				"element": "C" 
			},
			{
				"x": 0.5492549307,
				"y": -1.1161414764,
				"z": 0.4761312015,
				"element": "C" 
			},
			{
				"x": 1.3336585651,
				"y": -0.9724559935,
				"z": 1.6343612263,
				"element": "N" 
			},
			{
				"x": -0.3249464685,
				"y": -2.1997171082,
				"z": 0.3386793557,
				"element": "C" 
			},
			{
				"x": -1.0891192705,
				"y": -2.3324472772,
				"z": -0.8200190696,
				"element": "C" 
			},
			{
				"x": -0.9930426073,
				"y": -1.3828024014,
				"z": -1.8379619126,
				"element": "C" 
			},
			{
				"x": -0.1166780545,
				"y": -0.3046060235,
				"z": -1.6926058938,
				"element": "C" 
			},
			{
				"x": 2.5898627337,
				"y": 2.0711027848,
				"z": 1.2898308945,
				"element": "H" 
			},
			{
				"x": 0.8410926874,
				"y": 1.8725226473,
				"z": 1.4137483194,
				"element": "H" 
			},
			{
				"x": 1.4248379249,
				"y": 1.8104414104,
				"z": -0.9935079192,
				"element": "H" 
			},
			{
				"x": 2.6661283288,
				"y": 0.6012103177,
				"z": -0.6992652917,
				"element": "H" 
			},
			{
				"x": 1.3768317333,
				"y": -1.7355126467,
				"z": 2.2978123187,
				"element": "H" 
			},
			{
				"x": -0.4080524726,
				"y": -2.9295665071,
				"z": 1.1400193804,
				"element": "H" 
			},
			{
				"x": -1.7660412613,
				"y": -3.1757320179,
				"z": -0.9200983793,
				"element": "H" 
			},
			{
				"x": -1.5936586641,
				"y": -1.4792509481,
				"z": -2.737005666,
				"element": "H" 
			},
			{
				"x": -0.0328575525,
				"y": 0.4360700046,
				"z": -2.4842942244,
				"element": "H" 
			}
		],
		 "valence_orbital": [ 
			{
				"type": "occ",
				"energy": -0.34068,
				"method": "rhf"
			},
			{
				"type": "occ",
				"energy": -0.30536,
				"method": "rhf"
			},
			{
				"type": "occ",
				"energy": -0.25251,
				"method": "rhf"
			},
			{
				"type": "occ",
				"energy": -0.25136,
				"method": "rhf"
			},
			{
				"type": "occ",
				"energy": -0.21832,
				"method": "rhf"
			},
			{
				"type": "unocc",
				"energy": -0.01274,
				"method": "rhf"
			},
			{
				"type": "unocc",
				"energy": -0.00784,
				"method": "rhf"
			},
			{
				"type": "unocc",
				"energy": 0.03711,
				"method": "rhf"
			},
			{
				"type": "unocc",
				"energy": 0.08633,
				"method": "rhf"
			},
			{
				"type": "unocc",
				"energy": 0.09761,
				"method": "rhf"
			}
		],
		"cosmo_sigma_profile": { 
			"-0.025": 0.0,
			"-0.024": 0.0,
			"-0.023": 0.0,
			"-0.022": 0.0,
			"-0.021": 0.0,
			"-0.02": 0.0,
			"-0.019": 0.0,
			"-0.018": 0.0,
			"-0.017": 0.0,
			"-0.016": 0.0,
			"-0.015": 0.197707044605,
			"-0.014": 0.940542785617,
			"-0.013": 1.36183204335,
			"-0.012": 1.25161114234,
			"-0.011": 1.21903061195,
			"-0.01": 0.910717216401,
			"-0.009": 1.06947987772,
			"-0.008": 1.39534760613,
			"-0.007": 1.64136840342,
			"-0.006": 6.22509026308,
			"-0.005": 17.745398082,
			"-0.004": 19.187418814,
			"-0.003": 19.1872454641,
			"-0.002": 15.8242951743,
			"-0.001": 12.6333060538,
			"0.0": 9.4032546079,
			"0.001": 8.86858534193,
			"0.002": 9.91933911913,
			"0.003": 8.92010045818,
			"0.004": 8.90861826496,
			"0.005": 8.85397350338,
			"0.006": 7.8774124688,
			"0.007": 1.38461539116,
			"0.008": 1.49383843587,
			"0.009": 1.77105380122,
			"0.01": 1.02694515741,
			"0.011": 1.48782821736,
			"0.012": 2.54518300772,
			"0.013": 5.36789094039,
			"0.014": 3.74182898471,
			"0.015": 0.455218115168,
			"0.016": 0.0,
			"0.017": 0.0,
			"0.018": 0.0,
			"0.019": 0.0,
			"0.02": 0.0,
			"0.021": 0.0,
			"0.022": 0.0,
			"0.023": 0.0,
			"0.024": 0.0,
			"0.025": 0.0
		}
	}
}
