{
	 "smiles": "NC1=NC(=O)C2=C(S1)C=CC=C2", 
	 "Tm": 548.15, 
	 "num_atms": 18, 
	 "gaussian": { 
		 "optdone": 1, 
		 "sigma_profile": "yes", 
		 "theory": "DFT", 
		 "functional": "B3LYP", 
		 "basiset": "6-31G**", 
		 "properties": { 
			 "R2extent": 2874.5908, 
			 "electric_dipole_moment_norm": 4.91743414801, 
			 "electric_quadrupole_moment_norm": 18.9086775836, 
			 "total_energy": -891.390093828, 
			 "HOMO_LUMO_gap": 0.18721, 
			 "cosmo_polarized_energy": -18.03, 
			 "cosmo_cavitation_energy": 23.92, 
			 "cosmo_dispersion_energy": -18.75, 
			 "cosmo_repulsion_energy": 1.43, 
			 "cosmo_total_nonelectrostatic_energy": 6.6, 
			 "SMD_solvation_energy": 3.06 
		},
		"coords": [
			{
				"x": -0.7744831787,
				"y": -1.4202963405,
				"z": -2.7061185421,
				"element": "N" 
			},
			{
				"x": 0.0404645913,
				"y": -0.6355180922,
				"z": -1.9490246867,
				"element": "C" 
			},
			{
				"x": 0.3014232244,
				"y": 0.5651439446,
				"z": -2.3312476874,
				"element": "N" 
			},
			{
				"x": 1.0796371575,
				"y": 1.4747634232,
				"z": -1.6188194996,
				"element": "C" 
			},
			{
				"x": 1.1813220974,
				"y": 2.6277540618,
				"z": -2.0123797823,
				"element": "O" 
			},
			{
				"x": 1.8221980475,
				"y": 1.0289824811,
				"z": -0.3939735688,
				"element": "C" 
			},
			{
				"x": 1.6832568158,
				"y": -0.2371197325,
				"z": 0.1927928939,
				"element": "C" 
			},
			{
				"x": 0.5662865306,
				"y": -1.4584619834,
				"z": -0.4483389669,
				"element": "S" 
			},
			{
				"x": 2.4109009259,
				"y": -0.5804139174,
				"z": 1.3406328505,
				"element": "C" 
			},
			{
				"x": 3.2841374173,
				"y": 0.3428885598,
				"z": 1.905199381,
				"element": "C" 
			},
			{
				"x": 3.4366130985,
				"y": 1.610822493,
				"z": 1.331622922,
				"element": "C" 
			},
			{
				"x": 2.7104317464,
				"y": 1.9436327525,
				"z": 0.1960150287,
				"element": "C" 
			},
			{
				"x": -0.7762717141,
				"y": -2.4221365244,
				"z": -2.5943420228,
				"element": "H" 
			},
			{
				"x": -1.0307835903,
				"y": -1.0399948284,
				"z": -3.6063410251,
				"element": "H" 
			},
			{
				"x": 2.2920689477,
				"y": -1.5651191053,
				"z": 1.7835248408,
				"element": "H" 
			},
			{
				"x": 3.8474989954,
				"y": 0.0719930827,
				"z": 2.7933303527,
				"element": "H" 
			},
			{
				"x": 4.1184663976,
				"y": 2.331064858,
				"z": 1.7731467556,
				"element": "H" 
			},
			{
				"x": 2.7983324898,
				"y": 2.9173148673,
				"z": -0.2733792436,
				"element": "H" 
			}
		],
		 "valence_orbital": [ 
			{
				"type": "occ",
				"energy": -0.2724,
				"method": "rhf"
			},
			{
				"type": "occ",
				"energy": -0.2643,
				"method": "rhf"
			},
			{
				"type": "occ",
				"energy": -0.26077,
				"method": "rhf"
			},
			{
				"type": "occ",
				"energy": -0.24606,
				"method": "rhf"
			},
			{
				"type": "occ",
				"energy": -0.23761,
				"method": "rhf"
			},
			{
				"type": "unocc",
				"energy": -0.0504,
				"method": "rhf"
			},
			{
				"type": "unocc",
				"energy": -0.02205,
				"method": "rhf"
			},
			{
				"type": "unocc",
				"energy": -0.00845,
				"method": "rhf"
			},
			{
				"type": "unocc",
				"energy": 0.00203,
				"method": "rhf"
			},
			{
				"type": "unocc",
				"energy": 0.05408,
				"method": "rhf"
			}
		],
		"cosmo_sigma_profile": { 
			"-0.025": 0.0,
			"-0.024": 0.0,
			"-0.023": 0.0,
			"-0.022": 0.0,
			"-0.021": 0.0,
			"-0.02": 0.0,
			"-0.019": 0.0,
			"-0.018": 0.0,
			"-0.017": 0.033389744244,
			"-0.016": 0.987681706077,
			"-0.015": 1.82512322132,
			"-0.014": 2.18248487757,
			"-0.013": 3.2150722665,
			"-0.012": 2.60203418696,
			"-0.011": 1.96257738701,
			"-0.01": 1.44619578188,
			"-0.009": 1.49617031209,
			"-0.008": 3.45812062779,
			"-0.007": 6.66420242124,
			"-0.006": 9.64266373698,
			"-0.005": 10.2752018275,
			"-0.004": 9.7475805773,
			"-0.003": 9.70379918042,
			"-0.002": 11.6692295652,
			"-0.001": 11.6203662523,
			"0.0": 13.5940356653,
			"0.001": 15.6909803617,
			"0.002": 17.3010914124,
			"0.003": 17.914307667,
			"0.004": 9.35011397118,
			"0.005": 2.89628854361,
			"0.006": 2.23703408365,
			"0.007": 2.6888014963,
			"0.008": 2.25850045465,
			"0.009": 1.96690485749,
			"0.01": 1.86186481452,
			"0.011": 2.88402899977,
			"0.012": 3.44922637552,
			"0.013": 5.29219707393,
			"0.014": 2.92692361655,
			"0.015": 2.27187627183,
			"0.016": 1.28802484421,
			"0.017": 0.0,
			"0.018": 0.0,
			"0.019": 0.0,
			"0.02": 0.0,
			"0.021": 0.0,
			"0.022": 0.0,
			"0.023": 0.0,
			"0.024": 0.0,
			"0.025": 0.0
		}
	}
}
