{
	 "smiles": "CNS(=O)(=O)C1=C(C)C(N)=CC=C1", 
	 "Tm": 399.15, 
	 "num_atms": 25, 
	 "gaussian": { 
		 "optdone": 1, 
		 "sigma_profile": "yes", 
		 "theory": "DFT", 
		 "functional": "B3LYP", 
		 "basiset": "6-31G**", 
		 "properties": { 
			 "R2extent": 2898.8204, 
			 "electric_dipole_moment_norm": 7.37762249847, 
			 "electric_quadrupole_moment_norm": 11.2477042137, 
			 "total_energy": -970.155764899, 
			 "HOMO_LUMO_gap": 0.18887, 
			 "cosmo_polarized_energy": -20.38, 
			 "cosmo_cavitation_energy": 28.59, 
			 "cosmo_dispersion_energy": -21.25, 
			 "cosmo_repulsion_energy": 1.63, 
			 "cosmo_total_nonelectrostatic_energy": 8.97, 
			 "SMD_solvation_energy": 3.74 
		},
		"coords": [
			{
				"x": 2.2496579079,
				"y": -2.6264174933,
				"z": -0.978084812,
				"element": "C" 
			},
			{
				"x": 2.835046526,
				"y": -1.4657958531,
				"z": -0.3042817686,
				"element": "N" 
			},
			{
				"x": 1.9388158286,
				"y": -0.6916796114,
				"z": 0.889950506,
				"element": "S" 
			},
			{
				"x": 2.7739434541,
				"y": 0.4246447522,
				"z": 1.342227679,
				"element": "O" 
			},
			{
				"x": 1.5003411893,
				"y": -1.7396207909,
				"z": 1.8127627718,
				"element": "O" 
			},
			{
				"x": 0.4508949823,
				"y": -0.0430801578,
				"z": 0.0793893563,
				"element": "C" 
			},
			{
				"x": 0.5141688638,
				"y": 0.9648470025,
				"z": -0.9009816761,
				"element": "C" 
			},
			{
				"x": 1.783553104,
				"y": 1.6559908032,
				"z": -1.3433665777,
				"element": "C" 
			},
			{
				"x": -0.7051305911,
				"y": 1.3609179942,
				"z": -1.5039014019,
				"element": "C" 
			},
			{
				"x": -0.7122944774,
				"y": 2.377694765,
				"z": -2.4609070891,
				"element": "N" 
			},
			{
				"x": -1.9170082738,
				"y": 0.7793037183,
				"z": -1.0961930309,
				"element": "C" 
			},
			{
				"x": -1.9411695637,
				"y": -0.1972818899,
				"z": -0.1088662004,
				"element": "C" 
			},
			{
				"x": -0.7538871745,
				"y": -0.6265688438,
				"z": 0.4807779975,
				"element": "C" 
			},
			{
				"x": 3.0302037928,
				"y": -3.0998335155,
				"z": -1.5789221316,
				"element": "H" 
			},
			{
				"x": 1.398501198,
				"y": -2.3784550386,
				"z": -1.6273467033,
				"element": "H" 
			},
			{
				"x": 1.9226549924,
				"y": -3.3372624124,
				"z": -0.2179257546,
				"element": "H" 
			},
			{
				"x": 3.278817997,
				"y": -0.7871659559,
				"z": -0.9149474367,
				"element": "H" 
			},
			{
				"x": 2.6059871166,
				"y": 1.4986315688,
				"z": -0.6474270715,
				"element": "H" 
			},
			{
				"x": 2.0983616717,
				"y": 1.3261986131,
				"z": -2.3450347917,
				"element": "H" 
			},
			{
				"x": 1.6163298505,
				"y": 2.7372882023,
				"z": -1.4019178035,
				"element": "H" 
			},
			{
				"x": -1.5654214408,
				"y": 2.4484996555,
				"z": -2.9976615015,
				"element": "H" 
			},
			{
				"x": 0.107955513,
				"y": 2.4461756684,
				"z": -3.0457089135,
				"element": "H" 
			},
			{
				"x": -2.8430378333,
				"y": 1.1058506853,
				"z": -1.5635100181,
				"element": "H" 
			},
			{
				"x": -2.8872644006,
				"y": -0.6339224438,
				"z": 0.1964740817,
				"element": "H" 
			},
			{
				"x": -0.7441202328,
				"y": -1.3925594224,
				"z": 1.2457022903,
				"element": "H" 
			}
		],
		 "valence_orbital": [ 
			{
				"type": "occ",
				"energy": -0.29674,
				"method": "rhf"
			},
			{
				"type": "occ",
				"energy": -0.29347,
				"method": "rhf"
			},
			{
				"type": "occ",
				"energy": -0.27689,
				"method": "rhf"
			},
			{
				"type": "occ",
				"energy": -0.25528,
				"method": "rhf"
			},
			{
				"type": "occ",
				"energy": -0.21802,
				"method": "rhf"
			},
			{
				"type": "unocc",
				"energy": -0.02915,
				"method": "rhf"
			},
			{
				"type": "unocc",
				"energy": 5e-05,
				"method": "rhf"
			},
			{
				"type": "unocc",
				"energy": 0.05932,
				"method": "rhf"
			},
			{
				"type": "unocc",
				"energy": 0.06871,
				"method": "rhf"
			},
			{
				"type": "unocc",
				"energy": 0.07808,
				"method": "rhf"
			}
		],
		"cosmo_sigma_profile": { 
			"-0.025": 0.0,
			"-0.024": 0.0,
			"-0.023": 0.0,
			"-0.022": 0.0,
			"-0.021": 0.0,
			"-0.02": 0.0,
			"-0.019": 0.0,
			"-0.018": 0.0,
			"-0.017": 0.0,
			"-0.016": 0.0,
			"-0.015": 0.0,
			"-0.014": 0.324665205693,
			"-0.013": 1.65016747724,
			"-0.012": 3.46322421175,
			"-0.011": 4.26098169897,
			"-0.01": 4.90627858832,
			"-0.009": 4.57679096666,
			"-0.008": 4.20542832121,
			"-0.007": 6.02890496948,
			"-0.006": 10.620444363,
			"-0.005": 14.4841623372,
			"-0.004": 18.1301208198,
			"-0.003": 15.7863668557,
			"-0.002": 14.9046212427,
			"-0.001": 13.4450112287,
			"0.0": 11.1377187444,
			"0.001": 10.9163977171,
			"0.002": 9.76208974141,
			"0.003": 10.9756033729,
			"0.004": 12.9272302843,
			"0.005": 10.1094457382,
			"0.006": 4.66850850532,
			"0.007": 4.43506192297,
			"0.008": 5.63900387162,
			"0.009": 5.43261646573,
			"0.01": 6.84707892248,
			"0.011": 9.11316126274,
			"0.012": 6.59489313122,
			"0.013": 0.602439801644,
			"0.014": 0.159995547605,
			"0.015": 0.0,
			"0.016": 0.0,
			"0.017": 0.0,
			"0.018": 0.0,
			"0.019": 0.0,
			"0.02": 0.0,
			"0.021": 0.0,
			"0.022": 0.0,
			"0.023": 0.0,
			"0.024": 0.0,
			"0.025": 0.0
		}
	}
}
