{
	 "smiles": "CC1=C(C=CC(=C1)[N+]([O-])=O)N=C=S", 
	 "Tm": 356.15, 
	 "num_atms": 19, 
	 "gaussian": { 
		 "optdone": 1, 
		 "sigma_profile": "yes", 
		 "theory": "DFT", 
		 "functional": "B3LYP", 
		 "basiset": "6-31G**", 
		 "properties": { 
			 "R2extent": 4213.441, 
			 "electric_dipole_moment_norm": 1.97132726101, 
			 "electric_quadrupole_moment_norm": 26.2925257691, 
			 "total_energy": -966.506926519, 
			 "HOMO_LUMO_gap": 0.14735, 
			 "cosmo_polarized_energy": -9.36, 
			 "cosmo_cavitation_energy": 27.54, 
			 "cosmo_dispersion_energy": -20.03, 
			 "cosmo_repulsion_energy": 1.55, 
			 "cosmo_total_nonelectrostatic_energy": 9.07, 
			 "SMD_solvation_energy": 7.62 
		},
		"coords": [
			{
				"x": -0.4324782664,
				"y": -1.3189588738,
				"z": -2.9810238329,
				"element": "C" 
			},
			{
				"x": -0.0218273063,
				"y": -1.0566699,
				"z": -1.5563470753,
				"element": "C" 
			},
			{
				"x": -0.9761534483,
				"y": -0.6526154821,
				"z": -0.5901859774,
				"element": "C" 
			},
			{
				"x": -0.6083188274,
				"y": -0.4031988614,
				"z": 0.7441875399,
				"element": "C" 
			},
			{
				"x": 0.7130114337,
				"y": -0.5517974859,
				"z": 1.1404111711,
				"element": "C" 
			},
			{
				"x": 1.6495989925,
				"y": -0.9488676965,
				"z": 0.1884767952,
				"element": "C" 
			},
			{
				"x": 1.2994221232,
				"y": -1.1991146983,
				"z": -1.1375301161,
				"element": "C" 
			},
			{
				"x": 3.0529474769,
				"y": -1.1092383081,
				"z": 0.5940975498,
				"element": "N" 
			},
			{
				"x": 3.3346907367,
				"y": -0.8816477016,
				"z": 1.7704012617,
				"element": "O" 
			},
			{
				"x": 3.8595754435,
				"y": -1.4608796781,
				"z": -0.2665796909,
				"element": "O" 
			},
			{
				"x": -2.2845504925,
				"y": -0.5012130784,
				"z": -0.961234658,
				"element": "N" 
			},
			{
				"x": -3.4215326396,
				"y": -0.3696460148,
				"z": -1.283671552,
				"element": "C" 
			},
			{
				"x": -4.9416902131,
				"y": -0.1938147114,
				"z": -1.7135178962,
				"element": "S" 
			},
			{
				"x": 0.4270372699,
				"y": -1.6172236949,
				"z": -3.5844712026,
				"element": "H" 
			},
			{
				"x": -1.1833683151,
				"y": -2.1148386113,
				"z": -3.0380605956,
				"element": "H" 
			},
			{
				"x": -0.8778491642,
				"y": -0.4275556983,
				"z": -3.4359654736,
				"element": "H" 
			},
			{
				"x": -1.3697929117,
				"y": -0.0958179622,
				"z": 1.4523750667,
				"element": "H" 
			},
			{
				"x": 1.0275859631,
				"y": -0.3675419447,
				"z": 2.1595066678,
				"element": "H" 
			},
			{
				"x": 2.070792145,
				"y": -1.5052595981,
				"z": -1.8332679817,
				"element": "H" 
			}
		],
		 "valence_orbital": [ 
			{
				"type": "occ",
				"energy": -0.31406,
				"method": "rhf"
			},
			{
				"type": "occ",
				"energy": -0.29779,
				"method": "rhf"
			},
			{
				"type": "occ",
				"energy": -0.28715,
				"method": "rhf"
			},
			{
				"type": "occ",
				"energy": -0.26912,
				"method": "rhf"
			},
			{
				"type": "occ",
				"energy": -0.25119,
				"method": "rhf"
			},
			{
				"type": "unocc",
				"energy": -0.10384,
				"method": "rhf"
			},
			{
				"type": "unocc",
				"energy": -0.04114,
				"method": "rhf"
			},
			{
				"type": "unocc",
				"energy": -0.03894,
				"method": "rhf"
			},
			{
				"type": "unocc",
				"energy": -0.01341,
				"method": "rhf"
			},
			{
				"type": "unocc",
				"energy": 0.03636,
				"method": "rhf"
			}
		],
		"cosmo_sigma_profile": { 
			"-0.025": 0.0,
			"-0.024": 0.0,
			"-0.023": 0.0,
			"-0.022": 0.0,
			"-0.021": 0.0,
			"-0.02": 0.0,
			"-0.019": 0.0,
			"-0.018": 0.0,
			"-0.017": 0.0,
			"-0.016": 0.0,
			"-0.015": 0.0,
			"-0.014": 0.0,
			"-0.013": 0.0,
			"-0.012": 0.0,
			"-0.011": 0.0,
			"-0.01": 0.0,
			"-0.009": 0.65346583566,
			"-0.008": 4.69919129243,
			"-0.007": 6.44612760375,
			"-0.006": 9.08022669413,
			"-0.005": 12.9145406342,
			"-0.004": 14.8554822098,
			"-0.003": 18.027617447,
			"-0.002": 26.0985549031,
			"-0.001": 26.8572591589,
			"0.0": 20.984886291,
			"0.001": 12.391037916,
			"0.002": 8.98845614801,
			"0.003": 7.62818181351,
			"0.004": 9.86834952727,
			"0.005": 16.1172656643,
			"0.006": 7.40115071525,
			"0.007": 7.94598025578,
			"0.008": 7.37768707562,
			"0.009": 4.47692281216,
			"0.01": 2.45913943886,
			"0.011": 0.0982256133081,
			"0.012": 0.0,
			"0.013": 0.0,
			"0.014": 0.0,
			"0.015": 0.0,
			"0.016": 0.0,
			"0.017": 0.0,
			"0.018": 0.0,
			"0.019": 0.0,
			"0.02": 0.0,
			"0.021": 0.0,
			"0.022": 0.0,
			"0.023": 0.0,
			"0.024": 0.0,
			"0.025": 0.0
		}
	}
}
