{
	 "smiles": "OC(=O)C1=C(Cl)C=CC(=C1)S(=O)(=O)N1CCCC1", 
	 "Tm": 468.15, 
	 "num_atms": 30, 
	 "gaussian": { 
		 "optdone": 1, 
		 "sigma_profile": "yes", 
		 "theory": "DFT", 
		 "functional": "B3LYP", 
		 "basiset": "6-31G**", 
		 "properties": { 
			 "R2extent": 8049.3748, 
			 "electric_dipole_moment_norm": 5.50569695951, 
			 "electric_quadrupole_moment_norm": 28.682823367, 
			 "total_energy": -1640.36113659, 
			 "HOMO_LUMO_gap": 0.17644, 
			 "cosmo_polarized_energy": -18.46, 
			 "cosmo_cavitation_energy": 36.36, 
			 "cosmo_dispersion_energy": -26.52, 
			 "cosmo_repulsion_energy": 2.01, 
			 "cosmo_total_nonelectrostatic_energy": 11.85, 
			 "SMD_solvation_energy": 5.38 
		},
		"coords": [
			{
				"x": -3.5191853617,
				"y": -4.0646382475,
				"z": -2.8325773628,
				"element": "O" 
			},
			{
				"x": -2.7029199846,
				"y": -3.0015372309,
				"z": -2.7422446159,
				"element": "C" 
			},
			{
				"x": -1.9281315515,
				"y": -2.754436606,
				"z": -3.6376003178,
				"element": "O" 
			},
			{
				"x": -2.7822722366,
				"y": -2.0987975853,
				"z": -1.5225945139,
				"element": "C" 
			},
			{
				"x": -3.3860477896,
				"y": -2.3454929847,
				"z": -0.2764261529,
				"element": "C" 
			},
			{
				"x": -4.2153018916,
				"y": -3.8635628501,
				"z": 0.0969394638,
				"element": "Cl" 
			},
			{
				"x": -3.359141943,
				"y": -1.4053878282,
				"z": 0.7554963202,
				"element": "C" 
			},
			{
				"x": -2.7194537976,
				"y": -0.1848706776,
				"z": 0.5670726188,
				"element": "C" 
			},
			{
				"x": -2.1071444739,
				"y": 0.0771239161,
				"z": -0.6595466054,
				"element": "C" 
			},
			{
				"x": -2.1421001845,
				"y": -0.8588003949,
				"z": -1.685672134,
				"element": "C" 
			},
			{
				"x": -1.2436905673,
				"y": 1.6415539628,
				"z": -0.9058183719,
				"element": "S" 
			},
			{
				"x": -1.7314486668,
				"y": 2.5477837196,
				"z": 0.1388452847,
				"element": "O" 
			},
			{
				"x": -1.349075492,
				"y": 1.9563673542,
				"z": -2.3319478054,
				"element": "O" 
			},
			{
				"x": 0.3415333309,
				"y": 1.2997747198,
				"z": -0.5779638518,
				"element": "N" 
			},
			{
				"x": 1.0029000405,
				"y": 1.6931340559,
				"z": 0.6852850056,
				"element": "C" 
			},
			{
				"x": 2.4564799114,
				"y": 1.919999024,
				"z": 0.2446752158,
				"element": "C" 
			},
			{
				"x": 2.6400639631,
				"y": 0.9203769495,
				"z": -0.910043185,
				"element": "C" 
			},
			{
				"x": 1.3000134911,
				"y": 0.9793121472,
				"z": -1.6602069508,
				"element": "C" 
			},
			{
				"x": -4.0799472813,
				"y": -4.1583394301,
				"z": -2.0457396454,
				"element": "H" 
			},
			{
				"x": -3.843006151,
				"y": -1.6347169699,
				"z": 1.6980804225,
				"element": "H" 
			},
			{
				"x": -2.7081559082,
				"y": 0.5644859964,
				"z": 1.3507092729,
				"element": "H" 
			},
			{
				"x": -1.6865068861,
				"y": -0.6518684372,
				"z": -2.6469537824,
				"element": "H" 
			},
			{
				"x": 0.9326764059,
				"y": 0.8817989311,
				"z": 1.422767663,
				"element": "H" 
			},
			{
				"x": 0.5307057475,
				"y": 2.5825078664,
				"z": 1.1047712685,
				"element": "H" 
			},
			{
				"x": 2.5758554057,
				"y": 2.9455938199,
				"z": -0.1214239032,
				"element": "H" 
			},
			{
				"x": 3.1655807723,
				"y": 1.7675257215,
				"z": 1.0627423625,
				"element": "H" 
			},
			{
				"x": 2.8029532895,
				"y": -0.0877001794,
				"z": -0.5128410501,
				"element": "H" 
			},
			{
				"x": 3.4825461435,
				"y": 1.1636414503,
				"z": -1.56263894,
				"element": "H" 
			},
			{
				"x": 1.2897719156,
				"y": 1.762439628,
				"z": -2.4251426312,
				"element": "H" 
			},
			{
				"x": 1.0482497504,
				"y": 0.0290301589,
				"z": -2.1420030786,
				"element": "H" 
			}
		],
		 "valence_orbital": [ 
			{
				"type": "occ",
				"energy": -0.30694,
				"method": "rhf"
			},
			{
				"type": "occ",
				"energy": -0.29451,
				"method": "rhf"
			},
			{
				"type": "occ",
				"energy": -0.2893,
				"method": "rhf"
			},
			{
				"type": "occ",
				"energy": -0.28351,
				"method": "rhf"
			},
			{
				"type": "occ",
				"energy": -0.25079,
				"method": "rhf"
			},
			{
				"type": "unocc",
				"energy": -0.07435,
				"method": "rhf"
			},
			{
				"type": "unocc",
				"energy": -0.05306,
				"method": "rhf"
			},
			{
				"type": "unocc",
				"energy": -0.01015,
				"method": "rhf"
			},
			{
				"type": "unocc",
				"energy": 0.02471,
				"method": "rhf"
			},
			{
				"type": "unocc",
				"energy": 0.05926,
				"method": "rhf"
			}
		],
		"cosmo_sigma_profile": { 
			"-0.025": 0.0,
			"-0.024": 0.0,
			"-0.023": 0.0,
			"-0.022": 0.0,
			"-0.021": 0.0,
			"-0.02": 0.0,
			"-0.019": 0.0,
			"-0.018": 0.0,
			"-0.017": 0.0,
			"-0.016": 0.0,
			"-0.015": 0.0,
			"-0.014": 0.0956590928094,
			"-0.013": 0.570260675393,
			"-0.012": 1.65030306242,
			"-0.011": 1.07901758807,
			"-0.01": 1.23393788594,
			"-0.009": 2.33625248436,
			"-0.008": 5.50677825776,
			"-0.007": 5.28326587134,
			"-0.006": 6.69090407783,
			"-0.005": 14.304192232,
			"-0.004": 32.1354180721,
			"-0.003": 37.3680136445,
			"-0.002": 32.4596962518,
			"-0.001": 32.8056152577,
			"0.0": 23.9010968739,
			"0.001": 12.2390867986,
			"0.002": 11.2930255073,
			"0.003": 7.66729433683,
			"0.004": 4.34032597169,
			"0.005": 5.79895072017,
			"0.006": 4.01813310863,
			"0.007": 5.92437841654,
			"0.008": 6.28035004786,
			"0.009": 6.77551640767,
			"0.01": 12.5981165522,
			"0.011": 11.9359736783,
			"0.012": 4.84233964617,
			"0.013": 0.430185173232,
			"0.014": 0.0,
			"0.015": 0.0,
			"0.016": 0.0,
			"0.017": 0.0,
			"0.018": 0.0,
			"0.019": 0.0,
			"0.02": 0.0,
			"0.021": 0.0,
			"0.022": 0.0,
			"0.023": 0.0,
			"0.024": 0.0,
			"0.025": 0.0
		}
	}
}
