{
	 "smiles": "OC(=O)CCC1=CC=C(F)C=C1", 
	 "Tm": 363.15, 
	 "num_atms": 21, 
	 "gaussian": { 
		 "optdone": 1, 
		 "sigma_profile": "yes", 
		 "theory": "DFT", 
		 "functional": "B3LYP", 
		 "basiset": "6-31G**", 
		 "properties": { 
			 "R2extent": 3312.4763, 
			 "electric_dipole_moment_norm": 3.01692739223, 
			 "electric_quadrupole_moment_norm": 27.3712296428, 
			 "total_energy": -598.677243104, 
			 "HOMO_LUMO_gap": 0.22523, 
			 "cosmo_polarized_energy": -15.53, 
			 "cosmo_cavitation_energy": 26.26, 
			 "cosmo_dispersion_energy": -18.63, 
			 "cosmo_repulsion_energy": 1.48, 
			 "cosmo_total_nonelectrostatic_energy": 9.11, 
			 "SMD_solvation_energy": 5.98 
		},
		"coords": [
			{
				"x": 3.9442725601,
				"y": -1.809496623,
				"z": 1.1147099927,
				"element": "O" 
			},
			{
				"x": 3.4256311019,
				"y": -0.720294785,
				"z": 0.4830874104,
				"element": "C" 
			},
			{
				"x": 4.130974133,
				"y": -0.0326636742,
				"z": -0.2109458234,
				"element": "O" 
			},
			{
				"x": 1.9422524195,
				"y": -0.4715588745,
				"z": 0.7272284436,
				"element": "C" 
			},
			{
				"x": 1.4187888493,
				"y": 0.7697721996,
				"z": -0.0126954894,
				"element": "C" 
			},
			{
				"x": -0.0547133372,
				"y": 1.0108134352,
				"z": 0.2345630852,
				"element": "C" 
			},
			{
				"x": -0.4847823192,
				"y": 1.7945843649,
				"z": 1.3146404637,
				"element": "C" 
			},
			{
				"x": -1.8410521021,
				"y": 1.9960072996,
				"z": 1.5715749132,
				"element": "C" 
			},
			{
				"x": -2.7736028711,
				"y": 1.4009776681,
				"z": 0.7299620913,
				"element": "C" 
			},
			{
				"x": -4.0887289234,
				"y": 1.591719307,
				"z": 0.9681506457,
				"element": "F" 
			},
			{
				"x": -2.389315956,
				"y": 0.6199672389,
				"z": -0.353722912,
				"element": "C" 
			},
			{
				"x": -1.0277914227,
				"y": 0.4316838717,
				"z": -0.5921988866,
				"element": "C" 
			},
			{
				"x": 3.2577871893,
				"y": -2.2564183835,
				"z": 1.6302926392,
				"element": "H" 
			},
			{
				"x": 1.7763297676,
				"y": -0.3705847073,
				"z": 1.8088238574,
				"element": "H" 
			},
			{
				"x": 1.3809735333,
				"y": -1.3650242274,
				"z": 0.420214855,
				"element": "H" 
			},
			{
				"x": 1.6122826381,
				"y": 0.6451013066,
				"z": -1.082517131,
				"element": "H" 
			},
			{
				"x": 2.0069511367,
				"y": 1.6370537371,
				"z": 0.3025767156,
				"element": "H" 
			},
			{
				"x": 0.2518263743,
				"y": 2.2632595044,
				"z": 1.9627431129,
				"element": "H" 
			},
			{
				"x": -2.1801875007,
				"y": 2.6062249611,
				"z": 2.4017277077,
				"element": "H" 
			},
			{
				"x": -3.1469391298,
				"y": 0.1798504286,
				"z": -0.9931302784,
				"element": "H" 
			},
			{
				"x": -0.7179561408,
				"y": -0.170774048,
				"z": -1.4426854128,
				"element": "H" 
			}
		],
		 "valence_orbital": [ 
			{
				"type": "occ",
				"energy": -0.34544,
				"method": "rhf"
			},
			{
				"type": "occ",
				"energy": -0.31931,
				"method": "rhf"
			},
			{
				"type": "occ",
				"energy": -0.27698,
				"method": "rhf"
			},
			{
				"type": "occ",
				"energy": -0.26509,
				"method": "rhf"
			},
			{
				"type": "occ",
				"energy": -0.24253,
				"method": "rhf"
			},
			{
				"type": "unocc",
				"energy": -0.0173,
				"method": "rhf"
			},
			{
				"type": "unocc",
				"energy": -0.00423,
				"method": "rhf"
			},
			{
				"type": "unocc",
				"energy": 0.00785,
				"method": "rhf"
			},
			{
				"type": "unocc",
				"energy": 0.05161,
				"method": "rhf"
			},
			{
				"type": "unocc",
				"energy": 0.07692,
				"method": "rhf"
			}
		],
		"cosmo_sigma_profile": { 
			"-0.025": 0.0,
			"-0.024": 0.0,
			"-0.023": 0.0,
			"-0.022": 0.0,
			"-0.021": 0.0,
			"-0.02": 0.0,
			"-0.019": 0.605713023623,
			"-0.018": 0.87125215755,
			"-0.017": 1.19816582498,
			"-0.016": 1.31677987975,
			"-0.015": 0.909061488099,
			"-0.014": 0.881770046746,
			"-0.013": 1.10364278917,
			"-0.012": 1.01384040723,
			"-0.011": 1.60660328579,
			"-0.01": 1.19141670745,
			"-0.009": 1.43475838907,
			"-0.008": 1.64441810092,
			"-0.007": 6.14774422378,
			"-0.006": 11.7169537896,
			"-0.005": 15.8369583935,
			"-0.004": 18.5673100362,
			"-0.003": 10.7808781812,
			"-0.002": 9.99162638562,
			"-0.001": 10.7343474334,
			"0.0": 10.1255460638,
			"0.001": 13.6415250162,
			"0.002": 13.0340087586,
			"0.003": 12.5666446632,
			"0.004": 19.8675495963,
			"0.005": 12.8110474184,
			"0.006": 2.57857920705,
			"0.007": 2.63484048958,
			"0.008": 2.39893260395,
			"0.009": 3.05656847249,
			"0.01": 4.99556020426,
			"0.011": 5.51889183139,
			"0.012": 5.49495928662,
			"0.013": 1.97638743224,
			"0.014": 0.0833221782317,
			"0.015": 0.0,
			"0.016": 0.0,
			"0.017": 0.0,
			"0.018": 0.0,
			"0.019": 0.0,
			"0.02": 0.0,
			"0.021": 0.0,
			"0.022": 0.0,
			"0.023": 0.0,
			"0.024": 0.0,
			"0.025": 0.0
		}
	}
}
