{
	 "smiles": "ClC1=CC=C(NC2=CC=C(C=C2)C#N)C=C1", 
	 "Tm": 413.15, 
	 "num_atms": 25, 
	 "gaussian": { 
		 "optdone": 1, 
		 "sigma_profile": "yes", 
		 "theory": "DFT", 
		 "functional": "B3LYP", 
		 "basiset": "6-31G**", 
		 "properties": { 
			 "R2extent": 6587.8765, 
			 "electric_dipole_moment_norm": 5.02515530805, 
			 "electric_quadrupole_moment_norm": 32.2452397685, 
			 "total_energy": -1070.49236396, 
			 "HOMO_LUMO_gap": 0.16451, 
			 "cosmo_polarized_energy": -15.38, 
			 "cosmo_cavitation_energy": 32.67, 
			 "cosmo_dispersion_energy": -23.45, 
			 "cosmo_repulsion_energy": 1.81, 
			 "cosmo_total_nonelectrostatic_energy": 11.03, 
			 "SMD_solvation_energy": 6.42 
		},
		"coords": [
			{
				"x": -2.7304121793,
				"y": -2.8827516426,
				"z": -4.4175789582,
				"element": "Cl" 
			},
			{
				"x": -2.1263024939,
				"y": -2.0796020287,
				"z": -2.9766388206,
				"element": "C" 
			},
			{
				"x": -0.7614420202,
				"y": -1.8276440383,
				"z": -2.8451988172,
				"element": "C" 
			},
			{
				"x": -0.279417072,
				"y": -1.1952611058,
				"z": -1.7011319383,
				"element": "C" 
			},
			{
				"x": -1.1617539171,
				"y": -0.7867210475,
				"z": -0.6873082387,
				"element": "C" 
			},
			{
				"x": -0.7225267154,
				"y": -0.1802442304,
				"z": 0.5005517292,
				"element": "N" 
			},
			{
				"x": 0.357390246,
				"y": 0.6672798487,
				"z": 0.7119568025,
				"element": "C" 
			},
			{
				"x": 1.016768288,
				"y": 1.3507193244,
				"z": -0.3294894742,
				"element": "C" 
			},
			{
				"x": 2.0742868456,
				"y": 2.2047910968,
				"z": -0.0489607007,
				"element": "C" 
			},
			{
				"x": 2.5028111054,
				"y": 2.4146884413,
				"z": 1.2732154707,
				"element": "C" 
			},
			{
				"x": 1.8342431426,
				"y": 1.7474198359,
				"z": 2.3160481165,
				"element": "C" 
			},
			{
				"x": 0.7844456308,
				"y": 0.8875832746,
				"z": 2.0385121125,
				"element": "C" 
			},
			{
				"x": 3.5943303627,
				"y": 3.2949618565,
				"z": 1.5544128236,
				"element": "C" 
			},
			{
				"x": 4.482622852,
				"y": 4.0115695877,
				"z": 1.7845032312,
				"element": "N" 
			},
			{
				"x": -2.5326948668,
				"y": -1.0531942841,
				"z": -0.8383209838,
				"element": "C" 
			},
			{
				"x": -3.0153188911,
				"y": -1.7032790413,
				"z": -1.9702530464,
				"element": "C" 
			},
			{
				"x": -0.0744375141,
				"y": -2.1411940159,
				"z": -3.6234931354,
				"element": "H" 
			},
			{
				"x": 0.7876360904,
				"y": -1.0437674413,
				"z": -1.5875505494,
				"element": "H" 
			},
			{
				"x": -1.2972617154,
				"y": -0.3558292485,
				"z": 1.3114469587,
				"element": "H" 
			},
			{
				"x": 0.6833987343,
				"y": 1.2333769656,
				"z": -1.3531152698,
				"element": "H" 
			},
			{
				"x": 2.5695101744,
				"y": 2.7294471433,
				"z": -0.8594459219,
				"element": "H" 
			},
			{
				"x": 2.1510713153,
				"y": 1.9029475641,
				"z": 3.3419659299,
				"element": "H" 
			},
			{
				"x": 0.285835749,
				"y": 0.3670541921,
				"z": 2.8520544824,
				"element": "H" 
			},
			{
				"x": -3.227685365,
				"y": -0.7402874223,
				"z": -0.0635761909,
				"element": "H" 
			},
			{
				"x": -4.0754977861,
				"y": -1.9045635842,
				"z": -2.0765056117,
				"element": "H" 
			}
		],
		 "valence_orbital": [ 
			{
				"type": "occ",
				"energy": -0.31231,
				"method": "rhf"
			},
			{
				"type": "occ",
				"energy": -0.27818,
				"method": "rhf"
			},
			{
				"type": "occ",
				"energy": -0.27642,
				"method": "rhf"
			},
			{
				"type": "occ",
				"energy": -0.26315,
				"method": "rhf"
			},
			{
				"type": "occ",
				"energy": -0.21282,
				"method": "rhf"
			},
			{
				"type": "unocc",
				"energy": -0.04831,
				"method": "rhf"
			},
			{
				"type": "unocc",
				"energy": -0.02881,
				"method": "rhf"
			},
			{
				"type": "unocc",
				"energy": -0.02549,
				"method": "rhf"
			},
			{
				"type": "unocc",
				"energy": -0.00895,
				"method": "rhf"
			},
			{
				"type": "unocc",
				"energy": 0.02295,
				"method": "rhf"
			}
		],
		"cosmo_sigma_profile": { 
			"-0.025": 0.0,
			"-0.024": 0.0,
			"-0.023": 0.0,
			"-0.022": 0.0,
			"-0.021": 0.0,
			"-0.02": 0.0,
			"-0.019": 0.0,
			"-0.018": 0.0,
			"-0.017": 0.0,
			"-0.016": 0.0,
			"-0.015": 0.865128958379,
			"-0.014": 1.51605856055,
			"-0.013": 1.55787762241,
			"-0.012": 1.36797507127,
			"-0.011": 1.20333767584,
			"-0.01": 2.17812869964,
			"-0.009": 1.68648667483,
			"-0.008": 4.24380471186,
			"-0.007": 12.6621902428,
			"-0.006": 15.2132548069,
			"-0.005": 17.0039863652,
			"-0.004": 12.8576946468,
			"-0.003": 11.2667955131,
			"-0.002": 12.8573637629,
			"-0.001": 16.2065686106,
			"0.0": 17.4313089904,
			"0.001": 21.4347453358,
			"0.002": 28.2871876028,
			"0.003": 30.4313441289,
			"0.004": 20.8040525839,
			"0.005": 10.4118932408,
			"0.006": 3.16822115696,
			"0.007": 2.37796068284,
			"0.008": 3.02352070583,
			"0.009": 3.46220079395,
			"0.01": 3.53857049233,
			"0.011": 3.2905108965,
			"0.012": 2.61418424747,
			"0.013": 2.49019855379,
			"0.014": 0.796137950489,
			"0.015": 0.0,
			"0.016": 0.0,
			"0.017": 0.0,
			"0.018": 0.0,
			"0.019": 0.0,
			"0.02": 0.0,
			"0.021": 0.0,
			"0.022": 0.0,
			"0.023": 0.0,
			"0.024": 0.0,
			"0.025": 0.0
		}
	}
}
