{
	 "smiles": "COC1=NC(=NC(Cl)=N1)N1CCCCCC1", 
	 "Tm": 388.15, 
	 "num_atms": 31, 
	 "gaussian": { 
		 "optdone": 1, 
		 "sigma_profile": "yes", 
		 "theory": "DFT", 
		 "functional": "B3LYP", 
		 "basiset": "6-31G**", 
		 "properties": { 
			 "R2extent": 7664.5686, 
			 "electric_dipole_moment_norm": 5.95366737482, 
			 "electric_quadrupole_moment_norm": 35.2891752341, 
			 "total_energy": -1144.54728445, 
			 "HOMO_LUMO_gap": 0.21039, 
			 "cosmo_polarized_energy": -10.76, 
			 "cosmo_cavitation_energy": 34.19, 
			 "cosmo_dispersion_energy": -25.05, 
			 "cosmo_repulsion_energy": 1.98, 
			 "cosmo_total_nonelectrostatic_energy": 11.12, 
			 "SMD_solvation_energy": 2.42 
		},
		"coords": [
			{
				"x": 3.4408631047,
				"y": 2.7609331754,
				"z": -2.1358901675,
				"element": "C" 
			},
			{
				"x": 2.912367729,
				"y": 3.9542064727,
				"z": -1.5465379789,
				"element": "O" 
			},
			{
				"x": 1.8993713857,
				"y": 3.8248171871,
				"z": -0.6874635621,
				"element": "C" 
			},
			{
				"x": 1.4218161238,
				"y": 2.61747853,
				"z": -0.416678473,
				"element": "N" 
			},
			{
				"x": 0.399980854,
				"y": 2.6023152651,
				"z": 0.4741808375,
				"element": "C" 
			},
			{
				"x": -0.118497483,
				"y": 3.7152980329,
				"z": 1.0519896048,
				"element": "N" 
			},
			{
				"x": 0.4657146858,
				"y": 4.8339678967,
				"z": 0.6632978084,
				"element": "C" 
			},
			{
				"x": -0.1753789102,
				"y": 6.3080206503,
				"z": 1.3738167097,
				"element": "Cl" 
			},
			{
				"x": 1.4665289023,
				"y": 4.9962767999,
				"z": -0.1832992981,
				"element": "N" 
			},
			{
				"x": -0.1467838034,
				"y": 1.4140007061,
				"z": 0.8182526371,
				"element": "N" 
			},
			{
				"x": -1.2978855417,
				"y": 1.394823506,
				"z": 1.7485720569,
				"element": "C" 
			},
			{
				"x": -2.0287793438,
				"y": 0.0491248461,
				"z": 1.7870614442,
				"element": "C" 
			},
			{
				"x": -2.7172368636,
				"y": -0.3777158247,
				"z": 0.4695865049,
				"element": "C" 
			},
			{
				"x": -1.9689977051,
				"y": -0.0039651672,
				"z": -0.8224093032,
				"element": "C" 
			},
			{
				"x": -0.4878798722,
				"y": -0.4056235222,
				"z": -0.8879278835,
				"element": "C" 
			},
			{
				"x": 0.3700476463,
				"y": 0.1563757071,
				"z": 0.2732660871,
				"element": "C" 
			},
			{
				"x": 2.6727555614,
				"y": 2.2319570448,
				"z": -2.7061960875,
				"element": "H" 
			},
			{
				"x": 4.2397512233,
				"y": 3.0986937347,
				"z": -2.7964060418,
				"element": "H" 
			},
			{
				"x": 3.8389155368,
				"y": 2.0891829598,
				"z": -1.3705216244,
				"element": "H" 
			},
			{
				"x": -0.9477941804,
				"y": 1.6509664418,
				"z": 2.7565477884,
				"element": "H" 
			},
			{
				"x": -1.9837493734,
				"y": 2.193622317,
				"z": 1.45336843,
				"element": "H" 
			},
			{
				"x": -2.7852641186,
				"y": 0.1290787305,
				"z": 2.576313089,
				"element": "H" 
			},
			{
				"x": -1.3443912285,
				"y": -0.7349083234,
				"z": 2.1273336876,
				"element": "H" 
			},
			{
				"x": -3.7129260362,
				"y": 0.0802692665,
				"z": 0.42105207,
				"element": "H" 
			},
			{
				"x": -2.8852674421,
				"y": -1.4615984317,
				"z": 0.5026628123,
				"element": "H" 
			},
			{
				"x": -2.0354540658,
				"y": 1.0808210114,
				"z": -0.9685787813,
				"element": "H" 
			},
			{
				"x": -2.4941782141,
				"y": -0.4510712765,
				"z": -1.6749667276,
				"element": "H" 
			},
			{
				"x": -0.0798584285,
				"y": -0.0434374914,
				"z": -1.8386217366,
				"element": "H" 
			},
			{
				"x": -0.3839286352,
				"y": -1.4981481829,
				"z": -0.8988298763,
				"element": "H" 
			},
			{
				"x": 0.4277098614,
				"y": -0.564710811,
				"z": 1.0923311413,
				"element": "H" 
			},
			{
				"x": 1.3882286313,
				"y": 0.3405487489,
				"z": -0.0656051674,
				"element": "H" 
			}
		],
		 "valence_orbital": [ 
			{
				"type": "occ",
				"energy": -0.29338,
				"method": "rhf"
			},
			{
				"type": "occ",
				"energy": -0.27778,
				"method": "rhf"
			},
			{
				"type": "occ",
				"energy": -0.27164,
				"method": "rhf"
			},
			{
				"type": "occ",
				"energy": -0.26981,
				"method": "rhf"
			},
			{
				"type": "occ",
				"energy": -0.23549,
				"method": "rhf"
			},
			{
				"type": "unocc",
				"energy": -0.0251,
				"method": "rhf"
			},
			{
				"type": "unocc",
				"energy": -0.00853,
				"method": "rhf"
			},
			{
				"type": "unocc",
				"energy": 0.04466,
				"method": "rhf"
			},
			{
				"type": "unocc",
				"energy": 0.06702,
				"method": "rhf"
			},
			{
				"type": "unocc",
				"energy": 0.09068,
				"method": "rhf"
			}
		],
		"cosmo_sigma_profile": { 
			"-0.025": 0.0,
			"-0.024": 0.0,
			"-0.023": 0.0,
			"-0.022": 0.0,
			"-0.021": 0.0,
			"-0.02": 0.0,
			"-0.019": 0.0,
			"-0.018": 0.0,
			"-0.017": 0.0,
			"-0.016": 0.0,
			"-0.015": 0.0,
			"-0.014": 0.0,
			"-0.013": 0.0,
			"-0.012": 0.0,
			"-0.011": 0.0,
			"-0.01": 0.0,
			"-0.009": 0.0,
			"-0.008": 0.0,
			"-0.007": 0.903980495683,
			"-0.006": 5.90578962096,
			"-0.005": 11.5548670979,
			"-0.004": 20.3564367353,
			"-0.003": 37.4710238551,
			"-0.002": 42.0917096336,
			"-0.001": 35.4392953786,
			"0.0": 28.89367282,
			"0.001": 16.5043784582,
			"0.002": 10.5432364967,
			"0.003": 11.1770916348,
			"0.004": 13.7127639213,
			"0.005": 9.0040520895,
			"0.006": 5.86145248174,
			"0.007": 3.61449918518,
			"0.008": 4.0038767094,
			"0.009": 3.53978336472,
			"0.01": 3.45530301533,
			"0.011": 2.67662268275,
			"0.012": 1.90076903759,
			"0.013": 1.24702688476,
			"0.014": 1.13880841772,
			"0.015": 0.209672409264,
			"0.016": 0.0,
			"0.017": 0.0,
			"0.018": 0.0,
			"0.019": 0.0,
			"0.02": 0.0,
			"0.021": 0.0,
			"0.022": 0.0,
			"0.023": 0.0,
			"0.024": 0.0,
			"0.025": 0.0
		}
	}
}
