{
	 "smiles": "COC1=CC=C(Br)C(F)=C1", 
	 "Tm": 491.15, 
	 "num_atms": 16, 
	 "gaussian": { 
		 "optdone": 1, 
		 "sigma_profile": "yes", 
		 "theory": "DFT", 
		 "functional": "B3LYP", 
		 "basiset": "6-31G**", 
		 "properties": { 
			 "R2extent": 4957.7668, 
			 "electric_dipole_moment_norm": 3.02407489491, 
			 "electric_quadrupole_moment_norm": 7.29124244008, 
			 "total_energy": -3016.80650008, 
			 "HOMO_LUMO_gap": 0.20974, 
			 "cosmo_polarized_energy": -5.74, 
			 "cosmo_cavitation_energy": 22.87, 
			 "cosmo_dispersion_energy": -17.36, 
			 "cosmo_repulsion_energy": 1.38, 
			 "cosmo_total_nonelectrostatic_energy": 6.9, 
			 "SMD_solvation_energy": 4.15 
		},
		"coords": [
			{
				"x": -1.0096475599,
				"y": -2.2073512325,
				"z": -0.2069476219,
				"element": "C" 
			},
			{
				"x": -1.5064941094,
				"y": -1.1862084065,
				"z": -1.0604938167,
				"element": "O" 
			},
			{
				"x": -0.6371606656,
				"y": -0.2441861385,
				"z": -1.5147852215,
				"element": "C" 
			},
			{
				"x": -1.181357079,
				"y": 0.7406573555,
				"z": -2.3550654053,
				"element": "C" 
			},
			{
				"x": -0.3712035173,
				"y": 1.7445899199,
				"z": -2.8686909026,
				"element": "C" 
			},
			{
				"x": 0.9907824039,
				"y": 1.7880201108,
				"z": -2.5574538411,
				"element": "C" 
			},
			{
				"x": 2.113996899,
				"y": 3.1548071654,
				"z": -3.252224346,
				"element": "Br" 
			},
			{
				"x": 1.5163414006,
				"y": 0.8067625291,
				"z": -1.7242705595,
				"element": "C" 
			},
			{
				"x": 2.8211639379,
				"y": 0.8215995544,
				"z": -1.4069198996,
				"element": "F" 
			},
			{
				"x": 0.7248591872,
				"y": -0.2106360455,
				"z": -1.1963570763,
				"element": "C" 
			},
			{
				"x": -1.8642844395,
				"y": -2.8416839345,
				"z": 0.031170182,
				"element": "H" 
			},
			{
				"x": -0.5978864249,
				"y": -1.7917805593,
				"z": 0.7214394148,
				"element": "H" 
			},
			{
				"x": -0.2396724022,
				"y": -2.809908034,
				"z": -0.7051535153,
				"element": "H" 
			},
			{
				"x": -2.2387350226,
				"y": 0.6990822127,
				"z": -2.5911490837,
				"element": "H" 
			},
			{
				"x": -0.7902620612,
				"y": 2.5053730099,
				"z": -3.5175743436,
				"element": "H" 
			},
			{
				"x": 1.1969594531,
				"y": -0.9429375068,
				"z": -0.5545239639,
				"element": "H" 
			}
		],
		 "valence_orbital": [ 
			{
				"type": "occ",
				"energy": -0.34649,
				"method": "rhf"
			},
			{
				"type": "occ",
				"energy": -0.29333,
				"method": "rhf"
			},
			{
				"type": "occ",
				"energy": -0.28626,
				"method": "rhf"
			},
			{
				"type": "occ",
				"energy": -0.26079,
				"method": "rhf"
			},
			{
				"type": "occ",
				"energy": -0.22347,
				"method": "rhf"
			},
			{
				"type": "unocc",
				"energy": -0.01373,
				"method": "rhf"
			},
			{
				"type": "unocc",
				"energy": -0.00257,
				"method": "rhf"
			},
			{
				"type": "unocc",
				"energy": 0.00531,
				"method": "rhf"
			},
			{
				"type": "unocc",
				"energy": 0.09156,
				"method": "rhf"
			},
			{
				"type": "unocc",
				"energy": 0.09977,
				"method": "rhf"
			}
		],
		"cosmo_sigma_profile": { 
			"-0.025": 0.0,
			"-0.024": 0.0,
			"-0.023": 0.0,
			"-0.022": 0.0,
			"-0.021": 0.0,
			"-0.02": 0.0,
			"-0.019": 0.0,
			"-0.018": 0.0,
			"-0.017": 0.0,
			"-0.016": 0.0,
			"-0.015": 0.0,
			"-0.014": 0.0,
			"-0.013": 0.0,
			"-0.012": 0.0,
			"-0.011": 0.0,
			"-0.01": 0.0,
			"-0.009": 0.0522947757684,
			"-0.008": 2.05129702429,
			"-0.007": 5.6986913217,
			"-0.006": 11.8036880186,
			"-0.005": 13.1895844123,
			"-0.004": 13.3541469679,
			"-0.003": 12.5718316439,
			"-0.002": 7.71142513663,
			"-0.001": 9.22277513011,
			"0.0": 14.4445308442,
			"0.001": 16.1934832175,
			"0.002": 22.3728873783,
			"0.003": 20.3238022509,
			"0.004": 21.0206675523,
			"0.005": 9.31680939001,
			"0.006": 2.11746017826,
			"0.007": 1.63996991567,
			"0.008": 1.08057722217,
			"0.009": 1.761772551,
			"0.01": 0.624086538459,
			"0.011": 0.0,
			"0.012": 0.0,
			"0.013": 0.0,
			"0.014": 0.0,
			"0.015": 0.0,
			"0.016": 0.0,
			"0.017": 0.0,
			"0.018": 0.0,
			"0.019": 0.0,
			"0.02": 0.0,
			"0.021": 0.0,
			"0.022": 0.0,
			"0.023": 0.0,
			"0.024": 0.0,
			"0.025": 0.0
		}
	}
}
