{
	 "smiles": "COC(=O)C1=C(C)C=C(C=C1)S(Cl)(=O)=O", 
	 "Tm": 328.15, 
	 "num_atms": 24, 
	 "gaussian": { 
		 "optdone": 1, 
		 "sigma_profile": "yes", 
		 "theory": "DFT", 
		 "functional": "B3LYP", 
		 "basiset": "6-31G**", 
		 "properties": { 
			 "R2extent": 5643.5699, 
			 "electric_dipole_moment_norm": 5.38709961482, 
			 "electric_quadrupole_moment_norm": 11.9770912224, 
			 "total_energy": -1507.60261951, 
			 "HOMO_LUMO_gap": 0.18197, 
			 "cosmo_polarized_energy": -10.6, 
			 "cosmo_cavitation_energy": 31.99, 
			 "cosmo_dispersion_energy": -23.67, 
			 "cosmo_repulsion_energy": 1.81, 
			 "cosmo_total_nonelectrostatic_energy": 10.13, 
			 "SMD_solvation_energy": 5.72 
		},
		"coords": [
			{
				"x": -2.0623421505,
				"y": -4.009444128,
				"z": 0.7268289288,
				"element": "C" 
			},
			{
				"x": -1.5805630389,
				"y": -2.7388862165,
				"z": 0.2574865638,
				"element": "O" 
			},
			{
				"x": -1.306823182,
				"y": -1.8333527044,
				"z": 1.2225583002,
				"element": "C" 
			},
			{
				"x": -1.4554631353,
				"y": -2.0716702599,
				"z": 2.4051963202,
				"element": "O" 
			},
			{
				"x": -0.811982545,
				"y": -0.5378106521,
				"z": 0.655275092,
				"element": "C" 
			},
			{
				"x": -0.4664445329,
				"y": 0.5388116031,
				"z": 1.5102607453,
				"element": "C" 
			},
			{
				"x": -0.5544400874,
				"y": 0.4861680865,
				"z": 3.016124875,
				"element": "C" 
			},
			{
				"x": -0.0127470011,
				"y": 1.7228826312,
				"z": 0.913296754,
				"element": "C" 
			},
			{
				"x": 0.0897857951,
				"y": 1.8207907876,
				"z": -0.4708936003,
				"element": "C" 
			},
			{
				"x": -0.2425444771,
				"y": 0.769392432,
				"z": -1.3215862637,
				"element": "C" 
			},
			{
				"x": -0.6934604205,
				"y": -0.4088860035,
				"z": -0.7390120434,
				"element": "C" 
			},
			{
				"x": 0.6942933811,
				"y": 3.3491790229,
				"z": -1.1819406922,
				"element": "S" 
			},
			{
				"x": -1.1304547873,
				"y": 4.4199384852,
				"z": -1.4620540539,
				"element": "Cl" 
			},
			{
				"x": 1.4494238654,
				"y": 4.0873565364,
				"z": -0.177690996,
				"element": "O" 
			},
			{
				"x": 1.219861123,
				"y": 3.084622323,
				"z": -2.5151998713,
				"element": "O" 
			},
			{
				"x": -2.9928356864,
				"y": -3.8838137625,
				"z": 1.2855195068,
				"element": "H" 
			},
			{
				"x": -1.3221684869,
				"y": -4.4841698024,
				"z": 1.3753022653,
				"element": "H" 
			},
			{
				"x": -2.2290156137,
				"y": -4.6072038327,
				"z": -0.1687389506,
				"element": "H" 
			},
			{
				"x": 0.0639269168,
				"y": -0.3169746625,
				"z": 3.4245253272,
				"element": "H" 
			},
			{
				"x": -0.2292165649,
				"y": 1.4376793725,
				"z": 3.4439964158,
				"element": "H" 
			},
			{
				"x": -1.574177298,
				"y": 0.277052233,
				"z": 3.3487512544,
				"element": "H" 
			},
			{
				"x": 0.2699368439,
				"y": 2.5668841164,
				"z": 1.532782823,
				"element": "H" 
			},
			{
				"x": -0.1418544168,
				"y": 0.8694262601,
				"z": -2.3958720761,
				"element": "H" 
			},
			{
				"x": -0.958494501,
				"y": -1.2504718654,
				"z": -1.3662166243,
				"element": "H" 
			}
		],
		 "valence_orbital": [ 
			{
				"type": "occ",
				"energy": -0.32046,
				"method": "rhf"
			},
			{
				"type": "occ",
				"energy": -0.31506,
				"method": "rhf"
			},
			{
				"type": "occ",
				"energy": -0.29242,
				"method": "rhf"
			},
			{
				"type": "occ",
				"energy": -0.29072,
				"method": "rhf"
			},
			{
				"type": "occ",
				"energy": -0.28105,
				"method": "rhf"
			},
			{
				"type": "unocc",
				"energy": -0.09908,
				"method": "rhf"
			},
			{
				"type": "unocc",
				"energy": -0.06516,
				"method": "rhf"
			},
			{
				"type": "unocc",
				"energy": -0.03679,
				"method": "rhf"
			},
			{
				"type": "unocc",
				"energy": 0.01499,
				"method": "rhf"
			},
			{
				"type": "unocc",
				"energy": 0.05783,
				"method": "rhf"
			}
		],
		"cosmo_sigma_profile": { 
			"-0.025": 0.0,
			"-0.024": 0.0,
			"-0.023": 0.0,
			"-0.022": 0.0,
			"-0.021": 0.0,
			"-0.02": 0.0,
			"-0.019": 0.0,
			"-0.018": 0.0,
			"-0.017": 0.0,
			"-0.016": 0.0,
			"-0.015": 0.0,
			"-0.014": 0.0,
			"-0.013": 0.0,
			"-0.012": 0.0,
			"-0.011": 0.0,
			"-0.01": 0.0,
			"-0.009": 0.838409868257,
			"-0.008": 3.27597752401,
			"-0.007": 7.20746501796,
			"-0.006": 12.4413462102,
			"-0.005": 13.3405537041,
			"-0.004": 21.0967668732,
			"-0.003": 22.7842196216,
			"-0.002": 22.6788476457,
			"-0.001": 27.3691897542,
			"0.0": 29.0778380338,
			"0.001": 16.0265184815,
			"0.002": 12.7026885821,
			"0.003": 17.5746959366,
			"0.004": 11.6345393011,
			"0.005": 5.79897495692,
			"0.006": 4.21628573528,
			"0.007": 8.1096788382,
			"0.008": 11.6347445038,
			"0.009": 5.07481657581,
			"0.01": 1.49907048164,
			"0.011": 2.65327752732,
			"0.012": 1.34839438482,
			"0.013": 0.0,
			"0.014": 0.0,
			"0.015": 0.0,
			"0.016": 0.0,
			"0.017": 0.0,
			"0.018": 0.0,
			"0.019": 0.0,
			"0.02": 0.0,
			"0.021": 0.0,
			"0.022": 0.0,
			"0.023": 0.0,
			"0.024": 0.0,
			"0.025": 0.0
		}
	}
}
