{
	 "smiles": "CC(OC1=CC=C(C=C1)C12CC3CC(CC(C3)C1)C2)C(O)=O", 
	 "Tm": 427.15, 
	 "num_atms": 46, 
	 "gaussian": { 
		 "optdone": 1, 
		 "sigma_profile": "yes", 
		 "theory": "DFT", 
		 "functional": "B3LYP", 
		 "basiset": "6-31G**", 
		 "properties": { 
			 "R2extent": 9521.8664, 
			 "electric_dipole_moment_norm": 0.501255633385, 
			 "electric_quadrupole_moment_norm": 6.57258056702, 
			 "total_energy": -964.193031221, 
			 "HOMO_LUMO_gap": 0.20445, 
			 "cosmo_polarized_energy": -11.33, 
			 "cosmo_cavitation_energy": 43.25, 
			 "cosmo_dispersion_energy": -31.36, 
			 "cosmo_repulsion_energy": 2.37, 
			 "cosmo_total_nonelectrostatic_energy": 14.26, 
			 "SMD_solvation_energy": 7.05 
		},
		"coords": [
			{
				"x": -0.9934437881,
				"y": -5.5928930083,
				"z": 0.231077971,
				"element": "C" 
			},
			{
				"x": -0.291762253,
				"y": -5.2036597283,
				"z": -1.0680811779,
				"element": "C" 
			},
			{
				"x": -0.7179244229,
				"y": -3.9560233653,
				"z": -1.6060050564,
				"element": "O" 
			},
			{
				"x": -0.4341645864,
				"y": -2.7689179466,
				"z": -0.9739418956,
				"element": "C" 
			},
			{
				"x": -1.0555534039,
				"y": -1.6426552338,
				"z": -1.5298746101,
				"element": "C" 
			},
			{
				"x": -0.8309053496,
				"y": -0.3822901741,
				"z": -0.9935391245,
				"element": "C" 
			},
			{
				"x": 0.014470915,
				"y": -0.1820192914,
				"z": 0.1148111712,
				"element": "C" 
			},
			{
				"x": 0.6218852742,
				"y": -1.3216595323,
				"z": 0.6510555831,
				"element": "C" 
			},
			{
				"x": 0.4101894651,
				"y": -2.6021964847,
				"z": 0.1252887272,
				"element": "C" 
			},
			{
				"x": 0.2315883207,
				"y": 1.228510214,
				"z": 0.6742851643,
				"element": "C" 
			},
			{
				"x": 1.1934164287,
				"y": 1.2493434972,
				"z": 1.8896848155,
				"element": "C" 
			},
			{
				"x": 1.3874098102,
				"y": 2.6838978838,
				"z": 2.4236064216,
				"element": "C" 
			},
			{
				"x": 0.02743368,
				"y": 3.2583521334,
				"z": 2.8671918514,
				"element": "C" 
			},
			{
				"x": -0.9338910196,
				"y": 3.2769313966,
				"z": 1.662578562,
				"element": "C" 
			},
			{
				"x": -0.3409594548,
				"y": 4.1603530429,
				"z": 0.5455551673,
				"element": "C" 
			},
			{
				"x": 1.0242347711,
				"y": 3.5911932748,
				"z": 0.1076158781,
				"element": "C" 
			},
			{
				"x": 1.9835758472,
				"y": 3.5723478548,
				"z": 1.3137821932,
				"element": "C" 
			},
			{
				"x": 0.8369250167,
				"y": 2.1545843848,
				"z": -0.4216023343,
				"element": "C" 
			},
			{
				"x": -1.1242936663,
				"y": 1.8399114948,
				"z": 1.1354132592,
				"element": "C" 
			},
			{
				"x": 1.2353725287,
				"y": -5.3404732605,
				"z": -0.9843037628,
				"element": "C" 
			},
			{
				"x": 1.8503360139,
				"y": -4.7739281509,
				"z": -2.0403779921,
				"element": "O" 
			},
			{
				"x": 1.8262810966,
				"y": -5.9368455247,
				"z": -0.1102906007,
				"element": "O" 
			},
			{
				"x": -0.6799023226,
				"y": -6.5944504427,
				"z": 0.5329411909,
				"element": "H" 
			},
			{
				"x": -0.7624379408,
				"y": -4.9055371308,
				"z": 1.0462638208,
				"element": "H" 
			},
			{
				"x": -2.0740035616,
				"y": -5.5894672747,
				"z": 0.068555806,
				"element": "H" 
			},
			{
				"x": -0.5879719053,
				"y": -5.9167724392,
				"z": -1.8485416662,
				"element": "H" 
			},
			{
				"x": -1.7085487424,
				"y": -1.7809235289,
				"z": -2.385615998,
				"element": "H" 
			},
			{
				"x": -1.3299651009,
				"y": 0.4659712374,
				"z": -1.4531474526,
				"element": "H" 
			},
			{
				"x": 1.2842730198,
				"y": -1.236536935,
				"z": 1.5048890252,
				"element": "H" 
			},
			{
				"x": 0.9124988568,
				"y": -3.4427953004,
				"z": 0.5889267884,
				"element": "H" 
			},
			{
				"x": 2.1670896212,
				"y": 0.8320349285,
				"z": 1.6016556068,
				"element": "H" 
			},
			{
				"x": 0.7961091052,
				"y": 0.6122118832,
				"z": 2.6905312791,
				"element": "H" 
			},
			{
				"x": 2.0725642307,
				"y": 2.6547031238,
				"z": 3.2805582445,
				"element": "H" 
			},
			{
				"x": 0.1574547846,
				"y": 4.2733566695,
				"z": 3.2651954763,
				"element": "H" 
			},
			{
				"x": -0.3943494498,
				"y": 2.6491506153,
				"z": 3.6775342617,
				"element": "H" 
			},
			{
				"x": -1.9075468101,
				"y": 3.6780388498,
				"z": 1.9724115529,
				"element": "H" 
			},
			{
				"x": -0.2229489361,
				"y": 5.1918912937,
				"z": 0.9026966538,
				"element": "H" 
			},
			{
				"x": -1.0271031734,
				"y": 4.1966478671,
				"z": -0.3111236099,
				"element": "H" 
			},
			{
				"x": 1.4455449373,
				"y": 4.2160774588,
				"z": -0.6904556008,
				"element": "H" 
			},
			{
				"x": 2.1415500109,
				"y": 4.5918139161,
				"z": 1.6896600658,
				"element": "H" 
			},
			{
				"x": 2.9660925631,
				"y": 3.1884842079,
				"z": 1.0088205123,
				"element": "H" 
			},
			{
				"x": 0.183852522,
				"y": 2.1681004646,
				"z": -1.3024332588,
				"element": "H" 
			},
			{
				"x": 1.7990737671,
				"y": 1.7418564293,
				"z": -0.7516823248,
				"element": "H" 
			},
			{
				"x": -1.8356988547,
				"y": 1.8442989686,
				"z": 0.3008266545,
				"element": "H" 
			},
			{
				"x": -1.5608109398,
				"y": 1.2028406109,
				"z": 1.9155576427,
				"element": "H" 
			},
			{
				"x": 2.8022630954,
				"y": -4.9262589488,
				"z": -1.9143548814,
				"element": "H" 
			}
		],
		 "valence_orbital": [ 
			{
				"type": "occ",
				"energy": -0.27963,
				"method": "rhf"
			},
			{
				"type": "occ",
				"energy": -0.2753,
				"method": "rhf"
			},
			{
				"type": "occ",
				"energy": -0.27361,
				"method": "rhf"
			},
			{
				"type": "occ",
				"energy": -0.24516,
				"method": "rhf"
			},
			{
				"type": "occ",
				"energy": -0.21152,
				"method": "rhf"
			},
			{
				"type": "unocc",
				"energy": -0.00707,
				"method": "rhf"
			},
			{
				"type": "unocc",
				"energy": 0.00358,
				"method": "rhf"
			},
			{
				"type": "unocc",
				"energy": 0.01544,
				"method": "rhf"
			},
			{
				"type": "unocc",
				"energy": 0.06961,
				"method": "rhf"
			},
			{
				"type": "unocc",
				"energy": 0.07252,
				"method": "rhf"
			}
		],
		"cosmo_sigma_profile": { 
			"-0.025": 0.0,
			"-0.024": 0.0,
			"-0.023": 0.0,
			"-0.022": 0.0,
			"-0.021": 0.0,
			"-0.02": 0.0,
			"-0.019": 0.285517337151,
			"-0.018": 1.06754189859,
			"-0.017": 0.748895048311,
			"-0.016": 0.847281454692,
			"-0.015": 0.995316537384,
			"-0.014": 0.681282911976,
			"-0.013": 0.400719731979,
			"-0.012": 0.588061374433,
			"-0.011": 1.03221329889,
			"-0.01": 0.57340320165,
			"-0.009": 1.73314881177,
			"-0.008": 3.50639195956,
			"-0.007": 2.82324480157,
			"-0.006": 3.75060144157,
			"-0.005": 11.0711301073,
			"-0.004": 17.1800256236,
			"-0.003": 18.2058074082,
			"-0.002": 39.8033094858,
			"-0.001": 56.999647825,
			"0.0": 47.9813035012,
			"0.001": 38.3950056073,
			"0.002": 18.0132003493,
			"0.003": 9.29809127586,
			"0.004": 11.2329931301,
			"0.005": 11.204235693,
			"0.006": 13.0772889373,
			"0.007": 4.68387757507,
			"0.008": 3.66862613702,
			"0.009": 4.30554307647,
			"0.01": 4.9721803673,
			"0.011": 4.76890940505,
			"0.012": 1.75362374149,
			"0.013": 0.0,
			"0.014": 0.0,
			"0.015": 0.0,
			"0.016": 0.0,
			"0.017": 0.0,
			"0.018": 0.0,
			"0.019": 0.0,
			"0.02": 0.0,
			"0.021": 0.0,
			"0.022": 0.0,
			"0.023": 0.0,
			"0.024": 0.0,
			"0.025": 0.0
		}
	}
}
