{
	 "smiles": "NC1=CC(F)=C(OC2=C(Cl)C=CC(Cl)=C2)C=C1", 
	 "Tm": 336.15, 
	 "num_atms": 25, 
	 "gaussian": { 
		 "optdone": 1, 
		 "sigma_profile": "yes", 
		 "theory": "DFT", 
		 "functional": "B3LYP", 
		 "basiset": "6-31G**", 
		 "properties": { 
			 "R2extent": 7152.2658, 
			 "electric_dipole_moment_norm": 4.04366523219, 
			 "electric_quadrupole_moment_norm": 17.8336460644, 
			 "total_energy": -1612.27934626, 
			 "HOMO_LUMO_gap": 0.19119, 
			 "cosmo_polarized_energy": -11.83, 
			 "cosmo_cavitation_energy": 34.2, 
			 "cosmo_dispersion_energy": -24.39, 
			 "cosmo_repulsion_energy": 1.91, 
			 "cosmo_total_nonelectrostatic_energy": 11.72, 
			 "SMD_solvation_energy": 5.87 
		},
		"coords": [
			{
				"x": -1.8155662803,
				"y": 1.0784496132,
				"z": -3.2616268054,
				"element": "N" 
			},
			{
				"x": -1.5349534715,
				"y": 0.294069684,
				"z": -2.1466794867,
				"element": "C" 
			},
			{
				"x": -1.1744511978,
				"y": 0.8944974461,
				"z": -0.9266738932,
				"element": "C" 
			},
			{
				"x": -0.9604245156,
				"y": 0.1033394744,
				"z": 0.1904664421,
				"element": "C" 
			},
			{
				"x": -0.6145568416,
				"y": 0.6837583915,
				"z": 1.3542397235,
				"element": "F" 
			},
			{
				"x": -1.0767393814,
				"y": -1.2881357683,
				"z": 0.1426431371,
				"element": "C" 
			},
			{
				"x": -0.9488426697,
				"y": -2.0556219805,
				"z": 1.2895744334,
				"element": "O" 
			},
			{
				"x": 0.2792073676,
				"y": -2.2194357838,
				"z": 1.8675816316,
				"element": "C" 
			},
			{
				"x": 0.3130742602,
				"y": -2.8294086351,
				"z": 3.1329589363,
				"element": "C" 
			},
			{
				"x": -1.1791680797,
				"y": -3.3087105208,
				"z": 3.9073475736,
				"element": "Cl" 
			},
			{
				"x": 1.5293332862,
				"y": -3.0535914128,
				"z": 3.7716520884,
				"element": "C" 
			},
			{
				"x": 2.7299591671,
				"y": -2.678514352,
				"z": 3.1683198221,
				"element": "C" 
			},
			{
				"x": 2.6836783942,
				"y": -2.0792425182,
				"z": 1.912394913,
				"element": "C" 
			},
			{
				"x": 4.1822991297,
				"y": -1.6037337591,
				"z": 1.1258717606,
				"element": "Cl" 
			},
			{
				"x": 1.4782760869,
				"y": -1.8471407164,
				"z": 1.2541376017,
				"element": "C" 
			},
			{
				"x": -1.4329040425,
				"y": -1.8822304441,
				"z": -1.0655157,
				"element": "C" 
			},
			{
				"x": -1.6621420333,
				"y": -1.1062207416,
				"z": -2.1987913432,
				"element": "C" 
			},
			{
				"x": -1.7394552726,
				"y": 0.6114342904,
				"z": -4.1540376125,
				"element": "H" 
			},
			{
				"x": -1.3952205396,
				"y": 1.9968378123,
				"z": -3.2711524311,
				"element": "H" 
			},
			{
				"x": -1.0716033275,
				"y": 1.9707612502,
				"z": -0.8328835275,
				"element": "H" 
			},
			{
				"x": 1.5323068451,
				"y": -3.5231071104,
				"z": 4.7491299842,
				"element": "H" 
			},
			{
				"x": 3.6774569818,
				"y": -2.8487122886,
				"z": 3.6652456774,
				"element": "H" 
			},
			{
				"x": 1.4655580928,
				"y": -1.3877959375,
				"z": 0.2739331672,
				"element": "H" 
			},
			{
				"x": -1.5359598925,
				"y": -2.9618210758,
				"z": -1.1012887558,
				"element": "H" 
			},
			{
				"x": -1.9473620663,
				"y": -1.5853249169,
				"z": -3.1308473369,
				"element": "H" 
			}
		],
		 "valence_orbital": [ 
			{
				"type": "occ",
				"energy": -0.30605,
				"method": "rhf"
			},
			{
				"type": "occ",
				"energy": -0.25859,
				"method": "rhf"
			},
			{
				"type": "occ",
				"energy": -0.25423,
				"method": "rhf"
			},
			{
				"type": "occ",
				"energy": -0.23258,
				"method": "rhf"
			},
			{
				"type": "occ",
				"energy": -0.21282,
				"method": "rhf"
			},
			{
				"type": "unocc",
				"energy": -0.02163,
				"method": "rhf"
			},
			{
				"type": "unocc",
				"energy": -0.01303,
				"method": "rhf"
			},
			{
				"type": "unocc",
				"energy": -0.00599,
				"method": "rhf"
			},
			{
				"type": "unocc",
				"energy": 0.00408,
				"method": "rhf"
			},
			{
				"type": "unocc",
				"energy": 0.02081,
				"method": "rhf"
			}
		],
		"cosmo_sigma_profile": { 
			"-0.025": 0.0,
			"-0.024": 0.0,
			"-0.023": 0.0,
			"-0.022": 0.0,
			"-0.021": 0.0,
			"-0.02": 0.0,
			"-0.019": 0.0,
			"-0.018": 0.0,
			"-0.017": 0.0,
			"-0.016": 0.0,
			"-0.015": 0.0,
			"-0.014": 0.0,
			"-0.013": 1.43968606208,
			"-0.012": 3.1784769795,
			"-0.011": 3.05539831424,
			"-0.01": 2.73994011009,
			"-0.009": 4.33938190843,
			"-0.008": 5.48724149692,
			"-0.007": 10.6550057261,
			"-0.006": 10.9977684807,
			"-0.005": 10.5920887615,
			"-0.004": 10.7332193307,
			"-0.003": 10.849521187,
			"-0.002": 13.01679409,
			"-0.001": 13.869825106,
			"0.0": 21.1724660413,
			"0.001": 32.0648706536,
			"0.002": 31.3879243839,
			"0.003": 31.4248430063,
			"0.004": 36.4981210114,
			"0.005": 13.1023871963,
			"0.006": 2.39233965687,
			"0.007": 2.11116866479,
			"0.008": 3.45303380035,
			"0.009": 1.87480068912,
			"0.01": 0.874138778689,
			"0.011": 0.449797241154,
			"0.012": 0.489024940555,
			"0.013": 0.82207538391,
			"0.014": 0.141151949377,
			"0.015": 0.0,
			"0.016": 0.0,
			"0.017": 0.0,
			"0.018": 0.0,
			"0.019": 0.0,
			"0.02": 0.0,
			"0.021": 0.0,
			"0.022": 0.0,
			"0.023": 0.0,
			"0.024": 0.0,
			"0.025": 0.0
		}
	}
}
