{
	 "smiles": "NC1=CC(=NN1)C1=CSC=C1", 
	 "Tm": 401.15, 
	 "num_atms": 18, 
	 "gaussian": { 
		 "optdone": 1, 
		 "sigma_profile": "yes", 
		 "theory": "DFT", 
		 "functional": "B3LYP", 
		 "basiset": "6-31G**", 
		 "properties": { 
			 "R2extent": 3214.7672, 
			 "electric_dipole_moment_norm": 3.89239083983, 
			 "electric_quadrupole_moment_norm": 15.2635989373, 
			 "total_energy": -833.369774881, 
			 "HOMO_LUMO_gap": 0.19345, 
			 "cosmo_polarized_energy": -15.76, 
			 "cosmo_cavitation_energy": 24.17, 
			 "cosmo_dispersion_energy": -18.8, 
			 "cosmo_repulsion_energy": 1.46, 
			 "cosmo_total_nonelectrostatic_energy": 6.83, 
			 "SMD_solvation_energy": 3.41 
		},
		"coords": [
			{
				"x": -3.1893224173,
				"y": -1.8805120757,
				"z": 1.4195498169,
				"element": "N" 
			},
			{
				"x": -2.228008354,
				"y": -0.8655067077,
				"z": 1.457240014,
				"element": "C" 
			},
			{
				"x": -0.8727433758,
				"y": -0.8473699718,
				"z": 1.1843759179,
				"element": "C" 
			},
			{
				"x": -0.4546196215,
				"y": 0.4774915508,
				"z": 1.4943993852,
				"element": "C" 
			},
			{
				"x": -1.4750632816,
				"y": 1.2267359283,
				"z": 1.9202952387,
				"element": "N" 
			},
			{
				"x": -2.5429872754,
				"y": 0.3864959548,
				"z": 1.8904630451,
				"element": "N" 
			},
			{
				"x": 0.8848421462,
				"y": 1.0594817542,
				"z": 1.3836954057,
				"element": "C" 
			},
			{
				"x": 2.0117208242,
				"y": 0.3790750927,
				"z": 0.9891914917,
				"element": "C" 
			},
			{
				"x": 3.4170052045,
				"y": 1.3922621918,
				"z": 0.9800472027,
				"element": "S" 
			},
			{
				"x": 2.4851067614,
				"y": 2.7588392481,
				"z": 1.514268109,
				"element": "C" 
			},
			{
				"x": 1.1719704202,
				"y": 2.4360694912,
				"z": 1.68461339,
				"element": "C" 
			},
			{
				"x": -4.0114216892,
				"y": -1.6379249202,
				"z": 0.8758698658,
				"element": "H" 
			},
			{
				"x": -2.803053792,
				"y": -2.7496690625,
				"z": 1.0732998061,
				"element": "H" 
			},
			{
				"x": -0.28054597,
				"y": -1.6626048528,
				"z": 0.796666912,
				"element": "H" 
			},
			{
				"x": -3.4266262975,
				"y": 0.6977962114,
				"z": 2.2614453838,
				"element": "H" 
			},
			{
				"x": 2.0982004554,
				"y": -0.6606988677,
				"z": 0.7070423749,
				"element": "H" 
			},
			{
				"x": 2.9665378854,
				"y": 3.7144832042,
				"z": 1.6682501962,
				"element": "H" 
			},
			{
				"x": 0.4094083772,
				"y": 3.131455831,
				"z": 2.0120864445,
				"element": "H" 
			}
		],
		 "valence_orbital": [ 
			{
				"type": "occ",
				"energy": -0.28149,
				"method": "rhf"
			},
			{
				"type": "occ",
				"energy": -0.27617,
				"method": "rhf"
			},
			{
				"type": "occ",
				"energy": -0.23312,
				"method": "rhf"
			},
			{
				"type": "occ",
				"energy": -0.21703,
				"method": "rhf"
			},
			{
				"type": "occ",
				"energy": -0.20182,
				"method": "rhf"
			},
			{
				"type": "unocc",
				"energy": -0.00837,
				"method": "rhf"
			},
			{
				"type": "unocc",
				"energy": 0.0247,
				"method": "rhf"
			},
			{
				"type": "unocc",
				"energy": 0.04102,
				"method": "rhf"
			},
			{
				"type": "unocc",
				"energy": 0.05766,
				"method": "rhf"
			},
			{
				"type": "unocc",
				"energy": 0.06787,
				"method": "rhf"
			}
		],
		"cosmo_sigma_profile": { 
			"-0.025": 0.0,
			"-0.024": 0.0,
			"-0.023": 0.0,
			"-0.022": 0.0,
			"-0.021": 0.0,
			"-0.02": 0.0,
			"-0.019": 0.0,
			"-0.018": 0.0,
			"-0.017": 0.00843711910254,
			"-0.016": 1.04425049757,
			"-0.015": 1.10702650467,
			"-0.014": 1.68833303267,
			"-0.013": 3.73194988749,
			"-0.012": 3.47530624149,
			"-0.011": 3.97743690956,
			"-0.01": 4.67681161166,
			"-0.009": 3.3263753279,
			"-0.008": 5.44197288237,
			"-0.007": 7.35226784151,
			"-0.006": 9.3834407718,
			"-0.005": 7.71335660689,
			"-0.004": 7.20433520191,
			"-0.003": 8.20817361554,
			"-0.002": 6.67480926816,
			"-0.001": 7.88775496459,
			"0.0": 7.54101667378,
			"0.001": 9.00901099175,
			"0.002": 10.3634679053,
			"0.003": 11.0791194611,
			"0.004": 20.4538198969,
			"0.005": 23.9357387172,
			"0.006": 10.0928339205,
			"0.007": 4.20570934402,
			"0.008": 2.52075825542,
			"0.009": 2.51324488183,
			"0.01": 2.83409259629,
			"0.011": 1.34820597988,
			"0.012": 2.14206110212,
			"0.013": 1.87540959459,
			"0.014": 1.56259230417,
			"0.015": 1.06658688429,
			"0.016": 0.0131567070132,
			"0.017": 0.0,
			"0.018": 0.0,
			"0.019": 0.0,
			"0.02": 0.0,
			"0.021": 0.0,
			"0.022": 0.0,
			"0.023": 0.0,
			"0.024": 0.0,
			"0.025": 0.0
		}
	}
}
