{
	 "smiles": "C1C=CC=CC1(C1=CC=CC=C1)C1=CC=CC=C1", 
	 "Tm": 330.15, 
	 "num_atms": 34, 
	 "gaussian": { 
		 "optdone": 1, 
		 "sigma_profile": "yes", 
		 "theory": "DFT", 
		 "functional": "B3LYP", 
		 "basiset": "6-31G**", 
		 "properties": { 
			 "R2extent": 4292.5918, 
			 "electric_dipole_moment_norm": 0.210108305405, 
			 "electric_quadrupole_moment_norm": 3.48625758228, 
			 "total_energy": -695.521270532, 
			 "HOMO_LUMO_gap": 0.1803, 
			 "cosmo_polarized_energy": -6.5, 
			 "cosmo_cavitation_energy": 35.48, 
			 "cosmo_dispersion_energy": -24.9, 
			 "cosmo_repulsion_energy": 1.93, 
			 "cosmo_total_nonelectrostatic_energy": 12.51, 
			 "SMD_solvation_energy": 5.79 
		},
		"coords": [
			{
				"x": -0.51706107,
				"y": -0.6206250844,
				"z": -1.9504412288,
				"element": "C" 
			},
			{
				"x": -0.6970698905,
				"y": 0.4724245448,
				"z": -2.9752107709,
				"element": "C" 
			},
			{
				"x": -1.5383632995,
				"y": 1.4921833864,
				"z": -2.7440110175,
				"element": "C" 
			},
			{
				"x": -2.2348030405,
				"y": 1.594500837,
				"z": -1.4617265642,
				"element": "C" 
			},
			{
				"x": -1.9026148986,
				"y": 0.816922341,
				"z": -0.4179548844,
				"element": "C" 
			},
			{
				"x": -0.7373563634,
				"y": -0.1742878198,
				"z": -0.4716631068,
				"element": "C" 
			},
			{
				"x": -1.0339558923,
				"y": -1.4501548533,
				"z": 0.3380190323,
				"element": "C" 
			},
			{
				"x": -2.3492453756,
				"y": -1.8985487943,
				"z": 0.5239614105,
				"element": "C" 
			},
			{
				"x": -2.6140329303,
				"y": -3.0971597667,
				"z": 1.1899066106,
				"element": "C" 
			},
			{
				"x": -1.5650524138,
				"y": -3.8770187175,
				"z": 1.6766770287,
				"element": "C" 
			},
			{
				"x": -0.2497973152,
				"y": -3.4476218557,
				"z": 1.4890609818,
				"element": "C" 
			},
			{
				"x": 0.0114180451,
				"y": -2.247386212,
				"z": 0.8279987125,
				"element": "C" 
			},
			{
				"x": 0.4679589749,
				"y": 0.5856542937,
				"z": 0.1238210486,
				"element": "C" 
			},
			{
				"x": 0.4494441991,
				"y": 0.9327049753,
				"z": 1.4871358086,
				"element": "C" 
			},
			{
				"x": 1.4868716257,
				"y": 1.6611264178,
				"z": 2.062679058,
				"element": "C" 
			},
			{
				"x": 2.5761980287,
				"y": 2.0661111154,
				"z": 1.2862242126,
				"element": "C" 
			},
			{
				"x": 2.610891231,
				"y": 1.7296979118,
				"z": -0.064894563,
				"element": "C" 
			},
			{
				"x": 1.5679147521,
				"y": 0.9968141873,
				"z": -0.6406216347,
				"element": "C" 
			},
			{
				"x": -1.2516353832,
				"y": -1.4093064932,
				"z": -2.1713075813,
				"element": "H" 
			},
			{
				"x": 0.4620645812,
				"y": -1.1026762683,
				"z": -2.0434182315,
				"element": "H" 
			},
			{
				"x": -0.1920339357,
				"y": 0.3689753136,
				"z": -3.9327789098,
				"element": "H" 
			},
			{
				"x": -1.7220097216,
				"y": 2.2494085287,
				"z": -3.5014363716,
				"element": "H" 
			},
			{
				"x": -3.0175556701,
				"y": 2.3410814238,
				"z": -1.3529933594,
				"element": "H" 
			},
			{
				"x": -2.3981631627,
				"y": 0.9443816187,
				"z": 0.5407820621,
				"element": "H" 
			},
			{
				"x": -3.1751174913,
				"y": -1.3082003574,
				"z": 0.1380770773,
				"element": "H" 
			},
			{
				"x": -3.6427517726,
				"y": -3.4192883193,
				"z": 1.326820535,
				"element": "H" 
			},
			{
				"x": -1.7691145392,
				"y": -4.8087227515,
				"z": 2.1965663477,
				"element": "H" 
			},
			{
				"x": 0.5771604394,
				"y": -4.0462563768,
				"z": 1.8612163923,
				"element": "H" 
			},
			{
				"x": 1.0385046663,
				"y": -1.9199857917,
				"z": 0.6991665154,
				"element": "H" 
			},
			{
				"x": -0.3840355733,
				"y": 0.6140429032,
				"z": 2.1065746056,
				"element": "H" 
			},
			{
				"x": 1.4474728324,
				"y": 1.9100284627,
				"z": 3.1196300815,
				"element": "H" 
			},
			{
				"x": 3.3882545181,
				"y": 2.6327746776,
				"z": 1.7327506753,
				"element": "H" 
			},
			{
				"x": 3.4520988722,
				"y": 2.0347461136,
				"z": -0.6813876529,
				"element": "H" 
			},
			{
				"x": 1.6211169731,
				"y": 0.7562604096,
				"z": -1.6956223198,
				"element": "H" 
			}
		],
		 "valence_orbital": [ 
			{
				"type": "occ",
				"energy": -0.25053,
				"method": "rhf"
			},
			{
				"type": "occ",
				"energy": -0.2444,
				"method": "rhf"
			},
			{
				"type": "occ",
				"energy": -0.24283,
				"method": "rhf"
			},
			{
				"type": "occ",
				"energy": -0.23101,
				"method": "rhf"
			},
			{
				"type": "occ",
				"energy": -0.20926,
				"method": "rhf"
			},
			{
				"type": "unocc",
				"energy": -0.02896,
				"method": "rhf"
			},
			{
				"type": "unocc",
				"energy": -0.0026,
				"method": "rhf"
			},
			{
				"type": "unocc",
				"energy": 0.00098,
				"method": "rhf"
			},
			{
				"type": "unocc",
				"energy": 0.00694,
				"method": "rhf"
			},
			{
				"type": "unocc",
				"energy": 0.01339,
				"method": "rhf"
			}
		],
		"cosmo_sigma_profile": { 
			"-0.025": 0.0,
			"-0.024": 0.0,
			"-0.023": 0.0,
			"-0.022": 0.0,
			"-0.021": 0.0,
			"-0.02": 0.0,
			"-0.019": 0.0,
			"-0.018": 0.0,
			"-0.017": 0.0,
			"-0.016": 0.0,
			"-0.015": 0.0,
			"-0.014": 0.0,
			"-0.013": 0.0,
			"-0.012": 0.0,
			"-0.011": 0.0,
			"-0.01": 0.0,
			"-0.009": 0.0,
			"-0.008": 0.0,
			"-0.007": 0.0,
			"-0.006": 3.74763821697,
			"-0.005": 23.7849225985,
			"-0.004": 30.5064054504,
			"-0.003": 35.1228205194,
			"-0.002": 27.2483394413,
			"-0.001": 23.2752066493,
			"0.0": 20.4041798607,
			"0.001": 16.9429867402,
			"0.002": 18.3021043199,
			"0.003": 17.161572018,
			"0.004": 20.6029481396,
			"0.005": 18.7905131198,
			"0.006": 21.1312049976,
			"0.007": 5.56316992724,
			"0.008": 0.0,
			"0.009": 0.0,
			"0.01": 0.0,
			"0.011": 0.0,
			"0.012": 0.0,
			"0.013": 0.0,
			"0.014": 0.0,
			"0.015": 0.0,
			"0.016": 0.0,
			"0.017": 0.0,
			"0.018": 0.0,
			"0.019": 0.0,
			"0.02": 0.0,
			"0.021": 0.0,
			"0.022": 0.0,
			"0.023": 0.0,
			"0.024": 0.0,
			"0.025": 0.0
		}
	}
}
