{
	 "smiles": "CN(N)C1=C(N(C)N)C(=O)C1=O", 
	 "Tm": 475.15, 
	 "num_atms": 22, 
	 "gaussian": { 
		 "optdone": 1, 
		 "sigma_profile": "yes", 
		 "theory": "DFT", 
		 "functional": "B3LYP", 
		 "basiset": "6-31G**", 
		 "properties": { 
			 "R2extent": 2315.8465, 
			 "electric_dipole_moment_norm": 7.55939776503, 
			 "electric_quadrupole_moment_norm": 12.0681280715, 
			 "total_energy": -604.005081385, 
			 "HOMO_LUMO_gap": 0.16965, 
			 "cosmo_polarized_energy": -23.17, 
			 "cosmo_cavitation_energy": 25.83, 
			 "cosmo_dispersion_energy": -18.82, 
			 "cosmo_repulsion_energy": 1.52, 
			 "cosmo_total_nonelectrostatic_energy": 8.53, 
			 "SMD_solvation_energy": 6.67 
		},
		"coords": [
			{
				"x": 1.0153507924,
				"y": -2.6145207524,
				"z": -2.4971803271,
				"element": "C" 
			},
			{
				"x": 0.7854864661,
				"y": -1.3171210829,
				"z": -1.8728766378,
				"element": "N" 
			},
			{
				"x": 1.4036483017,
				"y": -0.2276010248,
				"z": -2.5418365737,
				"element": "N" 
			},
			{
				"x": 0.0391219213,
				"y": -1.1853896993,
				"z": -0.7704176815,
				"element": "C" 
			},
			{
				"x": -0.3138465123,
				"y": -0.1760578583,
				"z": 0.1480562585,
				"element": "C" 
			},
			{
				"x": -0.0687612795,
				"y": 1.1552707257,
				"z": 0.3259620137,
				"element": "N" 
			},
			{
				"x": -0.5397511454,
				"y": 1.8092880404,
				"z": 1.5455511409,
				"element": "C" 
			},
			{
				"x": 1.0980123256,
				"y": 1.6962410968,
				"z": -0.2693290206,
				"element": "N" 
			},
			{
				"x": -1.1848099469,
				"y": -1.0824463903,
				"z": 0.9312162684,
				"element": "C" 
			},
			{
				"x": -1.9218599323,
				"y": -0.950257738,
				"z": 1.8930437621,
				"element": "O" 
			},
			{
				"x": -0.7583174272,
				"y": -2.2064412899,
				"z": -0.0133753085,
				"element": "C" 
			},
			{
				"x": -0.9359231198,
				"y": -3.4021475899,
				"z": -0.1280630382,
				"element": "O" 
			},
			{
				"x": 0.6272844347,
				"y": -2.6133914371,
				"z": -3.5227504466,
				"element": "H" 
			},
			{
				"x": 2.0901741861,
				"y": -2.8165953535,
				"z": -2.5362828225,
				"element": "H" 
			},
			{
				"x": 0.5030022229,
				"y": -3.3848456864,
				"z": -1.9192554734,
				"element": "H" 
			},
			{
				"x": 0.7114580981,
				"y": 0.1767951713,
				"z": -3.1773996081,
				"element": "H" 
			},
			{
				"x": 1.5994428736,
				"y": 0.4858542122,
				"z": -1.8343636252,
				"element": "H" 
			},
			{
				"x": -1.3823332176,
				"y": 1.2456738452,
				"z": 1.950076128,
				"element": "H" 
			},
			{
				"x": 0.2545410227,
				"y": 1.8471840704,
				"z": 2.3068281836,
				"element": "H" 
			},
			{
				"x": -0.852686419,
				"y": 2.833583136,
				"z": 1.3154775488,
				"element": "H" 
			},
			{
				"x": 1.8277443644,
				"y": 1.7924441589,
				"z": 0.4430840269,
				"element": "H" 
			},
			{
				"x": 0.8769219904,
				"y": 2.6341814459,
				"z": -0.6010647676,
				"element": "H" 
			}
		],
		 "valence_orbital": [ 
			{
				"type": "occ",
				"energy": -0.3025,
				"method": "rhf"
			},
			{
				"type": "occ",
				"energy": -0.28361,
				"method": "rhf"
			},
			{
				"type": "occ",
				"energy": -0.26924,
				"method": "rhf"
			},
			{
				"type": "occ",
				"energy": -0.21861,
				"method": "rhf"
			},
			{
				"type": "occ",
				"energy": -0.19435,
				"method": "rhf"
			},
			{
				"type": "unocc",
				"energy": -0.0247,
				"method": "rhf"
			},
			{
				"type": "unocc",
				"energy": -0.0168,
				"method": "rhf"
			},
			{
				"type": "unocc",
				"energy": 0.04294,
				"method": "rhf"
			},
			{
				"type": "unocc",
				"energy": 0.09046,
				"method": "rhf"
			},
			{
				"type": "unocc",
				"energy": 0.09952,
				"method": "rhf"
			}
		],
		"cosmo_sigma_profile": { 
			"-0.025": 0.0,
			"-0.024": 0.0,
			"-0.023": 0.0,
			"-0.022": 0.0,
			"-0.021": 0.0,
			"-0.02": 0.0,
			"-0.019": 0.0,
			"-0.018": 0.0,
			"-0.017": 0.0,
			"-0.016": 0.0,
			"-0.015": 0.0,
			"-0.014": 0.0,
			"-0.013": 1.28053873552,
			"-0.012": 4.87600381467,
			"-0.011": 5.57414399288,
			"-0.01": 5.13877703643,
			"-0.009": 3.82821700683,
			"-0.008": 4.37348665651,
			"-0.007": 4.19041524991,
			"-0.006": 6.07198984839,
			"-0.005": 12.132034495,
			"-0.004": 11.644794524,
			"-0.003": 18.2366013806,
			"-0.002": 27.0358540697,
			"-0.001": 18.2372716057,
			"0.0": 10.8015475974,
			"0.001": 6.41360050397,
			"0.002": 4.94364497816,
			"0.003": 4.77426456719,
			"0.004": 4.61824274026,
			"0.005": 3.90716530071,
			"0.006": 4.03180567757,
			"0.007": 3.8089751606,
			"0.008": 4.09948763603,
			"0.009": 3.41922190349,
			"0.01": 4.71565346819,
			"0.011": 5.64957330981,
			"0.012": 8.68406870395,
			"0.013": 7.80881222313,
			"0.014": 3.02072339288,
			"0.015": 0.458561493009,
			"0.016": 0.466844322204,
			"0.017": 0.192013351303,
			"0.018": 0.0,
			"0.019": 0.0,
			"0.02": 0.0,
			"0.021": 0.0,
			"0.022": 0.0,
			"0.023": 0.0,
			"0.024": 0.0,
			"0.025": 0.0
		}
	}
}
