{
	 "smiles": "CC1=NNC(=O)C1=NNC1=CC=CC=C1C(O)=O", 
	 "Tm": 512.15, 
	 "num_atms": 28, 
	 "gaussian": { 
		 "optdone": 1, 
		 "sigma_profile": "yes", 
		 "theory": "DFT", 
		 "functional": "B3LYP", 
		 "basiset": "6-31G**", 
		 "properties": { 
			 "R2extent": 5411.4548, 
			 "electric_dipole_moment_norm": 2.87837692111, 
			 "electric_quadrupole_moment_norm": 21.7667814628, 
			 "total_energy": -869.840406864, 
			 "HOMO_LUMO_gap": 0.12619, 
			 "cosmo_polarized_energy": -21.44, 
			 "cosmo_cavitation_energy": 34.02, 
			 "cosmo_dispersion_energy": -24.23, 
			 "cosmo_repulsion_energy": 1.85, 
			 "cosmo_total_nonelectrostatic_energy": 11.64, 
			 "SMD_solvation_energy": 6.17 
		},
		"coords": [
			{
				"x": -0.4182759323,
				"y": -3.3133497465,
				"z": -0.0513810838,
				"element": "C" 
			},
			{
				"x": -0.3001321727,
				"y": -2.9128869494,
				"z": 1.3865370252,
				"element": "C" 
			},
			{
				"x": -0.4498877326,
				"y": -3.8037791574,
				"z": 2.327717836,
				"element": "N" 
			},
			{
				"x": -0.2932799665,
				"y": -3.1753816973,
				"z": 3.5426559103,
				"element": "N" 
			},
			{
				"x": -0.0286024104,
				"y": -1.8180800256,
				"z": 3.4580275186,
				"element": "C" 
			},
			{
				"x": 0.1488286743,
				"y": -1.0430741076,
				"z": 4.3810196031,
				"element": "O" 
			},
			{
				"x": -0.0253563477,
				"y": -1.5969449223,
				"z": 1.9716327083,
				"element": "C" 
			},
			{
				"x": 0.1970243381,
				"y": -0.4026370812,
				"z": 1.5113894462,
				"element": "N" 
			},
			{
				"x": 0.2115694575,
				"y": -0.1515746168,
				"z": 0.212868511,
				"element": "N" 
			},
			{
				"x": 0.4545017142,
				"y": 1.149053769,
				"z": -0.2456902477,
				"element": "C" 
			},
			{
				"x": 0.6802703272,
				"y": 2.1726297465,
				"z": 0.6925645265,
				"element": "C" 
			},
			{
				"x": 0.923855431,
				"y": 3.4719478557,
				"z": 0.2727671622,
				"element": "C" 
			},
			{
				"x": 0.950483135,
				"y": 3.7935083728,
				"z": -1.0900714941,
				"element": "C" 
			},
			{
				"x": 0.7291674027,
				"y": 2.7913952115,
				"z": -2.0202913017,
				"element": "C" 
			},
			{
				"x": 0.478771557,
				"y": 1.4611921769,
				"z": -1.631565063,
				"element": "C" 
			},
			{
				"x": 0.2640020032,
				"y": 0.517852916,
				"z": -2.7547858842,
				"element": "C" 
			},
			{
				"x": 0.0205434267,
				"y": -0.7786020252,
				"z": -2.3779701257,
				"element": "O" 
			},
			{
				"x": 0.2900725673,
				"y": 0.8128790599,
				"z": -3.9314534544,
				"element": "O" 
			},
			{
				"x": -1.230147639,
				"y": -2.7783586554,
				"z": -0.5591815246,
				"element": "H" 
			},
			{
				"x": -0.629966444,
				"y": -4.3835873395,
				"z": -0.1046941611,
				"element": "H" 
			},
			{
				"x": 0.5074195561,
				"y": -3.1196213791,
				"z": -0.607040363,
				"element": "H" 
			},
			{
				"x": -0.3760616144,
				"y": -3.7131793125,
				"z": 4.3905985237,
				"element": "H" 
			},
			{
				"x": 0.0509596959,
				"y": -0.8745252098,
				"z": -0.4825141619,
				"element": "H" 
			},
			{
				"x": 0.658444915,
				"y": 1.9180348367,
				"z": 1.7443816769,
				"element": "H" 
			},
			{
				"x": 1.0949657602,
				"y": 4.2429804767,
				"z": 1.018361997,
				"element": "H" 
			},
			{
				"x": 1.1412763994,
				"y": 4.8107908255,
				"z": -1.4152411789,
				"element": "H" 
			},
			{
				"x": 0.7418007937,
				"y": 3.0008797513,
				"z": -3.0839138853,
				"element": "H" 
			},
			{
				"x": -0.0987468949,
				"y": -1.2747627724,
				"z": -3.2049285156,
				"element": "H" 
			}
		],
		 "valence_orbital": [ 
			{
				"type": "occ",
				"energy": -0.29677,
				"method": "rhf"
			},
			{
				"type": "occ",
				"energy": -0.27311,
				"method": "rhf"
			},
			{
				"type": "occ",
				"energy": -0.249,
				"method": "rhf"
			},
			{
				"type": "occ",
				"energy": -0.24655,
				"method": "rhf"
			},
			{
				"type": "occ",
				"energy": -0.21604,
				"method": "rhf"
			},
			{
				"type": "unocc",
				"energy": -0.08985,
				"method": "rhf"
			},
			{
				"type": "unocc",
				"energy": -0.0576,
				"method": "rhf"
			},
			{
				"type": "unocc",
				"energy": -0.00286,
				"method": "rhf"
			},
			{
				"type": "unocc",
				"energy": 0.03874,
				"method": "rhf"
			},
			{
				"type": "unocc",
				"energy": 0.04308,
				"method": "rhf"
			}
		],
		"cosmo_sigma_profile": { 
			"-0.025": 0.0,
			"-0.024": 0.0,
			"-0.023": 0.0,
			"-0.022": 0.0,
			"-0.021": 0.0,
			"-0.02": 0.0,
			"-0.019": 0.075439579964,
			"-0.018": 0.992180168073,
			"-0.017": 0.917189031585,
			"-0.016": 1.47596623372,
			"-0.015": 1.94396822717,
			"-0.014": 1.87627346019,
			"-0.013": 1.68345376159,
			"-0.012": 1.30177371142,
			"-0.011": 0.861447677557,
			"-0.01": 2.73626847138,
			"-0.009": 2.64948374797,
			"-0.008": 2.69168147878,
			"-0.007": 5.8592001122,
			"-0.006": 11.6037454013,
			"-0.005": 17.0316536278,
			"-0.004": 17.9605589226,
			"-0.003": 19.4799051515,
			"-0.002": 27.753501631,
			"-0.001": 21.1755241034,
			"0.0": 19.8602615965,
			"0.001": 19.7238062875,
			"0.002": 17.6257517427,
			"0.003": 15.4063408977,
			"0.004": 7.77336861832,
			"0.005": 5.03804898607,
			"0.006": 4.76788836894,
			"0.007": 3.71843874948,
			"0.008": 3.85600070805,
			"0.009": 4.89853362634,
			"0.01": 5.05365446279,
			"0.011": 7.17921186087,
			"0.012": 6.63454392998,
			"0.013": 7.23087409126,
			"0.014": 3.95383835514,
			"0.015": 0.220641122266,
			"0.016": 0.0,
			"0.017": 0.0,
			"0.018": 0.0,
			"0.019": 0.0,
			"0.02": 0.0,
			"0.021": 0.0,
			"0.022": 0.0,
			"0.023": 0.0,
			"0.024": 0.0,
			"0.025": 0.0
		}
	}
}
