{
	 "smiles": "CCC(=O)OC(=O)CC", 
	 "Tm": 228.65, 
	 "num_atms": 19, 
	 "gaussian": { 
		 "optdone": 1, 
		 "sigma_profile": "yes", 
		 "theory": "DFT", 
		 "functional": "B3LYP", 
		 "basiset": "6-31G**", 
		 "properties": { 
			 "R2extent": 2109.5244, 
			 "electric_dipole_moment_norm": 3.84600436037, 
			 "electric_quadrupole_moment_norm": 13.241115234, 
			 "total_energy": -460.36180044, 
			 "HOMO_LUMO_gap": 0.24423, 
			 "cosmo_polarized_energy": -10.24, 
			 "cosmo_cavitation_energy": 23.4, 
			 "cosmo_dispersion_energy": -16.61, 
			 "cosmo_repulsion_energy": 1.43, 
			 "cosmo_total_nonelectrostatic_energy": 8.22, 
			 "SMD_solvation_energy": 6.09 
		},
		"coords": [
			{
				"x": -1.9432353306,
				"y": 1.7722605069,
				"z": 1.4694510067,
				"element": "C" 
			},
			{
				"x": -1.3261823825,
				"y": 0.8859254297,
				"z": 0.3899367014,
				"element": "C" 
			},
			{
				"x": -0.0996211019,
				"y": 1.5006554526,
				"z": -0.2438689578,
				"element": "C" 
			},
			{
				"x": 0.4331540533,
				"y": 2.528110818,
				"z": 0.0700123521,
				"element": "O" 
			},
			{
				"x": 0.3188372177,
				"y": 0.7183946175,
				"z": -1.3222743753,
				"element": "O" 
			},
			{
				"x": 1.6577737946,
				"y": 0.6919393273,
				"z": -1.7165985023,
				"element": "C" 
			},
			{
				"x": 2.5673367815,
				"y": 0.9148075367,
				"z": -0.966850933,
				"element": "O" 
			},
			{
				"x": 1.7653157294,
				"y": 0.292031291,
				"z": -3.1709441351,
				"element": "C" 
			},
			{
				"x": 1.0998299687,
				"y": -1.0566794689,
				"z": -3.4903506895,
				"element": "C" 
			},
			{
				"x": -1.222122675,
				"y": 1.9789771223,
				"z": 2.2640765652,
				"element": "H" 
			},
			{
				"x": -2.2595615628,
				"y": 2.7331562529,
				"z": 1.0548416775,
				"element": "H" 
			},
			{
				"x": -2.8159621361,
				"y": 1.2833805861,
				"z": 1.9111896473,
				"element": "H" 
			},
			{
				"x": -1.0240731693,
				"y": -0.0893760927,
				"z": 0.7937619562,
				"element": "H" 
			},
			{
				"x": -2.0401828541,
				"y": 0.6597862028,
				"z": -0.4112276354,
				"element": "H" 
			},
			{
				"x": 1.2948553516,
				"y": 1.0845367325,
				"z": -3.7661807291,
				"element": "H" 
			},
			{
				"x": 2.8301828286,
				"y": 0.2748137057,
				"z": -3.4136959065,
				"element": "H" 
			},
			{
				"x": 1.2199239964,
				"y": -1.2916829779,
				"z": -4.5515926219,
				"element": "H" 
			},
			{
				"x": 0.0317116059,
				"y": -1.0318986431,
				"z": -3.2625960821,
				"element": "H" 
			},
			{
				"x": 1.5547198844,
				"y": -1.8674383994,
				"z": -2.9130893387,
				"element": "H" 
			}
		],
		 "valence_orbital": [ 
			{
				"type": "occ",
				"energy": -0.36148,
				"method": "rhf"
			},
			{
				"type": "occ",
				"energy": -0.35643,
				"method": "rhf"
			},
			{
				"type": "occ",
				"energy": -0.32065,
				"method": "rhf"
			},
			{
				"type": "occ",
				"energy": -0.29305,
				"method": "rhf"
			},
			{
				"type": "occ",
				"energy": -0.26955,
				"method": "rhf"
			},
			{
				"type": "unocc",
				"energy": -0.02532,
				"method": "rhf"
			},
			{
				"type": "unocc",
				"energy": 0.01518,
				"method": "rhf"
			},
			{
				"type": "unocc",
				"energy": 0.0913,
				"method": "rhf"
			},
			{
				"type": "unocc",
				"energy": 0.10084,
				"method": "rhf"
			},
			{
				"type": "unocc",
				"energy": 0.13446,
				"method": "rhf"
			}
		],
		"cosmo_sigma_profile": { 
			"-0.025": 0.0,
			"-0.024": 0.0,
			"-0.023": 0.0,
			"-0.022": 0.0,
			"-0.021": 0.0,
			"-0.02": 0.0,
			"-0.019": 0.0,
			"-0.018": 0.0,
			"-0.017": 0.0,
			"-0.016": 0.0,
			"-0.015": 0.0,
			"-0.014": 0.0,
			"-0.013": 0.0,
			"-0.012": 0.0,
			"-0.011": 0.0,
			"-0.01": 0.0,
			"-0.009": 0.0,
			"-0.008": 0.0,
			"-0.007": 3.74171810213,
			"-0.006": 9.05202347968,
			"-0.005": 11.3872620553,
			"-0.004": 20.4237445594,
			"-0.003": 25.1091326689,
			"-0.002": 24.5155808402,
			"-0.001": 15.3878615159,
			"0.0": 17.5677466804,
			"0.001": 9.52901043117,
			"0.002": 4.3135707377,
			"0.003": 4.74415822347,
			"0.004": 3.34933976178,
			"0.005": 2.75360739953,
			"0.006": 2.35482717145,
			"0.007": 2.79025815629,
			"0.008": 3.18044168193,
			"0.009": 4.26985491214,
			"0.01": 8.29630648641,
			"0.011": 8.2150511844,
			"0.012": 2.48891324128,
			"0.013": 0.141934516543,
			"0.014": 0.0,
			"0.015": 0.0,
			"0.016": 0.0,
			"0.017": 0.0,
			"0.018": 0.0,
			"0.019": 0.0,
			"0.02": 0.0,
			"0.021": 0.0,
			"0.022": 0.0,
			"0.023": 0.0,
			"0.024": 0.0,
			"0.025": 0.0
		}
	}
}
