{
	 "smiles": "CCSC#N", 
	 "Tm": 187.65, 
	 "num_atms": 10, 
	 "gaussian": { 
		 "optdone": 1, 
		 "sigma_profile": "yes", 
		 "theory": "DFT", 
		 "functional": "B3LYP", 
		 "basiset": "6-31G**", 
		 "properties": { 
			 "R2extent": 835.7583, 
			 "electric_dipole_moment_norm": 4.15161351404, 
			 "electric_quadrupole_moment_norm": 8.1896221842, 
			 "total_energy": -570.2477745, 
			 "HOMO_LUMO_gap": 0.23799, 
			 "cosmo_polarized_energy": -7.73, 
			 "cosmo_cavitation_energy": 16.02, 
			 "cosmo_dispersion_energy": -11.83, 
			 "cosmo_repulsion_energy": 1.0, 
			 "cosmo_total_nonelectrostatic_energy": 5.2, 
			 "SMD_solvation_energy": 4.59 
		},
		"coords": [
			{
				"x": 0.9838632936,
				"y": 0.1840172681,
				"z": 0.0389762088,
				"element": "C" 
			},
			{
				"x": 0.5092277824,
				"y": 0.58561281,
				"z": -1.3513766716,
				"element": "C" 
			},
			{
				"x": -1.126480231,
				"y": -0.1480177985,
				"z": -1.8372547801,
				"element": "S" 
			},
			{
				"x": -2.1262429826,
				"y": 0.5594113421,
				"z": -0.6574755359,
				"element": "C" 
			},
			{
				"x": -2.8341872363,
				"y": 1.0280944204,
				"z": 0.1427312767,
				"element": "N" 
			},
			{
				"x": 1.9608981063,
				"y": 0.6387438644,
				"z": 0.2360703928,
				"element": "H" 
			},
			{
				"x": 1.0839150271,
				"y": -0.9009698785,
				"z": 0.1279493083,
				"element": "H" 
			},
			{
				"x": 0.288306571,
				"y": 0.5314182139,
				"z": 0.8078091983,
				"element": "H" 
			},
			{
				"x": 1.1766674069,
				"y": 0.2118004754,
				"z": -2.1339248858,
				"element": "H" 
			},
			{
				"x": 0.4302322627,
				"y": 1.6689892826,
				"z": -1.4645045114,
				"element": "H" 
			}
		],
		 "valence_orbital": [ 
			{
				"type": "occ",
				"energy": -0.3803,
				"method": "rhf"
			},
			{
				"type": "occ",
				"energy": -0.36604,
				"method": "rhf"
			},
			{
				"type": "occ",
				"energy": -0.36027,
				"method": "rhf"
			},
			{
				"type": "occ",
				"energy": -0.32444,
				"method": "rhf"
			},
			{
				"type": "occ",
				"energy": -0.26392,
				"method": "rhf"
			},
			{
				"type": "unocc",
				"energy": -0.02593,
				"method": "rhf"
			},
			{
				"type": "unocc",
				"energy": 0.03816,
				"method": "rhf"
			},
			{
				"type": "unocc",
				"energy": 0.04263,
				"method": "rhf"
			},
			{
				"type": "unocc",
				"energy": 0.06645,
				"method": "rhf"
			},
			{
				"type": "unocc",
				"energy": 0.0913,
				"method": "rhf"
			}
		],
		"cosmo_sigma_profile": { 
			"-0.025": 0.0,
			"-0.024": 0.0,
			"-0.023": 0.0,
			"-0.022": 0.0,
			"-0.021": 0.0,
			"-0.02": 0.0,
			"-0.019": 0.0,
			"-0.018": 0.0,
			"-0.017": 0.0,
			"-0.016": 0.0,
			"-0.015": 0.0,
			"-0.014": 0.0,
			"-0.013": 0.0,
			"-0.012": 0.0,
			"-0.011": 0.0,
			"-0.01": 0.083682487202,
			"-0.009": 1.38220820982,
			"-0.008": 2.64352153734,
			"-0.007": 5.08734413184,
			"-0.006": 4.57203260606,
			"-0.005": 8.34790618384,
			"-0.004": 13.973949906,
			"-0.003": 12.0808128728,
			"-0.002": 10.8702014441,
			"-0.001": 14.0072698004,
			"0.0": 10.1380290396,
			"0.001": 6.58018531939,
			"0.002": 6.48141151193,
			"0.003": 4.12967194439,
			"0.004": 4.72942300971,
			"0.005": 3.32636947295,
			"0.006": 2.59097332153,
			"0.007": 2.73743547144,
			"0.008": 3.46371889002,
			"0.009": 3.25328882014,
			"0.01": 3.33638078218,
			"0.011": 2.65674172034,
			"0.012": 2.41935919703,
			"0.013": 1.06393231402,
			"0.014": 0.0,
			"0.015": 0.0,
			"0.016": 0.0,
			"0.017": 0.0,
			"0.018": 0.0,
			"0.019": 0.0,
			"0.02": 0.0,
			"0.021": 0.0,
			"0.022": 0.0,
			"0.023": 0.0,
			"0.024": 0.0,
			"0.025": 0.0
		}
	}
}
