{
	 "smiles": "NC1=CC(Cl)=C(NC(=O)C2=CSC=C2)C(Cl)=C1", 
	 "Tm": 480.15, 
	 "num_atms": 25, 
	 "gaussian": { 
		 "optdone": 1, 
		 "sigma_profile": "yes", 
		 "theory": "DFT", 
		 "functional": "B3LYP", 
		 "basiset": "6-31G**", 
		 "properties": { 
			 "R2extent": 5342.4407, 
			 "electric_dipole_moment_norm": 6.9042314547, 
			 "electric_quadrupole_moment_norm": 13.7809514301, 
			 "total_energy": -1927.28394593, 
			 "HOMO_LUMO_gap": 0.191, 
			 "cosmo_polarized_energy": -18.13, 
			 "cosmo_cavitation_energy": 34.93, 
			 "cosmo_dispersion_energy": -24.82, 
			 "cosmo_repulsion_energy": 1.9, 
			 "cosmo_total_nonelectrostatic_energy": 12.01, 
			 "SMD_solvation_energy": 6.44 
		},
		"coords": [
			{
				"x": 0.4386790311,
				"y": 3.5360399768,
				"z": 2.6789132091,
				"element": "N" 
			},
			{
				"x": 0.3371247795,
				"y": 2.2322980646,
				"z": 2.2188722532,
				"element": "C" 
			},
			{
				"x": 1.4783637601,
				"y": 1.5326551213,
				"z": 1.7926136162,
				"element": "C" 
			},
			{
				"x": 1.3591543466,
				"y": 0.2436652739,
				"z": 1.2876034009,
				"element": "C" 
			},
			{
				"x": 2.8270659274,
				"y": -0.5965171723,
				"z": 0.8375746087,
				"element": "Cl" 
			},
			{
				"x": 0.1149606061,
				"y": -0.4028667084,
				"z": 1.1442089372,
				"element": "C" 
			},
			{
				"x": -0.01736836,
				"y": -1.7173083915,
				"z": 0.6469903395,
				"element": "N" 
			},
			{
				"x": 0.2696894459,
				"y": -2.2344862239,
				"z": -0.6084077734,
				"element": "C" 
			},
			{
				"x": 0.3345397399,
				"y": -3.4496601521,
				"z": -0.7508862343,
				"element": "O" 
			},
			{
				"x": 0.4620879137,
				"y": -1.3074640615,
				"z": -1.7612475916,
				"element": "C" 
			},
			{
				"x": 1.0985084162,
				"y": -1.7822757343,
				"z": -2.8839617929,
				"element": "C" 
			},
			{
				"x": 1.1831677549,
				"y": -0.5994576234,
				"z": -4.1313229482,
				"element": "S" 
			},
			{
				"x": 0.3337130476,
				"y": 0.5597553441,
				"z": -3.1551372023,
				"element": "C" 
			},
			{
				"x": 0.0182822672,
				"y": 0.0494477915,
				"z": -1.9291314178,
				"element": "C" 
			},
			{
				"x": -1.0059205433,
				"y": 0.3199652462,
				"z": 1.5971324156,
				"element": "C" 
			},
			{
				"x": -2.591531321,
				"y": -0.421252104,
				"z": 1.4993303474,
				"element": "Cl" 
			},
			{
				"x": -0.9149319352,
				"y": 1.6014565786,
				"z": 2.125733518,
				"element": "C" 
			},
			{
				"x": -0.3207606653,
				"y": 3.8697757154,
				"z": 3.2544120691,
				"element": "H" 
			},
			{
				"x": 1.3461608922,
				"y": 3.8237904298,
				"z": 3.0152172856,
				"element": "H" 
			},
			{
				"x": 2.4600394727,
				"y": 1.9878032832,
				"z": 1.8655023916,
				"element": "H" 
			},
			{
				"x": -0.2083580482,
				"y": -2.4557851163,
				"z": 1.3148622555,
				"element": "H" 
			},
			{
				"x": 1.5053463842,
				"y": -2.7743845903,
				"z": -3.0147748761,
				"element": "H" 
			},
			{
				"x": 0.1132015245,
				"y": 1.5429194998,
				"z": -3.5467949245,
				"element": "H" 
			},
			{
				"x": -0.5272524562,
				"y": 0.6122315464,
				"z": -1.1841353375,
				"element": "H" 
			},
			{
				"x": -1.8142619806,
				"y": 2.1107540063,
				"z": 2.4542334511,
				"element": "H" 
			}
		],
		 "valence_orbital": [ 
			{
				"type": "occ",
				"energy": -0.25704,
				"method": "rhf"
			},
			{
				"type": "occ",
				"energy": -0.25541,
				"method": "rhf"
			},
			{
				"type": "occ",
				"energy": -0.25038,
				"method": "rhf"
			},
			{
				"type": "occ",
				"energy": -0.23393,
				"method": "rhf"
			},
			{
				"type": "occ",
				"energy": -0.22473,
				"method": "rhf"
			},
			{
				"type": "unocc",
				"energy": -0.03373,
				"method": "rhf"
			},
			{
				"type": "unocc",
				"energy": -0.02791,
				"method": "rhf"
			},
			{
				"type": "unocc",
				"energy": -0.01384,
				"method": "rhf"
			},
			{
				"type": "unocc",
				"energy": 0.00295,
				"method": "rhf"
			},
			{
				"type": "unocc",
				"energy": 0.0159,
				"method": "rhf"
			}
		],
		"cosmo_sigma_profile": { 
			"-0.025": 0.0,
			"-0.024": 0.0,
			"-0.023": 0.0,
			"-0.022": 0.0,
			"-0.021": 0.0,
			"-0.02": 0.0,
			"-0.019": 0.0,
			"-0.018": 0.0,
			"-0.017": 0.0,
			"-0.016": 0.0,
			"-0.015": 0.0331945564244,
			"-0.014": 1.34982199772,
			"-0.013": 4.3878169517,
			"-0.012": 4.1557828247,
			"-0.011": 4.05393168487,
			"-0.01": 4.63670288698,
			"-0.009": 5.6777087982,
			"-0.008": 8.6044571405,
			"-0.007": 7.80877794589,
			"-0.006": 7.83279637709,
			"-0.005": 9.80611386649,
			"-0.004": 9.64260389576,
			"-0.003": 11.9650758006,
			"-0.002": 14.0035713496,
			"-0.001": 17.1722312004,
			"0.0": 19.1875239839,
			"0.001": 26.4023629664,
			"0.002": 33.7630684208,
			"0.003": 35.0241587667,
			"0.004": 28.4496859097,
			"0.005": 8.79661535861,
			"0.006": 2.12213869046,
			"0.007": 2.17792646821,
			"0.008": 2.61152898663,
			"0.009": 2.14396144843,
			"0.01": 1.68905055687,
			"0.011": 2.02268574133,
			"0.012": 3.29351096655,
			"0.013": 5.40573410804,
			"0.014": 2.20179190946,
			"0.015": 0.0,
			"0.016": 0.0,
			"0.017": 0.0,
			"0.018": 0.0,
			"0.019": 0.0,
			"0.02": 0.0,
			"0.021": 0.0,
			"0.022": 0.0,
			"0.023": 0.0,
			"0.024": 0.0,
			"0.025": 0.0
		}
	}
}
