{
	 "smiles": "CCCN1C(=O)CNC2=C1C=CC=C2", 
	 "Tm": 344.15, 
	 "num_atms": 28, 
	 "gaussian": { 
		 "optdone": 1, 
		 "sigma_profile": "yes", 
		 "theory": "DFT", 
		 "functional": "B3LYP", 
		 "basiset": "6-31G**", 
		 "properties": { 
			 "R2extent": 3161.215, 
			 "electric_dipole_moment_norm": 2.28833102937, 
			 "electric_quadrupole_moment_norm": 10.0304439962, 
			 "total_energy": -612.354511614, 
			 "HOMO_LUMO_gap": 0.19334, 
			 "cosmo_polarized_energy": -10.7, 
			 "cosmo_cavitation_energy": 29.93, 
			 "cosmo_dispersion_energy": -21.78, 
			 "cosmo_repulsion_energy": 1.72, 
			 "cosmo_total_nonelectrostatic_energy": 9.87, 
			 "SMD_solvation_energy": 4.19 
		},
		"coords": [
			{
				"x": -1.2788089788,
				"y": -4.2506000283,
				"z": -0.8794477283,
				"element": "C" 
			},
			{
				"x": -0.6863219788,
				"y": -2.8659960516,
				"z": -0.5998393416,
				"element": "C" 
			},
			{
				"x": -1.3026255751,
				"y": -2.2236929199,
				"z": 0.649281263,
				"element": "C" 
			},
			{
				"x": -0.7659415416,
				"y": -0.887371353,
				"z": 0.9446508586,
				"element": "N" 
			},
			{
				"x": 0.1441117346,
				"y": -0.785414122,
				"z": 1.984055693,
				"element": "C" 
			},
			{
				"x": 0.5336506293,
				"y": -1.7518070174,
				"z": 2.6272684616,
				"element": "O" 
			},
			{
				"x": 0.5938412936,
				"y": 0.634885544,
				"z": 2.3058625093,
				"element": "C" 
			},
			{
				"x": 0.7185179099,
				"y": 1.5087298061,
				"z": 1.148623079,
				"element": "N" 
			},
			{
				"x": -0.3509306295,
				"y": 1.4141016156,
				"z": 0.2243385828,
				"element": "C" 
			},
			{
				"x": -1.1327581567,
				"y": 0.238080705,
				"z": 0.1595209839,
				"element": "C" 
			},
			{
				"x": -2.2213369048,
				"y": 0.199580724,
				"z": -0.7249035637,
				"element": "C" 
			},
			{
				"x": -2.500451457,
				"y": 1.282071207,
				"z": -1.5588705612,
				"element": "C" 
			},
			{
				"x": -1.7043500081,
				"y": 2.4266943085,
				"z": -1.5196960797,
				"element": "C" 
			},
			{
				"x": -0.6448648662,
				"y": 2.4900264993,
				"z": -0.6168929047,
				"element": "C" 
			},
			{
				"x": -1.1176409145,
				"y": -4.9301235163,
				"z": -0.035248073,
				"element": "H" 
			},
			{
				"x": -2.358933914,
				"y": -4.1948449803,
				"z": -1.0585035237,
				"element": "H" 
			},
			{
				"x": -0.8204962091,
				"y": -4.7041397872,
				"z": -1.7634924004,
				"element": "H" 
			},
			{
				"x": -0.8362327982,
				"y": -2.2126952736,
				"z": -1.4672392777,
				"element": "H" 
			},
			{
				"x": 0.3963283286,
				"y": -2.9445804927,
				"z": -0.4467462737,
				"element": "H" 
			},
			{
				"x": -1.079358238,
				"y": -2.8324017599,
				"z": 1.5262399519,
				"element": "H" 
			},
			{
				"x": -2.3923912327,
				"y": -2.1614655576,
				"z": 0.5600011559,
				"element": "H" 
			},
			{
				"x": -0.1368480064,
				"y": 1.065782155,
				"z": 3.0064008748,
				"element": "H" 
			},
			{
				"x": 1.5460756423,
				"y": 0.568278944,
				"z": 2.8333683948,
				"element": "H" 
			},
			{
				"x": 1.6310387086,
				"y": 1.4617881215,
				"z": 0.7085241259,
				"element": "H" 
			},
			{
				"x": -2.8429576808,
				"y": -0.6852176613,
				"z": -0.7869063898,
				"element": "H" 
			},
			{
				"x": -3.3431521716,
				"y": 1.222526407,
				"z": -2.2409921618,
				"element": "H" 
			},
			{
				"x": -1.9174638206,
				"y": 3.2697536263,
				"z": -2.1695302931,
				"element": "H" 
			},
			{
				"x": -0.0299991644,
				"y": 3.3817508579,
				"z": -0.5365273622,
				"element": "H" 
			}
		],
		 "valence_orbital": [ 
			{
				"type": "occ",
				"energy": -0.29657,
				"method": "rhf"
			},
			{
				"type": "occ",
				"energy": -0.29204,
				"method": "rhf"
			},
			{
				"type": "occ",
				"energy": -0.25365,
				"method": "rhf"
			},
			{
				"type": "occ",
				"energy": -0.22691,
				"method": "rhf"
			},
			{
				"type": "occ",
				"energy": -0.20312,
				"method": "rhf"
			},
			{
				"type": "unocc",
				"energy": -0.00978,
				"method": "rhf"
			},
			{
				"type": "unocc",
				"energy": -0.00387,
				"method": "rhf"
			},
			{
				"type": "unocc",
				"energy": 0.03577,
				"method": "rhf"
			},
			{
				"type": "unocc",
				"energy": 0.07933,
				"method": "rhf"
			},
			{
				"type": "unocc",
				"energy": 0.09026,
				"method": "rhf"
			}
		],
		"cosmo_sigma_profile": { 
			"-0.025": 0.0,
			"-0.024": 0.0,
			"-0.023": 0.0,
			"-0.022": 0.0,
			"-0.021": 0.0,
			"-0.02": 0.0,
			"-0.019": 0.0,
			"-0.018": 0.0,
			"-0.017": 0.0,
			"-0.016": 0.0,
			"-0.015": 0.0,
			"-0.014": 0.0,
			"-0.013": 0.451480468044,
			"-0.012": 1.35939734609,
			"-0.011": 1.71630999371,
			"-0.01": 1.23472804573,
			"-0.009": 1.34289172568,
			"-0.008": 1.87564186619,
			"-0.007": 4.33888559449,
			"-0.006": 9.2877618374,
			"-0.005": 14.3599157518,
			"-0.004": 15.3863001962,
			"-0.003": 24.9113219519,
			"-0.002": 22.5554135982,
			"-0.001": 24.9176605957,
			"0.0": 23.9543720381,
			"0.001": 18.8064938805,
			"0.002": 10.6666768371,
			"0.003": 8.89362644246,
			"0.004": 9.26561537242,
			"0.005": 10.5540311787,
			"0.006": 8.30899561121,
			"0.007": 2.50302741956,
			"0.008": 2.02577086419,
			"0.009": 2.56226410132,
			"0.01": 1.87898181037,
			"0.011": 1.59151355326,
			"0.012": 3.40087952609,
			"0.013": 5.01463803892,
			"0.014": 2.51602518582,
			"0.015": 0.196722458815,
			"0.016": 0.0,
			"0.017": 0.0,
			"0.018": 0.0,
			"0.019": 0.0,
			"0.02": 0.0,
			"0.021": 0.0,
			"0.022": 0.0,
			"0.023": 0.0,
			"0.024": 0.0,
			"0.025": 0.0
		}
	}
}
