{
	 "smiles": "CC1=CSC2=C(C#N)C(C)=CC(=O)N12", 
	 "Tm": 452.15, 
	 "num_atms": 22, 
	 "gaussian": { 
		 "optdone": 1, 
		 "sigma_profile": "yes", 
		 "theory": "DFT", 
		 "functional": "B3LYP", 
		 "basiset": "6-31G**", 
		 "properties": { 
			 "R2extent": 3178.0291, 
			 "electric_dipole_moment_norm": 2.8619322948, 
			 "electric_quadrupole_moment_norm": 25.4977512518, 
			 "total_energy": -968.789173277, 
			 "HOMO_LUMO_gap": 0.15605, 
			 "cosmo_polarized_energy": -12.98, 
			 "cosmo_cavitation_energy": 28.29, 
			 "cosmo_dispersion_energy": -20.7, 
			 "cosmo_repulsion_energy": 1.55, 
			 "cosmo_total_nonelectrostatic_energy": 9.13, 
			 "SMD_solvation_energy": 6.61 
		},
		"coords": [
			{
				"x": 3.95472029,
				"y": -0.7249352868,
				"z": 0.6234428656,
				"element": "C" 
			},
			{
				"x": 2.8142177347,
				"y": -0.6682314678,
				"z": -0.3474860372,
				"element": "C" 
			},
			{
				"x": 2.8449878708,
				"y": -1.159300374,
				"z": -1.6038906521,
				"element": "C" 
			},
			{
				"x": 1.3473007914,
				"y": -0.9334622946,
				"z": -2.4817484315,
				"element": "S" 
			},
			{
				"x": 0.6580713651,
				"y": -0.1428009953,
				"z": -1.0872429264,
				"element": "C" 
			},
			{
				"x": -0.627873385,
				"y": 0.3768600175,
				"z": -0.9881173844,
				"element": "C" 
			},
			{
				"x": -1.5080196769,
				"y": 0.2820691476,
				"z": -2.100150916,
				"element": "C" 
			},
			{
				"x": -2.2229109869,
				"y": 0.2005974105,
				"z": -3.0175179459,
				"element": "N" 
			},
			{
				"x": -1.0208649787,
				"y": 0.9947639158,
				"z": 0.2442333139,
				"element": "C" 
			},
			{
				"x": -2.4083210162,
				"y": 1.5641989349,
				"z": 0.3737838427,
				"element": "C" 
			},
			{
				"x": -0.1229396443,
				"y": 1.053185792,
				"z": 1.2785213374,
				"element": "C" 
			},
			{
				"x": 1.2162307848,
				"y": 0.5310466628,
				"z": 1.2258603109,
				"element": "C" 
			},
			{
				"x": 2.0425383304,
				"y": 0.5662996476,
				"z": 2.12748128,
				"element": "O" 
			},
			{
				"x": 1.5571799346,
				"y": -0.0830603048,
				"z": -0.0481805173,
				"element": "N" 
			},
			{
				"x": 4.7957289703,
				"y": -1.2258277402,
				"z": 0.1368797891,
				"element": "H" 
			},
			{
				"x": 4.2634129066,
				"y": 0.2730830198,
				"z": 0.9397187928,
				"element": "H" 
			},
			{
				"x": 3.6848188057,
				"y": -1.2709707237,
				"z": 1.5291772515,
				"element": "H" 
			},
			{
				"x": 3.6811747543,
				"y": -1.6528633644,
				"z": -2.0761813902,
				"element": "H" 
			},
			{
				"x": -2.5839255638,
				"y": 2.3386196389,
				"z": -0.38086163,
				"element": "H" 
			},
			{
				"x": -3.1647796023,
				"y": 0.7886949709,
				"z": 0.2112185104,
				"element": "H" 
			},
			{
				"x": -2.5628103236,
				"y": 1.9998528974,
				"z": 1.3626483574,
				"element": "H" 
			},
			{
				"x": -0.3903373609,
				"y": 1.5137804959,
				"z": 2.2222121792,
				"element": "H" 
			}
		],
		 "valence_orbital": [ 
			{
				"type": "occ",
				"energy": -0.31957,
				"method": "rhf"
			},
			{
				"type": "occ",
				"energy": -0.3112,
				"method": "rhf"
			},
			{
				"type": "occ",
				"energy": -0.27486,
				"method": "rhf"
			},
			{
				"type": "occ",
				"energy": -0.26997,
				"method": "rhf"
			},
			{
				"type": "occ",
				"energy": -0.21338,
				"method": "rhf"
			},
			{
				"type": "unocc",
				"energy": -0.05733,
				"method": "rhf"
			},
			{
				"type": "unocc",
				"energy": -0.03714,
				"method": "rhf"
			},
			{
				"type": "unocc",
				"energy": -0.01427,
				"method": "rhf"
			},
			{
				"type": "unocc",
				"energy": -0.00141,
				"method": "rhf"
			},
			{
				"type": "unocc",
				"energy": 0.02764,
				"method": "rhf"
			}
		],
		"cosmo_sigma_profile": { 
			"-0.025": 0.0,
			"-0.024": 0.0,
			"-0.023": 0.0,
			"-0.022": 0.0,
			"-0.021": 0.0,
			"-0.02": 0.0,
			"-0.019": 0.0,
			"-0.018": 0.0,
			"-0.017": 0.0,
			"-0.016": 0.0,
			"-0.015": 0.0,
			"-0.014": 0.0,
			"-0.013": 0.0,
			"-0.012": 0.0,
			"-0.011": 0.399483462725,
			"-0.01": 2.7104719008,
			"-0.009": 2.16015092621,
			"-0.008": 2.61399132018,
			"-0.007": 4.31417263889,
			"-0.006": 8.56617281356,
			"-0.005": 13.8133048982,
			"-0.004": 19.5172967048,
			"-0.003": 24.0078420241,
			"-0.002": 25.9245804193,
			"-0.001": 29.6741902889,
			"0.0": 20.2977408981,
			"0.001": 15.3043828199,
			"0.002": 11.5659039197,
			"0.003": 4.40710999005,
			"0.004": 3.3199709095,
			"0.005": 3.7733632094,
			"0.006": 3.77527543178,
			"0.007": 3.974954189,
			"0.008": 4.30825694046,
			"0.009": 4.41147336934,
			"0.01": 4.62264122949,
			"0.011": 4.53770652729,
			"0.012": 5.22907649265,
			"0.013": 4.79143990168,
			"0.014": 1.52685671501,
			"0.015": 0.0,
			"0.016": 0.0,
			"0.017": 0.0,
			"0.018": 0.0,
			"0.019": 0.0,
			"0.02": 0.0,
			"0.021": 0.0,
			"0.022": 0.0,
			"0.023": 0.0,
			"0.024": 0.0,
			"0.025": 0.0
		}
	}
}
