{
	 "smiles": "NC(=O)CNS(=O)(=O)C1=CC(C(O)=O)=C(Br)C=C1", 
	 "Tm": 500.15, 
	 "num_atms": 27, 
	 "gaussian": { 
		 "optdone": 1, 
		 "sigma_profile": "yes", 
		 "theory": "DFT", 
		 "functional": "B3LYP", 
		 "basiset": "6-31G**", 
		 "properties": { 
			 "R2extent": 8575.7467, 
			 "electric_dipole_moment_norm": 5.45530046194, 
			 "electric_quadrupole_moment_norm": 21.2064697781, 
			 "total_energy": -3803.54157178, 
			 "HOMO_LUMO_gap": 0.16488, 
			 "cosmo_polarized_energy": -25.67, 
			 "cosmo_cavitation_energy": 35.77, 
			 "cosmo_dispersion_energy": -26.41, 
			 "cosmo_repulsion_energy": 2.01, 
			 "cosmo_total_nonelectrostatic_energy": 11.36, 
			 "SMD_solvation_energy": 6.11 
		},
		"coords": [
			{
				"x": 1.7923391722,
				"y": -2.1565522622,
				"z": 3.5251403227,
				"element": "N" 
			},
			{
				"x": 2.6749024724,
				"y": -1.2649056709,
				"z": 2.9998351331,
				"element": "C" 
			},
			{
				"x": 3.831087252,
				"y": -1.1385284723,
				"z": 3.3756273988,
				"element": "O" 
			},
			{
				"x": 2.1387403964,
				"y": -0.3734686322,
				"z": 1.8600751859,
				"element": "C" 
			},
			{
				"x": 0.8108181981,
				"y": 0.2208154081,
				"z": 2.0493287518,
				"element": "N" 
			},
			{
				"x": -0.5860809651,
				"y": -0.5399657975,
				"z": 1.5498978393,
				"element": "S" 
			},
			{
				"x": -0.4022197572,
				"y": -2.0039332469,
				"z": 1.5405347442,
				"element": "O" 
			},
			{
				"x": -1.665603952,
				"y": 0.0783059478,
				"z": 2.3190037831,
				"element": "O" 
			},
			{
				"x": -0.7249954577,
				"y": -0.0593005863,
				"z": -0.1763704909,
				"element": "C" 
			},
			{
				"x": -0.70513176,
				"y": 1.2868046929,
				"z": -0.5188786001,
				"element": "C" 
			},
			{
				"x": -0.8739671009,
				"y": 1.7043715312,
				"z": -1.848577156,
				"element": "C" 
			},
			{
				"x": -0.8052169628,
				"y": 3.2172130351,
				"z": -2.0200581683,
				"element": "C" 
			},
			{
				"x": -1.1852033746,
				"y": 3.7746712403,
				"z": -3.1777720896,
				"element": "O" 
			},
			{
				"x": -0.4309851809,
				"y": 3.9136811846,
				"z": -1.1044353245,
				"element": "O" 
			},
			{
				"x": -1.0636784991,
				"y": 0.6960237299,
				"z": -2.812181852,
				"element": "C" 
			},
			{
				"x": -1.2914323755,
				"y": 1.0540957736,
				"z": -4.6881882975,
				"element": "Br" 
			},
			{
				"x": -1.0818683517,
				"y": -0.6571570758,
				"z": -2.4696968278,
				"element": "C" 
			},
			{
				"x": -0.9160451906,
				"y": -1.0450628527,
				"z": -1.143663023,
				"element": "C" 
			},
			{
				"x": 2.1552770973,
				"y": -2.8032161606,
				"z": 4.2099928838,
				"element": "H" 
			},
			{
				"x": 0.92531755,
				"y": -2.3773632736,
				"z": 3.048726733,
				"element": "H" 
			},
			{
				"x": 2.1252690533,
				"y": -0.951985168,
				"z": 0.9304102345,
				"element": "H" 
			},
			{
				"x": 2.8655554227,
				"y": 0.4316572735,
				"z": 1.7344447621,
				"element": "H" 
			},
			{
				"x": 0.6442176825,
				"y": 0.707396383,
				"z": 2.9248951668,
				"element": "H" 
			},
			{
				"x": -0.5424141265,
				"y": 2.0573664046,
				"z": 0.2258304069,
				"element": "H" 
			},
			{
				"x": -1.4448884379,
				"y": 3.1105557429,
				"z": -3.8396666224,
				"element": "H" 
			},
			{
				"x": -1.2242755525,
				"y": -1.4034248263,
				"z": -3.2422574932,
				"element": "H" 
			},
			{
				"x": -0.9286172519,
				"y": -2.091494322,
				"z": -0.8609974008,
				"element": "H" 
			}
		],
		 "valence_orbital": [ 
			{
				"type": "occ",
				"energy": -0.30362,
				"method": "rhf"
			},
			{
				"type": "occ",
				"energy": -0.29228,
				"method": "rhf"
			},
			{
				"type": "occ",
				"energy": -0.28662,
				"method": "rhf"
			},
			{
				"type": "occ",
				"energy": -0.27391,
				"method": "rhf"
			},
			{
				"type": "occ",
				"energy": -0.25049,
				"method": "rhf"
			},
			{
				"type": "unocc",
				"energy": -0.08561,
				"method": "rhf"
			},
			{
				"type": "unocc",
				"energy": -0.06835,
				"method": "rhf"
			},
			{
				"type": "unocc",
				"energy": -0.0432,
				"method": "rhf"
			},
			{
				"type": "unocc",
				"energy": 0.00776,
				"method": "rhf"
			},
			{
				"type": "unocc",
				"energy": 0.01674,
				"method": "rhf"
			}
		],
		"cosmo_sigma_profile": { 
			"-0.025": 0.0,
			"-0.024": 0.0,
			"-0.023": 0.0,
			"-0.022": 0.0,
			"-0.021": 0.0,
			"-0.02": 0.0,
			"-0.019": 0.0,
			"-0.018": 0.0,
			"-0.017": 0.0,
			"-0.016": 0.531139673599,
			"-0.015": 1.234223897,
			"-0.014": 1.60073329108,
			"-0.013": 2.23456154213,
			"-0.012": 1.99993576834,
			"-0.011": 4.24303346149,
			"-0.01": 3.249451787,
			"-0.009": 6.72366792215,
			"-0.008": 12.3826602507,
			"-0.007": 11.5510826528,
			"-0.006": 13.2554084661,
			"-0.005": 16.3400138751,
			"-0.004": 18.7895052142,
			"-0.003": 17.2904378422,
			"-0.002": 22.6413213834,
			"-0.001": 23.8713330892,
			"0.0": 18.692031995,
			"0.001": 13.900697972,
			"0.002": 11.2931980262,
			"0.003": 7.28721281036,
			"0.004": 6.32821011456,
			"0.005": 6.76039905,
			"0.006": 6.17290938608,
			"0.007": 6.2358000353,
			"0.008": 7.45719378896,
			"0.009": 9.75747370086,
			"0.01": 14.5760987687,
			"0.011": 8.26795423679,
			"0.012": 4.77682254514,
			"0.013": 5.54422019617,
			"0.014": 4.06898894095,
			"0.015": 0.379146269635,
			"0.016": 0.0,
			"0.017": 0.0,
			"0.018": 0.0,
			"0.019": 0.0,
			"0.02": 0.0,
			"0.021": 0.0,
			"0.022": 0.0,
			"0.023": 0.0,
			"0.024": 0.0,
			"0.025": 0.0
		}
	}
}
