{
	 "smiles": "CC1=CC(C)=C(C(C)=C1)S(=O)(=O)NC1=CC(=CC=C1)C(F)(F)F", 
	 "Tm": 362.15, 
	 "num_atms": 39, 
	 "gaussian": { 
		 "optdone": 1, 
		 "sigma_profile": "yes", 
		 "theory": "DFT", 
		 "functional": "B3LYP", 
		 "basiset": "6-31G**", 
		 "properties": { 
			 "R2extent": 9735.8002, 
			 "electric_dipole_moment_norm": 4.24224441894, 
			 "electric_quadrupole_moment_norm": 20.4001052554, 
			 "total_energy": -1522.20529161, 
			 "HOMO_LUMO_gap": 0.19648, 
			 "cosmo_polarized_energy": -14.99, 
			 "cosmo_cavitation_energy": 44.2, 
			 "cosmo_dispersion_energy": -30.04, 
			 "cosmo_repulsion_energy": 2.17, 
			 "cosmo_total_nonelectrostatic_energy": 16.33, 
			 "SMD_solvation_energy": 7.88 
		},
		"coords": [
			{
				"x": 1.456801472,
				"y": 2.9701345769,
				"z": -2.12349496,
				"element": "C" 
			},
			{
				"x": 1.022236194,
				"y": 1.5892895908,
				"z": -1.6979878133,
				"element": "C" 
			},
			{
				"x": -0.3281711892,
				"y": 1.2312767415,
				"z": -1.7052373761,
				"element": "C" 
			},
			{
				"x": -0.7664177593,
				"y": -0.0389277647,
				"z": -1.3286122535,
				"element": "C" 
			},
			{
				"x": -2.2586983417,
				"y": -0.2959324303,
				"z": -1.3742154841,
				"element": "C" 
			},
			{
				"x": 0.2043861762,
				"y": -0.9887694596,
				"z": -0.9175478826,
				"element": "C" 
			},
			{
				"x": 1.5833236487,
				"y": -0.6702775611,
				"z": -0.9104362499,
				"element": "C" 
			},
			{
				"x": 2.7150614711,
				"y": -1.602279717,
				"z": -0.5293875395,
				"element": "C" 
			},
			{
				"x": 1.9475203372,
				"y": 0.6266092025,
				"z": -1.3031570274,
				"element": "C" 
			},
			{
				"x": -0.3678696929,
				"y": -2.6501062037,
				"z": -0.4614848261,
				"element": "S" 
			},
			{
				"x": 0.7648089602,
				"y": -3.4335343759,
				"z": 0.0281193915,
				"element": "O" 
			},
			{
				"x": -1.2312894648,
				"y": -3.1767406175,
				"z": -1.5206160396,
				"element": "O" 
			},
			{
				"x": -1.428362439,
				"y": -2.4547642015,
				"z": 0.8549069661,
				"element": "N" 
			},
			{
				"x": -1.0977225573,
				"y": -1.8315864424,
				"z": 2.0811092967,
				"element": "C" 
			},
			{
				"x": -2.0241338265,
				"y": -0.9619134969,
				"z": 2.6708526033,
				"element": "C" 
			},
			{
				"x": -1.7431335811,
				"y": -0.3712744776,
				"z": 3.902778862,
				"element": "C" 
			},
			{
				"x": -0.5313492519,
				"y": -0.6183148688,
				"z": 4.5506738848,
				"element": "C" 
			},
			{
				"x": 0.3880790085,
				"y": -1.4826745826,
				"z": 3.95703032,
				"element": "C" 
			},
			{
				"x": 0.1115963879,
				"y": -2.1023297624,
				"z": 2.7400213956,
				"element": "C" 
			},
			{
				"x": -2.7782934949,
				"y": 0.5042382417,
				"z": 4.5573358425,
				"element": "C" 
			},
			{
				"x": -2.2129710687,
				"y": 1.4799107634,
				"z": 5.30087444,
				"element": "F" 
			},
			{
				"x": -3.5839292349,
				"y": 1.1005405417,
				"z": 3.6485418587,
				"element": "F" 
			},
			{
				"x": -3.5798720562,
				"y": -0.2056032412,
				"z": 5.3843345061,
				"element": "F" 
			},
			{
				"x": 2.5252845557,
				"y": 3.12445293,
				"z": -1.9530380211,
				"element": "H" 
			},
			{
				"x": 1.260762973,
				"y": 3.1326329248,
				"z": -3.1898101456,
				"element": "H" 
			},
			{
				"x": 0.9100090718,
				"y": 3.7443817967,
				"z": -1.5745845718,
				"element": "H" 
			},
			{
				"x": -1.0703558794,
				"y": 1.9614230325,
				"z": -2.0186004582,
				"element": "H" 
			},
			{
				"x": -2.6960718255,
				"y": -0.2648278288,
				"z": -0.3689263396,
				"element": "H" 
			},
			{
				"x": -2.4991031717,
				"y": -1.2596019535,
				"z": -1.8257546664,
				"element": "H" 
			},
			{
				"x": -2.7501527164,
				"y": 0.4883182449,
				"z": -1.954144661,
				"element": "H" 
			},
			{
				"x": 2.7095404602,
				"y": -2.5211238852,
				"z": -1.1180221504,
				"element": "H" 
			},
			{
				"x": 2.656677727,
				"y": -1.9082109876,
				"z": 0.5173978306,
				"element": "H" 
			},
			{
				"x": 3.6684029172,
				"y": -1.0917714554,
				"z": -0.6862456929,
				"element": "H" 
			},
			{
				"x": 3.0037684409,
				"y": 0.8819208353,
				"z": -1.3005227324,
				"element": "H" 
			},
			{
				"x": -2.3775236516,
				"y": -2.3184212012,
				"z": 0.5285927073,
				"element": "H" 
			},
			{
				"x": -2.9629021184,
				"y": -0.7418641792,
				"z": 2.1723958363,
				"element": "H" 
			},
			{
				"x": -0.3148267633,
				"y": -0.1416640428,
				"z": 5.4998912167,
				"element": "H" 
			},
			{
				"x": 1.3293329745,
				"y": -1.6919468715,
				"z": 4.4561065425,
				"element": "H" 
			},
			{
				"x": 0.8116573087,
				"y": -2.8017678141,
				"z": 2.3003633912,
				"element": "H" 
			}
		],
		 "valence_orbital": [ 
			{
				"type": "occ",
				"energy": -0.30588,
				"method": "rhf"
			},
			{
				"type": "occ",
				"energy": -0.27422,
				"method": "rhf"
			},
			{
				"type": "occ",
				"energy": -0.26236,
				"method": "rhf"
			},
			{
				"type": "occ",
				"energy": -0.25614,
				"method": "rhf"
			},
			{
				"type": "occ",
				"energy": -0.24056,
				"method": "rhf"
			},
			{
				"type": "unocc",
				"energy": -0.04408,
				"method": "rhf"
			},
			{
				"type": "unocc",
				"energy": -0.03201,
				"method": "rhf"
			},
			{
				"type": "unocc",
				"energy": -0.0213,
				"method": "rhf"
			},
			{
				"type": "unocc",
				"energy": -0.01689,
				"method": "rhf"
			},
			{
				"type": "unocc",
				"energy": 0.05368,
				"method": "rhf"
			}
		],
		"cosmo_sigma_profile": { 
			"-0.025": 0.0,
			"-0.024": 0.0,
			"-0.023": 0.0,
			"-0.022": 0.0,
			"-0.021": 0.0,
			"-0.02": 0.0,
			"-0.019": 0.0,
			"-0.018": 0.0,
			"-0.017": 0.0,
			"-0.016": 0.059661515868,
			"-0.015": 0.737205312705,
			"-0.014": 1.95837864788,
			"-0.013": 0.985059432412,
			"-0.012": 0.729574823707,
			"-0.011": 1.4361226508,
			"-0.01": 1.5797329447,
			"-0.009": 1.60383338817,
			"-0.008": 1.80188689951,
			"-0.007": 4.67697618693,
			"-0.006": 11.590672089,
			"-0.005": 20.3497056027,
			"-0.004": 23.2945835336,
			"-0.003": 26.2172990935,
			"-0.002": 29.7808322932,
			"-0.001": 33.5464113418,
			"0.0": 30.2448943518,
			"0.001": 27.716975091,
			"0.002": 36.344237528,
			"0.003": 50.7540843557,
			"0.004": 14.0974744645,
			"0.005": 3.95045641029,
			"0.006": 4.49549492106,
			"0.007": 3.30691984622,
			"0.008": 3.50106267798,
			"0.009": 3.8221947704,
			"0.01": 5.73125350705,
			"0.011": 6.46911228504,
			"0.012": 1.40400061251,
			"0.013": 0.0,
			"0.014": 0.0,
			"0.015": 0.0,
			"0.016": 0.0,
			"0.017": 0.0,
			"0.018": 0.0,
			"0.019": 0.0,
			"0.02": 0.0,
			"0.021": 0.0,
			"0.022": 0.0,
			"0.023": 0.0,
			"0.024": 0.0,
			"0.0": 0.0
		}
	}
}
