{
	 "smiles": "ClC1=CC(Cl)=C(C(Cl)=C1)S(Cl)(=O)=O", 
	 "Tm": 319.15, 
	 "num_atms": 15, 
	 "gaussian": { 
		 "optdone": 1, 
		 "sigma_profile": "yes", 
		 "theory": "DFT", 
		 "functional": "B3LYP", 
		 "basiset": "6-31G**", 
		 "properties": { 
			 "R2extent": 4619.9738, 
			 "electric_dipole_moment_norm": 4.33725648192, 
			 "electric_quadrupole_moment_norm": 8.1305903531, 
			 "total_energy": -2619.14630556, 
			 "HOMO_LUMO_gap": 0.18322, 
			 "cosmo_polarized_energy": -8.62, 
			 "cosmo_cavitation_energy": 28.16, 
			 "cosmo_dispersion_energy": -21.62, 
			 "cosmo_repulsion_energy": 1.66, 
			 "cosmo_total_nonelectrostatic_energy": 8.2, 
			 "SMD_solvation_energy": 2.88 
		},
		"coords": [
			{
				"x": -0.9334107806,
				"y": -3.5941763782,
				"z": -1.6307397156,
				"element": "Cl" 
			},
			{
				"x": -0.7911483333,
				"y": -1.9505425913,
				"z": -1.0696798014,
				"element": "C" 
			},
			{
				"x": -1.8246344544,
				"y": -1.3897473341,
				"z": -0.3271990704,
				"element": "C" 
			},
			{
				"x": -1.7054993604,
				"y": -0.0772153157,
				"z": 0.1234227371,
				"element": "C" 
			},
			{
				"x": -3.0759040888,
				"y": 0.5336248726,
				"z": 1.0079409956,
				"element": "Cl" 
			},
			{
				"x": -0.5513974445,
				"y": 0.6939912667,
				"z": -0.1549695745,
				"element": "C" 
			},
			{
				"x": 0.4701495345,
				"y": 0.0988409329,
				"z": -0.9313229238,
				"element": "C" 
			},
			{
				"x": 1.9449120217,
				"y": 0.8912570893,
				"z": -1.4120032327,
				"element": "Cl" 
			},
			{
				"x": 0.3487161268,
				"y": -1.2192733471,
				"z": -1.3777169606,
				"element": "C" 
			},
			{
				"x": -0.4136306827,
				"y": 2.3772118526,
				"z": 0.5205669565,
				"element": "S" 
			},
			{
				"x": -1.8592729139,
				"y": 3.3920968096,
				"z": -0.660069199,
				"element": "Cl" 
			},
			{
				"x": -0.8898258519,
				"y": 2.3670530766,
				"z": 1.8938201924,
				"element": "O" 
			},
			{
				"x": 0.862497227,
				"y": 2.9727141779,
				"z": 0.171391684,
				"element": "O" 
			},
			{
				"x": -2.7177554688,
				"y": -1.9569698613,
				"z": -0.098959016,
				"element": "H" 
			},
			{
				"x": 1.1462044693,
				"y": -1.6576652505,
				"z": -1.9635830715,
				"element": "H" 
			}
		],
		 "valence_orbital": [ 
			{
				"type": "occ",
				"energy": -0.33211,
				"method": "rhf"
			},
			{
				"type": "occ",
				"energy": -0.32277,
				"method": "rhf"
			},
			{
				"type": "occ",
				"energy": -0.31946,
				"method": "rhf"
			},
			{
				"type": "occ",
				"energy": -0.29493,
				"method": "rhf"
			},
			{
				"type": "occ",
				"energy": -0.28592,
				"method": "rhf"
			},
			{
				"type": "unocc",
				"energy": -0.1027,
				"method": "rhf"
			},
			{
				"type": "unocc",
				"energy": -0.07313,
				"method": "rhf"
			},
			{
				"type": "unocc",
				"energy": -0.06528,
				"method": "rhf"
			},
			{
				"type": "unocc",
				"energy": -0.03555,
				"method": "rhf"
			},
			{
				"type": "unocc",
				"energy": 0.01229,
				"method": "rhf"
			}
		],
		"cosmo_sigma_profile": { 
			"-0.025": 0.0,
			"-0.024": 0.0,
			"-0.023": 0.0,
			"-0.022": 0.0,
			"-0.021": 0.0,
			"-0.02": 0.0,
			"-0.019": 0.0,
			"-0.018": 0.0,
			"-0.017": 0.0,
			"-0.016": 0.0,
			"-0.015": 0.0,
			"-0.014": 0.0,
			"-0.013": 0.0,
			"-0.012": 0.0,
			"-0.011": 0.0609761890865,
			"-0.01": 1.95896753946,
			"-0.009": 3.78269040744,
			"-0.008": 3.53842727362,
			"-0.007": 4.24698820248,
			"-0.006": 5.01776238828,
			"-0.005": 7.23658283647,
			"-0.004": 12.557149397,
			"-0.003": 25.3738108176,
			"-0.002": 27.8699839175,
			"-0.001": 16.7530253975,
			"0.0": 15.1747958738,
			"0.001": 22.6814107959,
			"0.002": 30.9662726191,
			"0.003": 26.4083310727,
			"0.004": 4.61380425589,
			"0.005": 4.036791003,
			"0.006": 5.47272959997,
			"0.007": 9.82672907797,
			"0.008": 8.61417297049,
			"0.009": 0.439392278825,
			"0.01": 0.0,
			"0.011": 0.0,
			"0.012": 0.0,
			"0.013": 0.0,
			"0.014": 0.0,
			"0.015": 0.0,
			"0.016": 0.0,
			"0.017": 0.0,
			"0.018": 0.0,
			"0.019": 0.0,
			"0.02": 0.0,
			"0.021": 0.0,
			"0.022": 0.0,
			"0.023": 0.0,
			"0.024": 0.0,
			"0.025": 0.0
		}
	}
}
