{
	 "smiles": "[O-][N+](=O)C1=CC=CC=C1SCl", 
	 "Tm": 347.15, 
	 "num_atms": 15, 
	 "gaussian": { 
		 "optdone": 1, 
		 "sigma_profile": "yes", 
		 "theory": "DFT", 
		 "functional": "B3LYP", 
		 "basiset": "6-31G**", 
		 "properties": { 
			 "R2extent": 3142.9642, 
			 "electric_dipole_moment_norm": 4.54941768032, 
			 "electric_quadrupole_moment_norm": 6.70752173757, 
			 "total_energy": -1294.51740553, 
			 "HOMO_LUMO_gap": 0.13627, 
			 "cosmo_polarized_energy": -7.67, 
			 "cosmo_cavitation_energy": 22.92, 
			 "cosmo_dispersion_energy": -18.13, 
			 "cosmo_repulsion_energy": 1.4, 
			 "cosmo_total_nonelectrostatic_energy": 6.19, 
			 "SMD_solvation_energy": 5.12 
		},
		"coords": [
			{
				"x": 1.0161155615,
				"y": -0.5437190339,
				"z": -3.7342816479,
				"element": "O" 
			},
			{
				"x": 1.5006724748,
				"y": -0.2841018742,
				"z": -2.6391831568,
				"element": "N" 
			},
			{
				"x": 2.7163530937,
				"y": -0.4298062243,
				"z": -2.3689082094,
				"element": "O" 
			},
			{
				"x": 0.6806999134,
				"y": 0.2163774379,
				"z": -1.5710129426,
				"element": "C" 
			},
			{
				"x": -0.685387854,
				"y": 0.4012010989,
				"z": -1.8066691467,
				"element": "C" 
			},
			{
				"x": -1.4856521024,
				"y": 0.882825765,
				"z": -0.7849114653,
				"element": "C" 
			},
			{
				"x": -0.9045877711,
				"y": 1.1719081748,
				"z": 0.4578046464,
				"element": "C" 
			},
			{
				"x": 0.4544165666,
				"y": 0.986436309,
				"z": 0.6867367918,
				"element": "C" 
			},
			{
				"x": 1.2915889049,
				"y": 0.4990773499,
				"z": -0.3310942895,
				"element": "C" 
			},
			{
				"x": 3.0400364988,
				"y": 0.2219577021,
				"z": -0.1546670015,
				"element": "S" 
			},
			{
				"x": 3.3327500029,
				"y": 0.8198427271,
				"z": 1.8726486554,
				"element": "Cl" 
			},
			{
				"x": -1.07446897,
				"y": 0.159342992,
				"z": -2.7882937275,
				"element": "H" 
			},
			{
				"x": -2.5474303627,
				"y": 1.0333484581,
				"z": -0.9465396621,
				"element": "H" 
			},
			{
				"x": -1.5224289543,
				"y": 1.5501026119,
				"z": 1.2667853828,
				"element": "H" 
			},
			{
				"x": 0.8751229979,
				"y": 1.218106506,
				"z": 1.6559857729,
				"element": "H" 
			}
		],
		 "valence_orbital": [ 
			{
				"type": "occ",
				"energy": -0.3223,
				"method": "rhf"
			},
			{
				"type": "occ",
				"energy": -0.30919,
				"method": "rhf"
			},
			{
				"type": "occ",
				"energy": -0.30616,
				"method": "rhf"
			},
			{
				"type": "occ",
				"energy": -0.2976,
				"method": "rhf"
			},
			{
				"type": "occ",
				"energy": -0.24804,
				"method": "rhf"
			},
			{
				"type": "unocc",
				"energy": -0.11177,
				"method": "rhf"
			},
			{
				"type": "unocc",
				"energy": -0.07416,
				"method": "rhf"
			},
			{
				"type": "unocc",
				"energy": -0.04079,
				"method": "rhf"
			},
			{
				"type": "unocc",
				"energy": -0.01661,
				"method": "rhf"
			},
			{
				"type": "unocc",
				"energy": 0.0257,
				"method": "rhf"
			}
		],
		"cosmo_sigma_profile": { 
			"-0.025": 0.0,
			"-0.024": 0.0,
			"-0.023": 0.0,
			"-0.022": 0.0,
			"-0.021": 0.0,
			"-0.02": 0.0,
			"-0.019": 0.0,
			"-0.018": 0.0,
			"-0.017": 0.0,
			"-0.016": 0.0,
			"-0.015": 0.0,
			"-0.014": 0.0,
			"-0.013": 0.0,
			"-0.012": 0.0,
			"-0.011": 0.0,
			"-0.01": 0.0,
			"-0.009": 0.423748912878,
			"-0.008": 6.38686424024,
			"-0.007": 10.4670009147,
			"-0.006": 9.56611275395,
			"-0.005": 8.0524590446,
			"-0.004": 7.60172533337,
			"-0.003": 9.26674874331,
			"-0.002": 13.1855627018,
			"-0.001": 18.0760404611,
			"0.0": 18.2252424268,
			"0.001": 19.7164451537,
			"0.002": 13.4871526085,
			"0.003": 11.2483411916,
			"0.004": 12.0440795727,
			"0.005": 10.859792588,
			"0.006": 8.12626423956,
			"0.007": 6.8313646749,
			"0.008": 3.89604289701,
			"0.009": 1.77133780271,
			"0.01": 0.0311648676134,
			"0.011": 0.0,
			"0.012": 0.0,
			"0.013": 0.0,
			"0.014": 0.0,
			"0.015": 0.0,
			"0.016": 0.0,
			"0.017": 0.0,
			"0.018": 0.0,
			"0.019": 0.0,
			"0.02": 0.0,
			"0.021": 0.0,
			"0.022": 0.0,
			"0.023": 0.0,
			"0.024": 0.0,
			"0.025": 0.0
		}
	}
}
