{
	 "smiles": "NC1=CC(C(=O)NCC2=C(F)C=CC=C2)=C(Cl)C=C1", 
	 "Tm": 369.15, 
	 "num_atms": 31, 
	 "gaussian": { 
		 "optdone": 1, 
		 "sigma_profile": "yes", 
		 "theory": "DFT", 
		 "functional": "B3LYP", 
		 "basiset": "6-31G**", 
		 "properties": { 
			 "R2extent": 7202.1126, 
			 "electric_dipole_moment_norm": 3.97918814081, 
			 "electric_quadrupole_moment_norm": 21.6339984762, 
			 "total_energy": -1285.48980144, 
			 "HOMO_LUMO_gap": 0.18724, 
			 "cosmo_polarized_energy": -17.84, 
			 "cosmo_cavitation_energy": 37.92, 
			 "cosmo_dispersion_energy": -26.19, 
			 "cosmo_repulsion_energy": 2.02, 
			 "cosmo_total_nonelectrostatic_energy": 13.75, 
			 "SMD_solvation_energy": 6.84 
		},
		"coords": [
			{
				"x": -0.6409558585,
				"y": 2.1586208219,
				"z": -3.0048522613,
				"element": "N" 
			},
			{
				"x": 0.51068559,
				"y": 1.6546881057,
				"z": -2.40496724,
				"element": "C" 
			},
			{
				"x": 0.5754902154,
				"y": 0.3187211838,
				"z": -1.9839297057,
				"element": "C" 
			},
			{
				"x": 1.6936779276,
				"y": -0.1904946968,
				"z": -1.3162252265,
				"element": "C" 
			},
			{
				"x": 1.6693890498,
				"y": -1.6662429181,
				"z": -0.9840946541,
				"element": "C" 
			},
			{
				"x": 1.5559396602,
				"y": -2.4988226272,
				"z": -1.8763932876,
				"element": "O" 
			},
			{
				"x": 1.7380674971,
				"y": -2.0345464233,
				"z": 0.3315527256,
				"element": "N" 
			},
			{
				"x": 1.6853724993,
				"y": -1.2052589377,
				"z": 1.5219286933,
				"element": "C" 
			},
			{
				"x": 0.4893919344,
				"y": -1.5065936427,
				"z": 2.4105626682,
				"element": "C" 
			},
			{
				"x": 0.5333975058,
				"y": -1.1614592917,
				"z": 3.7632882382,
				"element": "C" 
			},
			{
				"x": 1.6590924243,
				"y": -0.574699602,
				"z": 4.2386895369,
				"element": "F" 
			},
			{
				"x": -0.5187335323,
				"y": -1.3901857029,
				"z": 4.6392210063,
				"element": "C" 
			},
			{
				"x": -1.6791359264,
				"y": -1.9914060446,
				"z": 4.1482836429,
				"element": "C" 
			},
			{
				"x": -1.7618500518,
				"y": -2.3484696146,
				"z": 2.8017408344,
				"element": "C" 
			},
			{
				"x": -0.6856748416,
				"y": -2.1062925699,
				"z": 1.9449106053,
				"element": "C" 
			},
			{
				"x": 2.7905885526,
				"y": 0.6544128733,
				"z": -1.10094373,
				"element": "C" 
			},
			{
				"x": 4.2710586598,
				"y": 0.0614947707,
				"z": -0.3490324494,
				"element": "Cl" 
			},
			{
				"x": 2.7494176173,
				"y": 1.9839449723,
				"z": -1.5231782607,
				"element": "C" 
			},
			{
				"x": 1.6196226268,
				"y": 2.483872088,
				"z": -2.159527179,
				"element": "C" 
			},
			{
				"x": -1.2367754721,
				"y": 1.4708213971,
				"z": -3.4444452154,
				"element": "H" 
			},
			{
				"x": -0.5061989086,
				"y": 2.9727092627,
				"z": -3.5880716418,
				"element": "H" 
			},
			{
				"x": -0.2550063681,
				"y": -0.3523205217,
				"z": -2.183773274,
				"element": "H" 
			},
			{
				"x": 1.7384149408,
				"y": -3.0395404145,
				"z": 0.4580831961,
				"element": "H" 
			},
			{
				"x": 1.6541458247,
				"y": -0.1596452509,
				"z": 1.2036219755,
				"element": "H" 
			},
			{
				"x": 2.6068069428,
				"y": -1.3161122182,
				"z": 2.1034630743,
				"element": "H" 
			},
			{
				"x": -0.4157800343,
				"y": -1.0995090993,
				"z": 5.6791491494,
				"element": "H" 
			},
			{
				"x": -2.5122354287,
				"y": -2.1789184934,
				"z": 4.8187929286,
				"element": "H" 
			},
			{
				"x": -2.6623743743,
				"y": -2.8165822639,
				"z": 2.4163725945,
				"element": "H" 
			},
			{
				"x": -0.7492864093,
				"y": -2.3888023979,
				"z": 0.8985753237,
				"element": "H" 
			},
			{
				"x": 3.6099832227,
				"y": 2.6231586355,
				"z": -1.3585717867,
				"element": "H" 
			},
			{
				"x": 1.5977645146,
				"y": 3.5234586202,
				"z": -2.475530281,
				"element": "H" 
			}
		],
		 "valence_orbital": [ 
			{
				"type": "occ",
				"energy": -0.26256,
				"method": "rhf"
			},
			{
				"type": "occ",
				"energy": -0.25127,
				"method": "rhf"
			},
			{
				"type": "occ",
				"energy": -0.24402,
				"method": "rhf"
			},
			{
				"type": "occ",
				"energy": -0.24197,
				"method": "rhf"
			},
			{
				"type": "occ",
				"energy": -0.21147,
				"method": "rhf"
			},
			{
				"type": "unocc",
				"energy": -0.02423,
				"method": "rhf"
			},
			{
				"type": "unocc",
				"energy": -0.01314,
				"method": "rhf"
			},
			{
				"type": "unocc",
				"energy": -0.00491,
				"method": "rhf"
			},
			{
				"type": "unocc",
				"energy": -0.00026,
				"method": "rhf"
			},
			{
				"type": "unocc",
				"energy": 0.02952,
				"method": "rhf"
			}
		],
		"cosmo_sigma_profile": { 
			"-0.025": 0.0,
			"-0.024": 0.0,
			"-0.023": 0.0,
			"-0.022": 0.0,
			"-0.021": 0.0,
			"-0.02": 0.0,
			"-0.019": 0.0,
			"-0.018": 0.0,
			"-0.017": 0.0,
			"-0.016": 0.0,
			"-0.015": 0.0,
			"-0.014": 0.488302703904,
			"-0.013": 2.43374634096,
			"-0.012": 3.99974782946,
			"-0.011": 4.42700665311,
			"-0.01": 4.19165429348,
			"-0.009": 4.16094033181,
			"-0.008": 4.59339003064,
			"-0.007": 9.14066229483,
			"-0.006": 13.5107856615,
			"-0.005": 17.695022963,
			"-0.004": 20.1848767529,
			"-0.003": 17.68695055,
			"-0.002": 16.5740982762,
			"-0.001": 17.2541477705,
			"0.0": 16.5948850423,
			"0.001": 23.3045226911,
			"0.002": 23.5310778294,
			"0.003": 24.9342227045,
			"0.004": 35.8374463884,
			"0.005": 17.1248962744,
			"0.006": 2.66840496759,
			"0.007": 1.98292152736,
			"0.008": 2.60425656484,
			"0.009": 1.89629010286,
			"0.01": 2.62704592197,
			"0.011": 1.80354880485,
			"0.012": 3.02299919822,
			"0.013": 5.67110743214,
			"0.014": 4.24858953382,
			"0.015": 0.455638753964,
			"0.016": 0.0,
			"0.017": 0.0,
			"0.018": 0.0,
			"0.019": 0.0,
			"0.02": 0.0,
			"0.021": 0.0,
			"0.022": 0.0,
			"0.023": 0.0,
			"0.024": 0.0,
			"0.025": 0.0
		}
	}
}
