{
	 "smiles": "COC1=CC=C(C=C2C3=C(CCCC3)OC3=C2CCCC3)C=C1", 
	 "Tm": 397.15, 
	 "num_atms": 47, 
	 "gaussian": { 
		 "optdone": 1, 
		 "sigma_profile": "yes", 
		 "theory": "DFT", 
		 "functional": "B3LYP", 
		 "basiset": "6-31G**", 
		 "properties": { 
			 "R2extent": 9969.2896, 
			 "electric_dipole_moment_norm": 1.17136253568, 
			 "electric_quadrupole_moment_norm": 13.2135826856, 
			 "total_energy": -965.131135624, 
			 "HOMO_LUMO_gap": 0.15004, 
			 "cosmo_polarized_energy": -7.76, 
			 "cosmo_cavitation_energy": 45.85, 
			 "cosmo_dispersion_energy": -33.26, 
			 "cosmo_repulsion_energy": 2.56, 
			 "cosmo_total_nonelectrostatic_energy": 15.15, 
			 "SMD_solvation_energy": 6.97 
		},
		"coords": [
			{
				"x": 5.231709841,
				"y": 2.3812465725,
				"z": -4.8978398644,
				"element": "C" 
			},
			{
				"x": 3.8206136879,
				"y": 2.2776329869,
				"z": -4.8261018316,
				"element": "O" 
			},
			{
				"x": 3.2793249854,
				"y": 1.5549132577,
				"z": -3.7982539937,
				"element": "C" 
			},
			{
				"x": 1.8801448529,
				"y": 1.4660394521,
				"z": -3.7828444439,
				"element": "C" 
			},
			{
				"x": 1.234209561,
				"y": 0.7550669446,
				"z": -2.7799948931,
				"element": "C" 
			},
			{
				"x": 1.9496618628,
				"y": 0.118783678,
				"z": -1.7432606317,
				"element": "C" 
			},
			{
				"x": 1.2908168169,
				"y": -0.7124524086,
				"z": -0.7207086627,
				"element": "C" 
			},
			{
				"x": 0.1810724642,
				"y": -0.4820206392,
				"z": 0.0467761685,
				"element": "C" 
			},
			{
				"x": -0.4365273157,
				"y": -1.6018568722,
				"z": 0.7886170914,
				"element": "C" 
			},
			{
				"x": -1.5848825792,
				"y": -1.4148482391,
				"z": 1.4741514992,
				"element": "C" 
			},
			{
				"x": -2.3310274846,
				"y": -2.4504611642,
				"z": 2.2679118811,
				"element": "C" 
			},
			{
				"x": -1.4577070178,
				"y": -3.6766000786,
				"z": 2.5528970201,
				"element": "C" 
			},
			{
				"x": -0.7306885999,
				"y": -4.1007244575,
				"z": 1.27477585,
				"element": "C" 
			},
			{
				"x": 0.1860758104,
				"y": -2.9846381843,
				"z": 0.7512585499,
				"element": "C" 
			},
			{
				"x": -2.2322798042,
				"y": -0.2068585942,
				"z": 1.5201054007,
				"element": "O" 
			},
			{
				"x": -1.6164387943,
				"y": 0.8933747767,
				"z": 0.9828771534,
				"element": "C" 
			},
			{
				"x": -0.457652909,
				"y": 0.8288586127,
				"z": 0.2852850695,
				"element": "C" 
			},
			{
				"x": 0.2220515871,
				"y": 2.130842326,
				"z": -0.1073082523,
				"element": "C" 
			},
			{
				"x": -0.2979267631,
				"y": 3.3462709289,
				"z": 0.6713249203,
				"element": "C" 
			},
			{
				"x": -1.8277243949,
				"y": 3.3836076604,
				"z": 0.6433739838,
				"element": "C" 
			},
			{
				"x": -2.3849823562,
				"y": 2.1360321829,
				"z": 1.3364730287,
				"element": "C" 
			},
			{
				"x": 3.3511898596,
				"y": 0.196637513,
				"z": -1.8003812122,
				"element": "C" 
			},
			{
				"x": 4.0174859338,
				"y": 0.906365599,
				"z": -2.8011965239,
				"element": "C" 
			},
			{
				"x": 5.7069892495,
				"y": 1.3981078525,
				"z": -5.014062328,
				"element": "H" 
			},
			{
				"x": 5.6496760921,
				"y": 2.8749784548,
				"z": -4.010414565,
				"element": "H" 
			},
			{
				"x": 5.4468655915,
				"y": 2.9884710332,
				"z": -5.7788645898,
				"element": "H" 
			},
			{
				"x": 1.3223130563,
				"y": 1.9480318898,
				"z": -4.5796519017,
				"element": "H" 
			},
			{
				"x": 0.1527809927,
				"y": 0.6604242354,
				"z": -2.8083484489,
				"element": "H" 
			},
			{
				"x": 1.7556469853,
				"y": -1.6881181782,
				"z": -0.6133644752,
				"element": "H" 
			},
			{
				"x": -2.6822470798,
				"y": -1.9859371745,
				"z": 3.1970852588,
				"element": "H" 
			},
			{
				"x": -3.2364054598,
				"y": -2.7458313241,
				"z": 1.717321544,
				"element": "H" 
			},
			{
				"x": -0.7219168363,
				"y": -3.4297349577,
				"z": 3.3292958465,
				"element": "H" 
			},
			{
				"x": -2.0731965754,
				"y": -4.4936279047,
				"z": 2.945221293,
				"element": "H" 
			},
			{
				"x": -0.1422896461,
				"y": -5.0095530718,
				"z": 1.4435776524,
				"element": "H" 
			},
			{
				"x": -1.4761193444,
				"y": -4.3478030827,
				"z": 0.5070320731,
				"element": "H" 
			},
			{
				"x": 1.126377172,
				"y": -2.9714962014,
				"z": 1.3228369241,
				"element": "H" 
			},
			{
				"x": 0.4722605276,
				"y": -3.2176525589,
				"z": -0.2809633873,
				"element": "H" 
			},
			{
				"x": 0.1045325027,
				"y": 2.3206772181,
				"z": -1.1803073764,
				"element": "H" 
			},
			{
				"x": 1.3003510104,
				"y": 2.018331166,
				"z": 0.0467300807,
				"element": "H" 
			},
			{
				"x": 0.0451824541,
				"y": 3.2976816951,
				"z": 1.713752472,
				"element": "H" 
			},
			{
				"x": 0.1220619858,
				"y": 4.2626314553,
				"z": 0.2415908381,
				"element": "H" 
			},
			{
				"x": -2.1696556962,
				"y": 3.412680058,
				"z": -0.3993938859,
				"element": "H" 
			},
			{
				"x": -2.2161840314,
				"y": 4.2850388169,
				"z": 1.1297402267,
				"element": "H" 
			},
			{
				"x": -3.4413669492,
				"y": 1.975769276,
				"z": 1.0858228319,
				"element": "H" 
			},
			{
				"x": -2.3542829998,
				"y": 2.2590498432,
				"z": 2.4289790043,
				"element": "H" 
			},
			{
				"x": 3.9379152105,
				"y": -0.303516559,
				"z": -1.0337741229,
				"element": "H" 
			},
			{
				"x": 5.1006925435,
				"y": 0.9449861654,
				"z": -2.7931782719,
				"element": "H" 
			}
		],
		 "valence_orbital": [ 
			{
				"type": "occ",
				"energy": -0.28536,
				"method": "rhf"
			},
			{
				"type": "occ",
				"energy": -0.24149,
				"method": "rhf"
			},
			{
				"type": "occ",
				"energy": -0.2361,
				"method": "rhf"
			},
			{
				"type": "occ",
				"energy": -0.21684,
				"method": "rhf"
			},
			{
				"type": "occ",
				"energy": -0.1659,
				"method": "rhf"
			},
			{
				"type": "unocc",
				"energy": -0.01586,
				"method": "rhf"
			},
			{
				"type": "unocc",
				"energy": 0.00916,
				"method": "rhf"
			},
			{
				"type": "unocc",
				"energy": 0.01827,
				"method": "rhf"
			},
			{
				"type": "unocc",
				"energy": 0.04079,
				"method": "rhf"
			},
			{
				"type": "unocc",
				"energy": 0.09029,
				"method": "rhf"
			}
		],
		"cosmo_sigma_profile": { 
			"-0.025": 0.0,
			"-0.024": 0.0,
			"-0.023": 0.0,
			"-0.022": 0.0,
			"-0.021": 0.0,
			"-0.02": 0.0,
			"-0.019": 0.0,
			"-0.018": 0.0,
			"-0.017": 0.0,
			"-0.016": 0.0,
			"-0.015": 0.0,
			"-0.014": 0.0,
			"-0.013": 0.0,
			"-0.012": 0.0,
			"-0.011": 0.0,
			"-0.01": 0.0,
			"-0.009": 0.0,
			"-0.008": 0.0,
			"-0.007": 0.0228894117701,
			"-0.006": 3.44848835269,
			"-0.005": 13.6385555536,
			"-0.004": 23.0180851811,
			"-0.003": 41.8481328513,
			"-0.002": 54.8599469728,
			"-0.001": 53.9474953429,
			"0.0": 41.3678911117,
			"0.001": 26.8342360895,
			"0.002": 17.8970533658,
			"0.003": 18.8970201367,
			"0.004": 20.1222329804,
			"0.005": 17.227656461,
			"0.006": 14.5229255085,
			"0.007": 5.14775268234,
			"0.008": 2.28871624223,
			"0.009": 1.77522552972,
			"0.01": 1.43840973034,
			"0.011": 1.08976221941,
			"0.012": 0.0,
			"0.013": 0.0,
			"0.014": 0.0,
			"0.015": 0.0,
			"0.016": 0.0,
			"0.017": 0.0,
			"0.018": 0.0,
			"0.019": 0.0,
			"0.02": 0.0,
			"0.021": 0.0,
			"0.022": 0.0,
			"0.023": 0.0,
			"0.024": 0.0,
			"0.025": 0.0
		}
	}
}
