{
	 "smiles": "CC(C)(C)C1=CC(=C(N=O)C(=C1)C(C)(C)C)C(C)(C)C", 
	 "Tm": 445.15, 
	 "num_atms": 49, 
	 "gaussian": { 
		 "optdone": 1, 
		 "sigma_profile": "yes", 
		 "theory": "DFT", 
		 "functional": "B3LYP", 
		 "basiset": "6-31G**", 
		 "properties": { 
			 "R2extent": 6295.6233, 
			 "electric_dipole_moment_norm": 3.89766804769, 
			 "electric_quadrupole_moment_norm": 5.6963492414, 
			 "total_energy": -833.307109717, 
			 "HOMO_LUMO_gap": 0.10967, 
			 "cosmo_polarized_energy": -6.19, 
			 "cosmo_cavitation_energy": 45.32, 
			 "cosmo_dispersion_energy": -30.03, 
			 "cosmo_repulsion_energy": 2.29, 
			 "cosmo_total_nonelectrostatic_energy": 17.57, 
			 "SMD_solvation_energy": 8.73 
		},
		"coords": [
			{
				"x": -1.7297497859,
				"y": 1.4271680487,
				"z": -3.2724813341,
				"element": "C" 
			},
			{
				"x": -1.2904472924,
				"y": 2.1528952562,
				"z": -1.9771623281,
				"element": "C" 
			},
			{
				"x": -0.4872589875,
				"y": 3.405030239,
				"z": -2.3781167195,
				"element": "C" 
			},
			{
				"x": -2.5446818317,
				"y": 2.6154046421,
				"z": -1.1960497881,
				"element": "C" 
			},
			{
				"x": -0.4761833802,
				"y": 1.1843626539,
				"z": -1.1015392461,
				"element": "C" 
			},
			{
				"x": 0.8505871675,
				"y": 1.4236956298,
				"z": -0.748720384,
				"element": "C" 
			},
			{
				"x": 1.5842312611,
				"y": 0.5449370572,
				"z": 0.0543352832,
				"element": "C" 
			},
			{
				"x": 0.9207416251,
				"y": -0.627384144,
				"z": 0.5479991959,
				"element": "C" 
			},
			{
				"x": 1.7728829719,
				"y": -1.3610862057,
				"z": 1.4213795501,
				"element": "N" 
			},
			{
				"x": 1.3083326078,
				"y": -2.2769795407,
				"z": 2.0934692087,
				"element": "O" 
			},
			{
				"x": -0.4364270677,
				"y": -0.9387754743,
				"z": 0.1656949335,
				"element": "C" 
			},
			{
				"x": -1.072371595,
				"y": -0.0001972931,
				"z": -0.6460420046,
				"element": "C" 
			},
			{
				"x": -1.2376767882,
				"y": -2.2207989954,
				"z": 0.5396348324,
				"element": "C" 
			},
			{
				"x": -0.4565538917,
				"y": -3.5008066017,
				"z": 0.1477395388,
				"element": "C" 
			},
			{
				"x": -1.6246679789,
				"y": -2.2033516757,
				"z": 2.0405411191,
				"element": "C" 
			},
			{
				"x": -2.5764380514,
				"y": -2.3145395059,
				"z": -0.2365229842,
				"element": "C" 
			},
			{
				"x": 3.0679308398,
				"y": 0.896271114,
				"z": 0.3765307546,
				"element": "C" 
			},
			{
				"x": 3.2701002783,
				"y": 1.1330048984,
				"z": 1.8949994878,
				"element": "C" 
			},
			{
				"x": 3.5128076142,
				"y": 2.2004150974,
				"z": -0.3281034953,
				"element": "C" 
			},
			{
				"x": 4.0195039896,
				"y": -0.2169668745,
				"z": -0.1321706283,
				"element": "C" 
			},
			{
				"x": -2.3126775514,
				"y": 2.1057602662,
				"z": -3.9049761741,
				"element": "H" 
			},
			{
				"x": -0.8608300663,
				"y": 1.0903345589,
				"z": -3.8471823728,
				"element": "H" 
			},
			{
				"x": -2.351729778,
				"y": 0.5524393959,
				"z": -3.0622448992,
				"element": "H" 
			},
			{
				"x": -0.1629937525,
				"y": 3.9798986123,
				"z": -1.5045505452,
				"element": "H" 
			},
			{
				"x": 0.3978949296,
				"y": 3.151931626,
				"z": -2.9707094801,
				"element": "H" 
			},
			{
				"x": -1.1143644842,
				"y": 4.0614972195,
				"z": -2.9896099177,
				"element": "H" 
			},
			{
				"x": -3.1891209732,
				"y": 1.775970071,
				"z": -0.9199770846,
				"element": "H" 
			},
			{
				"x": -3.1378648573,
				"y": 3.3026226851,
				"z": -1.8093577034,
				"element": "H" 
			},
			{
				"x": -2.2634150247,
				"y": 3.1383233943,
				"z": -0.2761714071,
				"element": "H" 
			},
			{
				"x": 1.3258006896,
				"y": 2.3203003347,
				"z": -1.1112132228,
				"element": "H" 
			},
			{
				"x": -2.0897122577,
				"y": -0.1898956545,
				"z": -0.9528288547,
				"element": "H" 
			},
			{
				"x": -0.2891057616,
				"y": -3.5240169244,
				"z": -0.9348063076,
				"element": "H" 
			},
			{
				"x": 0.5025676843,
				"y": -3.5921254211,
				"z": 0.650595599,
				"element": "H" 
			},
			{
				"x": -1.0519861813,
				"y": -4.3820832099,
				"z": 0.4106231937,
				"element": "H" 
			},
			{
				"x": -2.1900138472,
				"y": -3.110685479,
				"z": 2.2828768911,
				"element": "H" 
			},
			{
				"x": -2.2686535024,
				"y": -1.3426239255,
				"z": 2.2528667665,
				"element": "H" 
			},
			{
				"x": -0.7551270487,
				"y": -2.1604090214,
				"z": 2.6913808906,
				"element": "H" 
			},
			{
				"x": -3.2770728454,
				"y": -1.5155045768,
				"z": 0.0257542423,
				"element": "H" 
			},
			{
				"x": -2.432927081,
				"y": -2.312818059,
				"z": -1.3220578361,
				"element": "H" 
			},
			{
				"x": -3.06041833,
				"y": -3.2595505485,
				"z": 0.0275113822,
				"element": "H" 
			},
			{
				"x": 3.0977297659,
				"y": 0.2249869949,
				"z": 2.4714236885,
				"element": "H" 
			},
			{
				"x": 2.5921331483,
				"y": 1.9127536238,
				"z": 2.2599647896,
				"element": "H" 
			},
			{
				"x": 4.2961687109,
				"y": 1.4706579988,
				"z": 2.0804566954,
				"element": "H" 
			},
			{
				"x": 4.5633401341,
				"y": 2.3857281386,
				"z": -0.0855004583,
				"element": "H" 
			},
			{
				"x": 3.4384786307,
				"y": 2.1340952627,
				"z": -1.4185156134,
				"element": "H" 
			},
			{
				"x": 2.9451954895,
				"y": 3.0744690099,
				"z": 0.007782633,
				"element": "H" 
			},
			{
				"x": 5.0593918216,
				"y": 0.0855059199,
				"z": 0.0356846971,
				"element": "H" 
			},
			{
				"x": 3.8889947518,
				"y": -0.3758751429,
				"z": -1.2085221155,
				"element": "H" 
			},
			{
				"x": 3.8466558824,
				"y": -1.1601854749,
				"z": 0.3835875321,
				"element": "H" 
			}
		],
		 "valence_orbital": [ 
			{
				"type": "occ",
				"energy": -0.30844,
				"method": "rhf"
			},
			{
				"type": "occ",
				"energy": -0.30731,
				"method": "rhf"
			},
			{
				"type": "occ",
				"energy": -0.2517,
				"method": "rhf"
			},
			{
				"type": "occ",
				"energy": -0.24912,
				"method": "rhf"
			},
			{
				"type": "occ",
				"energy": -0.19978,
				"method": "rhf"
			},
			{
				"type": "unocc",
				"energy": -0.09011,
				"method": "rhf"
			},
			{
				"type": "unocc",
				"energy": -0.00815,
				"method": "rhf"
			},
			{
				"type": "unocc",
				"energy": 0.01794,
				"method": "rhf"
			},
			{
				"type": "unocc",
				"energy": 0.07035,
				"method": "rhf"
			},
			{
				"type": "unocc",
				"energy": 0.09339,
				"method": "rhf"
			}
		],
		"cosmo_sigma_profile": { 
			"-0.025": 0.0,
			"-0.024": 0.0,
			"-0.023": 0.0,
			"-0.022": 0.0,
			"-0.021": 0.0,
			"-0.02": 0.0,
			"-0.019": 0.0,
			"-0.018": 0.0,
			"-0.017": 0.0,
			"-0.016": 0.0,
			"-0.015": 0.0,
			"-0.014": 0.0,
			"-0.013": 0.0,
			"-0.012": 0.0,
			"-0.011": 0.0,
			"-0.01": 0.0,
			"-0.009": 0.0,
			"-0.008": 0.0,
			"-0.007": 0.0,
			"-0.006": 0.756279948911,
			"-0.005": 3.28293862501,
			"-0.004": 7.73535284026,
			"-0.003": 44.7933617997,
			"-0.002": 54.4828369774,
			"-0.001": 45.0970065394,
			"0.0": 52.7452033144,
			"0.001": 70.4369183634,
			"0.002": 35.5143980116,
			"0.003": 13.8117396438,
			"0.004": 5.68999469517,
			"0.005": 2.80277471244,
			"0.006": 2.51099901997,
			"0.007": 2.21802180489,
			"0.008": 2.15579962215,
			"0.009": 1.99605250033,
			"0.01": 1.65856305616,
			"0.011": 1.66928969533,
			"0.012": 1.25669124308,
			"0.013": 0.164808872695,
			"0.014": 0.0,
			"0.015": 0.0,
			"0.016": 0.0,
			"0.017": 0.0,
			"0.018": 0.0,
			"0.019": 0.0,
			"0.02": 0.0,
			"0.021": 0.0,
			"0.022": 0.0,
			"0.023": 0.0,
			"0.024": 0.0,
			"0.025": 0.0
		}
	}
}
