{
	 "smiles": "CCC1CC(CC(C)(C)N1O)OP(O)(O)=O", 
	 "Tm": 543.15, 
	 "num_atms": 36, 
	 "gaussian": { 
		 "optdone": 1, 
		 "sigma_profile": "yes", 
		 "theory": "DFT", 
		 "functional": "B3LYP", 
		 "basiset": "6-31G**", 
		 "properties": { 
			 "R2extent": 5574.7665, 
			 "electric_dipole_moment_norm": 3.31380086457, 
			 "electric_quadrupole_moment_norm": 22.1896662115, 
			 "total_energy": -1127.27650226, 
			 "HOMO_LUMO_gap": 0.2518, 
			 "cosmo_polarized_energy": -19.89, 
			 "cosmo_cavitation_energy": 37.04, 
			 "cosmo_dispersion_energy": -26.1, 
			 "cosmo_repulsion_energy": 2.04, 
			 "cosmo_total_nonelectrostatic_energy": 12.97, 
			 "SMD_solvation_energy": 8.03 
		},
		"coords": [
			{
				"x": 0.9868539009,
				"y": -1.0887880246,
				"z": 2.6810751465,
				"element": "C" 
			},
			{
				"x": 0.5567959477,
				"y": 0.0776326534,
				"z": 1.7831490823,
				"element": "C" 
			},
			{
				"x": 1.1262895091,
				"y": 0.0869862391,
				"z": 0.3393235899,
				"element": "C" 
			},
			{
				"x": 0.8164757948,
				"y": 1.4136986477,
				"z": -0.3844997747,
				"element": "C" 
			},
			{
				"x": -0.630504571,
				"y": 1.4465081459,
				"z": -0.8672287696,
				"element": "C" 
			},
			{
				"x": -0.9102155767,
				"y": 0.2737923864,
				"z": -1.7973519883,
				"element": "C" 
			},
			{
				"x": -0.5855465513,
				"y": -1.0992156747,
				"z": -1.1606939812,
				"element": "C" 
			},
			{
				"x": -0.5365810738,
				"y": -2.151303133,
				"z": -2.2852160273,
				"element": "C" 
			},
			{
				"x": -1.6699358873,
				"y": -1.5276215294,
				"z": -0.1446332533,
				"element": "C" 
			},
			{
				"x": 0.790089637,
				"y": -0.9966444478,
				"z": -0.6071700248,
				"element": "N" 
			},
			{
				"x": 1.1467211069,
				"y": -2.2607921573,
				"z": -0.013014671,
				"element": "O" 
			},
			{
				"x": -0.8762006754,
				"y": 2.6607756578,
				"z": -1.6432147006,
				"element": "O" 
			},
			{
				"x": -1.2296575102,
				"y": 4.0351394711,
				"z": -0.8945830992,
				"element": "P" 
			},
			{
				"x": -1.4275375597,
				"y": 5.0052381614,
				"z": -2.1616565168,
				"element": "O" 
			},
			{
				"x": -2.720500084,
				"y": 3.7133561131,
				"z": -0.328323472,
				"element": "O" 
			},
			{
				"x": -0.3147896314,
				"y": 4.5764046274,
				"z": 0.1291990083,
				"element": "O" 
			},
			{
				"x": 0.5674243111,
				"y": -2.0392549993,
				"z": 2.3493138251,
				"element": "H" 
			},
			{
				"x": 2.0770722011,
				"y": -1.1984705217,
				"z": 2.6866080632,
				"element": "H" 
			},
			{
				"x": 0.6658863051,
				"y": -0.9076031553,
				"z": 3.7128812756,
				"element": "H" 
			},
			{
				"x": -0.535118379,
				"y": 0.1524234512,
				"z": 1.7778809192,
				"element": "H" 
			},
			{
				"x": 0.9115097864,
				"y": 1.0112055923,
				"z": 2.2404644717,
				"element": "H" 
			},
			{
				"x": 2.2174837094,
				"y": 0.0206254387,
				"z": 0.4456384817,
				"element": "H" 
			},
			{
				"x": 1.0148284009,
				"y": 2.2645656595,
				"z": 0.2722485995,
				"element": "H" 
			},
			{
				"x": 1.4646790359,
				"y": 1.5092910265,
				"z": -1.2623731558,
				"element": "H" 
			},
			{
				"x": -1.3283612913,
				"y": 1.4441784011,
				"z": -0.0233696113,
				"element": "H" 
			},
			{
				"x": -0.2918130469,
				"y": 0.408578421,
				"z": -2.692275716,
				"element": "H" 
			},
			{
				"x": -1.9580706493,
				"y": 0.2851808003,
				"z": -2.1157039237,
				"element": "H" 
			},
			{
				"x": 0.2711606441,
				"y": -1.9214455806,
				"z": -2.9870639397,
				"element": "H" 
			},
			{
				"x": -0.3691954845,
				"y": -3.1494683448,
				"z": -1.873388338,
				"element": "H" 
			},
			{
				"x": -1.4822964311,
				"y": -2.1645592208,
				"z": -2.8363940266,
				"element": "H" 
			},
			{
				"x": -2.5905760181,
				"y": -1.7974184709,
				"z": -0.673004707,
				"element": "H" 
			},
			{
				"x": -1.3300681772,
				"y": -2.4038060597,
				"z": 0.4125509796,
				"element": "H" 
			},
			{
				"x": -1.9234046058,
				"y": -0.7419599605,
				"z": 0.5700795937,
				"element": "H" 
			},
			{
				"x": 1.8511265094,
				"y": -2.5763477901,
				"z": -0.5955766421,
				"element": "H" 
			},
			{
				"x": -1.8706792748,
				"y": 4.5603308382,
				"z": -2.897970354,
				"element": "H" 
			},
			{
				"x": -2.8798443211,
				"y": 4.2318873384,
				"z": 0.4732936568,
				"element": "H" 
			}
		],
		 "valence_orbital": [ 
			{
				"type": "occ",
				"energy": -0.30798,
				"method": "rhf"
			},
			{
				"type": "occ",
				"energy": -0.29539,
				"method": "rhf"
			},
			{
				"type": "occ",
				"energy": -0.28712,
				"method": "rhf"
			},
			{
				"type": "occ",
				"energy": -0.28241,
				"method": "rhf"
			},
			{
				"type": "occ",
				"energy": -0.21672,
				"method": "rhf"
			},
			{
				"type": "unocc",
				"energy": 0.03508,
				"method": "rhf"
			},
			{
				"type": "unocc",
				"energy": 0.06246,
				"method": "rhf"
			},
			{
				"type": "unocc",
				"energy": 0.07027,
				"method": "rhf"
			},
			{
				"type": "unocc",
				"energy": 0.07941,
				"method": "rhf"
			},
			{
				"type": "unocc",
				"energy": 0.09592,
				"method": "rhf"
			}
		],
		"cosmo_sigma_profile": { 
			"-0.025": 0.0,
			"-0.024": 0.0,
			"-0.023": 0.0,
			"-0.022": 0.0,
			"-0.021": 0.0,
			"-0.02": 0.263048123863,
			"-0.019": 1.58913491265,
			"-0.018": 2.47407766019,
			"-0.017": 1.60249883245,
			"-0.016": 0.630913630064,
			"-0.015": 2.62443411338,
			"-0.014": 2.35602059474,
			"-0.013": 2.52030841688,
			"-0.012": 1.31054700956,
			"-0.011": 2.30844406499,
			"-0.01": 2.6462093565,
			"-0.009": 1.68475458654,
			"-0.008": 2.02265548095,
			"-0.007": 3.07852278851,
			"-0.006": 3.91869002357,
			"-0.005": 5.24711478919,
			"-0.004": 10.9969313942,
			"-0.003": 25.2840395749,
			"-0.002": 30.1587551819,
			"-0.001": 30.8331257695,
			"0.0": 29.2334782579,
			"0.001": 29.3890092237,
			"0.002": 20.7998615269,
			"0.003": 10.0368281684,
			"0.004": 6.19559730406,
			"0.005": 5.84687613681,
			"0.006": 8.44270139567,
			"0.007": 6.06604164907,
			"0.008": 7.23749365002,
			"0.009": 6.36094134672,
			"0.01": 5.33315842224,
			"0.011": 3.02541985661,
			"0.012": 1.3157601709,
			"0.013": 2.80094899979,
			"0.014": 6.06969737557,
			"0.015": 1.06718521717,
			"0.016": 0.0,
			"0.017": 0.0,
			"0.018": 0.0,
			"0.019": 0.0,
			"0.02": 0.0,
			"0.021": 0.0,
			"0.022": 0.0,
			"0.023": 0.0,
			"0.024": 0.0,
			"0.025": 0.0
		}
	}
}
