{
	 "smiles": "OC(=O)C1=C2OC(F)(F)OC2=CC=C1", 
	 "Tm": 476.65, 
	 "num_atms": 18, 
	 "gaussian": { 
		 "optdone": 1, 
		 "sigma_profile": "yes", 
		 "theory": "DFT", 
		 "functional": "B3LYP", 
		 "basiset": "6-31G**", 
		 "properties": { 
			 "R2extent": 3437.1012, 
			 "electric_dipole_moment_norm": 1.46852645192, 
			 "electric_quadrupole_moment_norm": 9.63830576243, 
			 "total_energy": -807.842828573, 
			 "HOMO_LUMO_gap": 0.18755, 
			 "cosmo_polarized_energy": -9.83, 
			 "cosmo_cavitation_energy": 24.54, 
			 "cosmo_dispersion_energy": -18.11, 
			 "cosmo_repulsion_energy": 1.38, 
			 "cosmo_total_nonelectrostatic_energy": 7.8, 
			 "SMD_solvation_energy": 6.73 
		},
		"coords": [
			{
				"x": 0.7610154596,
				"y": 2.7390037886,
				"z": -3.1882271487,
				"element": "O" 
			},
			{
				"x": -0.4776470247,
				"y": 2.6448023427,
				"z": -2.6599777838,
				"element": "C" 
			},
			{
				"x": -1.4343901871,
				"y": 3.2422732825,
				"z": -3.1103601167,
				"element": "O" 
			},
			{
				"x": -0.5412899069,
				"y": 1.7439317585,
				"z": -1.4801348569,
				"element": "C" 
			},
			{
				"x": 0.5311763915,
				"y": 1.0457245605,
				"z": -0.9364347359,
				"element": "C" 
			},
			{
				"x": 1.85024413,
				"y": 1.0098202813,
				"z": -1.3259828038,
				"element": "O" 
			},
			{
				"x": 2.5100877044,
				"y": 0.1541733571,
				"z": -0.4434833224,
				"element": "C" 
			},
			{
				"x": 3.0723960045,
				"y": -0.8583879165,
				"z": -1.1199574567,
				"element": "F" 
			},
			{
				"x": 3.5010581128,
				"y": 0.8107012954,
				"z": 0.1778573626,
				"element": "F" 
			},
			{
				"x": 1.5994693291,
				"y": -0.3358910354,
				"z": 0.4875528912,
				"element": "O" 
			},
			{
				"x": 0.3758210681,
				"y": 0.222256963,
				"z": 0.1739787302,
				"element": "C" 
			},
			{
				"x": -0.8335935082,
				"y": 0.0394013908,
				"z": 0.8087628317,
				"element": "C" 
			},
			{
				"x": -1.9304732697,
				"y": 0.738618048,
				"z": 0.2718870646,
				"element": "C" 
			},
			{
				"x": -1.7862086714,
				"y": 1.5641181683,
				"z": -0.8374978965,
				"element": "C" 
			},
			{
				"x": 0.686165246,
				"y": 3.3463406659,
				"z": -3.9431801348,
				"element": "H" 
			},
			{
				"x": -0.9261801373,
				"y": -0.6084946329,
				"z": 1.6726491426,
				"element": "H" 
			},
			{
				"x": -2.9053742163,
				"y": 0.6290779814,
				"z": 0.7348669404,
				"element": "H" 
			},
			{
				"x": -2.6342765243,
				"y": 2.1007297008,
				"z": -1.247518707,
				"element": "H" 
			}
		],
		 "valence_orbital": [ 
			{
				"type": "occ",
				"energy": -0.36059,
				"method": "rhf"
			},
			{
				"type": "occ",
				"energy": -0.32718,
				"method": "rhf"
			},
			{
				"type": "occ",
				"energy": -0.28928,
				"method": "rhf"
			},
			{
				"type": "occ",
				"energy": -0.27574,
				"method": "rhf"
			},
			{
				"type": "occ",
				"energy": -0.25002,
				"method": "rhf"
			},
			{
				"type": "unocc",
				"energy": -0.06247,
				"method": "rhf"
			},
			{
				"type": "unocc",
				"energy": -0.01469,
				"method": "rhf"
			},
			{
				"type": "unocc",
				"energy": 0.04468,
				"method": "rhf"
			},
			{
				"type": "unocc",
				"energy": 0.0685,
				"method": "rhf"
			},
			{
				"type": "unocc",
				"energy": 0.07722,
				"method": "rhf"
			}
		],
		"cosmo_sigma_profile": { 
			"-0.025": 0.0,
			"-0.024": 0.0,
			"-0.023": 0.0,
			"-0.022": 0.0,
			"-0.021": 0.0,
			"-0.02": 0.0,
			"-0.019": 0.332871422826,
			"-0.018": 0.907743005395,
			"-0.017": 1.07319529912,
			"-0.016": 0.850612423958,
			"-0.015": 0.503680162613,
			"-0.014": 0.516495608093,
			"-0.013": 0.292931115902,
			"-0.012": 1.34036645737,
			"-0.011": 0.947808150196,
			"-0.01": 0.778866076495,
			"-0.009": 1.48646470712,
			"-0.008": 3.66528129177,
			"-0.007": 6.34124554501,
			"-0.006": 7.66696496858,
			"-0.005": 6.88770500194,
			"-0.004": 7.97465369178,
			"-0.003": 11.9254393373,
			"-0.002": 12.9089431745,
			"-0.001": 15.7708092141,
			"0.0": 16.0346783766,
			"0.001": 18.7013214837,
			"0.002": 35.0779077796,
			"0.003": 11.9287189624,
			"0.004": 5.26901847613,
			"0.005": 4.59772155009,
			"0.006": 4.0221563659,
			"0.007": 2.98640847451,
			"0.008": 3.23201426849,
			"0.009": 3.83450862903,
			"0.01": 3.4207239328,
			"0.011": 5.04555459381,
			"0.012": 1.67160682591,
			"0.013": 0.0,
			"0.014": 0.0,
			"0.015": 0.0,
			"0.016": 0.0,
			"0.017": 0.0,
			"0.018": 0.0,
			"0.019": 0.0,
			"0.02": 0.0,
			"0.021": 0.0,
			"0.022": 0.0,
			"0.023": 0.0,
			"0.024": 0.0,
			"0.025": 0.0
		}
	}
}
