{
	 "smiles": "SC1=NN=C2C=CC=CN12", 
	 "Tm": 487.15, 
	 "num_atms": 15, 
	 "gaussian": { 
		 "optdone": 1, 
		 "sigma_profile": "yes", 
		 "theory": "DFT", 
		 "functional": "B3LYP", 
		 "basiset": "6-31G**", 
		 "properties": { 
			 "R2extent": 2034.9266, 
			 "electric_dipole_moment_norm": 5.59135730928, 
			 "electric_quadrupole_moment_norm": 15.3470568064, 
			 "total_energy": -794.051657336, 
			 "HOMO_LUMO_gap": 0.17689, 
			 "cosmo_polarized_energy": -15.64, 
			 "cosmo_cavitation_energy": 21.16, 
			 "cosmo_dispersion_energy": -16.52, 
			 "cosmo_repulsion_energy": 1.27, 
			 "cosmo_total_nonelectrostatic_energy": 5.91, 
			 "SMD_solvation_energy": 1.53 
		},
		"coords": [
			{
				"x": 2.5930932602,
				"y": 1.0911674755,
				"z": -2.8805902832,
				"element": "S" 
			},
			{
				"x": 1.5949139304,
				"y": 1.4112332597,
				"z": -1.4647984957,
				"element": "C" 
			},
			{
				"x": 1.547321628,
				"y": 2.5350355197,
				"z": -0.768658322,
				"element": "N" 
			},
			{
				"x": 0.7002678509,
				"y": 2.377863459,
				"z": 0.2808848299,
				"element": "N" 
			},
			{
				"x": 0.231626494,
				"y": 1.1314902142,
				"z": 0.2286152121,
				"element": "C" 
			},
			{
				"x": -0.6731362786,
				"y": 0.4336711464,
				"z": 1.0682902088,
				"element": "C" 
			},
			{
				"x": -0.9813569866,
				"y": -0.8678148958,
				"z": 0.7695204396,
				"element": "C" 
			},
			{
				"x": -0.4004701685,
				"y": -1.510871113,
				"z": -0.3678873799,
				"element": "C" 
			},
			{
				"x": 0.4695707354,
				"y": -0.840095637,
				"z": -1.1758583482,
				"element": "C" 
			},
			{
				"x": 0.7748350653,
				"y": 0.4668436075,
				"z": -0.8705524727,
				"element": "N" 
			},
			{
				"x": 1.7256297918,
				"y": 1.5434171948,
				"z": -3.814003325,
				"element": "H" 
			},
			{
				"x": -1.0911357128,
				"y": 0.9563808156,
				"z": 1.9204095082,
				"element": "H" 
			},
			{
				"x": -1.6709107635,
				"y": -1.4229268244,
				"z": 1.3967851968,
				"element": "H" 
			},
			{
				"x": -0.6455219961,
				"y": -2.5408722981,
				"z": -0.5997612134,
				"element": "H" 
			},
			{
				"x": 0.9549731502,
				"y": -1.253321924,
				"z": -2.0508955552,
				"element": "H" 
			}
		],
		 "valence_orbital": [ 
			{
				"type": "occ",
				"energy": -0.3213,
				"method": "rhf"
			},
			{
				"type": "occ",
				"energy": -0.28096,
				"method": "rhf"
			},
			{
				"type": "occ",
				"energy": -0.27551,
				"method": "rhf"
			},
			{
				"type": "occ",
				"energy": -0.25502,
				"method": "rhf"
			},
			{
				"type": "occ",
				"energy": -0.23175,
				"method": "rhf"
			},
			{
				"type": "unocc",
				"energy": -0.05486,
				"method": "rhf"
			},
			{
				"type": "unocc",
				"energy": -0.0238,
				"method": "rhf"
			},
			{
				"type": "unocc",
				"energy": 0.01291,
				"method": "rhf"
			},
			{
				"type": "unocc",
				"energy": 0.04293,
				"method": "rhf"
			},
			{
				"type": "unocc",
				"energy": 0.06576,
				"method": "rhf"
			}
		],
		"cosmo_sigma_profile": { 
			"-0.025": 0.0,
			"-0.024": 0.0,
			"-0.023": 0.0,
			"-0.022": 0.0,
			"-0.021": 0.0,
			"-0.02": 0.0,
			"-0.019": 0.0,
			"-0.018": 0.0,
			"-0.017": 0.0,
			"-0.016": 0.0,
			"-0.015": 0.0,
			"-0.014": 0.0,
			"-0.013": 0.0,
			"-0.012": 0.478820918881,
			"-0.011": 2.8067342813,
			"-0.01": 1.62457719595,
			"-0.009": 3.03236687706,
			"-0.008": 8.04211482383,
			"-0.007": 11.0555835146,
			"-0.006": 8.85757330438,
			"-0.005": 10.3224250414,
			"-0.004": 11.0966464944,
			"-0.003": 12.3461328021,
			"-0.002": 9.73754370726,
			"-0.001": 10.6154460583,
			"0.0": 12.0016964715,
			"0.001": 13.3874943817,
			"0.002": 12.3437254487,
			"0.003": 6.25826227339,
			"0.004": 4.048641694,
			"0.005": 3.76812306368,
			"0.006": 3.65743672565,
			"0.007": 3.45558763815,
			"0.008": 2.72762030882,
			"0.009": 2.23373825232,
			"0.01": 2.85878921414,
			"0.011": 1.96535259047,
			"0.012": 3.07851571729,
			"0.013": 3.84453689173,
			"0.014": 2.77228376084,
			"0.015": 2.67510039234,
			"0.016": 1.89386484645,
			"0.017": 0.58872781232,
			"0.018": 0.0,
			"0.019": 0.0,
			"0.02": 0.0,
			"0.021": 0.0,
			"0.022": 0.0,
			"0.023": 0.0,
			"0.024": 0.0,
			"0.025": 0.0
		}
	}
}
