{
	 "smiles": "NC(C(O)=O)C1=C(F)C=CC=C1", 
	 "Tm": 503.15, 
	 "num_atms": 20, 
	 "gaussian": { 
		 "optdone": 1, 
		 "sigma_profile": "yes", 
		 "theory": "DFT", 
		 "functional": "B3LYP", 
		 "basiset": "6-31G**", 
		 "properties": { 
			 "R2extent": 2034.414, 
			 "electric_dipole_moment_norm": 2.75086351715, 
			 "electric_quadrupole_moment_norm": 6.87297586275, 
			 "total_energy": -614.712105701, 
			 "HOMO_LUMO_gap": 0.22353, 
			 "cosmo_polarized_energy": -14.22, 
			 "cosmo_cavitation_energy": 24.62, 
			 "cosmo_dispersion_energy": -17.71, 
			 "cosmo_repulsion_energy": 1.43, 
			 "cosmo_total_nonelectrostatic_energy": 8.33, 
			 "SMD_solvation_energy": 4.87 
		},
		"coords": [
			{
				"x": 1.376172569,
				"y": 0.3425770138,
				"z": 1.2800348663,
				"element": "N" 
			},
			{
				"x": 0.2085620626,
				"y": -0.4066284058,
				"z": 0.8285264213,
				"element": "C" 
			},
			{
				"x": -0.940341848,
				"y": -0.1220597064,
				"z": 1.798383268,
				"element": "C" 
			},
			{
				"x": -2.1397348404,
				"y": -0.4809098369,
				"z": 1.2989521881,
				"element": "O" 
			},
			{
				"x": -0.7919136747,
				"y": 0.3031157357,
				"z": 2.9226722058,
				"element": "O" 
			},
			{
				"x": -0.116677639,
				"y": -0.0848649366,
				"z": -0.6189614645,
				"element": "C" 
			},
			{
				"x": -0.6034145703,
				"y": 1.1732095881,
				"z": -0.9831019685,
				"element": "C" 
			},
			{
				"x": -0.869280951,
				"y": 2.0672839728,
				"z": -0.0069313772,
				"element": "F" 
			},
			{
				"x": -0.8530665491,
				"y": 1.5290129692,
				"z": -2.300524381,
				"element": "C" 
			},
			{
				"x": -0.6015338153,
				"y": 0.5951625175,
				"z": -3.3088655386,
				"element": "C" 
			},
			{
				"x": -0.1165599494,
				"y": -0.6713124622,
				"z": -2.983436519,
				"element": "C" 
			},
			{
				"x": 0.1217460594,
				"y": -1.0007990009,
				"z": -1.6465436255,
				"element": "C" 
			},
			{
				"x": 1.3779610964,
				"y": 0.3791236069,
				"z": 2.296000741,
				"element": "H" 
			},
			{
				"x": 2.2296328358,
				"y": -0.1035995261,
				"z": 0.9613751285,
				"element": "H" 
			},
			{
				"x": 0.3296776636,
				"y": -1.5057061751,
				"z": 0.8867400486,
				"element": "H" 
			},
			{
				"x": -2.7892070856,
				"y": -0.3016582787,
				"z": 1.9995849305,
				"element": "H" 
			},
			{
				"x": -1.2382298759,
				"y": 2.5194503752,
				"z": -2.5177098939,
				"element": "H" 
			},
			{
				"x": -0.7902432754,
				"y": 0.860835938,
				"z": -4.3446483829,
				"element": "H" 
			},
			{
				"x": 0.0770633201,
				"y": -1.4003077938,
				"z": -3.7641002055,
				"element": "H" 
			},
			{
				"x": 0.4998884672,
				"y": -1.9880255946,
				"z": -1.3919464418,
				"element": "H" 
			}
		],
		 "valence_orbital": [ 
			{
				"type": "occ",
				"energy": -0.3227,
				"method": "rhf"
			},
			{
				"type": "occ",
				"energy": -0.28748,
				"method": "rhf"
			},
			{
				"type": "occ",
				"energy": -0.25643,
				"method": "rhf"
			},
			{
				"type": "occ",
				"energy": -0.24555,
				"method": "rhf"
			},
			{
				"type": "occ",
				"energy": -0.23513,
				"method": "rhf"
			},
			{
				"type": "unocc",
				"energy": -0.0116,
				"method": "rhf"
			},
			{
				"type": "unocc",
				"energy": 0.0,
				"method": "rhf"
			},
			{
				"type": "unocc",
				"energy": 0.00688,
				"method": "rhf"
			},
			{
				"type": "unocc",
				"energy": 0.07569,
				"method": "rhf"
			},
			{
				"type": "unocc",
				"energy": 0.08783,
				"method": "rhf"
			}
		],
		"cosmo_sigma_profile": { 
			"-0.025": 0.0,
			"-0.024": 0.0,
			"-0.023": 0.0,
			"-0.022": 0.0,
			"-0.021": 0.0,
			"-0.02": 0.0,
			"-0.019": 0.162771229833,
			"-0.018": 0.932743184589,
			"-0.017": 0.946911807598,
			"-0.016": 1.1152673074,
			"-0.015": 0.534411995624,
			"-0.014": 0.549852748978,
			"-0.013": 1.12956289725,
			"-0.012": 0.674004502215,
			"-0.011": 1.14854943467,
			"-0.01": 1.90425242571,
			"-0.009": 2.49698664304,
			"-0.008": 2.70054660012,
			"-0.007": 11.8017856644,
			"-0.006": 14.8507791603,
			"-0.005": 12.1144984652,
			"-0.004": 12.1171485924,
			"-0.003": 9.87248547375,
			"-0.002": 8.40920041378,
			"-0.001": 6.2083920303,
			"0.0": 9.30007921732,
			"0.001": 10.5529929054,
			"0.002": 9.95761454194,
			"0.003": 14.0762299531,
			"0.004": 18.0081866387,
			"0.005": 11.8603678194,
			"0.006": 3.93965615118,
			"0.007": 4.74034157817,
			"0.008": 5.09151272087,
			"0.009": 4.60656099922,
			"0.01": 3.42974118378,
			"0.011": 4.97807998355,
			"0.012": 1.84566420279,
			"0.013": 1.02770643993,
			"0.014": 0.678512523822,
			"0.015": 0.906347938929,
			"0.016": 0.400123683545,
			"0.017": 0.243955838082,
			"0.018": 0.0,
			"0.019": 0.0,
			"0.02": 0.0,
			"0.021": 0.0,
			"0.022": 0.0,
			"0.023": 0.0,
			"0.024": 0.0,
			"0.025": 0.0
		}
	}
}
