{
	 "smiles": "OCCCCNC(=O)OCC1C2=C(C=CC=C2)C2=C1C=CC=C2", 
	 "Tm": 389.15, 
	 "num_atms": 44, 
	 "gaussian": { 
		 "optdone": 1, 
		 "sigma_profile": "yes", 
		 "theory": "DFT", 
		 "functional": "B3LYP", 
		 "basiset": "6-31G**", 
		 "properties": { 
			 "R2extent": 6925.0539, 
			 "electric_dipole_moment_norm": 3.31428096576, 
			 "electric_quadrupole_moment_norm": 14.0953024373, 
			 "total_energy": -1017.13272531, 
			 "HOMO_LUMO_gap": 0.18395, 
			 "cosmo_polarized_energy": -17.95, 
			 "cosmo_cavitation_energy": 45.56, 
			 "cosmo_dispersion_energy": -29.05, 
			 "cosmo_repulsion_energy": 2.21, 
			 "cosmo_total_nonelectrostatic_energy": 18.72, 
			 "SMD_solvation_energy": 7.53 
		},
		"coords": [
			{
				"x": 0.5973556214,
				"y": -1.8920315002,
				"z": -2.524310895,
				"element": "O" 
			},
			{
				"x": 0.093451945,
				"y": -0.565327387,
				"z": -2.67420758,
				"element": "C" 
			},
			{
				"x": -1.3763827725,
				"y": -0.4642637994,
				"z": -2.2592583835,
				"element": "C" 
			},
			{
				"x": -2.0250057599,
				"y": 0.921853332,
				"z": -2.420347238,
				"element": "C" 
			},
			{
				"x": -1.6090236119,
				"y": 1.9897708077,
				"z": -1.3967561972,
				"element": "C" 
			},
			{
				"x": -0.2945944099,
				"y": 2.5711299493,
				"z": -1.663503978,
				"element": "N" 
			},
			{
				"x": 0.6024147533,
				"y": 3.0063867316,
				"z": -0.7242969685,
				"element": "C" 
			},
			{
				"x": 1.560027848,
				"y": 3.7168368433,
				"z": -0.9723506126,
				"element": "O" 
			},
			{
				"x": 0.2861419598,
				"y": 2.526514647,
				"z": 0.510637265,
				"element": "O" 
			},
			{
				"x": 1.2344154337,
				"y": 2.7414226406,
				"z": 1.5657297221,
				"element": "C" 
			},
			{
				"x": 2.0114788049,
				"y": 1.4478705808,
				"z": 1.8752801561,
				"element": "C" 
			},
			{
				"x": 2.9179388594,
				"y": 0.9885007199,
				"z": 0.7426250466,
				"element": "C" 
			},
			{
				"x": 2.5299723884,
				"y": -0.2896098267,
				"z": 0.2941970933,
				"element": "C" 
			},
			{
				"x": 3.2119353019,
				"y": -0.9110423761,
				"z": -0.7556226891,
				"element": "C" 
			},
			{
				"x": 4.2906274051,
				"y": -0.2435917951,
				"z": -1.3401115297,
				"element": "C" 
			},
			{
				"x": 4.680033879,
				"y": 1.0226077661,
				"z": -0.889346467,
				"element": "C" 
			},
			{
				"x": 3.9892174598,
				"y": 1.649817503,
				"z": 0.1529721472,
				"element": "C" 
			},
			{
				"x": 1.3938620186,
				"y": -0.7464626645,
				"z": 1.1085886463,
				"element": "C" 
			},
			{
				"x": 1.1015104072,
				"y": 0.2426726701,
				"z": 2.0694673517,
				"element": "C" 
			},
			{
				"x": 0.0805427489,
				"y": 0.0495649243,
				"z": 2.9927278105,
				"element": "C" 
			},
			{
				"x": -0.6579327634,
				"y": -1.139457732,
				"z": 2.9502931296,
				"element": "C" 
			},
			{
				"x": -0.3799243817,
				"y": -2.1132746895,
				"z": 1.9847782787,
				"element": "C" 
			},
			{
				"x": 0.6470874827,
				"y": -1.9259084285,
				"z": 1.0554302981,
				"element": "C" 
			},
			{
				"x": 0.0661516354,
				"y": -2.4734892057,
				"z": -3.0840564576,
				"element": "H" 
			},
			{
				"x": 0.7245897586,
				"y": 0.0621952984,
				"z": -2.0435861726,
				"element": "H" 
			},
			{
				"x": 0.2158066449,
				"y": -0.2129516452,
				"z": -3.7123233886,
				"element": "H" 
			},
			{
				"x": -1.9498658196,
				"y": -1.1798608061,
				"z": -2.8678987064,
				"element": "H" 
			},
			{
				"x": -1.4682694483,
				"y": -0.8002393634,
				"z": -1.2191708251,
				"element": "H" 
			},
			{
				"x": -3.1115412612,
				"y": 0.8028313035,
				"z": -2.3275207872,
				"element": "H" 
			},
			{
				"x": -1.8559883052,
				"y": 1.3028732688,
				"z": -3.4382924053,
				"element": "H" 
			},
			{
				"x": -1.578408882,
				"y": 1.5581986448,
				"z": -0.3953953665,
				"element": "H" 
			},
			{
				"x": -2.3710462835,
				"y": 2.7835091156,
				"z": -1.3838300043,
				"element": "H" 
			},
			{
				"x": -0.1538689615,
				"y": 3.0197627591,
				"z": -2.5581190718,
				"element": "H" 
			},
			{
				"x": 1.9107610852,
				"y": 3.5513380803,
				"z": 1.2840006559,
				"element": "H" 
			},
			{
				"x": 0.6460646777,
				"y": 3.0446233119,
				"z": 2.4369254078,
				"element": "H" 
			},
			{
				"x": 2.5980712174,
				"y": 1.6513248417,
				"z": 2.7838863276,
				"element": "H" 
			},
			{
				"x": 2.8923890344,
				"y": -1.8775731227,
				"z": -1.1306834272,
				"element": "H" 
			},
			{
				"x": 4.8308971323,
				"y": -0.7116863559,
				"z": -2.1582755432,
				"element": "H" 
			},
			{
				"x": 5.5188809784,
				"y": 1.5280279318,
				"z": -1.3590856514,
				"element": "H" 
			},
			{
				"x": 4.2827384316,
				"y": 2.6425611015,
				"z": 0.4821443186,
				"element": "H" 
			},
			{
				"x": -0.1493735811,
				"y": 0.8067945629,
				"z": 3.7386142709,
				"element": "H" 
			},
			{
				"x": -1.455681634,
				"y": -1.3044975814,
				"z": 3.6690100026,
				"element": "H" 
			},
			{
				"x": -0.9683623636,
				"y": -3.0263787044,
				"z": 1.9587488931,
				"element": "H" 
			},
			{
				"x": 0.8452053263,
				"y": -2.6703423523,
				"z": 0.2906935239,
				"element": "H" 
			}
		],
		 "valence_orbital": [ 
			{
				"type": "occ",
				"energy": -0.26305,
				"method": "rhf"
			},
			{
				"type": "occ",
				"energy": -0.24725,
				"method": "rhf"
			},
			{
				"type": "occ",
				"energy": -0.24104,
				"method": "rhf"
			},
			{
				"type": "occ",
				"energy": -0.23328,
				"method": "rhf"
			},
			{
				"type": "occ",
				"energy": -0.20636,
				"method": "rhf"
			},
			{
				"type": "unocc",
				"energy": -0.02241,
				"method": "rhf"
			},
			{
				"type": "unocc",
				"energy": -0.00511,
				"method": "rhf"
			},
			{
				"type": "unocc",
				"energy": 0.01689,
				"method": "rhf"
			},
			{
				"type": "unocc",
				"energy": 0.04909,
				"method": "rhf"
			},
			{
				"type": "unocc",
				"energy": 0.05707,
				"method": "rhf"
			}
		],
		"cosmo_sigma_profile": { 
			"-0.025": 0.0,
			"-0.024": 0.0,
			"-0.023": 0.0,
			"-0.022": 0.0,
			"-0.021": 0.0,
			"-0.02": 0.0,
			"-0.019": 0.0,
			"-0.018": 0.0,
			"-0.017": 0.0,
			"-0.016": 0.0,
			"-0.015": 0.318362834351,
			"-0.014": 1.42174292016,
			"-0.013": 1.49899178975,
			"-0.012": 2.40411398313,
			"-0.011": 2.28341480139,
			"-0.01": 1.64381323645,
			"-0.009": 1.7345850894,
			"-0.008": 1.79447355447,
			"-0.007": 2.20137636181,
			"-0.006": 14.703297971,
			"-0.005": 25.4165146284,
			"-0.004": 28.3831838155,
			"-0.003": 39.8477591099,
			"-0.002": 31.2483322104,
			"-0.001": 26.6013667917,
			"0.0": 22.031760254,
			"0.001": 22.0853942038,
			"0.002": 23.7192129519,
			"0.003": 22.5227986547,
			"0.004": 21.9285083445,
			"0.005": 23.5043445658,
			"0.006": 16.4665313815,
			"0.007": 4.27990174239,
			"0.008": 3.26986630058,
			"0.009": 3.38449373429,
			"0.01": 2.26626836234,
			"0.011": 2.99085066704,
			"0.012": 2.68787357727,
			"0.013": 3.70904397891,
			"0.014": 2.51462063819,
			"0.015": 0.0314161268696,
			"0.016": 0.0,
			"0.017": 0.0,
			"0.018": 0.0,
			"0.019": 0.0,
			"0.02": 0.0,
			"0.021": 0.0,
			"0.022": 0.0,
			"0.023": 0.0,
			"0.024": 0.0,
			"0.025": 0.0
		}
	}
}
