{
	 "smiles": "COC1=CC=C(CC(=N/O)C(O)=O)C=C1", 
	 "Tm": 432.15, 
	 "num_atms": 26, 
	 "gaussian": { 
		 "optdone": 1, 
		 "sigma_profile": "yes", 
		 "theory": "DFT", 
		 "functional": "B3LYP", 
		 "basiset": "6-31G**", 
		 "properties": { 
			 "R2extent": 4507.2804, 
			 "electric_dipole_moment_norm": 2.63038009801, 
			 "electric_quadrupole_moment_norm": 11.9072204741, 
			 "total_energy": -743.280842983, 
			 "HOMO_LUMO_gap": 0.15598, 
			 "cosmo_polarized_energy": -15.39, 
			 "cosmo_cavitation_energy": 30.94, 
			 "cosmo_dispersion_energy": -22.22, 
			 "cosmo_repulsion_energy": 1.76, 
			 "cosmo_total_nonelectrostatic_energy": 10.48, 
			 "SMD_solvation_energy": 7.27 
		},
		"coords": [
			{
				"x": -0.8604064882,
				"y": 5.175316095,
				"z": -0.831085491,
				"element": "C" 
			},
			{
				"x": -1.7142997395,
				"y": 4.1707109358,
				"z": -0.3107998301,
				"element": "O" 
			},
			{
				"x": -1.1432029506,
				"y": 3.1016022896,
				"z": 0.3202858952,
				"element": "C" 
			},
			{
				"x": 0.2332723294,
				"y": 2.9220404518,
				"z": 0.4967057616,
				"element": "C" 
			},
			{
				"x": 0.7011902126,
				"y": 1.7860027698,
				"z": 1.1637073946,
				"element": "C" 
			},
			{
				"x": -0.1760235212,
				"y": 0.8219137814,
				"z": 1.6660682021,
				"element": "C" 
			},
			{
				"x": 0.3459030081,
				"y": -0.4139653258,
				"z": 2.3869586115,
				"element": "C" 
			},
			{
				"x": 0.5652531746,
				"y": -1.5791455817,
				"z": 1.4486254614,
				"element": "C" 
			},
			{
				"x": 1.6529808201,
				"y": -1.8704141259,
				"z": 0.8289427336,
				"element": "N" 
			},
			{
				"x": 2.6762410182,
				"y": -0.9730141648,
				"z": 1.1147693823,
				"element": "O" 
			},
			{
				"x": -0.5963671421,
				"y": -2.4885956295,
				"z": 1.1959026616,
				"element": "C" 
			},
			{
				"x": -0.3549113093,
				"y": -3.47000542,
				"z": 0.3055066343,
				"element": "O" 
			},
			{
				"x": -1.669565939,
				"y": -2.3544502077,
				"z": 1.7531214159,
				"element": "O" 
			},
			{
				"x": -1.5539684755,
				"y": 1.0146490857,
				"z": 1.4752026221,
				"element": "C" 
			},
			{
				"x": -2.0345942205,
				"y": 2.1376807276,
				"z": 0.8140299535,
				"element": "C" 
			},
			{
				"x": -1.5135726294,
				"y": 5.9216474604,
				"z": -1.2863476018,
				"element": "H" 
			},
			{
				"x": -0.1819398075,
				"y": 4.7761959286,
				"z": -1.5965886703,
				"element": "H" 
			},
			{
				"x": -0.2650750794,
				"y": 5.6522295027,
				"z": -0.0413100839,
				"element": "H" 
			},
			{
				"x": 0.9445232262,
				"y": 3.6510804387,
				"z": 0.1265109467,
				"element": "H" 
			},
			{
				"x": 1.7712594121,
				"y": 1.6488596664,
				"z": 1.2897405568,
				"element": "H" 
			},
			{
				"x": 1.2940397661,
				"y": -0.1876380274,
				"z": 2.8796832771,
				"element": "H" 
			},
			{
				"x": -0.3744169444,
				"y": -0.7297025922,
				"z": 3.1451466979,
				"element": "H" 
			},
			{
				"x": 3.4128128534,
				"y": -1.328416959,
				"z": 0.5983006914,
				"element": "H" 
			},
			{
				"x": -1.1832279507,
				"y": -3.9746236913,
				"z": 0.2450130471,
				"element": "H" 
			},
			{
				"x": -2.2511993334,
				"y": 0.2693593219,
				"z": 1.8465251485,
				"element": "H" 
			},
			{
				"x": -3.0987042904,
				"y": 2.29368327,
				"z": 0.6686845822,
				"element": "H" 
			}
		],
		 "valence_orbital": [ 
			{
				"type": "occ",
				"energy": -0.2959,
				"method": "rhf"
			},
			{
				"type": "occ",
				"energy": -0.27866,
				"method": "rhf"
			},
			{
				"type": "occ",
				"energy": -0.27073,
				"method": "rhf"
			},
			{
				"type": "occ",
				"energy": -0.2448,
				"method": "rhf"
			},
			{
				"type": "occ",
				"energy": -0.21033,
				"method": "rhf"
			},
			{
				"type": "unocc",
				"energy": -0.05435,
				"method": "rhf"
			},
			{
				"type": "unocc",
				"energy": 0.00349,
				"method": "rhf"
			},
			{
				"type": "unocc",
				"energy": 0.01597,
				"method": "rhf"
			},
			{
				"type": "unocc",
				"energy": 0.06171,
				"method": "rhf"
			},
			{
				"type": "unocc",
				"energy": 0.07334,
				"method": "rhf"
			}
		],
		"cosmo_sigma_profile": { 
			"-0.025": 0.0,
			"-0.024": 0.0,
			"-0.023": 0.0,
			"-0.022": 0.0,
			"-0.021": 0.0,
			"-0.02": 0.0,
			"-0.019": 0.272163499274,
			"-0.018": 2.31596706619,
			"-0.017": 1.79225743712,
			"-0.016": 1.40753638283,
			"-0.015": 1.66691997692,
			"-0.014": 2.2504436534,
			"-0.013": 1.51101675942,
			"-0.012": 0.161268940363,
			"-0.011": 1.34436628518,
			"-0.01": 2.07553352505,
			"-0.009": 1.28134344321,
			"-0.008": 1.13188245347,
			"-0.007": 1.72726600804,
			"-0.006": 7.73477313848,
			"-0.005": 16.7126433414,
			"-0.004": 19.4956655865,
			"-0.003": 24.4319196235,
			"-0.002": 18.1591592982,
			"-0.001": 12.3830425223,
			"0.0": 11.7623161355,
			"0.001": 13.1147134509,
			"0.002": 12.8471078279,
			"0.003": 18.2389209702,
			"0.004": 16.2487125397,
			"0.005": 15.6874613704,
			"0.006": 10.7946935155,
			"0.007": 4.96540344152,
			"0.008": 5.06380004327,
			"0.009": 5.38956346945,
			"0.01": 4.48990443695,
			"0.011": 5.04319813128,
			"0.012": 2.44423691989,
			"0.013": 1.08856543543,
			"0.014": 0.449071283203,
			"0.015": 0.0,
			"0.016": 0.0,
			"0.017": 0.0,
			"0.018": 0.0,
			"0.019": 0.0,
			"0.02": 0.0,
			"0.021": 0.0,
			"0.022": 0.0,
			"0.023": 0.0,
			"0.024": 0.0,
			"0.025": 0.0
		}
	}
}
