{
	 "smiles": "NC(=O)C1=C(NC2CCN(CC3=CC=CC=C3)CC2)N=CC=C1", 
	 "Tm": 347.15, 
	 "num_atms": 45, 
	 "gaussian": { 
		 "optdone": 1, 
		 "sigma_profile": "yes", 
		 "theory": "DFT", 
		 "functional": "B3LYP", 
		 "basiset": "6-31G**", 
		 "properties": { 
			 "R2extent": 11699.3758, 
			 "electric_dipole_moment_norm": 3.37473641934, 
			 "electric_quadrupole_moment_norm": 27.9962474176, 
			 "total_energy": -993.426985359, 
			 "HOMO_LUMO_gap": 0.1571, 
			 "cosmo_polarized_energy": -15.07, 
			 "cosmo_cavitation_energy": 45.98, 
			 "cosmo_dispersion_energy": -32.62, 
			 "cosmo_repulsion_energy": 2.49, 
			 "cosmo_total_nonelectrostatic_energy": 15.86, 
			 "SMD_solvation_energy": 5.87 
		},
		"coords": [
			{
				"x": -5.7400600628,
				"y": 2.3896852351,
				"z": 2.6262140568,
				"element": "N" 
			},
			{
				"x": -4.4686598429,
				"y": 2.0068018923,
				"z": 2.2634020891,
				"element": "C" 
			},
			{
				"x": -3.5945582651,
				"y": 1.8973358943,
				"z": 3.133184795,
				"element": "O" 
			},
			{
				"x": -4.2169330519,
				"y": 1.7689783368,
				"z": 0.819475677,
				"element": "C" 
			},
			{
				"x": -3.0090556592,
				"y": 1.1205553865,
				"z": 0.3708398302,
				"element": "C" 
			},
			{
				"x": -2.0470457594,
				"y": 0.7661352828,
				"z": 1.2536871156,
				"element": "N" 
			},
			{
				"x": -0.7714662577,
				"y": 0.1087840608,
				"z": 0.9658028078,
				"element": "C" 
			},
			{
				"x": 0.1847441213,
				"y": 0.9699448869,
				"z": 0.1040630457,
				"element": "C" 
			},
			{
				"x": 1.2857598105,
				"y": 0.0960755958,
				"z": -0.5305614481,
				"element": "C" 
			},
			{
				"x": 1.5722379143,
				"y": -1.0516883537,
				"z": 0.3347513888,
				"element": "N" 
			},
			{
				"x": 2.8398266642,
				"y": -1.7093707057,
				"z": 0.0394196266,
				"element": "C" 
			},
			{
				"x": 4.0557885685,
				"y": -0.8672395732,
				"z": 0.3810802769,
				"element": "C" 
			},
			{
				"x": 4.1105653169,
				"y": -0.1497971552,
				"z": 1.5842598661,
				"element": "C" 
			},
			{
				"x": 5.2465715744,
				"y": 0.5847597825,
				"z": 1.9222172317,
				"element": "C" 
			},
			{
				"x": 6.3489867305,
				"y": 0.6113063024,
				"z": 1.0635845029,
				"element": "C" 
			},
			{
				"x": 6.3034045193,
				"y": -0.0975036971,
				"z": -0.13720595,
				"element": "C" 
			},
			{
				"x": 5.1616331153,
				"y": -0.8277951976,
				"z": -0.4754641349,
				"element": "C" 
			},
			{
				"x": 0.4578081849,
				"y": -2.0096320846,
				"z": 0.3316381914,
				"element": "C" 
			},
			{
				"x": -0.9111992608,
				"y": -1.293473045,
				"z": 0.3497371288,
				"element": "C" 
			},
			{
				"x": -2.807398313,
				"y": 0.841598984,
				"z": -0.9392395573,
				"element": "N" 
			},
			{
				"x": -3.7236446231,
				"y": 1.21846134,
				"z": -1.8266879655,
				"element": "C" 
			},
			{
				"x": -4.8991687519,
				"y": 1.9000858653,
				"z": -1.5076493387,
				"element": "C" 
			},
			{
				"x": -5.1295224193,
				"y": 2.1663562307,
				"z": -0.1619142284,
				"element": "C" 
			},
			{
				"x": -5.8939045116,
				"y": 2.4208117773,
				"z": 3.6240190125,
				"element": "H" 
			},
			{
				"x": -6.5311001384,
				"y": 2.1290219845,
				"z": 2.0592047668,
				"element": "H" 
			},
			{
				"x": -2.2371286417,
				"y": 1.0729121365,
				"z": 2.2045864267,
				"element": "H" 
			},
			{
				"x": -0.3068296744,
				"y": -0.0168307538,
				"z": 1.9489264622,
				"element": "H" 
			},
			{
				"x": -0.3853591075,
				"y": 1.4674311167,
				"z": -0.6832661082,
				"element": "H" 
			},
			{
				"x": 0.6311983476,
				"y": 1.7442496492,
				"z": 0.7371598207,
				"element": "H" 
			},
			{
				"x": 2.2036150495,
				"y": 0.6771386875,
				"z": -0.6524826267,
				"element": "H" 
			},
			{
				"x": 0.9837113176,
				"y": -0.2341912209,
				"z": -1.5435619561,
				"element": "H" 
			},
			{
				"x": 2.9036622852,
				"y": -2.0336664056,
				"z": -1.018658442,
				"element": "H" 
			},
			{
				"x": 2.8697404959,
				"y": -2.6310523308,
				"z": 0.6375927208,
				"element": "H" 
			},
			{
				"x": 3.2459536684,
				"y": -0.1663752248,
				"z": 2.240810609,
				"element": "H" 
			},
			{
				"x": 5.2732144097,
				"y": 1.1374839502,
				"z": 2.8575238022,
				"element": "H" 
			},
			{
				"x": 7.2339098166,
				"y": 1.1836286622,
				"z": 1.3274963895,
				"element": "H" 
			},
			{
				"x": 7.1523665836,
				"y": -0.0774927305,
				"z": -0.8151142255,
				"element": "H" 
			},
			{
				"x": 5.1281825219,
				"y": -1.3729917966,
				"z": -1.416066397,
				"element": "H" 
			},
			{
				"x": 0.5017383609,
				"y": -2.6758066838,
				"z": -0.5520922359,
				"element": "H" 
			},
			{
				"x": 0.5693596333,
				"y": -2.6514220623,
				"z": 1.2154395628,
				"element": "H" 
			},
			{
				"x": -1.3108026493,
				"y": -1.1909940728,
				"z": -0.6614246949,
				"element": "H" 
			},
			{
				"x": -1.6337405817,
				"y": -1.8847180328,
				"z": 0.9217659575,
				"element": "H" 
			},
			{
				"x": -3.5023302879,
				"y": 0.9686043318,
				"z": -2.8642292091,
				"element": "H" 
			},
			{
				"x": -5.5961897193,
				"y": 2.2082117682,
				"z": -2.278432323,
				"element": "H" 
			},
			{
				"x": -6.0204814315,
				"y": 2.7170819866,
				"z": 0.1257676801,
				"element": "H" 
			}
		],
		 "valence_orbital": [ 
			{
				"type": "occ",
				"energy": -0.24891,
				"method": "rhf"
			},
			{
				"type": "occ",
				"energy": -0.24171,
				"method": "rhf"
			},
			{
				"type": "occ",
				"energy": -0.23555,
				"method": "rhf"
			},
			{
				"type": "occ",
				"energy": -0.2044,
				"method": "rhf"
			},
			{
				"type": "occ",
				"energy": -0.20197,
				"method": "rhf"
			},
			{
				"type": "unocc",
				"energy": -0.04487,
				"method": "rhf"
			},
			{
				"type": "unocc",
				"energy": 0.00411,
				"method": "rhf"
			},
			{
				"type": "unocc",
				"energy": 0.00496,
				"method": "rhf"
			},
			{
				"type": "unocc",
				"energy": 0.00741,
				"method": "rhf"
			},
			{
				"type": "unocc",
				"energy": 0.05091,
				"method": "rhf"
			}
		],
		"cosmo_sigma_profile": { 
			"-0.025": 0.0,
			"-0.024": 0.0,
			"-0.023": 0.0,
			"-0.022": 0.0,
			"-0.021": 0.0,
			"-0.02": 0.0,
			"-0.019": 0.0,
			"-0.018": 0.0,
			"-0.017": 0.0,
			"-0.016": 0.0,
			"-0.015": 0.192685756363,
			"-0.014": 1.52258322353,
			"-0.013": 2.1039219967,
			"-0.012": 2.61133253119,
			"-0.011": 2.87849628364,
			"-0.01": 2.45545106907,
			"-0.009": 2.47781309284,
			"-0.008": 2.83868214956,
			"-0.007": 3.58206147851,
			"-0.006": 8.28198539945,
			"-0.005": 16.7075807494,
			"-0.004": 22.2896058072,
			"-0.003": 28.2584427513,
			"-0.002": 34.7089524339,
			"-0.001": 43.5862079134,
			"0.0": 34.1665193081,
			"0.001": 27.1160907392,
			"0.002": 26.6567839104,
			"0.003": 26.9154404771,
			"0.004": 20.783924415,
			"0.005": 13.6281445683,
			"0.006": 13.6189417162,
			"0.007": 7.04358756199,
			"0.008": 4.67239503627,
			"0.009": 3.28146337781,
			"0.01": 2.23664180543,
			"0.011": 2.10468491969,
			"0.012": 2.06732297185,
			"0.013": 2.25235774705,
			"0.014": 1.35317775032,
			"0.015": 0.0349516622412,
			"0.016": 0.0,
			"0.017": 0.0,
			"0.018": 0.0,
			"0.019": 0.0,
			"0.02": 0.0,
			"0.021": 0.0,
			"0.022": 0.0,
			"0.023": 0.0,
			"0.024": 0.0,
			"0.025": 0.0
		}
	}
}
