{
	 "smiles": "CCCN1C(=O)NC(=O)C(NCCOC)=C1N", 
	 "Tm": 467.15, 
	 "num_atms": 35, 
	 "gaussian": { 
		 "optdone": 1, 
		 "sigma_profile": "yes", 
		 "theory": "DFT", 
		 "functional": "B3LYP", 
		 "basiset": "6-31G**", 
		 "properties": { 
			 "R2extent": 5009.2779, 
			 "electric_dipole_moment_norm": 5.25209380819, 
			 "electric_quadrupole_moment_norm": 14.5026606342, 
			 "total_energy": -836.61819955, 
			 "HOMO_LUMO_gap": 0.19133, 
			 "cosmo_polarized_energy": -20.74, 
			 "cosmo_cavitation_energy": 36.92, 
			 "cosmo_dispersion_energy": -25.53, 
			 "cosmo_repulsion_energy": 2.03, 
			 "cosmo_total_nonelectrostatic_energy": 13.42, 
			 "SMD_solvation_energy": 7.07 
		},
		"coords": [
			{
				"x": 1.8114466763,
				"y": 1.0184215681,
				"z": -2.4628556208,
				"element": "C" 
			},
			{
				"x": 2.6843417907,
				"y": 0.1067624025,
				"z": -1.5948281781,
				"element": "C" 
			},
			{
				"x": 2.0373938541,
				"y": -1.2501109337,
				"z": -1.2787342797,
				"element": "C" 
			},
			{
				"x": 0.7735241305,
				"y": -1.1569292125,
				"z": -0.5247815763,
				"element": "N" 
			},
			{
				"x": -0.411727743,
				"y": -1.3815364158,
				"z": -1.2499353382,
				"element": "C" 
			},
			{
				"x": -0.4126886776,
				"y": -1.6728858102,
				"z": -2.4371529171,
				"element": "O" 
			},
			{
				"x": -1.5676859701,
				"y": -1.2476706751,
				"z": -0.5147353081,
				"element": "N" 
			},
			{
				"x": -1.7004682914,
				"y": -0.8813457235,
				"z": 0.840286785,
				"element": "C" 
			},
			{
				"x": -2.8149208638,
				"y": -0.8109136758,
				"z": 1.3542390052,
				"element": "O" 
			},
			{
				"x": -0.4453494608,
				"y": -0.6517717993,
				"z": 1.5058001013,
				"element": "C" 
			},
			{
				"x": -0.3895319743,
				"y": -0.3519378207,
				"z": 2.898768417,
				"element": "N" 
			},
			{
				"x": -0.4401975989,
				"y": 1.0762830143,
				"z": 3.2723496222,
				"element": "C" 
			},
			{
				"x": -1.7975726826,
				"y": 1.7676018541,
				"z": 3.0622318489,
				"element": "C" 
			},
			{
				"x": -1.7758617818,
				"y": 3.1065582669,
				"z": 3.5400405598,
				"element": "O" 
			},
			{
				"x": -1.2763923977,
				"y": 4.0438067387,
				"z": 2.6087709486,
				"element": "C" 
			},
			{
				"x": 0.7409834184,
				"y": -0.8427973557,
				"z": 0.8278634921,
				"element": "C" 
			},
			{
				"x": 1.9339154226,
				"y": -0.6664341124,
				"z": 1.4868985619,
				"element": "N" 
			},
			{
				"x": 1.5284785031,
				"y": 0.5273136384,
				"z": -3.3987514855,
				"element": "H" 
			},
			{
				"x": 2.3443324149,
				"y": 1.9424056115,
				"z": -2.7074786241,
				"element": "H" 
			},
			{
				"x": 0.8886267755,
				"y": 1.2979588486,
				"z": -1.9449601739,
				"element": "H" 
			},
			{
				"x": 3.6285472237,
				"y": -0.1066309548,
				"z": -2.112432294,
				"element": "H" 
			},
			{
				"x": 2.9485392273,
				"y": 0.6181851685,
				"z": -0.6624585917,
				"element": "H" 
			},
			{
				"x": 1.779806079,
				"y": -1.7700205754,
				"z": -2.201608565,
				"element": "H" 
			},
			{
				"x": 2.7316889703,
				"y": -1.8964435813,
				"z": -0.728723719,
				"element": "H" 
			},
			{
				"x": -2.4266261752,
				"y": -1.4176760513,
				"z": -1.0228740751,
				"element": "H" 
			},
			{
				"x": -1.1412747148,
				"y": -0.8502994247,
				"z": 3.3702049276,
				"element": "H" 
			},
			{
				"x": -0.1754270992,
				"y": 1.1596931719,
				"z": 4.3329727119,
				"element": "H" 
			},
			{
				"x": 0.3414397049,
				"y": 1.5945361658,
				"z": 2.7065359585,
				"element": "H" 
			},
			{
				"x": -2.5688071199,
				"y": 1.2432984625,
				"z": 3.6366244295,
				"element": "H" 
			},
			{
				"x": -2.1009439794,
				"y": 1.7291444514,
				"z": 2.0073032973,
				"element": "H" 
			},
			{
				"x": -1.8641241843,
				"y": 4.0437182974,
				"z": 1.6772767472,
				"element": "H" 
			},
			{
				"x": -0.2214950796,
				"y": 3.8688720876,
				"z": 2.3470363553,
				"element": "H" 
			},
			{
				"x": -1.3551268249,
				"y": 5.030566645,
				"z": 3.0726494623,
				"element": "H" 
			},
			{
				"x": 2.7289410567,
				"y": -1.2004267182,
				"z": 1.1682808283,
				"element": "H" 
			},
			{
				"x": 1.7806173711,
				"y": -0.6796955528,
				"z": 2.4923766867,
				"element": "H" 
			}
		],
		 "valence_orbital": [ 
			{
				"type": "occ",
				"energy": -0.27598,
				"method": "rhf"
			},
			{
				"type": "occ",
				"energy": -0.27382,
				"method": "rhf"
			},
			{
				"type": "occ",
				"energy": -0.25279,
				"method": "rhf"
			},
			{
				"type": "occ",
				"energy": -0.24005,
				"method": "rhf"
			},
			{
				"type": "occ",
				"energy": -0.20505,
				"method": "rhf"
			},
			{
				"type": "unocc",
				"energy": -0.01372,
				"method": "rhf"
			},
			{
				"type": "unocc",
				"energy": 0.01775,
				"method": "rhf"
			},
			{
				"type": "unocc",
				"energy": 0.05015,
				"method": "rhf"
			},
			{
				"type": "unocc",
				"energy": 0.09213,
				"method": "rhf"
			},
			{
				"type": "unocc",
				"energy": 0.09398,
				"method": "rhf"
			}
		],
		"cosmo_sigma_profile": { 
			"-0.025": 0.0,
			"-0.024": 0.0,
			"-0.023": 0.0,
			"-0.022": 0.0,
			"-0.021": 0.0,
			"-0.02": 0.0,
			"-0.019": 0.0,
			"-0.018": 0.0,
			"-0.017": 0.0,
			"-0.016": 0.0486372604637,
			"-0.015": 1.18788235908,
			"-0.014": 2.1306508138,
			"-0.013": 2.1226454535,
			"-0.012": 2.41682573296,
			"-0.011": 2.70640297222,
			"-0.01": 4.56989571553,
			"-0.009": 3.46538421609,
			"-0.008": 4.02502018482,
			"-0.007": 4.77223536232,
			"-0.006": 3.63335980756,
			"-0.005": 7.2096859459,
			"-0.004": 22.3667737211,
			"-0.003": 35.4180350406,
			"-0.002": 35.4055681066,
			"-0.001": 32.0817706022,
			"0.0": 25.8051726287,
			"0.001": 17.6074645945,
			"0.002": 11.1903281513,
			"0.003": 6.73579684597,
			"0.004": 7.92326209158,
			"0.005": 5.50065782915,
			"0.006": 5.35052611986,
			"0.007": 6.19084693514,
			"0.008": 4.44301666193,
			"0.009": 4.75256457372,
			"0.01": 4.60636281931,
			"0.011": 3.48963942995,
			"0.012": 6.21366853674,
			"0.013": 8.32532930606,
			"0.014": 5.80843093365,
			"0.015": 0.720085203651,
			"0.016": 0.0,
			"0.017": 0.0,
			"0.018": 0.0,
			"0.019": 0.0,
			"0.02": 0.0,
			"0.021": 0.0,
			"0.022": 0.0,
			"0.023": 0.0,
			"0.024": 0.0,
			"0.025": 0.0
		}
	}
}
