{
	 "smiles": "CC(=O)C1CCC2C3CCC4=CC(=O)CCC4(C)C3C(=O)CC12C", 
	 "Tm": 445.15, 
	 "num_atms": 52, 
	 "gaussian": { 
		 "optdone": 1, 
		 "sigma_profile": "yes", 
		 "theory": "DFT", 
		 "functional": "B3LYP", 
		 "basiset": "6-31G**", 
		 "properties": { 
			 "R2extent": 9956.7604, 
			 "electric_dipole_moment_norm": 3.3108392501, 
			 "electric_quadrupole_moment_norm": 37.9240987642, 
			 "total_energy": -1042.77394584, 
			 "HOMO_LUMO_gap": 0.18614, 
			 "cosmo_polarized_energy": -20.02, 
			 "cosmo_cavitation_energy": 46.18, 
			 "cosmo_dispersion_energy": -32.08, 
			 "cosmo_repulsion_energy": 2.35, 
			 "cosmo_total_nonelectrostatic_energy": 16.45, 
			 "SMD_solvation_energy": 8.29 
		},
		"coords": [
			{
				"x": 3.2723998411,
				"y": 0.1307885149,
				"z": -3.9506979806,
				"element": "C" 
			},
			{
				"x": 3.1761522366,
				"y": 0.8832449078,
				"z": -2.6360273072,
				"element": "C" 
			},
			{
				"x": 4.1407181709,
				"y": 1.461554781,
				"z": -2.1676379484,
				"element": "O" 
			},
			{
				"x": 1.8205552864,
				"y": 0.8827945308,
				"z": -1.9290928891,
				"element": "C" 
			},
			{
				"x": 1.5498787467,
				"y": 2.180919366,
				"z": -1.1192778158,
				"element": "C" 
			},
			{
				"x": 0.7204364125,
				"y": 1.7623651645,
				"z": 0.1272859693,
				"element": "C" 
			},
			{
				"x": 0.3833203035,
				"y": 0.282151437,
				"z": -0.1245700775,
				"element": "C" 
			},
			{
				"x": -0.1728640558,
				"y": -0.5723000394,
				"z": 1.0312889918,
				"element": "C" 
			},
			{
				"x": 0.5064226527,
				"y": -0.4422294107,
				"z": 2.4091164599,
				"element": "C" 
			},
			{
				"x": -0.3617708484,
				"y": -1.1379394461,
				"z": 3.4968800297,
				"element": "C" 
			},
			{
				"x": -1.2632896266,
				"y": -2.1873079705,
				"z": 2.8866450479,
				"element": "C" 
			},
			{
				"x": -2.5630378615,
				"y": -2.2885827059,
				"z": 3.231086236,
				"element": "C" 
			},
			{
				"x": -3.5315178285,
				"y": -3.1667710323,
				"z": 2.5472178941,
				"element": "C" 
			},
			{
				"x": -4.6860393642,
				"y": -3.2804900462,
				"z": 2.9356826705,
				"element": "O" 
			},
			{
				"x": -3.0237789948,
				"y": -3.8469458781,
				"z": 1.2846000248,
				"element": "C" 
			},
			{
				"x": -1.54383509,
				"y": -4.2228686704,
				"z": 1.4036708461,
				"element": "C" 
			},
			{
				"x": -0.6151490902,
				"y": -3.0482607187,
				"z": 1.8071968611,
				"element": "C" 
			},
			{
				"x": 0.6809821644,
				"y": -3.6781741909,
				"z": 2.3905242132,
				"element": "C" 
			},
			{
				"x": -0.3469061905,
				"y": -2.0748251435,
				"z": 0.5893943719,
				"element": "C" 
			},
			{
				"x": 0.6747097901,
				"y": -2.6045103979,
				"z": -0.436308554,
				"element": "C" 
			},
			{
				"x": 0.9710351147,
				"y": -3.7842519653,
				"z": -0.5076131895,
				"element": "O" 
			},
			{
				"x": 1.2165175856,
				"y": -1.6294661943,
				"z": -1.4850709533,
				"element": "C" 
			},
			{
				"x": 1.6177344101,
				"y": -0.2759610189,
				"z": -0.8825517997,
				"element": "C" 
			},
			{
				"x": 2.871659541,
				"y": -0.4604568081,
				"z": -0.0044317783,
				"element": "C" 
			},
			{
				"x": 4.3081989593,
				"y": 0.1086750983,
				"z": -4.2921662984,
				"element": "H" 
			},
			{
				"x": 2.8879532901,
				"y": -0.8904580411,
				"z": -3.8531418001,
				"element": "H" 
			},
			{
				"x": 2.6518424583,
				"y": 0.6291044766,
				"z": -4.7059112851,
				"element": "H" 
			},
			{
				"x": 1.0428149759,
				"y": 0.7521009263,
				"z": -2.6929296311,
				"element": "H" 
			},
			{
				"x": 2.5034331539,
				"y": 2.6312817537,
				"z": -0.8350135727,
				"element": "H" 
			},
			{
				"x": 1.0192244854,
				"y": 2.9114027234,
				"z": -1.7370041785,
				"element": "H" 
			},
			{
				"x": -0.1816612748,
				"y": 2.3688047681,
				"z": 0.2555190002,
				"element": "H" 
			},
			{
				"x": 1.3147620125,
				"y": 1.8857106409,
				"z": 1.0375519472,
				"element": "H" 
			},
			{
				"x": -0.4177153117,
				"y": 0.2820307545,
				"z": -0.8818773679,
				"element": "H" 
			},
			{
				"x": -1.1940553487,
				"y": -0.2018646796,
				"z": 1.1963393316,
				"element": "H" 
			},
			{
				"x": 1.5155294696,
				"y": -0.8589145583,
				"z": 2.4004214818,
				"element": "H" 
			},
			{
				"x": 0.6176778494,
				"y": 0.6149782908,
				"z": 2.6668369238,
				"element": "H" 
			},
			{
				"x": -0.9775253871,
				"y": -0.4022061139,
				"z": 4.0235845936,
				"element": "H" 
			},
			{
				"x": 0.291114747,
				"y": -1.5943486398,
				"z": 4.2513627262,
				"element": "H" 
			},
			{
				"x": -2.9787932139,
				"y": -1.6642599961,
				"z": 4.0195280575,
				"element": "H" 
			},
			{
				"x": -3.189810829,
				"y": -3.147431769,
				"z": 0.4517960498,
				"element": "H" 
			},
			{
				"x": -3.6487094031,
				"y": -4.7214095868,
				"z": 1.0827862834,
				"element": "H" 
			},
			{
				"x": -1.1721538848,
				"y": -4.6658226113,
				"z": 0.4762112098,
				"element": "H" 
			},
			{
				"x": -1.4525482906,
				"y": -4.9977513396,
				"z": 2.1751867186,
				"element": "H" 
			},
			{
				"x": 1.0637400927,
				"y": -4.4406296498,
				"z": 1.7133841912,
				"element": "H" 
			},
			{
				"x": 0.4524116126,
				"y": -4.1495124715,
				"z": 3.3521371608,
				"element": "H" 
			},
			{
				"x": 1.4787015945,
				"y": -2.9510078153,
				"z": 2.5571304959,
				"element": "H" 
			},
			{
				"x": -1.2702115352,
				"y": -2.0781587488,
				"z": -0.0136334257,
				"element": "H" 
			},
			{
				"x": 0.4151126258,
				"y": -1.480033113,
				"z": -2.2244780059,
				"element": "H" 
			},
			{
				"x": 2.0384421651,
				"y": -2.1429347833,
				"z": -1.9928590619,
				"element": "H" 
			},
			{
				"x": 3.7301536512,
				"y": -0.7543907511,
				"z": -0.6148147915,
				"element": "H" 
			},
			{
				"x": 2.72332667,
				"y": -1.249843886,
				"z": 0.7371171379,
				"element": "H" 
			},
			{
				"x": 3.15261136,
				"y": 0.454612057,
				"z": 0.5222267868,
				"element": "H" 
			}
		],
		 "valence_orbital": [ 
			{
				"type": "occ",
				"energy": -0.30471,
				"method": "rhf"
			},
			{
				"type": "occ",
				"energy": -0.25819,
				"method": "rhf"
			},
			{
				"type": "occ",
				"energy": -0.25332,
				"method": "rhf"
			},
			{
				"type": "occ",
				"energy": -0.24582,
				"method": "rhf"
			},
			{
				"type": "occ",
				"energy": -0.23109,
				"method": "rhf"
			},
			{
				"type": "unocc",
				"energy": -0.04495,
				"method": "rhf"
			},
			{
				"type": "unocc",
				"energy": -0.03392,
				"method": "rhf"
			},
			{
				"type": "unocc",
				"energy": -0.02334,
				"method": "rhf"
			},
			{
				"type": "unocc",
				"energy": 0.05522,
				"method": "rhf"
			},
			{
				"type": "unocc",
				"energy": 0.0594,
				"method": "rhf"
			}
		],
		"cosmo_sigma_profile": { 
			"-0.025": 0.0,
			"-0.024": 0.0,
			"-0.023": 0.0,
			"-0.022": 0.0,
			"-0.021": 0.0,
			"-0.02": 0.0,
			"-0.019": 0.0,
			"-0.018": 0.0,
			"-0.017": 0.0,
			"-0.016": 0.0,
			"-0.015": 0.0,
			"-0.014": 0.0,
			"-0.013": 0.0,
			"-0.012": 0.0,
			"-0.011": 0.0,
			"-0.01": 0.0340586425264,
			"-0.009": 0.176671474647,
			"-0.008": 0.582930113086,
			"-0.007": 4.93585058377,
			"-0.006": 15.3837949924,
			"-0.005": 22.6903101872,
			"-0.004": 32.7607102598,
			"-0.003": 47.772953968,
			"-0.002": 49.4668483358,
			"-0.001": 44.6919203599,
			"0.0": 32.0911812537,
			"0.001": 21.7934020767,
			"0.002": 12.2262595965,
			"0.003": 8.93547900031,
			"0.004": 5.88920422036,
			"0.005": 5.46045453522,
			"0.006": 4.60482737778,
			"0.007": 5.21208089503,
			"0.008": 5.39612090669,
			"0.009": 4.22538200746,
			"0.01": 4.92431515405,
			"0.011": 6.65801319625,
			"0.012": 9.43838720585,
			"0.013": 8.47998899244,
			"0.014": 3.14654964468,
			"0.015": 0.465539928832,
			"0.016": 0.0,
			"0.017": 0.0,
			"0.018": 0.0,
			"0.019": 0.0,
			"0.02": 0.0,
			"0.021": 0.0,
			"0.022": 0.0,
			"0.023": 0.0,
			"0.024": 0.0,
			"0.025": 0.0
		}
	}
}
