{
	 "smiles": "CCCCCCCCCCCCC", 
	 "Tm": 268.0, 
	 "num_atms": 41, 
	 "gaussian": { 
		 "optdone": 1, 
		 "sigma_profile": "yes", 
		 "theory": "DFT", 
		 "functional": "B3LYP", 
		 "basiset": "6-31G**", 
		 "properties": { 
			 "R2extent": 4551.1864, 
			 "electric_dipole_moment_norm": 0.0625939294181, 
			 "electric_quadrupole_moment_norm": 0.465822069035, 
			 "total_energy": -512.293157738, 
			 "HOMO_LUMO_gap": 0.36821, 
			 "cosmo_polarized_energy": -0.85, 
			 "cosmo_cavitation_energy": 39.07, 
			 "cosmo_dispersion_energy": -26.25, 
			 "cosmo_repulsion_energy": 2.16, 
			 "cosmo_total_nonelectrostatic_energy": 14.98, 
			 "SMD_solvation_energy": 5.25 
		},
		"coords": [
			{
				"x": 0.1725634903,
				"y": 3.4169539028,
				"z": 3.1453135031,
				"element": "C" 
			},
			{
				"x": 0.6584648632,
				"y": 2.1575934329,
				"z": 2.4176179617,
				"element": "C" 
			},
			{
				"x": 0.6976908289,
				"y": 0.8938145148,
				"z": 3.2946101436,
				"element": "C" 
			},
			{
				"x": -0.6557152815,
				"y": 0.4270288857,
				"z": 3.8613426086,
				"element": "C" 
			},
			{
				"x": -1.7592691278,
				"y": 0.0491028397,
				"z": 2.853310568,
				"element": "C" 
			},
			{
				"x": -1.499369811,
				"y": -1.2032464596,
				"z": 1.9877738884,
				"element": "C" 
			},
			{
				"x": -0.755691533,
				"y": -0.9640797772,
				"z": 0.6636066589,
				"element": "C" 
			},
			{
				"x": -0.5999149989,
				"y": -2.2479158391,
				"z": -0.1636759469,
				"element": "C" 
			},
			{
				"x": 0.1860084699,
				"y": -2.1103551995,
				"z": -1.4803887528,
				"element": "C" 
			},
			{
				"x": -0.4643693434,
				"y": -1.1900659035,
				"z": -2.5410019352,
				"element": "C" 
			},
			{
				"x": -0.0157056912,
				"y": 0.2908419876,
				"z": -2.5327752491,
				"element": "C" 
			},
			{
				"x": 1.1570272293,
				"y": 0.6213599212,
				"z": -3.4739251413,
				"element": "C" 
			},
			{
				"x": 2.4844113053,
				"y": -0.0726329294,
				"z": -3.1472913951,
				"element": "C" 
			},
			{
				"x": -0.8667478177,
				"y": 3.3229632463,
				"z": 3.4768941743,
				"element": "H" 
			},
			{
				"x": 0.784246868,
				"y": 3.6215579854,
				"z": 4.0320120124,
				"element": "H" 
			},
			{
				"x": 0.229353099,
				"y": 4.295153526,
				"z": 2.4936022102,
				"element": "H" 
			},
			{
				"x": 0.0288362821,
				"y": 1.9811537646,
				"z": 1.536338027,
				"element": "H" 
			},
			{
				"x": 1.6693907324,
				"y": 2.3386176128,
				"z": 2.0299534718,
				"element": "H" 
			},
			{
				"x": 1.157774426,
				"y": 0.0776273416,
				"z": 2.7241436911,
				"element": "H" 
			},
			{
				"x": 1.3734363806,
				"y": 1.0792108164,
				"z": 4.1414903134,
				"element": "H" 
			},
			{
				"x": -0.4735469128,
				"y": -0.4399882457,
				"z": 4.5113027904,
				"element": "H" 
			},
			{
				"x": -1.0519804994,
				"y": 1.2096038042,
				"z": 4.521414464,
				"element": "H" 
			},
			{
				"x": -1.9857578169,
				"y": 0.9028746009,
				"z": 2.2001792939,
				"element": "H" 
			},
			{
				"x": -2.6734972463,
				"y": -0.1219225086,
				"z": 3.4358286998,
				"element": "H" 
			},
			{
				"x": -2.4660657543,
				"y": -1.6656532096,
				"z": 1.7458509185,
				"element": "H" 
			},
			{
				"x": -0.9559721203,
				"y": -1.9508416613,
				"z": 2.5838263487,
				"element": "H" 
			},
			{
				"x": 0.2363939309,
				"y": -0.5363082463,
				"z": 0.8535175847,
				"element": "H" 
			},
			{
				"x": -1.3066365786,
				"y": -0.211667217,
				"z": 0.0839162202,
				"element": "H" 
			},
			{
				"x": -0.1037537769,
				"y": -3.0063321302,
				"z": 0.4581550227,
				"element": "H" 
			},
			{
				"x": -1.5985165867,
				"y": -2.651028252,
				"z": -0.3878059894,
				"element": "H" 
			},
			{
				"x": 1.2038303363,
				"y": -1.7660813297,
				"z": -1.2589180899,
				"element": "H" 
			},
			{
				"x": 0.2969801398,
				"y": -3.1168191512,
				"z": -1.9037070787,
				"element": "H" 
			},
			{
				"x": -0.272207229,
				"y": -1.5997098282,
				"z": -3.5416215615,
				"element": "H" 
			},
			{
				"x": -1.5540082901,
				"y": -1.2388352493,
				"z": -2.4140663699,
				"element": "H" 
			},
			{
				"x": 0.2438778248,
				"y": 0.598369582,
				"z": -1.5119764493,
				"element": "H" 
			},
			{
				"x": -0.86393885,
				"y": 0.92138239,
				"z": -2.8286484838,
				"element": "H" 
			},
			{
				"x": 0.8640114074,
				"y": 0.3702610422,
				"z": -4.5029717918,
				"element": "H" 
			},
			{
				"x": 1.3138550221,
				"y": 1.7080546818,
				"z": -3.4627619567,
				"element": "H" 
			},
			{
				"x": 3.2747148456,
				"y": 0.2544633754,
				"z": -3.8315606281,
				"element": "H" 
			},
			{
				"x": 2.8138006051,
				"y": 0.1577697906,
				"z": -2.127311823,
				"element": "H" 
			},
			{
				"x": 2.4080971787,
				"y": -1.1613759078,
				"z": -3.2330919324,
				"element": "H" 
			}
		],
		 "valence_orbital": [ 
			{
				"type": "occ",
				"energy": -0.30589,
				"method": "rhf"
			},
			{
				"type": "occ",
				"energy": -0.30502,
				"method": "rhf"
			},
			{
				"type": "occ",
				"energy": -0.30052,
				"method": "rhf"
			},
			{
				"type": "occ",
				"energy": -0.29758,
				"method": "rhf"
			},
			{
				"type": "occ",
				"energy": -0.29038,
				"method": "rhf"
			},
			{
				"type": "unocc",
				"energy": 0.07783,
				"method": "rhf"
			},
			{
				"type": "unocc",
				"energy": 0.08767,
				"method": "rhf"
			},
			{
				"type": "unocc",
				"energy": 0.10064,
				"method": "rhf"
			},
			{
				"type": "unocc",
				"energy": 0.10347,
				"method": "rhf"
			},
			{
				"type": "unocc",
				"energy": 0.10977,
				"method": "rhf"
			}
		],
		"cosmo_sigma_profile": { 
			"-0.025": 0.0,
			"-0.024": 0.0,
			"-0.023": 0.0,
			"-0.022": 0.0,
			"-0.021": 0.0,
			"-0.02": 0.0,
			"-0.019": 0.0,
			"-0.018": 0.0,
			"-0.017": 0.0,
			"-0.016": 0.0,
			"-0.015": 0.0,
			"-0.014": 0.0,
			"-0.013": 0.0,
			"-0.012": 0.0,
			"-0.011": 0.0,
			"-0.01": 0.0,
			"-0.009": 0.0,
			"-0.008": 0.0,
			"-0.007": 0.0,
			"-0.006": 0.0,
			"-0.005": 0.0,
			"-0.004": 0.0,
			"-0.003": 2.00975374907,
			"-0.002": 29.5872779767,
			"-0.001": 71.3125004267,
			"0.0": 92.5707148354,
			"0.001": 68.3013857982,
			"0.002": 33.2725390594,
			"0.003": 0.946714118576,
			"0.004": 0.0,
			"0.005": 0.0,
			"0.006": 0.0,
			"0.007": 0.0,
			"0.008": 0.0,
			"0.009": 0.0,
			"0.01": 0.0,
			"0.011": 0.0,
			"0.012": 0.0,
			"0.013": 0.0,
			"0.014": 0.0,
			"0.015": 0.0,
			"0.016": 0.0,
			"0.017": 0.0,
			"0.018": 0.0,
			"0.019": 0.0,
			"0.02": 0.0,
			"0.021": 0.0,
			"0.022": 0.0,
			"0.023": 0.0,
			"0.024": 0.0,
			"0.025": 0.0
		}
	}
}
