{
	 "smiles": "ICCCCCCCCI", 
	 "Tm": 291.65, 
	 "num_atms": 26, 
	 "gaussian": { 
		 "optdone": 1, 
		 "sigma_profile": "yes", 
		 "theory": "DFT", 
		 "functional": "B3LYP", 
		 "basiset": "6-31G**", 
		 "properties": { 
			 "R2extent": 3462.8471, 
			 "electric_dipole_moment_norm": 3.06602201884, 
			 "electric_quadrupole_moment_norm": 13.5831891377, 
			 "total_energy": -337.300682297, 
			 "HOMO_LUMO_gap": 0.21265, 
			 "cosmo_polarized_energy": -6.87, 
			 "cosmo_cavitation_energy": 33.65, 
			 "cosmo_dispersion_energy": -26.4, 
			 "cosmo_repulsion_energy": 2.14, 
			 "cosmo_total_nonelectrostatic_energy": 9.39, 
			 "SMD_solvation_energy": 2.99 
		},
		"coords": [
			{
				"x": 0.3164071435,
				"y": -3.516957815,
				"z": -4.1886337324,
				"element": "I" 
			},
			{
				"x": 0.3138374197,
				"y": -1.5105667428,
				"z": -3.290879007,
				"element": "C" 
			},
			{
				"x": 0.0076884861,
				"y": -1.4993443704,
				"z": -1.7991242077,
				"element": "C" 
			},
			{
				"x": 1.0799214881,
				"y": -2.1423736885,
				"z": -0.9109867836,
				"element": "C" 
			},
			{
				"x": 0.7551711055,
				"y": -2.1107870155,
				"z": 0.5914212661,
				"element": "C" 
			},
			{
				"x": 0.759886747,
				"y": -0.7126497985,
				"z": 1.2275990198,
				"element": "C" 
			},
			{
				"x": 0.4788731649,
				"y": -0.7515377299,
				"z": 2.7360421332,
				"element": "C" 
			},
			{
				"x": 0.5840829752,
				"y": 0.6049240349,
				"z": 3.4476501885,
				"element": "C" 
			},
			{
				"x": -0.3538854258,
				"y": 1.7050067872,
				"z": 2.9658234666,
				"element": "C" 
			},
			{
				"x": -2.4828142856,
				"y": 1.2596652529,
				"z": 3.2787456481,
				"element": "I" 
			},
			{
				"x": 1.3034943021,
				"y": -1.1138198035,
				"z": -3.5189662556,
				"element": "H" 
			},
			{
				"x": -0.4356633555,
				"y": -0.9730718414,
				"z": -3.8698131729,
				"element": "H" 
			},
			{
				"x": -0.1102660379,
				"y": -0.4389107973,
				"z": -1.5309921345,
				"element": "H" 
			},
			{
				"x": -0.9649783959,
				"y": -1.9716887196,
				"z": -1.616804685,
				"element": "H" 
			},
			{
				"x": 1.2129305403,
				"y": -3.1850952302,
				"z": -1.2215509318,
				"element": "H" 
			},
			{
				"x": 2.0437135866,
				"y": -1.6436259571,
				"z": -1.0882544406,
				"element": "H" 
			},
			{
				"x": -0.2229132418,
				"y": -2.5828789593,
				"z": 0.7601064313,
				"element": "H" 
			},
			{
				"x": 1.4868576827,
				"y": -2.7375186226,
				"z": 1.1179901242,
				"element": "H" 
			},
			{
				"x": 0.0129959697,
				"y": -0.0801531879,
				"z": 0.7313782204,
				"element": "H" 
			},
			{
				"x": 1.7361148573,
				"y": -0.2379820528,
				"z": 1.0481141045,
				"element": "H" 
			},
			{
				"x": 1.1898397017,
				"y": -1.4375494519,
				"z": 3.2145498132,
				"element": "H" 
			},
			{
				"x": -0.5183455364,
				"y": -1.1745014122,
				"z": 2.9108027595,
				"element": "H" 
			},
			{
				"x": 1.6024891695,
				"y": 1.0026487408,
				"z": 3.3121525697,
				"element": "H" 
			},
			{
				"x": 0.4503108758,
				"y": 0.4644951596,
				"z": 4.5258640402,
				"element": "H" 
			},
			{
				"x": -0.2024500105,
				"y": 2.6351236782,
				"z": 3.5115747724,
				"element": "H" 
			},
			{
				"x": -0.2760989263,
				"y": 1.8986495428,
				"z": 1.8969907934,
				"element": "H" 
			}
		],
		 "valence_orbital": [ 
			{
				"type": "occ",
				"energy": -0.31779,
				"method": "rhf"
			},
			{
				"type": "occ",
				"energy": -0.25916,
				"method": "rhf"
			},
			{
				"type": "occ",
				"energy": -0.25768,
				"method": "rhf"
			},
			{
				"type": "occ",
				"energy": -0.25694,
				"method": "rhf"
			},
			{
				"type": "occ",
				"energy": -0.25474,
				"method": "rhf"
			},
			{
				"type": "unocc",
				"energy": -0.04209,
				"method": "rhf"
			},
			{
				"type": "unocc",
				"energy": -0.0406,
				"method": "rhf"
			},
			{
				"type": "unocc",
				"energy": 0.03286,
				"method": "rhf"
			},
			{
				"type": "unocc",
				"energy": 0.03674,
				"method": "rhf"
			},
			{
				"type": "unocc",
				"energy": 0.04242,
				"method": "rhf"
			}
		],
		"cosmo_sigma_profile": { 
			"-0.025": 0.0,
			"-0.024": 0.0,
			"-0.023": 0.0,
			"-0.022": 0.0,
			"-0.021": 0.0,
			"-0.02": 0.0,
			"-0.019": 0.0,
			"-0.018": 0.0,
			"-0.017": 0.0,
			"-0.016": 0.0,
			"-0.015": 0.0,
			"-0.014": 0.0,
			"-0.013": 0.0,
			"-0.012": 0.0,
			"-0.011": 0.0,
			"-0.01": 0.0,
			"-0.009": 0.0,
			"-0.008": 0.0,
			"-0.007": 1.41410852156,
			"-0.006": 7.88132376339,
			"-0.005": 9.30808169048,
			"-0.004": 21.4662140383,
			"-0.003": 27.6111345548,
			"-0.002": 36.4126685061,
			"-0.001": 37.6361202789,
			"0.0": 29.5685566946,
			"0.001": 21.8352131247,
			"0.002": 12.6090120862,
			"0.003": 9.36742159683,
			"0.004": 12.1159238518,
			"0.005": 15.6641707968,
			"0.006": 21.1011613365,
			"0.007": 7.43604424391,
			"0.008": 0.0,
			"0.009": 0.0,
			"0.01": 0.0,
			"0.011": 0.0,
			"0.012": 0.0,
			"0.013": 0.0,
			"0.014": 0.0,
			"0.015": 0.0,
			"0.016": 0.0,
			"0.017": 0.0,
			"0.018": 0.0,
			"0.019": 0.0,
			"0.02": 0.0,
			"0.021": 0.0,
			"0.022": 0.0,
			"0.023": 0.0,
			"0.024": 0.0,
			"0.025": 0.0
		}
	}
}
