{
	 "smiles": "C1CN2C(C1)=NN=C2C1CCNCC1", 
	 "Tm": 400.15, 
	 "num_atms": 30, 
	 "gaussian": { 
		 "optdone": 1, 
		 "sigma_profile": "yes", 
		 "theory": "DFT", 
		 "functional": "B3LYP", 
		 "basiset": "6-31G**", 
		 "properties": { 
			 "R2extent": 4348.3196, 
			 "electric_dipole_moment_norm": 6.75909020135, 
			 "electric_quadrupole_moment_norm": 34.3794215703, 
			 "total_energy": -609.683761929, 
			 "HOMO_LUMO_gap": 0.24891, 
			 "cosmo_polarized_energy": -20.31, 
			 "cosmo_cavitation_energy": 30.34, 
			 "cosmo_dispersion_energy": -22.48, 
			 "cosmo_repulsion_energy": 1.78, 
			 "cosmo_total_nonelectrostatic_energy": 9.64, 
			 "SMD_solvation_energy": -0.3 
		},
		"coords": [
			{
				"x": -1.5151485427,
				"y": -3.236603913,
				"z": -0.0801161731,
				"element": "C" 
			},
			{
				"x": -0.3492898881,
				"y": -2.2264691655,
				"z": -0.2766302963,
				"element": "C" 
			},
			{
				"x": -0.605965436,
				"y": -1.7369882081,
				"z": -1.6294096707,
				"element": "N" 
			},
			{
				"x": -1.4686836148,
				"y": -2.5252912632,
				"z": -2.3408457196,
				"element": "C" 
			},
			{
				"x": -1.934372189,
				"y": -3.6841033279,
				"z": -1.5108133779,
				"element": "C" 
			},
			{
				"x": -1.6290163968,
				"y": -2.0765874429,
				"z": -3.5582671503,
				"element": "N" 
			},
			{
				"x": -0.8330363085,
				"y": -0.9423037245,
				"z": -3.6583015955,
				"element": "N" 
			},
			{
				"x": -0.2179553409,
				"y": -0.7498357563,
				"z": -2.5050436937,
				"element": "C" 
			},
			{
				"x": 0.7176230133,
				"y": 0.3849337761,
				"z": -2.223595203,
				"element": "C" 
			},
			{
				"x": 0.1981846825,
				"y": 1.3509409862,
				"z": -1.1367545768,
				"element": "C" 
			},
			{
				"x": 1.0848475137,
				"y": 2.6175439391,
				"z": -1.0642908141,
				"element": "C" 
			},
			{
				"x": 2.4253369098,
				"y": 2.3307867404,
				"z": -1.5881248878,
				"element": "N" 
			},
			{
				"x": 2.9324769683,
				"y": 1.0384260025,
				"z": -1.1352129114,
				"element": "C" 
			},
			{
				"x": 2.1534951918,
				"y": -0.0834627941,
				"z": -1.8600614703,
				"element": "C" 
			},
			{
				"x": -1.2242599665,
				"y": -4.0721437408,
				"z": 0.5608071623,
				"element": "H" 
			},
			{
				"x": -2.3533900454,
				"y": -2.7241582146,
				"z": 0.4014946062,
				"element": "H" 
			},
			{
				"x": 0.6316238673,
				"y": -2.7144673915,
				"z": -0.227278164,
				"element": "H" 
			},
			{
				"x": -0.3655055631,
				"y": -1.4164190256,
				"z": 0.4565639938,
				"element": "H" 
			},
			{
				"x": -1.4208651192,
				"y": -4.6057781283,
				"z": -1.8111742406,
				"element": "H" 
			},
			{
				"x": -3.0081538517,
				"y": -3.8657100499,
				"z": -1.5981174689,
				"element": "H" 
			},
			{
				"x": 0.769085304,
				"y": 0.9401072894,
				"z": -3.1639370132,
				"element": "H" 
			},
			{
				"x": 0.2010813374,
				"y": 0.8398694802,
				"z": -0.1653738115,
				"element": "H" 
			},
			{
				"x": -0.8399282459,
				"y": 1.631710259,
				"z": -1.3384984461,
				"element": "H" 
			},
			{
				"x": 1.0989172659,
				"y": 2.9799972693,
				"z": -0.0200281538,
				"element": "H" 
			},
			{
				"x": 0.6465892067,
				"y": 3.4163768769,
				"z": -1.6744980667,
				"element": "H" 
			},
			{
				"x": 3.0655531193,
				"y": 3.0796220958,
				"z": -1.3453682088,
				"element": "H" 
			},
			{
				"x": 3.9983778206,
				"y": 0.9733555015,
				"z": -1.3754197826,
				"element": "H" 
			},
			{
				"x": 2.849082558,
				"y": 0.9059634729,
				"z": -0.0385885294,
				"element": "H" 
			},
			{
				"x": 2.1207734988,
				"y": -0.9721844975,
				"z": -1.2178257039,
				"element": "H" 
			},
			{
				"x": 2.668522251,
				"y": -0.3771270453,
				"z": -2.7799906321,
				"element": "H" 
			}
		],
		 "valence_orbital": [ 
			{
				"type": "occ",
				"energy": -0.28289,
				"method": "rhf"
			},
			{
				"type": "occ",
				"energy": -0.27198,
				"method": "rhf"
			},
			{
				"type": "occ",
				"energy": -0.23491,
				"method": "rhf"
			},
			{
				"type": "occ",
				"energy": -0.23233,
				"method": "rhf"
			},
			{
				"type": "occ",
				"energy": -0.2177,
				"method": "rhf"
			},
			{
				"type": "unocc",
				"energy": 0.03121,
				"method": "rhf"
			},
			{
				"type": "unocc",
				"energy": 0.04974,
				"method": "rhf"
			},
			{
				"type": "unocc",
				"energy": 0.05855,
				"method": "rhf"
			},
			{
				"type": "unocc",
				"energy": 0.08023,
				"method": "rhf"
			},
			{
				"type": "unocc",
				"energy": 0.0986,
				"method": "rhf"
			}
		],
		"cosmo_sigma_profile": { 
			"-0.025": 0.0,
			"-0.024": 0.0,
			"-0.023": 0.0,
			"-0.022": 0.0,
			"-0.021": 0.0,
			"-0.02": 0.0,
			"-0.019": 0.0,
			"-0.018": 0.0,
			"-0.017": 0.0,
			"-0.016": 0.0,
			"-0.015": 0.0,
			"-0.014": 0.0,
			"-0.013": 0.0,
			"-0.012": 0.0,
			"-0.011": 0.0291512008822,
			"-0.01": 0.842374211847,
			"-0.009": 1.67461887838,
			"-0.008": 0.721309758509,
			"-0.007": 1.30117947612,
			"-0.006": 11.4713421742,
			"-0.005": 23.1665834657,
			"-0.004": 27.2719201501,
			"-0.003": 27.2353087732,
			"-0.002": 34.4424964564,
			"-0.001": 31.9500559571,
			"0.0": 19.4270640773,
			"0.001": 6.04795325729,
			"0.002": 3.63641593588,
			"0.003": 2.70313474481,
			"0.004": 4.31690875589,
			"0.005": 2.8948432723,
			"0.006": 2.03767980558,
			"0.007": 2.42059929169,
			"0.008": 2.12428932342,
			"0.009": 3.20970606211,
			"0.01": 2.41497649193,
			"0.011": 2.88228831561,
			"0.012": 3.07438417936,
			"0.013": 2.59990456019,
			"0.014": 3.36171140636,
			"0.015": 4.29533460299,
			"0.016": 3.72178245408,
			"0.017": 3.05627430247,
			"0.018": 1.8412690637,
			"0.019": 0.150230360605,
			"0.02": 0.0,
			"0.021": 0.0,
			"0.022": 0.0,
			"0.023": 0.0,
			"0.024": 0.0,
			"0.025": 0.0
		}
	}
}
