{
	 "smiles": "CC1=CC(=C(N)N=C1)[N+]([O-])=O", 
	 "Tm": 465.15, 
	 "num_atms": 18, 
	 "gaussian": { 
		 "optdone": 1, 
		 "sigma_profile": "yes", 
		 "theory": "DFT", 
		 "functional": "B3LYP", 
		 "basiset": "6-31G**", 
		 "properties": { 
			 "R2extent": 2123.7503, 
			 "electric_dipole_moment_norm": 3.32465626644, 
			 "electric_quadrupole_moment_norm": 17.2456569396, 
			 "total_energy": -547.475686013, 
			 "HOMO_LUMO_gap": 0.14179, 
			 "cosmo_polarized_energy": -10.0, 
			 "cosmo_cavitation_energy": 22.48, 
			 "cosmo_dispersion_energy": -17.04, 
			 "cosmo_repulsion_energy": 1.37, 
			 "cosmo_total_nonelectrostatic_energy": 6.81, 
			 "SMD_solvation_energy": 4.67 
		},
		"coords": [
			{
				"x": -2.7468446654,
				"y": 0.1336054108,
				"z": 0.3505604246,
				"element": "C" 
			},
			{
				"x": -1.2413734815,
				"y": 0.1907880435,
				"z": 0.2762094598,
				"element": "C" 
			},
			{
				"x": -0.5184827771,
				"y": 1.3349919768,
				"z": 0.5811937269,
				"element": "C" 
			},
			{
				"x": 0.875529044,
				"y": 1.3427085129,
				"z": 0.4714545956,
				"element": "C" 
			},
			{
				"x": 1.5529661996,
				"y": 0.1639095883,
				"z": 0.043754096,
				"element": "C" 
			},
			{
				"x": 2.8894944497,
				"y": 0.0630744457,
				"z": -0.1004553991,
				"element": "N" 
			},
			{
				"x": 0.841172994,
				"y": -0.9507550854,
				"z": -0.2437783817,
				"element": "N" 
			},
			{
				"x": -0.4789964526,
				"y": -0.9223768045,
				"z": -0.1284662211,
				"element": "C" 
			},
			{
				"x": 1.5739966499,
				"y": 2.5640221387,
				"z": 0.8077148188,
				"element": "N" 
			},
			{
				"x": 2.8150521595,
				"y": 2.5867196507,
				"z": 0.7115098826,
				"element": "O" 
			},
			{
				"x": 0.9124967088,
				"y": 3.5360938126,
				"z": 1.1760789199,
				"element": "O" 
			},
			{
				"x": -3.2092876567,
				"y": 0.440642632,
				"z": -0.5956129634,
				"element": "H" 
			},
			{
				"x": -3.0948788275,
				"y": -0.8807505009,
				"z": 0.5682349167,
				"element": "H" 
			},
			{
				"x": -3.1320780109,
				"y": 0.7953246551,
				"z": 1.1316755819,
				"element": "H" 
			},
			{
				"x": -1.0041241197,
				"y": 2.2460530128,
				"z": 0.911612375,
				"element": "H" 
			},
			{
				"x": 3.2544529055,
				"y": -0.8264088762,
				"z": -0.4012274015,
				"element": "H" 
			},
			{
				"x": 3.4706831687,
				"y": 0.8605529978,
				"z": 0.1080428612,
				"element": "H" 
			},
			{
				"x": -0.9873782884,
				"y": -1.8562956107,
				"z": -0.3706012922,
				"element": "H" 
			}
		],
		 "valence_orbital": [ 
			{
				"type": "occ",
				"energy": -0.30677,
				"method": "rhf"
			},
			{
				"type": "occ",
				"energy": -0.30182,
				"method": "rhf"
			},
			{
				"type": "occ",
				"energy": -0.29088,
				"method": "rhf"
			},
			{
				"type": "occ",
				"energy": -0.27514,
				"method": "rhf"
			},
			{
				"type": "occ",
				"energy": -0.22949,
				"method": "rhf"
			},
			{
				"type": "unocc",
				"energy": -0.0877,
				"method": "rhf"
			},
			{
				"type": "unocc",
				"energy": -0.02036,
				"method": "rhf"
			},
			{
				"type": "unocc",
				"energy": 0.00376,
				"method": "rhf"
			},
			{
				"type": "unocc",
				"energy": 0.09193,
				"method": "rhf"
			},
			{
				"type": "unocc",
				"energy": 0.09939,
				"method": "rhf"
			}
		],
		"cosmo_sigma_profile": { 
			"-0.025": 0.0,
			"-0.024": 0.0,
			"-0.023": 0.0,
			"-0.022": 0.0,
			"-0.021": 0.0,
			"-0.02": 0.0,
			"-0.019": 0.0,
			"-0.018": 0.0,
			"-0.017": 0.0,
			"-0.016": 0.0,
			"-0.015": 0.1160036454,
			"-0.014": 0.881403236816,
			"-0.013": 1.13726866654,
			"-0.012": 1.08768088878,
			"-0.011": 1.05443993562,
			"-0.01": 1.91556736322,
			"-0.009": 1.90850078535,
			"-0.008": 2.11860577517,
			"-0.007": 4.31227917756,
			"-0.006": 5.78039836117,
			"-0.005": 10.9994375128,
			"-0.004": 12.4563789277,
			"-0.003": 12.9079302748,
			"-0.002": 17.2151225774,
			"-0.001": 20.4233870988,
			"0.0": 17.8127462576,
			"0.001": 12.5362611024,
			"0.002": 7.65229576158,
			"0.003": 5.90053237931,
			"0.004": 4.74404627536,
			"0.005": 3.6083049215,
			"0.006": 3.58119408566,
			"0.007": 5.82086470883,
			"0.008": 8.09370413176,
			"0.009": 4.91112787839,
			"0.01": 5.23240298343,
			"0.011": 2.67624318586,
			"0.012": 0.851611775369,
			"0.013": 0.946921678119,
			"0.014": 0.660105421712,
			"0.015": 0.0,
			"0.016": 0.0,
			"0.017": 0.0,
			"0.018": 0.0,
			"0.019": 0.0,
			"0.02": 0.0,
			"0.021": 0.0,
			"0.022": 0.0,
			"0.023": 0.0,
			"0.024": 0.0,
			"0.025": 0.0
		}
	}
}
