{
	 "smiles": "CC(C)NCC1=NN=C(O1)C1=CC=C(C=C1)[N+]([O-])=O", 
	 "Tm": 451.15, 
	 "num_atms": 33, 
	 "gaussian": { 
		 "optdone": 1, 
		 "sigma_profile": "yes", 
		 "theory": "DFT", 
		 "functional": "B3LYP", 
		 "basiset": "6-31G**", 
		 "properties": { 
			 "R2extent": 9209.1383, 
			 "electric_dipole_moment_norm": 5.88430877759, 
			 "electric_quadrupole_moment_norm": 23.8594096465, 
			 "total_energy": -910.26812566, 
			 "HOMO_LUMO_gap": 0.1426, 
			 "cosmo_polarized_energy": -15.97, 
			 "cosmo_cavitation_energy": 38.23, 
			 "cosmo_dispersion_energy": -26.99, 
			 "cosmo_repulsion_energy": 2.08, 
			 "cosmo_total_nonelectrostatic_energy": 13.31, 
			 "SMD_solvation_energy": 5.54 
		},
		"coords": [
			{
				"x": 3.5827683465,
				"y": 1.8273248547,
				"z": 1.7907103441,
				"element": "C" 
			},
			{
				"x": 2.1946389679,
				"y": 1.4626667155,
				"z": 2.3231669981,
				"element": "C" 
			},
			{
				"x": 1.1289595097,
				"y": 2.4263983604,
				"z": 1.789497559,
				"element": "C" 
			},
			{
				"x": 1.8994725174,
				"y": 0.0732977289,
				"z": 1.9284730122,
				"element": "N" 
			},
			{
				"x": 0.770117065,
				"y": -0.5596218156,
				"z": 2.6065743098,
				"element": "C" 
			},
			{
				"x": -0.5246539376,
				"y": -0.4026334228,
				"z": 1.8723283108,
				"element": "C" 
			},
			{
				"x": -1.6532788605,
				"y": 0.0584215766,
				"z": 2.3190882516,
				"element": "N" 
			},
			{
				"x": -2.563008953,
				"y": -0.0333794978,
				"z": 1.2711815867,
				"element": "N" 
			},
			{
				"x": -1.914812161,
				"y": -0.5436167047,
				"z": 0.2648055202,
				"element": "C" 
			},
			{
				"x": -0.6119751345,
				"y": -0.8078880333,
				"z": 0.5745296128,
				"element": "O" 
			},
			{
				"x": -2.4114743702,
				"y": -0.8370819005,
				"z": -1.0740648976,
				"element": "C" 
			},
			{
				"x": -3.7607646553,
				"y": -0.5774922204,
				"z": -1.3735078643,
				"element": "C" 
			},
			{
				"x": -4.2577149809,
				"y": -0.8486172419,
				"z": -2.6412614564,
				"element": "C" 
			},
			{
				"x": -3.3958419525,
				"y": -1.3793266416,
				"z": -3.6017551958,
				"element": "C" 
			},
			{
				"x": -2.0551871829,
				"y": -1.6444250418,
				"z": -3.3295981849,
				"element": "C" 
			},
			{
				"x": -1.5631908612,
				"y": -1.370743789,
				"z": -2.0582141045,
				"element": "C" 
			},
			{
				"x": -3.9189974257,
				"y": -1.6685965693,
				"z": -4.9467022877,
				"element": "N" 
			},
			{
				"x": -5.1057500244,
				"y": -1.4246807369,
				"z": -5.1606537222,
				"element": "O" 
			},
			{
				"x": -3.1370477023,
				"y": -2.1365443256,
				"z": -5.7737397369,
				"element": "O" 
			},
			{
				"x": 3.6055927482,
				"y": 1.751208015,
				"z": 0.6986724866,
				"element": "H" 
			},
			{
				"x": 4.3546548537,
				"y": 1.1618804416,
				"z": 2.1956951482,
				"element": "H" 
			},
			{
				"x": 3.8469103016,
				"y": 2.8508229134,
				"z": 2.0718039274,
				"element": "H" 
			},
			{
				"x": 2.2115915748,
				"y": 1.5545749703,
				"z": 3.4265964807,
				"element": "H" 
			},
			{
				"x": 1.0661908574,
				"y": 2.3544192565,
				"z": 0.6984095015,
				"element": "H" 
			},
			{
				"x": 1.3863298175,
				"y": 3.4568037295,
				"z": 2.0552278702,
				"element": "H" 
			},
			{
				"x": 0.1398254445,
				"y": 2.217130535,
				"z": 2.20567731,
				"element": "H" 
			},
			{
				"x": 2.7266620637,
				"y": -0.492911358,
				"z": 2.0853263871,
				"element": "H" 
			},
			{
				"x": 0.9753958027,
				"y": -1.6341674556,
				"z": 2.6852107458,
				"element": "H" 
			},
			{
				"x": 0.5935888405,
				"y": -0.1884152742,
				"z": 3.6284348841,
				"element": "H" 
			},
			{
				"x": -4.4021363547,
				"y": -0.1648695584,
				"z": -0.6028639183,
				"element": "H" 
			},
			{
				"x": -5.291696512,
				"y": -0.6592376657,
				"z": -2.9001595959,
				"element": "H" 
			},
			{
				"x": -1.4250475618,
				"y": -2.0554232453,
				"z": -4.1080289663,
				"element": "H" 
			},
			{
				"x": -0.5229200808,
				"y": -1.5667765992,
				"z": -1.8241603163,
				"element": "H" 
			}
		],
		 "valence_orbital": [ 
			{
				"type": "occ",
				"energy": -0.29496,
				"method": "rhf"
			},
			{
				"type": "occ",
				"energy": -0.28771,
				"method": "rhf"
			},
			{
				"type": "occ",
				"energy": -0.28692,
				"method": "rhf"
			},
			{
				"type": "occ",
				"energy": -0.2595,
				"method": "rhf"
			},
			{
				"type": "occ",
				"energy": -0.24461,
				"method": "rhf"
			},
			{
				"type": "unocc",
				"energy": -0.10201,
				"method": "rhf"
			},
			{
				"type": "unocc",
				"energy": -0.04148,
				"method": "rhf"
			},
			{
				"type": "unocc",
				"energy": -0.03507,
				"method": "rhf"
			},
			{
				"type": "unocc",
				"energy": 0.00104,
				"method": "rhf"
			},
			{
				"type": "unocc",
				"energy": 0.05119,
				"method": "rhf"
			}
		],
		"cosmo_sigma_profile": { 
			"-0.025": 0.0,
			"-0.024": 0.0,
			"-0.023": 0.0,
			"-0.022": 0.0,
			"-0.021": 0.0,
			"-0.02": 0.0,
			"-0.019": 0.0,
			"-0.018": 0.0,
			"-0.017": 0.0,
			"-0.016": 0.0,
			"-0.015": 0.0,
			"-0.014": 0.0,
			"-0.013": 0.0,
			"-0.012": 0.0,
			"-0.011": 0.726149876102,
			"-0.01": 2.08360055127,
			"-0.009": 1.65237615753,
			"-0.008": 7.76771323571,
			"-0.007": 12.4252199288,
			"-0.006": 10.6152559848,
			"-0.005": 13.3955720981,
			"-0.004": 20.4767901389,
			"-0.003": 27.4268381907,
			"-0.002": 32.4182371368,
			"-0.001": 34.0595598064,
			"0.0": 34.623301791,
			"0.001": 25.8130379681,
			"0.002": 9.88236563923,
			"0.003": 6.18374835389,
			"0.004": 5.79925458525,
			"0.005": 5.3479263471,
			"0.006": 7.42353199697,
			"0.007": 11.1350159646,
			"0.008": 9.14696109355,
			"0.009": 7.62094989103,
			"0.01": 5.36513945692,
			"0.011": 3.68030550596,
			"0.012": 3.0429697078,
			"0.013": 2.7171320719,
			"0.014": 1.71878563385,
			"0.015": 1.06684573175,
			"0.016": 0.0267069008848,
			"0.017": 0.0,
			"0.018": 0.0,
			"0.019": 0.0,
			"0.02": 0.0,
			"0.021": 0.0,
			"0.022": 0.0,
			"0.023": 0.0,
			"0.024": 0.0,
			"0.025": 0.0
		}
	}
}
