{
	 "smiles": "CC(OC1=CC(=CC=C1)C#N)C(O)=O", 
	 "Tm": 384.15, 
	 "num_atms": 23, 
	 "gaussian": { 
		 "optdone": 1, 
		 "sigma_profile": "yes", 
		 "theory": "DFT", 
		 "functional": "B3LYP", 
		 "basiset": "6-31G**", 
		 "properties": { 
			 "R2extent": 3571.475, 
			 "electric_dipole_moment_norm": 4.4465726588, 
			 "electric_quadrupole_moment_norm": 26.3312211099, 
			 "total_energy": -666.897109735, 
			 "HOMO_LUMO_gap": 0.19421, 
			 "cosmo_polarized_energy": -17.9, 
			 "cosmo_cavitation_energy": 28.89, 
			 "cosmo_dispersion_energy": -20.09, 
			 "cosmo_repulsion_energy": 1.59, 
			 "cosmo_total_nonelectrostatic_energy": 10.4, 
			 "SMD_solvation_energy": 7.98 
		},
		"coords": [
			{
				"x": 0.7513146239,
				"y": -1.7910633955,
				"z": -0.8617033145,
				"element": "C" 
			},
			{
				"x": 0.6162679236,
				"y": -0.2925013397,
				"z": -1.117651385,
				"element": "C" 
			},
			{
				"x": 0.961744836,
				"y": 0.4893953505,
				"z": 0.0412735324,
				"element": "O" 
			},
			{
				"x": 0.050540324,
				"y": 0.7160367752,
				"z": 1.040779699,
				"element": "C" 
			},
			{
				"x": -1.2533030422,
				"y": 0.2199728865,
				"z": 1.0493698125,
				"element": "C" 
			},
			{
				"x": -2.0978982492,
				"y": 0.535074081,
				"z": 2.1302215431,
				"element": "C" 
			},
			{
				"x": -1.6469047081,
				"y": 1.3311884228,
				"z": 3.1909853079,
				"element": "C" 
			},
			{
				"x": -0.3372320766,
				"y": 1.8117006194,
				"z": 3.1647357425,
				"element": "C" 
			},
			{
				"x": 0.5084928869,
				"y": 1.5093704618,
				"z": 2.1030537319,
				"element": "C" 
			},
			{
				"x": -3.4388144012,
				"y": 0.023574798,
				"z": 2.1378479061,
				"element": "C" 
			},
			{
				"x": -4.5250737607,
				"y": -0.392035827,
				"z": 2.1427245648,
				"element": "N" 
			},
			{
				"x": 1.5450261905,
				"y": 0.1549081231,
				"z": -2.2624886889,
				"element": "C" 
			},
			{
				"x": 2.3301793393,
				"y": 1.2114444664,
				"z": -2.0014184503,
				"element": "O" 
			},
			{
				"x": 1.540006407,
				"y": -0.4113953827,
				"z": -3.3270185037,
				"element": "O" 
			},
			{
				"x": 0.5751641737,
				"y": -2.3276107388,
				"z": -1.7958777604,
				"element": "H" 
			},
			{
				"x": 1.7605433137,
				"y": -2.0224266753,
				"z": -0.5100731939,
				"element": "H" 
			},
			{
				"x": 0.0347579877,
				"y": -2.1322594602,
				"z": -0.1109487956,
				"element": "H" 
			},
			{
				"x": -0.4015527,
				"y": -0.0395711815,
				"z": -1.4399957213,
				"element": "H" 
			},
			{
				"x": -1.6341051503,
				"y": -0.405136846,
				"z": 0.2524917273,
				"element": "H" 
			},
			{
				"x": -2.311709591,
				"y": 1.5618159526,
				"z": 4.015367359,
				"element": "H" 
			},
			{
				"x": 0.0278831147,
				"y": 2.428076047,
				"z": 3.9800284236,
				"element": "H" 
			},
			{
				"x": 1.5289230277,
				"y": 1.8773388081,
				"z": 2.0759786881,
				"element": "H" 
			},
			{
				"x": 2.1690495307,
				"y": 1.4772040544,
				"z": -1.0784822247,
				"element": "H" 
			}
		],
		 "valence_orbital": [ 
			{
				"type": "occ",
				"energy": -0.34121,
				"method": "rhf"
			},
			{
				"type": "occ",
				"energy": -0.32268,
				"method": "rhf"
			},
			{
				"type": "occ",
				"energy": -0.28556,
				"method": "rhf"
			},
			{
				"type": "occ",
				"energy": -0.2822,
				"method": "rhf"
			},
			{
				"type": "occ",
				"energy": -0.25962,
				"method": "rhf"
			},
			{
				"type": "unocc",
				"energy": -0.06541,
				"method": "rhf"
			},
			{
				"type": "unocc",
				"energy": -0.02947,
				"method": "rhf"
			},
			{
				"type": "unocc",
				"energy": -0.00277,
				"method": "rhf"
			},
			{
				"type": "unocc",
				"energy": 0.02651,
				"method": "rhf"
			},
			{
				"type": "unocc",
				"energy": 0.05915,
				"method": "rhf"
			}
		],
		"cosmo_sigma_profile": { 
			"-0.025": 0.0,
			"-0.024": 0.0,
			"-0.023": 0.0,
			"-0.022": 0.0,
			"-0.021": 0.0,
			"-0.02": 0.0,
			"-0.019": 0.0,
			"-0.018": 0.0,
			"-0.017": 0.0,
			"-0.016": 0.0,
			"-0.015": 0.461366855981,
			"-0.014": 0.572609288481,
			"-0.013": 0.277142966538,
			"-0.012": 0.602228796807,
			"-0.011": 1.34711606191,
			"-0.01": 3.39982918588,
			"-0.009": 5.56523841256,
			"-0.008": 7.60509727728,
			"-0.007": 12.4090658934,
			"-0.006": 13.2828928946,
			"-0.005": 14.5779052657,
			"-0.004": 13.4976178652,
			"-0.003": 13.9119688921,
			"-0.002": 14.5169800388,
			"-0.001": 18.8060465012,
			"0.0": 14.5504051048,
			"0.001": 16.4229004942,
			"0.002": 14.012963068,
			"0.003": 8.15598608827,
			"0.004": 5.0761362544,
			"0.005": 4.8911714872,
			"0.006": 4.35324602467,
			"0.007": 5.81038502369,
			"0.008": 6.58297468741,
			"0.009": 7.28867342509,
			"0.01": 7.69623084779,
			"0.011": 7.78799513243,
			"0.012": 6.33037358414,
			"0.013": 2.15437705704,
			"0.014": 0.00349417346085,
			"0.015": 0.0,
			"0.016": 0.0,
			"0.017": 0.0,
			"0.018": 0.0,
			"0.019": 0.0,
			"0.02": 0.0,
			"0.021": 0.0,
			"0.022": 0.0,
			"0.023": 0.0,
			"0.024": 0.0,
			"0.025": 0.0
		}
	}
}
