{
	 "smiles": "CC(=C)C(O)=O", 
	 "Tm": 289.15, 
	 "num_atms": 12, 
	 "gaussian": { 
		 "optdone": 1, 
		 "sigma_profile": "yes", 
		 "theory": "DFT", 
		 "functional": "B3LYP", 
		 "basiset": "6-31G**", 
		 "properties": { 
			 "R2extent": 958.7401, 
			 "electric_dipole_moment_norm": 1.57637339802, 
			 "electric_quadrupole_moment_norm": 7.5838784451, 
			 "total_energy": -306.487264123, 
			 "HOMO_LUMO_gap": 0.22956, 
			 "cosmo_polarized_energy": -7.57, 
			 "cosmo_cavitation_energy": 16.21, 
			 "cosmo_dispersion_energy": -11.76, 
			 "cosmo_repulsion_energy": 1.02, 
			 "cosmo_total_nonelectrostatic_energy": 5.47, 
			 "SMD_solvation_energy": 5.02 
		},
		"coords": [
			{
				"x": -1.5448360909,
				"y": -0.4655155238,
				"z": -1.3102928693,
				"element": "C" 
			},
			{
				"x": -0.1240342881,
				"y": 0.0310042663,
				"z": -1.3238240038,
				"element": "C" 
			},
			{
				"x": 0.2257551217,
				"y": 1.3173726037,
				"z": -1.1958889328,
				"element": "C" 
			},
			{
				"x": 0.9099804461,
				"y": -1.0304766951,
				"z": -1.4941900596,
				"element": "C" 
			},
			{
				"x": 2.1856660447,
				"y": -0.5679544223,
				"z": -1.5049860207,
				"element": "O" 
			},
			{
				"x": 0.6536693256,
				"y": -2.2128826342,
				"z": -1.615478552,
				"element": "O" 
			},
			{
				"x": -1.6969817991,
				"y": -1.1878548711,
				"z": -0.50169417,
				"element": "H" 
			},
			{
				"x": -2.24634916,
				"y": 0.3621023113,
				"z": -1.1823629463,
				"element": "H" 
			},
			{
				"x": -1.7822229919,
				"y": -0.9912608456,
				"z": -2.2408873651,
				"element": "H" 
			},
			{
				"x": 1.2638973118,
				"y": 1.6279587646,
				"z": -1.2117730018,
				"element": "H" 
			},
			{
				"x": -0.5260670364,
				"y": 2.0915165988,
				"z": -1.0717388529,
				"element": "H" 
			},
			{
				"x": 2.7457231166,
				"y": -1.3526095526,
				"z": -1.6212832258,
				"element": "H" 
			}
		],
		 "valence_orbital": [ 
			{
				"type": "occ",
				"energy": -0.37579,
				"method": "rhf"
			},
			{
				"type": "occ",
				"energy": -0.37341,
				"method": "rhf"
			},
			{
				"type": "occ",
				"energy": -0.317,
				"method": "rhf"
			},
			{
				"type": "occ",
				"energy": -0.27491,
				"method": "rhf"
			},
			{
				"type": "occ",
				"energy": -0.2729,
				"method": "rhf"
			},
			{
				"type": "unocc",
				"energy": -0.04334,
				"method": "rhf"
			},
			{
				"type": "unocc",
				"energy": 0.07928,
				"method": "rhf"
			},
			{
				"type": "unocc",
				"energy": 0.08244,
				"method": "rhf"
			},
			{
				"type": "unocc",
				"energy": 0.11518,
				"method": "rhf"
			},
			{
				"type": "unocc",
				"energy": 0.13375,
				"method": "rhf"
			}
		],
		"cosmo_sigma_profile": { 
			"-0.025": 0.0,
			"-0.024": 0.0,
			"-0.023": 0.0,
			"-0.022": 0.0,
			"-0.021": 0.0,
			"-0.02": 0.0,
			"-0.019": 0.00448959030348,
			"-0.018": 0.653337005026,
			"-0.017": 0.908020640796,
			"-0.016": 0.941173172386,
			"-0.015": 0.667320014699,
			"-0.014": 0.513886493877,
			"-0.013": 0.674181779205,
			"-0.012": 0.835901386233,
			"-0.011": 0.561689985216,
			"-0.01": 0.795422798493,
			"-0.009": 0.349959985984,
			"-0.008": 0.390672985977,
			"-0.007": 1.5861120959,
			"-0.006": 4.34262133586,
			"-0.005": 6.45229446421,
			"-0.004": 8.95891860602,
			"-0.003": 9.63104171952,
			"-0.002": 13.5161589426,
			"-0.001": 12.8901502417,
			"0.0": 12.2628653014,
			"0.001": 8.29282022627,
			"0.002": 8.77263527319,
			"0.003": 5.89450729755,
			"0.004": 4.73323634913,
			"0.005": 2.72537577172,
			"0.006": 2.48525429353,
			"0.007": 2.94425814941,
			"0.008": 2.9064823012,
			"0.009": 1.92651905202,
			"0.01": 1.67745147718,
			"0.011": 3.12179263369,
			"0.012": 5.01002973826,
			"0.013": 0.664460733457,
			"0.014": 0.0,
			"0.015": 0.0,
			"0.016": 0.0,
			"0.017": 0.0,
			"0.018": 0.0,
			"0.019": 0.0,
			"0.02": 0.0,
			"0.021": 0.0,
			"0.022": 0.0,
			"0.023": 0.0,
			"0.024": 0.0,
			"0.025": 0.0
		}
	}
}
