{
	 "smiles": "COC1=NC=CN=C1N(C(C)=O)S(=O)(=O)C1=CC=C(N)C=C1", 
	 "Tm": 472.15, 
	 "num_atms": 36, 
	 "gaussian": { 
		 "optdone": 1, 
		 "sigma_profile": "yes", 
		 "theory": "DFT", 
		 "functional": "B3LYP", 
		 "basiset": "6-31G**", 
		 "properties": { 
			 "R2extent": 6990.5735, 
			 "electric_dipole_moment_norm": 7.40677650601, 
			 "electric_quadrupole_moment_norm": 32.5080243668, 
			 "total_energy": -1421.8296124, 
			 "HOMO_LUMO_gap": 0.17756, 
			 "cosmo_polarized_energy": -25.38, 
			 "cosmo_cavitation_energy": 41.69, 
			 "cosmo_dispersion_energy": -28.37, 
			 "cosmo_repulsion_energy": 2.13, 
			 "cosmo_total_nonelectrostatic_energy": 15.44, 
			 "SMD_solvation_energy": 5.91 
		},
		"coords": [
			{
				"x": -0.2646148247,
				"y": -1.0286334073,
				"z": 3.1008589338,
				"element": "C" 
			},
			{
				"x": -0.4049137552,
				"y": -0.3419712605,
				"z": 1.8486601681,
				"element": "O" 
			},
			{
				"x": -1.5479113467,
				"y": 0.3433673402,
				"z": 1.6587171185,
				"element": "C" 
			},
			{
				"x": -2.5070995747,
				"y": 0.3016869293,
				"z": 2.5707888387,
				"element": "N" 
			},
			{
				"x": -3.6230010203,
				"y": 1.0003860394,
				"z": 2.30945172,
				"element": "C" 
			},
			{
				"x": -3.770280072,
				"y": 1.7367408889,
				"z": 1.1419472273,
				"element": "C" 
			},
			{
				"x": -2.7893490333,
				"y": 1.7869464191,
				"z": 0.2268879255,
				"element": "N" 
			},
			{
				"x": -1.6901922913,
				"y": 1.1014013753,
				"z": 0.4703548547,
				"element": "C" 
			},
			{
				"x": -0.6272650654,
				"y": 1.1652420585,
				"z": -0.4916780334,
				"element": "N" 
			},
			{
				"x": 0.3441648315,
				"y": 2.1757790221,
				"z": -0.2891504154,
				"element": "C" 
			},
			{
				"x": 1.3670734294,
				"y": 2.4127928342,
				"z": -1.3745699031,
				"element": "C" 
			},
			{
				"x": 0.3230023772,
				"y": 2.8094461765,
				"z": 0.7486630368,
				"element": "O" 
			},
			{
				"x": -0.8438395066,
				"y": 0.2061954471,
				"z": -1.9356449036,
				"element": "S" 
			},
			{
				"x": -1.9935986368,
				"y": -0.6369348912,
				"z": -1.6133945134,
				"element": "O" 
			},
			{
				"x": -0.8504864641,
				"y": 1.0874940263,
				"z": -3.1053122453,
				"element": "O" 
			},
			{
				"x": 0.6234556468,
				"y": -0.7987929115,
				"z": -2.020550926,
				"element": "C" 
			},
			{
				"x": 0.9652119469,
				"y": -1.6447483143,
				"z": -0.9586580961,
				"element": "C" 
			},
			{
				"x": 2.0666466995,
				"y": -2.4788070534,
				"z": -1.0749285674,
				"element": "C" 
			},
			{
				"x": 2.8383261482,
				"y": -2.4963978006,
				"z": -2.2566100793,
				"element": "C" 
			},
			{
				"x": 3.9030663579,
				"y": -3.365588262,
				"z": -2.386483567,
				"element": "N" 
			},
			{
				"x": 2.4724943448,
				"y": -1.6432525927,
				"z": -3.3168675169,
				"element": "C" 
			},
			{
				"x": 1.3731396294,
				"y": -0.8031427937,
				"z": -3.2012308654,
				"element": "C" 
			},
			{
				"x": 0.7230942358,
				"y": -1.4892066133,
				"z": 3.065601366,
				"element": "H" 
			},
			{
				"x": -0.3278822366,
				"y": -0.3266343772,
				"z": 3.9361489739,
				"element": "H" 
			},
			{
				"x": -1.040237544,
				"y": -1.7896353095,
				"z": 3.2201403038,
				"element": "H" 
			},
			{
				"x": -4.4110823407,
				"y": 0.9631732034,
				"z": 3.0578848728,
				"element": "H" 
			},
			{
				"x": -4.6757927288,
				"y": 2.2987849913,
				"z": 0.9325215704,
				"element": "H" 
			},
			{
				"x": 0.8794390738,
				"y": 2.6664225881,
				"z": -2.3187771126,
				"element": "H" 
			},
			{
				"x": 2.0052618173,
				"y": 3.2322822565,
				"z": -1.0450147378,
				"element": "H" 
			},
			{
				"x": 1.9770381922,
				"y": 1.5212087506,
				"z": -1.545015021,
				"element": "H" 
			},
			{
				"x": 0.3858449321,
				"y": -1.6293151601,
				"z": -0.0420382465,
				"element": "H" 
			},
			{
				"x": 2.3379144075,
				"y": -3.1328591263,
				"z": -0.2505149355,
				"element": "H" 
			},
			{
				"x": 4.5814328155,
				"y": -3.1653125292,
				"z": -3.1058191708,
				"element": "H" 
			},
			{
				"x": 4.3001919659,
				"y": -3.7442452883,
				"z": -1.5399866016,
				"element": "H" 
			},
			{
				"x": 3.0533431153,
				"y": -1.6490172582,
				"z": -4.2351774774,
				"element": "H" 
			},
			{
				"x": 1.089904474,
				"y": -0.1470553974,
				"z": -4.0167039747,
				"element": "H" 
			}
		],
		 "valence_orbital": [ 
			{
				"type": "occ",
				"energy": -0.27306,
				"method": "rhf"
			},
			{
				"type": "occ",
				"energy": -0.26191,
				"method": "rhf"
			},
			{
				"type": "occ",
				"energy": -0.25566,
				"method": "rhf"
			},
			{
				"type": "occ",
				"energy": -0.24432,
				"method": "rhf"
			},
			{
				"type": "occ",
				"energy": -0.22759,
				"method": "rhf"
			},
			{
				"type": "unocc",
				"energy": -0.05003,
				"method": "rhf"
			},
			{
				"type": "unocc",
				"energy": -0.0291,
				"method": "rhf"
			},
			{
				"type": "unocc",
				"energy": -0.02157,
				"method": "rhf"
			},
			{
				"type": "unocc",
				"energy": -0.01227,
				"method": "rhf"
			},
			{
				"type": "unocc",
				"energy": 0.00819,
				"method": "rhf"
			}
		],
		"cosmo_sigma_profile": { 
			"-0.025": 0.0,
			"-0.024": 0.0,
			"-0.023": 0.0,
			"-0.022": 0.0,
			"-0.021": 0.0,
			"-0.02": 0.0,
			"-0.019": 0.0,
			"-0.018": 0.0,
			"-0.017": 0.0,
			"-0.016": 0.0,
			"-0.015": 0.0,
			"-0.014": 0.735414450937,
			"-0.013": 3.25371131676,
			"-0.012": 2.64727294245,
			"-0.011": 3.55410764865,
			"-0.01": 3.32287587568,
			"-0.009": 2.67919313265,
			"-0.008": 8.18682707264,
			"-0.007": 11.4950462874,
			"-0.006": 15.6444398006,
			"-0.005": 21.6014010892,
			"-0.004": 24.5704332529,
			"-0.003": 26.0585756869,
			"-0.002": 27.4962628561,
			"-0.001": 22.1037839378,
			"0.0": 19.2015352082,
			"0.001": 15.1238179874,
			"0.002": 16.2156946348,
			"0.003": 20.1081334124,
			"0.004": 13.6895236071,
			"0.005": 11.5847612168,
			"0.006": 9.32456186326,
			"0.007": 9.70734735815,
			"0.008": 9.38492312163,
			"0.009": 8.76892744723,
			"0.01": 13.5848564222,
			"0.011": 9.10722719944,
			"0.012": 3.23035388287,
			"0.013": 0.801659673456,
			"0.014": 0.0479017474032,
			"0.015": 0.0,
			"0.016": 0.0,
			"0.017": 0.0,
			"0.018": 0.0,
			"0.019": 0.0,
			"0.02": 0.0,
			"0.021": 0.0,
			"0.022": 0.0,
			"0.023": 0.0,
			"0.024": 0.0,
			"0.025": 0.0
		}
	}
}
