{
	 "smiles": "FC1=CN=C(NC2CCOCC2)C=C1", 
	 "Tm": 389.15, 
	 "num_atms": 27, 
	 "gaussian": { 
		 "optdone": 1, 
		 "sigma_profile": "yes", 
		 "theory": "DFT", 
		 "functional": "B3LYP", 
		 "basiset": "6-31G**", 
		 "properties": { 
			 "R2extent": 4118.0629, 
			 "electric_dipole_moment_norm": 1.75140200696, 
			 "electric_quadrupole_moment_norm": 13.7156610027, 
			 "total_energy": -673.438451497, 
			 "HOMO_LUMO_gap": 0.17797, 
			 "cosmo_polarized_energy": -9.68, 
			 "cosmo_cavitation_energy": 29.17, 
			 "cosmo_dispersion_energy": -21.68, 
			 "cosmo_repulsion_energy": 1.68, 
			 "cosmo_total_nonelectrostatic_energy": 9.17, 
			 "SMD_solvation_energy": 3.13 
		},
		"coords": [
			{
				"x": 1.694904862,
				"y": -1.9156777522,
				"z": 4.7895564134,
				"element": "F" 
			},
			{
				"x": 1.0034135236,
				"y": -1.7531811973,
				"z": 3.6393021132,
				"element": "C" 
			},
			{
				"x": -0.3833885282,
				"y": -1.8212825549,
				"z": 3.6455380897,
				"element": "C" 
			},
			{
				"x": -1.1145496744,
				"y": -1.6597981022,
				"z": 2.5414174887,
				"element": "N" 
			},
			{
				"x": -0.4888175704,
				"y": -1.4343952333,
				"z": 1.3681956113,
				"element": "C" 
			},
			{
				"x": -1.3424861108,
				"y": -1.3261610607,
				"z": 0.2880710123,
				"element": "N" 
			},
			{
				"x": -1.082915898,
				"y": -0.741384757,
				"z": -1.0244293062,
				"element": "C" 
			},
			{
				"x": -0.2218005832,
				"y": -1.6178930679,
				"z": -1.9542199441,
				"element": "C" 
			},
			{
				"x": -0.2652282993,
				"y": -1.0347176189,
				"z": -3.3857625066,
				"element": "C" 
			},
			{
				"x": -0.5366853476,
				"y": 0.3658495505,
				"z": -3.4046600114,
				"element": "O" 
			},
			{
				"x": 0.1190171156,
				"y": 1.0538959407,
				"z": -2.3473595648,
				"element": "C" 
			},
			{
				"x": -0.5204568947,
				"y": 0.7036583075,
				"z": -0.9873224146,
				"element": "C" 
			},
			{
				"x": 0.9201437933,
				"y": -1.357327715,
				"z": 1.284945296,
				"element": "C" 
			},
			{
				"x": 1.6705741146,
				"y": -1.5162446514,
				"z": 2.4439858872,
				"element": "C" 
			},
			{
				"x": -0.9147756924,
				"y": -2.0064029315,
				"z": 4.5769061802,
				"element": "H" 
			},
			{
				"x": -2.3059188319,
				"y": -1.3259253217,
				"z": 0.5923244339,
				"element": "H" 
			},
			{
				"x": -2.0697150466,
				"y": -0.6876983056,
				"z": -1.4957533191,
				"element": "H" 
			},
			{
				"x": -0.5957277956,
				"y": -2.6462798856,
				"z": -1.9506975951,
				"element": "H" 
			},
			{
				"x": 0.8114424737,
				"y": -1.6592149338,
				"z": -1.5947821908,
				"element": "H" 
			},
			{
				"x": 0.6812333292,
				"y": -1.2434683236,
				"z": -3.9097692793,
				"element": "H" 
			},
			{
				"x": -1.0740174285,
				"y": -1.492780766,
				"z": -3.9645072173,
				"element": "H" 
			},
			{
				"x": 0.026400973,
				"y": 2.1207499977,
				"z": -2.5680270198,
				"element": "H" 
			},
			{
				"x": 1.1948543951,
				"y": 0.8127015766,
				"z": -2.3458353665,
				"element": "H" 
			},
			{
				"x": 0.2239025865,
				"y": 0.806848093,
				"z": -0.1907905266,
				"element": "H" 
			},
			{
				"x": -1.3358977598,
				"y": 1.3954294376,
				"z": -0.7518768541,
				"element": "H" 
			},
			{
				"x": 1.4197180959,
				"y": -1.1876362397,
				"z": 0.3404812289,
				"element": "H" 
			},
			{
				"x": 2.754376199,
				"y": -1.4639624856,
				"z": 2.4265693615,
				"element": "H" 
			}
		],
		 "valence_orbital": [ 
			{
				"type": "occ",
				"energy": -0.29305,
				"method": "rhf"
			},
			{
				"type": "occ",
				"energy": -0.28318,
				"method": "rhf"
			},
			{
				"type": "occ",
				"energy": -0.26107,
				"method": "rhf"
			},
			{
				"type": "occ",
				"energy": -0.25294,
				"method": "rhf"
			},
			{
				"type": "occ",
				"energy": -0.20222,
				"method": "rhf"
			},
			{
				"type": "unocc",
				"energy": -0.02425,
				"method": "rhf"
			},
			{
				"type": "unocc",
				"energy": 0.01404,
				"method": "rhf"
			},
			{
				"type": "unocc",
				"energy": 0.06704,
				"method": "rhf"
			},
			{
				"type": "unocc",
				"energy": 0.07717,
				"method": "rhf"
			},
			{
				"type": "unocc",
				"energy": 0.09655,
				"method": "rhf"
			}
		],
		"cosmo_sigma_profile": { 
			"-0.025": 0.0,
			"-0.024": 0.0,
			"-0.023": 0.0,
			"-0.022": 0.0,
			"-0.021": 0.0,
			"-0.02": 0.0,
			"-0.019": 0.0,
			"-0.018": 0.0,
			"-0.017": 0.0,
			"-0.016": 0.0,
			"-0.015": 0.0,
			"-0.014": 0.0,
			"-0.013": 0.058774382648,
			"-0.012": 0.742333831606,
			"-0.011": 0.854479932683,
			"-0.01": 1.02489139041,
			"-0.009": 0.987306142769,
			"-0.008": 2.67347264331,
			"-0.007": 5.7821179981,
			"-0.006": 7.47436117865,
			"-0.005": 10.8279269603,
			"-0.004": 19.1894090574,
			"-0.003": 30.4360603388,
			"-0.002": 21.9571332172,
			"-0.001": 17.8547571924,
			"0.0": 15.9843263447,
			"0.001": 15.5777534167,
			"0.002": 17.5214805247,
			"0.003": 12.1750889805,
			"0.004": 14.3041306355,
			"0.005": 10.0190425499,
			"0.006": 4.3072218766,
			"0.007": 3.59691238637,
			"0.008": 2.38977664763,
			"0.009": 2.49967065414,
			"0.01": 2.18209781875,
			"0.011": 2.02520395056,
			"0.012": 2.43266219167,
			"0.013": 2.52615063377,
			"0.014": 1.81591150983,
			"0.015": 0.587014660478,
			"0.016": 0.0,
			"0.017": 0.0,
			"0.018": 0.0,
			"0.019": 0.0,
			"0.02": 0.0,
			"0.021": 0.0,
			"0.022": 0.0,
			"0.023": 0.0,
			"0.024": 0.0,
			"0.025": 0.0
		}
	}
}
