{
	 "smiles": "OC1=C(C=NNC(=O)C2=CC=NC=C2)C2=C(C=CC=C2)C=C1", 
	 "Tm": 540.15, 
	 "num_atms": 35, 
	 "gaussian": { 
		 "optdone": 1, 
		 "sigma_profile": "yes", 
		 "theory": "DFT", 
		 "functional": "B3LYP", 
		 "basiset": "6-31G**", 
		 "properties": { 
			 "R2extent": 8253.3061, 
			 "electric_dipole_moment_norm": 4.72058058294, 
			 "electric_quadrupole_moment_norm": 11.8154769912, 
			 "total_energy": -970.316333521, 
			 "HOMO_LUMO_gap": 0.15264, 
			 "cosmo_polarized_energy": -20.3, 
			 "cosmo_cavitation_energy": 40.22, 
			 "cosmo_dispersion_energy": -28.18, 
			 "cosmo_repulsion_energy": 2.12, 
			 "cosmo_total_nonelectrostatic_energy": 14.17, 
			 "SMD_solvation_energy": 5.44 
		},
		"coords": [
			{
				"x": -0.2960339918,
				"y": -0.7280020428,
				"z": -2.5024350665,
				"element": "O" 
			},
			{
				"x": 0.5433340307,
				"y": -1.1203331048,
				"z": -1.505851027,
				"element": "C" 
			},
			{
				"x": 0.1375239858,
				"y": -1.8882900248,
				"z": -0.4147374567,
				"element": "C" 
			},
			{
				"x": -1.2604633644,
				"y": -2.3716438785,
				"z": -0.3206523441,
				"element": "C" 
			},
			{
				"x": -2.3508558251,
				"y": -1.6796661494,
				"z": -0.3180355734,
				"element": "N" 
			},
			{
				"x": -2.2443214955,
				"y": -0.321388216,
				"z": -0.3064264973,
				"element": "N" 
			},
			{
				"x": -3.3809704944,
				"y": 0.4698766939,
				"z": -0.3972608477,
				"element": "C" 
			},
			{
				"x": -4.4858387995,
				"y": 0.0312226443,
				"z": -0.6580165994,
				"element": "O" 
			},
			{
				"x": -3.1326629335,
				"y": 1.9403543576,
				"z": -0.1845706199,
				"element": "C" 
			},
			{
				"x": -4.0517809314,
				"y": 2.8374360089,
				"z": -0.7380181324,
				"element": "C" 
			},
			{
				"x": -3.854615838,
				"y": 4.2034784995,
				"z": -0.548795635,
				"element": "C" 
			},
			{
				"x": -2.8337359424,
				"y": 4.719270568,
				"z": 0.1504476822,
				"element": "N" 
			},
			{
				"x": -1.9704959223,
				"y": 3.8541938579,
				"z": 0.6937104023,
				"element": "C" 
			},
			{
				"x": -2.0700114494,
				"y": 2.4680632029,
				"z": 0.5582860471,
				"element": "C" 
			},
			{
				"x": 1.1167121511,
				"y": -2.2992088767,
				"z": 0.5542262218,
				"element": "C" 
			},
			{
				"x": 2.4809231166,
				"y": -1.8949934412,
				"z": 0.3930258298,
				"element": "C" 
			},
			{
				"x": 3.4453229002,
				"y": -2.2983340848,
				"z": 1.3516057606,
				"element": "C" 
			},
			{
				"x": 3.0877255279,
				"y": -3.072268816,
				"z": 2.4339101546,
				"element": "C" 
			},
			{
				"x": 1.7402206604,
				"y": -3.4636296516,
				"z": 2.6012154173,
				"element": "C" 
			},
			{
				"x": 0.7775266886,
				"y": -3.0822843826,
				"z": 1.6896207404,
				"element": "C" 
			},
			{
				"x": 2.8312950141,
				"y": -1.0897616395,
				"z": -0.7271164225,
				"element": "C" 
			},
			{
				"x": 1.8940110871,
				"y": -0.7100812074,
				"z": -1.6516175203,
				"element": "C" 
			},
			{
				"x": -1.1604594821,
				"y": -1.1520778657,
				"z": -2.3946923221,
				"element": "H" 
			},
			{
				"x": -1.424928638,
				"y": -3.4464982627,
				"z": -0.2517894262,
				"element": "H" 
			},
			{
				"x": -1.3314151963,
				"y": 0.108763626,
				"z": -0.1879942118,
				"element": "H" 
			},
			{
				"x": -4.8984371982,
				"y": 2.4565683784,
				"z": -1.298054921,
				"element": "H" 
			},
			{
				"x": -4.5510085531,
				"y": 4.9210700375,
				"z": -0.978259545,
				"element": "H" 
			},
			{
				"x": -1.1564493511,
				"y": 4.2865976021,
				"z": 1.2726723213,
				"element": "H" 
			},
			{
				"x": -1.3451211521,
				"y": 1.832364015,
				"z": 1.0579027237,
				"element": "H" 
			},
			{
				"x": 4.4767592448,
				"y": -1.9832089409,
				"z": 1.2156825717,
				"element": "H" 
			},
			{
				"x": 3.8343498866,
				"y": -3.3766684544,
				"z": 3.1610108535,
				"element": "H" 
			},
			{
				"x": 1.458094906,
				"y": -4.0651647953,
				"z": 3.4604682486,
				"element": "H" 
			},
			{
				"x": -0.2563721785,
				"y": -3.3731123262,
				"z": 1.8465356096,
				"element": "H" 
			},
			{
				"x": 3.8665712919,
				"y": -0.7816468091,
				"z": -0.8463713214,
				"element": "H" 
			},
			{
				"x": 2.1525082451,
				"y": -0.1113965213,
				"z": -2.5184250949,
				"element": "H" 
			}
		],
		 "valence_orbital": [ 
			{
				"type": "occ",
				"energy": -0.26927,
				"method": "rhf"
			},
			{
				"type": "occ",
				"energy": -0.2627,
				"method": "rhf"
			},
			{
				"type": "occ",
				"energy": -0.25776,
				"method": "rhf"
			},
			{
				"type": "occ",
				"energy": -0.24676,
				"method": "rhf"
			},
			{
				"type": "occ",
				"energy": -0.22335,
				"method": "rhf"
			},
			{
				"type": "unocc",
				"energy": -0.07071,
				"method": "rhf"
			},
			{
				"type": "unocc",
				"energy": -0.05422,
				"method": "rhf"
			},
			{
				"type": "unocc",
				"energy": -0.02291,
				"method": "rhf"
			},
			{
				"type": "unocc",
				"energy": -0.02051,
				"method": "rhf"
			},
			{
				"type": "unocc",
				"energy": -0.01798,
				"method": "rhf"
			}
		],
		"cosmo_sigma_profile": { 
			"-0.025": 0.0,
			"-0.024": 0.0,
			"-0.023": 0.0,
			"-0.022": 0.0,
			"-0.021": 0.0,
			"-0.02": 0.0,
			"-0.019": 0.0,
			"-0.018": 0.0,
			"-0.017": 0.0,
			"-0.016": 0.0721455981237,
			"-0.015": 0.774080908026,
			"-0.014": 0.997706415268,
			"-0.013": 1.4800415885,
			"-0.012": 1.40607777547,
			"-0.011": 2.80772667213,
			"-0.01": 2.64355372334,
			"-0.009": 2.9717498626,
			"-0.008": 4.11851745326,
			"-0.007": 13.4920027655,
			"-0.006": 23.8619342981,
			"-0.005": 21.6696227847,
			"-0.004": 23.5357585199,
			"-0.003": 19.1615864139,
			"-0.002": 20.0576126028,
			"-0.001": 17.4437985423,
			"0.0": 19.993314111,
			"0.001": 27.7156090346,
			"0.002": 23.4972972059,
			"0.003": 21.7216285294,
			"0.004": 18.4231600697,
			"0.005": 13.0002993532,
			"0.006": 4.27089573397,
			"0.007": 3.4532023017,
			"0.008": 5.31440725334,
			"0.009": 4.42264965889,
			"0.01": 4.70369812212,
			"0.011": 4.32912368502,
			"0.012": 6.557494274,
			"0.013": 3.66964283569,
			"0.014": 1.82492166636,
			"0.015": 3.00814966821,
			"0.016": 1.44067989434,
			"0.017": 0.186365509616,
			"0.018": 0.0,
			"0.019": 0.0,
			"0.02": 0.0,
			"0.021": 0.0,
			"0.022": 0.0,
			"0.023": 0.0,
			"0.024": 0.0,
			"0.025": 0.0
		}
	}
}
