{
	 "smiles": "CC(C)(O)CCC1=CC=CC=C1", 
	 "Tm": 297.65, 
	 "num_atms": 28, 
	 "gaussian": { 
		 "optdone": 1, 
		 "sigma_profile": "yes", 
		 "theory": "DFT", 
		 "functional": "B3LYP", 
		 "basiset": "6-31G**", 
		 "properties": { 
			 "R2extent": 3081.5362, 
			 "electric_dipole_moment_norm": 1.6110043265, 
			 "electric_quadrupole_moment_norm": 11.3234280538, 
			 "total_energy": -504.049439125, 
			 "HOMO_LUMO_gap": 0.24005, 
			 "cosmo_polarized_energy": -8.53, 
			 "cosmo_cavitation_energy": 29.96, 
			 "cosmo_dispersion_energy": -21.0, 
			 "cosmo_repulsion_energy": 1.67, 
			 "cosmo_total_nonelectrostatic_energy": 10.64, 
			 "SMD_solvation_energy": 4.88 
		},
		"coords": [
			{
				"x": -0.659376053,
				"y": -2.2550521293,
				"z": -2.1584013618,
				"element": "C" 
			},
			{
				"x": -1.1131711051,
				"y": -0.8067286121,
				"z": -1.9185889492,
				"element": "C" 
			},
			{
				"x": -0.5072126584,
				"y": 0.1381951838,
				"z": -2.9679411065,
				"element": "C" 
			},
			{
				"x": -2.547399144,
				"y": -0.7426711481,
				"z": -1.999083229,
				"element": "O" 
			},
			{
				"x": -0.8203016385,
				"y": -0.3385759205,
				"z": -0.4793748071,
				"element": "C" 
			},
			{
				"x": 0.6628260243,
				"y": -0.2933376721,
				"z": -0.0625878127,
				"element": "C" 
			},
			{
				"x": 0.8410481169,
				"y": 0.178913327,
				"z": 1.3661063236,
				"element": "C" 
			},
			{
				"x": 0.9843183604,
				"y": 1.5417175547,
				"z": 1.660190053,
				"element": "C" 
			},
			{
				"x": 1.1165141099,
				"y": 1.9824015119,
				"z": 2.9777477085,
				"element": "C" 
			},
			{
				"x": 1.1079948991,
				"y": 1.0629481181,
				"z": 4.0282624704,
				"element": "C" 
			},
			{
				"x": 0.9670915921,
				"y": -0.2978414791,
				"z": 3.7499584874,
				"element": "C" 
			},
			{
				"x": 0.8352924508,
				"y": -0.7328648172,
				"z": 2.4304870448,
				"element": "C" 
			},
			{
				"x": -1.1162891184,
				"y": -2.9230791959,
				"z": -1.4220219804,
				"element": "H" 
			},
			{
				"x": 0.4283264463,
				"y": -2.3627589682,
				"z": -2.1011254645,
				"element": "H" 
			},
			{
				"x": -0.966706521,
				"y": -2.589904676,
				"z": -3.1568025284,
				"element": "H" 
			},
			{
				"x": -0.8563213501,
				"y": 1.1621154969,
				"z": -2.8036386169,
				"element": "H" 
			},
			{
				"x": 0.587095111,
				"y": 0.1339251665,
				"z": -2.9460697382,
				"element": "H" 
			},
			{
				"x": -0.8129914989,
				"y": -0.1666520511,
				"z": -3.976381239,
				"element": "H" 
			},
			{
				"x": -2.8026385864,
				"y": -1.0266999666,
				"z": -2.8872945555,
				"element": "H" 
			},
			{
				"x": -1.2620141258,
				"y": 0.6575760903,
				"z": -0.3590280509,
				"element": "H" 
			},
			{
				"x": -1.3690052721,
				"y": -0.9996417586,
				"z": 0.2016823816,
				"element": "H" 
			},
			{
				"x": 1.1095301042,
				"y": -1.2886115941,
				"z": -0.1701682169,
				"element": "H" 
			},
			{
				"x": 1.2170009576,
				"y": 0.3735851114,
				"z": -0.733263447,
				"element": "H" 
			},
			{
				"x": 0.9960293753,
				"y": 2.2639624949,
				"z": 0.8468850295,
				"element": "H" 
			},
			{
				"x": 1.2302781525,
				"y": 3.04329109,
				"z": 3.1833723451,
				"element": "H" 
			},
			{
				"x": 1.2139631389,
				"y": 1.4034712587,
				"z": 5.0543134737,
				"element": "H" 
			},
			{
				"x": 0.963860842,
				"y": -1.022011421,
				"z": 4.560070005,
				"element": "H" 
			},
			{
				"x": 0.7300573905,
				"y": -1.7951709944,
				"z": 2.2214957814,
				"element": "H" 
			}
		],
		 "valence_orbital": [ 
			{
				"type": "occ",
				"energy": -0.32501,
				"method": "rhf"
			},
			{
				"type": "occ",
				"energy": -0.30621,
				"method": "rhf"
			},
			{
				"type": "occ",
				"energy": -0.26174,
				"method": "rhf"
			},
			{
				"type": "occ",
				"energy": -0.2439,
				"method": "rhf"
			},
			{
				"type": "occ",
				"energy": -0.23572,
				"method": "rhf"
			},
			{
				"type": "unocc",
				"energy": 0.00433,
				"method": "rhf"
			},
			{
				"type": "unocc",
				"energy": 0.00495,
				"method": "rhf"
			},
			{
				"type": "unocc",
				"energy": 0.06956,
				"method": "rhf"
			},
			{
				"type": "unocc",
				"energy": 0.09571,
				"method": "rhf"
			},
			{
				"type": "unocc",
				"energy": 0.10963,
				"method": "rhf"
			}
		],
		"cosmo_sigma_profile": { 
			"-0.025": 0.0,
			"-0.024": 0.0,
			"-0.023": 0.0,
			"-0.022": 0.0,
			"-0.021": 0.0,
			"-0.02": 0.0,
			"-0.019": 0.0,
			"-0.018": 0.0,
			"-0.017": 0.0,
			"-0.016": 0.0,
			"-0.015": 0.0995774372837,
			"-0.014": 0.797922217853,
			"-0.013": 1.02800459152,
			"-0.012": 0.507130621865,
			"-0.011": 1.06379420131,
			"-0.01": 1.29011287189,
			"-0.009": 1.14000492397,
			"-0.008": 0.920854143847,
			"-0.007": 0.841590578037,
			"-0.006": 2.5711420284,
			"-0.005": 10.084657234,
			"-0.004": 17.0684491023,
			"-0.003": 29.721007917,
			"-0.002": 28.3178503566,
			"-0.001": 27.2194997069,
			"0.0": 21.5530263272,
			"0.001": 21.8559439242,
			"0.002": 13.223007279,
			"0.003": 9.22190731739,
			"0.004": 9.09798696742,
			"0.005": 9.11239554544,
			"0.006": 10.0734957941,
			"0.007": 6.16518680224,
			"0.008": 1.24950138225,
			"0.009": 0.759753689763,
			"0.01": 1.28392770378,
			"0.011": 1.68772668072,
			"0.012": 1.07186323919,
			"0.013": 1.39523575619,
			"0.014": 1.8044549668,
			"0.015": 1.41554944352,
			"0.016": 0.0,
			"0.017": 0.0,
			"0.018": 0.0,
			"0.019": 0.0,
			"0.02": 0.0,
			"0.021": 0.0,
			"0.022": 0.0,
			"0.023": 0.0,
			"0.024": 0.0,
			"0.025": 0.0
		}
	}
}
