{
	 "smiles": "CC1=CC(I)=C(N)C(F)=C1", 
	 "Tm": 306.15, 
	 "num_atms": 17, 
	 "gaussian": { 
		 "optdone": 1, 
		 "sigma_profile": "yes", 
		 "theory": "DFT", 
		 "functional": "B3LYP", 
		 "basiset": "6-31G**", 
		 "properties": { 
			 "R2extent": 2038.8317, 
			 "electric_dipole_moment_norm": 1.19453386725, 
			 "electric_quadrupole_moment_norm": 9.23623676234, 
			 "total_energy": -436.944489469, 
			 "HOMO_LUMO_gap": 0.16953, 
			 "cosmo_polarized_energy": -6.16, 
			 "cosmo_cavitation_energy": 24.0, 
			 "cosmo_dispersion_energy": -19.19, 
			 "cosmo_repulsion_energy": 1.5, 
			 "cosmo_total_nonelectrostatic_energy": 6.31, 
			 "SMD_solvation_energy": 3.67 
		},
		"coords": [
			{
				"x": -0.6016036367,
				"y": -0.4434104669,
				"z": -2.1664146271,
				"element": "C" 
			},
			{
				"x": -0.7360283626,
				"y": -0.0081762576,
				"z": -0.7262612684,
				"element": "C" 
			},
			{
				"x": -1.1169272204,
				"y": 1.2933246036,
				"z": -0.3936023436,
				"element": "C" 
			},
			{
				"x": -1.2302754398,
				"y": 1.6947796777,
				"z": 0.9416436074,
				"element": "C" 
			},
			{
				"x": -1.8288497027,
				"y": 3.6900055486,
				"z": 1.3568136073,
				"element": "I" 
			},
			{
				"x": -0.9714030488,
				"y": 0.8181712129,
				"z": 2.0064811688,
				"element": "C" 
			},
			{
				"x": -1.0025294486,
				"y": 1.1532532514,
				"z": 3.3488378658,
				"element": "N" 
			},
			{
				"x": -0.5984459337,
				"y": -0.4866004598,
				"z": 1.6296246241,
				"element": "C" 
			},
			{
				"x": -0.3630606585,
				"y": -1.361198473,
				"z": 2.6435296721,
				"element": "F" 
			},
			{
				"x": -0.4782672857,
				"y": -0.9064727559,
				"z": 0.3223388301,
				"element": "C" 
			},
			{
				"x": 0.4310411135,
				"y": -0.723578486,
				"z": -2.4056889068,
				"element": "H" 
			},
			{
				"x": -1.2307267147,
				"y": -1.3145096292,
				"z": -2.382431197,
				"element": "H" 
			},
			{
				"x": -0.8947297918,
				"y": 0.3570811825,
				"z": -2.8508592389,
				"element": "H" 
			},
			{
				"x": -1.3282440403,
				"y": 2.0074929626,
				"z": -1.1819607407,
				"element": "H" 
			},
			{
				"x": -1.5971715496,
				"y": 1.9311488696,
				"z": 3.5984733177,
				"element": "H" 
			},
			{
				"x": -1.0676081915,
				"y": 0.3633837786,
				"z": 3.9746171495,
				"element": "H" 
			},
			{
				"x": -0.1869700881,
				"y": -1.9344945592,
				"z": 0.1307584797,
				"element": "H" 
			}
		],
		 "valence_orbital": [ 
			{
				"type": "occ",
				"energy": -0.31385,
				"method": "rhf"
			},
			{
				"type": "occ",
				"energy": -0.29002,
				"method": "rhf"
			},
			{
				"type": "occ",
				"energy": -0.27276,
				"method": "rhf"
			},
			{
				"type": "occ",
				"energy": -0.23951,
				"method": "rhf"
			},
			{
				"type": "occ",
				"energy": -0.20798,
				"method": "rhf"
			},
			{
				"type": "unocc",
				"energy": -0.03845,
				"method": "rhf"
			},
			{
				"type": "unocc",
				"energy": -0.01124,
				"method": "rhf"
			},
			{
				"type": "unocc",
				"energy": 0.00658,
				"method": "rhf"
			},
			{
				"type": "unocc",
				"energy": 0.0366,
				"method": "rhf"
			},
			{
				"type": "unocc",
				"energy": 0.05143,
				"method": "rhf"
			}
		],
		"cosmo_sigma_profile": { 
			"-0.025": 0.0,
			"-0.024": 0.0,
			"-0.023": 0.0,
			"-0.022": 0.0,
			"-0.021": 0.0,
			"-0.02": 0.0,
			"-0.019": 0.0,
			"-0.018": 0.0,
			"-0.017": 0.0,
			"-0.016": 0.0,
			"-0.015": 0.0,
			"-0.014": 0.0,
			"-0.013": 0.166055370144,
			"-0.012": 1.35941682102,
			"-0.011": 1.48867075553,
			"-0.01": 1.75464377217,
			"-0.009": 2.35512663051,
			"-0.008": 2.32531325034,
			"-0.007": 4.0841101418,
			"-0.006": 6.0545988746,
			"-0.005": 8.46124380151,
			"-0.004": 11.6061170321,
			"-0.003": 13.7803537604,
			"-0.002": 13.5310013533,
			"-0.001": 14.1144473019,
			"0.0": 17.0268696119,
			"0.001": 17.1290086146,
			"0.002": 17.1969748207,
			"0.003": 21.6112093795,
			"0.004": 25.6119406499,
			"0.005": 11.105264731,
			"0.006": 0.669889634562,
			"0.007": 0.96692914592,
			"0.008": 0.900959045145,
			"0.009": 0.787554365685,
			"0.01": 0.424903575111,
			"0.011": 0.497917505891,
			"0.012": 0.572182640995,
			"0.013": 0.573590013093,
			"0.014": 0.032222579779,
			"0.015": 0.0,
			"0.016": 0.0,
			"0.017": 0.0,
			"0.018": 0.0,
			"0.019": 0.0,
			"0.02": 0.0,
			"0.021": 0.0,
			"0.022": 0.0,
			"0.023": 0.0,
			"0.024": 0.0,
			"0.025": 0.0
		}
	}
}
