{
	 "smiles": "OC(=O)CC1=CNC2=C1C=C(Cl)C=C2", 
	 "Tm": 431.15, 
	 "num_atms": 22, 
	 "gaussian": { 
		 "optdone": 1, 
		 "sigma_profile": "yes", 
		 "theory": "DFT", 
		 "functional": "B3LYP", 
		 "basiset": "6-31G**", 
		 "properties": { 
			 "R2extent": 4089.1555, 
			 "electric_dipole_moment_norm": 7.6464075918, 
			 "electric_quadrupole_moment_norm": 17.1400629596, 
			 "total_energy": -1051.29331819, 
			 "HOMO_LUMO_gap": 0.19042, 
			 "cosmo_polarized_energy": -19.95, 
			 "cosmo_cavitation_energy": 28.63, 
			 "cosmo_dispersion_energy": -20.69, 
			 "cosmo_repulsion_energy": 1.65, 
			 "cosmo_total_nonelectrostatic_energy": 9.58, 
			 "SMD_solvation_energy": 5.51 
		},
		"coords": [
			{
				"x": -0.6289687712,
				"y": -2.7889897665,
				"z": 1.2924075583,
				"element": "O" 
			},
			{
				"x": -0.440933506,
				"y": -3.540590766,
				"z": 0.184060628,
				"element": "C" 
			},
			{
				"x": 0.0737335981,
				"y": -4.628990866,
				"z": 0.2441528541,
				"element": "O" 
			},
			{
				"x": -0.9748726011,
				"y": -2.9413598503,
				"z": -1.1289913419,
				"element": "C" 
			},
			{
				"x": -1.1024816186,
				"y": -1.4467751387,
				"z": -1.1635259881,
				"element": "C" 
			},
			{
				"x": -2.2648813637,
				"y": -0.713438733,
				"z": -1.0674672322,
				"element": "C" 
			},
			{
				"x": -1.9836212941,
				"y": 0.6336058563,
				"z": -1.1540445276,
				"element": "N" 
			},
			{
				"x": -0.6222131341,
				"y": 0.8055151078,
				"z": -1.3104392942,
				"element": "C" 
			},
			{
				"x": -0.032837642,
				"y": -0.4868634778,
				"z": -1.3189886653,
				"element": "C" 
			},
			{
				"x": 1.3599082069,
				"y": -0.6092429531,
				"z": -1.4658274473,
				"element": "C" 
			},
			{
				"x": 2.1026689468,
				"y": 0.5537869384,
				"z": -1.6004625663,
				"element": "C" 
			},
			{
				"x": 3.8495950118,
				"y": 0.4407419682,
				"z": -1.7907621279,
				"element": "Cl" 
			},
			{
				"x": 1.5128488,
				"y": 1.8336309476,
				"z": -1.5901172563,
				"element": "C" 
			},
			{
				"x": 0.138830924,
				"y": 1.9711734239,
				"z": -1.443408644,
				"element": "C" 
			},
			{
				"x": -1.0092002595,
				"y": -1.9349446136,
				"z": 1.0247559624,
				"element": "H" 
			},
			{
				"x": -1.9543428065,
				"y": -3.4061095243,
				"z": -1.2976032322,
				"element": "H" 
			},
			{
				"x": -0.3224030654,
				"y": -3.3116273919,
				"z": -1.9250265131,
				"element": "H" 
			},
			{
				"x": -3.2849490207,
				"y": -1.0573012091,
				"z": -0.962836378,
				"element": "H" 
			},
			{
				"x": -2.6661994802,
				"y": 1.3730634742,
				"z": -1.1154749988,
				"element": "H" 
			},
			{
				"x": 1.8469952701,
				"y": -1.5782436261,
				"z": -1.4727018386,
				"element": "H" 
			},
			{
				"x": 2.14259957,
				"y": 2.7091970532,
				"z": -1.6978470169,
				"element": "H" 
			},
			{
				"x": -0.3202757647,
				"y": 2.9551631471,
				"z": -1.4345519341,
				"element": "H" 
			}
		],
		 "valence_orbital": [ 
			{
				"type": "occ",
				"energy": -0.30712,
				"method": "rhf"
			},
			{
				"type": "occ",
				"energy": -0.30218,
				"method": "rhf"
			},
			{
				"type": "occ",
				"energy": -0.2657,
				"method": "rhf"
			},
			{
				"type": "occ",
				"energy": -0.2373,
				"method": "rhf"
			},
			{
				"type": "occ",
				"energy": -0.22603,
				"method": "rhf"
			},
			{
				"type": "unocc",
				"energy": -0.03561,
				"method": "rhf"
			},
			{
				"type": "unocc",
				"energy": 0.00067,
				"method": "rhf"
			},
			{
				"type": "unocc",
				"energy": 0.01639,
				"method": "rhf"
			},
			{
				"type": "unocc",
				"energy": 0.03014,
				"method": "rhf"
			},
			{
				"type": "unocc",
				"energy": 0.03685,
				"method": "rhf"
			}
		],
		"cosmo_sigma_profile": { 
			"-0.025": 0.0,
			"-0.024": 0.0,
			"-0.023": 0.0,
			"-0.022": 0.0,
			"-0.021": 0.0,
			"-0.02": 0.0,
			"-0.019": 0.0,
			"-0.018": 0.0,
			"-0.017": 0.0,
			"-0.016": 1.37920082982,
			"-0.015": 1.53044537776,
			"-0.014": 2.1119315313,
			"-0.013": 1.96722606898,
			"-0.012": 1.1096177963,
			"-0.011": 2.0357210234,
			"-0.01": 2.9773286761,
			"-0.009": 4.71363508576,
			"-0.008": 7.1087144113,
			"-0.007": 11.8738577809,
			"-0.006": 14.4929359425,
			"-0.005": 12.0146302083,
			"-0.004": 9.85496328667,
			"-0.003": 11.0800737615,
			"-0.002": 9.00649742795,
			"-0.001": 9.37575505586,
			"0.0": 10.6815327757,
			"0.001": 11.4814012705,
			"0.002": 15.355853396,
			"0.003": 20.198223766,
			"0.004": 22.5824238593,
			"0.005": 16.6978093087,
			"0.006": 4.72129306635,
			"0.007": 2.09670001813,
			"0.008": 2.3181931868,
			"0.009": 3.49476392528,
			"0.01": 4.05842881427,
			"0.011": 4.96588417477,
			"0.012": 5.97672479893,
			"0.013": 3.62779925175,
			"0.014": 0.364126471083,
			"0.015": 0.0,
			"0.016": 0.0,
			"0.017": 0.0,
			"0.018": 0.0,
			"0.019": 0.0,
			"0.02": 0.0,
			"0.021": 0.0,
			"0.022": 0.0,
			"0.023": 0.0,
			"0.024": 0.0,
			"0.025": 0.0
		}
	}
}
