{
	 "smiles": "NC1=CC=CC(=C1)C1=NN=NN1", 
	 "Tm": 476.65, 
	 "num_atms": 19, 
	 "gaussian": { 
		 "optdone": 1, 
		 "sigma_profile": "yes", 
		 "theory": "DFT", 
		 "functional": "B3LYP", 
		 "basiset": "6-31G**", 
		 "properties": { 
			 "R2extent": 2677.4974, 
			 "electric_dipole_moment_norm": 6.11061321718, 
			 "electric_quadrupole_moment_norm": 21.0356671855, 
			 "total_energy": -544.673634085, 
			 "HOMO_LUMO_gap": 0.17054, 
			 "cosmo_polarized_energy": -20.99, 
			 "cosmo_cavitation_energy": 23.93, 
			 "cosmo_dispersion_energy": -18.0, 
			 "cosmo_repulsion_energy": 1.42, 
			 "cosmo_total_nonelectrostatic_energy": 7.35, 
			 "SMD_solvation_energy": 2.25 
		},
		"coords": [
			{
				"x": -0.4574049496,
				"y": -3.4792862651,
				"z": 1.9568671959,
				"element": "N" 
			},
			{
				"x": -0.9568616351,
				"y": -2.5094648732,
				"z": 1.0955971315,
				"element": "C" 
			},
			{
				"x": -2.3109678584,
				"y": -2.1268012904,
				"z": 1.1496084295,
				"element": "C" 
			},
			{
				"x": -2.7914707437,
				"y": -1.1173214255,
				"z": 0.3210354382,
				"element": "C" 
			},
			{
				"x": -1.9480581119,
				"y": -0.4633923762,
				"z": -0.5758727861,
				"element": "C" 
			},
			{
				"x": -0.5961079315,
				"y": -0.8352161916,
				"z": -0.6352747703,
				"element": "C" 
			},
			{
				"x": -0.1076894257,
				"y": -1.8513598692,
				"z": 0.19361152,
				"element": "C" 
			},
			{
				"x": 0.3402895116,
				"y": -0.1887516909,
				"z": -1.5573746051,
				"element": "C" 
			},
			{
				"x": 1.5965154266,
				"y": -0.548567326,
				"z": -1.7873167543,
				"element": "N" 
			},
			{
				"x": 2.0890488999,
				"y": 0.3219526102,
				"z": -2.7041637358,
				"element": "N" 
			},
			{
				"x": 1.2002677976,
				"y": 1.1960040902,
				"z": -3.0478395086,
				"element": "N" 
			},
			{
				"x": 0.0901235183,
				"y": 0.89018208,
				"z": -2.3364933822,
				"element": "N" 
			},
			{
				"x": -1.1299678716,
				"y": -4.1395488273,
				"z": 2.3195463745,
				"element": "H" 
			},
			{
				"x": 0.4071035715,
				"y": -3.9180834002,
				"z": 1.6735184931,
				"element": "H" 
			},
			{
				"x": -2.9805985605,
				"y": -2.6237028159,
				"z": 1.8468215056,
				"element": "H" 
			},
			{
				"x": -3.8401907036,
				"y": -0.8400448843,
				"z": 0.3729133681,
				"element": "H" 
			},
			{
				"x": -2.3489160568,
				"y": 0.3102335029,
				"z": -1.2236167331,
				"element": "H" 
			},
			{
				"x": 0.9419978845,
				"y": -2.1193216304,
				"z": 0.1279381399,
				"element": "H" 
			},
			{
				"x": -0.7387127617,
				"y": 1.4578905829,
				"z": -2.4283053209,
				"element": "H" 
			}
		],
		 "valence_orbital": [ 
			{
				"type": "occ",
				"energy": -0.3032,
				"method": "rhf"
			},
			{
				"type": "occ",
				"energy": -0.29339,
				"method": "rhf"
			},
			{
				"type": "occ",
				"energy": -0.27866,
				"method": "rhf"
			},
			{
				"type": "occ",
				"energy": -0.25027,
				"method": "rhf"
			},
			{
				"type": "occ",
				"energy": -0.21868,
				"method": "rhf"
			},
			{
				"type": "unocc",
				"energy": -0.04814,
				"method": "rhf"
			},
			{
				"type": "unocc",
				"energy": -0.00725,
				"method": "rhf"
			},
			{
				"type": "unocc",
				"energy": 0.00874,
				"method": "rhf"
			},
			{
				"type": "unocc",
				"energy": 0.05036,
				"method": "rhf"
			},
			{
				"type": "unocc",
				"energy": 0.05999,
				"method": "rhf"
			}
		],
		"cosmo_sigma_profile": { 
			"-0.025": 0.0,
			"-0.024": 0.0,
			"-0.023": 0.0,
			"-0.022": 0.0,
			"-0.021": 0.0,
			"-0.02": 0.0,
			"-0.019": 0.729110770262,
			"-0.018": 1.73744930554,
			"-0.017": 1.26349900278,
			"-0.016": 1.04072938683,
			"-0.015": 1.41438038492,
			"-0.014": 1.56870021253,
			"-0.013": 1.89057225526,
			"-0.012": 4.46731890103,
			"-0.011": 2.83561366791,
			"-0.01": 4.81422308916,
			"-0.009": 4.9141939264,
			"-0.008": 4.16405419414,
			"-0.007": 5.9812076524,
			"-0.006": 6.88693755698,
			"-0.005": 7.81512074895,
			"-0.004": 9.63260239304,
			"-0.003": 9.81247617447,
			"-0.002": 8.4290915036,
			"-0.001": 8.0217289405,
			"0.0": 7.81794539859,
			"0.001": 8.68750621185,
			"0.002": 9.96465345575,
			"0.003": 10.6496211246,
			"0.004": 14.0449047178,
			"0.005": 12.562473802,
			"0.006": 4.35681165774,
			"0.007": 4.50325484499,
			"0.008": 6.05631220765,
			"0.009": 4.99703850966,
			"0.01": 6.10435672442,
			"0.011": 5.28460798004,
			"0.012": 4.2596572315,
			"0.013": 3.13201375822,
			"0.014": 1.92722766076,
			"0.015": 0.0995991496776,
			"0.016": 0.0,
			"0.017": 0.0,
			"0.018": 0.0,
			"0.019": 0.0,
			"0.02": 0.0,
			"0.021": 0.0,
			"0.022": 0.0,
			"0.023": 0.0,
			"0.024": 0.0,
			"0.025": 0.0
		}
	}
}
