{
	 "smiles": "CN(C)S(=O)(=O)C1=CC=C(N)C=C1", 
	 "Tm": 413.15, 
	 "num_atms": 25, 
	 "gaussian": { 
		 "optdone": 1, 
		 "sigma_profile": "yes", 
		 "theory": "DFT", 
		 "functional": "B3LYP", 
		 "basiset": "6-31G**", 
		 "properties": { 
			 "R2extent": 3312.0654, 
			 "electric_dipole_moment_norm": 6.81124254523, 
			 "electric_quadrupole_moment_norm": 27.3793986375, 
			 "total_energy": -970.153095785, 
			 "HOMO_LUMO_gap": 0.20165, 
			 "cosmo_polarized_energy": -19.03, 
			 "cosmo_cavitation_energy": 29.12, 
			 "cosmo_dispersion_energy": -21.42, 
			 "cosmo_repulsion_energy": 1.64, 
			 "cosmo_total_nonelectrostatic_energy": 9.34, 
			 "SMD_solvation_energy": 3.39 
		},
		"coords": [
			{
				"x": 1.6944976145,
				"y": 1.6763413456,
				"z": 0.8883896867,
				"element": "C" 
			},
			{
				"x": 2.0901927998,
				"y": 0.7647865284,
				"z": -0.1863819859,
				"element": "N" 
			},
			{
				"x": 2.3155112646,
				"y": -0.618418268,
				"z": 0.2363154065,
				"element": "C" 
			},
			{
				"x": 1.275014667,
				"y": 0.963419193,
				"z": -1.661450202,
				"element": "S" 
			},
			{
				"x": 1.2533952147,
				"y": 2.4069261946,
				"z": -1.9137475267,
				"element": "O" 
			},
			{
				"x": 1.8991862003,
				"y": 0.0191350011,
				"z": -2.5923498262,
				"element": "O" 
			},
			{
				"x": -0.413390125,
				"y": 0.4351287361,
				"z": -1.409408009,
				"element": "C" 
			},
			{
				"x": -1.3768778956,
				"y": 1.3541064869,
				"z": -0.9775630894,
				"element": "C" 
			},
			{
				"x": -2.6820261987,
				"y": 0.9368554326,
				"z": -0.7517395136,
				"element": "C" 
			},
			{
				"x": -3.0512707452,
				"y": -0.4080150959,
				"z": -0.9530564392,
				"element": "C" 
			},
			{
				"x": -4.3409663547,
				"y": -0.8345003618,
				"z": -0.6801794771,
				"element": "N" 
			},
			{
				"x": -2.0723616103,
				"y": -1.3194034145,
				"z": -1.3964941304,
				"element": "C" 
			},
			{
				"x": -0.7671627582,
				"y": -0.9023292289,
				"z": -1.6223443316,
				"element": "C" 
			},
			{
				"x": 0.7408027088,
				"y": 1.3923156393,
				"z": 1.3608361039,
				"element": "H" 
			},
			{
				"x": 1.61900219,
				"y": 2.6888919685,
				"z": 0.4927985358,
				"element": "H" 
			},
			{
				"x": 2.4773234977,
				"y": 1.6590808394,
				"z": 1.6525318375,
				"element": "H" 
			},
			{
				"x": 3.0936065378,
				"y": -0.6150515312,
				"z": 1.00547033,
				"element": "H" 
			},
			{
				"x": 1.4129764224,
				"y": -1.0898293504,
				"z": 0.6565521035,
				"element": "H" 
			},
			{
				"x": 2.6706841017,
				"y": -1.2016028279,
				"z": -0.6129219996,
				"element": "H" 
			},
			{
				"x": -1.1043487899,
				"y": 2.3962428588,
				"z": -0.8510907496,
				"element": "H" 
			},
			{
				"x": -3.430078912,
				"y": 1.6539271455,
				"z": -0.4237195149,
				"element": "H" 
			},
			{
				"x": -5.0589696472,
				"y": -0.1247128994,
				"z": -0.67374952,
				"element": "H" 
			},
			{
				"x": -4.6350679227,
				"y": -1.6933651622,
				"z": -1.1220259764,
				"element": "H" 
			},
			{
				"x": -2.3463616958,
				"y": -2.3568246394,
				"z": -1.5698691642,
				"element": "H" 
			},
			{
				"x": -0.0244105639,
				"y": -1.60030459,
				"z": -1.9931025482,
				"element": "H" 
			}
		],
		 "valence_orbital": [ 
			{
				"type": "occ",
				"energy": -0.29045,
				"method": "rhf"
			},
			{
				"type": "occ",
				"energy": -0.28925,
				"method": "rhf"
			},
			{
				"type": "occ",
				"energy": -0.26672,
				"method": "rhf"
			},
			{
				"type": "occ",
				"energy": -0.25342,
				"method": "rhf"
			},
			{
				"type": "occ",
				"energy": -0.22055,
				"method": "rhf"
			},
			{
				"type": "unocc",
				"energy": -0.0189,
				"method": "rhf"
			},
			{
				"type": "unocc",
				"energy": -0.01662,
				"method": "rhf"
			},
			{
				"type": "unocc",
				"energy": 0.06156,
				"method": "rhf"
			},
			{
				"type": "unocc",
				"energy": 0.07457,
				"method": "rhf"
			},
			{
				"type": "unocc",
				"energy": 0.09043,
				"method": "rhf"
			}
		],
		"cosmo_sigma_profile": { 
			"-0.025": 0.0,
			"-0.024": 0.0,
			"-0.023": 0.0,
			"-0.022": 0.0,
			"-0.021": 0.0,
			"-0.02": 0.0,
			"-0.019": 0.0,
			"-0.018": 0.0,
			"-0.017": 0.0,
			"-0.016": 0.0,
			"-0.015": 0.0,
			"-0.014": 0.075616019189,
			"-0.013": 2.53669964806,
			"-0.012": 2.82053053007,
			"-0.011": 3.68900071594,
			"-0.01": 3.47986546496,
			"-0.009": 2.62132568788,
			"-0.008": 2.76600221226,
			"-0.007": 4.9961612226,
			"-0.006": 11.9631313629,
			"-0.005": 14.3876057261,
			"-0.004": 18.1764466506,
			"-0.003": 22.5601272158,
			"-0.002": 25.7674615249,
			"-0.001": 9.71213830567,
			"0.0": 7.81208705046,
			"0.001": 9.80520651895,
			"0.002": 9.976684709,
			"0.003": 11.7179322013,
			"0.004": 15.188789072,
			"0.005": 6.86580567244,
			"0.006": 4.71326107883,
			"0.007": 5.09865229833,
			"0.008": 5.51827565914,
			"0.009": 4.39527996441,
			"0.01": 6.8960062287,
			"0.011": 7.90187264139,
			"0.012": 8.00128415565,
			"0.013": 0.61759355247,
			"0.014": 0.0,
			"0.015": 0.0,
			"0.016": 0.0,
			"0.017": 0.0,
			"0.018": 0.0,
			"0.019": 0.0,
			"0.02": 0.0,
			"0.021": 0.0,
			"0.022": 0.0,
			"0.023": 0.0,
			"0.024": 0.0,
			"0.025": 0.0
		}
	}
}
