{
	 "smiles": "COC(=O)C1=CC(O)=CC(Br)=C1", 
	 "Tm": 406.15, 
	 "num_atms": 19, 
	 "gaussian": { 
		 "optdone": 1, 
		 "sigma_profile": "yes", 
		 "theory": "DFT", 
		 "functional": "B3LYP", 
		 "basiset": "6-31G**", 
		 "properties": { 
			 "R2extent": 5562.4083, 
			 "electric_dipole_moment_norm": 1.48415655845, 
			 "electric_quadrupole_moment_norm": 11.8986355075, 
			 "total_energy": -3106.15216764, 
			 "HOMO_LUMO_gap": 0.18346, 
			 "cosmo_polarized_energy": -10.89, 
			 "cosmo_cavitation_energy": 26.46, 
			 "cosmo_dispersion_energy": -19.87, 
			 "cosmo_repulsion_energy": 1.59, 
			 "cosmo_total_nonelectrostatic_energy": 8.19, 
			 "SMD_solvation_energy": 5.41 
		},
		"coords": [
			{
				"x": -0.1495962455,
				"y": 2.9441287823,
				"z": 0.1342985871,
				"element": "C" 
			},
			{
				"x": -0.0468163204,
				"y": 1.6626102337,
				"z": 0.7745423374,
				"element": "O" 
			},
			{
				"x": 0.5300916607,
				"y": 0.6927491948,
				"z": 0.0340395807,
				"element": "C" 
			},
			{
				"x": 0.9402845833,
				"y": 0.8705175192,
				"z": -1.0965154198,
				"element": "O" 
			},
			{
				"x": 0.6049367783,
				"y": -0.6111561196,
				"z": 0.7580898603,
				"element": "C" 
			},
			{
				"x": 1.1872042309,
				"y": -1.685764264,
				"z": 0.0778087148,
				"element": "C" 
			},
			{
				"x": 1.285182688,
				"y": -2.9291431586,
				"z": 0.7031245565,
				"element": "C" 
			},
			{
				"x": 1.8394634982,
				"y": -4.0184193091,
				"z": 0.1015070408,
				"element": "O" 
			},
			{
				"x": 0.8027543097,
				"y": -3.1023023345,
				"z": 2.0073897238,
				"element": "C" 
			},
			{
				"x": 0.2283512159,
				"y": -2.0174014532,
				"z": 2.6611611742,
				"element": "C" 
			},
			{
				"x": -0.42863804,
				"y": -2.2570198167,
				"z": 4.4399900825,
				"element": "Br" 
			},
			{
				"x": 0.1175038034,
				"y": -0.7650391751,
				"z": 2.060983586,
				"element": "C" 
			},
			{
				"x": -0.6310512388,
				"y": 3.5981936965,
				"z": 0.8608627471,
				"element": "H" 
			},
			{
				"x": -0.7500230766,
				"y": 2.8713659189,
				"z": -0.7758944165,
				"element": "H" 
			},
			{
				"x": 0.8414545646,
				"y": 3.3228284017,
				"z": -0.1277331673,
				"element": "H" 
			},
			{
				"x": 1.5535053637,
				"y": -1.5259586152,
				"z": -0.9320927955,
				"element": "H" 
			},
			{
				"x": 2.1328808945,
				"y": -3.7771425087,
				"z": -0.7869575253,
				"element": "H" 
			},
			{
				"x": 0.8843412671,
				"y": -4.0721695002,
				"z": 2.4825710798,
				"element": "H" 
			},
			{
				"x": -0.3320299369,
				"y": 0.0678225076,
				"z": 2.5837242534,
				"element": "H" 
			}
		],
		 "valence_orbital": [ 
			{
				"type": "occ",
				"energy": -0.30693,
				"method": "rhf"
			},
			{
				"type": "occ",
				"energy": -0.29167,
				"method": "rhf"
			},
			{
				"type": "occ",
				"energy": -0.28122,
				"method": "rhf"
			},
			{
				"type": "occ",
				"energy": -0.25591,
				"method": "rhf"
			},
			{
				"type": "occ",
				"energy": -0.23883,
				"method": "rhf"
			},
			{
				"type": "unocc",
				"energy": -0.05537,
				"method": "rhf"
			},
			{
				"type": "unocc",
				"energy": -0.01052,
				"method": "rhf"
			},
			{
				"type": "unocc",
				"energy": 0.00322,
				"method": "rhf"
			},
			{
				"type": "unocc",
				"energy": 0.05229,
				"method": "rhf"
			},
			{
				"type": "unocc",
				"energy": 0.06199,
				"method": "rhf"
			}
		],
		"cosmo_sigma_profile": { 
			"-0.025": 0.0,
			"-0.024": 0.0,
			"-0.023": 0.0,
			"-0.022": 0.0,
			"-0.021": 0.0,
			"-0.02": 0.0,
			"-0.019": 0.114761237679,
			"-0.018": 1.16865838345,
			"-0.017": 1.10860265989,
			"-0.016": 1.21317578095,
			"-0.015": 1.32813814925,
			"-0.014": 1.194030205,
			"-0.013": 0.646031565038,
			"-0.012": 0.532052781122,
			"-0.011": 1.294399089,
			"-0.01": 1.28636971378,
			"-0.009": 1.01352741633,
			"-0.008": 1.59148924021,
			"-0.007": 3.32353444039,
			"-0.006": 8.88879063826,
			"-0.005": 11.2788125811,
			"-0.004": 13.4420693381,
			"-0.003": 15.9630011406,
			"-0.002": 11.7172324778,
			"-0.001": 11.1825051741,
			"0.0": 15.3243375915,
			"0.001": 26.0589071929,
			"0.002": 24.861631901,
			"0.003": 13.994263565,
			"0.004": 16.0745276272,
			"0.005": 8.1646349188,
			"0.006": 2.37872577497,
			"0.007": 2.26404357798,
			"0.008": 3.21135965847,
			"0.009": 3.41584910491,
			"0.01": 3.21828206433,
			"0.011": 4.87318107028,
			"0.012": 2.7434191557,
			"0.013": 0.00646485681273,
			"0.014": 0.0,
			"0.015": 0.0,
			"0.016": 0.0,
			"0.017": 0.0,
			"0.018": 0.0,
			"0.019": 0.0,
			"0.02": 0.0,
			"0.021": 0.0,
			"0.022": 0.0,
			"0.023": 0.0,
			"0.024": 0.0,
			"0.025": 0.0
		}
	}
}
