{
	 "smiles": "CC1(C)OC2CC3C4CC(F)C5=CC(=O)C=CC5(C)C4(F)C(O)CC3(C)C2(O1)C(=O)CO", 
	 "Tm": 539.15, 
	 "num_atms": 62, 
	 "gaussian": { 
		 "optdone": 1, 
		 "sigma_profile": "yes", 
		 "theory": "DFT", 
		 "functional": "B3LYP", 
		 "basiset": "6-31G**", 
		 "properties": { 
			 "R2extent": 14709.9079, 
			 "electric_dipole_moment_norm": 6.31974936528, 
			 "electric_quadrupole_moment_norm": 31.0582230462, 
			 "total_energy": -1583.56658895, 
			 "HOMO_LUMO_gap": 0.17372, 
			 "cosmo_polarized_energy": -26.56, 
			 "cosmo_cavitation_energy": 55.04, 
			 "cosmo_dispersion_energy": -37.22, 
			 "cosmo_repulsion_energy": 2.63, 
			 "cosmo_total_nonelectrostatic_energy": 20.46, 
			 "SMD_solvation_energy": 9.98 
		},
		"coords": [
			{
				"x": -2.8357241376,
				"y": 1.3632635776,
				"z": -3.1785079658,
				"element": "C" 
			},
			{
				"x": -2.7038553173,
				"y": 2.1086573831,
				"z": -1.8532723074,
				"element": "C" 
			},
			{
				"x": -3.5884356594,
				"y": 3.3442081793,
				"z": -1.7963132011,
				"element": "C" 
			},
			{
				"x": -1.3444906893,
				"y": 2.5218543442,
				"z": -1.6054407397,
				"element": "O" 
			},
			{
				"x": -0.8182544907,
				"y": 1.4232994514,
				"z": -0.8781627085,
				"element": "C" 
			},
			{
				"x": 0.4805310942,
				"y": 1.3768414553,
				"z": -0.0992625409,
				"element": "C" 
			},
			{
				"x": 0.12950531,
				"y": 0.2632759042,
				"z": 0.9845200469,
				"element": "C" 
			},
			{
				"x": 1.1334639964,
				"y": -0.9053717729,
				"z": 1.1967242499,
				"element": "C" 
			},
			{
				"x": 2.5851325457,
				"y": -0.4140621473,
				"z": 1.0926706894,
				"element": "C" 
			},
			{
				"x": 3.5932539653,
				"y": -1.4849959202,
				"z": 1.5090464765,
				"element": "C" 
			},
			{
				"x": 3.8605572685,
				"y": -1.3500425851,
				"z": 2.8756418062,
				"element": "F" 
			},
			{
				"x": 3.095771092,
				"y": -2.8882605395,
				"z": 1.2353721373,
				"element": "C" 
			},
			{
				"x": 3.4565591428,
				"y": -3.8975104437,
				"z": 2.0445624669,
				"element": "C" 
			},
			{
				"x": 3.0267576179,
				"y": -5.2925147095,
				"z": 1.8276042643,
				"element": "C" 
			},
			{
				"x": 3.3739081035,
				"y": -6.2033878004,
				"z": 2.57415445,
				"element": "O" 
			},
			{
				"x": 2.1814901917,
				"y": -5.5220530947,
				"z": 0.6408574517,
				"element": "C" 
			},
			{
				"x": 1.7772670866,
				"y": -4.5167286759,
				"z": -0.1456282946,
				"element": "C" 
			},
			{
				"x": 2.148610108,
				"y": -3.0604130899,
				"z": 0.0559379902,
				"element": "C" 
			},
			{
				"x": 2.8219541444,
				"y": -2.6043631932,
				"z": -1.2734444068,
				"element": "C" 
			},
			{
				"x": 0.8441423758,
				"y": -2.211138872,
				"z": 0.3870571399,
				"element": "C" 
			},
			{
				"x": 0.0887461061,
				"y": -3.0398200113,
				"z": 1.2635080087,
				"element": "F" 
			},
			{
				"x": -0.0999638023,
				"y": -1.9252099086,
				"z": -0.794975507,
				"element": "C" 
			},
			{
				"x": -0.3364612188,
				"y": -3.0505585494,
				"z": -1.6333109043,
				"element": "O" 
			},
			{
				"x": -1.4488876986,
				"y": -1.387137097,
				"z": -0.2810613133,
				"element": "C" 
			},
			{
				"x": -1.3704342737,
				"y": -0.2118872263,
				"z": 0.7357439534,
				"element": "C" 
			},
			{
				"x": -2.0373973803,
				"y": -0.6376009319,
				"z": 2.0551413705,
				"element": "C" 
			},
			{
				"x": -1.929150973,
				"y": 1.1134102933,
				"z": 0.1008752658,
				"element": "C" 
			},
			{
				"x": -3.0598437624,
				"y": 1.1540517664,
				"z": -0.7727458246,
				"element": "O" 
			},
			{
				"x": -2.1784896358,
				"y": 2.1393597924,
				"z": 1.2183782936,
				"element": "C" 
			},
			{
				"x": -1.2958841876,
				"y": 2.7656518158,
				"z": 1.7851829008,
				"element": "O" 
			},
			{
				"x": -3.6185712091,
				"y": 2.3292127922,
				"z": 1.6975926806,
				"element": "C" 
			},
			{
				"x": -3.6433466446,
				"y": 2.9866139136,
				"z": 2.9353516708,
				"element": "O" 
			},
			{
				"x": -2.6228880648,
				"y": 2.0394003794,
				"z": -4.0108727058,
				"element": "H" 
			},
			{
				"x": -2.1465720493,
				"y": 0.5174881484,
				"z": -3.2307954529,
				"element": "H" 
			},
			{
				"x": -3.8533763722,
				"y": 0.9786243852,
				"z": -3.2880044315,
				"element": "H" 
			},
			{
				"x": -4.6420501901,
				"y": 3.0588050731,
				"z": -1.8533952096,
				"element": "H" 
			},
			{
				"x": -3.3578194174,
				"y": 4.0008310861,
				"z": -2.6397534247,
				"element": "H" 
			},
			{
				"x": -3.4130270457,
				"y": 3.9038935,
				"z": -0.8763360363,
				"element": "H" 
			},
			{
				"x": -0.787431775,
				"y": 0.5707525395,
				"z": -1.5680934008,
				"element": "H" 
			},
			{
				"x": 0.7022327624,
				"y": 2.3195665026,
				"z": 0.4011738512,
				"element": "H" 
			},
			{
				"x": 1.3219788801,
				"y": 1.1185647095,
				"z": -0.7457316055,
				"element": "H" 
			},
			{
				"x": 0.122266296,
				"y": 0.8022807287,
				"z": 1.9343737235,
				"element": "H" 
			},
			{
				"x": 1.0088621454,
				"y": -1.2406252268,
				"z": 2.2326120721,
				"element": "H" 
			},
			{
				"x": 2.8168331908,
				"y": -0.0677725577,
				"z": 0.0832234502,
				"element": "H" 
			},
			{
				"x": 2.731090031,
				"y": 0.4474974064,
				"z": 1.7518052004,
				"element": "H" 
			},
			{
				"x": 4.5485860093,
				"y": -1.317514316,
				"z": 0.9920553087,
				"element": "H" 
			},
			{
				"x": 4.0973835419,
				"y": -3.7200216341,
				"z": 2.9018593473,
				"element": "H" 
			},
			{
				"x": 1.9093078766,
				"y": -6.553094809,
				"z": 0.4337795123,
				"element": "H" 
			},
			{
				"x": 1.1753292139,
				"y": -4.7188882232,
				"z": -1.0243918958,
				"element": "H" 
			},
			{
				"x": 3.0822804935,
				"y": -1.5442029551,
				"z": -1.284868009,
				"element": "H" 
			},
			{
				"x": 2.1560905582,
				"y": -2.8017728368,
				"z": -2.1160611341,
				"element": "H" 
			},
			{
				"x": 3.7418319891,
				"y": -3.1760980699,
				"z": -1.4231974193,
				"element": "H" 
			},
			{
				"x": 0.3896871763,
				"y": -1.1921857514,
				"z": -1.4446803053,
				"element": "H" 
			},
			{
				"x": -0.838354428,
				"y": -3.6917862104,
				"z": -1.1100348231,
				"element": "H" 
			},
			{
				"x": -1.9541875751,
				"y": -2.2292894196,
				"z": 0.2018000514,
				"element": "H" 
			},
			{
				"x": -2.0633554994,
				"y": -1.1145506164,
				"z": -1.1431075516,
				"element": "H" 
			},
			{
				"x": -3.0859591126,
				"y": -0.9087860585,
				"z": 1.8916208807,
				"element": "H" 
			},
			{
				"x": -1.529424868,
				"y": -1.5192285891,
				"z": 2.4544218705,
				"element": "H" 
			},
			{
				"x": -2.0030914391,
				"y": 0.1475140972,
				"z": 2.8168289222,
				"element": "H" 
			},
			{
				"x": -4.1102534805,
				"y": 1.3507969257,
				"z": 1.7721343786,
				"element": "H" 
			},
			{
				"x": -4.1704091341,
				"y": 2.8850489012,
				"z": 0.9251240358,
				"element": "H" 
			},
			{
				"x": -2.7572187814,
				"y": 3.374808791,
				"z": 3.0392132009,
				"element": "H" 
			}
		],
		 "valence_orbital": [ 
			{
				"type": "occ",
				"energy": -0.2742,
				"method": "rhf"
			},
			{
				"type": "occ",
				"energy": -0.27215,
				"method": "rhf"
			},
			{
				"type": "occ",
				"energy": -0.26563,
				"method": "rhf"
			},
			{
				"type": "occ",
				"energy": -0.25608,
				"method": "rhf"
			},
			{
				"type": "occ",
				"energy": -0.23877,
				"method": "rhf"
			},
			{
				"type": "unocc",
				"energy": -0.06505,
				"method": "rhf"
			},
			{
				"type": "unocc",
				"energy": -0.0422,
				"method": "rhf"
			},
			{
				"type": "unocc",
				"energy": -0.00986,
				"method": "rhf"
			},
			{
				"type": "unocc",
				"energy": 0.04402,
				"method": "rhf"
			},
			{
				"type": "unocc",
				"energy": 0.05427,
				"method": "rhf"
			}
		],
		"cosmo_sigma_profile": { 
			"-0.025": 0.0,
			"-0.024": 0.0,
			"-0.023": 0.0,
			"-0.022": 0.0,
			"-0.021": 0.0,
			"-0.02": 0.0,
			"-0.019": 0.0,
			"-0.018": 0.0,
			"-0.017": 0.0,
			"-0.016": 0.0670917869382,
			"-0.015": 0.50956789798,
			"-0.014": 0.7077363606,
			"-0.013": 0.93616356907,
			"-0.012": 0.961919074175,
			"-0.011": 1.41561032667,
			"-0.01": 1.90967547559,
			"-0.009": 3.00740003122,
			"-0.008": 6.57704771517,
			"-0.007": 12.4345655867,
			"-0.006": 16.1251776438,
			"-0.005": 29.5190435536,
			"-0.004": 40.306927276,
			"-0.003": 42.7373198269,
			"-0.002": 41.3693778162,
			"-0.001": 42.802706191,
			"0.0": 32.9991884781,
			"0.001": 21.4907478425,
			"0.002": 18.1559921128,
			"0.003": 13.6935238753,
			"0.004": 13.4880268565,
			"0.005": 16.736059468,
			"0.006": 15.6275492564,
			"0.007": 8.3324814119,
			"0.008": 5.83832096016,
			"0.009": 7.95103081965,
			"0.01": 6.26314251165,
			"0.011": 6.59226976091,
			"0.012": 7.02920785547,
			"0.013": 7.94318659443,
			"0.014": 4.80838162776,
			"0.015": 0.353461182745,
			"0.016": 0.0,
			"0.017": 0.0,
			"0.018": 0.0,
			"0.019": 0.0,
			"0.02": 0.0,
			"0.021": 0.0,
			"0.022": 0.0,
			"0.023": 0.0,
			"0.024": 0.0,
			"0.025": 0.0
		}
	}
}
