{
	 "smiles": "NC1=CC=CC(=C1)C(O)=O", 
	 "Tm": 447.15, 
	 "num_atms": 17, 
	 "gaussian": { 
		 "optdone": 1, 
		 "sigma_profile": "yes", 
		 "theory": "DFT", 
		 "functional": "B3LYP", 
		 "basiset": "6-31G**", 
		 "properties": { 
			 "R2extent": 2107.0902, 
			 "electric_dipole_moment_norm": 6.35208891704, 
			 "electric_quadrupole_moment_norm": 16.2521064056, 
			 "total_energy": -476.173446912, 
			 "HOMO_LUMO_gap": 0.17538, 
			 "cosmo_polarized_energy": -18.3, 
			 "cosmo_cavitation_energy": 21.46, 
			 "cosmo_dispersion_energy": -16.05, 
			 "cosmo_repulsion_energy": 1.31, 
			 "cosmo_total_nonelectrostatic_energy": 6.71, 
			 "SMD_solvation_energy": 4.84 
		},
		"coords": [
			{
				"x": 1.5485575681,
				"y": 0.7139970228,
				"z": -0.4123290717,
				"element": "N" 
			},
			{
				"x": 0.7102491361,
				"y": -0.3511891743,
				"z": -0.0939536208,
				"element": "C" 
			},
			{
				"x": 1.0364556569,
				"y": -1.6638001203,
				"z": -0.4806326332,
				"element": "C" 
			},
			{
				"x": 0.2399768078,
				"y": -2.7368729304,
				"z": -0.0884711268,
				"element": "C" 
			},
			{
				"x": -0.9000842223,
				"y": -2.5358316813,
				"z": 0.6874974648,
				"element": "C" 
			},
			{
				"x": -1.2502956772,
				"y": -1.2325272158,
				"z": 1.058140655,
				"element": "C" 
			},
			{
				"x": -0.4471757956,
				"y": -0.150150623,
				"z": 0.6764044222,
				"element": "C" 
			},
			{
				"x": -2.4877711867,
				"y": -1.0530066565,
				"z": 1.8865949288,
				"element": "C" 
			},
			{
				"x": -3.0770935759,
				"y": 0.1752039756,
				"z": 1.8409122805,
				"element": "O" 
			},
			{
				"x": -2.96992297,
				"y": -1.92674433,
				"z": 2.5674501266,
				"element": "O" 
			},
			{
				"x": 2.159854468,
				"y": 0.5696099092,
				"z": -1.2033930397,
				"element": "H" 
			},
			{
				"x": 1.1200704088,
				"y": 1.6286695013,
				"z": -0.419376515,
				"element": "H" 
			},
			{
				"x": 1.9275412431,
				"y": -1.8365472222,
				"z": -1.0790765825,
				"element": "H" 
			},
			{
				"x": 0.5154342727,
				"y": -3.7419343474,
				"z": -0.3945616108,
				"element": "H" 
			},
			{
				"x": -1.526043125,
				"y": -3.3599175234,
				"z": 1.0087476861,
				"element": "H" 
			},
			{
				"x": -0.6730551553,
				"y": 0.8573227794,
				"z": 1.0206040779,
				"element": "H" 
			},
			{
				"x": -2.6820978534,
				"y": 0.6985186363,
				"z": 1.1298425587,
				"element": "H" 
			}
		],
		 "valence_orbital": [ 
			{
				"type": "occ",
				"energy": -0.32556,
				"method": "rhf"
			},
			{
				"type": "occ",
				"energy": -0.30799,
				"method": "rhf"
			},
			{
				"type": "occ",
				"energy": -0.27094,
				"method": "rhf"
			},
			{
				"type": "occ",
				"energy": -0.2624,
				"method": "rhf"
			},
			{
				"type": "occ",
				"energy": -0.21896,
				"method": "rhf"
			},
			{
				"type": "unocc",
				"energy": -0.04358,
				"method": "rhf"
			},
			{
				"type": "unocc",
				"energy": -0.00361,
				"method": "rhf"
			},
			{
				"type": "unocc",
				"energy": 0.05254,
				"method": "rhf"
			},
			{
				"type": "unocc",
				"energy": 0.06872,
				"method": "rhf"
			},
			{
				"type": "unocc",
				"energy": 0.0708,
				"method": "rhf"
			}
		],
		"cosmo_sigma_profile": { 
			"-0.025": 0.0,
			"-0.024": 0.0,
			"-0.023": 0.0,
			"-0.022": 0.0,
			"-0.021": 0.0,
			"-0.02": 0.0,
			"-0.019": 0.0,
			"-0.018": 0.213980679575,
			"-0.017": 1.11365906871,
			"-0.016": 0.76819688563,
			"-0.015": 0.734633573951,
			"-0.014": 1.2309035337,
			"-0.013": 1.97503112305,
			"-0.012": 4.25652609932,
			"-0.011": 4.93267706123,
			"-0.01": 4.59396626329,
			"-0.009": 4.79310905249,
			"-0.008": 3.391487652,
			"-0.007": 4.14826547426,
			"-0.006": 8.11090978312,
			"-0.005": 8.02276477879,
			"-0.004": 8.50989609548,
			"-0.003": 7.13218359735,
			"-0.002": 7.71207074611,
			"-0.001": 7.37705467294,
			"0.0": 7.27841403582,
			"0.001": 7.95020221247,
			"0.002": 8.07557099576,
			"0.003": 9.18611934966,
			"0.004": 13.4579038224,
			"0.005": 10.774733371,
			"0.006": 3.58566367421,
			"0.007": 3.52733832756,
			"0.008": 3.99121424559,
			"0.009": 3.38028095238,
			"0.01": 5.23985937634,
			"0.011": 6.47417527151,
			"0.012": 5.89086964237,
			"0.013": 2.60513717417,
			"0.014": 0.403621337669,
			"0.015": 0.0,
			"0.016": 0.0,
			"0.017": 0.0,
			"0.018": 0.0,
			"0.019": 0.0,
			"0.02": 0.0,
			"0.021": 0.0,
			"0.022": 0.0,
			"0.023": 0.0,
			"0.024": 0.0,
			"0.025": 0.0
		}
	}
}
