{
	 "smiles": "CCOC(=O)C1CCCN(C1)C(=O)OC(C)(C)C", 
	 "Tm": 306.15, 
	 "num_atms": 41, 
	 "gaussian": { 
		 "optdone": 1, 
		 "sigma_profile": "yes", 
		 "theory": "DFT", 
		 "functional": "B3LYP", 
		 "basiset": "6-31G**", 
		 "properties": { 
			 "R2extent": 5269.7838, 
			 "electric_dipole_moment_norm": 3.3095679431, 
			 "electric_quadrupole_moment_norm": 13.4084922098, 
			 "total_energy": -864.953414191, 
			 "HOMO_LUMO_gap": 0.24678, 
			 "cosmo_polarized_energy": -11.89, 
			 "cosmo_cavitation_energy": 40.72, 
			 "cosmo_dispersion_energy": -26.76, 
			 "cosmo_repulsion_energy": 2.08, 
			 "cosmo_total_nonelectrostatic_energy": 16.04, 
			 "SMD_solvation_energy": 7.87 
		},
		"coords": [
			{
				"x": 1.9163633223,
				"y": 1.5187391599,
				"z": -3.2264561724,
				"element": "C" 
			},
			{
				"x": 0.9823049333,
				"y": 2.5685680591,
				"z": -2.6434526937,
				"element": "C" 
			},
			{
				"x": 0.8512280432,
				"y": 2.4084259429,
				"z": -1.2072947823,
				"element": "O" 
			},
			{
				"x": 1.8472674865,
				"y": 2.9148696713,
				"z": -0.4476340654,
				"element": "C" 
			},
			{
				"x": 2.7735651692,
				"y": 3.5595354811,
				"z": -0.8951230526,
				"element": "O" 
			},
			{
				"x": 1.6800529767,
				"y": 2.5906168316,
				"z": 1.030719838,
				"element": "C" 
			},
			{
				"x": 0.5089143055,
				"y": 3.3601042445,
				"z": 1.6947589698,
				"element": "C" 
			},
			{
				"x": -0.8638854816,
				"y": 2.7363232752,
				"z": 1.4055097271,
				"element": "C" 
			},
			{
				"x": -0.8669620111,
				"y": 1.2396431633,
				"z": 1.7458011701,
				"element": "C" 
			},
			{
				"x": 0.2207514431,
				"y": 0.5513876036,
				"z": 1.0526103392,
				"element": "N" 
			},
			{
				"x": 1.5552921952,
				"y": 1.072305082,
				"z": 1.3114143913,
				"element": "C" 
			},
			{
				"x": 0.0551476875,
				"y": -0.4189775846,
				"z": 0.0981020452,
				"element": "C" 
			},
			{
				"x": 0.9795238795,
				"y": -0.9311289921,
				"z": -0.5217082705,
				"element": "O" 
			},
			{
				"x": -1.2541304419,
				"y": -0.7430793771,
				"z": -0.0475989692,
				"element": "O" 
			},
			{
				"x": -1.6704315165,
				"y": -1.8349718411,
				"z": -0.9386393602,
				"element": "C" 
			},
			{
				"x": -3.1908320997,
				"y": -1.8496765479,
				"z": -0.7546084349,
				"element": "C" 
			},
			{
				"x": -1.0553111213,
				"y": -3.1589728236,
				"z": -0.4722585546,
				"element": "C" 
			},
			{
				"x": -1.3060326952,
				"y": -1.5064897925,
				"z": -2.3904275705,
				"element": "C" 
			},
			{
				"x": 1.6208845723,
				"y": 0.5200910585,
				"z": -2.8937527192,
				"element": "H" 
			},
			{
				"x": 1.8817677747,
				"y": 1.5550269507,
				"z": -4.3205383146,
				"element": "H" 
			},
			{
				"x": 2.9452303579,
				"y": 1.7034080728,
				"z": -2.9088541825,
				"element": "H" 
			},
			{
				"x": 1.333567772,
				"y": 3.581553414,
				"z": -2.8547121964,
				"element": "H" 
			},
			{
				"x": -0.037511827,
				"y": 2.4514288101,
				"z": -3.0174061004,
				"element": "H" 
			},
			{
				"x": 2.6160551678,
				"y": 2.9340598487,
				"z": 1.4814437493,
				"element": "H" 
			},
			{
				"x": 0.6840792477,
				"y": 3.3454401499,
				"z": 2.7793244686,
				"element": "H" 
			},
			{
				"x": 0.5324780443,
				"y": 4.4126888356,
				"z": 1.3917906774,
				"element": "H" 
			},
			{
				"x": -1.6345999254,
				"y": 3.2447993628,
				"z": 1.996987568,
				"element": "H" 
			},
			{
				"x": -1.1204468065,
				"y": 2.8610687095,
				"z": 0.3491771181,
				"element": "H" 
			},
			{
				"x": -1.8102157399,
				"y": 0.7717403978,
				"z": 1.4740314608,
				"element": "H" 
			},
			{
				"x": -0.7254939166,
				"y": 1.1079024902,
				"z": 2.8301923893,
				"element": "H" 
			},
			{
				"x": 2.2618711469,
				"y": 0.4933582846,
				"z": 0.7171338153,
				"element": "H" 
			},
			{
				"x": 1.7941082324,
				"y": 0.9135601188,
				"z": 2.3736701128,
				"element": "H" 
			},
			{
				"x": -3.4516717282,
				"y": -2.0409714407,
				"z": 0.2904637212,
				"element": "H" 
			},
			{
				"x": -3.6371365415,
				"y": -2.634916936,
				"z": -1.3719762552,
				"element": "H" 
			},
			{
				"x": -3.6250573598,
				"y": -0.8895130484,
				"z": -1.0487726275,
				"element": "H" 
			},
			{
				"x": -1.3099209749,
				"y": -3.3476056292,
				"z": 0.5756135234,
				"element": "H" 
			},
			{
				"x": -1.4561022014,
				"y": -3.9824306144,
				"z": -1.0723867862,
				"element": "H" 
			},
			{
				"x": 0.0297576348,
				"y": -3.141928098,
				"z": -0.5758711681,
				"element": "H" 
			},
			{
				"x": -0.2251011803,
				"y": -1.5005471547,
				"z": -2.5283947128,
				"element": "H" 
			},
			{
				"x": -1.7456409941,
				"y": -2.2549508668,
				"z": -3.0580191735,
				"element": "H" 
			},
			{
				"x": -1.70682683,
				"y": -0.5264842714,
				"z": -2.6687589218,
				"element": "H" 
			}
		],
		 "valence_orbital": [ 
			{
				"type": "occ",
				"energy": -0.29302,
				"method": "rhf"
			},
			{
				"type": "occ",
				"energy": -0.28393,
				"method": "rhf"
			},
			{
				"type": "occ",
				"energy": -0.26393,
				"method": "rhf"
			},
			{
				"type": "occ",
				"energy": -0.25656,
				"method": "rhf"
			},
			{
				"type": "occ",
				"energy": -0.23177,
				"method": "rhf"
			},
			{
				"type": "unocc",
				"energy": 0.01501,
				"method": "rhf"
			},
			{
				"type": "unocc",
				"energy": 0.0545,
				"method": "rhf"
			},
			{
				"type": "unocc",
				"energy": 0.07833,
				"method": "rhf"
			},
			{
				"type": "unocc",
				"energy": 0.08895,
				"method": "rhf"
			},
			{
				"type": "unocc",
				"energy": 0.09977,
				"method": "rhf"
			}
		],
		"cosmo_sigma_profile": { 
			"-0.025": 0.0,
			"-0.024": 0.0,
			"-0.023": 0.0,
			"-0.022": 0.0,
			"-0.021": 0.0,
			"-0.02": 0.0,
			"-0.019": 0.0,
			"-0.018": 0.0,
			"-0.017": 0.0,
			"-0.016": 0.0,
			"-0.015": 0.0,
			"-0.014": 0.0,
			"-0.013": 0.0,
			"-0.012": 0.0,
			"-0.011": 0.0,
			"-0.01": 0.0,
			"-0.009": 0.0,
			"-0.008": 0.0,
			"-0.007": 0.0,
			"-0.006": 1.26492868292,
			"-0.005": 14.0011871703,
			"-0.004": 36.4954745988,
			"-0.003": 41.3229562302,
			"-0.002": 39.5048862294,
			"-0.001": 39.4325816563,
			"0.0": 41.3597303262,
			"0.001": 29.7037850087,
			"0.002": 13.0264691494,
			"0.003": 10.9824964979,
			"0.004": 9.78968889941,
			"0.005": 7.33536457024,
			"0.006": 5.552592943,
			"0.007": 4.24001085249,
			"0.008": 3.20334082355,
			"0.009": 1.63535725388,
			"0.01": 3.4350975085,
			"0.011": 3.27877397531,
			"0.012": 5.70886950503,
			"0.013": 3.57116659602,
			"0.014": 1.0156838485,
			"0.015": 0.0,
			"0.016": 0.0,
			"0.017": 0.0,
			"0.018": 0.0,
			"0.019": 0.0,
			"0.02": 0.0,
			"0.021": 0.0,
			"0.022": 0.0,
			"0.023": 0.0,
			"0.024": 0.0,
			"0.025": 0.0
		}
	}
}
