{
	 "smiles": "COC(=O)C1=CC=C(C=C1)N=C=S", 
	 "Tm": 321.15, 
	 "num_atms": 20, 
	 "gaussian": { 
		 "optdone": 1, 
		 "sigma_profile": "yes", 
		 "theory": "DFT", 
		 "functional": "B3LYP", 
		 "basiset": "6-31G**", 
		 "properties": { 
			 "R2extent": 5501.4612, 
			 "electric_dipole_moment_norm": 3.25516933047, 
			 "electric_quadrupole_moment_norm": 15.8843564185, 
			 "total_energy": -950.569293677, 
			 "HOMO_LUMO_gap": 0.16534, 
			 "cosmo_polarized_energy": -8.58, 
			 "cosmo_cavitation_energy": 28.46, 
			 "cosmo_dispersion_energy": -21.06, 
			 "cosmo_repulsion_energy": 1.64, 
			 "cosmo_total_nonelectrostatic_energy": 9.04, 
			 "SMD_solvation_energy": 7.12 
		},
		"coords": [
			{
				"x": 3.59559176,
				"y": 0.921478883,
				"z": 0.9865647326,
				"element": "C" 
			},
			{
				"x": 2.2423709641,
				"y": 1.0705838477,
				"z": 0.5278764126,
				"element": "O" 
			},
			{
				"x": 1.7211891164,
				"y": -0.0129900229,
				"z": -0.0898988679,
				"element": "C" 
			},
			{
				"x": 2.3380600141,
				"y": -1.0475656131,
				"z": -0.2540927735,
				"element": "O" 
			},
			{
				"x": 0.3183298916,
				"y": 0.2087467966,
				"z": -0.5402953317,
				"element": "C" 
			},
			{
				"x": -0.3592757562,
				"y": 1.4189432465,
				"z": -0.3324355103,
				"element": "C" 
			},
			{
				"x": -1.6677548781,
				"y": 1.576472867,
				"z": -0.7723455478,
				"element": "C" 
			},
			{
				"x": -2.3128519558,
				"y": 0.5138706707,
				"z": -1.4293980353,
				"element": "C" 
			},
			{
				"x": -1.6394258537,
				"y": -0.7026727572,
				"z": -1.6410915992,
				"element": "C" 
			},
			{
				"x": -0.3325264379,
				"y": -0.8458136948,
				"z": -1.1962950069,
				"element": "C" 
			},
			{
				"x": -3.6026513803,
				"y": 0.6651172642,
				"z": -1.866433214,
				"element": "N" 
			},
			{
				"x": -4.7209076136,
				"y": 0.7961028977,
				"z": -2.2450046126,
				"element": "C" 
			},
			{
				"x": -6.215803355,
				"y": 0.9850971398,
				"z": -2.7579970467,
				"element": "S" 
			},
			{
				"x": 4.2649270257,
				"y": 0.7150791227,
				"z": 0.1477239486,
				"element": "H" 
			},
			{
				"x": 3.8525106959,
				"y": 1.8699554482,
				"z": 1.4578167518,
				"element": "H" 
			},
			{
				"x": 3.6695031556,
				"y": 0.1018919361,
				"z": 1.7055505964,
				"element": "H" 
			},
			{
				"x": 0.1440405529,
				"y": 2.2337441222,
				"z": 0.1744381691,
				"element": "H" 
			},
			{
				"x": -2.2012711446,
				"y": 2.5078114419,
				"z": -0.6173940438,
				"element": "H" 
			},
			{
				"x": -2.1506903634,
				"y": -1.5126323902,
				"z": -2.1495997559,
				"element": "H" 
			},
			{
				"x": 0.2076355623,
				"y": -1.7739212064,
				"z": -1.3479892657,
				"element": "H" 
			}
		],
		 "valence_orbital": [ 
			{
				"type": "occ",
				"energy": -0.29875,
				"method": "rhf"
			},
			{
				"type": "occ",
				"energy": -0.28342,
				"method": "rhf"
			},
			{
				"type": "occ",
				"energy": -0.27917,
				"method": "rhf"
			},
			{
				"type": "occ",
				"energy": -0.25794,
				"method": "rhf"
			},
			{
				"type": "occ",
				"energy": -0.23907,
				"method": "rhf"
			},
			{
				"type": "unocc",
				"energy": -0.07373,
				"method": "rhf"
			},
			{
				"type": "unocc",
				"energy": -0.02662,
				"method": "rhf"
			},
			{
				"type": "unocc",
				"energy": -0.00157,
				"method": "rhf"
			},
			{
				"type": "unocc",
				"energy": 0.00374,
				"method": "rhf"
			},
			{
				"type": "unocc",
				"energy": 0.07084,
				"method": "rhf"
			}
		],
		"cosmo_sigma_profile": { 
			"-0.025": 0.0,
			"-0.024": 0.0,
			"-0.023": 0.0,
			"-0.022": 0.0,
			"-0.021": 0.0,
			"-0.02": 0.0,
			"-0.019": 0.0,
			"-0.018": 0.0,
			"-0.017": 0.0,
			"-0.016": 0.0,
			"-0.015": 0.0,
			"-0.014": 0.0,
			"-0.013": 0.0,
			"-0.012": 0.0,
			"-0.011": 0.0,
			"-0.01": 0.0,
			"-0.009": 0.0120147105467,
			"-0.008": 3.06183287926,
			"-0.007": 7.14319005576,
			"-0.006": 13.1206649958,
			"-0.005": 13.9103773157,
			"-0.004": 14.5768455437,
			"-0.003": 19.5283535963,
			"-0.002": 20.2945052222,
			"-0.001": 20.8729982172,
			"0.0": 19.8404837398,
			"0.001": 22.5122707379,
			"0.002": 20.2958123489,
			"0.003": 9.19261382327,
			"0.004": 10.0183433566,
			"0.005": 14.7091741684,
			"0.006": 10.1247567793,
			"0.007": 1.74484411188,
			"0.008": 1.52122762538,
			"0.009": 1.72832610739,
			"0.01": 1.87908441927,
			"0.011": 3.27930225645,
			"0.012": 3.45466626114,
			"0.013": 0.0267068037761,
			"0.014": 0.0,
			"0.015": 0.0,
			"0.016": 0.0,
			"0.017": 0.0,
			"0.018": 0.0,
			"0.019": 0.0,
			"0.02": 0.0,
			"0.021": 0.0,
			"0.022": 0.0,
			"0.023": 0.0,
			"0.024": 0.0,
			"0.025": 0.0
		}
	}
}
