{
	 "smiles": "OC1=CC=CC=C1C=CC(=O)C1=CC(=CC=C1)C(=O)C=CC1=C(O)C=CC=C1", 
	 "Tm": 423.15, 
	 "num_atms": 46, 
	 "gaussian": { 
		 "optdone": 1, 
		 "sigma_profile": "yes", 
		 "theory": "DFT", 
		 "functional": "B3LYP", 
		 "basiset": "6-31G**", 
		 "properties": { 
			 "R2extent": 17450.4116, 
			 "electric_dipole_moment_norm": 2.08491974426, 
			 "electric_quadrupole_moment_norm": 33.0012652309, 
			 "total_energy": -1226.2733662, 
			 "HOMO_LUMO_gap": 0.12685, 
			 "cosmo_polarized_energy": -21.23, 
			 "cosmo_cavitation_energy": 51.59, 
			 "cosmo_dispersion_energy": -36.78, 
			 "cosmo_repulsion_energy": 2.69, 
			 "cosmo_total_nonelectrostatic_energy": 17.51, 
			 "SMD_solvation_energy": 9.91 
		},
		"coords": [
			{
				"x": -2.2060582274,
				"y": 1.3556514802,
				"z": -2.3139664964,
				"element": "O" 
			},
			{
				"x": -2.3324758002,
				"y": 2.0758831527,
				"z": -3.4637741039,
				"element": "C" 
			},
			{
				"x": -3.5875536702,
				"y": 2.4854977844,
				"z": -3.9226111185,
				"element": "C" 
			},
			{
				"x": -3.7077638851,
				"y": 3.2211906923,
				"z": -5.0997489296,
				"element": "C" 
			},
			{
				"x": -2.5679330169,
				"y": 3.5565049027,
				"z": -5.8336798454,
				"element": "C" 
			},
			{
				"x": -1.3215048745,
				"y": 3.1479040211,
				"z": -5.3740569185,
				"element": "C" 
			},
			{
				"x": -1.1574295707,
				"y": 2.4023026597,
				"z": -4.188005689,
				"element": "C" 
			},
			{
				"x": 0.1970848515,
				"y": 2.0307762717,
				"z": -3.8025367629,
				"element": "C" 
			},
			{
				"x": 0.6361662502,
				"y": 1.3283871261,
				"z": -2.7341524991,
				"element": "C" 
			},
			{
				"x": 2.0860121958,
				"y": 1.0845206433,
				"z": -2.5749130467,
				"element": "C" 
			},
			{
				"x": 2.9089810793,
				"y": 1.4765249682,
				"z": -3.4020860452,
				"element": "O" 
			},
			{
				"x": 2.5692341445,
				"y": 0.325754629,
				"z": -1.3639785537,
				"element": "C" 
			},
			{
				"x": 1.7373793825,
				"y": -0.0792370289,
				"z": -0.3172398639,
				"element": "C" 
			},
			{
				"x": 2.2449271573,
				"y": -0.7918089417,
				"z": 0.7824464913,
				"element": "C" 
			},
			{
				"x": 3.6184203423,
				"y": -1.0778094688,
				"z": 0.8307181245,
				"element": "C" 
			},
			{
				"x": 4.4594060981,
				"y": -0.6653015522,
				"z": -0.2040867561,
				"element": "C" 
			},
			{
				"x": 3.9407042289,
				"y": 0.025623561,
				"z": -1.2940095735,
				"element": "C" 
			},
			{
				"x": 1.2745776772,
				"y": -1.1804236886,
				"z": 1.8544341759,
				"element": "C" 
			},
			{
				"x": 0.1739150957,
				"y": -0.5942887332,
				"z": 1.8824107503,
				"element": "O" 
			},
			{
				"x": 1.6663565018,
				"y": -2.2005260783,
				"z": 2.8185610242,
				"element": "C" 
			},
			{
				"x": 1.1047184126,
				"y": -2.5607483062,
				"z": 4.0116309488,
				"element": "C" 
			},
			{
				"x": -0.1036928889,
				"y": -2.2761169518,
				"z": 4.7735970698,
				"element": "C" 
			},
			{
				"x": -1.4071364862,
				"y": -1.9901562956,
				"z": 4.2633357599,
				"element": "C" 
			},
			{
				"x": -1.7006133952,
				"y": -1.8988041688,
				"z": 2.9638008482,
				"element": "O" 
			},
			{
				"x": -2.4872845668,
				"y": -1.8783585361,
				"z": 5.1619854318,
				"element": "C" 
			},
			{
				"x": -2.3120082638,
				"y": -2.0224740397,
				"z": 6.5275727005,
				"element": "C" 
			},
			{
				"x": -1.0390070527,
				"y": -2.3011121778,
				"z": 7.0504590989,
				"element": "C" 
			},
			{
				"x": 0.0237376238,
				"y": -2.4460382986,
				"z": 6.1792125555,
				"element": "C" 
			},
			{
				"x": -3.0793936618,
				"y": 1.2155417082,
				"z": -1.9246609937,
				"element": "H" 
			},
			{
				"x": -4.4741752071,
				"y": 2.2227309863,
				"z": -3.3488735028,
				"element": "H" 
			},
			{
				"x": -4.6919688865,
				"y": 3.5298864691,
				"z": -5.4393170013,
				"element": "H" 
			},
			{
				"x": -2.652000933,
				"y": 4.1291406834,
				"z": -6.7514912924,
				"element": "H" 
			},
			{
				"x": -0.4290882697,
				"y": 3.4047694111,
				"z": -5.9381695086,
				"element": "H" 
			},
			{
				"x": 0.9745445642,
				"y": 2.3751351655,
				"z": -4.4839742283,
				"element": "H" 
			},
			{
				"x": -0.0561041792,
				"y": 0.9396800458,
				"z": -2.0039062049,
				"element": "H" 
			},
			{
				"x": 0.678298745,
				"y": 0.1454004717,
				"z": -0.3104722628,
				"element": "H" 
			},
			{
				"x": 4.0457309605,
				"y": -1.5945407536,
				"z": 1.6830093652,
				"element": "H" 
			},
			{
				"x": 5.5221624985,
				"y": -0.8825081417,
				"z": -0.1534497756,
				"element": "H" 
			},
			{
				"x": 4.5742235775,
				"y": 0.353997299,
				"z": -2.1109845801,
				"element": "H" 
			},
			{
				"x": 2.6081422932,
				"y": -2.6921940066,
				"z": 2.6026054832,
				"element": "H" 
			},
			{
				"x": 1.7548624787,
				"y": -3.2326145955,
				"z": 4.5732855996,
				"element": "H" 
			},
			{
				"x": -0.9538714596,
				"y": -1.431633293,
				"z": 2.4810872159,
				"element": "H" 
			},
			{
				"x": -3.4629640608,
				"y": -1.673161193,
				"z": 4.7343130265,
				"element": "H" 
			},
			{
				"x": -3.1653533069,
				"y": -1.9244591996,
				"z": 7.1929787748,
				"element": "H" 
			},
			{
				"x": -0.8935224914,
				"y": -2.4221325736,
				"z": 8.1189908035,
				"element": "H" 
			},
			{
				"x": 1.0064179957,
				"y": -2.6919561097,
				"z": 6.5741103047,
				"element": "H" 
			}
		],
		 "valence_orbital": [ 
			{
				"type": "occ",
				"energy": -0.24608,
				"method": "rhf"
			},
			{
				"type": "occ",
				"energy": -0.24392,
				"method": "rhf"
			},
			{
				"type": "occ",
				"energy": -0.24224,
				"method": "rhf"
			},
			{
				"type": "occ",
				"energy": -0.22251,
				"method": "rhf"
			},
			{
				"type": "occ",
				"energy": -0.21754,
				"method": "rhf"
			},
			{
				"type": "unocc",
				"energy": -0.09069,
				"method": "rhf"
			},
			{
				"type": "unocc",
				"energy": -0.0755,
				"method": "rhf"
			},
			{
				"type": "unocc",
				"energy": -0.02922,
				"method": "rhf"
			},
			{
				"type": "unocc",
				"energy": -0.02234,
				"method": "rhf"
			},
			{
				"type": "unocc",
				"energy": -0.00151,
				"method": "rhf"
			}
		],
		"cosmo_sigma_profile": { 
			"-0.025": 0.0,
			"-0.024": 0.0,
			"-0.023": 0.0,
			"-0.022": 0.0,
			"-0.021": 0.0,
			"-0.02": 0.0,
			"-0.019": 0.0981299140367,
			"-0.018": 1.11033269179,
			"-0.017": 1.15632009137,
			"-0.016": 0.924340889319,
			"-0.015": 1.20642328671,
			"-0.014": 1.07179211792,
			"-0.013": 0.639352411563,
			"-0.012": 1.13828016527,
			"-0.011": 0.9091827887,
			"-0.01": 1.35687551498,
			"-0.009": 2.24610258729,
			"-0.008": 4.30349841615,
			"-0.007": 15.0507225097,
			"-0.006": 24.6531550476,
			"-0.005": 25.4485639304,
			"-0.004": 25.8196374988,
			"-0.003": 22.507711563,
			"-0.002": 25.9580642501,
			"-0.001": 24.6518546879,
			"0.0": 25.8776462773,
			"0.001": 33.5251817896,
			"0.002": 49.2139391472,
			"0.003": 39.4430980007,
			"0.004": 31.6063449043,
			"0.005": 17.3185495804,
			"0.006": 6.78623172706,
			"0.007": 5.97252864915,
			"0.008": 4.68249115793,
			"0.009": 3.91061334357,
			"0.01": 4.58380583931,
			"0.011": 4.14757677842,
			"0.012": 5.59290748507,
			"0.013": 2.67443435648,
			"0.014": 0.0,
			"0.015": 0.0,
			"0.016": 0.0,
			"0.017": 0.0,
			"0.018": 0.0,
			"0.019": 0.0,
			"0.02": 0.0,
			"0.021": 0.0,
			"0.022": 0.0,
			"0.023": 0.0,
			"0.024": 0.0,
			"0.025": 0.0
		}
	}
}
