{
	 "smiles": "O=C(CCC1=NC=NC1)NCCC1=CNC=N1", 
	 "Tm": 437.15, 
	 "num_atms": 32, 
	 "gaussian": { 
		 "optdone": 1, 
		 "sigma_profile": "yes", 
		 "theory": "DFT", 
		 "functional": "B3LYP", 
		 "basiset": "6-31G**", 
		 "properties": { 
			 "R2extent": 4268.6483, 
			 "electric_dipole_moment_norm": 5.57340683335, 
			 "electric_quadrupole_moment_norm": 21.0644255333, 
			 "total_energy": -777.188569328, 
			 "HOMO_LUMO_gap": 0.18556, 
			 "cosmo_polarized_energy": -23.31, 
			 "cosmo_cavitation_energy": 34.96, 
			 "cosmo_dispersion_energy": -23.82, 
			 "cosmo_repulsion_energy": 1.85, 
			 "cosmo_total_nonelectrostatic_energy": 12.98, 
			 "SMD_solvation_energy": 0.78 
		},
		"coords": [
			{
				"x": -0.6301730201,
				"y": -2.2994325535,
				"z": -2.7413565532,
				"element": "O" 
			},
			{
				"x": 0.1484530259,
				"y": -1.4937710956,
				"z": -2.2404244193,
				"element": "C" 
			},
			{
				"x": 0.9191079108,
				"y": -0.4891299373,
				"z": -3.100903144,
				"element": "C" 
			},
			{
				"x": 0.0202823138,
				"y": 0.6771946508,
				"z": -3.5762263769,
				"element": "C" 
			},
			{
				"x": -0.3298283866,
				"y": 1.6737930769,
				"z": -2.5117526497,
				"element": "C" 
			},
			{
				"x": -1.542790808,
				"y": 2.0481574301,
				"z": -2.249862529,
				"element": "N" 
			},
			{
				"x": -1.3908907047,
				"y": 3.0190843159,
				"z": -1.2248404753,
				"element": "C" 
			},
			{
				"x": -0.1998172175,
				"y": 3.293270747,
				"z": -0.8214840761,
				"element": "N" 
			},
			{
				"x": 0.6470260637,
				"y": 2.4203464805,
				"z": -1.6296789387,
				"element": "C" 
			},
			{
				"x": 0.3908562926,
				"y": -1.4227063748,
				"z": -0.9033913363,
				"element": "N" 
			},
			{
				"x": -0.381969935,
				"y": -2.2103814055,
				"z": 0.049040505,
				"element": "C" 
			},
			{
				"x": 0.1844376288,
				"y": -2.034763776,
				"z": 1.4686299298,
				"element": "C" 
			},
			{
				"x": 0.090042626,
				"y": -0.6246395702,
				"z": 1.9789350524,
				"element": "C" 
			},
			{
				"x": -0.5720617521,
				"y": -0.1451702625,
				"z": 3.0824360693,
				"element": "C" 
			},
			{
				"x": -0.3761294689,
				"y": 1.2228512185,
				"z": 3.0699674026,
				"element": "N" 
			},
			{
				"x": 0.3794368943,
				"y": 1.5189330952,
				"z": 1.9771467429,
				"element": "C" 
			},
			{
				"x": 0.684807901,
				"y": 0.4297337789,
				"z": 1.3014370117,
				"element": "N" 
			},
			{
				"x": 1.2648967347,
				"y": -1.0371087056,
				"z": -3.9815567729,
				"element": "H" 
			},
			{
				"x": 1.8046244706,
				"y": -0.10779386,
				"z": -2.5798625273,
				"element": "H" 
			},
			{
				"x": 0.5472097334,
				"y": 1.2111878562,
				"z": -4.3794319962,
				"element": "H" 
			},
			{
				"x": -0.9048417582,
				"y": 0.2782811896,
				"z": -4.0000291709,
				"element": "H" 
			},
			{
				"x": -2.277895237,
				"y": 3.4959280699,
				"z": -0.8166388098,
				"element": "H" 
			},
			{
				"x": 1.2180622402,
				"y": 1.7535470643,
				"z": -0.9706648748,
				"element": "H" 
			},
			{
				"x": 1.3748412737,
				"y": 3.0067451505,
				"z": -2.2063543764,
				"element": "H" 
			},
			{
				"x": 0.8627625177,
				"y": -0.6122034659,
				"z": -0.5147170903,
				"element": "H" 
			},
			{
				"x": -1.4402535035,
				"y": -1.9158812908,
				"z": 0.0252001399,
				"element": "H" 
			},
			{
				"x": -0.3387669987,
				"y": -3.262039446,
				"z": -0.2507073189,
				"element": "H" 
			},
			{
				"x": -0.3584573801,
				"y": -2.7009739514,
				"z": 2.1469625912,
				"element": "H" 
			},
			{
				"x": 1.23243404,
				"y": -2.3619215013,
				"z": 1.4706495748,
				"element": "H" 
			},
			{
				"x": -1.1475859148,
				"y": -0.6370620189,
				"z": 3.8511251979,
				"element": "H" 
			},
			{
				"x": -0.73857282,
				"y": 1.8841618693,
				"z": 3.739424489,
				"element": "H" 
			},
			{
				"x": 0.6389532378,
				"y": 2.5301632217,
				"z": 1.6970287297,
				"element": "H" 
			}
		],
		 "valence_orbital": [ 
			{
				"type": "occ",
				"energy": -0.27009,
				"method": "rhf"
			},
			{
				"type": "occ",
				"energy": -0.26316,
				"method": "rhf"
			},
			{
				"type": "occ",
				"energy": -0.2393,
				"method": "rhf"
			},
			{
				"type": "occ",
				"energy": -0.23414,
				"method": "rhf"
			},
			{
				"type": "occ",
				"energy": -0.22927,
				"method": "rhf"
			},
			{
				"type": "unocc",
				"energy": -0.04371,
				"method": "rhf"
			},
			{
				"type": "unocc",
				"energy": 0.01788,
				"method": "rhf"
			},
			{
				"type": "unocc",
				"energy": 0.03711,
				"method": "rhf"
			},
			{
				"type": "unocc",
				"energy": 0.05124,
				"method": "rhf"
			},
			{
				"type": "unocc",
				"energy": 0.05551,
				"method": "rhf"
			}
		],
		"cosmo_sigma_profile": { 
			"-0.025": 0.0,
			"-0.024": 0.0,
			"-0.023": 0.0,
			"-0.022": 0.0,
			"-0.021": 0.0,
			"-0.02": 0.0,
			"-0.019": 0.0,
			"-0.018": 0.0,
			"-0.017": 0.290471265575,
			"-0.016": 1.96751712343,
			"-0.015": 1.55845108096,
			"-0.014": 1.15758714618,
			"-0.013": 1.22473952499,
			"-0.012": 1.59588267,
			"-0.011": 1.61959661647,
			"-0.01": 1.47266028805,
			"-0.009": 1.97827753841,
			"-0.008": 7.76247927753,
			"-0.007": 12.708301586,
			"-0.006": 14.4224232768,
			"-0.005": 15.6189635045,
			"-0.004": 20.6158889592,
			"-0.003": 23.8526862696,
			"-0.002": 23.8224158725,
			"-0.001": 15.4619491694,
			"0.0": 15.1053774844,
			"0.001": 15.3224466631,
			"0.002": 13.7873979757,
			"0.003": 13.9244013847,
			"0.004": 14.1926853611,
			"0.005": 10.5592496757,
			"0.006": 5.48975258423,
			"0.007": 4.24964586253,
			"0.008": 4.91423389804,
			"0.009": 3.74038670712,
			"0.01": 2.28794359229,
			"0.011": 5.06416732036,
			"0.012": 4.24698124926,
			"0.013": 3.13262811513,
			"0.014": 7.010979473,
			"0.015": 4.69144077889,
			"0.016": 1.62371631423,
			"0.017": 0.0651112206169,
			"0.018": 0.0,
			"0.019": 0.0,
			"0.02": 0.0,
			"0.021": 0.0,
			"0.022": 0.0,
			"0.023": 0.0,
			"0.024": 0.0,
			"0.025": 0.0
		}
	}
}
