{
	 "smiles": "OC(=O)CCC1=CC=C(O1)C1=C(F)C=CC=C1", 
	 "Tm": 391.15, 
	 "num_atms": 28, 
	 "gaussian": { 
		 "optdone": 1, 
		 "sigma_profile": "yes", 
		 "theory": "DFT", 
		 "functional": "B3LYP", 
		 "basiset": "6-31G**", 
		 "properties": { 
			 "R2extent": 5830.2371, 
			 "electric_dipole_moment_norm": 1.73286369343, 
			 "electric_quadrupole_moment_norm": 15.4489023157, 
			 "total_energy": -827.526297488, 
			 "HOMO_LUMO_gap": 0.16821, 
			 "cosmo_polarized_energy": -11.98, 
			 "cosmo_cavitation_energy": 33.62, 
			 "cosmo_dispersion_energy": -23.57, 
			 "cosmo_repulsion_energy": 1.83, 
			 "cosmo_total_nonelectrostatic_energy": 11.88, 
			 "SMD_solvation_energy": 7.37 
		},
		"coords": [
			{
				"x": 1.184447405,
				"y": 2.6310390972,
				"z": 2.0073145835,
				"element": "O" 
			},
			{
				"x": 0.4848037953,
				"y": 1.4938821437,
				"z": 2.2559237868,
				"element": "C" 
			},
			{
				"x": 0.9732981447,
				"y": 0.5444314817,
				"z": 2.824816798,
				"element": "O" 
			},
			{
				"x": -0.9498671942,
				"y": 1.5903389633,
				"z": 1.7783981156,
				"element": "C" 
			},
			{
				"x": -1.1181364206,
				"y": 2.2226492258,
				"z": 0.3788914532,
				"element": "C" 
			},
			{
				"x": -0.4866274504,
				"y": 1.4316508904,
				"z": -0.7164608678,
				"element": "C" 
			},
			{
				"x": 0.6153213091,
				"y": 1.6177106674,
				"z": -1.5007487789,
				"element": "C" 
			},
			{
				"x": 0.7088139015,
				"y": 0.4804988224,
				"z": -2.3596859272,
				"element": "C" 
			},
			{
				"x": -0.3458030963,
				"y": -0.3391998543,
				"z": -2.0447963549,
				"element": "C" 
			},
			{
				"x": -1.0805803078,
				"y": 0.2415404521,
				"z": -1.0372202266,
				"element": "O" 
			},
			{
				"x": -0.8244745045,
				"y": -1.6235133213,
				"z": -2.5330905729,
				"element": "C" 
			},
			{
				"x": -0.1699745592,
				"y": -2.3176638457,
				"z": -3.562788966,
				"element": "C" 
			},
			{
				"x": 0.9399072395,
				"y": -1.7759998023,
				"z": -4.1198751251,
				"element": "F" 
			},
			{
				"x": -0.606830909,
				"y": -3.5423386827,
				"z": -4.0440736501,
				"element": "C" 
			},
			{
				"x": -1.747631802,
				"y": -4.1234586245,
				"z": -3.488733085,
				"element": "C" 
			},
			{
				"x": -2.4277639754,
				"y": -3.4647249361,
				"z": -2.4617323355,
				"element": "C" 
			},
			{
				"x": -1.9725243253,
				"y": -2.2355515865,
				"z": -1.9928273141,
				"element": "C" 
			},
			{
				"x": 2.0773534346,
				"y": 2.4755252016,
				"z": 2.3583650208,
				"element": "H" 
			},
			{
				"x": -1.4963574748,
				"y": 2.1967600176,
				"z": 2.5122776933,
				"element": "H" 
			},
			{
				"x": -1.3661282108,
				"y": 0.5816090277,
				"z": 1.8083676493,
				"element": "H" 
			},
			{
				"x": -0.6817376135,
				"y": 3.2242673991,
				"z": 0.3760637267,
				"element": "H" 
			},
			{
				"x": -2.1910543542,
				"y": 2.3329061482,
				"z": 0.1797770003,
				"element": "H" 
			},
			{
				"x": 1.2814046317,
				"y": 2.4678793327,
				"z": -1.4659114201,
				"element": "H" 
			},
			{
				"x": 1.4547070184,
				"y": 0.2881052472,
				"z": -3.1131841659,
				"element": "H" 
			},
			{
				"x": -0.0484525026,
				"y": -4.0191461949,
				"z": -4.8424337752,
				"element": "H" 
			},
			{
				"x": -2.0986340586,
				"y": -5.0822258156,
				"z": -3.8572945018,
				"element": "H" 
			},
			{
				"x": -3.3156865094,
				"y": -3.9096050093,
				"z": -2.0232795764,
				"element": "H" 
			},
			{
				"x": -2.5008916114,
				"y": -1.7259664449,
				"z": -1.195259184,
				"element": "H" 
			}
		],
		 "valence_orbital": [ 
			{
				"type": "occ",
				"energy": -0.28515,
				"method": "rhf"
			},
			{
				"type": "occ",
				"energy": -0.27543,
				"method": "rhf"
			},
			{
				"type": "occ",
				"energy": -0.27198,
				"method": "rhf"
			},
			{
				"type": "occ",
				"energy": -0.2483,
				"method": "rhf"
			},
			{
				"type": "occ",
				"energy": -0.20209,
				"method": "rhf"
			},
			{
				"type": "unocc",
				"energy": -0.03388,
				"method": "rhf"
			},
			{
				"type": "unocc",
				"energy": 0.00061,
				"method": "rhf"
			},
			{
				"type": "unocc",
				"energy": 0.00676,
				"method": "rhf"
			},
			{
				"type": "unocc",
				"energy": 0.03729,
				"method": "rhf"
			},
			{
				"type": "unocc",
				"energy": 0.07205,
				"method": "rhf"
			}
		],
		"cosmo_sigma_profile": { 
			"-0.025": 0.0,
			"-0.024": 0.0,
			"-0.023": 0.0,
			"-0.022": 0.0,
			"-0.021": 0.0,
			"-0.02": 0.0,
			"-0.019": 0.0969378773877,
			"-0.018": 0.671391377111,
			"-0.017": 0.760419429527,
			"-0.016": 1.19099358095,
			"-0.015": 0.76411205002,
			"-0.014": 0.122191748398,
			"-0.013": 0.431244107572,
			"-0.012": 0.653004350868,
			"-0.011": 1.75834984648,
			"-0.01": 0.310767076615,
			"-0.009": 0.433530839704,
			"-0.008": 0.669844260955,
			"-0.007": 6.50379399809,
			"-0.006": 13.9854466617,
			"-0.005": 19.4905257945,
			"-0.004": 21.3891935841,
			"-0.003": 17.3535321838,
			"-0.002": 15.5907651288,
			"-0.001": 14.9203930961,
			"0.0": 17.1421995993,
			"0.001": 21.7449351483,
			"0.002": 28.8165769264,
			"0.003": 26.5352294703,
			"0.004": 24.0236147376,
			"0.005": 11.8505594406,
			"0.006": 3.5785173418,
			"0.007": 1.93957023828,
			"0.008": 2.56602293232,
			"0.009": 1.93798405484,
			"0.01": 1.67134177631,
			"0.011": 4.34387412549,
			"0.012": 4.5167471261,
			"0.013": 0.885852788863,
			"0.014": 0.0,
			"0.015": 0.0,
			"0.016": 0.0,
			"0.017": 0.0,
			"0.018": 0.0,
			"0.019": 0.0,
			"0.02": 0.0,
			"0.021": 0.0,
			"0.022": 0.0,
			"0.023": 0.0,
			"0.024": 0.0,
			"0.025": 0.0
		}
	}
}
