{
	 "smiles": "CCN(CC)C1=NC(=NC(Cl)=N1)N(CC)CC", 
	 "Tm": 300.15, 
	 "num_atms": 37, 
	 "gaussian": { 
		 "optdone": 1, 
		 "sigma_profile": "yes", 
		 "theory": "DFT", 
		 "functional": "B3LYP", 
		 "basiset": "6-31G**", 
		 "properties": { 
			 "R2extent": 6239.6423, 
			 "electric_dipole_moment_norm": 4.34346696546, 
			 "electric_quadrupole_moment_norm": 18.3551762514, 
			 "total_energy": -1165.2271549, 
			 "HOMO_LUMO_gap": 0.21233, 
			 "cosmo_polarized_energy": -9.16, 
			 "cosmo_cavitation_energy": 40.35, 
			 "cosmo_dispersion_energy": -27.27, 
			 "cosmo_repulsion_energy": 2.18, 
			 "cosmo_total_nonelectrostatic_energy": 15.26, 
			 "SMD_solvation_energy": 4.81 
		},
		"coords": [
			{
				"x": -3.1567147578,
				"y": 0.6340490314,
				"z": 0.5206340698,
				"element": "C" 
			},
			{
				"x": -2.4018078589,
				"y": -0.5772476217,
				"z": 1.0765583467,
				"element": "C" 
			},
			{
				"x": -2.0667611746,
				"y": -1.5655339574,
				"z": 0.0488676534,
				"element": "N" 
			},
			{
				"x": -3.0327999367,
				"y": -2.6361391753,
				"z": -0.2227053324,
				"element": "C" 
			},
			{
				"x": -2.7988049788,
				"y": -3.8855444632,
				"z": 0.6307106733,
				"element": "C" 
			},
			{
				"x": -0.8948832501,
				"y": -1.4942890749,
				"z": -0.6312216412,
				"element": "C" 
			},
			{
				"x": -0.0616693021,
				"y": -0.4726781573,
				"z": -0.3650292911,
				"element": "N" 
			},
			{
				"x": 1.0793169039,
				"y": -0.463381605,
				"z": -1.0763397918,
				"element": "C" 
			},
			{
				"x": 1.417751757,
				"y": -1.3948269897,
				"z": -2.0109535721,
				"element": "N" 
			},
			{
				"x": 0.5024016205,
				"y": -2.3302532669,
				"z": -2.1618177545,
				"element": "C" 
			},
			{
				"x": 0.8781174578,
				"y": -3.5681590354,
				"z": -3.3629237404,
				"element": "Cl" 
			},
			{
				"x": -0.6495319768,
				"y": -2.4785808651,
				"z": -1.5405130726,
				"element": "N" 
			},
			{
				"x": 1.9637305092,
				"y": 0.5464296722,
				"z": -0.8675219574,
				"element": "N" 
			},
			{
				"x": 1.6790983992,
				"y": 1.5785206927,
				"z": 0.1342075454,
				"element": "C" 
			},
			{
				"x": 2.0898483167,
				"y": 1.2005371376,
				"z": 1.5616386757,
				"element": "C" 
			},
			{
				"x": 3.2283209887,
				"y": 0.586213805,
				"z": -1.614826888,
				"element": "C" 
			},
			{
				"x": 4.3362323873,
				"y": -0.2941224952,
				"z": -1.0279661792,
				"element": "C" 
			},
			{
				"x": -4.0864138474,
				"y": 0.333808545,
				"z": 0.0261225369,
				"element": "H" 
			},
			{
				"x": -3.4130594557,
				"y": 1.3269143879,
				"z": 1.3293122364,
				"element": "H" 
			},
			{
				"x": -2.5368199906,
				"y": 1.1658909151,
				"z": -0.2060004096,
				"element": "H" 
			},
			{
				"x": -3.006260703,
				"y": -1.0880509089,
				"z": 1.8341060711,
				"element": "H" 
			},
			{
				"x": -1.4764723114,
				"y": -0.2526078582,
				"z": 1.5546296276,
				"element": "H" 
			},
			{
				"x": -2.9724367059,
				"y": -2.893211845,
				"z": -1.2808744694,
				"element": "H" 
			},
			{
				"x": -4.0305351591,
				"y": -2.2247016164,
				"z": -0.0345784466,
				"element": "H" 
			},
			{
				"x": -1.8243110282,
				"y": -4.3227280779,
				"z": 0.3986392792,
				"element": "H" 
			},
			{
				"x": -2.8310716698,
				"y": -3.6534282354,
				"z": 1.7006363326,
				"element": "H" 
			},
			{
				"x": -3.5699861677,
				"y": -4.6352525025,
				"z": 0.4241546105,
				"element": "H" 
			},
			{
				"x": 2.2030035922,
				"y": 2.4864090872,
				"z": -0.1818442917,
				"element": "H" 
			},
			{
				"x": 0.6075423088,
				"y": 1.7862851968,
				"z": 0.1070566468,
				"element": "H" 
			},
			{
				"x": 1.8281581127,
				"y": 2.008939624,
				"z": 2.2532082382,
				"element": "H" 
			},
			{
				"x": 1.5671176433,
				"y": 0.294994885,
				"z": 1.8803755993,
				"element": "H" 
			},
			{
				"x": 3.1667723707,
				"y": 1.0249311296,
				"z": 1.6400361872,
				"element": "H" 
			},
			{
				"x": 3.547749616,
				"y": 1.6329921199,
				"z": -1.640395645,
				"element": "H" 
			},
			{
				"x": 3.0246146677,
				"y": 0.2737195391,
				"z": -2.6408489209,
				"element": "H" 
			},
			{
				"x": 5.2415716577,
				"y": -0.20850547,
				"z": -1.6386762105,
				"element": "H" 
			},
			{
				"x": 4.0250172928,
				"y": -1.3415365098,
				"z": -1.026723445,
				"element": "H" 
			},
			{
				"x": 4.5895746727,
				"y": -0.0010560373,
				"z": -0.0046332708,
				"element": "H" 
			}
		],
		 "valence_orbital": [ 
			{
				"type": "occ",
				"energy": -0.2843,
				"method": "rhf"
			},
			{
				"type": "occ",
				"energy": -0.26133,
				"method": "rhf"
			},
			{
				"type": "occ",
				"energy": -0.25784,
				"method": "rhf"
			},
			{
				"type": "occ",
				"energy": -0.22846,
				"method": "rhf"
			},
			{
				"type": "occ",
				"energy": -0.22627,
				"method": "rhf"
			},
			{
				"type": "unocc",
				"energy": -0.01394,
				"method": "rhf"
			},
			{
				"type": "unocc",
				"energy": 0.00387,
				"method": "rhf"
			},
			{
				"type": "unocc",
				"energy": 0.04895,
				"method": "rhf"
			},
			{
				"type": "unocc",
				"energy": 0.07834,
				"method": "rhf"
			},
			{
				"type": "unocc",
				"energy": 0.08855,
				"method": "rhf"
			}
		],
		"cosmo_sigma_profile": { 
			"-0.025": 0.0,
			"-0.024": 0.0,
			"-0.023": 0.0,
			"-0.022": 0.0,
			"-0.021": 0.0,
			"-0.02": 0.0,
			"-0.019": 0.0,
			"-0.018": 0.0,
			"-0.017": 0.0,
			"-0.016": 0.0,
			"-0.015": 0.0,
			"-0.014": 0.0,
			"-0.013": 0.0,
			"-0.012": 0.0,
			"-0.011": 0.0,
			"-0.01": 0.0,
			"-0.009": 0.0,
			"-0.008": 0.0,
			"-0.007": 0.0851045888014,
			"-0.006": 2.29294692046,
			"-0.005": 10.4692541314,
			"-0.004": 22.1107970266,
			"-0.003": 35.7591382857,
			"-0.002": 43.9763336297,
			"-0.001": 41.5299595161,
			"0.0": 42.5053189064,
			"0.001": 43.1521346485,
			"0.002": 17.376933968,
			"0.003": 12.2869066593,
			"0.004": 13.1108475918,
			"0.005": 12.3592893158,
			"0.006": 7.01061272939,
			"0.007": 4.12115209546,
			"0.008": 3.27420808288,
			"0.009": 3.10639299982,
			"0.01": 1.87309476225,
			"0.011": 1.71387404221,
			"0.012": 0.397495240664,
			"0.013": 0.0,
			"0.014": 0.0,
			"0.015": 0.0,
			"0.016": 0.0,
			"0.017": 0.0,
			"0.018": 0.0,
			"0.019": 0.0,
			"0.02": 0.0,
			"0.021": 0.0,
			"0.022": 0.0,
			"0.023": 0.0,
			"0.024": 0.0,
			"0.025": 0.0
		}
	}
}
