{
	 "smiles": "OC(=O)C1=NNC(=O)CC1", 
	 "Tm": 473.15, 
	 "num_atms": 16, 
	 "gaussian": { 
		 "optdone": 1, 
		 "sigma_profile": "yes", 
		 "theory": "DFT", 
		 "functional": "B3LYP", 
		 "basiset": "6-31G**", 
		 "properties": { 
			 "R2extent": 2257.6342, 
			 "electric_dipole_moment_norm": 2.01123894652, 
			 "electric_quadrupole_moment_norm": 19.8336755328, 
			 "total_energy": -529.315844229, 
			 "HOMO_LUMO_gap": 0.19045, 
			 "cosmo_polarized_energy": -16.19, 
			 "cosmo_cavitation_energy": 20.52, 
			 "cosmo_dispersion_energy": -15.65, 
			 "cosmo_repulsion_energy": 1.3, 
			 "cosmo_total_nonelectrostatic_energy": 6.17, 
			 "SMD_solvation_energy": 5.0 
		},
		"coords": [
			{
				"x": 0.6202793043,
				"y": 3.1002289294,
				"z": -2.2169661017,
				"element": "O" 
			},
			{
				"x": -0.1380302714,
				"y": 2.2430376058,
				"z": -1.5117435903,
				"element": "C" 
			},
			{
				"x": -1.2620038071,
				"y": 1.9381877345,
				"z": -1.8417067052,
				"element": "O" 
			},
			{
				"x": 0.5059214024,
				"y": 1.6868816083,
				"z": -0.2747894672,
				"element": "C" 
			},
			{
				"x": 1.7059186307,
				"y": 2.089579455,
				"z": -0.0309247413,
				"element": "N" 
			},
			{
				"x": 2.3178124876,
				"y": 1.6247439793,
				"z": 1.0956192276,
				"element": "N" 
			},
			{
				"x": 1.9574495627,
				"y": 0.4936863284,
				"z": 1.8305195992,
				"element": "C" 
			},
			{
				"x": 2.6474906011,
				"y": 0.1196869808,
				"z": 2.7587838527,
				"element": "O" 
			},
			{
				"x": 0.7122875254,
				"y": -0.2075236562,
				"z": 1.3195906355,
				"element": "C" 
			},
			{
				"x": -0.256748793,
				"y": 0.7587630997,
				"z": 0.6243621876,
				"element": "C" 
			},
			{
				"x": 1.4740753533,
				"y": 3.1848584545,
				"z": -1.752491663,
				"element": "H" 
			},
			{
				"x": 3.2331096701,
				"y": 2.0147988047,
				"z": 1.2802478424,
				"element": "H" 
			},
			{
				"x": 0.2489443264,
				"y": -0.7298401891,
				"z": 2.158629923,
				"element": "H" 
			},
			{
				"x": 1.0554693657,
				"y": -0.9761278594,
				"z": 0.6139125943,
				"element": "H" 
			},
			{
				"x": -0.7878654233,
				"y": 1.3678922247,
				"z": 1.3701976209,
				"element": "H" 
			},
			{
				"x": -1.0242099348,
				"y": 0.2354464995,
				"z": 0.0509587854,
				"element": "H" 
			}
		],
		 "valence_orbital": [ 
			{
				"type": "occ",
				"energy": -0.3428,
				"method": "rhf"
			},
			{
				"type": "occ",
				"energy": -0.32131,
				"method": "rhf"
			},
			{
				"type": "occ",
				"energy": -0.28911,
				"method": "rhf"
			},
			{
				"type": "occ",
				"energy": -0.27221,
				"method": "rhf"
			},
			{
				"type": "occ",
				"energy": -0.26936,
				"method": "rhf"
			},
			{
				"type": "unocc",
				"energy": -0.07891,
				"method": "rhf"
			},
			{
				"type": "unocc",
				"energy": 0.00111,
				"method": "rhf"
			},
			{
				"type": "unocc",
				"energy": 0.057,
				"method": "rhf"
			},
			{
				"type": "unocc",
				"energy": 0.07362,
				"method": "rhf"
			},
			{
				"type": "unocc",
				"energy": 0.09309,
				"method": "rhf"
			}
		],
		"cosmo_sigma_profile": { 
			"-0.025": 0.0,
			"-0.024": 0.0,
			"-0.023": 0.0,
			"-0.022": 0.0,
			"-0.021": 0.0,
			"-0.02": 0.0,
			"-0.019": 0.0,
			"-0.018": 0.0,
			"-0.017": 0.0289360019156,
			"-0.016": 0.730043912944,
			"-0.015": 1.50374075235,
			"-0.014": 1.46743786455,
			"-0.013": 1.8399347361,
			"-0.012": 1.27726256988,
			"-0.011": 0.898538063174,
			"-0.01": 1.77751045002,
			"-0.009": 1.15481195236,
			"-0.008": 2.66227080554,
			"-0.007": 11.087673665,
			"-0.006": 14.0394926514,
			"-0.005": 14.9134950402,
			"-0.004": 12.0326321764,
			"-0.003": 11.7873689629,
			"-0.002": 7.02231863151,
			"-0.001": 6.54971619904,
			"0.0": 6.05370640506,
			"0.001": 5.6425194087,
			"0.002": 5.45217143098,
			"0.003": 4.42549739633,
			"0.004": 2.89210678892,
			"0.005": 3.58029584028,
			"0.006": 3.88167961471,
			"0.007": 3.88178495013,
			"0.008": 4.05306740309,
			"0.009": 5.15356903337,
			"0.01": 7.77425383306,
			"0.011": 8.27564471697,
			"0.012": 8.51512503249,
			"0.013": 2.47583633939,
			"0.014": 0.0645369053028,
			"0.015": 0.0,
			"0.016": 0.0,
			"0.017": 0.0,
			"0.018": 0.0,
			"0.019": 0.0,
			"0.02": 0.0,
			"0.021": 0.0,
			"0.022": 0.0,
			"0.023": 0.0,
			"0.024": 0.0,
			"0.025": 0.0
		}
	}
}
