{
	 "smiles": "COC(=O)C1=CC(=CC=C1)N1CC(=O)NC1=O", 
	 "Tm": 463.15, 
	 "num_atms": 27, 
	 "gaussian": { 
		 "optdone": 1, 
		 "sigma_profile": "yes", 
		 "theory": "DFT", 
		 "functional": "B3LYP", 
		 "basiset": "6-31G**", 
		 "properties": { 
			 "R2extent": 5252.7951, 
			 "electric_dipole_moment_norm": 1.375270188, 
			 "electric_quadrupole_moment_norm": 13.5347544714, 
			 "total_energy": -835.644265301, 
			 "HOMO_LUMO_gap": 0.18351, 
			 "cosmo_polarized_energy": -17.83, 
			 "cosmo_cavitation_energy": 32.21, 
			 "cosmo_dispersion_energy": -23.61, 
			 "cosmo_repulsion_energy": 1.82, 
			 "cosmo_total_nonelectrostatic_energy": 10.42, 
			 "SMD_solvation_energy": 8.24 
		},
		"coords": [
			{
				"x": 2.1137964629,
				"y": 2.4430623035,
				"z": 3.4805865151,
				"element": "C" 
			},
			{
				"x": 1.24022725,
				"y": 1.8310661855,
				"z": 2.5188636544,
				"element": "O" 
			},
			{
				"x": 0.041386263,
				"y": 1.4296575804,
				"z": 3.0044283788,
				"element": "C" 
			},
			{
				"x": -0.2828525207,
				"y": 1.57141823,
				"z": 4.1668800321,
				"element": "O" 
			},
			{
				"x": -0.8188867884,
				"y": 0.8030847796,
				"z": 1.9595410709,
				"element": "C" 
			},
			{
				"x": -0.3856972782,
				"y": 0.669579263,
				"z": 0.6350321721,
				"element": "C" 
			},
			{
				"x": -1.2171112599,
				"y": 0.0761795623,
				"z": -0.3243144451,
				"element": "C" 
			},
			{
				"x": -2.4910088782,
				"y": -0.3833648156,
				"z": 0.0594011411,
				"element": "C" 
			},
			{
				"x": -2.9065247066,
				"y": -0.2426073219,
				"z": 1.3822166163,
				"element": "C" 
			},
			{
				"x": -2.0843248476,
				"y": 0.3463912213,
				"z": 2.3394608759,
				"element": "C" 
			},
			{
				"x": -0.7466466319,
				"y": -0.042415106,
				"z": -1.6544191413,
				"element": "N" 
			},
			{
				"x": 0.5725082641,
				"y": 0.4305076508,
				"z": -2.0651238316,
				"element": "C" 
			},
			{
				"x": 0.637419736,
				"y": 0.0970169135,
				"z": -3.5549525229,
				"element": "C" 
			},
			{
				"x": 1.5537828242,
				"y": 0.3099173846,
				"z": -4.3165643592,
				"element": "O" 
			},
			{
				"x": -0.5735412899,
				"y": -0.4968869263,
				"z": -3.8362423179,
				"element": "N" 
			},
			{
				"x": -1.4321092788,
				"y": -0.6000169535,
				"z": -2.7260793678,
				"element": "C" 
			},
			{
				"x": -2.5428053217,
				"y": -1.0898536853,
				"z": -2.7583782075,
				"element": "O" 
			},
			{
				"x": 2.3411602141,
				"y": 1.7468146703,
				"z": 4.2916648885,
				"element": "H" 
			},
			{
				"x": 3.0196253974,
				"y": 2.7023084927,
				"z": 2.932624527,
				"element": "H" 
			},
			{
				"x": 1.651984382,
				"y": 3.3379161881,
				"z": 3.9051634557,
				"element": "H" 
			},
			{
				"x": 0.5994736408,
				"y": 1.034322445,
				"z": 0.3774437529,
				"element": "H" 
			},
			{
				"x": -3.1358377334,
				"y": -0.8417199132,
				"z": -0.6766414681,
				"element": "H" 
			},
			{
				"x": -3.8921000176,
				"y": -0.6021811065,
				"z": 1.6623415174,
				"element": "H" 
			},
			{
				"x": -2.3970754181,
				"y": 0.4610835503,
				"z": 3.3709763349,
				"element": "H" 
			},
			{
				"x": 1.382921967,
				"y": -0.0810652097,
				"z": -1.5334959225,
				"element": "H" 
			},
			{
				"x": 0.6921657001,
				"y": 1.5101633619,
				"z": -1.9197401349,
				"element": "H" 
			},
			{
				"x": -0.8485301305,
				"y": -0.8371787449,
				"z": -4.7466732143,
				"element": "H" 
			}
		],
		 "valence_orbital": [ 
			{
				"type": "occ",
				"energy": -0.30369,
				"method": "rhf"
			},
			{
				"type": "occ",
				"energy": -0.27964,
				"method": "rhf"
			},
			{
				"type": "occ",
				"energy": -0.27636,
				"method": "rhf"
			},
			{
				"type": "occ",
				"energy": -0.26676,
				"method": "rhf"
			},
			{
				"type": "occ",
				"energy": -0.235,
				"method": "rhf"
			},
			{
				"type": "unocc",
				"energy": -0.05149,
				"method": "rhf"
			},
			{
				"type": "unocc",
				"energy": -0.03075,
				"method": "rhf"
			},
			{
				"type": "unocc",
				"energy": -0.00661,
				"method": "rhf"
			},
			{
				"type": "unocc",
				"energy": 0.03948,
				"method": "rhf"
			},
			{
				"type": "unocc",
				"energy": 0.07034,
				"method": "rhf"
			}
		],
		"cosmo_sigma_profile": { 
			"-0.025": 0.0,
			"-0.024": 0.0,
			"-0.023": 0.0,
			"-0.022": 0.0,
			"-0.021": 0.0,
			"-0.02": 0.0,
			"-0.019": 0.0,
			"-0.018": 0.0374273165051,
			"-0.017": 1.17824589895,
			"-0.016": 0.947817778166,
			"-0.015": 1.25006444568,
			"-0.014": 0.635338123703,
			"-0.013": 0.775481286929,
			"-0.012": 1.05975324613,
			"-0.011": 1.01315594136,
			"-0.01": 0.600051547499,
			"-0.009": 7.01252447163,
			"-0.008": 9.67423982471,
			"-0.007": 8.15468493332,
			"-0.006": 13.6395588797,
			"-0.005": 16.0556597087,
			"-0.004": 18.1800401772,
			"-0.003": 18.4321076661,
			"-0.002": 17.1107740103,
			"-0.001": 13.0615922098,
			"0.0": 13.3181121937,
			"0.001": 17.0112951871,
			"0.002": 17.7016344888,
			"0.003": 17.9707774493,
			"0.004": 9.68484193541,
			"0.005": 6.99995503292,
			"0.006": 4.0239959942,
			"0.007": 3.7076104439,
			"0.008": 4.434057608,
			"0.009": 5.18990662791,
			"0.01": 6.06110873948,
			"0.011": 10.9360718907,
			"0.012": 11.0711761278,
			"0.013": 0.935098175297,
			"0.014": 0.0,
			"0.015": 0.0,
			"0.016": 0.0,
			"0.017": 0.0,
			"0.018": 0.0,
			"0.019": 0.0,
			"0.02": 0.0,
			"0.021": 0.0,
			"0.022": 0.0,
			"0.023": 0.0,
			"0.024": 0.0,
			"0.025": 0.0
		}
	}
}
