{
	 "smiles": "NC(=S)NCCC1=CC=CS1", 
	 "Tm": 401.15, 
	 "num_atms": 21, 
	 "gaussian": { 
		 "optdone": 1, 
		 "sigma_profile": "yes", 
		 "theory": "DFT", 
		 "functional": "B3LYP", 
		 "basiset": "6-31G**", 
		 "properties": { 
			 "R2extent": 2965.422, 
			 "electric_dipole_moment_norm": 4.68682590886, 
			 "electric_quadrupole_moment_norm": 22.7513625842, 
			 "total_energy": -1178.65390416, 
			 "HOMO_LUMO_gap": 0.18679, 
			 "cosmo_polarized_energy": -19.2, 
			 "cosmo_cavitation_energy": 27.95, 
			 "cosmo_dispersion_energy": -20.62, 
			 "cosmo_repulsion_energy": 1.58, 
			 "cosmo_total_nonelectrostatic_energy": 8.91, 
			 "SMD_solvation_energy": 2.86 
		},
		"coords": [
			{
				"x": -2.4591839992,
				"y": -1.8620330968,
				"z": -1.8651436486,
				"element": "N" 
			},
			{
				"x": -2.3818335382,
				"y": -1.4407744389,
				"z": -0.56784108,
				"element": "C" 
			},
			{
				"x": -2.8859355264,
				"y": -2.4152686997,
				"z": 0.7080269518,
				"element": "S" 
			},
			{
				"x": -1.8569515709,
				"y": -0.1996559556,
				"z": -0.3599697915,
				"element": "N" 
			},
			{
				"x": -1.0121365074,
				"y": 0.5380596009,
				"z": -1.292165924,
				"element": "C" 
			},
			{
				"x": 0.4218157369,
				"y": -0.0332654689,
				"z": -1.4153510568,
				"element": "C" 
			},
			{
				"x": 1.1954321783,
				"y": 0.0369658379,
				"z": -0.1282448883,
				"element": "C" 
			},
			{
				"x": 1.1566330868,
				"y": -0.8251351921,
				"z": 0.9386234068,
				"element": "C" 
			},
			{
				"x": 1.9761844701,
				"y": -0.4111902117,
				"z": 2.0339824926,
				"element": "C" 
			},
			{
				"x": 2.6300888497,
				"y": 0.7646460062,
				"z": 1.7943000184,
				"element": "C" 
			},
			{
				"x": 2.2541055844,
				"y": 1.3865019442,
				"z": 0.2182610026,
				"element": "S" 
			},
			{
				"x": -2.9931473528,
				"y": -2.7064512639,
				"z": -2.0040369908,
				"element": "H" 
			},
			{
				"x": -2.4716417225,
				"y": -1.1923456341,
				"z": -2.6216209393,
				"element": "H" 
			},
			{
				"x": -1.7175486438,
				"y": -0.0011079039,
				"z": 0.6215413882,
				"element": "H" 
			},
			{
				"x": -0.9723518913,
				"y": 1.5735984369,
				"z": -0.941706205,
				"element": "H" 
			},
			{
				"x": -1.4856954808,
				"y": 0.5685668657,
				"z": -2.2802653873,
				"element": "H" 
			},
			{
				"x": 0.3523935037,
				"y": -1.0772967312,
				"z": -1.7401295373,
				"element": "H" 
			},
			{
				"x": 0.9430454307,
				"y": 0.512963657,
				"z": -2.210278618,
				"element": "H" 
			},
			{
				"x": 0.5568221085,
				"y": -1.7296720585,
				"z": 0.9428972227,
				"element": "H" 
			},
			{
				"x": 2.0745249178,
				"y": -0.9708271389,
				"z": 2.9572285894,
				"element": "H" 
			},
			{
				"x": 3.3162803662,
				"y": 1.2977214452,
				"z": 2.4374929946,
				"element": "H" 
			}
		],
		 "valence_orbital": [ 
			{
				"type": "occ",
				"energy": -0.27746,
				"method": "rhf"
			},
			{
				"type": "occ",
				"energy": -0.25273,
				"method": "rhf"
			},
			{
				"type": "occ",
				"energy": -0.23224,
				"method": "rhf"
			},
			{
				"type": "occ",
				"energy": -0.21253,
				"method": "rhf"
			},
			{
				"type": "occ",
				"energy": -0.20306,
				"method": "rhf"
			},
			{
				"type": "unocc",
				"energy": -0.01627,
				"method": "rhf"
			},
			{
				"type": "unocc",
				"energy": -0.00237,
				"method": "rhf"
			},
			{
				"type": "unocc",
				"energy": 0.02297,
				"method": "rhf"
			},
			{
				"type": "unocc",
				"energy": 0.04988,
				"method": "rhf"
			},
			{
				"type": "unocc",
				"energy": 0.06237,
				"method": "rhf"
			}
		],
		"cosmo_sigma_profile": { 
			"-0.025": 0.0,
			"-0.024": 0.0,
			"-0.023": 0.0,
			"-0.022": 0.0,
			"-0.021": 0.0,
			"-0.02": 0.0,
			"-0.019": 0.0,
			"-0.018": 0.0,
			"-0.017": 0.0,
			"-0.016": 0.0666363552561,
			"-0.015": 1.08487220111,
			"-0.014": 2.44623040159,
			"-0.013": 2.85719408539,
			"-0.012": 3.44222133554,
			"-0.011": 2.82101727487,
			"-0.01": 3.04538045121,
			"-0.009": 3.10886955481,
			"-0.008": 4.00208811112,
			"-0.007": 5.70989823695,
			"-0.006": 11.0803126049,
			"-0.005": 14.2637823568,
			"-0.004": 16.2835892175,
			"-0.003": 15.6040605668,
			"-0.002": 14.5454300643,
			"-0.001": 10.4038615517,
			"0.0": 9.6335376809,
			"0.001": 12.0317219207,
			"0.002": 12.042954838,
			"0.003": 11.726058808,
			"0.004": 13.3257881363,
			"0.005": 15.8569226754,
			"0.006": 10.1172597761,
			"0.007": 3.79544779327,
			"0.008": 3.4709633266,
			"0.009": 4.24776771491,
			"0.01": 4.92022854806,
			"0.011": 5.44045124946,
			"0.012": 7.16303761806,
			"0.013": 1.82161614344,
			"0.014": 0.0,
			"0.015": 0.0,
			"0.016": 0.0,
			"0.017": 0.0,
			"0.018": 0.0,
			"0.019": 0.0,
			"0.02": 0.0,
			"0.021": 0.0,
			"0.022": 0.0,
			"0.023": 0.0,
			"0.024": 0.0,
			"0.025": 0.0
		}
	}
}
