{
	 "smiles": "CC(CCC1=CC=CC=C1)NC(C)C(O)C1=CC=C(O)C=C1", 
	 "Tm": 385.15, 
	 "num_atms": 47, 
	 "gaussian": { 
		 "optdone": 1, 
		 "sigma_profile": "yes", 
		 "theory": "DFT", 
		 "functional": "B3LYP", 
		 "basiset": "6-31G**", 
		 "properties": { 
			 "R2extent": 7397.0631, 
			 "electric_dipole_moment_norm": 3.42361923701, 
			 "electric_quadrupole_moment_norm": 14.4630862007, 
			 "total_energy": -944.290976072, 
			 "HOMO_LUMO_gap": 0.20719, 
			 "cosmo_polarized_energy": -14.98, 
			 "cosmo_cavitation_energy": 47.17, 
			 "cosmo_dispersion_energy": -29.68, 
			 "cosmo_repulsion_energy": 2.25, 
			 "cosmo_total_nonelectrostatic_energy": 19.73, 
			 "SMD_solvation_energy": 7.01 
		},
		"coords": [
			{
				"x": 2.637008596,
				"y": 1.4474146778,
				"z": 1.0120479603,
				"element": "C" 
			},
			{
				"x": 1.1821787666,
				"y": 1.7986925156,
				"z": 0.6503160485,
				"element": "C" 
			},
			{
				"x": 0.3071614682,
				"y": 2.0859919594,
				"z": 1.8904155797,
				"element": "C" 
			},
			{
				"x": 0.2250049446,
				"y": 1.0141324958,
				"z": 2.9998775689,
				"element": "C" 
			},
			{
				"x": -0.5838320427,
				"y": -0.2316755261,
				"z": 2.689500126,
				"element": "C" 
			},
			{
				"x": -1.9532644031,
				"y": -0.1437827338,
				"z": 2.3925149215,
				"element": "C" 
			},
			{
				"x": -2.713808087,
				"y": -1.2898746737,
				"z": 2.165474835,
				"element": "C" 
			},
			{
				"x": -2.118995205,
				"y": -2.5529275733,
				"z": 2.2324984622,
				"element": "C" 
			},
			{
				"x": -0.7589607196,
				"y": -2.6566114821,
				"z": 2.5222475865,
				"element": "C" 
			},
			{
				"x": -0.001327379,
				"y": -1.5044475472,
				"z": 2.748476101,
				"element": "C" 
			},
			{
				"x": 0.5423750255,
				"y": 0.814834542,
				"z": -0.2402436319,
				"element": "N" 
			},
			{
				"x": 1.0531313819,
				"y": 0.6966863964,
				"z": -1.6195804699,
				"element": "C" 
			},
			{
				"x": 1.0104693474,
				"y": 2.038598275,
				"z": -2.3586529025,
				"element": "C" 
			},
			{
				"x": 0.1274864602,
				"y": -0.334410973,
				"z": -2.3353407396,
				"element": "C" 
			},
			{
				"x": -1.2241443811,
				"y": 0.020014284,
				"z": -2.106329578,
				"element": "O" 
			},
			{
				"x": 0.4338298768,
				"y": -1.7788646531,
				"z": -1.9385481843,
				"element": "C" 
			},
			{
				"x": -0.5137705192,
				"y": -2.5727395732,
				"z": -1.2833969743,
				"element": "C" 
			},
			{
				"x": -0.239174674,
				"y": -3.8968319641,
				"z": -0.946118115,
				"element": "C" 
			},
			{
				"x": 1.0004997946,
				"y": -4.4557145103,
				"z": -1.2664564435,
				"element": "C" 
			},
			{
				"x": 1.2216773634,
				"y": -5.7600017369,
				"z": -0.9130840957,
				"element": "O" 
			},
			{
				"x": 1.9580742446,
				"y": -3.6799420074,
				"z": -1.9298953156,
				"element": "C" 
			},
			{
				"x": 1.6685789926,
				"y": -2.3575151449,
				"z": -2.2618357681,
				"element": "C" 
			},
			{
				"x": 3.0709881611,
				"y": 2.1974163217,
				"z": 1.6829437562,
				"element": "H" 
			},
			{
				"x": 3.2652295924,
				"y": 1.4015352466,
				"z": 0.1169912398,
				"element": "H" 
			},
			{
				"x": 2.7022347006,
				"y": 0.4733732257,
				"z": 1.5092261738,
				"element": "H" 
			},
			{
				"x": 1.1997152164,
				"y": 2.7442815945,
				"z": 0.0986625497,
				"element": "H" 
			},
			{
				"x": 0.6997806195,
				"y": 3.0008213436,
				"z": 2.3531223021,
				"element": "H" 
			},
			{
				"x": -0.7018400448,
				"y": 2.3254877417,
				"z": 1.5363051318,
				"element": "H" 
			},
			{
				"x": -0.2216688768,
				"y": 1.4985340059,
				"z": 3.8786940389,
				"element": "H" 
			},
			{
				"x": 1.2346650278,
				"y": 0.7213096786,
				"z": 3.3088975538,
				"element": "H" 
			},
			{
				"x": -2.4312900143,
				"y": 0.8319370018,
				"z": 2.3515317367,
				"element": "H" 
			},
			{
				"x": -3.7733722997,
				"y": -1.1986014523,
				"z": 1.9428082693,
				"element": "H" 
			},
			{
				"x": -2.7124227063,
				"y": -3.4464807029,
				"z": 2.0613666449,
				"element": "H" 
			},
			{
				"x": -0.2842958884,
				"y": -3.6321512493,
				"z": 2.571934082,
				"element": "H" 
			},
			{
				"x": 1.0559931711,
				"y": -1.5962503844,
				"z": 2.9866650667,
				"element": "H" 
			},
			{
				"x": 0.577058507,
				"y": -0.1053811112,
				"z": 0.1975189406,
				"element": "H" 
			},
			{
				"x": 2.0851711742,
				"y": 0.3108425684,
				"z": -1.6564628625,
				"element": "H" 
			},
			{
				"x": 1.3080237125,
				"y": 1.8917577778,
				"z": -3.4016258984,
				"element": "H" 
			},
			{
				"x": -0.0042227679,
				"y": 2.4466056019,
				"z": -2.3484404315,
				"element": "H" 
			},
			{
				"x": 1.6919691344,
				"y": 2.7778254341,
				"z": -1.9291210949,
				"element": "H" 
			},
			{
				"x": 0.3050594829,
				"y": -0.2413226528,
				"z": -3.4156656149,
				"element": "H" 
			},
			{
				"x": -1.2116130467,
				"y": 0.4359342557,
				"z": -1.222651035,
				"element": "H" 
			},
			{
				"x": -1.4806485096,
				"y": -2.1413977919,
				"z": -1.050412002,
				"element": "H" 
			},
			{
				"x": -0.9760918709,
				"y": -4.5112033245,
				"z": -0.4393795414,
				"element": "H" 
			},
			{
				"x": 2.102324334,
				"y": -6.020689023,
				"z": -1.2118131832,
				"element": "H" 
			},
			{
				"x": 2.9224209287,
				"y": -4.1112528476,
				"z": -2.1926879451,
				"element": "H" 
			},
			{
				"x": 2.4186334114,
				"y": -1.775056305,
				"z": -2.7926948483,
				"element": "H" 
			}
		],
		 "valence_orbital": [ 
			{
				"type": "occ",
				"energy": -0.24932,
				"method": "rhf"
			},
			{
				"type": "occ",
				"energy": -0.24304,
				"method": "rhf"
			},
			{
				"type": "occ",
				"energy": -0.2364,
				"method": "rhf"
			},
			{
				"type": "occ",
				"energy": -0.22765,
				"method": "rhf"
			},
			{
				"type": "occ",
				"energy": -0.20964,
				"method": "rhf"
			},
			{
				"type": "unocc",
				"energy": -0.00245,
				"method": "rhf"
			},
			{
				"type": "unocc",
				"energy": 0.00177,
				"method": "rhf"
			},
			{
				"type": "unocc",
				"energy": 0.00495,
				"method": "rhf"
			},
			{
				"type": "unocc",
				"energy": 0.02019,
				"method": "rhf"
			},
			{
				"type": "unocc",
				"energy": 0.07108,
				"method": "rhf"
			}
		],
		"cosmo_sigma_profile": { 
			"-0.025": 0.0,
			"-0.024": 0.0,
			"-0.023": 0.0,
			"-0.022": 0.0,
			"-0.021": 0.0,
			"-0.02": 0.0,
			"-0.019": 0.0,
			"-0.018": 0.165095172106,
			"-0.017": 1.14759933924,
			"-0.016": 0.836072494049,
			"-0.015": 0.92087419228,
			"-0.014": 1.42764229541,
			"-0.013": 0.536480930723,
			"-0.012": 1.37637616402,
			"-0.011": 0.730598582302,
			"-0.01": 0.990549230754,
			"-0.009": 1.04018708525,
			"-0.008": 1.24854756705,
			"-0.007": 1.22344808104,
			"-0.006": 4.41259589919,
			"-0.005": 16.4917001561,
			"-0.004": 30.2382245945,
			"-0.003": 43.7781416622,
			"-0.002": 41.7965376589,
			"-0.001": 39.489528084,
			"0.0": 36.3083640215,
			"0.001": 30.2813712404,
			"0.002": 22.9128579337,
			"0.003": 17.3099377924,
			"0.004": 17.0454570139,
			"0.005": 18.0654785483,
			"0.006": 16.3927402104,
			"0.007": 4.67142026171,
			"0.008": 3.35346110466,
			"0.009": 2.84786357542,
			"0.01": 2.08123439406,
			"0.011": 3.04252909627,
			"0.012": 2.29072560585,
			"0.013": 1.71761822359,
			"0.014": 1.36949729911,
			"0.015": 1.51245593459,
			"0.016": 0.0601718310435,
			"0.017": 0.0,
			"0.018": 0.0,
			"0.019": 0.0,
			"0.02": 0.0,
			"0.021": 0.0,
			"0.022": 0.0,
			"0.023": 0.0,
			"0.024": 0.0,
			"0.025": 0.0
		}
	}
}
