{
	 "smiles": "CC1=CC=NC2=C1C=CC1=C2N=CC=C1", 
	 "Tm": 418.15, 
	 "num_atms": 25, 
	 "gaussian": { 
		 "optdone": 1, 
		 "sigma_profile": "yes", 
		 "theory": "DFT", 
		 "functional": "B3LYP", 
		 "basiset": "6-31G**", 
		 "properties": { 
			 "R2extent": 3208.0587, 
			 "electric_dipole_moment_norm": 3.58514240024, 
			 "electric_quadrupole_moment_norm": 14.5205795993, 
			 "total_energy": -610.930052602, 
			 "HOMO_LUMO_gap": 0.17447, 
			 "cosmo_polarized_energy": -14.22, 
			 "cosmo_cavitation_energy": 28.44, 
			 "cosmo_dispersion_energy": -21.37, 
			 "cosmo_repulsion_energy": 1.61, 
			 "cosmo_total_nonelectrostatic_energy": 8.69, 
			 "SMD_solvation_energy": 1.98 
		},
		"coords": [
			{
				"x": -1.5899773789,
				"y": -1.8168717611,
				"z": 2.4115254768,
				"element": "C" 
			},
			{
				"x": -1.7737758164,
				"y": -0.9718312068,
				"z": 1.1756246982,
				"element": "C" 
			},
			{
				"x": -3.032149101,
				"y": -0.7579478152,
				"z": 0.6419072199,
				"element": "C" 
			},
			{
				"x": -3.1753182446,
				"y": 0.035010289,
				"z": -0.5125634761,
				"element": "C" 
			},
			{
				"x": -2.1684829743,
				"y": 0.6094597782,
				"z": -1.1464333344,
				"element": "N" 
			},
			{
				"x": -0.9241196632,
				"y": 0.41982525,
				"z": -0.6496780801,
				"element": "C" 
			},
			{
				"x": -0.6667535438,
				"y": -0.3647049333,
				"z": 0.5136053387,
				"element": "C" 
			},
			{
				"x": 0.6829142447,
				"y": -0.5191595236,
				"z": 0.9795889217,
				"element": "C" 
			},
			{
				"x": 1.726847115,
				"y": 0.0693573961,
				"z": 0.3326051954,
				"element": "C" 
			},
			{
				"x": 1.514469646,
				"y": 0.8654130482,
				"z": -0.8388477457,
				"element": "C" 
			},
			{
				"x": 0.1950841801,
				"y": 1.050632666,
				"z": -1.3430720532,
				"element": "C" 
			},
			{
				"x": -0.0588063788,
				"y": 1.7930974083,
				"z": -2.4457976176,
				"element": "N" 
			},
			{
				"x": 0.9622081571,
				"y": 2.3602413443,
				"z": -3.0664285043,
				"element": "C" 
			},
			{
				"x": 2.3057142305,
				"y": 2.2416171799,
				"z": -2.6525029147,
				"element": "C" 
			},
			{
				"x": 2.5775707253,
				"y": 1.487985966,
				"z": -1.5306662329,
				"element": "C" 
			},
			{
				"x": -1.1275717643,
				"y": -1.2458328333,
				"z": 3.2247584977,
				"element": "H" 
			},
			{
				"x": -2.5511520327,
				"y": -2.1922087179,
				"z": 2.7706774166,
				"element": "H" 
			},
			{
				"x": -0.9440866516,
				"y": -2.6806103591,
				"z": 2.2164763111,
				"element": "H" 
			},
			{
				"x": -3.9102677045,
				"y": -1.1972691841,
				"z": 1.1069994382,
				"element": "H" 
			},
			{
				"x": -4.1676363493,
				"y": 0.2019699469,
				"z": -0.9310677834,
				"element": "H" 
			},
			{
				"x": 0.8696140469,
				"y": -1.1174486333,
				"z": 1.8650417068,
				"element": "H" 
			},
			{
				"x": 2.7431500541,
				"y": -0.0567218423,
				"z": 0.6974538683,
				"element": "H" 
			},
			{
				"x": 0.7196819583,
				"y": 2.9501429578,
				"z": -3.9499580343,
				"element": "H" 
			},
			{
				"x": 3.0958604042,
				"y": 2.7347913253,
				"z": -3.2100025601,
				"element": "H" 
			},
			{
				"x": 3.595282841,
				"y": 1.3640622543,
				"z": -1.1686457525,
				"element": "H" 
			}
		],
		 "valence_orbital": [ 
			{
				"type": "occ",
				"energy": -0.28213,
				"method": "rhf"
			},
			{
				"type": "occ",
				"energy": -0.25264,
				"method": "rhf"
			},
			{
				"type": "occ",
				"energy": -0.24085,
				"method": "rhf"
			},
			{
				"type": "occ",
				"energy": -0.23568,
				"method": "rhf"
			},
			{
				"type": "occ",
				"energy": -0.22634,
				"method": "rhf"
			},
			{
				"type": "unocc",
				"energy": -0.05187,
				"method": "rhf"
			},
			{
				"type": "unocc",
				"energy": -0.04546,
				"method": "rhf"
			},
			{
				"type": "unocc",
				"energy": -0.00347,
				"method": "rhf"
			},
			{
				"type": "unocc",
				"energy": 0.02581,
				"method": "rhf"
			},
			{
				"type": "unocc",
				"energy": 0.06811,
				"method": "rhf"
			}
		],
		"cosmo_sigma_profile": { 
			"-0.025": 0.0,
			"-0.024": 0.0,
			"-0.023": 0.0,
			"-0.022": 0.0,
			"-0.021": 0.0,
			"-0.02": 0.0,
			"-0.019": 0.0,
			"-0.018": 0.0,
			"-0.017": 0.0,
			"-0.016": 0.0,
			"-0.015": 0.0,
			"-0.014": 0.0,
			"-0.013": 0.0,
			"-0.012": 0.0,
			"-0.011": 0.0,
			"-0.01": 0.0,
			"-0.009": 0.0,
			"-0.008": 0.442103475893,
			"-0.007": 7.59467993356,
			"-0.006": 16.3934562388,
			"-0.005": 24.1354044818,
			"-0.004": 17.3801349445,
			"-0.003": 15.9116727757,
			"-0.002": 14.3510389336,
			"-0.001": 15.2984677977,
			"0.0": 16.1273028897,
			"0.001": 24.596638795,
			"0.002": 30.8061950149,
			"0.003": 14.723949832,
			"0.004": 6.00030197048,
			"0.005": 3.33329253614,
			"0.006": 2.32704910078,
			"0.007": 1.36722713563,
			"0.008": 2.32297117655,
			"0.009": 2.35742214524,
			"0.01": 1.1992922974,
			"0.011": 1.14536143113,
			"0.012": 0.92237909209,
			"0.013": 1.56005003553,
			"0.014": 1.33566093762,
			"0.015": 1.41639383484,
			"0.016": 0.800806768564,
			"0.017": 0.612045557173,
			"0.018": 1.25670534825,
			"0.019": 0.874820007031,
			"0.02": 0.691345051501,
			"0.021": 0.804642401033,
			"0.022": 0.565951423033,
			"0.023": 0.0667185089768,
			"0.024": 0.0,
			"0.025": 0.0
		}
	}
}
