{
	 "smiles": "BrC1=CC=C(OC2=CC=CC(Br)=C2)C=C1", 
	 "Tm": 293.15, 
	 "num_atms": 23, 
	 "gaussian": { 
		 "optdone": 1, 
		 "sigma_profile": "yes", 
		 "theory": "DFT", 
		 "functional": "B3LYP", 
		 "basiset": "6-31G**", 
		 "properties": { 
			 "R2extent": 10603.5728, 
			 "electric_dipole_moment_norm": 1.3257017651, 
			 "electric_quadrupole_moment_norm": 12.4484736378, 
			 "total_energy": -5680.12023174, 
			 "HOMO_LUMO_gap": 0.19959, 
			 "cosmo_polarized_energy": -6.32, 
			 "cosmo_cavitation_energy": 32.67, 
			 "cosmo_dispersion_energy": -24.53, 
			 "cosmo_repulsion_energy": 1.93, 
			 "cosmo_total_nonelectrostatic_energy": 10.07, 
			 "SMD_solvation_energy": 3.43 
		},
		"coords": [
			{
				"x": -0.1121104895,
				"y": 0.9532315928,
				"z": -5.1155321291,
				"element": "Br" 
			},
			{
				"x": -0.5649012351,
				"y": 0.293893465,
				"z": -3.379889395,
				"element": "C" 
			},
			{
				"x": -1.7078875225,
				"y": -0.4878850409,
				"z": -3.2171370902,
				"element": "C" 
			},
			{
				"x": -2.0396376646,
				"y": -0.9605730897,
				"z": -1.9485832951,
				"element": "C" 
			},
			{
				"x": -1.2249362307,
				"y": -0.655418083,
				"z": -0.8566043142,
				"element": "C" 
			},
			{
				"x": -1.5697723837,
				"y": -1.2247770227,
				"z": 0.353117916,
				"element": "O" 
			},
			{
				"x": -1.4236581001,
				"y": -0.5243234835,
				"z": 1.5322822023,
				"element": "C" 
			},
			{
				"x": -1.6933061502,
				"y": 0.8431318229,
				"z": 1.6431844668,
				"element": "C" 
			},
			{
				"x": -1.5887193229,
				"y": 1.4530656023,
				"z": 2.8930652035,
				"element": "C" 
			},
			{
				"x": -1.2306100863,
				"y": 0.7224827426,
				"z": 4.0273282347,
				"element": "C" 
			},
			{
				"x": -0.975893951,
				"y": -0.641072969,
				"z": 3.8864403077,
				"element": "C" 
			},
			{
				"x": -0.4850175968,
				"y": -1.665862048,
				"z": 5.4233294308,
				"element": "Br" 
			},
			{
				"x": -1.0626564589,
				"y": -1.2781121689,
				"z": 2.6520136498,
				"element": "C" 
			},
			{
				"x": -0.0738476686,
				"y": 0.1196884637,
				"z": -1.0255862275,
				"element": "C" 
			},
			{
				"x": 0.2533187473,
				"y": 0.6000374258,
				"z": -2.2932670323,
				"element": "C" 
			},
			{
				"x": -2.3357443039,
				"y": -0.7213962175,
				"z": -4.0692845851,
				"element": "H" 
			},
			{
				"x": -2.9234534045,
				"y": -1.5699642645,
				"z": -1.7930348542,
				"element": "H" 
			},
			{
				"x": -1.983864635,
				"y": 1.4143763008,
				"z": 0.7689552422,
				"element": "H" 
			},
			{
				"x": -1.798445066,
				"y": 2.5143727869,
				"z": 2.9875334232,
				"element": "H" 
			},
			{
				"x": -1.1536713915,
				"y": 1.1980808832,
				"z": 4.9976013237,
				"element": "H" 
			},
			{
				"x": -0.8623719384,
				"y": -2.336739627,
				"z": 2.5424198457,
				"element": "H" 
			},
			{
				"x": 0.5636290476,
				"y": 0.3430999878,
				"z": -0.1772006378,
				"element": "H" 
			},
			{
				"x": 1.1444578053,
				"y": 1.2009629408,
				"z": -2.4342516861,
				"element": "H" 
			}
		],
		 "valence_orbital": [ 
			{
				"type": "occ",
				"energy": -0.2904,
				"method": "rhf"
			},
			{
				"type": "occ",
				"energy": -0.27322,
				"method": "rhf"
			},
			{
				"type": "occ",
				"energy": -0.26043,
				"method": "rhf"
			},
			{
				"type": "occ",
				"energy": -0.25027,
				"method": "rhf"
			},
			{
				"type": "occ",
				"energy": -0.22825,
				"method": "rhf"
			},
			{
				"type": "unocc",
				"energy": -0.02866,
				"method": "rhf"
			},
			{
				"type": "unocc",
				"energy": -0.02311,
				"method": "rhf"
			},
			{
				"type": "unocc",
				"energy": -0.01667,
				"method": "rhf"
			},
			{
				"type": "unocc",
				"energy": -0.00589,
				"method": "rhf"
			},
			{
				"type": "unocc",
				"energy": 0.0021,
				"method": "rhf"
			}
		],
		"cosmo_sigma_profile": { 
			"-0.025": 0.0,
			"-0.024": 0.0,
			"-0.023": 0.0,
			"-0.022": 0.0,
			"-0.021": 0.0,
			"-0.02": 0.0,
			"-0.019": 0.0,
			"-0.018": 0.0,
			"-0.017": 0.0,
			"-0.016": 0.0,
			"-0.015": 0.0,
			"-0.014": 0.0,
			"-0.013": 0.0,
			"-0.012": 0.0,
			"-0.011": 0.0,
			"-0.01": 0.0,
			"-0.009": 0.0,
			"-0.008": 1.26162422963,
			"-0.007": 12.6386717154,
			"-0.006": 14.2274675361,
			"-0.005": 15.4335925114,
			"-0.004": 14.5693437394,
			"-0.003": 15.3374817334,
			"-0.002": 16.750194715,
			"-0.001": 15.6596462069,
			"0.0": 20.2418032268,
			"0.001": 24.2796264751,
			"0.002": 38.7538937228,
			"0.003": 37.5146875447,
			"0.004": 26.0973672336,
			"0.005": 13.4501763154,
			"0.006": 1.45792786348,
			"0.007": 1.12681461264,
			"0.008": 0.808794147697,
			"0.009": 0.198753822542,
			"0.01": 0.0,
			"0.011": 0.0,
			"0.012": 0.0,
			"0.013": 0.0,
			"0.014": 0.0,
			"0.015": 0.0,
			"0.016": 0.0,
			"0.017": 0.0,
			"0.018": 0.0,
			"0.019": 0.0,
			"0.02": 0.0,
			"0.021": 0.0,
			"0.022": 0.0,
			"0.023": 0.0,
			"0.024": 0.0,
			"0.025": 0.0
		}
	}
}
