{
	 "smiles": "[O-][N+](=O)C1=C(Br)C(=CC=C1)C(F)F", 
	 "Tm": 303.15, 
	 "num_atms": 17, 
	 "gaussian": { 
		 "optdone": 1, 
		 "sigma_profile": "yes", 
		 "theory": "DFT", 
		 "functional": "B3LYP", 
		 "basiset": "6-31G**", 
		 "properties": { 
			 "R2extent": 3813.9689, 
			 "electric_dipole_moment_norm": 3.38906060288, 
			 "electric_quadrupole_moment_norm": 11.3502956627, 
			 "total_energy": -3245.31495949, 
			 "HOMO_LUMO_gap": 0.17852, 
			 "cosmo_polarized_energy": -9.12, 
			 "cosmo_cavitation_energy": 25.12, 
			 "cosmo_dispersion_energy": -18.51, 
			 "cosmo_repulsion_energy": 1.41, 
			 "cosmo_total_nonelectrostatic_energy": 8.02, 
			 "SMD_solvation_energy": 6.44 
		},
		"coords": [
			{
				"x": 1.8713387044,
				"y": -0.6051177915,
				"z": 0.2302879305,
				"element": "O" 
			},
			{
				"x": 1.4992834178,
				"y": 0.3684243531,
				"z": 0.8753992907,
				"element": "N" 
			},
			{
				"x": 2.1298324392,
				"y": 0.9037653005,
				"z": 1.786037479,
				"element": "O" 
			},
			{
				"x": 0.1664888836,
				"y": 0.9303712707,
				"z": 0.579832701,
				"element": "C" 
			},
			{
				"x": -0.3636457032,
				"y": 1.0087043885,
				"z": -0.7152662539,
				"element": "C" 
			},
			{
				"x": 0.634764521,
				"y": 0.5118825399,
				"z": -2.2564555984,
				"element": "Br" 
			},
			{
				"x": -1.6558285507,
				"y": 1.5304489891,
				"z": -0.8843467553,
				"element": "C" 
			},
			{
				"x": -2.386756284,
				"y": 1.9468774207,
				"z": 0.2312925178,
				"element": "C" 
			},
			{
				"x": -1.8429150905,
				"y": 1.8778146466,
				"z": 1.5117505638,
				"element": "C" 
			},
			{
				"x": -0.5580732158,
				"y": 1.3791352322,
				"z": 1.6845761563,
				"element": "C" 
			},
			{
				"x": -2.2685385525,
				"y": 1.6769799779,
				"z": -2.2617691311,
				"element": "C" 
			},
			{
				"x": -3.6139994124,
				"y": 1.8929370436,
				"z": -2.1522180843,
				"element": "F" 
			},
			{
				"x": -1.7311961835,
				"y": 2.7604792611,
				"z": -2.8973884364,
				"element": "F" 
			},
			{
				"x": -3.3892758585,
				"y": 2.3277448563,
				"z": 0.0768633422,
				"element": "H" 
			},
			{
				"x": -2.4161754452,
				"y": 2.2116799866,
				"z": 2.369909269,
				"element": "H" 
			},
			{
				"x": -0.0942632185,
				"y": 1.3217166606,
				"z": 2.6618409437,
				"element": "H" 
			},
			{
				"x": -2.113740451,
				"y": 0.7971558641,
				"z": -2.8929459346,
				"element": "H" 
			}
		],
		 "valence_orbital": [ 
			{
				"type": "occ",
				"energy": -0.31905,
				"method": "rhf"
			},
			{
				"type": "occ",
				"energy": -0.31671,
				"method": "rhf"
			},
			{
				"type": "occ",
				"energy": -0.29879,
				"method": "rhf"
			},
			{
				"type": "occ",
				"energy": -0.28542,
				"method": "rhf"
			},
			{
				"type": "occ",
				"energy": -0.27535,
				"method": "rhf"
			},
			{
				"type": "unocc",
				"energy": -0.09683,
				"method": "rhf"
			},
			{
				"type": "unocc",
				"energy": -0.05486,
				"method": "rhf"
			},
			{
				"type": "unocc",
				"energy": -0.02987,
				"method": "rhf"
			},
			{
				"type": "unocc",
				"energy": -0.01966,
				"method": "rhf"
			},
			{
				"type": "unocc",
				"energy": 0.08447,
				"method": "rhf"
			}
		],
		"cosmo_sigma_profile": { 
			"-0.025": 0.0,
			"-0.024": 0.0,
			"-0.023": 0.0,
			"-0.022": 0.0,
			"-0.021": 0.0,
			"-0.02": 0.0,
			"-0.019": 0.0,
			"-0.018": 0.0,
			"-0.017": 0.0,
			"-0.016": 0.0,
			"-0.015": 0.0,
			"-0.014": 0.0,
			"-0.013": 0.0,
			"-0.012": 0.0,
			"-0.011": 0.0,
			"-0.01": 0.0182818263459,
			"-0.009": 3.23765301548,
			"-0.008": 9.05920785927,
			"-0.007": 9.75822207677,
			"-0.006": 9.61025521558,
			"-0.005": 9.57447665154,
			"-0.004": 9.5444650969,
			"-0.003": 9.92144364549,
			"-0.002": 15.9406605675,
			"-0.001": 17.5459710034,
			"0.0": 17.2580905051,
			"0.001": 13.9236920032,
			"0.002": 11.0964223392,
			"0.003": 13.9165693197,
			"0.004": 20.9592600991,
			"0.005": 7.72623442079,
			"0.006": 5.18049900243,
			"0.007": 11.316833477,
			"0.008": 6.30066727239,
			"0.009": 3.13658692108,
			"0.01": 0.394264267563,
			"0.011": 0.0,
			"0.012": 0.0,
			"0.013": 0.0,
			"0.014": 0.0,
			"0.015": 0.0,
			"0.016": 0.0,
			"0.017": 0.0,
			"0.018": 0.0,
			"0.019": 0.0,
			"0.02": 0.0,
			"0.021": 0.0,
			"0.022": 0.0,
			"0.023": 0.0,
			"0.024": 0.0,
			"0.025": 0.0
		}
	}
}
