{
	 "smiles": "NC1=CC=C(N)C2=C1C(=O)C1=C(C2=O)C(=CC=C1)[N+]([O-])=O", 
	 "Tm": 530.15, 
	 "num_atms": 30, 
	 "gaussian": { 
		 "optdone": 1, 
		 "sigma_profile": "yes", 
		 "theory": "DFT", 
		 "functional": "B3LYP", 
		 "basiset": "6-31G**", 
		 "properties": { 
			 "R2extent": 5800.7238, 
			 "electric_dipole_moment_norm": 6.06834081937, 
			 "electric_quadrupole_moment_norm": 25.1366986579, 
			 "total_energy": -1003.98560663, 
			 "HOMO_LUMO_gap": 0.09223, 
			 "cosmo_polarized_energy": -21.21, 
			 "cosmo_cavitation_energy": 34.58, 
			 "cosmo_dispersion_energy": -25.73, 
			 "cosmo_repulsion_energy": 1.89, 
			 "cosmo_total_nonelectrostatic_energy": 10.75, 
			 "SMD_solvation_energy": 8.38 
		},
		"coords": [
			{
				"x": 0.7813790757,
				"y": 0.51354099,
				"z": -3.492526301,
				"element": "N" 
			},
			{
				"x": 0.0075809301,
				"y": -0.1844385629,
				"z": -2.6230912096,
				"element": "C" 
			},
			{
				"x": -0.9494921591,
				"y": -1.1090966003,
				"z": -3.1371670687,
				"element": "C" 
			},
			{
				"x": -1.7506086901,
				"y": -1.8445081999,
				"z": -2.3112395988,
				"element": "C" 
			},
			{
				"x": -1.6752914095,
				"y": -1.7264085536,
				"z": -0.890890058,
				"element": "C" 
			},
			{
				"x": -2.4848860713,
				"y": -2.5009486249,
				"z": -0.1259149171,
				"element": "N" 
			},
			{
				"x": -0.7482553229,
				"y": -0.8020724517,
				"z": -0.3451983951,
				"element": "C" 
			},
			{
				"x": 0.1024561752,
				"y": -0.0313091925,
				"z": -1.2167325546,
				"element": "C" 
			},
			{
				"x": 1.0759410253,
				"y": 0.9049421428,
				"z": -0.6651597456,
				"element": "C" 
			},
			{
				"x": 1.8517239552,
				"y": 1.578124852,
				"z": -1.3723122914,
				"element": "O" 
			},
			{
				"x": 1.1374233574,
				"y": 1.0746312753,
				"z": 0.8142963516,
				"element": "C" 
			},
			{
				"x": 0.2701547737,
				"y": 0.3582103412,
				"z": 1.6600968437,
				"element": "C" 
			},
			{
				"x": -0.6709866537,
				"y": -0.6512340424,
				"z": 1.1056189887,
				"element": "C" 
			},
			{
				"x": -1.3455418721,
				"y": -1.3357598188,
				"z": 1.8963808116,
				"element": "O" 
			},
			{
				"x": 0.3632543741,
				"y": 0.599754006,
				"z": 3.0397997803,
				"element": "C" 
			},
			{
				"x": 1.2952409432,
				"y": 1.4795794189,
				"z": 3.5738869136,
				"element": "C" 
			},
			{
				"x": 2.1532730341,
				"y": 2.1731574665,
				"z": 2.7161488562,
				"element": "C" 
			},
			{
				"x": 2.0689729637,
				"y": 1.9773550694,
				"z": 1.3434265321,
				"element": "C" 
			},
			{
				"x": -0.5434918853,
				"y": -0.0373860393,
				"z": 4.0222276509,
				"element": "N" 
			},
			{
				"x": -0.0712052446,
				"y": -0.9422080291,
				"z": 4.7012486875,
				"element": "O" 
			},
			{
				"x": -1.656499425,
				"y": 0.4581549838,
				"z": 4.1452785831,
				"element": "O" 
			},
			{
				"x": 1.4716602251,
				"y": 1.1447721575,
				"z": -3.0975952593,
				"element": "H" 
			},
			{
				"x": 0.7069765079,
				"y": 0.3481816457,
				"z": -4.4819932299,
				"element": "H" 
			},
			{
				"x": -1.0321414013,
				"y": -1.2263726212,
				"z": -4.2148022932,
				"element": "H" 
			},
			{
				"x": -2.4653978849,
				"y": -2.5448987365,
				"z": -2.7359601213,
				"element": "H" 
			},
			{
				"x": -3.1667858964,
				"y": -3.1008389624,
				"z": -0.5586596207,
				"element": "H" 
			},
			{
				"x": -2.423779262,
				"y": -2.3918658218,
				"z": 0.8815428472,
				"element": "H" 
			},
			{
				"x": 1.3413396618,
				"y": 1.6227160621,
				"z": 4.6482909446,
				"element": "H" 
			},
			{
				"x": 2.880192125,
				"y": 2.8657643842,
				"z": 3.1285971773,
				"element": "H" 
			},
			{
				"x": 2.7134940505,
				"y": 2.5062614619,
				"z": 0.6508016959,
				"element": "H" 
			}
		],
		 "valence_orbital": [ 
			{
				"type": "occ",
				"energy": -0.26973,
				"method": "rhf"
			},
			{
				"type": "occ",
				"energy": -0.26527,
				"method": "rhf"
			},
			{
				"type": "occ",
				"energy": -0.25955,
				"method": "rhf"
			},
			{
				"type": "occ",
				"energy": -0.25657,
				"method": "rhf"
			},
			{
				"type": "occ",
				"energy": -0.19311,
				"method": "rhf"
			},
			{
				"type": "unocc",
				"energy": -0.10088,
				"method": "rhf"
			},
			{
				"type": "unocc",
				"energy": -0.06005,
				"method": "rhf"
			},
			{
				"type": "unocc",
				"energy": -0.04843,
				"method": "rhf"
			},
			{
				"type": "unocc",
				"energy": -0.02843,
				"method": "rhf"
			},
			{
				"type": "unocc",
				"energy": 0.00367,
				"method": "rhf"
			}
		],
		"cosmo_sigma_profile": { 
			"-0.025": 0.0,
			"-0.024": 0.0,
			"-0.023": 0.0,
			"-0.022": 0.0,
			"-0.021": 0.0,
			"-0.02": 0.0,
			"-0.019": 0.0,
			"-0.018": 0.0,
			"-0.017": 0.0,
			"-0.016": 0.0,
			"-0.015": 0.232540525362,
			"-0.014": 3.05643392887,
			"-0.013": 3.35656801145,
			"-0.012": 2.63733148249,
			"-0.011": 3.56194769116,
			"-0.01": 3.51547915608,
			"-0.009": 7.56689994045,
			"-0.008": 9.73343417429,
			"-0.007": 11.35191937,
			"-0.006": 11.5319347078,
			"-0.005": 9.21247455239,
			"-0.004": 9.39701097908,
			"-0.003": 10.2366128078,
			"-0.002": 12.4599095314,
			"-0.001": 14.514331074,
			"0.0": 22.2778014834,
			"0.001": 30.3829804812,
			"0.002": 27.1973821938,
			"0.003": 15.2567358203,
			"0.004": 8.7977457632,
			"0.005": 6.68671161565,
			"0.006": 7.93785472792,
			"0.007": 15.5538318402,
			"0.008": 14.6685262757,
			"0.009": 10.0293091459,
			"0.01": 3.71463354401,
			"0.011": 2.33356314819,
			"0.012": 1.22925176695,
			"0.013": 0.0,
			"0.014": 0.0,
			"0.015": 0.0,
			"0.016": 0.0,
			"0.017": 0.0,
			"0.018": 0.0,
			"0.019": 0.0,
			"0.02": 0.0,
			"0.021": 0.0,
			"0.022": 0.0,
			"0.023": 0.0,
			"0.024": 0.0,
			"0.025": 0.0
		}
	}
}
