{
	 "smiles": "OC(=O)C1(CC2=CC=C(Cl)C=C2)CCCC1", 
	 "Tm": 345.15, 
	 "num_atms": 31, 
	 "gaussian": { 
		 "optdone": 1, 
		 "sigma_profile": "yes", 
		 "theory": "DFT", 
		 "functional": "B3LYP", 
		 "basiset": "6-31G**", 
		 "properties": { 
			 "R2extent": 6206.9782, 
			 "electric_dipole_moment_norm": 3.07142815478, 
			 "electric_quadrupole_moment_norm": 14.2569958087, 
			 "total_energy": -1115.09146175, 
			 "HOMO_LUMO_gap": 0.22354, 
			 "cosmo_polarized_energy": -10.65, 
			 "cosmo_cavitation_energy": 34.26, 
			 "cosmo_dispersion_energy": -24.31, 
			 "cosmo_repulsion_energy": 1.9, 
			 "cosmo_total_nonelectrostatic_energy": 11.84, 
			 "SMD_solvation_energy": 5.79 
		},
		"coords": [
			{
				"x": -1.8968810369,
				"y": -1.2605110864,
				"z": 1.9621326409,
				"element": "O" 
			},
			{
				"x": -1.5789642763,
				"y": -1.3867397769,
				"z": 0.6433334083,
				"element": "C" 
			},
			{
				"x": -1.9980278207,
				"y": -2.3094158204,
				"z": -0.0202440873,
				"element": "O" 
			},
			{
				"x": -0.7301882499,
				"y": -0.2271709877,
				"z": 0.1399332434,
				"element": "C" 
			},
			{
				"x": 0.4634827803,
				"y": 0.0642846497,
				"z": 1.1032511268,
				"element": "C" 
			},
			{
				"x": 1.4929083559,
				"y": -1.0397891072,
				"z": 1.2348217473,
				"element": "C" 
			},
			{
				"x": 2.6541586072,
				"y": -1.0406793654,
				"z": 0.4491066375,
				"element": "C" 
			},
			{
				"x": 3.6093235081,
				"y": -2.0517232491,
				"z": 0.5579806257,
				"element": "C" 
			},
			{
				"x": 3.4025871296,
				"y": -3.0810679331,
				"z": 1.4740083836,
				"element": "C" 
			},
			{
				"x": 4.6010912351,
				"y": -4.3599758266,
				"z": 1.6269677216,
				"element": "Cl" 
			},
			{
				"x": 2.2637451343,
				"y": -3.1063738353,
				"z": 2.2774274652,
				"element": "C" 
			},
			{
				"x": 1.3209583646,
				"y": -2.0864293796,
				"z": 2.1528934647,
				"element": "C" 
			},
			{
				"x": -1.6254465412,
				"y": 1.0453403239,
				"z": 0.0176697546,
				"element": "C" 
			},
			{
				"x": -0.9285601136,
				"y": 1.9308172519,
				"z": -1.0435787241,
				"element": "C" 
			},
			{
				"x": -0.0315674081,
				"y": 0.9727392941,
				"z": -1.8815367161,
				"element": "C" 
			},
			{
				"x": -0.2880224349,
				"y": -0.4435785052,
				"z": -1.3223656978,
				"element": "C" 
			},
			{
				"x": -2.4728926765,
				"y": -2.0168059403,
				"z": 2.1657180436,
				"element": "H" 
			},
			{
				"x": 0.0504985239,
				"y": 0.2993786132,
				"z": 2.088551617,
				"element": "H" 
			},
			{
				"x": 0.9609169949,
				"y": 0.9725728762,
				"z": 0.746997514,
				"element": "H" 
			},
			{
				"x": 2.8243544625,
				"y": -0.2314381639,
				"z": -0.256376623,
				"element": "H" 
			},
			{
				"x": 4.5042476942,
				"y": -2.0386967833,
				"z": -0.0543832834,
				"element": "H" 
			},
			{
				"x": 2.1211977124,
				"y": -3.9088166783,
				"z": 2.9929253886,
				"element": "H" 
			},
			{
				"x": 0.4374530935,
				"y": -2.1011385287,
				"z": 2.7835998932,
				"element": "H" 
			},
			{
				"x": -2.6184156441,
				"y": 0.7473988073,
				"z": -0.3381883425,
				"element": "H" 
			},
			{
				"x": -1.7641156082,
				"y": 1.5470387029,
				"z": 0.9798815507,
				"element": "H" 
			},
			{
				"x": -1.6663774877,
				"y": 2.4497929757,
				"z": -1.6623619857,
				"element": "H" 
			},
			{
				"x": -0.3249555883,
				"y": 2.7085895739,
				"z": -0.56500149,
				"element": "H" 
			},
			{
				"x": -0.2566675948,
				"y": 1.0241760247,
				"z": -2.9507499648,
				"element": "H" 
			},
			{
				"x": 1.0231381126,
				"y": 1.2492784756,
				"z": -1.7756952297,
				"element": "H" 
			},
			{
				"x": 0.5783055685,
				"y": -1.1049974783,
				"z": -1.4056377924,
				"element": "H" 
			},
			{
				"x": -1.1083847964,
				"y": -0.9291591236,
				"z": -1.8579802898,
				"element": "H" 
			}
		],
		 "valence_orbital": [ 
			{
				"type": "occ",
				"energy": -0.31751,
				"method": "rhf"
			},
			{
				"type": "occ",
				"energy": -0.30952,
				"method": "rhf"
			},
			{
				"type": "occ",
				"energy": -0.27308,
				"method": "rhf"
			},
			{
				"type": "occ",
				"energy": -0.26152,
				"method": "rhf"
			},
			{
				"type": "occ",
				"energy": -0.23966,
				"method": "rhf"
			},
			{
				"type": "unocc",
				"energy": -0.01612,
				"method": "rhf"
			},
			{
				"type": "unocc",
				"energy": -0.01296,
				"method": "rhf"
			},
			{
				"type": "unocc",
				"energy": 0.00805,
				"method": "rhf"
			},
			{
				"type": "unocc",
				"energy": 0.03088,
				"method": "rhf"
			},
			{
				"type": "unocc",
				"energy": 0.06521,
				"method": "rhf"
			}
		],
		"cosmo_sigma_profile": { 
			"-0.025": 0.0,
			"-0.024": 0.0,
			"-0.023": 0.0,
			"-0.022": 0.0,
			"-0.021": 0.0,
			"-0.02": 0.0,
			"-0.019": 0.0,
			"-0.018": 0.391060833161,
			"-0.017": 1.0153476542,
			"-0.016": 1.00822393623,
			"-0.015": 0.598875951,
			"-0.014": 0.562504571221,
			"-0.013": 0.821438251647,
			"-0.012": 0.576366221815,
			"-0.011": 0.808765790416,
			"-0.01": 0.946956533052,
			"-0.009": 0.523261789341,
			"-0.008": 0.403144144026,
			"-0.007": 3.18449470154,
			"-0.006": 6.03791724063,
			"-0.005": 10.4622352407,
			"-0.004": 18.0981031915,
			"-0.003": 24.8689759452,
			"-0.002": 31.6931699823,
			"-0.001": 28.1875547581,
			"0.0": 25.2689689459,
			"0.001": 26.2169199941,
			"0.002": 18.6389182643,
			"0.003": 18.1725368896,
			"0.004": 20.5694815967,
			"0.005": 12.8119604389,
			"0.006": 2.74579484201,
			"0.007": 1.60544405337,
			"0.008": 2.55590078785,
			"0.009": 2.23034026211,
			"0.01": 1.94387933453,
			"0.011": 3.80489822537,
			"0.012": 4.36152847824,
			"0.013": 0.326951937958,
			"0.014": 0.0,
			"0.015": 0.0,
			"0.016": 0.0,
			"0.017": 0.0,
			"0.018": 0.0,
			"0.019": 0.0,
			"0.02": 0.0,
			"0.021": 0.0,
			"0.022": 0.0,
			"0.023": 0.0,
			"0.024": 0.0,
			"0.025": 0.0
		}
	}
}
