{
	 "smiles": "CC1=C(SC(=N1)C1=CC=C2OCCC2=C1)C(Cl)=O", 
	 "Tm": 425.15, 
	 "num_atms": 28, 
	 "gaussian": { 
		 "optdone": 1, 
		 "sigma_profile": "yes", 
		 "theory": "DFT", 
		 "functional": "B3LYP", 
		 "basiset": "6-31G**", 
		 "properties": { 
			 "R2extent": 8516.9594, 
			 "electric_dipole_moment_norm": 6.61064849618, 
			 "electric_quadrupole_moment_norm": 13.9661263388, 
			 "total_energy": -1564.99966901, 
			 "HOMO_LUMO_gap": 0.13247, 
			 "cosmo_polarized_energy": -9.84, 
			 "cosmo_cavitation_energy": 35.68, 
			 "cosmo_dispersion_energy": -27.02, 
			 "cosmo_repulsion_energy": 2.04, 
			 "cosmo_total_nonelectrostatic_energy": 10.71, 
			 "SMD_solvation_energy": 5.08 
		},
		"coords": [
			{
				"x": 4.3961096456,
				"y": 1.1137043989,
				"z": -0.4886103854,
				"element": "C" 
			},
			{
				"x": 3.0654618481,
				"y": 1.4002307845,
				"z": 0.1387520979,
				"element": "C" 
			},
			{
				"x": 2.8105238064,
				"y": 2.3707264345,
				"z": 1.1067354394,
				"element": "C" 
			},
			{
				"x": 1.1178018106,
				"y": 2.3445992917,
				"z": 1.5423411045,
				"element": "S" 
			},
			{
				"x": 0.8816656297,
				"y": 1.0375314524,
				"z": 0.3979290882,
				"element": "C" 
			},
			{
				"x": 1.9812292878,
				"y": 0.6726720651,
				"z": -0.2394923804,
				"element": "N" 
			},
			{
				"x": -0.4157749859,
				"y": 0.4090148143,
				"z": 0.1687333702,
				"element": "C" 
			},
			{
				"x": -1.572104544,
				"y": 0.8049231724,
				"z": 0.868599242,
				"element": "C" 
			},
			{
				"x": -2.8054730109,
				"y": 0.1973161563,
				"z": 0.6477774533,
				"element": "C" 
			},
			{
				"x": -2.8584513317,
				"y": -0.8254803668,
				"z": -0.2975555435,
				"element": "C" 
			},
			{
				"x": -3.9830501771,
				"y": -1.5087413179,
				"z": -0.6220344277,
				"element": "O" 
			},
			{
				"x": -3.604370803,
				"y": -2.5998791504,
				"z": -1.5080820838,
				"element": "C" 
			},
			{
				"x": -2.1554321785,
				"y": -2.3191268539,
				"z": -1.9791691292,
				"element": "C" 
			},
			{
				"x": -1.7256823774,
				"y": -1.2377051434,
				"z": -1.0123959213,
				"element": "C" 
			},
			{
				"x": -0.5064837141,
				"y": -0.6281492893,
				"z": -0.7891253671,
				"element": "C" 
			},
			{
				"x": 3.8018566839,
				"y": 3.2623164554,
				"z": 1.6630414949,
				"element": "C" 
			},
			{
				"x": 3.12883989,
				"y": 4.42458428,
				"z": 2.9226997971,
				"element": "Cl" 
			},
			{
				"x": 4.9682393907,
				"y": 3.3086058427,
				"z": 1.3884729331,
				"element": "O" 
			},
			{
				"x": 4.2849091155,
				"y": 0.3015012548,
				"z": -1.2081580022,
				"element": "H" 
			},
			{
				"x": 5.1361225442,
				"y": 0.836061825,
				"z": 0.2679372844,
				"element": "H" 
			},
			{
				"x": 4.7921787871,
				"y": 2.0001130731,
				"z": -0.9931302387,
				"element": "H" 
			},
			{
				"x": -1.5112306154,
				"y": 1.6001699817,
				"z": 1.6062789822,
				"element": "H" 
			},
			{
				"x": -3.6939705492,
				"y": 0.4995158807,
				"z": 1.1902349888,
				"element": "H" 
			},
			{
				"x": -3.6744064165,
				"y": -3.5299744323,
				"z": -0.9336117141,
				"element": "H" 
			},
			{
				"x": -4.3342870591,
				"y": -2.6299852579,
				"z": -2.3194160168,
				"element": "H" 
			},
			{
				"x": -2.1288141524,
				"y": -1.9580529439,
				"z": -3.0141271844,
				"element": "H" 
			},
			{
				"x": -1.5314131648,
				"y": -3.2163131413,
				"z": -1.9292628031,
				"element": "H" 
			},
			{
				"x": 0.3886066402,
				"y": -0.9200792664,
				"z": -1.3273620784,
				"element": "H" 
			}
		],
		 "valence_orbital": [ 
			{
				"type": "occ",
				"energy": -0.28747,
				"method": "rhf"
			},
			{
				"type": "occ",
				"energy": -0.28142,
				"method": "rhf"
			},
			{
				"type": "occ",
				"energy": -0.27127,
				"method": "rhf"
			},
			{
				"type": "occ",
				"energy": -0.26563,
				"method": "rhf"
			},
			{
				"type": "occ",
				"energy": -0.21899,
				"method": "rhf"
			},
			{
				"type": "unocc",
				"energy": -0.08652,
				"method": "rhf"
			},
			{
				"type": "unocc",
				"energy": -0.02649,
				"method": "rhf"
			},
			{
				"type": "unocc",
				"energy": -0.02027,
				"method": "rhf"
			},
			{
				"type": "unocc",
				"energy": -0.00212,
				"method": "rhf"
			},
			{
				"type": "unocc",
				"energy": 0.03704,
				"method": "rhf"
			}
		],
		"cosmo_sigma_profile": { 
			"-0.025": 0.0,
			"-0.024": 0.0,
			"-0.023": 0.0,
			"-0.022": 0.0,
			"-0.021": 0.0,
			"-0.02": 0.0,
			"-0.019": 0.0,
			"-0.018": 0.0,
			"-0.017": 0.0,
			"-0.016": 0.0,
			"-0.015": 0.0,
			"-0.014": 0.0,
			"-0.013": 0.0,
			"-0.012": 0.0,
			"-0.011": 0.0,
			"-0.01": 0.0,
			"-0.009": 0.0,
			"-0.008": 0.819187026571,
			"-0.007": 4.3107485518,
			"-0.006": 12.8061091498,
			"-0.005": 24.2385520075,
			"-0.004": 22.4128563684,
			"-0.003": 24.5587088024,
			"-0.002": 26.0961249896,
			"-0.001": 27.2081502633,
			"0.0": 20.6590930545,
			"0.001": 23.3697202035,
			"0.002": 27.5799102026,
			"0.003": 24.2283576678,
			"0.004": 14.353861475,
			"0.005": 11.1616470255,
			"0.006": 5.47481277083,
			"0.007": 4.67034553898,
			"0.008": 5.26468905651,
			"0.009": 6.34411658417,
			"0.01": 4.18078249073,
			"0.011": 0.479817389628,
			"0.012": 0.0,
			"0.013": 0.0,
			"0.014": 0.0,
			"0.015": 0.0,
			"0.016": 0.0,
			"0.017": 0.0,
			"0.018": 0.0,
			"0.019": 0.0,
			"0.02": 0.0,
			"0.021": 0.0,
			"0.022": 0.0,
			"0.023": 0.0,
			"0.024": 0.0,
			"0.025": 0.0
		}
	}
}
