{
	 "smiles": "O=C1C=CC(=O)[C@@H]2CC3=CC=CC=C3C[C@H]12", 
	 "Tm": 401.15, 
	 "num_atms": 28, 
	 "gaussian": { 
		 "optdone": 1, 
		 "sigma_profile": "yes", 
		 "theory": "DFT", 
		 "functional": "B3LYP", 
		 "basiset": "6-31G**", 
		 "properties": { 
			 "R2extent": 3493.9682, 
			 "electric_dipole_moment_norm": 0.314519029631, 
			 "electric_quadrupole_moment_norm": 15.0634098716, 
			 "total_energy": -691.157656819, 
			 "HOMO_LUMO_gap": 0.14086, 
			 "cosmo_polarized_energy": -12.27, 
			 "cosmo_cavitation_energy": 30.49, 
			 "cosmo_dispersion_energy": -22.06, 
			 "cosmo_repulsion_energy": 1.69, 
			 "cosmo_total_nonelectrostatic_energy": 10.11, 
			 "SMD_solvation_energy": 5.63 
		},
		"coords": [
			{
				"x": -0.3139648292,
				"y": 1.9483692769,
				"z": 1.8216728182,
				"element": "O" 
			},
			{
				"x": 0.4836621263,
				"y": 1.0653612966,
				"z": 1.5521250192,
				"element": "C" 
			},
			{
				"x": 1.938591922,
				"y": 1.2555638337,
				"z": 1.8058718448,
				"element": "C" 
			},
			{
				"x": 2.8677988333,
				"y": 0.3987133988,
				"z": 1.3445000651,
				"element": "C" 
			},
			{
				"x": 2.517374591,
				"y": -0.7709632109,
				"z": 0.4929048033,
				"element": "C" 
			},
			{
				"x": 3.3660085026,
				"y": -1.5890495657,
				"z": 0.1752878843,
				"element": "O" 
			},
			{
				"x": 1.081668923,
				"y": -0.8433188371,
				"z": -0.0114495522,
				"element": "C" 
			},
			{
				"x": 0.9694701982,
				"y": -0.0438680578,
				"z": -1.3306641803,
				"element": "C" 
			},
			{
				"x": -0.4571167254,
				"y": 0.106001463,
				"z": -1.8221391888,
				"element": "C" 
			},
			{
				"x": -0.6891453,
				"y": 0.3955455563,
				"z": -3.1749795242,
				"element": "C" 
			},
			{
				"x": -1.9792714589,
				"y": 0.5840082716,
				"z": -3.6612198547,
				"element": "C" 
			},
			{
				"x": -3.0657546977,
				"y": 0.4817204928,
				"z": -2.7882545327,
				"element": "C" 
			},
			{
				"x": -2.8439137611,
				"y": 0.1896661468,
				"z": -1.4459785858,
				"element": "C" 
			},
			{
				"x": -1.5476130111,
				"y": -0.0027188666,
				"z": -0.9453178839,
				"element": "C" 
			},
			{
				"x": -1.3727638459,
				"y": -0.3650813094,
				"z": 0.5189661636,
				"element": "C" 
			},
			{
				"x": 0.0711417397,
				"y": -0.3133975772,
				"z": 1.031284412,
				"element": "C" 
			},
			{
				"x": 2.2033527775,
				"y": 2.1355556669,
				"z": 2.3866370151,
				"element": "H" 
			},
			{
				"x": 3.9260438832,
				"y": 0.5267203253,
				"z": 1.5579536395,
				"element": "H" 
			},
			{
				"x": 0.8674388623,
				"y": -1.8961946664,
				"z": -0.2229952113,
				"element": "H" 
			},
			{
				"x": 1.4063570188,
				"y": 0.9548065641,
				"z": -1.1860179616,
				"element": "H" 
			},
			{
				"x": 1.5834312847,
				"y": -0.5333299655,
				"z": -2.0942180844,
				"element": "H" 
			},
			{
				"x": 0.1596118601,
				"y": 0.4736928948,
				"z": -3.8507677306,
				"element": "H" 
			},
			{
				"x": -2.1377416076,
				"y": 0.8070022131,
				"z": -4.7123747165,
				"element": "H" 
			},
			{
				"x": -4.0783515624,
				"y": 0.6287322107,
				"z": -3.1528072248,
				"element": "H" 
			},
			{
				"x": -3.6883708468,
				"y": 0.1079186007,
				"z": -0.7652859113,
				"element": "H" 
			},
			{
				"x": -1.981637476,
				"y": 0.302384252,
				"z": 1.1372177526,
				"element": "H" 
			},
			{
				"x": -1.7611876135,
				"y": -1.3799494253,
				"z": 0.676090874,
				"element": "H" 
			},
			{
				"x": 0.143580213,
				"y": -0.9594909824,
				"z": 1.9200578513,
				"element": "H" 
			}
		],
		 "valence_orbital": [ 
			{
				"type": "occ",
				"energy": -0.30132,
				"method": "rhf"
			},
			{
				"type": "occ",
				"energy": -0.26404,
				"method": "rhf"
			},
			{
				"type": "occ",
				"energy": -0.25703,
				"method": "rhf"
			},
			{
				"type": "occ",
				"energy": -0.24446,
				"method": "rhf"
			},
			{
				"type": "occ",
				"energy": -0.23906,
				"method": "rhf"
			},
			{
				"type": "unocc",
				"energy": -0.0982,
				"method": "rhf"
			},
			{
				"type": "unocc",
				"energy": -0.01279,
				"method": "rhf"
			},
			{
				"type": "unocc",
				"energy": -0.00424,
				"method": "rhf"
			},
			{
				"type": "unocc",
				"energy": 0.00082,
				"method": "rhf"
			},
			{
				"type": "unocc",
				"energy": 0.06076,
				"method": "rhf"
			}
		],
		"cosmo_sigma_profile": { 
			"-0.025": 0.0,
			"-0.024": 0.0,
			"-0.023": 0.0,
			"-0.022": 0.0,
			"-0.021": 0.0,
			"-0.02": 0.0,
			"-0.019": 0.0,
			"-0.018": 0.0,
			"-0.017": 0.0,
			"-0.016": 0.0,
			"-0.015": 0.0,
			"-0.014": 0.0,
			"-0.013": 0.0,
			"-0.012": 0.0,
			"-0.011": 0.0,
			"-0.01": 0.0,
			"-0.009": 0.326328193578,
			"-0.008": 5.10562882117,
			"-0.007": 7.64738361119,
			"-0.006": 10.7530675454,
			"-0.005": 24.6096205084,
			"-0.004": 26.529259719,
			"-0.003": 24.5440338306,
			"-0.002": 22.0833757761,
			"-0.001": 17.6268905519,
			"0.0": 11.9555395236,
			"0.001": 9.80992192593,
			"0.002": 8.9321471554,
			"0.003": 8.21481129147,
			"0.004": 11.3293626313,
			"0.005": 10.0106702358,
			"0.006": 10.7231755964,
			"0.007": 5.36001209549,
			"0.008": 3.35923424277,
			"0.009": 3.60681636989,
			"0.01": 5.25642838348,
			"0.011": 8.2738482605,
			"0.012": 5.14905895645,
			"0.013": 0.819008225322,
			"0.014": 0.0,
			"0.015": 0.0,
			"0.016": 0.0,
			"0.017": 0.0,
			"0.018": 0.0,
			"0.019": 0.0,
			"0.02": 0.0,
			"0.021": 0.0,
			"0.022": 0.0,
			"0.023": 0.0,
			"0.024": 0.0,
			"0.025": 0.0
		}
	}
}
