{
	 "smiles": "OC(=O)C1=CC2=CC=CC=C2N=C1", 
	 "Tm": 553.15, 
	 "num_atms": 20, 
	 "gaussian": { 
		 "optdone": 1, 
		 "sigma_profile": "yes", 
		 "theory": "DFT", 
		 "functional": "B3LYP", 
		 "basiset": "6-31G**", 
		 "properties": { 
			 "R2extent": 3514.9523, 
			 "electric_dipole_moment_norm": 3.89890839851, 
			 "electric_quadrupole_moment_norm": 20.5604803402, 
			 "total_energy": -590.494322205, 
			 "HOMO_LUMO_gap": 0.17061, 
			 "cosmo_polarized_energy": -15.0, 
			 "cosmo_cavitation_energy": 24.79, 
			 "cosmo_dispersion_energy": -18.61, 
			 "cosmo_repulsion_energy": 1.43, 
			 "cosmo_total_nonelectrostatic_energy": 7.62, 
			 "SMD_solvation_energy": 3.74 
		},
		"coords": [
			{
				"x": 2.9181601201,
				"y": -1.2751151084,
				"z": -1.6632009822,
				"element": "O" 
			},
			{
				"x": 2.4220324436,
				"y": -0.0654314997,
				"z": -2.0337660488,
				"element": "C" 
			},
			{
				"x": 2.699352755,
				"y": 0.3944851777,
				"z": -3.11655941,
				"element": "O" 
			},
			{
				"x": 1.5379347644,
				"y": 0.6375729719,
				"z": -1.0503852898,
				"element": "C" 
			},
			{
				"x": 0.7547947065,
				"y": 1.6820470267,
				"z": -1.5023629307,
				"element": "C" 
			},
			{
				"x": -0.0930665812,
				"y": 2.3637847974,
				"z": -0.6019333846,
				"element": "C" 
			},
			{
				"x": -0.9404584965,
				"y": 3.4356592284,
				"z": -0.9926944077,
				"element": "C" 
			},
			{
				"x": -1.746957311,
				"y": 4.0548416194,
				"z": -0.065579116,
				"element": "C" 
			},
			{
				"x": -1.7409171907,
				"y": 3.6308216734,
				"z": 1.2880644651,
				"element": "C" 
			},
			{
				"x": -0.9291762264,
				"y": 2.596851585,
				"z": 1.6985263024,
				"element": "C" 
			},
			{
				"x": -0.0853485378,
				"y": 1.938402166,
				"z": 0.7669888373,
				"element": "C" 
			},
			{
				"x": 0.7130217889,
				"y": 0.9231930259,
				"z": 1.2118241127,
				"element": "N" 
			},
			{
				"x": 1.4805284573,
				"y": 0.3144202927,
				"z": 0.3349271724,
				"element": "C" 
			},
			{
				"x": 2.5043274644,
				"y": -1.5814592156,
				"z": -0.8445445148,
				"element": "H" 
			},
			{
				"x": 0.8003002228,
				"y": 1.9633101438,
				"z": -2.550401372,
				"element": "H" 
			},
			{
				"x": -0.9397791372,
				"y": 3.7545853979,
				"z": -2.0314386136,
				"element": "H" 
			},
			{
				"x": -2.393434408,
				"y": 4.8735065448,
				"z": -0.3669215825,
				"element": "H" 
			},
			{
				"x": -2.3845897623,
				"y": 4.1315806909,
				"z": 2.0053340654,
				"element": "H" 
			},
			{
				"x": -0.9065471654,
				"y": 2.2581557678,
				"z": 2.7289224198,
				"element": "H" 
			},
			{
				"x": 2.1255220935,
				"y": -0.4659122861,
				"z": 0.7440002776,
				"element": "H" 
			}
		],
		 "valence_orbital": [ 
			{
				"type": "occ",
				"energy": -0.31471,
				"method": "rhf"
			},
			{
				"type": "occ",
				"energy": -0.28773,
				"method": "rhf"
			},
			{
				"type": "occ",
				"energy": -0.26941,
				"method": "rhf"
			},
			{
				"type": "occ",
				"energy": -0.26738,
				"method": "rhf"
			},
			{
				"type": "occ",
				"energy": -0.24839,
				"method": "rhf"
			},
			{
				"type": "unocc",
				"energy": -0.07778,
				"method": "rhf"
			},
			{
				"type": "unocc",
				"energy": -0.04922,
				"method": "rhf"
			},
			{
				"type": "unocc",
				"energy": 0.0029,
				"method": "rhf"
			},
			{
				"type": "unocc",
				"energy": 0.02129,
				"method": "rhf"
			},
			{
				"type": "unocc",
				"energy": 0.05747,
				"method": "rhf"
			}
		],
		"cosmo_sigma_profile": { 
			"-0.025": 0.0,
			"-0.024": 0.0,
			"-0.023": 0.0,
			"-0.022": 0.0,
			"-0.021": 0.0,
			"-0.02": 0.114674376124,
			"-0.019": 0.856057691257,
			"-0.018": 0.814094808118,
			"-0.017": 1.2106638628,
			"-0.016": 1.05981776845,
			"-0.015": 0.918341713266,
			"-0.014": 0.601389630305,
			"-0.013": 1.16017583475,
			"-0.012": 1.3017422352,
			"-0.011": 1.469444623,
			"-0.01": 1.23301958765,
			"-0.009": 1.2419876964,
			"-0.008": 3.28030680922,
			"-0.007": 7.67434160352,
			"-0.006": 12.3806976015,
			"-0.005": 11.5436290905,
			"-0.004": 11.0831207536,
			"-0.003": 10.2196866367,
			"-0.002": 11.0859438042,
			"-0.001": 13.4857826138,
			"0.0": 16.1204083973,
			"0.001": 14.4337698415,
			"0.002": 15.7933373549,
			"0.003": 14.7780400397,
			"0.004": 6.69063707854,
			"0.005": 3.24996969329,
			"0.006": 4.03058559119,
			"0.007": 3.27954411088,
			"0.008": 4.21520977105,
			"0.009": 4.44900558177,
			"0.01": 5.64346928338,
			"0.011": 6.55747575518,
			"0.012": 4.63168436685,
			"0.013": 2.07143233777,
			"0.014": 0.472686565595,
			"0.015": 0.747938807213,
			"0.016": 0.0234707144732,
			"0.017": 0.0,
			"0.018": 0.0,
			"0.019": 0.0,
			"0.02": 0.0,
			"0.021": 0.0,
			"0.022": 0.0,
			"0.023": 0.0,
			"0.024": 0.0,
			"0.025": 0.0
		}
	}
}
