{
	 "smiles": "OC(=O)C1CCN(CC1)C1=NC2=C(C=CC=C2O)C=C1", 
	 "Tm": 555.15, 
	 "num_atms": 36, 
	 "gaussian": { 
		 "optdone": 1, 
		 "sigma_profile": "yes", 
		 "theory": "DFT", 
		 "functional": "B3LYP", 
		 "basiset": "6-31G**", 
		 "properties": { 
			 "R2extent": 7569.2602, 
			 "electric_dipole_moment_norm": 2.53887421705, 
			 "electric_quadrupole_moment_norm": 20.5647883493, 
			 "total_energy": -916.444380099, 
			 "HOMO_LUMO_gap": 0.15257, 
			 "cosmo_polarized_energy": -19.44, 
			 "cosmo_cavitation_energy": 37.59, 
			 "cosmo_dispersion_energy": -27.25, 
			 "cosmo_repulsion_energy": 2.03, 
			 "cosmo_total_nonelectrostatic_energy": 12.37, 
			 "SMD_solvation_energy": 5.28 
		},
		"coords": [
			{
				"x": 5.7937244401,
				"y": -0.7343301371,
				"z": -0.3547337418,
				"element": "O" 
			},
			{
				"x": 4.6742706529,
				"y": -0.8687356343,
				"z": 0.4076320853,
				"element": "C" 
			},
			{
				"x": 4.7298849691,
				"y": -0.6350811092,
				"z": 1.5908309468,
				"element": "O" 
			},
			{
				"x": 3.4145737715,
				"y": -1.3085848557,
				"z": -0.3451696743,
				"element": "C" 
			},
			{
				"x": 2.2751923705,
				"y": -1.6720527837,
				"z": 0.6271081478,
				"element": "C" 
			},
			{
				"x": 1.610241513,
				"y": -0.4274851362,
				"z": 1.2449303292,
				"element": "C" 
			},
			{
				"x": 1.169240237,
				"y": 0.5131778762,
				"z": 0.2092893753,
				"element": "N" 
			},
			{
				"x": 2.2871335373,
				"y": 0.9624237425,
				"z": -0.6202227375,
				"element": "C" 
			},
			{
				"x": 2.9516277067,
				"y": -0.2164185197,
				"z": -1.3488805376,
				"element": "C" 
			},
			{
				"x": -0.1019638934,
				"y": 0.4510735938,
				"z": -0.3469610754,
				"element": "C" 
			},
			{
				"x": -0.2582993117,
				"y": 0.8345957404,
				"z": -1.6087187526,
				"element": "N" 
			},
			{
				"x": -1.5096315455,
				"y": 0.8482397435,
				"z": -2.1505886964,
				"element": "C" 
			},
			{
				"x": -2.6812213436,
				"y": 0.4491613874,
				"z": -1.4556054846,
				"element": "C" 
			},
			{
				"x": -3.9353855247,
				"y": 0.4845602413,
				"z": -2.1142124625,
				"element": "C" 
			},
			{
				"x": -4.0044527612,
				"y": 0.9062559695,
				"z": -3.4272094872,
				"element": "C" 
			},
			{
				"x": -2.8460046345,
				"y": 1.3039959185,
				"z": -4.1324729949,
				"element": "C" 
			},
			{
				"x": -1.6132844563,
				"y": 1.2774326933,
				"z": -3.5080443113,
				"element": "C" 
			},
			{
				"x": -0.4811275026,
				"y": 1.6483676784,
				"z": -4.1533386613,
				"element": "O" 
			},
			{
				"x": -2.4815304977,
				"y": 0.0431615071,
				"z": -0.1066571004,
				"element": "C" 
			},
			{
				"x": -1.2296135598,
				"y": 0.0433559346,
				"z": 0.446591415,
				"element": "C" 
			},
			{
				"x": 5.6088817092,
				"y": -0.9812932112,
				"z": -1.2720228074,
				"element": "H" 
			},
			{
				"x": 3.6912141442,
				"y": -2.2067632771,
				"z": -0.9164604629,
				"element": "H" 
			},
			{
				"x": 1.5183239634,
				"y": -2.243074802,
				"z": 0.0760489977,
				"element": "H" 
			},
			{
				"x": 2.6592542708,
				"y": -2.3129334836,
				"z": 1.4265260889,
				"element": "H" 
			},
			{
				"x": 2.3290865333,
				"y": 0.085433679,
				"z": 1.8900870327,
				"element": "H" 
			},
			{
				"x": 0.7707620162,
				"y": -0.7284992338,
				"z": 1.8707177676,
				"element": "H" 
			},
			{
				"x": 3.0111968463,
				"y": 1.454682589,
				"z": 0.041473774,
				"element": "H" 
			},
			{
				"x": 1.9234694423,
				"y": 1.7003606212,
				"z": -1.3334426324,
				"element": "H" 
			},
			{
				"x": 2.2244391598,
				"y": -0.6549006079,
				"z": -2.0401112657,
				"element": "H" 
			},
			{
				"x": 3.7919412741,
				"y": 0.1471352199,
				"z": -1.9536080322,
				"element": "H" 
			},
			{
				"x": -4.8294518973,
				"y": 0.180540572,
				"z": -1.5772508371,
				"element": "H" 
			},
			{
				"x": -4.9633216428,
				"y": 0.936002256,
				"z": -3.9363561719,
				"element": "H" 
			},
			{
				"x": -2.9071937121,
				"y": 1.6329954024,
				"z": -5.164558559,
				"element": "H" 
			},
			{
				"x": 0.2266032006,
				"y": 1.5317008489,
				"z": -3.4908189211,
				"element": "H" 
			},
			{
				"x": -3.3388152004,
				"y": -0.2547326901,
				"z": 0.4920736888,
				"element": "H" 
			},
			{
				"x": -1.1015642745,
				"y": -0.2307677332,
				"z": 1.4860357583,
				"element": "H" 
			}
		],
		 "valence_orbital": [ 
			{
				"type": "occ",
				"energy": -0.27952,
				"method": "rhf"
			},
			{
				"type": "occ",
				"energy": -0.27377,
				"method": "rhf"
			},
			{
				"type": "occ",
				"energy": -0.26927,
				"method": "rhf"
			},
			{
				"type": "occ",
				"energy": -0.21813,
				"method": "rhf"
			},
			{
				"type": "occ",
				"energy": -0.19451,
				"method": "rhf"
			},
			{
				"type": "unocc",
				"energy": -0.04194,
				"method": "rhf"
			},
			{
				"type": "unocc",
				"energy": -0.00477,
				"method": "rhf"
			},
			{
				"type": "unocc",
				"energy": -0.0022,
				"method": "rhf"
			},
			{
				"type": "unocc",
				"energy": 0.03725,
				"method": "rhf"
			},
			{
				"type": "unocc",
				"energy": 0.04154,
				"method": "rhf"
			}
		],
		"cosmo_sigma_profile": { 
			"-0.025": 0.0,
			"-0.024": 0.0,
			"-0.023": 0.0,
			"-0.022": 0.0,
			"-0.021": 0.0,
			"-0.02": 0.0,
			"-0.019": 0.400112471073,
			"-0.018": 0.763715699534,
			"-0.017": 0.995023715275,
			"-0.016": 1.62758349076,
			"-0.015": 0.747610890359,
			"-0.014": 0.658003570436,
			"-0.013": 1.11955678213,
			"-0.012": 0.942921932772,
			"-0.011": 1.30659921827,
			"-0.01": 1.90771437634,
			"-0.009": 2.37556522859,
			"-0.008": 3.83425286305,
			"-0.007": 6.12554821258,
			"-0.006": 11.7496648138,
			"-0.005": 19.1831988569,
			"-0.004": 26.0198651007,
			"-0.003": 30.6960095704,
			"-0.002": 24.2502639902,
			"-0.001": 18.5650058045,
			"0.0": 12.6138863851,
			"0.001": 12.3884657657,
			"0.002": 19.7365184563,
			"0.003": 22.6014111788,
			"0.004": 17.8962561189,
			"0.005": 13.7182556087,
			"0.006": 10.9402043707,
			"0.007": 4.44012469174,
			"0.008": 4.3639757022,
			"0.009": 4.5373086926,
			"0.01": 6.44957560083,
			"0.011": 6.76343860348,
			"0.012": 5.88215597925,
			"0.013": 1.69851120737,
			"0.014": 0.0638492665831,
			"0.015": 0.0,
			"0.016": 0.0,
			"0.017": 0.0,
			"0.018": 0.0,
			"0.019": 0.0,
			"0.02": 0.0,
			"0.021": 0.0,
			"0.022": 0.0,
			"0.023": 0.0,
			"0.024": 0.0,
			"0.025": 0.0
		}
	}
}
