{
	 "smiles": "COC1=C(OC)C(NC(C)=O)=CC(=C1)C(O)=O", 
	 "Tm": 503.15, 
	 "num_atms": 30, 
	 "gaussian": { 
		 "optdone": 1, 
		 "sigma_profile": "yes", 
		 "theory": "DFT", 
		 "functional": "B3LYP", 
		 "basiset": "6-31G**", 
		 "properties": { 
			 "R2extent": 4684.6478, 
			 "electric_dipole_moment_norm": 3.286323925, 
			 "electric_quadrupole_moment_norm": 35.0037581729, 
			 "total_energy": -857.867017072, 
			 "HOMO_LUMO_gap": 0.18002, 
			 "cosmo_polarized_energy": -21.85, 
			 "cosmo_cavitation_energy": 34.44, 
			 "cosmo_dispersion_energy": -23.9, 
			 "cosmo_repulsion_energy": 1.88, 
			 "cosmo_total_nonelectrostatic_energy": 12.42, 
			 "SMD_solvation_energy": 9.4 
		},
		"coords": [
			{
				"x": 3.7803597402,
				"y": 0.132311295,
				"z": 1.7462049203,
				"element": "C" 
			},
			{
				"x": 2.7924072038,
				"y": -0.9057829888,
				"z": 1.6702788029,
				"element": "O" 
			},
			{
				"x": 1.5250942138,
				"y": -0.478986501,
				"z": 1.3576016844,
				"element": "C" 
			},
			{
				"x": 1.2146228258,
				"y": -0.0582386193,
				"z": 0.0549591551,
				"element": "C" 
			},
			{
				"x": 2.1729750972,
				"y": 0.0116394876,
				"z": -0.9286052428,
				"element": "O" 
			},
			{
				"x": 2.6571724976,
				"y": -1.2599606573,
				"z": -1.4034879968,
				"element": "C" 
			},
			{
				"x": -0.097962753,
				"y": 0.3506793741,
				"z": -0.2747115934,
				"element": "C" 
			},
			{
				"x": -0.2970372217,
				"y": 0.7662539586,
				"z": -1.5982562015,
				"element": "N" 
			},
			{
				"x": -1.3933302188,
				"y": 0.7718063476,
				"z": -2.4524804587,
				"element": "C" 
			},
			{
				"x": -2.7413540072,
				"y": 0.3065290252,
				"z": -1.9396156837,
				"element": "C" 
			},
			{
				"x": -1.235806628,
				"y": 1.143416067,
				"z": -3.6051407215,
				"element": "O" 
			},
			{
				"x": -1.072035892,
				"y": 0.3577741612,
				"z": 0.7321619785,
				"element": "C" 
			},
			{
				"x": -0.7615096554,
				"y": -0.0924411587,
				"z": 2.02305106,
				"element": "C" 
			},
			{
				"x": 0.5309031849,
				"y": -0.5233811524,
				"z": 2.3321130791,
				"element": "C" 
			},
			{
				"x": -1.7853360745,
				"y": -0.1373155499,
				"z": 3.1182130654,
				"element": "C" 
			},
			{
				"x": -2.8470409259,
				"y": 0.7066152744,
				"z": 2.9943392338,
				"element": "O" 
			},
			{
				"x": -1.7048639155,
				"y": -0.8713149394,
				"z": 4.0739184361,
				"element": "O" 
			},
			{
				"x": 3.5232638149,
				"y": 0.8525971077,
				"z": 2.5320817474,
				"element": "H" 
			},
			{
				"x": 3.8848121298,
				"y": 0.6540110135,
				"z": 0.7898464172,
				"element": "H" 
			},
			{
				"x": 4.7193043897,
				"y": -0.361431751,
				"z": 2.0022193573,
				"element": "H" 
			},
			{
				"x": 3.4038145505,
				"y": -1.0318109295,
				"z": -2.1655850777,
				"element": "H" 
			},
			{
				"x": 1.8413108846,
				"y": -1.8383125745,
				"z": -1.8512362841,
				"element": "H" 
			},
			{
				"x": 3.1124438841,
				"y": -1.8283187384,
				"z": -0.588816127,
				"element": "H" 
			},
			{
				"x": 0.565025418,
				"y": 0.9615340194,
				"z": -2.0960103342,
				"element": "H" 
			},
			{
				"x": -3.225806585,
				"y": 1.0950777638,
				"z": -1.3532569687,
				"element": "H" 
			},
			{
				"x": -3.3648008233,
				"y": 0.1029143148,
				"z": -2.8101349114,
				"element": "H" 
			},
			{
				"x": -2.6690411589,
				"y": -0.5886554942,
				"z": -1.3164573255,
				"element": "H" 
			},
			{
				"x": -2.0794901063,
				"y": 0.6736387575,
				"z": 0.4953461947,
				"element": "H" 
			},
			{
				"x": 0.7634896168,
				"y": -0.8787341334,
				"z": 3.3289186591,
				"element": "H" 
			},
			{
				"x": -2.6731834861,
				"y": 1.3570872205,
				"z": 2.2999411357,
				"element": "H" 
			}
		],
		 "valence_orbital": [ 
			{
				"type": "occ",
				"energy": -0.2864,
				"method": "rhf"
			},
			{
				"type": "occ",
				"energy": -0.2784,
				"method": "rhf"
			},
			{
				"type": "occ",
				"energy": -0.26434,
				"method": "rhf"
			},
			{
				"type": "occ",
				"energy": -0.25797,
				"method": "rhf"
			},
			{
				"type": "occ",
				"energy": -0.23455,
				"method": "rhf"
			},
			{
				"type": "unocc",
				"energy": -0.05453,
				"method": "rhf"
			},
			{
				"type": "unocc",
				"energy": -0.03039,
				"method": "rhf"
			},
			{
				"type": "unocc",
				"energy": 0.01629,
				"method": "rhf"
			},
			{
				"type": "unocc",
				"energy": 0.04249,
				"method": "rhf"
			},
			{
				"type": "unocc",
				"energy": 0.05751,
				"method": "rhf"
			}
		],
		"cosmo_sigma_profile": { 
			"-0.025": 0.0,
			"-0.024": 0.0,
			"-0.023": 0.0,
			"-0.022": 0.0,
			"-0.021": 0.0,
			"-0.02": 0.0,
			"-0.019": 0.308131494105,
			"-0.018": 0.68286122907,
			"-0.017": 0.923672071676,
			"-0.016": 1.54508320476,
			"-0.015": 0.617901158993,
			"-0.014": 1.05140149688,
			"-0.013": 0.637456749174,
			"-0.012": 1.59872284689,
			"-0.011": 1.34208152552,
			"-0.01": 2.17877335156,
			"-0.009": 2.40552271364,
			"-0.008": 3.27123427382,
			"-0.007": 4.55679138637,
			"-0.006": 10.3089232674,
			"-0.005": 20.6336707036,
			"-0.004": 24.428832636,
			"-0.003": 32.7431076433,
			"-0.002": 25.5612719414,
			"-0.001": 21.1990031372,
			"0.0": 15.2926824578,
			"0.001": 15.9690955396,
			"0.002": 12.7422834158,
			"0.003": 8.15335963038,
			"0.004": 6.76054266348,
			"0.005": 4.22323017273,
			"0.006": 5.0643300122,
			"0.007": 5.96591739568,
			"0.008": 5.74269710942,
			"0.009": 5.23344739947,
			"0.01": 7.57128946878,
			"0.011": 7.59260025516,
			"0.012": 8.17424877009,
			"0.013": 6.6895672567,
			"0.014": 2.31076701997,
			"0.015": 0.0615079973289,
			"0.016": 0.0,
			"0.017": 0.0,
			"0.018": 0.0,
			"0.019": 0.0,
			"0.02": 0.0,
			"0.021": 0.0,
			"0.022": 0.0,
			"0.023": 0.0,
			"0.024": 0.0,
			"0.025": 0.0
		}
	}
}
