{
	 "smiles": "CON(C)S(=O)(=O)C1=CC=C(C=C1)C(O)=O", 
	 "Tm": 484.15, 
	 "num_atms": 27, 
	 "gaussian": { 
		 "optdone": 1, 
		 "sigma_profile": "yes", 
		 "theory": "DFT", 
		 "functional": "B3LYP", 
		 "basiset": "6-31G**", 
		 "properties": { 
			 "R2extent": 5111.1742, 
			 "electric_dipole_moment_norm": 4.13300797725, 
			 "electric_quadrupole_moment_norm": 29.3720983627, 
			 "total_energy": -1178.50973718, 
			 "HOMO_LUMO_gap": 0.18165, 
			 "cosmo_polarized_energy": -22.62, 
			 "cosmo_cavitation_energy": 33.07, 
			 "cosmo_dispersion_energy": -23.66, 
			 "cosmo_repulsion_energy": 1.8, 
			 "cosmo_total_nonelectrostatic_energy": 11.21, 
			 "SMD_solvation_energy": 7.22 
		},
		"coords": [
			{
				"x": -0.8619206536,
				"y": -1.350740665,
				"z": 3.9037148002,
				"element": "C" 
			},
			{
				"x": -0.9403438649,
				"y": -2.2840736965,
				"z": 2.8210519958,
				"element": "O" 
			},
			{
				"x": -0.1199671835,
				"y": -1.8411131158,
				"z": 1.7411178394,
				"element": "N" 
			},
			{
				"x": 0.6217363317,
				"y": -3.021460909,
				"z": 1.2766939116,
				"element": "C" 
			},
			{
				"x": -1.2296986709,
				"y": -1.2269197143,
				"z": 0.5105638978,
				"element": "S" 
			},
			{
				"x": -1.7860349392,
				"y": -2.3055408416,
				"z": -0.316003108,
				"element": "O" 
			},
			{
				"x": -2.0987175027,
				"y": -0.280564999,
				"z": 1.2094966727,
				"element": "O" 
			},
			{
				"x": -0.0575703028,
				"y": -0.3089277443,
				"z": -0.5004593165,
				"element": "C" 
			},
			{
				"x": 0.5603536909,
				"y": 0.8298907797,
				"z": 0.0253164713,
				"element": "C" 
			},
			{
				"x": 1.4362654746,
				"y": 1.5518687261,
				"z": -0.7770461397,
				"element": "C" 
			},
			{
				"x": 1.7001437195,
				"y": 1.1373648432,
				"z": -2.0912038759,
				"element": "C" 
			},
			{
				"x": 1.0512548862,
				"y": 0.0077558967,
				"z": -2.6072903763,
				"element": "C" 
			},
			{
				"x": 0.1674608642,
				"y": -0.7225156334,
				"z": -1.8124925138,
				"element": "C" 
			},
			{
				"x": 2.6534278836,
				"y": 1.9742161878,
				"z": -2.8995295564,
				"element": "C" 
			},
			{
				"x": 3.224325675,
				"y": 1.3843855749,
				"z": -3.9806561748,
				"element": "O" 
			},
			{
				"x": 2.9164859589,
				"y": 3.119238276,
				"z": -2.6212416628,
				"element": "O" 
			},
			{
				"x": -1.4499399696,
				"y": -1.805931024,
				"z": 4.7042272237,
				"element": "H" 
			},
			{
				"x": 0.1755264097,
				"y": -1.219354763,
				"z": 4.2309579797,
				"element": "H" 
			},
			{
				"x": -1.2977719723,
				"y": -0.3881485814,
				"z": 3.6256508642,
				"element": "H" 
			},
			{
				"x": 1.3016635432,
				"y": -3.3119551413,
				"z": 2.0795396848,
				"element": "H" 
			},
			{
				"x": -0.042700628,
				"y": -3.8550777303,
				"z": 1.0268583921,
				"element": "H" 
			},
			{
				"x": 1.2099752332,
				"y": -2.7417859597,
				"z": 0.3992734297,
				"element": "H" 
			},
			{
				"x": 0.3494769635,
				"y": 1.1428902167,
				"z": 1.0416709063,
				"element": "H" 
			},
			{
				"x": 1.9264881248,
				"y": 2.4463567429,
				"z": -0.4090375374,
				"element": "H" 
			},
			{
				"x": 1.1919604926,
				"y": -0.2939092097,
				"z": -3.6420905852,
				"element": "H" 
			},
			{
				"x": -0.3544872719,
				"y": -1.5913090682,
				"z": -2.1980484922,
				"element": "H" 
			},
			{
				"x": 3.0473077078,
				"y": 0.4336615526,
				"z": -3.9843347306,
				"element": "H" 
			}
		],
		 "valence_orbital": [ 
			{
				"type": "occ",
				"energy": -0.30322,
				"method": "rhf"
			},
			{
				"type": "occ",
				"energy": -0.29547,
				"method": "rhf"
			},
			{
				"type": "occ",
				"energy": -0.29023,
				"method": "rhf"
			},
			{
				"type": "occ",
				"energy": -0.28417,
				"method": "rhf"
			},
			{
				"type": "occ",
				"energy": -0.26514,
				"method": "rhf"
			},
			{
				"type": "unocc",
				"energy": -0.08349,
				"method": "rhf"
			},
			{
				"type": "unocc",
				"energy": -0.04515,
				"method": "rhf"
			},
			{
				"type": "unocc",
				"energy": 0.01072,
				"method": "rhf"
			},
			{
				"type": "unocc",
				"energy": 0.03306,
				"method": "rhf"
			},
			{
				"type": "unocc",
				"energy": 0.04786,
				"method": "rhf"
			}
		],
		"cosmo_sigma_profile": { 
			"-0.025": 0.0,
			"-0.024": 0.0,
			"-0.023": 0.0,
			"-0.022": 0.0,
			"-0.021": 0.0,
			"-0.02": 0.0828461191443,
			"-0.019": 0.719876844657,
			"-0.018": 0.876749909464,
			"-0.017": 0.930320866446,
			"-0.016": 1.34490839137,
			"-0.015": 1.2947452839,
			"-0.014": 1.1464786208,
			"-0.013": 0.59481685983,
			"-0.012": 1.23198420997,
			"-0.011": 1.64938830219,
			"-0.01": 1.1655269128,
			"-0.009": 2.17711731561,
			"-0.008": 5.91149788437,
			"-0.007": 9.37903529342,
			"-0.006": 12.797122278,
			"-0.005": 18.1250472088,
			"-0.004": 21.0648733472,
			"-0.003": 24.5968651832,
			"-0.002": 17.0825715642,
			"-0.001": 15.9808763872,
			"0.0": 20.8652262453,
			"0.001": 13.7945736438,
			"0.002": 7.82188030525,
			"0.003": 7.63307878097,
			"0.004": 7.44742881066,
			"0.005": 6.31325867717,
			"0.006": 7.37632692944,
			"0.007": 8.79572758286,
			"0.008": 8.6439585451,
			"0.009": 9.7080802178,
			"0.01": 13.980994728,
			"0.011": 9.84210879853,
			"0.012": 2.80605037134,
			"0.013": 0.402517595265,
			"0.014": 0.0,
			"0.015": 0.0,
			"0.016": 0.0,
			"0.017": 0.0,
			"0.018": 0.0,
			"0.019": 0.0,
			"0.02": 0.0,
			"0.021": 0.0,
			"0.022": 0.0,
			"0.023": 0.0,
			"0.024": 0.0,
			"0.025": 0.0
		}
	}
}
