{
	 "smiles": "CC1=C(C=C(O1)C(N)=O)C1=CSC(N)=N1", 
	 "Tm": 498.15, 
	 "num_atms": 24, 
	 "gaussian": { 
		 "optdone": 1, 
		 "sigma_profile": "yes", 
		 "theory": "DFT", 
		 "functional": "B3LYP", 
		 "basiset": "6-31G**", 
		 "properties": { 
			 "R2extent": 4817.1067, 
			 "electric_dipole_moment_norm": 5.31514728394, 
			 "electric_quadrupole_moment_norm": 24.3070870657, 
			 "total_energy": -1061.27008207, 
			 "HOMO_LUMO_gap": 0.17447, 
			 "cosmo_polarized_energy": -22.15, 
			 "cosmo_cavitation_energy": 31.06, 
			 "cosmo_dispersion_energy": -23.26, 
			 "cosmo_repulsion_energy": 1.8, 
			 "cosmo_total_nonelectrostatic_energy": 9.61, 
			 "SMD_solvation_energy": 5.15 
		},
		"coords": [
			{
				"x": -1.3848329745,
				"y": -1.3561976346,
				"z": -2.0036173149,
				"element": "C" 
			},
			{
				"x": -0.9027338712,
				"y": -0.011194597,
				"z": -1.5854198231,
				"element": "C" 
			},
			{
				"x": 0.0139927541,
				"y": 0.4245232754,
				"z": -0.6498804192,
				"element": "C" 
			},
			{
				"x": -0.0007266306,
				"y": 1.8539572472,
				"z": -0.7304131211,
				"element": "C" 
			},
			{
				"x": -0.9069929477,
				"y": 2.1894561482,
				"z": -1.69756659,
				"element": "C" 
			},
			{
				"x": -1.4563757617,
				"y": 1.0511049096,
				"z": -2.2222688166,
				"element": "O" 
			},
			{
				"x": -1.379068145,
				"y": 3.4657618651,
				"z": -2.2742460427,
				"element": "C" 
			},
			{
				"x": -0.9517838131,
				"y": 4.5888906562,
				"z": -1.5970497275,
				"element": "N" 
			},
			{
				"x": -2.0584582496,
				"y": 3.5247581326,
				"z": -3.2893828944,
				"element": "O" 
			},
			{
				"x": 0.8494701075,
				"y": -0.3558601871,
				"z": 0.259846133,
				"element": "C" 
			},
			{
				"x": 1.0299067714,
				"y": -1.7136728607,
				"z": 0.2605261227,
				"element": "C" 
			},
			{
				"x": 2.1176122846,
				"y": -2.1823818824,
				"z": 1.5439268262,
				"element": "S" 
			},
			{
				"x": 2.2638913314,
				"y": -0.47116346,
				"z": 1.9680733215,
				"element": "C" 
			},
			{
				"x": 3.0095114287,
				"y": -0.0717853242,
				"z": 3.0539505612,
				"element": "N" 
			},
			{
				"x": 1.5629379253,
				"y": 0.3377623109,
				"z": 1.2310105367,
				"element": "N" 
			},
			{
				"x": -2.2926416096,
				"y": -1.252869915,
				"z": -2.6018765454,
				"element": "H" 
			},
			{
				"x": -0.6391942312,
				"y": -1.8871127924,
				"z": -2.6091642877,
				"element": "H" 
			},
			{
				"x": -1.6085111991,
				"y": -1.9796286025,
				"z": -1.1312599786,
				"element": "H" 
			},
			{
				"x": 0.6171321697,
				"y": 2.515186221,
				"z": -0.1415004297,
				"element": "H" 
			},
			{
				"x": -1.3720708553,
				"y": 5.4544425537,
				"z": -1.9033752687,
				"element": "H" 
			},
			{
				"x": -0.7056366501,
				"y": 4.5250553941,
				"z": -0.6209991054,
				"element": "H" 
			},
			{
				"x": 0.6313786253,
				"y": -2.4566342375,
				"z": -0.4119379774,
				"element": "H" 
			},
			{
				"x": 3.8315139509,
				"y": -0.6173879021,
				"z": 3.2700050713,
				"element": "H" 
			},
			{
				"x": 3.1626795899,
				"y": 0.9278906815,
				"z": 3.0800197698,
				"element": "H" 
			}
		],
		 "valence_orbital": [ 
			{
				"type": "occ",
				"energy": -0.26798,
				"method": "rhf"
			},
			{
				"type": "occ",
				"energy": -0.26484,
				"method": "rhf"
			},
			{
				"type": "occ",
				"energy": -0.24602,
				"method": "rhf"
			},
			{
				"type": "occ",
				"energy": -0.23493,
				"method": "rhf"
			},
			{
				"type": "occ",
				"energy": -0.20144,
				"method": "rhf"
			},
			{
				"type": "unocc",
				"energy": -0.02697,
				"method": "rhf"
			},
			{
				"type": "unocc",
				"energy": -0.01602,
				"method": "rhf"
			},
			{
				"type": "unocc",
				"energy": 0.00565,
				"method": "rhf"
			},
			{
				"type": "unocc",
				"energy": 0.02595,
				"method": "rhf"
			},
			{
				"type": "unocc",
				"energy": 0.06495,
				"method": "rhf"
			}
		],
		"cosmo_sigma_profile": { 
			"-0.025": 0.0,
			"-0.024": 0.0,
			"-0.023": 0.0,
			"-0.022": 0.0,
			"-0.021": 0.0,
			"-0.02": 0.0,
			"-0.019": 0.0,
			"-0.018": 0.0,
			"-0.017": 0.0,
			"-0.016": 0.0,
			"-0.015": 0.455061607756,
			"-0.014": 3.6342713253,
			"-0.013": 4.33846795908,
			"-0.012": 5.83266200661,
			"-0.011": 5.43683535734,
			"-0.01": 5.35217871491,
			"-0.009": 3.94548989513,
			"-0.008": 5.80379114752,
			"-0.007": 6.20246810088,
			"-0.006": 10.3091305941,
			"-0.005": 11.9783411823,
			"-0.004": 9.55525057878,
			"-0.003": 11.9102536093,
			"-0.002": 15.0174568651,
			"-0.001": 12.7258369054,
			"0.0": 12.3299638027,
			"0.001": 17.8145875221,
			"0.002": 17.9685061683,
			"0.003": 19.9697960249,
			"0.004": 18.341424393,
			"0.005": 8.82952307925,
			"0.006": 5.28440908314,
			"0.007": 4.64000639567,
			"0.008": 4.80890422599,
			"0.009": 4.56049835692,
			"0.01": 4.46742271087,
			"0.011": 3.29054837245,
			"0.012": 3.48569036608,
			"0.013": 5.47359815621,
			"0.014": 5.08822579089,
			"0.015": 1.05773929502,
			"0.016": 0.0,
			"0.017": 0.0,
			"0.018": 0.0,
			"0.019": 0.0,
			"0.02": 0.0,
			"0.021": 0.0,
			"0.022": 0.0,
			"0.023": 0.0,
			"0.024": 0.0,
			"0.025": 0.0
		}
	}
}
