{
	 "smiles": "COC1=CC=CC(=C1)C(=O)CBr", 
	 "Tm": 335.15, 
	 "num_atms": 21, 
	 "gaussian": { 
		 "optdone": 1, 
		 "sigma_profile": "yes", 
		 "theory": "DFT", 
		 "functional": "B3LYP", 
		 "basiset": "6-31G**", 
		 "properties": { 
			 "R2extent": 5272.3978, 
			 "electric_dipole_moment_norm": 2.22042490979, 
			 "electric_quadrupole_moment_norm": 13.3172882217, 
			 "total_energy": -3070.22011395, 
			 "HOMO_LUMO_gap": 0.15823, 
			 "cosmo_polarized_energy": -9.44, 
			 "cosmo_cavitation_energy": 27.41, 
			 "cosmo_dispersion_energy": -20.26, 
			 "cosmo_repulsion_energy": 1.62, 
			 "cosmo_total_nonelectrostatic_energy": 8.77, 
			 "SMD_solvation_energy": 4.94 
		},
		"coords": [
			{
				"x": -2.9533356145,
				"y": -0.1530184392,
				"z": 1.0083712827,
				"element": "C" 
			},
			{
				"x": -2.0071838031,
				"y": -0.8646768981,
				"z": 1.7947789832,
				"element": "O" 
			},
			{
				"x": -0.780714626,
				"y": -1.1108684143,
				"z": 1.2564096552,
				"element": "C" 
			},
			{
				"x": 0.109970658,
				"y": -1.8270682994,
				"z": 2.0756642646,
				"element": "C" 
			},
			{
				"x": 1.3861515057,
				"y": -2.1317324327,
				"z": 1.6187658112,
				"element": "C" 
			},
			{
				"x": 1.8018753751,
				"y": -1.7298102821,
				"z": 0.3464241094,
				"element": "C" 
			},
			{
				"x": 0.9190353138,
				"y": -1.0132460151,
				"z": -0.4703542542,
				"element": "C" 
			},
			{
				"x": -0.3749342772,
				"y": -0.7046397736,
				"z": -0.0137718483,
				"element": "C" 
			},
			{
				"x": 1.2883327091,
				"y": -0.519467812,
				"z": -1.8298245131,
				"element": "C" 
			},
			{
				"x": 0.503384033,
				"y": 0.1117876071,
				"z": -2.520854425,
				"element": "O" 
			},
			{
				"x": 2.6963220286,
				"y": -0.7556980337,
				"z": -2.3700999044,
				"element": "C" 
			},
			{
				"x": 2.932673121,
				"y": -2.6349521554,
				"z": -2.9489213057,
				"element": "Br" 
			},
			{
				"x": -2.5952872722,
				"y": 0.8537905663,
				"z": 0.7595684196,
				"element": "H" 
			},
			{
				"x": -3.8530860569,
				"y": -0.0747944132,
				"z": 1.620072774,
				"element": "H" 
			},
			{
				"x": -3.1904183885,
				"y": -0.6883130214,
				"z": 0.0805823142,
				"element": "H" 
			},
			{
				"x": -0.2267800418,
				"y": -2.1326340314,
				"z": 3.0610006172,
				"element": "H" 
			},
			{
				"x": 2.0637388944,
				"y": -2.690684176,
				"z": 2.2570538117,
				"element": "H" 
			},
			{
				"x": 2.7919764411,
				"y": -1.998117367,
				"z": -0.0029414129,
				"element": "H" 
			},
			{
				"x": -1.0224452054,
				"y": -0.1478384233,
				"z": -0.6789894772,
				"element": "H" 
			},
			{
				"x": 2.8334127377,
				"y": -0.1469583593,
				"z": -3.2600621157,
				"element": "H" 
			},
			{
				"x": 3.4790124681,
				"y": -0.5646598262,
				"z": -1.6368727865,
				"element": "H" 
			}
		],
		 "valence_orbital": [ 
			{
				"type": "occ",
				"energy": -0.29272,
				"method": "rhf"
			},
			{
				"type": "occ",
				"energy": -0.28257,
				"method": "rhf"
			},
			{
				"type": "occ",
				"energy": -0.26329,
				"method": "rhf"
			},
			{
				"type": "occ",
				"energy": -0.25852,
				"method": "rhf"
			},
			{
				"type": "occ",
				"energy": -0.23208,
				"method": "rhf"
			},
			{
				"type": "unocc",
				"energy": -0.07385,
				"method": "rhf"
			},
			{
				"type": "unocc",
				"energy": -0.01149,
				"method": "rhf"
			},
			{
				"type": "unocc",
				"energy": -0.00125,
				"method": "rhf"
			},
			{
				"type": "unocc",
				"energy": 0.0507,
				"method": "rhf"
			},
			{
				"type": "unocc",
				"energy": 0.09005,
				"method": "rhf"
			}
		],
		"cosmo_sigma_profile": { 
			"-0.025": 0.0,
			"-0.024": 0.0,
			"-0.023": 0.0,
			"-0.022": 0.0,
			"-0.021": 0.0,
			"-0.02": 0.0,
			"-0.019": 0.0,
			"-0.018": 0.0,
			"-0.017": 0.0,
			"-0.016": 0.0,
			"-0.015": 0.0,
			"-0.014": 0.0,
			"-0.013": 0.0,
			"-0.012": 0.0,
			"-0.011": 0.0,
			"-0.01": 0.0777994231922,
			"-0.009": 2.81431652219,
			"-0.008": 4.26544338078,
			"-0.007": 6.69593365081,
			"-0.006": 15.7852735975,
			"-0.005": 19.6372581695,
			"-0.004": 16.3129129133,
			"-0.003": 16.0470931835,
			"-0.002": 10.8146248253,
			"-0.001": 10.3664031562,
			"0.0": 13.2928884622,
			"0.001": 13.1063496782,
			"0.002": 18.7876897687,
			"0.003": 20.8223859651,
			"0.004": 19.654935109,
			"0.005": 11.083059554,
			"0.006": 4.13111580064,
			"0.007": 2.68098008844,
			"0.008": 2.79383232124,
			"0.009": 4.00388694989,
			"0.01": 3.72340159606,
			"0.011": 3.80085108338,
			"0.012": 1.1915119238,
			"0.013": 0.0205307001331,
			"0.014": 0.0,
			"0.015": 0.0,
			"0.016": 0.0,
			"0.017": 0.0,
			"0.018": 0.0,
			"0.019": 0.0,
			"0.02": 0.0,
			"0.021": 0.0,
			"0.022": 0.0,
			"0.023": 0.0,
			"0.024": 0.0,
			"0.025": 0.0
		}
	}
}
