{
	 "smiles": "OC(=O)C1CCC(=O)N(CC2=CC=CC=C2)C1", 
	 "Tm": 428.15, 
	 "num_atms": 32, 
	 "gaussian": { 
		 "optdone": 1, 
		 "sigma_profile": "yes", 
		 "theory": "DFT", 
		 "functional": "B3LYP", 
		 "basiset": "6-31G**", 
		 "properties": { 
			 "R2extent": 5312.0709, 
			 "electric_dipole_moment_norm": 5.72308679473, 
			 "electric_quadrupole_moment_norm": 16.4339544955, 
			 "total_energy": -784.873066896, 
			 "HOMO_LUMO_gap": 0.23169, 
			 "cosmo_polarized_energy": -22.48, 
			 "cosmo_cavitation_energy": 34.27, 
			 "cosmo_dispersion_energy": -24.14, 
			 "cosmo_repulsion_energy": 1.87, 
			 "cosmo_total_nonelectrostatic_energy": 12.01, 
			 "SMD_solvation_energy": 6.25 
		},
		"coords": [
			{
				"x": -2.3305984421,
				"y": -2.0928624094,
				"z": 2.992713162,
				"element": "O" 
			},
			{
				"x": -1.1862023723,
				"y": -1.3656995824,
				"z": 2.8862146836,
				"element": "C" 
			},
			{
				"x": -0.1891537522,
				"y": -1.7394849968,
				"z": 3.45151611,
				"element": "O" 
			},
			{
				"x": -1.2899141432,
				"y": -0.0727479506,
				"z": 2.0632785235,
				"element": "C" 
			},
			{
				"x": 0.0423740541,
				"y": 0.6838465501,
				"z": 2.0200617535,
				"element": "C" 
			},
			{
				"x": 1.0801478706,
				"y": -0.081674391,
				"z": 1.1918097126,
				"element": "C" 
			},
			{
				"x": 0.579914738,
				"y": -0.6670813887,
				"z": -0.1218859633,
				"element": "C" 
			},
			{
				"x": 1.3693598237,
				"y": -0.9788372438,
				"z": -1.0083288459,
				"element": "O" 
			},
			{
				"x": -0.7764719052,
				"y": -0.9072352902,
				"z": -0.2387754709,
				"element": "N" 
			},
			{
				"x": -1.2696792644,
				"y": -1.4896496047,
				"z": -1.4960127702,
				"element": "C" 
			},
			{
				"x": -1.7970896954,
				"y": -0.4657260546,
				"z": -2.4856136,
				"element": "C" 
			},
			{
				"x": -0.9116879063,
				"y": 0.412872155,
				"z": -3.1298291932,
				"element": "C" 
			},
			{
				"x": -1.3908290129,
				"y": 1.3593425462,
				"z": -4.0342994603,
				"element": "C" 
			},
			{
				"x": -2.7588393521,
				"y": 1.4414168218,
				"z": -4.3112056296,
				"element": "C" 
			},
			{
				"x": -3.6453624293,
				"y": 0.5696926382,
				"z": -3.6792630333,
				"element": "C" 
			},
			{
				"x": -3.1642257517,
				"y": -0.3768648458,
				"z": -2.7708438475,
				"element": "C" 
			},
			{
				"x": -1.7865041292,
				"y": -0.3022112466,
				"z": 0.6260641445,
				"element": "C" 
			},
			{
				"x": -3.0596764906,
				"y": -1.6542756259,
				"z": 2.5323937385,
				"element": "H" 
			},
			{
				"x": -2.0474461022,
				"y": 0.5466758646,
				"z": 2.5660506516,
				"element": "H" 
			},
			{
				"x": -0.1420327992,
				"y": 1.6705588967,
				"z": 1.578374096,
				"element": "H" 
			},
			{
				"x": 0.419147428,
				"y": 0.8450757446,
				"z": 3.0333610478,
				"element": "H" 
			},
			{
				"x": 1.4591108601,
				"y": -0.925937821,
				"z": 1.777251048,
				"element": "H" 
			},
			{
				"x": 1.9400456099,
				"y": 0.5462620498,
				"z": 0.9462069793,
				"element": "H" 
			},
			{
				"x": -2.060164968,
				"y": -2.2071889425,
				"z": -1.2454458577,
				"element": "H" 
			},
			{
				"x": -0.4288117718,
				"y": -2.0361921544,
				"z": -1.9254367294,
				"element": "H" 
			},
			{
				"x": 0.1511446452,
				"y": 0.3378699943,
				"z": -2.9191033329,
				"element": "H" 
			},
			{
				"x": -0.6953020877,
				"y": 2.0303661118,
				"z": -4.5306932712,
				"element": "H" 
			},
			{
				"x": -3.1289616004,
				"y": 2.1774794501,
				"z": -5.0192052655,
				"element": "H" 
			},
			{
				"x": -4.7093565814,
				"y": 0.6233096463,
				"z": -3.8924502465,
				"element": "H" 
			},
			{
				"x": -3.8585853258,
				"y": -1.0602281484,
				"z": -2.2862810431,
				"element": "H" 
			},
			{
				"x": -2.6660836048,
				"y": -0.9597317962,
				"z": 0.6094219109,
				"element": "H" 
			},
			{
				"x": -2.1228655414,
				"y": 0.6591610236,
				"z": 0.2114559985,
				"element": "H" 
			}
		],
		 "valence_orbital": [ 
			{
				"type": "occ",
				"energy": -0.28158,
				"method": "rhf"
			},
			{
				"type": "occ",
				"energy": -0.25902,
				"method": "rhf"
			},
			{
				"type": "occ",
				"energy": -0.25453,
				"method": "rhf"
			},
			{
				"type": "occ",
				"energy": -0.24313,
				"method": "rhf"
			},
			{
				"type": "occ",
				"energy": -0.24274,
				"method": "rhf"
			},
			{
				"type": "unocc",
				"energy": -0.01105,
				"method": "rhf"
			},
			{
				"type": "unocc",
				"energy": -0.00512,
				"method": "rhf"
			},
			{
				"type": "unocc",
				"energy": -0.00446,
				"method": "rhf"
			},
			{
				"type": "unocc",
				"energy": 0.01903,
				"method": "rhf"
			},
			{
				"type": "unocc",
				"energy": 0.03256,
				"method": "rhf"
			}
		],
		"cosmo_sigma_profile": { 
			"-0.025": 0.0,
			"-0.024": 0.0,
			"-0.023": 0.0,
			"-0.022": 0.0,
			"-0.021": 0.0,
			"-0.02": 0.0624691280194,
			"-0.019": 0.858210650207,
			"-0.018": 1.30742731392,
			"-0.017": 1.02466097204,
			"-0.016": 0.819267565072,
			"-0.015": 1.18431787979,
			"-0.014": 1.08851356998,
			"-0.013": 1.0133338829,
			"-0.012": 0.981741327403,
			"-0.011": 1.52979528986,
			"-0.01": 1.67205641012,
			"-0.009": 1.530525323,
			"-0.008": 3.11296226604,
			"-0.007": 5.54480675556,
			"-0.006": 12.927350723,
			"-0.005": 21.4873869401,
			"-0.004": 22.4715197351,
			"-0.003": 24.71443543,
			"-0.002": 22.0516313319,
			"-0.001": 19.7169254702,
			"0.0": 15.3435476884,
			"0.001": 13.1976103505,
			"0.002": 11.9231485056,
			"0.003": 11.2096749604,
			"0.004": 11.9577470383,
			"0.005": 12.313057393,
			"0.006": 10.7968284015,
			"0.007": 4.31134617351,
			"0.008": 4.38222561058,
			"0.009": 4.5705072815,
			"0.01": 5.7608882262,
			"0.011": 5.83547249005,
			"0.012": 4.97140156081,
			"0.013": 3.53599175555,
			"0.014": 3.68201397784,
			"0.015": 1.34654728883,
			"0.016": 0.0751462931617,
			"0.017": 0.0,
			"0.018": 0.0,
			"0.019": 0.0,
			"0.02": 0.0,
			"0.021": 0.0,
			"0.022": 0.0,
			"0.023": 0.0,
			"0.024": 0.0,
			"0.025": 0.0
		}
	}
}
