{
	 "smiles": "OCCN1CCN(CC1)C(=O)CN1C(=O)SC2=CC=C(Cl)C=C12", 
	 "Tm": 433.15, 
	 "num_atms": 41, 
	 "gaussian": { 
		 "optdone": 1, 
		 "sigma_profile": "yes", 
		 "theory": "DFT", 
		 "functional": "B3LYP", 
		 "basiset": "6-31G**", 
		 "properties": { 
			 "R2extent": 11966.4479, 
			 "electric_dipole_moment_norm": 3.62320842072, 
			 "electric_quadrupole_moment_norm": 29.6107927761, 
			 "total_energy": -1830.75958446, 
			 "HOMO_LUMO_gap": 0.19826, 
			 "cosmo_polarized_energy": -22.16, 
			 "cosmo_cavitation_energy": 46.49, 
			 "cosmo_dispersion_energy": -32.83, 
			 "cosmo_repulsion_energy": 2.48, 
			 "cosmo_total_nonelectrostatic_energy": 16.14, 
			 "SMD_solvation_energy": 6.67 
		},
		"coords": [
			{
				"x": -4.6876406825,
				"y": -2.222248982,
				"z": -1.2594778807,
				"element": "O" 
			},
			{
				"x": -5.5665781542,
				"y": -1.1676502561,
				"z": -0.9231083591,
				"element": "C" 
			},
			{
				"x": -5.171600569,
				"y": -0.5449424964,
				"z": 0.4199720126,
				"element": "C" 
			},
			{
				"x": -3.7637773596,
				"y": -0.1415508604,
				"z": 0.3906154665,
				"element": "N" 
			},
			{
				"x": -3.5169043299,
				"y": 1.0551961947,
				"z": -0.4413360552,
				"element": "C" 
			},
			{
				"x": -2.2710366822,
				"y": 1.8244066521,
				"z": 0.0249532944,
				"element": "C" 
			},
			{
				"x": -1.2244633848,
				"y": 0.9076561912,
				"z": 0.4712179124,
				"element": "N" 
			},
			{
				"x": -1.5998417341,
				"y": -0.0515823956,
				"z": 1.5175393305,
				"element": "C" 
			},
			{
				"x": -3.1227895774,
				"y": -0.0521193316,
				"z": 1.6978530969,
				"element": "C" 
			},
			{
				"x": 0.0394470875,
				"y": 1.0339359756,
				"z": -0.0373155939,
				"element": "C" 
			},
			{
				"x": 0.3533535898,
				"y": 1.8754168218,
				"z": -0.8691975974,
				"element": "O" 
			},
			{
				"x": 1.0705582654,
				"y": 0.0174631408,
				"z": 0.4922915836,
				"element": "C" 
			},
			{
				"x": 2.4118923606,
				"y": 0.3258065549,
				"z": 0.0443646305,
				"element": "N" 
			},
			{
				"x": 3.2793989211,
				"y": 0.9659374365,
				"z": 0.9205697513,
				"element": "C" 
			},
			{
				"x": 3.0330057725,
				"y": 1.2700918238,
				"z": 2.0675485343,
				"element": "O" 
			},
			{
				"x": 4.8578124627,
				"y": 1.2434456947,
				"z": 0.0803074058,
				"element": "S" 
			},
			{
				"x": 4.2368082469,
				"y": 0.5101342664,
				"z": -1.3982010292,
				"element": "C" 
			},
			{
				"x": 4.8957147659,
				"y": 0.3262544355,
				"z": -2.6093969164,
				"element": "C" 
			},
			{
				"x": 4.2226107961,
				"y": -0.2838658513,
				"z": -3.66964781,
				"element": "C" 
			},
			{
				"x": 2.8985098977,
				"y": -0.6911250574,
				"z": -3.4954750886,
				"element": "C" 
			},
			{
				"x": 2.0528892644,
				"y": -1.4503397855,
				"z": -4.8362054011,
				"element": "Cl" 
			},
			{
				"x": 2.2166708349,
				"y": -0.5116547561,
				"z": -2.2925071599,
				"element": "C" 
			},
			{
				"x": 2.9031875733,
				"y": 0.0904466416,
				"z": -1.2383874699,
				"element": "C" 
			},
			{
				"x": -3.815082539,
				"y": -1.9159092266,
				"z": -0.961957003,
				"element": "H" 
			},
			{
				"x": -6.5792093923,
				"y": -1.5797653553,
				"z": -0.8526198482,
				"element": "H" 
			},
			{
				"x": -5.5872405527,
				"y": -0.3931283904,
				"z": -1.7083558891,
				"element": "H" 
			},
			{
				"x": -5.8466348616,
				"y": 0.2950789994,
				"z": 0.6681374638,
				"element": "H" 
			},
			{
				"x": -5.2855473582,
				"y": -1.3071514357,
				"z": 1.1982564583,
				"element": "H" 
			},
			{
				"x": -3.3934982926,
				"y": 0.7440302404,
				"z": -1.4846235354,
				"element": "H" 
			},
			{
				"x": -4.3765171109,
				"y": 1.7467082446,
				"z": -0.4078023574,
				"element": "H" 
			},
			{
				"x": -2.5283618906,
				"y": 2.510409036,
				"z": 0.8419711548,
				"element": "H" 
			},
			{
				"x": -1.8561731708,
				"y": 2.4225399334,
				"z": -0.7859290355,
				"element": "H" 
			},
			{
				"x": -1.1169946124,
				"y": 0.1903490163,
				"z": 2.4749889489,
				"element": "H" 
			},
			{
				"x": -1.2873979625,
				"y": -1.0602375783,
				"z": 1.2243205822,
				"element": "H" 
			},
			{
				"x": -3.4424568921,
				"y": 0.8314832824,
				"z": 2.2790485386,
				"element": "H" 
			},
			{
				"x": -3.3973122803,
				"y": -0.9307633436,
				"z": 2.288607918,
				"element": "H" 
			},
			{
				"x": 1.0977807298,
				"y": 0.0285080483,
				"z": 1.5844715521,
				"element": "H" 
			},
			{
				"x": 0.8013874909,
				"y": -0.9963980486,
				"z": 0.1730417616,
				"element": "H" 
			},
			{
				"x": 5.9235308526,
				"y": 0.6511624,
				"z": -2.733849583,
				"element": "H" 
			},
			{
				"x": 4.7170792119,
				"y": -0.4375994708,
				"z": -4.6214204884,
				"element": "H" 
			},
			{
				"x": 1.1813212653,
				"y": -0.8132284085,
				"z": -2.2001632956,
				"element": "H" 
			}
		],
		 "valence_orbital": [ 
			{
				"type": "occ",
				"energy": -0.2654,
				"method": "rhf"
			},
			{
				"type": "occ",
				"energy": -0.25693,
				"method": "rhf"
			},
			{
				"type": "occ",
				"energy": -0.24501,
				"method": "rhf"
			},
			{
				"type": "occ",
				"energy": -0.23806,
				"method": "rhf"
			},
			{
				"type": "occ",
				"energy": -0.22204,
				"method": "rhf"
			},
			{
				"type": "unocc",
				"energy": -0.02378,
				"method": "rhf"
			},
			{
				"type": "unocc",
				"energy": -0.01497,
				"method": "rhf"
			},
			{
				"type": "unocc",
				"energy": 0.00079,
				"method": "rhf"
			},
			{
				"type": "unocc",
				"energy": 0.01125,
				"method": "rhf"
			},
			{
				"type": "unocc",
				"energy": 0.02103,
				"method": "rhf"
			}
		],
		"cosmo_sigma_profile": { 
			"-0.025": 0.0,
			"-0.024": 0.0,
			"-0.023": 0.0,
			"-0.022": 0.0,
			"-0.021": 0.0,
			"-0.02": 0.0,
			"-0.019": 0.0,
			"-0.018": 0.0,
			"-0.017": 0.0,
			"-0.016": 0.0,
			"-0.015": 0.0,
			"-0.014": 0.0,
			"-0.013": 0.0,
			"-0.012": 0.00504533961047,
			"-0.011": 0.412356038591,
			"-0.01": 1.31497986928,
			"-0.009": 4.61495490145,
			"-0.008": 8.48575843166,
			"-0.007": 10.3367122631,
			"-0.006": 14.355640834,
			"-0.005": 23.3352154321,
			"-0.004": 34.1738474336,
			"-0.003": 45.0390851798,
			"-0.002": 31.5017294547,
			"-0.001": 25.6038908704,
			"0.0": 21.5733471186,
			"0.001": 27.0905115707,
			"0.002": 27.326925675,
			"0.003": 21.5352129059,
			"0.004": 17.7441840911,
			"0.005": 10.2314366367,
			"0.006": 3.7155728176,
			"0.007": 4.72269170203,
			"0.008": 3.60740076003,
			"0.009": 4.03795120034,
			"0.01": 5.92771064471,
			"0.011": 7.33794861019,
			"0.012": 5.81266422171,
			"0.013": 5.82361215075,
			"0.014": 3.15725266423,
			"0.015": 2.41595293648,
			"0.016": 0.188948816613,
			"0.017": 0.0,
			"0.018": 0.0,
			"0.019": 0.0,
			"0.02": 0.0,
			"0.021": 0.0,
			"0.022": 0.0,
			"0.023": 0.0,
			"0.024": 0.0,
			"0.025": 0.0
		}
	}
}
