{
	 "smiles": "CNCC1=C(C=CC(Br)=C1)[N+]([O-])=O", 
	 "Tm": 303.15, 
	 "num_atms": 22, 
	 "gaussian": { 
		 "optdone": 1, 
		 "sigma_profile": "yes", 
		 "theory": "DFT", 
		 "functional": "B3LYP", 
		 "basiset": "6-31G**", 
		 "properties": { 
			 "R2extent": 4540.6922, 
			 "electric_dipole_moment_norm": 2.55535282104, 
			 "electric_quadrupole_moment_norm": 14.8093799148, 
			 "total_energy": -3141.51940128, 
			 "HOMO_LUMO_gap": 0.14891, 
			 "cosmo_polarized_energy": -8.51, 
			 "cosmo_cavitation_energy": 28.4, 
			 "cosmo_dispersion_energy": -20.98, 
			 "cosmo_repulsion_energy": 1.68, 
			 "cosmo_total_nonelectrostatic_energy": 9.11, 
			 "SMD_solvation_energy": 4.66 
		},
		"coords": [
			{
				"x": -1.4947075549,
				"y": 1.9344403269,
				"z": -1.2281096659,
				"element": "C" 
			},
			{
				"x": -0.2970563801,
				"y": 1.3208630804,
				"z": -1.7981503741,
				"element": "N" 
			},
			{
				"x": 0.7496225354,
				"y": 1.0455653583,
				"z": -0.8196380143,
				"element": "C" 
			},
			{
				"x": 0.5693784085,
				"y": -0.3103558986,
				"z": -0.1383875319,
				"element": "C" 
			},
			{
				"x": 1.2361105728,
				"y": -0.7194076753,
				"z": 1.0338480868,
				"element": "C" 
			},
			{
				"x": 1.0037155084,
				"y": -1.96338272,
				"z": 1.6273393235,
				"element": "C" 
			},
			{
				"x": 0.1096006763,
				"y": -2.8554991541,
				"z": 1.0521891142,
				"element": "C" 
			},
			{
				"x": -0.5468021803,
				"y": -2.4709869671,
				"z": -0.1171747258,
				"element": "C" 
			},
			{
				"x": -1.7734874422,
				"y": -3.6797050824,
				"z": -0.9353267464,
				"element": "Br" 
			},
			{
				"x": -0.3298677181,
				"y": -1.2259601921,
				"z": -0.6990160071,
				"element": "C" 
			},
			{
				"x": 2.2333958509,
				"y": 0.1326473339,
				"z": 1.6958935781,
				"element": "N" 
			},
			{
				"x": 2.7340976488,
				"y": 1.0531640984,
				"z": 1.0447567014,
				"element": "O" 
			},
			{
				"x": 2.5282052917,
				"y": -0.1273080951,
				"z": 2.862429532,
				"element": "O" 
			},
			{
				"x": -1.2932460156,
				"y": 2.8531264345,
				"z": -0.6501978609,
				"element": "H" 
			},
			{
				"x": -2.1978173161,
				"y": 2.1768039915,
				"z": -2.0300160235,
				"element": "H" 
			},
			{
				"x": -1.9909938387,
				"y": 1.2247697816,
				"z": -0.557725209,
				"element": "H" 
			},
			{
				"x": 0.0800064979,
				"y": 1.9181305981,
				"z": -2.5255438916,
				"element": "H" 
			},
			{
				"x": 0.8248489129,
				"y": 1.8269784497,
				"z": -0.0491371557,
				"element": "H" 
			},
			{
				"x": 1.7204336608,
				"y": 1.0442664989,
				"z": -1.3256556023,
				"element": "H" 
			},
			{
				"x": 1.5373448302,
				"y": -2.2123437407,
				"z": 2.5358739084,
				"element": "H" 
			},
			{
				"x": -0.0710615687,
				"y": -3.8261991215,
				"z": 1.4978180551,
				"element": "H" 
			},
			{
				"x": -0.8473203796,
				"y": -0.9297073051,
				"z": -1.6032694909,
				"element": "H" 
			}
		],
		 "valence_orbital": [ 
			{
				"type": "occ",
				"energy": -0.29995,
				"method": "rhf"
			},
			{
				"type": "occ",
				"energy": -0.29286,
				"method": "rhf"
			},
			{
				"type": "occ",
				"energy": -0.27588,
				"method": "rhf"
			},
			{
				"type": "occ",
				"energy": -0.26189,
				"method": "rhf"
			},
			{
				"type": "occ",
				"energy": -0.23937,
				"method": "rhf"
			},
			{
				"type": "unocc",
				"energy": -0.09046,
				"method": "rhf"
			},
			{
				"type": "unocc",
				"energy": -0.03042,
				"method": "rhf"
			},
			{
				"type": "unocc",
				"energy": -0.01014,
				"method": "rhf"
			},
			{
				"type": "unocc",
				"energy": -0.00377,
				"method": "rhf"
			},
			{
				"type": "unocc",
				"energy": 0.07319,
				"method": "rhf"
			}
		],
		"cosmo_sigma_profile": { 
			"-0.025": 0.0,
			"-0.024": 0.0,
			"-0.023": 0.0,
			"-0.022": 0.0,
			"-0.021": 0.0,
			"-0.02": 0.0,
			"-0.019": 0.0,
			"-0.018": 0.0,
			"-0.017": 0.0,
			"-0.016": 0.0,
			"-0.015": 0.0,
			"-0.014": 0.0,
			"-0.013": 0.0,
			"-0.012": 0.0,
			"-0.011": 0.786716998638,
			"-0.01": 1.82356002508,
			"-0.009": 1.07816780996,
			"-0.008": 4.258799713,
			"-0.007": 6.51939781215,
			"-0.006": 7.74552842256,
			"-0.005": 8.43182594846,
			"-0.004": 13.9329065547,
			"-0.003": 18.0812746453,
			"-0.002": 23.9747527791,
			"-0.001": 22.7887993372,
			"0.0": 26.8496447077,
			"0.001": 23.2702388495,
			"0.002": 11.5520191476,
			"0.003": 11.9505716749,
			"0.004": 12.9317042546,
			"0.005": 4.77207390545,
			"0.006": 4.36811588844,
			"0.007": 6.90370280582,
			"0.008": 7.42339744119,
			"0.009": 5.3637657507,
			"0.01": 3.20207999168,
			"0.011": 0.821481691551,
			"0.012": 0.297830638009,
			"0.013": 0.0246578137115,
			"0.014": 0.0,
			"0.015": 0.0,
			"0.016": 0.0,
			"0.017": 0.0,
			"0.018": 0.0,
			"0.019": 0.0,
			"0.02": 0.0,
			"0.021": 0.0,
			"0.022": 0.0,
			"0.023": 0.0,
			"0.024": 0.0,
			"0.025": 0.0
		}
	}
}
