{
	 "smiles": "CC1=CC=C(C)N1C1=CC=C(CN)C=C1", 
	 "Tm": 335.15, 
	 "num_atms": 31, 
	 "gaussian": { 
		 "optdone": 1, 
		 "sigma_profile": "yes", 
		 "theory": "DFT", 
		 "functional": "B3LYP", 
		 "basiset": "6-31G**", 
		 "properties": { 
			 "R2extent": 4353.8154, 
			 "electric_dipole_moment_norm": 3.54632511341, 
			 "electric_quadrupole_moment_norm": 12.8733708697, 
			 "total_energy": -614.52720148, 
			 "HOMO_LUMO_gap": 0.17191, 
			 "cosmo_polarized_energy": -9.09, 
			 "cosmo_cavitation_energy": 33.68, 
			 "cosmo_dispersion_energy": -23.49, 
			 "cosmo_repulsion_energy": 1.88, 
			 "cosmo_total_nonelectrostatic_energy": 12.07, 
			 "SMD_solvation_energy": 5.06 
		},
		"coords": [
			{
				"x": 1.7465331248,
				"y": 1.3354666984,
				"z": -1.0959749673,
				"element": "C" 
			},
			{
				"x": 1.3334046878,
				"y": -0.0962023319,
				"z": -0.9664529953,
				"element": "C" 
			},
			{
				"x": 1.9573634484,
				"y": -1.2435103407,
				"z": -1.4032934564,
				"element": "C" 
			},
			{
				"x": 1.1287929328,
				"y": -2.3517827831,
				"z": -1.0651304917,
				"element": "C" 
			},
			{
				"x": 0.0062092357,
				"y": -1.8667897077,
				"z": -0.4318229566,
				"element": "C" 
			},
			{
				"x": -1.15858799,
				"y": -2.5956893025,
				"z": 0.1590680058,
				"element": "C" 
			},
			{
				"x": 0.1332339176,
				"y": -0.4800733439,
				"z": -0.3704944087,
				"element": "N" 
			},
			{
				"x": -0.8190554405,
				"y": 0.4093536463,
				"z": 0.2130620474,
				"element": "C" 
			},
			{
				"x": -2.044986824,
				"y": 0.6428518332,
				"z": -0.4184786633,
				"element": "C" 
			},
			{
				"x": -2.9708914845,
				"y": 1.5128844083,
				"z": 0.1562016829,
				"element": "C" 
			},
			{
				"x": -2.6944133176,
				"y": 2.1667849894,
				"z": 1.3627721596,
				"element": "C" 
			},
			{
				"x": -3.7256765743,
				"y": 3.0824970613,
				"z": 1.9966749812,
				"element": "C" 
			},
			{
				"x": -3.0988001137,
				"y": 4.1872024858,
				"z": 2.7271660709,
				"element": "N" 
			},
			{
				"x": -1.4601619262,
				"y": 1.9338223917,
				"z": 1.9832993255,
				"element": "C" 
			},
			{
				"x": -0.5325996518,
				"y": 1.0600113036,
				"z": 1.4185675933,
				"element": "C" 
			},
			{
				"x": 1.9173817133,
				"y": 1.8204435413,
				"z": -0.1272003756,
				"element": "H" 
			},
			{
				"x": 0.9973074038,
				"y": 1.936897465,
				"z": -1.6257028862,
				"element": "H" 
			},
			{
				"x": 2.6794849571,
				"y": 1.3898495424,
				"z": -1.662641401,
				"element": "H" 
			},
			{
				"x": 2.9082277224,
				"y": -1.2756488222,
				"z": -1.9181563484,
				"element": "H" 
			},
			{
				"x": 1.3310995719,
				"y": -3.3971723637,
				"z": -1.2561474375,
				"element": "H" 
			},
			{
				"x": -0.9969114473,
				"y": -3.67188766,
				"z": 0.058462621,
				"element": "H" 
			},
			{
				"x": -1.2881010129,
				"y": -2.3745474288,
				"z": 1.2257513267,
				"element": "H" 
			},
			{
				"x": -2.1084863155,
				"y": -2.355072231,
				"z": -0.3337598748,
				"element": "H" 
			},
			{
				"x": -2.256693664,
				"y": 0.1540656251,
				"z": -1.3643906545,
				"element": "H" 
			},
			{
				"x": -3.9177854073,
				"y": 1.6935449747,
				"z": -0.3474203164,
				"element": "H" 
			},
			{
				"x": -4.3124626979,
				"y": 2.5059248638,
				"z": 2.7254590216,
				"element": "H" 
			},
			{
				"x": -4.4394148759,
				"y": 3.3990057171,
				"z": 1.2161455698,
				"element": "H" 
			},
			{
				"x": -3.8061589126,
				"y": 4.7239722265,
				"z": 3.2214031927,
				"element": "H" 
			},
			{
				"x": -2.6477045508,
				"y": 4.8233057655,
				"z": 2.0738941984,
				"element": "H" 
			},
			{
				"x": -1.2390823827,
				"y": 2.4487067077,
				"z": 2.9124430487,
				"element": "H" 
			},
			{
				"x": 0.4162358737,
				"y": 0.8682850683,
				"z": 1.9103963884,
				"element": "H" 
			}
		],
		 "valence_orbital": [ 
			{
				"type": "occ",
				"energy": -0.25431,
				"method": "rhf"
			},
			{
				"type": "occ",
				"energy": -0.25373,
				"method": "rhf"
			},
			{
				"type": "occ",
				"energy": -0.24014,
				"method": "rhf"
			},
			{
				"type": "occ",
				"energy": -0.21655,
				"method": "rhf"
			},
			{
				"type": "occ",
				"energy": -0.1817,
				"method": "rhf"
			},
			{
				"type": "unocc",
				"energy": -0.00979,
				"method": "rhf"
			},
			{
				"type": "unocc",
				"energy": -0.00652,
				"method": "rhf"
			},
			{
				"type": "unocc",
				"energy": 0.05284,
				"method": "rhf"
			},
			{
				"type": "unocc",
				"energy": 0.0817,
				"method": "rhf"
			},
			{
				"type": "unocc",
				"energy": 0.09756,
				"method": "rhf"
			}
		],
		"cosmo_sigma_profile": { 
			"-0.025": 0.0,
			"-0.024": 0.0,
			"-0.023": 0.0,
			"-0.022": 0.0,
			"-0.021": 0.0,
			"-0.02": 0.0,
			"-0.019": 0.0,
			"-0.018": 0.0,
			"-0.017": 0.0,
			"-0.016": 0.0,
			"-0.015": 0.0,
			"-0.014": 0.0,
			"-0.013": 0.0,
			"-0.012": 0.0,
			"-0.011": 0.00480004967451,
			"-0.01": 1.53375968814,
			"-0.009": 2.97004766291,
			"-0.008": 2.8718153529,
			"-0.007": 2.42774928288,
			"-0.006": 6.50484012575,
			"-0.005": 11.0460575172,
			"-0.004": 24.5620932197,
			"-0.003": 28.5042727253,
			"-0.002": 29.6378784949,
			"-0.001": 24.2423947923,
			"0.0": 27.6155603941,
			"0.001": 21.5203437198,
			"0.002": 14.9188592528,
			"0.003": 13.3177834362,
			"0.004": 13.3495340818,
			"0.005": 12.4493259645,
			"0.006": 6.29457986498,
			"0.007": 4.52426940441,
			"0.008": 5.27614249926,
			"0.009": 5.05951819473,
			"0.01": 3.14594151663,
			"0.011": 0.481617020894,
			"0.012": 0.366039576551,
			"0.013": 0.600691710738,
			"0.014": 0.70942215157,
			"0.015": 0.546694294344,
			"0.016": 0.606561329056,
			"0.017": 0.129704122872,
			"0.018": 0.0,
			"0.019": 0.0,
			"0.02": 0.0,
			"0.021": 0.0,
			"0.022": 0.0,
			"0.023": 0.0,
			"0.024": 0.0,
			"0.025": 0.0
		}
	}
}
