{
	 "smiles": "CC(C)(C)OC(=O)N1CCN(CC1C(O)=O)C(=O)OCC1C2=C(C=CC=C2)C2=C1C=CC=C2", 
	 "Tm": 430.15, 
	 "num_atms": 61, 
	 "gaussian": { 
		 "optdone": 1, 
		 "sigma_profile": "yes", 
		 "theory": "DFT", 
		 "functional": "B3LYP", 
		 "basiset": "6-31G**", 
		 "properties": { 
			 "R2extent": 24097.2677, 
			 "electric_dipole_moment_norm": 4.94193237509, 
			 "electric_quadrupole_moment_norm": 23.8828473434, 
			 "total_energy": -1530.46764104, 
			 "HOMO_LUMO_gap": 0.18439, 
			 "cosmo_polarized_energy": -23.15, 
			 "cosmo_cavitation_energy": 62.96, 
			 "cosmo_dispersion_energy": -41.67, 
			 "cosmo_repulsion_energy": 3.12, 
			 "cosmo_total_nonelectrostatic_energy": 24.42, 
			 "SMD_solvation_energy": 12.05 
		},
		"coords": [
			{
				"x": 0.7305292064,
				"y": -3.5811061189,
				"z": -4.867204646,
				"element": "C" 
			},
			{
				"x": 1.7782618814,
				"y": -3.5074142946,
				"z": -3.7519257456,
				"element": "C" 
			},
			{
				"x": 1.7328237469,
				"y": -4.7642699094,
				"z": -2.8791695862,
				"element": "C" 
			},
			{
				"x": 3.191923188,
				"y": -3.2720420934,
				"z": -4.2933747087,
				"element": "C" 
			},
			{
				"x": 1.4227278855,
				"y": -2.443744921,
				"z": -2.7943300375,
				"element": "O" 
			},
			{
				"x": 1.3490420123,
				"y": -1.1541820418,
				"z": -3.1870340291,
				"element": "C" 
			},
			{
				"x": 1.5648780179,
				"y": -0.7364620914,
				"z": -4.3154588257,
				"element": "O" 
			},
			{
				"x": 0.9635161358,
				"y": -0.3369233487,
				"z": -2.1445800441,
				"element": "N" 
			},
			{
				"x": 0.8526272829,
				"y": -0.7765236792,
				"z": -0.7530507612,
				"element": "C" 
			},
			{
				"x": -0.3318891839,
				"y": -0.0845532397,
				"z": -0.0754455526,
				"element": "C" 
			},
			{
				"x": -0.2417836023,
				"y": 1.3618933223,
				"z": -0.2634715717,
				"element": "N" 
			},
			{
				"x": -0.1746184142,
				"y": 1.7916733659,
				"z": -1.6572349266,
				"element": "C" 
			},
			{
				"x": 0.9953816237,
				"y": 1.1004535276,
				"z": -2.3722092105,
				"element": "C" 
			},
			{
				"x": 2.3251842735,
				"y": 1.7732777833,
				"z": -1.9995853429,
				"element": "C" 
			},
			{
				"x": 3.319033838,
				"y": 0.8948422898,
				"z": -1.7405946473,
				"element": "O" 
			},
			{
				"x": 2.4818177357,
				"y": 2.9724159309,
				"z": -1.9764912329,
				"element": "O" 
			},
			{
				"x": -0.6169542654,
				"y": 2.2867226431,
				"z": 0.6819452377,
				"element": "C" 
			},
			{
				"x": -0.7854759433,
				"y": 3.473053446,
				"z": 0.4653365307,
				"element": "O" 
			},
			{
				"x": -0.7606779361,
				"y": 1.7181796819,
				"z": 1.911408807,
				"element": "O" 
			},
			{
				"x": -1.1555176312,
				"y": 2.6334626997,
				"z": 2.9545497935,
				"element": "C" 
			},
			{
				"x": -1.1915005373,
				"y": 1.8529872378,
				"z": 4.2712252959,
				"element": "C" 
			},
			{
				"x": -1.7994606762,
				"y": 2.673292817,
				"z": 5.4005022926,
				"element": "C" 
			},
			{
				"x": -0.8950765565,
				"y": 2.7691131137,
				"z": 6.4776628763,
				"element": "C" 
			},
			{
				"x": -1.2429847973,
				"y": 3.473457114,
				"z": 7.63215558,
				"element": "C" 
			},
			{
				"x": -2.498493375,
				"y": 4.0819890005,
				"z": 7.698488011,
				"element": "C" 
			},
			{
				"x": -3.3954883626,
				"y": 3.9866660919,
				"z": 6.6292632082,
				"element": "C" 
			},
			{
				"x": -3.0494677252,
				"y": 3.2785526429,
				"z": 5.472235115,
				"element": "C" 
			},
			{
				"x": 0.3292064436,
				"y": 2.0370039285,
				"z": 6.1275736989,
				"element": "C" 
			},
			{
				"x": 0.1764396999,
				"y": 1.4929049433,
				"z": 4.8347245766,
				"element": "C" 
			},
			{
				"x": 1.2025232558,
				"y": 0.7498326161,
				"z": 4.2600058056,
				"element": "C" 
			},
			{
				"x": 2.3843388393,
				"y": 0.5504970764,
				"z": 4.9834744789,
				"element": "C" 
			},
			{
				"x": 2.5340105596,
				"y": 1.0872889628,
				"z": 6.2665155671,
				"element": "C" 
			},
			{
				"x": 1.5078232789,
				"y": 1.8346324903,
				"z": 6.8484954504,
				"element": "C" 
			},
			{
				"x": 0.7467156492,
				"y": -2.6794137726,
				"z": -5.4794548686,
				"element": "H" 
			},
			{
				"x": 0.9361846143,
				"y": -4.4464560539,
				"z": -5.5055756436,
				"element": "H" 
			},
			{
				"x": -0.2703283188,
				"y": -3.7047553911,
				"z": -4.4412944962,
				"element": "H" 
			},
			{
				"x": 1.9852624088,
				"y": -5.6448831548,
				"z": -3.4770577691,
				"element": "H" 
			},
			{
				"x": 0.7333116163,
				"y": -4.9077886752,
				"z": -2.4580961988,
				"element": "H" 
			},
			{
				"x": 2.448324001,
				"y": -4.6890324864,
				"z": -2.055118075,
				"element": "H" 
			},
			{
				"x": 3.9042567771,
				"y": -3.1803069279,
				"z": -3.4674088705,
				"element": "H" 
			},
			{
				"x": 3.4939734377,
				"y": -4.1250388246,
				"z": -4.9096760388,
				"element": "H" 
			},
			{
				"x": 3.2333292891,
				"y": -2.3665879176,
				"z": -4.8987318628,
				"element": "H" 
			},
			{
				"x": 0.7112589021,
				"y": -1.8556123854,
				"z": -0.7395246049,
				"element": "H" 
			},
			{
				"x": 1.7788507422,
				"y": -0.5406145564,
				"z": -0.2118341464,
				"element": "H" 
			},
			{
				"x": -0.3371029165,
				"y": -0.311070654,
				"z": 0.9892323904,
				"element": "H" 
			},
			{
				"x": -1.2710038956,
				"y": -0.4577516012,
				"z": -0.5131796788,
				"element": "H" 
			},
			{
				"x": -1.1063309811,
				"y": 1.5310560564,
				"z": -2.1796954487,
				"element": "H" 
			},
			{
				"x": -0.0436459672,
				"y": 2.8719825098,
				"z": -1.6812394597,
				"element": "H" 
			},
			{
				"x": 0.8903610633,
				"y": 1.2547955028,
				"z": -3.4500139539,
				"element": "H" 
			},
			{
				"x": 4.109986103,
				"y": 1.4325060899,
				"z": -1.5646008103,
				"element": "H" 
			},
			{
				"x": -2.1418203465,
				"y": 3.0404742362,
				"z": 2.7116432767,
				"element": "H" 
			},
			{
				"x": -0.4494744239,
				"y": 3.4663124879,
				"z": 3.0015580342,
				"element": "H" 
			},
			{
				"x": -1.7866019685,
				"y": 0.9444445686,
				"z": 4.0984263792,
				"element": "H" 
			},
			{
				"x": -0.5518664635,
				"y": 3.5504543022,
				"z": 8.4669368045,
				"element": "H" 
			},
			{
				"x": -2.7820115796,
				"y": 4.6344300774,
				"z": 8.5897985922,
				"element": "H" 
			},
			{
				"x": -4.3683456129,
				"y": 4.4646309248,
				"z": 6.6974270831,
				"element": "H" 
			},
			{
				"x": -3.7545945595,
				"y": 3.2055370888,
				"z": 4.6480936486,
				"element": "H" 
			},
			{
				"x": 1.0926496143,
				"y": 0.3372073455,
				"z": 3.2625293823,
				"element": "H" 
			},
			{
				"x": 3.1929970619,
				"y": -0.0268192723,
				"z": 4.544322143,
				"element": "H" 
			},
			{
				"x": 3.4569822231,
				"y": 0.9215953667,
				"z": 6.8149495825,
				"element": "H" 
			},
			{
				"x": 1.6292836313,
				"y": 2.2503341288,
				"z": 7.8449831525,
				"element": "H" 
			}
		],
		 "valence_orbital": [ 
			{
				"type": "occ",
				"energy": -0.25488,
				"method": "rhf"
			},
			{
				"type": "occ",
				"energy": -0.25205,
				"method": "rhf"
			},
			{
				"type": "occ",
				"energy": -0.24619,
				"method": "rhf"
			},
			{
				"type": "occ",
				"energy": -0.23912,
				"method": "rhf"
			},
			{
				"type": "occ",
				"energy": -0.21704,
				"method": "rhf"
			},
			{
				"type": "unocc",
				"energy": -0.03265,
				"method": "rhf"
			},
			{
				"type": "unocc",
				"energy": -0.01401,
				"method": "rhf"
			},
			{
				"type": "unocc",
				"energy": 0.00207,
				"method": "rhf"
			},
			{
				"type": "unocc",
				"energy": 0.00589,
				"method": "rhf"
			},
			{
				"type": "unocc",
				"energy": 0.03848,
				"method": "rhf"
			}
		],
		"cosmo_sigma_profile": { 
			"-0.025": 0.0,
			"-0.024": 0.0,
			"-0.023": 0.0,
			"-0.022": 0.0,
			"-0.021": 0.0,
			"-0.02": 0.0,
			"-0.019": 0.240958586328,
			"-0.018": 0.924722766351,
			"-0.017": 1.08529347983,
			"-0.016": 0.630403626995,
			"-0.015": 1.08814401166,
			"-0.014": 0.459686358598,
			"-0.013": 0.854249120349,
			"-0.012": 0.766554112737,
			"-0.011": 0.630830702025,
			"-0.01": 0.575699723669,
			"-0.009": 0.288095058962,
			"-0.008": 1.99685506741,
			"-0.007": 3.80420030438,
			"-0.006": 18.4590120514,
			"-0.005": 38.4055507077,
			"-0.004": 49.571740644,
			"-0.003": 48.8361995281,
			"-0.002": 40.7607522579,
			"-0.001": 39.8925848115,
			"0.0": 45.2403826548,
			"0.001": 39.9351943134,
			"0.002": 26.287417872,
			"0.003": 26.1554576366,
			"0.004": 27.9003543889,
			"0.005": 25.3381240658,
			"0.006": 16.8169753451,
			"0.007": 5.29763486471,
			"0.008": 4.19415331091,
			"0.009": 4.16034732786,
			"0.01": 5.32538726536,
			"0.011": 8.00798830555,
			"0.012": 6.64856147463,
			"0.013": 6.14419092668,
			"0.014": 0.0640530417122,
			"0.015": 0.0,
			"0.016": 0.0,
			"0.017": 0.0,
			"0.018": 0.0,
			"0.019": 0.0,
			"0.02": 0.0,
			"0.021": 0.0,
			"0.022": 0.0,
			"0.023": 0.0,
			"0.024": 0.0,
			"0.025": 0.0
		}
	}
}
