{
	 "smiles": "CC(C)(C)C(=O)NC1=NC=CC=C1C=O", 
	 "Tm": 362.15, 
	 "num_atms": 29, 
	 "gaussian": { 
		 "optdone": 1, 
		 "sigma_profile": "yes", 
		 "theory": "DFT", 
		 "functional": "B3LYP", 
		 "basiset": "6-31G**", 
		 "properties": { 
			 "R2extent": 3735.6076, 
			 "electric_dipole_moment_norm": 3.48455136854, 
			 "electric_quadrupole_moment_norm": 10.9006102971, 
			 "total_energy": -687.565154902, 
			 "HOMO_LUMO_gap": 0.16463, 
			 "cosmo_polarized_energy": -12.6, 
			 "cosmo_cavitation_energy": 31.76, 
			 "cosmo_dispersion_energy": -22.21, 
			 "cosmo_repulsion_energy": 1.72, 
			 "cosmo_total_nonelectrostatic_energy": 11.27, 
			 "SMD_solvation_energy": 7.3 
		},
		"coords": [
			{
				"x": -1.288529335,
				"y": -3.2862730171,
				"z": -0.9131778779,
				"element": "C" 
			},
			{
				"x": -0.3316486306,
				"y": -2.1013002313,
				"z": -0.6582926443,
				"element": "C" 
			},
			{
				"x": 0.7101097437,
				"y": -2.529766215,
				"z": 0.3947744736,
				"element": "C" 
			},
			{
				"x": 0.3498072581,
				"y": -1.7224189303,
				"z": -1.9954313049,
				"element": "C" 
			},
			{
				"x": -1.2065418593,
				"y": -0.9223269761,
				"z": -0.1840876977,
				"element": "C" 
			},
			{
				"x": -2.4043252147,
				"y": -0.8843065985,
				"z": -0.4189851154,
				"element": "O" 
			},
			{
				"x": -0.7263309553,
				"y": 0.1337181483,
				"z": 0.6257466897,
				"element": "N" 
			},
			{
				"x": 0.5049041538,
				"y": 0.745005971,
				"z": 0.8687964923,
				"element": "C" 
			},
			{
				"x": 1.5090513639,
				"y": 0.5332817925,
				"z": 0.0109546668,
				"element": "N" 
			},
			{
				"x": 2.6610699382,
				"y": 1.1824349799,
				"z": 0.2017682706,
				"element": "C" 
			},
			{
				"x": 2.8794532766,
				"y": 2.1032893456,
				"z": 1.2280789511,
				"element": "C" 
			},
			{
				"x": 1.8453570081,
				"y": 2.3098119631,
				"z": 2.1308881524,
				"element": "C" 
			},
			{
				"x": 0.6388664681,
				"y": 1.6142109626,
				"z": 1.9862249683,
				"element": "C" 
			},
			{
				"x": -0.3980062062,
				"y": 1.7855782987,
				"z": 3.0297587893,
				"element": "C" 
			},
			{
				"x": -0.3087143565,
				"y": 2.5905493017,
				"z": 3.9393889587,
				"element": "O" 
			},
			{
				"x": -1.7921193426,
				"y": -3.5978392021,
				"z": 0.007144749,
				"element": "H" 
			},
			{
				"x": -2.0583803269,
				"y": -3.0249496167,
				"z": -1.6405688891,
				"element": "H" 
			},
			{
				"x": -0.7142737864,
				"y": -4.1368638039,
				"z": -1.2942597799,
				"element": "H" 
			},
			{
				"x": 1.4831614993,
				"y": -1.7772138724,
				"z": 0.546973286,
				"element": "H" 
			},
			{
				"x": 1.2024219538,
				"y": -3.4468394078,
				"z": 0.0547267489,
				"element": "H" 
			},
			{
				"x": 0.2346086276,
				"y": -2.7489492342,
				"z": 1.3570014187,
				"element": "H" 
			},
			{
				"x": -0.4012450818,
				"y": -1.4626652001,
				"z": -2.7485377111,
				"element": "H" 
			},
			{
				"x": 0.9151089728,
				"y": -2.5842632288,
				"z": -2.3667318498,
				"element": "H" 
			},
			{
				"x": 1.0325867758,
				"y": -0.8819319433,
				"z": -1.8683567839,
				"element": "H" 
			},
			{
				"x": -1.5331811602,
				"y": 0.6619001581,
				"z": 0.9349792351,
				"element": "H" 
			},
			{
				"x": 3.4479696431,
				"y": 0.9609788334,
				"z": -0.5169299581,
				"element": "H" 
			},
			{
				"x": 3.8284009665,
				"y": 2.6204045941,
				"z": 1.3162975524,
				"element": "H" 
			},
			{
				"x": 1.9402525423,
				"y": 2.9849595058,
				"z": 2.9757979526,
				"element": "H" 
			},
			{
				"x": -1.2770339361,
				"y": 1.1121836231,
				"z": 2.9672582565,
				"element": "H" 
			}
		],
		 "valence_orbital": [ 
			{
				"type": "occ",
				"energy": -0.30279,
				"method": "rhf"
			},
			{
				"type": "occ",
				"energy": -0.28863,
				"method": "rhf"
			},
			{
				"type": "occ",
				"energy": -0.26766,
				"method": "rhf"
			},
			{
				"type": "occ",
				"energy": -0.26166,
				"method": "rhf"
			},
			{
				"type": "occ",
				"energy": -0.24873,
				"method": "rhf"
			},
			{
				"type": "unocc",
				"energy": -0.0841,
				"method": "rhf"
			},
			{
				"type": "unocc",
				"energy": -0.04415,
				"method": "rhf"
			},
			{
				"type": "unocc",
				"energy": 0.01317,
				"method": "rhf"
			},
			{
				"type": "unocc",
				"energy": 0.01835,
				"method": "rhf"
			},
			{
				"type": "unocc",
				"energy": 0.0796,
				"method": "rhf"
			}
		],
		"cosmo_sigma_profile": { 
			"-0.025": 0.0,
			"-0.024": 0.0,
			"-0.023": 0.0,
			"-0.022": 0.0,
			"-0.021": 0.0,
			"-0.02": 0.0,
			"-0.019": 0.0,
			"-0.018": 0.0,
			"-0.017": 0.0,
			"-0.016": 0.114830746981,
			"-0.015": 0.991225699356,
			"-0.014": 1.16865933775,
			"-0.013": 0.779255189202,
			"-0.012": 1.18070171361,
			"-0.011": 1.75028378916,
			"-0.01": 0.555697896702,
			"-0.009": 1.46840895989,
			"-0.008": 2.82577553239,
			"-0.007": 8.29812590303,
			"-0.006": 9.601758945,
			"-0.005": 7.79958443783,
			"-0.004": 10.552981928,
			"-0.003": 22.740126355,
			"-0.002": 22.180270984,
			"-0.001": 30.2683327287,
			"0.0": 31.7556790583,
			"0.001": 32.537480153,
			"0.002": 13.7955366439,
			"0.003": 5.9294668095,
			"0.004": 6.01074541964,
			"0.005": 4.99506877416,
			"0.006": 3.60040621646,
			"0.007": 2.92537915241,
			"0.008": 4.30921609324,
			"0.009": 3.2576155106,
			"0.01": 4.00717382839,
			"0.011": 6.82530701574,
			"0.012": 6.26583334738,
			"0.013": 2.69650946967,
			"0.014": 0.0,
			"0.015": 0.0,
			"0.016": 0.0,
			"0.017": 0.0,
			"0.018": 0.0,
			"0.019": 0.0,
			"0.02": 0.0,
			"0.021": 0.0,
			"0.022": 0.0,
			"0.023": 0.0,
			"0.024": 0.0,
			"0.025": 0.0
		}
	}
}
