{
	 "smiles": "NC(CC1=CNC2=C1C=C(F)C=C2)C(O)=O", 
	 "Tm": 511.15, 
	 "num_atms": 27, 
	 "gaussian": { 
		 "optdone": 1, 
		 "sigma_profile": "yes", 
		 "theory": "DFT", 
		 "functional": "B3LYP", 
		 "basiset": "6-31G**", 
		 "properties": { 
			 "R2extent": 4271.3677, 
			 "electric_dipole_moment_norm": 5.18230798101, 
			 "electric_quadrupole_moment_norm": 23.8347505779, 
			 "total_energy": -785.597955164, 
			 "HOMO_LUMO_gap": 0.1907, 
			 "cosmo_polarized_energy": -19.66, 
			 "cosmo_cavitation_energy": 31.37, 
			 "cosmo_dispersion_energy": -22.16, 
			 "cosmo_repulsion_energy": 1.7, 
			 "cosmo_total_nonelectrostatic_energy": 10.91, 
			 "SMD_solvation_energy": 5.32 
		},
		"coords": [
			{
				"x": 3.5563394882,
				"y": -1.5586505974,
				"z": -1.6679002225,
				"element": "N" 
			},
			{
				"x": 2.2600021359,
				"y": -1.6216526987,
				"z": -1.0063785799,
				"element": "C" 
			},
			{
				"x": 1.3161463864,
				"y": -0.5411521748,
				"z": -1.609641631,
				"element": "C" 
			},
			{
				"x": 0.1418955701,
				"y": -0.1516074446,
				"z": -0.7548495227,
				"element": "C" 
			},
			{
				"x": -1.191126663,
				"y": -0.4184012544,
				"z": -0.9910560691,
				"element": "C" 
			},
			{
				"x": -1.9710608869,
				"y": 0.1465130153,
				"z": -0.0051207185,
				"element": "N" 
			},
			{
				"x": -1.1564196799,
				"y": 0.7977645072,
				"z": 0.9026003361,
				"element": "C" 
			},
			{
				"x": 0.1838113334,
				"y": 0.6335200547,
				"z": 0.4584500449,
				"element": "C" 
			},
			{
				"x": 1.2302067797,
				"y": 1.2186116874,
				"z": 1.1955060686,
				"element": "C" 
			},
			{
				"x": 0.8905329299,
				"y": 1.9245552461,
				"z": 2.3344643376,
				"element": "C" 
			},
			{
				"x": 1.8727500042,
				"y": 2.4997176922,
				"z": 3.0652066997,
				"element": "F" 
			},
			{
				"x": -0.432344143,
				"y": 2.0803666572,
				"z": 2.7802037021,
				"element": "C" 
			},
			{
				"x": -1.4769570996,
				"y": 1.5142438951,
				"z": 2.060545643,
				"element": "C" 
			},
			{
				"x": 1.6350156116,
				"y": -3.0325865253,
				"z": -1.0520466583,
				"element": "C" 
			},
			{
				"x": 0.4246699951,
				"y": -3.1737837993,
				"z": -0.4633065987,
				"element": "O" 
			},
			{
				"x": 2.1849554447,
				"y": -3.9794077643,
				"z": -1.5632377252,
				"element": "O" 
			},
			{
				"x": 4.1541016836,
				"y": -2.281990816,
				"z": -1.2728346316,
				"element": "H" 
			},
			{
				"x": 3.434787022,
				"y": -1.8442165282,
				"z": -2.6391510417,
				"element": "H" 
			},
			{
				"x": 2.4110932386,
				"y": -1.3786335813,
				"z": 0.0547455058,
				"element": "H" 
			},
			{
				"x": 0.9672640782,
				"y": -0.8768447701,
				"z": -2.5941098556,
				"element": "H" 
			},
			{
				"x": 1.9488679528,
				"y": 0.3354466326,
				"z": -1.786653685,
				"element": "H" 
			},
			{
				"x": -1.6440030026,
				"y": -0.9633955499,
				"z": -1.8079942811,
				"element": "H" 
			},
			{
				"x": -2.9740295342,
				"y": 0.0777984533,
				"z": 0.051783301,
				"element": "H" 
			},
			{
				"x": 2.2698409066,
				"y": 1.1375005422,
				"z": 0.8969258378,
				"element": "H" 
			},
			{
				"x": -0.614430236,
				"y": 2.6484542337,
				"z": 3.68555384,
				"element": "H" 
			},
			{
				"x": -2.5048562686,
				"y": 1.6304174912,
				"z": 2.390630002,
				"element": "H" 
			},
			{
				"x": 0.0898469529,
				"y": -2.3028866037,
				"z": -0.1824340977,
				"element": "H" 
			}
		],
		 "valence_orbital": [ 
			{
				"type": "occ",
				"energy": -0.29292,
				"method": "rhf"
			},
			{
				"type": "occ",
				"energy": -0.26775,
				"method": "rhf"
			},
			{
				"type": "occ",
				"energy": -0.24664,
				"method": "rhf"
			},
			{
				"type": "occ",
				"energy": -0.23421,
				"method": "rhf"
			},
			{
				"type": "occ",
				"energy": -0.22278,
				"method": "rhf"
			},
			{
				"type": "unocc",
				"energy": -0.03208,
				"method": "rhf"
			},
			{
				"type": "unocc",
				"energy": 0.01213,
				"method": "rhf"
			},
			{
				"type": "unocc",
				"energy": 0.01783,
				"method": "rhf"
			},
			{
				"type": "unocc",
				"energy": 0.04085,
				"method": "rhf"
			},
			{
				"type": "unocc",
				"energy": 0.06254,
				"method": "rhf"
			}
		],
		"cosmo_sigma_profile": { 
			"-0.025": 0.0,
			"-0.024": 0.0,
			"-0.023": 0.0,
			"-0.022": 0.0,
			"-0.021": 0.0,
			"-0.02": 0.0,
			"-0.019": 0.0,
			"-0.018": 0.0,
			"-0.017": 0.0219084524854,
			"-0.016": 1.15368210741,
			"-0.015": 1.46362627393,
			"-0.014": 1.33186313247,
			"-0.013": 1.3034590934,
			"-0.012": 1.38921523615,
			"-0.011": 1.28601637311,
			"-0.01": 3.26620307783,
			"-0.009": 6.43276133998,
			"-0.008": 8.47238014072,
			"-0.007": 11.5594879417,
			"-0.006": 17.1427008336,
			"-0.005": 14.9129792458,
			"-0.004": 14.4877713024,
			"-0.003": 12.7391470069,
			"-0.002": 11.2007493345,
			"-0.001": 10.0836814868,
			"0.0": 10.3496168542,
			"0.001": 11.3292014174,
			"0.002": 14.7060485593,
			"0.003": 16.87195312,
			"0.004": 21.8113963341,
			"0.005": 19.9746668378,
			"0.006": 3.11493290117,
			"0.007": 3.52388371074,
			"0.008": 3.47463353329,
			"0.009": 2.6928828145,
			"0.01": 4.35630540854,
			"0.011": 6.02551607383,
			"0.012": 6.23421864939,
			"0.013": 3.2995816139,
			"0.014": 0.771364545941,
			"0.015": 0.719726015117,
			"0.016": 0.23142722948,
			"0.017": 0.526453337842,
			"0.018": 0.686738901456,
			"0.019": 0.0374824567694,
			"0.02": 0.0,
			"0.021": 0.0,
			"0.022": 0.0,
			"0.023": 0.0,
			"0.024": 0.0,
			"0.025": 0.0
		}
	}
}
