{
	 "smiles": "C1CC2=C(CN1)NN=C2", 
	 "Tm": 408.15, 
	 "num_atms": 18, 
	 "gaussian": { 
		 "optdone": 1, 
		 "sigma_profile": "yes", 
		 "theory": "DFT", 
		 "functional": "B3LYP", 
		 "basiset": "6-31G**", 
		 "properties": { 
			 "R2extent": 1143.991, 
			 "electric_dipole_moment_norm": 3.1426468478, 
			 "electric_quadrupole_moment_norm": 9.77914638862, 
			 "total_energy": -398.285172371, 
			 "HOMO_LUMO_gap": 0.24983, 
			 "cosmo_polarized_energy": -11.91, 
			 "cosmo_cavitation_energy": 20.22, 
			 "cosmo_dispersion_energy": -15.81, 
			 "cosmo_repulsion_energy": 1.31, 
			 "cosmo_total_nonelectrostatic_energy": 5.72, 
			 "SMD_solvation_energy": -0.06 
		},
		"coords": [
			{
				"x": 1.1240163833,
				"y": -1.3734664588,
				"z": 0.3493838461,
				"element": "C" 
			},
			{
				"x": 1.5847047905,
				"y": 0.0399639739,
				"z": 0.7505635216,
				"element": "C" 
			},
			{
				"x": 0.4080390262,
				"y": 0.9694429558,
				"z": 0.6639889414,
				"element": "C" 
			},
			{
				"x": -0.7280057185,
				"y": 0.6285575382,
				"z": -0.0437684265,
				"element": "C" 
			},
			{
				"x": -0.9441621298,
				"y": -0.6678565912,
				"z": -0.7624863122,
				"element": "C" 
			},
			{
				"x": 0.3649212889,
				"y": -1.3156458674,
				"z": -0.9074331693,
				"element": "N" 
			},
			{
				"x": -1.5903965103,
				"y": 1.6714450678,
				"z": 0.0825795626,
				"element": "N" 
			},
			{
				"x": -1.0863734837,
				"y": 2.6847634123,
				"z": 0.8290107643,
				"element": "N" 
			},
			{
				"x": 0.1264497427,
				"y": 2.2579704252,
				"z": 1.1802608507,
				"element": "C" 
			},
			{
				"x": 0.5360505204,
				"y": -1.806691246,
				"z": 1.180919295,
				"element": "H" 
			},
			{
				"x": 1.9912001499,
				"y": -2.0221024925,
				"z": 0.1898541058,
				"element": "H" 
			},
			{
				"x": 2.3863185136,
				"y": 0.3645940896,
				"z": 0.0745336096,
				"element": "H" 
			},
			{
				"x": 2.0066221105,
				"y": 0.0167583302,
				"z": 1.7625825852,
				"element": "H" 
			},
			{
				"x": -1.6761433911,
				"y": -1.2833501446,
				"z": -0.2013306789,
				"element": "H" 
			},
			{
				"x": -1.3678471764,
				"y": -0.5032269161,
				"z": -1.762073469,
				"element": "H" 
			},
			{
				"x": 0.2347681713,
				"y": -2.2528569568,
				"z": -1.2753334062,
				"element": "H" 
			},
			{
				"x": -2.5145446173,
				"y": 1.7693710602,
				"z": -0.3074361951,
				"element": "H" 
			},
			{
				"x": 0.7545823299,
				"y": 2.8914298202,
				"z": 1.7936845748,
				"element": "H" 
			}
		],
		 "valence_orbital": [ 
			{
				"type": "occ",
				"energy": -0.33834,
				"method": "rhf"
			},
			{
				"type": "occ",
				"energy": -0.27555,
				"method": "rhf"
			},
			{
				"type": "occ",
				"energy": -0.2458,
				"method": "rhf"
			},
			{
				"type": "occ",
				"energy": -0.22591,
				"method": "rhf"
			},
			{
				"type": "occ",
				"energy": -0.22223,
				"method": "rhf"
			},
			{
				"type": "unocc",
				"energy": 0.0276,
				"method": "rhf"
			},
			{
				"type": "unocc",
				"energy": 0.07259,
				"method": "rhf"
			},
			{
				"type": "unocc",
				"energy": 0.08444,
				"method": "rhf"
			},
			{
				"type": "unocc",
				"energy": 0.08684,
				"method": "rhf"
			},
			{
				"type": "unocc",
				"energy": 0.12472,
				"method": "rhf"
			}
		],
		"cosmo_sigma_profile": { 
			"-0.025": 0.0,
			"-0.024": 0.0,
			"-0.023": 0.0,
			"-0.022": 0.0,
			"-0.021": 0.0,
			"-0.02": 0.0,
			"-0.019": 0.0,
			"-0.018": 0.0,
			"-0.017": 0.00749755190878,
			"-0.016": 0.90810932657,
			"-0.015": 1.67038548493,
			"-0.014": 1.22978937164,
			"-0.013": 0.597674263628,
			"-0.012": 1.33597339692,
			"-0.011": 1.14068925108,
			"-0.01": 2.79609478726,
			"-0.009": 2.24939248596,
			"-0.008": 2.65564351344,
			"-0.007": 2.19187123231,
			"-0.006": 4.9752776354,
			"-0.005": 6.76593639932,
			"-0.004": 11.4814146,
			"-0.003": 15.7463306872,
			"-0.002": 18.4919501063,
			"-0.001": 15.5931719403,
			"0.0": 12.2317034869,
			"0.001": 5.54231571034,
			"0.002": 4.27257035949,
			"0.003": 4.99559096307,
			"0.004": 5.23849729947,
			"0.005": 5.8389066115,
			"0.006": 6.40745133456,
			"0.007": 4.16396772208,
			"0.008": 3.03775044801,
			"0.009": 2.9257126253,
			"0.01": 1.78111525226,
			"0.011": 2.23852506631,
			"0.012": 1.61384968372,
			"0.013": 2.00534132239,
			"0.014": 1.46631793111,
			"0.015": 2.2132709405,
			"0.016": 1.57004500217,
			"0.017": 0.997380347019,
			"0.018": 0.265999543606,
			"0.019": 0.0,
			"0.02": 0.0,
			"0.021": 0.0,
			"0.022": 0.0,
			"0.023": 0.0,
			"0.024": 0.0,
			"0.025": 0.0
		}
	}
}
