{
	 "smiles": "CCCCCOC1=CC2=C(C=C(N2)C(O)=O)C=C1", 
	 "Tm": 436.15, 
	 "num_atms": 35, 
	 "gaussian": { 
		 "optdone": 1, 
		 "sigma_profile": "yes", 
		 "theory": "DFT", 
		 "functional": "B3LYP", 
		 "basiset": "6-31G**", 
		 "properties": { 
			 "R2extent": 8113.6968, 
			 "electric_dipole_moment_norm": 5.91455658355, 
			 "electric_quadrupole_moment_norm": 38.3530636787, 
			 "total_energy": -824.174238652, 
			 "HOMO_LUMO_gap": 0.16374, 
			 "cosmo_polarized_energy": -19.7, 
			 "cosmo_cavitation_energy": 38.44, 
			 "cosmo_dispersion_energy": -27.24, 
			 "cosmo_repulsion_energy": 2.12, 
			 "cosmo_total_nonelectrostatic_energy": 13.31, 
			 "SMD_solvation_energy": 7.16 
		},
		"coords": [
			{
				"x": -2.455154484,
				"y": 3.9269996372,
				"z": -0.9974536604,
				"element": "C" 
			},
			{
				"x": -1.2081113645,
				"y": 3.9888598265,
				"z": -0.1089111104,
				"element": "C" 
			},
			{
				"x": -1.4719062341,
				"y": 3.6785891683,
				"z": 1.3753264847,
				"element": "C" 
			},
			{
				"x": -2.0357366655,
				"y": 2.2851055318,
				"z": 1.7077447268,
				"element": "C" 
			},
			{
				"x": -1.1098749484,
				"y": 1.1061153668,
				"z": 1.4282719246,
				"element": "C" 
			},
			{
				"x": -1.0501071511,
				"y": 0.8804897089,
				"z": 0.0185146648,
				"element": "O" 
			},
			{
				"x": -0.2903527541,
				"y": -0.1489868782,
				"z": -0.451791186,
				"element": "C" 
			},
			{
				"x": 0.4615623237,
				"y": -1.0013202883,
				"z": 0.3551216,
				"element": "C" 
			},
			{
				"x": 1.1886270726,
				"y": -2.0089432367,
				"z": -0.2943264214,
				"element": "C" 
			},
			{
				"x": 1.1679471918,
				"y": -2.1943901776,
				"z": -1.7017290461,
				"element": "C" 
			},
			{
				"x": 1.9790857469,
				"y": -3.3374044583,
				"z": -1.9871653609,
				"element": "C" 
			},
			{
				"x": 2.4744667521,
				"y": -3.8015204857,
				"z": -0.7931793084,
				"element": "C" 
			},
			{
				"x": 2.0299629202,
				"y": -2.9654565533,
				"z": 0.2448222085,
				"element": "N" 
			},
			{
				"x": 3.3975594847,
				"y": -4.9240815706,
				"z": -0.5693916493,
				"element": "C" 
			},
			{
				"x": 4.0838022137,
				"y": -4.8893573736,
				"z": 0.6177651697,
				"element": "O" 
			},
			{
				"x": 3.5599711583,
				"y": -5.8362782699,
				"z": -1.3448720134,
				"element": "O" 
			},
			{
				"x": 0.4057583326,
				"y": -1.3034124505,
				"z": -2.485696139,
				"element": "C" 
			},
			{
				"x": -0.3101150843,
				"y": -0.300839656,
				"z": -1.8638866299,
				"element": "C" 
			},
			{
				"x": -2.2236509375,
				"y": 4.2478895772,
				"z": -2.0185144879,
				"element": "H" 
			},
			{
				"x": -3.2496539199,
				"y": 4.5808116332,
				"z": -0.6177138224,
				"element": "H" 
			},
			{
				"x": -2.8544300262,
				"y": 2.9100313689,
				"z": -1.0567068796,
				"element": "H" 
			},
			{
				"x": -0.4509784066,
				"y": 3.3020488543,
				"z": -0.501439566,
				"element": "H" 
			},
			{
				"x": -0.774319352,
				"y": 4.9956222769,
				"z": -0.1677985226,
				"element": "H" 
			},
			{
				"x": -2.1745720419,
				"y": 4.4254375431,
				"z": 1.7695591993,
				"element": "H" 
			},
			{
				"x": -0.5384798153,
				"y": 3.8182161261,
				"z": 1.9385163843,
				"element": "H" 
			},
			{
				"x": -2.9833382891,
				"y": 2.1104950142,
				"z": 1.1853784716,
				"element": "H" 
			},
			{
				"x": -2.2686801007,
				"y": 2.255499521,
				"z": 2.7800196632,
				"element": "H" 
			},
			{
				"x": -1.489253493,
				"y": 0.2001773233,
				"z": 1.9225538117,
				"element": "H" 
			},
			{
				"x": -0.0994241773,
				"y": 1.3041486571,
				"z": 1.8169449854,
				"element": "H" 
			},
			{
				"x": 0.4969637275,
				"y": -0.892914633,
				"z": 1.4320390375,
				"element": "H" 
			},
			{
				"x": 2.2112375732,
				"y": -3.7598586148,
				"z": -2.9541327444,
				"element": "H" 
			},
			{
				"x": 1.9503085365,
				"y": -3.2814092911,
				"z": 1.2010067278,
				"element": "H" 
			},
			{
				"x": 4.0727573156,
				"y": -3.9871241318,
				"z": 0.9699785833,
				"element": "H" 
			},
			{
				"x": 0.3744122469,
				"y": -1.4084937127,
				"z": -3.566039841,
				"element": "H" 
			},
			{
				"x": -0.9124833505,
				"y": 0.3980546473,
				"z": -2.4341152544,
				"element": "H" 
			}
		],
		 "valence_orbital": [ 
			{
				"type": "occ",
				"energy": -0.30915,
				"method": "rhf"
			},
			{
				"type": "occ",
				"energy": -0.28276,
				"method": "rhf"
			},
			{
				"type": "occ",
				"energy": -0.27105,
				"method": "rhf"
			},
			{
				"type": "occ",
				"energy": -0.23443,
				"method": "rhf"
			},
			{
				"type": "occ",
				"energy": -0.21003,
				"method": "rhf"
			},
			{
				"type": "unocc",
				"energy": -0.04629,
				"method": "rhf"
			},
			{
				"type": "unocc",
				"energy": 0.002,
				"method": "rhf"
			},
			{
				"type": "unocc",
				"energy": 0.03002,
				"method": "rhf"
			},
			{
				"type": "unocc",
				"energy": 0.04688,
				"method": "rhf"
			},
			{
				"type": "unocc",
				"energy": 0.07784,
				"method": "rhf"
			}
		],
		"cosmo_sigma_profile": { 
			"-0.025": 0.0,
			"-0.024": 0.0,
			"-0.023": 0.0,
			"-0.022": 0.0,
			"-0.021": 0.0,
			"-0.02": 0.0,
			"-0.019": 0.0,
			"-0.018": 0.318805881605,
			"-0.017": 2.72811888503,
			"-0.016": 2.21522172113,
			"-0.015": 2.28172720964,
			"-0.014": 1.53021248637,
			"-0.013": 1.6847942951,
			"-0.012": 2.52873605538,
			"-0.011": 1.60421224475,
			"-0.01": 1.89731684592,
			"-0.009": 1.71211997335,
			"-0.008": 1.88064154439,
			"-0.007": 4.44670874556,
			"-0.006": 7.19224337072,
			"-0.005": 12.4217679638,
			"-0.004": 17.0341838201,
			"-0.003": 19.8585382492,
			"-0.002": 24.6737343973,
			"-0.001": 29.4230881822,
			"0.0": 31.064325547,
			"0.001": 29.3164137452,
			"0.002": 19.2970000354,
			"0.003": 17.9645289519,
			"0.004": 22.330734949,
			"0.005": 13.2966699774,
			"0.006": 5.3183489994,
			"0.007": 3.86197219942,
			"0.008": 3.0672826714,
			"0.009": 2.8316034724,
			"0.01": 4.4477710652,
			"0.011": 5.7647285905,
			"0.012": 6.03403993024,
			"0.013": 2.56777212504,
			"0.014": 0.206072746048,
			"0.015": 0.0,
			"0.016": 0.0,
			"0.017": 0.0,
			"0.018": 0.0,
			"0.019": 0.0,
			"0.02": 0.0,
			"0.021": 0.0,
			"0.022": 0.0,
			"0.023": 0.0,
			"0.024": 0.0,
			"0.025": 0.0
		}
	}
}
