{
	 "smiles": "NS(=O)(=O)C1=CC2=C(OCCC2)C=C1", 
	 "Tm": 419.15, 
	 "num_atms": 25, 
	 "gaussian": { 
		 "optdone": 1, 
		 "sigma_profile": "yes", 
		 "theory": "DFT", 
		 "functional": "B3LYP", 
		 "basiset": "6-31G**", 
		 "properties": { 
			 "R2extent": 5159.0991, 
			 "electric_dipole_moment_norm": 7.27112528086, 
			 "electric_quadrupole_moment_norm": 31.512627125, 
			 "total_energy": -1028.13124026, 
			 "HOMO_LUMO_gap": 0.20792, 
			 "cosmo_polarized_energy": -19.97, 
			 "cosmo_cavitation_energy": 29.26, 
			 "cosmo_dispersion_energy": -22.42, 
			 "cosmo_repulsion_energy": 1.72, 
			 "cosmo_total_nonelectrostatic_energy": 8.57, 
			 "SMD_solvation_energy": 4.38 
		},
		"coords": [
			{
				"x": -0.7749503853,
				"y": -0.3076042152,
				"z": 5.0361474344,
				"element": "N" 
			},
			{
				"x": 0.7874386848,
				"y": -0.5822491841,
				"z": 4.4624172269,
				"element": "S" 
			},
			{
				"x": 1.646407759,
				"y": 0.3072192075,
				"z": 5.2432604211,
				"element": "O" 
			},
			{
				"x": 0.9452122436,
				"y": -2.0365440357,
				"z": 4.4527067955,
				"element": "O" 
			},
			{
				"x": 0.8310631904,
				"y": -0.021688312,
				"z": 2.7616212496,
				"element": "C" 
			},
			{
				"x": 0.5658079322,
				"y": -0.9246178776,
				"z": 1.7323668411,
				"element": "C" 
			},
			{
				"x": 0.5679657593,
				"y": -0.511584626,
				"z": 0.3978376359,
				"element": "C" 
			},
			{
				"x": 0.8458136155,
				"y": 0.841604687,
				"z": 0.1221026583,
				"element": "C" 
			},
			{
				"x": 0.8862162514,
				"y": 1.3526510172,
				"z": -1.1393940195,
				"element": "O" 
			},
			{
				"x": 0.3963163588,
				"y": 0.5253974438,
				"z": -2.2055777573,
				"element": "C" 
			},
			{
				"x": 0.850478278,
				"y": -0.9210151106,
				"z": -2.0572151314,
				"element": "C" 
			},
			{
				"x": 0.3163980388,
				"y": -1.4858661626,
				"z": -0.7354974054,
				"element": "C" 
			},
			{
				"x": 1.1359197922,
				"y": 1.7430019149,
				"z": 1.1582523519,
				"element": "C" 
			},
			{
				"x": 1.1310416471,
				"y": 1.316083212,
				"z": 2.4781739809,
				"element": "C" 
			},
			{
				"x": -1.4704512531,
				"y": -0.8568284622,
				"z": 4.540486617,
				"element": "H" 
			},
			{
				"x": -1.0068315736,
				"y": 0.6805514711,
				"z": 5.0662773616,
				"element": "H" 
			},
			{
				"x": 0.3857174372,
				"y": -1.9680587781,
				"z": 1.9745352952,
				"element": "H" 
			},
			{
				"x": -0.7016762828,
				"y": 0.5840364269,
				"z": -2.221761409,
				"element": "H" 
			},
			{
				"x": 0.7772705483,
				"y": 0.985798496,
				"z": -3.1199762936,
				"element": "H" 
			},
			{
				"x": 0.4929605277,
				"y": -1.5076850419,
				"z": -2.9099216191,
				"element": "H" 
			},
			{
				"x": 1.9460007931,
				"y": -0.9545280644,
				"z": -2.0708675052,
				"element": "H" 
			},
			{
				"x": -0.7613499145,
				"y": -1.6793726572,
				"z": -0.8295783515,
				"element": "H" 
			},
			{
				"x": 0.7832182811,
				"y": -2.4500073439,
				"z": -0.5071059018,
				"element": "H" 
			},
			{
				"x": 1.3703604505,
				"y": 2.769671788,
				"z": 0.8976143646,
				"element": "H" 
			},
			{
				"x": 1.3787518203,
				"y": 1.9990342071,
				"z": 3.2836951598,
				"element": "H" 
			}
		],
		 "valence_orbital": [ 
			{
				"type": "occ",
				"energy": -0.30191,
				"method": "rhf"
			},
			{
				"type": "occ",
				"energy": -0.2969,
				"method": "rhf"
			},
			{
				"type": "occ",
				"energy": -0.29569,
				"method": "rhf"
			},
			{
				"type": "occ",
				"energy": -0.26432,
				"method": "rhf"
			},
			{
				"type": "occ",
				"energy": -0.23412,
				"method": "rhf"
			},
			{
				"type": "unocc",
				"energy": -0.0262,
				"method": "rhf"
			},
			{
				"type": "unocc",
				"energy": -0.02159,
				"method": "rhf"
			},
			{
				"type": "unocc",
				"energy": 0.05694,
				"method": "rhf"
			},
			{
				"type": "unocc",
				"energy": 0.07682,
				"method": "rhf"
			},
			{
				"type": "unocc",
				"energy": 0.08513,
				"method": "rhf"
			}
		],
		"cosmo_sigma_profile": { 
			"-0.025": 0.0,
			"-0.024": 0.0,
			"-0.023": 0.0,
			"-0.022": 0.0,
			"-0.021": 0.0,
			"-0.02": 0.0,
			"-0.019": 0.0,
			"-0.018": 0.0,
			"-0.017": 0.0,
			"-0.016": 0.0,
			"-0.015": 1.52092746873,
			"-0.014": 2.55153463643,
			"-0.013": 3.004238785,
			"-0.012": 2.82988199808,
			"-0.011": 2.27566347027,
			"-0.01": 2.23946214621,
			"-0.009": 1.83067422297,
			"-0.008": 2.16305419887,
			"-0.007": 3.76622375138,
			"-0.006": 9.03645590992,
			"-0.005": 18.5729916228,
			"-0.004": 23.160586427,
			"-0.003": 20.8442562118,
			"-0.002": 18.4170391695,
			"-0.001": 14.2758738255,
			"0.0": 8.25304357321,
			"0.001": 8.24568361014,
			"0.002": 13.0856221675,
			"0.003": 15.4016116337,
			"0.004": 7.63660966028,
			"0.005": 5.07249923016,
			"0.006": 4.54268726766,
			"0.007": 3.54366457629,
			"0.008": 6.23753148,
			"0.009": 6.56178041233,
			"0.01": 7.15095111489,
			"0.011": 10.3153424264,
			"0.012": 8.2098080155,
			"0.013": 0.690943414517,
			"0.014": 0.0,
			"0.015": 0.0,
			"0.016": 0.0,
			"0.017": 0.0,
			"0.018": 0.0,
			"0.019": 0.0,
			"0.02": 0.0,
			"0.021": 0.0,
			"0.022": 0.0,
			"0.023": 0.0,
			"0.024": 0.0,
			"0.025": 0.0
		}
	}
}
