{
	 "smiles": "ClCC(=O)NC1=CC=C(C=C1)N1CCC2=C1C=CC=C2", 
	 "Tm": 441.15, 
	 "num_atms": 35, 
	 "gaussian": { 
		 "optdone": 1, 
		 "sigma_profile": "yes", 
		 "theory": "DFT", 
		 "functional": "B3LYP", 
		 "basiset": "6-31G**", 
		 "properties": { 
			 "R2extent": 9856.9262, 
			 "electric_dipole_moment_norm": 5.84219702595, 
			 "electric_quadrupole_moment_norm": 31.7064472381, 
			 "total_energy": -1263.6752461, 
			 "HOMO_LUMO_gap": 0.15873, 
			 "cosmo_polarized_energy": -14.93, 
			 "cosmo_cavitation_energy": 39.64, 
			 "cosmo_dispersion_energy": -28.79, 
			 "cosmo_repulsion_energy": 2.2, 
			 "cosmo_total_nonelectrostatic_energy": 13.05, 
			 "SMD_solvation_energy": 6.16 
		},
		"coords": [
			{
				"x": 0.8162806478,
				"y": -0.7081314355,
				"z": 6.0811208608,
				"element": "Cl" 
			},
			{
				"x": 0.3806853206,
				"y": 1.0144564139,
				"z": 5.709727886,
				"element": "C" 
			},
			{
				"x": 1.6114433397,
				"y": 1.8115221394,
				"z": 5.2828517959,
				"element": "C" 
			},
			{
				"x": 2.3855654109,
				"y": 2.2631638703,
				"z": 6.1126392341,
				"element": "O" 
			},
			{
				"x": 1.7942095205,
				"y": 2.0382915512,
				"z": 3.9385308766,
				"element": "N" 
			},
			{
				"x": 1.032376914,
				"y": 1.62892249,
				"z": 2.8089881324,
				"element": "C" 
			},
			{
				"x": 0.6879745551,
				"y": 0.2892595113,
				"z": 2.584767344,
				"element": "C" 
			},
			{
				"x": -0.0431132582,
				"y": -0.0779768615,
				"z": 1.4599834854,
				"element": "C" 
			},
			{
				"x": -0.4095091458,
				"y": 0.8747065442,
				"z": 0.4877466738,
				"element": "C" 
			},
			{
				"x": -0.0440874467,
				"y": 2.2178238492,
				"z": 0.7131123654,
				"element": "C" 
			},
			{
				"x": 0.6522264874,
				"y": 2.585069916,
				"z": 1.8592876699,
				"element": "C" 
			},
			{
				"x": -1.1514802225,
				"y": 0.5277505735,
				"z": -0.6397085836,
				"element": "N" 
			},
			{
				"x": -1.9518279087,
				"y": 1.5151824899,
				"z": -1.384816731,
				"element": "C" 
			},
			{
				"x": -2.8845003515,
				"y": 0.6554790981,
				"z": -2.2660937944,
				"element": "C" 
			},
			{
				"x": -2.1399499168,
				"y": -0.6592709461,
				"z": -2.3455530255,
				"element": "C" 
			},
			{
				"x": -1.1471228881,
				"y": -0.6870179144,
				"z": -1.3474154562,
				"element": "C" 
			},
			{
				"x": -0.3024145392,
				"y": -1.7936961526,
				"z": -1.2209739888,
				"element": "C" 
			},
			{
				"x": -0.4926317687,
				"y": -2.8766955832,
				"z": -2.0881747992,
				"element": "C" 
			},
			{
				"x": -1.4885743491,
				"y": -2.8628708251,
				"z": -3.0642803082,
				"element": "C" 
			},
			{
				"x": -2.3171289158,
				"y": -1.7389961601,
				"z": -3.1959741162,
				"element": "C" 
			},
			{
				"x": 0.0189423045,
				"y": 1.446620223,
				"z": 6.6411966989,
				"element": "H" 
			},
			{
				"x": -0.4078731026,
				"y": 0.990438504,
				"z": 4.9591396747,
				"element": "H" 
			},
			{
				"x": 2.5796952549,
				"y": 2.6557116757,
				"z": 3.768230909,
				"element": "H" 
			},
			{
				"x": 0.9856283165,
				"y": -0.4709038628,
				"z": 3.2992199577,
				"element": "H" 
			},
			{
				"x": -0.3448087166,
				"y": -1.1112622014,
				"z": 1.3431517095,
				"element": "H" 
			},
			{
				"x": -0.3029816645,
				"y": 2.9808265748,
				"z": -0.0121883546,
				"element": "H" 
			},
			{
				"x": 0.9095371181,
				"y": 3.6285581374,
				"z": 2.0196609402,
				"element": "H" 
			},
			{
				"x": -1.3028765974,
				"y": 2.1475459698,
				"z": -2.0097744271,
				"element": "H" 
			},
			{
				"x": -2.4917033044,
				"y": 2.164717375,
				"z": -0.6903306568,
				"element": "H" 
			},
			{
				"x": -3.86150516,
				"y": 0.5212553713,
				"z": -1.7833316403,
				"element": "H" 
			},
			{
				"x": -3.0621186045,
				"y": 1.1151491743,
				"z": -3.2422705587,
				"element": "H" 
			},
			{
				"x": 0.501372564,
				"y": -1.8141365232,
				"z": -0.4957495125,
				"element": "H" 
			},
			{
				"x": 0.161856117,
				"y": -3.7391708876,
				"z": -1.9987346203,
				"element": "H" 
			},
			{
				"x": -1.616104349,
				"y": -3.7136833569,
				"z": -3.7261343863,
				"element": "H" 
			},
			{
				"x": -3.0866816607,
				"y": -1.7109387419,
				"z": -3.9632512546,
				"element": "H" 
			}
		],
		 "valence_orbital": [ 
			{
				"type": "occ",
				"energy": -0.26467,
				"method": "rhf"
			},
			{
				"type": "occ",
				"energy": -0.25807,
				"method": "rhf"
			},
			{
				"type": "occ",
				"energy": -0.24916,
				"method": "rhf"
			},
			{
				"type": "occ",
				"energy": -0.24245,
				"method": "rhf"
			},
			{
				"type": "occ",
				"energy": -0.18812,
				"method": "rhf"
			},
			{
				"type": "unocc",
				"energy": -0.02939,
				"method": "rhf"
			},
			{
				"type": "unocc",
				"energy": -0.01633,
				"method": "rhf"
			},
			{
				"type": "unocc",
				"energy": -0.01051,
				"method": "rhf"
			},
			{
				"type": "unocc",
				"energy": -0.00454,
				"method": "rhf"
			},
			{
				"type": "unocc",
				"energy": 0.02241,
				"method": "rhf"
			}
		],
		"cosmo_sigma_profile": { 
			"-0.025": 0.0,
			"-0.024": 0.0,
			"-0.023": 0.0,
			"-0.022": 0.0,
			"-0.021": 0.0,
			"-0.02": 0.0,
			"-0.019": 0.0,
			"-0.018": 0.0,
			"-0.017": 0.0,
			"-0.016": 0.0,
			"-0.015": 0.198254427138,
			"-0.014": 0.959089349332,
			"-0.013": 1.13185127156,
			"-0.012": 0.992506771808,
			"-0.011": 0.877865086274,
			"-0.01": 0.971536594793,
			"-0.009": 1.36067464785,
			"-0.008": 4.04241630648,
			"-0.007": 5.95713228601,
			"-0.006": 11.8865925292,
			"-0.005": 25.0290137191,
			"-0.004": 31.596986915,
			"-0.003": 28.7267192435,
			"-0.002": 24.6839102879,
			"-0.001": 22.0926092937,
			"0.0": 18.4151192805,
			"0.001": 19.9866436941,
			"0.002": 20.1938639168,
			"0.003": 21.2184107726,
			"0.004": 21.0873232329,
			"0.005": 21.3133668446,
			"0.006": 13.9309214714,
			"0.007": 4.96842873336,
			"0.008": 1.29494893162,
			"0.009": 1.75794338994,
			"0.01": 1.39902073689,
			"0.011": 2.12918007125,
			"0.012": 2.82626028708,
			"0.013": 5.71494746188,
			"0.014": 1.47745986745,
			"0.015": 0.0,
			"0.016": 0.0,
			"0.017": 0.0,
			"0.018": 0.0,
			"0.019": 0.0,
			"0.02": 0.0,
			"0.021": 0.0,
			"0.022": 0.0,
			"0.023": 0.0,
			"0.024": 0.0,
			"0.025": 0.0
		}
	}
}
