{
	 "smiles": "OC(=O)C1=CC2=C(C=CS2)N=C1", 
	 "Tm": 533.15, 
	 "num_atms": 17, 
	 "gaussian": { 
		 "optdone": 1, 
		 "sigma_profile": "yes", 
		 "theory": "DFT", 
		 "functional": "B3LYP", 
		 "basiset": "6-31G**", 
		 "properties": { 
			 "R2extent": 3313.8421, 
			 "electric_dipole_moment_norm": 5.35826590326, 
			 "electric_quadrupole_moment_norm": 10.0548723214, 
			 "total_energy": -911.249095806, 
			 "HOMO_LUMO_gap": 0.17887, 
			 "cosmo_polarized_energy": -16.9, 
			 "cosmo_cavitation_energy": 23.69, 
			 "cosmo_dispersion_energy": -18.34, 
			 "cosmo_repulsion_energy": 1.38, 
			 "cosmo_total_nonelectrostatic_energy": 6.73, 
			 "SMD_solvation_energy": 3.43 
		},
		"coords": [
			{
				"x": 0.8936272718,
				"y": 2.3080349209,
				"z": 0.0584366191,
				"element": "O" 
			},
			{
				"x": -0.3086092386,
				"y": 2.3152451363,
				"z": 0.6976998528,
				"element": "C" 
			},
			{
				"x": -0.7001207044,
				"y": 3.3219619367,
				"z": 1.2382922667,
				"element": "O" 
			},
			{
				"x": -1.0832999814,
				"y": 1.0356895486,
				"z": 0.6902734602,
				"element": "C" 
			},
			{
				"x": -0.4959550472,
				"y": -0.2179231655,
				"z": 0.5060868195,
				"element": "C" 
			},
			{
				"x": -1.3332595366,
				"y": -1.329801758,
				"z": 0.5467569548,
				"element": "C" 
			},
			{
				"x": -2.725725704,
				"y": -1.1528899957,
				"z": 0.7694456211,
				"element": "C" 
			},
			{
				"x": -3.4337690449,
				"y": -2.4049345826,
				"z": 0.7803280199,
				"element": "C" 
			},
			{
				"x": -2.6103662739,
				"y": -3.4661146174,
				"z": 0.579592962,
				"element": "C" 
			},
			{
				"x": -0.927972057,
				"y": -3.0226376416,
				"z": 0.3661818938,
				"element": "S" 
			},
			{
				"x": -3.2877434548,
				"y": 0.0586080205,
				"z": 0.9574073034,
				"element": "N" 
			},
			{
				"x": -2.4772699714,
				"y": 1.1079479109,
				"z": 0.9253846472,
				"element": "C" 
			},
			{
				"x": 0.9836017449,
				"y": 1.512338554,
				"z": -0.483585114,
				"element": "H" 
			},
			{
				"x": 0.576809644,
				"y": -0.3341055478,
				"z": 0.3733994094,
				"element": "H" 
			},
			{
				"x": -4.5031062035,
				"y": -2.4742914942,
				"z": 0.9350128949,
				"element": "H" 
			},
			{
				"x": -2.8784139427,
				"y": -4.5134187383,
				"z": 0.540640435,
				"element": "H" 
			},
			{
				"x": -2.9214275002,
				"y": 2.0861915133,
				"z": 1.0884459543,
				"element": "H" 
			}
		],
		 "valence_orbital": [ 
			{
				"type": "occ",
				"energy": -0.32065,
				"method": "rhf"
			},
			{
				"type": "occ",
				"energy": -0.28667,
				"method": "rhf"
			},
			{
				"type": "occ",
				"energy": -0.27003,
				"method": "rhf"
			},
			{
				"type": "occ",
				"energy": -0.26263,
				"method": "rhf"
			},
			{
				"type": "occ",
				"energy": -0.25365,
				"method": "rhf"
			},
			{
				"type": "unocc",
				"energy": -0.07478,
				"method": "rhf"
			},
			{
				"type": "unocc",
				"energy": -0.04001,
				"method": "rhf"
			},
			{
				"type": "unocc",
				"energy": -0.00304,
				"method": "rhf"
			},
			{
				"type": "unocc",
				"energy": -0.00093,
				"method": "rhf"
			},
			{
				"type": "unocc",
				"energy": 0.05094,
				"method": "rhf"
			}
		],
		"cosmo_sigma_profile": { 
			"-0.025": 0.0,
			"-0.024": 0.0,
			"-0.023": 0.0,
			"-0.022": 0.0,
			"-0.021": 0.0,
			"-0.02": 0.185193990301,
			"-0.019": 0.95165205001,
			"-0.018": 0.945756145407,
			"-0.017": 1.08426690612,
			"-0.016": 0.809812525216,
			"-0.015": 0.773236848248,
			"-0.014": 0.992976580658,
			"-0.013": 1.63644763967,
			"-0.012": 1.34496577452,
			"-0.011": 1.70721743763,
			"-0.01": 3.53225983593,
			"-0.009": 4.42838803313,
			"-0.008": 4.86124473253,
			"-0.007": 6.04201704855,
			"-0.006": 6.22872657573,
			"-0.005": 8.2353343152,
			"-0.004": 8.76773317742,
			"-0.003": 8.56492365054,
			"-0.002": 9.33592375792,
			"-0.001": 13.2746618893,
			"0.0": 20.4950917149,
			"0.001": 17.714079472,
			"0.002": 13.9538158527,
			"0.003": 11.5915317638,
			"0.004": 6.52389812504,
			"0.005": 3.67960836162,
			"0.006": 4.39647964943,
			"0.007": 3.17079718722,
			"0.008": 3.79054011146,
			"0.009": 4.18019457818,
			"0.01": 5.97087239099,
			"0.011": 6.76271158863,
			"0.012": 4.38651305628,
			"0.013": 1.92250376528,
			"0.014": 0.778920538032,
			"0.015": 0.618424853271,
			"0.016": 0.119914435188,
			"0.017": 0.0,
			"0.018": 0.0,
			"0.019": 0.0,
			"0.02": 0.0,
			"0.021": 0.0,
			"0.022": 0.0,
			"0.023": 0.0,
			"0.024": 0.0,
			"0.025": 0.0
		}
	}
}
