{
	 "smiles": "CCC1=CC=C(C=C1)C(C)=CC(O)=O", 
	 "Tm": 378.15, 
	 "num_atms": 28, 
	 "gaussian": { 
		 "optdone": 1, 
		 "sigma_profile": "yes", 
		 "theory": "DFT", 
		 "functional": "B3LYP", 
		 "basiset": "6-31G**", 
		 "properties": { 
			 "R2extent": 4003.7473, 
			 "electric_dipole_moment_norm": 1.60365804647, 
			 "electric_quadrupole_moment_norm": 3.97161067578, 
			 "total_energy": -616.176128991, 
			 "HOMO_LUMO_gap": 0.17843, 
			 "cosmo_polarized_energy": -10.91, 
			 "cosmo_cavitation_energy": 31.72, 
			 "cosmo_dispersion_energy": -22.32, 
			 "cosmo_repulsion_energy": 1.79, 
			 "cosmo_total_nonelectrostatic_energy": 11.2, 
			 "SMD_solvation_energy": 6.61 
		},
		"coords": [
			{
				"x": 2.0005477992,
				"y": -4.1811876162,
				"z": 1.7364797896,
				"element": "C" 
			},
			{
				"x": 1.5746242186,
				"y": -3.5268564439,
				"z": 0.4094159281,
				"element": "C" 
			},
			{
				"x": 1.0950014686,
				"y": -2.1021579921,
				"z": 0.5840705238,
				"element": "C" 
			},
			{
				"x": -0.2546989031,
				"y": -1.8177099499,
				"z": 0.8260167554,
				"element": "C" 
			},
			{
				"x": -0.687923474,
				"y": -0.5104202476,
				"z": 1.0370241305,
				"element": "C" 
			},
			{
				"x": 0.2120780453,
				"y": 0.5666206728,
				"z": 0.9824543083,
				"element": "C" 
			},
			{
				"x": 1.5641664944,
				"y": 0.2824989894,
				"z": 0.734570098,
				"element": "C" 
			},
			{
				"x": 1.9940569862,
				"y": -1.0272926657,
				"z": 0.5465434072,
				"element": "C" 
			},
			{
				"x": -0.2529013228,
				"y": 1.9518400575,
				"z": 1.2626971927,
				"element": "C" 
			},
			{
				"x": -1.0679759936,
				"y": 2.1175475073,
				"z": 2.5257995223,
				"element": "C" 
			},
			{
				"x": 0.008880493,
				"y": 3.0481832237,
				"z": 0.5149059405,
				"element": "C" 
			},
			{
				"x": 0.6834859657,
				"y": 3.1099021738,
				"z": -0.795347163,
				"element": "C" 
			},
			{
				"x": 0.6781301495,
				"y": 4.3946293407,
				"z": -1.2567779264,
				"element": "O" 
			},
			{
				"x": 1.1793359239,
				"y": 2.208780274,
				"z": -1.4442043831,
				"element": "O" 
			},
			{
				"x": 2.8162383065,
				"y": -3.6214508055,
				"z": 2.2055879355,
				"element": "H" 
			},
			{
				"x": 1.1668404245,
				"y": -4.2080996499,
				"z": 2.4457107496,
				"element": "H" 
			},
			{
				"x": 2.3427265758,
				"y": -5.2088212166,
				"z": 1.5747816067,
				"element": "H" 
			},
			{
				"x": 2.4201877521,
				"y": -3.5442068435,
				"z": -0.2885094158,
				"element": "H" 
			},
			{
				"x": 0.7793770757,
				"y": -4.1264234885,
				"z": -0.0493379299,
				"element": "H" 
			},
			{
				"x": -0.9773641121,
				"y": -2.6300489734,
				"z": 0.8501527853,
				"element": "H" 
			},
			{
				"x": -1.7432494358,
				"y": -0.3264591716,
				"z": 1.2163786099,
				"element": "H" 
			},
			{
				"x": 2.2789843142,
				"y": 1.0955949124,
				"z": 0.687593813,
				"element": "H" 
			},
			{
				"x": 3.0477136465,
				"y": -1.2187464506,
				"z": 0.3575394887,
				"element": "H" 
			},
			{
				"x": -1.9795179089,
				"y": 1.5101684869,
				"z": 2.4874563235,
				"element": "H" 
			},
			{
				"x": -1.3596973719,
				"y": 3.1578876214,
				"z": 2.6874216212,
				"element": "H" 
			},
			{
				"x": -0.5010231833,
				"y": 1.7685059615,
				"z": 3.396602831,
				"element": "H" 
			},
			{
				"x": -0.3606947693,
				"y": 4.0083116126,
				"z": 0.8619069231,
				"element": "H" 
			},
			{
				"x": 1.120170835,
				"y": 4.3590106811,
				"z": -2.1209334659,
				"element": "H" 
			}
		],
		 "valence_orbital": [ 
			{
				"type": "occ",
				"energy": -0.30745,
				"method": "rhf"
			},
			{
				"type": "occ",
				"energy": -0.27347,
				"method": "rhf"
			},
			{
				"type": "occ",
				"energy": -0.26515,
				"method": "rhf"
			},
			{
				"type": "occ",
				"energy": -0.24453,
				"method": "rhf"
			},
			{
				"type": "occ",
				"energy": -0.22728,
				"method": "rhf"
			},
			{
				"type": "unocc",
				"energy": -0.04885,
				"method": "rhf"
			},
			{
				"type": "unocc",
				"energy": 0.00259,
				"method": "rhf"
			},
			{
				"type": "unocc",
				"energy": 0.01148,
				"method": "rhf"
			},
			{
				"type": "unocc",
				"energy": 0.09042,
				"method": "rhf"
			},
			{
				"type": "unocc",
				"energy": 0.09199,
				"method": "rhf"
			}
		],
		"cosmo_sigma_profile": { 
			"-0.025": 0.0,
			"-0.024": 0.0,
			"-0.023": 0.0,
			"-0.022": 0.0,
			"-0.021": 0.0,
			"-0.02": 0.0,
			"-0.019": 0.0,
			"-0.018": 0.121907965712,
			"-0.017": 0.939055801015,
			"-0.016": 0.930220839271,
			"-0.015": 0.619060497719,
			"-0.014": 0.787323500149,
			"-0.013": 0.805478705377,
			"-0.012": 0.391236019108,
			"-0.011": 0.503295936754,
			"-0.01": 0.902942304313,
			"-0.009": 0.411875430868,
			"-0.008": 0.406472491396,
			"-0.007": 2.55903802143,
			"-0.006": 6.63815020106,
			"-0.005": 12.9142819445,
			"-0.004": 18.7718135136,
			"-0.003": 23.6989039666,
			"-0.002": 24.9935914706,
			"-0.001": 31.162397643,
			"0.0": 26.6725944791,
			"0.001": 22.4347834063,
			"0.002": 14.244105132,
			"0.003": 11.7816658621,
			"0.004": 8.63834271745,
			"0.005": 8.21382620527,
			"0.006": 7.5142948938,
			"0.007": 3.75026475321,
			"0.008": 2.68364030735,
			"0.009": 3.56324783017,
			"0.01": 3.19244472588,
			"0.011": 2.69354127762,
			"0.012": 3.89279116789,
			"0.013": 3.28200396089,
			"0.014": 0.0112218354847,
			"0.015": 0.0,
			"0.016": 0.0,
			"0.017": 0.0,
			"0.018": 0.0,
			"0.019": 0.0,
			"0.02": 0.0,
			"0.021": 0.0,
			"0.022": 0.0,
			"0.023": 0.0,
			"0.024": 0.0,
			"0.025": 0.0
		}
	}
}
