{
	 "smiles": "CC1=CC=C(C=C1)S(=O)(=O)N1CC(CC2=CC(F)=CC=C2)C1", 
	 "Tm": 331.15, 
	 "num_atms": 40, 
	 "gaussian": { 
		 "optdone": 1, 
		 "sigma_profile": "yes", 
		 "theory": "DFT", 
		 "functional": "B3LYP", 
		 "basiset": "6-31G**", 
		 "properties": { 
			 "R2extent": 10155.6964, 
			 "electric_dipole_moment_norm": 5.61643828151, 
			 "electric_quadrupole_moment_norm": 23.015223118, 
			 "total_energy": -1361.79049504, 
			 "HOMO_LUMO_gap": 0.21009, 
			 "cosmo_polarized_energy": -16.82, 
			 "cosmo_cavitation_energy": 44.91, 
			 "cosmo_dispersion_energy": -30.72, 
			 "cosmo_repulsion_energy": 2.31, 
			 "cosmo_total_nonelectrostatic_energy": 16.5, 
			 "SMD_solvation_energy": 5.5 
		},
		"coords": [
			{
				"x": -1.0704486753,
				"y": -3.9376770367,
				"z": 6.3101025826,
				"element": "C" 
			},
			{
				"x": -0.5034130518,
				"y": -3.1585950162,
				"z": 5.147782158,
				"element": "C" 
			},
			{
				"x": -0.0117695638,
				"y": -1.8557204542,
				"z": 5.3366456282,
				"element": "C" 
			},
			{
				"x": 0.532850805,
				"y": -1.1322283565,
				"z": 4.2814301533,
				"element": "C" 
			},
			{
				"x": 0.5841267863,
				"y": -1.7158624352,
				"z": 3.0120968775,
				"element": "C" 
			},
			{
				"x": 0.1089630113,
				"y": -3.0075498959,
				"z": 2.7956869947,
				"element": "C" 
			},
			{
				"x": -0.4343713792,
				"y": -3.7190617434,
				"z": 3.8668499047,
				"element": "C" 
			},
			{
				"x": 1.2989503691,
				"y": -0.7979638165,
				"z": 1.6507912896,
				"element": "S" 
			},
			{
				"x": 1.4118823488,
				"y": -1.7188935771,
				"z": 0.5086461919,
				"element": "O" 
			},
			{
				"x": 2.4673737165,
				"y": -0.0501009154,
				"z": 2.1287862932,
				"element": "O" 
			},
			{
				"x": 0.1087966648,
				"y": 0.3790383464,
				"z": 1.3674513845,
				"element": "N" 
			},
			{
				"x": -0.9778555809,
				"y": 0.1349263418,
				"z": 0.3736247853,
				"element": "C" 
			},
			{
				"x": -0.8839489987,
				"y": 1.6332034873,
				"z": -0.0124304297,
				"element": "C" 
			},
			{
				"x": -1.042995404,
				"y": 2.0764731672,
				"z": -1.4777679812,
				"element": "C" 
			},
			{
				"x": -0.1423152566,
				"y": 1.3984422824,
				"z": -2.4889915969,
				"element": "C" 
			},
			{
				"x": 1.1093408065,
				"y": 1.9446120568,
				"z": -2.8040245395,
				"element": "C" 
			},
			{
				"x": 1.9263476546,
				"y": 1.3013161066,
				"z": -3.7262965248,
				"element": "C" 
			},
			{
				"x": 3.1251964775,
				"y": 1.8466461408,
				"z": -4.0198483762,
				"element": "F" 
			},
			{
				"x": 1.5478130611,
				"y": 0.1242973051,
				"z": -4.3607195437,
				"element": "C" 
			},
			{
				"x": 0.2987026143,
				"y": -0.4144961758,
				"z": -4.0520197851,
				"element": "C" 
			},
			{
				"x": -0.5388663722,
				"y": 0.2155544961,
				"z": -3.1301324663,
				"element": "C" 
			},
			{
				"x": 0.510129685,
				"y": 1.6394559227,
				"z": 0.6685916541,
				"element": "C" 
			},
			{
				"x": -1.7624401716,
				"y": -3.3273923286,
				"z": 6.899765072,
				"element": "H" 
			},
			{
				"x": -1.6063505863,
				"y": -4.8287312774,
				"z": 5.9725756211,
				"element": "H" 
			},
			{
				"x": -0.2737017214,
				"y": -4.2669005088,
				"z": 6.9880477358,
				"element": "H" 
			},
			{
				"x": -0.0545985672,
				"y": -1.4066862986,
				"z": 6.3256849008,
				"element": "H" 
			},
			{
				"x": 0.9207594917,
				"y": -0.1308133782,
				"z": 4.433526751,
				"element": "H" 
			},
			{
				"x": 0.1754235934,
				"y": -3.4434296064,
				"z": 1.8049646017,
				"element": "H" 
			},
			{
				"x": -0.8063881768,
				"y": -4.7269560469,
				"z": 3.7032406898,
				"element": "H" 
			},
			{
				"x": -1.9120315222,
				"y": -0.221892095,
				"z": 0.817062181,
				"element": "H" 
			},
			{
				"x": -0.6581829823,
				"y": -0.5372579819,
				"z": -0.4300526434,
				"element": "H" 
			},
			{
				"x": -1.5876441967,
				"y": 2.2110506362,
				"z": 0.5951409015,
				"element": "H" 
			},
			{
				"x": -0.8803154301,
				"y": 3.1606579012,
				"z": -1.5180962684,
				"element": "H" 
			},
			{
				"x": -2.090026998,
				"y": 1.9153581091,
				"z": -1.7632844323,
				"element": "H" 
			},
			{
				"x": 1.453972065,
				"y": 2.8687203947,
				"z": -2.3502680443,
				"element": "H" 
			},
			{
				"x": 2.2174882049,
				"y": -0.3430298354,
				"z": -5.0740406387,
				"element": "H" 
			},
			{
				"x": -0.0238083744,
				"y": -1.3304653706,
				"z": -4.5379000794,
				"element": "H" 
			},
			{
				"x": -1.5144683828,
				"y": -0.2103032947,
				"z": -2.9120501921,
				"element": "H" 
			},
			{
				"x": 1.332070677,
				"y": 1.4958443506,
				"z": -0.0405240622,
				"element": "H" 
			},
			{
				"x": 0.7492533593,
				"y": 2.4599104003,
				"z": 1.3488532518,
				"element": "H" 
			}
		],
		 "valence_orbital": [ 
			{
				"type": "occ",
				"energy": -0.2665,
				"method": "rhf"
			},
			{
				"type": "occ",
				"energy": -0.26385,
				"method": "rhf"
			},
			{
				"type": "occ",
				"energy": -0.25514,
				"method": "rhf"
			},
			{
				"type": "occ",
				"energy": -0.24557,
				"method": "rhf"
			},
			{
				"type": "occ",
				"energy": -0.24138,
				"method": "rhf"
			},
			{
				"type": "unocc",
				"energy": -0.03129,
				"method": "rhf"
			},
			{
				"type": "unocc",
				"energy": -0.01459,
				"method": "rhf"
			},
			{
				"type": "unocc",
				"energy": -0.0122,
				"method": "rhf"
			},
			{
				"type": "unocc",
				"energy": -0.00072,
				"method": "rhf"
			},
			{
				"type": "unocc",
				"energy": 0.06233,
				"method": "rhf"
			}
		],
		"cosmo_sigma_profile": { 
			"-0.025": 0.0,
			"-0.024": 0.0,
			"-0.023": 0.0,
			"-0.022": 0.0,
			"-0.021": 0.0,
			"-0.02": 0.0,
			"-0.019": 0.0,
			"-0.018": 0.0,
			"-0.017": 0.0,
			"-0.016": 0.0,
			"-0.015": 0.0,
			"-0.014": 0.0,
			"-0.013": 0.0,
			"-0.012": 0.0,
			"-0.011": 0.0,
			"-0.01": 0.0,
			"-0.009": 0.0,
			"-0.008": 0.11922658087,
			"-0.007": 4.69838161684,
			"-0.006": 16.6301320393,
			"-0.005": 32.0399540739,
			"-0.004": 40.8418074049,
			"-0.003": 38.9580079606,
			"-0.002": 28.6957228568,
			"-0.001": 25.330976641,
			"0.0": 22.1614559836,
			"0.001": 23.0044673748,
			"0.002": 22.5875606056,
			"0.003": 27.2871697572,
			"0.004": 25.0972151833,
			"0.005": 13.5432119691,
			"0.006": 3.57575095924,
			"0.007": 4.45083169117,
			"0.008": 3.08348954744,
			"0.009": 4.59470736094,
			"0.01": 5.2988570318,
			"0.011": 9.51071306052,
			"0.012": 5.1598997749,
			"0.013": 0.114381603145,
			"0.014": 0.0,
			"0.015": 0.0,
			"0.016": 0.0,
			"0.017": 0.0,
			"0.018": 0.0,
			"0.019": 0.0,
			"0.02": 0.0,
			"0.021": 0.0,
			"0.022": 0.0,
			"0.023": 0.0,
			"0.024": 0.0,
			"0.025": 0.0
		}
	}
}
