{
	 "smiles": "CC1=NC2=CC=NN2C(C)=C1C(O)=O", 
	 "Tm": 468.15, 
	 "num_atms": 23, 
	 "gaussian": { 
		 "optdone": 1, 
		 "sigma_profile": "yes", 
		 "theory": "DFT", 
		 "functional": "B3LYP", 
		 "basiset": "6-31G**", 
		 "properties": { 
			 "R2extent": 3436.6779, 
			 "electric_dipole_moment_norm": 1.9216901259, 
			 "electric_quadrupole_moment_norm": 6.46604909276, 
			 "total_energy": -663.082459572, 
			 "HOMO_LUMO_gap": 0.16714, 
			 "cosmo_polarized_energy": -11.9, 
			 "cosmo_cavitation_energy": 26.87, 
			 "cosmo_dispersion_energy": -20.08, 
			 "cosmo_repulsion_energy": 1.56, 
			 "cosmo_total_nonelectrostatic_energy": 8.35, 
			 "SMD_solvation_energy": 3.84 
		},
		"coords": [
			{
				"x": 1.5079160345,
				"y": 2.6323731148,
				"z": 1.2115417327,
				"element": "C" 
			},
			{
				"x": 0.8826918521,
				"y": 2.1143369209,
				"z": -0.0583963281,
				"element": "C" 
			},
			{
				"x": 0.8207091639,
				"y": 2.9735075223,
				"z": -1.0557897282,
				"element": "N" 
			},
			{
				"x": 0.2700738528,
				"y": 2.5677801845,
				"z": -2.2169587059,
				"element": "C" 
			},
			{
				"x": 0.0610616159,
				"y": 3.195056206,
				"z": -3.4396171422,
				"element": "C" 
			},
			{
				"x": -0.5529285092,
				"y": 2.2173534996,
				"z": -4.2391241571,
				"element": "C" 
			},
			{
				"x": -0.7388293404,
				"y": 1.0474964096,
				"z": -3.6140733727,
				"element": "N" 
			},
			{
				"x": -0.2335551415,
				"y": 1.2662115007,
				"z": -2.372088084,
				"element": "N" 
			},
			{
				"x": -0.2024268172,
				"y": 0.3426285365,
				"z": -1.367163357,
				"element": "C" 
			},
			{
				"x": -0.7485966448,
				"y": -1.006372703,
				"z": -1.7249786193,
				"element": "C" 
			},
			{
				"x": 0.3599547196,
				"y": 0.764347093,
				"z": -0.167531114,
				"element": "C" 
			},
			{
				"x": 0.4635491712,
				"y": -0.1407446722,
				"z": 1.0092970006,
				"element": "C" 
			},
			{
				"x": -0.5905356181,
				"y": -0.9890642124,
				"z": 1.1390658107,
				"element": "O" 
			},
			{
				"x": 1.3670453842,
				"y": -0.1333751106,
				"z": 1.8211197772,
				"element": "O" 
			},
			{
				"x": 2.4366027334,
				"y": 2.1022694425,
				"z": 1.4365503479,
				"element": "H" 
			},
			{
				"x": 1.7094034955,
				"y": 3.6961004173,
				"z": 1.0819831487,
				"element": "H" 
			},
			{
				"x": 0.8535933921,
				"y": 2.4853329056,
				"z": 2.0763351902,
				"element": "H" 
			},
			{
				"x": 0.3237024211,
				"y": 4.2096051734,
				"z": -3.6933198366,
				"element": "H" 
			},
			{
				"x": -0.8787963286,
				"y": 2.3110916536,
				"z": -5.2671280569,
				"element": "H" 
			},
			{
				"x": -0.415105895,
				"y": -1.2695548938,
				"z": -2.7311169922,
				"element": "H" 
			},
			{
				"x": -1.8430940461,
				"y": -0.9654129479,
				"z": -1.7582177345,
				"element": "H" 
			},
			{
				"x": -0.4543111827,
				"y": -1.765723485,
				"z": -1.0073257986,
				"element": "H" 
			},
			{
				"x": -0.3954243128,
				"y": -1.5234425555,
				"z": 1.9279360192,
				"element": "H" 
			}
		],
		 "valence_orbital": [ 
			{
				"type": "occ",
				"energy": -0.31386,
				"method": "rhf"
			},
			{
				"type": "occ",
				"energy": -0.28978,
				"method": "rhf"
			},
			{
				"type": "occ",
				"energy": -0.26566,
				"method": "rhf"
			},
			{
				"type": "occ",
				"energy": -0.26069,
				"method": "rhf"
			},
			{
				"type": "occ",
				"energy": -0.22545,
				"method": "rhf"
			},
			{
				"type": "unocc",
				"energy": -0.05831,
				"method": "rhf"
			},
			{
				"type": "unocc",
				"energy": -0.03571,
				"method": "rhf"
			},
			{
				"type": "unocc",
				"energy": 0.02532,
				"method": "rhf"
			},
			{
				"type": "unocc",
				"energy": 0.06355,
				"method": "rhf"
			},
			{
				"type": "unocc",
				"energy": 0.0716,
				"method": "rhf"
			}
		],
		"cosmo_sigma_profile": { 
			"-0.025": 0.0,
			"-0.024": 0.0,
			"-0.023": 0.0,
			"-0.022": 0.0,
			"-0.021": 0.0,
			"-0.02": 0.0,
			"-0.019": 0.0201136505615,
			"-0.018": 1.02413005944,
			"-0.017": 0.792095758347,
			"-0.016": 0.790102580698,
			"-0.015": 0.57537936308,
			"-0.014": 1.4772110844,
			"-0.013": 0.246998071662,
			"-0.012": 0.147095339687,
			"-0.011": 1.45561919814,
			"-0.01": 0.730011042306,
			"-0.009": 0.390239076238,
			"-0.008": 2.56579307217,
			"-0.007": 4.78345111961,
			"-0.006": 8.51406787649,
			"-0.005": 11.8911552271,
			"-0.004": 19.0940745183,
			"-0.003": 19.1790775994,
			"-0.002": 20.2291523613,
			"-0.001": 20.8269407931,
			"0.0": 14.2080090128,
			"0.001": 11.2050600094,
			"0.002": 9.37181644008,
			"0.003": 12.9749263583,
			"0.004": 10.4506397533,
			"0.005": 6.02224444097,
			"0.006": 6.19650514336,
			"0.007": 5.10113253697,
			"0.008": 4.14101547456,
			"0.009": 4.76937287686,
			"0.01": 4.40451282096,
			"0.011": 5.43925619024,
			"0.012": 2.8894017753,
			"0.013": 2.02274080741,
			"0.014": 0.814209596831,
			"0.015": 0.0540369117821,
			"0.016": 0.0,
			"0.017": 0.0,
			"0.018": 0.0,
			"0.019": 0.0,
			"0.02": 0.0,
			"0.021": 0.0,
			"0.022": 0.0,
			"0.023": 0.0,
			"0.024": 0.0,
			"0.025": 0.0
		}
	}
}
