{
	 "smiles": "NCCCCN1CCN(CCO)CC1", 
	 "Tm": 364.15, 
	 "num_atms": 37, 
	 "gaussian": { 
		 "optdone": 1, 
		 "sigma_profile": "yes", 
		 "theory": "DFT", 
		 "functional": "B3LYP", 
		 "basiset": "6-31G**", 
		 "properties": { 
			 "R2extent": 4799.4784, 
			 "electric_dipole_moment_norm": 1.20362347933, 
			 "electric_quadrupole_moment_norm": 18.9237651756, 
			 "total_energy": -634.354589314, 
			 "HOMO_LUMO_gap": 0.24942, 
			 "cosmo_polarized_energy": -15.11, 
			 "cosmo_cavitation_energy": 36.09, 
			 "cosmo_dispersion_energy": -25.6, 
			 "cosmo_repulsion_energy": 2.07, 
			 "cosmo_total_nonelectrostatic_energy": 12.56, 
			 "SMD_solvation_energy": -0.26 
		},
		"coords": [
			{
				"x": -3.6635237916,
				"y": -1.5938460903,
				"z": -2.6369139227,
				"element": "N" 
			},
			{
				"x": -3.7305335841,
				"y": -0.1358188192,
				"z": -2.8007330884,
				"element": "C" 
			},
			{
				"x": -2.3278782144,
				"y": 0.4806989795,
				"z": -2.8973219151,
				"element": "C" 
			},
			{
				"x": -1.4319820332,
				"y": 0.2848562904,
				"z": -1.6612220677,
				"element": "C" 
			},
			{
				"x": -1.9595218412,
				"y": 0.9783489831,
				"z": -0.3857895591,
				"element": "C" 
			},
			{
				"x": -1.1197752896,
				"y": 0.9129546565,
				"z": 0.8044396229,
				"element": "N" 
			},
			{
				"x": 0.1044285505,
				"y": 1.7094335128,
				"z": 0.7504547291,
				"element": "C" 
			},
			{
				"x": 0.9705516125,
				"y": 1.3758869492,
				"z": 1.9687960331,
				"element": "C" 
			},
			{
				"x": 1.4290656647,
				"y": -0.023802192,
				"z": 1.9847763873,
				"element": "N" 
			},
			{
				"x": 2.8106586341,
				"y": -0.2076046724,
				"z": 1.5645129081,
				"element": "C" 
			},
			{
				"x": 3.4026649722,
				"y": -1.562253866,
				"z": 1.942633717,
				"element": "C" 
			},
			{
				"x": 3.449001429,
				"y": -1.6723058088,
				"z": 3.3562966809,
				"element": "O" 
			},
			{
				"x": 0.4992374532,
				"y": -0.9348143702,
				"z": 1.3105430176,
				"element": "C" 
			},
			{
				"x": -0.9381060263,
				"y": -0.4136288655,
				"z": 1.4100583582,
				"element": "C" 
			},
			{
				"x": -4.5950933114,
				"y": -1.9924001074,
				"z": -2.7235192644,
				"element": "H" 
			},
			{
				"x": -3.3504404362,
				"y": -1.8242771172,
				"z": -1.6969843067,
				"element": "H" 
			},
			{
				"x": -4.257570093,
				"y": 0.0648520383,
				"z": -3.7410481769,
				"element": "H" 
			},
			{
				"x": -4.30939547,
				"y": 0.3750317051,
				"z": -2.0109292645,
				"element": "H" 
			},
			{
				"x": -2.4365030615,
				"y": 1.5558369934,
				"z": -3.0975398847,
				"element": "H" 
			},
			{
				"x": -1.8274346648,
				"y": 0.0428306574,
				"z": -3.7687869756,
				"element": "H" 
			},
			{
				"x": -1.2982602111,
				"y": -0.7889706966,
				"z": -1.4748841405,
				"element": "H" 
			},
			{
				"x": -0.433644662,
				"y": 0.6732366666,
				"z": -1.8955965322,
				"element": "H" 
			},
			{
				"x": -2.1310699562,
				"y": 2.041385143,
				"z": -0.6078116289,
				"element": "H" 
			},
			{
				"x": -2.941984605,
				"y": 0.5658621341,
				"z": -0.1214185218,
				"element": "H" 
			},
			{
				"x": 0.700630215,
				"y": 1.5385611887,
				"z": -0.1660200916,
				"element": "H" 
			},
			{
				"x": -0.1606230873,
				"y": 2.7763295058,
				"z": 0.7566847265,
				"element": "H" 
			},
			{
				"x": 0.3862755608,
				"y": 1.5843608183,
				"z": 2.8756053415,
				"element": "H" 
			},
			{
				"x": 1.8424294149,
				"y": 2.0359663139,
				"z": 1.9951913217,
				"element": "H" 
			},
			{
				"x": 2.9425457835,
				"y": -0.0923552809,
				"z": 0.4668707357,
				"element": "H" 
			},
			{
				"x": 3.4222239358,
				"y": 0.5612955237,
				"z": 2.0484875644,
				"element": "H" 
			},
			{
				"x": 2.8117733806,
				"y": -2.3760120417,
				"z": 1.4933365848,
				"element": "H" 
			},
			{
				"x": 4.4105153003,
				"y": -1.6165381691,
				"z": 1.4976706961,
				"element": "H" 
			},
			{
				"x": 3.8091155717,
				"y": -2.5403488217,
				"z": 3.5750453192,
				"element": "H" 
			},
			{
				"x": 0.759932284,
				"y": -1.0650735696,
				"z": 0.2411477932,
				"element": "H" 
			},
			{
				"x": 0.5535407206,
				"y": -1.9286782367,
				"z": 1.773631313,
				"element": "H" 
			},
			{
				"x": -1.2234779933,
				"y": -0.38639788,
				"z": 2.4722266615,
				"element": "H" 
			},
			{
				"x": -1.6090721509,
				"y": -1.1311014545,
				"z": 0.9257098289,
				"element": "H" 
			}
		],
		 "valence_orbital": [ 
			{
				"type": "occ",
				"energy": -0.31321,
				"method": "rhf"
			},
			{
				"type": "occ",
				"energy": -0.26104,
				"method": "rhf"
			},
			{
				"type": "occ",
				"energy": -0.23124,
				"method": "rhf"
			},
			{
				"type": "occ",
				"energy": -0.19445,
				"method": "rhf"
			},
			{
				"type": "occ",
				"energy": -0.18985,
				"method": "rhf"
			},
			{
				"type": "unocc",
				"energy": 0.05957,
				"method": "rhf"
			},
			{
				"type": "unocc",
				"energy": 0.07575,
				"method": "rhf"
			},
			{
				"type": "unocc",
				"energy": 0.09359,
				"method": "rhf"
			},
			{
				"type": "unocc",
				"energy": 0.10107,
				"method": "rhf"
			},
			{
				"type": "unocc",
				"energy": 0.11424,
				"method": "rhf"
			}
		],
		"cosmo_sigma_profile": { 
			"-0.025": 0.0,
			"-0.024": 0.0,
			"-0.023": 0.0,
			"-0.022": 0.0,
			"-0.021": 0.0,
			"-0.02": 0.0,
			"-0.019": 0.0,
			"-0.018": 0.0,
			"-0.017": 0.0,
			"-0.016": 0.225360983086,
			"-0.015": 1.07745035956,
			"-0.014": 0.998227615884,
			"-0.013": 0.637513196383,
			"-0.012": 1.32241383419,
			"-0.011": 0.942315808969,
			"-0.01": 0.684621073498,
			"-0.009": 2.0907991937,
			"-0.008": 2.95620971917,
			"-0.007": 4.12018853359,
			"-0.006": 5.3477156724,
			"-0.005": 6.94855259518,
			"-0.004": 12.705087407,
			"-0.003": 27.2186165938,
			"-0.002": 48.5244470364,
			"-0.001": 54.1425048191,
			"0.0": 34.5100641641,
			"0.001": 15.6997247369,
			"0.002": 7.71611955158,
			"0.003": 4.58347479495,
			"0.004": 4.82123942572,
			"0.005": 3.21996115279,
			"0.006": 3.13502621847,
			"0.007": 2.98188625888,
			"0.008": 2.94668258295,
			"0.009": 3.47062757201,
			"0.01": 2.40888472465,
			"0.011": 2.32593946006,
			"0.012": 2.5272691836,
			"0.013": 3.24391564767,
			"0.014": 3.14985716676,
			"0.015": 1.84736243258,
			"0.016": 2.29885140752,
			"0.017": 1.80170538048,
			"0.018": 1.45566794504,
			"0.019": 1.10891491662,
			"0.02": 0.529352690017,
			"0.021": 0.0580008949458,
			"0.022": 0.0,
			"0.023": 0.0,
			"0.024": 0.0,
			"0.025": 0.0
		}
	}
}
