{
	 "smiles": "CCS(=O)(=O)C1=C(N)C(F)=CC=C1", 
	 "Tm": 365.15, 
	 "num_atms": 23, 
	 "gaussian": { 
		 "optdone": 1, 
		 "sigma_profile": "yes", 
		 "theory": "DFT", 
		 "functional": "B3LYP", 
		 "basiset": "6-31G**", 
		 "properties": { 
			 "R2extent": 3813.4517, 
			 "electric_dipole_moment_norm": 3.75605299616, 
			 "electric_quadrupole_moment_norm": 19.1046570521, 
			 "total_energy": -1014.04930784, 
			 "HOMO_LUMO_gap": 0.1885, 
			 "cosmo_polarized_energy": -12.73, 
			 "cosmo_cavitation_energy": 27.53, 
			 "cosmo_dispersion_energy": -20.47, 
			 "cosmo_repulsion_energy": 1.55, 
			 "cosmo_total_nonelectrostatic_energy": 8.61, 
			 "SMD_solvation_energy": 4.55 
		},
		"coords": [
			{
				"x": -1.6179838884,
				"y": -1.4190095912,
				"z": 1.9156529174,
				"element": "C" 
			},
			{
				"x": -0.9300404157,
				"y": -2.4399465446,
				"z": 1.0168462628,
				"element": "C" 
			},
			{
				"x": -1.635982627,
				"y": -2.5226131037,
				"z": -0.6593600799,
				"element": "S" 
			},
			{
				"x": -3.1028797093,
				"y": -2.5453787489,
				"z": -0.5471358337,
				"element": "O" 
			},
			{
				"x": -0.9257480708,
				"y": -3.6168344772,
				"z": -1.3608674873,
				"element": "O" 
			},
			{
				"x": -1.1532972607,
				"y": -0.9725177998,
				"z": -1.4214022432,
				"element": "C" 
			},
			{
				"x": 0.1814490891,
				"y": -0.7788689587,
				"z": -1.8421803285,
				"element": "C" 
			},
			{
				"x": 1.1898018084,
				"y": -1.7090080043,
				"z": -1.6872939049,
				"element": "N" 
			},
			{
				"x": 0.4661814954,
				"y": 0.4813202877,
				"z": -2.4005988089,
				"element": "C" 
			},
			{
				"x": 1.7433436593,
				"y": 0.6865471156,
				"z": -2.8138468511,
				"element": "F" 
			},
			{
				"x": -0.477404535,
				"y": 1.4767871812,
				"z": -2.5571510828,
				"element": "C" 
			},
			{
				"x": -1.7960447439,
				"y": 1.2455654041,
				"z": -2.145450849,
				"element": "C" 
			},
			{
				"x": -2.1284008699,
				"y": 0.0198098446,
				"z": -1.5790280959,
				"element": "C" 
			},
			{
				"x": -1.5004856374,
				"y": -0.4027998133,
				"z": 1.5289881227,
				"element": "H" 
			},
			{
				"x": -2.684783749,
				"y": -1.6366851572,
				"z": 2.0029758877,
				"element": "H" 
			},
			{
				"x": -1.1727914399,
				"y": -1.4531650408,
				"z": 2.9145092404,
				"element": "H" 
			},
			{
				"x": 0.1369090947,
				"y": -2.2410438575,
				"z": 0.8778459115,
				"element": "H" 
			},
			{
				"x": -1.0432743517,
				"y": -3.4636918345,
				"z": 1.3879597566,
				"element": "H" 
			},
			{
				"x": 2.0292416387,
				"y": -1.4993185489,
				"z": -2.2085282226,
				"element": "H" 
			},
			{
				"x": 0.8855777163,
				"y": -2.6764379871,
				"z": -1.7277480602,
				"element": "H" 
			},
			{
				"x": -0.1745616186,
				"y": 2.4163488997,
				"z": -3.0072515757,
				"element": "H" 
			},
			{
				"x": -2.5485818897,
				"y": 2.0161619772,
				"z": -2.2707236848,
				"element": "H" 
			},
			{
				"x": -3.1407436949,
				"y": -0.1982212425,
				"z": -1.2576109907,
				"element": "H" 
			}
		],
		 "valence_orbital": [ 
			{
				"type": "occ",
				"energy": -0.31408,
				"method": "rhf"
			},
			{
				"type": "occ",
				"energy": -0.29983,
				"method": "rhf"
			},
			{
				"type": "occ",
				"energy": -0.28672,
				"method": "rhf"
			},
			{
				"type": "occ",
				"energy": -0.26904,
				"method": "rhf"
			},
			{
				"type": "occ",
				"energy": -0.22488,
				"method": "rhf"
			},
			{
				"type": "unocc",
				"energy": -0.03638,
				"method": "rhf"
			},
			{
				"type": "unocc",
				"energy": -0.00551,
				"method": "rhf"
			},
			{
				"type": "unocc",
				"energy": 0.0546,
				"method": "rhf"
			},
			{
				"type": "unocc",
				"energy": 0.07431,
				"method": "rhf"
			},
			{
				"type": "unocc",
				"energy": 0.08133,
				"method": "rhf"
			}
		],
		"cosmo_sigma_profile": { 
			"-0.025": 0.0,
			"-0.024": 0.0,
			"-0.023": 0.0,
			"-0.022": 0.0,
			"-0.021": 0.0,
			"-0.02": 0.0,
			"-0.019": 0.0,
			"-0.018": 0.0,
			"-0.017": 0.0,
			"-0.016": 0.0,
			"-0.015": 0.0,
			"-0.014": 0.0,
			"-0.013": 0.576520300214,
			"-0.012": 1.06604698508,
			"-0.011": 0.728919333579,
			"-0.01": 1.81416427976,
			"-0.009": 2.23065241249,
			"-0.008": 4.25045504151,
			"-0.007": 7.06922527124,
			"-0.006": 10.629434263,
			"-0.005": 14.488816625,
			"-0.004": 17.3235857345,
			"-0.003": 16.5318131888,
			"-0.002": 16.1978609207,
			"-0.001": 18.4732357344,
			"0.0": 17.1673897112,
			"0.001": 16.0415048359,
			"0.002": 13.3881931394,
			"0.003": 13.7831382789,
			"0.004": 12.6290381068,
			"0.005": 3.42649133878,
			"0.006": 2.12277927097,
			"0.007": 2.60198849615,
			"0.008": 4.05150178875,
			"0.009": 4.03237705914,
			"0.01": 4.77605226894,
			"0.011": 6.40583703736,
			"0.012": 6.6723756204,
			"0.013": 0.500320749124,
			"0.014": 0.0,
			"0.015": 0.0,
			"0.016": 0.0,
			"0.017": 0.0,
			"0.018": 0.0,
			"0.019": 0.0,
			"0.02": 0.0,
			"0.021": 0.0,
			"0.022": 0.0,
			"0.023": 0.0,
			"0.024": 0.0,
			"0.025": 0.0
		}
	}
}
