{
	 "smiles": "O=C1NC2=CC=CC=C2C11NC(=S)C(C#N)C2=C1CCC2", 
	 "Tm": 584.15, 
	 "num_atms": 34, 
	 "gaussian": { 
		 "optdone": 1, 
		 "sigma_profile": "yes", 
		 "theory": "DFT", 
		 "functional": "B3LYP", 
		 "basiset": "6-31G**", 
		 "properties": { 
			 "R2extent": 6584.5585, 
			 "electric_dipole_moment_norm": 9.8485805363, 
			 "electric_quadrupole_moment_norm": 35.2348875742, 
			 "total_energy": -1255.18732774, 
			 "HOMO_LUMO_gap": 0.1686, 
			 "cosmo_polarized_energy": -26.44, 
			 "cosmo_cavitation_energy": 39.96, 
			 "cosmo_dispersion_energy": -26.76, 
			 "cosmo_repulsion_energy": 2.03, 
			 "cosmo_total_nonelectrostatic_energy": 15.23, 
			 "SMD_solvation_energy": 6.57 
		},
		"coords": [
			{
				"x": -1.318077076,
				"y": -2.2352386846,
				"z": 1.9821429478,
				"element": "O" 
			},
			{
				"x": -1.7150033439,
				"y": -1.1759578383,
				"z": 1.5554885678,
				"element": "C" 
			},
			{
				"x": -3.0214189783,
				"y": -0.8262511656,
				"z": 1.2778794774,
				"element": "N" 
			},
			{
				"x": -3.1461470641,
				"y": 0.5013365418,
				"z": 0.8415657886,
				"element": "C" 
			},
			{
				"x": -4.299297234,
				"y": 1.2010105648,
				"z": 0.5052595275,
				"element": "C" 
			},
			{
				"x": -4.1550332273,
				"y": 2.535802421,
				"z": 0.1056205505,
				"element": "C" 
			},
			{
				"x": -2.8996991594,
				"y": 3.1455851425,
				"z": 0.045984195,
				"element": "C" 
			},
			{
				"x": -1.7474937922,
				"y": 2.423151788,
				"z": 0.3855484229,
				"element": "C" 
			},
			{
				"x": -1.8784801508,
				"y": 1.099891835,
				"z": 0.7809357618,
				"element": "C" 
			},
			{
				"x": -0.8248545831,
				"y": 0.0863560276,
				"z": 1.2017148488,
				"element": "C" 
			},
			{
				"x": -0.1173521892,
				"y": 0.5347677276,
				"z": 2.4038057568,
				"element": "N" 
			},
			{
				"x": 1.1797095875,
				"y": 0.3981715195,
				"z": 2.7412577003,
				"element": "C" 
			},
			{
				"x": 1.7949318171,
				"y": 0.9985783727,
				"z": 4.1618435001,
				"element": "S" 
			},
			{
				"x": 2.0868729919,
				"y": -0.3088382355,
				"z": 1.7187750005,
				"element": "C" 
			},
			{
				"x": 2.5293216248,
				"y": -1.6195222825,
				"z": 2.2326932225,
				"element": "C" 
			},
			{
				"x": 2.893675884,
				"y": -2.6676066799,
				"z": 2.5716919236,
				"element": "N" 
			},
			{
				"x": 1.4534348022,
				"y": -0.4756545206,
				"z": 0.3609510079,
				"element": "C" 
			},
			{
				"x": 0.1518431642,
				"y": -0.2901510468,
				"z": 0.1269032475,
				"element": "C" 
			},
			{
				"x": -0.2236671955,
				"y": -0.6391781981,
				"z": -1.2958867326,
				"element": "C" 
			},
			{
				"x": 1.1569485971,
				"y": -0.7297609296,
				"z": -1.9995045017,
				"element": "C" 
			},
			{
				"x": 2.1900147158,
				"y": -0.9601071817,
				"z": -0.8653945165,
				"element": "C" 
			},
			{
				"x": -3.7891499966,
				"y": -1.4601437793,
				"z": 1.4483822955,
				"element": "H" 
			},
			{
				"x": -5.2781956629,
				"y": 0.7342352197,
				"z": 0.552967584,
				"element": "H" 
			},
			{
				"x": -5.0409503106,
				"y": 3.1047581861,
				"z": -0.1601162222,
				"element": "H" 
			},
			{
				"x": -2.8159538028,
				"y": 4.1823473779,
				"z": -0.2632595485,
				"element": "H" 
			},
			{
				"x": -0.7674173942,
				"y": 2.8898516065,
				"z": 0.3446827723,
				"element": "H" 
			},
			{
				"x": -0.6810151206,
				"y": 1.0061423527,
				"z": 3.1023088396,
				"element": "H" 
			},
			{
				"x": 2.9905820816,
				"y": 0.3099167203,
				"z": 1.6417623689,
				"element": "H" 
			},
			{
				"x": -0.7537719171,
				"y": -1.6021822612,
				"z": -1.3190015542,
				"element": "H" 
			},
			{
				"x": -0.8871997398,
				"y": 0.0980006499,
				"z": -1.7600434107,
				"element": "H" 
			},
			{
				"x": 1.1879259269,
				"y": -1.5115322625,
				"z": -2.762249096,
				"element": "H" 
			},
			{
				"x": 1.3709804297,
				"y": 0.2211840059,
				"z": -2.4978106887,
				"element": "H" 
			},
			{
				"x": 2.4493179586,
				"y": -2.0213574266,
				"z": -0.7490781161,
				"element": "H" 
			},
			{
				"x": 3.1326183572,
				"y": -0.4258055667,
				"z": -1.0353209206,
				"element": "H" 
			}
		],
		 "valence_orbital": [ 
			{
				"type": "occ",
				"energy": -0.28119,
				"method": "rhf"
			},
			{
				"type": "occ",
				"energy": -0.25741,
				"method": "rhf"
			},
			{
				"type": "occ",
				"energy": -0.24464,
				"method": "rhf"
			},
			{
				"type": "occ",
				"energy": -0.23228,
				"method": "rhf"
			},
			{
				"type": "occ",
				"energy": -0.21726,
				"method": "rhf"
			},
			{
				"type": "unocc",
				"energy": -0.04866,
				"method": "rhf"
			},
			{
				"type": "unocc",
				"energy": -0.04526,
				"method": "rhf"
			},
			{
				"type": "unocc",
				"energy": -0.02823,
				"method": "rhf"
			},
			{
				"type": "unocc",
				"energy": -0.01728,
				"method": "rhf"
			},
			{
				"type": "unocc",
				"energy": 0.02139,
				"method": "rhf"
			}
		],
		"cosmo_sigma_profile": { 
			"-0.025": 0.0,
			"-0.024": 0.0,
			"-0.023": 0.0,
			"-0.022": 0.0,
			"-0.021": 0.0,
			"-0.02": 0.0,
			"-0.019": 0.0,
			"-0.018": 0.0,
			"-0.017": 0.263452981531,
			"-0.016": 2.08622207513,
			"-0.015": 2.32671260746,
			"-0.014": 2.193538299,
			"-0.013": 2.20051347222,
			"-0.012": 1.89069907161,
			"-0.011": 1.94164551405,
			"-0.01": 3.81322809452,
			"-0.009": 4.29378477762,
			"-0.008": 4.23497740667,
			"-0.007": 7.51076690561,
			"-0.006": 11.8987703067,
			"-0.005": 14.8339568366,
			"-0.004": 25.7765453605,
			"-0.003": 28.1403758794,
			"-0.002": 30.8197227913,
			"-0.001": 26.0801826673,
			"0.0": 20.367536331,
			"0.001": 13.9828209244,
			"0.002": 12.2213854768,
			"0.003": 14.2898808276,
			"0.004": 14.0194774898,
			"0.005": 12.0875717677,
			"0.006": 10.2501551689,
			"0.007": 10.3611417418,
			"0.008": 11.6769123122,
			"0.009": 9.43667982616,
			"0.01": 8.13104603506,
			"0.011": 8.25245612548,
			"0.012": 5.25460874616,
			"0.013": 0.970332663799,
			"0.014": 0.0,
			"0.015": 0.0,
			"0.016": 0.0,
			"0.017": 0.0,
			"0.018": 0.0,
			"0.019": 0.0,
			"0.02": 0.0,
			"0.021": 0.0,
			"0.022": 0.0,
			"0.023": 0.0,
			"0.024": 0.0,
			"0.025": 0.0
		}
	}
}
