{
	 "smiles": "OC1=CC(Cl)=C(Cl)C(Cl)=C1", 
	 "Tm": 374.15, 
	 "num_atms": 13, 
	 "gaussian": { 
		 "optdone": 1, 
		 "sigma_profile": "yes", 
		 "theory": "DFT", 
		 "functional": "B3LYP", 
		 "basiset": "6-31G**", 
		 "properties": { 
			 "R2extent": 3102.2044, 
			 "electric_dipole_moment_norm": 3.35726830325, 
			 "electric_quadrupole_moment_norm": 5.38986842233, 
			 "total_energy": -1686.23292534, 
			 "HOMO_LUMO_gap": 0.20488, 
			 "cosmo_polarized_energy": -9.07, 
			 "cosmo_cavitation_energy": 22.84, 
			 "cosmo_dispersion_energy": -17.53, 
			 "cosmo_repulsion_energy": 1.42, 
			 "cosmo_total_nonelectrostatic_energy": 6.73, 
			 "SMD_solvation_energy": 3.58 
		},
		"coords": [
			{
				"x": -0.3979853125,
				"y": -2.5485051068,
				"z": 1.5868414346,
				"element": "O" 
			},
			{
				"x": 0.1461998133,
				"y": -1.7581612257,
				"z": 0.6230243977,
				"element": "C" 
			},
			{
				"x": 1.536662583,
				"y": -1.6209668249,
				"z": 0.622353305,
				"element": "C" 
			},
			{
				"x": 2.1481826876,
				"y": -0.8251559864,
				"z": -0.3399454592,
				"element": "C" 
			},
			{
				"x": 3.8878135944,
				"y": -0.6855909984,
				"z": -0.2988699085,
				"element": "Cl" 
			},
			{
				"x": 1.3987614201,
				"y": -0.1490656131,
				"z": -1.3206272471,
				"element": "C" 
			},
			{
				"x": 2.1726194985,
				"y": 0.8434194906,
				"z": -2.5193493692,
				"element": "Cl" 
			},
			{
				"x": 0.0044503154,
				"y": -0.3040716049,
				"z": -1.2971323078,
				"element": "C" 
			},
			{
				"x": -1.0045754569,
				"y": 0.497564976,
				"z": -2.4753730711,
				"element": "Cl" 
			},
			{
				"x": -0.6222088846,
				"y": -1.0988197166,
				"z": -0.3382130796,
				"element": "C" 
			},
			{
				"x": -1.358871357,
				"y": -2.5681595443,
				"z": 1.489018487,
				"element": "H" 
			},
			{
				"x": 2.1276892103,
				"y": -2.1345944716,
				"z": 1.3701757331,
				"element": "H" 
			},
			{
				"x": -1.7031381116,
				"y": -1.1940933741,
				"z": -0.3526029148,
				"element": "H" 
			}
		],
		 "valence_orbital": [ 
			{
				"type": "occ",
				"energy": -0.331,
				"method": "rhf"
			},
			{
				"type": "occ",
				"energy": -0.31228,
				"method": "rhf"
			},
			{
				"type": "occ",
				"energy": -0.30705,
				"method": "rhf"
			},
			{
				"type": "occ",
				"energy": -0.26205,
				"method": "rhf"
			},
			{
				"type": "occ",
				"energy": -0.24109,
				"method": "rhf"
			},
			{
				"type": "unocc",
				"energy": -0.03621,
				"method": "rhf"
			},
			{
				"type": "unocc",
				"energy": -0.02084,
				"method": "rhf"
			},
			{
				"type": "unocc",
				"energy": -0.02032,
				"method": "rhf"
			},
			{
				"type": "unocc",
				"energy": 0.03881,
				"method": "rhf"
			},
			{
				"type": "unocc",
				"energy": 0.05037,
				"method": "rhf"
			}
		],
		"cosmo_sigma_profile": { 
			"-0.025": 0.0,
			"-0.024": 0.0,
			"-0.023": 0.0,
			"-0.022": 0.0,
			"-0.021": 0.0,
			"-0.02": 0.00189056108271,
			"-0.019": 0.804830031038,
			"-0.018": 1.37953282032,
			"-0.017": 0.902814286552,
			"-0.016": 1.51691314069,
			"-0.015": 1.181472162,
			"-0.014": 0.613988458269,
			"-0.013": 1.08249957218,
			"-0.012": 1.20733138287,
			"-0.011": 1.13522390415,
			"-0.01": 1.57487589373,
			"-0.009": 1.44193150583,
			"-0.008": 2.84404024668,
			"-0.007": 2.46384640216,
			"-0.006": 3.22446136919,
			"-0.005": 3.0385302636,
			"-0.004": 4.01909308235,
			"-0.003": 7.35545240233,
			"-0.002": 8.150313042,
			"-0.001": 13.5161713237,
			"0.0": 28.9039234771,
			"0.001": 26.6674020369,
			"0.002": 17.3949190861,
			"0.003": 22.569918948,
			"0.004": 23.1731980019,
			"0.005": 6.81328725356,
			"0.006": 1.24341560323,
			"0.007": 1.07876828559,
			"0.008": 1.50382617661,
			"0.009": 1.58408465853,
			"0.01": 1.62114763659,
			"0.011": 0.245500661053,
			"0.012": 0.0,
			"0.013": 0.0,
			"0.014": 0.0,
			"0.015": 0.0,
			"0.016": 0.0,
			"0.017": 0.0,
			"0.018": 0.0,
			"0.019": 0.0,
			"0.02": 0.0,
			"0.021": 0.0,
			"0.022": 0.0,
			"0.023": 0.0,
			"0.024": 0.0,
			"0.025": 0.0
		}
	}
}
