{
	 "smiles": "CCN1CCN(CC1)C1=C(F)C=C2C(=O)C(=CN(C3CC3)C2=C1)C(O)=O", 
	 "Tm": 493.15, 
	 "num_atms": 48, 
	 "gaussian": { 
		 "optdone": 1, 
		 "sigma_profile": "yes", 
		 "theory": "DFT", 
		 "functional": "B3LYP", 
		 "basiset": "6-31G**", 
		 "properties": { 
			 "R2extent": 13951.5745, 
			 "electric_dipole_moment_norm": 10.5836958885, 
			 "electric_quadrupole_moment_norm": 54.2778270576, 
			 "total_energy": -1226.99435839, 
			 "HOMO_LUMO_gap": 0.16062, 
			 "cosmo_polarized_energy": -29.03, 
			 "cosmo_cavitation_energy": 48.79, 
			 "cosmo_dispersion_energy": -33.72, 
			 "cosmo_repulsion_energy": 2.48, 
			 "cosmo_total_nonelectrostatic_energy": 17.55, 
			 "SMD_solvation_energy": 6.12 
		},
		"coords": [
			{
				"x": -0.4331652467,
				"y": -4.0042400693,
				"z": 1.6554404697,
				"element": "C" 
			},
			{
				"x": 0.5150118509,
				"y": -3.0409893611,
				"z": 2.3714830255,
				"element": "C" 
			},
			{
				"x": 0.610589266,
				"y": -1.740561984,
				"z": 1.7121360047,
				"element": "N" 
			},
			{
				"x": 1.1971842402,
				"y": -1.8178077345,
				"z": 0.3690310529,
				"element": "C" 
			},
			{
				"x": 1.7406065175,
				"y": -0.4357311353,
				"z": -0.0539870728,
				"element": "C" 
			},
			{
				"x": 0.9642190138,
				"y": 0.666857395,
				"z": 0.4887462978,
				"element": "N" 
			},
			{
				"x": 0.9351875763,
				"y": 0.6774038431,
				"z": 1.9645521237,
				"element": "C" 
			},
			{
				"x": 1.2718518873,
				"y": -0.7206408102,
				"z": 2.5188787288,
				"element": "C" 
			},
			{
				"x": -0.0423170102,
				"y": 1.2796646374,
				"z": -0.2429409425,
				"element": "C" 
			},
			{
				"x": -0.5528017082,
				"y": 2.5403893938,
				"z": 0.1563064366,
				"element": "C" 
			},
			{
				"x": -0.0323990145,
				"y": 3.1325705547,
				"z": 1.2595604297,
				"element": "F" 
			},
			{
				"x": -1.5279609889,
				"y": 3.1899259684,
				"z": -0.5520070375,
				"element": "C" 
			},
			{
				"x": -2.0511545775,
				"y": 2.6424374395,
				"z": -1.7344021295,
				"element": "C" 
			},
			{
				"x": -3.0964841594,
				"y": 3.4257875443,
				"z": -2.4400131183,
				"element": "C" 
			},
			{
				"x": -3.4873681114,
				"y": 4.5058164852,
				"z": -2.0031249414,
				"element": "O" 
			},
			{
				"x": -3.580285428,
				"y": 2.7757373312,
				"z": -3.6619370824,
				"element": "C" 
			},
			{
				"x": -3.0572687338,
				"y": 1.5666635352,
				"z": -4.0379689007,
				"element": "C" 
			},
			{
				"x": -2.0911376768,
				"y": 0.8635161339,
				"z": -3.380113239,
				"element": "N" 
			},
			{
				"x": -1.7168834374,
				"y": -0.398301924,
				"z": -4.0176515665,
				"element": "C" 
			},
			{
				"x": -1.4309543434,
				"y": -1.7069820169,
				"z": -3.3310204753,
				"element": "C" 
			},
			{
				"x": -0.3370132027,
				"y": -0.9912901928,
				"z": -4.108192118,
				"element": "C" 
			},
			{
				"x": -1.5543453854,
				"y": 1.3988703759,
				"z": -2.1848039123,
				"element": "C" 
			},
			{
				"x": -0.5714736661,
				"y": 0.7357263416,
				"z": -1.4252093109,
				"element": "C" 
			},
			{
				"x": -4.6266474232,
				"y": 3.3918873504,
				"z": -4.5041370701,
				"element": "C" 
			},
			{
				"x": -4.9321301253,
				"y": 2.6222865238,
				"z": -5.6029177863,
				"element": "O" 
			},
			{
				"x": -5.1909008418,
				"y": 4.4454798439,
				"z": -4.3105187516,
				"element": "O" 
			},
			{
				"x": -1.4204553394,
				"y": -3.5483673153,
				"z": 1.5330456731,
				"element": "H" 
			},
			{
				"x": -0.5456921229,
				"y": -4.9230861629,
				"z": 2.2392830695,
				"element": "H" 
			},
			{
				"x": -0.0620485584,
				"y": -4.2897135331,
				"z": 0.666230298,
				"element": "H" 
			},
			{
				"x": 0.1414213738,
				"y": -2.8663945883,
				"z": 3.3871503627,
				"element": "H" 
			},
			{
				"x": 1.510997393,
				"y": -3.5173720632,
				"z": 2.4778910724,
				"element": "H" 
			},
			{
				"x": 2.033142771,
				"y": -2.5438222851,
				"z": 0.323109758,
				"element": "H" 
			},
			{
				"x": 0.4338643134,
				"y": -2.1690695382,
				"z": -0.3354427468,
				"element": "H" 
			},
			{
				"x": 2.7680773063,
				"y": -0.3250255535,
				"z": 0.3138918364,
				"element": "H" 
			},
			{
				"x": 1.8011248151,
				"y": -0.3526953974,
				"z": -1.1407762987,
				"element": "H" 
			},
			{
				"x": -0.0696183281,
				"y": 0.9496271789,
				"z": 2.2901104764,
				"element": "H" 
			},
			{
				"x": 1.6325724104,
				"y": 1.4208046209,
				"z": 2.3716961558,
				"element": "H" 
			},
			{
				"x": 0.8948098556,
				"y": -0.7797204789,
				"z": 3.5447892238,
				"element": "H" 
			},
			{
				"x": 2.3676296368,
				"y": -0.8671278482,
				"z": 2.5837258985,
				"element": "H" 
			},
			{
				"x": -1.8999864315,
				"y": 4.1571212485,
				"z": -0.2325832064,
				"element": "H" 
			},
			{
				"x": -3.4264623304,
				"y": 1.0996709938,
				"z": -4.9412016268,
				"element": "H" 
			},
			{
				"x": -2.2956943198,
				"y": -0.4987868393,
				"z": -4.9273225617,
				"element": "H" 
			},
			{
				"x": -1.8813533314,
				"y": -2.5948423742,
				"z": -3.7644181564,
				"element": "H" 
			},
			{
				"x": -1.3699864347,
				"y": -1.7354079798,
				"z": -2.2501358902,
				"element": "H" 
			},
			{
				"x": -0.0392344695,
				"y": -1.3887392459,
				"z": -5.0737559192,
				"element": "H" 
			},
			{
				"x": 0.4745872716,
				"y": -0.5299485966,
				"z": -3.5601694718,
				"element": "H" 
			},
			{
				"x": -0.2167223687,
				"y": -0.2353149561,
				"z": -1.7184318218,
				"element": "H" 
			},
			{
				"x": -5.6199323833,
				"y": 3.1248352447,
				"z": -6.0678752391,
				"element": "H" 
			}
		],
		 "valence_orbital": [ 
			{
				"type": "occ",
				"energy": -0.26119,
				"method": "rhf"
			},
			{
				"type": "occ",
				"energy": -0.22347,
				"method": "rhf"
			},
			{
				"type": "occ",
				"energy": -0.21737,
				"method": "rhf"
			},
			{
				"type": "occ",
				"energy": -0.21665,
				"method": "rhf"
			},
			{
				"type": "occ",
				"energy": -0.20209,
				"method": "rhf"
			},
			{
				"type": "unocc",
				"energy": -0.04147,
				"method": "rhf"
			},
			{
				"type": "unocc",
				"energy": -0.02962,
				"method": "rhf"
			},
			{
				"type": "unocc",
				"energy": 0.00711,
				"method": "rhf"
			},
			{
				"type": "unocc",
				"energy": 0.03982,
				"method": "rhf"
			},
			{
				"type": "unocc",
				"energy": 0.04597,
				"method": "rhf"
			}
		],
		"cosmo_sigma_profile": { 
			"-0.025": 0.0,
			"-0.024": 0.0,
			"-0.023": 0.0,
			"-0.022": 0.0,
			"-0.021": 0.0,
			"-0.02": 0.0,
			"-0.019": 0.0,
			"-0.018": 0.140695400313,
			"-0.017": 0.816453959347,
			"-0.016": 0.939084536855,
			"-0.015": 0.911305832202,
			"-0.014": 0.462638510676,
			"-0.013": 0.52728746294,
			"-0.012": 0.904623478189,
			"-0.011": 1.99473875245,
			"-0.01": 2.77268905065,
			"-0.009": 2.48069767491,
			"-0.008": 4.52587955182,
			"-0.007": 6.85321031371,
			"-0.006": 11.989360482,
			"-0.005": 19.247236803,
			"-0.004": 26.7124769344,
			"-0.003": 36.6452416714,
			"-0.002": 42.3211739221,
			"-0.001": 46.9963214785,
			"0.0": 37.0459896117,
			"0.001": 31.1849554675,
			"0.002": 26.728640572,
			"0.003": 14.9610425974,
			"0.004": 14.002188599,
			"0.005": 7.09401393523,
			"0.006": 5.71037558352,
			"0.007": 5.44928616155,
			"0.008": 2.81100905887,
			"0.009": 2.89685908316,
			"0.01": 3.16442795953,
			"0.011": 3.88357855202,
			"0.012": 6.28736380513,
			"0.013": 5.0278606985,
			"0.014": 4.7212426043,
			"0.015": 2.33944127945,
			"0.016": 1.8132399523,
			"0.017": 1.36062180251,
			"0.018": 0.95992893286,
			"0.019": 0.549707969035,
			"0.02": 0.0,
			"0.021": 0.0,
			"0.022": 0.0,
			"0.023": 0.0,
			"0.024": 0.0,
			"0.025": 0.0
		}
	}
}
