{
	 "smiles": "CC1=C(C)C=C2N(CC3CO3)C=NC2=C1", 
	 "Tm": 393.15, 
	 "num_atms": 29, 
	 "gaussian": { 
		 "optdone": 1, 
		 "sigma_profile": "yes", 
		 "theory": "DFT", 
		 "functional": "B3LYP", 
		 "basiset": "6-31G**", 
		 "properties": { 
			 "R2extent": 3711.4966, 
			 "electric_dipole_moment_norm": 2.43544145896, 
			 "electric_quadrupole_moment_norm": 9.95257416501, 
			 "total_energy": -650.411586491, 
			 "HOMO_LUMO_gap": 0.20496, 
			 "cosmo_polarized_energy": -14.15, 
			 "cosmo_cavitation_energy": 32.17, 
			 "cosmo_dispersion_energy": -22.71, 
			 "cosmo_repulsion_energy": 1.76, 
			 "cosmo_total_nonelectrostatic_energy": 11.23, 
			 "SMD_solvation_energy": 3.46 
		},
		"coords": [
			{
				"x": -1.7345315637,
				"y": -3.6871893599,
				"z": 0.7902599991,
				"element": "C" 
			},
			{
				"x": -1.2734975038,
				"y": -2.2648434411,
				"z": 0.5668072942,
				"element": "C" 
			},
			{
				"x": 0.0463895159,
				"y": -2.0091912491,
				"z": 0.0875407315,
				"element": "C" 
			},
			{
				"x": 0.9854820792,
				"y": -3.1588506007,
				"z": -0.1954489083,
				"element": "C" 
			},
			{
				"x": 0.4817908569,
				"y": -0.7004411137,
				"z": -0.1249579092,
				"element": "C" 
			},
			{
				"x": -0.4050579319,
				"y": 0.3438010009,
				"z": 0.1453801601,
				"element": "C" 
			},
			{
				"x": -0.2952042114,
				"y": 1.726875788,
				"z": 0.0637054506,
				"element": "N" 
			},
			{
				"x": 0.8341705099,
				"y": 2.5047156738,
				"z": -0.4142167193,
				"element": "C" 
			},
			{
				"x": 0.950445744,
				"y": 2.5121958452,
				"z": -1.9290710603,
				"element": "C" 
			},
			{
				"x": 1.9627260615,
				"y": 1.7204988669,
				"z": -2.6415952885,
				"element": "C" 
			},
			{
				"x": 2.1356447205,
				"y": 3.1291126872,
				"z": -2.43546904,
				"element": "O" 
			},
			{
				"x": -1.5153457177,
				"y": 2.2247490682,
				"z": 0.4793770901,
				"element": "C" 
			},
			{
				"x": -2.382850788,
				"y": 1.3088201997,
				"z": 0.8216085125,
				"element": "N" 
			},
			{
				"x": -1.7122105051,
				"y": 0.1080112627,
				"z": 0.6229808762,
				"element": "C" 
			},
			{
				"x": -2.1418219227,
				"y": -1.2079292877,
				"z": 0.8315199998,
				"element": "C" 
			},
			{
				"x": -2.7640008939,
				"y": -3.7104161552,
				"z": 1.1567714474,
				"element": "H" 
			},
			{
				"x": -1.1086705473,
				"y": -4.2096372066,
				"z": 1.524355163,
				"element": "H" 
			},
			{
				"x": -1.6969930055,
				"y": -4.2793611685,
				"z": -0.1325259243,
				"element": "H" 
			},
			{
				"x": 1.1669976038,
				"y": -3.7658514705,
				"z": 0.6999590494,
				"element": "H" 
			},
			{
				"x": 1.9540580044,
				"y": -2.7988722439,
				"z": -0.5531173149,
				"element": "H" 
			},
			{
				"x": 0.5811731182,
				"y": -3.8374730417,
				"z": -0.9565901943,
				"element": "H" 
			},
			{
				"x": 1.4873264235,
				"y": -0.5150151723,
				"z": -0.4912108344,
				"element": "H" 
			},
			{
				"x": 0.7045290104,
				"y": 3.5335430178,
				"z": -0.0621132422,
				"element": "H" 
			},
			{
				"x": 1.7616896479,
				"y": 2.1261594743,
				"z": 0.0286825574,
				"element": "H" 
			},
			{
				"x": 0.0314900281,
				"y": 2.7766793491,
				"z": -2.4565793091,
				"element": "H" 
			},
			{
				"x": 1.7829785487,
				"y": 1.4144786259,
				"z": -3.6715898701,
				"element": "H" 
			},
			{
				"x": 2.643270055,
				"y": 1.0820063291,
				"z": -2.0779577745,
				"element": "H" 
			},
			{
				"x": -1.6898966318,
				"y": 3.2938426722,
				"z": 0.5108560806,
				"element": "H" 
			},
			{
				"x": -3.1466807049,
				"y": -1.39361835,
				"z": 1.1992389775,
				"element": "H" 
			}
		],
		 "valence_orbital": [ 
			{
				"type": "occ",
				"energy": -0.29792,
				"method": "rhf"
			},
			{
				"type": "occ",
				"energy": -0.28052,
				"method": "rhf"
			},
			{
				"type": "occ",
				"energy": -0.26669,
				"method": "rhf"
			},
			{
				"type": "occ",
				"energy": -0.21826,
				"method": "rhf"
			},
			{
				"type": "occ",
				"energy": -0.21608,
				"method": "rhf"
			},
			{
				"type": "unocc",
				"energy": -0.01112,
				"method": "rhf"
			},
			{
				"type": "unocc",
				"energy": 0.02117,
				"method": "rhf"
			},
			{
				"type": "unocc",
				"energy": 0.05281,
				"method": "rhf"
			},
			{
				"type": "unocc",
				"energy": 0.07238,
				"method": "rhf"
			},
			{
				"type": "unocc",
				"energy": 0.08314,
				"method": "rhf"
			}
		],
		"cosmo_sigma_profile": { 
			"-0.025": 0.0,
			"-0.024": 0.0,
			"-0.023": 0.0,
			"-0.022": 0.0,
			"-0.021": 0.0,
			"-0.02": 0.0,
			"-0.019": 0.0,
			"-0.018": 0.0,
			"-0.017": 0.0,
			"-0.016": 0.0,
			"-0.015": 0.0,
			"-0.014": 0.0,
			"-0.013": 0.0,
			"-0.012": 0.0,
			"-0.011": 0.0,
			"-0.01": 0.734424459615,
			"-0.009": 3.39484523806,
			"-0.008": 4.53430808627,
			"-0.007": 11.0228319976,
			"-0.006": 15.1277199543,
			"-0.005": 15.0154142487,
			"-0.004": 22.8312951196,
			"-0.003": 23.7470626577,
			"-0.002": 17.7017092324,
			"-0.001": 18.881136829,
			"0.0": 22.5455236925,
			"0.001": 19.054199269,
			"0.002": 10.129687082,
			"0.003": 9.47261504218,
			"0.004": 9.66526414064,
			"0.005": 12.0450743055,
			"0.006": 11.7569909534,
			"0.007": 2.83023067314,
			"0.008": 3.40750257707,
			"0.009": 3.81128187347,
			"0.01": 2.35895788941,
			"0.011": 5.14033633148,
			"0.012": 3.18384761596,
			"0.013": 0.997921508694,
			"0.014": 1.15068271892,
			"0.015": 1.1351247555,
			"0.016": 1.36235687736,
			"0.017": 0.888372549993,
			"0.018": 0.579550177382,
			"0.019": 0.0,
			"0.02": 0.0,
			"0.021": 0.0,
			"0.022": 0.0,
			"0.023": 0.0,
			"0.024": 0.0,
			"0.025": 0.0
		}
	}
}
