{
	 "smiles": "CCOC(=O)C1=CC2=C(C=C1)N(CC)C(C)=N2", 
	 "Tm": 344.15, 
	 "num_atms": 33, 
	 "gaussian": { 
		 "optdone": 1, 
		 "sigma_profile": "yes", 
		 "theory": "DFT", 
		 "functional": "B3LYP", 
		 "basiset": "6-31G**", 
		 "properties": { 
			 "R2extent": 6391.9135, 
			 "electric_dipole_moment_norm": 4.38584948328, 
			 "electric_quadrupole_moment_norm": 22.3815651662, 
			 "total_energy": -765.026607928, 
			 "HOMO_LUMO_gap": 0.19498, 
			 "cosmo_polarized_energy": -15.16, 
			 "cosmo_cavitation_energy": 36.68, 
			 "cosmo_dispersion_energy": -26.03, 
			 "cosmo_repulsion_energy": 2.03, 
			 "cosmo_total_nonelectrostatic_energy": 12.67, 
			 "SMD_solvation_energy": 5.2 
		},
		"coords": [
			{
				"x": -0.2912152474,
				"y": 3.9472196056,
				"z": 4.5540368544,
				"element": "C" 
			},
			{
				"x": -0.7194474603,
				"y": 4.313063136,
				"z": 3.1451968186,
				"element": "C" 
			},
			{
				"x": -0.7809640125,
				"y": 3.0915380937,
				"z": 2.3800723608,
				"element": "O" 
			},
			{
				"x": -1.1506500514,
				"y": 3.227000143,
				"z": 1.0841597048,
				"element": "C" 
			},
			{
				"x": -1.4168637451,
				"y": 4.3050804749,
				"z": 0.5837180104,
				"element": "O" 
			},
			{
				"x": -1.1911789519,
				"y": 1.9274904488,
				"z": 0.3615354813,
				"element": "C" 
			},
			{
				"x": -0.8725081773,
				"y": 0.7198306532,
				"z": 0.9917990799,
				"element": "C" 
			},
			{
				"x": -0.9360283345,
				"y": -0.4518493585,
				"z": 0.2360813694,
				"element": "C" 
			},
			{
				"x": -1.315880137,
				"y": -0.3968857539,
				"z": -1.1273031405,
				"element": "C" 
			},
			{
				"x": -1.6362744516,
				"y": 0.8052958653,
				"z": -1.7673251808,
				"element": "C" 
			},
			{
				"x": -1.5683531287,
				"y": 1.961455572,
				"z": -1.0016333321,
				"element": "C" 
			},
			{
				"x": -1.2874056318,
				"y": -1.709789897,
				"z": -1.5631296262,
				"element": "N" 
			},
			{
				"x": -1.547309755,
				"y": -2.1642951537,
				"z": -2.9245666662,
				"element": "C" 
			},
			{
				"x": -0.336951114,
				"y": -2.0156212225,
				"z": -3.8517252851,
				"element": "C" 
			},
			{
				"x": -0.8904399524,
				"y": -2.4758283014,
				"z": -0.4716535905,
				"element": "C" 
			},
			{
				"x": -0.7414293453,
				"y": -3.9610455315,
				"z": -0.5430901932,
				"element": "C" 
			},
			{
				"x": -0.6783479709,
				"y": -1.7632645501,
				"z": 0.608900914,
				"element": "N" 
			},
			{
				"x": -0.2315733525,
				"y": 4.8494409059,
				"z": 5.1709337606,
				"element": "H" 
			},
			{
				"x": 0.6913257219,
				"y": 3.4663873005,
				"z": 4.5517237973,
				"element": "H" 
			},
			{
				"x": -1.0082558106,
				"y": 3.2618280407,
				"z": 5.0152041131,
				"element": "H" 
			},
			{
				"x": -0.012627827,
				"y": 4.9978260688,
				"z": 2.6653577485,
				"element": "H" 
			},
			{
				"x": -1.7027081728,
				"y": 4.7942783015,
				"z": 3.1262246536,
				"element": "H" 
			},
			{
				"x": -0.5849255275,
				"y": 0.6918976725,
				"z": 2.0356157541,
				"element": "H" 
			},
			{
				"x": -1.9252747237,
				"y": 0.8449484447,
				"z": -2.8130989064,
				"element": "H" 
			},
			{
				"x": -1.8038335501,
				"y": 2.9268897574,
				"z": -1.4353775196,
				"element": "H" 
			},
			{
				"x": -1.8672565346,
				"y": -3.208545088,
				"z": -2.8757011914,
				"element": "H" 
			},
			{
				"x": -2.3978930035,
				"y": -1.5923775814,
				"z": -3.3104982972,
				"element": "H" 
			},
			{
				"x": -0.0125936668,
				"y": -0.9727152816,
				"z": -3.9071023311,
				"element": "H" 
			},
			{
				"x": -0.5919819772,
				"y": -2.3503916893,
				"z": -4.8622240395,
				"element": "H" 
			},
			{
				"x": 0.506867011,
				"y": -2.6137431379,
				"z": -3.4949808516,
				"element": "H" 
			},
			{
				"x": -0.0027764274,
				"y": -4.265580855,
				"z": -1.2933574677,
				"element": "H" 
			},
			{
				"x": -0.4119959841,
				"y": -4.3158183718,
				"z": 0.4337705875,
				"element": "H" 
			},
			{
				"x": -1.6884487077,
				"y": -4.4551187107,
				"z": -0.7905633891,
				"element": "H" 
			}
		],
		 "valence_orbital": [ 
			{
				"type": "occ",
				"energy": -0.28702,
				"method": "rhf"
			},
			{
				"type": "occ",
				"energy": -0.26864,
				"method": "rhf"
			},
			{
				"type": "occ",
				"energy": -0.25899,
				"method": "rhf"
			},
			{
				"type": "occ",
				"energy": -0.22669,
				"method": "rhf"
			},
			{
				"type": "occ",
				"energy": -0.22272,
				"method": "rhf"
			},
			{
				"type": "unocc",
				"energy": -0.02774,
				"method": "rhf"
			},
			{
				"type": "unocc",
				"energy": -0.0096,
				"method": "rhf"
			},
			{
				"type": "unocc",
				"energy": 0.04806,
				"method": "rhf"
			},
			{
				"type": "unocc",
				"energy": 0.06869,
				"method": "rhf"
			},
			{
				"type": "unocc",
				"energy": 0.08477,
				"method": "rhf"
			}
		],
		"cosmo_sigma_profile": { 
			"-0.025": 0.0,
			"-0.024": 0.0,
			"-0.023": 0.0,
			"-0.022": 0.0,
			"-0.021": 0.0,
			"-0.02": 0.0,
			"-0.019": 0.0,
			"-0.018": 0.0,
			"-0.017": 0.0,
			"-0.016": 0.0,
			"-0.015": 0.0,
			"-0.014": 0.0,
			"-0.013": 0.0,
			"-0.012": 0.0,
			"-0.011": 0.0,
			"-0.01": 0.0,
			"-0.009": 0.0,
			"-0.008": 0.0615784058629,
			"-0.007": 4.44506766944,
			"-0.006": 12.1772691336,
			"-0.005": 22.5849604019,
			"-0.004": 31.2838117055,
			"-0.003": 34.3678146714,
			"-0.002": 28.06575162,
			"-0.001": 27.2965895533,
			"0.0": 26.2646871215,
			"0.001": 15.1550990419,
			"0.002": 14.7160168133,
			"0.003": 17.3453931146,
			"0.004": 16.2735158201,
			"0.005": 7.84880360989,
			"0.006": 5.35149664871,
			"0.007": 3.16016673049,
			"0.008": 2.56537580047,
			"0.009": 2.66892928224,
			"0.01": 2.6021846545,
			"0.011": 3.35026441339,
			"0.012": 5.67244106724,
			"0.013": 2.83362653659,
			"0.014": 1.29799681787,
			"0.015": 0.443220880926,
			"0.016": 1.13531720566,
			"0.017": 0.869442036623,
			"0.018": 0.20795826603,
			"0.019": 0.0,
			"0.02": 0.0,
			"0.021": 0.0,
			"0.022": 0.0,
			"0.023": 0.0,
			"0.024": 0.0,
			"0.0": 0.0
		}
	}
}
