{
	 "smiles": "CC(NC(=O)OC1=CC=CC=C1)C(O)=O", 
	 "Tm": 396.15, 
	 "num_atms": 26, 
	 "gaussian": { 
		 "optdone": 1, 
		 "sigma_profile": "yes", 
		 "theory": "DFT", 
		 "functional": "B3LYP", 
		 "basiset": "6-31G**", 
		 "properties": { 
			 "R2extent": 4573.4321, 
			 "electric_dipole_moment_norm": 3.20074121728, 
			 "electric_quadrupole_moment_norm": 10.1040232259, 
			 "total_energy": -743.373283323, 
			 "HOMO_LUMO_gap": 0.23429, 
			 "cosmo_polarized_energy": -17.07, 
			 "cosmo_cavitation_energy": 30.95, 
			 "cosmo_dispersion_energy": -22.12, 
			 "cosmo_repulsion_energy": 1.77, 
			 "cosmo_total_nonelectrostatic_energy": 10.59, 
			 "SMD_solvation_energy": 7.03 
		},
		"coords": [
			{
				"x": 2.0540402509,
				"y": 0.1475329086,
				"z": 2.1291605292,
				"element": "C" 
			},
			{
				"x": 0.5414773474,
				"y": 0.1352089539,
				"z": 2.3702669181,
				"element": "C" 
			},
			{
				"x": -0.1347295758,
				"y": -0.9702233337,
				"z": 1.7040692014,
				"element": "N" 
			},
			{
				"x": -0.2949603217,
				"y": -0.9808396141,
				"z": 0.3504683393,
				"element": "C" 
			},
			{
				"x": 0.1915320069,
				"y": -0.1788527599,
				"z": -0.4205406791,
				"element": "O" 
			},
			{
				"x": -1.0804090605,
				"y": -2.0538875688,
				"z": 0.0075807491,
				"element": "O" 
			},
			{
				"x": -1.4096328463,
				"y": -2.2927586169,
				"z": -1.3262716435,
				"element": "C" 
			},
			{
				"x": -1.8375624827,
				"y": -1.2861704338,
				"z": -2.1924784298,
				"element": "C" 
			},
			{
				"x": -2.2216182539,
				"y": -1.6357995801,
				"z": -3.4879540437,
				"element": "C" 
			},
			{
				"x": -2.1890032669,
				"y": -2.9666235539,
				"z": -3.9094687896,
				"element": "C" 
			},
			{
				"x": -1.7650896204,
				"y": -3.9609209919,
				"z": -3.025873846,
				"element": "C" 
			},
			{
				"x": -1.3705730525,
				"y": -3.6263317051,
				"z": -1.7304656709,
				"element": "C" 
			},
			{
				"x": -0.0792601962,
				"y": 1.5013843106,
				"z": 2.0391666484,
				"element": "C" 
			},
			{
				"x": -1.4132850065,
				"y": 1.4242530585,
				"z": 1.8323542954,
				"element": "O" 
			},
			{
				"x": 0.5294216111,
				"y": 2.5458938331,
				"z": 2.0366785783,
				"element": "O" 
			},
			{
				"x": 2.2612625803,
				"y": 0.255522245,
				"z": 1.06334698,
				"element": "H" 
			},
			{
				"x": 2.5091530075,
				"y": 0.9864391122,
				"z": 2.658597784,
				"element": "H" 
			},
			{
				"x": 2.4920340088,
				"y": -0.7878500991,
				"z": 2.4866775879,
				"element": "H" 
			},
			{
				"x": 0.3543498692,
				"y": -0.0067974229,
				"z": 3.442405869,
				"element": "H" 
			},
			{
				"x": -0.7213735629,
				"y": -1.5913146105,
				"z": 2.2394362415,
				"element": "H" 
			},
			{
				"x": -1.8534134712,
				"y": -0.2554715468,
				"z": -1.8638265221,
				"element": "H" 
			},
			{
				"x": -2.5508427074,
				"y": -0.8574828171,
				"z": -4.1702292251,
				"element": "H" 
			},
			{
				"x": -2.4924136632,
				"y": -3.2265418906,
				"z": -4.919081764,
				"element": "H" 
			},
			{
				"x": -1.7374183618,
				"y": -4.9993981005,
				"z": -3.3425892814,
				"element": "H" 
			},
			{
				"x": -1.0366517125,
				"y": -4.381464504,
				"z": -1.0264914505,
				"element": "H" 
			},
			{
				"x": -1.7064335194,
				"y": 2.3328947279,
				"z": 1.650661624,
				"element": "H" 
			}
		],
		 "valence_orbital": [ 
			{
				"type": "occ",
				"energy": -0.29438,
				"method": "rhf"
			},
			{
				"type": "occ",
				"energy": -0.28267,
				"method": "rhf"
			},
			{
				"type": "occ",
				"energy": -0.26067,
				"method": "rhf"
			},
			{
				"type": "occ",
				"energy": -0.25148,
				"method": "rhf"
			},
			{
				"type": "occ",
				"energy": -0.23701,
				"method": "rhf"
			},
			{
				"type": "unocc",
				"energy": -0.00272,
				"method": "rhf"
			},
			{
				"type": "unocc",
				"energy": -0.00131,
				"method": "rhf"
			},
			{
				"type": "unocc",
				"energy": 0.00387,
				"method": "rhf"
			},
			{
				"type": "unocc",
				"energy": 0.04588,
				"method": "rhf"
			},
			{
				"type": "unocc",
				"energy": 0.07056,
				"method": "rhf"
			}
		],
		"cosmo_sigma_profile": { 
			"-0.025": 0.0,
			"-0.024": 0.0,
			"-0.023": 0.0,
			"-0.022": 0.0,
			"-0.021": 0.0,
			"-0.02": 0.0,
			"-0.019": 0.130877637782,
			"-0.018": 0.8529555951,
			"-0.017": 1.13600053872,
			"-0.016": 0.600624848956,
			"-0.015": 2.1047894755,
			"-0.014": 1.75745586596,
			"-0.013": 2.042633204,
			"-0.012": 1.94631362462,
			"-0.011": 1.8856956437,
			"-0.01": 1.62296794909,
			"-0.009": 3.8578816538,
			"-0.008": 3.93005377093,
			"-0.007": 4.28036777495,
			"-0.006": 10.7865727193,
			"-0.005": 12.0336041505,
			"-0.004": 17.9027810765,
			"-0.003": 15.4164385031,
			"-0.002": 15.7012312029,
			"-0.001": 15.2823369729,
			"0.0": 17.470407792,
			"0.001": 15.8129372449,
			"0.002": 13.8935697512,
			"0.003": 15.5283894489,
			"0.004": 14.8796207005,
			"0.005": 16.9973054105,
			"0.006": 7.33199389927,
			"0.007": 4.4840177603,
			"0.008": 4.4359070971,
			"0.009": 4.21159844665,
			"0.01": 4.11027249025,
			"0.011": 6.90469787375,
			"0.012": 5.59832787329,
			"0.013": 0.632585666007,
			"0.014": 0.0,
			"0.015": 0.0,
			"0.016": 0.0,
			"0.017": 0.0,
			"0.018": 0.0,
			"0.019": 0.0,
			"0.02": 0.0,
			"0.021": 0.0,
			"0.022": 0.0,
			"0.023": 0.0,
			"0.024": 0.0,
			"0.025": 0.0
		}
	}
}
