{
	 "smiles": "NCC1(CCOCC1)C(N)=O", 
	 "Tm": 387.15, 
	 "num_atms": 25, 
	 "gaussian": { 
		 "optdone": 1, 
		 "sigma_profile": "yes", 
		 "theory": "DFT", 
		 "functional": "B3LYP", 
		 "basiset": "6-31G**", 
		 "properties": { 
			 "R2extent": 1983.3802, 
			 "electric_dipole_moment_norm": 3.73190341515, 
			 "electric_quadrupole_moment_norm": 15.5364706735, 
			 "total_energy": -535.125789473, 
			 "HOMO_LUMO_gap": 0.25216, 
			 "cosmo_polarized_energy": -16.56, 
			 "cosmo_cavitation_energy": 25.39, 
			 "cosmo_dispersion_energy": -18.93, 
			 "cosmo_repulsion_energy": 1.54, 
			 "cosmo_total_nonelectrostatic_energy": 8.0, 
			 "SMD_solvation_energy": 4.12 
		},
		"coords": [
			{
				"x": 0.7156355447,
				"y": 0.6094676714,
				"z": -2.3414018123,
				"element": "N" 
			},
			{
				"x": -0.6831734208,
				"y": 0.2340704654,
				"z": -2.1156411852,
				"element": "C" 
			},
			{
				"x": -1.0482311566,
				"y": 0.1871038132,
				"z": -0.603498768,
				"element": "C" 
			},
			{
				"x": -1.0203819025,
				"y": 1.6088619816,
				"z": 0.0076273293,
				"element": "C" 
			},
			{
				"x": -0.8447926652,
				"y": 1.5591649865,
				"z": 1.5230761101,
				"element": "C" 
			},
			{
				"x": 0.3789414839,
				"y": 0.9399524769,
				"z": 1.9312180648,
				"element": "O" 
			},
			{
				"x": 0.9725711344,
				"y": 0.0830435815,
				"z": 0.9605246312,
				"element": "C" 
			},
			{
				"x": -0.0644178526,
				"y": -0.7331155418,
				"z": 0.1871239168,
				"element": "C" 
			},
			{
				"x": -2.5034387994,
				"y": -0.3440969349,
				"z": -0.5452228081,
				"element": "C" 
			},
			{
				"x": -2.6486449578,
				"y": -1.6955066919,
				"z": -0.7146413511,
				"element": "N" 
			},
			{
				"x": -3.4783770005,
				"y": 0.387295809,
				"z": -0.4307370206,
				"element": "O" 
			},
			{
				"x": 0.985160724,
				"y": 0.3735682206,
				"z": -3.2921885563,
				"element": "H" 
			},
			{
				"x": 0.8340866813,
				"y": 1.614948032,
				"z": -2.2550600334,
				"element": "H" 
			},
			{
				"x": -1.4111773426,
				"y": 0.8909040058,
				"z": -2.6207543515,
				"element": "H" 
			},
			{
				"x": -0.8238625855,
				"y": -0.768933292,
				"z": -2.5340143128,
				"element": "H" 
			},
			{
				"x": -1.9553827077,
				"y": 2.1188858268,
				"z": -0.2363178268,
				"element": "H" 
			},
			{
				"x": -0.1957637687,
				"y": 2.189545121,
				"z": -0.4203283555,
				"element": "H" 
			},
			{
				"x": -1.6967815973,
				"y": 1.0228423243,
				"z": 1.9694833415,
				"element": "H" 
			},
			{
				"x": -0.8428112597,
				"y": 2.5712872189,
				"z": 1.9437842457,
				"element": "H" 
			},
			{
				"x": 1.6408332912,
				"y": -0.5820736431,
				"z": 1.51809126,
				"element": "H" 
			},
			{
				"x": 1.5870900594,
				"y": 0.6531583785,
				"z": 0.250441365,
				"element": "H" 
			},
			{
				"x": 0.4611108665,
				"y": -1.4115672979,
				"z": -0.4949519377,
				"element": "H" 
			},
			{
				"x": -0.6142043459,
				"y": -1.3433972324,
				"z": 0.9136666717,
				"element": "H" 
			},
			{
				"x": -3.5821531276,
				"y": -2.0718855902,
				"z": -0.6448638165,
				"element": "H" 
			},
			{
				"x": -1.8690352952,
				"y": -2.3310236891,
				"z": -0.6739148005,
				"element": "H" 
			}
		],
		 "valence_orbital": [ 
			{
				"type": "occ",
				"energy": -0.2846,
				"method": "rhf"
			},
			{
				"type": "occ",
				"energy": -0.26888,
				"method": "rhf"
			},
			{
				"type": "occ",
				"energy": -0.24984,
				"method": "rhf"
			},
			{
				"type": "occ",
				"energy": -0.24448,
				"method": "rhf"
			},
			{
				"type": "occ",
				"energy": -0.22839,
				"method": "rhf"
			},
			{
				"type": "unocc",
				"energy": 0.02377,
				"method": "rhf"
			},
			{
				"type": "unocc",
				"energy": 0.06658,
				"method": "rhf"
			},
			{
				"type": "unocc",
				"energy": 0.07572,
				"method": "rhf"
			},
			{
				"type": "unocc",
				"energy": 0.10869,
				"method": "rhf"
			},
			{
				"type": "unocc",
				"energy": 0.12001,
				"method": "rhf"
			}
		],
		"cosmo_sigma_profile": { 
			"-0.025": 0.0,
			"-0.024": 0.0,
			"-0.023": 0.0,
			"-0.022": 0.0,
			"-0.021": 0.0,
			"-0.02": 0.0,
			"-0.019": 0.0,
			"-0.018": 0.0,
			"-0.017": 0.0,
			"-0.016": 0.0,
			"-0.015": 0.0,
			"-0.014": 0.654484245998,
			"-0.013": 1.88478705753,
			"-0.012": 2.22341494058,
			"-0.011": 2.4838545964,
			"-0.01": 4.31794005118,
			"-0.009": 4.97193328736,
			"-0.008": 4.65484536634,
			"-0.007": 6.37089956431,
			"-0.006": 6.23093461969,
			"-0.005": 4.78986957615,
			"-0.004": 13.548315235,
			"-0.003": 17.5107962938,
			"-0.002": 23.2911819999,
			"-0.001": 21.4226884608,
			"0.0": 13.1152126115,
			"0.001": 8.45080341526,
			"0.002": 6.13267255153,
			"0.003": 5.20602073337,
			"0.004": 5.4592423542,
			"0.005": 3.42935970928,
			"0.006": 4.87932473703,
			"0.007": 3.82905063145,
			"0.008": 3.47133592924,
			"0.009": 3.55621125176,
			"0.01": 2.67601269472,
			"0.011": 3.11430374297,
			"0.012": 4.13345008036,
			"0.013": 4.48078610301,
			"0.014": 7.85147260416,
			"0.015": 1.30893150383,
			"0.016": 0.209195242238,
			"0.017": 0.0,
			"0.018": 0.0,
			"0.019": 0.0,
			"0.02": 0.0,
			"0.021": 0.0,
			"0.022": 0.0,
			"0.023": 0.0,
			"0.024": 0.0,
			"0.025": 0.0
		}
	}
}
