{
	 "smiles": "CC(=O)OC1(CCC2C3CC(C4=CC(=O)CCC4(C)C3CCC12C)C(F)(F)F)C(C)=O", 
	 "Tm": 479.15, 
	 "num_atms": 62, 
	 "gaussian": { 
		 "optdone": 1, 
		 "sigma_profile": "yes", 
		 "theory": "DFT", 
		 "functional": "B3LYP", 
		 "basiset": "6-31G**", 
		 "properties": { 
			 "R2extent": 11827.4523, 
			 "electric_dipole_moment_norm": 3.43727683639, 
			 "electric_quadrupole_moment_norm": 24.1518694626, 
			 "total_energy": -1533.66209834, 
			 "HOMO_LUMO_gap": 0.18299, 
			 "cosmo_polarized_energy": -19.93, 
			 "cosmo_cavitation_energy": 55.56, 
			 "cosmo_dispersion_energy": -35.2, 
			 "cosmo_repulsion_energy": 2.47, 
			 "cosmo_total_nonelectrostatic_energy": 22.82, 
			 "SMD_solvation_energy": 11.19 
		},
		"coords": [
			{
				"x": 2.1557104566,
				"y": -2.6033382538,
				"z": -0.7893422933,
				"element": "C" 
			},
			{
				"x": 2.3631524987,
				"y": -1.3797124165,
				"z": -1.6493236743,
				"element": "C" 
			},
			{
				"x": 3.3561171599,
				"y": -1.1427939948,
				"z": -2.3020655774,
				"element": "O" 
			},
			{
				"x": 1.272849272,
				"y": -0.5714098322,
				"z": -1.6171338514,
				"element": "O" 
			},
			{
				"x": 1.320139992,
				"y": 0.6960809679,
				"z": -2.3456832075,
				"element": "C" 
			},
			{
				"x": 2.3479556741,
				"y": 1.6586058941,
				"z": -1.7007749241,
				"element": "C" 
			},
			{
				"x": 1.5494382061,
				"y": 2.7378335455,
				"z": -0.9362367803,
				"element": "C" 
			},
			{
				"x": 0.1110894769,
				"y": 2.1926469953,
				"z": -0.7840011283,
				"element": "C" 
			},
			{
				"x": -0.2344870565,
				"y": 1.4654351004,
				"z": 0.5767368804,
				"element": "C" 
			},
			{
				"x": 0.9482975493,
				"y": 1.1595650409,
				"z": 1.5143636029,
				"element": "C" 
			},
			{
				"x": 0.4961896808,
				"y": 0.5660079217,
				"z": 2.8769547149,
				"element": "C" 
			},
			{
				"x": -0.5079595521,
				"y": -0.554815156,
				"z": 2.6459392626,
				"element": "C" 
			},
			{
				"x": -0.147306965,
				"y": -1.7942520315,
				"z": 3.0457298489,
				"element": "C" 
			},
			{
				"x": -0.775521505,
				"y": -3.048406305,
				"z": 2.5807597601,
				"element": "C" 
			},
			{
				"x": -0.4487740342,
				"y": -4.1371233642,
				"z": 3.0302048767,
				"element": "O" 
			},
			{
				"x": -1.7586361899,
				"y": -2.8835140637,
				"z": 1.43698321,
				"element": "C" 
			},
			{
				"x": -2.5614734724,
				"y": -1.5946635983,
				"z": 1.6136505569,
				"element": "C" 
			},
			{
				"x": -1.7250591444,
				"y": -0.2911706787,
				"z": 1.7552575468,
				"element": "C" 
			},
			{
				"x": -2.7015741855,
				"y": 0.7440727515,
				"z": 2.3700729638,
				"element": "C" 
			},
			{
				"x": -1.1146185068,
				"y": 0.2001595993,
				"z": 0.3886502754,
				"element": "C" 
			},
			{
				"x": -2.0969055218,
				"y": 0.4505563052,
				"z": -0.7632627853,
				"element": "C" 
			},
			{
				"x": -1.3159092668,
				"y": 0.4205721002,
				"z": -2.0878328202,
				"element": "C" 
			},
			{
				"x": -0.0940700479,
				"y": 1.389122654,
				"z": -2.1196121435,
				"element": "C" 
			},
			{
				"x": -0.3396199976,
				"y": 2.4202671392,
				"z": -3.2511886076,
				"element": "C" 
			},
			{
				"x": 0.1267449269,
				"y": 1.6505056115,
				"z": 3.896426418,
				"element": "C" 
			},
			{
				"x": 1.2600619578,
				"y": 2.1674264685,
				"z": 4.427041878,
				"element": "F" 
			},
			{
				"x": -0.6082430581,
				"y": 1.1540003184,
				"z": 4.9116369137,
				"element": "F" 
			},
			{
				"x": -0.5548036596,
				"y": 2.7079609451,
				"z": 3.3876637677,
				"element": "F" 
			},
			{
				"x": 1.6077719122,
				"y": 0.435753193,
				"z": -3.8466146107,
				"element": "C" 
			},
			{
				"x": 1.0774209762,
				"y": -0.8301329522,
				"z": -4.4971064152,
				"element": "C" 
			},
			{
				"x": 2.1942883643,
				"y": 1.2735263094,
				"z": -4.5027886664,
				"element": "O" 
			},
			{
				"x": 1.3206810186,
				"y": -3.1947157177,
				"z": -1.1781562726,
				"element": "H" 
			},
			{
				"x": 3.0632084751,
				"y": -3.2060626263,
				"z": -0.7953540312,
				"element": "H" 
			},
			{
				"x": 1.9032268326,
				"y": -2.3176253288,
				"z": 0.2357819871,
				"element": "H" 
			},
			{
				"x": 2.9778867645,
				"y": 2.0886917238,
				"z": -2.4803187695,
				"element": "H" 
			},
			{
				"x": 3.0036098676,
				"y": 1.0931352548,
				"z": -1.0367670719,
				"element": "H" 
			},
			{
				"x": 1.5193003256,
				"y": 3.6627213477,
				"z": -1.5190104062,
				"element": "H" 
			},
			{
				"x": 2.0191823995,
				"y": 3.0019044924,
				"z": 0.0127839404,
				"element": "H" 
			},
			{
				"x": -0.5840877429,
				"y": 3.0371980559,
				"z": -0.8282361644,
				"element": "H" 
			},
			{
				"x": -0.8497282929,
				"y": 2.196232482,
				"z": 1.1074241003,
				"element": "H" 
			},
			{
				"x": 1.5436641675,
				"y": 2.0540624082,
				"z": 1.7167475045,
				"element": "H" 
			},
			{
				"x": 1.617764683,
				"y": 0.4301213155,
				"z": 1.046276476,
				"element": "H" 
			},
			{
				"x": 1.3727324618,
				"y": 0.1089646443,
				"z": 3.3458985574,
				"element": "H" 
			},
			{
				"x": 0.7272478581,
				"y": -1.9369800823,
				"z": 3.6773401214,
				"element": "H" 
			},
			{
				"x": -1.1794558679,
				"y": -2.864223123,
				"z": 0.5028248109,
				"element": "H" 
			},
			{
				"x": -2.4053928175,
				"y": -3.7642504065,
				"z": 1.3932544838,
				"element": "H" 
			},
			{
				"x": -3.2830198969,
				"y": -1.4797450454,
				"z": 0.7999835457,
				"element": "H" 
			},
			{
				"x": -3.1601410234,
				"y": -1.6982970674,
				"z": 2.5271300736,
				"element": "H" 
			},
			{
				"x": -2.9861304892,
				"y": 0.4412051554,
				"z": 3.3821379422,
				"element": "H" 
			},
			{
				"x": -2.3038866492,
				"y": 1.75379715,
				"z": 2.4321030992,
				"element": "H" 
			},
			{
				"x": -3.6140003088,
				"y": 0.7801039579,
				"z": 1.7655546379,
				"element": "H" 
			},
			{
				"x": -0.4531008449,
				"y": -0.6085494039,
				"z": 0.0553087458,
				"element": "H" 
			},
			{
				"x": -2.879970826,
				"y": -0.3126379605,
				"z": -0.808074252,
				"element": "H" 
			},
			{
				"x": -2.6095447105,
				"y": 1.4128583073,
				"z": -0.6327585318,
				"element": "H" 
			},
			{
				"x": -0.9832514272,
				"y": -0.6089444766,
				"z": -2.2460850009,
				"element": "H" 
			},
			{
				"x": -1.9924082916,
				"y": 0.6595261671,
				"z": -2.9154948346,
				"element": "H" 
			},
			{
				"x": 0.498011361,
				"y": 3.1028306419,
				"z": -3.4058899947,
				"element": "H" 
			},
			{
				"x": -0.5291967255,
				"y": 1.9238118521,
				"z": -4.20711817,
				"element": "H" 
			},
			{
				"x": -1.2277544656,
				"y": 3.0119060701,
				"z": -3.0069040766,
				"element": "H" 
			},
			{
				"x": 0.9893412076,
				"y": -0.6535075239,
				"z": -5.5703080876,
				"element": "H" 
			},
			{
				"x": 1.799148919,
				"y": -1.6384387767,
				"z": -4.3425585295,
				"element": "H" 
			},
			{
				"x": 0.1174980984,
				"y": -1.1498597015,
				"z": -4.085120824,
				"element": "H" 
			}
		],
		 "valence_orbital": [ 
			{
				"type": "occ",
				"energy": -0.29668,
				"method": "rhf"
			},
			{
				"type": "occ",
				"energy": -0.2848,
				"method": "rhf"
			},
			{
				"type": "occ",
				"energy": -0.2685,
				"method": "rhf"
			},
			{
				"type": "occ",
				"energy": -0.24954,
				"method": "rhf"
			},
			{
				"type": "occ",
				"energy": -0.2432,
				"method": "rhf"
			},
			{
				"type": "unocc",
				"energy": -0.06021,
				"method": "rhf"
			},
			{
				"type": "unocc",
				"energy": -0.02312,
				"method": "rhf"
			},
			{
				"type": "unocc",
				"energy": -0.00777,
				"method": "rhf"
			},
			{
				"type": "unocc",
				"energy": 0.03583,
				"method": "rhf"
			},
			{
				"type": "unocc",
				"energy": 0.06058,
				"method": "rhf"
			}
		],
		"cosmo_sigma_profile": { 
			"-0.025": 0.0,
			"-0.024": 0.0,
			"-0.023": 0.0,
			"-0.022": 0.0,
			"-0.021": 0.0,
			"-0.02": 0.0,
			"-0.019": 0.0,
			"-0.018": 0.0,
			"-0.017": 0.0,
			"-0.016": 0.0,
			"-0.015": 0.0,
			"-0.014": 0.0,
			"-0.013": 0.0,
			"-0.012": 0.0,
			"-0.011": 0.0,
			"-0.01": 0.0,
			"-0.009": 0.0,
			"-0.008": 0.776079801634,
			"-0.007": 4.08688899009,
			"-0.006": 8.01027789781,
			"-0.005": 20.9486814548,
			"-0.004": 39.6985110815,
			"-0.003": 66.8790728135,
			"-0.002": 63.6791122,
			"-0.001": 50.427127361,
			"0.0": 38.0307760439,
			"0.001": 25.1119536326,
			"0.002": 21.0484781137,
			"0.003": 31.518060461,
			"0.004": 6.25459497538,
			"0.005": 5.15935987341,
			"0.006": 4.30662622049,
			"0.007": 5.69222535226,
			"0.008": 4.8976619086,
			"0.009": 4.66024746941,
			"0.01": 5.27939839249,
			"0.011": 9.40840144965,
			"0.012": 8.98866996865,
			"0.013": 5.36779591739,
			"0.014": 1.8851514245,
			"0.015": 0.0174097482784,
			"0.016": 0.0,
			"0.017": 0.0,
			"0.018": 0.0,
			"0.019": 0.0,
			"0.02": 0.0,
			"0.021": 0.0,
			"0.022": 0.0,
			"0.023": 0.0,
			"0.024": 0.0,
			"0.025": 0.0
		}
	}
}
