{
	 "smiles": "SC1=NN=C(N1C1=CC=CC=C1)C1=CC=CO1", 
	 "Tm": 395.15, 
	 "num_atms": 26, 
	 "gaussian": { 
		 "optdone": 1, 
		 "sigma_profile": "yes", 
		 "theory": "DFT", 
		 "functional": "B3LYP", 
		 "basiset": "6-31G**", 
		 "properties": { 
			 "R2extent": 5605.1529, 
			 "electric_dipole_moment_norm": 7.6607252594, 
			 "electric_quadrupole_moment_norm": 25.908220403, 
			 "total_energy": -1100.30372242, 
			 "HOMO_LUMO_gap": 0.17246, 
			 "cosmo_polarized_energy": -19.77, 
			 "cosmo_cavitation_energy": 33.04, 
			 "cosmo_dispersion_energy": -23.34, 
			 "cosmo_repulsion_energy": 1.76, 
			 "cosmo_total_nonelectrostatic_energy": 11.46, 
			 "SMD_solvation_energy": 4.24 
		},
		"coords": [
			{
				"x": 2.2748576519,
				"y": -1.1448652665,
				"z": -1.7305088772,
				"element": "S" 
			},
			{
				"x": 0.6152272645,
				"y": -1.1122519329,
				"z": -2.3298147859,
				"element": "C" 
			},
			{
				"x": 0.2914806498,
				"y": -1.3159717491,
				"z": -3.5840325322,
				"element": "N" 
			},
			{
				"x": -1.0604124894,
				"y": -1.1072897533,
				"z": -3.7044080759,
				"element": "N" 
			},
			{
				"x": -1.5329224943,
				"y": -0.7954253227,
				"z": -2.5123797935,
				"element": "C" 
			},
			{
				"x": -0.5009902938,
				"y": -0.7681757651,
				"z": -1.5862826905,
				"element": "N" 
			},
			{
				"x": -0.5527754563,
				"y": -0.501869812,
				"z": -0.180298311,
				"element": "C" 
			},
			{
				"x": -0.2604434371,
				"y": 0.7808074592,
				"z": 0.2919695903,
				"element": "C" 
			},
			{
				"x": -0.3070462415,
				"y": 1.0330882216,
				"z": 1.6633044386,
				"element": "C" 
			},
			{
				"x": -0.6427512531,
				"y": 0.0108976555,
				"z": 2.5545776617,
				"element": "C" 
			},
			{
				"x": -0.9305567015,
				"y": -1.2693033356,
				"z": 2.0758662017,
				"element": "C" 
			},
			{
				"x": -0.8849647723,
				"y": -1.5311432183,
				"z": 0.7059208097,
				"element": "C" 
			},
			{
				"x": -2.9248844493,
				"y": -0.5246223466,
				"z": -2.2150194199,
				"element": "C" 
			},
			{
				"x": -3.6072644034,
				"y": -0.0573145667,
				"z": -1.1181913621,
				"element": "C" 
			},
			{
				"x": -4.9841252282,
				"y": 0.0002087511,
				"z": -1.4957229777,
				"element": "C" 
			},
			{
				"x": -5.0403739792,
				"y": -0.432200132,
				"z": -2.7867947882,
				"element": "C" 
			},
			{
				"x": -3.8016070462,
				"y": -0.7555357903,
				"z": -3.2383037463,
				"element": "O" 
			},
			{
				"x": 1.998529024,
				"y": -1.7383264647,
				"z": -0.5505282441,
				"element": "H" 
			},
			{
				"x": -0.0004675951,
				"y": 1.5628101597,
				"z": -0.4137278924,
				"element": "H" 
			},
			{
				"x": -0.080356428,
				"y": 2.0278061412,
				"z": 2.0344199577,
				"element": "H" 
			},
			{
				"x": -0.6785655604,
				"y": 0.2116501391,
				"z": 3.6210684451,
				"element": "H" 
			},
			{
				"x": -1.1909338257,
				"y": -2.065039483,
				"z": 2.7670045965,
				"element": "H" 
			},
			{
				"x": -1.1111567109,
				"y": -2.5189302419,
				"z": 0.3169698722,
				"element": "H" 
			},
			{
				"x": -3.1851576368,
				"y": 0.2194586236,
				"z": -0.1651063272,
				"element": "H" 
			},
			{
				"x": -5.8150419277,
				"y": 0.3225458869,
				"z": -0.8852971103,
				"element": "H" 
			},
			{
				"x": -5.84439666,
				"y": -0.5640078574,
				"z": -3.4939846391,
				"element": "H" 
			}
		],
		 "valence_orbital": [ 
			{
				"type": "occ",
				"energy": -0.28438,
				"method": "rhf"
			},
			{
				"type": "occ",
				"energy": -0.28088,
				"method": "rhf"
			},
			{
				"type": "occ",
				"energy": -0.25918,
				"method": "rhf"
			},
			{
				"type": "occ",
				"energy": -0.248,
				"method": "rhf"
			},
			{
				"type": "occ",
				"energy": -0.21155,
				"method": "rhf"
			},
			{
				"type": "unocc",
				"energy": -0.03909,
				"method": "rhf"
			},
			{
				"type": "unocc",
				"energy": -0.03392,
				"method": "rhf"
			},
			{
				"type": "unocc",
				"energy": -0.03071,
				"method": "rhf"
			},
			{
				"type": "unocc",
				"energy": 0.01069,
				"method": "rhf"
			},
			{
				"type": "unocc",
				"energy": 0.03719,
				"method": "rhf"
			}
		],
		"cosmo_sigma_profile": { 
			"-0.025": 0.0,
			"-0.024": 0.0,
			"-0.023": 0.0,
			"-0.022": 0.0,
			"-0.021": 0.0,
			"-0.02": 0.0,
			"-0.019": 0.0,
			"-0.018": 0.0,
			"-0.017": 0.0,
			"-0.016": 0.0,
			"-0.015": 0.0,
			"-0.014": 0.0,
			"-0.013": 0.0,
			"-0.012": 0.406498925427,
			"-0.011": 1.26071100053,
			"-0.01": 2.14203208219,
			"-0.009": 4.05834874273,
			"-0.008": 5.32927413687,
			"-0.007": 13.3470816965,
			"-0.006": 17.8997774838,
			"-0.005": 20.7399334938,
			"-0.004": 17.8448461693,
			"-0.003": 16.0445653482,
			"-0.002": 16.0322757979,
			"-0.001": 16.2603954329,
			"0.0": 19.5184698891,
			"0.001": 21.866396899,
			"0.002": 21.6267419953,
			"0.003": 19.0587950062,
			"0.004": 12.8322195548,
			"0.005": 6.07625251243,
			"0.006": 5.50985158298,
			"0.007": 4.51753018531,
			"0.008": 2.19862235481,
			"0.009": 3.57259022116,
			"0.01": 2.70327305777,
			"0.011": 3.6038540817,
			"0.012": 3.32944242888,
			"0.013": 3.6929081723,
			"0.014": 3.21668001031,
			"0.015": 2.74485947849,
			"0.016": 1.75470589496,
			"0.017": 0.252930762408,
			"0.018": 0.0,
			"0.019": 0.0,
			"0.02": 0.0,
			"0.021": 0.0,
			"0.022": 0.0,
			"0.023": 0.0,
			"0.024": 0.0,
			"0.025": 0.0
		}
	}
}
