{
	 "smiles": "CC(=O)O[Si](OC(C)=O)(OC(C)(C)C)OC(C)(C)C", 
	 "Tm": 269.15, 
	 "num_atms": 43, 
	 "gaussian": { 
		 "optdone": 1, 
		 "sigma_profile": "yes", 
		 "theory": "DFT", 
		 "functional": "B3LYP", 
		 "basiset": "6-31G**", 
		 "properties": { 
			 "R2extent": 5765.2575, 
			 "electric_dipole_moment_norm": 1.24339561685, 
			 "electric_quadrupole_moment_norm": 7.19926850451, 
			 "total_energy": -1212.82339875, 
			 "HOMO_LUMO_gap": 0.26927, 
			 "cosmo_polarized_energy": -11.9, 
			 "cosmo_cavitation_energy": 45.84, 
			 "cosmo_dispersion_energy": -27.21, 
			 "cosmo_repulsion_energy": 2.21, 
			 "cosmo_total_nonelectrostatic_energy": 20.84, 
			 "SMD_solvation_energy": 9.94 
		},
		"coords": [
			{
				"x": -0.6252297097,
				"y": 2.7707933643,
				"z": -1.9222924804,
				"element": "C" 
			},
			{
				"x": -1.0406698004,
				"y": 1.5702335969,
				"z": -1.1112139033,
				"element": "C" 
			},
			{
				"x": -2.1719790169,
				"y": 1.3234845759,
				"z": -0.7573724751,
				"element": "O" 
			},
			{
				"x": 0.0248072558,
				"y": 0.7829595819,
				"z": -0.8050923745,
				"element": "O" 
			},
			{
				"x": -0.0697238925,
				"y": -0.6527423437,
				"z": 0.0661303032,
				"element": "Si" 
			},
			{
				"x": -1.090571065,
				"y": -0.4846585412,
				"z": 1.4026967401,
				"element": "O" 
			},
			{
				"x": -1.2375726631,
				"y": 0.6376752565,
				"z": 2.1507795733,
				"element": "C" 
			},
			{
				"x": -2.5149319651,
				"y": 0.618305737,
				"z": 2.9477742902,
				"element": "C" 
			},
			{
				"x": -0.4268395653,
				"y": 1.5392602389,
				"z": 2.1555878299,
				"element": "O" 
			},
			{
				"x": -0.7211519929,
				"y": -1.7614521629,
				"z": -0.921121436,
				"element": "O" 
			},
			{
				"x": -1.4089165605,
				"y": -3.0193985002,
				"z": -0.7058086737,
				"element": "C" 
			},
			{
				"x": -1.2381744019,
				"y": -3.7977402084,
				"z": -2.0139673177,
				"element": "C" 
			},
			{
				"x": -0.7754806286,
				"y": -3.780630311,
				"z": 0.4654310999,
				"element": "C" 
			},
			{
				"x": -2.8869810173,
				"y": -2.7128783409,
				"z": -0.4380647498,
				"element": "C" 
			},
			{
				"x": 1.4332879887,
				"y": -1.104917654,
				"z": 0.468832126,
				"element": "O" 
			},
			{
				"x": 2.5575629056,
				"y": -0.5787883346,
				"z": 1.2217418164,
				"element": "C" 
			},
			{
				"x": 3.7467935424,
				"y": -1.4518558814,
				"z": 0.8081427125,
				"element": "C" 
			},
			{
				"x": 2.2607030598,
				"y": -0.7346354118,
				"z": 2.7177710991,
				"element": "C" 
			},
			{
				"x": 2.8013684336,
				"y": 0.8892019813,
				"z": 0.8558133506,
				"element": "C" 
			},
			{
				"x": -1.5029243698,
				"y": 3.3603290086,
				"z": -2.1849881786,
				"element": "H" 
			},
			{
				"x": 0.073304656,
				"y": 3.3788960183,
				"z": -1.339323378,
				"element": "H" 
			},
			{
				"x": -0.1004074894,
				"y": 2.4478819748,
				"z": -2.8260083091,
				"element": "H" 
			},
			{
				"x": -3.3554880322,
				"y": 0.7089794779,
				"z": 2.2520596815,
				"element": "H" 
			},
			{
				"x": -2.5272984076,
				"y": 1.4510267296,
				"z": 3.6503603512,
				"element": "H" 
			},
			{
				"x": -2.6235541586,
				"y": -0.3325701497,
				"z": 3.4760434122,
				"element": "H" 
			},
			{
				"x": -1.7587738237,
				"y": -4.7592398251,
				"z": -1.9617829311,
				"element": "H" 
			},
			{
				"x": -1.6480973646,
				"y": -3.225161736,
				"z": -2.8507592372,
				"element": "H" 
			},
			{
				"x": -0.1786707658,
				"y": -3.9845418933,
				"z": -2.2117083752,
				"element": "H" 
			},
			{
				"x": -1.2527814379,
				"y": -4.7586893182,
				"z": 0.5840187652,
				"element": "H" 
			},
			{
				"x": -0.8997480004,
				"y": -3.2306390112,
				"z": 1.4035085539,
				"element": "H" 
			},
			{
				"x": 0.2929987766,
				"y": -3.9355558468,
				"z": 0.2912757923,
				"element": "H" 
			},
			{
				"x": -3.4602359935,
				"y": -3.6404727832,
				"z": -0.3365617931,
				"element": "H" 
			},
			{
				"x": -2.998081538,
				"y": -2.1316606472,
				"z": 0.4805647828,
				"element": "H" 
			},
			{
				"x": -3.307210689,
				"y": -2.1315059942,
				"z": -1.2634208766,
				"element": "H" 
			},
			{
				"x": 3.9253906864,
				"y": -1.3668564556,
				"z": -0.267622596,
				"element": "H" 
			},
			{
				"x": 4.6533866349,
				"y": -1.142419744,
				"z": 1.3375451051,
				"element": "H" 
			},
			{
				"x": 3.5493320042,
				"y": -2.5022922715,
				"z": 1.0415155381,
				"element": "H" 
			},
			{
				"x": 2.014139974,
				"y": -1.7748881544,
				"z": 2.9508752257,
				"element": "H" 
			},
			{
				"x": 3.1361299866,
				"y": -0.4484079999,
				"z": 3.3098873271,
				"element": "H" 
			},
			{
				"x": 1.4277147524,
				"y": -0.0942548104,
				"z": 3.0169372265,
				"element": "H" 
			},
			{
				"x": 2.9591016378,
				"y": 0.9948669735,
				"z": -0.2212956847,
				"element": "H" 
			},
			{
				"x": 3.6930264786,
				"y": 1.2583525496,
				"z": 1.3732821924,
				"element": "H" 
			},
			{
				"x": 1.950745576,
				"y": 1.5084072658,
				"z": 1.1500298752,
				"element": "H" 
			}
		],
		 "valence_orbital": [ 
			{
				"type": "occ",
				"energy": -0.30175,
				"method": "rhf"
			},
			{
				"type": "occ",
				"energy": -0.28989,
				"method": "rhf"
			},
			{
				"type": "occ",
				"energy": -0.28128,
				"method": "rhf"
			},
			{
				"type": "occ",
				"energy": -0.27364,
				"method": "rhf"
			},
			{
				"type": "occ",
				"energy": -0.2699,
				"method": "rhf"
			},
			{
				"type": "unocc",
				"energy": -0.00063,
				"method": "rhf"
			},
			{
				"type": "unocc",
				"energy": 0.00927,
				"method": "rhf"
			},
			{
				"type": "unocc",
				"energy": 0.06266,
				"method": "rhf"
			},
			{
				"type": "unocc",
				"energy": 0.08885,
				"method": "rhf"
			},
			{
				"type": "unocc",
				"energy": 0.09008,
				"method": "rhf"
			}
		],
		"cosmo_sigma_profile": { 
			"-0.025": 0.0,
			"-0.024": 0.0,
			"-0.023": 0.0,
			"-0.022": 0.0,
			"-0.021": 0.0,
			"-0.02": 0.0,
			"-0.019": 0.0,
			"-0.018": 0.0,
			"-0.017": 0.0,
			"-0.016": 0.0,
			"-0.015": 0.0,
			"-0.014": 0.0,
			"-0.013": 0.0,
			"-0.012": 0.0,
			"-0.011": 0.0,
			"-0.01": 0.0,
			"-0.009": 0.0,
			"-0.008": 0.0,
			"-0.007": 2.62050057708,
			"-0.006": 10.3117322328,
			"-0.005": 11.2622442734,
			"-0.004": 30.5419383401,
			"-0.003": 43.5195937286,
			"-0.002": 44.6716569784,
			"-0.001": 40.7306346791,
			"0.0": 45.3550674645,
			"0.001": 36.3453132316,
			"0.002": 14.8465510362,
			"0.003": 12.5928644429,
			"0.004": 10.0872563629,
			"0.005": 10.1874003312,
			"0.006": 8.38856209883,
			"0.007": 6.83179876782,
			"0.008": 6.6012346338,
			"0.009": 5.41846440242,
			"0.01": 4.82408890509,
			"0.011": 3.71284289036,
			"0.012": 3.11030035082,
			"0.013": 0.297228857151,
			"0.014": 0.0,
			"0.015": 0.0,
			"0.016": 0.0,
			"0.017": 0.0,
			"0.018": 0.0,
			"0.019": 0.0,
			"0.02": 0.0,
			"0.021": 0.0,
			"0.022": 0.0,
			"0.023": 0.0,
			"0.024": 0.0,
			"0.025": 0.0
		}
	}
}
