{
	 "smiles": "OC(=O)C1=C2C=CC=CC2=NC(=C1)C1=CC(Br)=CC=C1", 
	 "Tm": 489.15, 
	 "num_atms": 30, 
	 "gaussian": { 
		 "optdone": 1, 
		 "sigma_profile": "yes", 
		 "theory": "DFT", 
		 "functional": "B3LYP", 
		 "basiset": "6-31G**", 
		 "properties": { 
			 "R2extent": 9832.7638, 
			 "electric_dipole_moment_norm": 3.1416825126, 
			 "electric_quadrupole_moment_norm": 13.7119314631, 
			 "total_energy": -3392.36255995, 
			 "HOMO_LUMO_gap": 0.14571, 
			 "cosmo_polarized_energy": -11.79, 
			 "cosmo_cavitation_energy": 37.28, 
			 "cosmo_dispersion_energy": -27.76, 
			 "cosmo_repulsion_energy": 2.09, 
			 "cosmo_total_nonelectrostatic_energy": 11.61, 
			 "SMD_solvation_energy": 5.02 
		},
		"coords": [
			{
				"x": -2.5432910611,
				"y": 2.8851922883,
				"z": -2.629332133,
				"element": "O" 
			},
			{
				"x": -1.9636583691,
				"y": 1.6629588116,
				"z": -2.6368422065,
				"element": "C" 
			},
			{
				"x": -2.0010655205,
				"y": 0.9565126994,
				"z": -3.6248855114,
				"element": "O" 
			},
			{
				"x": -1.302865263,
				"y": 1.2565737845,
				"z": -1.3511696564,
				"element": "C" 
			},
			{
				"x": -1.1096320201,
				"y": 2.0713793014,
				"z": -0.1852748121,
				"element": "C" 
			},
			{
				"x": -1.4815571721,
				"y": 3.4357558623,
				"z": -0.0355291222,
				"element": "C" 
			},
			{
				"x": -1.2402011517,
				"y": 4.1074638226,
				"z": 1.1438521947,
				"element": "C" 
			},
			{
				"x": -0.6177418686,
				"y": 3.4628689032,
				"z": 2.2383793995,
				"element": "C" 
			},
			{
				"x": -0.2396307333,
				"y": 2.1464417025,
				"z": 2.1301695231,
				"element": "C" 
			},
			{
				"x": -0.4683475538,
				"y": 1.4219587879,
				"z": 0.9282202634,
				"element": "C" 
			},
			{
				"x": -0.0503758294,
				"y": 0.1297554863,
				"z": 0.9055667027,
				"element": "N" 
			},
			{
				"x": -0.2232434706,
				"y": -0.5936031436,
				"z": -0.1897967253,
				"element": "C" 
			},
			{
				"x": -0.8579753015,
				"y": -0.0500561825,
				"z": -1.3374316218,
				"element": "C" 
			},
			{
				"x": 0.259194891,
				"y": -2.0022354195,
				"z": -0.1592607051,
				"element": "C" 
			},
			{
				"x": 0.605804854,
				"y": -2.5742538601,
				"z": 1.0767547037,
				"element": "C" 
			},
			{
				"x": 1.055355222,
				"y": -3.8870077425,
				"z": 1.1277230075,
				"element": "C" 
			},
			{
				"x": 1.51358937,
				"y": -4.6536416102,
				"z": 2.8206481906,
				"element": "Br" 
			},
			{
				"x": 1.1806509383,
				"y": -4.6637150325,
				"z": -0.0243961399,
				"element": "C" 
			},
			{
				"x": 0.8449006924,
				"y": -4.0919943319,
				"z": -1.2513147728,
				"element": "C" 
			},
			{
				"x": 0.3884895359,
				"y": -2.7765417491,
				"z": -1.3230154285,
				"element": "C" 
			},
			{
				"x": -2.9259996909,
				"y": 2.9960145285,
				"z": -3.5162902489,
				"element": "H" 
			},
			{
				"x": -1.9596125917,
				"y": 3.9489469342,
				"z": -0.8567306519,
				"element": "H" 
			},
			{
				"x": -1.5334168044,
				"y": 5.149562438,
				"z": 1.2320600648,
				"element": "H" 
			},
			{
				"x": -0.4385051494,
				"y": 4.0110689341,
				"z": 3.1585277608,
				"element": "H" 
			},
			{
				"x": 0.2449425516,
				"y": 1.6160322377,
				"z": 2.9429343409,
				"element": "H" 
			},
			{
				"x": -1.0270493423,
				"y": -0.6479030187,
				"z": -2.2233010183,
				"element": "H" 
			},
			{
				"x": 0.5169934337,
				"y": -1.9767834251,
				"z": 1.9747975261,
				"element": "H" 
			},
			{
				"x": 1.5336835955,
				"y": -5.686556312,
				"z": 0.0382817779,
				"element": "H" 
			},
			{
				"x": 0.9447576123,
				"y": -4.6785592027,
				"z": -2.1596763556,
				"element": "H" 
			},
			{
				"x": 0.1530061968,
				"y": -2.3561354921,
				"z": -2.2943683462,
				"element": "H" 
			}
		],
		 "valence_orbital": [ 
			{
				"type": "occ",
				"energy": -0.27965,
				"method": "rhf"
			},
			{
				"type": "occ",
				"energy": -0.26701,
				"method": "rhf"
			},
			{
				"type": "occ",
				"energy": -0.25057,
				"method": "rhf"
			},
			{
				"type": "occ",
				"energy": -0.24279,
				"method": "rhf"
			},
			{
				"type": "occ",
				"energy": -0.2325,
				"method": "rhf"
			},
			{
				"type": "unocc",
				"energy": -0.08679,
				"method": "rhf"
			},
			{
				"type": "unocc",
				"energy": -0.04565,
				"method": "rhf"
			},
			{
				"type": "unocc",
				"energy": -0.013,
				"method": "rhf"
			},
			{
				"type": "unocc",
				"energy": -0.01268,
				"method": "rhf"
			},
			{
				"type": "unocc",
				"energy": 0.0036,
				"method": "rhf"
			}
		],
		"cosmo_sigma_profile": { 
			"-0.025": 0.0,
			"-0.024": 0.0,
			"-0.023": 0.0,
			"-0.022": 0.0,
			"-0.021": 0.0,
			"-0.02": 0.0,
			"-0.019": 0.310287209843,
			"-0.018": 1.31238357392,
			"-0.017": 0.465950244002,
			"-0.016": 0.937489516418,
			"-0.015": 0.790048716457,
			"-0.014": 0.52256820976,
			"-0.013": 0.541848600286,
			"-0.012": 0.845233370585,
			"-0.011": 0.91987828596,
			"-0.01": 0.567984424351,
			"-0.009": 1.37199410193,
			"-0.008": 3.17136051212,
			"-0.007": 6.93499094859,
			"-0.006": 13.2559057541,
			"-0.005": 15.3554451372,
			"-0.004": 17.8189106898,
			"-0.003": 16.9861406389,
			"-0.002": 17.5797904136,
			"-0.001": 24.5298908629,
			"0.0": 27.1274715418,
			"0.001": 28.4037640849,
			"0.002": 33.9878423958,
			"0.003": 36.5674212701,
			"0.004": 24.0036973165,
			"0.005": 10.4305839003,
			"0.006": 3.22814180514,
			"0.007": 2.9608732359,
			"0.008": 2.52814896372,
			"0.009": 2.58735086377,
			"0.01": 3.01179429717,
			"0.011": 4.69237588957,
			"0.012": 0.71276066674,
			"0.013": 0.0,
			"0.014": 0.0,
			"0.015": 0.0,
			"0.016": 0.0,
			"0.017": 0.0,
			"0.018": 0.0,
			"0.019": 0.0,
			"0.02": 0.0,
			"0.021": 0.0,
			"0.022": 0.0,
			"0.023": 0.0,
			"0.024": 0.0,
			"0.0": 0.0
		}
	}
}
