{
	 "smiles": "O=C1C=COC2=C1C=CC=C2", 
	 "Tm": 332.15, 
	 "num_atms": 17, 
	 "gaussian": { 
		 "optdone": 1, 
		 "sigma_profile": "yes", 
		 "theory": "DFT", 
		 "functional": "B3LYP", 
		 "basiset": "6-31G**", 
		 "properties": { 
			 "R2extent": 2115.0135, 
			 "electric_dipole_moment_norm": 3.45367504696, 
			 "electric_quadrupole_moment_norm": 17.710322204, 
			 "total_energy": -497.009326885, 
			 "HOMO_LUMO_gap": 0.186, 
			 "cosmo_polarized_energy": -9.91, 
			 "cosmo_cavitation_energy": 21.38, 
			 "cosmo_dispersion_energy": -16.23, 
			 "cosmo_repulsion_energy": 1.27, 
			 "cosmo_total_nonelectrostatic_energy": 6.42, 
			 "SMD_solvation_energy": 5.07 
		},
		"coords": [
			{
				"x": 1.9478439127,
				"y": 3.4337842359,
				"z": -1.2678540449,
				"element": "O" 
			},
			{
				"x": 1.9257556631,
				"y": 2.2711344501,
				"z": -0.8698371769,
				"element": "C" 
			},
			{
				"x": 3.032170228,
				"y": 1.330195763,
				"z": -1.0498967385,
				"element": "C" 
			},
			{
				"x": 2.9530639792,
				"y": 0.0649136965,
				"z": -0.5936808986,
				"element": "C" 
			},
			{
				"x": 1.884706693,
				"y": -0.4549850336,
				"z": 0.0549391238,
				"element": "O" 
			},
			{
				"x": 0.7928316423,
				"y": 0.3507487742,
				"z": 0.272770734,
				"element": "C" 
			},
			{
				"x": 0.7630995915,
				"y": 1.6855397699,
				"z": -0.1580621053,
				"element": "C" 
			},
			{
				"x": -0.3891306664,
				"y": 2.4462655573,
				"z": 0.1013648366,
				"element": "C" 
			},
			{
				"x": -1.4690323637,
				"y": 1.8872195983,
				"z": 0.7677276905,
				"element": "C" 
			},
			{
				"x": -1.4149152621,
				"y": 0.5477722423,
				"z": 1.189318132,
				"element": "C" 
			},
			{
				"x": -0.2882693811,
				"y": -0.2269625788,
				"z": 0.9459066821,
				"element": "C" 
			},
			{
				"x": 3.9266061025,
				"y": 1.6672595834,
				"z": -1.5604506277,
				"element": "H" 
			},
			{
				"x": 3.7382279684,
				"y": -0.6756066371,
				"z": -0.6969737315,
				"element": "H" 
			},
			{
				"x": -0.3926629034,
				"y": 3.4765636223,
				"z": -0.2397851039,
				"element": "H" 
			},
			{
				"x": -2.3563827161,
				"y": 2.4805208494,
				"z": 0.9650453109,
				"element": "H" 
			},
			{
				"x": -2.2603365097,
				"y": 0.1093268622,
				"z": 1.7112584347,
				"element": "H" 
			},
			{
				"x": -0.2233759783,
				"y": -1.2626907554,
				"z": 1.2616094827,
				"element": "H" 
			}
		],
		 "valence_orbital": [ 
			{
				"type": "occ",
				"energy": -0.35199,
				"method": "rhf"
			},
			{
				"type": "occ",
				"energy": -0.28103,
				"method": "rhf"
			},
			{
				"type": "occ",
				"energy": -0.26532,
				"method": "rhf"
			},
			{
				"type": "occ",
				"energy": -0.24225,
				"method": "rhf"
			},
			{
				"type": "occ",
				"energy": -0.24151,
				"method": "rhf"
			},
			{
				"type": "unocc",
				"energy": -0.05551,
				"method": "rhf"
			},
			{
				"type": "unocc",
				"energy": -0.02201,
				"method": "rhf"
			},
			{
				"type": "unocc",
				"energy": -0.00052,
				"method": "rhf"
			},
			{
				"type": "unocc",
				"energy": 0.08516,
				"method": "rhf"
			},
			{
				"type": "unocc",
				"energy": 0.0854,
				"method": "rhf"
			}
		],
		"cosmo_sigma_profile": { 
			"-0.025": 0.0,
			"-0.024": 0.0,
			"-0.023": 0.0,
			"-0.022": 0.0,
			"-0.021": 0.0,
			"-0.02": 0.0,
			"-0.019": 0.0,
			"-0.018": 0.0,
			"-0.017": 0.0,
			"-0.016": 0.0,
			"-0.015": 0.0,
			"-0.014": 0.0,
			"-0.013": 0.0,
			"-0.012": 0.0,
			"-0.011": 0.00969025702318,
			"-0.01": 1.90778824606,
			"-0.009": 2.15816273912,
			"-0.008": 3.17854828528,
			"-0.007": 8.39110507251,
			"-0.006": 10.7404697888,
			"-0.005": 10.9105265374,
			"-0.004": 10.0300401924,
			"-0.003": 10.653473162,
			"-0.002": 10.6976685707,
			"-0.001": 13.8481759126,
			"0.0": 14.1307263817,
			"0.001": 17.5053043458,
			"0.002": 16.0783019928,
			"0.003": 12.5789299247,
			"0.004": 5.72897038853,
			"0.005": 3.45512835198,
			"0.006": 2.4382742345,
			"0.007": 1.95498282086,
			"0.008": 1.07105216212,
			"0.009": 1.05223530364,
			"0.01": 2.03827039549,
			"0.011": 1.92684162944,
			"0.012": 2.32405450731,
			"0.013": 5.18157456109,
			"0.014": 2.38227752673,
			"0.015": 0.337159396281,
			"0.016": 0.0,
			"0.017": 0.0,
			"0.018": 0.0,
			"0.019": 0.0,
			"0.02": 0.0,
			"0.021": 0.0,
			"0.022": 0.0,
			"0.023": 0.0,
			"0.024": 0.0,
			"0.025": 0.0
		}
	}
}
