{
	 "smiles": "CC(C)N(C)S(=O)(=O)C1=CC=C(NC(=O)CCl)C=C1", 
	 "Tm": 392.15, 
	 "num_atms": 36, 
	 "gaussian": { 
		 "optdone": 1, 
		 "sigma_profile": "yes", 
		 "theory": "DFT", 
		 "functional": "B3LYP", 
		 "basiset": "6-31G**", 
		 "properties": { 
			 "R2extent": 9655.359, 
			 "electric_dipole_moment_norm": 5.53034486719, 
			 "electric_quadrupole_moment_norm": 21.5473497308, 
			 "total_energy": -1661.03219075, 
			 "HOMO_LUMO_gap": 0.18969, 
			 "cosmo_polarized_energy": -19.99, 
			 "cosmo_cavitation_energy": 41.36, 
			 "cosmo_dispersion_energy": -29.38, 
			 "cosmo_repulsion_energy": 2.22, 
			 "cosmo_total_nonelectrostatic_energy": 14.21, 
			 "SMD_solvation_energy": 6.22 
		},
		"coords": [
			{
				"x": 1.6188588251,
				"y": -1.5635281286,
				"z": -1.5085258269,
				"element": "C" 
			},
			{
				"x": 2.5294829498,
				"y": -1.7627398517,
				"z": -0.2875551652,
				"element": "C" 
			},
			{
				"x": 3.6387177494,
				"y": -2.7880891082,
				"z": -0.5581256324,
				"element": "C" 
			},
			{
				"x": 1.7859031498,
				"y": -2.1428694868,
				"z": 0.9411742482,
				"element": "N" 
			},
			{
				"x": 0.840226973,
				"y": -3.258488726,
				"z": 0.8767221241,
				"element": "C" 
			},
			{
				"x": 1.4980154031,
				"y": -0.9765978872,
				"z": 2.1158355313,
				"element": "S" 
			},
			{
				"x": 1.0849000195,
				"y": -1.7026081514,
				"z": 3.3200951425,
				"element": "O" 
			},
			{
				"x": 2.657091663,
				"y": -0.0796716389,
				"z": 2.1067564464,
				"element": "O" 
			},
			{
				"x": 0.0783544301,
				"y": -0.0051406039,
				"z": 1.5937752893,
				"element": "C" 
			},
			{
				"x": -1.210387627,
				"y": -0.4234395035,
				"z": 1.9369493085,
				"element": "C" 
			},
			{
				"x": -2.3061064122,
				"y": 0.3138108865,
				"z": 1.5046408032,
				"element": "C" 
			},
			{
				"x": -2.1263877741,
				"y": 1.4729145523,
				"z": 0.7314437742,
				"element": "C" 
			},
			{
				"x": -3.2870419586,
				"y": 2.165237332,
				"z": 0.3345577724,
				"element": "N" 
			},
			{
				"x": -3.3815876739,
				"y": 3.2931689975,
				"z": -0.4271344846,
				"element": "C" 
			},
			{
				"x": -2.4502342496,
				"y": 3.9173695704,
				"z": -0.9135093036,
				"element": "O" 
			},
			{
				"x": -4.7901322342,
				"y": 3.8352818461,
				"z": -0.6977132865,
				"element": "C" 
			},
			{
				"x": -6.1861087145,
				"y": 2.8965092734,
				"z": -0.0157586262,
				"element": "Cl" 
			},
			{
				"x": -0.8285450536,
				"y": 1.8974063986,
				"z": 0.4012043674,
				"element": "C" 
			},
			{
				"x": 0.2657342094,
				"y": 1.1543824968,
				"z": 0.8374992975,
				"element": "C" 
			},
			{
				"x": 0.8371506045,
				"y": -0.8245830005,
				"z": -1.3109250437,
				"element": "H" 
			},
			{
				"x": 1.1382809661,
				"y": -2.499672381,
				"z": -1.8122855388,
				"element": "H" 
			},
			{
				"x": 2.2108353976,
				"y": -1.2094481524,
				"z": -2.3585044324,
				"element": "H" 
			},
			{
				"x": 3.0146515275,
				"y": -0.8141603716,
				"z": -0.0478509687,
				"element": "H" 
			},
			{
				"x": 4.2475833753,
				"y": -2.4630185504,
				"z": -1.4081040933,
				"element": "H" 
			},
			{
				"x": 3.2325923111,
				"y": -3.7749840752,
				"z": -0.8056905786,
				"element": "H" 
			},
			{
				"x": 4.2862523484,
				"y": -2.889839457,
				"z": 0.3160344322,
				"element": "H" 
			},
			{
				"x": -0.098270297,
				"y": -3.0024789453,
				"z": 0.3645556874,
				"element": "H" 
			},
			{
				"x": 1.3123618175,
				"y": -4.0842550144,
				"z": 0.3392254365,
				"element": "H" 
			},
			{
				"x": 0.6186081973,
				"y": -3.5962189227,
				"z": 1.8888122074,
				"element": "H" 
			},
			{
				"x": -1.346466932,
				"y": -1.300396835,
				"z": 2.5597037083,
				"element": "H" 
			},
			{
				"x": -3.3096279308,
				"y": -0.0044213642,
				"z": 1.7760836726,
				"element": "H" 
			},
			{
				"x": -4.1660476445,
				"y": 1.7767303995,
				"z": 0.6531299618,
				"element": "H" 
			},
			{
				"x": -4.9314124902,
				"y": 3.8850125893,
				"z": -1.777457041,
				"element": "H" 
			},
			{
				"x": -4.8500289204,
				"y": 4.8438451336,
				"z": -0.2876881972,
				"element": "H" 
			},
			{
				"x": -0.6930442569,
				"y": 2.7991014531,
				"z": -0.178774696,
				"element": "H" 
			},
			{
				"x": 1.2724282517,
				"y": 1.4890792272,
				"z": 0.612103704,
				"element": "H" 
			}
		],
		 "valence_orbital": [ 
			{
				"type": "occ",
				"energy": -0.29493,
				"method": "rhf"
			},
			{
				"type": "occ",
				"energy": -0.27939,
				"method": "rhf"
			},
			{
				"type": "occ",
				"energy": -0.27532,
				"method": "rhf"
			},
			{
				"type": "occ",
				"energy": -0.2608,
				"method": "rhf"
			},
			{
				"type": "occ",
				"energy": -0.23751,
				"method": "rhf"
			},
			{
				"type": "unocc",
				"energy": -0.04782,
				"method": "rhf"
			},
			{
				"type": "unocc",
				"energy": -0.02606,
				"method": "rhf"
			},
			{
				"type": "unocc",
				"energy": -0.00211,
				"method": "rhf"
			},
			{
				"type": "unocc",
				"energy": 0.01203,
				"method": "rhf"
			},
			{
				"type": "unocc",
				"energy": 0.05842,
				"method": "rhf"
			}
		],
		"cosmo_sigma_profile": { 
			"-0.025": 0.0,
			"-0.024": 0.0,
			"-0.023": 0.0,
			"-0.022": 0.0,
			"-0.021": 0.0,
			"-0.02": 0.0,
			"-0.019": 0.0,
			"-0.018": 0.0,
			"-0.017": 0.0,
			"-0.016": 0.0,
			"-0.015": 0.0422627078896,
			"-0.014": 0.562769187217,
			"-0.013": 1.10948917803,
			"-0.012": 1.31247402995,
			"-0.011": 1.22901947161,
			"-0.01": 1.72876418419,
			"-0.009": 5.64720536313,
			"-0.008": 6.3038128959,
			"-0.007": 8.56502511757,
			"-0.006": 13.4633542447,
			"-0.005": 16.3807558886,
			"-0.004": 24.4284996562,
			"-0.003": 29.7694435546,
			"-0.002": 30.7083587305,
			"-0.001": 28.2022509934,
			"0.0": 29.528047688,
			"0.001": 24.30447016,
			"0.002": 21.8926153444,
			"0.003": 13.371474214,
			"0.004": 10.8734302818,
			"0.005": 13.0323856462,
			"0.006": 5.27852297941,
			"0.007": 4.68156462317,
			"0.008": 5.11111147991,
			"0.009": 5.06622712572,
			"0.01": 7.54034604579,
			"0.011": 10.505952141,
			"0.012": 8.19196642662,
			"0.013": 0.859573844442,
			"0.014": 0.0,
			"0.015": 0.0,
			"0.016": 0.0,
			"0.017": 0.0,
			"0.018": 0.0,
			"0.019": 0.0,
			"0.02": 0.0,
			"0.021": 0.0,
			"0.022": 0.0,
			"0.023": 0.0,
			"0.024": 0.0,
			"0.025": 0.0
		}
	}
}
