{
	 "smiles": "CC(NC(=O)C1=CC=CS1)C(O)=O", 
	 "Tm": 437.15, 
	 "num_atms": 22, 
	 "gaussian": { 
		 "optdone": 1, 
		 "sigma_profile": "yes", 
		 "theory": "DFT", 
		 "functional": "B3LYP", 
		 "basiset": "6-31G**", 
		 "properties": { 
			 "R2extent": 3620.0124, 
			 "electric_dipole_moment_norm": 3.92117886101, 
			 "electric_quadrupole_moment_norm": 15.7250392705, 
			 "total_energy": -988.880574905, 
			 "HOMO_LUMO_gap": 0.19215, 
			 "cosmo_polarized_energy": -20.15, 
			 "cosmo_cavitation_energy": 27.76, 
			 "cosmo_dispersion_energy": -20.43, 
			 "cosmo_repulsion_energy": 1.57, 
			 "cosmo_total_nonelectrostatic_energy": 8.9, 
			 "SMD_solvation_energy": 6.4 
		},
		"coords": [
			{
				"x": -3.0652315479,
				"y": -0.7568576071,
				"z": -0.6540052104,
				"element": "C" 
			},
			{
				"x": -2.4788441955,
				"y": 0.6671961989,
				"z": -0.7360702978,
				"element": "C" 
			},
			{
				"x": -1.4920066636,
				"y": 0.9473006707,
				"z": 0.3117102947,
				"element": "N" 
			},
			{
				"x": -0.2871593924,
				"y": 0.3480419312,
				"z": 0.6472767336,
				"element": "C" 
			},
			{
				"x": 0.3016996207,
				"y": 0.7268454442,
				"z": 1.6565467024,
				"element": "O" 
			},
			{
				"x": 0.2969317002,
				"y": -0.7170112713,
				"z": -0.1995376021,
				"element": "C" 
			},
			{
				"x": 0.1752869423,
				"y": -1.0255424339,
				"z": -1.5385481456,
				"element": "C" 
			},
			{
				"x": 1.0408018776,
				"y": -2.0752703203,
				"z": -1.9510269071,
				"element": "C" 
			},
			{
				"x": 1.8130523513,
				"y": -2.5489928148,
				"z": -0.9208427724,
				"element": "C" 
			},
			{
				"x": 1.5187429906,
				"y": -1.7102239628,
				"z": 0.5562569701,
				"element": "S" 
			},
			{
				"x": -3.6418285035,
				"y": 1.6614456346,
				"z": -0.591906164,
				"element": "C" 
			},
			{
				"x": -4.0714336579,
				"y": 1.8812554948,
				"z": 0.677268417,
				"element": "O" 
			},
			{
				"x": -4.178851388,
				"y": 2.1873497089,
				"z": -1.531308527,
				"element": "O" 
			},
			{
				"x": -2.2888977663,
				"y": -1.5127267931,
				"z": -0.77235849,
				"element": "H" 
			},
			{
				"x": -3.8071726386,
				"y": -0.8911835085,
				"z": -1.4460988129,
				"element": "H" 
			},
			{
				"x": -3.5541842474,
				"y": -0.9177433646,
				"z": 0.3117022139,
				"element": "H" 
			},
			{
				"x": -2.0773139764,
				"y": 0.8501205978,
				"z": -1.7379005974,
				"element": "H" 
			},
			{
				"x": -1.5805869603,
				"y": 1.8272469662,
				"z": 0.8055714312,
				"element": "H" 
			},
			{
				"x": -0.4892054397,
				"y": -0.5092513749,
				"z": -2.2194953601,
				"element": "H" 
			},
			{
				"x": 1.0882144647,
				"y": -2.4561089748,
				"z": -2.964582222,
				"element": "H" 
			},
			{
				"x": 2.5438159991,
				"y": -3.3458941819,
				"z": -0.9535087439,
				"element": "H" 
			},
			{
				"x": -3.570629569,
				"y": 1.3297039608,
				"z": 1.2997570896,
				"element": "H" 
			}
		],
		 "valence_orbital": [ 
			{
				"type": "occ",
				"energy": -0.29036,
				"method": "rhf"
			},
			{
				"type": "occ",
				"energy": -0.27446,
				"method": "rhf"
			},
			{
				"type": "occ",
				"energy": -0.27346,
				"method": "rhf"
			},
			{
				"type": "occ",
				"energy": -0.26552,
				"method": "rhf"
			},
			{
				"type": "occ",
				"energy": -0.25186,
				"method": "rhf"
			},
			{
				"type": "unocc",
				"energy": -0.05971,
				"method": "rhf"
			},
			{
				"type": "unocc",
				"energy": -0.009,
				"method": "rhf"
			},
			{
				"type": "unocc",
				"energy": 0.01702,
				"method": "rhf"
			},
			{
				"type": "unocc",
				"energy": 0.02627,
				"method": "rhf"
			},
			{
				"type": "unocc",
				"energy": 0.04767,
				"method": "rhf"
			}
		],
		"cosmo_sigma_profile": { 
			"-0.025": 0.0,
			"-0.024": 0.0,
			"-0.023": 0.0,
			"-0.022": 0.0,
			"-0.021": 0.0,
			"-0.02": 0.0,
			"-0.019": 0.0242205971456,
			"-0.018": 0.62773132189,
			"-0.017": 0.903232149421,
			"-0.016": 0.577007089219,
			"-0.015": 1.73554694284,
			"-0.014": 1.9494119578,
			"-0.013": 2.17598677412,
			"-0.012": 2.91164998126,
			"-0.011": 1.67938595844,
			"-0.01": 1.70718031117,
			"-0.009": 5.57909631739,
			"-0.008": 6.77787097811,
			"-0.007": 8.46346655096,
			"-0.006": 9.66973469054,
			"-0.005": 11.7257122631,
			"-0.004": 12.9394772093,
			"-0.003": 12.1951352703,
			"-0.002": 15.4579621411,
			"-0.001": 16.249462522,
			"0.0": 10.0419897522,
			"0.001": 9.80795993871,
			"0.002": 15.0261401045,
			"0.003": 16.1772865899,
			"0.004": 9.42049466846,
			"0.005": 4.00967842283,
			"0.006": 3.55670515345,
			"0.007": 4.06312126382,
			"0.008": 4.24937976601,
			"0.009": 6.38824480653,
			"0.01": 6.91195693914,
			"0.011": 6.96522708247,
			"0.012": 6.52148414181,
			"0.013": 5.62668236681,
			"0.014": 1.02276087826,
			"0.015": 0.0,
			"0.016": 0.0,
			"0.017": 0.0,
			"0.018": 0.0,
			"0.019": 0.0,
			"0.02": 0.0,
			"0.021": 0.0,
			"0.022": 0.0,
			"0.023": 0.0,
			"0.024": 0.0,
			"0.025": 0.0
		}
	}
}
