{
	 "smiles": "COC1=CC(Br)=CC=C1CO", 
	 "Tm": 341.15, 
	 "num_atms": 20, 
	 "gaussian": { 
		 "optdone": 1, 
		 "sigma_profile": "yes", 
		 "theory": "DFT", 
		 "functional": "B3LYP", 
		 "basiset": "6-31G**", 
		 "properties": { 
			 "R2extent": 4341.7492, 
			 "electric_dipole_moment_norm": 2.33636916176, 
			 "electric_quadrupole_moment_norm": 11.9763509117, 
			 "total_energy": -3032.10602434, 
			 "HOMO_LUMO_gap": 0.21301, 
			 "cosmo_polarized_energy": -8.92, 
			 "cosmo_cavitation_energy": 25.73, 
			 "cosmo_dispersion_energy": -19.39, 
			 "cosmo_repulsion_energy": 1.57, 
			 "cosmo_total_nonelectrostatic_energy": 7.92, 
			 "SMD_solvation_energy": 3.91 
		},
		"coords": [
			{
				"x": -1.159877083,
				"y": -1.5517866755,
				"z": 0.6145950522,
				"element": "C" 
			},
			{
				"x": 0.063459262,
				"y": -1.2624623359,
				"z": -0.051774491,
				"element": "O" 
			},
			{
				"x": 0.116031912,
				"y": -0.179240784,
				"z": -0.8924534934,
				"element": "C" 
			},
			{
				"x": -0.9799493662,
				"y": 0.643823401,
				"z": -1.1584446119,
				"element": "C" 
			},
			{
				"x": -0.8118212031,
				"y": 1.7207150921,
				"z": -2.0319980927,
				"element": "C" 
			},
			{
				"x": -2.3148000647,
				"y": 2.847794836,
				"z": -2.3946517059,
				"element": "Br" 
			},
			{
				"x": 0.4074978956,
				"y": 1.9875541401,
				"z": -2.6391304674,
				"element": "C" 
			},
			{
				"x": 1.4865309591,
				"y": 1.1429668708,
				"z": -2.3562999269,
				"element": "C" 
			},
			{
				"x": 1.3722455143,
				"y": 0.0608414751,
				"z": -1.4874588454,
				"element": "C" 
			},
			{
				"x": 2.5461325911,
				"y": -0.8417425227,
				"z": -1.1636954581,
				"element": "C" 
			},
			{
				"x": 2.3291106956,
				"y": -2.2037006549,
				"z": -1.503908247,
				"element": "O" 
			},
			{
				"x": -1.4721532136,
				"y": -0.7175287462,
				"z": 1.253853167,
				"element": "H" 
			},
			{
				"x": -1.96030148,
				"y": -1.7824692209,
				"z": -0.098747722,
				"element": "H" 
			},
			{
				"x": -0.9649237023,
				"y": -2.4278020913,
				"z": 1.2344643877,
				"element": "H" 
			},
			{
				"x": -1.9468275056,
				"y": 0.4666659304,
				"z": -0.7077015704,
				"element": "H" 
			},
			{
				"x": 0.5166572698,
				"y": 2.8256665092,
				"z": -3.3166806669,
				"element": "H" 
			},
			{
				"x": 2.446342724,
				"y": 1.3368285283,
				"z": -2.8279896894,
				"element": "H" 
			},
			{
				"x": 3.4203571567,
				"y": -0.5164457965,
				"z": -1.7352612292,
				"element": "H" 
			},
			{
				"x": 2.7974726172,
				"y": -0.7387452275,
				"z": -0.0955362643,
				"element": "H" 
			},
			{
				"x": 1.5737150211,
				"y": -2.4918327275,
				"z": -0.9729801252,
				"element": "H" 
			}
		],
		 "valence_orbital": [ 
			{
				"type": "occ",
				"energy": -0.30038,
				"method": "rhf"
			},
			{
				"type": "occ",
				"energy": -0.28814,
				"method": "rhf"
			},
			{
				"type": "occ",
				"energy": -0.26127,
				"method": "rhf"
			},
			{
				"type": "occ",
				"energy": -0.25231,
				"method": "rhf"
			},
			{
				"type": "occ",
				"energy": -0.23023,
				"method": "rhf"
			},
			{
				"type": "unocc",
				"energy": -0.01722,
				"method": "rhf"
			},
			{
				"type": "unocc",
				"energy": -0.00505,
				"method": "rhf"
			},
			{
				"type": "unocc",
				"energy": 0.00468,
				"method": "rhf"
			},
			{
				"type": "unocc",
				"energy": 0.0828,
				"method": "rhf"
			},
			{
				"type": "unocc",
				"energy": 0.0922,
				"method": "rhf"
			}
		],
		"cosmo_sigma_profile": { 
			"-0.025": 0.0,
			"-0.024": 0.0,
			"-0.023": 0.0,
			"-0.022": 0.0,
			"-0.021": 0.0,
			"-0.02": 0.0,
			"-0.019": 0.0,
			"-0.018": 0.0,
			"-0.017": 0.0,
			"-0.016": 0.0,
			"-0.015": 0.0,
			"-0.014": 0.0,
			"-0.013": 0.0,
			"-0.012": 0.0,
			"-0.011": 0.0455749548821,
			"-0.01": 0.316484899454,
			"-0.009": 1.0309494217,
			"-0.008": 0.802851931892,
			"-0.007": 5.90880522288,
			"-0.006": 15.9277869864,
			"-0.005": 14.9227447406,
			"-0.004": 18.7824385711,
			"-0.003": 16.9815314135,
			"-0.002": 14.1739523285,
			"-0.001": 13.1185377983,
			"0.0": 10.9702021986,
			"0.001": 13.8828234798,
			"0.002": 15.7361258808,
			"0.003": 19.4236402299,
			"0.004": 19.8927400101,
			"0.005": 10.5937231994,
			"0.006": 1.76705086351,
			"0.007": 1.65544139973,
			"0.008": 0.912361628379,
			"0.009": 1.42639243752,
			"0.01": 1.58367712932,
			"0.011": 1.0255649795,
			"0.012": 1.61574261766,
			"0.013": 1.56117135734,
			"0.014": 2.62879978385,
			"0.015": 0.923859088265,
			"0.016": 0.0,
			"0.017": 0.0,
			"0.018": 0.0,
			"0.019": 0.0,
			"0.02": 0.0,
			"0.021": 0.0,
			"0.022": 0.0,
			"0.023": 0.0,
			"0.024": 0.0,
			"0.025": 0.0
		}
	}
}
