{
	 "smiles": "CCOC(=O)C1=C(NC(=O)C2=CC=CC=C2)C2=C(S1)SC(C(=O)OCC)=C2NC(=O)C1=CC=CC=C1", 
	 "Tm": 559.15, 
	 "num_atms": 58, 
	 "gaussian": { 
		 "optdone": 1, 
		 "sigma_profile": "yes", 
		 "theory": "DFT", 
		 "functional": "B3LYP", 
		 "basiset": "6-31G**", 
		 "properties": { 
			 "R2extent": 19482.8617, 
			 "electric_dipole_moment_norm": 4.3233647822, 
			 "electric_quadrupole_moment_norm": 21.9305376366, 
			 "total_energy": -2361.28858333, 
			 "HOMO_LUMO_gap": 0.15143, 
			 "cosmo_polarized_energy": -23.06, 
			 "cosmo_cavitation_energy": 65.05, 
			 "cosmo_dispersion_energy": -42.56, 
			 "cosmo_repulsion_energy": 3.16, 
			 "cosmo_total_nonelectrostatic_energy": 25.65, 
			 "SMD_solvation_energy": 12.54 
		},
		"coords": [
			{
				"x": -3.678422157,
				"y": 2.6687086255,
				"z": 5.3152789681,
				"element": "C" 
			},
			{
				"x": -2.3526294381,
				"y": 2.0043692346,
				"z": 5.6548632945,
				"element": "C" 
			},
			{
				"x": -1.4039347165,
				"y": 2.1322558657,
				"z": 4.569167267,
				"element": "O" 
			},
			{
				"x": -1.4744819091,
				"y": 1.1965250193,
				"z": 3.589801714,
				"element": "C" 
			},
			{
				"x": -2.2693108269,
				"y": 0.2800495164,
				"z": 3.5772514817,
				"element": "O" 
			},
			{
				"x": -0.4898093121,
				"y": 1.4900646137,
				"z": 2.5317996157,
				"element": "C" 
			},
			{
				"x": -0.1249307381,
				"y": 0.6948250819,
				"z": 1.4646930365,
				"element": "C" 
			},
			{
				"x": -0.4469590565,
				"y": -0.6649811694,
				"z": 1.3489145963,
				"element": "N" 
			},
			{
				"x": -0.2709622057,
				"y": -1.589575782,
				"z": 2.3755084097,
				"element": "C" 
			},
			{
				"x": 0.1673942975,
				"y": -1.2856992605,
				"z": 3.4724680939,
				"element": "O" 
			},
			{
				"x": -0.6612368428,
				"y": -2.9974037009,
				"z": 2.0338713004,
				"element": "C" 
			},
			{
				"x": -0.5096290104,
				"y": -3.5530987922,
				"z": 0.7551473206,
				"element": "C" 
			},
			{
				"x": -0.8692787655,
				"y": -4.8823491006,
				"z": 0.5243970672,
				"element": "C" 
			},
			{
				"x": -1.3855758942,
				"y": -5.6603197257,
				"z": 1.5617821957,
				"element": "C" 
			},
			{
				"x": -1.5249028093,
				"y": -5.1131248153,
				"z": 2.8404741402,
				"element": "C" 
			},
			{
				"x": -1.1534536371,
				"y": -3.7923172501,
				"z": 3.0785177972,
				"element": "C" 
			},
			{
				"x": 0.7410371501,
				"y": 1.3952798561,
				"z": 0.5437689277,
				"element": "C" 
			},
			{
				"x": 1.0466245177,
				"y": 2.6757719457,
				"z": 1.0046884035,
				"element": "C" 
			},
			{
				"x": 0.2798141104,
				"y": 3.0768792845,
				"z": 2.497515165,
				"element": "S" 
			},
			{
				"x": 2.234634288,
				"y": 3.5060248229,
				"z": 0.0624219875,
				"element": "S" 
			},
			{
				"x": 2.3203097598,
				"y": 2.1236400634,
				"z": -1.0282758807,
				"element": "C" 
			},
			{
				"x": 3.2510035588,
				"y": 2.0962280613,
				"z": -2.1523483714,
				"element": "C" 
			},
			{
				"x": 3.4561802149,
				"y": 1.1089098717,
				"z": -2.8475741247,
				"element": "O" 
			},
			{
				"x": 3.8692941972,
				"y": 3.2835153166,
				"z": -2.3257424316,
				"element": "O" 
			},
			{
				"x": 4.8580707114,
				"y": 3.3592747927,
				"z": -3.3842595864,
				"element": "C" 
			},
			{
				"x": 6.2197725334,
				"y": 2.8834438788,
				"z": -2.9026820605,
				"element": "C" 
			},
			{
				"x": 1.4532422592,
				"y": 1.097699894,
				"z": -0.6740311834,
				"element": "C" 
			},
			{
				"x": 1.3758327132,
				"y": -0.0813496114,
				"z": -1.414517296,
				"element": "N" 
			},
			{
				"x": 0.2792347978,
				"y": -0.8151396273,
				"z": -1.8587058757,
				"element": "C" 
			},
			{
				"x": 0.4620793526,
				"y": -1.9374703822,
				"z": -2.315470162,
				"element": "O" 
			},
			{
				"x": -1.0981036316,
				"y": -0.2165462734,
				"z": -1.8267736174,
				"element": "C" 
			},
			{
				"x": -1.3494368595,
				"y": 1.1563475851,
				"z": -1.9776329263,
				"element": "C" 
			},
			{
				"x": -2.6612200438,
				"y": 1.6257704199,
				"z": -2.0392902917,
				"element": "C" 
			},
			{
				"x": -3.7322178438,
				"y": 0.7356332656,
				"z": -1.9410942727,
				"element": "C" 
			},
			{
				"x": -3.4906517081,
				"y": -0.6338210427,
				"z": -1.8067333168,
				"element": "C" 
			},
			{
				"x": -2.1822215184,
				"y": -1.1092408778,
				"z": -1.7686032817,
				"element": "C" 
			},
			{
				"x": -3.532458698,
				"y": 3.7207530958,
				"z": 5.052830165,
				"element": "H" 
			},
			{
				"x": -4.3490966534,
				"y": 2.620206831,
				"z": 6.1797159864,
				"element": "H" 
			},
			{
				"x": -4.1608817181,
				"y": 2.1575392374,
				"z": 4.4786329647,
				"element": "H" 
			},
			{
				"x": -1.862352277,
				"y": 2.4927888369,
				"z": 6.5000324198,
				"element": "H" 
			},
			{
				"x": -2.4858951178,
				"y": 0.9430124607,
				"z": 5.8756947338,
				"element": "H" 
			},
			{
				"x": -0.9120923209,
				"y": -0.9720345192,
				"z": 0.5063519223,
				"element": "H" 
			},
			{
				"x": -0.0715199432,
				"y": -2.9809907155,
				"z": -0.0570185343,
				"element": "H" 
			},
			{
				"x": -0.7331061772,
				"y": -5.3093473239,
				"z": -0.4648649859,
				"element": "H" 
			},
			{
				"x": -1.6686217366,
				"y": -6.6929488572,
				"z": 1.3779493441,
				"element": "H" 
			},
			{
				"x": -1.918718457,
				"y": -5.7184551611,
				"z": 3.6518439012,
				"element": "H" 
			},
			{
				"x": -1.239475701,
				"y": -3.352590945,
				"z": 4.0662953412,
				"element": "H" 
			},
			{
				"x": 4.5071734812,
				"y": 2.7676834583,
				"z": -4.2326494819,
				"element": "H" 
			},
			{
				"x": 4.8739182813,
				"y": 4.4162067197,
				"z": -3.6589460951,
				"element": "H" 
			},
			{
				"x": 6.1892470627,
				"y": 1.8213950161,
				"z": -2.6475467531,
				"element": "H" 
			},
			{
				"x": 6.9610432364,
				"y": 3.0237108711,
				"z": -3.6963431968,
				"element": "H" 
			},
			{
				"x": 6.5438814269,
				"y": 3.4508179753,
				"z": -2.0255048573,
				"element": "H" 
			},
			{
				"x": 2.2360697055,
				"y": -0.3285095388,
				"z": -1.8989442458,
				"element": "H" 
			},
			{
				"x": -0.5275683586,
				"y": 1.8562106985,
				"z": -2.074152329,
				"element": "H" 
			},
			{
				"x": -2.8456770868,
				"y": 2.6882020324,
				"z": -2.1665652332,
				"element": "H" 
			},
			{
				"x": -4.7521522457,
				"y": 1.1069812447,
				"z": -1.9780946434,
				"element": "H" 
			},
			{
				"x": -4.3204583433,
				"y": -1.3309523665,
				"z": -1.7420748194,
				"element": "H" 
			},
			{
				"x": -1.9786138969,
				"y": -2.1725586544,
				"z": -1.7014377067,
				"element": "H" 
			}
		],
		 "valence_orbital": [ 
			{
				"type": "occ",
				"energy": -0.257,
				"method": "rhf"
			},
			{
				"type": "occ",
				"energy": -0.25187,
				"method": "rhf"
			},
			{
				"type": "occ",
				"energy": -0.24501,
				"method": "rhf"
			},
			{
				"type": "occ",
				"energy": -0.23993,
				"method": "rhf"
			},
			{
				"type": "occ",
				"energy": -0.2219,
				"method": "rhf"
			},
			{
				"type": "unocc",
				"energy": -0.07047,
				"method": "rhf"
			},
			{
				"type": "unocc",
				"energy": -0.05782,
				"method": "rhf"
			},
			{
				"type": "unocc",
				"energy": -0.04821,
				"method": "rhf"
			},
			{
				"type": "unocc",
				"energy": -0.02723,
				"method": "rhf"
			},
			{
				"type": "unocc",
				"energy": -0.01914,
				"method": "rhf"
			}
		],
		"cosmo_sigma_profile": { 
			"-0.025": 0.0,
			"-0.024": 0.0,
			"-0.023": 0.0,
			"-0.022": 0.0041253725918,
			"-0.021": 0.0325718174082,
			"-0.02": 0.0392949186099,
			"-0.019": 0.0419003079128,
			"-0.018": 0.0648245088938,
			"-0.017": 0.0345417564202,
			"-0.016": 0.0461943715092,
			"-0.015": 0.0153694779008,
			"-0.014": 0.000420337753384,
			"-0.013": 0.0173791837613,
			"-0.012": 0.0276324326892,
			"-0.011": 0.166442563657,
			"-0.01": 0.184372377444,
			"-0.009": 1.27627554096,
			"-0.008": 2.61749176116,
			"-0.007": 7.40809571918,
			"-0.006": 26.1187899,
			"-0.005": 37.0155966311,
			"-0.004": 45.9639843499,
			"-0.003": 46.6377369091,
			"-0.002": 48.1070636454,
			"-0.001": 50.3165006917,
			"0.0": 52.9060123942,
			"0.001": 40.2680724264,
			"0.002": 36.9526884402,
			"0.003": 35.546243842,
			"0.004": 25.0204838586,
			"0.005": 11.4651028228,
			"0.006": 7.24876742224,
			"0.007": 6.53664830574,
			"0.008": 6.64075784843,
			"0.009": 6.39889404929,
			"0.01": 8.25984822777,
			"0.011": 8.71497745738,
			"0.012": 9.27506043227,
			"0.013": 3.48109781969,
			"0.014": 0.125472961952,
			"0.015": 0.0,
			"0.016": 0.0,
			"0.017": 0.0,
			"0.018": 0.0,
			"0.019": 0.0,
			"0.02": 0.0,
			"0.021": 0.0,
			"0.022": 0.0,
			"0.023": 0.0,
			"0.024": 0.0,
			"0.025": 0.0
		}
	}
}
