{
	 "smiles": "COC(=O)[C@@H]1CC(=O)CN1C(=O)OC(C)(C)C", 
	 "Tm": 311.15, 
	 "num_atms": 34, 
	 "gaussian": { 
		 "optdone": 1, 
		 "sigma_profile": "yes", 
		 "theory": "DFT", 
		 "functional": "B3LYP", 
		 "basiset": "6-31G**", 
		 "properties": { 
			 "R2extent": 4903.8539, 
			 "electric_dipole_moment_norm": 2.68671949597, 
			 "electric_quadrupole_moment_norm": 17.2281511988, 
			 "total_energy": -860.319834722, 
			 "HOMO_LUMO_gap": 0.21209, 
			 "cosmo_polarized_energy": -15.36, 
			 "cosmo_cavitation_energy": 37.01, 
			 "cosmo_dispersion_energy": -24.46, 
			 "cosmo_repulsion_energy": 1.95, 
			 "cosmo_total_nonelectrostatic_energy": 14.5, 
			 "SMD_solvation_energy": 8.65 
		},
		"coords": [
			{
				"x": 0.0464379237,
				"y": 3.8092341801,
				"z": 0.2880643352,
				"element": "C" 
			},
			{
				"x": 0.5925707961,
				"y": 2.5123840028,
				"z": -0.0165832573,
				"element": "O" 
			},
			{
				"x": 1.9297471946,
				"y": 2.4094523186,
				"z": 0.1145032411,
				"element": "C" 
			},
			{
				"x": 2.6587734509,
				"y": 3.3238466602,
				"z": 0.4248169154,
				"element": "O" 
			},
			{
				"x": 2.4457333165,
				"y": 1.0119182759,
				"z": -0.2493516162,
				"element": "C" 
			},
			{
				"x": 2.8831979777,
				"y": 0.958346732,
				"z": -1.7273944926,
				"element": "C" 
			},
			{
				"x": 1.7031573727,
				"y": 0.3179791085,
				"z": -2.4602102114,
				"element": "C" 
			},
			{
				"x": 1.5124175889,
				"y": 0.323896494,
				"z": -3.6530000347,
				"element": "O" 
			},
			{
				"x": 0.7937378226,
				"y": -0.3472991228,
				"z": -1.4249323793,
				"element": "C" 
			},
			{
				"x": 1.443216539,
				"y": -0.0482468195,
				"z": -0.1575996106,
				"element": "N" 
			},
			{
				"x": 0.9699462887,
				"y": -0.407540076,
				"z": 1.0784801736,
				"element": "C" 
			},
			{
				"x": 1.4404479776,
				"y": 0.0271923299,
				"z": 2.1191482802,
				"element": "O" 
			},
			{
				"x": -0.0414349838,
				"y": -1.2938532665,
				"z": 0.9529245956,
				"element": "O" 
			},
			{
				"x": -0.7017350824,
				"y": -1.8615211702,
				"z": 2.1430142877,
				"element": "C" 
			},
			{
				"x": 0.312133922,
				"y": -2.6540425798,
				"z": 2.9742786923,
				"element": "C" 
			},
			{
				"x": -1.7494159639,
				"y": -2.7922661444,
				"z": 1.52770333,
				"element": "C" 
			},
			{
				"x": -1.3707336254,
				"y": -0.7445808922,
				"z": 2.9505948452,
				"element": "C" 
			},
			{
				"x": -1.0274988068,
				"y": 3.7218576589,
				"z": 0.1262497974,
				"element": "H" 
			},
			{
				"x": 0.4758177269,
				"y": 4.5693162186,
				"z": -0.36897702,
				"element": "H" 
			},
			{
				"x": 0.259624238,
				"y": 4.0751150064,
				"z": 1.3258337332,
				"element": "H" 
			},
			{
				"x": 3.2678519427,
				"y": 0.8124030366,
				"z": 0.4392047294,
				"element": "H" 
			},
			{
				"x": 3.7505015186,
				"y": 0.2978167373,
				"z": -1.8464175266,
				"element": "H" 
			},
			{
				"x": 3.1456257316,
				"y": 1.9279391342,
				"z": -2.1548997192,
				"element": "H" 
			},
			{
				"x": 0.7218068921,
				"y": -1.4239507458,
				"z": -1.6103519944,
				"element": "H" 
			},
			{
				"x": -0.2169275702,
				"y": 0.0748702109,
				"z": -1.4988327975,
				"element": "H" 
			},
			{
				"x": 1.0725966031,
				"y": -1.9957524405,
				"z": 3.3949261344,
				"element": "H" 
			},
			{
				"x": -0.2051072643,
				"y": -3.1654839038,
				"z": 3.7924920827,
				"element": "H" 
			},
			{
				"x": 0.8008567309,
				"y": -3.4131734825,
				"z": 2.3553057892,
				"element": "H" 
			},
			{
				"x": -1.2712304297,
				"y": -3.5618267055,
				"z": 0.9147654888,
				"element": "H" 
			},
			{
				"x": -2.3224775881,
				"y": -3.2858813113,
				"z": 2.3180573789,
				"element": "H" 
			},
			{
				"x": -2.4434959555,
				"y": -2.2298879319,
				"z": 0.896377915,
				"element": "H" 
			},
			{
				"x": -1.9527615089,
				"y": -1.1821452769,
				"z": 3.7681190457,
				"element": "H" 
			},
			{
				"x": -2.0547669977,
				"y": -0.1736673392,
				"z": 2.3146771173,
				"element": "H" 
			},
			{
				"x": -0.6274137785,
				"y": -0.0665488963,
				"z": 3.3704127516,
				"element": "H" 
			}
		],
		 "valence_orbital": [ 
			{
				"type": "occ",
				"energy": -0.29733,
				"method": "rhf"
			},
			{
				"type": "occ",
				"energy": -0.28896,
				"method": "rhf"
			},
			{
				"type": "occ",
				"energy": -0.27347,
				"method": "rhf"
			},
			{
				"type": "occ",
				"energy": -0.25923,
				"method": "rhf"
			},
			{
				"type": "occ",
				"energy": -0.2473,
				"method": "rhf"
			},
			{
				"type": "unocc",
				"energy": -0.03521,
				"method": "rhf"
			},
			{
				"type": "unocc",
				"energy": 0.00234,
				"method": "rhf"
			},
			{
				"type": "unocc",
				"energy": 0.04375,
				"method": "rhf"
			},
			{
				"type": "unocc",
				"energy": 0.07615,
				"method": "rhf"
			},
			{
				"type": "unocc",
				"energy": 0.09106,
				"method": "rhf"
			}
		],
		"cosmo_sigma_profile": { 
			"-0.025": 0.0,
			"-0.024": 0.0,
			"-0.023": 0.0,
			"-0.022": 0.0,
			"-0.021": 0.0,
			"-0.02": 0.0,
			"-0.019": 0.0,
			"-0.018": 0.0,
			"-0.017": 0.0,
			"-0.016": 0.0,
			"-0.015": 0.0,
			"-0.014": 0.0,
			"-0.013": 0.0,
			"-0.012": 0.0,
			"-0.011": 0.0,
			"-0.01": 0.0,
			"-0.009": 0.650889447048,
			"-0.008": 6.48131515037,
			"-0.007": 12.4158419822,
			"-0.006": 14.3744650867,
			"-0.005": 16.1350201083,
			"-0.004": 28.1696522519,
			"-0.003": 29.9758700432,
			"-0.002": 21.7414274618,
			"-0.001": 23.4687330572,
			"0.0": 30.4031187608,
			"0.001": 24.1369638833,
			"0.002": 9.4543143952,
			"0.003": 10.3479032097,
			"0.004": 9.08483721398,
			"0.005": 6.61920174865,
			"0.006": 5.49223536395,
			"0.007": 4.70654920313,
			"0.008": 4.15870043169,
			"0.009": 6.11710675829,
			"0.01": 6.2540454722,
			"0.011": 10.3413748915,
			"0.012": 7.23298667081,
			"0.013": 1.8165849891,
			"0.014": 0.0,
			"0.015": 0.0,
			"0.016": 0.0,
			"0.017": 0.0,
			"0.018": 0.0,
			"0.019": 0.0,
			"0.02": 0.0,
			"0.021": 0.0,
			"0.022": 0.0,
			"0.023": 0.0,
			"0.024": 0.0,
			"0.025": 0.0
		}
	}
}
