{
	 "smiles": "COC1=C(OCC#N)C=CC(C=O)=C1", 
	 "Tm": 349.15, 
	 "num_atms": 23, 
	 "gaussian": { 
		 "optdone": 1, 
		 "sigma_profile": "yes", 
		 "theory": "DFT", 
		 "functional": "B3LYP", 
		 "basiset": "6-31G**", 
		 "properties": { 
			 "R2extent": 3344.4488, 
			 "electric_dipole_moment_norm": 2.99153947826, 
			 "electric_quadrupole_moment_norm": 21.764947668, 
			 "total_energy": -666.8455486, 
			 "HOMO_LUMO_gap": 0.17141, 
			 "cosmo_polarized_energy": -15.25, 
			 "cosmo_cavitation_energy": 28.92, 
			 "cosmo_dispersion_energy": -19.87, 
			 "cosmo_repulsion_energy": 1.56, 
			 "cosmo_total_nonelectrostatic_energy": 10.61, 
			 "SMD_solvation_energy": 8.52 
		},
		"coords": [
			{
				"x": 1.8389523659,
				"y": -0.2478842716,
				"z": -1.2169362278,
				"element": "C" 
			},
			{
				"x": 1.3946596494,
				"y": -0.2698612002,
				"z": 0.1358773537,
				"element": "O" 
			},
			{
				"x": 0.0574457451,
				"y": -0.314056456,
				"z": 0.3834419717,
				"element": "C" 
			},
			{
				"x": -0.3223764315,
				"y": -0.2205882823,
				"z": 1.7474347815,
				"element": "C" 
			},
			{
				"x": 0.5811743622,
				"y": -0.0478046594,
				"z": 2.7672761599,
				"element": "O" 
			},
			{
				"x": 1.7511518181,
				"y": -0.8625855882,
				"z": 2.819835514,
				"element": "C" 
			},
			{
				"x": 2.9717388682,
				"y": -0.1119189958,
				"z": 2.4799000452,
				"element": "C" 
			},
			{
				"x": 3.9571642884,
				"y": 0.4565263631,
				"z": 2.254200603,
				"element": "N" 
			},
			{
				"x": -1.6702928644,
				"y": -0.2230208372,
				"z": 2.1006988084,
				"element": "C" 
			},
			{
				"x": -2.6561646187,
				"y": -0.3233258278,
				"z": 1.1207949392,
				"element": "C" 
			},
			{
				"x": -2.2881532857,
				"y": -0.4355832951,
				"z": -0.222211419,
				"element": "C" 
			},
			{
				"x": -3.3219503846,
				"y": -0.5533872139,
				"z": -1.2706060608,
				"element": "C" 
			},
			{
				"x": -3.0904579114,
				"y": -0.6579727778,
				"z": -2.4614287108,
				"element": "O" 
			},
			{
				"x": -0.9311203843,
				"y": -0.4303497779,
				"z": -0.586801114,
				"element": "C" 
			},
			{
				"x": 2.9235969536,
				"y": -0.151458159,
				"z": -1.1673623447,
				"element": "H" 
			},
			{
				"x": 1.4176310817,
				"y": 0.6079087138,
				"z": -1.7567599801,
				"element": "H" 
			},
			{
				"x": 1.5732990833,
				"y": -1.1741168206,
				"z": -1.7405456395,
				"element": "H" 
			},
			{
				"x": 1.6718703607,
				"y": -1.7339403065,
				"z": 2.1643833643,
				"element": "H" 
			},
			{
				"x": 1.8418253358,
				"y": -1.212403051,
				"z": 3.854044005,
				"element": "H" 
			},
			{
				"x": -1.9191256822,
				"y": -0.1371955911,
				"z": 3.1530486311,
				"element": "H" 
			},
			{
				"x": -3.7064311232,
				"y": -0.3240340793,
				"z": 1.3994323454,
				"element": "H" 
			},
			{
				"x": -4.3677992083,
				"y": -0.5403433862,
				"z": -0.8912168346,
				"element": "H" 
			},
			{
				"x": -0.6907380179,
				"y": -0.5045045,
				"z": -1.6408001911,
				"element": "H" 
			}
		],
		 "valence_orbital": [ 
			{
				"type": "occ",
				"energy": -0.32952,
				"method": "rhf"
			},
			{
				"type": "occ",
				"energy": -0.32211,
				"method": "rhf"
			},
			{
				"type": "occ",
				"energy": -0.26203,
				"method": "rhf"
			},
			{
				"type": "occ",
				"energy": -0.25848,
				"method": "rhf"
			},
			{
				"type": "occ",
				"energy": -0.23734,
				"method": "rhf"
			},
			{
				"type": "unocc",
				"energy": -0.06593,
				"method": "rhf"
			},
			{
				"type": "unocc",
				"energy": -0.01347,
				"method": "rhf"
			},
			{
				"type": "unocc",
				"energy": 0.00312,
				"method": "rhf"
			},
			{
				"type": "unocc",
				"energy": 0.03156,
				"method": "rhf"
			},
			{
				"type": "unocc",
				"energy": 0.03941,
				"method": "rhf"
			}
		],
		"cosmo_sigma_profile": { 
			"-0.025": 0.0,
			"-0.024": 0.0,
			"-0.023": 0.0,
			"-0.022": 0.0,
			"-0.021": 0.0,
			"-0.02": 0.0,
			"-0.019": 0.0,
			"-0.018": 0.0,
			"-0.017": 0.0,
			"-0.016": 0.0,
			"-0.015": 0.0,
			"-0.014": 0.0,
			"-0.013": 0.0,
			"-0.012": 0.0,
			"-0.011": 0.0957632057254,
			"-0.01": 4.08567512051,
			"-0.009": 5.57345946757,
			"-0.008": 5.71215707681,
			"-0.007": 10.7639568011,
			"-0.006": 18.9018822097,
			"-0.005": 16.3800696858,
			"-0.004": 16.8401610133,
			"-0.003": 14.2507656067,
			"-0.002": 11.5666269454,
			"-0.001": 11.2503094474,
			"0.0": 11.8703112587,
			"0.001": 14.9889710679,
			"0.002": 17.6113148709,
			"0.003": 16.1861054043,
			"0.004": 6.19105022657,
			"0.005": 6.71657377653,
			"0.006": 6.50998141545,
			"0.007": 6.02407697936,
			"0.008": 5.75007563894,
			"0.009": 5.7047550126,
			"0.01": 5.26528008803,
			"0.011": 6.57561054028,
			"0.012": 5.60965712584,
			"0.013": 1.78256695474,
			"0.014": 0.0,
			"0.015": 0.0,
			"0.016": 0.0,
			"0.017": 0.0,
			"0.018": 0.0,
			"0.019": 0.0,
			"0.02": 0.0,
			"0.021": 0.0,
			"0.022": 0.0,
			"0.023": 0.0,
			"0.024": 0.0,
			"0.025": 0.0
		}
	}
}
