{
	 "smiles": "CC1=NN(C(NC(=O)NC2=CC(C)=NN2C(C)(C)C)=C1)C(C)(C)C", 
	 "Tm": 509.15, 
	 "num_atms": 52, 
	 "gaussian": { 
		 "optdone": 1, 
		 "sigma_profile": "yes", 
		 "theory": "DFT", 
		 "functional": "B3LYP", 
		 "basiset": "6-31G**", 
		 "properties": { 
			 "R2extent": 9828.1655, 
			 "electric_dipole_moment_norm": 3.50517201575, 
			 "electric_quadrupole_moment_norm": 17.3165715645, 
			 "total_energy": -1068.43470819, 
			 "HOMO_LUMO_gap": 0.23074, 
			 "cosmo_polarized_energy": -17.33, 
			 "cosmo_cavitation_energy": 52.01, 
			 "cosmo_dispersion_energy": -33.67, 
			 "cosmo_repulsion_energy": 2.6, 
			 "cosmo_total_nonelectrostatic_energy": 20.94, 
			 "SMD_solvation_energy": 8.85 
		},
		"coords": [
			{
				"x": 2.6439996571,
				"y": -1.4359125567,
				"z": -4.6049126424,
				"element": "C" 
			},
			{
				"x": 2.1012270928,
				"y": -0.679414403,
				"z": -3.4305172412,
				"element": "C" 
			},
			{
				"x": 2.3467609646,
				"y": 0.6231280831,
				"z": -3.2961799654,
				"element": "N" 
			},
			{
				"x": 1.7127849207,
				"y": 1.0286280838,
				"z": -2.1672480484,
				"element": "N" 
			},
			{
				"x": 1.1028007596,
				"y": -0.0396193392,
				"z": -1.5567734813,
				"element": "C" 
			},
			{
				"x": 0.3192280552,
				"y": 0.0107833985,
				"z": -0.3845936678,
				"element": "N" 
			},
			{
				"x": 0.8823078721,
				"y": -0.0150606813,
				"z": 0.8778322319,
				"element": "C" 
			},
			{
				"x": 2.0523309269,
				"y": 0.2439294562,
				"z": 1.1164270552,
				"element": "O" 
			},
			{
				"x": -0.0157274942,
				"y": -0.2830352934,
				"z": 1.9161565613,
				"element": "N" 
			},
			{
				"x": -1.2700793655,
				"y": -0.9075564844,
				"z": 1.7792740184,
				"element": "C" 
			},
			{
				"x": -1.5871302147,
				"y": -2.1435677593,
				"z": 1.2343485185,
				"element": "C" 
			},
			{
				"x": -2.9882975868,
				"y": -2.2510692298,
				"z": 1.3590746525,
				"element": "C" 
			},
			{
				"x": -3.8886688905,
				"y": -3.3758956308,
				"z": 0.9463145051,
				"element": "C" 
			},
			{
				"x": -3.4933200437,
				"y": -1.1639292075,
				"z": 1.946082879,
				"element": "N" 
			},
			{
				"x": -2.4504028443,
				"y": -0.3400756786,
				"z": 2.1972733529,
				"element": "N" 
			},
			{
				"x": -2.6936226546,
				"y": 0.9981708113,
				"z": 2.8206206024,
				"element": "C" 
			},
			{
				"x": -4.185646578,
				"y": 1.1158871706,
				"z": 3.1667514854,
				"element": "C" 
			},
			{
				"x": -2.3098465498,
				"y": 2.0945803669,
				"z": 1.8095348181,
				"element": "C" 
			},
			{
				"x": -1.8658940926,
				"y": 1.1238410818,
				"z": 4.113925397,
				"element": "C" 
			},
			{
				"x": 1.3190785047,
				"y": -1.1480126391,
				"z": -2.3562983161,
				"element": "C" 
			},
			{
				"x": 1.9584713771,
				"y": 2.4451516048,
				"z": -1.7464896236,
				"element": "C" 
			},
			{
				"x": 1.8611063517,
				"y": 3.3265731154,
				"z": -3.0053238644,
				"element": "C" 
			},
			{
				"x": 0.9146077417,
				"y": 2.9263450463,
				"z": -0.7275457037,
				"element": "C" 
			},
			{
				"x": 3.3710940825,
				"y": 2.5168956265,
				"z": -1.138164223,
				"element": "C" 
			},
			{
				"x": 1.8403819537,
				"y": -1.860441171,
				"z": -5.2176039656,
				"element": "H" 
			},
			{
				"x": 3.2843786369,
				"y": -2.266028991,
				"z": -4.2862346442,
				"element": "H" 
			},
			{
				"x": 3.2361243602,
				"y": -0.7656810127,
				"z": -5.232235824,
				"element": "H" 
			},
			{
				"x": -0.615240139,
				"y": -0.3693611217,
				"z": -0.4669643682,
				"element": "H" 
			},
			{
				"x": 0.4714134204,
				"y": -0.3685248422,
				"z": 2.7993636578,
				"element": "H" 
			},
			{
				"x": -0.8875555879,
				"y": -2.8630811146,
				"z": 0.8331773698,
				"element": "H" 
			},
			{
				"x": -3.833995452,
				"y": -3.559665204,
				"z": -0.1325194431,
				"element": "H" 
			},
			{
				"x": -3.6200783012,
				"y": -4.3109303967,
				"z": 1.4503391231,
				"element": "H" 
			},
			{
				"x": -4.9222634987,
				"y": -3.1321437408,
				"z": 1.2018196352,
				"element": "H" 
			},
			{
				"x": -4.4942028326,
				"y": 0.3456778678,
				"z": 3.8765324236,
				"element": "H" 
			},
			{
				"x": -4.8125434355,
				"y": 1.022210695,
				"z": 2.2789596724,
				"element": "H" 
			},
			{
				"x": -4.3546718458,
				"y": 2.0985362334,
				"z": 3.6175986646,
				"element": "H" 
			},
			{
				"x": -2.4955473756,
				"y": 3.0810564253,
				"z": 2.245767368,
				"element": "H" 
			},
			{
				"x": -2.9140482189,
				"y": 2.0044991621,
				"z": 0.9016600386,
				"element": "H" 
			},
			{
				"x": -1.2550232969,
				"y": 2.037257404,
				"z": 1.534567905,
				"element": "H" 
			},
			{
				"x": -2.0802781342,
				"y": 0.2925632826,
				"z": 4.7924715717,
				"element": "H" 
			},
			{
				"x": -2.1286598478,
				"y": 2.055066832,
				"z": 4.6249341371,
				"element": "H" 
			},
			{
				"x": -0.7931627815,
				"y": 1.1518709718,
				"z": 3.9132881208,
				"element": "H" 
			},
			{
				"x": 0.9597831743,
				"y": -2.1498315998,
				"z": -2.1685518292,
				"element": "H" 
			},
			{
				"x": 2.0705300261,
				"y": 4.3649404277,
				"z": -2.730232013,
				"element": "H" 
			},
			{
				"x": 2.5742711511,
				"y": 3.0074566109,
				"z": -3.7647479141,
				"element": "H" 
			},
			{
				"x": 0.8557820373,
				"y": 3.2803541274,
				"z": -3.4363764967,
				"element": "H" 
			},
			{
				"x": 1.0434307492,
				"y": 4.0054602031,
				"z": -0.5992090977,
				"element": "H" 
			},
			{
				"x": -0.105771414,
				"y": 2.748232512,
				"z": -1.0778651962,
				"element": "H" 
			},
			{
				"x": 1.0498645756,
				"y": 2.4603070441,
				"z": 0.2480447139,
				"element": "H" 
			},
			{
				"x": 3.4362043971,
				"y": 1.8640852424,
				"z": -0.2642716044,
				"element": "H" 
			},
			{
				"x": 4.1141337596,
				"y": 2.2010884558,
				"z": -1.8750857777,
				"element": "H" 
			},
			{
				"x": 3.5969819281,
				"y": 3.5440607548,
				"z": -0.8321955278,
				"element": "H" 
			}
		],
		 "valence_orbital": [ 
			{
				"type": "occ",
				"energy": -0.26209,
				"method": "rhf"
			},
			{
				"type": "occ",
				"energy": -0.2494,
				"method": "rhf"
			},
			{
				"type": "occ",
				"energy": -0.24176,
				"method": "rhf"
			},
			{
				"type": "occ",
				"energy": -0.22945,
				"method": "rhf"
			},
			{
				"type": "occ",
				"energy": -0.22682,
				"method": "rhf"
			},
			{
				"type": "unocc",
				"energy": 0.00392,
				"method": "rhf"
			},
			{
				"type": "unocc",
				"energy": 0.0238,
				"method": "rhf"
			},
			{
				"type": "unocc",
				"energy": 0.04365,
				"method": "rhf"
			},
			{
				"type": "unocc",
				"energy": 0.05311,
				"method": "rhf"
			},
			{
				"type": "unocc",
				"energy": 0.06719,
				"method": "rhf"
			}
		],
		"cosmo_sigma_profile": { 
			"-0.025": 0.0,
			"-0.024": 0.0,
			"-0.023": 0.0,
			"-0.022": 0.0,
			"-0.021": 0.0,
			"-0.02": 0.0,
			"-0.019": 0.0,
			"-0.018": 0.0,
			"-0.017": 0.0,
			"-0.016": 0.0,
			"-0.015": 0.0639710849039,
			"-0.014": 0.695776477807,
			"-0.013": 1.05880322958,
			"-0.012": 1.32820967815,
			"-0.011": 1.29433604668,
			"-0.01": 2.70903869252,
			"-0.009": 1.68467105597,
			"-0.008": 2.3704037672,
			"-0.007": 3.53751914928,
			"-0.006": 6.77685794128,
			"-0.005": 8.22999910746,
			"-0.004": 32.6861395951,
			"-0.003": 41.64426837,
			"-0.002": 51.0155958595,
			"-0.001": 52.6422988848,
			"0.0": 60.0674979242,
			"0.001": 41.2345917741,
			"0.002": 15.7858150762,
			"0.003": 11.9663816859,
			"0.004": 12.0859357568,
			"0.005": 12.1073661127,
			"0.006": 8.25562722949,
			"0.007": 7.19416665064,
			"0.008": 5.42863783401,
			"0.009": 4.71885255135,
			"0.01": 4.9146841796,
			"0.011": 4.40115278789,
			"0.012": 4.411022216,
			"0.013": 4.55468542263,
			"0.014": 1.54175480837,
			"0.015": 0.0,
			"0.016": 0.0,
			"0.017": 0.0,
			"0.018": 0.0,
			"0.019": 0.0,
			"0.02": 0.0,
			"0.021": 0.0,
			"0.022": 0.0,
			"0.023": 0.0,
			"0.024": 0.0,
			"0.025": 0.0
		}
	}
}
