{
	 "smiles": "NC1=CC=C(C=C1)C1=NC(=NN1)C1=CC=CC=C1", 
	 "Tm": 518.15, 
	 "num_atms": 30, 
	 "gaussian": { 
		 "optdone": 1, 
		 "sigma_profile": "yes", 
		 "theory": "DFT", 
		 "functional": "B3LYP", 
		 "basiset": "6-31G**", 
		 "properties": { 
			 "R2extent": 7070.6036, 
			 "electric_dipole_moment_norm": 5.20518252033, 
			 "electric_quadrupole_moment_norm": 19.2702189959, 
			 "total_energy": -759.740346385, 
			 "HOMO_LUMO_gap": 0.17184, 
			 "cosmo_polarized_energy": -18.92, 
			 "cosmo_cavitation_energy": 34.82, 
			 "cosmo_dispersion_energy": -25.91, 
			 "cosmo_repulsion_energy": 1.97, 
			 "cosmo_total_nonelectrostatic_energy": 10.88, 
			 "SMD_solvation_energy": 3.45 
		},
		"coords": [
			{
				"x": -0.0523888294,
				"y": -0.8934245133,
				"z": 5.5528586492,
				"element": "N" 
			},
			{
				"x": 0.0611730118,
				"y": -0.6964710387,
				"z": 4.1825922249,
				"element": "C" 
			},
			{
				"x": -0.6881062463,
				"y": 0.3033001452,
				"z": 3.5326101807,
				"element": "C" 
			},
			{
				"x": -0.5342858447,
				"y": 0.5346882227,
				"z": 2.1742922934,
				"element": "C" 
			},
			{
				"x": 0.3712153868,
				"y": -0.2189394678,
				"z": 1.4076964042,
				"element": "C" 
			},
			{
				"x": 1.1154280079,
				"y": -1.2167353895,
				"z": 2.0572759547,
				"element": "C" 
			},
			{
				"x": 0.967178975,
				"y": -1.4541233667,
				"z": 3.4176895573,
				"element": "C" 
			},
			{
				"x": 0.4980738483,
				"y": 0.0603082657,
				"z": -0.0211875129,
				"element": "C" 
			},
			{
				"x": -0.2253052287,
				"y": 0.9309849684,
				"z": -0.7166416935,
				"element": "N" 
			},
			{
				"x": 0.26486381,
				"y": 0.8296946419,
				"z": -1.989228871,
				"element": "C" 
			},
			{
				"x": 1.252800902,
				"y": -0.0538436721,
				"z": -2.1271761539,
				"element": "N" 
			},
			{
				"x": 1.3852432565,
				"y": -0.5325131818,
				"z": -0.8649071743,
				"element": "N" 
			},
			{
				"x": -0.2510729062,
				"y": 1.6249058036,
				"z": -3.1131826718,
				"element": "C" 
			},
			{
				"x": -1.2934852771,
				"y": 2.539443334,
				"z": -2.9039751804,
				"element": "C" 
			},
			{
				"x": -1.7868973018,
				"y": 3.2969362655,
				"z": -3.9651783192,
				"element": "C" 
			},
			{
				"x": -1.2472145908,
				"y": 3.1509657359,
				"z": -5.2448654284,
				"element": "C" 
			},
			{
				"x": -0.2083106263,
				"y": 2.2406226279,
				"z": -5.4581704848,
				"element": "C" 
			},
			{
				"x": 0.288227776,
				"y": 1.4814796016,
				"z": -4.4012249724,
				"element": "C" 
			},
			{
				"x": -0.9092763648,
				"y": -0.5695391277,
				"z": 5.978103256,
				"element": "H" 
			},
			{
				"x": 0.2396670762,
				"y": -1.7960146767,
				"z": 5.8991937877,
				"element": "H" 
			},
			{
				"x": -1.3914863371,
				"y": 0.9016517201,
				"z": 4.1062722935,
				"element": "H" 
			},
			{
				"x": -1.1155263899,
				"y": 1.304351915,
				"z": 1.6782733185,
				"element": "H" 
			},
			{
				"x": 1.8189023665,
				"y": -1.8327514612,
				"z": 1.5027495544,
				"element": "H" 
			},
			{
				"x": 1.5563735927,
				"y": -2.2309319401,
				"z": 3.8981306534,
				"element": "H" 
			},
			{
				"x": 2.0931570677,
				"y": -1.2232349858,
				"z": -0.6710899306,
				"element": "H" 
			},
			{
				"x": -1.704636406,
				"y": 2.6439018409,
				"z": -1.9057058099,
				"element": "H" 
			},
			{
				"x": -2.5946355659,
				"y": 4.0028091447,
				"z": -3.7926611943,
				"element": "H" 
			},
			{
				"x": -1.632777308,
				"y": 3.7419896722,
				"z": -6.070935768,
				"element": "H" 
			},
			{
				"x": 0.2158104041,
				"y": 2.1224494145,
				"z": -6.4514422135,
				"element": "H" 
			},
			{
				"x": 1.0945897415,
				"y": 0.7730395016,
				"z": -4.5598647488,
				"element": "H" 
			}
		],
		 "valence_orbital": [ 
			{
				"type": "occ",
				"energy": -0.26573,
				"method": "rhf"
			},
			{
				"type": "occ",
				"energy": -0.25888,
				"method": "rhf"
			},
			{
				"type": "occ",
				"energy": -0.23867,
				"method": "rhf"
			},
			{
				"type": "occ",
				"energy": -0.22394,
				"method": "rhf"
			},
			{
				"type": "occ",
				"energy": -0.19954,
				"method": "rhf"
			},
			{
				"type": "unocc",
				"energy": -0.0277,
				"method": "rhf"
			},
			{
				"type": "unocc",
				"energy": -0.01483,
				"method": "rhf"
			},
			{
				"type": "unocc",
				"energy": -0.00668,
				"method": "rhf"
			},
			{
				"type": "unocc",
				"energy": 0.0123,
				"method": "rhf"
			},
			{
				"type": "unocc",
				"energy": 0.0621,
				"method": "rhf"
			}
		],
		"cosmo_sigma_profile": { 
			"-0.025": 0.0,
			"-0.024": 0.0,
			"-0.023": 0.0,
			"-0.022": 0.0,
			"-0.021": 0.0,
			"-0.02": 0.0,
			"-0.019": 0.0,
			"-0.018": 0.0,
			"-0.017": 0.944132143772,
			"-0.016": 1.08315846245,
			"-0.015": 1.57905227775,
			"-0.014": 1.41697952738,
			"-0.013": 2.63001246164,
			"-0.012": 4.40692437615,
			"-0.011": 3.18661072549,
			"-0.01": 5.33601663775,
			"-0.009": 4.12768330427,
			"-0.008": 3.54216257787,
			"-0.007": 4.99099325266,
			"-0.006": 11.7219607051,
			"-0.005": 14.8646016244,
			"-0.004": 17.2814727447,
			"-0.003": 15.7890985905,
			"-0.002": 12.2634140186,
			"-0.001": 12.9350288466,
			"0.0": 13.8554665922,
			"0.001": 16.4966662417,
			"0.002": 20.1944567049,
			"0.003": 24.1477722904,
			"0.004": 25.5671738184,
			"0.005": 28.0851277968,
			"0.006": 10.5152906829,
			"0.007": 4.50567836896,
			"0.008": 3.66295003744,
			"0.009": 3.1005264083,
			"0.01": 4.15913675012,
			"0.011": 2.36862758049,
			"0.012": 2.41715052702,
			"0.013": 1.82629390366,
			"0.014": 0.289857116496,
			"0.015": 0.0,
			"0.016": 0.0,
			"0.017": 0.0,
			"0.018": 0.0,
			"0.019": 0.0,
			"0.02": 0.0,
			"0.021": 0.0,
			"0.022": 0.0,
			"0.023": 0.0,
			"0.024": 0.0,
			"0.025": 0.0
		}
	}
}
