{
	 "smiles": "FC(F)(F)C1=NN(CN2CCOCC2)C(=S)N1N=CC1=CC=C2OCOC2=C1", 
	 "Tm": 456.15, 
	 "num_atms": 44, 
	 "gaussian": { 
		 "optdone": 1, 
		 "sigma_profile": "yes", 
		 "theory": "DFT", 
		 "functional": "B3LYP", 
		 "basiset": "6-31G**", 
		 "properties": { 
			 "R2extent": 11198.5778, 
			 "electric_dipole_moment_norm": 4.29161429418, 
			 "electric_quadrupole_moment_norm": 21.4040272566, 
			 "total_energy": -1816.36022108, 
			 "HOMO_LUMO_gap": 0.13729, 
			 "cosmo_polarized_energy": -18.98, 
			 "cosmo_cavitation_energy": 49.88, 
			 "cosmo_dispersion_energy": -32.59, 
			 "cosmo_repulsion_energy": 2.35, 
			 "cosmo_total_nonelectrostatic_energy": 19.64, 
			 "SMD_solvation_energy": 5.9 
		},
		"coords": [
			{
				"x": 3.1284642003,
				"y": -2.0087501267,
				"z": 2.3831812333,
				"element": "F" 
			},
			{
				"x": 1.9375668331,
				"y": -1.7246688463,
				"z": 2.9217384534,
				"element": "C" 
			},
			{
				"x": 1.1306788438,
				"y": -2.7970128432,
				"z": 2.7645625528,
				"element": "F" 
			},
			{
				"x": 2.1007601159,
				"y": -1.5347653657,
				"z": 4.2434007743,
				"element": "F" 
			},
			{
				"x": 1.3421330081,
				"y": -0.511787501,
				"z": 2.2679692969,
				"element": "C" 
			},
			{
				"x": 1.9564305111,
				"y": 0.2130664763,
				"z": 1.3777774273,
				"element": "N" 
			},
			{
				"x": 1.0714898392,
				"y": 1.2078675865,
				"z": 1.0759854282,
				"element": "N" 
			},
			{
				"x": 1.448572089,
				"y": 2.2563886382,
				"z": 0.0788143566,
				"element": "C" 
			},
			{
				"x": 1.3220523033,
				"y": 1.9131751082,
				"z": -1.2958253189,
				"element": "N" 
			},
			{
				"x": 2.2686034289,
				"y": 0.9186821205,
				"z": -1.8122953192,
				"element": "C" 
			},
			{
				"x": 1.9367429896,
				"y": 0.6265472431,
				"z": -3.2714241913,
				"element": "C" 
			},
			{
				"x": 0.6430052522,
				"y": 0.046445141,
				"z": -3.434019534,
				"element": "O" 
			},
			{
				"x": -0.2951758255,
				"y": 0.4043140194,
				"z": -2.4194431395,
				"element": "C" 
			},
			{
				"x": -0.038927882,
				"y": 1.801162461,
				"z": -1.8574782282,
				"element": "C" 
			},
			{
				"x": -0.1036467725,
				"y": 1.1225235592,
				"z": 1.7862177257,
				"element": "C" 
			},
			{
				"x": -1.4442094611,
				"y": 2.1215910871,
				"z": 1.7618984648,
				"element": "S" 
			},
			{
				"x": 0.0784987028,
				"y": -0.0368761096,
				"z": 2.5282586279,
				"element": "N" 
			},
			{
				"x": -0.6702711378,
				"y": -0.3960224392,
				"z": 3.6749105069,
				"element": "N" 
			},
			{
				"x": -1.5932094618,
				"y": -1.2804003977,
				"z": 3.5095186293,
				"element": "C" 
			},
			{
				"x": -2.0985506459,
				"y": -2.0237642405,
				"z": 2.3525898507,
				"element": "C" 
			},
			{
				"x": -2.6206293272,
				"y": -3.3018148893,
				"z": 2.6220155866,
				"element": "C" 
			},
			{
				"x": -3.0961653146,
				"y": -4.1414835619,
				"z": 1.6060126528,
				"element": "C" 
			},
			{
				"x": -3.0547888912,
				"y": -3.6374704064,
				"z": 0.3188921811,
				"element": "C" 
			},
			{
				"x": -3.4815074891,
				"y": -4.2279273809,
				"z": -0.8328016924,
				"element": "O" 
			},
			{
				"x": -3.1840511472,
				"y": -3.3023477454,
				"z": -1.893125115,
				"element": "C" 
			},
			{
				"x": -2.7029816239,
				"y": -2.0939480965,
				"z": -1.2955102436,
				"element": "O" 
			},
			{
				"x": -2.5757699219,
				"y": -2.3532992709,
				"z": 0.0454796289,
				"element": "C" 
			},
			{
				"x": -2.0921553066,
				"y": -1.5196557951,
				"z": 1.0259071412,
				"element": "C" 
			},
			{
				"x": 2.4919847292,
				"y": 2.492659528,
				"z": 0.3054415813,
				"element": "H" 
			},
			{
				"x": 0.8107675169,
				"y": 3.1078293992,
				"z": 0.3225328334,
				"element": "H" 
			},
			{
				"x": 3.2884516012,
				"y": 1.3183616684,
				"z": -1.7378144584,
				"element": "H" 
			},
			{
				"x": 2.2513940393,
				"y": -0.023922519,
				"z": -1.2433884673,
				"element": "H" 
			},
			{
				"x": 2.0097937835,
				"y": 1.5585985448,
				"z": -3.8532079798,
				"element": "H" 
			},
			{
				"x": 2.6593145735,
				"y": -0.0848569494,
				"z": -3.6849732146,
				"element": "H" 
			},
			{
				"x": -0.2707912812,
				"y": -0.3362593791,
				"z": -1.6051179907,
				"element": "H" 
			},
			{
				"x": -1.2895218137,
				"y": 0.353353842,
				"z": -2.8746837362,
				"element": "H" 
			},
			{
				"x": -0.1674102315,
				"y": 2.5377372309,
				"z": -2.6630540993,
				"element": "H" 
			},
			{
				"x": -0.7804874434,
				"y": 2.0269375262,
				"z": -1.0852701402,
				"element": "H" 
			},
			{
				"x": -2.056031966,
				"y": -1.5459212421,
				"z": 4.4620392951,
				"element": "H" 
			},
			{
				"x": -2.6374247382,
				"y": -3.6586065712,
				"z": 3.6474762433,
				"element": "H" 
			},
			{
				"x": -3.4875788895,
				"y": -5.13008003,
				"z": 1.814654708,
				"element": "H" 
			},
			{
				"x": -4.098171434,
				"y": -3.094957536,
				"z": -2.4581217234,
				"element": "H" 
			},
			{
				"x": -2.4084481878,
				"y": -3.7302618915,
				"z": -2.5403628808,
				"element": "H" 
			},
			{
				"x": -1.7983981672,
				"y": -0.503080046,
				"z": 0.8016422927,
				"element": "H" 
			}
		],
		 "valence_orbital": [ 
			{
				"type": "occ",
				"energy": -0.24779,
				"method": "rhf"
			},
			{
				"type": "occ",
				"energy": -0.23138,
				"method": "rhf"
			},
			{
				"type": "occ",
				"energy": -0.2266,
				"method": "rhf"
			},
			{
				"type": "occ",
				"energy": -0.21633,
				"method": "rhf"
			},
			{
				"type": "occ",
				"energy": -0.20881,
				"method": "rhf"
			},
			{
				"type": "unocc",
				"energy": -0.07152,
				"method": "rhf"
			},
			{
				"type": "unocc",
				"energy": -0.02429,
				"method": "rhf"
			},
			{
				"type": "unocc",
				"energy": -0.02085,
				"method": "rhf"
			},
			{
				"type": "unocc",
				"energy": -0.01007,
				"method": "rhf"
			},
			{
				"type": "unocc",
				"energy": 0.02138,
				"method": "rhf"
			}
		],
		"cosmo_sigma_profile": { 
			"-0.025": 0.0,
			"-0.024": 0.0,
			"-0.023": 0.0,
			"-0.022": 0.0,
			"-0.021": 0.0,
			"-0.02": 0.0,
			"-0.019": 0.0,
			"-0.018": 0.0,
			"-0.017": 0.0,
			"-0.016": 0.0,
			"-0.015": 0.0,
			"-0.014": 0.0,
			"-0.013": 0.0,
			"-0.012": 0.0,
			"-0.011": 0.00621290419959,
			"-0.01": 1.86989953693,
			"-0.009": 3.97881214784,
			"-0.008": 11.9178022741,
			"-0.007": 14.6494882215,
			"-0.006": 15.0259793111,
			"-0.005": 24.5743631479,
			"-0.004": 29.9252934762,
			"-0.003": 34.5814242634,
			"-0.002": 29.5416385701,
			"-0.001": 26.0900274195,
			"0.0": 26.3146642158,
			"0.001": 38.3958223987,
			"0.002": 44.441285853,
			"0.003": 16.3681936994,
			"0.004": 14.0295540338,
			"0.005": 11.5542714896,
			"0.006": 9.83028741086,
			"0.007": 10.8384331664,
			"0.008": 10.7771483959,
			"0.009": 7.84622920506,
			"0.01": 8.37293598993,
			"0.011": 4.29025314685,
			"0.012": 1.9749198382,
			"0.013": 2.04930917511,
			"0.014": 1.13289666383,
			"0.015": 0.0,
			"0.016": 0.0,
			"0.017": 0.0,
			"0.018": 0.0,
			"0.019": 0.0,
			"0.02": 0.0,
			"0.021": 0.0,
			"0.022": 0.0,
			"0.023": 0.0,
			"0.024": 0.0,
			"0.025": 0.0
		}
	}
}
