{
	 "smiles": "OC1=CC(Br)=C(O)C=C1", 
	 "Tm": 385.15, 
	 "num_atms": 14, 
	 "gaussian": { 
		 "optdone": 1, 
		 "sigma_profile": "yes", 
		 "theory": "DFT", 
		 "functional": "B3LYP", 
		 "basiset": "6-31G**", 
		 "properties": { 
			 "R2extent": 3238.1179, 
			 "electric_dipole_moment_norm": 1.65800556694, 
			 "electric_quadrupole_moment_norm": 15.7925654113, 
			 "total_energy": -2953.4879249, 
			 "HOMO_LUMO_gap": 0.19284, 
			 "cosmo_polarized_energy": -13.61, 
			 "cosmo_cavitation_energy": 20.67, 
			 "cosmo_dispersion_energy": -16.06, 
			 "cosmo_repulsion_energy": 1.32, 
			 "cosmo_total_nonelectrostatic_energy": 5.93, 
			 "SMD_solvation_energy": 3.19 
		},
		"coords": [
			{
				"x": -0.9445495988,
				"y": 0.7377492326,
				"z": -2.7525174536,
				"element": "O" 
			},
			{
				"x": -1.3456281992,
				"y": 0.0814256727,
				"z": -1.6205759395,
				"element": "C" 
			},
			{
				"x": -0.7851361435,
				"y": -1.131332719,
				"z": -1.2115723973,
				"element": "C" 
			},
			{
				"x": -1.2361690008,
				"y": -1.752478618,
				"z": -0.0480258639,
				"element": "C" 
			},
			{
				"x": -0.453676595,
				"y": -3.4052462857,
				"z": 0.4849780781,
				"element": "Br" 
			},
			{
				"x": -2.2505686859,
				"y": -1.1811316424,
				"z": 0.7292471894,
				"element": "C" 
			},
			{
				"x": -2.6594132078,
				"y": -1.8257441011,
				"z": 1.8602745815,
				"element": "O" 
			},
			{
				"x": -2.800421928,
				"y": 0.0343862995,
				"z": 0.303901303,
				"element": "C" 
			},
			{
				"x": -2.3592553208,
				"y": 0.6646981134,
				"z": -0.8554966673,
				"element": "C" 
			},
			{
				"x": -0.2447798583,
				"y": 0.2310064902,
				"z": -3.1837792035,
				"element": "H" 
			},
			{
				"x": 0.0034155751,
				"y": -1.601854269,
				"z": -1.7911042505,
				"element": "H" 
			},
			{
				"x": -3.3581257392,
				"y": -1.3072002462,
				"z": 2.2791062217,
				"element": "H" 
			},
			{
				"x": -3.5899169594,
				"y": 0.493454404,
				"z": 0.8953336738,
				"element": "H" 
			},
			{
				"x": -2.7905743385,
				"y": 1.6059676689,
				"z": -1.1777692718,
				"element": "H" 
			}
		],
		 "valence_orbital": [ 
			{
				"type": "occ",
				"energy": -0.32911,
				"method": "rhf"
			},
			{
				"type": "occ",
				"energy": -0.29885,
				"method": "rhf"
			},
			{
				"type": "occ",
				"energy": -0.28023,
				"method": "rhf"
			},
			{
				"type": "occ",
				"energy": -0.2477,
				"method": "rhf"
			},
			{
				"type": "occ",
				"energy": -0.20904,
				"method": "rhf"
			},
			{
				"type": "unocc",
				"energy": -0.0162,
				"method": "rhf"
			},
			{
				"type": "unocc",
				"energy": 0.01017,
				"method": "rhf"
			},
			{
				"type": "unocc",
				"energy": 0.01617,
				"method": "rhf"
			},
			{
				"type": "unocc",
				"energy": 0.05898,
				"method": "rhf"
			},
			{
				"type": "unocc",
				"energy": 0.07387,
				"method": "rhf"
			}
		],
		"cosmo_sigma_profile": { 
			"-0.025": 0.0,
			"-0.024": 0.0,
			"-0.023": 0.0,
			"-0.022": 0.0,
			"-0.021": 0.0,
			"-0.02": 0.0,
			"-0.019": 0.0,
			"-0.018": 1.50757608192,
			"-0.017": 2.29084051322,
			"-0.016": 2.27789015032,
			"-0.015": 2.30159890921,
			"-0.014": 1.73687439516,
			"-0.013": 1.7746481455,
			"-0.012": 2.32878966017,
			"-0.011": 2.24503211773,
			"-0.01": 2.05487125272,
			"-0.009": 2.20098570207,
			"-0.008": 2.31627511426,
			"-0.007": 4.26001217066,
			"-0.006": 5.84412135682,
			"-0.005": 4.9008547986,
			"-0.004": 6.53057139137,
			"-0.003": 5.30675082999,
			"-0.002": 6.33880636295,
			"-0.001": 6.46994118366,
			"0.0": 6.1511011789,
			"0.001": 8.5276810742,
			"0.002": 14.2391286724,
			"0.003": 21.675703773,
			"0.004": 19.8321332293,
			"0.005": 11.6411352437,
			"0.006": 4.35557154337,
			"0.007": 3.58933412579,
			"0.008": 3.13333721739,
			"0.009": 3.37415113998,
			"0.01": 3.70259589094,
			"0.011": 4.1558330319,
			"0.012": 1.1357145328,
			"0.013": 0.0,
			"0.014": 0.0,
			"0.015": 0.0,
			"0.016": 0.0,
			"0.017": 0.0,
			"0.018": 0.0,
			"0.019": 0.0,
			"0.02": 0.0,
			"0.021": 0.0,
			"0.022": 0.0,
			"0.023": 0.0,
			"0.024": 0.0,
			"0.025": 0.0
		}
	}
}
