{
	 "smiles": "NC1=NC(=CC=C1)C(O)=O", 
	 "Tm": 584.15, 
	 "num_atms": 16, 
	 "gaussian": { 
		 "optdone": 1, 
		 "sigma_profile": "yes", 
		 "theory": "DFT", 
		 "functional": "B3LYP", 
		 "basiset": "6-31G**", 
		 "properties": { 
			 "R2extent": 2000.4179, 
			 "electric_dipole_moment_norm": 6.8227856078, 
			 "electric_quadrupole_moment_norm": 16.5955338483, 
			 "total_energy": -492.230292491, 
			 "HOMO_LUMO_gap": 0.17746, 
			 "cosmo_polarized_energy": -15.44, 
			 "cosmo_cavitation_energy": 20.77, 
			 "cosmo_dispersion_energy": -15.72, 
			 "cosmo_repulsion_energy": 1.29, 
			 "cosmo_total_nonelectrostatic_energy": 6.34, 
			 "SMD_solvation_energy": 4.18 
		},
		"coords": [
			{
				"x": -1.4322454891,
				"y": -0.5495330619,
				"z": 0.418891253,
				"element": "N" 
			},
			{
				"x": -0.1472512795,
				"y": -0.0611774895,
				"z": 0.4944729513,
				"element": "C" 
			},
			{
				"x": 0.7274045814,
				"y": -0.5104804982,
				"z": -0.4158596312,
				"element": "N" 
			},
			{
				"x": 2.0042908056,
				"y": -0.0936199728,
				"z": -0.3410777865,
				"element": "C" 
			},
			{
				"x": 2.4805322707,
				"y": 0.7867024292,
				"z": 0.620190381,
				"element": "C" 
			},
			{
				"x": 1.561522325,
				"y": 1.2581826567,
				"z": 1.565566145,
				"element": "C" 
			},
			{
				"x": 0.2419494724,
				"y": 0.838309432,
				"z": 1.5135214615,
				"element": "C" 
			},
			{
				"x": 2.9243112393,
				"y": -0.650435552,
				"z": -1.4006253828,
				"element": "C" 
			},
			{
				"x": 2.3146880381,
				"y": -1.4924270165,
				"z": -2.2513166423,
				"element": "O" 
			},
			{
				"x": 4.0984460736,
				"y": -0.366548672,
				"z": -1.4775453606,
				"element": "O" 
			},
			{
				"x": -2.168819981,
				"y": -0.0097619536,
				"z": 0.8461195855,
				"element": "H" 
			},
			{
				"x": -1.6737257244,
				"y": -0.9999281604,
				"z": -0.4516885193,
				"element": "H" 
			},
			{
				"x": 3.5228931778,
				"y": 1.0790182778,
				"z": 0.6118958469,
				"element": "H" 
			},
			{
				"x": 1.8773100244,
				"y": 1.9502168397,
				"z": 2.3407990878,
				"element": "H" 
			},
			{
				"x": -0.4862743991,
				"y": 1.183670729,
				"z": 2.2408274162,
				"element": "H" 
			},
			{
				"x": 1.3807688647,
				"y": -1.5368879874,
				"z": -1.9552708055,
				"element": "H" 
			}
		],
		 "valence_orbital": [ 
			{
				"type": "occ",
				"energy": -0.30203,
				"method": "rhf"
			},
			{
				"type": "occ",
				"energy": -0.30157,
				"method": "rhf"
			},
			{
				"type": "occ",
				"energy": -0.29981,
				"method": "rhf"
			},
			{
				"type": "occ",
				"energy": -0.25977,
				"method": "rhf"
			},
			{
				"type": "occ",
				"energy": -0.23481,
				"method": "rhf"
			},
			{
				"type": "unocc",
				"energy": -0.05735,
				"method": "rhf"
			},
			{
				"type": "unocc",
				"energy": -0.01755,
				"method": "rhf"
			},
			{
				"type": "unocc",
				"energy": 0.05701,
				"method": "rhf"
			},
			{
				"type": "unocc",
				"energy": 0.07047,
				"method": "rhf"
			},
			{
				"type": "unocc",
				"energy": 0.09206,
				"method": "rhf"
			}
		],
		"cosmo_sigma_profile": { 
			"-0.025": 0.0,
			"-0.024": 0.0,
			"-0.023": 0.0,
			"-0.022": 0.0,
			"-0.021": 0.0,
			"-0.02": 0.0,
			"-0.019": 0.0,
			"-0.018": 0.0,
			"-0.017": 0.0,
			"-0.016": 0.0,
			"-0.015": 0.00104132244509,
			"-0.014": 1.13813602904,
			"-0.013": 2.62431578875,
			"-0.012": 2.76490491378,
			"-0.011": 2.92471200788,
			"-0.01": 3.98504931013,
			"-0.009": 2.70197400589,
			"-0.008": 3.91234881544,
			"-0.007": 7.13339806584,
			"-0.006": 7.58925243943,
			"-0.005": 7.74273942831,
			"-0.004": 8.44241468063,
			"-0.003": 8.41229223326,
			"-0.002": 7.18987970169,
			"-0.001": 8.6127296537,
			"0.0": 11.0780949618,
			"0.001": 15.2373767316,
			"0.002": 13.7387091848,
			"0.003": 9.04232637646,
			"0.004": 3.72010607117,
			"0.005": 4.94548007595,
			"0.006": 3.64006893384,
			"0.007": 3.1873608294,
			"0.008": 4.03229922337,
			"0.009": 3.45212844799,
			"0.01": 6.21274997787,
			"0.011": 5.45148372428,
			"0.012": 5.13982919428,
			"0.013": 1.78954373986,
			"0.014": 0.183051210198,
			"0.015": 0.0,
			"0.016": 0.0,
			"0.017": 0.0,
			"0.018": 0.0,
			"0.019": 0.0,
			"0.02": 0.0,
			"0.021": 0.0,
			"0.022": 0.0,
			"0.023": 0.0,
			"0.024": 0.0,
			"0.025": 0.0
		}
	}
}
