{
	 "smiles": "CCCC(CCC)C(C(O)=O)C(=O)OCC", 
	 "Tm": 305.15, 
	 "num_atms": 38, 
	 "gaussian": { 
		 "optdone": 1, 
		 "sigma_profile": "yes", 
		 "theory": "DFT", 
		 "functional": "B3LYP", 
		 "basiset": "6-31G**", 
		 "properties": { 
			 "R2extent": 4482.8295, 
			 "electric_dipole_moment_norm": 4.5320775556, 
			 "electric_quadrupole_moment_norm": 21.0585394175, 
			 "total_energy": -771.468237271, 
			 "HOMO_LUMO_gap": 0.2462, 
			 "cosmo_polarized_energy": -13.27, 
			 "cosmo_cavitation_energy": 37.52, 
			 "cosmo_dispersion_energy": -25.14, 
			 "cosmo_repulsion_energy": 1.98, 
			 "cosmo_total_nonelectrostatic_energy": 14.35, 
			 "SMD_solvation_energy": 7.77 
		},
		"coords": [
			{
				"x": 2.7873561302,
				"y": 0.9094079155,
				"z": 2.8082505117,
				"element": "C" 
			},
			{
				"x": 2.6188332546,
				"y": 1.1655395975,
				"z": 1.3052269824,
				"element": "C" 
			},
			{
				"x": 1.7650615417,
				"y": 0.1222242124,
				"z": 0.5616007389,
				"element": "C" 
			},
			{
				"x": 0.3446415955,
				"y": -0.1067084164,
				"z": 1.112800198,
				"element": "C" 
			},
			{
				"x": -0.3952465536,
				"y": -1.3183492969,
				"z": 0.4609324149,
				"element": "C" 
			},
			{
				"x": -0.0507491953,
				"y": -1.7455198139,
				"z": -0.9812403506,
				"element": "C" 
			},
			{
				"x": -0.5195613459,
				"y": -0.8275216678,
				"z": -2.115071033,
				"element": "C" 
			},
			{
				"x": -0.5090160466,
				"y": 1.2184498006,
				"z": 1.2080043435,
				"element": "C" 
			},
			{
				"x": -1.6630181257,
				"y": 0.9681458232,
				"z": 2.2018841246,
				"element": "C" 
			},
			{
				"x": -2.9206324999,
				"y": 0.8534739006,
				"z": 1.7426951758,
				"element": "O" 
			},
			{
				"x": -1.4131677031,
				"y": 0.8306934635,
				"z": 3.3771465391,
				"element": "O" 
			},
			{
				"x": -0.7844870598,
				"y": 1.8765643146,
				"z": -0.132500805,
				"element": "C" 
			},
			{
				"x": 0.0406618956,
				"y": 2.5166185799,
				"z": -0.7453332196,
				"element": "O" 
			},
			{
				"x": -2.050769969,
				"y": 1.6907919727,
				"z": -0.6027368753,
				"element": "O" 
			},
			{
				"x": -2.3876951379,
				"y": 2.3577134789,
				"z": -1.8527392506,
				"element": "C" 
			},
			{
				"x": -3.8649306605,
				"y": 2.1358593177,
				"z": -2.1097642926,
				"element": "C" 
			},
			{
				"x": 3.4823620933,
				"y": 1.6310836808,
				"z": 3.2496445946,
				"element": "H" 
			},
			{
				"x": 3.189192625,
				"y": -0.0934524952,
				"z": 2.9962110149,
				"element": "H" 
			},
			{
				"x": 1.8412583888,
				"y": 0.9927632484,
				"z": 3.3536635634,
				"element": "H" 
			},
			{
				"x": 3.6082118727,
				"y": 1.1792291447,
				"z": 0.8310821917,
				"element": "H" 
			},
			{
				"x": 2.2038210293,
				"y": 2.1666949325,
				"z": 1.1375908422,
				"element": "H" 
			},
			{
				"x": 1.7253565671,
				"y": 0.3990712333,
				"z": -0.4970919125,
				"element": "H" 
			},
			{
				"x": 2.282806555,
				"y": -0.8458808568,
				"z": 0.6081815966,
				"element": "H" 
			},
			{
				"x": 0.4533091404,
				"y": -0.3640908203,
				"z": 2.1705801493,
				"element": "H" 
			},
			{
				"x": -1.4799283569,
				"y": -1.1696445736,
				"z": 0.5394564576,
				"element": "H" 
			},
			{
				"x": -0.1823846443,
				"y": -2.1864164765,
				"z": 1.0963787249,
				"element": "H" 
			},
			{
				"x": 1.0300128291,
				"y": -1.905831577,
				"z": -1.0691437655,
				"element": "H" 
			},
			{
				"x": -0.5056404867,
				"y": -2.7329503771,
				"z": -1.131728725,
				"element": "H" 
			},
			{
				"x": -1.6014179027,
				"y": -0.6617773367,
				"z": -2.0650532367,
				"element": "H" 
			},
			{
				"x": -0.2990193411,
				"y": -1.2786816593,
				"z": -3.0884442604,
				"element": "H" 
			},
			{
				"x": -0.0249628526,
				"y": 0.1480552394,
				"z": -2.0908499434,
				"element": "H" 
			},
			{
				"x": 0.1307911087,
				"y": 1.9372072931,
				"z": 1.7254423811,
				"element": "H" 
			},
			{
				"x": -2.9330949458,
				"y": 1.0537316306,
				"z": 0.7875189433,
				"element": "H" 
			},
			{
				"x": -2.1350624017,
				"y": 3.4162401408,
				"z": -1.7514818526,
				"element": "H" 
			},
			{
				"x": -1.7612340422,
				"y": 1.9342970831,
				"z": -2.6415876769,
				"element": "H" 
			},
			{
				"x": -4.0960846444,
				"y": 1.0703894817,
				"z": -2.1997153047,
				"element": "H" 
			},
			{
				"x": -4.474746123,
				"y": 2.5591128219,
				"z": -1.3061045462,
				"element": "H" 
			},
			{
				"x": -4.1493265881,
				"y": 2.6255670602,
				"z": -3.0460044376,
				"element": "H" 
			}
		],
		 "valence_orbital": [ 
			{
				"type": "occ",
				"energy": -0.31824,
				"method": "rhf"
			},
			{
				"type": "occ",
				"energy": -0.31039,
				"method": "rhf"
			},
			{
				"type": "occ",
				"energy": -0.3008,
				"method": "rhf"
			},
			{
				"type": "occ",
				"energy": -0.29551,
				"method": "rhf"
			},
			{
				"type": "occ",
				"energy": -0.26146,
				"method": "rhf"
			},
			{
				"type": "unocc",
				"energy": -0.01526,
				"method": "rhf"
			},
			{
				"type": "unocc",
				"energy": 0.01276,
				"method": "rhf"
			},
			{
				"type": "unocc",
				"energy": 0.06194,
				"method": "rhf"
			},
			{
				"type": "unocc",
				"energy": 0.07911,
				"method": "rhf"
			},
			{
				"type": "unocc",
				"energy": 0.09348,
				"method": "rhf"
			}
		],
		"cosmo_sigma_profile": { 
			"-0.025": 0.0,
			"-0.024": 0.0,
			"-0.023": 0.0,
			"-0.022": 0.0,
			"-0.021": 0.0,
			"-0.02": 0.0,
			"-0.019": 0.0,
			"-0.018": 0.0,
			"-0.017": 0.0,
			"-0.016": 0.0,
			"-0.015": 0.0,
			"-0.014": 0.0,
			"-0.013": 0.0,
			"-0.012": 0.0,
			"-0.011": 0.0,
			"-0.01": 0.000666625104753,
			"-0.009": 0.67139916461,
			"-0.008": 3.13910972617,
			"-0.007": 4.46543882702,
			"-0.006": 6.82431341427,
			"-0.005": 13.5772561901,
			"-0.004": 19.3757954947,
			"-0.003": 28.5163353897,
			"-0.002": 42.2553887958,
			"-0.001": 45.5547106575,
			"0.0": 38.9250389722,
			"0.001": 27.0108682769,
			"0.002": 9.46395866552,
			"0.003": 3.80353818588,
			"0.004": 4.41818544608,
			"0.005": 3.52819250172,
			"0.006": 3.91817233092,
			"0.007": 3.98976462767,
			"0.008": 4.25642721022,
			"0.009": 4.36335493143,
			"0.01": 6.78067914788,
			"0.011": 8.17945976177,
			"0.012": 5.79050722759,
			"0.013": 1.66593995554,
			"0.014": 0.119568719696,
			"0.015": 0.0,
			"0.016": 0.0,
			"0.017": 0.0,
			"0.018": 0.0,
			"0.019": 0.0,
			"0.02": 0.0,
			"0.021": 0.0,
			"0.022": 0.0,
			"0.023": 0.0,
			"0.024": 0.0,
			"0.025": 0.0
		}
	}
}
