{
	 "smiles": "NC1=CC(CN2NC(=O)C=CC2=O)=CC=C1", 
	 "Tm": 437.15, 
	 "num_atms": 27, 
	 "gaussian": { 
		 "optdone": 1, 
		 "sigma_profile": "yes", 
		 "theory": "DFT", 
		 "functional": "B3LYP", 
		 "basiset": "6-31G**", 
		 "properties": { 
			 "R2extent": 4133.2274, 
			 "electric_dipole_moment_norm": 3.26748507265, 
			 "electric_quadrupole_moment_norm": 21.1284165756, 
			 "total_energy": -740.477783848, 
			 "HOMO_LUMO_gap": 0.14591, 
			 "cosmo_polarized_energy": -20.08, 
			 "cosmo_cavitation_energy": 31.74, 
			 "cosmo_dispersion_energy": -22.57, 
			 "cosmo_repulsion_energy": 1.77, 
			 "cosmo_total_nonelectrostatic_energy": 10.94, 
			 "SMD_solvation_energy": 6.51 
		},
		"coords": [
			{
				"x": -3.2368376883,
				"y": 1.2047505127,
				"z": -2.3510659364,
				"element": "N" 
			},
			{
				"x": -2.4691604301,
				"y": 1.1921194105,
				"z": -1.1899066739,
				"element": "C" 
			},
			{
				"x": -1.0646012137,
				"y": 1.1187520433,
				"z": -1.2598486644,
				"element": "C" 
			},
			{
				"x": -0.2805439904,
				"y": 1.1694260346,
				"z": -0.1041027946,
				"element": "C" 
			},
			{
				"x": 1.2276542698,
				"y": 1.070514086,
				"z": -0.210925928,
				"element": "C" 
			},
			{
				"x": 1.7348274874,
				"y": -0.2185685097,
				"z": 0.2712521254,
				"element": "N" 
			},
			{
				"x": 1.2489323195,
				"y": -1.337734871,
				"z": -0.4143913426,
				"element": "N" 
			},
			{
				"x": 1.6595821919,
				"y": -2.6354733816,
				"z": -0.1748711213,
				"element": "C" 
			},
			{
				"x": 1.0582056524,
				"y": -3.5896800721,
				"z": -0.6546719386,
				"element": "O" 
			},
			{
				"x": 2.855692915,
				"y": -2.737353012,
				"z": 0.6792497589,
				"element": "C" 
			},
			{
				"x": 3.3826818922,
				"y": -1.6556983525,
				"z": 1.2769354871,
				"element": "C" 
			},
			{
				"x": 2.8524482488,
				"y": -0.291830527,
				"z": 1.0790245004,
				"element": "C" 
			},
			{
				"x": 3.3582741058,
				"y": 0.7076928666,
				"z": 1.5869776679,
				"element": "O" 
			},
			{
				"x": -0.8941699599,
				"y": 1.2847541736,
				"z": 1.1505051661,
				"element": "C" 
			},
			{
				"x": -2.2844959379,
				"y": 1.3545738537,
				"z": 1.2255255027,
				"element": "C" 
			},
			{
				"x": -3.0693663716,
				"y": 1.3089713219,
				"z": 0.0748138011,
				"element": "C" 
			},
			{
				"x": -4.2015607884,
				"y": 0.9257614804,
				"z": -2.241257314,
				"element": "H" 
			},
			{
				"x": -2.808127373,
				"y": 0.7916347577,
				"z": -3.1672323585,
				"element": "H" 
			},
			{
				"x": -0.5835615716,
				"y": 1.0443971332,
				"z": -2.233545446,
				"element": "H" 
			},
			{
				"x": 1.5495256289,
				"y": 1.2134828477,
				"z": -1.2504900381,
				"element": "H" 
			},
			{
				"x": 1.7304951465,
				"y": 1.8126046557,
				"z": 0.411014325,
				"element": "H" 
			},
			{
				"x": 0.2941887331,
				"y": -1.223136823,
				"z": -0.7390373312,
				"element": "H" 
			},
			{
				"x": 3.2488390858,
				"y": -3.7377788673,
				"z": 0.8256710248,
				"element": "H" 
			},
			{
				"x": 4.2455335662,
				"y": -1.7142879483,
				"z": 1.9320691795,
				"element": "H" 
			},
			{
				"x": -0.2879106848,
				"y": 1.3186592772,
				"z": 2.0505419924,
				"element": "H" 
			},
			{
				"x": -2.7687660917,
				"y": 1.446877835,
				"z": 2.1935759407,
				"element": "H" 
			},
			{
				"x": -4.1520791418,
				"y": 1.3704700747,
				"z": 0.1499904157,
				"element": "H" 
			}
		],
		 "valence_orbital": [ 
			{
				"type": "occ",
				"energy": -0.26804,
				"method": "rhf"
			},
			{
				"type": "occ",
				"energy": -0.2632,
				"method": "rhf"
			},
			{
				"type": "occ",
				"energy": -0.2569,
				"method": "rhf"
			},
			{
				"type": "occ",
				"energy": -0.22357,
				"method": "rhf"
			},
			{
				"type": "occ",
				"energy": -0.21446,
				"method": "rhf"
			},
			{
				"type": "unocc",
				"energy": -0.06855,
				"method": "rhf"
			},
			{
				"type": "unocc",
				"energy": -0.01592,
				"method": "rhf"
			},
			{
				"type": "unocc",
				"energy": -0.00083,
				"method": "rhf"
			},
			{
				"type": "unocc",
				"energy": 0.02419,
				"method": "rhf"
			},
			{
				"type": "unocc",
				"energy": 0.06976,
				"method": "rhf"
			}
		],
		"cosmo_sigma_profile": { 
			"-0.025": 0.0,
			"-0.024": 0.0,
			"-0.023": 0.0,
			"-0.022": 0.0,
			"-0.021": 0.0,
			"-0.02": 0.0,
			"-0.019": 0.0,
			"-0.018": 0.0,
			"-0.017": 0.0,
			"-0.016": 0.0,
			"-0.015": 0.0,
			"-0.014": 0.0,
			"-0.013": 0.589220896266,
			"-0.012": 3.15379982479,
			"-0.011": 3.50412396781,
			"-0.01": 4.06168152185,
			"-0.009": 5.58071877133,
			"-0.008": 8.4912026043,
			"-0.007": 10.9680901023,
			"-0.006": 13.9862152321,
			"-0.005": 16.0285527035,
			"-0.004": 20.1708173127,
			"-0.003": 17.2462612853,
			"-0.002": 18.269456094,
			"-0.001": 16.7580038158,
			"0.0": 12.819788001,
			"0.001": 11.220472429,
			"0.002": 11.0707898138,
			"0.003": 9.0836115347,
			"0.004": 9.02029562419,
			"0.005": 9.95774659049,
			"0.006": 10.0620426459,
			"0.007": 5.11206694724,
			"0.008": 2.38082808944,
			"0.009": 3.32134173969,
			"0.01": 3.14548043293,
			"0.011": 3.90832174681,
			"0.012": 5.8516938963,
			"0.013": 11.719726367,
			"0.014": 5.3475603327,
			"0.015": 0.112834661838,
			"0.016": 0.0,
			"0.017": 0.0,
			"0.018": 0.0,
			"0.019": 0.0,
			"0.02": 0.0,
			"0.021": 0.0,
			"0.022": 0.0,
			"0.023": 0.0,
			"0.024": 0.0,
			"0.025": 0.0
		}
	}
}
