{
	 "smiles": "COC1=CC=C(NC(=O)NCCC(O)=O)C=C1", 
	 "Tm": 448.15, 
	 "num_atms": 31, 
	 "gaussian": { 
		 "optdone": 1, 
		 "sigma_profile": "yes", 
		 "theory": "DFT", 
		 "functional": "B3LYP", 
		 "basiset": "6-31G**", 
		 "properties": { 
			 "R2extent": 5875.0319, 
			 "electric_dipole_moment_norm": 3.8337105655, 
			 "electric_quadrupole_moment_norm": 9.78649607929, 
			 "total_energy": -838.040628727, 
			 "HOMO_LUMO_gap": 0.19563, 
			 "cosmo_polarized_energy": -18.32, 
			 "cosmo_cavitation_energy": 35.43, 
			 "cosmo_dispersion_energy": -25.07, 
			 "cosmo_repulsion_energy": 1.97, 
			 "cosmo_total_nonelectrostatic_energy": 12.33, 
			 "SMD_solvation_energy": 7.63 
		},
		"coords": [
			{
				"x": -3.5568304356,
				"y": 0.3891404358,
				"z": 4.1689744827,
				"element": "C" 
			},
			{
				"x": -2.2339222218,
				"y": 0.1270812657,
				"z": 4.6077922539,
				"element": "O" 
			},
			{
				"x": -1.2118423783,
				"y": 0.3226377862,
				"z": 3.7234836019,
				"element": "C" 
			},
			{
				"x": 0.0762925349,
				"y": 0.0504845398,
				"z": 4.2091314524,
				"element": "C" 
			},
			{
				"x": 1.1820019037,
				"y": 0.1979823826,
				"z": 3.3840449684,
				"element": "C" 
			},
			{
				"x": 1.0392645936,
				"y": 0.6468307628,
				"z": 2.0600314485,
				"element": "C" 
			},
			{
				"x": 2.1909569883,
				"y": 0.8351815502,
				"z": 1.2552363141,
				"element": "N" 
			},
			{
				"x": 2.4898186234,
				"y": 0.313580698,
				"z": -0.0006694019,
				"element": "C" 
			},
			{
				"x": 3.5926143148,
				"y": 0.5110549132,
				"z": -0.5075808444,
				"element": "O" 
			},
			{
				"x": 1.5107971062,
				"y": -0.4298197849,
				"z": -0.6113212355,
				"element": "N" 
			},
			{
				"x": 1.6615181957,
				"y": -0.7913420244,
				"z": -2.0097694537,
				"element": "C" 
			},
			{
				"x": 1.3820311758,
				"y": 0.3648723193,
				"z": -2.9793724524,
				"element": "C" 
			},
			{
				"x": -0.0337808885,
				"y": 0.8844045168,
				"z": -2.8907780526,
				"element": "C" 
			},
			{
				"x": -0.3106703141,
				"y": 1.765357537,
				"z": -3.8776717934,
				"element": "O" 
			},
			{
				"x": -0.856950809,
				"y": 0.5801336459,
				"z": -2.0481394518,
				"element": "O" 
			},
			{
				"x": -0.2448117328,
				"y": 0.9477912824,
				"z": 1.5925426137,
				"element": "C" 
			},
			{
				"x": -1.3672554831,
				"y": 0.7671043519,
				"z": 2.4067003416,
				"element": "C" 
			},
			{
				"x": -3.8369575683,
				"y": -0.2492234406,
				"z": 3.3208515483,
				"element": "H" 
			},
			{
				"x": -4.2062993301,
				"y": 0.1642966772,
				"z": 5.0164094753,
				"element": "H" 
			},
			{
				"x": -3.6889663746,
				"y": 1.4409515475,
				"z": 3.8833247125,
				"element": "H" 
			},
			{
				"x": 0.18278327,
				"y": -0.2917757669,
				"z": 5.2332935669,
				"element": "H" 
			},
			{
				"x": 2.1727245758,
				"y": -0.0404761568,
				"z": 3.7612103565,
				"element": "H" 
			},
			{
				"x": 3.0244709978,
				"y": 1.1847592011,
				"z": 1.7068292798,
				"element": "H" 
			},
			{
				"x": 0.5664582448,
				"y": -0.3901632309,
				"z": -0.2595503852,
				"element": "H" 
			},
			{
				"x": 2.6873461837,
				"y": -1.1322867952,
				"z": -2.1610343363,
				"element": "H" 
			},
			{
				"x": 0.986996736,
				"y": -1.6276873031,
				"z": -2.2141028192,
				"element": "H" 
			},
			{
				"x": 2.0681502785,
				"y": 1.1930856194,
				"z": -2.7654215738,
				"element": "H" 
			},
			{
				"x": 1.5779265496,
				"y": 0.0677220264,
				"z": -4.0162237871,
				"element": "H" 
			},
			{
				"x": -1.2268215636,
				"y": 2.0577517319,
				"z": -3.7342321175,
				"element": "H" 
			},
			{
				"x": -0.3814998762,
				"y": 1.3378423499,
				"z": 0.5885296437,
				"element": "H" 
			},
			{
				"x": -2.3467432966,
				"y": 0.9984273617,
				"z": 2.0056816446,
				"element": "H" 
			}
		],
		 "valence_orbital": [ 
			{
				"type": "occ",
				"energy": -0.26667,
				"method": "rhf"
			},
			{
				"type": "occ",
				"energy": -0.25703,
				"method": "rhf"
			},
			{
				"type": "occ",
				"energy": -0.25217,
				"method": "rhf"
			},
			{
				"type": "occ",
				"energy": -0.2413,
				"method": "rhf"
			},
			{
				"type": "occ",
				"energy": -0.20558,
				"method": "rhf"
			},
			{
				"type": "unocc",
				"energy": -0.00995,
				"method": "rhf"
			},
			{
				"type": "unocc",
				"energy": 0.00015,
				"method": "rhf"
			},
			{
				"type": "unocc",
				"energy": 0.00545,
				"method": "rhf"
			},
			{
				"type": "unocc",
				"energy": 0.06806,
				"method": "rhf"
			},
			{
				"type": "unocc",
				"energy": 0.077,
				"method": "rhf"
			}
		],
		"cosmo_sigma_profile": { 
			"-0.025": 0.0,
			"-0.024": 0.0,
			"-0.023": 0.0,
			"-0.022": 0.0,
			"-0.021": 0.0,
			"-0.02": 0.0,
			"-0.019": 0.103401204843,
			"-0.018": 0.776661051603,
			"-0.017": 0.608642055742,
			"-0.016": 1.30411698085,
			"-0.015": 0.577264184625,
			"-0.014": 0.67930173669,
			"-0.013": 1.82313493807,
			"-0.012": 1.52289227187,
			"-0.011": 2.16100238948,
			"-0.01": 1.43707556415,
			"-0.009": 1.42746653315,
			"-0.008": 2.26171806855,
			"-0.007": 5.06542360307,
			"-0.006": 17.3162285229,
			"-0.005": 24.583080979,
			"-0.004": 26.2547661496,
			"-0.003": 25.5676856011,
			"-0.002": 17.9792233515,
			"-0.001": 14.8143950178,
			"0.0": 13.9265047369,
			"0.001": 12.1939638012,
			"0.002": 14.0470075603,
			"0.003": 16.8118911297,
			"0.004": 18.8445604646,
			"0.005": 13.4490033128,
			"0.006": 6.78096064134,
			"0.007": 6.02744161716,
			"0.008": 5.72235669667,
			"0.009": 5.05397848924,
			"0.01": 4.85068515282,
			"0.011": 4.01505730021,
			"0.012": 2.3816392317,
			"0.013": 2.20893436281,
			"0.014": 4.26788567059,
			"0.015": 3.40040989668,
			"0.016": 0.0362242165346,
			"0.017": 0.0,
			"0.018": 0.0,
			"0.019": 0.0,
			"0.02": 0.0,
			"0.021": 0.0,
			"0.022": 0.0,
			"0.023": 0.0,
			"0.024": 0.0,
			"0.025": 0.0
		}
	}
}
