{
	 "smiles": "COC1=CC=C2C(=O)CC2=C1C", 
	 "Tm": 345.65, 
	 "num_atms": 22, 
	 "gaussian": { 
		 "optdone": 1, 
		 "sigma_profile": "yes", 
		 "theory": "DFT", 
		 "functional": "B3LYP", 
		 "basiset": "6-31G**", 
		 "properties": { 
			 "R2extent": 2349.441, 
			 "electric_dipole_moment_norm": 4.92433159525, 
			 "electric_quadrupole_moment_norm": 14.2847886285, 
			 "total_energy": -537.494675231, 
			 "HOMO_LUMO_gap": 0.18232, 
			 "cosmo_polarized_energy": -9.63, 
			 "cosmo_cavitation_energy": 25.89, 
			 "cosmo_dispersion_energy": -18.85, 
			 "cosmo_repulsion_energy": 1.52, 
			 "cosmo_total_nonelectrostatic_energy": 8.56, 
			 "SMD_solvation_energy": 5.67 
		},
		"coords": [
			{
				"x": 3.0863445608,
				"y": -1.4263778309,
				"z": 0.2214443284,
				"element": "C" 
			},
			{
				"x": 1.8920077555,
				"y": -0.8969868467,
				"z": 0.7798283108,
				"element": "O" 
			},
			{
				"x": 0.9277957156,
				"y": -0.4065980723,
				"z": -0.0480181929,
				"element": "C" 
			},
			{
				"x": 1.0530491596,
				"y": -0.3960104138,
				"z": -1.4540244059,
				"element": "C" 
			},
			{
				"x": 0.0396945302,
				"y": 0.1167335649,
				"z": -2.269350339,
				"element": "C" 
			},
			{
				"x": -1.0834172499,
				"y": 0.6085252224,
				"z": -1.6147211955,
				"element": "C" 
			},
			{
				"x": -2.424981593,
				"y": 1.2416036218,
				"z": -1.7610736329,
				"element": "C" 
			},
			{
				"x": -3.1294457738,
				"y": 1.614813265,
				"z": -2.6666121009,
				"element": "O" 
			},
			{
				"x": -2.5828210931,
				"y": 1.2379882079,
				"z": -0.1905422721,
				"element": "C" 
			},
			{
				"x": -1.1984297113,
				"y": 0.5933779695,
				"z": -0.2142627723,
				"element": "C" 
			},
			{
				"x": -0.2184417487,
				"y": 0.0950158873,
				"z": 0.6249613846,
				"element": "C" 
			},
			{
				"x": -0.3099553233,
				"y": 0.0638227037,
				"z": 2.1269446659,
				"element": "C" 
			},
			{
				"x": 3.6934212276,
				"y": -1.7509520608,
				"z": 1.0676802451,
				"element": "H" 
			},
			{
				"x": 3.6363905346,
				"y": -0.6671625776,
				"z": -0.3480338917,
				"element": "H" 
			},
			{
				"x": 2.8813978806,
				"y": -2.2866461424,
				"z": -0.4275483815,
				"element": "H" 
			},
			{
				"x": 1.9505101345,
				"y": -0.7921149507,
				"z": -1.9137846919,
				"element": "H" 
			},
			{
				"x": 0.1440739537,
				"y": 0.1210985497,
				"z": -3.3497574274,
				"element": "H" 
			},
			{
				"x": -3.407891033,
				"y": 0.619685462,
				"z": 0.180641235,
				"element": "H" 
			},
			{
				"x": -2.6547724398,
				"y": 2.2342737739,
				"z": 0.2600679845,
				"element": "H" 
			},
			{
				"x": -0.2342788308,
				"y": -0.9604255186,
				"z": 2.5081021011,
				"element": "H" 
			},
			{
				"x": -1.2574814754,
				"y": 0.4898431139,
				"z": 2.4650023619,
				"element": "H" 
			},
			{
				"x": 0.5083308196,
				"y": 0.6289930717,
				"z": 2.5863566867,
				"element": "H" 
			}
		],
		 "valence_orbital": [ 
			{
				"type": "occ",
				"energy": -0.32473,
				"method": "rhf"
			},
			{
				"type": "occ",
				"energy": -0.32452,
				"method": "rhf"
			},
			{
				"type": "occ",
				"energy": -0.25256,
				"method": "rhf"
			},
			{
				"type": "occ",
				"energy": -0.23845,
				"method": "rhf"
			},
			{
				"type": "occ",
				"energy": -0.22871,
				"method": "rhf"
			},
			{
				"type": "unocc",
				"energy": -0.04639,
				"method": "rhf"
			},
			{
				"type": "unocc",
				"energy": -0.00538,
				"method": "rhf"
			},
			{
				"type": "unocc",
				"energy": 0.05701,
				"method": "rhf"
			},
			{
				"type": "unocc",
				"energy": 0.08746,
				"method": "rhf"
			},
			{
				"type": "unocc",
				"energy": 0.09337,
				"method": "rhf"
			}
		],
		"cosmo_sigma_profile": { 
			"-0.025": 0.0,
			"-0.024": 0.0,
			"-0.023": 0.0,
			"-0.022": 0.0,
			"-0.021": 0.0,
			"-0.02": 0.0,
			"-0.019": 0.0,
			"-0.018": 0.0,
			"-0.017": 0.0,
			"-0.016": 0.0,
			"-0.015": 0.0,
			"-0.014": 0.0,
			"-0.013": 0.0,
			"-0.012": 0.0,
			"-0.011": 0.0,
			"-0.01": 0.0,
			"-0.009": 0.0,
			"-0.008": 0.0931268282154,
			"-0.007": 3.91569301644,
			"-0.006": 11.9382739388,
			"-0.005": 17.7917334918,
			"-0.004": 19.0248398075,
			"-0.003": 21.3979016592,
			"-0.002": 18.7921904289,
			"-0.001": 16.08922899,
			"0.0": 17.334386242,
			"0.001": 14.3967801173,
			"0.002": 12.8236252626,
			"0.003": 13.5482688951,
			"0.004": 9.84412917006,
			"0.005": 3.89849721773,
			"0.006": 2.96465630424,
			"0.007": 2.97378563656,
			"0.008": 3.05996793885,
			"0.009": 2.59701019736,
			"0.01": 2.03967293356,
			"0.011": 4.19864020036,
			"0.012": 5.19523121809,
			"0.013": 2.11684330617,
			"0.014": 0.0340226190417,
			"0.015": 0.0,
			"0.016": 0.0,
			"0.017": 0.0,
			"0.018": 0.0,
			"0.019": 0.0,
			"0.02": 0.0,
			"0.021": 0.0,
			"0.022": 0.0,
			"0.023": 0.0,
			"0.024": 0.0,
			"0.025": 0.0
		}
	}
}
