{
	 "smiles": "NC1=C(NC2=CC(=CC=C2)C(F)(F)F)C=CC(=C1)[N+]([O-])=O", 
	 "Tm": 439.15, 
	 "num_atms": 31, 
	 "gaussian": { 
		 "optdone": 1, 
		 "sigma_profile": "yes", 
		 "theory": "DFT", 
		 "functional": "B3LYP", 
		 "basiset": "6-31G**", 
		 "properties": { 
			 "R2extent": 9813.6031, 
			 "electric_dipole_moment_norm": 4.38562811237, 
			 "electric_quadrupole_moment_norm": 40.3542433727, 
			 "total_energy": -1115.55164268, 
			 "HOMO_LUMO_gap": 0.134, 
			 "cosmo_polarized_energy": -17.29, 
			 "cosmo_cavitation_energy": 37.85, 
			 "cosmo_dispersion_energy": -26.92, 
			 "cosmo_repulsion_energy": 1.98, 
			 "cosmo_total_nonelectrostatic_energy": 12.92, 
			 "SMD_solvation_energy": 9.68 
		},
		"coords": [
			{
				"x": 1.9313725391,
				"y": -2.5509389018,
				"z": 0.0924195959,
				"element": "N" 
			},
			{
				"x": 1.9772114553,
				"y": -1.2922331419,
				"z": -0.5393558435,
				"element": "C" 
			},
			{
				"x": 0.7730225675,
				"y": -0.5338833762,
				"z": -0.5955732018,
				"element": "C" 
			},
			{
				"x": -0.3468663594,
				"y": -1.118205585,
				"z": -0.0061958071,
				"element": "N" 
			},
			{
				"x": -1.6868684919,
				"y": -0.7198082334,
				"z": -0.0937827649,
				"element": "C" 
			},
			{
				"x": -2.5152380235,
				"y": -0.8864522369,
				"z": 1.0269172837,
				"element": "C" 
			},
			{
				"x": -3.8684001235,
				"y": -0.561545938,
				"z": 0.9554132901,
				"element": "C" 
			},
			{
				"x": -4.420573755,
				"y": -0.0504906153,
				"z": -0.2216508649,
				"element": "C" 
			},
			{
				"x": -3.5972198902,
				"y": 0.1120962046,
				"z": -1.3353061074,
				"element": "C" 
			},
			{
				"x": -2.2468190601,
				"y": -0.2264900744,
				"z": -1.2852596243,
				"element": "C" 
			},
			{
				"x": -4.7531689557,
				"y": -0.8104624702,
				"z": 2.1487329415,
				"element": "C" 
			},
			{
				"x": -5.759527321,
				"y": 0.0867356327,
				"z": 2.2229047765,
				"element": "F" 
			},
			{
				"x": -5.322935055,
				"y": -2.0369964014,
				"z": 2.0944267264,
				"element": "F" 
			},
			{
				"x": -4.0654285641,
				"y": -0.749197168,
				"z": 3.3109125589,
				"element": "F" 
			},
			{
				"x": 0.7880773748,
				"y": 0.7419997836,
				"z": -1.1790044246,
				"element": "C" 
			},
			{
				"x": 1.9646153148,
				"y": 1.2762197653,
				"z": -1.6935161313,
				"element": "C" 
			},
			{
				"x": 3.1350407412,
				"y": 0.5273688832,
				"z": -1.6111346519,
				"element": "C" 
			},
			{
				"x": 3.1519502999,
				"y": -0.7494522338,
				"z": -1.0449381632,
				"element": "C" 
			},
			{
				"x": 4.3784715401,
				"y": 1.0779618338,
				"z": -2.143358558,
				"element": "N" 
			},
			{
				"x": 5.4015538419,
				"y": 0.3963673253,
				"z": -2.035889072,
				"element": "O" 
			},
			{
				"x": 4.3364020995,
				"y": 2.1919920967,
				"z": -2.6699211226,
				"element": "O" 
			},
			{
				"x": 2.824664831,
				"y": -3.0282873367,
				"z": 0.0889476539,
				"element": "H" 
			},
			{
				"x": 1.2128193307,
				"y": -3.1587928803,
				"z": -0.290833272,
				"element": "H" 
			},
			{
				"x": -0.1147247389,
				"y": -1.7140376925,
				"z": 0.7805301871,
				"element": "H" 
			},
			{
				"x": -2.0984706766,
				"y": -1.2559916875,
				"z": 1.9585341931,
				"element": "H" 
			},
			{
				"x": -5.4704033704,
				"y": 0.2158116607,
				"z": -0.2611990871,
				"element": "H" 
			},
			{
				"x": -4.0132293096,
				"y": 0.4965869669,
				"z": -2.2615722642,
				"element": "H" 
			},
			{
				"x": -1.6306520572,
				"y": -0.1290907278,
				"z": -2.1717842905,
				"element": "H" 
			},
			{
				"x": -0.1193186733,
				"y": 1.3331136597,
				"z": -1.1970031382,
				"element": "H" 
			},
			{
				"x": 1.9916721454,
				"y": 2.2643521515,
				"z": -2.1340762084,
				"element": "H" 
			},
			{
				"x": 4.0828703441,
				"y": -1.303749263,
				"z": -1.0218846093,
				"element": "H" 
			}
		],
		 "valence_orbital": [ 
			{
				"type": "occ",
				"energy": -0.28173,
				"method": "rhf"
			},
			{
				"type": "occ",
				"energy": -0.2802,
				"method": "rhf"
			},
			{
				"type": "occ",
				"energy": -0.27864,
				"method": "rhf"
			},
			{
				"type": "occ",
				"energy": -0.2508,
				"method": "rhf"
			},
			{
				"type": "occ",
				"energy": -0.21446,
				"method": "rhf"
			},
			{
				"type": "unocc",
				"energy": -0.08046,
				"method": "rhf"
			},
			{
				"type": "unocc",
				"energy": -0.03773,
				"method": "rhf"
			},
			{
				"type": "unocc",
				"energy": -0.02471,
				"method": "rhf"
			},
			{
				"type": "unocc",
				"energy": -0.01493,
				"method": "rhf"
			},
			{
				"type": "unocc",
				"energy": 0.01921,
				"method": "rhf"
			}
		],
		"cosmo_sigma_profile": { 
			"-0.025": 0.0,
			"-0.024": 0.0,
			"-0.023": 0.0,
			"-0.022": 0.0,
			"-0.021": 0.0,
			"-0.02": 0.0,
			"-0.019": 0.0,
			"-0.018": 0.0,
			"-0.017": 0.0,
			"-0.016": 0.0,
			"-0.015": 0.0,
			"-0.014": 0.031771677172,
			"-0.013": 2.46033181375,
			"-0.012": 4.12493903431,
			"-0.011": 4.42017776736,
			"-0.01": 4.47144371563,
			"-0.009": 4.65756894526,
			"-0.008": 4.61540010315,
			"-0.007": 7.31245267346,
			"-0.006": 12.6321364572,
			"-0.005": 15.3638685485,
			"-0.004": 16.0416195904,
			"-0.003": 11.5320041976,
			"-0.002": 15.2654791436,
			"-0.001": 17.1513065758,
			"0.0": 21.1063746555,
			"0.001": 26.6590245203,
			"0.002": 39.9679878049,
			"0.003": 46.8629344878,
			"0.004": 11.3837119026,
			"0.005": 3.61222026453,
			"0.006": 3.536851548,
			"0.007": 4.3467466561,
			"0.008": 9.09897938145,
			"0.009": 8.09089879023,
			"0.01": 4.92044957643,
			"0.011": 3.04681784443,
			"0.012": 0.664404038726,
			"0.013": 0.0721464377396,
			"0.014": 0.0,
			"0.015": 0.0,
			"0.016": 0.0,
			"0.017": 0.0,
			"0.018": 0.0,
			"0.019": 0.0,
			"0.02": 0.0,
			"0.021": 0.0,
			"0.022": 0.0,
			"0.023": 0.0,
			"0.024": 0.0,
			"0.025": 0.0
		}
	}
}
