{
	 "smiles": "CC1=C(N)C(C(O)=O)=C(F)C=C1", 
	 "Tm": 413.15, 
	 "num_atms": 20, 
	 "gaussian": { 
		 "optdone": 1, 
		 "sigma_profile": "yes", 
		 "theory": "DFT", 
		 "functional": "B3LYP", 
		 "basiset": "6-31G**", 
		 "properties": { 
			 "R2extent": 3719.4343, 
			 "electric_dipole_moment_norm": 4.44850614589, 
			 "electric_quadrupole_moment_norm": 14.7592999746, 
			 "total_energy": -614.737195089, 
			 "HOMO_LUMO_gap": 0.16851, 
			 "cosmo_polarized_energy": -11.01, 
			 "cosmo_cavitation_energy": 23.57, 
			 "cosmo_dispersion_energy": -18.09, 
			 "cosmo_repulsion_energy": 1.39, 
			 "cosmo_total_nonelectrostatic_energy": 6.87, 
			 "SMD_solvation_energy": 5.3 
		},
		"coords": [
			{
				"x": -0.7698834652,
				"y": 0.2831235062,
				"z": -1.0237164362,
				"element": "C" 
			},
			{
				"x": -1.0100604989,
				"y": 0.3358980822,
				"z": 0.464113887,
				"element": "C" 
			},
			{
				"x": 0.0165302021,
				"y": -0.0937583504,
				"z": 1.3598043159,
				"element": "C" 
			},
			{
				"x": 1.1893485815,
				"y": -0.5513957672,
				"z": 0.8560773045,
				"element": "N" 
			},
			{
				"x": -0.2036234425,
				"y": -0.0478842502,
				"z": 2.7777132628,
				"element": "C" 
			},
			{
				"x": 0.8744192733,
				"y": -0.4823965242,
				"z": 3.7108444676,
				"element": "C" 
			},
			{
				"x": 0.644767418,
				"y": -0.4342766288,
				"z": 5.0359400616,
				"element": "O" 
			},
			{
				"x": 1.9670878982,
				"y": -0.8827912859,
				"z": 3.3316661123,
				"element": "O" 
			},
			{
				"x": -1.4593312982,
				"y": 0.428949771,
				"z": 3.1983725207,
				"element": "C" 
			},
			{
				"x": -1.7298362182,
				"y": 0.4939216802,
				"z": 4.5440610574,
				"element": "F" 
			},
			{
				"x": -2.4634102215,
				"y": 0.8464268701,
				"z": 2.3570549234,
				"element": "C" 
			},
			{
				"x": -2.2125138807,
				"y": 0.7911995093,
				"z": 0.9793756785,
				"element": "C" 
			},
			{
				"x": -0.5547210049,
				"y": -0.7376683772,
				"z": -1.3669445284,
				"element": "H" 
			},
			{
				"x": -1.6471432304,
				"y": 0.6346355575,
				"z": -1.5717074141,
				"element": "H" 
			},
			{
				"x": 0.0777763217,
				"y": 0.913489295,
				"z": -1.3257319198,
				"element": "H" 
			},
			{
				"x": 1.9120467431,
				"y": -0.8148639706,
				"z": 1.5188113103,
				"element": "H" 
			},
			{
				"x": 1.3645555339,
				"y": -0.5202281415,
				"z": -0.1321766508,
				"element": "H" 
			},
			{
				"x": -0.2491155312,
				"y": -0.1016710477,
				"z": 5.2140697897,
				"element": "H" 
			},
			{
				"x": -3.4022512986,
				"y": 1.1993641063,
				"z": 2.7652161804,
				"element": "H" 
			},
			{
				"x": -2.9881418817,
				"y": 1.1152259661,
				"z": 0.2906560772,
				"element": "H" 
			}
		],
		 "valence_orbital": [ 
			{
				"type": "occ",
				"energy": -0.3236,
				"method": "rhf"
			},
			{
				"type": "occ",
				"energy": -0.3066,
				"method": "rhf"
			},
			{
				"type": "occ",
				"energy": -0.2736,
				"method": "rhf"
			},
			{
				"type": "occ",
				"energy": -0.26041,
				"method": "rhf"
			},
			{
				"type": "occ",
				"energy": -0.2124,
				"method": "rhf"
			},
			{
				"type": "unocc",
				"energy": -0.04389,
				"method": "rhf"
			},
			{
				"type": "unocc",
				"energy": 0.00476,
				"method": "rhf"
			},
			{
				"type": "unocc",
				"energy": 0.05448,
				"method": "rhf"
			},
			{
				"type": "unocc",
				"energy": 0.07364,
				"method": "rhf"
			},
			{
				"type": "unocc",
				"energy": 0.0786,
				"method": "rhf"
			}
		],
		"cosmo_sigma_profile": { 
			"-0.025": 0.0,
			"-0.024": 0.0,
			"-0.023": 0.0,
			"-0.022": 0.0,
			"-0.021": 0.0,
			"-0.02": 0.0,
			"-0.019": 0.0,
			"-0.018": 0.0,
			"-0.017": 0.0,
			"-0.016": 0.0,
			"-0.015": 0.0,
			"-0.014": 0.0,
			"-0.013": 0.667826783234,
			"-0.012": 1.45780456311,
			"-0.011": 1.72023508165,
			"-0.01": 2.28005947769,
			"-0.009": 2.14222300074,
			"-0.008": 4.30556656718,
			"-0.007": 6.58611503481,
			"-0.006": 8.10417919247,
			"-0.005": 10.9148414604,
			"-0.004": 12.7766630589,
			"-0.003": 10.7186754807,
			"-0.002": 11.5352550219,
			"-0.001": 14.291241899,
			"0.0": 16.2604816883,
			"0.001": 13.3885958715,
			"0.002": 17.3453616616,
			"0.003": 16.6422173459,
			"0.004": 9.43210176404,
			"0.005": 4.14963089973,
			"0.006": 2.36983136438,
			"0.007": 2.03479903576,
			"0.008": 2.74267608316,
			"0.009": 3.20279871072,
			"0.01": 3.03938886424,
			"0.011": 4.01764160399,
			"0.012": 3.29883357743,
			"0.013": 2.22577176731,
			"0.014": 0.550264657087,
			"0.015": 0.0,
			"0.016": 0.0,
			"0.017": 0.0,
			"0.018": 0.0,
			"0.019": 0.0,
			"0.02": 0.0,
			"0.021": 0.0,
			"0.022": 0.0,
			"0.023": 0.0,
			"0.024": 0.0,
			"0.025": 0.0
		}
	}
}
