{
	 "smiles": "OC(=O)C1=C(NC(=O)CN2C=NN=N2)C=CC=C1", 
	 "Tm": 468.15, 
	 "num_atms": 27, 
	 "gaussian": { 
		 "optdone": 1, 
		 "sigma_profile": "yes", 
		 "theory": "DFT", 
		 "functional": "B3LYP", 
		 "basiset": "6-31G**", 
		 "properties": { 
			 "R2extent": 5133.0069, 
			 "electric_dipole_moment_norm": 3.14224836383, 
			 "electric_quadrupole_moment_norm": 47.6993065829, 
			 "total_energy": -885.872896831, 
			 "HOMO_LUMO_gap": 0.20986, 
			 "cosmo_polarized_energy": -29.98, 
			 "cosmo_cavitation_energy": 32.91, 
			 "cosmo_dispersion_energy": -22.99, 
			 "cosmo_repulsion_energy": 1.75, 
			 "cosmo_total_nonelectrostatic_energy": 11.67, 
			 "SMD_solvation_energy": 6.02 
		},
		"coords": [
			{
				"x": 2.5886098815,
				"y": 1.3542828025,
				"z": -0.7749832941,
				"element": "O" 
			},
			{
				"x": 2.8970301457,
				"y": 0.7776792816,
				"z": 0.4086707536,
				"element": "C" 
			},
			{
				"x": 4.0381199035,
				"y": 0.7702733046,
				"z": 0.8066431088,
				"element": "O" 
			},
			{
				"x": 1.7556244375,
				"y": 0.2276856838,
				"z": 1.229305573,
				"element": "C" 
			},
			{
				"x": 0.4839641718,
				"y": -0.1234431926,
				"z": 0.7389141996,
				"element": "C" 
			},
			{
				"x": 0.1739279194,
				"y": -0.065723333,
				"z": -0.6652389548,
				"element": "N" 
			},
			{
				"x": 0.7138308576,
				"y": -0.9839698846,
				"z": -1.5559365795,
				"element": "C" 
			},
			{
				"x": 1.6752920251,
				"y": -1.6861133067,
				"z": -1.3248484042,
				"element": "O" 
			},
			{
				"x": 0.066113585,
				"y": -0.9845095301,
				"z": -2.9569664987,
				"element": "C" 
			},
			{
				"x": -1.3875018713,
				"y": -1.1096586874,
				"z": -2.9484187389,
				"element": "N" 
			},
			{
				"x": -2.1962685258,
				"y": -2.0832979062,
				"z": -3.4133823251,
				"element": "C" 
			},
			{
				"x": -3.4487295885,
				"y": -1.7566368279,
				"z": -3.1614847733,
				"element": "N" 
			},
			{
				"x": -3.3985748503,
				"y": -0.5605770961,
				"z": -2.5232507363,
				"element": "N" 
			},
			{
				"x": -2.1749181754,
				"y": -0.1571889534,
				"z": -2.3929376298,
				"element": "N" 
			},
			{
				"x": -0.5205995731,
				"y": -0.5395011975,
				"z": 1.616801952,
				"element": "C" 
			},
			{
				"x": -0.2709812015,
				"y": -0.6206400633,
				"z": 2.9851645405,
				"element": "C" 
			},
			{
				"x": 0.9974668804,
				"y": -0.3109892748,
				"z": 3.4794869032,
				"element": "C" 
			},
			{
				"x": 1.9972866336,
				"y": 0.1018131287,
				"z": 2.6045174384,
				"element": "C" 
			},
			{
				"x": 1.6330009805,
				"y": 1.2685332238,
				"z": -0.9354280821,
				"element": "H" 
			},
			{
				"x": -0.7562500224,
				"y": 0.2755223165,
				"z": -0.9051363594,
				"element": "H" 
			},
			{
				"x": 0.3348421722,
				"y": -0.0636098356,
				"z": -3.4848494371,
				"element": "H" 
			},
			{
				"x": 0.4822979485,
				"y": -1.8339681806,
				"z": -3.4967067205,
				"element": "H" 
			},
			{
				"x": -1.8513097622,
				"y": -2.9761681887,
				"z": -3.9124766728,
				"element": "H" 
			},
			{
				"x": -1.493744264,
				"y": -0.811524313,
				"z": 1.2178653525,
				"element": "H" 
			},
			{
				"x": -1.0614459734,
				"y": -0.9395560051,
				"z": 3.657632138,
				"element": "H" 
			},
			{
				"x": 1.2044431042,
				"y": -0.3876552182,
				"z": 4.542284771,
				"element": "H" 
			},
			{
				"x": 2.9901731613,
				"y": 0.3519412534,
				"z": 2.961458476,
				"element": "H" 
			}
		],
		 "valence_orbital": [ 
			{
				"type": "occ",
				"energy": -0.30964,
				"method": "rhf"
			},
			{
				"type": "occ",
				"energy": -0.29393,
				"method": "rhf"
			},
			{
				"type": "occ",
				"energy": -0.27849,
				"method": "rhf"
			},
			{
				"type": "occ",
				"energy": -0.26689,
				"method": "rhf"
			},
			{
				"type": "occ",
				"energy": -0.26623,
				"method": "rhf"
			},
			{
				"type": "unocc",
				"energy": -0.05637,
				"method": "rhf"
			},
			{
				"type": "unocc",
				"energy": -0.05259,
				"method": "rhf"
			},
			{
				"type": "unocc",
				"energy": -0.03525,
				"method": "rhf"
			},
			{
				"type": "unocc",
				"energy": -0.01525,
				"method": "rhf"
			},
			{
				"type": "unocc",
				"energy": -0.0057,
				"method": "rhf"
			}
		],
		"cosmo_sigma_profile": { 
			"-0.025": 0.0,
			"-0.024": 0.0,
			"-0.023": 0.0,
			"-0.022": 0.0,
			"-0.021": 0.0,
			"-0.02": 0.0,
			"-0.019": 0.0,
			"-0.018": 0.0,
			"-0.017": 0.0,
			"-0.016": 0.0,
			"-0.015": 0.0,
			"-0.014": 0.823691996685,
			"-0.013": 5.26347327594,
			"-0.012": 4.39952929328,
			"-0.011": 7.43871267336,
			"-0.01": 8.03712862383,
			"-0.009": 9.24354583741,
			"-0.008": 9.90440231698,
			"-0.007": 15.4951594342,
			"-0.006": 13.4746779488,
			"-0.005": 13.9518348368,
			"-0.004": 10.5102902891,
			"-0.003": 10.3476168427,
			"-0.002": 9.93980928221,
			"-0.001": 10.9198026031,
			"0.0": 9.8086478881,
			"0.001": 10.816225294,
			"0.002": 13.2238987509,
			"0.003": 15.2059227828,
			"0.004": 9.6235776298,
			"0.005": 7.62966478708,
			"0.006": 7.91209436537,
			"0.007": 7.70410648353,
			"0.008": 8.18978926075,
			"0.009": 9.09592143207,
			"0.01": 10.5029554914,
			"0.011": 12.8513187874,
			"0.012": 7.84659821564,
			"0.013": 3.49139426055,
			"0.014": 1.24440396153,
			"0.015": 0.191324189676,
			"0.016": 0.0,
			"0.017": 0.0,
			"0.018": 0.0,
			"0.019": 0.0,
			"0.02": 0.0,
			"0.021": 0.0,
			"0.022": 0.0,
			"0.023": 0.0,
			"0.024": 0.0,
			"0.025": 0.0
		}
	}
}
