{
	 "smiles": "CC1=NN(CC2=C(Cl)C=CC=C2Cl)C(Cl)=C1C(O)=O", 
	 "Tm": 461.15, 
	 "num_atms": 28, 
	 "gaussian": { 
		 "optdone": 1, 
		 "sigma_profile": "yes", 
		 "theory": "DFT", 
		 "functional": "B3LYP", 
		 "basiset": "6-31G**", 
		 "properties": { 
			 "R2extent": 7138.6983, 
			 "electric_dipole_moment_norm": 3.27575485347, 
			 "electric_quadrupole_moment_norm": 10.8187177401, 
			 "total_energy": -2103.22498797, 
			 "HOMO_LUMO_gap": 0.21122, 
			 "cosmo_polarized_energy": -13.88, 
			 "cosmo_cavitation_energy": 38.07, 
			 "cosmo_dispersion_energy": -26.65, 
			 "cosmo_repulsion_energy": 2.07, 
			 "cosmo_total_nonelectrostatic_energy": 13.5, 
			 "SMD_solvation_energy": 6.07 
		},
		"coords": [
			{
				"x": 2.0237055971,
				"y": 3.0867990632,
				"z": 1.0141923458,
				"element": "C" 
			},
			{
				"x": 0.9339018534,
				"y": 2.0764594034,
				"z": 1.1928291,
				"element": "C" 
			},
			{
				"x": 0.0536762659,
				"y": 1.8817781542,
				"z": 0.2178717278,
				"element": "N" 
			},
			{
				"x": -0.7930413811,
				"y": 0.9121353738,
				"z": 0.6638463866,
				"element": "N" 
			},
			{
				"x": -1.9329642939,
				"y": 0.513921574,
				"z": -0.1647921119,
				"element": "C" 
			},
			{
				"x": -1.5467576202,
				"y": 0.3072875819,
				"z": -1.6119924189,
				"element": "C" 
			},
			{
				"x": -1.8306922694,
				"y": 1.2579894931,
				"z": -2.6077729099,
				"element": "C" 
			},
			{
				"x": -2.6463419699,
				"y": 2.7619121412,
				"z": -2.2033191304,
				"element": "Cl" 
			},
			{
				"x": -1.4904670215,
				"y": 1.0599836528,
				"z": -3.9454775524,
				"element": "C" 
			},
			{
				"x": -0.8438660122,
				"y": -0.114634379,
				"z": -4.3197268863,
				"element": "C" 
			},
			{
				"x": -0.5426848267,
				"y": -1.0854072572,
				"z": -3.3675280527,
				"element": "C" 
			},
			{
				"x": -0.8962726712,
				"y": -0.8637089318,
				"z": -2.0386685854,
				"element": "C" 
			},
			{
				"x": -0.5020842656,
				"y": -2.1175067605,
				"z": -0.8709175237,
				"element": "Cl" 
			},
			{
				"x": -0.4653985781,
				"y": 0.5039281458,
				"z": 1.9105693183,
				"element": "C" 
			},
			{
				"x": -1.3674407242,
				"y": -0.6907688149,
				"z": 2.7526938348,
				"element": "Cl" 
			},
			{
				"x": 0.6589061314,
				"y": 1.2265727492,
				"z": 2.308281809,
				"element": "C" 
			},
			{
				"x": 1.3530415237,
				"y": 1.09507302,
				"z": 3.5892250449,
				"element": "C" 
			},
			{
				"x": 2.4209350148,
				"y": 1.935060471,
				"z": 3.6850089039,
				"element": "O" 
			},
			{
				"x": 1.0491198137,
				"y": 0.3405294952,
				"z": 4.4927340408,
				"element": "O" 
			},
			{
				"x": 1.9780807775,
				"y": 3.8584719405,
				"z": 1.7878869124,
				"element": "H" 
			},
			{
				"x": 3.0106701309,
				"y": 2.6212501058,
				"z": 1.0886616711,
				"element": "H" 
			},
			{
				"x": 1.9194188755,
				"y": 3.5541361821,
				"z": 0.03287301,
				"element": "H" 
			},
			{
				"x": -2.7023969608,
				"y": 1.2844182443,
				"z": -0.0909813279,
				"element": "H" 
			},
			{
				"x": -2.3286840465,
				"y": -0.4094787458,
				"z": 0.2587080528,
				"element": "H" 
			},
			{
				"x": -1.7300930475,
				"y": 1.8230194673,
				"z": -4.6766205461,
				"element": "H" 
			},
			{
				"x": -0.5741069389,
				"y": -0.275070159,
				"z": -5.3588093929,
				"element": "H" 
			},
			{
				"x": -0.0416210464,
				"y": -2.0057898544,
				"z": -3.6435690289,
				"element": "H" 
			},
			{
				"x": 2.8001576901,
				"y": 1.7652386437,
				"z": 4.5631933092,
				"element": "H" 
			}
		],
		 "valence_orbital": [ 
			{
				"type": "occ",
				"energy": -0.27396,
				"method": "rhf"
			},
			{
				"type": "occ",
				"energy": -0.26715,
				"method": "rhf"
			},
			{
				"type": "occ",
				"energy": -0.2586,
				"method": "rhf"
			},
			{
				"type": "occ",
				"energy": -0.2568,
				"method": "rhf"
			},
			{
				"type": "occ",
				"energy": -0.24981,
				"method": "rhf"
			},
			{
				"type": "unocc",
				"energy": -0.03859,
				"method": "rhf"
			},
			{
				"type": "unocc",
				"energy": -0.03206,
				"method": "rhf"
			},
			{
				"type": "unocc",
				"energy": -0.02433,
				"method": "rhf"
			},
			{
				"type": "unocc",
				"energy": -0.00234,
				"method": "rhf"
			},
			{
				"type": "unocc",
				"energy": 0.01566,
				"method": "rhf"
			}
		],
		"cosmo_sigma_profile": { 
			"-0.025": 0.0,
			"-0.024": 0.0,
			"-0.023": 0.0,
			"-0.022": 0.0,
			"-0.021": 0.0,
			"-0.02": 0.0,
			"-0.019": 0.0169439440193,
			"-0.018": 0.664839655863,
			"-0.017": 0.969723697223,
			"-0.016": 0.633127602724,
			"-0.015": 1.02786919174,
			"-0.014": 0.452078592179,
			"-0.013": 0.328152802645,
			"-0.012": 0.552737578998,
			"-0.011": 1.31267207933,
			"-0.01": 0.962965416024,
			"-0.009": 0.590786860336,
			"-0.008": 4.73469848802,
			"-0.007": 9.94796790322,
			"-0.006": 12.3300605361,
			"-0.005": 14.5992951013,
			"-0.004": 13.7650750519,
			"-0.003": 18.5945692167,
			"-0.002": 22.380634763,
			"-0.001": 30.7467821296,
			"0.0": 33.9861841285,
			"0.001": 35.9785713899,
			"0.002": 31.3744403782,
			"0.003": 20.6413504647,
			"0.004": 15.1439238603,
			"0.005": 7.33082487484,
			"0.006": 7.14498831702,
			"0.007": 4.0431431236,
			"0.008": 2.8693009375,
			"0.009": 4.47538290103,
			"0.01": 3.68431779538,
			"0.011": 4.38387434078,
			"0.012": 5.51102941386,
			"0.013": 0.344035382506,
			"0.014": 0.0,
			"0.015": 0.0,
			"0.016": 0.0,
			"0.017": 0.0,
			"0.018": 0.0,
			"0.019": 0.0,
			"0.02": 0.0,
			"0.021": 0.0,
			"0.022": 0.0,
			"0.023": 0.0,
			"0.024": 0.0,
			"0.025": 0.0
		}
	}
}
