{
	 "smiles": "CC1=CC=C(CCC(O)=O)O1", 
	 "Tm": 332.15, 
	 "num_atms": 21, 
	 "gaussian": { 
		 "optdone": 1, 
		 "sigma_profile": "yes", 
		 "theory": "DFT", 
		 "functional": "B3LYP", 
		 "basiset": "6-31G**", 
		 "properties": { 
			 "R2extent": 2247.1631, 
			 "electric_dipole_moment_norm": 4.04800723937, 
			 "electric_quadrupole_moment_norm": 17.5369147971, 
			 "total_energy": -536.542462015, 
			 "HOMO_LUMO_gap": 0.22348, 
			 "cosmo_polarized_energy": -16.57, 
			 "cosmo_cavitation_energy": 25.51, 
			 "cosmo_dispersion_energy": -17.88, 
			 "cosmo_repulsion_energy": 1.49, 
			 "cosmo_total_nonelectrostatic_energy": 9.12, 
			 "SMD_solvation_energy": 5.91 
		},
		"coords": [
			{
				"x": -0.1007715402,
				"y": 1.3689246232,
				"z": 4.1344963396,
				"element": "C" 
			},
			{
				"x": -0.6825810692,
				"y": 0.6583240958,
				"z": 2.963575541,
				"element": "C" 
			},
			{
				"x": -1.5952959115,
				"y": -0.3446099095,
				"z": 2.8259293672,
				"element": "C" 
			},
			{
				"x": -1.7278066852,
				"y": -0.5915359596,
				"z": 1.4185642039,
				"element": "C" 
			},
			{
				"x": -0.8890949838,
				"y": 0.280116705,
				"z": 0.7916822828,
				"element": "C" 
			},
			{
				"x": -0.5358227841,
				"y": 0.5310462876,
				"z": -0.6358086699,
				"element": "C" 
			},
			{
				"x": 0.9209597423,
				"y": 0.1470217608,
				"z": -0.9955173125,
				"element": "C" 
			},
			{
				"x": 1.2474651246,
				"y": -1.3297648318,
				"z": -0.803654735,
				"element": "C" 
			},
			{
				"x": 0.4668163633,
				"y": -2.2047461696,
				"z": -1.5010851452,
				"element": "O" 
			},
			{
				"x": 2.1359400021,
				"y": -1.744825216,
				"z": -0.105420271,
				"element": "O" 
			},
			{
				"x": -0.2439636456,
				"y": 1.0510744159,
				"z": 1.7246494196,
				"element": "O" 
			},
			{
				"x": -0.3083931488,
				"y": 2.4447269938,
				"z": 4.0972652077,
				"element": "H" 
			},
			{
				"x": 0.9874502268,
				"y": 1.2451796342,
				"z": 4.1776297603,
				"element": "H" 
			},
			{
				"x": -0.5266487858,
				"y": 0.970262894,
				"z": 5.0580914056,
				"element": "H" 
			},
			{
				"x": -2.1102043716,
				"y": -0.8512751639,
				"z": 3.6296765829,
				"element": "H" 
			},
			{
				"x": -2.3612816367,
				"y": -1.3251652364,
				"z": 0.9400806909,
				"element": "H" 
			},
			{
				"x": -1.2533128552,
				"y": -0.0128393263,
				"z": -1.2619736209,
				"element": "H" 
			},
			{
				"x": -0.6718127774,
				"y": 1.5933862073,
				"z": -0.8737195318,
				"element": "H" 
			},
			{
				"x": 1.1185192258,
				"y": 0.416153774,
				"z": -2.0420752961,
				"element": "H" 
			},
			{
				"x": 1.6173580538,
				"y": 0.7079552776,
				"z": -0.3706169017,
				"element": "H" 
			},
			{
				"x": -0.1829185436,
				"y": -1.725710856,
				"z": -2.0338693173,
				"element": "H" 
			}
		],
		 "valence_orbital": [ 
			{
				"type": "occ",
				"energy": -0.35599,
				"method": "rhf"
			},
			{
				"type": "occ",
				"energy": -0.31148,
				"method": "rhf"
			},
			{
				"type": "occ",
				"energy": -0.27346,
				"method": "rhf"
			},
			{
				"type": "occ",
				"energy": -0.2653,
				"method": "rhf"
			},
			{
				"type": "occ",
				"energy": -0.21335,
				"method": "rhf"
			},
			{
				"type": "unocc",
				"energy": 0.01013,
				"method": "rhf"
			},
			{
				"type": "unocc",
				"energy": 0.01403,
				"method": "rhf"
			},
			{
				"type": "unocc",
				"energy": 0.04294,
				"method": "rhf"
			},
			{
				"type": "unocc",
				"energy": 0.07585,
				"method": "rhf"
			},
			{
				"type": "unocc",
				"energy": 0.10932,
				"method": "rhf"
			}
		],
		"cosmo_sigma_profile": { 
			"-0.025": 0.0,
			"-0.024": 0.0,
			"-0.023": 0.0,
			"-0.022": 0.0,
			"-0.021": 0.0,
			"-0.02": 0.0,
			"-0.019": 0.135559142776,
			"-0.018": 1.26214780344,
			"-0.017": 1.15310798028,
			"-0.016": 1.20136743932,
			"-0.015": 0.575524832669,
			"-0.014": 1.00804638692,
			"-0.013": 0.875136134703,
			"-0.012": 1.47640930133,
			"-0.011": 1.67212260949,
			"-0.01": 0.79467362332,
			"-0.009": 1.86304226082,
			"-0.008": 1.60218609632,
			"-0.007": 4.0130906251,
			"-0.006": 9.0052557971,
			"-0.005": 15.9351035235,
			"-0.004": 17.6244528087,
			"-0.003": 16.6629559429,
			"-0.002": 14.9365774566,
			"-0.001": 13.4692567435,
			"0.0": 10.9765813005,
			"0.001": 8.85113927452,
			"0.002": 8.97483603335,
			"0.003": 10.9094329398,
			"0.004": 9.29563387504,
			"0.005": 8.98315987625,
			"0.006": 8.12075323281,
			"0.007": 4.07791127127,
			"0.008": 3.86349973363,
			"0.009": 3.29786133357,
			"0.01": 4.33308737562,
			"0.011": 5.95854010347,
			"0.012": 5.82878644252,
			"0.013": 2.70810979882,
			"0.014": 0.0945601811002,
			"0.015": 0.0,
			"0.016": 0.0,
			"0.017": 0.0,
			"0.018": 0.0,
			"0.019": 0.0,
			"0.02": 0.0,
			"0.021": 0.0,
			"0.022": 0.0,
			"0.023": 0.0,
			"0.024": 0.0,
			"0.025": 0.0
		}
	}
}
