{
	 "smiles": "CN1C=CN=C1C=O", 
	 "Tm": 310.15, 
	 "num_atms": 14, 
	 "gaussian": { 
		 "optdone": 1, 
		 "sigma_profile": "yes", 
		 "theory": "DFT", 
		 "functional": "B3LYP", 
		 "basiset": "6-31G**", 
		 "properties": { 
			 "R2extent": 1103.2122, 
			 "electric_dipole_moment_norm": 6.50748604148, 
			 "electric_quadrupole_moment_norm": 13.0290613668, 
			 "total_energy": -378.846842694, 
			 "HOMO_LUMO_gap": 0.18327, 
			 "cosmo_polarized_energy": -17.76, 
			 "cosmo_cavitation_energy": 18.53, 
			 "cosmo_dispersion_energy": -13.53, 
			 "cosmo_repulsion_energy": 1.11, 
			 "cosmo_total_nonelectrostatic_energy": 6.11, 
			 "SMD_solvation_energy": 3.33 
		},
		"coords": [
			{
				"x": 0.7861773715,
				"y": -0.5441176791,
				"z": 1.2845156491,
				"element": "C" 
			},
			{
				"x": -0.102891496,
				"y": -0.6486540318,
				"z": 0.1320068117,
				"element": "N" 
			},
			{
				"x": -1.4320544111,
				"y": -0.9656642241,
				"z": 0.1825242104,
				"element": "C" 
			},
			{
				"x": -1.8791196642,
				"y": -0.9521514004,
				"z": -1.1268994556,
				"element": "C" 
			},
			{
				"x": -0.86621828,
				"y": -0.6373357771,
				"z": -1.9742678239,
				"element": "N" 
			},
			{
				"x": 0.2035001474,
				"y": -0.4555422576,
				"z": -1.2049630848,
				"element": "C" 
			},
			{
				"x": 1.5483925449,
				"y": -0.0975494346,
				"z": -1.6663025579,
				"element": "C" 
			},
			{
				"x": 1.8565377719,
				"y": 0.0800748257,
				"z": -2.8282070813,
				"element": "O" 
			},
			{
				"x": 1.6061162195,
				"y": -1.263281411,
				"z": 1.2117955017,
				"element": "H" 
			},
			{
				"x": 0.2130797372,
				"y": -0.7606711814,
				"z": 2.1868918722,
				"element": "H" 
			},
			{
				"x": 1.2000226148,
				"y": 0.4640911432,
				"z": 1.368381809,
				"element": "H" 
			},
			{
				"x": -1.9325974446,
				"y": -1.1680191003,
				"z": 1.1179568243,
				"element": "H" 
			},
			{
				"x": -2.8795978744,
				"y": -1.1549430862,
				"z": -1.4843227761,
				"element": "H" 
			},
			{
				"x": 2.3031527631,
				"y": 0.0065636147,
				"z": -0.8548098989,
				"element": "H" 
			}
		],
		 "valence_orbital": [ 
			{
				"type": "occ",
				"energy": -0.37653,
				"method": "rhf"
			},
			{
				"type": "occ",
				"energy": -0.28857,
				"method": "rhf"
			},
			{
				"type": "occ",
				"energy": -0.27649,
				"method": "rhf"
			},
			{
				"type": "occ",
				"energy": -0.25273,
				"method": "rhf"
			},
			{
				"type": "occ",
				"energy": -0.24135,
				"method": "rhf"
			},
			{
				"type": "unocc",
				"energy": -0.05808,
				"method": "rhf"
			},
			{
				"type": "unocc",
				"energy": 0.04085,
				"method": "rhf"
			},
			{
				"type": "unocc",
				"energy": 0.07011,
				"method": "rhf"
			},
			{
				"type": "unocc",
				"energy": 0.09235,
				"method": "rhf"
			},
			{
				"type": "unocc",
				"energy": 0.09777,
				"method": "rhf"
			}
		],
		"cosmo_sigma_profile": { 
			"-0.025": 0.0,
			"-0.024": 0.0,
			"-0.023": 0.0,
			"-0.022": 0.0,
			"-0.021": 0.0,
			"-0.02": 0.0,
			"-0.019": 0.0,
			"-0.018": 0.0,
			"-0.017": 0.0,
			"-0.016": 0.0,
			"-0.015": 0.0,
			"-0.014": 0.0,
			"-0.013": 0.0,
			"-0.012": 0.0,
			"-0.011": 0.0438658235802,
			"-0.01": 1.95961029076,
			"-0.009": 3.64423907338,
			"-0.008": 7.68694250359,
			"-0.007": 14.8087582716,
			"-0.006": 11.4872147466,
			"-0.005": 11.6500048188,
			"-0.004": 13.3877868089,
			"-0.003": 7.76359759972,
			"-0.002": 6.66193262525,
			"-0.001": 4.96723265336,
			"0.0": 5.99315044426,
			"0.001": 6.12030106851,
			"0.002": 5.03612439958,
			"0.003": 5.74508290612,
			"0.004": 4.34541266554,
			"0.005": 2.99360252008,
			"0.006": 2.4615576388,
			"0.007": 2.21798655644,
			"0.008": 3.51075639728,
			"0.009": 2.67929570262,
			"0.01": 3.36568168735,
			"0.011": 5.62604821395,
			"0.012": 4.94818844344,
			"0.013": 3.09836494248,
			"0.014": 2.13899381666,
			"0.015": 1.84308115925,
			"0.016": 1.31505453139,
			"0.017": 0.947329042243,
			"0.018": 0.0316810174959,
			"0.019": 0.0,
			"0.02": 0.0,
			"0.021": 0.0,
			"0.022": 0.0,
			"0.023": 0.0,
			"0.024": 0.0,
			"0.025": 0.0
		}
	}
}
