{
	 "smiles": "CC1=CC=C(C=C1F)S(Cl)(=O)=O", 
	 "Tm": 321.15, 
	 "num_atms": 18, 
	 "gaussian": { 
		 "optdone": 1, 
		 "sigma_profile": "yes", 
		 "theory": "DFT", 
		 "functional": "B3LYP", 
		 "basiset": "6-31G**", 
		 "properties": { 
			 "R2extent": 4316.2274, 
			 "electric_dipole_moment_norm": 5.50846717245, 
			 "electric_quadrupole_moment_norm": 17.3621280533, 
			 "total_energy": -1378.96047335, 
			 "HOMO_LUMO_gap": 0.18456, 
			 "cosmo_polarized_energy": -8.55, 
			 "cosmo_cavitation_energy": 26.31, 
			 "cosmo_dispersion_energy": -19.55, 
			 "cosmo_repulsion_energy": 1.5, 
			 "cosmo_total_nonelectrostatic_energy": 8.25, 
			 "SMD_solvation_energy": 3.75 
		},
		"coords": [
			{
				"x": -0.8639594873,
				"y": 1.6850231541,
				"z": -2.0404684347,
				"element": "C" 
			},
			{
				"x": -0.0605525845,
				"y": 0.5296152387,
				"z": -1.507130805,
				"element": "C" 
			},
			{
				"x": 0.3955851393,
				"y": -0.5166297939,
				"z": -2.3179027122,
				"element": "C" 
			},
			{
				"x": 1.1390815388,
				"y": -1.5767061342,
				"z": -1.7983588871,
				"element": "C" 
			},
			{
				"x": 1.427600831,
				"y": -1.5753793061,
				"z": -0.4350550566,
				"element": "C" 
			},
			{
				"x": 1.0000739887,
				"y": -0.5574391823,
				"z": 0.418776934,
				"element": "C" 
			},
			{
				"x": 0.2640732275,
				"y": 0.472119455,
				"z": -0.1458015306,
				"element": "C" 
			},
			{
				"x": -0.1594529757,
				"y": 1.4736307417,
				"z": 0.650238742,
				"element": "F" 
			},
			{
				"x": 2.3921049924,
				"y": -2.912374511,
				"z": 0.2504352499,
				"element": "S" 
			},
			{
				"x": 0.8606383982,
				"y": -4.2904047284,
				"z": 0.810528092,
				"element": "Cl" 
			},
			{
				"x": 3.013599303,
				"y": -2.4724953889,
				"z": 1.492996435,
				"element": "O" 
			},
			{
				"x": 3.146947893,
				"y": -3.558167023,
				"z": -0.8157389538,
				"element": "O" 
			},
			{
				"x": -1.8369126487,
				"y": 1.7496337362,
				"z": -1.5421794651,
				"element": "H" 
			},
			{
				"x": -1.0321030508,
				"y": 1.582624304,
				"z": -3.1145541135,
				"element": "H" 
			},
			{
				"x": -0.3520787814,
				"y": 2.6359728178,
				"z": -1.8591615605,
				"element": "H" 
			},
			{
				"x": 0.1650749528,
				"y": -0.497307739,
				"z": -3.3789382251,
				"element": "H" 
			},
			{
				"x": 1.4956793266,
				"y": -2.3791419108,
				"z": -2.4332742312,
				"element": "H" 
			},
			{
				"x": 1.236999937,
				"y": -0.5562737302,
				"z": 1.4758885224,
				"element": "H" 
			}
		],
		 "valence_orbital": [ 
			{
				"type": "occ",
				"energy": -0.33758,
				"method": "rhf"
			},
			{
				"type": "occ",
				"energy": -0.33197,
				"method": "rhf"
			},
			{
				"type": "occ",
				"energy": -0.31429,
				"method": "rhf"
			},
			{
				"type": "occ",
				"energy": -0.29015,
				"method": "rhf"
			},
			{
				"type": "occ",
				"energy": -0.27639,
				"method": "rhf"
			},
			{
				"type": "unocc",
				"energy": -0.09183,
				"method": "rhf"
			},
			{
				"type": "unocc",
				"energy": -0.0463,
				"method": "rhf"
			},
			{
				"type": "unocc",
				"energy": -0.0349,
				"method": "rhf"
			},
			{
				"type": "unocc",
				"energy": 0.04834,
				"method": "rhf"
			},
			{
				"type": "unocc",
				"energy": 0.07052,
				"method": "rhf"
			}
		],
		"cosmo_sigma_profile": { 
			"-0.025": 0.0,
			"-0.024": 0.0,
			"-0.023": 0.0,
			"-0.022": 0.0,
			"-0.021": 0.0,
			"-0.02": 0.0,
			"-0.019": 0.0,
			"-0.018": 0.0,
			"-0.017": 0.0,
			"-0.016": 0.0,
			"-0.015": 0.0,
			"-0.014": 0.0,
			"-0.013": 0.0,
			"-0.012": 0.0,
			"-0.011": 0.0,
			"-0.01": 0.112811756364,
			"-0.009": 1.42909879048,
			"-0.008": 3.61619854874,
			"-0.007": 7.42850825024,
			"-0.006": 8.87293750844,
			"-0.005": 11.7861522205,
			"-0.004": 11.037291325,
			"-0.003": 13.4430700599,
			"-0.002": 19.6050688612,
			"-0.001": 25.666245015,
			"0.0": 20.9408719582,
			"0.001": 15.415463583,
			"0.002": 12.5478111645,
			"0.003": 21.4626784871,
			"0.004": 14.3632647871,
			"0.005": 2.16560136545,
			"0.006": 3.65096383597,
			"0.007": 6.27863943961,
			"0.008": 9.60482543008,
			"0.009": 4.22901293285,
			"0.01": 0.00710388217962,
			"0.011": 0.0,
			"0.012": 0.0,
			"0.013": 0.0,
			"0.014": 0.0,
			"0.015": 0.0,
			"0.016": 0.0,
			"0.017": 0.0,
			"0.018": 0.0,
			"0.019": 0.0,
			"0.02": 0.0,
			"0.021": 0.0,
			"0.022": 0.0,
			"0.023": 0.0,
			"0.024": 0.0,
			"0.025": 0.0
		}
	}
}
