{
	 "smiles": "COC1=CC(NCC2=CC=C3N=C(N)N=C(N)C3=C2C)=CC(OC)=C1OC", 
	 "Tm": 489.15, 
	 "num_atms": 50, 
	 "gaussian": { 
		 "optdone": 1, 
		 "sigma_profile": "yes", 
		 "theory": "DFT", 
		 "functional": "B3LYP", 
		 "basiset": "6-31G**", 
		 "properties": { 
			 "R2extent": 16804.4513, 
			 "electric_dipole_moment_norm": 3.43004709734, 
			 "electric_quadrupole_moment_norm": 19.1790235088, 
			 "total_energy": -1237.30038657, 
			 "HOMO_LUMO_gap": 0.13921, 
			 "cosmo_polarized_energy": -24.62, 
			 "cosmo_cavitation_energy": 52.67, 
			 "cosmo_dispersion_energy": -37.12, 
			 "cosmo_repulsion_energy": 2.83, 
			 "cosmo_total_nonelectrostatic_energy": 18.37, 
			 "SMD_solvation_energy": 7.08 
		},
		"coords": [
			{
				"x": 2.0560686863,
				"y": -0.0364450328,
				"z": -5.1439932392,
				"element": "C" 
			},
			{
				"x": 2.1280207918,
				"y": -1.3854902432,
				"z": -4.7176273574,
				"element": "O" 
			},
			{
				"x": 1.8856655457,
				"y": -1.6638657064,
				"z": -3.4018153522,
				"element": "C" 
			},
			{
				"x": 1.5332561565,
				"y": -0.6993053267,
				"z": -2.4512837065,
				"element": "C" 
			},
			{
				"x": 1.2823706829,
				"y": -1.0827316498,
				"z": -1.1187232814,
				"element": "C" 
			},
			{
				"x": 0.9546367116,
				"y": -0.1446382811,
				"z": -0.1505934288,
				"element": "N" 
			},
			{
				"x": 0.557825672,
				"y": 1.2227971199,
				"z": -0.460244842,
				"element": "C" 
			},
			{
				"x": 0.0172856781,
				"y": 1.9269761307,
				"z": 0.7689652303,
				"element": "C" 
			},
			{
				"x": 0.9281616363,
				"y": 2.6882116296,
				"z": 1.5409484992,
				"element": "C" 
			},
			{
				"x": 0.5404701314,
				"y": 3.3304677697,
				"z": 2.6889678093,
				"element": "C" 
			},
			{
				"x": -0.8082251883,
				"y": 3.2690819212,
				"z": 3.1193069846,
				"element": "C" 
			},
			{
				"x": -1.1253374294,
				"y": 3.9027736221,
				"z": 4.2801754957,
				"element": "N" 
			},
			{
				"x": -2.3920812064,
				"y": 3.8274146298,
				"z": 4.6528168057,
				"element": "C" 
			},
			{
				"x": -2.7527213803,
				"y": 4.4413932535,
				"z": 5.821860872,
				"element": "N" 
			},
			{
				"x": -3.4089951683,
				"y": 3.2465807126,
				"z": 3.9672137138,
				"element": "N" 
			},
			{
				"x": -3.1153447689,
				"y": 2.6377840894,
				"z": 2.8289633806,
				"element": "C" 
			},
			{
				"x": -4.2025174334,
				"y": 2.0984052502,
				"z": 2.183111225,
				"element": "N" 
			},
			{
				"x": -1.7574795833,
				"y": 2.5415378267,
				"z": 2.3263906676,
				"element": "C" 
			},
			{
				"x": -1.3185880166,
				"y": 1.8219213936,
				"z": 1.1655687131,
				"element": "C" 
			},
			{
				"x": -2.2490567476,
				"y": 0.9134805385,
				"z": 0.3808802717,
				"element": "C" 
			},
			{
				"x": 1.3994301104,
				"y": -2.4364995653,
				"z": -0.7617301001,
				"element": "C" 
			},
			{
				"x": 1.7453615947,
				"y": -3.3895348044,
				"z": -1.7176187157,
				"element": "C" 
			},
			{
				"x": 1.7781691164,
				"y": -4.708965927,
				"z": -1.3292836919,
				"element": "O" 
			},
			{
				"x": 3.0622651621,
				"y": -5.3372784533,
				"z": -1.3866826061,
				"element": "C" 
			},
			{
				"x": 1.9968433845,
				"y": -3.0209195216,
				"z": -3.0473051153,
				"element": "C" 
			},
			{
				"x": 2.366128997,
				"y": -3.9646272438,
				"z": -3.9840803386,
				"element": "O" 
			},
			{
				"x": 1.2804172052,
				"y": -4.4579662893,
				"z": -4.7701074563,
				"element": "C" 
			},
			{
				"x": 2.293985152,
				"y": -0.0444687304,
				"z": -6.2091067058,
				"element": "H" 
			},
			{
				"x": 2.7836757402,
				"y": 0.5950117553,
				"z": -4.6178096613,
				"element": "H" 
			},
			{
				"x": 1.0513513259,
				"y": 0.3838043021,
				"z": -5.0027761667,
				"element": "H" 
			},
			{
				"x": 1.4585490932,
				"y": 0.3408939227,
				"z": -2.7359185283,
				"element": "H" 
			},
			{
				"x": 0.6222792421,
				"y": -0.5080565582,
				"z": 0.7294237082,
				"element": "H" 
			},
			{
				"x": 1.4295491652,
				"y": 1.7831422447,
				"z": -0.8262352549,
				"element": "H" 
			},
			{
				"x": -0.1792823681,
				"y": 1.2410256465,
				"z": -1.2776572822,
				"element": "H" 
			},
			{
				"x": 1.9631161055,
				"y": 2.7452938074,
				"z": 1.212946666,
				"element": "H" 
			},
			{
				"x": 1.2373893373,
				"y": 3.8953560846,
				"z": 3.2983285023,
				"element": "H" 
			},
			{
				"x": -3.6425496744,
				"y": 4.185010151,
				"z": 6.2179270509,
				"element": "H" 
			},
			{
				"x": -2.0043150873,
				"y": 4.6921754397,
				"z": 6.4480550715,
				"element": "H" 
			},
			{
				"x": -5.0810619043,
				"y": 2.4042619386,
				"z": 2.5793464981,
				"element": "H" 
			},
			{
				"x": -4.1846250376,
				"y": 2.0054851272,
				"z": 1.1820974305,
				"element": "H" 
			},
			{
				"x": -2.9086090654,
				"y": 0.3495050916,
				"z": 1.0435527694,
				"element": "H" 
			},
			{
				"x": -1.6878469529,
				"y": 0.1870260861,
				"z": -0.2066131896,
				"element": "H" 
			},
			{
				"x": -2.8778491377,
				"y": 1.4712252392,
				"z": -0.3286951185,
				"element": "H" 
			},
			{
				"x": 1.2150272948,
				"y": -2.7668055112,
				"z": 0.255783662,
				"element": "H" 
			},
			{
				"x": 3.4556805847,
				"y": -5.3490372143,
				"z": -2.4066036412,
				"element": "H" 
			},
			{
				"x": 3.7741225379,
				"y": -4.8281745429,
				"z": -0.7236075512,
				"element": "H" 
			},
			{
				"x": 2.9149643216,
				"y": -6.3607611442,
				"z": -1.034177427,
				"element": "H" 
			},
			{
				"x": 0.5191139015,
				"y": -4.9320118435,
				"z": -4.1382589646,
				"element": "H" 
			},
			{
				"x": 0.8213366649,
				"y": -3.6536186737,
				"z": -5.3566455586,
				"element": "H" 
			},
			{
				"x": 1.7014684205,
				"y": -5.2029404608,
				"z": -5.449936746,
				"element": "H" 
			}
		],
		 "valence_orbital": [ 
			{
				"type": "occ",
				"energy": -0.24322,
				"method": "rhf"
			},
			{
				"type": "occ",
				"energy": -0.23893,
				"method": "rhf"
			},
			{
				"type": "occ",
				"energy": -0.21414,
				"method": "rhf"
			},
			{
				"type": "occ",
				"energy": -0.20176,
				"method": "rhf"
			},
			{
				"type": "occ",
				"energy": -0.17946,
				"method": "rhf"
			},
			{
				"type": "unocc",
				"energy": -0.04025,
				"method": "rhf"
			},
			{
				"type": "unocc",
				"energy": -0.00711,
				"method": "rhf"
			},
			{
				"type": "unocc",
				"energy": 0.02324,
				"method": "rhf"
			},
			{
				"type": "unocc",
				"energy": 0.02783,
				"method": "rhf"
			},
			{
				"type": "unocc",
				"energy": 0.03245,
				"method": "rhf"
			}
		],
		"cosmo_sigma_profile": { 
			"-0.025": 0.0,
			"-0.024": 0.0,
			"-0.023": 0.0,
			"-0.022": 0.0,
			"-0.021": 0.0,
			"-0.02": 0.0,
			"-0.019": 0.0,
			"-0.018": 0.0,
			"-0.017": 0.0,
			"-0.016": 0.0,
			"-0.015": 0.0,
			"-0.014": 0.0728662182701,
			"-0.013": 3.1468563564,
			"-0.012": 4.70875917008,
			"-0.011": 5.30468756512,
			"-0.01": 5.7701016849,
			"-0.009": 5.28589303227,
			"-0.008": 5.49407050349,
			"-0.007": 5.15566034309,
			"-0.006": 11.3270021362,
			"-0.005": 27.4089895958,
			"-0.004": 34.0814059873,
			"-0.003": 41.6605902539,
			"-0.002": 39.0443652021,
			"-0.001": 25.2643368304,
			"0.0": 23.7133118556,
			"0.001": 22.7016172724,
			"0.002": 22.3711374637,
			"0.003": 21.4122096298,
			"0.004": 24.5558566317,
			"0.005": 23.0785973619,
			"0.006": 18.5979681592,
			"0.007": 9.29945959314,
			"0.008": 8.24823621869,
			"0.009": 6.46236886457,
			"0.01": 6.62420506308,
			"0.011": 4.52700363145,
			"0.012": 5.17637272721,
			"0.013": 3.33407360707,
			"0.014": 1.00197287732,
			"0.015": 0.956992441743,
			"0.016": 0.648217738052,
			"0.017": 0.0183541450844,
			"0.018": 0.0,
			"0.019": 0.0,
			"0.02": 0.0,
			"0.021": 0.0,
			"0.022": 0.0,
			"0.023": 0.0,
			"0.024": 0.0,
			"0.025": 0.0
		}
	}
}
