{
	 "smiles": "CCCS(=O)(=O)NC(C(=O)OCC)C(=O)OCC", 
	 "Tm": 314.15, 
	 "num_atms": 37, 
	 "gaussian": { 
		 "optdone": 1, 
		 "sigma_profile": "yes", 
		 "theory": "DFT", 
		 "functional": "B3LYP", 
		 "basiset": "6-31G**", 
		 "properties": { 
			 "R2extent": 5679.295, 
			 "electric_dipole_moment_norm": 3.79854113707, 
			 "electric_quadrupole_moment_norm": 14.8024623908, 
			 "total_energy": -1296.76074306, 
			 "HOMO_LUMO_gap": 0.24651, 
			 "cosmo_polarized_energy": -18.83, 
			 "cosmo_cavitation_energy": 41.85, 
			 "cosmo_dispersion_energy": -27.5, 
			 "cosmo_repulsion_energy": 2.18, 
			 "cosmo_total_nonelectrostatic_energy": 16.53, 
			 "SMD_solvation_energy": 8.12 
		},
		"coords": [
			{
				"x": 0.2993148124,
				"y": 1.9010166579,
				"z": -3.2498834703,
				"element": "C" 
			},
			{
				"x": 1.7869817472,
				"y": 1.6894809361,
				"z": -2.9501323808,
				"element": "C" 
			},
			{
				"x": 2.213145818,
				"y": 1.9177309482,
				"z": -1.4960152199,
				"element": "C" 
			},
			{
				"x": 1.91441138,
				"y": 0.5473155236,
				"z": -0.339389703,
				"element": "S" 
			},
			{
				"x": 2.5698051209,
				"y": 0.9179550725,
				"z": 0.9198911789,
				"element": "O" 
			},
			{
				"x": 2.2140426294,
				"y": -0.7152571116,
				"z": -1.0268866952,
				"element": "O" 
			},
			{
				"x": 0.2283838588,
				"y": 0.5994876085,
				"z": -0.0464807175,
				"element": "N" 
			},
			{
				"x": -0.5481251756,
				"y": -0.5992774665,
				"z": -0.3709851104,
				"element": "C" 
			},
			{
				"x": -1.9962834717,
				"y": -0.1646682783,
				"z": -0.636648049,
				"element": "C" 
			},
			{
				"x": -2.5041176501,
				"y": -0.1037101377,
				"z": -1.7318773127,
				"element": "O" 
			},
			{
				"x": -2.5925224337,
				"y": 0.1826325773,
				"z": 0.5189382572,
				"element": "O" 
			},
			{
				"x": -3.9707075799,
				"y": 0.6371816145,
				"z": 0.4328319083,
				"element": "C" 
			},
			{
				"x": -4.9348365617,
				"y": -0.5379162579,
				"z": 0.4453007655,
				"element": "C" 
			},
			{
				"x": -0.5249441365,
				"y": -1.7280092096,
				"z": 0.6709023299,
				"element": "C" 
			},
			{
				"x": -1.1118079602,
				"y": -2.7738294069,
				"z": 0.5064489689,
				"element": "O" 
			},
			{
				"x": 0.2017832038,
				"y": -1.4055836495,
				"z": 1.7472973318,
				"element": "O" 
			},
			{
				"x": 0.3409622677,
				"y": -2.4310396179,
				"z": 2.7653204185,
				"element": "C" 
			},
			{
				"x": 1.237585176,
				"y": -1.8675413638,
				"z": 3.8497566695,
				"element": "C" 
			},
			{
				"x": -0.0273712375,
				"y": 2.8984157244,
				"z": -2.9345038262,
				"element": "H" 
			},
			{
				"x": -0.3434821974,
				"y": 1.1712254759,
				"z": -2.7537538094,
				"element": "H" 
			},
			{
				"x": 0.1187419486,
				"y": 1.8185244891,
				"z": -4.3260910189,
				"element": "H" 
			},
			{
				"x": 2.1061029093,
				"y": 0.6868117837,
				"z": -3.2544116378,
				"element": "H" 
			},
			{
				"x": 2.3753322135,
				"y": 2.3923600055,
				"z": -3.5529787835,
				"element": "H" 
			},
			{
				"x": 3.2984227833,
				"y": 2.0384765681,
				"z": -1.4187341609,
				"element": "H" 
			},
			{
				"x": 1.7426129433,
				"y": 2.7955207743,
				"z": -1.0438265703,
				"element": "H" 
			},
			{
				"x": 0.103357077,
				"y": 0.8799476672,
				"z": 0.9239517986,
				"element": "H" 
			},
			{
				"x": -0.168216003,
				"y": -1.0242857566,
				"z": -1.3004806867,
				"element": "H" 
			},
			{
				"x": -4.0816402497,
				"y": 1.2364103265,
				"z": -0.4737181594,
				"element": "H" 
			},
			{
				"x": -4.0972593668,
				"y": 1.2751303451,
				"z": 1.3102573147,
				"element": "H" 
			},
			{
				"x": -4.7823660433,
				"y": -1.1580926997,
				"z": 1.3329903634,
				"element": "H" 
			},
			{
				"x": -4.7998490766,
				"y": -1.1570355352,
				"z": -0.4446742306,
				"element": "H" 
			},
			{
				"x": -5.9655142004,
				"y": -0.1682347637,
				"z": 0.4545097395,
				"element": "H" 
			},
			{
				"x": 0.7658515363,
				"y": -3.3226964507,
				"z": 2.2955003813,
				"element": "H" 
			},
			{
				"x": -0.6560182454,
				"y": -2.6896932377,
				"z": 3.1348956405,
				"element": "H" 
			},
			{
				"x": 0.783363346,
				"y": -0.9896211685,
				"z": 4.3180789727,
				"element": "H" 
			},
			{
				"x": 1.4014722977,
				"y": -2.6241805078,
				"z": 4.6232827558,
				"element": "H" 
			},
			{
				"x": 2.20578852,
				"y": -1.5738514788,
				"z": 3.4358167474,
				"element": "H" 
			}
		],
		 "valence_orbital": [ 
			{
				"type": "occ",
				"energy": -0.30877,
				"method": "rhf"
			},
			{
				"type": "occ",
				"energy": -0.30562,
				"method": "rhf"
			},
			{
				"type": "occ",
				"energy": -0.30058,
				"method": "rhf"
			},
			{
				"type": "occ",
				"energy": -0.28848,
				"method": "rhf"
			},
			{
				"type": "occ",
				"energy": -0.25983,
				"method": "rhf"
			},
			{
				"type": "unocc",
				"energy": -0.01332,
				"method": "rhf"
			},
			{
				"type": "unocc",
				"energy": 0.0034,
				"method": "rhf"
			},
			{
				"type": "unocc",
				"energy": 0.05812,
				"method": "rhf"
			},
			{
				"type": "unocc",
				"energy": 0.07011,
				"method": "rhf"
			},
			{
				"type": "unocc",
				"energy": 0.07585,
				"method": "rhf"
			}
		],
		"cosmo_sigma_profile": { 
			"-0.025": 0.0,
			"-0.024": 0.0,
			"-0.023": 0.0,
			"-0.022": 0.0,
			"-0.021": 0.0,
			"-0.02": 0.0,
			"-0.019": 0.0,
			"-0.018": 0.0,
			"-0.017": 0.0,
			"-0.016": 0.0,
			"-0.015": 0.0,
			"-0.014": 0.194564816399,
			"-0.013": 0.419055131021,
			"-0.012": 0.820534628507,
			"-0.011": 0.398966842291,
			"-0.01": 0.755015959637,
			"-0.009": 1.5249857213,
			"-0.008": 5.86139763147,
			"-0.007": 6.54620938417,
			"-0.006": 13.7998333847,
			"-0.005": 23.7363237068,
			"-0.004": 36.1460065084,
			"-0.003": 33.4209192343,
			"-0.002": 30.2723361609,
			"-0.001": 32.09719495,
			"0.0": 25.2072283524,
			"0.001": 17.3970860349,
			"0.002": 13.8069288779,
			"0.003": 10.573965047,
			"0.004": 9.5361460462,
			"0.005": 7.24495134342,
			"0.006": 6.11870440395,
			"0.007": 7.88308495151,
			"0.008": 7.04846559,
			"0.009": 6.77367572369,
			"0.01": 12.124101619,
			"0.011": 15.5918280933,
			"0.012": 2.29952233269,
			"0.013": 0.0,
			"0.014": 0.0,
			"0.015": 0.0,
			"0.016": 0.0,
			"0.017": 0.0,
			"0.018": 0.0,
			"0.019": 0.0,
			"0.02": 0.0,
			"0.021": 0.0,
			"0.022": 0.0,
			"0.023": 0.0,
			"0.024": 0.0,
			"0.025": 0.0
		}
	}
}
