{
	 "smiles": "NC(=O)CCC1=CC=C(F)C=C1", 
	 "Tm": 379.15, 
	 "num_atms": 22, 
	 "gaussian": { 
		 "optdone": 1, 
		 "sigma_profile": "yes", 
		 "theory": "DFT", 
		 "functional": "B3LYP", 
		 "basiset": "6-31G**", 
		 "properties": { 
			 "R2extent": 3339.0858, 
			 "electric_dipole_moment_norm": 3.82536965534, 
			 "electric_quadrupole_moment_norm": 21.7180456351, 
			 "total_energy": -578.819669498, 
			 "HOMO_LUMO_gap": 0.22622, 
			 "cosmo_polarized_energy": -13.17, 
			 "cosmo_cavitation_energy": 26.34, 
			 "cosmo_dispersion_energy": -18.78, 
			 "cosmo_repulsion_energy": 1.51, 
			 "cosmo_total_nonelectrostatic_energy": 9.07, 
			 "SMD_solvation_energy": 5.46 
		},
		"coords": [
			{
				"x": 1.922081315,
				"y": 1.2463713982,
				"z": -4.3239973677,
				"element": "N" 
			},
			{
				"x": 1.2636104323,
				"y": 1.6307385093,
				"z": -3.191365071,
				"element": "C" 
			},
			{
				"x": 1.8055790279,
				"y": 2.2968365026,
				"z": -2.318224741,
				"element": "O" 
			},
			{
				"x": -0.2099001179,
				"y": 1.2249832351,
				"z": -3.1236298216,
				"element": "C" 
			},
			{
				"x": -0.6965279401,
				"y": 1.019541189,
				"z": -1.6766050456,
				"element": "C" 
			},
			{
				"x": -0.1742621463,
				"y": -0.2488217223,
				"z": -1.031832652,
				"element": "C" 
			},
			{
				"x": -0.9193090298,
				"y": -1.4352816488,
				"z": -1.082014981,
				"element": "C" 
			},
			{
				"x": -0.4438905498,
				"y": -2.618169461,
				"z": -0.5141059428,
				"element": "C" 
			},
			{
				"x": 0.7964861736,
				"y": -2.6018465906,
				"z": 0.1118325849,
				"element": "C" 
			},
			{
				"x": 1.2659031633,
				"y": -3.7408312605,
				"z": 0.6682617177,
				"element": "F" 
			},
			{
				"x": 1.5651892857,
				"y": -1.446048701,
				"z": 0.1849793197,
				"element": "C" 
			},
			{
				"x": 1.0733422667,
				"y": -0.2735394559,
				"z": -0.389075013,
				"element": "C" 
			},
			{
				"x": 2.8990400262,
				"y": 1.4844193843,
				"z": -4.4072674499,
				"element": "H" 
			},
			{
				"x": 1.5159867881,
				"y": 0.6163841856,
				"z": -4.9960498821,
				"element": "H" 
			},
			{
				"x": -0.3953563525,
				"y": 0.3276408737,
				"z": -3.7258714495,
				"element": "H" 
			},
			{
				"x": -0.7810209853,
				"y": 2.0409796259,
				"z": -3.5866831358,
				"element": "H" 
			},
			{
				"x": -1.7917986072,
				"y": 1.0026130993,
				"z": -1.6785485663,
				"element": "H" 
			},
			{
				"x": -0.3830988805,
				"y": 1.8923042605,
				"z": -1.0964063339,
				"element": "H" 
			},
			{
				"x": -1.8930257133,
				"y": -1.4362283452,
				"z": -1.5664368454,
				"element": "H" 
			},
			{
				"x": -1.0182872565,
				"y": -3.5379461849,
				"z": -0.5445045139,
				"element": "H" 
			},
			{
				"x": 2.5265244392,
				"y": -1.4731352008,
				"z": 0.6870821161,
				"element": "H" 
			},
			{
				"x": 1.6641346615,
				"y": 0.6361363076,
				"z": -0.3493369259,
				"element": "H" 
			}
		],
		 "valence_orbital": [ 
			{
				"type": "occ",
				"energy": -0.33254,
				"method": "rhf"
			},
			{
				"type": "occ",
				"energy": -0.2711,
				"method": "rhf"
			},
			{
				"type": "occ",
				"energy": -0.25343,
				"method": "rhf"
			},
			{
				"type": "occ",
				"energy": -0.25129,
				"method": "rhf"
			},
			{
				"type": "occ",
				"energy": -0.23181,
				"method": "rhf"
			},
			{
				"type": "unocc",
				"energy": -0.00559,
				"method": "rhf"
			},
			{
				"type": "unocc",
				"energy": 0.00676,
				"method": "rhf"
			},
			{
				"type": "unocc",
				"energy": 0.02573,
				"method": "rhf"
			},
			{
				"type": "unocc",
				"energy": 0.07096,
				"method": "rhf"
			},
			{
				"type": "unocc",
				"energy": 0.09288,
				"method": "rhf"
			}
		],
		"cosmo_sigma_profile": { 
			"-0.025": 0.0,
			"-0.024": 0.0,
			"-0.023": 0.0,
			"-0.022": 0.0,
			"-0.021": 0.0,
			"-0.02": 0.0,
			"-0.019": 0.0,
			"-0.018": 0.0,
			"-0.017": 0.0,
			"-0.016": 0.0,
			"-0.015": 0.0768875116851,
			"-0.014": 1.7289387314,
			"-0.013": 2.22887435315,
			"-0.012": 2.20486327233,
			"-0.011": 2.56120167468,
			"-0.01": 2.79250519537,
			"-0.009": 2.04437852503,
			"-0.008": 2.28115231546,
			"-0.007": 4.16546516814,
			"-0.006": 8.42621685067,
			"-0.005": 10.5504542474,
			"-0.004": 15.3416561671,
			"-0.003": 15.6318125328,
			"-0.002": 14.6790556028,
			"-0.001": 13.5184333678,
			"0.0": 11.3086713942,
			"0.001": 13.1591797709,
			"0.002": 15.1688691202,
			"0.003": 15.2174383911,
			"0.004": 20.2186011862,
			"0.005": 16.6892447771,
			"0.006": 2.15089774909,
			"0.007": 1.45246163993,
			"0.008": 1.51160750526,
			"0.009": 1.13815715764,
			"0.01": 1.43566524865,
			"0.011": 1.30441344419,
			"0.012": 1.40142200004,
			"0.013": 2.8448620549,
			"0.014": 4.02442001447,
			"0.015": 1.15295077741,
			"0.016": 0.0,
			"0.017": 0.0,
			"0.018": 0.0,
			"0.019": 0.0,
			"0.02": 0.0,
			"0.021": 0.0,
			"0.022": 0.0,
			"0.023": 0.0,
			"0.024": 0.0,
			"0.025": 0.0
		}
	}
}
