{
	 "smiles": "CC12CCC[C@@H]1C1=C(CC2)C2(C)CCC(=O)CC2CC1", 
	 "Tm": 350.65, 
	 "num_atms": 48, 
	 "gaussian": { 
		 "optdone": 1, 
		 "sigma_profile": "yes", 
		 "theory": "DFT", 
		 "functional": "B3LYP", 
		 "basiset": "6-31G**", 
		 "properties": { 
			 "R2extent": 6299.9061, 
			 "electric_dipole_moment_norm": 3.29259871226, 
			 "electric_quadrupole_moment_norm": 19.5604421768, 
			 "total_energy": -816.133288944, 
			 "HOMO_LUMO_gap": 0.21133, 
			 "cosmo_polarized_energy": -7.67, 
			 "cosmo_cavitation_energy": 41.65, 
			 "cosmo_dispersion_energy": -29.53, 
			 "cosmo_repulsion_energy": 2.2, 
			 "cosmo_total_nonelectrostatic_energy": 14.32, 
			 "SMD_solvation_energy": 5.86 
		},
		"coords": [
			{
				"x": -1.9362973526,
				"y": 2.3746413335,
				"z": 0.6076998163,
				"element": "C" 
			},
			{
				"x": -1.5891116076,
				"y": 2.0334113454,
				"z": -0.8578046478,
				"element": "C" 
			},
			{
				"x": -2.6481842087,
				"y": 2.6570493666,
				"z": -1.7914628851,
				"element": "C" 
			},
			{
				"x": -3.8483713746,
				"y": 1.6594802965,
				"z": -1.7496161304,
				"element": "C" 
			},
			{
				"x": -3.295624647,
				"y": 0.3313631797,
				"z": -1.1443680266,
				"element": "C" 
			},
			{
				"x": -1.7679595947,
				"y": 0.5316949701,
				"z": -1.1841803405,
				"element": "C" 
			},
			{
				"x": -0.8325724092,
				"y": -0.3755567736,
				"z": -0.4050817896,
				"element": "C" 
			},
			{
				"x": 0.3926961118,
				"y": 0.0656998762,
				"z": -0.044952908,
				"element": "C" 
			},
			{
				"x": 0.8302583061,
				"y": 1.5085020222,
				"z": -0.3027387521,
				"element": "C" 
			},
			{
				"x": -0.1279190285,
				"y": 2.3738675945,
				"z": -1.1523292747,
				"element": "C" 
			},
			{
				"x": 1.4161798647,
				"y": -0.8213561279,
				"z": 0.7038461881,
				"element": "C" 
			},
			{
				"x": 2.8247013992,
				"y": -0.641961106,
				"z": 0.0820254748,
				"element": "C" 
			},
			{
				"x": 1.4426925338,
				"y": -0.3899788899,
				"z": 2.2026771503,
				"element": "C" 
			},
			{
				"x": 2.3081267214,
				"y": -1.2907979292,
				"z": 3.1078474046,
				"element": "C" 
			},
			{
				"x": 1.9408672154,
				"y": -2.7573824847,
				"z": 2.953074999,
				"element": "C" 
			},
			{
				"x": 1.7221228802,
				"y": -3.4861337908,
				"z": 3.9029432738,
				"element": "O" 
			},
			{
				"x": 1.8794773661,
				"y": -3.2421720266,
				"z": 1.5129734646,
				"element": "C" 
			},
			{
				"x": 1.0250524179,
				"y": -2.3304690717,
				"z": 0.5964516672,
				"element": "C" 
			},
			{
				"x": -0.4688361644,
				"y": -2.5441965063,
				"z": 0.8637347189,
				"element": "C" 
			},
			{
				"x": -1.3151614182,
				"y": -1.7869914906,
				"z": -0.1559567994,
				"element": "C" 
			},
			{
				"x": -1.7284758693,
				"y": 3.4335163813,
				"z": 0.8003827232,
				"element": "H" 
			},
			{
				"x": -2.9950441938,
				"y": 2.2084224602,
				"z": 0.8277856314,
				"element": "H" 
			},
			{
				"x": -1.3562890057,
				"y": 1.7805695907,
				"z": 1.3186756171,
				"element": "H" 
			},
			{
				"x": -2.2478217765,
				"y": 2.7251688475,
				"z": -2.8104906641,
				"element": "H" 
			},
			{
				"x": -2.9342375939,
				"y": 3.6707836128,
				"z": -1.4912374039,
				"element": "H" 
			},
			{
				"x": -4.2536039604,
				"y": 1.4981975884,
				"z": -2.7532649756,
				"element": "H" 
			},
			{
				"x": -4.6716129919,
				"y": 2.0505928418,
				"z": -1.1440919834,
				"element": "H" 
			},
			{
				"x": -3.6492528421,
				"y": 0.1971181983,
				"z": -0.1161119786,
				"element": "H" 
			},
			{
				"x": -3.6218824696,
				"y": -0.5473485946,
				"z": -1.7088236423,
				"element": "H" 
			},
			{
				"x": -1.4904063074,
				"y": 0.4259237197,
				"z": -2.2476076749,
				"element": "H" 
			},
			{
				"x": 0.992991692,
				"y": 1.9980188616,
				"z": 0.6684492148,
				"element": "H" 
			},
			{
				"x": 1.8115249345,
				"y": 1.5180759684,
				"z": -0.7884407489,
				"element": "H" 
			},
			{
				"x": 0.0646531976,
				"y": 2.1928633344,
				"z": -2.2180466217,
				"element": "H" 
			},
			{
				"x": 0.0861428311,
				"y": 3.4352004436,
				"z": -0.9720641235,
				"element": "H" 
			},
			{
				"x": 3.5433146772,
				"y": -1.3563769379,
				"z": 0.4916362952,
				"element": "H" 
			},
			{
				"x": 3.231266861,
				"y": 0.3558662164,
				"z": 0.2666835658,
				"element": "H" 
			},
			{
				"x": 2.790957271,
				"y": -0.7980626175,
				"z": -1.0015543333,
				"element": "H" 
			},
			{
				"x": 0.4172338632,
				"y": -0.3879712334,
				"z": 2.5883047558,
				"element": "H" 
			},
			{
				"x": 1.7991927098,
				"y": 0.642587702,
				"z": 2.2824449551,
				"element": "H" 
			},
			{
				"x": 2.2075102492,
				"y": -1.0134233503,
				"z": 4.1607560962,
				"element": "H" 
			},
			{
				"x": 3.3679701004,
				"y": -1.1813717339,
				"z": 2.838497082,
				"element": "H" 
			},
			{
				"x": 1.4939640638,
				"y": -4.2658607617,
				"z": 1.5083210454,
				"element": "H" 
			},
			{
				"x": 2.9126182214,
				"y": -3.2859038115,
				"z": 1.1430453867,
				"element": "H" 
			},
			{
				"x": 1.2155617211,
				"y": -2.6395901973,
				"z": -0.4415758927,
				"element": "H" 
			},
			{
				"x": -0.7031065963,
				"y": -3.6147559685,
				"z": 0.8293913416,
				"element": "H" 
			},
			{
				"x": -0.7220510649,
				"y": -2.2107747049,
				"z": 1.8782157886,
				"element": "H" 
			},
			{
				"x": -1.3256621569,
				"y": -2.3336538077,
				"z": -1.1130917451,
				"element": "H" 
			},
			{
				"x": -2.3609925759,
				"y": -1.7653258356,
				"z": 0.1722296859,
				"element": "H" 
			}
		],
		 "valence_orbital": [ 
			{
				"type": "occ",
				"energy": -0.30542,
				"method": "rhf"
			},
			{
				"type": "occ",
				"energy": -0.29318,
				"method": "rhf"
			},
			{
				"type": "occ",
				"energy": -0.27339,
				"method": "rhf"
			},
			{
				"type": "occ",
				"energy": -0.23143,
				"method": "rhf"
			},
			{
				"type": "occ",
				"energy": -0.22077,
				"method": "rhf"
			},
			{
				"type": "unocc",
				"energy": -0.00944,
				"method": "rhf"
			},
			{
				"type": "unocc",
				"energy": 0.02158,
				"method": "rhf"
			},
			{
				"type": "unocc",
				"energy": 0.07546,
				"method": "rhf"
			},
			{
				"type": "unocc",
				"energy": 0.08426,
				"method": "rhf"
			},
			{
				"type": "unocc",
				"energy": 0.09166,
				"method": "rhf"
			}
		],
		"cosmo_sigma_profile": { 
			"-0.025": 0.0,
			"-0.024": 0.0,
			"-0.023": 0.0,
			"-0.022": 0.0,
			"-0.021": 0.0,
			"-0.02": 0.0,
			"-0.019": 0.0,
			"-0.018": 0.0,
			"-0.017": 0.0,
			"-0.016": 0.0,
			"-0.015": 0.0,
			"-0.014": 0.0,
			"-0.013": 0.0,
			"-0.012": 0.0,
			"-0.011": 0.0,
			"-0.01": 0.0,
			"-0.009": 0.0,
			"-0.008": 0.0636240729271,
			"-0.007": 1.41933108492,
			"-0.006": 3.24304871865,
			"-0.005": 5.17395018111,
			"-0.004": 8.29343001912,
			"-0.003": 23.6128264769,
			"-0.002": 57.4961174151,
			"-0.001": 68.3946412073,
			"0.0": 57.7159508142,
			"0.001": 38.143152348,
			"0.002": 23.7870468646,
			"0.003": 5.92720651396,
			"0.004": 3.10113600013,
			"0.005": 2.28593233603,
			"0.006": 2.17940786689,
			"0.007": 1.50797155343,
			"0.008": 1.37372173586,
			"0.009": 1.42302432512,
			"0.01": 2.06256256902,
			"0.011": 2.71939292664,
			"0.012": 4.33907313096,
			"0.013": 3.74948816162,
			"0.014": 1.20091894957,
			"0.015": 0.0,
			"0.016": 0.0,
			"0.017": 0.0,
			"0.018": 0.0,
			"0.019": 0.0,
			"0.02": 0.0,
			"0.021": 0.0,
			"0.022": 0.0,
			"0.023": 0.0,
			"0.024": 0.0,
			"0.025": 0.0
		}
	}
}
