{
	 "smiles": "CC1=C(Cl)CCP(=O)(C1)C1=CC=CC=C1", 
	 "Tm": 416.15, 
	 "num_atms": 29, 
	 "gaussian": { 
		 "optdone": 1, 
		 "sigma_profile": "yes", 
		 "theory": "DFT", 
		 "functional": "B3LYP", 
		 "basiset": "6-31G**", 
		 "properties": { 
			 "R2extent": 4189.064, 
			 "electric_dipole_moment_norm": 2.7532192884, 
			 "electric_quadrupole_moment_norm": 17.0713983203, 
			 "total_energy": -1342.50579613, 
			 "HOMO_LUMO_gap": 0.2196, 
			 "cosmo_polarized_energy": -14.23, 
			 "cosmo_cavitation_energy": 33.46, 
			 "cosmo_dispersion_energy": -24.15, 
			 "cosmo_repulsion_energy": 1.86, 
			 "cosmo_total_nonelectrostatic_energy": 11.17, 
			 "SMD_solvation_energy": 6.16 
		},
		"coords": [
			{
				"x": 1.3267160804,
				"y": -3.1838760249,
				"z": 0.8011265567,
				"element": "C" 
			},
			{
				"x": 1.184100274,
				"y": -1.7436058877,
				"z": 0.3773861296,
				"element": "C" 
			},
			{
				"x": 1.0316666688,
				"y": -1.3360419038,
				"z": -0.8937664727,
				"element": "C" 
			},
			{
				"x": 0.9199458696,
				"y": -2.5268650361,
				"z": -2.2102846695,
				"element": "Cl" 
			},
			{
				"x": 0.8827777726,
				"y": 0.0719904023,
				"z": -1.4246357647,
				"element": "C" 
			},
			{
				"x": 1.4068270914,
				"y": 1.1717388285,
				"z": -0.4889766318,
				"element": "C" 
			},
			{
				"x": 0.84150055,
				"y": 0.9981628109,
				"z": 1.244549074,
				"element": "P" 
			},
			{
				"x": 1.4858984864,
				"y": 1.9526117249,
				"z": 2.2092275942,
				"element": "O" 
			},
			{
				"x": 1.2376364037,
				"y": -0.7729385898,
				"z": 1.549314867,
				"element": "C" 
			},
			{
				"x": -0.9814097424,
				"y": 1.1437856247,
				"z": 1.2414057715,
				"element": "C" 
			},
			{
				"x": -1.8495272819,
				"y": 0.1691505897,
				"z": 0.7234600712,
				"element": "C" 
			},
			{
				"x": -3.2303208578,
				"y": 0.3696622002,
				"z": 0.7572227936,
				"element": "C" 
			},
			{
				"x": -3.7551409079,
				"y": 1.5406381221,
				"z": 1.3084737898,
				"element": "C" 
			},
			{
				"x": -2.8979936273,
				"y": 2.5095813502,
				"z": 1.8337535263,
				"element": "C" 
			},
			{
				"x": -1.5171194655,
				"y": 2.3122188601,
				"z": 1.8037450478,
				"element": "C" 
			},
			{
				"x": 1.4078814257,
				"y": -3.8668489278,
				"z": -0.0435373952,
				"element": "H" 
			},
			{
				"x": 2.2153460677,
				"y": -3.3020116184,
				"z": 1.4331756451,
				"element": "H" 
			},
			{
				"x": 0.4659911204,
				"y": -3.4889536468,
				"z": 1.4099297693,
				"element": "H" 
			},
			{
				"x": -0.1756845922,
				"y": 0.2484266549,
				"z": -1.6592583208,
				"element": "H" 
			},
			{
				"x": 1.4120404772,
				"y": 0.1364304108,
				"z": -2.381050981,
				"element": "H" 
			},
			{
				"x": 1.12307281,
				"y": 2.1615228172,
				"z": -0.8594436494,
				"element": "H" 
			},
			{
				"x": 2.5017017972,
				"y": 1.1460042127,
				"z": -0.4393603223,
				"element": "H" 
			},
			{
				"x": 2.2482294084,
				"y": -0.7710197984,
				"z": 1.981009469,
				"element": "H" 
			},
			{
				"x": 0.5780178728,
				"y": -1.1324075875,
				"z": 2.3491816596,
				"element": "H" 
			},
			{
				"x": -1.4551358527,
				"y": -0.7513713914,
				"z": 0.3031505346,
				"element": "H" 
			},
			{
				"x": -3.8954172578,
				"y": -0.3901301797,
				"z": 0.3568426352,
				"element": "H" 
			},
			{
				"x": -4.8303385902,
				"y": 1.6937380746,
				"z": 1.334008373,
				"element": "H" 
			},
			{
				"x": -3.3044498627,
				"y": 3.4162127782,
				"z": 2.2726829838,
				"element": "H" 
			},
			{
				"x": -0.839912138,
				"y": 3.0470951303,
				"z": 2.2281679161,
				"element": "H" 
			}
		],
		 "valence_orbital": [ 
			{
				"type": "occ",
				"energy": -0.2667,
				"method": "rhf"
			},
			{
				"type": "occ",
				"energy": -0.26265,
				"method": "rhf"
			},
			{
				"type": "occ",
				"energy": -0.25899,
				"method": "rhf"
			},
			{
				"type": "occ",
				"energy": -0.25612,
				"method": "rhf"
			},
			{
				"type": "occ",
				"energy": -0.24748,
				"method": "rhf"
			},
			{
				"type": "unocc",
				"energy": -0.02788,
				"method": "rhf"
			},
			{
				"type": "unocc",
				"energy": -0.01328,
				"method": "rhf"
			},
			{
				"type": "unocc",
				"energy": -0.00038,
				"method": "rhf"
			},
			{
				"type": "unocc",
				"energy": 0.02467,
				"method": "rhf"
			},
			{
				"type": "unocc",
				"energy": 0.06177,
				"method": "rhf"
			}
		],
		"cosmo_sigma_profile": { 
			"-0.025": 0.0,
			"-0.024": 0.0,
			"-0.023": 0.0,
			"-0.022": 0.0,
			"-0.021": 0.0,
			"-0.02": 0.0,
			"-0.019": 0.0,
			"-0.018": 0.0,
			"-0.017": 0.0,
			"-0.016": 0.0,
			"-0.015": 0.0,
			"-0.014": 0.0,
			"-0.013": 0.0,
			"-0.012": 0.0,
			"-0.011": 0.0,
			"-0.01": 0.0,
			"-0.009": 0.0,
			"-0.008": 0.0161382845953,
			"-0.007": 3.66957747664,
			"-0.006": 17.5298856412,
			"-0.005": 26.3776391005,
			"-0.004": 31.4700760992,
			"-0.003": 25.2456542102,
			"-0.002": 22.7599009392,
			"-0.001": 18.5524328273,
			"0.0": 16.9760809306,
			"0.001": 15.6941626122,
			"0.002": 14.7009913876,
			"0.003": 17.1347182039,
			"0.004": 17.9520099373,
			"0.005": 13.9298785973,
			"0.006": 3.47123899188,
			"0.007": 1.53569049564,
			"0.008": 0.577271384807,
			"0.009": 1.1435842818,
			"0.01": 1.54901236788,
			"0.011": 1.06464316468,
			"0.012": 0.76833884883,
			"0.013": 1.32622368855,
			"0.014": 1.23280431744,
			"0.015": 2.326021446,
			"0.016": 5.80628871221,
			"0.017": 2.64428146163,
			"0.018": 0.0,
			"0.019": 0.0,
			"0.02": 0.0,
			"0.021": 0.0,
			"0.022": 0.0,
			"0.023": 0.0,
			"0.024": 0.0,
			"0.025": 0.0
		}
	}
}
