{
	 "smiles": "ClC1=CC=CC(Cl)=C1S(Cl)(=O)=O", 
	 "Tm": 326.15, 
	 "num_atms": 15, 
	 "gaussian": { 
		 "optdone": 1, 
		 "sigma_profile": "yes", 
		 "theory": "DFT", 
		 "functional": "B3LYP", 
		 "basiset": "6-31G**", 
		 "properties": { 
			 "R2extent": 5927.7503, 
			 "electric_dipole_moment_norm": 5.91631427918, 
			 "electric_quadrupole_moment_norm": 15.2000700064, 
			 "total_energy": -2159.55939635, 
			 "HOMO_LUMO_gap": 0.17909, 
			 "cosmo_polarized_energy": -9.93, 
			 "cosmo_cavitation_energy": 25.91, 
			 "cosmo_dispersion_energy": -19.99, 
			 "cosmo_repulsion_energy": 1.53, 
			 "cosmo_total_nonelectrostatic_energy": 7.46, 
			 "SMD_solvation_energy": 2.81 
		},
		"coords": [
			{
				"x": 2.4768293785,
				"y": -0.4944496169,
				"z": 1.3354841396,
				"element": "Cl" 
			},
			{
				"x": 0.7941452063,
				"y": -0.712388758,
				"z": 0.9324549252,
				"element": "C" 
			},
			{
				"x": 0.1837541305,
				"y": 0.3940369807,
				"z": 0.3343673909,
				"element": "C" 
			},
			{
				"x": -1.1573280168,
				"y": 0.3528978374,
				"z": -0.0223169475,
				"element": "C" 
			},
			{
				"x": -1.9107440278,
				"y": -0.7901646793,
				"z": 0.218947693,
				"element": "C" 
			},
			{
				"x": -1.3174751597,
				"y": -1.904052029,
				"z": 0.8106732187,
				"element": "C" 
			},
			{
				"x": -2.3735878141,
				"y": -3.2616344321,
				"z": 1.0978778728,
				"element": "Cl" 
			},
			{
				"x": 0.0521852404,
				"y": -1.8932003193,
				"z": 1.1685473492,
				"element": "C" 
			},
			{
				"x": 0.8048186168,
				"y": -3.395921906,
				"z": 1.8681486873,
				"element": "S" 
			},
			{
				"x": -0.1118415773,
				"y": -3.4366658666,
				"z": 3.7876696953,
				"element": "Cl" 
			},
			{
				"x": 0.3252483845,
				"y": -4.5481488966,
				"z": 1.1225111863,
				"element": "O" 
			},
			{
				"x": 2.2206763701,
				"y": -3.2019201334,
				"z": 2.1199797035,
				"element": "O" 
			},
			{
				"x": 0.7797129416,
				"y": 1.2817251352,
				"z": 0.1594039034,
				"element": "H" 
			},
			{
				"x": -1.6202358832,
				"y": 1.218472125,
				"z": -0.4852194865,
				"element": "H" 
			},
			{
				"x": -2.96115779,
				"y": -0.8344854413,
				"z": -0.0428293313,
				"element": "H" 
			}
		],
		 "valence_orbital": [ 
			{
				"type": "occ",
				"energy": -0.32487,
				"method": "rhf"
			},
			{
				"type": "occ",
				"energy": -0.31731,
				"method": "rhf"
			},
			{
				"type": "occ",
				"energy": -0.31427,
				"method": "rhf"
			},
			{
				"type": "occ",
				"energy": -0.29892,
				"method": "rhf"
			},
			{
				"type": "occ",
				"energy": -0.27604,
				"method": "rhf"
			},
			{
				"type": "unocc",
				"energy": -0.09695,
				"method": "rhf"
			},
			{
				"type": "unocc",
				"energy": -0.06522,
				"method": "rhf"
			},
			{
				"type": "unocc",
				"energy": -0.05452,
				"method": "rhf"
			},
			{
				"type": "unocc",
				"energy": -0.01896,
				"method": "rhf"
			},
			{
				"type": "unocc",
				"energy": 0.02963,
				"method": "rhf"
			}
		],
		"cosmo_sigma_profile": { 
			"-0.025": 0.0,
			"-0.024": 0.0,
			"-0.023": 0.0,
			"-0.022": 0.0,
			"-0.021": 0.0,
			"-0.02": 0.0,
			"-0.019": 0.0,
			"-0.018": 0.0,
			"-0.017": 0.0,
			"-0.016": 0.0,
			"-0.015": 0.0,
			"-0.014": 0.0,
			"-0.013": 0.0,
			"-0.012": 0.0,
			"-0.011": 0.0,
			"-0.01": 0.112681765774,
			"-0.009": 5.35995933522,
			"-0.008": 8.24490472826,
			"-0.007": 6.77256134057,
			"-0.006": 5.69029997627,
			"-0.005": 6.31893630005,
			"-0.004": 9.12692334885,
			"-0.003": 11.5916816001,
			"-0.002": 21.7485679627,
			"-0.001": 23.4143947621,
			"0.0": 19.7144091733,
			"0.001": 14.9449557721,
			"0.002": 21.2996487947,
			"0.003": 23.9397828483,
			"0.004": 8.16160424673,
			"0.005": 3.99728947237,
			"0.006": 5.05084920369,
			"0.007": 8.92448835534,
			"0.008": 10.3168912382,
			"0.009": 1.17102398749,
			"0.01": 0.0,
			"0.011": 0.0,
			"0.012": 0.0,
			"0.013": 0.0,
			"0.014": 0.0,
			"0.015": 0.0,
			"0.016": 0.0,
			"0.017": 0.0,
			"0.018": 0.0,
			"0.019": 0.0,
			"0.02": 0.0,
			"0.021": 0.0,
			"0.022": 0.0,
			"0.023": 0.0,
			"0.024": 0.0,
			"0.025": 0.0
		}
	}
}
