{
	 "smiles": "CC(=O)C1=CNC=C1", 
	 "Tm": 386.15, 
	 "num_atms": 15, 
	 "gaussian": { 
		 "optdone": 1, 
		 "sigma_profile": "yes", 
		 "theory": "DFT", 
		 "functional": "B3LYP", 
		 "basiset": "6-31G**", 
		 "properties": { 
			 "R2extent": 1106.6804, 
			 "electric_dipole_moment_norm": 4.14869929014, 
			 "electric_quadrupole_moment_norm": 12.697857526, 
			 "total_energy": -362.824319762, 
			 "HOMO_LUMO_gap": 0.20034, 
			 "cosmo_polarized_energy": -12.86, 
			 "cosmo_cavitation_energy": 19.14, 
			 "cosmo_dispersion_energy": -14.12, 
			 "cosmo_repulsion_energy": 1.18, 
			 "cosmo_total_nonelectrostatic_energy": 6.2, 
			 "SMD_solvation_energy": 4.64 
		},
		"coords": [
			{
				"x": 1.4478704069,
				"y": 2.233692777,
				"z": 1.5831679997,
				"element": "C" 
			},
			{
				"x": 0.8509942016,
				"y": 2.0346333638,
				"z": 0.1987795239,
				"element": "C" 
			},
			{
				"x": 0.9341644697,
				"y": 2.908481662,
				"z": -0.6561466504,
				"element": "O" 
			},
			{
				"x": 0.1742000498,
				"y": 0.7548081918,
				"z": -0.074177154,
				"element": "C" 
			},
			{
				"x": -0.4115739103,
				"y": 0.4434940128,
				"z": -1.2932690261,
				"element": "C" 
			},
			{
				"x": -0.9406852653,
				"y": -0.8080276653,
				"z": -1.1965176917,
				"element": "N" 
			},
			{
				"x": -0.7123798696,
				"y": -1.3241824326,
				"z": 0.06537113,
				"element": "C" 
			},
			{
				"x": -0.0233054077,
				"y": -0.3780320759,
				"z": 0.7832734906,
				"element": "C" 
			},
			{
				"x": 0.6731641603,
				"y": 2.1523251627,
				"z": 2.3542302328,
				"element": "H" 
			},
			{
				"x": 1.9124709247,
				"y": 3.2189855851,
				"z": 1.6350156105,
				"element": "H" 
			},
			{
				"x": 2.1974128387,
				"y": 1.4629273863,
				"z": 1.7963452098,
				"element": "H" 
			},
			{
				"x": -0.4743524022,
				"y": 1.0341535722,
				"z": -2.1940888935,
				"element": "H" 
			},
			{
				"x": -1.4276498804,
				"y": -1.2874967953,
				"z": -1.9373951183,
				"element": "H" 
			},
			{
				"x": -1.0585372066,
				"y": -2.3105623986,
				"z": 0.3355418202,
				"element": "H" 
			},
			{
				"x": 0.3049068904,
				"y": -0.4804003461,
				"z": 1.8077695165,
				"element": "H" 
			}
		],
		 "valence_orbital": [ 
			{
				"type": "occ",
				"energy": -0.36934,
				"method": "rhf"
			},
			{
				"type": "occ",
				"energy": -0.34217,
				"method": "rhf"
			},
			{
				"type": "occ",
				"energy": -0.2524,
				"method": "rhf"
			},
			{
				"type": "occ",
				"energy": -0.23088,
				"method": "rhf"
			},
			{
				"type": "occ",
				"energy": -0.22124,
				"method": "rhf"
			},
			{
				"type": "unocc",
				"energy": -0.0209,
				"method": "rhf"
			},
			{
				"type": "unocc",
				"energy": 0.03626,
				"method": "rhf"
			},
			{
				"type": "unocc",
				"energy": 0.06797,
				"method": "rhf"
			},
			{
				"type": "unocc",
				"energy": 0.11543,
				"method": "rhf"
			},
			{
				"type": "unocc",
				"energy": 0.11858,
				"method": "rhf"
			}
		],
		"cosmo_sigma_profile": { 
			"-0.025": 0.0,
			"-0.024": 0.0,
			"-0.023": 0.0,
			"-0.022": 0.0,
			"-0.021": 0.0,
			"-0.02": 0.0,
			"-0.019": 0.0,
			"-0.018": 0.0,
			"-0.017": 0.060111217306,
			"-0.016": 1.73403368946,
			"-0.015": 1.6795259972,
			"-0.014": 1.34586866692,
			"-0.013": 1.06411542535,
			"-0.012": 1.20966848963,
			"-0.011": 1.30305238152,
			"-0.01": 1.10880533186,
			"-0.009": 1.2260077732,
			"-0.008": 4.47664660254,
			"-0.007": 4.48514061728,
			"-0.006": 4.6669355053,
			"-0.005": 8.78828615769,
			"-0.004": 12.2910027209,
			"-0.003": 10.2000004062,
			"-0.002": 10.7768612322,
			"-0.001": 10.7236702583,
			"0.0": 11.0198880892,
			"0.001": 5.89132921335,
			"0.002": 5.9904016458,
			"0.003": 6.86937259843,
			"0.004": 7.6105867101,
			"0.005": 8.74065793672,
			"0.006": 6.70366747857,
			"0.007": 5.22845785646,
			"0.008": 1.52614477954,
			"0.009": 1.09320823973,
			"0.01": 2.10483242663,
			"0.011": 1.87108666755,
			"0.012": 2.89846098541,
			"0.013": 4.90608744701,
			"0.014": 2.27230983869,
			"0.015": 0.353944148988,
			"0.016": 0.0,
			"0.017": 0.0,
			"0.018": 0.0,
			"0.019": 0.0,
			"0.02": 0.0,
			"0.021": 0.0,
			"0.022": 0.0,
			"0.023": 0.0,
			"0.024": 0.0,
			"0.025": 0.0
		}
	}
}
