{
	 "smiles": "CCNCC(=O)NC1=C(C)C=CC=C1C", 
	 "Tm": 319.15, 
	 "num_atms": 33, 
	 "gaussian": { 
		 "optdone": 1, 
		 "sigma_profile": "yes", 
		 "theory": "DFT", 
		 "functional": "B3LYP", 
		 "basiset": "6-31G**", 
		 "properties": { 
			 "R2extent": 3811.4723, 
			 "electric_dipole_moment_norm": 2.80403110004, 
			 "electric_quadrupole_moment_norm": 6.71215692457, 
			 "total_energy": -652.876029035, 
			 "HOMO_LUMO_gap": 0.20461, 
			 "cosmo_polarized_energy": -11.05, 
			 "cosmo_cavitation_energy": 34.94, 
			 "cosmo_dispersion_energy": -23.7, 
			 "cosmo_repulsion_energy": 1.89, 
			 "cosmo_total_nonelectrostatic_energy": 13.14, 
			 "SMD_solvation_energy": 5.59 
		},
		"coords": [
			{
				"x": -2.940132807,
				"y": -3.2241012416,
				"z": 0.5440341523,
				"element": "C" 
			},
			{
				"x": -3.6873216008,
				"y": -1.895734287,
				"z": 0.4121625767,
				"element": "C" 
			},
			{
				"x": -2.819856959,
				"y": -0.73987479,
				"z": 0.6367591804,
				"element": "N" 
			},
			{
				"x": -1.9080519946,
				"y": -0.4456221466,
				"z": -0.4605657719,
				"element": "C" 
			},
			{
				"x": -1.4140119779,
				"y": 0.9908490615,
				"z": -0.3001449493,
				"element": "C" 
			},
			{
				"x": -2.2027685887,
				"y": 1.8939226191,
				"z": -0.0444308252,
				"element": "O" 
			},
			{
				"x": -0.0813908949,
				"y": 1.2443724176,
				"z": -0.5058845667,
				"element": "N" 
			},
			{
				"x": 0.9994411036,
				"y": 0.3089346082,
				"z": -0.6076109898,
				"element": "C" 
			},
			{
				"x": 1.3887089806,
				"y": -0.4354433124,
				"z": 0.5251960107,
				"element": "C" 
			},
			{
				"x": 0.6885155431,
				"y": -0.2704361457,
				"z": 1.8538287394,
				"element": "C" 
			},
			{
				"x": 2.4588471993,
				"y": -1.3281106887,
				"z": 0.3894425468,
				"element": "C" 
			},
			{
				"x": 3.1353933402,
				"y": -1.4614509644,
				"z": -0.8215877925,
				"element": "C" 
			},
			{
				"x": 2.7504507093,
				"y": -0.7002636871,
				"z": -1.9233303234,
				"element": "C" 
			},
			{
				"x": 1.6772563386,
				"y": 0.193624565,
				"z": -1.8362558541,
				"element": "C" 
			},
			{
				"x": 1.2598382488,
				"y": 1.0177686725,
				"z": -3.0305356291,
				"element": "C" 
			},
			{
				"x": -2.1645895562,
				"y": -3.3319171491,
				"z": -0.2215691738,
				"element": "H" 
			},
			{
				"x": -2.4597606097,
				"y": -3.2954742988,
				"z": 1.5246360986,
				"element": "H" 
			},
			{
				"x": -3.6312094242,
				"y": -4.0659925948,
				"z": 0.4316192356,
				"element": "H" 
			},
			{
				"x": -4.4813804796,
				"y": -1.8561579726,
				"z": 1.1665486111,
				"element": "H" 
			},
			{
				"x": -4.1847889312,
				"y": -1.8564648768,
				"z": -0.5765706201,
				"element": "H" 
			},
			{
				"x": -3.381513389,
				"y": 0.0969687732,
				"z": 0.7798342245,
				"element": "H" 
			},
			{
				"x": -1.0811932106,
				"y": -1.1585856132,
				"z": -0.4821126591,
				"element": "H" 
			},
			{
				"x": -2.3970483315,
				"y": -0.4904409396,
				"z": -1.455600404,
				"element": "H" 
			},
			{
				"x": 0.1401274607,
				"y": 2.2334227655,
				"z": -0.4639523799,
				"element": "H" 
			},
			{
				"x": -0.3503995672,
				"y": -0.6198224046,
				"z": 1.8278027419,
				"element": "H" 
			},
			{
				"x": 1.2116930866,
				"y": -0.8306454569,
				"z": 2.6330785171,
				"element": "H" 
			},
			{
				"x": 0.6566680459,
				"y": 0.7823519786,
				"z": 2.154946062,
				"element": "H" 
			},
			{
				"x": 2.7693192513,
				"y": -1.9132836012,
				"z": 1.2508033646,
				"element": "H" 
			},
			{
				"x": 3.9666349082,
				"y": -2.1558105455,
				"z": -0.905057526,
				"element": "H" 
			},
			{
				"x": 3.2811819916,
				"y": -0.8011069093,
				"z": -2.8662237897,
				"element": "H" 
			},
			{
				"x": 1.8030080807,
				"y": 0.7064177186,
				"z": -3.9263946705,
				"element": "H" 
			},
			{
				"x": 1.4601787385,
				"y": 2.0854567294,
				"z": -2.8773426415,
				"element": "H" 
			},
			{
				"x": 0.1871552952,
				"y": 0.9261497166,
				"z": -3.2276214952,
				"element": "H" 
			}
		],
		 "valence_orbital": [ 
			{
				"type": "occ",
				"energy": -0.27242,
				"method": "rhf"
			},
			{
				"type": "occ",
				"energy": -0.25297,
				"method": "rhf"
			},
			{
				"type": "occ",
				"energy": -0.24439,
				"method": "rhf"
			},
			{
				"type": "occ",
				"energy": -0.23983,
				"method": "rhf"
			},
			{
				"type": "occ",
				"energy": -0.2187,
				"method": "rhf"
			},
			{
				"type": "unocc",
				"energy": -0.01409,
				"method": "rhf"
			},
			{
				"type": "unocc",
				"energy": -0.00263,
				"method": "rhf"
			},
			{
				"type": "unocc",
				"energy": 0.02478,
				"method": "rhf"
			},
			{
				"type": "unocc",
				"energy": 0.08205,
				"method": "rhf"
			},
			{
				"type": "unocc",
				"energy": 0.09527,
				"method": "rhf"
			}
		],
		"cosmo_sigma_profile": { 
			"-0.025": 0.0,
			"-0.024": 0.0,
			"-0.023": 0.0,
			"-0.022": 0.0,
			"-0.021": 0.0,
			"-0.02": 0.0,
			"-0.019": 0.0,
			"-0.018": 0.0,
			"-0.017": 0.0,
			"-0.016": 0.0,
			"-0.015": 0.0,
			"-0.014": 0.386359362111,
			"-0.013": 0.77096346438,
			"-0.012": 1.43607602914,
			"-0.011": 0.656227994563,
			"-0.01": 0.665500030569,
			"-0.009": 0.997802359124,
			"-0.008": 1.33626538231,
			"-0.007": 2.57781056776,
			"-0.006": 3.98049933817,
			"-0.005": 12.3563240444,
			"-0.004": 23.110575822,
			"-0.003": 30.1858969653,
			"-0.002": 33.4317952368,
			"-0.001": 31.487466374,
			"0.0": 33.0670174462,
			"0.001": 26.0408539063,
			"0.002": 13.5053918073,
			"0.003": 9.71225605466,
			"0.004": 9.71816778065,
			"0.005": 10.1336649712,
			"0.006": 6.1401427646,
			"0.007": 2.00632706541,
			"0.008": 2.56177054439,
			"0.009": 2.0438851919,
			"0.01": 1.80438659105,
			"0.011": 2.35010506914,
			"0.012": 2.05499628947,
			"0.013": 5.13982937931,
			"0.014": 3.57097376128,
			"0.015": 0.201994210624,
			"0.016": 0.0,
			"0.017": 0.0,
			"0.018": 0.0,
			"0.019": 0.0,
			"0.02": 0.0,
			"0.021": 0.0,
			"0.022": 0.0,
			"0.023": 0.0,
			"0.024": 0.0,
			"0.025": 0.0
		}
	}
}
