{
	 "smiles": "NC(CCCO)C1=CC=CC=C1", 
	 "Tm": 346.15, 
	 "num_atms": 27, 
	 "gaussian": { 
		 "optdone": 1, 
		 "sigma_profile": "yes", 
		 "theory": "DFT", 
		 "functional": "B3LYP", 
		 "basiset": "6-31G**", 
		 "properties": { 
			 "R2extent": 2857.944, 
			 "electric_dipole_moment_norm": 2.7587790216, 
			 "electric_quadrupole_moment_norm": 7.6597930194, 
			 "total_energy": -520.073884926, 
			 "HOMO_LUMO_gap": 0.22976, 
			 "cosmo_polarized_energy": -9.7, 
			 "cosmo_cavitation_energy": 28.64, 
			 "cosmo_dispersion_energy": -20.8, 
			 "cosmo_repulsion_energy": 1.69, 
			 "cosmo_total_nonelectrostatic_energy": 9.53, 
			 "SMD_solvation_energy": 3.88 
		},
		"coords": [
			{
				"x": -0.7889770814,
				"y": 1.5467861371,
				"z": -0.141836893,
				"element": "N" 
			},
			{
				"x": -0.0816854476,
				"y": 0.368956208,
				"z": 0.3831185092,
				"element": "C" 
			},
			{
				"x": -0.4189760589,
				"y": -0.8675218943,
				"z": -0.4861851622,
				"element": "C" 
			},
			{
				"x": -1.9118780579,
				"y": -1.1696090991,
				"z": -0.7043088497,
				"element": "C" 
			},
			{
				"x": -2.7403704922,
				"y": -1.419821422,
				"z": 0.5517238643,
				"element": "C" 
			},
			{
				"x": -2.9571747336,
				"y": -0.1726699127,
				"z": 1.2162618876,
				"element": "O" 
			},
			{
				"x": 1.4212780964,
				"y": 0.6041964182,
				"z": 0.3816386895,
				"element": "C" 
			},
			{
				"x": 2.2235335259,
				"y": 0.0745210434,
				"z": 1.4000404648,
				"element": "C" 
			},
			{
				"x": 3.6082348286,
				"y": 0.2513579435,
				"z": 1.3885623117,
				"element": "C" 
			},
			{
				"x": 4.2123758809,
				"y": 0.9704393716,
				"z": 0.3558193223,
				"element": "C" 
			},
			{
				"x": 3.4217058464,
				"y": 1.5084076827,
				"z": -0.6621427976,
				"element": "C" 
			},
			{
				"x": 2.0383205797,
				"y": 1.3253824887,
				"z": -0.6506828474,
				"element": "C" 
			},
			{
				"x": -1.7738955117,
				"y": 1.4446312575,
				"z": 0.0945932247,
				"element": "H" 
			},
			{
				"x": -0.4627394936,
				"y": 2.3736918331,
				"z": 0.3542140342,
				"element": "H" 
			},
			{
				"x": -0.3797005745,
				"y": 0.1375405583,
				"z": 1.4187144424,
				"element": "H" 
			},
			{
				"x": 0.0670162354,
				"y": -1.7424926154,
				"z": -0.0340120738,
				"element": "H" 
			},
			{
				"x": 0.0451465567,
				"y": -0.7236191027,
				"z": -1.4689340684,
				"element": "H" 
			},
			{
				"x": -1.9888160373,
				"y": -2.0630810522,
				"z": -1.3370594219,
				"element": "H" 
			},
			{
				"x": -2.381637755,
				"y": -0.3547590612,
				"z": -1.2676423783,
				"element": "H" 
			},
			{
				"x": -2.2199647755,
				"y": -2.1317484984,
				"z": 1.2128556443,
				"element": "H" 
			},
			{
				"x": -3.703469654,
				"y": -1.8741454567,
				"z": 0.2710722541,
				"element": "H" 
			},
			{
				"x": -3.4225473885,
				"y": -0.3414504758,
				"z": 2.0443361254,
				"element": "H" 
			},
			{
				"x": 1.7568068663,
				"y": -0.4784635589,
				"z": 2.2124784445,
				"element": "H" 
			},
			{
				"x": 4.2132387437,
				"y": -0.1654945213,
				"z": 2.1893127491,
				"element": "H" 
			},
			{
				"x": 5.2892475379,
				"y": 1.114351919,
				"z": 0.346754598,
				"element": "H" 
			},
			{
				"x": 3.8838430594,
				"y": 2.0732435743,
				"z": -1.4675471333,
				"element": "H" 
			},
			{
				"x": 1.4181853046,
				"y": 1.7473702354,
				"z": -1.4355449404,
				"element": "H" 
			}
		],
		 "valence_orbital": [ 
			{
				"type": "occ",
				"energy": -0.31425,
				"method": "rhf"
			},
			{
				"type": "occ",
				"energy": -0.2723,
				"method": "rhf"
			},
			{
				"type": "occ",
				"energy": -0.23856,
				"method": "rhf"
			},
			{
				"type": "occ",
				"energy": -0.23431,
				"method": "rhf"
			},
			{
				"type": "occ",
				"energy": -0.22023,
				"method": "rhf"
			},
			{
				"type": "unocc",
				"energy": 0.00953,
				"method": "rhf"
			},
			{
				"type": "unocc",
				"energy": 0.00955,
				"method": "rhf"
			},
			{
				"type": "unocc",
				"energy": 0.06496,
				"method": "rhf"
			},
			{
				"type": "unocc",
				"energy": 0.10401,
				"method": "rhf"
			},
			{
				"type": "unocc",
				"energy": 0.10884,
				"method": "rhf"
			}
		],
		"cosmo_sigma_profile": { 
			"-0.025": 0.0,
			"-0.024": 0.0,
			"-0.023": 0.0,
			"-0.022": 0.0,
			"-0.021": 0.0,
			"-0.02": 0.0,
			"-0.019": 0.0,
			"-0.018": 0.0,
			"-0.017": 0.0,
			"-0.016": 0.287837841949,
			"-0.015": 1.2698542303,
			"-0.014": 0.855863273708,
			"-0.013": 0.858500451956,
			"-0.012": 0.883700271506,
			"-0.011": 1.05700199029,
			"-0.01": 0.759883918678,
			"-0.009": 1.26097423026,
			"-0.008": 1.74097416078,
			"-0.007": 2.10301170216,
			"-0.006": 3.82317015092,
			"-0.005": 9.357517152,
			"-0.004": 13.8889854189,
			"-0.003": 26.0478899262,
			"-0.002": 28.0346549774,
			"-0.001": 24.2839278969,
			"0.0": 19.6427629623,
			"0.001": 14.7135149561,
			"0.002": 12.4565190077,
			"0.003": 10.5778829498,
			"0.004": 10.0224738662,
			"0.005": 10.5768539141,
			"0.006": 10.6970644873,
			"0.007": 7.62288973675,
			"0.008": 2.65990057037,
			"0.009": 1.26164956545,
			"0.01": 0.894180202369,
			"0.011": 1.20861567111,
			"0.012": 0.882086929006,
			"0.013": 1.11626827754,
			"0.014": 0.550575506941,
			"0.015": 0.393727234855,
			"0.016": 0.490141629052,
			"0.017": 0.424263758037,
			"0.018": 0.45999296087,
			"0.019": 0.163403922231,
			"0.02": 0.0,
			"0.021": 0.0,
			"0.022": 0.0,
			"0.023": 0.0,
			"0.024": 0.0,
			"0.025": 0.0
		}
	}
}
