{
	 "smiles": "FC(F)(F)C1CC(=O)NC2=C(C=CC=C2)N1C(=O)CCl", 
	 "Tm": 433.15, 
	 "num_atms": 30, 
	 "gaussian": { 
		 "optdone": 1, 
		 "sigma_profile": "yes", 
		 "theory": "DFT", 
		 "functional": "B3LYP", 
		 "basiset": "6-31G**", 
		 "properties": { 
			 "R2extent": 5553.0913, 
			 "electric_dipole_moment_norm": 2.58284440104, 
			 "electric_quadrupole_moment_norm": 20.7242314885, 
			 "total_energy": -1482.98442199, 
			 "HOMO_LUMO_gap": 0.18292, 
			 "cosmo_polarized_energy": -18.22, 
			 "cosmo_cavitation_energy": 35.54, 
			 "cosmo_dispersion_energy": -24.48, 
			 "cosmo_repulsion_energy": 1.82, 
			 "cosmo_total_nonelectrostatic_energy": 12.88, 
			 "SMD_solvation_energy": 7.74 
		},
		"coords": [
			{
				"x": 0.8306696723,
				"y": 2.6540017391,
				"z": 1.28837281,
				"element": "F" 
			},
			{
				"x": 1.8620064068,
				"y": 2.1968428412,
				"z": 0.5521486272,
				"element": "C" 
			},
			{
				"x": 2.5940200599,
				"y": 3.2710871527,
				"z": 0.181194564,
				"element": "F" 
			},
			{
				"x": 2.6320165674,
				"y": 1.4266768528,
				"z": 1.3427177396,
				"element": "F" 
			},
			{
				"x": 1.4202032397,
				"y": 1.4377264341,
				"z": -0.7069665719,
				"element": "C" 
			},
			{
				"x": 0.450699136,
				"y": 2.2524233174,
				"z": -1.5721293464,
				"element": "C" 
			},
			{
				"x": -1.0119793449,
				"y": 2.4179606513,
				"z": -1.1968829132,
				"element": "C" 
			},
			{
				"x": -1.6596436861,
				"y": 3.3114420679,
				"z": -1.7229215456,
				"element": "O" 
			},
			{
				"x": -1.6630513794,
				"y": 1.5261401672,
				"z": -0.3645979533,
				"element": "N" 
			},
			{
				"x": -1.2583583618,
				"y": 0.5972633281,
				"z": 0.6111730062,
				"element": "C" 
			},
			{
				"x": -0.03560438,
				"y": -0.0945095596,
				"z": 0.6215256856,
				"element": "C" 
			},
			{
				"x": 0.2514160892,
				"y": -0.9703799696,
				"z": 1.6764042138,
				"element": "C" 
			},
			{
				"x": -0.6686069867,
				"y": -1.2150263202,
				"z": 2.6872653942,
				"element": "C" 
			},
			{
				"x": -1.8989466789,
				"y": -0.5546813228,
				"z": 2.663343733,
				"element": "C" 
			},
			{
				"x": -2.1791082604,
				"y": 0.3453226572,
				"z": 1.6452488421,
				"element": "C" 
			},
			{
				"x": 0.9526369934,
				"y": 0.0865319536,
				"z": -0.4072254973,
				"element": "N" 
			},
			{
				"x": 1.4448192885,
				"y": -1.0484646527,
				"z": -1.0441871951,
				"element": "C" 
			},
			{
				"x": 0.9971622999,
				"y": -2.1627406159,
				"z": -0.8364593604,
				"element": "O" 
			},
			{
				"x": 2.6436035728,
				"y": -0.9161025463,
				"z": -1.9917856815,
				"element": "C" 
			},
			{
				"x": 2.2575420012,
				"y": -0.1200669799,
				"z": -3.5785797016,
				"element": "Cl" 
			},
			{
				"x": 2.3394834873,
				"y": 1.354826361,
				"z": -1.285782143,
				"element": "H" 
			},
			{
				"x": 0.8425157011,
				"y": 3.2632562504,
				"z": -1.7090606525,
				"element": "H" 
			},
			{
				"x": 0.4440710043,
				"y": 1.7898245767,
				"z": -2.5643254934,
				"element": "H" 
			},
			{
				"x": -2.6351716917,
				"y": 1.8045545164,
				"z": -0.2893082349,
				"element": "H" 
			},
			{
				"x": 1.2086716787,
				"y": -1.4770820687,
				"z": 1.6772523106,
				"element": "H" 
			},
			{
				"x": -0.4262647484,
				"y": -1.9088708091,
				"z": 3.4852381287,
				"element": "H" 
			},
			{
				"x": -2.6345025111,
				"y": -0.72842806,
				"z": 3.4426137392,
				"element": "H" 
			},
			{
				"x": -3.1249968068,
				"y": 0.8806763558,
				"z": 1.639943431,
				"element": "H" 
			},
			{
				"x": 3.4795596622,
				"y": -0.370159085,
				"z": -1.5500396107,
				"element": "H" 
			},
			{
				"x": 2.9492379756,
				"y": -1.9330452332,
				"z": -2.2242903243,
				"element": "H" 
			}
		],
		 "valence_orbital": [ 
			{
				"type": "occ",
				"energy": -0.29966,
				"method": "rhf"
			},
			{
				"type": "occ",
				"energy": -0.27748,
				"method": "rhf"
			},
			{
				"type": "occ",
				"energy": -0.26871,
				"method": "rhf"
			},
			{
				"type": "occ",
				"energy": -0.2512,
				"method": "rhf"
			},
			{
				"type": "occ",
				"energy": -0.22997,
				"method": "rhf"
			},
			{
				"type": "unocc",
				"energy": -0.04705,
				"method": "rhf"
			},
			{
				"type": "unocc",
				"energy": -0.02223,
				"method": "rhf"
			},
			{
				"type": "unocc",
				"energy": -0.01659,
				"method": "rhf"
			},
			{
				"type": "unocc",
				"energy": 0.02398,
				"method": "rhf"
			},
			{
				"type": "unocc",
				"energy": 0.03453,
				"method": "rhf"
			}
		],
		"cosmo_sigma_profile": { 
			"-0.025": 0.0,
			"-0.024": 0.0,
			"-0.023": 0.0,
			"-0.022": 0.0,
			"-0.021": 0.0,
			"-0.02": 0.0,
			"-0.019": 0.0,
			"-0.018": 0.0,
			"-0.017": 0.0,
			"-0.016": 0.0,
			"-0.015": 0.4099560794,
			"-0.014": 1.31252949651,
			"-0.013": 2.03056746951,
			"-0.012": 2.3661616199,
			"-0.011": 2.33434755905,
			"-0.01": 3.18277036357,
			"-0.009": 5.0087599125,
			"-0.008": 6.58677923336,
			"-0.007": 10.1047539028,
			"-0.006": 17.302886107,
			"-0.005": 17.3387811144,
			"-0.004": 16.3142765781,
			"-0.003": 12.5309837052,
			"-0.002": 13.4535671466,
			"-0.001": 16.285650169,
			"0.0": 17.8093754267,
			"0.001": 20.9053443004,
			"0.002": 37.1897212541,
			"0.003": 22.1977064753,
			"0.004": 14.8997324212,
			"0.005": 10.7870672975,
			"0.006": 3.67428246891,
			"0.007": 2.91112459775,
			"0.008": 1.74972195657,
			"0.009": 3.03774386946,
			"0.01": 3.91372174208,
			"0.011": 4.97835742721,
			"0.012": 8.45906304679,
			"0.013": 5.66641025338,
			"0.014": 0.857625688788,
			"0.015": 0.0,
			"0.016": 0.0,
			"0.017": 0.0,
			"0.018": 0.0,
			"0.019": 0.0,
			"0.02": 0.0,
			"0.021": 0.0,
			"0.022": 0.0,
			"0.023": 0.0,
			"0.024": 0.0,
			"0.025": 0.0
		}
	}
}
