{
	 "smiles": "COC(=O)C1=C(N)C(C#N)=C(S1)N(C)C", 
	 "Tm": 515.15, 
	 "num_atms": 26, 
	 "gaussian": { 
		 "optdone": 1, 
		 "sigma_profile": "yes", 
		 "theory": "DFT", 
		 "functional": "B3LYP", 
		 "basiset": "6-31G**", 
		 "properties": { 
			 "R2extent": 4265.3056, 
			 "electric_dipole_moment_norm": 4.55894291805, 
			 "electric_quadrupole_moment_norm": 13.6912306613, 
			 "total_energy": -1062.46525655, 
			 "HOMO_LUMO_gap": 0.16354, 
			 "cosmo_polarized_energy": -15.11, 
			 "cosmo_cavitation_energy": 31.68, 
			 "cosmo_dispersion_energy": -23.3, 
			 "cosmo_repulsion_energy": 1.78, 
			 "cosmo_total_nonelectrostatic_energy": 10.15, 
			 "SMD_solvation_energy": 7.25 
		},
		"coords": [
			{
				"x": -3.3907859938,
				"y": -0.0178585122,
				"z": -3.9845998027,
				"element": "C" 
			},
			{
				"x": -2.2620227313,
				"y": -0.0101427597,
				"z": -3.1013654577,
				"element": "O" 
			},
			{
				"x": -2.4483092605,
				"y": -0.6419186325,
				"z": -1.9114138967,
				"element": "C" 
			},
			{
				"x": -3.5111770431,
				"y": -1.1838874902,
				"z": -1.6067287222,
				"element": "O" 
			},
			{
				"x": -1.2846070499,
				"y": -0.6044738814,
				"z": -1.0724896178,
				"element": "C" 
			},
			{
				"x": -1.1997026359,
				"y": -1.1832855065,
				"z": 0.1893234831,
				"element": "C" 
			},
			{
				"x": -2.2238319641,
				"y": -1.8165615983,
				"z": 0.804110097,
				"element": "N" 
			},
			{
				"x": 0.1051452704,
				"y": -1.0241776785,
				"z": 0.7917631038,
				"element": "C" 
			},
			{
				"x": 0.3457609531,
				"y": -1.5903264312,
				"z": 2.0675495698,
				"element": "C" 
			},
			{
				"x": 0.4391943436,
				"y": -2.1007609044,
				"z": 3.1135930817,
				"element": "N" 
			},
			{
				"x": 1.0024158368,
				"y": -0.3234559419,
				"z": -0.0319500935,
				"element": "C" 
			},
			{
				"x": 0.2341622386,
				"y": 0.1657991932,
				"z": -1.5326125988,
				"element": "S" 
			},
			{
				"x": 2.3079683058,
				"y": -0.0045520294,
				"z": 0.1827012158,
				"element": "N" 
			},
			{
				"x": 2.8959525901,
				"y": -0.1202183185,
				"z": 1.5173579427,
				"element": "C" 
			},
			{
				"x": 2.9959974182,
				"y": 0.8538056537,
				"z": -0.7762298907,
				"element": "C" 
			},
			{
				"x": -3.0718135561,
				"y": 0.5268803578,
				"z": -4.8735575751,
				"element": "H" 
			},
			{
				"x": -3.673301525,
				"y": -1.0412529901,
				"z": -4.2453310666,
				"element": "H" 
			},
			{
				"x": -4.2494969585,
				"y": 0.4757337154,
				"z": -3.5220080182,
				"element": "H" 
			},
			{
				"x": -3.0733478711,
				"y": -1.9385255015,
				"z": 0.2665181164,
				"element": "H" 
			},
			{
				"x": -2.0672535506,
				"y": -2.3247610877,
				"z": 1.6596960084,
				"element": "H" 
			},
			{
				"x": 2.7115875221,
				"y": -1.1076832551,
				"z": 1.9394640642,
				"element": "H" 
			},
			{
				"x": 2.4981518141,
				"y": 0.6343702641,
				"z": 2.2088536489,
				"element": "H" 
			},
			{
				"x": 3.9748903615,
				"y": 0.0172082304,
				"z": 1.4314319525,
				"element": "H" 
			},
			{
				"x": 2.6561389299,
				"y": 1.8978512118,
				"z": -0.722802844,
				"element": "H" 
			},
			{
				"x": 4.0673903501,
				"y": 0.8222038745,
				"z": -0.5734484483,
				"element": "H" 
			},
			{
				"x": 2.8349942056,
				"y": 0.486990018,
				"z": -1.7944242519,
				"element": "H" 
			}
		],
		 "valence_orbital": [ 
			{
				"type": "occ",
				"energy": -0.2937,
				"method": "rhf"
			},
			{
				"type": "occ",
				"energy": -0.28736,
				"method": "rhf"
			},
			{
				"type": "occ",
				"energy": -0.26921,
				"method": "rhf"
			},
			{
				"type": "occ",
				"energy": -0.22695,
				"method": "rhf"
			},
			{
				"type": "occ",
				"energy": -0.19753,
				"method": "rhf"
			},
			{
				"type": "unocc",
				"energy": -0.03399,
				"method": "rhf"
			},
			{
				"type": "unocc",
				"energy": -0.0014,
				"method": "rhf"
			},
			{
				"type": "unocc",
				"energy": 0.00231,
				"method": "rhf"
			},
			{
				"type": "unocc",
				"energy": 0.04036,
				"method": "rhf"
			},
			{
				"type": "unocc",
				"energy": 0.07386,
				"method": "rhf"
			}
		],
		"cosmo_sigma_profile": { 
			"-0.025": 0.0,
			"-0.024": 0.0,
			"-0.023": 0.0,
			"-0.022": 0.0,
			"-0.021": 0.0,
			"-0.02": 0.0,
			"-0.019": 0.0,
			"-0.018": 0.0,
			"-0.017": 0.0,
			"-0.016": 0.0,
			"-0.015": 0.0,
			"-0.014": 0.1606045462,
			"-0.013": 0.651654979321,
			"-0.012": 0.912247808551,
			"-0.011": 0.931119644697,
			"-0.01": 1.50671843151,
			"-0.009": 2.00552122763,
			"-0.008": 4.40251664855,
			"-0.007": 5.31630743129,
			"-0.006": 12.2646068036,
			"-0.005": 22.2082193413,
			"-0.004": 27.5809478802,
			"-0.003": 27.6271961023,
			"-0.002": 13.6623434654,
			"-0.001": 10.0031020935,
			"0.0": 15.9019082454,
			"0.001": 17.2332493141,
			"0.002": 17.6289553733,
			"0.003": 17.1373154632,
			"0.004": 11.6850006971,
			"0.005": 7.21326724867,
			"0.006": 6.32528278644,
			"0.007": 5.87171698188,
			"0.008": 3.30119316786,
			"0.009": 3.74081717726,
			"0.01": 4.49590983733,
			"0.011": 4.85079502864,
			"0.012": 4.94877157741,
			"0.013": 4.22347070956,
			"0.014": 0.698453103737,
			"0.015": 0.0,
			"0.016": 0.0,
			"0.017": 0.0,
			"0.018": 0.0,
			"0.019": 0.0,
			"0.02": 0.0,
			"0.021": 0.0,
			"0.022": 0.0,
			"0.023": 0.0,
			"0.024": 0.0,
			"0.025": 0.0
		}
	}
}
