{
	 "smiles": "NC(=O)C1=CC2=CC=CC=C2C=C1", 
	 "Tm": 468.15, 
	 "num_atms": 22, 
	 "gaussian": { 
		 "optdone": 1, 
		 "sigma_profile": "yes", 
		 "theory": "DFT", 
		 "functional": "B3LYP", 
		 "basiset": "6-31G**", 
		 "properties": { 
			 "R2extent": 2727.2917, 
			 "electric_dipole_moment_norm": 3.66951813322, 
			 "electric_quadrupole_moment_norm": 18.1613254381, 
			 "total_energy": -554.601460503, 
			 "HOMO_LUMO_gap": 0.16913, 
			 "cosmo_polarized_energy": -13.69, 
			 "cosmo_cavitation_energy": 26.1, 
			 "cosmo_dispersion_energy": -19.46, 
			 "cosmo_repulsion_energy": 1.51, 
			 "cosmo_total_nonelectrostatic_energy": 8.15, 
			 "SMD_solvation_energy": 4.94 
		},
		"coords": [
			{
				"x": -0.4295217602,
				"y": 1.6725542,
				"z": 3.1948887575,
				"element": "N" 
			},
			{
				"x": -0.0515498606,
				"y": 2.337661644,
				"z": 2.0509972916,
				"element": "C" 
			},
			{
				"x": 0.2581466162,
				"y": 3.5228957935,
				"z": 2.0674126108,
				"element": "O" 
			},
			{
				"x": -0.0131182375,
				"y": 1.5258305434,
				"z": 0.7880583811,
				"element": "C" 
			},
			{
				"x": 0.046495309,
				"y": 0.1448206902,
				"z": 0.7743200428,
				"element": "C" 
			},
			{
				"x": 0.0939638745,
				"y": -0.5770687553,
				"z": -0.4470249436,
				"element": "C" 
			},
			{
				"x": 0.1578329856,
				"y": -1.9966349769,
				"z": -0.4839146964,
				"element": "C" 
			},
			{
				"x": 0.1966373807,
				"y": -2.6687692839,
				"z": -1.6846180414,
				"element": "C" 
			},
			{
				"x": 0.1763778505,
				"y": -1.9503330324,
				"z": -2.9056892957,
				"element": "C" 
			},
			{
				"x": 0.1195231679,
				"y": -0.5742529313,
				"z": -2.9033464279,
				"element": "C" 
			},
			{
				"x": 0.0783724502,
				"y": 0.1496784037,
				"z": -1.6822492039,
				"element": "C" 
			},
			{
				"x": 0.0313718092,
				"y": 1.5707389781,
				"z": -1.6382975484,
				"element": "C" 
			},
			{
				"x": -0.0046956611,
				"y": 2.2409456672,
				"z": -0.4405788417,
				"element": "C" 
			},
			{
				"x": -0.9998454486,
				"y": 0.8437124249,
				"z": 3.1329747662,
				"element": "H" 
			},
			{
				"x": -0.5651303255,
				"y": 2.2590355924,
				"z": 4.0058883979,
				"element": "H" 
			},
			{
				"x": 0.0935679894,
				"y": -0.4173380666,
				"z": 1.7034840358,
				"element": "H" 
			},
			{
				"x": 0.1741927671,
				"y": -2.5447127908,
				"z": 0.45484099,
				"element": "H" 
			},
			{
				"x": 0.2435346387,
				"y": -3.7536948764,
				"z": -1.7006526854,
				"element": "H" 
			},
			{
				"x": 0.2079713195,
				"y": -2.491834922,
				"z": -3.8467041848,
				"element": "H" 
			},
			{
				"x": 0.1071182183,
				"y": -0.0218208842,
				"z": -3.8393278427,
				"element": "H" 
			},
			{
				"x": 0.0294174623,
				"y": 2.1224994327,
				"z": -2.5748239323,
				"element": "H" 
			},
			{
				"x": -0.0255625457,
				"y": 3.3241871498,
				"z": -0.3954376293,
				"element": "H" 
			}
		],
		 "valence_orbital": [ 
			{
				"type": "occ",
				"energy": -0.29093,
				"method": "rhf"
			},
			{
				"type": "occ",
				"energy": -0.27203,
				"method": "rhf"
			},
			{
				"type": "occ",
				"energy": -0.25327,
				"method": "rhf"
			},
			{
				"type": "occ",
				"energy": -0.24485,
				"method": "rhf"
			},
			{
				"type": "occ",
				"energy": -0.22289,
				"method": "rhf"
			},
			{
				"type": "unocc",
				"energy": -0.05376,
				"method": "rhf"
			},
			{
				"type": "unocc",
				"energy": -0.02523,
				"method": "rhf"
			},
			{
				"type": "unocc",
				"energy": 0.01883,
				"method": "rhf"
			},
			{
				"type": "unocc",
				"energy": 0.04706,
				"method": "rhf"
			},
			{
				"type": "unocc",
				"energy": 0.07704,
				"method": "rhf"
			}
		],
		"cosmo_sigma_profile": { 
			"-0.025": 0.0,
			"-0.024": 0.0,
			"-0.023": 0.0,
			"-0.022": 0.0,
			"-0.021": 0.0,
			"-0.02": 0.0,
			"-0.019": 0.0,
			"-0.018": 0.0,
			"-0.017": 0.0,
			"-0.016": 0.0,
			"-0.015": 0.0348074117148,
			"-0.014": 1.25335535994,
			"-0.013": 2.59968721196,
			"-0.012": 1.94623314549,
			"-0.011": 2.36521627322,
			"-0.01": 3.45415479754,
			"-0.009": 2.19964970326,
			"-0.008": 2.27477967947,
			"-0.007": 3.6590348098,
			"-0.006": 14.303383976,
			"-0.005": 13.9723370953,
			"-0.004": 13.5750933071,
			"-0.003": 12.0314421592,
			"-0.002": 10.103561517,
			"-0.001": 11.0622608094,
			"0.0": 11.0185632833,
			"0.001": 13.5445752644,
			"0.002": 13.5008706791,
			"0.003": 24.4881276934,
			"0.004": 20.4033463527,
			"0.005": 9.40633814872,
			"0.006": 2.21582192254,
			"0.007": 1.93250464838,
			"0.008": 2.33825025567,
			"0.009": 1.27871504093,
			"0.01": 1.88495308236,
			"0.011": 1.23635718925,
			"0.012": 2.32394454066,
			"0.013": 4.37558805437,
			"0.014": 3.9125245598,
			"0.015": 0.215901710072,
			"0.016": 0.0,
			"0.017": 0.0,
			"0.018": 0.0,
			"0.019": 0.0,
			"0.02": 0.0,
			"0.021": 0.0,
			"0.022": 0.0,
			"0.023": 0.0,
			"0.024": 0.0,
			"0.025": 0.0
		}
	}
}
