{
	 "smiles": "CC(NC(=O)CCl)C1=CC2=C(CCCC2)C=C1", 
	 "Tm": 408.15, 
	 "num_atms": 35, 
	 "gaussian": { 
		 "optdone": 1, 
		 "sigma_profile": "yes", 
		 "theory": "DFT", 
		 "functional": "B3LYP", 
		 "basiset": "6-31G**", 
		 "properties": { 
			 "R2extent": 6905.8182, 
			 "electric_dipole_moment_norm": 5.77048511825, 
			 "electric_quadrupole_moment_norm": 30.2629606407, 
			 "total_energy": -1134.53871262, 
			 "HOMO_LUMO_gap": 0.22875, 
			 "cosmo_polarized_energy": -15.46, 
			 "cosmo_cavitation_energy": 38.26, 
			 "cosmo_dispersion_energy": -26.56, 
			 "cosmo_repulsion_energy": 2.13, 
			 "cosmo_total_nonelectrostatic_energy": 13.83, 
			 "SMD_solvation_energy": 5.85 
		},
		"coords": [
			{
				"x": 1.0460017939,
				"y": 1.7361403686,
				"z": 4.1870686405,
				"element": "C" 
			},
			{
				"x": 1.774769443,
				"y": 0.8623184719,
				"z": 3.1529367823,
				"element": "C" 
			},
			{
				"x": 2.5793771777,
				"y": 1.7413487257,
				"z": 2.3021834189,
				"element": "N" 
			},
			{
				"x": 3.603383906,
				"y": 1.4158269016,
				"z": 1.4466599118,
				"element": "C" 
			},
			{
				"x": 4.1279417441,
				"y": 2.2461227343,
				"z": 0.726457138,
				"element": "O" 
			},
			{
				"x": 4.0330110438,
				"y": -0.0568280029,
				"z": 1.5077431295,
				"element": "C" 
			},
			{
				"x": 5.3337844851,
				"y": -0.4410813645,
				"z": 0.34105199,
				"element": "Cl" 
			},
			{
				"x": 0.7891917988,
				"y": -0.0184297134,
				"z": 2.3841615289,
				"element": "C" 
			},
			{
				"x": 0.1401797953,
				"y": 0.4419782657,
				"z": 1.2313631055,
				"element": "C" 
			},
			{
				"x": -0.8012431074,
				"y": -0.3484159921,
				"z": 0.5702577668,
				"element": "C" 
			},
			{
				"x": -1.1031831906,
				"y": -1.6338857399,
				"z": 1.0596862906,
				"element": "C" 
			},
			{
				"x": -2.1157324989,
				"y": -2.4404576059,
				"z": 0.2849490898,
				"element": "C" 
			},
			{
				"x": -1.8002239154,
				"y": -2.4255234781,
				"z": -1.2296052147,
				"element": "C" 
			},
			{
				"x": -1.4676316672,
				"y": -1.0043075293,
				"z": -1.7712324934,
				"element": "C" 
			},
			{
				"x": -1.5227118145,
				"y": 0.0912971492,
				"z": -0.680264389,
				"element": "C" 
			},
			{
				"x": -0.449314587,
				"y": -2.0993901006,
				"z": 2.2017360423,
				"element": "C" 
			},
			{
				"x": 0.4866287759,
				"y": -1.2992429615,
				"z": 2.8597824738,
				"element": "C" 
			},
			{
				"x": 1.7604195978,
				"y": 2.3216237158,
				"z": 4.7743000984,
				"element": "H" 
			},
			{
				"x": 0.3528342333,
				"y": 2.4220588892,
				"z": 3.68740917,
				"element": "H" 
			},
			{
				"x": 0.4611605955,
				"y": 1.1109434043,
				"z": 4.8656924075,
				"element": "H" 
			},
			{
				"x": 2.454997244,
				"y": 0.2000713817,
				"z": 3.7041717099,
				"element": "H" 
			},
			{
				"x": 2.3100751105,
				"y": 2.7147503209,
				"z": 2.2368634404,
				"element": "H" 
			},
			{
				"x": 3.18546981,
				"y": -0.7109470963,
				"z": 1.2940562971,
				"element": "H" 
			},
			{
				"x": 4.4066163069,
				"y": -0.2963124073,
				"z": 2.5068221236,
				"element": "H" 
			},
			{
				"x": 0.3837087339,
				"y": 1.4247476055,
				"z": 0.8349468091,
				"element": "H" 
			},
			{
				"x": -3.1160750564,
				"y": -2.0112786145,
				"z": 0.4437765914,
				"element": "H" 
			},
			{
				"x": -2.160719057,
				"y": -3.4703812795,
				"z": 0.6543027806,
				"element": "H" 
			},
			{
				"x": -0.9489872028,
				"y": -3.0905674926,
				"z": -1.4091803296,
				"element": "H" 
			},
			{
				"x": -2.6476101232,
				"y": -2.8552758936,
				"z": -1.7742675793,
				"element": "H" 
			},
			{
				"x": -0.4617751127,
				"y": -1.0066660401,
				"z": -2.2037834875,
				"element": "H" 
			},
			{
				"x": -2.1515397041,
				"y": -0.7331739949,
				"z": -2.5824234077,
				"element": "H" 
			},
			{
				"x": -1.1068009672,
				"y": 1.0292158403,
				"z": -1.0624951228,
				"element": "H" 
			},
			{
				"x": -2.5752640736,
				"y": 0.296211602,
				"z": -0.4347505966,
				"element": "H" 
			},
			{
				"x": -0.6651323372,
				"y": -3.0972268154,
				"z": 2.5762853516,
				"element": "H" 
			},
			{
				"x": 0.9902928199,
				"y": -1.6783632544,
				"z": 3.7467385324,
				"element": "H" 
			}
		],
		 "valence_orbital": [ 
			{
				"type": "occ",
				"energy": -0.29024,
				"method": "rhf"
			},
			{
				"type": "occ",
				"energy": -0.26049,
				"method": "rhf"
			},
			{
				"type": "occ",
				"energy": -0.25363,
				"method": "rhf"
			},
			{
				"type": "occ",
				"energy": -0.24948,
				"method": "rhf"
			},
			{
				"type": "occ",
				"energy": -0.23856,
				"method": "rhf"
			},
			{
				"type": "unocc",
				"energy": -0.00981,
				"method": "rhf"
			},
			{
				"type": "unocc",
				"energy": -0.00791,
				"method": "rhf"
			},
			{
				"type": "unocc",
				"energy": 0.02324,
				"method": "rhf"
			},
			{
				"type": "unocc",
				"energy": 0.03127,
				"method": "rhf"
			},
			{
				"type": "unocc",
				"energy": 0.07987,
				"method": "rhf"
			}
		],
		"cosmo_sigma_profile": { 
			"-0.025": 0.0,
			"-0.024": 0.0,
			"-0.023": 0.0,
			"-0.022": 0.0,
			"-0.021": 0.0,
			"-0.02": 0.0,
			"-0.019": 0.0,
			"-0.018": 0.0,
			"-0.017": 0.0,
			"-0.016": 0.0,
			"-0.015": 0.0,
			"-0.014": 0.146476563161,
			"-0.013": 0.620595994928,
			"-0.012": 0.869920779923,
			"-0.011": 0.945349849286,
			"-0.01": 1.18237990353,
			"-0.009": 4.11127644285,
			"-0.008": 4.24982462415,
			"-0.007": 4.30603781701,
			"-0.006": 7.15121683987,
			"-0.005": 12.6820162807,
			"-0.004": 21.0608202229,
			"-0.003": 32.027570213,
			"-0.002": 33.1163716818,
			"-0.001": 39.1377421957,
			"0.0": 32.9033815008,
			"0.001": 22.2468668768,
			"0.002": 13.3427156052,
			"0.003": 11.3879997806,
			"0.004": 10.2415729897,
			"0.005": 12.8534772525,
			"0.006": 12.806882693,
			"0.007": 3.59588787692,
			"0.008": 2.12716071032,
			"0.009": 2.34804268379,
			"0.01": 1.86931841251,
			"0.011": 1.32283418806,
			"0.012": 3.18821838961,
			"0.013": 5.57621650614,
			"0.014": 3.54898709149,
			"0.015": 0.848436019583,
			"0.016": 0.0,
			"0.017": 0.0,
			"0.018": 0.0,
			"0.019": 0.0,
			"0.02": 0.0,
			"0.021": 0.0,
			"0.022": 0.0,
			"0.023": 0.0,
			"0.024": 0.0,
			"0.025": 0.0
		}
	}
}
