{
	 "smiles": "COC1=CC=C(C(O)=O)C(OC)=C1OC", 
	 "Tm": 374.15, 
	 "num_atms": 27, 
	 "gaussian": { 
		 "optdone": 1, 
		 "sigma_profile": "yes", 
		 "theory": "DFT", 
		 "functional": "B3LYP", 
		 "basiset": "6-31G**", 
		 "properties": { 
			 "R2extent": 3453.6411, 
			 "electric_dipole_moment_norm": 6.86180324623, 
			 "electric_quadrupole_moment_norm": 15.8982182272, 
			 "total_energy": -764.377324975, 
			 "HOMO_LUMO_gap": 0.20284, 
			 "cosmo_polarized_energy": -14.97, 
			 "cosmo_cavitation_energy": 30.21, 
			 "cosmo_dispersion_energy": -21.66, 
			 "cosmo_repulsion_energy": 1.68, 
			 "cosmo_total_nonelectrostatic_energy": 10.23, 
			 "SMD_solvation_energy": 8.37 
		},
		"coords": [
			{
				"x": -2.5463482513,
				"y": 1.6748005223,
				"z": 3.1220253871,
				"element": "C" 
			},
			{
				"x": -2.2796462024,
				"y": 0.3407672871,
				"z": 2.6634904842,
				"element": "O" 
			},
			{
				"x": -1.1645359086,
				"y": 0.2178378915,
				"z": 1.8691167715,
				"element": "C" 
			},
			{
				"x": -0.0361110594,
				"y": -0.4229450539,
				"z": 2.3825348379,
				"element": "C" 
			},
			{
				"x": 1.1064211061,
				"y": -0.541766546,
				"z": 1.6035440891,
				"element": "C" 
			},
			{
				"x": 1.157180147,
				"y": -0.0256794606,
				"z": 0.3024972065,
				"element": "C" 
			},
			{
				"x": 2.4642777465,
				"y": -0.2035184779,
				"z": -0.4344502515,
				"element": "C" 
			},
			{
				"x": 2.5793682692,
				"y": 0.3716108734,
				"z": -1.6439743927,
				"element": "O" 
			},
			{
				"x": 3.381276196,
				"y": -0.8356801785,
				"z": 0.0446089001,
				"element": "O" 
			},
			{
				"x": 0.0056791579,
				"y": 0.5963405123,
				"z": -0.2239443119,
				"element": "C" 
			},
			{
				"x": 0.0816954325,
				"y": 1.1515444109,
				"z": -1.4877253596,
				"element": "O" 
			},
			{
				"x": -0.9058352671,
				"y": 0.789982125,
				"z": -2.4700725188,
				"element": "C" 
			},
			{
				"x": -1.163435737,
				"y": 0.711440671,
				"z": 0.5503496884,
				"element": "C" 
			},
			{
				"x": -2.2524278217,
				"y": 1.3697401631,
				"z": 0.0271527421,
				"element": "O" 
			},
			{
				"x": -3.4527648061,
				"y": 0.5881112437,
				"z": -0.0986404786,
				"element": "C" 
			},
			{
				"x": -1.713729935,
				"y": 2.045445513,
				"z": 3.7315417277,
				"element": "H" 
			},
			{
				"x": -3.4452537219,
				"y": 1.6101917027,
				"z": 3.7377065913,
				"element": "H" 
			},
			{
				"x": -2.7179707623,
				"y": 2.3577421138,
				"z": 2.2841931408,
				"element": "H" 
			},
			{
				"x": -0.0756789472,
				"y": -0.8044483248,
				"z": 3.3972447699,
				"element": "H" 
			},
			{
				"x": 1.9989922809,
				"y": -1.0281913321,
				"z": 1.9798980343,
				"element": "H" 
			},
			{
				"x": 1.7407719254,
				"y": 0.8346458151,
				"z": -1.8482471509,
				"element": "H" 
			},
			{
				"x": -1.8122237566,
				"y": 1.3796477284,
				"z": -2.3339337059,
				"element": "H" 
			},
			{
				"x": -1.1366442168,
				"y": -0.2789232394,
				"z": -2.4112217932,
				"element": "H" 
			},
			{
				"x": -0.4575777989,
				"y": 1.0106646079,
				"z": -3.4406375408,
				"element": "H" 
			},
			{
				"x": -3.7725334749,
				"y": 0.1929394001,
				"z": 0.867867501,
				"element": "H" 
			},
			{
				"x": -4.2112804044,
				"y": 1.2654373146,
				"z": -0.4953847208,
				"element": "H" 
			},
			{
				"x": -3.3027641899,
				"y": -0.2411372827,
				"z": -0.800839647,
				"element": "H" 
			}
		],
		 "valence_orbital": [ 
			{
				"type": "occ",
				"energy": -0.29427,
				"method": "rhf"
			},
			{
				"type": "occ",
				"energy": -0.2801,
				"method": "rhf"
			},
			{
				"type": "occ",
				"energy": -0.25892,
				"method": "rhf"
			},
			{
				"type": "occ",
				"energy": -0.24864,
				"method": "rhf"
			},
			{
				"type": "occ",
				"energy": -0.24474,
				"method": "rhf"
			},
			{
				"type": "unocc",
				"energy": -0.0419,
				"method": "rhf"
			},
			{
				"type": "unocc",
				"energy": -0.01277,
				"method": "rhf"
			},
			{
				"type": "unocc",
				"energy": 0.05156,
				"method": "rhf"
			},
			{
				"type": "unocc",
				"energy": 0.05996,
				"method": "rhf"
			},
			{
				"type": "unocc",
				"energy": 0.08955,
				"method": "rhf"
			}
		],
		"cosmo_sigma_profile": { 
			"-0.025": 0.0,
			"-0.024": 0.0,
			"-0.023": 0.0,
			"-0.022": 0.0,
			"-0.021": 0.0,
			"-0.02": 0.0,
			"-0.019": 0.0,
			"-0.018": 0.0,
			"-0.017": 0.0,
			"-0.016": 0.0,
			"-0.015": 0.0,
			"-0.014": 0.0,
			"-0.013": 0.0,
			"-0.012": 0.0,
			"-0.011": 0.0,
			"-0.01": 0.28963608036,
			"-0.009": 0.741497521941,
			"-0.008": 1.05399035433,
			"-0.007": 4.11118079998,
			"-0.006": 15.4044344681,
			"-0.005": 23.6758090427,
			"-0.004": 27.2181954112,
			"-0.003": 30.8751204362,
			"-0.002": 18.9911127285,
			"-0.001": 15.444136096,
			"0.0": 12.1372222798,
			"0.001": 13.4196990739,
			"0.002": 14.3487716569,
			"0.003": 10.5045088485,
			"0.004": 5.80879398436,
			"0.005": 5.14257303794,
			"0.006": 6.05028545471,
			"0.007": 4.64285168693,
			"0.008": 4.88698722567,
			"0.009": 3.47363827741,
			"0.01": 5.94732325033,
			"0.011": 5.9244034417,
			"0.012": 6.18396999233,
			"0.013": 3.00942574836,
			"0.014": 0.831208762827,
			"0.015": 0.0,
			"0.016": 0.0,
			"0.017": 0.0,
			"0.018": 0.0,
			"0.019": 0.0,
			"0.02": 0.0,
			"0.021": 0.0,
			"0.022": 0.0,
			"0.023": 0.0,
			"0.024": 0.0,
			"0.025": 0.0
		}
	}
}
