{
	 "smiles": "COC1=C(OCC2=CN(C)N=C2)C=CC(=C1)C(O)=O", 
	 "Tm": 456.15, 
	 "num_atms": 33, 
	 "gaussian": { 
		 "optdone": 1, 
		 "sigma_profile": "yes", 
		 "theory": "DFT", 
		 "functional": "B3LYP", 
		 "basiset": "6-31G**", 
		 "properties": { 
			 "R2extent": 6872.7619, 
			 "electric_dipole_moment_norm": 5.98293750928, 
			 "electric_quadrupole_moment_norm": 13.6148153447, 
			 "total_energy": -914.184294165, 
			 "HOMO_LUMO_gap": 0.18832, 
			 "cosmo_polarized_energy": -19.7, 
			 "cosmo_cavitation_energy": 38.21, 
			 "cosmo_dispersion_energy": -26.65, 
			 "cosmo_repulsion_energy": 2.09, 
			 "cosmo_total_nonelectrostatic_energy": 13.65, 
			 "SMD_solvation_energy": 8.33 
		},
		"coords": [
			{
				"x": -0.8850786899,
				"y": 1.936637921,
				"z": 3.2996314298,
				"element": "C" 
			},
			{
				"x": -1.0527051316,
				"y": 0.7051773339,
				"z": 2.5937816775,
				"element": "O" 
			},
			{
				"x": 0.0925376077,
				"y": 0.163031948,
				"z": 2.0647925411,
				"element": "C" 
			},
			{
				"x": 0.7074890381,
				"y": 0.7316838601,
				"z": 0.9208352431,
				"element": "C" 
			},
			{
				"x": 0.129385803,
				"y": 1.8698560612,
				"z": 0.4504682154,
				"element": "O" 
			},
			{
				"x": 0.663891971,
				"y": 2.5212619256,
				"z": -0.7128732812,
				"element": "C" 
			},
			{
				"x": 0.3212955684,
				"y": 1.825463091,
				"z": -1.9945427232,
				"element": "C" 
			},
			{
				"x": 1.1500816817,
				"y": 1.5615107677,
				"z": -3.0731386909,
				"element": "C" 
			},
			{
				"x": 0.3846254206,
				"y": 0.9724064557,
				"z": -4.0286638658,
				"element": "N" 
			},
			{
				"x": 0.8047415803,
				"y": 0.4476796897,
				"z": -5.3146200151,
				"element": "C" 
			},
			{
				"x": -0.8981182549,
				"y": 0.8179491459,
				"z": -3.6338698569,
				"element": "N" 
			},
			{
				"x": -0.9421712058,
				"y": 1.3383530681,
				"z": -2.409476958,
				"element": "C" 
			},
			{
				"x": 1.8373010762,
				"y": 0.1140210257,
				"z": 0.3707500808,
				"element": "C" 
			},
			{
				"x": 2.3524879013,
				"y": -1.0489892744,
				"z": 0.9411268926,
				"element": "C" 
			},
			{
				"x": 1.7459927414,
				"y": -1.6139909668,
				"z": 2.0671110862,
				"element": "C" 
			},
			{
				"x": 0.6148254673,
				"y": -0.9938039736,
				"z": 2.6215336412,
				"element": "C" 
			},
			{
				"x": 2.2499475654,
				"y": -2.848421509,
				"z": 2.7093748432,
				"element": "C" 
			},
			{
				"x": 3.3459250823,
				"y": -3.3651736646,
				"z": 2.0902571011,
				"element": "O" 
			},
			{
				"x": 1.7640950295,
				"y": -3.3771996727,
				"z": 3.6915185842,
				"element": "O" 
			},
			{
				"x": -0.1952512018,
				"y": 1.8133000887,
				"z": 4.1447212955,
				"element": "H" 
			},
			{
				"x": -1.8726660692,
				"y": 2.2064579251,
				"z": 3.6793237473,
				"element": "H" 
			},
			{
				"x": -0.5186999026,
				"y": 2.7307874562,
				"z": 2.6415947852,
				"element": "H" 
			},
			{
				"x": 1.7486302683,
				"y": 2.65478207,
				"z": -0.6134345728,
				"element": "H" 
			},
			{
				"x": 0.2066085751,
				"y": 3.514499863,
				"z": -0.6712326135,
				"element": "H" 
			},
			{
				"x": 2.2020070791,
				"y": 1.7561184685,
				"z": -3.2299624468,
				"element": "H" 
			},
			{
				"x": 0.9122220658,
				"y": -0.6409237144,
				"z": -5.2766303377,
				"element": "H" 
			},
			{
				"x": 1.7616297345,
				"y": 0.895379382,
				"z": -5.5895219387,
				"element": "H" 
			},
			{
				"x": 0.0548591683,
				"y": 0.7039474892,
				"z": -6.0649036936,
				"element": "H" 
			},
			{
				"x": -1.8719161955,
				"y": 1.3423864445,
				"z": -1.8565443744,
				"element": "H" 
			},
			{
				"x": 2.302318593,
				"y": 0.5195405423,
				"z": -0.5182670175,
				"element": "H" 
			},
			{
				"x": 3.2238304318,
				"y": -1.5228843397,
				"z": 0.5043713216,
				"element": "H" 
			},
			{
				"x": 0.1344892157,
				"y": -1.4275715569,
				"z": 3.49138064,
				"element": "H" 
			},
			{
				"x": 3.5759879854,
				"y": -4.160273351,
				"z": 2.5978092604,
				"element": "H" 
			}
		],
		 "valence_orbital": [ 
			{
				"type": "occ",
				"energy": -0.26698,
				"method": "rhf"
			},
			{
				"type": "occ",
				"energy": -0.25648,
				"method": "rhf"
			},
			{
				"type": "occ",
				"energy": -0.24855,
				"method": "rhf"
			},
			{
				"type": "occ",
				"energy": -0.24427,
				"method": "rhf"
			},
			{
				"type": "occ",
				"energy": -0.22264,
				"method": "rhf"
			},
			{
				"type": "unocc",
				"energy": -0.03432,
				"method": "rhf"
			},
			{
				"type": "unocc",
				"energy": -0.00117,
				"method": "rhf"
			},
			{
				"type": "unocc",
				"energy": 0.00901,
				"method": "rhf"
			},
			{
				"type": "unocc",
				"energy": 0.04376,
				"method": "rhf"
			},
			{
				"type": "unocc",
				"energy": 0.07028,
				"method": "rhf"
			}
		],
		"cosmo_sigma_profile": { 
			"-0.025": 0.0,
			"-0.024": 0.0,
			"-0.023": 0.0,
			"-0.022": 0.0,
			"-0.021": 0.0,
			"-0.02": 0.0,
			"-0.019": 0.0,
			"-0.018": 0.446506136654,
			"-0.017": 1.09232031428,
			"-0.016": 0.869829566101,
			"-0.015": 0.585092836652,
			"-0.014": 0.906944573495,
			"-0.013": 0.433807815858,
			"-0.012": 0.375651120671,
			"-0.011": 0.95350822904,
			"-0.01": 1.11990239367,
			"-0.009": 2.83370756493,
			"-0.008": 6.28910311376,
			"-0.007": 9.56751912787,
			"-0.006": 18.5632874203,
			"-0.005": 19.1618004787,
			"-0.004": 23.997527316,
			"-0.003": 27.1995692603,
			"-0.002": 22.2704925887,
			"-0.001": 16.4432450297,
			"0.0": 17.209015447,
			"0.001": 18.081060106,
			"0.002": 22.5447656081,
			"0.003": 21.5734062097,
			"0.004": 15.6747083121,
			"0.005": 8.65640773759,
			"0.006": 6.51570994666,
			"0.007": 6.67717611421,
			"0.008": 6.37141148689,
			"0.009": 4.66708040827,
			"0.01": 5.47039608165,
			"0.011": 6.54049249275,
			"0.012": 6.87505895387,
			"0.013": 1.48279308077,
			"0.014": 1.19266102171,
			"0.015": 1.06456747798,
			"0.016": 0.564547836604,
			"0.017": 0.0320194275437,
			"0.018": 0.0,
			"0.019": 0.0,
			"0.02": 0.0,
			"0.021": 0.0,
			"0.022": 0.0,
			"0.023": 0.0,
			"0.024": 0.0,
			"0.025": 0.0
		}
	}
}
