{
	 "smiles": "CC(=O)NN", 
	 "Tm": 338.65, 
	 "num_atms": 11, 
	 "gaussian": { 
		 "optdone": 1, 
		 "sigma_profile": "yes", 
		 "theory": "DFT", 
		 "functional": "B3LYP", 
		 "basiset": "6-31G**", 
		 "properties": { 
			 "R2extent": 716.8201, 
			 "electric_dipole_moment_norm": 2.39870935922, 
			 "electric_quadrupole_moment_norm": 9.28081684228, 
			 "total_energy": -264.538661423, 
			 "HOMO_LUMO_gap": 0.27863, 
			 "cosmo_polarized_energy": -11.59, 
			 "cosmo_cavitation_energy": 14.72, 
			 "cosmo_dispersion_energy": -11.03, 
			 "cosmo_repulsion_energy": 1.01, 
			 "cosmo_total_nonelectrostatic_energy": 4.7, 
			 "SMD_solvation_energy": 4.18 
		},
		"coords": [
			{
				"x": -1.9630570421,
				"y": -1.0176973526,
				"z": 1.0197426708,
				"element": "C" 
			},
			{
				"x": -1.7131432426,
				"y": -0.2341323072,
				"z": -0.2569024823,
				"element": "C" 
			},
			{
				"x": -2.5947792674,
				"y": 0.0246705793,
				"z": -1.0663718454,
				"element": "O" 
			},
			{
				"x": -0.4170015987,
				"y": 0.1684689627,
				"z": -0.4505392518,
				"element": "N" 
			},
			{
				"x": -0.0742088882,
				"y": 1.0328102133,
				"z": -1.5105215344,
				"element": "N" 
			},
			{
				"x": -1.0557149118,
				"y": -1.2153052835,
				"z": 1.597458076,
				"element": "H" 
			},
			{
				"x": -2.670646875,
				"y": -0.4641822109,
				"z": 1.6436128176,
				"element": "H" 
			},
			{
				"x": -2.432327704,
				"y": -1.9696554822,
				"z": 0.7590362508,
				"element": "H" 
			},
			{
				"x": 0.2468203725,
				"y": 0.1500440258,
				"z": 0.3096182719,
				"element": "H" 
			},
			{
				"x": -0.8740960641,
				"y": 1.6518461472,
				"z": -1.6511450918,
				"element": "H" 
			},
			{
				"x": -0.0256447786,
				"y": 0.4686327081,
				"z": -2.3587878815,
				"element": "H" 
			}
		],
		 "valence_orbital": [ 
			{
				"type": "occ",
				"energy": -0.39919,
				"method": "rhf"
			},
			{
				"type": "occ",
				"energy": -0.35736,
				"method": "rhf"
			},
			{
				"type": "occ",
				"energy": -0.28603,
				"method": "rhf"
			},
			{
				"type": "occ",
				"energy": -0.25282,
				"method": "rhf"
			},
			{
				"type": "occ",
				"energy": -0.25198,
				"method": "rhf"
			},
			{
				"type": "unocc",
				"energy": 0.02665,
				"method": "rhf"
			},
			{
				"type": "unocc",
				"energy": 0.07826,
				"method": "rhf"
			},
			{
				"type": "unocc",
				"energy": 0.09272,
				"method": "rhf"
			},
			{
				"type": "unocc",
				"energy": 0.12926,
				"method": "rhf"
			},
			{
				"type": "unocc",
				"energy": 0.15679,
				"method": "rhf"
			}
		],
		"cosmo_sigma_profile": { 
			"-0.025": 0.0,
			"-0.024": 0.0,
			"-0.023": 0.0,
			"-0.022": 0.0,
			"-0.021": 0.0,
			"-0.02": 0.0,
			"-0.019": 0.0,
			"-0.018": 0.0,
			"-0.017": 0.0,
			"-0.016": 0.0,
			"-0.015": 0.00640761455636,
			"-0.014": 1.19514970564,
			"-0.013": 0.87385694006,
			"-0.012": 1.80093868988,
			"-0.011": 2.12003303551,
			"-0.01": 4.08699182648,
			"-0.009": 3.3997120241,
			"-0.008": 3.56565299621,
			"-0.007": 2.69244403912,
			"-0.006": 4.63140068228,
			"-0.005": 8.03619607033,
			"-0.004": 8.24018472652,
			"-0.003": 8.40209481199,
			"-0.002": 9.32400565823,
			"-0.001": 9.5771124929,
			"0.0": 5.76515892,
			"0.001": 3.5650071179,
			"0.002": 3.70165439123,
			"0.003": 2.72356224045,
			"0.004": 2.56172105759,
			"0.005": 1.66387714514,
			"0.006": 2.17206907858,
			"0.007": 2.00604498097,
			"0.008": 2.15451241377,
			"0.009": 1.78841240629,
			"0.01": 1.88916118667,
			"0.011": 1.86886132666,
			"0.012": 2.38843244351,
			"0.013": 3.88629767555,
			"0.014": 5.73890571316,
			"0.015": 2.16991603536,
			"0.016": 0.550434366212,
			"0.017": 0.378540630138,
			"0.018": 0.0,
			"0.019": 0.0,
			"0.02": 0.0,
			"0.021": 0.0,
			"0.022": 0.0,
			"0.023": 0.0,
			"0.024": 0.0,
			"0.025": 0.0
		}
	}
}
