{
	 "smiles": "[O-][N+](=O)C1=CC=C(NN=C2C(Cl)C3=CC=CC=C23)C(=C1)[N+]([O-])=O", 
	 "Tm": 501.15, 
	 "num_atms": 32, 
	 "gaussian": { 
		 "optdone": 1, 
		 "sigma_profile": "yes", 
		 "theory": "DFT", 
		 "functional": "B3LYP", 
		 "basiset": "6-31G**", 
		 "properties": { 
			 "R2extent": 12782.6356, 
			 "electric_dipole_moment_norm": 9.02569062067, 
			 "electric_quadrupole_moment_norm": 15.3744497784, 
			 "total_energy": -1518.74191986, 
			 "HOMO_LUMO_gap": 0.12798, 
			 "cosmo_polarized_energy": -16.28, 
			 "cosmo_cavitation_energy": 41.17, 
			 "cosmo_dispersion_energy": -29.2, 
			 "cosmo_repulsion_energy": 2.2, 
			 "cosmo_total_nonelectrostatic_energy": 14.17, 
			 "SMD_solvation_energy": 9.7 
		},
		"coords": [
			{
				"x": 2.4010377641,
				"y": 0.2573110059,
				"z": 5.7183647658,
				"element": "O" 
			},
			{
				"x": 2.3368341445,
				"y": -0.9223538564,
				"z": 5.3666871558,
				"element": "N" 
			},
			{
				"x": 2.6495516667,
				"y": -1.8840788563,
				"z": 6.0688507715,
				"element": "O" 
			},
			{
				"x": 1.8532512244,
				"y": -1.1934270812,
				"z": 4.0148702021,
				"element": "C" 
			},
			{
				"x": 1.4855241167,
				"y": -0.1244053608,
				"z": 3.181659383,
				"element": "C" 
			},
			{
				"x": 1.0294130031,
				"y": -0.3767074058,
				"z": 1.90750466,
				"element": "C" 
			},
			{
				"x": 0.9198490771,
				"y": -1.7025095109,
				"z": 1.4101403055,
				"element": "C" 
			},
			{
				"x": 0.4652320396,
				"y": -1.9273999875,
				"z": 0.1444778198,
				"element": "N" 
			},
			{
				"x": 0.1119346205,
				"y": -0.8826080859,
				"z": -0.6511361774,
				"element": "N" 
			},
			{
				"x": -0.310988406,
				"y": -1.1545932608,
				"z": -1.8273038053,
				"element": "C" 
			},
			{
				"x": -0.5730871421,
				"y": -2.4292203316,
				"z": -2.6781078247,
				"element": "C" 
			},
			{
				"x": -1.7958658518,
				"y": -3.5911595884,
				"z": -1.997449293,
				"element": "Cl" 
			},
			{
				"x": -1.0655644381,
				"y": -1.4497384481,
				"z": -3.7285143758,
				"element": "C" 
			},
			{
				"x": -1.5876592369,
				"y": -1.3549161335,
				"z": -5.0071035036,
				"element": "C" 
			},
			{
				"x": -1.7998120678,
				"y": -0.0489683886,
				"z": -5.4753340644,
				"element": "C" 
			},
			{
				"x": -1.4977507171,
				"y": 1.0825167832,
				"z": -4.6952128491,
				"element": "C" 
			},
			{
				"x": -0.971402882,
				"y": 0.9760812836,
				"z": -3.40271198,
				"element": "C" 
			},
			{
				"x": -0.7759901429,
				"y": -0.3236831628,
				"z": -2.9425473136,
				"element": "C" 
			},
			{
				"x": 1.3061891076,
				"y": -2.7630177148,
				"z": 2.285942026,
				"element": "C" 
			},
			{
				"x": 1.7668595437,
				"y": -2.5007889406,
				"z": 3.5770381821,
				"element": "C" 
			},
			{
				"x": 1.2531732509,
				"y": -4.1625951302,
				"z": 1.8905048448,
				"element": "N" 
			},
			{
				"x": 1.6024054497,
				"y": -5.014669014,
				"z": 2.7016514905,
				"element": "O" 
			},
			{
				"x": 0.859277395,
				"y": -4.4407708241,
				"z": 0.7417101994,
				"element": "O" 
			},
			{
				"x": 1.5660091606,
				"y": 0.8879888953,
				"z": 3.5578097203,
				"element": "H" 
			},
			{
				"x": 0.7386139867,
				"y": 0.4311705899,
				"z": 1.2500376979,
				"element": "H" 
			},
			{
				"x": 0.3695621712,
				"y": -2.9017353382,
				"z": -0.1427116554,
				"element": "H" 
			},
			{
				"x": 0.3023878634,
				"y": -3.0309428453,
				"z": -2.9317982907,
				"element": "H" 
			},
			{
				"x": -1.8262952301,
				"y": -2.2197473333,
				"z": -5.6176645762,
				"element": "H" 
			},
			{
				"x": -2.2079469459,
				"y": 0.0977973475,
				"z": -6.4709933373,
				"element": "H" 
			},
			{
				"x": -1.6837669796,
				"y": 2.067574837,
				"z": -5.1130456156,
				"element": "H" 
			},
			{
				"x": -0.7453865228,
				"y": 1.8541118797,
				"z": -2.8072649839,
				"element": "H" 
			},
			{
				"x": 2.0529109776,
				"y": -3.3210160227,
				"z": 4.2208504215,
				"element": "H" 
			}
		],
		 "valence_orbital": [ 
			{
				"type": "occ",
				"energy": -0.29373,
				"method": "rhf"
			},
			{
				"type": "occ",
				"energy": -0.29161,
				"method": "rhf"
			},
			{
				"type": "occ",
				"energy": -0.28702,
				"method": "rhf"
			},
			{
				"type": "occ",
				"energy": -0.28201,
				"method": "rhf"
			},
			{
				"type": "occ",
				"energy": -0.23326,
				"method": "rhf"
			},
			{
				"type": "unocc",
				"energy": -0.10528,
				"method": "rhf"
			},
			{
				"type": "unocc",
				"energy": -0.09423,
				"method": "rhf"
			},
			{
				"type": "unocc",
				"energy": -0.06852,
				"method": "rhf"
			},
			{
				"type": "unocc",
				"energy": -0.04524,
				"method": "rhf"
			},
			{
				"type": "unocc",
				"energy": -0.0201,
				"method": "rhf"
			}
		],
		"cosmo_sigma_profile": { 
			"-0.025": 0.0,
			"-0.024": 0.0,
			"-0.023": 0.0,
			"-0.022": 0.0,
			"-0.021": 0.0,
			"-0.02": 0.0,
			"-0.019": 0.0,
			"-0.018": 0.0,
			"-0.017": 0.0,
			"-0.016": 0.0,
			"-0.015": 0.0,
			"-0.014": 0.0,
			"-0.013": 0.0,
			"-0.012": 0.083322518308,
			"-0.011": 0.642478104874,
			"-0.01": 1.67736661154,
			"-0.009": 4.10269875017,
			"-0.008": 5.33327163759,
			"-0.007": 15.8777470039,
			"-0.006": 17.3644752328,
			"-0.005": 20.3267134693,
			"-0.004": 20.5577709375,
			"-0.003": 24.378443854,
			"-0.002": 27.0232256538,
			"-0.001": 25.2640160965,
			"0.0": 25.1891293982,
			"0.001": 22.9925218738,
			"0.002": 22.7609237531,
			"0.003": 20.8796905806,
			"0.004": 14.6753559299,
			"0.005": 15.2367053941,
			"0.006": 10.2940933198,
			"0.007": 14.3852469014,
			"0.008": 12.6326284788,
			"0.009": 8.59611104208,
			"0.01": 4.60363702243,
			"0.011": 0.302211812548,
			"0.012": 0.0,
			"0.013": 0.0,
			"0.014": 0.0,
			"0.015": 0.0,
			"0.016": 0.0,
			"0.017": 0.0,
			"0.018": 0.0,
			"0.019": 0.0,
			"0.02": 0.0,
			"0.021": 0.0,
			"0.022": 0.0,
			"0.023": 0.0,
			"0.024": 0.0,
			"0.025": 0.0
		}
	}
}
