{
	 "smiles": "CC(C)(C)NC1=C(C=C(C=C1)C(O)=O)S(=O)(=O)NC(C)(C)C", 
	 "Tm": 517.15, 
	 "num_atms": 46, 
	 "gaussian": { 
		 "optdone": 1, 
		 "sigma_profile": "yes", 
		 "theory": "DFT", 
		 "functional": "B3LYP", 
		 "basiset": "6-31G**", 
		 "properties": { 
			 "R2extent": 9088.6987, 
			 "electric_dipole_moment_norm": 5.16738984111, 
			 "electric_quadrupole_moment_norm": 35.456253288, 
			 "total_energy": -1394.61457965, 
			 "HOMO_LUMO_gap": 0.1757, 
			 "cosmo_polarized_energy": -22.34, 
			 "cosmo_cavitation_energy": 47.46, 
			 "cosmo_dispersion_energy": -32.04, 
			 "cosmo_repulsion_energy": 2.4, 
			 "cosmo_total_nonelectrostatic_energy": 17.82, 
			 "SMD_solvation_energy": 8.32 
		},
		"coords": [
			{
				"x": -2.2482623455,
				"y": 1.4403713695,
				"z": -4.2120653749,
				"element": "C" 
			},
			{
				"x": -0.814495136,
				"y": 1.4407486225,
				"z": -3.6422970548,
				"element": "C" 
			},
			{
				"x": 0.0567655621,
				"y": 0.523574958,
				"z": -4.5226671111,
				"element": "C" 
			},
			{
				"x": -0.1981357987,
				"y": 2.8559358332,
				"z": -3.6541680683,
				"element": "C" 
			},
			{
				"x": -0.7654195925,
				"y": 0.8327663367,
				"z": -2.2936048676,
				"element": "N" 
			},
			{
				"x": -1.3620236989,
				"y": 1.2083521764,
				"z": -1.1321952414,
				"element": "C" 
			},
			{
				"x": -1.1851297206,
				"y": 0.462810378,
				"z": 0.0821424914,
				"element": "C" 
			},
			{
				"x": -1.8383457824,
				"y": 0.8287414037,
				"z": 1.2611066745,
				"element": "C" 
			},
			{
				"x": -2.6664456753,
				"y": 1.9469424096,
				"z": 1.3258270335,
				"element": "C" 
			},
			{
				"x": -2.8121978105,
				"y": 2.7153459146,
				"z": 0.1557742491,
				"element": "C" 
			},
			{
				"x": -2.1965387778,
				"y": 2.3595160417,
				"z": -1.0245092951,
				"element": "C" 
			},
			{
				"x": -3.3574242833,
				"y": 2.3993415824,
				"z": 2.56410014,
				"element": "C" 
			},
			{
				"x": -3.4844353215,
				"y": 1.4879166742,
				"z": 3.5703732692,
				"element": "O" 
			},
			{
				"x": -3.7986501554,
				"y": 3.5172907676,
				"z": 2.7094032457,
				"element": "O" 
			},
			{
				"x": -0.2461180128,
				"y": -1.0634976734,
				"z": 0.1705067508,
				"element": "S" 
			},
			{
				"x": 0.6555556409,
				"y": -1.1163379092,
				"z": -1.0047042335,
				"element": "O" 
			},
			{
				"x": -1.1392077924,
				"y": -2.2014175306,
				"z": 0.4135687339,
				"element": "O" 
			},
			{
				"x": 0.6442474257,
				"y": -0.8098505547,
				"z": 1.5828431409,
				"element": "N" 
			},
			{
				"x": 1.2335876208,
				"y": -1.9570299911,
				"z": 2.3639470541,
				"element": "C" 
			},
			{
				"x": 2.26994389,
				"y": -1.2935587897,
				"z": 3.2868731978,
				"element": "C" 
			},
			{
				"x": 1.9233917293,
				"y": -2.9970426158,
				"z": 1.4622912616,
				"element": "C" 
			},
			{
				"x": 0.131168812,
				"y": -2.6092502476,
				"z": 3.2124294628,
				"element": "C" 
			},
			{
				"x": -2.6534320921,
				"y": 0.4242633833,
				"z": -4.2147428601,
				"element": "H" 
			},
			{
				"x": -2.9338478963,
				"y": 2.0723027211,
				"z": -3.6441780941,
				"element": "H" 
			},
			{
				"x": -2.2368302197,
				"y": 1.8083057549,
				"z": -5.2429733316,
				"element": "H" 
			},
			{
				"x": 0.0803221539,
				"y": 0.8968855576,
				"z": -5.5497784981,
				"element": "H" 
			},
			{
				"x": 1.0861869012,
				"y": 0.485975479,
				"z": -4.1509489047,
				"element": "H" 
			},
			{
				"x": -0.3412672137,
				"y": -0.4961187961,
				"z": -4.5386024779,
				"element": "H" 
			},
			{
				"x": -0.7588554123,
				"y": 3.5695991539,
				"z": -3.0470699101,
				"element": "H" 
			},
			{
				"x": 0.8273028509,
				"y": 2.8255014063,
				"z": -3.2737114754,
				"element": "H" 
			},
			{
				"x": -0.1716914613,
				"y": 3.2418945408,
				"z": -4.6782891296,
				"element": "H" 
			},
			{
				"x": -0.1434420143,
				"y": 0.0355809921,
				"z": -2.2019055814,
				"element": "H" 
			},
			{
				"x": -1.6306564602,
				"y": 0.2354075287,
				"z": 2.1461949182,
				"element": "H" 
			},
			{
				"x": -3.4295475072,
				"y": 3.6064400194,
				"z": 0.2027015149,
				"element": "H" 
			},
			{
				"x": -2.3517457844,
				"y": 2.9792051345,
				"z": -1.8949552876,
				"element": "H" 
			},
			{
				"x": -3.2739365553,
				"y": 0.6012795255,
				"z": 3.2467887605,
				"element": "H" 
			},
			{
				"x": 1.3519199419,
				"y": -0.1101595196,
				"z": 1.3651544479,
				"element": "H" 
			},
			{
				"x": 1.8056492711,
				"y": -0.5213609052,
				"z": 3.9077842574,
				"element": "H" 
			},
			{
				"x": 2.7121624423,
				"y": -2.0448091565,
				"z": 3.9472146584,
				"element": "H" 
			},
			{
				"x": 3.0839752025,
				"y": -0.8373274089,
				"z": 2.7110180802,
				"element": "H" 
			},
			{
				"x": 2.4104738644,
				"y": -3.7587044417,
				"z": 2.0798906986,
				"element": "H" 
			},
			{
				"x": 1.2012838031,
				"y": -3.4987115238,
				"z": 0.8139171076,
				"element": "H" 
			},
			{
				"x": 2.6850265665,
				"y": -2.5294484923,
				"z": 0.8308745311,
				"element": "H" 
			},
			{
				"x": -0.3347780582,
				"y": -1.8674660524,
				"z": 3.8687580083,
				"element": "H" 
			},
			{
				"x": 0.5661929455,
				"y": -3.3940451886,
				"z": 3.8397041102,
				"element": "H" 
			},
			{
				"x": -0.6398960458,
				"y": -3.0541588683,
				"z": 2.5823789988,
				"element": "H" 
			}
		],
		 "valence_orbital": [ 
			{
				"type": "occ",
				"energy": -0.3015,
				"method": "rhf"
			},
			{
				"type": "occ",
				"energy": -0.28389,
				"method": "rhf"
			},
			{
				"type": "occ",
				"energy": -0.26682,
				"method": "rhf"
			},
			{
				"type": "occ",
				"energy": -0.2649,
				"method": "rhf"
			},
			{
				"type": "occ",
				"energy": -0.21748,
				"method": "rhf"
			},
			{
				"type": "unocc",
				"energy": -0.04178,
				"method": "rhf"
			},
			{
				"type": "unocc",
				"energy": -0.03782,
				"method": "rhf"
			},
			{
				"type": "unocc",
				"energy": 0.04279,
				"method": "rhf"
			},
			{
				"type": "unocc",
				"energy": 0.04438,
				"method": "rhf"
			},
			{
				"type": "unocc",
				"energy": 0.05876,
				"method": "rhf"
			}
		],
		"cosmo_sigma_profile": { 
			"-0.025": 0.0,
			"-0.024": 0.0,
			"-0.023": 0.0,
			"-0.022": 0.0,
			"-0.021": 0.0,
			"-0.02": 0.0,
			"-0.019": 0.05908089945,
			"-0.018": 0.615620338863,
			"-0.017": 1.25061688325,
			"-0.016": 0.704050243678,
			"-0.015": 1.23488116483,
			"-0.014": 1.76027088316,
			"-0.013": 1.40150110281,
			"-0.012": 2.27579595427,
			"-0.011": 2.38468412318,
			"-0.01": 2.33370179338,
			"-0.009": 1.84848765369,
			"-0.008": 2.41514236803,
			"-0.007": 4.77895644657,
			"-0.006": 7.11138938845,
			"-0.005": 8.44359618795,
			"-0.004": 31.6270885489,
			"-0.003": 41.7218615109,
			"-0.002": 36.3439030255,
			"-0.001": 36.5769042427,
			"0.0": 51.549064799,
			"0.001": 34.551738665,
			"0.002": 19.9584143931,
			"0.003": 14.4453460304,
			"0.004": 6.52378756537,
			"0.005": 5.86762734416,
			"0.006": 4.6573069427,
			"0.007": 5.16505814719,
			"0.008": 6.62645419495,
			"0.009": 6.46334608032,
			"0.01": 8.84926877885,
			"0.011": 11.3246680717,
			"0.012": 7.7088710235,
			"0.013": 2.79811781524,
			"0.014": 0.410942988924,
			"0.015": 0.0,
			"0.016": 0.0,
			"0.017": 0.0,
			"0.018": 0.0,
			"0.019": 0.0,
			"0.02": 0.0,
			"0.021": 0.0,
			"0.022": 0.0,
			"0.023": 0.0,
			"0.024": 0.0,
			"0.025": 0.0
		}
	}
}
