{
	 "smiles": "CN(N(O)O)C1=C(F)C(F)=C(C#N)C(F)=C1F", 
	 "Tm": 326.15, 
	 "num_atms": 22, 
	 "gaussian": { 
		 "optdone": 1, 
		 "sigma_profile": "yes", 
		 "theory": "DFT", 
		 "functional": "B3LYP", 
		 "basiset": "6-31G**", 
		 "properties": { 
			 "R2extent": 4392.7211, 
			 "electric_dipole_moment_norm": 5.10020382828, 
			 "electric_quadrupole_moment_norm": 23.8413734873, 
			 "total_energy": -1021.7103748, 
			 "HOMO_LUMO_gap": 0.17597, 
			 "cosmo_polarized_energy": -13.9, 
			 "cosmo_cavitation_energy": 30.28, 
			 "cosmo_dispersion_energy": -20.54, 
			 "cosmo_repulsion_energy": 1.53, 
			 "cosmo_total_nonelectrostatic_energy": 11.27, 
			 "SMD_solvation_energy": 9.99 
		},
		"coords": [
			{
				"x": -1.8655866033,
				"y": 1.4573856908,
				"z": -0.2611414162,
				"element": "C" 
			},
			{
				"x": -0.6356745054,
				"y": 0.8963893619,
				"z": 0.3051802255,
				"element": "N" 
			},
			{
				"x": -0.3995763546,
				"y": 1.0608862571,
				"z": 1.6762956569,
				"element": "N" 
			},
			{
				"x": -1.618363756,
				"y": 0.7055112603,
				"z": 2.3247219438,
				"element": "O" 
			},
			{
				"x": -0.2983691634,
				"y": 2.4742697391,
				"z": 1.9302775641,
				"element": "O" 
			},
			{
				"x": 0.0412561838,
				"y": -0.1946179614,
				"z": -0.2351464505,
				"element": "C" 
			},
			{
				"x": -0.5694378769,
				"y": -1.1653752797,
				"z": -1.0480330638,
				"element": "C" 
			},
			{
				"x": -1.8919554882,
				"y": -1.1245574346,
				"z": -1.2812019319,
				"element": "F" 
			},
			{
				"x": 0.1608499748,
				"y": -2.1997167794,
				"z": -1.6212621183,
				"element": "C" 
			},
			{
				"x": -0.4758419255,
				"y": -3.0935532327,
				"z": -2.3802992697,
				"element": "F" 
			},
			{
				"x": 1.5342714469,
				"y": -2.3403133099,
				"z": -1.3846835704,
				"element": "C" 
			},
			{
				"x": 2.2774516181,
				"y": -3.4136915877,
				"z": -1.9538081987,
				"element": "C" 
			},
			{
				"x": 2.8850243935,
				"y": -4.2894583883,
				"z": -2.4183427198,
				"element": "N" 
			},
			{
				"x": 2.1511158018,
				"y": -1.3804596966,
				"z": -0.5651919678,
				"element": "C" 
			},
			{
				"x": 3.4635509848,
				"y": -1.4567372089,
				"z": -0.3334202687,
				"element": "F" 
			},
			{
				"x": 1.4308426931,
				"y": -0.3278847123,
				"z": -0.0260777472,
				"element": "C" 
			},
			{
				"x": 2.0929577239,
				"y": 0.5973467238,
				"z": 0.6859476302,
				"element": "F" 
			},
			{
				"x": -2.7550020501,
				"y": 0.8749002163,
				"z": -0.012539158,
				"element": "H" 
			},
			{
				"x": -1.9624994618,
				"y": 2.4677993047,
				"z": 0.1380177479,
				"element": "H" 
			},
			{
				"x": -1.7538064342,
				"y": 1.5132657238,
				"z": -1.3446775561,
				"element": "H" 
			},
			{
				"x": -1.3300434478,
				"y": 0.55452347,
				"z": 3.2374335799,
				"element": "H" 
			},
			{
				"x": 0.6638362465,
				"y": 2.5974878439,
				"z": 1.9103510889,
				"element": "H" 
			}
		],
		 "valence_orbital": [ 
			{
				"type": "occ",
				"energy": -0.33971,
				"method": "rhf"
			},
			{
				"type": "occ",
				"energy": -0.3078,
				"method": "rhf"
			},
			{
				"type": "occ",
				"energy": -0.27083,
				"method": "rhf"
			},
			{
				"type": "occ",
				"energy": -0.26752,
				"method": "rhf"
			},
			{
				"type": "occ",
				"energy": -0.24484,
				"method": "rhf"
			},
			{
				"type": "unocc",
				"energy": -0.06887,
				"method": "rhf"
			},
			{
				"type": "unocc",
				"energy": -0.0262,
				"method": "rhf"
			},
			{
				"type": "unocc",
				"energy": 0.01458,
				"method": "rhf"
			},
			{
				"type": "unocc",
				"energy": 0.01791,
				"method": "rhf"
			},
			{
				"type": "unocc",
				"energy": 0.05153,
				"method": "rhf"
			}
		],
		"cosmo_sigma_profile": { 
			"-0.025": 0.0,
			"-0.024": 0.0,
			"-0.023": 0.0,
			"-0.022": 0.0,
			"-0.021": 0.0,
			"-0.02": 0.0,
			"-0.019": 0.0,
			"-0.018": 0.564430988147,
			"-0.017": 0.881764579874,
			"-0.016": 1.72077388059,
			"-0.015": 1.74096352337,
			"-0.014": 1.08827462307,
			"-0.013": 1.58943336379,
			"-0.012": 1.43833011631,
			"-0.011": 0.720943946126,
			"-0.01": 1.96520965718,
			"-0.009": 1.33609219386,
			"-0.008": 1.43204567186,
			"-0.007": 4.05382733484,
			"-0.006": 4.96974951097,
			"-0.005": 10.5773458208,
			"-0.004": 25.5258782397,
			"-0.003": 20.7660607961,
			"-0.002": 16.6739182198,
			"-0.001": 12.8814604932,
			"0.0": 13.7788255046,
			"0.001": 17.9318628065,
			"0.002": 36.9777340482,
			"0.003": 15.7564240738,
			"0.004": 7.61020434993,
			"0.005": 5.88465733528,
			"0.006": 5.98745239061,
			"0.007": 6.5351634388,
			"0.008": 6.77517190658,
			"0.009": 5.7256208786,
			"0.01": 4.70522931678,
			"0.011": 3.927270555,
			"0.012": 2.14777337594,
			"0.013": 0.0889057197747,
			"0.014": 0.0,
			"0.015": 0.0,
			"0.016": 0.0,
			"0.017": 0.0,
			"0.018": 0.0,
			"0.019": 0.0,
			"0.02": 0.0,
			"0.021": 0.0,
			"0.022": 0.0,
			"0.023": 0.0,
			"0.024": 0.0,
			"0.025": 0.0
		}
	}
}
