{
	 "smiles": "CCOC(=O)CCS(=O)(=O)C1=CC=C(F)C=C1", 
	 "Tm": 312.15, 
	 "num_atms": 30, 
	 "gaussian": { 
		 "optdone": 1, 
		 "sigma_profile": "yes", 
		 "theory": "DFT", 
		 "functional": "B3LYP", 
		 "basiset": "6-31G**", 
		 "properties": { 
			 "R2extent": 6464.6642, 
			 "electric_dipole_moment_norm": 5.08606912458, 
			 "electric_quadrupole_moment_norm": 24.6024799463, 
			 "total_energy": -1225.87481942, 
			 "HOMO_LUMO_gap": 0.22966, 
			 "cosmo_polarized_energy": -18.89, 
			 "cosmo_cavitation_energy": 36.05, 
			 "cosmo_dispersion_energy": -25.2, 
			 "cosmo_repulsion_energy": 1.92, 
			 "cosmo_total_nonelectrostatic_energy": 12.77, 
			 "SMD_solvation_energy": 6.81 
		},
		"coords": [
			{
				"x": -0.8144744824,
				"y": -4.4356722634,
				"z": 1.0559378861,
				"element": "C" 
			},
			{
				"x": -1.4865179046,
				"y": -3.071534537,
				"z": 1.0766892155,
				"element": "C" 
			},
			{
				"x": -0.5553290604,
				"y": -2.0168901342,
				"z": 0.7191395133,
				"element": "O" 
			},
			{
				"x": 0.1973325603,
				"y": -1.5232226169,
				"z": 1.7183201505,
				"element": "C" 
			},
			{
				"x": 0.1750681893,
				"y": -1.9143718843,
				"z": 2.8650473246,
				"element": "O" 
			},
			{
				"x": 1.1349816416,
				"y": -0.4339296674,
				"z": 1.2160599146,
				"element": "C" 
			},
			{
				"x": 1.2410458717,
				"y": 0.7242852052,
				"z": 2.2053892198,
				"element": "C" 
			},
			{
				"x": -0.2137201361,
				"y": 1.8260076444,
				"z": 2.1950413037,
				"element": "S" 
			},
			{
				"x": -0.0013550622,
				"y": 2.8166910324,
				"z": 3.261790758,
				"element": "O" 
			},
			{
				"x": -1.4188637565,
				"y": 0.9798786617,
				"z": 2.1524001614,
				"element": "O" 
			},
			{
				"x": -0.1123837616,
				"y": 2.6885891765,
				"z": 0.6182051629,
				"element": "C" 
			},
			{
				"x": 0.6437789314,
				"y": 3.8607535499,
				"z": 0.5268201692,
				"element": "C" 
			},
			{
				"x": 0.7190310114,
				"y": 4.5340322411,
				"z": -0.6901918576,
				"element": "C" 
			},
			{
				"x": 0.0281279614,
				"y": 4.0164114493,
				"z": -1.7833204287,
				"element": "C" 
			},
			{
				"x": 0.0997139533,
				"y": 4.6651063415,
				"z": -2.9586137457,
				"element": "F" 
			},
			{
				"x": -0.73999585,
				"y": 2.8583291799,
				"z": -1.7029895622,
				"element": "C" 
			},
			{
				"x": -0.8124571556,
				"y": 2.1878277891,
				"z": -0.4831024944,
				"element": "C" 
			},
			{
				"x": -1.5568390372,
				"y": -5.2165317934,
				"z": 1.2516578005,
				"element": "H" 
			},
			{
				"x": -0.043392654,
				"y": -4.4965910584,
				"z": 1.8276956471,
				"element": "H" 
			},
			{
				"x": -0.3591706296,
				"y": -4.6330019057,
				"z": 0.0807672106,
				"element": "H" 
			},
			{
				"x": -2.27442246,
				"y": -2.999657629,
				"z": 0.3236120867,
				"element": "H" 
			},
			{
				"x": -1.9030125323,
				"y": -2.846977672,
				"z": 2.0609339917,
				"element": "H" 
			},
			{
				"x": 2.1277923958,
				"y": -0.891179421,
				"z": 1.1216661771,
				"element": "H" 
			},
			{
				"x": 0.8403322868,
				"y": -0.1027277025,
				"z": 0.2178669901,
				"element": "H" 
			},
			{
				"x": 2.1087291502,
				"y": 1.3608950367,
				"z": 2.017288514,
				"element": "H" 
			},
			{
				"x": 1.2859839477,
				"y": 0.3492970498,
				"z": 3.2320188688,
				"element": "H" 
			},
			{
				"x": 1.1448521143,
				"y": 4.249674435,
				"z": 1.4069560283,
				"element": "H" 
			},
			{
				"x": 1.2891405434,
				"y": 5.4496489343,
				"z": -0.8016470059,
				"element": "H" 
			},
			{
				"x": -1.2713175478,
				"y": 2.5056534337,
				"z": -2.5799697954,
				"element": "H" 
			},
			{
				"x": -1.4190585282,
				"y": 1.295407125,
				"z": -0.3725692047,
				"element": "H" 
			}
		],
		 "valence_orbital": [ 
			{
				"type": "occ",
				"energy": -0.29941,
				"method": "rhf"
			},
			{
				"type": "occ",
				"energy": -0.28883,
				"method": "rhf"
			},
			{
				"type": "occ",
				"energy": -0.28542,
				"method": "rhf"
			},
			{
				"type": "occ",
				"energy": -0.2768,
				"method": "rhf"
			},
			{
				"type": "occ",
				"energy": -0.27188,
				"method": "rhf"
			},
			{
				"type": "unocc",
				"energy": -0.04222,
				"method": "rhf"
			},
			{
				"type": "unocc",
				"energy": -0.03643,
				"method": "rhf"
			},
			{
				"type": "unocc",
				"energy": 0.00728,
				"method": "rhf"
			},
			{
				"type": "unocc",
				"energy": 0.05605,
				"method": "rhf"
			},
			{
				"type": "unocc",
				"energy": 0.0751,
				"method": "rhf"
			}
		],
		"cosmo_sigma_profile": { 
			"-0.025": 0.0,
			"-0.024": 0.0,
			"-0.023": 0.0,
			"-0.022": 0.0,
			"-0.021": 0.0,
			"-0.02": 0.0,
			"-0.019": 0.0,
			"-0.018": 0.0,
			"-0.017": 0.0,
			"-0.016": 0.0,
			"-0.015": 0.0,
			"-0.014": 0.0,
			"-0.013": 0.0,
			"-0.012": 0.0,
			"-0.011": 0.0,
			"-0.01": 0.00110146867693,
			"-0.009": 2.56115273546,
			"-0.008": 11.8619767608,
			"-0.007": 14.0149127159,
			"-0.006": 15.609199145,
			"-0.005": 20.2351099639,
			"-0.004": 24.3705507537,
			"-0.003": 18.8053150565,
			"-0.002": 17.4975691958,
			"-0.001": 22.6650114119,
			"0.0": 25.4566677976,
			"0.001": 21.0830680837,
			"0.002": 13.4011378899,
			"0.003": 12.0980619457,
			"0.004": 12.0128401805,
			"0.005": 5.39564506276,
			"0.006": 5.18982660939,
			"0.007": 5.92194797407,
			"0.008": 5.97264579025,
			"0.009": 5.32770589422,
			"0.01": 6.8997033083,
			"0.011": 10.8816772426,
			"0.012": 8.91734493351,
			"0.013": 0.0764001877568,
			"0.014": 0.0,
			"0.015": 0.0,
			"0.016": 0.0,
			"0.017": 0.0,
			"0.018": 0.0,
			"0.019": 0.0,
			"0.02": 0.0,
			"0.021": 0.0,
			"0.022": 0.0,
			"0.023": 0.0,
			"0.024": 0.0,
			"0.025": 0.0
		}
	}
}
