{
	 "smiles": "NN=C1NC=C(F)C=N1", 
	 "Tm": 393.15, 
	 "num_atms": 14, 
	 "gaussian": { 
		 "optdone": 1, 
		 "sigma_profile": "yes", 
		 "theory": "DFT", 
		 "functional": "B3LYP", 
		 "basiset": "6-31G**", 
		 "properties": { 
			 "R2extent": 1508.2119, 
			 "electric_dipole_moment_norm": 2.71963118639, 
			 "electric_quadrupole_moment_norm": 11.3154825827, 
			 "total_energy": -474.209404807, 
			 "HOMO_LUMO_gap": 0.11111, 
			 "cosmo_polarized_energy": -14.61, 
			 "cosmo_cavitation_energy": 19.05, 
			 "cosmo_dispersion_energy": -14.48, 
			 "cosmo_repulsion_energy": 1.18, 
			 "cosmo_total_nonelectrostatic_energy": 5.76, 
			 "SMD_solvation_energy": 2.79 
		},
		"coords": [
			{
				"x": 1.8012163262,
				"y": 2.5718062802,
				"z": 0.1823810237,
				"element": "N" 
			},
			{
				"x": 2.3416758053,
				"y": 1.282522038,
				"z": 0.2149156434,
				"element": "N" 
			},
			{
				"x": 1.5524024138,
				"y": 0.3185021222,
				"z": -0.0929370935,
				"element": "C" 
			},
			{
				"x": 2.1176718935,
				"y": -0.9836150486,
				"z": -0.1713408512,
				"element": "N" 
			},
			{
				"x": 1.3879348205,
				"y": -2.0758004571,
				"z": -0.5123241818,
				"element": "C" 
			},
			{
				"x": 0.062491056,
				"y": -1.9204817568,
				"z": -0.7716050884,
				"element": "C" 
			},
			{
				"x": -0.7186950136,
				"y": -2.9675734266,
				"z": -1.1161573969,
				"element": "F" 
			},
			{
				"x": -0.5047537363,
				"y": -0.6121769531,
				"z": -0.6629754011,
				"element": "C" 
			},
			{
				"x": 0.1839361098,
				"y": 0.4432889388,
				"z": -0.3465780961,
				"element": "N" 
			},
			{
				"x": 0.7901230548,
				"y": 2.5639647905,
				"z": 0.322306668,
				"element": "H" 
			},
			{
				"x": 2.2512605541,
				"y": 3.1091377779,
				"z": 0.9153309028,
				"element": "H" 
			},
			{
				"x": 3.107876423,
				"y": -1.0509426998,
				"z": 0.0167341908,
				"element": "H" 
			},
			{
				"x": 1.89358801,
				"y": -3.0329058635,
				"z": -0.5622615054,
				"element": "H" 
			},
			{
				"x": -1.5728277172,
				"y": -0.4920257422,
				"z": -0.8503888144,
				"element": "H" 
			}
		],
		 "valence_orbital": [ 
			{
				"type": "occ",
				"energy": -0.33755,
				"method": "rhf"
			},
			{
				"type": "occ",
				"energy": -0.28195,
				"method": "rhf"
			},
			{
				"type": "occ",
				"energy": -0.26594,
				"method": "rhf"
			},
			{
				"type": "occ",
				"energy": -0.26423,
				"method": "rhf"
			},
			{
				"type": "occ",
				"energy": -0.17155,
				"method": "rhf"
			},
			{
				"type": "unocc",
				"energy": -0.06044,
				"method": "rhf"
			},
			{
				"type": "unocc",
				"energy": 0.02678,
				"method": "rhf"
			},
			{
				"type": "unocc",
				"energy": 0.05832,
				"method": "rhf"
			},
			{
				"type": "unocc",
				"energy": 0.10851,
				"method": "rhf"
			},
			{
				"type": "unocc",
				"energy": 0.12113,
				"method": "rhf"
			}
		],
		"cosmo_sigma_profile": { 
			"-0.025": 0.0,
			"-0.024": 0.0,
			"-0.023": 0.0,
			"-0.022": 0.0,
			"-0.021": 0.0,
			"-0.02": 0.0,
			"-0.019": 0.0,
			"-0.018": 0.0,
			"-0.017": 0.552836412762,
			"-0.016": 1.36188508366,
			"-0.015": 1.17642320667,
			"-0.014": 0.889138005536,
			"-0.013": 1.25341178192,
			"-0.012": 1.78955903664,
			"-0.011": 4.05408651679,
			"-0.01": 4.08559428351,
			"-0.009": 2.80616928007,
			"-0.008": 6.26409149283,
			"-0.007": 5.49237738922,
			"-0.006": 5.11877200782,
			"-0.005": 5.67553246616,
			"-0.004": 5.46305406667,
			"-0.003": 6.44872109296,
			"-0.002": 9.70626534756,
			"-0.001": 12.6021126827,
			"0.0": 11.2046766583,
			"0.001": 5.46140550693,
			"0.002": 6.62288576449,
			"0.003": 7.61614432848,
			"0.004": 12.9524258434,
			"0.005": 4.06952870145,
			"0.006": 2.60955536426,
			"0.007": 4.16786084542,
			"0.008": 3.83825777561,
			"0.009": 2.91133414718,
			"0.01": 2.38714584254,
			"0.011": 2.20011678616,
			"0.012": 1.9550913391,
			"0.013": 2.27821210884,
			"0.014": 2.43280842675,
			"0.015": 2.32758424424,
			"0.016": 1.23950482835,
			"0.017": 0.92462884641,
			"0.018": 0.402111623632,
			"0.019": 0.0,
			"0.02": 0.0,
			"0.021": 0.0,
			"0.022": 0.0,
			"0.023": 0.0,
			"0.024": 0.0,
			"0.025": 0.0
		}
	}
}
