{
	 "smiles": "CCOC(=O)C=C[C@@H]1[C@H]([N@@]1C(=O)C1=CC=CC=C1)C1=CC=CC=C1", 
	 "Tm": 391.0, 
	 "num_atms": 43, 
	 "gaussian": { 
		 "optdone": 1, 
		 "sigma_profile": "yes", 
		 "theory": "DFT", 
		 "functional": "B3LYP", 
		 "basiset": "6-31G**", 
		 "properties": { 
			 "R2extent": 12129.7986, 
			 "electric_dipole_moment_norm": 4.51170209566, 
			 "electric_quadrupole_moment_norm": 22.9913251114, 
			 "total_energy": -1053.97261035, 
			 "HOMO_LUMO_gap": 0.19011, 
			 "cosmo_polarized_energy": -15.62, 
			 "cosmo_cavitation_energy": 48.33, 
			 "cosmo_dispersion_energy": -32.5, 
			 "cosmo_repulsion_energy": 2.53, 
			 "cosmo_total_nonelectrostatic_energy": 18.36, 
			 "SMD_solvation_energy": 7.27 
		},
		"coords": [
			{
				"x": 3.0385841098,
				"y": -1.2605901103,
				"z": 5.8872083317,
				"element": "C" 
			},
			{
				"x": 1.8374853102,
				"y": -0.3285284162,
				"z": 5.9525142728,
				"element": "C" 
			},
			{
				"x": 1.208530896,
				"y": -0.1882476758,
				"z": 4.657179405,
				"element": "O" 
			},
			{
				"x": 1.7329651243,
				"y": 0.7492253775,
				"z": 3.8319901988,
				"element": "C" 
			},
			{
				"x": 2.6769964317,
				"y": 1.4597866041,
				"z": 4.119831644,
				"element": "O" 
			},
			{
				"x": 0.9907374836,
				"y": 0.7812850474,
				"z": 2.5478411753,
				"element": "C" 
			},
			{
				"x": 1.3378881457,
				"y": 1.6371737389,
				"z": 1.5809964203,
				"element": "C" 
			},
			{
				"x": 0.6447063491,
				"y": 1.7613770877,
				"z": 0.2685553787,
				"element": "C" 
			},
			{
				"x": 0.1657210635,
				"y": 0.5688269176,
				"z": -0.5129939238,
				"element": "C" 
			},
			{
				"x": 1.3738642333,
				"y": 1.3349962744,
				"z": -0.9084213105,
				"element": "N" 
			},
			{
				"x": 1.4741543707,
				"y": 2.1735209541,
				"z": -2.0341442127,
				"element": "C" 
			},
			{
				"x": 1.4073766573,
				"y": 3.3912420668,
				"z": -1.9338396846,
				"element": "O" 
			},
			{
				"x": 1.7444991327,
				"y": 1.4826362538,
				"z": -3.3283619072,
				"element": "C" 
			},
			{
				"x": 1.6866021812,
				"y": 2.2444739951,
				"z": -4.5045476825,
				"element": "C" 
			},
			{
				"x": 1.929082109,
				"y": 1.6476157949,
				"z": -5.738577712,
				"element": "C" 
			},
			{
				"x": 2.237651122,
				"y": 0.2858768298,
				"z": -5.8073474498,
				"element": "C" 
			},
			{
				"x": 2.3062361799,
				"y": -0.4758116844,
				"z": -4.6385143056,
				"element": "C" 
			},
			{
				"x": 2.0612122014,
				"y": 0.118761509,
				"z": -3.4015868344,
				"element": "C" 
			},
			{
				"x": -1.0987989216,
				"y": 0.5646183677,
				"z": -1.3105723747,
				"element": "C" 
			},
			{
				"x": -1.742711924,
				"y": -0.6630175691,
				"z": -1.5183992106,
				"element": "C" 
			},
			{
				"x": -2.9384395605,
				"y": -0.7343138225,
				"z": -2.2338293104,
				"element": "C" 
			},
			{
				"x": -3.5056183289,
				"y": 0.4256733348,
				"z": -2.7606655028,
				"element": "C" 
			},
			{
				"x": -2.8689889094,
				"y": 1.6540011038,
				"z": -2.5659324871,
				"element": "C" 
			},
			{
				"x": -1.6779200253,
				"y": 1.727091376,
				"z": -1.8460208241,
				"element": "C" 
			},
			{
				"x": 3.4488029069,
				"y": -1.4088295673,
				"z": 6.8917446053,
				"element": "H" 
			},
			{
				"x": 2.7529244653,
				"y": -2.2372074047,
				"z": 5.4852466297,
				"element": "H" 
			},
			{
				"x": 3.8217185693,
				"y": -0.8324803138,
				"z": 5.2569392437,
				"element": "H" 
			},
			{
				"x": 1.0510394434,
				"y": -0.73298456,
				"z": 6.5943987704,
				"element": "H" 
			},
			{
				"x": 2.1278734033,
				"y": 0.6615232836,
				"z": 6.3122897687,
				"element": "H" 
			},
			{
				"x": 0.1624804614,
				"y": 0.0876253709,
				"z": 2.4380863101,
				"element": "H" 
			},
			{
				"x": 2.1737834322,
				"y": 2.3122199471,
				"z": 1.7586345223,
				"element": "H" 
			},
			{
				"x": 0.0797501222,
				"y": 2.6870110632,
				"z": 0.1422379467,
				"element": "H" 
			},
			{
				"x": 0.4190796196,
				"y": -0.4084072319,
				"z": -0.1046862829,
				"element": "H" 
			},
			{
				"x": 1.451393238,
				"y": 3.3003939498,
				"z": -4.4242194398,
				"element": "H" 
			},
			{
				"x": 1.8796086164,
				"y": 2.2409779411,
				"z": -6.6469178443,
				"element": "H" 
			},
			{
				"x": 2.4288659133,
				"y": -0.1796714878,
				"z": -6.7701538556,
				"element": "H" 
			},
			{
				"x": 2.5565932639,
				"y": -1.5313684687,
				"z": -4.6908144592,
				"element": "H" 
			},
			{
				"x": 2.1333274929,
				"y": -0.4641888367,
				"z": -2.4900639275,
				"element": "H" 
			},
			{
				"x": -1.3028129156,
				"y": -1.5709353911,
				"z": -1.1132331426,
				"element": "H" 
			},
			{
				"x": -3.4226367063,
				"y": -1.695507117,
				"z": -2.3801080061,
				"element": "H" 
			},
			{
				"x": -4.435407727,
				"y": 0.3750991277,
				"z": -3.3195921978,
				"element": "H" 
			},
			{
				"x": -3.3027972319,
				"y": 2.562125309,
				"z": -2.9743176574,
				"element": "H" 
			},
			{
				"x": -1.197801799,
				"y": 2.6912310316,
				"z": -1.7131330774,
				"element": "H" 
			}
		],
		 "valence_orbital": [ 
			{
				"type": "occ",
				"energy": -0.25881,
				"method": "rhf"
			},
			{
				"type": "occ",
				"energy": -0.25809,
				"method": "rhf"
			},
			{
				"type": "occ",
				"energy": -0.25557,
				"method": "rhf"
			},
			{
				"type": "occ",
				"energy": -0.25314,
				"method": "rhf"
			},
			{
				"type": "occ",
				"energy": -0.24199,
				"method": "rhf"
			},
			{
				"type": "unocc",
				"energy": -0.05188,
				"method": "rhf"
			},
			{
				"type": "unocc",
				"energy": -0.0456,
				"method": "rhf"
			},
			{
				"type": "unocc",
				"energy": -0.01739,
				"method": "rhf"
			},
			{
				"type": "unocc",
				"energy": -0.00919,
				"method": "rhf"
			},
			{
				"type": "unocc",
				"energy": -0.00484,
				"method": "rhf"
			}
		],
		"cosmo_sigma_profile": { 
			"-0.025": 0.0,
			"-0.024": 0.0,
			"-0.023": 0.0,
			"-0.022": 0.0,
			"-0.021": 0.0,
			"-0.02": 0.0,
			"-0.019": 0.0,
			"-0.018": 0.0,
			"-0.017": 0.0,
			"-0.016": 0.0,
			"-0.015": 0.0,
			"-0.014": 0.0,
			"-0.013": 0.0,
			"-0.012": 0.0,
			"-0.011": 0.0,
			"-0.01": 0.0,
			"-0.009": 0.0,
			"-0.008": 0.858829015233,
			"-0.007": 8.46817224811,
			"-0.006": 23.9546708617,
			"-0.005": 30.4821933854,
			"-0.004": 37.0436460632,
			"-0.003": 32.1820447487,
			"-0.002": 30.1669272682,
			"-0.001": 30.3777932448,
			"0.0": 30.2810181651,
			"0.001": 27.6957955492,
			"0.002": 25.616262524,
			"0.003": 26.6857256422,
			"0.004": 27.3452510932,
			"0.005": 17.0451913999,
			"0.006": 6.90493610391,
			"0.007": 4.14140967256,
			"0.008": 3.81121772859,
			"0.009": 4.32169800148,
			"0.01": 3.91662445218,
			"0.011": 4.60527536467,
			"0.012": 8.30767616713,
			"0.013": 1.26764689852,
			"0.014": 0.0,
			"0.015": 0.0,
			"0.016": 0.0,
			"0.017": 0.0,
			"0.018": 0.0,
			"0.019": 0.0,
			"0.02": 0.0,
			"0.021": 0.0,
			"0.022": 0.0,
			"0.023": 0.0,
			"0.024": 0.0,
			"0.025": 0.0
		}
	}
}
