{
	 "smiles": "OC1=C(Cl)C(F)=NC(F)=C1Cl", 
	 "Tm": 376.15, 
	 "num_atms": 12, 
	 "gaussian": { 
		 "optdone": 1, 
		 "sigma_profile": "yes", 
		 "theory": "DFT", 
		 "functional": "B3LYP", 
		 "basiset": "6-31G**", 
		 "properties": { 
			 "R2extent": 3355.2128, 
			 "electric_dipole_moment_norm": 2.78383556447, 
			 "electric_quadrupole_moment_norm": 7.6117173936, 
			 "total_energy": -1441.15359149, 
			 "HOMO_LUMO_gap": 0.22189, 
			 "cosmo_polarized_energy": -7.54, 
			 "cosmo_cavitation_energy": 21.61, 
			 "cosmo_dispersion_energy": -16.43, 
			 "cosmo_repulsion_energy": 1.28, 
			 "cosmo_total_nonelectrostatic_energy": 6.46, 
			 "SMD_solvation_energy": 3.09 
		},
		"coords": [
			{
				"x": -1.4802878442,
				"y": -2.0826988392,
				"z": -2.6985951589,
				"element": "O" 
			},
			{
				"x": -1.3662001665,
				"y": -1.4302015012,
				"z": -1.5373393992,
				"element": "C" 
			},
			{
				"x": -2.5326145253,
				"y": -1.0216433541,
				"z": -0.8659045287,
				"element": "C" 
			},
			{
				"x": -4.1007387781,
				"y": -1.3525565013,
				"z": -1.5227532542,
				"element": "Cl" 
			},
			{
				"x": -2.3719610352,
				"y": -0.3440658159,
				"z": 0.3418928822,
				"element": "C" 
			},
			{
				"x": -3.4559558158,
				"y": 0.0551953146,
				"z": 1.0004059337,
				"element": "F" 
			},
			{
				"x": -1.2106385275,
				"y": -0.0590687395,
				"z": 0.8991457634,
				"element": "N" 
			},
			{
				"x": -0.123492188,
				"y": -0.4439965949,
				"z": 0.2660266458,
				"element": "C" 
			},
			{
				"x": 1.0420952121,
				"y": -0.1509383564,
				"z": 0.8378448351,
				"element": "F" 
			},
			{
				"x": -0.125308865,
				"y": -1.128037815,
				"z": -0.946132103,
				"element": "C" 
			},
			{
				"x": 1.3517643302,
				"y": -1.6119575113,
				"z": -1.737211359,
				"element": "Cl" 
			},
			{
				"x": -0.5940617968,
				"y": -2.2946302858,
				"z": -3.0342802572,
				"element": "H" 
			}
		],
		 "valence_orbital": [ 
			{
				"type": "occ",
				"energy": -0.36134,
				"method": "rhf"
			},
			{
				"type": "occ",
				"energy": -0.33974,
				"method": "rhf"
			},
			{
				"type": "occ",
				"energy": -0.31814,
				"method": "rhf"
			},
			{
				"type": "occ",
				"energy": -0.28074,
				"method": "rhf"
			},
			{
				"type": "occ",
				"energy": -0.26468,
				"method": "rhf"
			},
			{
				"type": "unocc",
				"energy": -0.04279,
				"method": "rhf"
			},
			{
				"type": "unocc",
				"energy": -0.03747,
				"method": "rhf"
			},
			{
				"type": "unocc",
				"energy": -0.01707,
				"method": "rhf"
			},
			{
				"type": "unocc",
				"energy": 0.02416,
				"method": "rhf"
			},
			{
				"type": "unocc",
				"energy": 0.0582,
				"method": "rhf"
			}
		],
		"cosmo_sigma_profile": { 
			"-0.025": 0.0,
			"-0.024": 0.0,
			"-0.023": 0.0,
			"-0.022": 0.0,
			"-0.021": 0.0,
			"-0.02": 0.0,
			"-0.019": 0.0,
			"-0.018": 0.0706691086719,
			"-0.017": 0.921329119336,
			"-0.016": 0.728221507991,
			"-0.015": 0.707506689158,
			"-0.014": 0.584380223704,
			"-0.013": 1.14411412738,
			"-0.012": 1.28199885381,
			"-0.011": 0.700848513223,
			"-0.01": 1.2215599079,
			"-0.009": 1.83947341384,
			"-0.008": 0.959173255117,
			"-0.007": 0.875058085828,
			"-0.006": 2.95296666246,
			"-0.005": 5.90252908565,
			"-0.004": 13.7249772715,
			"-0.003": 15.2060900731,
			"-0.002": 12.4364575629,
			"-0.001": 11.4330961158,
			"0.0": 12.7989907797,
			"0.001": 12.1194703895,
			"0.002": 29.0230499268,
			"0.003": 27.1175865275,
			"0.004": 8.51907999236,
			"0.005": 3.82739640734,
			"0.006": 3.76721629029,
			"0.007": 3.86645429189,
			"0.008": 2.53686407817,
			"0.009": 1.44713901411,
			"0.01": 1.19712129977,
			"0.011": 0.893324663593,
			"0.012": 0.0475143675382,
			"0.013": 0.0,
			"0.014": 0.0,
			"0.015": 0.0,
			"0.016": 0.0,
			"0.017": 0.0,
			"0.018": 0.0,
			"0.019": 0.0,
			"0.02": 0.0,
			"0.021": 0.0,
			"0.022": 0.0,
			"0.023": 0.0,
			"0.024": 0.0,
			"0.025": 0.0
		}
	}
}
