{
	 "smiles": "CCCCNC1=C(N)N(CC2=CC=CC=C2)C(=O)NC1=O", 
	 "Tm": 391.15, 
	 "num_atms": 41, 
	 "gaussian": { 
		 "optdone": 1, 
		 "sigma_profile": "yes", 
		 "theory": "DFT", 
		 "functional": "B3LYP", 
		 "basiset": "6-31G**", 
		 "properties": { 
			 "R2extent": 8088.1373, 
			 "electric_dipole_moment_norm": 5.02867027056, 
			 "electric_quadrupole_moment_norm": 11.5770092131, 
			 "total_energy": -953.155657318, 
			 "HOMO_LUMO_gap": 0.18185, 
			 "cosmo_polarized_energy": -17.02, 
			 "cosmo_cavitation_energy": 42.15, 
			 "cosmo_dispersion_energy": -29.71, 
			 "cosmo_repulsion_energy": 2.28, 
			 "cosmo_total_nonelectrostatic_energy": 14.72, 
			 "SMD_solvation_energy": 6.87 
		},
		"coords": [
			{
				"x": -2.6065565831,
				"y": 3.8003316722,
				"z": -0.4242705627,
				"element": "C" 
			},
			{
				"x": -1.1158157238,
				"y": 4.1057649034,
				"z": -0.627567143,
				"element": "C" 
			},
			{
				"x": -0.1684272435,
				"y": 2.8951174042,
				"z": -0.5416212988,
				"element": "C" 
			},
			{
				"x": -0.1581039597,
				"y": 2.1529856351,
				"z": 0.8098019744,
				"element": "C" 
			},
			{
				"x": -1.217265001,
				"y": 1.146831086,
				"z": 1.0594047353,
				"element": "N" 
			},
			{
				"x": -1.0958882376,
				"y": -0.0966518044,
				"z": 0.3706338376,
				"element": "C" 
			},
			{
				"x": -0.5116252998,
				"y": -1.1542224703,
				"z": 1.0409625823,
				"element": "C" 
			},
			{
				"x": -0.1481709401,
				"y": -1.0354597491,
				"z": 2.3583737252,
				"element": "N" 
			},
			{
				"x": -0.317139676,
				"y": -2.3918298193,
				"z": 0.4403303087,
				"element": "N" 
			},
			{
				"x": 0.2430807331,
				"y": -3.5278739419,
				"z": 1.1942495277,
				"element": "C" 
			},
			{
				"x": 1.7459308946,
				"y": -3.455628928,
				"z": 1.3954692899,
				"element": "C" 
			},
			{
				"x": 2.2969772377,
				"y": -3.531917797,
				"z": 2.6804802083,
				"element": "C" 
			},
			{
				"x": 3.6820802063,
				"y": -3.4870477648,
				"z": 2.8659334726,
				"element": "C" 
			},
			{
				"x": 4.5278343105,
				"y": -3.3639550752,
				"z": 1.7644861659,
				"element": "C" 
			},
			{
				"x": 3.9852380183,
				"y": -3.2936653657,
				"z": 0.4774327363,
				"element": "C" 
			},
			{
				"x": 2.6049219283,
				"y": -3.3414097841,
				"z": 0.2925411543,
				"element": "C" 
			},
			{
				"x": -0.7325977596,
				"y": -2.641949442,
				"z": -0.8760848759,
				"element": "C" 
			},
			{
				"x": -0.5288290102,
				"y": -3.7096097967,
				"z": -1.4390793031,
				"element": "O" 
			},
			{
				"x": -1.3962161439,
				"y": -1.5947981991,
				"z": -1.4698361063,
				"element": "N" 
			},
			{
				"x": -1.6323311161,
				"y": -0.3022351073,
				"z": -0.9516219522,
				"element": "C" 
			},
			{
				"x": -2.2476508578,
				"y": 0.5148364108,
				"z": -1.634874167,
				"element": "O" 
			},
			{
				"x": -2.8304111177,
				"y": 3.5462576309,
				"z": 0.6194417782,
				"element": "H" 
			},
			{
				"x": -2.9260061138,
				"y": 2.9643425014,
				"z": -1.0533855179,
				"element": "H" 
			},
			{
				"x": -3.2198546921,
				"y": 4.6741613183,
				"z": -0.6693371799,
				"element": "H" 
			},
			{
				"x": -0.7963129223,
				"y": 4.8638791128,
				"z": 0.1019149372,
				"element": "H" 
			},
			{
				"x": -0.982795461,
				"y": 4.5657052516,
				"z": -1.6151056137,
				"element": "H" 
			},
			{
				"x": 0.852631023,
				"y": 3.2548071264,
				"z": -0.7303063353,
				"element": "H" 
			},
			{
				"x": -0.4064668492,
				"y": 2.1855811622,
				"z": -1.3402033367,
				"element": "H" 
			},
			{
				"x": 0.7959211693,
				"y": 1.6257828104,
				"z": 0.9256765976,
				"element": "H" 
			},
			{
				"x": -0.2078429094,
				"y": 2.8860431187,
				"z": 1.6273158804,
				"element": "H" 
			},
			{
				"x": -2.1335412228,
				"y": 1.5457514917,
				"z": 0.8843022786,
				"element": "H" 
			},
			{
				"x": -0.3188354732,
				"y": -0.0912057674,
				"z": 2.6890627064,
				"element": "H" 
			},
			{
				"x": 0.7295972729,
				"y": -1.4482716183,
				"z": 2.644515718,
				"element": "H" 
			},
			{
				"x": -0.01636643,
				"y": -4.41259704,
				"z": 0.6106487134,
				"element": "H" 
			},
			{
				"x": -0.2705634782,
				"y": -3.5803914711,
				"z": 2.1580589784,
				"element": "H" 
			},
			{
				"x": 1.6402035646,
				"y": -3.6407547969,
				"z": 3.541535214,
				"element": "H" 
			},
			{
				"x": 4.095196009,
				"y": -3.548566459,
				"z": 3.8686121221,
				"element": "H" 
			},
			{
				"x": 5.6041534061,
				"y": -3.3269382419,
				"z": 1.9047203663,
				"element": "H" 
			},
			{
				"x": 4.6410908305,
				"y": -3.2073108026,
				"z": -0.3841080908,
				"element": "H" 
			},
			{
				"x": 2.1836339401,
				"y": -3.3047217849,
				"z": -0.7080153955,
				"element": "H" 
			},
			{
				"x": -1.7248763222,
				"y": -1.7648656089,
				"z": -2.4121881303,
				"element": "H" 
			}
		],
		 "valence_orbital": [ 
			{
				"type": "occ",
				"energy": -0.26561,
				"method": "rhf"
			},
			{
				"type": "occ",
				"energy": -0.2603,
				"method": "rhf"
			},
			{
				"type": "occ",
				"energy": -0.25485,
				"method": "rhf"
			},
			{
				"type": "occ",
				"energy": -0.24391,
				"method": "rhf"
			},
			{
				"type": "occ",
				"energy": -0.20282,
				"method": "rhf"
			},
			{
				"type": "unocc",
				"energy": -0.02097,
				"method": "rhf"
			},
			{
				"type": "unocc",
				"energy": -0.01856,
				"method": "rhf"
			},
			{
				"type": "unocc",
				"energy": -0.01235,
				"method": "rhf"
			},
			{
				"type": "unocc",
				"energy": 0.01884,
				"method": "rhf"
			},
			{
				"type": "unocc",
				"energy": 0.07388,
				"method": "rhf"
			}
		],
		"cosmo_sigma_profile": { 
			"-0.025": 0.0,
			"-0.024": 0.0,
			"-0.023": 0.0,
			"-0.022": 0.0,
			"-0.021": 0.0,
			"-0.02": 0.0,
			"-0.019": 0.0,
			"-0.018": 0.0,
			"-0.017": 0.0,
			"-0.016": 0.0431696329297,
			"-0.015": 0.802291303927,
			"-0.014": 0.71862818924,
			"-0.013": 0.923268538665,
			"-0.012": 1.03216587305,
			"-0.011": 1.33431894887,
			"-0.01": 2.54247612639,
			"-0.009": 2.26464576802,
			"-0.008": 4.11440462414,
			"-0.007": 7.18330971875,
			"-0.006": 13.2467621635,
			"-0.005": 16.3383929919,
			"-0.004": 22.1540306249,
			"-0.003": 27.8970004677,
			"-0.002": 31.4349740876,
			"-0.001": 33.2764202694,
			"0.0": 34.7980188939,
			"0.001": 31.8570335353,
			"0.002": 20.4596803476,
			"0.003": 14.9857386513,
			"0.004": 13.7307021653,
			"0.005": 12.7122393531,
			"0.006": 5.98460487975,
			"0.007": 3.39690297422,
			"0.008": 4.14280839967,
			"0.009": 4.8585805442,
			"0.01": 3.10475303848,
			"0.011": 2.83605263776,
			"0.012": 5.59754486508,
			"0.013": 5.43615523054,
			"0.014": 2.46483812879,
			"0.015": 0.620584025019,
			"0.016": 0.0,
			"0.017": 0.0,
			"0.018": 0.0,
			"0.019": 0.0,
			"0.02": 0.0,
			"0.021": 0.0,
			"0.022": 0.0,
			"0.023": 0.0,
			"0.024": 0.0,
			"0.025": 0.0
		}
	}
}
