{
	 "smiles": "NC1=CC=C(CN2CCN(CC3=CC=CC=C3)CC2)C=C1", 
	 "Tm": 370.15, 
	 "num_atms": 44, 
	 "gaussian": { 
		 "optdone": 1, 
		 "sigma_profile": "yes", 
		 "theory": "DFT", 
		 "functional": "B3LYP", 
		 "basiset": "6-31G**", 
		 "properties": { 
			 "R2extent": 8450.7901, 
			 "electric_dipole_moment_norm": 1.58665007484, 
			 "electric_quadrupole_moment_norm": 11.7218446838, 
			 "total_energy": -864.011629873, 
			 "HOMO_LUMO_gap": 0.19031, 
			 "cosmo_polarized_energy": -12.2, 
			 "cosmo_cavitation_energy": 44.73, 
			 "cosmo_dispersion_energy": -30.5, 
			 "cosmo_repulsion_energy": 2.34, 
			 "cosmo_total_nonelectrostatic_energy": 16.58, 
			 "SMD_solvation_energy": 4.62 
		},
		"coords": [
			{
				"x": -1.763936722,
				"y": -5.9650810851,
				"z": 0.9078243523,
				"element": "N" 
			},
			{
				"x": -1.3241630226,
				"y": -4.8204335102,
				"z": 0.2341126415,
				"element": "C" 
			},
			{
				"x": -0.1869969634,
				"y": -4.8658140589,
				"z": -0.5931796382,
				"element": "C" 
			},
			{
				"x": 0.214333464,
				"y": -3.7432618632,
				"z": -1.3086896167,
				"element": "C" 
			},
			{
				"x": -0.4939154365,
				"y": -2.5353041298,
				"z": -1.2297564273,
				"element": "C" 
			},
			{
				"x": -0.0743679926,
				"y": -1.328737717,
				"z": -2.0454607382,
				"element": "C" 
			},
			{
				"x": 1.3607289169,
				"y": -1.0338884682,
				"z": -1.9134570911,
				"element": "N" 
			},
			{
				"x": 1.7554317836,
				"y": -0.5993849787,
				"z": -0.5772508845,
				"element": "C" 
			},
			{
				"x": 1.2018397702,
				"y": 0.7992481315,
				"z": -0.1949693168,
				"element": "C" 
			},
			{
				"x": 0.9448415388,
				"y": 1.5977752531,
				"z": -1.4012244477,
				"element": "N" 
			},
			{
				"x": 0.724793254,
				"y": 3.0079873634,
				"z": -1.0993576175,
				"element": "C" 
			},
			{
				"x": -0.5555738866,
				"y": 3.2568406137,
				"z": -0.3213472952,
				"element": "C" 
			},
			{
				"x": -1.7703678325,
				"y": 2.7164957632,
				"z": -0.7669844688,
				"element": "C" 
			},
			{
				"x": -2.9561609678,
				"y": 2.970358483,
				"z": -0.0793220574,
				"element": "C" 
			},
			{
				"x": -2.9473407835,
				"y": 3.7735836684,
				"z": 1.0648254798,
				"element": "C" 
			},
			{
				"x": -1.7441972924,
				"y": 4.3158828952,
				"z": 1.516232644,
				"element": "C" 
			},
			{
				"x": -0.5569135302,
				"y": 4.0548771065,
				"z": 0.8271946358,
				"element": "C" 
			},
			{
				"x": 1.9738165412,
				"y": 1.3681207935,
				"z": -2.410123219,
				"element": "C" 
			},
			{
				"x": 1.8911404083,
				"y": -0.0980689428,
				"z": -2.9144179629,
				"element": "C" 
			},
			{
				"x": -1.6178891282,
				"y": -2.4942259346,
				"z": -0.3984669624,
				"element": "C" 
			},
			{
				"x": -2.0343745785,
				"y": -3.6132267822,
				"z": 0.3216254613,
				"element": "C" 
			},
			{
				"x": -1.0425995967,
				"y": -6.6468545372,
				"z": 1.1003290475,
				"element": "H" 
			},
			{
				"x": -2.3304001818,
				"y": -5.7843384864,
				"z": 1.7255458517,
				"element": "H" 
			},
			{
				"x": 0.3771525544,
				"y": -5.7924306439,
				"z": -0.6744031398,
				"element": "H" 
			},
			{
				"x": 1.1029585327,
				"y": -3.7888418067,
				"z": -1.9318574396,
				"element": "H" 
			},
			{
				"x": -0.2517189093,
				"y": -1.5339659562,
				"z": -3.1096095208,
				"element": "H" 
			},
			{
				"x": -0.7148402211,
				"y": -0.4704551173,
				"z": -1.7851081667,
				"element": "H" 
			},
			{
				"x": 2.8521477995,
				"y": -0.5822016002,
				"z": -0.5494706202,
				"element": "H" 
			},
			{
				"x": 1.4322622774,
				"y": -1.3430270352,
				"z": 0.1562167431,
				"element": "H" 
			},
			{
				"x": 1.9280519208,
				"y": 1.3023891249,
				"z": 0.4745441894,
				"element": "H" 
			},
			{
				"x": 0.2649170274,
				"y": 0.7123736995,
				"z": 0.3646640835,
				"element": "H" 
			},
			{
				"x": 1.5759875989,
				"y": 3.4510857511,
				"z": -0.5449469679,
				"element": "H" 
			},
			{
				"x": 0.6680318969,
				"y": 3.542198722,
				"z": -2.0574930968,
				"element": "H" 
			},
			{
				"x": -1.7710117359,
				"y": 2.0886324132,
				"z": -1.6533379245,
				"element": "H" 
			},
			{
				"x": -3.8897984365,
				"y": 2.5442428691,
				"z": -0.4366906844,
				"element": "H" 
			},
			{
				"x": -3.871640239,
				"y": 3.9723801263,
				"z": 1.5999808945,
				"element": "H" 
			},
			{
				"x": -1.7262280263,
				"y": 4.9374596238,
				"z": 2.4072599333,
				"element": "H" 
			},
			{
				"x": 0.379865015,
				"y": 4.4745200198,
				"z": 1.1865012252,
				"element": "H" 
			},
			{
				"x": 2.9890028737,
				"y": 1.5831484302,
				"z": -2.0202073752,
				"element": "H" 
			},
			{
				"x": 1.8117797195,
				"y": 2.0589137283,
				"z": -3.2449796863,
				"element": "H" 
			},
			{
				"x": 2.8970030162,
				"y": -0.4222809495,
				"z": -3.2193882553,
				"element": "H" 
			},
			{
				"x": 1.2545077041,
				"y": -0.1496753503,
				"z": -3.8026413637,
				"element": "H" 
			},
			{
				"x": -2.1811865489,
				"y": -1.5678919615,
				"z": -0.3087554295,
				"element": "H" 
			},
			{
				"x": -2.9139715807,
				"y": -3.5529236648,
				"z": 0.9585402317,
				"element": "H" 
			}
		],
		 "valence_orbital": [ 
			{
				"type": "occ",
				"energy": -0.23883,
				"method": "rhf"
			},
			{
				"type": "occ",
				"energy": -0.23749,
				"method": "rhf"
			},
			{
				"type": "occ",
				"energy": -0.2108,
				"method": "rhf"
			},
			{
				"type": "occ",
				"energy": -0.19706,
				"method": "rhf"
			},
			{
				"type": "occ",
				"energy": -0.18997,
				"method": "rhf"
			},
			{
				"type": "unocc",
				"energy": 0.00034,
				"method": "rhf"
			},
			{
				"type": "unocc",
				"energy": 0.00473,
				"method": "rhf"
			},
			{
				"type": "unocc",
				"energy": 0.01063,
				"method": "rhf"
			},
			{
				"type": "unocc",
				"energy": 0.02271,
				"method": "rhf"
			},
			{
				"type": "unocc",
				"energy": 0.08206,
				"method": "rhf"
			}
		],
		"cosmo_sigma_profile": { 
			"-0.025": 0.0,
			"-0.024": 0.0,
			"-0.023": 0.0,
			"-0.022": 0.0,
			"-0.021": 0.0,
			"-0.02": 0.0,
			"-0.019": 0.0,
			"-0.018": 0.0,
			"-0.017": 0.0,
			"-0.016": 0.0,
			"-0.015": 0.0,
			"-0.014": 0.0,
			"-0.013": 0.0224581851643,
			"-0.012": 1.77697876472,
			"-0.011": 2.80658286724,
			"-0.01": 3.02733801957,
			"-0.009": 2.75096834963,
			"-0.008": 2.77245503642,
			"-0.007": 3.53480133536,
			"-0.006": 4.40313940878,
			"-0.005": 14.1777026234,
			"-0.004": 26.4676133835,
			"-0.003": 34.6478074632,
			"-0.002": 43.3444952898,
			"-0.001": 43.9992183967,
			"0.0": 32.3667183069,
			"0.001": 20.0148870986,
			"0.002": 17.9305277312,
			"0.003": 18.3944656309,
			"0.004": 17.6562328057,
			"0.005": 17.6360361347,
			"0.006": 19.4374565213,
			"0.007": 11.5299526448,
			"0.008": 3.65166099015,
			"0.009": 1.8171018714,
			"0.01": 1.57192183161,
			"0.011": 1.80828211544,
			"0.012": 1.03530875583,
			"0.013": 0.913327959435,
			"0.014": 0.631932418152,
			"0.015": 0.529850412091,
			"0.016": 0.026359146369,
			"0.017": 0.0,
			"0.018": 0.0,
			"0.019": 0.0,
			"0.02": 0.0,
			"0.021": 0.0,
			"0.022": 0.0,
			"0.023": 0.0,
			"0.024": 0.0,
			"0.025": 0.0
		}
	}
}
