{
	 "smiles": "ClC1=CC=CC(Cl)=C1N=C1NCCN1", 
	 "Tm": 403.15, 
	 "num_atms": 23, 
	 "gaussian": { 
		 "optdone": 1, 
		 "sigma_profile": "yes", 
		 "theory": "DFT", 
		 "functional": "B3LYP", 
		 "basiset": "6-31G**", 
		 "properties": { 
			 "R2extent": 4131.8632, 
			 "electric_dipole_moment_norm": 3.79252762811, 
			 "electric_quadrupole_moment_norm": 18.5505952427, 
			 "total_energy": -1433.02044778, 
			 "HOMO_LUMO_gap": 0.20448, 
			 "cosmo_polarized_energy": -13.17, 
			 "cosmo_cavitation_energy": 30.03, 
			 "cosmo_dispersion_energy": -21.94, 
			 "cosmo_repulsion_energy": 1.75, 
			 "cosmo_total_nonelectrostatic_energy": 9.85, 
			 "SMD_solvation_energy": 0.89 
		},
		"coords": [
			{
				"x": -1.7216911123,
				"y": -1.3282592052,
				"z": 0.3487420394,
				"element": "Cl" 
			},
			{
				"x": -1.5907366402,
				"y": 0.1478912239,
				"z": -0.6097201858,
				"element": "C" 
			},
			{
				"x": -2.4853346547,
				"y": 1.1821240748,
				"z": -0.3418419947,
				"element": "C" 
			},
			{
				"x": -2.4206120776,
				"y": 2.3569291888,
				"z": -1.0869058319,
				"element": "C" 
			},
			{
				"x": -1.4634461706,
				"y": 2.4870037724,
				"z": -2.0928327213,
				"element": "C" 
			},
			{
				"x": -0.5810702341,
				"y": 1.4413867785,
				"z": -2.3450553096,
				"element": "C" 
			},
			{
				"x": 0.6162342835,
				"y": 1.6412838074,
				"z": -3.6136625058,
				"element": "Cl" 
			},
			{
				"x": -0.6018594546,
				"y": 0.2262560764,
				"z": -1.6185977822,
				"element": "C" 
			},
			{
				"x": 0.2190142002,
				"y": -0.8281835132,
				"z": -1.9830014643,
				"element": "N" 
			},
			{
				"x": 1.186789255,
				"y": -1.2331894607,
				"z": -1.2395499812,
				"element": "C" 
			},
			{
				"x": 1.9674861802,
				"y": -2.3253599786,
				"z": -1.5671725038,
				"element": "N" 
			},
			{
				"x": 3.1612240782,
				"y": -2.3578541511,
				"z": -0.728418177,
				"element": "C" 
			},
			{
				"x": 2.6469648886,
				"y": -1.636364938,
				"z": 0.5312383915,
				"element": "C" 
			},
			{
				"x": 1.6790108175,
				"y": -0.7078463227,
				"z": -0.0535421004,
				"element": "N" 
			},
			{
				"x": -3.2241705356,
				"y": 1.0566346039,
				"z": 0.4417988756,
				"element": "H" 
			},
			{
				"x": -3.1150504594,
				"y": 3.1666463728,
				"z": -0.8878143093,
				"element": "H" 
			},
			{
				"x": -1.3944597404,
				"y": 3.3937365535,
				"z": -2.6833350449,
				"element": "H" 
			},
			{
				"x": 2.015846655,
				"y": -2.5589341615,
				"z": -2.5486694122,
				"element": "H" 
			},
			{
				"x": 3.4839003989,
				"y": -3.3813421578,
				"z": -0.5199298065,
				"element": "H" 
			},
			{
				"x": 4.0016047639,
				"y": -1.8066034746,
				"z": -1.1755029658,
				"element": "H" 
			},
			{
				"x": 3.4414112316,
				"y": -1.1080491045,
				"z": 1.0648694322,
				"element": "H" 
			},
			{
				"x": 2.1697622941,
				"y": -2.3488640637,
				"z": 1.2188008318,
				"element": "H" 
			},
			{
				"x": 1.0160820326,
				"y": -0.2425419209,
				"z": 0.5505025263,
				"element": "H" 
			}
		],
		 "valence_orbital": [ 
			{
				"type": "occ",
				"energy": -0.29744,
				"method": "rhf"
			},
			{
				"type": "occ",
				"energy": -0.25733,
				"method": "rhf"
			},
			{
				"type": "occ",
				"energy": -0.23737,
				"method": "rhf"
			},
			{
				"type": "occ",
				"energy": -0.233,
				"method": "rhf"
			},
			{
				"type": "occ",
				"energy": -0.21349,
				"method": "rhf"
			},
			{
				"type": "unocc",
				"energy": -0.00901,
				"method": "rhf"
			},
			{
				"type": "unocc",
				"energy": -0.00328,
				"method": "rhf"
			},
			{
				"type": "unocc",
				"energy": 0.01959,
				"method": "rhf"
			},
			{
				"type": "unocc",
				"energy": 0.04656,
				"method": "rhf"
			},
			{
				"type": "unocc",
				"energy": 0.06585,
				"method": "rhf"
			}
		],
		"cosmo_sigma_profile": { 
			"-0.025": 0.0,
			"-0.024": 0.0,
			"-0.023": 0.0,
			"-0.022": 0.0,
			"-0.021": 0.0,
			"-0.02": 0.0,
			"-0.019": 0.0,
			"-0.018": 0.0,
			"-0.017": 0.0,
			"-0.016": 0.0,
			"-0.015": 0.0,
			"-0.014": 0.527778447308,
			"-0.013": 1.51425923217,
			"-0.012": 1.41489102327,
			"-0.011": 1.79802967047,
			"-0.01": 2.85294930075,
			"-0.009": 1.55098529717,
			"-0.008": 2.3827629253,
			"-0.007": 5.77120490966,
			"-0.006": 10.417883812,
			"-0.005": 19.567629346,
			"-0.004": 23.5041105583,
			"-0.003": 16.7571197753,
			"-0.002": 13.558736368,
			"-0.001": 10.4937910415,
			"0.0": 11.325386389,
			"0.001": 14.894679743,
			"0.002": 20.4354886014,
			"0.003": 22.7059887084,
			"0.004": 21.2663267683,
			"0.005": 15.3954441455,
			"0.006": 6.45332946285,
			"0.007": 4.50795058261,
			"0.008": 3.68946258665,
			"0.009": 2.51602496373,
			"0.01": 2.74214183885,
			"0.011": 1.1489841717,
			"0.012": 1.50096767346,
			"0.013": 1.14398951184,
			"0.014": 0.709677702709,
			"0.015": 1.02144110236,
			"0.016": 0.00886547925288,
			"0.017": 0.0,
			"0.018": 0.0,
			"0.019": 0.0,
			"0.02": 0.0,
			"0.021": 0.0,
			"0.022": 0.0,
			"0.023": 0.0,
			"0.024": 0.0,
			"0.025": 0.0
		}
	}
}
