{
	 "smiles": "CC1=CC=C2OC=C(C#N)C(=O)C2=C1", 
	 "Tm": 425.15, 
	 "num_atms": 21, 
	 "gaussian": { 
		 "optdone": 1, 
		 "sigma_profile": "yes", 
		 "theory": "DFT", 
		 "functional": "B3LYP", 
		 "basiset": "6-31G**", 
		 "properties": { 
			 "R2extent": 3626.4547, 
			 "electric_dipole_moment_norm": 7.50215285168, 
			 "electric_quadrupole_moment_norm": 28.3486011833, 
			 "total_energy": -628.564114049, 
			 "HOMO_LUMO_gap": 0.17883, 
			 "cosmo_polarized_energy": -15.66, 
			 "cosmo_cavitation_energy": 27.0, 
			 "cosmo_dispersion_energy": -19.34, 
			 "cosmo_repulsion_energy": 1.5, 
			 "cosmo_total_nonelectrostatic_energy": 9.16, 
			 "SMD_solvation_energy": 7.39 
		},
		"coords": [
			{
				"x": 2.9535120816,
				"y": -0.6008430017,
				"z": 2.6801077164,
				"element": "C" 
			},
			{
				"x": 1.8792206453,
				"y": -0.5232171504,
				"z": 1.622028326,
				"element": "C" 
			},
			{
				"x": 1.8631088135,
				"y": 0.5459484476,
				"z": 0.6998808032,
				"element": "C" 
			},
			{
				"x": 0.8902586885,
				"y": 0.6463881048,
				"z": -0.2839411266,
				"element": "C" 
			},
			{
				"x": -0.0938288155,
				"y": -0.341611887,
				"z": -0.3545187104,
				"element": "C" 
			},
			{
				"x": -1.0430637035,
				"y": -0.2042738174,
				"z": -1.3476554394,
				"element": "O" 
			},
			{
				"x": -2.0080666077,
				"y": -1.1249431112,
				"z": -1.4575510889,
				"element": "C" 
			},
			{
				"x": -2.1320026394,
				"y": -2.2123645192,
				"z": -0.6493660336,
				"element": "C" 
			},
			{
				"x": -3.2077287162,
				"y": -3.125449862,
				"z": -0.8680033278,
				"element": "C" 
			},
			{
				"x": -4.0889187494,
				"y": -3.8598787324,
				"z": -1.0585680384,
				"element": "N" 
			},
			{
				"x": -1.1665107065,
				"y": -2.4555445536,
				"z": 0.4485185047,
				"element": "C" 
			},
			{
				"x": -1.2340054329,
				"y": -3.4171529496,
				"z": 1.2020685027,
				"element": "O" 
			},
			{
				"x": -0.1149704022,
				"y": -1.4177232708,
				"z": 0.5390760264,
				"element": "C" 
			},
			{
				"x": 0.8845076886,
				"y": -1.4902155733,
				"z": 1.5237862124,
				"element": "C" 
			},
			{
				"x": 2.8253828968,
				"y": -1.4827345856,
				"z": 3.3121692872,
				"element": "H" 
			},
			{
				"x": 3.9512132283,
				"y": -0.6517913458,
				"z": 2.2295503274,
				"element": "H" 
			},
			{
				"x": 2.9369325132,
				"y": 0.2828832214,
				"z": 3.3279753422,
				"element": "H" 
			},
			{
				"x": 2.6321135482,
				"y": 1.3116339684,
				"z": 0.7604767856,
				"element": "H" 
			},
			{
				"x": 0.8755208258,
				"y": 1.4665846502,
				"z": -0.993498128,
				"element": "H" 
			},
			{
				"x": -2.6867748469,
				"y": -0.9023856041,
				"z": -2.273112215,
				"element": "H" 
			},
			{
				"x": 0.8476996906,
				"y": -2.3340084284,
				"z": 2.205876274,
				"element": "H" 
			}
		],
		 "valence_orbital": [ 
			{
				"type": "occ",
				"energy": -0.33336,
				"method": "rhf"
			},
			{
				"type": "occ",
				"energy": -0.28643,
				"method": "rhf"
			},
			{
				"type": "occ",
				"energy": -0.27991,
				"method": "rhf"
			},
			{
				"type": "occ",
				"energy": -0.26424,
				"method": "rhf"
			},
			{
				"type": "occ",
				"energy": -0.25396,
				"method": "rhf"
			},
			{
				"type": "unocc",
				"energy": -0.07513,
				"method": "rhf"
			},
			{
				"type": "unocc",
				"energy": -0.05616,
				"method": "rhf"
			},
			{
				"type": "unocc",
				"energy": -0.01719,
				"method": "rhf"
			},
			{
				"type": "unocc",
				"energy": 0.02542,
				"method": "rhf"
			},
			{
				"type": "unocc",
				"energy": 0.03048,
				"method": "rhf"
			}
		],
		"cosmo_sigma_profile": { 
			"-0.025": 0.0,
			"-0.024": 0.0,
			"-0.023": 0.0,
			"-0.022": 0.0,
			"-0.021": 0.0,
			"-0.02": 0.0,
			"-0.019": 0.0,
			"-0.018": 0.0,
			"-0.017": 0.0,
			"-0.016": 0.0,
			"-0.015": 0.0,
			"-0.014": 0.0,
			"-0.013": 0.168405572355,
			"-0.012": 2.6625654901,
			"-0.011": 1.8496027103,
			"-0.01": 1.97942673412,
			"-0.009": 1.4852468022,
			"-0.008": 3.15338987746,
			"-0.007": 6.54653458084,
			"-0.006": 10.1484522172,
			"-0.005": 14.7441550638,
			"-0.004": 18.7506720313,
			"-0.003": 19.2427156047,
			"-0.002": 15.7619883209,
			"-0.001": 18.5631143446,
			"0.0": 18.8366058959,
			"0.001": 14.5393007036,
			"0.002": 15.2990186429,
			"0.003": 5.79306454936,
			"0.004": 4.97865795095,
			"0.005": 4.25157612648,
			"0.006": 4.75320615811,
			"0.007": 5.69564516679,
			"0.008": 4.78418552067,
			"0.009": 5.31586442831,
			"0.01": 4.95572189697,
			"0.011": 6.10832269625,
			"0.012": 6.76223075538,
			"0.013": 1.39244839951,
			"0.014": 0.0,
			"0.015": 0.0,
			"0.016": 0.0,
			"0.017": 0.0,
			"0.018": 0.0,
			"0.019": 0.0,
			"0.02": 0.0,
			"0.021": 0.0,
			"0.022": 0.0,
			"0.023": 0.0,
			"0.024": 0.0,
			"0.025": 0.0
		}
	}
}
