{
	 "smiles": "NC(=O)C1(CC1)C(O)=O", 
	 "Tm": 459.15, 
	 "num_atms": 16, 
	 "gaussian": { 
		 "optdone": 1, 
		 "sigma_profile": "yes", 
		 "theory": "DFT", 
		 "functional": "B3LYP", 
		 "basiset": "6-31G**", 
		 "properties": { 
			 "R2extent": 1369.7717, 
			 "electric_dipole_moment_norm": 2.81239077832, 
			 "electric_quadrupole_moment_norm": 7.36741088171, 
			 "total_energy": -475.184476223, 
			 "HOMO_LUMO_gap": 0.24072, 
			 "cosmo_polarized_energy": -12.68, 
			 "cosmo_cavitation_energy": 19.73, 
			 "cosmo_dispersion_energy": -14.89, 
			 "cosmo_repulsion_energy": 1.22, 
			 "cosmo_total_nonelectrostatic_energy": 6.07, 
			 "SMD_solvation_energy": 5.2 
		},
		"coords": [
			{
				"x": -0.0335294217,
				"y": 2.3688102493,
				"z": -0.1484379891,
				"element": "N" 
			},
			{
				"x": 0.1229347858,
				"y": 1.2662531291,
				"z": -0.9169657838,
				"element": "C" 
			},
			{
				"x": -0.3979623634,
				"y": 1.1343320771,
				"z": -2.0216048637,
				"element": "O" 
			},
			{
				"x": 0.9938764051,
				"y": 0.1489944776,
				"z": -0.3589091177,
				"element": "C" 
			},
			{
				"x": 0.5605190699,
				"y": -1.2607005313,
				"z": -0.8063302798,
				"element": "C" 
			},
			{
				"x": 1.7479790144,
				"y": -0.6510114859,
				"z": -1.4387164202,
				"element": "C" 
			},
			{
				"x": 1.6409015336,
				"y": 0.2715709871,
				"z": 0.974322819,
				"element": "C" 
			},
			{
				"x": 2.3762737264,
				"y": -0.8152839546,
				"z": 1.3085565176,
				"element": "O" 
			},
			{
				"x": 1.5588904024,
				"y": 1.2229627507,
				"z": 1.7365146372,
				"element": "O" 
			},
			{
				"x": -0.6095746943,
				"y": 3.1102967638,
				"z": -0.5153559861,
				"element": "H" 
			},
			{
				"x": 0.4160979949,
				"y": 2.4326797468,
				"z": 0.7562700758,
				"element": "H" 
			},
			{
				"x": 0.7020103342,
				"y": -2.0575907231,
				"z": -0.0857200812,
				"element": "H" 
			},
			{
				"x": -0.3620111372,
				"y": -1.2705768033,
				"z": -1.3754923713,
				"element": "H" 
			},
			{
				"x": 1.6327391439,
				"y": -0.2464677933,
				"z": -2.4378230798,
				"element": "H" 
			},
			{
				"x": 2.7316887251,
				"y": -1.015606812,
				"z": -1.1671712093,
				"element": "H" 
			},
			{
				"x": 2.746566481,
				"y": -0.6253620779,
				"z": 2.1865631324,
				"element": "H" 
			}
		],
		 "valence_orbital": [ 
			{
				"type": "occ",
				"energy": -0.33359,
				"method": "rhf"
			},
			{
				"type": "occ",
				"energy": -0.30091,
				"method": "rhf"
			},
			{
				"type": "occ",
				"energy": -0.29109,
				"method": "rhf"
			},
			{
				"type": "occ",
				"energy": -0.25935,
				"method": "rhf"
			},
			{
				"type": "occ",
				"energy": -0.25146,
				"method": "rhf"
			},
			{
				"type": "unocc",
				"energy": -0.01074,
				"method": "rhf"
			},
			{
				"type": "unocc",
				"energy": 0.0298,
				"method": "rhf"
			},
			{
				"type": "unocc",
				"energy": 0.06457,
				"method": "rhf"
			},
			{
				"type": "unocc",
				"energy": 0.10123,
				"method": "rhf"
			},
			{
				"type": "unocc",
				"energy": 0.12083,
				"method": "rhf"
			}
		],
		"cosmo_sigma_profile": { 
			"-0.025": 0.0,
			"-0.024": 0.0,
			"-0.023": 0.0,
			"-0.022": 0.0,
			"-0.021": 0.0,
			"-0.02": 0.0,
			"-0.019": 0.211857917193,
			"-0.018": 0.890808456583,
			"-0.017": 0.985954680822,
			"-0.016": 0.560821615402,
			"-0.015": 1.02550393191,
			"-0.014": 1.14464377391,
			"-0.013": 2.0871943619,
			"-0.012": 1.67257857665,
			"-0.011": 1.85393664521,
			"-0.01": 1.43324008055,
			"-0.009": 2.477327461,
			"-0.008": 2.27585340775,
			"-0.007": 2.86172703543,
			"-0.006": 4.54082087072,
			"-0.005": 6.73933970412,
			"-0.004": 7.957389919,
			"-0.003": 11.6884844246,
			"-0.002": 15.1376461003,
			"-0.001": 13.7363150155,
			"0.0": 13.1450975727,
			"0.001": 8.92492165653,
			"0.002": 7.68457283897,
			"0.003": 7.39158756217,
			"0.004": 5.8977274771,
			"0.005": 4.25829234805,
			"0.006": 3.75286064205,
			"0.007": 3.05687031781,
			"0.008": 3.01123934388,
			"0.009": 2.98023274801,
			"0.01": 3.36496625593,
			"0.011": 3.04542212691,
			"0.012": 1.9048043758,
			"0.013": 2.81136108976,
			"0.014": 4.39760785567,
			"0.015": 1.07939454407,
			"0.016": 0.0,
			"0.017": 0.0,
			"0.018": 0.0,
			"0.019": 0.0,
			"0.02": 0.0,
			"0.021": 0.0,
			"0.022": 0.0,
			"0.023": 0.0,
			"0.024": 0.0,
			"0.025": 0.0
		}
	}
}
