{
	 "smiles": "OC(=O)C1=CC(OCC2=CN3C=CC=CC3=N2)=CC=C1", 
	 "Tm": 471.15, 
	 "num_atms": 32, 
	 "gaussian": { 
		 "optdone": 1, 
		 "sigma_profile": "yes", 
		 "theory": "DFT", 
		 "functional": "B3LYP", 
		 "basiset": "6-31G**", 
		 "properties": { 
			 "R2extent": 7890.6047, 
			 "electric_dipole_moment_norm": 8.33672316321, 
			 "electric_quadrupole_moment_norm": 20.7670254895, 
			 "total_energy": -913.995647095, 
			 "HOMO_LUMO_gap": 0.17656, 
			 "cosmo_polarized_energy": -20.32, 
			 "cosmo_cavitation_energy": 37.27, 
			 "cosmo_dispersion_energy": -26.87, 
			 "cosmo_repulsion_energy": 2.04, 
			 "cosmo_total_nonelectrostatic_energy": 12.45, 
			 "SMD_solvation_energy": 6.73 
		},
		"coords": [
			{
				"x": -0.7329824155,
				"y": 3.0146507166,
				"z": -4.241073017,
				"element": "O" 
			},
			{
				"x": -0.9843520703,
				"y": 3.5546128779,
				"z": -3.0168521053,
				"element": "C" 
			},
			{
				"x": -1.6672660176,
				"y": 4.5476915525,
				"z": -2.9257472922,
				"element": "O" 
			},
			{
				"x": -0.3829929014,
				"y": 2.8525571856,
				"z": -1.8358636004,
				"element": "C" 
			},
			{
				"x": 0.7201163448,
				"y": 2.0025196187,
				"z": -1.9532104544,
				"element": "C" 
			},
			{
				"x": 1.2556111297,
				"y": 1.3732339452,
				"z": -0.8210406617,
				"element": "C" 
			},
			{
				"x": 2.3451339526,
				"y": 0.5837075305,
				"z": -1.0593641208,
				"element": "O" 
			},
			{
				"x": 3.041415232,
				"y": 0.0011227836,
				"z": 0.0502637824,
				"element": "C" 
			},
			{
				"x": 2.3332792008,
				"y": -1.1745992839,
				"z": 0.6615559484,
				"element": "C" 
			},
			{
				"x": 1.9172215744,
				"y": -2.3297175352,
				"z": 0.0243695366,
				"element": "C" 
			},
			{
				"x": 1.3242326883,
				"y": -3.0963894451,
				"z": 1.0036480694,
				"element": "N" 
			},
			{
				"x": 0.7322241483,
				"y": -4.3361871407,
				"z": 0.9534507924,
				"element": "C" 
			},
			{
				"x": 0.2151814344,
				"y": -4.8757804741,
				"z": 2.0972021172,
				"element": "C" 
			},
			{
				"x": 0.287450565,
				"y": -4.1632803371,
				"z": 3.3285571038,
				"element": "C" 
			},
			{
				"x": 0.8789456201,
				"y": -2.9243578936,
				"z": 3.379776486,
				"element": "C" 
			},
			{
				"x": 1.415990786,
				"y": -2.3583463308,
				"z": 2.2004314553,
				"element": "C" 
			},
			{
				"x": 2.0246279711,
				"y": -1.1921394837,
				"z": 1.9920466431,
				"element": "N" 
			},
			{
				"x": 0.6768348223,
				"y": 1.5920269219,
				"z": 0.4355816355,
				"element": "C" 
			},
			{
				"x": -0.4177590181,
				"y": 2.456888272,
				"z": 0.5418283789,
				"element": "C" 
			},
			{
				"x": -0.9464995406,
				"y": 3.0944679118,
				"z": -0.5746354808,
				"element": "C" 
			},
			{
				"x": -0.3120811904,
				"y": 2.1499468417,
				"z": -4.1377725941,
				"element": "H" 
			},
			{
				"x": 1.2282908836,
				"y": 1.8385847985,
				"z": -2.8995861511,
				"element": "H" 
			},
			{
				"x": 3.2317345705,
				"y": 0.7456888053,
				"z": 0.8308491436,
				"element": "H" 
			},
			{
				"x": 4.0021987245,
				"y": -0.3014715271,
				"z": -0.3757497962,
				"element": "H" 
			},
			{
				"x": 1.9806457447,
				"y": -2.6558767118,
				"z": -1.0017969273,
				"element": "H" 
			},
			{
				"x": 0.7109323712,
				"y": -4.8236227348,
				"z": -0.0136943612,
				"element": "H" 
			},
			{
				"x": -0.2502742423,
				"y": -5.8535932389,
				"z": 2.0522118558,
				"element": "H" 
			},
			{
				"x": -0.1284834857,
				"y": -4.6071355287,
				"z": 4.2268227395,
				"element": "H" 
			},
			{
				"x": 0.9531097619,
				"y": -2.3524443828,
				"z": 4.2973935621,
				"element": "H" 
			},
			{
				"x": 1.0545932999,
				"y": 1.0907713426,
				"z": 1.3189904207,
				"element": "H" 
			},
			{
				"x": -0.8593678631,
				"y": 2.6257753959,
				"z": 1.5196209463,
				"element": "H" 
			},
			{
				"x": -1.7891120811,
				"y": 3.7719955478,
				"z": -0.4999140547,
				"element": "H" 
			}
		],
		 "valence_orbital": [ 
			{
				"type": "occ",
				"energy": -0.26773,
				"method": "rhf"
			},
			{
				"type": "occ",
				"energy": -0.26061,
				"method": "rhf"
			},
			{
				"type": "occ",
				"energy": -0.25396,
				"method": "rhf"
			},
			{
				"type": "occ",
				"energy": -0.22935,
				"method": "rhf"
			},
			{
				"type": "occ",
				"energy": -0.22269,
				"method": "rhf"
			},
			{
				"type": "unocc",
				"energy": -0.04613,
				"method": "rhf"
			},
			{
				"type": "unocc",
				"energy": -0.04065,
				"method": "rhf"
			},
			{
				"type": "unocc",
				"energy": -0.01111,
				"method": "rhf"
			},
			{
				"type": "unocc",
				"energy": -0.0025,
				"method": "rhf"
			},
			{
				"type": "unocc",
				"energy": 0.03887,
				"method": "rhf"
			}
		],
		"cosmo_sigma_profile": { 
			"-0.025": 0.0,
			"-0.024": 0.0,
			"-0.023": 0.0,
			"-0.022": 0.0,
			"-0.021": 0.0,
			"-0.02": 0.0,
			"-0.019": 0.014478267371,
			"-0.018": 0.964413306528,
			"-0.017": 0.958791869326,
			"-0.016": 0.884260671339,
			"-0.015": 0.725479793928,
			"-0.014": 0.850608219874,
			"-0.013": 1.0559566805,
			"-0.012": 1.2621757971,
			"-0.011": 1.30377793664,
			"-0.01": 2.1257336942,
			"-0.009": 5.59611732713,
			"-0.008": 5.73878123506,
			"-0.007": 12.088420283,
			"-0.006": 17.5219448324,
			"-0.005": 18.4638768591,
			"-0.004": 18.7751564245,
			"-0.003": 17.076373033,
			"-0.002": 15.6747612559,
			"-0.001": 15.3090265546,
			"0.0": 19.8506110631,
			"0.001": 19.142949513,
			"0.002": 26.7588021042,
			"0.003": 31.2648371523,
			"0.004": 16.3995376958,
			"0.005": 6.21212226358,
			"0.006": 5.41444493396,
			"0.007": 6.51304610267,
			"0.008": 4.02368858674,
			"0.009": 5.00378689339,
			"0.01": 5.94070356509,
			"0.011": 5.96759796162,
			"0.012": 6.14871555625,
			"0.013": 2.12831991756,
			"0.014": 0.826334001525,
			"0.015": 0.870751904319,
			"0.016": 0.328195796147,
			"0.017": 0.539991729128,
			"0.018": 0.0,
			"0.019": 0.0,
			"0.02": 0.0,
			"0.021": 0.0,
			"0.022": 0.0,
			"0.023": 0.0,
			"0.024": 0.0,
			"0.025": 0.0
		}
	}
}
