{
	 "smiles": "CC1=C(OC2=C1C=CC=C2F)C(O)=O", 
	 "Tm": 510.15, 
	 "num_atms": 21, 
	 "gaussian": { 
		 "optdone": 1, 
		 "sigma_profile": "yes", 
		 "theory": "DFT", 
		 "functional": "B3LYP", 
		 "basiset": "6-31G**", 
		 "properties": { 
			 "R2extent": 2943.3507, 
			 "electric_dipole_moment_norm": 4.50015271852, 
			 "electric_quadrupole_moment_norm": 13.2229021376, 
			 "total_energy": -710.791216557, 
			 "HOMO_LUMO_gap": 0.17411, 
			 "cosmo_polarized_energy": -11.22, 
			 "cosmo_cavitation_energy": 26.49, 
			 "cosmo_dispersion_energy": -19.32, 
			 "cosmo_repulsion_energy": 1.48, 
			 "cosmo_total_nonelectrostatic_energy": 8.65, 
			 "SMD_solvation_energy": 6.51 
		},
		"coords": [
			{
				"x": -1.2234081151,
				"y": 0.6546146489,
				"z": 3.0356605135,
				"element": "C" 
			},
			{
				"x": -0.5863361256,
				"y": 0.6044538279,
				"z": 1.6809964113,
				"element": "C" 
			},
			{
				"x": -0.6198492519,
				"y": 1.570612517,
				"z": 0.7140414037,
				"element": "C" 
			},
			{
				"x": 0.0782826402,
				"y": 1.1979686389,
				"z": -0.4280790166,
				"element": "O" 
			},
			{
				"x": 0.567161576,
				"y": -0.0460510335,
				"z": -0.1688059759,
				"element": "C" 
			},
			{
				"x": 0.1945172236,
				"y": -0.4751049856,
				"z": 1.1174514144,
				"element": "C" 
			},
			{
				"x": 0.6059204376,
				"y": -1.7409315125,
				"z": 1.5713588066,
				"element": "C" 
			},
			{
				"x": 1.3732969842,
				"y": -2.526740409,
				"z": 0.720889561,
				"element": "C" 
			},
			{
				"x": 1.739868276,
				"y": -2.0840571543,
				"z": -0.5666599743,
				"element": "C" 
			},
			{
				"x": 1.3363005251,
				"y": -0.8376039478,
				"z": -1.016990766,
				"element": "C" 
			},
			{
				"x": 1.6727503138,
				"y": -0.3931153512,
				"z": -2.2399335426,
				"element": "F" 
			},
			{
				"x": -1.2593191035,
				"y": 2.8949931272,
				"z": 0.7008740509,
				"element": "C" 
			},
			{
				"x": -1.0957386257,
				"y": 3.6145433633,
				"z": -0.4332874512,
				"element": "O" 
			},
			{
				"x": -1.8919799689,
				"y": 3.3213054125,
				"z": 1.6422875544,
				"element": "O" 
			},
			{
				"x": -2.305322733,
				"y": 0.7921415402,
				"z": 2.95412406,
				"element": "H" 
			},
			{
				"x": -1.0276796988,
				"y": -0.2641504393,
				"z": 3.5934467484,
				"element": "H" 
			},
			{
				"x": -0.8468567368,
				"y": 1.5032577995,
				"z": 3.6136826364,
				"element": "H" 
			},
			{
				"x": 0.3318572481,
				"y": -2.0955277848,
				"z": 2.5594216993,
				"element": "H" 
			},
			{
				"x": 1.7041777997,
				"y": -3.507889842,
				"z": 1.0461564866,
				"element": "H" 
			},
			{
				"x": 2.3393475112,
				"y": -2.7055427349,
				"z": -1.2228597039,
				"element": "H" 
			},
			{
				"x": -0.5625901762,
				"y": 3.1096243197,
				"z": -1.0680749161,
				"element": "H" 
			}
		],
		 "valence_orbital": [ 
			{
				"type": "occ",
				"energy": -0.31945,
				"method": "rhf"
			},
			{
				"type": "occ",
				"energy": -0.2992,
				"method": "rhf"
			},
			{
				"type": "occ",
				"energy": -0.28039,
				"method": "rhf"
			},
			{
				"type": "occ",
				"energy": -0.25952,
				"method": "rhf"
			},
			{
				"type": "occ",
				"energy": -0.23955,
				"method": "rhf"
			},
			{
				"type": "unocc",
				"energy": -0.06544,
				"method": "rhf"
			},
			{
				"type": "unocc",
				"energy": -0.01063,
				"method": "rhf"
			},
			{
				"type": "unocc",
				"energy": 0.01066,
				"method": "rhf"
			},
			{
				"type": "unocc",
				"energy": 0.0632,
				"method": "rhf"
			},
			{
				"type": "unocc",
				"energy": 0.08745,
				"method": "rhf"
			}
		],
		"cosmo_sigma_profile": { 
			"-0.025": 0.0,
			"-0.024": 0.0,
			"-0.023": 0.0,
			"-0.022": 0.0,
			"-0.021": 0.0,
			"-0.02": 0.0,
			"-0.019": 0.0,
			"-0.018": 0.0,
			"-0.017": 0.399240306492,
			"-0.016": 0.444707768508,
			"-0.015": 0.523854216346,
			"-0.014": 0.638214300896,
			"-0.013": 0.55756777795,
			"-0.012": 1.12211420459,
			"-0.011": 1.26153452365,
			"-0.01": 0.612527160749,
			"-0.009": 0.946746699401,
			"-0.008": 1.86750816254,
			"-0.007": 7.54563844712,
			"-0.006": 10.1691642912,
			"-0.005": 11.7971628489,
			"-0.004": 11.1710123004,
			"-0.003": 13.0426054958,
			"-0.002": 16.5528996483,
			"-0.001": 24.5895648542,
			"0.0": 20.8315149235,
			"0.001": 15.5156726714,
			"0.002": 14.6094633572,
			"0.003": 17.584549828,
			"0.004": 12.0488704277,
			"0.005": 3.02777881784,
			"0.006": 2.4173782045,
			"0.007": 2.86056143225,
			"0.008": 2.8563718321,
			"0.009": 3.6829220714,
			"0.01": 5.1764283336,
			"0.011": 4.04314429798,
			"0.012": 3.81312563896,
			"0.013": 1.17274020833,
			"0.014": 0.00621070716192,
			"0.015": 0.0,
			"0.016": 0.0,
			"0.017": 0.0,
			"0.018": 0.0,
			"0.019": 0.0,
			"0.02": 0.0,
			"0.021": 0.0,
			"0.022": 0.0,
			"0.023": 0.0,
			"0.024": 0.0,
			"0.025": 0.0
		}
	}
}
