{
	 "smiles": "CCOC(=O)C1=C(C)NC(C)=C(C1C1=CC=CC(=C1)[N+]([O-])=O)C(=O)OC", 
	 "Tm": 431.15, 
	 "num_atms": 46, 
	 "gaussian": { 
		 "optdone": 1, 
		 "sigma_profile": "yes", 
		 "theory": "DFT", 
		 "functional": "B3LYP", 
		 "basiset": "6-31G**", 
		 "properties": { 
			 "R2extent": 9618.0586, 
			 "electric_dipole_moment_norm": 6.10166004133, 
			 "electric_quadrupole_moment_norm": 31.8704755576, 
			 "total_energy": -1258.73911676, 
			 "HOMO_LUMO_gap": 0.13694, 
			 "cosmo_polarized_energy": -22.48, 
			 "cosmo_cavitation_energy": 49.75, 
			 "cosmo_dispersion_energy": -32.69, 
			 "cosmo_repulsion_energy": 2.55, 
			 "cosmo_total_nonelectrostatic_energy": 19.61, 
			 "SMD_solvation_energy": 13.18 
		},
		"coords": [
			{
				"x": 3.9366078649,
				"y": -0.5731834186,
				"z": -3.9383945833,
				"element": "C" 
			},
			{
				"x": 2.5202905762,
				"y": -0.9839223929,
				"z": -4.3133603274,
				"element": "C" 
			},
			{
				"x": 1.5334222283,
				"y": -0.2748251136,
				"z": -3.5275913512,
				"element": "O" 
			},
			{
				"x": 1.2577582773,
				"y": -0.7951897213,
				"z": -2.3008765488,
				"element": "C" 
			},
			{
				"x": 1.7885329644,
				"y": -1.8133213893,
				"z": -1.8864782066,
				"element": "O" 
			},
			{
				"x": 0.2544768247,
				"y": -0.0458436751,
				"z": -1.5243028282,
				"element": "C" 
			},
			{
				"x": -0.363180466,
				"y": 1.099473115,
				"z": -1.9247850319,
				"element": "C" 
			},
			{
				"x": -0.11315153,
				"y": 1.900210457,
				"z": -3.178752135,
				"element": "C" 
			},
			{
				"x": -1.3751751379,
				"y": 1.6184272053,
				"z": -1.127034069,
				"element": "N" 
			},
			{
				"x": -1.999055986,
				"y": 0.9223710946,
				"z": -0.1014197148,
				"element": "C" 
			},
			{
				"x": -3.2848775738,
				"y": 1.5588842409,
				"z": 0.3650698851,
				"element": "C" 
			},
			{
				"x": -1.4281688412,
				"y": -0.2330882112,
				"z": 0.3390964042,
				"element": "C" 
			},
			{
				"x": -0.0450708612,
				"y": -0.6489537555,
				"z": -0.1576039944,
				"element": "C" 
			},
			{
				"x": 1.0397747026,
				"y": -0.3047060444,
				"z": 0.8727354201,
				"element": "C" 
			},
			{
				"x": 1.6047426162,
				"y": -1.3060398058,
				"z": 1.6747807063,
				"element": "C" 
			},
			{
				"x": 2.5804645777,
				"y": -1.0032852099,
				"z": 2.6277989426,
				"element": "C" 
			},
			{
				"x": 3.0136026225,
				"y": 0.3083691665,
				"z": 2.8037262501,
				"element": "C" 
			},
			{
				"x": 2.4430592992,
				"y": 1.2969610244,
				"z": 2.0031874133,
				"element": "C" 
			},
			{
				"x": 1.4713002652,
				"y": 1.012880595,
				"z": 1.0464588692,
				"element": "C" 
			},
			{
				"x": 2.8828398833,
				"y": 2.6897196448,
				"z": 2.1710783153,
				"element": "N" 
			},
			{
				"x": 2.3646970081,
				"y": 3.5483323974,
				"z": 1.4541408171,
				"element": "O" 
			},
			{
				"x": 3.7441013006,
				"y": 2.922467428,
				"z": 3.0198948458,
				"element": "O" 
			},
			{
				"x": -2.0288832289,
				"y": -1.1650916025,
				"z": 1.3056623394,
				"element": "C" 
			},
			{
				"x": -1.4860678309,
				"y": -2.1955018839,
				"z": 1.6725010427,
				"element": "O" 
			},
			{
				"x": -3.2621174379,
				"y": -0.8074610464,
				"z": 1.7570547578,
				"element": "O" 
			},
			{
				"x": -3.8484998579,
				"y": -1.7194960519,
				"z": 2.6976362517,
				"element": "C" 
			},
			{
				"x": 4.6547859052,
				"y": -1.0716587088,
				"z": -4.5981930257,
				"element": "H" 
			},
			{
				"x": 4.0710149025,
				"y": 0.5079706752,
				"z": -4.0407726987,
				"element": "H" 
			},
			{
				"x": 4.1584349521,
				"y": -0.8623864186,
				"z": -2.908675237,
				"element": "H" 
			},
			{
				"x": 2.2863435716,
				"y": -0.7146221839,
				"z": -5.3465941665,
				"element": "H" 
			},
			{
				"x": 2.3741133901,
				"y": -2.0576307066,
				"z": -4.1759436073,
				"element": "H" 
			},
			{
				"x": 0.9525076256,
				"y": 2.0377634056,
				"z": -3.3546282891,
				"element": "H" 
			},
			{
				"x": -0.5185375504,
				"y": 1.3887513792,
				"z": -4.0568485051,
				"element": "H" 
			},
			{
				"x": -0.5872353296,
				"y": 2.8844934282,
				"z": -3.1055678153,
				"element": "H" 
			},
			{
				"x": -1.8119159873,
				"y": 2.4729663777,
				"z": -1.4359228018,
				"element": "H" 
			},
			{
				"x": -3.3526961921,
				"y": 1.5633613855,
				"z": 1.4518832877,
				"element": "H" 
			},
			{
				"x": -4.1532506529,
				"y": 1.0071882526,
				"z": -0.0073053867,
				"element": "H" 
			},
			{
				"x": -3.3535900522,
				"y": 2.5905855174,
				"z": 0.0047856841,
				"element": "H" 
			},
			{
				"x": -0.0347340185,
				"y": -1.7357255409,
				"z": -0.2584548333,
				"element": "H" 
			},
			{
				"x": 1.263595633,
				"y": -2.3281950713,
				"z": 1.5519732514,
				"element": "H" 
			},
			{
				"x": 3.0067590296,
				"y": -1.7958417952,
				"z": 3.235104642,
				"element": "H" 
			},
			{
				"x": 3.7687753116,
				"y": 0.5765044704,
				"z": 3.5314638344,
				"element": "H" 
			},
			{
				"x": 1.0724828897,
				"y": 1.8243052768,
				"z": 0.4512236742,
				"element": "H" 
			},
			{
				"x": -3.2176814826,
				"y": -1.821783046,
				"z": 3.5841855189,
				"element": "H" 
			},
			{
				"x": -4.8138767405,
				"y": -1.2871825322,
				"z": 2.9627278146,
				"element": "H" 
			},
			{
				"x": -3.9813174644,
				"y": -2.7067512116,
				"z": 2.2481351891,
				"element": "H" 
			}
		],
		 "valence_orbital": [ 
			{
				"type": "occ",
				"energy": -0.2704,
				"method": "rhf"
			},
			{
				"type": "occ",
				"energy": -0.2678,
				"method": "rhf"
			},
			{
				"type": "occ",
				"energy": -0.25899,
				"method": "rhf"
			},
			{
				"type": "occ",
				"energy": -0.24874,
				"method": "rhf"
			},
			{
				"type": "occ",
				"energy": -0.21237,
				"method": "rhf"
			},
			{
				"type": "unocc",
				"energy": -0.07543,
				"method": "rhf"
			},
			{
				"type": "unocc",
				"energy": -0.05577,
				"method": "rhf"
			},
			{
				"type": "unocc",
				"energy": -0.00826,
				"method": "rhf"
			},
			{
				"type": "unocc",
				"energy": -0.00328,
				"method": "rhf"
			},
			{
				"type": "unocc",
				"energy": 0.02087,
				"method": "rhf"
			}
		],
		"cosmo_sigma_profile": { 
			"-0.025": 0.0,
			"-0.024": 0.0,
			"-0.023": 0.0,
			"-0.022": 0.0,
			"-0.021": 0.0,
			"-0.02": 0.0,
			"-0.019": 0.0,
			"-0.018": 0.0,
			"-0.017": 0.0,
			"-0.016": 0.295313052652,
			"-0.015": 1.35196710472,
			"-0.014": 0.983600032953,
			"-0.013": 1.78756417659,
			"-0.012": 1.72563045659,
			"-0.011": 1.45173019377,
			"-0.01": 1.53642675119,
			"-0.009": 1.21155968261,
			"-0.008": 2.31716646267,
			"-0.007": 4.81185556541,
			"-0.006": 12.7472094034,
			"-0.005": 23.3193818583,
			"-0.004": 31.2604248123,
			"-0.003": 40.2597571842,
			"-0.002": 39.6561238045,
			"-0.001": 39.6827254814,
			"0.0": 37.6539572207,
			"0.001": 29.2914452395,
			"0.002": 26.3946504166,
			"0.003": 17.6280592272,
			"0.004": 11.5621821045,
			"0.005": 8.55700818385,
			"0.006": 7.29052436793,
			"0.007": 11.1368260813,
			"0.008": 12.6805718273,
			"0.009": 8.49770233479,
			"0.01": 6.1344835933,
			"0.011": 4.29155449467,
			"0.012": 4.57574519899,
			"0.013": 3.86389241021,
			"0.014": 0.11687978301,
			"0.015": 0.0,
			"0.016": 0.0,
			"0.017": 0.0,
			"0.018": 0.0,
			"0.019": 0.0,
			"0.02": 0.0,
			"0.021": 0.0,
			"0.022": 0.0,
			"0.023": 0.0,
			"0.024": 0.0,
			"0.025": 0.0
		}
	}
}
