{
	 "smiles": "O=C1N(C(=O)C2=CC=CC=C12)C1=CC=CC=C1", 
	 "Tm": 483.15, 
	 "num_atms": 26, 
	 "gaussian": { 
		 "optdone": 1, 
		 "sigma_profile": "yes", 
		 "theory": "DFT", 
		 "functional": "B3LYP", 
		 "basiset": "6-31G**", 
		 "properties": { 
			 "R2extent": 4522.3639, 
			 "electric_dipole_moment_norm": 2.55418414567, 
			 "electric_quadrupole_moment_norm": 25.3688583673, 
			 "total_energy": -744.142184124, 
			 "HOMO_LUMO_gap": 0.15043, 
			 "cosmo_polarized_energy": -11.06, 
			 "cosmo_cavitation_energy": 31.01, 
			 "cosmo_dispersion_energy": -22.62, 
			 "cosmo_repulsion_energy": 1.71, 
			 "cosmo_total_nonelectrostatic_energy": 10.09, 
			 "SMD_solvation_energy": 6.4 
		},
		"coords": [
			{
				"x": 0.4098660734,
				"y": -2.2362315463,
				"z": 1.3057041535,
				"element": "O" 
			},
			{
				"x": 0.9895446679,
				"y": -1.4424285118,
				"z": 0.5947524261,
				"element": "C" 
			},
			{
				"x": 0.3957013676,
				"y": -0.3642234388,
				"z": -0.1119034978,
				"element": "N" 
			},
			{
				"x": 1.3680619797,
				"y": 0.3667175236,
				"z": -0.8434472713,
				"element": "C" 
			},
			{
				"x": 1.1569707162,
				"y": 1.3371108058,
				"z": -1.5403804069,
				"element": "O" 
			},
			{
				"x": 2.6699931996,
				"y": -0.3054265902,
				"z": -0.574134438,
				"element": "C" 
			},
			{
				"x": 3.9414725975,
				"y": 0.0015544187,
				"z": -1.0379619596,
				"element": "C" 
			},
			{
				"x": 4.9953160125,
				"y": -0.8183091626,
				"z": -0.6139828471,
				"element": "C" 
			},
			{
				"x": 4.7682516301,
				"y": -1.9032970618,
				"z": 0.2436756938,
				"element": "C" 
			},
			{
				"x": 3.480200372,
				"y": -2.2026652575,
				"z": 0.706106636,
				"element": "C" 
			},
			{
				"x": 2.4445291598,
				"y": -1.3829920527,
				"z": 0.2800364527,
				"element": "C" 
			},
			{
				"x": -0.9976334845,
				"y": -0.0531603239,
				"z": -0.0884914813,
				"element": "C" 
			},
			{
				"x": -1.7163571943,
				"y": -0.1571510233,
				"z": 1.1085676841,
				"element": "C" 
			},
			{
				"x": -3.0780957414,
				"y": 0.1413162372,
				"z": 1.1217763721,
				"element": "C" 
			},
			{
				"x": -3.7244202421,
				"y": 0.5556250689,
				"z": -0.0437873377,
				"element": "C" 
			},
			{
				"x": -3.0000903488,
				"y": 0.6637103676,
				"z": -1.2319311751,
				"element": "C" 
			},
			{
				"x": -1.6410751906,
				"y": 0.3545852956,
				"z": -1.2633199935,
				"element": "C" 
			},
			{
				"x": 4.1037677062,
				"y": 0.8440178157,
				"z": -1.7023393251,
				"element": "H" 
			},
			{
				"x": 6.0055742854,
				"y": -0.6121240847,
				"z": -0.9546269403,
				"element": "H" 
			},
			{
				"x": 5.6062603192,
				"y": -2.5202158498,
				"z": 0.5540406934,
				"element": "H" 
			},
			{
				"x": 3.2911655363,
				"y": -3.0391297515,
				"z": 1.3709928603,
				"element": "H" 
			},
			{
				"x": -1.2167664155,
				"y": -0.4821380174,
				"z": 2.0121377537,
				"element": "H" 
			},
			{
				"x": -3.6323498268,
				"y": 0.0532494218,
				"z": 2.051532627,
				"element": "H" 
			},
			{
				"x": -4.7841338952,
				"y": 0.7922756162,
				"z": -0.0263884601,
				"element": "H" 
			},
			{
				"x": -3.4931013775,
				"y": 0.9854034033,
				"z": -2.1445382601,
				"element": "H" 
			},
			{
				"x": -1.0792519066,
				"y": 0.4421266978,
				"z": -2.1843899585,
				"element": "H" 
			}
		],
		 "valence_orbital": [ 
			{
				"type": "occ",
				"energy": -0.28102,
				"method": "rhf"
			},
			{
				"type": "occ",
				"energy": -0.27975,
				"method": "rhf"
			},
			{
				"type": "occ",
				"energy": -0.269,
				"method": "rhf"
			},
			{
				"type": "occ",
				"energy": -0.25035,
				"method": "rhf"
			},
			{
				"type": "occ",
				"energy": -0.23439,
				"method": "rhf"
			},
			{
				"type": "unocc",
				"energy": -0.08396,
				"method": "rhf"
			},
			{
				"type": "unocc",
				"energy": -0.04706,
				"method": "rhf"
			},
			{
				"type": "unocc",
				"energy": -0.00214,
				"method": "rhf"
			},
			{
				"type": "unocc",
				"energy": -0.00085,
				"method": "rhf"
			},
			{
				"type": "unocc",
				"energy": 0.02622,
				"method": "rhf"
			}
		],
		"cosmo_sigma_profile": { 
			"-0.025": 0.0,
			"-0.024": 0.0,
			"-0.023": 0.0,
			"-0.022": 0.0,
			"-0.021": 0.0,
			"-0.02": 0.0,
			"-0.019": 0.0,
			"-0.018": 0.0,
			"-0.017": 0.0,
			"-0.016": 0.0,
			"-0.015": 0.0,
			"-0.014": 0.0,
			"-0.013": 0.0,
			"-0.012": 0.0,
			"-0.011": 0.0,
			"-0.01": 0.0,
			"-0.009": 0.0,
			"-0.008": 2.23145875666,
			"-0.007": 8.83510167543,
			"-0.006": 17.9027049399,
			"-0.005": 23.0077011446,
			"-0.004": 20.9128510207,
			"-0.003": 17.2762498336,
			"-0.002": 16.6325470002,
			"-0.001": 17.3300542963,
			"0.0": 17.6569556068,
			"0.001": 21.1951558484,
			"0.002": 19.9446232153,
			"0.003": 11.8280775281,
			"0.004": 12.5035604637,
			"0.005": 12.0934841398,
			"0.006": 3.93304831758,
			"0.007": 4.14754893197,
			"0.008": 4.00231224849,
			"0.009": 4.04678455402,
			"0.01": 6.22935169248,
			"0.011": 8.17813226288,
			"0.012": 0.776042037182,
			"0.013": 0.0,
			"0.014": 0.0,
			"0.015": 0.0,
			"0.016": 0.0,
			"0.017": 0.0,
			"0.018": 0.0,
			"0.019": 0.0,
			"0.02": 0.0,
			"0.021": 0.0,
			"0.022": 0.0,
			"0.023": 0.0,
			"0.024": 0.0,
			"0.025": 0.0
		}
	}
}
