{
	 "smiles": "CN(C(=O)CCl)C1(CCCCC1=O)C1=C(Cl)C=CC=C1", 
	 "Tm": 384.15, 
	 "num_atms": 37, 
	 "gaussian": { 
		 "optdone": 1, 
		 "sigma_profile": "yes", 
		 "theory": "DFT", 
		 "functional": "B3LYP", 
		 "basiset": "6-31G**", 
		 "properties": { 
			 "R2extent": 5725.7337, 
			 "electric_dipole_moment_norm": 6.19038783357, 
			 "electric_quadrupole_moment_norm": 23.5557468436, 
			 "total_energy": -1707.40154779, 
			 "HOMO_LUMO_gap": 0.18282, 
			 "cosmo_polarized_energy": -17.47, 
			 "cosmo_cavitation_energy": 38.84, 
			 "cosmo_dispersion_energy": -27.07, 
			 "cosmo_repulsion_energy": 2.05, 
			 "cosmo_total_nonelectrostatic_energy": 13.82, 
			 "SMD_solvation_energy": 7.05 
		},
		"coords": [
			{
				"x": 0.2998699641,
				"y": 1.0402414846,
				"z": 2.2358331079,
				"element": "C" 
			},
			{
				"x": -0.2565478001,
				"y": 0.091281917,
				"z": 1.2592791972,
				"element": "N" 
			},
			{
				"x": -1.3899864876,
				"y": -0.5752426314,
				"z": 1.6858573372,
				"element": "C" 
			},
			{
				"x": -1.7877444842,
				"y": -0.4917073941,
				"z": 2.841485103,
				"element": "O" 
			},
			{
				"x": -2.2256655456,
				"y": -1.4212614485,
				"z": 0.7202848168,
				"element": "C" 
			},
			{
				"x": -3.7067575808,
				"y": -0.493084457,
				"z": 0.2094597653,
				"element": "Cl" 
			},
			{
				"x": 0.3343727841,
				"y": 0.0678643964,
				"z": -0.1066456069,
				"element": "C" 
			},
			{
				"x": -0.5261358328,
				"y": 1.0449121463,
				"z": -0.9764271116,
				"element": "C" 
			},
			{
				"x": 0.0386106255,
				"y": 1.5781140857,
				"z": -2.323232641,
				"element": "C" 
			},
			{
				"x": 1.5559400966,
				"y": 1.3931794421,
				"z": -2.4751624605,
				"element": "C" 
			},
			{
				"x": 2.2536436207,
				"y": 1.5931145004,
				"z": -1.1295806252,
				"element": "C" 
			},
			{
				"x": 1.8241142731,
				"y": 0.6034870352,
				"z": -0.0538724682,
				"element": "C" 
			},
			{
				"x": 2.6078943241,
				"y": 0.2433770705,
				"z": 0.7960019434,
				"element": "O" 
			},
			{
				"x": 0.488948345,
				"y": -1.3639629038,
				"z": -0.681637532,
				"element": "C" 
			},
			{
				"x": 1.0283775817,
				"y": -2.4655400351,
				"z": 0.0256871687,
				"element": "C" 
			},
			{
				"x": 1.4798106086,
				"y": -2.4184737785,
				"z": 1.720977376,
				"element": "Cl" 
			},
			{
				"x": 1.1903257459,
				"y": -3.7123054503,
				"z": -0.5878470059,
				"element": "C" 
			},
			{
				"x": 0.8223235385,
				"y": -3.9115539852,
				"z": -1.9144597461,
				"element": "C" 
			},
			{
				"x": 0.2678119204,
				"y": -2.8538044396,
				"z": -2.629431391,
				"element": "C" 
			},
			{
				"x": 0.1088742905,
				"y": -1.6144367314,
				"z": -2.0141794875,
				"element": "C" 
			},
			{
				"x": 1.1903627601,
				"y": 0.6354154459,
				"z": 2.7202227283,
				"element": "H" 
			},
			{
				"x": 0.5701977139,
				"y": 1.975065498,
				"z": 1.7339358928,
				"element": "H" 
			},
			{
				"x": -0.4649508389,
				"y": 1.2390633036,
				"z": 2.9825720327,
				"element": "H" 
			},
			{
				"x": -2.5857485221,
				"y": -2.2809746693,
				"z": 1.2823612027,
				"element": "H" 
			},
			{
				"x": -1.7379814357,
				"y": -1.7417167093,
				"z": -0.1923724368,
				"element": "H" 
			},
			{
				"x": -1.5140531586,
				"y": 0.6026345222,
				"z": -1.1256233582,
				"element": "H" 
			},
			{
				"x": -0.6973645432,
				"y": 1.9015874561,
				"z": -0.3176887192,
				"element": "H" 
			},
			{
				"x": -0.1950884538,
				"y": 2.6474963628,
				"z": -2.3768122169,
				"element": "H" 
			},
			{
				"x": -0.4784587318,
				"y": 1.1249007994,
				"z": -3.1757808258,
				"element": "H" 
			},
			{
				"x": 1.785910456,
				"y": 0.390746014,
				"z": -2.8521411811,
				"element": "H" 
			},
			{
				"x": 1.9529817732,
				"y": 2.0994274159,
				"z": -3.2119058989,
				"element": "H" 
			},
			{
				"x": 3.3425401315,
				"y": 1.5260984248,
				"z": -1.2000423529,
				"element": "H" 
			},
			{
				"x": 2.0255029681,
				"y": 2.5978594767,
				"z": -0.7406517713,
				"element": "H" 
			},
			{
				"x": 1.6047339171,
				"y": -4.5256029135,
				"z": -0.0027334235,
				"element": "H" 
			},
			{
				"x": 0.9573240151,
				"y": -4.8861349435,
				"z": -2.3730791861,
				"element": "H" 
			},
			{
				"x": -0.0476623238,
				"y": -2.9852935771,
				"z": -3.6596903428,
				"element": "H" 
			},
			{
				"x": -0.3463257146,
				"y": -0.8196707301,
				"z": -2.5877598826,
				"element": "H" 
			}
		],
		 "valence_orbital": [ 
			{
				"type": "occ",
				"energy": -0.27851,
				"method": "rhf"
			},
			{
				"type": "occ",
				"energy": -0.26263,
				"method": "rhf"
			},
			{
				"type": "occ",
				"energy": -0.25358,
				"method": "rhf"
			},
			{
				"type": "occ",
				"energy": -0.24669,
				"method": "rhf"
			},
			{
				"type": "occ",
				"energy": -0.23609,
				"method": "rhf"
			},
			{
				"type": "unocc",
				"energy": -0.05327,
				"method": "rhf"
			},
			{
				"type": "unocc",
				"energy": -0.03085,
				"method": "rhf"
			},
			{
				"type": "unocc",
				"energy": -0.01754,
				"method": "rhf"
			},
			{
				"type": "unocc",
				"energy": -0.01176,
				"method": "rhf"
			},
			{
				"type": "unocc",
				"energy": 0.0266,
				"method": "rhf"
			}
		],
		"cosmo_sigma_profile": { 
			"-0.025": 0.0,
			"-0.024": 0.0,
			"-0.023": 0.0,
			"-0.022": 0.0,
			"-0.021": 0.0,
			"-0.02": 0.0,
			"-0.019": 0.0,
			"-0.018": 0.0,
			"-0.017": 0.0,
			"-0.016": 0.0,
			"-0.015": 0.0,
			"-0.014": 0.0,
			"-0.013": 0.0,
			"-0.012": 0.0,
			"-0.011": 0.0,
			"-0.01": 0.0654867545647,
			"-0.009": 1.35528155865,
			"-0.008": 3.59729747236,
			"-0.007": 10.8912022,
			"-0.006": 16.070778219,
			"-0.005": 20.8063986173,
			"-0.004": 26.1464996539,
			"-0.003": 30.4084607326,
			"-0.002": 31.718847749,
			"-0.001": 26.4506280582,
			"0.0": 21.3870367218,
			"0.001": 16.705021901,
			"0.002": 19.4912437408,
			"0.003": 17.649559066,
			"0.004": 16.0518937395,
			"0.005": 11.9868618071,
			"0.006": 8.7135926868,
			"0.007": 4.35890611404,
			"0.008": 3.86392182679,
			"0.009": 3.2245416506,
			"0.01": 3.88471241112,
			"0.011": 4.8888161987,
			"0.012": 4.60594239872,
			"0.013": 5.07375011675,
			"0.014": 1.14308400886,
			"0.015": 0.0,
			"0.016": 0.0,
			"0.017": 0.0,
			"0.018": 0.0,
			"0.019": 0.0,
			"0.02": 0.0,
			"0.021": 0.0,
			"0.022": 0.0,
			"0.023": 0.0,
			"0.024": 0.0,
			"0.025": 0.0
		}
	}
}
