{
	 "smiles": "COC1=C(C=CC=C1)C(C)=CC(O)=O", 
	 "Tm": 355.15, 
	 "num_atms": 26, 
	 "gaussian": { 
		 "optdone": 1, 
		 "sigma_profile": "yes", 
		 "theory": "DFT", 
		 "functional": "B3LYP", 
		 "basiset": "6-31G**", 
		 "properties": { 
			 "R2extent": 4196.4225, 
			 "electric_dipole_moment_norm": 6.78084909211, 
			 "electric_quadrupole_moment_norm": 27.1796273006, 
			 "total_energy": -652.054262836, 
			 "HOMO_LUMO_gap": 0.18481, 
			 "cosmo_polarized_energy": -14.83, 
			 "cosmo_cavitation_energy": 29.87, 
			 "cosmo_dispersion_energy": -21.22, 
			 "cosmo_repulsion_energy": 1.69, 
			 "cosmo_total_nonelectrostatic_energy": 10.34, 
			 "SMD_solvation_energy": 7.19 
		},
		"coords": [
			{
				"x": 1.6495081185,
				"y": 0.5475095267,
				"z": 2.0394290762,
				"element": "C" 
			},
			{
				"x": 1.309831258,
				"y": -0.2477810344,
				"z": 0.9131941753,
				"element": "O" 
			},
			{
				"x": 0.0422697662,
				"y": -0.1575248572,
				"z": 0.4054035673,
				"element": "C" 
			},
			{
				"x": -0.2332659481,
				"y": -0.9570728667,
				"z": -0.7294357151,
				"element": "C" 
			},
			{
				"x": -1.5050697206,
				"y": -0.8645839642,
				"z": -1.3077854394,
				"element": "C" 
			},
			{
				"x": -2.4899654251,
				"y": -0.022193586,
				"z": -0.7883603187,
				"element": "C" 
			},
			{
				"x": -2.202576841,
				"y": 0.7499389628,
				"z": 0.3330066148,
				"element": "C" 
			},
			{
				"x": -0.9406478303,
				"y": 0.6877405168,
				"z": 0.9299181168,
				"element": "C" 
			},
			{
				"x": 0.7868289585,
				"y": -1.8804047835,
				"z": -1.3099605678,
				"element": "C" 
			},
			{
				"x": 1.3603048914,
				"y": -2.9308923806,
				"z": -0.3812227214,
				"element": "C" 
			},
			{
				"x": 1.0593243503,
				"y": -1.7824489233,
				"z": -2.6285824471,
				"element": "C" 
			},
			{
				"x": 1.9423837941,
				"y": -2.6479851657,
				"z": -3.4596231247,
				"element": "C" 
			},
			{
				"x": 3.1162884075,
				"y": -3.072832204,
				"z": -2.906364865,
				"element": "O" 
			},
			{
				"x": 1.6674469746,
				"y": -2.9572854036,
				"z": -4.595141328,
				"element": "O" 
			},
			{
				"x": 1.5558850374,
				"y": 1.6182466178,
				"z": 1.8196288088,
				"element": "H" 
			},
			{
				"x": 2.6917918867,
				"y": 0.3178355909,
				"z": 2.2657017228,
				"element": "H" 
			},
			{
				"x": 1.0287750195,
				"y": 0.3030153579,
				"z": 2.9105927453,
				"element": "H" 
			},
			{
				"x": -1.7227912093,
				"y": -1.4856259856,
				"z": -2.1714026777,
				"element": "H" 
			},
			{
				"x": -3.4693549879,
				"y": 0.0214930235,
				"z": -1.2539017032,
				"element": "H" 
			},
			{
				"x": -2.9560230579,
				"y": 1.4093846852,
				"z": 0.7538893004,
				"element": "H" 
			},
			{
				"x": -0.7302746463,
				"y": 1.305719823,
				"z": 1.7942883882,
				"element": "H" 
			},
			{
				"x": 2.0387418653,
				"y": -2.4780431408,
				"z": 0.3479984479,
				"element": "H" 
			},
			{
				"x": 1.8799509974,
				"y": -3.7256066434,
				"z": -0.9185622501,
				"element": "H" 
			},
			{
				"x": 0.5485088903,
				"y": -3.3885577818,
				"z": 0.1938646937,
				"element": "H" 
			},
			{
				"x": 0.5294604503,
				"y": -1.0414945659,
				"z": -3.2200814564,
				"element": "H" 
			},
			{
				"x": 3.2549690004,
				"y": -2.6178508179,
				"z": -2.0641910428,
				"element": "H" 
			}
		],
		 "valence_orbital": [ 
			{
				"type": "occ",
				"energy": -0.3079,
				"method": "rhf"
			},
			{
				"type": "occ",
				"energy": -0.27988,
				"method": "rhf"
			},
			{
				"type": "occ",
				"energy": -0.26796,
				"method": "rhf"
			},
			{
				"type": "occ",
				"energy": -0.24846,
				"method": "rhf"
			},
			{
				"type": "occ",
				"energy": -0.22788,
				"method": "rhf"
			},
			{
				"type": "unocc",
				"energy": -0.04307,
				"method": "rhf"
			},
			{
				"type": "unocc",
				"energy": -0.00667,
				"method": "rhf"
			},
			{
				"type": "unocc",
				"energy": 0.00503,
				"method": "rhf"
			},
			{
				"type": "unocc",
				"energy": 0.06186,
				"method": "rhf"
			},
			{
				"type": "unocc",
				"energy": 0.07665,
				"method": "rhf"
			}
		],
		"cosmo_sigma_profile": { 
			"-0.025": 0.0,
			"-0.024": 0.0,
			"-0.023": 0.0,
			"-0.022": 0.0,
			"-0.021": 0.0,
			"-0.02": 0.0,
			"-0.019": 0.0,
			"-0.018": 0.204577545894,
			"-0.017": 0.52012660966,
			"-0.016": 0.587488875583,
			"-0.015": 1.07903523257,
			"-0.014": 0.852306822031,
			"-0.013": 0.455582534819,
			"-0.012": 0.9271721133,
			"-0.011": 1.04382627566,
			"-0.01": 1.0470001748,
			"-0.009": 0.668362975088,
			"-0.008": 0.72225507573,
			"-0.007": 2.28729920113,
			"-0.006": 11.8768283959,
			"-0.005": 20.9085695013,
			"-0.004": 24.4083665897,
			"-0.003": 25.1569972023,
			"-0.002": 17.7320392679,
			"-0.001": 16.6423453675,
			"0.0": 13.500115063,
			"0.001": 12.3855734198,
			"0.002": 14.1345039871,
			"0.003": 12.0883051313,
			"0.004": 11.1110707479,
			"0.005": 11.9272147444,
			"0.006": 6.36341011523,
			"0.007": 3.42380994924,
			"0.008": 2.67399219028,
			"0.009": 3.63935389646,
			"0.01": 4.161537859,
			"0.011": 5.39634156624,
			"0.012": 5.86990216068,
			"0.013": 3.35926418469,
			"0.014": 0.257871180782,
			"0.015": 0.0,
			"0.016": 0.0,
			"0.017": 0.0,
			"0.018": 0.0,
			"0.019": 0.0,
			"0.02": 0.0,
			"0.021": 0.0,
			"0.022": 0.0,
			"0.023": 0.0,
			"0.024": 0.0,
			"0.025": 0.0
		}
	}
}
