{
	 "smiles": "COC(=O)C1=CC(=CC=C1)C1=NC(CCl)=CS1", 
	 "Tm": 403.15, 
	 "num_atms": 27, 
	 "gaussian": { 
		 "optdone": 1, 
		 "sigma_profile": "yes", 
		 "theory": "DFT", 
		 "functional": "B3LYP", 
		 "basiset": "6-31G**", 
		 "properties": { 
			 "R2extent": 6775.0339, 
			 "electric_dipole_moment_norm": 2.68425899272, 
			 "electric_quadrupole_moment_norm": 15.3233408586, 
			 "total_energy": -1526.89702349, 
			 "HOMO_LUMO_gap": 0.16718, 
			 "cosmo_polarized_energy": -13.02, 
			 "cosmo_cavitation_energy": 35.81, 
			 "cosmo_dispersion_energy": -26.34, 
			 "cosmo_repulsion_energy": 2.03, 
			 "cosmo_total_nonelectrostatic_energy": 11.49, 
			 "SMD_solvation_energy": 5.92 
		},
		"coords": [
			{
				"x": -2.5671707467,
				"y": -2.3168290645,
				"z": -4.0090592817,
				"element": "C" 
			},
			{
				"x": -1.5898431038,
				"y": -1.8546418782,
				"z": -3.0637201684,
				"element": "O" 
			},
			{
				"x": -0.3063372592,
				"y": -2.1282272517,
				"z": -3.3806694839,
				"element": "C" 
			},
			{
				"x": 0.0199754518,
				"y": -2.7195837303,
				"z": -4.3915911548,
				"element": "O" 
			},
			{
				"x": 0.6556347444,
				"y": -1.6249466111,
				"z": -2.3555001322,
				"element": "C" 
			},
			{
				"x": 0.233573608,
				"y": -0.950926285,
				"z": -1.2075252521,
				"element": "C" 
			},
			{
				"x": 1.173818487,
				"y": -0.4957617854,
				"z": -0.2692215809,
				"element": "C" 
			},
			{
				"x": 2.5385793493,
				"y": -0.7288608752,
				"z": -0.5032029736,
				"element": "C" 
			},
			{
				"x": 2.9567858392,
				"y": -1.4029189611,
				"z": -1.6496126565,
				"element": "C" 
			},
			{
				"x": 2.0212168552,
				"y": -1.8522496083,
				"z": -2.577784435,
				"element": "C" 
			},
			{
				"x": 0.6938271759,
				"y": 0.2096323977,
				"z": 0.927681596,
				"element": "C" 
			},
			{
				"x": -0.5595379737,
				"y": 0.4937392974,
				"z": 1.1555712363,
				"element": "N" 
			},
			{
				"x": -0.7309249165,
				"y": 1.1587235558,
				"z": 2.3460054214,
				"element": "C" 
			},
			{
				"x": -2.101676487,
				"y": 1.5657890461,
				"z": 2.7687785335,
				"element": "C" 
			},
			{
				"x": -3.0358600219,
				"y": 0.1867956828,
				"z": 3.5339438812,
				"element": "Cl" 
			},
			{
				"x": 0.4173052976,
				"y": 1.397332453,
				"z": 3.0541612359,
				"element": "C" 
			},
			{
				"x": 1.7843477971,
				"y": 0.7633895242,
				"z": 2.2099062238,
				"element": "S" 
			},
			{
				"x": -2.4035777714,
				"y": -1.8569245317,
				"z": -4.9868809043,
				"element": "H" 
			},
			{
				"x": -2.5131232472,
				"y": -3.4029175524,
				"z": -4.1175213843,
				"element": "H" 
			},
			{
				"x": -3.533056546,
				"y": -2.0194369447,
				"z": -3.601411346,
				"element": "H" 
			},
			{
				"x": -0.8191791698,
				"y": -0.7741160265,
				"z": -1.0279791238,
				"element": "H" 
			},
			{
				"x": 3.281818965,
				"y": -0.3818442137,
				"z": 0.2095186022,
				"element": "H" 
			},
			{
				"x": 4.0154616734,
				"y": -1.5754683519,
				"z": -1.8166253292,
				"element": "H" 
			},
			{
				"x": 2.3216445009,
				"y": -2.3787771038,
				"z": -3.4770115159,
				"element": "H" 
			},
			{
				"x": -2.6940274493,
				"y": 1.8785493451,
				"z": 1.9095421804,
				"element": "H" 
			},
			{
				"x": -2.0754077609,
				"y": 2.3593255894,
				"z": 3.5145868163,
				"element": "H" 
			},
			{
				"x": 0.5268327088,
				"y": 1.8923538841,
				"z": 4.0087209956,
				"element": "H" 
			}
		],
		 "valence_orbital": [ 
			{
				"type": "occ",
				"energy": -0.28708,
				"method": "rhf"
			},
			{
				"type": "occ",
				"energy": -0.2838,
				"method": "rhf"
			},
			{
				"type": "occ",
				"energy": -0.27588,
				"method": "rhf"
			},
			{
				"type": "occ",
				"energy": -0.26829,
				"method": "rhf"
			},
			{
				"type": "occ",
				"energy": -0.23438,
				"method": "rhf"
			},
			{
				"type": "unocc",
				"energy": -0.0672,
				"method": "rhf"
			},
			{
				"type": "unocc",
				"energy": -0.04547,
				"method": "rhf"
			},
			{
				"type": "unocc",
				"energy": -0.01941,
				"method": "rhf"
			},
			{
				"type": "unocc",
				"energy": 0.00726,
				"method": "rhf"
			},
			{
				"type": "unocc",
				"energy": 0.02008,
				"method": "rhf"
			}
		],
		"cosmo_sigma_profile": { 
			"-0.025": 0.0,
			"-0.024": 0.0,
			"-0.023": 0.0,
			"-0.022": 0.0,
			"-0.021": 0.0,
			"-0.02": 0.0,
			"-0.019": 0.0,
			"-0.018": 0.0,
			"-0.017": 0.0,
			"-0.016": 0.0,
			"-0.015": 0.0,
			"-0.014": 0.0,
			"-0.013": 0.0,
			"-0.012": 0.0,
			"-0.011": 0.00905737753516,
			"-0.01": 1.641097982,
			"-0.009": 3.62901417165,
			"-0.008": 6.54512422448,
			"-0.007": 10.6831483349,
			"-0.006": 15.4062635598,
			"-0.005": 18.0557319986,
			"-0.004": 18.8170417303,
			"-0.003": 19.8047802243,
			"-0.002": 15.8165960373,
			"-0.001": 18.7036743998,
			"0.0": 25.8426411014,
			"0.001": 30.0566096278,
			"0.002": 29.9007533001,
			"0.003": 16.9380337104,
			"0.004": 10.2082618542,
			"0.005": 10.9899395683,
			"0.006": 14.6923634914,
			"0.007": 8.23183388196,
			"0.008": 2.90081509147,
			"0.009": 2.7919410139,
			"0.01": 2.99484196803,
			"0.011": 3.54928188508,
			"0.012": 3.53128381367,
			"0.013": 0.093597816958,
			"0.014": 0.0,
			"0.015": 0.0,
			"0.016": 0.0,
			"0.017": 0.0,
			"0.018": 0.0,
			"0.019": 0.0,
			"0.02": 0.0,
			"0.021": 0.0,
			"0.022": 0.0,
			"0.023": 0.0,
			"0.024": 0.0,
			"0.025": 0.0
		}
	}
}
