{
	 "smiles": "OC(=O)CNC(=O)C1=CC(Cl)=CC=C1", 
	 "Tm": 372.15, 
	 "num_atms": 22, 
	 "gaussian": { 
		 "optdone": 1, 
		 "sigma_profile": "yes", 
		 "theory": "DFT", 
		 "functional": "B3LYP", 
		 "basiset": "6-31G**", 
		 "properties": { 
			 "R2extent": 3899.381, 
			 "electric_dipole_moment_norm": 1.36475016395, 
			 "electric_quadrupole_moment_norm": 18.9542010789, 
			 "total_energy": -1088.41502457, 
			 "HOMO_LUMO_gap": 0.20247, 
			 "cosmo_polarized_energy": -16.92, 
			 "cosmo_cavitation_energy": 29.38, 
			 "cosmo_dispersion_energy": -20.95, 
			 "cosmo_repulsion_energy": 1.69, 
			 "cosmo_total_nonelectrostatic_energy": 10.12, 
			 "SMD_solvation_energy": 6.1 
		},
		"coords": [
			{
				"x": -0.7089302541,
				"y": -3.0377891914,
				"z": 2.6848001909,
				"element": "O" 
			},
			{
				"x": 0.2803952464,
				"y": -3.0195115698,
				"z": 1.7648957204,
				"element": "C" 
			},
			{
				"x": 0.7496175777,
				"y": -4.0152559457,
				"z": 1.2661098183,
				"element": "O" 
			},
			{
				"x": 0.7819362167,
				"y": -1.6093707105,
				"z": 1.4647908696,
				"element": "C" 
			},
			{
				"x": -0.079763026,
				"y": -0.5337555129,
				"z": 1.9211472961,
				"element": "N" 
			},
			{
				"x": -0.8920122456,
				"y": 0.2659739593,
				"z": 1.1383031255,
				"element": "C" 
			},
			{
				"x": -1.9259488918,
				"y": 0.7416662135,
				"z": 1.5897416424,
				"element": "O" 
			},
			{
				"x": -0.4422271542,
				"y": 0.5936055874,
				"z": -0.2594697831,
				"element": "C" 
			},
			{
				"x": 0.900478399,
				"y": 0.8368242021,
				"z": -0.5785642236,
				"element": "C" 
			},
			{
				"x": 1.2353111775,
				"y": 1.2140182871,
				"z": -1.8781892575,
				"element": "C" 
			},
			{
				"x": 2.918590263,
				"y": 1.5343613921,
				"z": -2.2705572225,
				"element": "Cl" 
			},
			{
				"x": 0.2630652265,
				"y": 1.3473404609,
				"z": -2.8684104259,
				"element": "C" 
			},
			{
				"x": -1.0738809174,
				"y": 1.1142754669,
				"z": -2.5375300967,
				"element": "C" 
			},
			{
				"x": -1.4295331553,
				"y": 0.7532616808,
				"z": -1.2404799115,
				"element": "C" 
			},
			{
				"x": -0.9394104662,
				"y": -3.9714783044,
				"z": 2.8270358067,
				"element": "H" 
			},
			{
				"x": 1.7796509829,
				"y": -1.537931567,
				"z": 1.9199186208,
				"element": "H" 
			},
			{
				"x": 0.9287488951,
				"y": -1.5507040936,
				"z": 0.3864495391,
				"element": "H" 
			},
			{
				"x": -0.4940774387,
				"y": -0.6764057186,
				"z": 2.8354312008,
				"element": "H" 
			},
			{
				"x": 1.6741060423,
				"y": 0.7669583375,
				"z": 0.1777092682,
				"element": "H" 
			},
			{
				"x": 0.5483488968,
				"y": 1.6364172044,
				"z": -3.8738023394,
				"element": "H" 
			},
			{
				"x": -1.838894404,
				"y": 1.2250180258,
				"z": -3.2999848831,
				"element": "H" 
			},
			{
				"x": -2.4670709705,
				"y": 0.5987817963,
				"z": -0.9656449553,
				"element": "H" 
			}
		],
		 "valence_orbital": [ 
			{
				"type": "occ",
				"energy": -0.30929,
				"method": "rhf"
			},
			{
				"type": "occ",
				"energy": -0.27756,
				"method": "rhf"
			},
			{
				"type": "occ",
				"energy": -0.26696,
				"method": "rhf"
			},
			{
				"type": "occ",
				"energy": -0.25976,
				"method": "rhf"
			},
			{
				"type": "occ",
				"energy": -0.25033,
				"method": "rhf"
			},
			{
				"type": "unocc",
				"energy": -0.04786,
				"method": "rhf"
			},
			{
				"type": "unocc",
				"energy": -0.02558,
				"method": "rhf"
			},
			{
				"type": "unocc",
				"energy": -0.00795,
				"method": "rhf"
			},
			{
				"type": "unocc",
				"energy": 0.02048,
				"method": "rhf"
			},
			{
				"type": "unocc",
				"energy": 0.03859,
				"method": "rhf"
			}
		],
		"cosmo_sigma_profile": { 
			"-0.025": 0.0,
			"-0.024": 0.0,
			"-0.023": 0.0,
			"-0.022": 0.0,
			"-0.021": 0.0,
			"-0.02": 0.0,
			"-0.019": 0.477952089915,
			"-0.018": 1.28653937657,
			"-0.017": 0.561519322332,
			"-0.016": 0.702250034507,
			"-0.015": 0.882403911121,
			"-0.014": 0.593618199864,
			"-0.013": 0.352392007496,
			"-0.012": 2.00513206924,
			"-0.011": 2.06351968518,
			"-0.01": 0.660883970905,
			"-0.009": 1.48020893477,
			"-0.008": 7.67810869986,
			"-0.007": 14.3510946458,
			"-0.006": 14.8510343601,
			"-0.005": 12.6510430858,
			"-0.004": 11.9259911867,
			"-0.003": 11.4958830046,
			"-0.002": 11.7744924493,
			"-0.001": 12.4507506339,
			"0.0": 15.5682783367,
			"0.001": 17.0862964227,
			"0.002": 20.3290007727,
			"0.003": 17.1004526057,
			"0.004": 14.214026712,
			"0.005": 8.310308646,
			"0.006": 4.04589023987,
			"0.007": 3.1950644931,
			"0.008": 2.45944215924,
			"0.009": 3.1150856249,
			"0.01": 3.90223235774,
			"0.011": 6.68705749159,
			"0.012": 6.04196837104,
			"0.013": 5.60145372357,
			"0.014": 1.02611499933,
			"0.015": 0.0,
			"0.016": 0.0,
			"0.017": 0.0,
			"0.018": 0.0,
			"0.019": 0.0,
			"0.02": 0.0,
			"0.021": 0.0,
			"0.022": 0.0,
			"0.023": 0.0,
			"0.024": 0.0,
			"0.0": 0.0
		}
	}
}
