{
	 "smiles": "CC1=CC=C(S1)C(=O)CCl", 
	 "Tm": 319.15, 
	 "num_atms": 17, 
	 "gaussian": { 
		 "optdone": 1, 
		 "sigma_profile": "yes", 
		 "theory": "DFT", 
		 "functional": "B3LYP", 
		 "basiset": "6-31G**", 
		 "properties": { 
			 "R2extent": 3295.5566, 
			 "electric_dipole_moment_norm": 5.569009666, 
			 "electric_quadrupole_moment_norm": 12.871178502, 
			 "total_energy": -1204.5557839, 
			 "HOMO_LUMO_gap": 0.17634, 
			 "cosmo_polarized_energy": -11.29, 
			 "cosmo_cavitation_energy": 24.67, 
			 "cosmo_dispersion_energy": -18.68, 
			 "cosmo_repulsion_energy": 1.48, 
			 "cosmo_total_nonelectrostatic_energy": 7.48, 
			 "SMD_solvation_energy": 4.36 
		},
		"coords": [
			{
				"x": -3.1159554639,
				"y": -0.7546490411,
				"z": 0.2502044504,
				"element": "C" 
			},
			{
				"x": -2.0381497954,
				"y": -0.1910867999,
				"z": -0.626107548,
				"element": "C" 
			},
			{
				"x": -2.1771208335,
				"y": 0.6172425207,
				"z": -1.7304560588,
				"element": "C" 
			},
			{
				"x": -0.9447032257,
				"y": 0.9732896099,
				"z": -2.3339114106,
				"element": "C" 
			},
			{
				"x": 0.1516725732,
				"y": 0.4387383268,
				"z": -1.6943865854,
				"element": "C" 
			},
			{
				"x": -0.3559873701,
				"y": -0.5246984142,
				"z": -0.3175463188,
				"element": "S" 
			},
			{
				"x": 1.5524009196,
				"y": 0.648476604,
				"z": -2.1108704128,
				"element": "C" 
			},
			{
				"x": 1.824950643,
				"y": 1.3316781366,
				"z": -3.0802934481,
				"element": "O" 
			},
			{
				"x": 2.6208762645,
				"y": -0.0419432581,
				"z": -1.2540468183,
				"element": "C" 
			},
			{
				"x": 4.2888127093,
				"y": 0.2595653826,
				"z": -1.824291312,
				"element": "Cl" 
			},
			{
				"x": -4.0942015489,
				"y": -0.4283671341,
				"z": -0.1121603642,
				"element": "H" 
			},
			{
				"x": -3.1053158121,
				"y": -1.8501809427,
				"z": 0.2542589838,
				"element": "H" 
			},
			{
				"x": -3.0117203685,
				"y": -0.4209328011,
				"z": 1.2885147306,
				"element": "H" 
			},
			{
				"x": -3.1454176641,
				"y": 0.9437033437,
				"z": -2.0939411748,
				"element": "H" 
			},
			{
				"x": -0.8362988178,
				"y": 1.6006442295,
				"z": -3.210493634,
				"element": "H" 
			},
			{
				"x": 2.5507551561,
				"y": 0.3090336069,
				"z": -0.220652534,
				"element": "H" 
			},
			{
				"x": 2.4557026344,
				"y": -1.1230133694,
				"z": -1.2559205453,
				"element": "H" 
			}
		],
		 "valence_orbital": [ 
			{
				"type": "occ",
				"energy": -0.29863,
				"method": "rhf"
			},
			{
				"type": "occ",
				"energy": -0.29719,
				"method": "rhf"
			},
			{
				"type": "occ",
				"energy": -0.2703,
				"method": "rhf"
			},
			{
				"type": "occ",
				"energy": -0.2637,
				"method": "rhf"
			},
			{
				"type": "occ",
				"energy": -0.24639,
				"method": "rhf"
			},
			{
				"type": "unocc",
				"energy": -0.07005,
				"method": "rhf"
			},
			{
				"type": "unocc",
				"energy": 0.00172,
				"method": "rhf"
			},
			{
				"type": "unocc",
				"energy": 0.01662,
				"method": "rhf"
			},
			{
				"type": "unocc",
				"energy": 0.03344,
				"method": "rhf"
			},
			{
				"type": "unocc",
				"energy": 0.07104,
				"method": "rhf"
			}
		],
		"cosmo_sigma_profile": { 
			"-0.025": 0.0,
			"-0.024": 0.0,
			"-0.023": 0.0,
			"-0.022": 0.0,
			"-0.021": 0.0,
			"-0.02": 0.0,
			"-0.019": 0.0,
			"-0.018": 0.0,
			"-0.017": 0.0,
			"-0.016": 0.0,
			"-0.015": 0.0,
			"-0.014": 0.0,
			"-0.013": 0.0,
			"-0.012": 0.0,
			"-0.011": 0.0,
			"-0.01": 0.426758175239,
			"-0.009": 4.60802403815,
			"-0.008": 4.54132319431,
			"-0.007": 8.08556617954,
			"-0.006": 11.5362392056,
			"-0.005": 13.2621052742,
			"-0.004": 15.4061126264,
			"-0.003": 12.5843236608,
			"-0.002": 13.9214828091,
			"-0.001": 13.6756926134,
			"0.0": 11.8335531341,
			"0.001": 12.8379801224,
			"0.002": 17.3895062333,
			"0.003": 17.2105347402,
			"0.004": 8.5609653543,
			"0.005": 8.47413527174,
			"0.006": 7.36599008079,
			"0.007": 2.7050985659,
			"0.008": 2.21073425232,
			"0.009": 2.87094269297,
			"0.01": 2.29574889054,
			"0.011": 4.67225879813,
			"0.012": 3.19550268308,
			"0.013": 1.36008796252,
			"0.014": 0.0463169109605,
			"0.015": 0.0,
			"0.016": 0.0,
			"0.017": 0.0,
			"0.018": 0.0,
			"0.019": 0.0,
			"0.02": 0.0,
			"0.021": 0.0,
			"0.022": 0.0,
			"0.023": 0.0,
			"0.024": 0.0,
			"0.025": 0.0
		}
	}
}
