{
	 "smiles": "CC(=O)C1=C(C)N2N=C(C)C=C2N=C1", 
	 "Tm": 418.15, 
	 "num_atms": 25, 
	 "gaussian": { 
		 "optdone": 1, 
		 "sigma_profile": "yes", 
		 "theory": "DFT", 
		 "functional": "B3LYP", 
		 "basiset": "6-31G**", 
		 "properties": { 
			 "R2extent": 3450.3096, 
			 "electric_dipole_moment_norm": 3.6508854337, 
			 "electric_quadrupole_moment_norm": 17.2121005758, 
			 "total_energy": -627.157638697, 
			 "HOMO_LUMO_gap": 0.16134, 
			 "cosmo_polarized_energy": -12.12, 
			 "cosmo_cavitation_energy": 28.48, 
			 "cosmo_dispersion_energy": -21.07, 
			 "cosmo_repulsion_energy": 1.64, 
			 "cosmo_total_nonelectrostatic_energy": 9.04, 
			 "SMD_solvation_energy": 3.4 
		},
		"coords": [
			{
				"x": 2.9981085865,
				"y": 2.9033365625,
				"z": -2.0070410432,
				"element": "C" 
			},
			{
				"x": 3.2512056734,
				"y": 2.1239500358,
				"z": -0.7253188305,
				"element": "C" 
			},
			{
				"x": 4.3389701065,
				"y": 2.2250677037,
				"z": -0.1751433401,
				"element": "O" 
			},
			{
				"x": 2.2309462161,
				"y": 1.1853388255,
				"z": -0.1548766961,
				"element": "C" 
			},
			{
				"x": 0.8665263258,
				"y": 1.169981272,
				"z": -0.4271992789,
				"element": "C" 
			},
			{
				"x": 0.0605510455,
				"y": 2.1055661526,
				"z": -1.2798048568,
				"element": "C" 
			},
			{
				"x": 0.1488002228,
				"y": 0.1833011503,
				"z": 0.1894978384,
				"element": "N" 
			},
			{
				"x": -1.1891848051,
				"y": -0.0054402508,
				"z": 0.0488169143,
				"element": "N" 
			},
			{
				"x": -1.4626432286,
				"y": -1.0655040029,
				"z": 0.8254868189,
				"element": "C" 
			},
			{
				"x": -2.8699376804,
				"y": -1.5684093811,
				"z": 0.9142837622,
				"element": "C" 
			},
			{
				"x": -0.3174065024,
				"y": -1.5723466728,
				"z": 1.4744166111,
				"element": "C" 
			},
			{
				"x": 0.7275013072,
				"y": -0.7600118733,
				"z": 1.0626992816,
				"element": "C" 
			},
			{
				"x": 2.0487418248,
				"y": -0.7355861533,
				"z": 1.3455786038,
				"element": "N" 
			},
			{
				"x": 2.74955392,
				"y": 0.2054207617,
				"z": 0.7597994889,
				"element": "C" 
			},
			{
				"x": 3.97024562,
				"y": 3.1513039989,
				"z": -2.4363027916,
				"element": "H" 
			},
			{
				"x": 2.3989297789,
				"y": 2.3505091197,
				"z": -2.7342878944,
				"element": "H" 
			},
			{
				"x": 2.4828764133,
				"y": 3.8455393946,
				"z": -1.787481048,
				"element": "H" 
			},
			{
				"x": -0.0670520561,
				"y": 1.694762901,
				"z": -2.2883672481,
				"element": "H" 
			},
			{
				"x": -0.9384894855,
				"y": 2.2047666155,
				"z": -0.8529183224,
				"element": "H" 
			},
			{
				"x": 0.5259395897,
				"y": 3.0845137564,
				"z": -1.3588417731,
				"element": "H" 
			},
			{
				"x": -2.9394941703,
				"y": -2.6064821431,
				"z": 0.5716829999,
				"element": "H" 
			},
			{
				"x": -3.2327048766,
				"y": -1.5411705791,
				"z": 1.9474136865,
				"element": "H" 
			},
			{
				"x": -3.5276059724,
				"y": -0.9529476625,
				"z": 0.2972041258,
				"element": "H" 
			},
			{
				"x": -0.2460836339,
				"y": -2.4085396105,
				"z": 2.1523104278,
				"element": "H" 
			},
			{
				"x": 3.8134057806,
				"y": 0.2468800791,
				"z": 0.9747925638,
				"element": "H" 
			}
		],
		 "valence_orbital": [ 
			{
				"type": "occ",
				"energy": -0.31399,
				"method": "rhf"
			},
			{
				"type": "occ",
				"energy": -0.2728,
				"method": "rhf"
			},
			{
				"type": "occ",
				"energy": -0.25654,
				"method": "rhf"
			},
			{
				"type": "occ",
				"energy": -0.25072,
				"method": "rhf"
			},
			{
				"type": "occ",
				"energy": -0.2262,
				"method": "rhf"
			},
			{
				"type": "unocc",
				"energy": -0.06486,
				"method": "rhf"
			},
			{
				"type": "unocc",
				"energy": -0.0405,
				"method": "rhf"
			},
			{
				"type": "unocc",
				"energy": 0.0213,
				"method": "rhf"
			},
			{
				"type": "unocc",
				"energy": 0.05966,
				"method": "rhf"
			},
			{
				"type": "unocc",
				"energy": 0.08192,
				"method": "rhf"
			}
		],
		"cosmo_sigma_profile": { 
			"-0.025": 0.0,
			"-0.024": 0.0,
			"-0.023": 0.0,
			"-0.022": 0.0,
			"-0.021": 0.0,
			"-0.02": 0.0,
			"-0.019": 0.0,
			"-0.018": 0.0,
			"-0.017": 0.0,
			"-0.016": 0.0,
			"-0.015": 0.0,
			"-0.014": 0.0,
			"-0.013": 0.0,
			"-0.012": 0.0,
			"-0.011": 0.0,
			"-0.01": 0.00525670686986,
			"-0.009": 1.29382895877,
			"-0.008": 2.44146871623,
			"-0.007": 7.42719278239,
			"-0.006": 10.1825730416,
			"-0.005": 14.8042557727,
			"-0.004": 22.203222092,
			"-0.003": 26.6128587267,
			"-0.002": 26.5207015893,
			"-0.001": 21.756968924,
			"0.0": 15.1042979435,
			"0.001": 8.57437819762,
			"0.002": 10.7624131015,
			"0.003": 10.5018159667,
			"0.004": 7.84451875041,
			"0.005": 5.84855792004,
			"0.006": 4.14853119684,
			"0.007": 4.47712576907,
			"0.008": 4.02293072004,
			"0.009": 4.44047920322,
			"0.01": 4.56092610297,
			"0.011": 4.74420925677,
			"0.012": 4.96111499207,
			"0.013": 2.43805301556,
			"0.014": 0.757964095108,
			"0.015": 0.752854673422,
			"0.016": 0.0270223155361,
			"0.017": 0.0,
			"0.018": 0.0,
			"0.019": 0.0,
			"0.02": 0.0,
			"0.021": 0.0,
			"0.022": 0.0,
			"0.023": 0.0,
			"0.024": 0.0,
			"0.025": 0.0
		}
	}
}
