{
	 "smiles": "CC(C)(C)OC(=O)NCC(C(O)=O)C1=CC=CC=C1", 
	 "Tm": 418.15, 
	 "num_atms": 38, 
	 "gaussian": { 
		 "optdone": 1, 
		 "sigma_profile": "yes", 
		 "theory": "DFT", 
		 "functional": "B3LYP", 
		 "basiset": "6-31G**", 
		 "properties": { 
			 "R2extent": 6323.8617, 
			 "electric_dipole_moment_norm": 2.85675148377, 
			 "electric_quadrupole_moment_norm": 10.582830404, 
			 "total_energy": -900.644667596, 
			 "HOMO_LUMO_gap": 0.22493, 
			 "cosmo_polarized_energy": -16.72, 
			 "cosmo_cavitation_energy": 41.12, 
			 "cosmo_dispersion_energy": -27.16, 
			 "cosmo_repulsion_energy": 2.12, 
			 "cosmo_total_nonelectrostatic_energy": 16.08, 
			 "SMD_solvation_energy": 8.35 
		},
		"coords": [
			{
				"x": 3.9849627427,
				"y": -1.8773941898,
				"z": 1.7558374636,
				"element": "C" 
			},
			{
				"x": 3.0663276676,
				"y": -0.6662641846,
				"z": 1.5669775104,
				"element": "C" 
			},
			{
				"x": 2.3722176022,
				"y": -0.289298629,
				"z": 2.8781752905,
				"element": "C" 
			},
			{
				"x": 3.8023439684,
				"y": 0.5420643918,
				"z": 0.9781735952,
				"element": "C" 
			},
			{
				"x": 1.9314592717,
				"y": -1.0281626211,
				"z": 0.7032318396,
				"element": "O" 
			},
			{
				"x": 2.1158102823,
				"y": -1.3302583776,
				"z": -0.5980088115,
				"element": "C" 
			},
			{
				"x": 3.1841434453,
				"y": -1.5313252061,
				"z": -1.1544511754,
				"element": "O" 
			},
			{
				"x": 0.9144625929,
				"y": -1.4155532865,
				"z": -1.2604905265,
				"element": "N" 
			},
			{
				"x": -0.3995882526,
				"y": -1.055897153,
				"z": -0.7607303801,
				"element": "C" 
			},
			{
				"x": -0.9720082989,
				"y": 0.2224016656,
				"z": -1.425405836,
				"element": "C" 
			},
			{
				"x": -0.0822070442,
				"y": 1.4190860111,
				"z": -1.1138334483,
				"element": "C" 
			},
			{
				"x": 0.1676637247,
				"y": 2.1628804389,
				"z": -2.2132042448,
				"element": "O" 
			},
			{
				"x": 0.3508888717,
				"y": 1.706573472,
				"z": -0.0172895075,
				"element": "O" 
			},
			{
				"x": -2.4070481972,
				"y": 0.4811674684,
				"z": -0.9764257454,
				"element": "C" 
			},
			{
				"x": -2.6941011658,
				"y": 0.8966156322,
				"z": 0.3319714858,
				"element": "C" 
			},
			{
				"x": -4.0153845581,
				"y": 1.0831656581,
				"z": 0.7390317271,
				"element": "C" 
			},
			{
				"x": -5.0666758098,
				"y": 0.8563770922,
				"z": -0.1516836431,
				"element": "C" 
			},
			{
				"x": -4.7891698501,
				"y": 0.4441720802,
				"z": -1.4557305905,
				"element": "C" 
			},
			{
				"x": -3.4673919993,
				"y": 0.2592523781,
				"z": -1.8639840171,
				"element": "C" 
			},
			{
				"x": 4.449937158,
				"y": -2.1614351884,
				"z": 0.8115703327,
				"element": "H" 
			},
			{
				"x": 4.7686000465,
				"y": -1.6357353441,
				"z": 2.4816756164,
				"element": "H" 
			},
			{
				"x": 3.4157962616,
				"y": -2.7293631613,
				"z": 2.1413246135,
				"element": "H" 
			},
			{
				"x": 1.6789814068,
				"y": 0.5404836243,
				"z": 2.7149681176,
				"element": "H" 
			},
			{
				"x": 1.8096958216,
				"y": -1.1397252247,
				"z": 3.2752471624,
				"element": "H" 
			},
			{
				"x": 3.1140805999,
				"y": 0.0126757119,
				"z": 3.6236291984,
				"element": "H" 
			},
			{
				"x": 3.09400704,
				"y": 1.3553059934,
				"z": 0.7933745137,
				"element": "H" 
			},
			{
				"x": 4.5566525781,
				"y": 0.8944142688,
				"z": 1.6892927718,
				"element": "H" 
			},
			{
				"x": 4.2979274945,
				"y": 0.2797773163,
				"z": 0.0426276964,
				"element": "H" 
			},
			{
				"x": 1.0200427948,
				"y": -1.6721963014,
				"z": -2.2311907455,
				"element": "H" 
			},
			{
				"x": -1.1063947535,
				"y": -1.8753368978,
				"z": -0.936551487,
				"element": "H" 
			},
			{
				"x": -0.319219249,
				"y": -0.9046584222,
				"z": 0.31459101,
				"element": "H" 
			},
			{
				"x": -0.9707201296,
				"y": 0.0868555034,
				"z": -2.5115444831,
				"element": "H" 
			},
			{
				"x": 0.7180340634,
				"y": 2.9094425899,
				"z": -1.9197904711,
				"element": "H" 
			},
			{
				"x": -1.878539205,
				"y": 1.0890536662,
				"z": 1.022005377,
				"element": "H" 
			},
			{
				"x": -4.2231995842,
				"y": 1.4087497124,
				"z": 1.7543659486,
				"element": "H" 
			},
			{
				"x": -6.094470743,
				"y": 1.0027167731,
				"z": 0.1676477772,
				"element": "H" 
			},
			{
				"x": -5.5996366241,
				"y": 0.2691385064,
				"z": -2.1575298031,
				"element": "H" 
			},
			{
				"x": -3.2568799705,
				"y": -0.0586657673,
				"z": -2.8821741317,
				"element": "H" 
			}
		],
		 "valence_orbital": [ 
			{
				"type": "occ",
				"energy": -0.27922,
				"method": "rhf"
			},
			{
				"type": "occ",
				"energy": -0.25965,
				"method": "rhf"
			},
			{
				"type": "occ",
				"energy": -0.25606,
				"method": "rhf"
			},
			{
				"type": "occ",
				"energy": -0.25274,
				"method": "rhf"
			},
			{
				"type": "occ",
				"energy": -0.24321,
				"method": "rhf"
			},
			{
				"type": "unocc",
				"energy": -0.01828,
				"method": "rhf"
			},
			{
				"type": "unocc",
				"energy": -0.00848,
				"method": "rhf"
			},
			{
				"type": "unocc",
				"energy": 0.01087,
				"method": "rhf"
			},
			{
				"type": "unocc",
				"energy": 0.0614,
				"method": "rhf"
			},
			{
				"type": "unocc",
				"energy": 0.07456,
				"method": "rhf"
			}
		],
		"cosmo_sigma_profile": { 
			"-0.025": 0.0,
			"-0.024": 0.0,
			"-0.023": 0.0,
			"-0.022": 0.0,
			"-0.021": 0.0,
			"-0.02": 0.0,
			"-0.019": 0.0360771775972,
			"-0.018": 0.753882921121,
			"-0.017": 0.917055621193,
			"-0.016": 0.666589677471,
			"-0.015": 0.938158415842,
			"-0.014": 1.62333740161,
			"-0.013": 1.68779609788,
			"-0.012": 2.06670041338,
			"-0.011": 2.17029967552,
			"-0.01": 1.79118992458,
			"-0.009": 1.44311154984,
			"-0.008": 2.25720643714,
			"-0.007": 4.24372944817,
			"-0.006": 10.1861164205,
			"-0.005": 13.6525305076,
			"-0.004": 24.6864781152,
			"-0.003": 26.3441042299,
			"-0.002": 26.5570835057,
			"-0.001": 28.501263932,
			"0.0": 34.5006000748,
			"0.001": 30.2339281232,
			"0.002": 18.7694914258,
			"0.003": 17.1789566619,
			"0.004": 15.7002586068,
			"0.005": 15.7730171181,
			"0.006": 10.7088452832,
			"0.007": 5.21456801685,
			"0.008": 6.03960558966,
			"0.009": 4.35286543593,
			"0.01": 2.68074284177,
			"0.011": 2.93871464187,
			"0.012": 2.34131727323,
			"0.013": 2.98571437985,
			"0.014": 2.74969467198,
			"0.015": 0.0725171308514,
			"0.016": 0.0,
			"0.017": 0.0,
			"0.018": 0.0,
			"0.019": 0.0,
			"0.02": 0.0,
			"0.021": 0.0,
			"0.022": 0.0,
			"0.023": 0.0,
			"0.024": 0.0,
			"0.025": 0.0
		}
	}
}
