{
	 "smiles": "CC1=C(CCl)N=C(O1)C1=CC=CO1", 
	 "Tm": 332.15, 
	 "num_atms": 21, 
	 "gaussian": { 
		 "optdone": 1, 
		 "sigma_profile": "yes", 
		 "theory": "DFT", 
		 "functional": "B3LYP", 
		 "basiset": "6-31G**", 
		 "properties": { 
			 "R2extent": 3857.369, 
			 "electric_dipole_moment_norm": 3.02786253816, 
			 "electric_quadrupole_moment_norm": 14.8883691078, 
			 "total_energy": -1013.14353012, 
			 "HOMO_LUMO_gap": 0.17126, 
			 "cosmo_polarized_energy": -10.53, 
			 "cosmo_cavitation_energy": 28.27, 
			 "cosmo_dispersion_energy": -20.55, 
			 "cosmo_repulsion_energy": 1.65, 
			 "cosmo_total_nonelectrostatic_energy": 9.37, 
			 "SMD_solvation_energy": 4.28 
		},
		"coords": [
			{
				"x": 1.9917560942,
				"y": 1.5895221317,
				"z": -0.383245438,
				"element": "C" 
			},
			{
				"x": 0.6399802151,
				"y": 1.0925352425,
				"z": -0.0232802619,
				"element": "C" 
			},
			{
				"x": -0.3869557876,
				"y": 1.5467968912,
				"z": 0.7559333324,
				"element": "C" 
			},
			{
				"x": -0.4640812411,
				"y": 2.7855432471,
				"z": 1.5650788481,
				"element": "C" 
			},
			{
				"x": -1.2173582673,
				"y": 4.1936468063,
				"z": 0.6497470284,
				"element": "Cl" 
			},
			{
				"x": -1.4426116493,
				"y": 0.6452518367,
				"z": 0.7050908855,
				"element": "N" 
			},
			{
				"x": -1.0239360214,
				"y": -0.301428074,
				"z": -0.0839545498,
				"element": "C" 
			},
			{
				"x": 0.237895397,
				"y": -0.1017202562,
				"z": -0.5677733814,
				"element": "O" 
			},
			{
				"x": -1.7324700411,
				"y": -1.4934890478,
				"z": -0.475784248,
				"element": "C" 
			},
			{
				"x": -2.9893062576,
				"y": -1.9465072105,
				"z": -0.1695460054,
				"element": "C" 
			},
			{
				"x": -3.1386711713,
				"y": -3.1910690375,
				"z": -0.8523464048,
				"element": "C" 
			},
			{
				"x": -1.968280523,
				"y": -3.4026308239,
				"z": -1.5206675565,
				"element": "C" 
			},
			{
				"x": -1.0989360641,
				"y": -2.378609846,
				"z": -1.3029313285,
				"element": "O" 
			},
			{
				"x": 2.0711205745,
				"y": 1.7725987348,
				"z": -1.4607717946,
				"element": "H" 
			},
			{
				"x": 2.1979311371,
				"y": 2.5289537461,
				"z": 0.1341807152,
				"element": "H" 
			},
			{
				"x": 2.7679737192,
				"y": 0.8652922918,
				"z": -0.1119427073,
				"element": "H" 
			},
			{
				"x": 0.518878042,
				"y": 3.1365533907,
				"z": 1.8775864001,
				"element": "H" 
			},
			{
				"x": -1.0992568956,
				"y": 2.6344725818,
				"z": 2.4366670586,
				"element": "H" 
			},
			{
				"x": -3.7042011977,
				"y": -1.4418227951,
				"z": 0.4626601969,
				"element": "H" 
			},
			{
				"x": -4.0022026571,
				"y": -3.8401396411,
				"z": -0.8468797838,
				"element": "H" 
			},
			{
				"x": -1.6098674047,
				"y": -4.1913501686,
				"z": -2.163521005,
				"element": "H" 
			}
		],
		 "valence_orbital": [ 
			{
				"type": "occ",
				"energy": -0.29236,
				"method": "rhf"
			},
			{
				"type": "occ",
				"energy": -0.28953,
				"method": "rhf"
			},
			{
				"type": "occ",
				"energy": -0.28821,
				"method": "rhf"
			},
			{
				"type": "occ",
				"energy": -0.27219,
				"method": "rhf"
			},
			{
				"type": "occ",
				"energy": -0.21136,
				"method": "rhf"
			},
			{
				"type": "unocc",
				"energy": -0.0401,
				"method": "rhf"
			},
			{
				"type": "unocc",
				"energy": -0.0088,
				"method": "rhf"
			},
			{
				"type": "unocc",
				"energy": 0.0412,
				"method": "rhf"
			},
			{
				"type": "unocc",
				"energy": 0.06493,
				"method": "rhf"
			},
			{
				"type": "unocc",
				"energy": 0.09401,
				"method": "rhf"
			}
		],
		"cosmo_sigma_profile": { 
			"-0.025": 0.0,
			"-0.024": 0.0,
			"-0.023": 0.0,
			"-0.022": 0.0,
			"-0.021": 0.0,
			"-0.02": 0.0,
			"-0.019": 0.0,
			"-0.018": 0.0,
			"-0.017": 0.0,
			"-0.016": 0.0,
			"-0.015": 0.0,
			"-0.014": 0.0,
			"-0.013": 0.0,
			"-0.012": 0.0,
			"-0.011": 0.0,
			"-0.01": 0.555220444205,
			"-0.009": 2.61705020548,
			"-0.008": 7.37695863251,
			"-0.007": 10.064861125,
			"-0.006": 12.9376644504,
			"-0.005": 13.1384524753,
			"-0.004": 15.7665895663,
			"-0.003": 13.4730864301,
			"-0.002": 17.8604129536,
			"-0.001": 16.6807766032,
			"0.0": 13.625582821,
			"0.001": 15.7060683627,
			"0.002": 16.977744956,
			"0.003": 14.1729201398,
			"0.004": 12.2385740501,
			"0.005": 12.3466959652,
			"0.006": 13.3897320764,
			"0.007": 10.5730419211,
			"0.008": 3.48780877629,
			"0.009": 1.43238740524,
			"0.01": 0.988933705392,
			"0.011": 1.02274488475,
			"0.012": 0.937512857331,
			"0.013": 0.663036797577,
			"0.014": 0.805942611741,
			"0.015": 0.299699855128,
			"0.016": 0.0,
			"0.017": 0.0,
			"0.018": 0.0,
			"0.019": 0.0,
			"0.02": 0.0,
			"0.021": 0.0,
			"0.022": 0.0,
			"0.023": 0.0,
			"0.024": 0.0,
			"0.025": 0.0
		}
	}
}
