{
	 "smiles": "CC1=CC2=C(NC3=C2CCCC3=O)C=C1", 
	 "Tm": 459.15, 
	 "num_atms": 28, 
	 "gaussian": { 
		 "optdone": 1, 
		 "sigma_profile": "yes", 
		 "theory": "DFT", 
		 "functional": "B3LYP", 
		 "basiset": "6-31G**", 
		 "properties": { 
			 "R2extent": 4484.6781, 
			 "electric_dipole_moment_norm": 2.44553942107, 
			 "electric_quadrupole_moment_norm": 16.7428145373, 
			 "total_energy": -633.226606166, 
			 "HOMO_LUMO_gap": 0.15696, 
			 "cosmo_polarized_energy": -9.98, 
			 "cosmo_cavitation_energy": 30.54, 
			 "cosmo_dispersion_energy": -22.65, 
			 "cosmo_repulsion_energy": 1.77, 
			 "cosmo_total_nonelectrostatic_energy": 9.65, 
			 "SMD_solvation_energy": 4.67 
		},
		"coords": [
			{
				"x": -0.5863225902,
				"y": -1.6752825385,
				"z": 3.1573940731,
				"element": "C" 
			},
			{
				"x": -0.0840820565,
				"y": -1.7551312151,
				"z": 1.7338940144,
				"element": "C" 
			},
			{
				"x": -0.4677531141,
				"y": -0.8208690554,
				"z": 0.7811227226,
				"element": "C" 
			},
			{
				"x": 0.0152793099,
				"y": -0.9207882897,
				"z": -0.5394910176,
				"element": "C" 
			},
			{
				"x": 0.8998619932,
				"y": -1.9896893027,
				"z": -0.8785497716,
				"element": "C" 
			},
			{
				"x": 1.2258334564,
				"y": -1.8634660798,
				"z": -2.2066272948,
				"element": "N" 
			},
			{
				"x": 0.5793228427,
				"y": -0.7549672485,
				"z": -2.7181873284,
				"element": "C" 
			},
			{
				"x": -0.1710667998,
				"y": -0.1444578713,
				"z": -1.7280845587,
				"element": "C" 
			},
			{
				"x": -0.9781948969,
				"y": 1.0903560995,
				"z": -2.0033230953,
				"element": "C" 
			},
			{
				"x": -0.417823272,
				"y": 1.8233871777,
				"z": -3.2399651915,
				"element": "C" 
			},
			{
				"x": -0.197383662,
				"y": 0.8815159227,
				"z": -4.4395260043,
				"element": "C" 
			},
			{
				"x": 0.6726526432,
				"y": -0.3289045203,
				"z": -4.1060595674,
				"element": "C" 
			},
			{
				"x": 1.361183744,
				"y": -0.9169965131,
				"z": -4.9347950306,
				"element": "O" 
			},
			{
				"x": 1.295441676,
				"y": -2.9389216479,
				"z": 0.0741588685,
				"element": "C" 
			},
			{
				"x": 0.7967868985,
				"y": -2.8053492362,
				"z": 1.3602496846,
				"element": "C" 
			},
			{
				"x": 0.2409287525,
				"y": -1.5770171267,
				"z": 3.8704485079,
				"element": "H" 
			},
			{
				"x": -1.1446458661,
				"y": -2.5764795585,
				"z": 3.4378072055,
				"element": "H" 
			},
			{
				"x": -1.2493644917,
				"y": -0.8170826837,
				"z": 3.2979184527,
				"element": "H" 
			},
			{
				"x": -1.1423472708,
				"y": -0.0130378051,
				"z": 1.0538800837,
				"element": "H" 
			},
			{
				"x": 1.8241389257,
				"y": -2.4570750289,
				"z": -2.759898249,
				"element": "H" 
			},
			{
				"x": -2.0318835937,
				"y": 0.8226125703,
				"z": -2.1762226606,
				"element": "H" 
			},
			{
				"x": -0.9749341464,
				"y": 1.7602788261,
				"z": -1.135239296,
				"element": "H" 
			},
			{
				"x": -1.0894208276,
				"y": 2.6387973908,
				"z": -3.52985662,
				"element": "H" 
			},
			{
				"x": 0.5410728122,
				"y": 2.2831197162,
				"z": -2.9701922343,
				"element": "H" 
			},
			{
				"x": 0.2574831108,
				"y": 1.4024882473,
				"z": -5.2871868822,
				"element": "H" 
			},
			{
				"x": -1.164890359,
				"y": 0.4927629937,
				"z": -4.7915143488,
				"element": "H" 
			},
			{
				"x": 1.9684065681,
				"y": -3.7513440831,
				"z": -0.1840577423,
				"element": "H" 
			},
			{
				"x": 1.0899202137,
				"y": -3.5308591397,
				"z": 2.1152032803,
				"element": "H" 
			}
		],
		 "valence_orbital": [ 
			{
				"type": "occ",
				"energy": -0.31985,
				"method": "rhf"
			},
			{
				"type": "occ",
				"energy": -0.27661,
				"method": "rhf"
			},
			{
				"type": "occ",
				"energy": -0.24117,
				"method": "rhf"
			},
			{
				"type": "occ",
				"energy": -0.22042,
				"method": "rhf"
			},
			{
				"type": "occ",
				"energy": -0.20831,
				"method": "rhf"
			},
			{
				"type": "unocc",
				"energy": -0.05135,
				"method": "rhf"
			},
			{
				"type": "unocc",
				"energy": 0.01562,
				"method": "rhf"
			},
			{
				"type": "unocc",
				"energy": 0.02453,
				"method": "rhf"
			},
			{
				"type": "unocc",
				"energy": 0.08166,
				"method": "rhf"
			},
			{
				"type": "unocc",
				"energy": 0.09497,
				"method": "rhf"
			}
		],
		"cosmo_sigma_profile": { 
			"-0.025": 0.0,
			"-0.024": 0.0,
			"-0.023": 0.0,
			"-0.022": 0.0,
			"-0.021": 0.0,
			"-0.02": 0.0,
			"-0.019": 0.0,
			"-0.018": 0.0,
			"-0.017": 0.0,
			"-0.016": 0.0,
			"-0.015": 0.444496180731,
			"-0.014": 1.22483235309,
			"-0.013": 0.912131143712,
			"-0.012": 0.825826418566,
			"-0.011": 0.913488473536,
			"-0.01": 0.794381492298,
			"-0.009": 1.15609416317,
			"-0.008": 1.13018110163,
			"-0.007": 1.40072050093,
			"-0.006": 3.86089704701,
			"-0.005": 9.89760975113,
			"-0.004": 22.2065550343,
			"-0.003": 30.6169139545,
			"-0.002": 28.6265133088,
			"-0.001": 26.6128052305,
			"0.0": 21.4090112837,
			"0.001": 14.2624838124,
			"0.002": 10.4588567776,
			"0.003": 14.179668952,
			"0.004": 13.9078629525,
			"0.005": 11.1788569356,
			"0.006": 8.43809014765,
			"0.007": 1.5574042676,
			"0.008": 1.66846386949,
			"0.009": 1.00378949622,
			"0.01": 1.41538822946,
			"0.011": 2.49651913798,
			"0.012": 3.41191546269,
			"0.013": 3.78765511087,
			"0.014": 1.49144059962,
			"0.015": 0.131028284677,
			"0.016": 0.0,
			"0.017": 0.0,
			"0.018": 0.0,
			"0.019": 0.0,
			"0.02": 0.0,
			"0.021": 0.0,
			"0.022": 0.0,
			"0.023": 0.0,
			"0.024": 0.0,
			"0.025": 0.0
		}
	}
}
