{
	 "smiles": "OCCN(CCO)C1=CC=C(C=C1)N=NC1=CC=CC=C1", 
	 "Tm": 407.15, 
	 "num_atms": 40, 
	 "gaussian": { 
		 "optdone": 1, 
		 "sigma_profile": "yes", 
		 "theory": "DFT", 
		 "functional": "B3LYP", 
		 "basiset": "6-31G**", 
		 "properties": { 
			 "R2extent": 8312.4095, 
			 "electric_dipole_moment_norm": 4.56642572698, 
			 "electric_quadrupole_moment_norm": 23.3810794349, 
			 "total_energy": -935.768700517, 
			 "HOMO_LUMO_gap": 0.1268, 
			 "cosmo_polarized_energy": -19.89, 
			 "cosmo_cavitation_energy": 41.96, 
			 "cosmo_dispersion_energy": -29.3, 
			 "cosmo_repulsion_energy": 2.27, 
			 "cosmo_total_nonelectrostatic_energy": 14.92, 
			 "SMD_solvation_energy": 4.65 
		},
		"coords": [
			{
				"x": 0.2429479827,
				"y": 2.3859317781,
				"z": 3.1612385551,
				"element": "O" 
			},
			{
				"x": 0.3124394293,
				"y": 2.5623989495,
				"z": 1.7459171116,
				"element": "C" 
			},
			{
				"x": 1.7694885121,
				"y": 2.4258861473,
				"z": 1.297146159,
				"element": "C" 
			},
			{
				"x": 2.3294879513,
				"y": 1.0881892914,
				"z": 1.451945739,
				"element": "N" 
			},
			{
				"x": 3.4887246565,
				"y": 0.9283483105,
				"z": 2.3348170691,
				"element": "C" 
			},
			{
				"x": 3.1591391206,
				"y": 0.7091936024,
				"z": 3.8188182314,
				"element": "C" 
			},
			{
				"x": 2.6681743075,
				"y": 1.870788921,
				"z": 4.4513022808,
				"element": "O" 
			},
			{
				"x": 1.8671709606,
				"y": 0.0323038521,
				"z": 0.679966844,
				"element": "C" 
			},
			{
				"x": 2.2171642659,
				"y": -1.3095693568,
				"z": 0.971520588,
				"element": "C" 
			},
			{
				"x": 1.7795272861,
				"y": -2.3515433138,
				"z": 0.1698058196,
				"element": "C" 
			},
			{
				"x": 0.9139993013,
				"y": -2.134516551,
				"z": -0.9145077592,
				"element": "C" 
			},
			{
				"x": 0.5673165213,
				"y": -0.8067373029,
				"z": -1.2209324383,
				"element": "C" 
			},
			{
				"x": 1.0395454566,
				"y": 0.2468603833,
				"z": -0.4523476553,
				"element": "C" 
			},
			{
				"x": 0.6145470603,
				"y": -3.2891194292,
				"z": -1.6908965188,
				"element": "N" 
			},
			{
				"x": -0.4323098158,
				"y": -3.4547605777,
				"z": -2.3612350989,
				"element": "N" 
			},
			{
				"x": -1.5870617418,
				"y": -2.6106120437,
				"z": -2.2797073141,
				"element": "C" 
			},
			{
				"x": -2.2644245267,
				"y": -2.4005982933,
				"z": -1.0680508936,
				"element": "C" 
			},
			{
				"x": -3.4825383583,
				"y": -1.7239711024,
				"z": -1.0640406698,
				"element": "C" 
			},
			{
				"x": -4.0297331333,
				"y": -1.2396910295,
				"z": -2.2555923791,
				"element": "C" 
			},
			{
				"x": -3.3612207584,
				"y": -1.4621298954,
				"z": -3.4621885506,
				"element": "C" 
			},
			{
				"x": -2.1580954249,
				"y": -2.1662151867,
				"z": -3.4802973779,
				"element": "C" 
			},
			{
				"x": -0.661212809,
				"y": 2.1697260032,
				"z": 3.4153533103,
				"element": "H" 
			},
			{
				"x": -0.0443626326,
				"y": 3.564847183,
				"z": 1.4651752522,
				"element": "H" 
			},
			{
				"x": -0.3138679772,
				"y": 1.8220080924,
				"z": 1.2352349586,
				"element": "H" 
			},
			{
				"x": 2.3726562963,
				"y": 3.1063720047,
				"z": 1.902313489,
				"element": "H" 
			},
			{
				"x": 1.8431265216,
				"y": 2.7754197784,
				"z": 0.2564339127,
				"element": "H" 
			},
			{
				"x": 4.1030691194,
				"y": 0.1037264171,
				"z": 1.9605654461,
				"element": "H" 
			},
			{
				"x": 4.1014622057,
				"y": 1.8345902995,
				"z": 2.260367337,
				"element": "H" 
			},
			{
				"x": 4.0876336824,
				"y": 0.4356532616,
				"z": 4.3357483817,
				"element": "H" 
			},
			{
				"x": 2.4651566383,
				"y": -0.1407829815,
				"z": 3.9199678303,
				"element": "H" 
			},
			{
				"x": 1.7662541844,
				"y": 2.0322293968,
				"z": 4.1228584198,
				"element": "H" 
			},
			{
				"x": 2.8350588503,
				"y": -1.5397677384,
				"z": 1.8305060291,
				"element": "H" 
			},
			{
				"x": 2.0844207322,
				"y": -3.3713271934,
				"z": 0.3842282896,
				"element": "H" 
			},
			{
				"x": -0.0464166502,
				"y": -0.5886279779,
				"z": -2.0864967865,
				"element": "H" 
			},
			{
				"x": 0.7821783767,
				"y": 1.2537590513,
				"z": -0.7579002118,
				"element": "H" 
			},
			{
				"x": -1.8384134352,
				"y": -2.7779788881,
				"z": -0.1440887021,
				"element": "H" 
			},
			{
				"x": -4.0080744191,
				"y": -1.5743667539,
				"z": -0.1247412353,
				"element": "H" 
			},
			{
				"x": -4.9770991102,
				"y": -0.7089799051,
				"z": -2.2454911978,
				"element": "H" 
			},
			{
				"x": -3.7870430327,
				"y": -1.1028815421,
				"z": -4.3948763181,
				"element": "H" 
			},
			{
				"x": -1.6460155938,
				"y": -2.3774556606,
				"z": -4.4141399467,
				"element": "H" 
			}
		],
		 "valence_orbital": [ 
			{
				"type": "occ",
				"energy": -0.25637,
				"method": "rhf"
			},
			{
				"type": "occ",
				"energy": -0.25272,
				"method": "rhf"
			},
			{
				"type": "occ",
				"energy": -0.24811,
				"method": "rhf"
			},
			{
				"type": "occ",
				"energy": -0.21483,
				"method": "rhf"
			},
			{
				"type": "occ",
				"energy": -0.18872,
				"method": "rhf"
			},
			{
				"type": "unocc",
				"energy": -0.06192,
				"method": "rhf"
			},
			{
				"type": "unocc",
				"energy": -0.01233,
				"method": "rhf"
			},
			{
				"type": "unocc",
				"energy": -0.00055,
				"method": "rhf"
			},
			{
				"type": "unocc",
				"energy": 0.00752,
				"method": "rhf"
			},
			{
				"type": "unocc",
				"energy": 0.03475,
				"method": "rhf"
			}
		],
		"cosmo_sigma_profile": { 
			"-0.025": 0.0,
			"-0.024": 0.0,
			"-0.023": 0.0,
			"-0.022": 0.0,
			"-0.021": 0.0,
			"-0.02": 0.0,
			"-0.019": 0.0,
			"-0.018": 0.0,
			"-0.017": 0.578417836684,
			"-0.016": 1.09687824836,
			"-0.015": 1.30637088003,
			"-0.014": 0.740152905673,
			"-0.013": 0.955156620829,
			"-0.012": 0.949931594934,
			"-0.011": 0.739439475935,
			"-0.01": 0.915171897559,
			"-0.009": 0.519670353177,
			"-0.008": 2.0688981966,
			"-0.007": 4.74444158793,
			"-0.006": 16.017703926,
			"-0.005": 29.4140524131,
			"-0.004": 37.5323746531,
			"-0.003": 32.5812364196,
			"-0.002": 24.7745928744,
			"-0.001": 20.8478325748,
			"0.0": 18.2763786952,
			"0.001": 17.3153742884,
			"0.002": 18.7699526338,
			"0.003": 18.5658814011,
			"0.004": 24.145594473,
			"0.005": 21.1199450034,
			"0.006": 6.60964438993,
			"0.007": 3.15684355568,
			"0.008": 2.42727516455,
			"0.009": 3.57554894517,
			"0.01": 3.86179603692,
			"0.011": 3.50785123639,
			"0.012": 2.96749956324,
			"0.013": 4.3824293372,
			"0.014": 3.28526699422,
			"0.015": 3.96813713129,
			"0.016": 0.547700876838,
			"0.017": 0.0,
			"0.018": 0.0,
			"0.019": 0.0,
			"0.02": 0.0,
			"0.021": 0.0,
			"0.022": 0.0,
			"0.023": 0.0,
			"0.024": 0.0,
			"0.025": 0.0
		}
	}
}
