{
	 "smiles": "CC1=C(C=CC=C1)C(=O)C=O", 
	 "Tm": 337.15, 
	 "num_atms": 19, 
	 "gaussian": { 
		 "optdone": 1, 
		 "sigma_profile": "yes", 
		 "theory": "DFT", 
		 "functional": "B3LYP", 
		 "basiset": "6-31G**", 
		 "properties": { 
			 "R2extent": 2055.6332, 
			 "electric_dipole_moment_norm": 2.26592721419, 
			 "electric_quadrupole_moment_norm": 10.7785811065, 
			 "total_energy": -498.19968524, 
			 "HOMO_LUMO_gap": 0.15373, 
			 "cosmo_polarized_energy": -7.84, 
			 "cosmo_cavitation_energy": 23.34, 
			 "cosmo_dispersion_energy": -16.85, 
			 "cosmo_repulsion_energy": 1.35, 
			 "cosmo_total_nonelectrostatic_energy": 7.83, 
			 "SMD_solvation_energy": 5.63 
		},
		"coords": [
			{
				"x": 0.2580125726,
				"y": 1.0426689309,
				"z": -1.6936784621,
				"element": "C" 
			},
			{
				"x": -1.0574247646,
				"y": 0.9812581757,
				"z": -0.9490325057,
				"element": "C" 
			},
			{
				"x": -1.1634171637,
				"y": 0.8256870757,
				"z": 0.4534581445,
				"element": "C" 
			},
			{
				"x": -2.4259977917,
				"y": 0.857291897,
				"z": 1.07329461,
				"element": "C" 
			},
			{
				"x": -3.5900821147,
				"y": 0.9881671001,
				"z": 0.3263112167,
				"element": "C" 
			},
			{
				"x": -3.4957181744,
				"y": 1.1202102835,
				"z": -1.0600272777,
				"element": "C" 
			},
			{
				"x": -2.2452680072,
				"y": 1.1301860464,
				"z": -1.6768375629,
				"element": "C" 
			},
			{
				"x": -0.0080312464,
				"y": 0.6682800691,
				"z": 1.379212028,
				"element": "C" 
			},
			{
				"x": -0.0174346185,
				"y": 1.0818850365,
				"z": 2.5309196557,
				"element": "O" 
			},
			{
				"x": 1.22040087,
				"y": -0.1887655861,
				"z": 1.0342372924,
				"element": "C" 
			},
			{
				"x": 1.2289614488,
				"y": -1.0840750619,
				"z": 0.2217042532,
				"element": "O" 
			},
			{
				"x": 0.1193527571,
				"y": 1.5295163996,
				"z": -2.6625018175,
				"element": "H" 
			},
			{
				"x": 1.0188236117,
				"y": 1.6093960731,
				"z": -1.1481210169,
				"element": "H" 
			},
			{
				"x": 0.6620708737,
				"y": 0.0417018463,
				"z": -1.8676148474,
				"element": "H" 
			},
			{
				"x": -2.4669893344,
				"y": 0.7672836668,
				"z": 2.1537912478,
				"element": "H" 
			},
			{
				"x": -4.5581272599,
				"y": 0.9929787795,
				"z": 0.8176715369,
				"element": "H" 
			},
			{
				"x": -4.3935433335,
				"y": 1.2293985475,
				"z": -1.6618346902,
				"element": "H" 
			},
			{
				"x": -2.182827205,
				"y": 1.2662299244,
				"z": -2.7532633382,
				"element": "H" 
			},
			{
				"x": 2.0717388803,
				"y": 0.0222007959,
				"z": 1.7147115338,
				"element": "H" 
			}
		],
		 "valence_orbital": [ 
			{
				"type": "occ",
				"energy": -0.35287,
				"method": "rhf"
			},
			{
				"type": "occ",
				"energy": -0.31185,
				"method": "rhf"
			},
			{
				"type": "occ",
				"energy": -0.2645,
				"method": "rhf"
			},
			{
				"type": "occ",
				"energy": -0.25588,
				"method": "rhf"
			},
			{
				"type": "occ",
				"energy": -0.25183,
				"method": "rhf"
			},
			{
				"type": "unocc",
				"energy": -0.0981,
				"method": "rhf"
			},
			{
				"type": "unocc",
				"energy": -0.02881,
				"method": "rhf"
			},
			{
				"type": "unocc",
				"energy": -0.01113,
				"method": "rhf"
			},
			{
				"type": "unocc",
				"energy": 0.04732,
				"method": "rhf"
			},
			{
				"type": "unocc",
				"energy": 0.09071,
				"method": "rhf"
			}
		],
		"cosmo_sigma_profile": { 
			"-0.025": 0.0,
			"-0.024": 0.0,
			"-0.023": 0.0,
			"-0.022": 0.0,
			"-0.021": 0.0,
			"-0.02": 0.0,
			"-0.019": 0.0,
			"-0.018": 0.0,
			"-0.017": 0.0,
			"-0.016": 0.0,
			"-0.015": 0.0,
			"-0.014": 0.0,
			"-0.013": 0.0,
			"-0.012": 0.0,
			"-0.011": 0.0,
			"-0.01": 0.00336394008342,
			"-0.009": 0.732404782717,
			"-0.008": 3.12110463472,
			"-0.007": 6.32588949792,
			"-0.006": 12.9199820904,
			"-0.005": 15.7244513544,
			"-0.004": 14.7748321842,
			"-0.003": 13.0437428799,
			"-0.002": 13.9481588032,
			"-0.001": 14.3761653454,
			"0.0": 13.0546484103,
			"0.001": 10.3291890703,
			"0.002": 10.8712497343,
			"0.003": 13.4020775206,
			"0.004": 13.551580514,
			"0.005": 4.4093154157,
			"0.006": 4.34897371258,
			"0.007": 3.09649570838,
			"0.008": 4.42069944701,
			"0.009": 5.898839463,
			"0.01": 5.96712421581,
			"0.011": 2.42098702053,
			"0.012": 0.0182411264435,
			"0.013": 0.0,
			"0.014": 0.0,
			"0.015": 0.0,
			"0.016": 0.0,
			"0.017": 0.0,
			"0.018": 0.0,
			"0.019": 0.0,
			"0.02": 0.0,
			"0.021": 0.0,
			"0.022": 0.0,
			"0.023": 0.0,
			"0.024": 0.0,
			"0.025": 0.0
		}
	}
}
