{
	 "smiles": "O=S(=O)(NC1CCCNC1)C1=CC=CC=C1", 
	 "Tm": 407.15, 
	 "num_atms": 32, 
	 "gaussian": { 
		 "optdone": 1, 
		 "sigma_profile": "yes", 
		 "theory": "DFT", 
		 "functional": "B3LYP", 
		 "basiset": "6-31G**", 
		 "properties": { 
			 "R2extent": 5930.4054, 
			 "electric_dipole_moment_norm": 5.61075316602, 
			 "electric_quadrupole_moment_norm": 22.0666440555, 
			 "total_energy": -1086.86984669, 
			 "HOMO_LUMO_gap": 0.15759, 
			 "cosmo_polarized_energy": -16.4, 
			 "cosmo_cavitation_energy": 34.33, 
			 "cosmo_dispersion_energy": -25.12, 
			 "cosmo_repulsion_energy": 1.9, 
			 "cosmo_total_nonelectrostatic_energy": 11.11, 
			 "SMD_solvation_energy": 1.71 
		},
		"coords": [
			{
				"x": 3.1337152792,
				"y": -0.0987782066,
				"z": -0.2866369028,
				"element": "O" 
			},
			{
				"x": 2.2746365667,
				"y": -1.2658108934,
				"z": -0.0453497819,
				"element": "S" 
			},
			{
				"x": 2.4057204235,
				"y": -2.0120487001,
				"z": 1.216434178,
				"element": "O" 
			},
			{
				"x": 0.6643596746,
				"y": -0.7683305412,
				"z": -0.3093520258,
				"element": "N" 
			},
			{
				"x": 0.0085096227,
				"y": -0.0000835657,
				"z": 0.7915452621,
				"element": "C" 
			},
			{
				"x": -1.4473964627,
				"y": 0.2981170602,
				"z": 0.3478348131,
				"element": "C" 
			},
			{
				"x": -1.5891794919,
				"y": 1.6981668721,
				"z": -0.2929373051,
				"element": "C" 
			},
			{
				"x": -0.3245992035,
				"y": 2.1049235629,
				"z": -1.0547683567,
				"element": "C" 
			},
			{
				"x": 0.8235760756,
				"y": 2.1975882432,
				"z": -0.1342272124,
				"element": "N" 
			},
			{
				"x": 0.729911387,
				"y": 1.3377588918,
				"z": 1.0442798185,
				"element": "C" 
			},
			{
				"x": 2.4547011636,
				"y": -2.4195310592,
				"z": -1.4085797483,
				"element": "C" 
			},
			{
				"x": 2.6268018635,
				"y": -1.9232231905,
				"z": -2.7033176064,
				"element": "C" 
			},
			{
				"x": 2.7761361843,
				"y": -2.8266005375,
				"z": -3.754470794,
				"element": "C" 
			},
			{
				"x": 2.760854515,
				"y": -4.2021208894,
				"z": -3.5044551467,
				"element": "C" 
			},
			{
				"x": 2.6004274011,
				"y": -4.6827299767,
				"z": -2.2032248928,
				"element": "C" 
			},
			{
				"x": 2.4470911004,
				"y": -3.7893270306,
				"z": -1.141530189,
				"element": "C" 
			},
			{
				"x": 0.1279608732,
				"y": -1.6144401481,
				"z": -0.5022180649,
				"element": "H" 
			},
			{
				"x": 0.0105971663,
				"y": -0.5954529792,
				"z": 1.7147338858,
				"element": "H" 
			},
			{
				"x": -1.781625803,
				"y": -0.4740220295,
				"z": -0.356675049,
				"element": "H" 
			},
			{
				"x": -2.1050028557,
				"y": 0.221610624,
				"z": 1.2206222164,
				"element": "H" 
			},
			{
				"x": -2.4532479093,
				"y": 1.7191251069,
				"z": -0.9650940055,
				"element": "H" 
			},
			{
				"x": -1.7836715803,
				"y": 2.4450972842,
				"z": 0.4858477265,
				"element": "H" 
			},
			{
				"x": -0.4799941269,
				"y": 3.0788736559,
				"z": -1.5375490808,
				"element": "H" 
			},
			{
				"x": -0.1515501306,
				"y": 1.3701978189,
				"z": -1.8572547734,
				"element": "H" 
			},
			{
				"x": 1.6762234964,
				"y": 1.9547053365,
				"z": -0.6283295805,
				"element": "H" 
			},
			{
				"x": 1.7378599427,
				"y": 1.1788497017,
				"z": 1.4320263785,
				"element": "H" 
			},
			{
				"x": 0.1683327333,
				"y": 1.8437179136,
				"z": 1.8424642832,
				"element": "H" 
			},
			{
				"x": 2.6528166443,
				"y": -0.8526318134,
				"z": -2.8739796202,
				"element": "H" 
			},
			{
				"x": 2.9111597397,
				"y": -2.4582666355,
				"z": -4.7668281182,
				"element": "H" 
			},
			{
				"x": 2.881145958,
				"y": -4.9009674695,
				"z": -4.3270770597,
				"element": "H" 
			},
			{
				"x": 2.6006533232,
				"y": -5.7515425284,
				"z": -2.0123572019,
				"element": "H" 
			},
			{
				"x": 2.3369764298,
				"y": -4.1352238776,
				"z": -0.1193760464,
				"element": "H" 
			}
		],
		 "valence_orbital": [ 
			{
				"type": "occ",
				"energy": -0.29747,
				"method": "rhf"
			},
			{
				"type": "occ",
				"energy": -0.28065,
				"method": "rhf"
			},
			{
				"type": "occ",
				"energy": -0.27622,
				"method": "rhf"
			},
			{
				"type": "occ",
				"energy": -0.26295,
				"method": "rhf"
			},
			{
				"type": "occ",
				"energy": -0.20213,
				"method": "rhf"
			},
			{
				"type": "unocc",
				"energy": -0.04454,
				"method": "rhf"
			},
			{
				"type": "unocc",
				"energy": -0.02625,
				"method": "rhf"
			},
			{
				"type": "unocc",
				"energy": 0.0526,
				"method": "rhf"
			},
			{
				"type": "unocc",
				"energy": 0.06149,
				"method": "rhf"
			},
			{
				"type": "unocc",
				"energy": 0.08278,
				"method": "rhf"
			}
		],
		"cosmo_sigma_profile": { 
			"-0.025": 0.0,
			"-0.024": 0.0,
			"-0.023": 0.0,
			"-0.022": 0.0,
			"-0.021": 0.0,
			"-0.02": 0.0,
			"-0.019": 0.0,
			"-0.018": 0.0,
			"-0.017": 0.0,
			"-0.016": 0.0,
			"-0.015": 0.00777534880764,
			"-0.014": 0.755520300322,
			"-0.013": 1.17531538697,
			"-0.012": 1.28981657497,
			"-0.011": 1.36738039198,
			"-0.01": 1.2972716936,
			"-0.009": 1.17496027201,
			"-0.008": 1.62567139905,
			"-0.007": 9.13963904512,
			"-0.006": 12.6097604595,
			"-0.005": 13.012253513,
			"-0.004": 17.6710317508,
			"-0.003": 28.3318401473,
			"-0.002": 26.400410196,
			"-0.001": 25.7257482219,
			"0.0": 26.6733348067,
			"0.001": 17.8374336768,
			"0.002": 17.3550994398,
			"0.003": 16.4095040242,
			"0.004": 7.44215611143,
			"0.005": 4.70149908687,
			"0.006": 4.00654730826,
			"0.007": 4.11476819726,
			"0.008": 3.01644730131,
			"0.009": 4.5653676819,
			"0.01": 6.14191050824,
			"0.011": 7.60829125341,
			"0.012": 4.79516101284,
			"0.013": 0.422132202705,
			"0.014": 0.532167325019,
			"0.015": 0.564860653567,
			"0.016": 0.581209696289,
			"0.017": 0.751641917669,
			"0.018": 0.385171849442,
			"0.019": 0.351495915065,
			"0.02": 0.0,
			"0.021": 0.0,
			"0.022": 0.0,
			"0.023": 0.0,
			"0.024": 0.0,
			"0.025": 0.0
		}
	}
}
