{
	 "smiles": "OC(=O)CNC1=CC=C(C=C1)C#N", 
	 "Tm": 499.15, 
	 "num_atms": 21, 
	 "gaussian": { 
		 "optdone": 1, 
		 "sigma_profile": "yes", 
		 "theory": "DFT", 
		 "functional": "B3LYP", 
		 "basiset": "6-31G**", 
		 "properties": { 
			 "R2extent": 3917.5495, 
			 "electric_dipole_moment_norm": 6.09967317649, 
			 "electric_quadrupole_moment_norm": 32.0914023541, 
			 "total_energy": -607.722469823, 
			 "HOMO_LUMO_gap": 0.19202, 
			 "cosmo_polarized_energy": -23.31, 
			 "cosmo_cavitation_energy": 26.85, 
			 "cosmo_dispersion_energy": -18.94, 
			 "cosmo_repulsion_energy": 1.51, 
			 "cosmo_total_nonelectrostatic_energy": 9.42, 
			 "SMD_solvation_energy": 7.01 
		},
		"coords": [
			{
				"x": -1.1653430989,
				"y": 3.4635036733,
				"z": 1.1642258114,
				"element": "O" 
			},
			{
				"x": -0.3704218722,
				"y": 2.597446844,
				"z": 1.8158315306,
				"element": "C" 
			},
			{
				"x": -0.5539211419,
				"y": 2.2663633858,
				"z": 2.9603145495,
				"element": "O" 
			},
			{
				"x": 0.8270377617,
				"y": 2.0867304243,
				"z": 0.9948120619,
				"element": "C" 
			},
			{
				"x": 0.6783592933,
				"y": 2.315169859,
				"z": -0.4393312157,
				"element": "N" 
			},
			{
				"x": 0.0613572492,
				"y": 1.3580003595,
				"z": -1.2603855449,
				"element": "C" 
			},
			{
				"x": -0.8555263817,
				"y": 0.4241717006,
				"z": -0.7463944079,
				"element": "C" 
			},
			{
				"x": -1.4794537162,
				"y": -0.4831367015,
				"z": -1.5950914166,
				"element": "C" 
			},
			{
				"x": -1.2086659329,
				"y": -0.480384231,
				"z": -2.9726526042,
				"element": "C" 
			},
			{
				"x": -0.294749087,
				"y": 0.4575608282,
				"z": -3.4868858044,
				"element": "C" 
			},
			{
				"x": 0.329623672,
				"y": 1.3616061,
				"z": -2.6420768708,
				"element": "C" 
			},
			{
				"x": -1.8511168512,
				"y": -1.417891102,
				"z": -3.8428944729,
				"element": "C" 
			},
			{
				"x": -2.37109173,
				"y": -2.1794526152,
				"z": -4.5528873601,
				"element": "N" 
			},
			{
				"x": -0.819293357,
				"y": 3.5341907247,
				"z": 0.2528520867,
				"element": "H" 
			},
			{
				"x": 0.9845352051,
				"y": 1.0325376797,
				"z": 1.2475265551,
				"element": "H" 
			},
			{
				"x": 1.7053670568,
				"y": 2.6373667084,
				"z": 1.3455795157,
				"element": "H" 
			},
			{
				"x": 1.4843946625,
				"y": 2.745125013,
				"z": -0.8732571647,
				"element": "H" 
			},
			{
				"x": -1.0922925901,
				"y": 0.4032140076,
				"z": 0.3114722024,
				"element": "H" 
			},
			{
				"x": -2.1848559558,
				"y": -1.2007090418,
				"z": -1.1898070027,
				"element": "H" 
			},
			{
				"x": -0.0765429184,
				"y": 0.4668525349,
				"z": -4.5494712874,
				"element": "H" 
			},
			{
				"x": 1.0352997326,
				"y": 2.0807338486,
				"z": -3.0502791611,
				"element": "H" 
			}
		],
		 "valence_orbital": [ 
			{
				"type": "occ",
				"energy": -0.3246,
				"method": "rhf"
			},
			{
				"type": "occ",
				"energy": -0.32216,
				"method": "rhf"
			},
			{
				"type": "occ",
				"energy": -0.28617,
				"method": "rhf"
			},
			{
				"type": "occ",
				"energy": -0.28063,
				"method": "rhf"
			},
			{
				"type": "occ",
				"energy": -0.24174,
				"method": "rhf"
			},
			{
				"type": "unocc",
				"energy": -0.04972,
				"method": "rhf"
			},
			{
				"type": "unocc",
				"energy": -0.03542,
				"method": "rhf"
			},
			{
				"type": "unocc",
				"energy": -0.00334,
				"method": "rhf"
			},
			{
				"type": "unocc",
				"energy": 0.03524,
				"method": "rhf"
			},
			{
				"type": "unocc",
				"energy": 0.04622,
				"method": "rhf"
			}
		],
		"cosmo_sigma_profile": { 
			"-0.025": 0.0,
			"-0.024": 0.0,
			"-0.023": 0.0,
			"-0.022": 0.0,
			"-0.021": 0.0,
			"-0.02": 0.0,
			"-0.019": 0.0,
			"-0.018": 0.0,
			"-0.017": 0.0,
			"-0.016": 0.00944154349297,
			"-0.015": 1.16280034407,
			"-0.014": 1.84940809002,
			"-0.013": 2.36718269841,
			"-0.012": 2.60605255722,
			"-0.011": 2.47953523046,
			"-0.01": 3.80443190931,
			"-0.009": 6.63557713283,
			"-0.008": 7.27511155756,
			"-0.007": 13.8710590244,
			"-0.006": 13.5139513344,
			"-0.005": 12.7530900599,
			"-0.004": 10.278621433,
			"-0.003": 10.2679389921,
			"-0.002": 7.29948365077,
			"-0.001": 10.2685150118,
			"0.0": 11.2772362122,
			"0.001": 11.2063442465,
			"0.002": 13.2621875588,
			"0.003": 13.2959054744,
			"0.004": 4.32120467258,
			"0.005": 3.80837098154,
			"0.006": 4.64128365709,
			"0.007": 5.055196498,
			"0.008": 5.39549261691,
			"0.009": 7.64069042446,
			"0.01": 8.45213015654,
			"0.011": 7.47467617833,
			"0.012": 8.26229326858,
			"0.013": 4.36930622031,
			"0.014": 0.721668415808,
			"0.015": 0.0,
			"0.016": 0.0,
			"0.017": 0.0,
			"0.018": 0.0,
			"0.019": 0.0,
			"0.02": 0.0,
			"0.021": 0.0,
			"0.022": 0.0,
			"0.023": 0.0,
			"0.024": 0.0,
			"0.025": 0.0
		}
	}
}
