{
	 "smiles": "CSC1=C2N=CN(C3OC(CO)C(O)C3O)C2=NC=N1", 
	 "Tm": 437.15, 
	 "num_atms": 34, 
	 "gaussian": { 
		 "optdone": 1, 
		 "sigma_profile": "yes", 
		 "theory": "DFT", 
		 "functional": "B3LYP", 
		 "basiset": "6-31G**", 
		 "properties": { 
			 "R2extent": 7979.2829, 
			 "electric_dipole_moment_norm": 5.99267679506, 
			 "electric_quadrupole_moment_norm": 6.19027667072, 
			 "total_energy": -1345.66478615, 
			 "HOMO_LUMO_gap": 0.18055, 
			 "cosmo_polarized_energy": -21.88, 
			 "cosmo_cavitation_energy": 38.29, 
			 "cosmo_dispersion_energy": -28.34, 
			 "cosmo_repulsion_energy": 2.12, 
			 "cosmo_total_nonelectrostatic_energy": 12.07, 
			 "SMD_solvation_energy": 2.69 
		},
		"coords": [
			{
				"x": -0.3461781255,
				"y": -4.8192425325,
				"z": 3.0509784836,
				"element": "C" 
			},
			{
				"x": 0.1136250683,
				"y": -5.4291406447,
				"z": 1.3895167553,
				"element": "S" 
			},
			{
				"x": 0.006177229,
				"y": -4.021239931,
				"z": 0.331443281,
				"element": "C" 
			},
			{
				"x": -0.3663601226,
				"y": -2.7074694868,
				"z": 0.6708318598,
				"element": "C" 
			},
			{
				"x": -0.7543788607,
				"y": -2.074160145,
				"z": 1.8428405221,
				"element": "N" 
			},
			{
				"x": -0.9737172608,
				"y": -0.8317240565,
				"z": 1.4917446951,
				"element": "C" 
			},
			{
				"x": -0.7615139081,
				"y": -0.5846247776,
				"z": 0.1445682445,
				"element": "N" 
			},
			{
				"x": -0.8329329703,
				"y": 0.674231008,
				"z": -0.5820040901,
				"element": "C" 
			},
			{
				"x": 0.1146775125,
				"y": 1.5942898728,
				"z": -0.063126285,
				"element": "O" 
			},
			{
				"x": -0.5193246093,
				"y": 2.8229303302,
				"z": 0.3227308227,
				"element": "C" 
			},
			{
				"x": 0.1533933427,
				"y": 3.3149832121,
				"z": 1.6086017758,
				"element": "C" 
			},
			{
				"x": -0.6672594784,
				"y": 4.2550847946,
				"z": 2.3071062787,
				"element": "O" 
			},
			{
				"x": -2.017306721,
				"y": 2.4995565494,
				"z": 0.4948152574,
				"element": "C" 
			},
			{
				"x": -2.3327205598,
				"y": 2.0104278986,
				"z": 1.7883265665,
				"element": "O" 
			},
			{
				"x": -2.216631573,
				"y": 1.378093408,
				"z": -0.5283250444,
				"element": "C" 
			},
			{
				"x": -2.4993712088,
				"y": 2.0163097619,
				"z": -1.7640365122,
				"element": "O" 
			},
			{
				"x": -0.362674386,
				"y": -1.7892617914,
				"z": -0.4007107569,
				"element": "C" 
			},
			{
				"x": -0.053680727,
				"y": -2.0370301082,
				"z": -1.672259784,
				"element": "N" 
			},
			{
				"x": 0.28429139,
				"y": -3.3195158477,
				"z": -1.8563545284,
				"element": "C" 
			},
			{
				"x": 0.3279915012,
				"y": -4.2970754957,
				"z": -0.9433278249,
				"element": "N" 
			},
			{
				"x": 0.3413537778,
				"y": -4.0493500057,
				"z": 3.3986045982,
				"element": "H" 
			},
			{
				"x": -1.3626224985,
				"y": -4.4286472279,
				"z": 3.06749174,
				"element": "H" 
			},
			{
				"x": -0.2750666149,
				"y": -5.6988399763,
				"z": 3.6952674236,
				"element": "H" 
			},
			{
				"x": -1.3117785433,
				"y": -0.037902589,
				"z": 2.1437827069,
				"element": "H" 
			},
			{
				"x": -0.5765804787,
				"y": 0.4155595835,
				"z": -1.6153732809,
				"element": "H" 
			},
			{
				"x": -0.4066787033,
				"y": 3.5573782085,
				"z": -0.4888826884,
				"element": "H" 
			},
			{
				"x": 0.2759794286,
				"y": 2.4619527966,
				"z": 2.2785568111,
				"element": "H" 
			},
			{
				"x": 1.1493609127,
				"y": 3.7239754619,
				"z": 1.3995707425,
				"element": "H" 
			},
			{
				"x": -0.6974358933,
				"y": 5.0782316535,
				"z": 1.8024214978,
				"element": "H" 
			},
			{
				"x": -2.6495067371,
				"y": 3.3538571792,
				"z": 0.2267848123,
				"element": "H" 
			},
			{
				"x": -2.1439093477,
				"y": 2.7424106982,
				"z": 2.3979033077,
				"element": "H" 
			},
			{
				"x": -3.0146268192,
				"y": 0.692097534,
				"z": -0.2195758538,
				"element": "H" 
			},
			{
				"x": -2.5932481818,
				"y": 1.3380965087,
				"z": -2.4457319705,
				"element": "H" 
			},
			{
				"x": 0.5550541662,
				"y": -3.6058418437,
				"z": -2.8700795632,
				"element": "H" 
			}
		],
		 "valence_orbital": [ 
			{
				"type": "occ",
				"energy": -0.27922,
				"method": "rhf"
			},
			{
				"type": "occ",
				"energy": -0.26921,
				"method": "rhf"
			},
			{
				"type": "occ",
				"energy": -0.25982,
				"method": "rhf"
			},
			{
				"type": "occ",
				"energy": -0.24835,
				"method": "rhf"
			},
			{
				"type": "occ",
				"energy": -0.21754,
				"method": "rhf"
			},
			{
				"type": "unocc",
				"energy": -0.03699,
				"method": "rhf"
			},
			{
				"type": "unocc",
				"energy": -0.00288,
				"method": "rhf"
			},
			{
				"type": "unocc",
				"energy": 0.02667,
				"method": "rhf"
			},
			{
				"type": "unocc",
				"energy": 0.03153,
				"method": "rhf"
			},
			{
				"type": "unocc",
				"energy": 0.04652,
				"method": "rhf"
			}
		],
		"cosmo_sigma_profile": { 
			"-0.025": 0.0,
			"-0.024": 0.0,
			"-0.023": 0.0,
			"-0.022": 0.0,
			"-0.021": 0.0,
			"-0.02": 0.0,
			"-0.019": 0.0,
			"-0.018": 0.0,
			"-0.017": 1.17382538829,
			"-0.016": 2.37183645409,
			"-0.015": 2.47824871926,
			"-0.014": 2.59883891322,
			"-0.013": 1.79765801437,
			"-0.012": 1.95683924047,
			"-0.011": 1.81550901692,
			"-0.01": 1.92358205979,
			"-0.009": 3.56362549854,
			"-0.008": 4.28257348828,
			"-0.007": 8.99639304942,
			"-0.006": 13.5462612718,
			"-0.005": 20.0561404185,
			"-0.004": 19.168735045,
			"-0.003": 19.8351334772,
			"-0.002": 25.7465213641,
			"-0.001": 22.7800168317,
			"0.0": 21.627952246,
			"0.001": 14.9955682893,
			"0.002": 13.1797419591,
			"0.003": 13.6246905446,
			"0.004": 12.7607160747,
			"0.005": 12.6403204988,
			"0.006": 12.9539689779,
			"0.007": 11.5305943543,
			"0.008": 7.84952648546,
			"0.009": 6.13551994028,
			"0.01": 7.19895360596,
			"0.011": 6.6286995884,
			"0.012": 6.14672709821,
			"0.013": 2.27425575725,
			"0.014": 1.01438785826,
			"0.015": 0.155659174563,
			"0.016": 0.0,
			"0.017": 0.0,
			"0.018": 0.0,
			"0.019": 0.0,
			"0.02": 0.0,
			"0.021": 0.0,
			"0.022": 0.0,
			"0.023": 0.0,
			"0.024": 0.0,
			"0.025": 0.0
		}
	}
}
