{
	 "smiles": "FC1=CC2=C(CCCN2)C=C1", 
	 "Tm": 320.15, 
	 "num_atms": 21, 
	 "gaussian": { 
		 "optdone": 1, 
		 "sigma_profile": "yes", 
		 "theory": "DFT", 
		 "functional": "B3LYP", 
		 "basiset": "6-31G**", 
		 "properties": { 
			 "R2extent": 1968.6289, 
			 "electric_dipole_moment_norm": 2.96105400491, 
			 "electric_quadrupole_moment_norm": 8.14551024553, 
			 "total_energy": -503.581069109, 
			 "HOMO_LUMO_gap": 0.19814, 
			 "cosmo_polarized_energy": -6.36, 
			 "cosmo_cavitation_energy": 23.55, 
			 "cosmo_dispersion_energy": -17.87, 
			 "cosmo_repulsion_energy": 1.41, 
			 "cosmo_total_nonelectrostatic_energy": 7.08, 
			 "SMD_solvation_energy": 3.02 
		},
		"coords": [
			{
				"x": -3.7505736362,
				"y": -1.3617905596,
				"z": 0.1085237539,
				"element": "F" 
			},
			{
				"x": -2.4184939053,
				"y": -1.2399570518,
				"z": -0.0932574934,
				"element": "C" 
			},
			{
				"x": -1.8976004067,
				"y": 0.0272906561,
				"z": -0.2981522524,
				"element": "C" 
			},
			{
				"x": -0.5158569321,
				"y": 0.1798917756,
				"z": -0.5129427466,
				"element": "C" 
			},
			{
				"x": 0.3198431194,
				"y": -0.9625813823,
				"z": -0.5188061462,
				"element": "C" 
			},
			{
				"x": 1.8083997649,
				"y": -0.8168261898,
				"z": -0.7789686958,
				"element": "C" 
			},
			{
				"x": 2.2994938682,
				"y": 0.6127356877,
				"z": -0.5109833796,
				"element": "C" 
			},
			{
				"x": 1.3700147861,
				"y": 1.6216164164,
				"z": -1.188453917,
				"element": "C" 
			},
			{
				"x": 0.020365629,
				"y": 1.4544008642,
				"z": -0.6676671492,
				"element": "N" 
			},
			{
				"x": -0.2578818419,
				"y": -2.2144723217,
				"z": -0.2971890433,
				"element": "C" 
			},
			{
				"x": -1.6268245546,
				"y": -2.3823117003,
				"z": -0.0850675844,
				"element": "C" 
			},
			{
				"x": -2.5611012651,
				"y": 0.8865166641,
				"z": -0.2822308252,
				"element": "H" 
			},
			{
				"x": 2.0297826368,
				"y": -1.0810862733,
				"z": -1.8233684829,
				"element": "H" 
			},
			{
				"x": 2.3670802973,
				"y": -1.5304091197,
				"z": -0.1620973161,
				"element": "H" 
			},
			{
				"x": 2.307508108,
				"y": 0.8117594128,
				"z": 0.5668714696,
				"element": "H" 
			},
			{
				"x": 3.3223096683,
				"y": 0.7440996008,
				"z": -0.8793493247,
				"element": "H" 
			},
			{
				"x": 1.6938233223,
				"y": 2.6466899593,
				"z": -0.9789389474,
				"element": "H" 
			},
			{
				"x": 1.4133912467,
				"y": 1.4811032355,
				"z": -2.2828328414,
				"element": "H" 
			},
			{
				"x": -0.6433650785,
				"y": 2.1667433753,
				"z": -0.9358833615,
				"element": "H" 
			},
			{
				"x": 0.3872348352,
				"y": -3.0902776474,
				"z": -0.295042424,
				"element": "H" 
			},
			{
				"x": -2.0721496619,
				"y": -3.3556354018,
				"z": 0.0839367078,
				"element": "H" 
			}
		],
		 "valence_orbital": [ 
			{
				"type": "occ",
				"energy": -0.33165,
				"method": "rhf"
			},
			{
				"type": "occ",
				"energy": -0.32862,
				"method": "rhf"
			},
			{
				"type": "occ",
				"energy": -0.28836,
				"method": "rhf"
			},
			{
				"type": "occ",
				"energy": -0.23043,
				"method": "rhf"
			},
			{
				"type": "occ",
				"energy": -0.19192,
				"method": "rhf"
			},
			{
				"type": "unocc",
				"energy": 0.00622,
				"method": "rhf"
			},
			{
				"type": "unocc",
				"energy": 0.02269,
				"method": "rhf"
			},
			{
				"type": "unocc",
				"energy": 0.08033,
				"method": "rhf"
			},
			{
				"type": "unocc",
				"energy": 0.10522,
				"method": "rhf"
			},
			{
				"type": "unocc",
				"energy": 0.10867,
				"method": "rhf"
			}
		],
		"cosmo_sigma_profile": { 
			"-0.025": 0.0,
			"-0.024": 0.0,
			"-0.023": 0.0,
			"-0.022": 0.0,
			"-0.021": 0.0,
			"-0.02": 0.0,
			"-0.019": 0.0,
			"-0.018": 0.0,
			"-0.017": 0.0,
			"-0.016": 0.0,
			"-0.015": 0.0,
			"-0.014": 0.0,
			"-0.013": 0.194781992036,
			"-0.012": 1.40748597249,
			"-0.011": 1.47785007517,
			"-0.01": 0.911907586049,
			"-0.009": 1.52481794157,
			"-0.008": 2.04674290373,
			"-0.007": 2.14124662511,
			"-0.006": 3.91835204808,
			"-0.005": 6.31628406757,
			"-0.004": 10.7061409695,
			"-0.003": 20.2197196653,
			"-0.002": 22.5607957072,
			"-0.001": 20.5741943716,
			"0.0": 14.3661640063,
			"0.001": 8.65819978523,
			"0.002": 10.4455952873,
			"0.003": 11.0656177032,
			"0.004": 13.1548271802,
			"0.005": 19.6235720513,
			"0.006": 9.4792459881,
			"0.007": 2.42043458199,
			"0.008": 0.804539919732,
			"0.009": 0.35847194684,
			"0.01": 0.556460648052,
			"0.011": 0.766461662326,
			"0.012": 0.0700881070159,
			"0.013": 0.0,
			"0.014": 0.0,
			"0.015": 0.0,
			"0.016": 0.0,
			"0.017": 0.0,
			"0.018": 0.0,
			"0.019": 0.0,
			"0.02": 0.0,
			"0.021": 0.0,
			"0.022": 0.0,
			"0.023": 0.0,
			"0.024": 0.0,
			"0.025": 0.0
		}
	}
}
