{
	 "smiles": "CCCCCCCC(=O)NCCCC(O)=O", 
	 "Tm": 343.15, 
	 "num_atms": 39, 
	 "gaussian": { 
		 "optdone": 1, 
		 "sigma_profile": "yes", 
		 "theory": "DFT", 
		 "functional": "B3LYP", 
		 "basiset": "6-31G**", 
		 "properties": { 
			 "R2extent": 7714.6256, 
			 "electric_dipole_moment_norm": 4.04881576513, 
			 "electric_quadrupole_moment_norm": 17.5251245371, 
			 "total_energy": -751.621685132, 
			 "HOMO_LUMO_gap": 0.249, 
			 "cosmo_polarized_energy": -17.87, 
			 "cosmo_cavitation_energy": 41.18, 
			 "cosmo_dispersion_energy": -27.9, 
			 "cosmo_repulsion_energy": 2.28, 
			 "cosmo_total_nonelectrostatic_energy": 15.57, 
			 "SMD_solvation_energy": 7.11 
		},
		"coords": [
			{
				"x": 4.5987756494,
				"y": -1.7400463371,
				"z": -3.0132072489,
				"element": "C" 
			},
			{
				"x": 4.4079349401,
				"y": -1.7091679166,
				"z": -1.4919077,
				"element": "C" 
			},
			{
				"x": 3.2415221245,
				"y": -2.5691916521,
				"z": -0.9751337306,
				"element": "C" 
			},
			{
				"x": 1.85015607,
				"y": -2.0805716804,
				"z": -1.4042883248,
				"element": "C" 
			},
			{
				"x": 0.683920829,
				"y": -2.9584619014,
				"z": -0.9153097425,
				"element": "C" 
			},
			{
				"x": 0.4979183691,
				"y": -3.0619195741,
				"z": 0.6088752279,
				"element": "C" 
			},
			{
				"x": 0.2016627875,
				"y": -1.7310937129,
				"z": 1.3154538839,
				"element": "C" 
			},
			{
				"x": -1.1497121326,
				"y": -1.1435250207,
				"z": 0.9083464066,
				"element": "C" 
			},
			{
				"x": -2.1277375526,
				"y": -1.8456452016,
				"z": 0.6703116652,
				"element": "O" 
			},
			{
				"x": -1.2101008217,
				"y": 0.2227949915,
				"z": 0.8705384762,
				"element": "N" 
			},
			{
				"x": -2.4360942747,
				"y": 0.9280634691,
				"z": 0.5241527305,
				"element": "C" 
			},
			{
				"x": -2.6294979316,
				"y": 1.0888355921,
				"z": -0.9911400517,
				"element": "C" 
			},
			{
				"x": -3.9406539287,
				"y": 1.8018386624,
				"z": -1.3543317042,
				"element": "C" 
			},
			{
				"x": -4.063419876,
				"y": 3.2342113216,
				"z": -0.8748021643,
				"element": "C" 
			},
			{
				"x": -2.8939969145,
				"y": 3.9196858784,
				"z": -0.9837650425,
				"element": "O" 
			},
			{
				"x": -5.0764121569,
				"y": 3.7544273192,
				"z": -0.4638408727,
				"element": "O" 
			},
			{
				"x": 5.4729430796,
				"y": -1.1521149715,
				"z": -3.3120972446,
				"element": "H" 
			},
			{
				"x": 3.7331565171,
				"y": -1.3312279724,
				"z": -3.5442961179,
				"element": "H" 
			},
			{
				"x": 4.7512502286,
				"y": -2.7655212869,
				"z": -3.3697054398,
				"element": "H" 
			},
			{
				"x": 5.3341620459,
				"y": -2.0506922101,
				"z": -1.0122045711,
				"element": "H" 
			},
			{
				"x": 4.2636717923,
				"y": -0.670384092,
				"z": -1.1629406021,
				"element": "H" 
			},
			{
				"x": 3.2948220448,
				"y": -2.6020072718,
				"z": 0.1206095807,
				"element": "H" 
			},
			{
				"x": 3.3793141651,
				"y": -3.6061791591,
				"z": -1.3149979314,
				"element": "H" 
			},
			{
				"x": 1.8010915731,
				"y": -2.0365530337,
				"z": -2.4992419079,
				"element": "H" 
			},
			{
				"x": 1.7118967573,
				"y": -1.0444327894,
				"z": -1.0627459174,
				"element": "H" 
			},
			{
				"x": -0.2510851229,
				"y": -2.5880264816,
				"z": -1.3527822979,
				"element": "H" 
			},
			{
				"x": 0.8191101242,
				"y": -3.9736280413,
				"z": -1.3121840365,
				"element": "H" 
			},
			{
				"x": 1.3832839757,
				"y": -3.5140489276,
				"z": 1.0707598856,
				"element": "H" 
			},
			{
				"x": -0.3425676464,
				"y": -3.7340887191,
				"z": 0.8082461895,
				"element": "H" 
			},
			{
				"x": 1.0058843724,
				"y": -1.0030495322,
				"z": 1.15368318,
				"element": "H" 
			},
			{
				"x": 0.156857406,
				"y": -1.9026423411,
				"z": 2.3991779268,
				"element": "H" 
			},
			{
				"x": -0.3617672109,
				"y": 0.7537031332,
				"z": 0.9950445106,
				"element": "H" 
			},
			{
				"x": -2.4150059972,
				"y": 1.9074917884,
				"z": 1.0141277124,
				"element": "H" 
			},
			{
				"x": -3.269332099,
				"y": 0.3560064737,
				"z": 0.9424121821,
				"element": "H" 
			},
			{
				"x": -2.6356263413,
				"y": 0.0910391722,
				"z": -1.440740308,
				"element": "H" 
			},
			{
				"x": -1.7819064412,
				"y": 1.6372459152,
				"z": -1.4152456585,
				"element": "H" 
			},
			{
				"x": -4.811456834,
				"y": 1.2655778632,
				"z": -0.9674942735,
				"element": "H" 
			},
			{
				"x": -4.0456713596,
				"y": 1.8300037226,
				"z": -2.446813999,
				"element": "H" 
			},
			{
				"x": -3.09039021,
				"y": 4.8237945244,
				"z": -0.6852226699,
				"element": "H" 
			}
		],
		 "valence_orbital": [ 
			{
				"type": "occ",
				"energy": -0.31004,
				"method": "rhf"
			},
			{
				"type": "occ",
				"energy": -0.30372,
				"method": "rhf"
			},
			{
				"type": "occ",
				"energy": -0.27462,
				"method": "rhf"
			},
			{
				"type": "occ",
				"energy": -0.25212,
				"method": "rhf"
			},
			{
				"type": "occ",
				"energy": -0.24374,
				"method": "rhf"
			},
			{
				"type": "unocc",
				"energy": 0.00526,
				"method": "rhf"
			},
			{
				"type": "unocc",
				"energy": 0.02975,
				"method": "rhf"
			},
			{
				"type": "unocc",
				"energy": 0.06125,
				"method": "rhf"
			},
			{
				"type": "unocc",
				"energy": 0.06989,
				"method": "rhf"
			},
			{
				"type": "unocc",
				"energy": 0.0886,
				"method": "rhf"
			}
		],
		"cosmo_sigma_profile": { 
			"-0.025": 0.0,
			"-0.024": 0.0,
			"-0.023": 0.0,
			"-0.022": 0.0,
			"-0.021": 0.0,
			"-0.02": 0.0,
			"-0.019": 0.0,
			"-0.018": 0.597396867243,
			"-0.017": 0.673162713296,
			"-0.016": 1.14727975434,
			"-0.015": 1.00018406779,
			"-0.014": 0.858684020647,
			"-0.013": 1.79252340164,
			"-0.012": 2.07093214866,
			"-0.011": 2.70914225995,
			"-0.01": 1.97762346737,
			"-0.009": 1.47396409398,
			"-0.008": 2.27393007763,
			"-0.007": 3.65135525528,
			"-0.006": 5.51608661752,
			"-0.005": 12.947435641,
			"-0.004": 14.7018705658,
			"-0.003": 22.7333186595,
			"-0.002": 38.0716256758,
			"-0.001": 44.4553176405,
			"0.0": 43.6270659352,
			"0.001": 39.6644483595,
			"0.002": 19.0668168625,
			"0.003": 5.87490100532,
			"0.004": 4.16630273113,
			"0.005": 4.99615406532,
			"0.006": 3.94842367881,
			"0.007": 4.67219106618,
			"0.008": 4.78076827671,
			"0.009": 4.25499648258,
			"0.01": 3.16117612577,
			"0.011": 4.64491814538,
			"0.012": 6.79101716082,
			"0.013": 3.12141922815,
			"0.014": 4.21937860503,
			"0.015": 2.35689823276,
			"0.016": 0.0,
			"0.017": 0.0,
			"0.018": 0.0,
			"0.019": 0.0,
			"0.02": 0.0,
			"0.021": 0.0,
			"0.022": 0.0,
			"0.023": 0.0,
			"0.024": 0.0,
			"0.025": 0.0
		}
	}
}
