{
	 "smiles": "CN1CCOC2=C1N=CC(Br)=C2", 
	 "Tm": 351.15, 
	 "num_atms": 21, 
	 "gaussian": { 
		 "optdone": 1, 
		 "sigma_profile": "yes", 
		 "theory": "DFT", 
		 "functional": "B3LYP", 
		 "basiset": "6-31G**", 
		 "properties": { 
			 "R2extent": 3996.0976, 
			 "electric_dipole_moment_norm": 4.14581056248, 
			 "electric_quadrupole_moment_norm": 6.75311189749, 
			 "total_energy": -3066.3941384, 
			 "HOMO_LUMO_gap": 0.17855, 
			 "cosmo_polarized_energy": -7.77, 
			 "cosmo_cavitation_energy": 26.13, 
			 "cosmo_dispersion_energy": -20.29, 
			 "cosmo_repulsion_energy": 1.61, 
			 "cosmo_total_nonelectrostatic_energy": 7.45, 
			 "SMD_solvation_energy": 1.75 
		},
		"coords": [
			{
				"x": -0.9493442836,
				"y": 0.0621985007,
				"z": -2.599758157,
				"element": "C" 
			},
			{
				"x": -0.6849018625,
				"y": 0.9690865031,
				"z": -1.4945151563,
				"element": "N" 
			},
			{
				"x": -0.429382026,
				"y": 2.3637206432,
				"z": -1.8131458902,
				"element": "C" 
			},
			{
				"x": -0.5469670338,
				"y": 3.197622687,
				"z": -0.5434695921,
				"element": "C" 
			},
			{
				"x": 0.3812635905,
				"y": 2.7537469929,
				"z": 0.4488687849,
				"element": "O" 
			},
			{
				"x": 0.419390079,
				"y": 1.3965330388,
				"z": 0.6275635661,
				"element": "C" 
			},
			{
				"x": -0.0855827037,
				"y": 0.4833593532,
				"z": -0.3404568163,
				"element": "C" 
			},
			{
				"x": -0.012702547,
				"y": -0.8364253573,
				"z": -0.155360686,
				"element": "N" 
			},
			{
				"x": 0.5377671275,
				"y": -1.3192353111,
				"z": 0.9664392723,
				"element": "C" 
			},
			{
				"x": 1.0543335174,
				"y": -0.4902169466,
				"z": 1.9521899252,
				"element": "C" 
			},
			{
				"x": 1.8428798644,
				"y": -1.2357833239,
				"z": 3.5231496051,
				"element": "Br" 
			},
			{
				"x": 0.9937486812,
				"y": 0.8963177339,
				"z": 1.784020883,
				"element": "C" 
			},
			{
				"x": -1.7091958175,
				"y": 0.5083157037,
				"z": -3.2486108588,
				"element": "H" 
			},
			{
				"x": -0.0500570312,
				"y": -0.1431473976,
				"z": -3.2011464143,
				"element": "H" 
			},
			{
				"x": -1.3165479452,
				"y": -0.8853068654,
				"z": -2.2078071462,
				"element": "H" 
			},
			{
				"x": 0.5668144101,
				"y": 2.5123816665,
				"z": -2.2630409399,
				"element": "H" 
			},
			{
				"x": -1.1748528474,
				"y": 2.7037493446,
				"z": -2.540911656,
				"element": "H" 
			},
			{
				"x": -1.5690163883,
				"y": 3.1349799965,
				"z": -0.1476972344,
				"element": "H" 
			},
			{
				"x": -0.3031976832,
				"y": 4.2448358197,
				"z": -0.7353800071,
				"element": "H" 
			},
			{
				"x": 0.5734584834,
				"y": -2.3998462566,
				"z": 1.0708178669,
				"element": "H" 
			},
			{
				"x": 1.3820924158,
				"y": 1.5823134746,
				"z": 2.5275506514,
				"element": "H" 
			}
		],
		 "valence_orbital": [ 
			{
				"type": "occ",
				"energy": -0.28503,
				"method": "rhf"
			},
			{
				"type": "occ",
				"energy": -0.27424,
				"method": "rhf"
			},
			{
				"type": "occ",
				"energy": -0.26,
				"method": "rhf"
			},
			{
				"type": "occ",
				"energy": -0.25363,
				"method": "rhf"
			},
			{
				"type": "occ",
				"energy": -0.19692,
				"method": "rhf"
			},
			{
				"type": "unocc",
				"energy": -0.01837,
				"method": "rhf"
			},
			{
				"type": "unocc",
				"energy": 0.00317,
				"method": "rhf"
			},
			{
				"type": "unocc",
				"energy": 0.01374,
				"method": "rhf"
			},
			{
				"type": "unocc",
				"energy": 0.08153,
				"method": "rhf"
			},
			{
				"type": "unocc",
				"energy": 0.10731,
				"method": "rhf"
			}
		],
		"cosmo_sigma_profile": { 
			"-0.025": 0.0,
			"-0.024": 0.0,
			"-0.023": 0.0,
			"-0.022": 0.0,
			"-0.021": 0.0,
			"-0.02": 0.0,
			"-0.019": 0.0,
			"-0.018": 0.0,
			"-0.017": 0.0,
			"-0.016": 0.0,
			"-0.015": 0.0,
			"-0.014": 0.0,
			"-0.013": 0.0,
			"-0.012": 0.0,
			"-0.011": 0.0,
			"-0.01": 0.0,
			"-0.009": 0.0,
			"-0.008": 0.684420170704,
			"-0.007": 4.05134177977,
			"-0.006": 12.3411303328,
			"-0.005": 15.8215907439,
			"-0.004": 19.3360952952,
			"-0.003": 19.8699598336,
			"-0.002": 16.2895772718,
			"-0.001": 15.0359330353,
			"0.0": 11.8873538944,
			"0.001": 13.7691445342,
			"0.002": 22.2141841034,
			"0.003": 14.2720075868,
			"0.004": 14.9947437143,
			"0.005": 13.2769260914,
			"0.006": 3.46430781024,
			"0.007": 3.20931018151,
			"0.008": 3.19692745789,
			"0.009": 2.56537651589,
			"0.01": 2.51023323994,
			"0.011": 1.26738402163,
			"0.012": 0.879207673975,
			"0.013": 0.0817685082542,
			"0.014": 0.0,
			"0.015": 0.0,
			"0.016": 0.0,
			"0.017": 0.0,
			"0.018": 0.0,
			"0.019": 0.0,
			"0.02": 0.0,
			"0.021": 0.0,
			"0.022": 0.0,
			"0.023": 0.0,
			"0.024": 0.0,
			"0.025": 0.0
		}
	}
}
