{
	 "smiles": "ClC1=CC(Cl)=C(CC#N)C=C1", 
	 "Tm": 334.65, 
	 "num_atms": 16, 
	 "gaussian": { 
		 "optdone": 1, 
		 "sigma_profile": "yes", 
		 "theory": "DFT", 
		 "functional": "B3LYP", 
		 "basiset": "6-31G**", 
		 "properties": { 
			 "R2extent": 3193.5258, 
			 "electric_dipole_moment_norm": 3.85995025486, 
			 "electric_quadrupole_moment_norm": 13.5523447071, 
			 "total_energy": -1282.98175511, 
			 "HOMO_LUMO_gap": 0.22244, 
			 "cosmo_polarized_energy": -11.04, 
			 "cosmo_cavitation_energy": 25.11, 
			 "cosmo_dispersion_energy": -17.88, 
			 "cosmo_repulsion_energy": 1.45, 
			 "cosmo_total_nonelectrostatic_energy": 8.68, 
			 "SMD_solvation_energy": 5.15 
		},
		"coords": [
			{
				"x": 4.1024570219,
				"y": 1.8078234664,
				"z": 1.2740295873,
				"element": "Cl" 
			},
			{
				"x": 2.5533991241,
				"y": 1.2119625389,
				"z": 0.7121552883,
				"element": "C" 
			},
			{
				"x": 2.5153886352,
				"y": 0.3450330371,
				"z": -0.3779382061,
				"element": "C" 
			},
			{
				"x": 1.278452149,
				"y": -0.1251797052,
				"z": -0.8180431448,
				"element": "C" 
			},
			{
				"x": 1.2586691183,
				"y": -1.2147576955,
				"z": -2.1942453395,
				"element": "Cl" 
			},
			{
				"x": 0.0801233211,
				"y": 0.246478845,
				"z": -0.1919522725,
				"element": "C" 
			},
			{
				"x": -1.2737864216,
				"y": -0.262140485,
				"z": -0.6583544061,
				"element": "C" 
			},
			{
				"x": -1.8066953588,
				"y": 0.4923857505,
				"z": -1.8015571015,
				"element": "C" 
			},
			{
				"x": -2.2319293346,
				"y": 1.0984703181,
				"z": -2.6949190833,
				"element": "N" 
			},
			{
				"x": 0.1642381871,
				"y": 1.1194387433,
				"z": 0.8989808724,
				"element": "C" 
			},
			{
				"x": 1.3844033837,
				"y": 1.6077930667,
				"z": 1.3598789279,
				"element": "C" 
			},
			{
				"x": 3.4267003746,
				"y": 0.0404329766,
				"z": -0.877235217,
				"element": "H" 
			},
			{
				"x": -1.2147748995,
				"y": -1.3176792983,
				"z": -0.9433375983,
				"element": "H" 
			},
			{
				"x": -1.9957661353,
				"y": -0.1888258613,
				"z": 0.1617368663,
				"element": "H" 
			},
			{
				"x": -0.750404908,
				"y": 1.4249330151,
				"z": 1.39918613,
				"element": "H" 
			},
			{
				"x": 1.4291257427,
				"y": 2.2824312875,
				"z": 2.2068146968,
				"element": "H" 
			}
		],
		 "valence_orbital": [ 
			{
				"type": "occ",
				"energy": -0.33061,
				"method": "rhf"
			},
			{
				"type": "occ",
				"energy": -0.32829,
				"method": "rhf"
			},
			{
				"type": "occ",
				"energy": -0.32681,
				"method": "rhf"
			},
			{
				"type": "occ",
				"energy": -0.2776,
				"method": "rhf"
			},
			{
				"type": "occ",
				"energy": -0.26466,
				"method": "rhf"
			},
			{
				"type": "unocc",
				"energy": -0.04222,
				"method": "rhf"
			},
			{
				"type": "unocc",
				"energy": -0.04032,
				"method": "rhf"
			},
			{
				"type": "unocc",
				"energy": -0.00723,
				"method": "rhf"
			},
			{
				"type": "unocc",
				"energy": 0.03133,
				"method": "rhf"
			},
			{
				"type": "unocc",
				"energy": 0.03403,
				"method": "rhf"
			}
		],
		"cosmo_sigma_profile": { 
			"-0.025": 0.0,
			"-0.024": 0.0,
			"-0.023": 0.0,
			"-0.022": 0.0,
			"-0.021": 0.0,
			"-0.02": 0.0,
			"-0.019": 0.0,
			"-0.018": 0.0,
			"-0.017": 0.0,
			"-0.016": 0.0,
			"-0.015": 0.0,
			"-0.014": 0.0,
			"-0.013": 0.0,
			"-0.012": 0.0,
			"-0.011": 0.018181701538,
			"-0.01": 2.28051686367,
			"-0.009": 5.22175453834,
			"-0.008": 9.52432871679,
			"-0.007": 9.32276482616,
			"-0.006": 10.7490358524,
			"-0.005": 7.73770066827,
			"-0.004": 6.80976525677,
			"-0.003": 8.1513838767,
			"-0.002": 11.5430835485,
			"-0.001": 14.0179097385,
			"0.0": 20.8280407119,
			"0.001": 25.2120251956,
			"0.002": 17.3297266546,
			"0.003": 16.5634819567,
			"0.004": 16.1084994227,
			"0.005": 3.51518333216,
			"0.006": 2.60447731342,
			"0.007": 2.72252344659,
			"0.008": 3.36505558349,
			"0.009": 3.7116615425,
			"0.01": 3.03762793173,
			"0.011": 2.95038967056,
			"0.012": 2.2938175043,
			"0.013": 1.60518558178,
			"0.014": 0.100786387221,
			"0.015": 0.0,
			"0.016": 0.0,
			"0.017": 0.0,
			"0.018": 0.0,
			"0.019": 0.0,
			"0.02": 0.0,
			"0.021": 0.0,
			"0.022": 0.0,
			"0.023": 0.0,
			"0.024": 0.0,
			"0.025": 0.0
		}
	}
}
