{
	 "smiles": "ClCC(=O)NC1=CC=NC=C1", 
	 "Tm": 569.15, 
	 "num_atms": 18, 
	 "gaussian": { 
		 "optdone": 1, 
		 "sigma_profile": "yes", 
		 "theory": "DFT", 
		 "functional": "B3LYP", 
		 "basiset": "6-31G**", 
		 "properties": { 
			 "R2extent": 3902.6653, 
			 "electric_dipole_moment_norm": 2.8024533038, 
			 "electric_quadrupole_moment_norm": 3.50658046393, 
			 "total_energy": -915.895311301, 
			 "HOMO_LUMO_gap": 0.21485, 
			 "cosmo_polarized_energy": -12.62, 
			 "cosmo_cavitation_energy": 24.18, 
			 "cosmo_dispersion_energy": -18.21, 
			 "cosmo_repulsion_energy": 1.46, 
			 "cosmo_total_nonelectrostatic_energy": 7.44, 
			 "SMD_solvation_energy": 3.08 
		},
		"coords": [
			{
				"x": -0.2380160233,
				"y": -3.3877462069,
				"z": 3.6777364062,
				"element": "Cl" 
			},
			{
				"x": 0.1534039478,
				"y": -1.7964449592,
				"z": 4.4584014818,
				"element": "C" 
			},
			{
				"x": 0.4619609862,
				"y": -0.6162820362,
				"z": 3.5292967939,
				"element": "C" 
			},
			{
				"x": 0.723907947,
				"y": 0.4502461938,
				"z": 4.0636653352,
				"element": "O" 
			},
			{
				"x": 0.4182057302,
				"y": -0.855526427,
				"z": 2.1857781774,
				"element": "N" 
			},
			{
				"x": 0.6586983494,
				"y": 0.0481945308,
				"z": 1.1359631954,
				"element": "C" 
			},
			{
				"x": 0.5548084413,
				"y": -0.4300886203,
				"z": -0.1782338741,
				"element": "C" 
			},
			{
				"x": 0.7890293455,
				"y": 0.4483404939,
				"z": -1.2310697066,
				"element": "C" 
			},
			{
				"x": 1.1117286906,
				"y": 1.7387137646,
				"z": -1.0735334989,
				"element": "N" 
			},
			{
				"x": 1.2061023668,
				"y": 2.1766777206,
				"z": 0.1882097193,
				"element": "C" 
			},
			{
				"x": 0.9952525528,
				"y": 1.3953259753,
				"z": 1.324157507,
				"element": "C" 
			},
			{
				"x": 1.0196954798,
				"y": -1.9570447064,
				"z": 5.1005309084,
				"element": "H" 
			},
			{
				"x": -0.6999868365,
				"y": -1.523797687,
				"z": 5.0796591644,
				"element": "H" 
			},
			{
				"x": 0.1834270118,
				"y": -1.8019466867,
				"z": 1.9130141352,
				"element": "H" 
			},
			{
				"x": 0.2963473518,
				"y": -1.4669714272,
				"z": -0.3766368836,
				"element": "H" 
			},
			{
				"x": 0.7121786981,
				"y": 0.0919924163,
				"z": -2.2568266911,
				"element": "H" 
			},
			{
				"x": 1.4686088732,
				"y": 3.2261504939,
				"z": 0.3099849678,
				"element": "H" 
			},
			{
				"x": 1.0868470875,
				"y": 1.8091071678,
				"z": 2.3178028625,
				"element": "H" 
			}
		],
		 "valence_orbital": [ 
			{
				"type": "occ",
				"energy": -0.32204,
				"method": "rhf"
			},
			{
				"type": "occ",
				"energy": -0.28159,
				"method": "rhf"
			},
			{
				"type": "occ",
				"energy": -0.26685,
				"method": "rhf"
			},
			{
				"type": "occ",
				"energy": -0.2549,
				"method": "rhf"
			},
			{
				"type": "occ",
				"energy": -0.25469,
				"method": "rhf"
			},
			{
				"type": "unocc",
				"energy": -0.03984,
				"method": "rhf"
			},
			{
				"type": "unocc",
				"energy": -0.01486,
				"method": "rhf"
			},
			{
				"type": "unocc",
				"energy": -0.00071,
				"method": "rhf"
			},
			{
				"type": "unocc",
				"energy": 0.02244,
				"method": "rhf"
			},
			{
				"type": "unocc",
				"energy": 0.08004,
				"method": "rhf"
			}
		],
		"cosmo_sigma_profile": { 
			"-0.025": 0.0,
			"-0.024": 0.0,
			"-0.023": 0.0,
			"-0.022": 0.0,
			"-0.021": 0.0,
			"-0.02": 0.0,
			"-0.019": 0.0,
			"-0.018": 0.0,
			"-0.017": 0.0,
			"-0.016": 0.0,
			"-0.015": 0.0,
			"-0.014": 0.587027373813,
			"-0.013": 1.12956603303,
			"-0.012": 0.978664662581,
			"-0.011": 1.30200003908,
			"-0.01": 2.4764183832,
			"-0.009": 6.14505606212,
			"-0.008": 4.84412256756,
			"-0.007": 7.88078130843,
			"-0.006": 12.2452441038,
			"-0.005": 12.662124852,
			"-0.004": 9.23046766574,
			"-0.003": 9.231004786,
			"-0.002": 9.32389601202,
			"-0.001": 12.2662061403,
			"0.0": 12.2702520647,
			"0.001": 14.7846447868,
			"0.002": 20.3645358571,
			"0.003": 11.8062183628,
			"0.004": 9.35972913757,
			"0.005": 10.4882394267,
			"0.006": 3.29439010969,
			"0.007": 2.56125043859,
			"0.008": 3.59765849255,
			"0.009": 3.21549056106,
			"0.01": 2.83691540188,
			"0.011": 3.28570392208,
			"0.012": 2.956848899,
			"0.013": 1.96628928591,
			"0.014": 0.854469404615,
			"0.015": 0.913054626412,
			"0.016": 0.79281153288,
			"0.017": 0.640586555701,
			"0.018": 0.0374649973246,
			"0.019": 0.0,
			"0.02": 0.0,
			"0.021": 0.0,
			"0.022": 0.0,
			"0.023": 0.0,
			"0.024": 0.0,
			"0.025": 0.0
		}
	}
}
