{
	 "smiles": "ClC1=C(SC(=O)N1)C=O", 
	 "Tm": 473.15, 
	 "num_atms": 11, 
	 "gaussian": { 
		 "optdone": 1, 
		 "sigma_profile": "yes", 
		 "theory": "DFT", 
		 "functional": "B3LYP", 
		 "basiset": "6-31G**", 
		 "properties": { 
			 "R2extent": 2142.3956, 
			 "electric_dipole_moment_norm": 1.38188069311, 
			 "electric_quadrupole_moment_norm": 13.9109752717, 
			 "total_energy": -1217.18939792, 
			 "HOMO_LUMO_gap": 0.16505, 
			 "cosmo_polarized_energy": -13.22, 
			 "cosmo_cavitation_energy": 19.99, 
			 "cosmo_dispersion_energy": -15.47, 
			 "cosmo_repulsion_energy": 1.23, 
			 "cosmo_total_nonelectrostatic_energy": 5.75, 
			 "SMD_solvation_energy": 5.08 
		},
		"coords": [
			{
				"x": -2.44514107,
				"y": -0.1398049825,
				"z": 0.6447501858,
				"element": "Cl" 
			},
			{
				"x": -1.2700897643,
				"y": 0.1317201472,
				"z": -0.578246675,
				"element": "C" 
			},
			{
				"x": -0.740049544,
				"y": 1.3216091831,
				"z": -0.9770473017,
				"element": "C" 
			},
			{
				"x": 0.4407577075,
				"y": 1.0563266393,
				"z": -2.2829845751,
				"element": "S" 
			},
			{
				"x": 0.1656815065,
				"y": -0.7289580681,
				"z": -2.2434231057,
				"element": "C" 
			},
			{
				"x": 0.6956343865,
				"y": -1.5651647679,
				"z": -2.9321161888,
				"element": "O" 
			},
			{
				"x": -0.7887800074,
				"y": -0.9655752062,
				"z": -1.2522500536,
				"element": "N" 
			},
			{
				"x": -1.0295200075,
				"y": 2.6667368427,
				"z": -0.4736156627,
				"element": "C" 
			},
			{
				"x": -1.8230086627,
				"y": 2.9156292964,
				"z": 0.4147328737,
				"element": "O" 
			},
			{
				"x": -1.0910842854,
				"y": -1.9129088278,
				"z": -1.0632476267,
				"element": "H" 
			},
			{
				"x": -0.4532002593,
				"y": 3.4718897436,
				"z": -0.9764518702,
				"element": "H" 
			}
		],
		 "valence_orbital": [ 
			{
				"type": "occ",
				"energy": -0.34537,
				"method": "rhf"
			},
			{
				"type": "occ",
				"energy": -0.32337,
				"method": "rhf"
			},
			{
				"type": "occ",
				"energy": -0.30116,
				"method": "rhf"
			},
			{
				"type": "occ",
				"energy": -0.27015,
				"method": "rhf"
			},
			{
				"type": "occ",
				"energy": -0.24455,
				"method": "rhf"
			},
			{
				"type": "unocc",
				"energy": -0.0795,
				"method": "rhf"
			},
			{
				"type": "unocc",
				"energy": -0.03064,
				"method": "rhf"
			},
			{
				"type": "unocc",
				"energy": -0.00379,
				"method": "rhf"
			},
			{
				"type": "unocc",
				"energy": 0.00887,
				"method": "rhf"
			},
			{
				"type": "unocc",
				"energy": 0.05008,
				"method": "rhf"
			}
		],
		"cosmo_sigma_profile": { 
			"-0.025": 0.0,
			"-0.024": 0.0,
			"-0.023": 0.0,
			"-0.022": 0.0,
			"-0.021": 0.0,
			"-0.02": 0.0,
			"-0.019": 0.301936461974,
			"-0.018": 0.970730524007,
			"-0.017": 1.17025353018,
			"-0.016": 1.61108317455,
			"-0.015": 0.833390893246,
			"-0.014": 0.484041794213,
			"-0.013": 1.15144548659,
			"-0.012": 1.00018281949,
			"-0.011": 1.28538484868,
			"-0.01": 1.04572861686,
			"-0.009": 2.15391056329,
			"-0.008": 4.19105229533,
			"-0.007": 4.67523276302,
			"-0.006": 4.57742939615,
			"-0.005": 7.50617950187,
			"-0.004": 11.6604345296,
			"-0.003": 10.9562841892,
			"-0.002": 12.8282933208,
			"-0.001": 13.9385076254,
			"0.0": 13.3510357519,
			"0.001": 12.8048378423,
			"0.002": 9.50400578952,
			"0.003": 6.35160503277,
			"0.004": 4.03154209414,
			"0.005": 4.05703019672,
			"0.006": 2.84628820781,
			"0.007": 2.3126289305,
			"0.008": 4.2151835787,
			"0.009": 4.20151997947,
			"0.01": 7.21342194474,
			"0.011": 10.1828170911,
			"0.012": 2.28374693386,
			"0.013": 0.211973118087,
			"0.014": 0.0,
			"0.015": 0.0,
			"0.016": 0.0,
			"0.017": 0.0,
			"0.018": 0.0,
			"0.019": 0.0,
			"0.02": 0.0,
			"0.021": 0.0,
			"0.022": 0.0,
			"0.023": 0.0,
			"0.024": 0.0,
			"0.025": 0.0
		}
	}
}
