{
	 "smiles": "FC1=CC=C(C=C1)C(=O)C1=NC=CN=C1", 
	 "Tm": 329.15, 
	 "num_atms": 22, 
	 "gaussian": { 
		 "optdone": 1, 
		 "sigma_profile": "yes", 
		 "theory": "DFT", 
		 "functional": "B3LYP", 
		 "basiset": "6-31G**", 
		 "properties": { 
			 "R2extent": 4071.3399, 
			 "electric_dipole_moment_norm": 2.56945484296, 
			 "electric_quadrupole_moment_norm": 12.960373544, 
			 "total_energy": -707.931549694, 
			 "HOMO_LUMO_gap": 0.16022, 
			 "cosmo_polarized_energy": -8.9, 
			 "cosmo_cavitation_energy": 27.85, 
			 "cosmo_dispersion_energy": -20.41, 
			 "cosmo_repulsion_energy": 1.53, 
			 "cosmo_total_nonelectrostatic_energy": 8.97, 
			 "SMD_solvation_energy": 3.8 
		},
		"coords": [
			{
				"x": 4.097477711,
				"y": -2.0872994829,
				"z": -2.7997456422,
				"element": "F" 
			},
			{
				"x": 3.0926557902,
				"y": -1.3492397977,
				"z": -2.2942090731,
				"element": "C" 
			},
			{
				"x": 2.4329630913,
				"y": -0.4492080966,
				"z": -3.1282649635,
				"element": "C" 
			},
			{
				"x": 1.3953803524,
				"y": 0.304811489,
				"z": -2.5973622174,
				"element": "C" 
			},
			{
				"x": 1.019684026,
				"y": 0.1791386694,
				"z": -1.2453890604,
				"element": "C" 
			},
			{
				"x": 1.7084617279,
				"y": -0.740657025,
				"z": -0.4337308356,
				"element": "C" 
			},
			{
				"x": 2.7453357116,
				"y": -1.5093954809,
				"z": -0.9575057788,
				"element": "C" 
			},
			{
				"x": -0.1355731762,
				"y": 1.0161528256,
				"z": -0.803874052,
				"element": "C" 
			},
			{
				"x": -0.8063066406,
				"y": 1.6282679223,
				"z": -1.6306433136,
				"element": "O" 
			},
			{
				"x": -0.5460958251,
				"y": 1.1591485663,
				"z": 0.6461754949,
				"element": "C" 
			},
			{
				"x": 0.2882310839,
				"y": 0.8296941028,
				"z": 1.6426612606,
				"element": "N" 
			},
			{
				"x": -0.1461878611,
				"y": 1.0423787369,
				"z": 2.887917976,
				"element": "C" 
			},
			{
				"x": -1.4104534946,
				"y": 1.5749678102,
				"z": 3.1457773702,
				"element": "C" 
			},
			{
				"x": -2.2568010401,
				"y": 1.8998076071,
				"z": 2.1608933025,
				"element": "N" 
			},
			{
				"x": -1.8178898274,
				"y": 1.6958763368,
				"z": 0.9166066701,
				"element": "C" 
			},
			{
				"x": 2.736103236,
				"y": -0.3570722364,
				"z": -4.1654761761,
				"element": "H" 
			},
			{
				"x": 0.8499130512,
				"y": 1.0072583352,
				"z": -3.2174266174,
				"element": "H" 
			},
			{
				"x": 1.4415893552,
				"y": -0.8433623992,
				"z": 0.6086160335,
				"element": "H" 
			},
			{
				"x": 3.2847951806,
				"y": -2.2252349343,
				"z": -0.3470535006,
				"element": "H" 
			},
			{
				"x": 0.5294840605,
				"y": 0.7830786058,
				"z": 3.7000934598,
				"element": "H" 
			},
			{
				"x": -1.7483053732,
				"y": 1.7423542933,
				"z": 4.1663270547,
				"element": "H" 
			},
			{
				"x": -2.4767611396,
				"y": 1.9591341522,
				"z": 0.0955126083,
				"element": "H" 
			}
		],
		 "valence_orbital": [ 
			{
				"type": "occ",
				"energy": -0.28784,
				"method": "rhf"
			},
			{
				"type": "occ",
				"energy": -0.27908,
				"method": "rhf"
			},
			{
				"type": "occ",
				"energy": -0.26897,
				"method": "rhf"
			},
			{
				"type": "occ",
				"energy": -0.25609,
				"method": "rhf"
			},
			{
				"type": "occ",
				"energy": -0.24883,
				"method": "rhf"
			},
			{
				"type": "unocc",
				"energy": -0.08861,
				"method": "rhf"
			},
			{
				"type": "unocc",
				"energy": -0.05737,
				"method": "rhf"
			},
			{
				"type": "unocc",
				"energy": -0.02547,
				"method": "rhf"
			},
			{
				"type": "unocc",
				"energy": -0.01692,
				"method": "rhf"
			},
			{
				"type": "unocc",
				"energy": 0.0471,
				"method": "rhf"
			}
		],
		"cosmo_sigma_profile": { 
			"-0.025": 0.0,
			"-0.024": 0.0,
			"-0.023": 0.0,
			"-0.022": 0.0,
			"-0.021": 0.0,
			"-0.02": 0.0,
			"-0.019": 0.0,
			"-0.018": 0.0,
			"-0.017": 0.0,
			"-0.016": 0.0,
			"-0.015": 0.0,
			"-0.014": 0.0,
			"-0.013": 0.0,
			"-0.012": 0.0,
			"-0.011": 0.0,
			"-0.01": 0.0,
			"-0.009": 0.685851840419,
			"-0.008": 7.31204057877,
			"-0.007": 9.50545273657,
			"-0.006": 9.54971057416,
			"-0.005": 11.4537602362,
			"-0.004": 12.4644714426,
			"-0.003": 18.5772477547,
			"-0.002": 18.1736194016,
			"-0.001": 19.8174577357,
			"0.0": 20.4106947647,
			"0.001": 19.5558780882,
			"0.002": 20.2702221461,
			"0.003": 16.3914659965,
			"0.004": 12.445653659,
			"0.005": 4.6012840047,
			"0.006": 4.18721358914,
			"0.007": 2.81556287502,
			"0.008": 3.12137862033,
			"0.009": 3.46662418081,
			"0.01": 3.48806687465,
			"0.011": 4.12026912802,
			"0.012": 1.73667897773,
			"0.013": 0.869826857277,
			"0.014": 0.579480645233,
			"0.015": 0.333063607947,
			"0.016": 0.0,
			"0.017": 0.0,
			"0.018": 0.0,
			"0.019": 0.0,
			"0.02": 0.0,
			"0.021": 0.0,
			"0.022": 0.0,
			"0.023": 0.0,
			"0.024": 0.0,
			"0.025": 0.0
		}
	}
}
