{
	 "smiles": "CCOC(=O)NC(C)(C)CC1=CC=C(Cl)C=C1", 
	 "Tm": 325.95, 
	 "num_atms": 35, 
	 "gaussian": { 
		 "optdone": 1, 
		 "sigma_profile": "yes", 
		 "theory": "DFT", 
		 "functional": "B3LYP", 
		 "basiset": "6-31G**", 
		 "properties": { 
			 "R2extent": 7142.5478, 
			 "electric_dipole_moment_norm": 2.85791371983, 
			 "electric_quadrupole_moment_norm": 16.7518397751, 
			 "total_energy": -1171.67035303, 
			 "HOMO_LUMO_gap": 0.22592, 
			 "cosmo_polarized_energy": -10.54, 
			 "cosmo_cavitation_energy": 38.75, 
			 "cosmo_dispersion_energy": -26.8, 
			 "cosmo_repulsion_energy": 2.12, 
			 "cosmo_total_nonelectrostatic_energy": 14.08, 
			 "SMD_solvation_energy": 6.89 
		},
		"coords": [
			{
				"x": -4.8653210491,
				"y": -2.6429029766,
				"z": -1.8221564384,
				"element": "C" 
			},
			{
				"x": -3.4557855441,
				"y": -2.833047989,
				"z": -1.2935112373,
				"element": "C" 
			},
			{
				"x": -2.7938795815,
				"y": -1.5539142784,
				"z": -1.3638310707,
				"element": "O" 
			},
			{
				"x": -1.4971493812,
				"y": -1.5455190534,
				"z": -0.9478688815,
				"element": "C" 
			},
			{
				"x": -0.9026863835,
				"y": -2.5369586494,
				"z": -0.5479275401,
				"element": "O" 
			},
			{
				"x": -0.9927939339,
				"y": -0.2858974075,
				"z": -1.0353376764,
				"element": "N" 
			},
			{
				"x": 0.4061917536,
				"y": 0.0947270434,
				"z": -0.7670302389,
				"element": "C" 
			},
			{
				"x": 0.4896493544,
				"y": 1.608905463,
				"z": -1.0092768636,
				"element": "C" 
			},
			{
				"x": 1.3459091295,
				"y": -0.6432170292,
				"z": -1.7406818659,
				"element": "C" 
			},
			{
				"x": 0.8239478679,
				"y": -0.2661688534,
				"z": 0.6958623754,
				"element": "C" 
			},
			{
				"x": -0.0365009463,
				"y": 0.3092611668,
				"z": 1.7978025153,
				"element": "C" 
			},
			{
				"x": 0.2575600094,
				"y": 1.5468464856,
				"z": 2.3876354249,
				"element": "C" 
			},
			{
				"x": -0.5398570003,
				"y": 2.081067292,
				"z": 3.4006623897,
				"element": "C" 
			},
			{
				"x": -1.6507067671,
				"y": 1.3613776873,
				"z": 3.8359752469,
				"element": "C" 
			},
			{
				"x": -2.6650296634,
				"y": 2.021922409,
				"z": 5.1148602817,
				"element": "Cl" 
			},
			{
				"x": -1.9641874537,
				"y": 0.121469503,
				"z": 3.2812214401,
				"element": "C" 
			},
			{
				"x": -1.1546612814,
				"y": -0.3944889922,
				"z": 2.2696336566,
				"element": "C" 
			},
			{
				"x": -5.4070133969,
				"y": -3.5931880525,
				"z": -1.7855444087,
				"element": "H" 
			},
			{
				"x": -5.4133363713,
				"y": -1.9109824038,
				"z": -1.2216759878,
				"element": "H" 
			},
			{
				"x": -4.850381852,
				"y": -2.2951232473,
				"z": -2.8592005164,
				"element": "H" 
			},
			{
				"x": -2.892056841,
				"y": -3.5616648645,
				"z": -1.8845755653,
				"element": "H" 
			},
			{
				"x": -3.4541166528,
				"y": -3.1822848761,
				"z": -0.2556417503,
				"element": "H" 
			},
			{
				"x": -1.6286579619,
				"y": 0.4235067741,
				"z": -1.3672774129,
				"element": "H" 
			},
			{
				"x": 0.2143560447,
				"y": 1.8490471471,
				"z": -2.0423470455,
				"element": "H" 
			},
			{
				"x": -0.1724402917,
				"y": 2.159615339,
				"z": -0.3344711753,
				"element": "H" 
			},
			{
				"x": 1.5117510598,
				"y": 1.962405544,
				"z": -0.8471785037,
				"element": "H" 
			},
			{
				"x": 1.2440076848,
				"y": -1.7240961002,
				"z": -1.6233555314,
				"element": "H" 
			},
			{
				"x": 1.1050709647,
				"y": -0.3798422747,
				"z": -2.7755620301,
				"element": "H" 
			},
			{
				"x": 2.3884438219,
				"y": -0.3674842563,
				"z": -1.5507860612,
				"element": "H" 
			},
			{
				"x": 1.8588638886,
				"y": 0.0727412166,
				"z": 0.8220758311,
				"element": "H" 
			},
			{
				"x": 0.8276709434,
				"y": -1.3561671629,
				"z": 0.7704270755,
				"element": "H" 
			},
			{
				"x": 1.1316401001,
				"y": 2.1036196141,
				"z": 2.0596184631,
				"element": "H" 
			},
			{
				"x": -0.2996437784,
				"y": 3.0379305416,
				"z": 3.8511338198,
				"element": "H" 
			},
			{
				"x": -2.8239044395,
				"y": -0.4332596595,
				"z": 3.6411129549,
				"element": "H" 
			},
			{
				"x": -1.3832520519,
				"y": -1.3688350997,
				"z": 1.8479163263,
				"element": "H" 
			}
		],
		 "valence_orbital": [ 
			{
				"type": "occ",
				"energy": -0.29205,
				"method": "rhf"
			},
			{
				"type": "occ",
				"energy": -0.2688,
				"method": "rhf"
			},
			{
				"type": "occ",
				"energy": -0.25993,
				"method": "rhf"
			},
			{
				"type": "occ",
				"energy": -0.25309,
				"method": "rhf"
			},
			{
				"type": "occ",
				"energy": -0.23533,
				"method": "rhf"
			},
			{
				"type": "unocc",
				"energy": -0.00941,
				"method": "rhf"
			},
			{
				"type": "unocc",
				"energy": -0.00865,
				"method": "rhf"
			},
			{
				"type": "unocc",
				"energy": 0.03386,
				"method": "rhf"
			},
			{
				"type": "unocc",
				"energy": 0.05221,
				"method": "rhf"
			},
			{
				"type": "unocc",
				"energy": 0.07427,
				"method": "rhf"
			}
		],
		"cosmo_sigma_profile": { 
			"-0.025": 0.0,
			"-0.024": 0.0,
			"-0.023": 0.0,
			"-0.022": 0.0,
			"-0.021": 0.0,
			"-0.02": 0.0,
			"-0.019": 0.0,
			"-0.018": 0.0,
			"-0.017": 0.0,
			"-0.016": 0.0,
			"-0.015": 0.0,
			"-0.014": 0.0413871429893,
			"-0.013": 0.592948373218,
			"-0.012": 0.721925987843,
			"-0.011": 0.91491677913,
			"-0.01": 0.847504026293,
			"-0.009": 0.762174161114,
			"-0.008": 1.0187883802,
			"-0.007": 3.56488588123,
			"-0.006": 5.51053330538,
			"-0.005": 12.0268732811,
			"-0.004": 31.2539216459,
			"-0.003": 30.1969624399,
			"-0.002": 29.5677762285,
			"-0.001": 30.3581433215,
			"0.0": 35.0571267779,
			"0.001": 27.8956617786,
			"0.002": 20.1407922309,
			"0.003": 18.2411550433,
			"0.004": 21.9912817653,
			"0.005": 16.1553498039,
			"0.006": 3.74115311721,
			"0.007": 2.80078997571,
			"0.008": 3.191391273,
			"0.009": 1.39644665576,
			"0.01": 1.43372327602,
			"0.011": 0.843196882241,
			"0.012": 1.92114277073,
			"0.013": 2.70706025745,
			"0.014": 1.44949456171,
			"0.015": 0.0,
			"0.016": 0.0,
			"0.017": 0.0,
			"0.018": 0.0,
			"0.019": 0.0,
			"0.02": 0.0,
			"0.021": 0.0,
			"0.022": 0.0,
			"0.023": 0.0,
			"0.024": 0.0,
			"0.025": 0.0
		}
	}
}
