{
	 "smiles": "CC1=NC2=C(C=CC=C2)C(=C1)N1CCNCC1", 
	 "Tm": 375.15, 
	 "num_atms": 34, 
	 "gaussian": { 
		 "optdone": 1, 
		 "sigma_profile": "yes", 
		 "theory": "DFT", 
		 "functional": "B3LYP", 
		 "basiset": "6-31G**", 
		 "properties": { 
			 "R2extent": 4689.7771, 
			 "electric_dipole_moment_norm": 3.498219823, 
			 "electric_quadrupole_moment_norm": 15.4232913734, 
			 "total_energy": -707.983666903, 
			 "HOMO_LUMO_gap": 0.16635, 
			 "cosmo_polarized_energy": -12.15, 
			 "cosmo_cavitation_energy": 34.54, 
			 "cosmo_dispersion_energy": -25.6, 
			 "cosmo_repulsion_energy": 1.97, 
			 "cosmo_total_nonelectrostatic_energy": 10.91, 
			 "SMD_solvation_energy": 0.4 
		},
		"coords": [
			{
				"x": 3.9789130106,
				"y": -1.2056424493,
				"z": 1.0897726251,
				"element": "C" 
			},
			{
				"x": 2.8593447177,
				"y": -0.422577913,
				"z": 0.4457477598,
				"element": "C" 
			},
			{
				"x": 3.1723661912,
				"y": 0.3411654403,
				"z": -0.5843969188,
				"element": "N" 
			},
			{
				"x": 2.1561630402,
				"y": 1.0236459275,
				"z": -1.1932426116,
				"element": "C" 
			},
			{
				"x": 0.7916448103,
				"y": 0.976377774,
				"z": -0.759906928,
				"element": "C" 
			},
			{
				"x": -0.1909020465,
				"y": 1.6108431628,
				"z": -1.5655147923,
				"element": "C" 
			},
			{
				"x": 0.1599597356,
				"y": 2.3220238872,
				"z": -2.6946745772,
				"element": "C" 
			},
			{
				"x": 1.5155893113,
				"y": 2.4317747338,
				"z": -3.0751493954,
				"element": "C" 
			},
			{
				"x": 2.4878887197,
				"y": 1.7876183607,
				"z": -2.3433102697,
				"element": "C" 
			},
			{
				"x": 0.5021684838,
				"y": 0.217590083,
				"z": 0.4364210669,
				"element": "C" 
			},
			{
				"x": 1.5502337905,
				"y": -0.5138129729,
				"z": 0.9819220316,
				"element": "C" 
			},
			{
				"x": -0.7799108317,
				"y": 0.1790676512,
				"z": 0.9823067717,
				"element": "N" 
			},
			{
				"x": -1.0902441589,
				"y": -0.8733373899,
				"z": 1.9541940875,
				"element": "C" 
			},
			{
				"x": -2.5723968054,
				"y": -0.7954224288,
				"z": 2.3298556404,
				"element": "C" 
			},
			{
				"x": -2.9409218823,
				"y": 0.4836353494,
				"z": 2.9590001505,
				"element": "N" 
			},
			{
				"x": -2.03042281,
				"y": 1.5805437791,
				"z": 2.6049861967,
				"element": "C" 
			},
			{
				"x": -1.5638150513,
				"y": 1.4218959287,
				"z": 1.1575110559,
				"element": "C" 
			},
			{
				"x": 4.0767625986,
				"y": -0.9598847653,
				"z": 2.1537311703,
				"element": "H" 
			},
			{
				"x": 4.9200574232,
				"y": -0.9793038145,
				"z": 0.5866641516,
				"element": "H" 
			},
			{
				"x": 3.793209438,
				"y": -2.284462356,
				"z": 1.0240612918,
				"element": "H" 
			},
			{
				"x": -1.2389639639,
				"y": 1.5052689631,
				"z": -1.3151688877,
				"element": "H" 
			},
			{
				"x": -0.6123283885,
				"y": 2.787934211,
				"z": -3.2998822196,
				"element": "H" 
			},
			{
				"x": 1.7852279322,
				"y": 3.0036227082,
				"z": -3.9586325729,
				"element": "H" 
			},
			{
				"x": 3.5346409537,
				"y": 1.818409074,
				"z": -2.6278839169,
				"element": "H" 
			},
			{
				"x": 1.4002182643,
				"y": -1.1270814049,
				"z": 1.8618650447,
				"element": "H" 
			},
			{
				"x": -0.4823545729,
				"y": -0.7866167132,
				"z": 2.8713810257,
				"element": "H" 
			},
			{
				"x": -0.8591477293,
				"y": -1.8460063255,
				"z": 1.5049004942,
				"element": "H" 
			},
			{
				"x": -3.1702558367,
				"y": -0.9459261911,
				"z": 1.4208763794,
				"element": "H" 
			},
			{
				"x": -2.8205424551,
				"y": -1.6173663641,
				"z": 3.0083904918,
				"element": "H" 
			},
			{
				"x": -2.9725926622,
				"y": 0.3791997525,
				"z": 3.9672980329,
				"element": "H" 
			},
			{
				"x": -1.13865998,
				"y": 1.6367637479,
				"z": 3.2525316438,
				"element": "H" 
			},
			{
				"x": -2.5571662519,
				"y": 2.5380678569,
				"z": 2.7027698201,
				"element": "H" 
			},
			{
				"x": -2.4478071796,
				"y": 1.4244416894,
				"z": 0.505362572,
				"element": "H" 
			},
			{
				"x": -0.9460558146,
				"y": 2.2776510079,
				"z": 0.8811135855,
				"element": "H" 
			}
		],
		 "valence_orbital": [ 
			{
				"type": "occ",
				"energy": -0.23943,
				"method": "rhf"
			},
			{
				"type": "occ",
				"energy": -0.2387,
				"method": "rhf"
			},
			{
				"type": "occ",
				"energy": -0.23384,
				"method": "rhf"
			},
			{
				"type": "occ",
				"energy": -0.22462,
				"method": "rhf"
			},
			{
				"type": "occ",
				"energy": -0.19747,
				"method": "rhf"
			},
			{
				"type": "unocc",
				"energy": -0.03112,
				"method": "rhf"
			},
			{
				"type": "unocc",
				"energy": -0.00426,
				"method": "rhf"
			},
			{
				"type": "unocc",
				"energy": 0.03595,
				"method": "rhf"
			},
			{
				"type": "unocc",
				"energy": 0.06689,
				"method": "rhf"
			},
			{
				"type": "unocc",
				"energy": 0.0913,
				"method": "rhf"
			}
		],
		"cosmo_sigma_profile": { 
			"-0.025": 0.0,
			"-0.024": 0.0,
			"-0.023": 0.0,
			"-0.022": 0.0,
			"-0.021": 0.0,
			"-0.02": 0.0,
			"-0.019": 0.0,
			"-0.018": 0.0,
			"-0.017": 0.0,
			"-0.016": 0.0,
			"-0.015": 0.0,
			"-0.014": 0.0,
			"-0.013": 0.0,
			"-0.012": 0.0,
			"-0.011": 0.156153187279,
			"-0.01": 1.2667918566,
			"-0.009": 1.24094958093,
			"-0.008": 1.36187881883,
			"-0.007": 1.75057238387,
			"-0.006": 6.08007718679,
			"-0.005": 16.9097267849,
			"-0.004": 29.8158524475,
			"-0.003": 40.3431682218,
			"-0.002": 31.0951210239,
			"-0.001": 23.1037019363,
			"0.0": 16.7285965989,
			"0.001": 13.9333375676,
			"0.002": 11.623655273,
			"0.003": 17.6620583207,
			"0.004": 19.1734728207,
			"0.005": 13.9613045972,
			"0.006": 6.36709471992,
			"0.007": 2.72790964782,
			"0.008": 2.39927183893,
			"0.009": 2.21871526008,
			"0.01": 1.89536053133,
			"0.011": 1.78638534136,
			"0.012": 1.21851250622,
			"0.013": 1.68523364529,
			"0.014": 1.59137958351,
			"0.015": 1.11954917985,
			"0.016": 1.56145472356,
			"0.017": 0.742126619766,
			"0.018": 0.392496467998,
			"0.019": 0.0862922714898,
			"0.02": 0.0,
			"0.021": 0.0,
			"0.022": 0.0,
			"0.023": 0.0,
			"0.024": 0.0,
			"0.025": 0.0
		}
	}
}
