{
	 "smiles": "COC1=C(C=C(Cl)C(C)=C1)S(Cl)(=O)=O", 
	 "Tm": 400.15, 
	 "num_atms": 22, 
	 "gaussian": { 
		 "optdone": 1, 
		 "sigma_profile": "yes", 
		 "theory": "DFT", 
		 "functional": "B3LYP", 
		 "basiset": "6-31G**", 
		 "properties": { 
			 "R2extent": 4361.2712, 
			 "electric_dipole_moment_norm": 6.86721732145, 
			 "electric_quadrupole_moment_norm": 11.0206058218, 
			 "total_energy": -1853.83810633, 
			 "HOMO_LUMO_gap": 0.16501, 
			 "cosmo_polarized_energy": -12.29, 
			 "cosmo_cavitation_energy": 31.1, 
			 "cosmo_dispersion_energy": -22.87, 
			 "cosmo_repulsion_energy": 1.77, 
			 "cosmo_total_nonelectrostatic_energy": 10.0, 
			 "SMD_solvation_energy": 4.67 
		},
		"coords": [
			{
				"x": 3.0760135267,
				"y": 0.6458633586,
				"z": -1.0720201419,
				"element": "C" 
			},
			{
				"x": 1.9430340597,
				"y": -0.2174869717,
				"z": -1.0949336767,
				"element": "O" 
			},
			{
				"x": 0.7995178776,
				"y": 0.1792177775,
				"z": -0.5063960143,
				"element": "C" 
			},
			{
				"x": -0.2946028738,
				"y": -0.7091639062,
				"z": -0.5544980879,
				"element": "C" 
			},
			{
				"x": -1.5259557772,
				"y": -0.3677617016,
				"z": 0.0018818545,
				"element": "C" 
			},
			{
				"x": -1.6724898824,
				"y": 0.8638773381,
				"z": 0.6295243583,
				"element": "C" 
			},
			{
				"x": -3.2323112302,
				"y": 1.26359624,
				"z": 1.3311468407,
				"element": "Cl" 
			},
			{
				"x": -0.6079632482,
				"y": 1.776364438,
				"z": 0.7095732968,
				"element": "C" 
			},
			{
				"x": -0.758746405,
				"y": 3.1118956272,
				"z": 1.3876400222,
				"element": "C" 
			},
			{
				"x": 0.6150483783,
				"y": 1.4112558214,
				"z": 0.1326053681,
				"element": "C" 
			},
			{
				"x": -0.1560028921,
				"y": -2.3323026773,
				"z": -1.2852073974,
				"element": "S" 
			},
			{
				"x": 0.0776998317,
				"y": -1.8592635016,
				"z": -3.3510412664,
				"element": "Cl" 
			},
			{
				"x": 1.0721767346,
				"y": -2.9916187142,
				"z": -0.8667063277,
				"element": "O" 
			},
			{
				"x": -1.4520848158,
				"y": -2.9920513987,
				"z": -1.1712280645,
				"element": "O" 
			},
			{
				"x": 3.8628939011,
				"y": 0.1070712961,
				"z": -1.599000559,
				"element": "H" 
			},
			{
				"x": 3.3980337567,
				"y": 0.850806378,
				"z": -0.0445905352,
				"element": "H" 
			},
			{
				"x": 2.8678362673,
				"y": 1.5892597349,
				"z": -1.5899611921,
				"element": "H" 
			},
			{
				"x": -2.3519114538,
				"y": -1.0657974458,
				"z": -0.0563271081,
				"element": "H" 
			},
			{
				"x": 0.1724601132,
				"y": 3.6809817585,
				"z": 1.3462923154,
				"element": "H" 
			},
			{
				"x": -1.5492215682,
				"y": 3.7041578184,
				"z": 0.9150810529,
				"element": "H" 
			},
			{
				"x": -1.0434917508,
				"y": 2.987717039,
				"z": 2.4376798537,
				"element": "H" 
			},
			{
				"x": 1.4373674507,
				"y": 2.1142816915,
				"z": 0.1866854087,
				"element": "H" 
			}
		],
		 "valence_orbital": [ 
			{
				"type": "occ",
				"energy": -0.32484,
				"method": "rhf"
			},
			{
				"type": "occ",
				"energy": -0.32187,
				"method": "rhf"
			},
			{
				"type": "occ",
				"energy": -0.30625,
				"method": "rhf"
			},
			{
				"type": "occ",
				"energy": -0.28725,
				"method": "rhf"
			},
			{
				"type": "occ",
				"energy": -0.2485,
				"method": "rhf"
			},
			{
				"type": "unocc",
				"energy": -0.08349,
				"method": "rhf"
			},
			{
				"type": "unocc",
				"energy": -0.04626,
				"method": "rhf"
			},
			{
				"type": "unocc",
				"energy": -0.02888,
				"method": "rhf"
			},
			{
				"type": "unocc",
				"energy": 0.01538,
				"method": "rhf"
			},
			{
				"type": "unocc",
				"energy": 0.0494,
				"method": "rhf"
			}
		],
		"cosmo_sigma_profile": { 
			"-0.025": 0.0,
			"-0.024": 0.0,
			"-0.023": 0.0,
			"-0.022": 0.0,
			"-0.021": 0.0,
			"-0.02": 0.0,
			"-0.019": 0.0,
			"-0.018": 0.0,
			"-0.017": 0.0,
			"-0.016": 0.0,
			"-0.015": 0.0,
			"-0.014": 0.0,
			"-0.013": 0.0,
			"-0.012": 0.0,
			"-0.011": 0.0,
			"-0.01": 0.0,
			"-0.009": 0.248636931139,
			"-0.008": 4.4251391839,
			"-0.007": 10.0490511719,
			"-0.006": 13.6710802871,
			"-0.005": 15.3411682532,
			"-0.004": 17.8094221619,
			"-0.003": 16.2344094998,
			"-0.002": 20.0064901995,
			"-0.001": 24.338884332,
			"0.0": 23.7955803181,
			"0.001": 17.4167190663,
			"0.002": 14.350720827,
			"0.003": 20.0348868265,
			"0.004": 18.4163685266,
			"0.005": 6.91733537984,
			"0.006": 5.10585427,
			"0.007": 5.36221037445,
			"0.008": 10.6484693287,
			"0.009": 7.35180764418,
			"0.01": 1.55023063433,
			"0.011": 0.109359618642,
			"0.012": 0.0,
			"0.013": 0.0,
			"0.014": 0.0,
			"0.015": 0.0,
			"0.016": 0.0,
			"0.017": 0.0,
			"0.018": 0.0,
			"0.019": 0.0,
			"0.02": 0.0,
			"0.021": 0.0,
			"0.022": 0.0,
			"0.023": 0.0,
			"0.024": 0.0,
			"0.025": 0.0
		}
	}
}
