{
	 "smiles": "CC1(C)OC2C3CC4OCC56CCCC(C)(C)C5CC(O1)C2(C46)C(=O)C3=C", 
	 "Tm": 436.15, 
	 "num_atms": 59, 
	 "gaussian": { 
		 "optdone": 1, 
		 "sigma_profile": "yes", 
		 "theory": "DFT", 
		 "functional": "B3LYP", 
		 "basiset": "6-31G**", 
		 "properties": { 
			 "R2extent": 8757.4738, 
			 "electric_dipole_moment_norm": 1.94010675479, 
			 "electric_quadrupole_moment_norm": 15.3742584706, 
			 "total_energy": -1196.54767671, 
			 "HOMO_LUMO_gap": 0.18129, 
			 "cosmo_polarized_energy": -14.46, 
			 "cosmo_cavitation_energy": 49.72, 
			 "cosmo_dispersion_energy": -33.86, 
			 "cosmo_repulsion_energy": 2.45, 
			 "cosmo_total_nonelectrostatic_energy": 18.31, 
			 "SMD_solvation_energy": 8.24 
		},
		"coords": [
			{
				"x": -4.3679962595,
				"y": 2.9366323798,
				"z": 0.613994844,
				"element": "C" 
			},
			{
				"x": -3.4371436766,
				"y": 1.7257343978,
				"z": 0.6223763963,
				"element": "C" 
			},
			{
				"x": -4.2089447751,
				"y": 0.4200800872,
				"z": 0.8013379361,
				"element": "C" 
			},
			{
				"x": -2.5078321336,
				"y": 1.7940345857,
				"z": 1.7378820303,
				"element": "O" 
			},
			{
				"x": -1.3914991754,
				"y": 2.5657689663,
				"z": 1.3674004999,
				"element": "C" 
			},
			{
				"x": -0.3568025469,
				"y": 3.0230192353,
				"z": 2.3820864237,
				"element": "C" 
			},
			{
				"x": 0.2561780169,
				"y": 1.8152365806,
				"z": 3.1342190179,
				"element": "C" 
			},
			{
				"x": 0.6507144872,
				"y": 0.6309289062,
				"z": 2.2305519298,
				"element": "C" 
			},
			{
				"x": -0.319841726,
				"y": -0.4229549265,
				"z": 2.2704245428,
				"element": "O" 
			},
			{
				"x": -0.1149873892,
				"y": -1.2618868556,
				"z": 1.1238134929,
				"element": "C" 
			},
			{
				"x": 0.7308881019,
				"y": -0.448529427,
				"z": 0.0685513715,
				"element": "C" 
			},
			{
				"x": 2.2055207229,
				"y": -0.9764378417,
				"z": 0.0725768598,
				"element": "C" 
			},
			{
				"x": 2.4892554326,
				"y": -2.0726740457,
				"z": -0.9853939639,
				"element": "C" 
			},
			{
				"x": 1.2146000821,
				"y": -2.8030615542,
				"z": -1.4138002812,
				"element": "C" 
			},
			{
				"x": 0.18194826,
				"y": -1.8585760971,
				"z": -2.0926751996,
				"element": "C" 
			},
			{
				"x": 0.5154958575,
				"y": -1.7297084172,
				"z": -3.595325533,
				"element": "C" 
			},
			{
				"x": -1.2096640826,
				"y": -2.5172415797,
				"z": -1.9775987547,
				"element": "C" 
			},
			{
				"x": 0.2890369064,
				"y": -0.4235394372,
				"z": -1.4499465798,
				"element": "C" 
			},
			{
				"x": -0.9062171867,
				"y": 0.5272597945,
				"z": -1.8185491649,
				"element": "C" 
			},
			{
				"x": -1.4794848926,
				"y": 1.066276875,
				"z": -0.530884604,
				"element": "C" 
			},
			{
				"x": -2.7278721278,
				"y": 1.7587844575,
				"z": -0.6324367846,
				"element": "O" 
			},
			{
				"x": -0.4916593014,
				"y": 1.8871791824,
				"z": 0.2896663367,
				"element": "C" 
			},
			{
				"x": 0.7103402482,
				"y": 0.9603761618,
				"z": 0.7421403351,
				"element": "C" 
			},
			{
				"x": 0.2917550229,
				"y": 3.1575386881,
				"z": -0.0443288977,
				"element": "C" 
			},
			{
				"x": 0.6879733277,
				"y": 3.6110435848,
				"z": -1.0971389946,
				"element": "O" 
			},
			{
				"x": 0.5616606348,
				"y": 3.7328856225,
				"z": 1.3583729663,
				"element": "C" 
			},
			{
				"x": 1.4224064839,
				"y": 4.7299897036,
				"z": 1.5638794822,
				"element": "C" 
			},
			{
				"x": -5.0357327647,
				"y": 2.8839985302,
				"z": -0.24992921,
				"element": "H" 
			},
			{
				"x": -3.8028356739,
				"y": 3.8689972365,
				"z": 0.5442355281,
				"element": "H" 
			},
			{
				"x": -4.9670543816,
				"y": 2.9532924261,
				"z": 1.5278444983,
				"element": "H" 
			},
			{
				"x": -4.9625304628,
				"y": 0.3237095098,
				"z": 0.015651512,
				"element": "H" 
			},
			{
				"x": -3.5408908272,
				"y": -0.4429079742,
				"z": 0.7609018118,
				"element": "H" 
			},
			{
				"x": -4.7050735643,
				"y": 0.4126171346,
				"z": 1.7753523194,
				"element": "H" 
			},
			{
				"x": -1.7729597996,
				"y": 3.4758817976,
				"z": 0.8792209017,
				"element": "H" 
			},
			{
				"x": -0.7419518727,
				"y": 3.7424066271,
				"z": 3.1124703374,
				"element": "H" 
			},
			{
				"x": -0.4717865593,
				"y": 1.4524913394,
				"z": 3.8670501139,
				"element": "H" 
			},
			{
				"x": 1.1362942355,
				"y": 2.1517665251,
				"z": 3.692118621,
				"element": "H" 
			},
			{
				"x": 1.6228626777,
				"y": 0.237905132,
				"z": 2.5683532802,
				"element": "H" 
			},
			{
				"x": 0.4189673329,
				"y": -2.1722318356,
				"z": 1.4281381512,
				"element": "H" 
			},
			{
				"x": -1.1022726404,
				"y": -1.5662758954,
				"z": 0.7687317925,
				"element": "H" 
			},
			{
				"x": 2.8848486449,
				"y": -0.1349008458,
				"z": -0.1064195751,
				"element": "H" 
			},
			{
				"x": 2.4500929918,
				"y": -1.3552076972,
				"z": 1.0704373537,
				"element": "H" 
			},
			{
				"x": 3.2206674796,
				"y": -2.7874344905,
				"z": -0.5926941872,
				"element": "H" 
			},
			{
				"x": 2.958062023,
				"y": -1.6229182976,
				"z": -1.8688371605,
				"element": "H" 
			},
			{
				"x": 1.4564689631,
				"y": -3.6231870701,
				"z": -2.1012171438,
				"element": "H" 
			},
			{
				"x": 0.7582961867,
				"y": -3.2756155461,
				"z": -0.5347666205,
				"element": "H" 
			},
			{
				"x": 0.3923517049,
				"y": -2.6919852309,
				"z": -4.1049043364,
				"element": "H" 
			},
			{
				"x": 1.5473186638,
				"y": -1.3967650051,
				"z": -3.7529195447,
				"element": "H" 
			},
			{
				"x": -0.1431701281,
				"y": -1.0069655655,
				"z": -4.0890192933,
				"element": "H" 
			},
			{
				"x": -1.5686039956,
				"y": -2.5684039078,
				"z": -0.9460226425,
				"element": "H" 
			},
			{
				"x": -1.9698774988,
				"y": -2.0045009056,
				"z": -2.5737839979,
				"element": "H" 
			},
			{
				"x": -1.1538202808,
				"y": -3.5464564472,
				"z": -2.3503667844,
				"element": "H" 
			},
			{
				"x": 1.1654452128,
				"y": 0.0263870897,
				"z": -1.9315573914,
				"element": "H" 
			},
			{
				"x": -0.5602540464,
				"y": 1.3467053146,
				"z": -2.4548664815,
				"element": "H" 
			},
			{
				"x": -1.6882924952,
				"y": -0.00227646,
				"z": -2.3670162009,
				"element": "H" 
			},
			{
				"x": -1.6770020529,
				"y": 0.2019574796,
				"z": 0.1052593702,
				"element": "H" 
			},
			{
				"x": 1.6505480314,
				"y": 1.4669850194,
				"z": 0.5059513302,
				"element": "H" 
			},
			{
				"x": 1.6088434009,
				"y": 5.14812587,
				"z": 2.5493884201,
				"element": "H" 
			},
			{
				"x": 1.9638131834,
				"y": 5.1557471157,
				"z": 0.7232195213,
				"element": "H" 
			}
		],
		 "valence_orbital": [ 
			{
				"type": "occ",
				"energy": -0.27249,
				"method": "rhf"
			},
			{
				"type": "occ",
				"energy": -0.27042,
				"method": "rhf"
			},
			{
				"type": "occ",
				"energy": -0.25052,
				"method": "rhf"
			},
			{
				"type": "occ",
				"energy": -0.23749,
				"method": "rhf"
			},
			{
				"type": "occ",
				"energy": -0.22851,
				"method": "rhf"
			},
			{
				"type": "unocc",
				"energy": -0.04722,
				"method": "rhf"
			},
			{
				"type": "unocc",
				"energy": 0.05715,
				"method": "rhf"
			},
			{
				"type": "unocc",
				"energy": 0.06159,
				"method": "rhf"
			},
			{
				"type": "unocc",
				"energy": 0.07401,
				"method": "rhf"
			},
			{
				"type": "unocc",
				"energy": 0.07755,
				"method": "rhf"
			}
		],
		"cosmo_sigma_profile": { 
			"-0.025": 0.0,
			"-0.024": 0.0,
			"-0.023": 0.0,
			"-0.022": 0.0,
			"-0.021": 0.0,
			"-0.02": 0.0,
			"-0.019": 0.0,
			"-0.018": 0.0,
			"-0.017": 0.0,
			"-0.016": 0.0,
			"-0.015": 0.0,
			"-0.014": 0.0,
			"-0.013": 0.0,
			"-0.012": 0.0,
			"-0.011": 0.0,
			"-0.01": 0.0,
			"-0.009": 0.0,
			"-0.008": 0.0456824996501,
			"-0.007": 1.29568969959,
			"-0.006": 6.52886738844,
			"-0.005": 13.3728741328,
			"-0.004": 38.3377880452,
			"-0.003": 51.7675828294,
			"-0.002": 55.782104136,
			"-0.001": 50.0908593473,
			"0.0": 45.8686487919,
			"0.001": 35.8457176462,
			"0.002": 18.2375826997,
			"0.003": 8.83177221499,
			"0.004": 7.68731424745,
			"0.005": 6.54432550163,
			"0.006": 5.28449909956,
			"0.007": 5.32108905936,
			"0.008": 4.90266726733,
			"0.009": 4.9142622835,
			"0.01": 5.07932943934,
			"0.011": 7.51453911349,
			"0.012": 6.26649746826,
			"0.013": 2.62970125765,
			"0.014": 1.61197502234,
			"0.015": 0.337831802003,
			"0.016": 0.0,
			"0.017": 0.0,
			"0.018": 0.0,
			"0.019": 0.0,
			"0.02": 0.0,
			"0.021": 0.0,
			"0.022": 0.0,
			"0.023": 0.0,
			"0.024": 0.0,
			"0.025": 0.0
		}
	}
}
