{
	 "smiles": "CC1(C)NC(=O)N2C1=NC(=N)C2(C)C", 
	 "Tm": 510.15, 
	 "num_atms": 28, 
	 "gaussian": { 
		 "optdone": 1, 
		 "sigma_profile": "yes", 
		 "theory": "DFT", 
		 "functional": "B3LYP", 
		 "basiset": "6-31G**", 
		 "properties": { 
			 "R2extent": 3127.949, 
			 "electric_dipole_moment_norm": 3.98104557246, 
			 "electric_quadrupole_moment_norm": 11.349790991, 
			 "total_energy": -645.656972221, 
			 "HOMO_LUMO_gap": 0.2034, 
			 "cosmo_polarized_energy": -16.58, 
			 "cosmo_cavitation_energy": 30.86, 
			 "cosmo_dispersion_energy": -20.77, 
			 "cosmo_repulsion_energy": 1.64, 
			 "cosmo_total_nonelectrostatic_energy": 11.73, 
			 "SMD_solvation_energy": 3.63 
		},
		"coords": [
			{
				"x": -2.0535178386,
				"y": -1.8006594175,
				"z": -1.0795445263,
				"element": "C" 
			},
			{
				"x": -0.5310506232,
				"y": -1.9127700393,
				"z": -0.885907264,
				"element": "C" 
			},
			{
				"x": -0.0023924931,
				"y": -3.2735427494,
				"z": -1.3724976011,
				"element": "C" 
			},
			{
				"x": 0.1891296689,
				"y": -0.7865922847,
				"z": -1.5056912485,
				"element": "N" 
			},
			{
				"x": 0.8899879079,
				"y": 0.0150107,
				"z": -0.6267216875,
				"element": "C" 
			},
			{
				"x": 1.5616611031,
				"y": 0.9983472551,
				"z": -0.8665323146,
				"element": "O" 
			},
			{
				"x": 0.6524134047,
				"y": -0.5656263416,
				"z": 0.6295522461,
				"element": "N" 
			},
			{
				"x": -0.1475210758,
				"y": -1.6663753109,
				"z": 0.561233267,
				"element": "C" 
			},
			{
				"x": -0.4249850043,
				"y": -2.2730771126,
				"z": 1.6692425722,
				"element": "N" 
			},
			{
				"x": 0.2587657591,
				"y": -1.5188764479,
				"z": 2.6673305651,
				"element": "C" 
			},
			{
				"x": 0.283624759,
				"y": -1.7328367174,
				"z": 3.9186077713,
				"element": "N" 
			},
			{
				"x": 1.0281927646,
				"y": -0.320428689,
				"z": 2.0298021361,
				"element": "C" 
			},
			{
				"x": 0.4908972497,
				"y": 1.0253182262,
				"z": 2.5316060776,
				"element": "C" 
			},
			{
				"x": 2.5420231022,
				"y": -0.4471437032,
				"z": 2.2390316637,
				"element": "C" 
			},
			{
				"x": -2.4159766651,
				"y": -0.8243913773,
				"z": -0.747603874,
				"element": "H" 
			},
			{
				"x": -2.3097341219,
				"y": -1.9261537674,
				"z": -2.1366029259,
				"element": "H" 
			},
			{
				"x": -2.5624274544,
				"y": -2.5774507388,
				"z": -0.5027970974,
				"element": "H" 
			},
			{
				"x": 1.081605656,
				"y": -3.3359924759,
				"z": -1.2471780437,
				"element": "H" 
			},
			{
				"x": -0.2389715562,
				"y": -3.4131656443,
				"z": -2.4323544751,
				"element": "H" 
			},
			{
				"x": -0.4677343601,
				"y": -4.0816101824,
				"z": -0.8019634902,
				"element": "H" 
			},
			{
				"x": 0.1905122901,
				"y": -0.5883031724,
				"z": -2.493198781,
				"element": "H" 
			},
			{
				"x": -0.2791010975,
				"y": -2.559762768,
				"z": 4.1352583708,
				"element": "H" 
			},
			{
				"x": -0.584802519,
				"y": 1.1086592011,
				"z": 2.3516595697,
				"element": "H" 
			},
			{
				"x": 0.99720707,
				"y": 1.8511522919,
				"z": 2.0241828329,
				"element": "H" 
			},
			{
				"x": 0.663997173,
				"y": 1.0955207026,
				"z": 3.6082963096,
				"element": "H" 
			},
			{
				"x": 2.7553277395,
				"y": -0.4061886954,
				"z": 3.3100052099,
				"element": "H" 
			},
			{
				"x": 3.0668036494,
				"y": 0.3656380536,
				"z": 1.7292970141,
				"element": "H" 
			},
			{
				"x": 2.9117655121,
				"y": -1.4012987951,
				"z": 1.8525877232,
				"element": "H" 
			}
		],
		 "valence_orbital": [ 
			{
				"type": "occ",
				"energy": -0.2944,
				"method": "rhf"
			},
			{
				"type": "occ",
				"energy": -0.27296,
				"method": "rhf"
			},
			{
				"type": "occ",
				"energy": -0.27051,
				"method": "rhf"
			},
			{
				"type": "occ",
				"energy": -0.26292,
				"method": "rhf"
			},
			{
				"type": "occ",
				"energy": -0.2358,
				"method": "rhf"
			},
			{
				"type": "unocc",
				"energy": -0.0324,
				"method": "rhf"
			},
			{
				"type": "unocc",
				"energy": 0.03565,
				"method": "rhf"
			},
			{
				"type": "unocc",
				"energy": 0.06793,
				"method": "rhf"
			},
			{
				"type": "unocc",
				"energy": 0.07584,
				"method": "rhf"
			},
			{
				"type": "unocc",
				"energy": 0.09119,
				"method": "rhf"
			}
		],
		"cosmo_sigma_profile": { 
			"-0.025": 0.0,
			"-0.024": 0.0,
			"-0.023": 0.0,
			"-0.022": 0.0,
			"-0.021": 0.0,
			"-0.02": 0.0,
			"-0.019": 0.0,
			"-0.018": 0.0,
			"-0.017": 0.0,
			"-0.016": 0.0887409987141,
			"-0.015": 1.17349000159,
			"-0.014": 0.976305090218,
			"-0.013": 0.962655122229,
			"-0.012": 1.28771711497,
			"-0.011": 0.829858419006,
			"-0.01": 2.1816971176,
			"-0.009": 1.97106548011,
			"-0.008": 2.17613379369,
			"-0.007": 2.01389233105,
			"-0.006": 5.30021891469,
			"-0.005": 19.3596857699,
			"-0.004": 24.9040748025,
			"-0.003": 24.0912093164,
			"-0.002": 24.5456533587,
			"-0.001": 32.5069845853,
			"0.0": 22.2731081718,
			"0.001": 8.54319929756,
			"0.002": 7.33360665368,
			"0.003": 7.05517303083,
			"0.004": 5.83734059559,
			"0.005": 5.21087048754,
			"0.006": 5.15081990743,
			"0.007": 3.43161410576,
			"0.008": 2.50596192019,
			"0.009": 4.30843837532,
			"0.01": 3.63831428443,
			"0.011": 4.13053634449,
			"0.012": 5.48210278317,
			"0.013": 6.85376799629,
			"0.014": 2.2036140296,
			"0.015": 1.16090265306,
			"0.016": 1.15971609358,
			"0.017": 0.699647455729,
			"0.018": 0.0667956594377,
			"0.019": 0.0,
			"0.02": 0.0,
			"0.021": 0.0,
			"0.022": 0.0,
			"0.023": 0.0,
			"0.024": 0.0,
			"0.025": 0.0
		}
	}
}
