{
	 "smiles": "OC1=CC2=C(C=C1)C(=O)C1=CC(O)=CC=C1C2=O", 
	 "Tm": 573.15, 
	 "num_atms": 26, 
	 "gaussian": { 
		 "optdone": 1, 
		 "sigma_profile": "yes", 
		 "theory": "DFT", 
		 "functional": "B3LYP", 
		 "basiset": "6-31G**", 
		 "properties": { 
			 "R2extent": 5804.5623, 
			 "electric_dipole_moment_norm": 0.0, 
			 "electric_quadrupole_moment_norm": 42.7857404429, 
			 "total_energy": -839.219657282, 
			 "HOMO_LUMO_gap": 0.14178, 
			 "cosmo_polarized_energy": -20.46, 
			 "cosmo_cavitation_energy": 31.18, 
			 "cosmo_dispersion_energy": -23.25, 
			 "cosmo_repulsion_energy": 1.72, 
			 "cosmo_total_nonelectrostatic_energy": 9.65, 
			 "SMD_solvation_energy": 6.64 
		},
		"coords": [
			{
				"x": -0.4580163546,
				"y": 4.3100095503,
				"z": 3.4698666399,
				"element": "O" 
			},
			{
				"x": -0.1047165264,
				"y": 3.4982051682,
				"z": 2.439222594,
				"element": "C" 
			},
			{
				"x": 0.4433719265,
				"y": 2.2524351832,
				"z": 2.7600041082,
				"element": "C" 
			},
			{
				"x": 0.823486474,
				"y": 1.3798316429,
				"z": 1.7430419849,
				"element": "C" 
			},
			{
				"x": 0.6590962095,
				"y": 1.7446777977,
				"z": 0.3897003655,
				"element": "C" 
			},
			{
				"x": 0.1086755519,
				"y": 2.9958023078,
				"z": 0.0841695566,
				"element": "C" 
			},
			{
				"x": -0.2716236997,
				"y": 3.8687847819,
				"z": 1.0947878574,
				"element": "C" 
			},
			{
				"x": 1.0539593828,
				"y": 0.837893798,
				"z": -0.7150290072,
				"element": "C" 
			},
			{
				"x": 0.9112023514,
				"y": 1.1545349009,
				"z": -1.892480876,
				"element": "O" 
			},
			{
				"x": 1.6373861668,
				"y": -0.488117841,
				"z": -0.3376345941,
				"element": "C" 
			},
			{
				"x": 2.0174085573,
				"y": -1.3607614047,
				"z": -1.3545964911,
				"element": "C" 
			},
			{
				"x": 2.5654054099,
				"y": -2.6065720682,
				"z": -1.0338144755,
				"element": "C" 
			},
			{
				"x": 2.9186219789,
				"y": -3.418412597,
				"z": -2.0644588548,
				"element": "O" 
			},
			{
				"x": 2.7323130605,
				"y": -2.9771514922,
				"z": 0.3106198212,
				"element": "C" 
			},
			{
				"x": 2.3521044819,
				"y": -2.1041289633,
				"z": 1.3212380251,
				"element": "C" 
			},
			{
				"x": 1.8017781095,
				"y": -0.852963522,
				"z": 1.0157072227,
				"element": "C" 
			},
			{
				"x": 1.4070209739,
				"y": 0.0538671835,
				"z": 2.1204362403,
				"element": "C" 
			},
			{
				"x": 1.5495960126,
				"y": -0.262854971,
				"z": 3.2978882349,
				"element": "O" 
			},
			{
				"x": -0.8214345495,
				"y": 5.1355217874,
				"z": 3.1225674086,
				"element": "H" 
			},
			{
				"x": 0.575130952,
				"y": 1.9597053296,
				"z": 3.7953084997,
				"element": "H" 
			},
			{
				"x": -0.0115940612,
				"y": 3.2623649957,
				"z": -0.9605575705,
				"element": "H" 
			},
			{
				"x": -0.6984417851,
				"y": 4.8388968719,
				"z": 0.8487076202,
				"element": "H" 
			},
			{
				"x": 1.8856537706,
				"y": -1.0680308063,
				"z": -2.3899011143,
				"element": "H" 
			},
			{
				"x": 3.2819743933,
				"y": -4.2439537185,
				"z": -1.7171593736,
				"element": "H" 
			},
			{
				"x": 3.1590617995,
				"y": -3.9472937472,
				"z": 0.5567012603,
				"element": "H" 
			},
			{
				"x": 2.4723794139,
				"y": -2.3706901676,
				"z": 2.3659649177,
				"element": "H" 
			}
		],
		 "valence_orbital": [ 
			{
				"type": "occ",
				"energy": -0.26648,
				"method": "rhf"
			},
			{
				"type": "occ",
				"energy": -0.26249,
				"method": "rhf"
			},
			{
				"type": "occ",
				"energy": -0.25192,
				"method": "rhf"
			},
			{
				"type": "occ",
				"energy": -0.24568,
				"method": "rhf"
			},
			{
				"type": "occ",
				"energy": -0.23633,
				"method": "rhf"
			},
			{
				"type": "unocc",
				"energy": -0.09455,
				"method": "rhf"
			},
			{
				"type": "unocc",
				"energy": -0.05331,
				"method": "rhf"
			},
			{
				"type": "unocc",
				"energy": -0.01014,
				"method": "rhf"
			},
			{
				"type": "unocc",
				"energy": -0.00838,
				"method": "rhf"
			},
			{
				"type": "unocc",
				"energy": 0.05613,
				"method": "rhf"
			}
		],
		"cosmo_sigma_profile": { 
			"-0.025": 0.0,
			"-0.024": 0.0,
			"-0.023": 0.0,
			"-0.022": 0.0,
			"-0.021": 0.0,
			"-0.02": 0.0,
			"-0.019": 0.730223050768,
			"-0.018": 2.7218560284,
			"-0.017": 1.64932362195,
			"-0.016": 2.78526862612,
			"-0.015": 2.35809784888,
			"-0.014": 2.42620792633,
			"-0.013": 1.71230360796,
			"-0.012": 1.74708979007,
			"-0.011": 1.70665933745,
			"-0.01": 3.02868573117,
			"-0.009": 2.31709305005,
			"-0.008": 3.32923651624,
			"-0.007": 4.46918930492,
			"-0.006": 9.47391181035,
			"-0.005": 9.60668518364,
			"-0.004": 12.1933926173,
			"-0.003": 10.6969430302,
			"-0.002": 11.8034511059,
			"-0.001": 13.3670060487,
			"0.0": 18.6776674668,
			"0.001": 34.0796776358,
			"0.002": 29.2683847921,
			"0.003": 13.4537158825,
			"0.004": 5.86578028536,
			"0.005": 7.69554525497,
			"0.006": 4.55025784945,
			"0.007": 6.1588022469,
			"0.008": 5.15913694985,
			"0.009": 8.0064273044,
			"0.01": 7.61195819314,
			"0.011": 7.7228208675,
			"0.012": 4.68511469393,
			"0.013": 0.0,
			"0.014": 0.0,
			"0.015": 0.0,
			"0.016": 0.0,
			"0.017": 0.0,
			"0.018": 0.0,
			"0.019": 0.0,
			"0.02": 0.0,
			"0.021": 0.0,
			"0.022": 0.0,
			"0.023": 0.0,
			"0.024": 0.0,
			"0.025": 0.0
		}
	}
}
