{
	 "smiles": "OC(=O)C1=CC(OC2CCCCC2)=CC=C1", 
	 "Tm": 349.15, 
	 "num_atms": 32, 
	 "gaussian": { 
		 "optdone": 1, 
		 "sigma_profile": "yes", 
		 "theory": "DFT", 
		 "functional": "B3LYP", 
		 "basiset": "6-31G**", 
		 "properties": { 
			 "R2extent": 4290.6911, 
			 "electric_dipole_moment_norm": 2.52437327272, 
			 "electric_quadrupole_moment_norm": 10.0344332192, 
			 "total_energy": -730.716905819, 
			 "HOMO_LUMO_gap": 0.19226, 
			 "cosmo_polarized_energy": -10.21, 
			 "cosmo_cavitation_energy": 33.19, 
			 "cosmo_dispersion_energy": -23.68, 
			 "cosmo_repulsion_energy": 1.85, 
			 "cosmo_total_nonelectrostatic_energy": 11.37, 
			 "SMD_solvation_energy": 5.97 
		},
		"coords": [
			{
				"x": 0.2735723986,
				"y": 2.8588116765,
				"z": 1.9443247945,
				"element": "O" 
			},
			{
				"x": -0.6944707124,
				"y": 2.7595827143,
				"z": 0.9978385262,
				"element": "C" 
			},
			{
				"x": -1.7790281023,
				"y": 3.2920986621,
				"z": 1.1302126849,
				"element": "O" 
			},
			{
				"x": -0.2826791181,
				"y": 1.9470486406,
				"z": -0.1780911325,
				"element": "C" 
			},
			{
				"x": 0.9877499686,
				"y": 1.3624261701,
				"z": -0.2634849271,
				"element": "C" 
			},
			{
				"x": 1.33159698,
				"y": 0.6011506375,
				"z": -1.3847222496,
				"element": "C" 
			},
			{
				"x": 2.6072517574,
				"y": 0.1106310759,
				"z": -1.5200054681,
				"element": "O" 
			},
			{
				"x": 3.0147148468,
				"y": -1.2083251088,
				"z": -1.0642153742,
				"element": "C" 
			},
			{
				"x": 2.3438089611,
				"y": -2.3698194624,
				"z": -1.8223351608,
				"element": "C" 
			},
			{
				"x": 0.9912575555,
				"y": -2.8317483418,
				"z": -1.2527199129,
				"element": "C" 
			},
			{
				"x": 1.0868193836,
				"y": -3.1128849167,
				"z": 0.2537421468,
				"element": "C" 
			},
			{
				"x": 1.5904853343,
				"y": -1.8745359743,
				"z": 1.0089639049,
				"element": "C" 
			},
			{
				"x": 2.9479875354,
				"y": -1.398439195,
				"z": 0.4633144598,
				"element": "C" 
			},
			{
				"x": 0.4134695458,
				"y": 0.4639162272,
				"z": -2.4348652299,
				"element": "C" 
			},
			{
				"x": -0.8511018178,
				"y": 1.0493773725,
				"z": -2.3454595924,
				"element": "C" 
			},
			{
				"x": -1.2072670867,
				"y": 1.7858364849,
				"z": -1.2186082672,
				"element": "C" 
			},
			{
				"x": -0.1063803678,
				"y": 3.4072268411,
				"z": 2.6500386619,
				"element": "H" 
			},
			{
				"x": 1.7124373942,
				"y": 1.5065129051,
				"z": 0.5283315019,
				"element": "H" 
			},
			{
				"x": 4.0711262201,
				"y": -1.1927503124,
				"z": -1.3499295195,
				"element": "H" 
			},
			{
				"x": 2.2611002002,
				"y": -2.1011320426,
				"z": -2.8813816865,
				"element": "H" 
			},
			{
				"x": 3.0429263579,
				"y": -3.2167759693,
				"z": -1.7750194541,
				"element": "H" 
			},
			{
				"x": 0.2246121582,
				"y": -2.0688546164,
				"z": -1.428464319,
				"element": "H" 
			},
			{
				"x": 0.6637830467,
				"y": -3.7306375685,
				"z": -1.7889685715,
				"element": "H" 
			},
			{
				"x": 1.7759724617,
				"y": -3.9527379816,
				"z": 0.4261248914,
				"element": "H" 
			},
			{
				"x": 0.1111483159,
				"y": -3.4246231604,
				"z": 0.6442912238,
				"element": "H" 
			},
			{
				"x": 0.8462219628,
				"y": -1.074917946,
				"z": 0.925773835,
				"element": "H" 
			},
			{
				"x": 1.6909804229,
				"y": -2.0943300707,
				"z": 2.0786298674,
				"element": "H" 
			},
			{
				"x": 3.7032430265,
				"y": -2.156781167,
				"z": 0.7140507259,
				"element": "H" 
			},
			{
				"x": 3.2716680694,
				"y": -0.472290352,
				"z": 0.9508734464,
				"element": "H" 
			},
			{
				"x": 0.7086501241,
				"y": -0.0918282025,
				"z": -3.318921175,
				"element": "H" 
			},
			{
				"x": -1.5555757253,
				"y": 0.9348679819,
				"z": -3.1639975506,
				"element": "H" 
			},
			{
				"x": -2.1820810973,
				"y": 2.2517249989,
				"z": -1.1283210802,
				"element": "H" 
			}
		],
		 "valence_orbital": [ 
			{
				"type": "occ",
				"energy": -0.30138,
				"method": "rhf"
			},
			{
				"type": "occ",
				"energy": -0.27832,
				"method": "rhf"
			},
			{
				"type": "occ",
				"energy": -0.26311,
				"method": "rhf"
			},
			{
				"type": "occ",
				"energy": -0.26139,
				"method": "rhf"
			},
			{
				"type": "occ",
				"energy": -0.23995,
				"method": "rhf"
			},
			{
				"type": "unocc",
				"energy": -0.04769,
				"method": "rhf"
			},
			{
				"type": "unocc",
				"energy": -0.0063,
				"method": "rhf"
			},
			{
				"type": "unocc",
				"energy": 0.05756,
				"method": "rhf"
			},
			{
				"type": "unocc",
				"energy": 0.07258,
				"method": "rhf"
			},
			{
				"type": "unocc",
				"energy": 0.07551,
				"method": "rhf"
			}
		],
		"cosmo_sigma_profile": { 
			"-0.025": 0.0,
			"-0.024": 0.0,
			"-0.023": 0.0,
			"-0.022": 0.0,
			"-0.021": 0.0,
			"-0.02": 0.0,
			"-0.019": 0.0255041601555,
			"-0.018": 0.596700459381,
			"-0.017": 1.24785267683,
			"-0.016": 0.536676780169,
			"-0.015": 0.660834967929,
			"-0.014": 0.731662136348,
			"-0.013": 0.46457830674,
			"-0.012": 0.80038279137,
			"-0.011": 1.01297458546,
			"-0.01": 1.04431087275,
			"-0.009": 0.428081333946,
			"-0.008": 0.187612296172,
			"-0.007": 2.04753869703,
			"-0.006": 5.60122916602,
			"-0.005": 8.93385640884,
			"-0.004": 14.4918307629,
			"-0.003": 22.451395959,
			"-0.002": 29.8338526864,
			"-0.001": 32.0738066535,
			"0.0": 39.7577190707,
			"0.001": 27.132820833,
			"0.002": 15.2943805717,
			"0.003": 15.5258510438,
			"0.004": 6.76003848714,
			"0.005": 4.40670769036,
			"0.006": 4.34859162435,
			"0.007": 4.18440936942,
			"0.008": 3.28934691832,
			"0.009": 2.57830046739,
			"0.01": 2.92604285832,
			"0.011": 5.14540902903,
			"0.012": 5.30973197564,
			"0.013": 0.177754346911,
			"0.014": 0.0,
			"0.015": 0.0,
			"0.016": 0.0,
			"0.017": 0.0,
			"0.018": 0.0,
			"0.019": 0.0,
			"0.02": 0.0,
			"0.021": 0.0,
			"0.022": 0.0,
			"0.023": 0.0,
			"0.024": 0.0,
			"0.025": 0.0
		}
	}
}
