{
	 "smiles": "NCC1=CC(=CC=C1)S(=O)(=O)NCC1=CC(F)=CC=C1", 
	 "Tm": 375.15, 
	 "num_atms": 35, 
	 "gaussian": { 
		 "optdone": 1, 
		 "sigma_profile": "yes", 
		 "theory": "DFT", 
		 "functional": "B3LYP", 
		 "basiset": "6-31G**", 
		 "properties": { 
			 "R2extent": 7436.5673, 
			 "electric_dipole_moment_norm": 6.14382744387, 
			 "electric_quadrupole_moment_norm": 19.3012619082, 
			 "total_energy": -1300.42651245, 
			 "HOMO_LUMO_gap": 0.19668, 
			 "cosmo_polarized_energy": -22.95, 
			 "cosmo_cavitation_energy": 41.02, 
			 "cosmo_dispersion_energy": -28.11, 
			 "cosmo_repulsion_energy": 2.13, 
			 "cosmo_total_nonelectrostatic_energy": 15.04, 
			 "SMD_solvation_energy": 4.78 
		},
		"coords": [
			{
				"x": -1.7972028004,
				"y": -4.578202588,
				"z": -1.0507878378,
				"element": "N" 
			},
			{
				"x": -2.4098559248,
				"y": -3.4141502673,
				"z": -0.3966443567,
				"element": "C" 
			},
			{
				"x": -1.6513107269,
				"y": -2.8633812955,
				"z": 0.801326265,
				"element": "C" 
			},
			{
				"x": -0.5815338257,
				"y": -1.9757941636,
				"z": 0.6178943616,
				"element": "C" 
			},
			{
				"x": 0.1514397616,
				"y": -1.5285396953,
				"z": 1.7179787874,
				"element": "C" 
			},
			{
				"x": -0.1491175187,
				"y": -1.9526411041,
				"z": 3.0156497343,
				"element": "C" 
			},
			{
				"x": -1.2155689119,
				"y": -2.8306334875,
				"z": 3.2007578505,
				"element": "C" 
			},
			{
				"x": -1.9598533403,
				"y": -3.2745189599,
				"z": 2.1047195068,
				"element": "C" 
			},
			{
				"x": 1.5024738862,
				"y": -0.3664602709,
				"z": 1.4625480832,
				"element": "S" 
			},
			{
				"x": 1.8992712393,
				"y": -0.4703351227,
				"z": 0.0599421836,
				"element": "O" 
			},
			{
				"x": 2.4442295677,
				"y": -0.5277981774,
				"z": 2.5715220322,
				"element": "O" 
			},
			{
				"x": 0.8548087465,
				"y": 1.1757871991,
				"z": 1.6786848345,
				"element": "N" 
			},
			{
				"x": -0.2305875466,
				"y": 1.6601582102,
				"z": 0.8154899753,
				"element": "C" 
			},
			{
				"x": 0.2341932759,
				"y": 2.2718429126,
				"z": -0.4942618362,
				"element": "C" 
			},
			{
				"x": 1.4716314333,
				"y": 2.9136687138,
				"z": -0.5918876247,
				"element": "C" 
			},
			{
				"x": 1.8211576318,
				"y": 3.5184661823,
				"z": -1.7920403838,
				"element": "C" 
			},
			{
				"x": 3.0182677999,
				"y": 4.1354419501,
				"z": -1.882294388,
				"element": "F" 
			},
			{
				"x": 0.9844191451,
				"y": 3.5154795609,
				"z": -2.9029977941,
				"element": "C" 
			},
			{
				"x": -0.2483165954,
				"y": 2.8719455367,
				"z": -2.7958282317,
				"element": "C" 
			},
			{
				"x": -0.6211290169,
				"y": 2.2516651368,
				"z": -1.6021671668,
				"element": "C" 
			},
			{
				"x": -1.6618596862,
				"y": -5.3217953496,
				"z": -0.3688513636,
				"element": "H" 
			},
			{
				"x": -0.8671493894,
				"y": -4.3339219301,
				"z": -1.3849269009,
				"element": "H" 
			},
			{
				"x": -2.5209329475,
				"y": -2.6296852006,
				"z": -1.1536435172,
				"element": "H" 
			},
			{
				"x": -3.4220255415,
				"y": -3.6975821296,
				"z": -0.0865730108,
				"element": "H" 
			},
			{
				"x": -0.298065343,
				"y": -1.6466907752,
				"z": -0.37773505,
				"element": "H" 
			},
			{
				"x": 0.4566759104,
				"y": -1.6169309073,
				"z": 3.8504681809,
				"element": "H" 
			},
			{
				"x": -1.4646736862,
				"y": -3.1737012,
				"z": 4.2005977642,
				"element": "H" 
			},
			{
				"x": -2.7921307053,
				"y": -3.956518709,
				"z": 2.2632952235,
				"element": "H" 
			},
			{
				"x": 0.7331611733,
				"y": 1.3581020705,
				"z": 2.6689922784,
				"element": "H" 
			},
			{
				"x": -0.7532230118,
				"y": 2.425581072,
				"z": 1.4020000721,
				"element": "H" 
			},
			{
				"x": -0.9723886753,
				"y": 0.874674095,
				"z": 0.613539378,
				"element": "H" 
			},
			{
				"x": 2.1631027979,
				"y": 2.9240193154,
				"z": 0.2423509375,
				"element": "H" 
			},
			{
				"x": 1.3045651374,
				"y": 3.9991128176,
				"z": -3.8192758299,
				"element": "H" 
			},
			{
				"x": -0.9170885951,
				"y": 2.8474876834,
				"z": -3.6510805661,
				"element": "H" 
			},
			{
				"x": -1.5815837175,
				"y": 1.7471488772,
				"z": -1.5334615906,
				"element": "H" 
			}
		],
		 "valence_orbital": [ 
			{
				"type": "occ",
				"energy": -0.27716,
				"method": "rhf"
			},
			{
				"type": "occ",
				"energy": -0.2704,
				"method": "rhf"
			},
			{
				"type": "occ",
				"energy": -0.25113,
				"method": "rhf"
			},
			{
				"type": "occ",
				"energy": -0.24335,
				"method": "rhf"
			},
			{
				"type": "occ",
				"energy": -0.24077,
				"method": "rhf"
			},
			{
				"type": "unocc",
				"energy": -0.04409,
				"method": "rhf"
			},
			{
				"type": "unocc",
				"energy": -0.02974,
				"method": "rhf"
			},
			{
				"type": "unocc",
				"energy": -0.01083,
				"method": "rhf"
			},
			{
				"type": "unocc",
				"energy": 0.00196,
				"method": "rhf"
			},
			{
				"type": "unocc",
				"energy": 0.05423,
				"method": "rhf"
			}
		],
		"cosmo_sigma_profile": { 
			"-0.025": 0.0,
			"-0.024": 0.0,
			"-0.023": 0.0,
			"-0.022": 0.0,
			"-0.021": 0.0,
			"-0.02": 0.0,
			"-0.019": 0.0,
			"-0.018": 0.0,
			"-0.017": 0.0,
			"-0.016": 0.0523046514794,
			"-0.015": 1.28318500854,
			"-0.014": 0.847315809101,
			"-0.013": 1.44575890255,
			"-0.012": 1.42000912732,
			"-0.011": 1.3182245753,
			"-0.01": 2.33697879166,
			"-0.009": 4.34865371046,
			"-0.008": 5.47092819205,
			"-0.007": 12.9445773331,
			"-0.006": 22.8611571673,
			"-0.005": 26.8519821593,
			"-0.004": 24.1065768918,
			"-0.003": 20.2410689054,
			"-0.002": 16.4852591398,
			"-0.001": 18.4576368226,
			"0.0": 14.9075957553,
			"0.001": 19.9320471514,
			"0.002": 24.4249369167,
			"0.003": 23.3672397356,
			"0.004": 22.372872414,
			"0.005": 14.390224202,
			"0.006": 4.77735144874,
			"0.007": 4.08382821801,
			"0.008": 5.93405764328,
			"0.009": 4.15036191909,
			"0.01": 8.81532691252,
			"0.011": 9.59406708863,
			"0.012": 4.15688679122,
			"0.013": 0.636027747467,
			"0.014": 0.676793304209,
			"0.015": 0.73836144015,
			"0.016": 0.385392457707,
			"0.017": 0.638425124563,
			"0.018": 0.895487991185,
			"0.019": 0.433751055423,
			"0.02": 0.144071435122,
			"0.021": 0.0,
			"0.022": 0.0,
			"0.023": 0.0,
			"0.024": 0.0,
			"0.025": 0.0
		}
	}
}
