{
	 "smiles": "ClC1=CC=C(C=C1)N=C=O", 
	 "Tm": 303.15, 
	 "num_atms": 14, 
	 "gaussian": { 
		 "optdone": 1, 
		 "sigma_profile": "yes", 
		 "theory": "DFT", 
		 "functional": "B3LYP", 
		 "basiset": "6-31G**", 
		 "properties": { 
			 "R2extent": 2844.7414, 
			 "electric_dipole_moment_norm": 0.856111353739, 
			 "electric_quadrupole_moment_norm": 11.8485843222, 
			 "total_energy": -859.319552256, 
			 "HOMO_LUMO_gap": 0.20786, 
			 "cosmo_polarized_energy": -5.4, 
			 "cosmo_cavitation_energy": 21.99, 
			 "cosmo_dispersion_energy": -15.97, 
			 "cosmo_repulsion_energy": 1.3, 
			 "cosmo_total_nonelectrostatic_energy": 7.33, 
			 "SMD_solvation_energy": 6.27 
		},
		"coords": [
			{
				"x": 3.3445330897,
				"y": -2.1950485119,
				"z": 0.1411802177,
				"element": "Cl" 
			},
			{
				"x": 2.1766913754,
				"y": -0.9810289349,
				"z": 0.6359284534,
				"element": "C" 
			},
			{
				"x": 2.5548553494,
				"y": 0.361178662,
				"z": 0.6749826286,
				"element": "C" 
			},
			{
				"x": 1.6282019268,
				"y": 1.3233898152,
				"z": 1.0688491806,
				"element": "C" 
			},
			{
				"x": 0.3238504379,
				"y": 0.9438079526,
				"z": 1.4135007305,
				"element": "C" 
			},
			{
				"x": -0.0405244311,
				"y": -0.4091180342,
				"z": 1.3812125652,
				"element": "C" 
			},
			{
				"x": 0.8848036426,
				"y": -1.3727038221,
				"z": 0.9875887922,
				"element": "C" 
			},
			{
				"x": -0.5917682666,
				"y": 1.9017515906,
				"z": 1.8350112354,
				"element": "N" 
			},
			{
				"x": -1.4612843042,
				"y": 2.6981031945,
				"z": 1.6116289502,
				"element": "C" 
			},
			{
				"x": -2.3179538727,
				"y": 3.5045442791,
				"z": 1.5118412999,
				"element": "O" 
			},
			{
				"x": 3.5634966189,
				"y": 0.6503633116,
				"z": 0.4020357814,
				"element": "H" 
			},
			{
				"x": 1.9077970718,
				"y": 2.3705761815,
				"z": 1.1102135712,
				"element": "H" 
			},
			{
				"x": -1.0473535234,
				"y": -0.697519846,
				"z": 1.6633550963,
				"element": "H" 
			},
			{
				"x": 0.6061548856,
				"y": -2.419995838,
				"z": 0.9555714973,
				"element": "H" 
			}
		],
		 "valence_orbital": [ 
			{
				"type": "occ",
				"energy": -0.32115,
				"method": "rhf"
			},
			{
				"type": "occ",
				"energy": -0.31682,
				"method": "rhf"
			},
			{
				"type": "occ",
				"energy": -0.30052,
				"method": "rhf"
			},
			{
				"type": "occ",
				"energy": -0.27886,
				"method": "rhf"
			},
			{
				"type": "occ",
				"energy": -0.24336,
				"method": "rhf"
			},
			{
				"type": "unocc",
				"energy": -0.0355,
				"method": "rhf"
			},
			{
				"type": "unocc",
				"energy": -0.02828,
				"method": "rhf"
			},
			{
				"type": "unocc",
				"energy": 0.01972,
				"method": "rhf"
			},
			{
				"type": "unocc",
				"energy": 0.04398,
				"method": "rhf"
			},
			{
				"type": "unocc",
				"energy": 0.05405,
				"method": "rhf"
			}
		],
		"cosmo_sigma_profile": { 
			"-0.025": 0.0,
			"-0.024": 0.0,
			"-0.023": 0.0,
			"-0.022": 0.0,
			"-0.021": 0.0,
			"-0.02": 0.0,
			"-0.019": 0.0,
			"-0.018": 0.0,
			"-0.017": 0.0,
			"-0.016": 0.0,
			"-0.015": 0.0,
			"-0.014": 0.0,
			"-0.013": 0.0,
			"-0.012": 0.0,
			"-0.011": 0.0,
			"-0.01": 0.0,
			"-0.009": 0.0,
			"-0.008": 3.07846113055,
			"-0.007": 8.38642208044,
			"-0.006": 8.03887522056,
			"-0.005": 10.3296480825,
			"-0.004": 11.5159169029,
			"-0.003": 11.7721204817,
			"-0.002": 12.7571955437,
			"-0.001": 11.3699334162,
			"0.0": 12.9708855868,
			"0.001": 18.4003397904,
			"0.002": 21.8662356552,
			"0.003": 18.3771980593,
			"0.004": 11.6115413018,
			"0.005": 6.41760305206,
			"0.006": 2.685222383,
			"0.007": 3.36961512881,
			"0.008": 7.92286869341,
			"0.009": 0.13252773861,
			"0.01": 0.0,
			"0.011": 0.0,
			"0.012": 0.0,
			"0.013": 0.0,
			"0.014": 0.0,
			"0.015": 0.0,
			"0.016": 0.0,
			"0.017": 0.0,
			"0.018": 0.0,
			"0.019": 0.0,
			"0.02": 0.0,
			"0.021": 0.0,
			"0.022": 0.0,
			"0.023": 0.0,
			"0.024": 0.0,
			"0.025": 0.0
		}
	}
}
