{
	 "smiles": "COC1=CC2=C(N=CC=C2)C(=C1)[N+]([O-])=O", 
	 "Tm": 432.15, 
	 "num_atms": 23, 
	 "gaussian": { 
		 "optdone": 1, 
		 "sigma_profile": "yes", 
		 "theory": "DFT", 
		 "functional": "B3LYP", 
		 "basiset": "6-31G**", 
		 "properties": { 
			 "R2extent": 3989.8839, 
			 "electric_dipole_moment_norm": 7.18192842348, 
			 "electric_quadrupole_moment_norm": 20.1738239199, 
			 "total_energy": -720.938617074, 
			 "HOMO_LUMO_gap": 0.16788, 
			 "cosmo_polarized_energy": -14.2, 
			 "cosmo_cavitation_energy": 28.6, 
			 "cosmo_dispersion_energy": -20.6, 
			 "cosmo_repulsion_energy": 1.6, 
			 "cosmo_total_nonelectrostatic_energy": 9.6, 
			 "SMD_solvation_energy": 7.07 
		},
		"coords": [
			{
				"x": -3.8897983255,
				"y": -1.5273902035,
				"z": 1.8185401871,
				"element": "C" 
			},
			{
				"x": -3.7798508901,
				"y": -0.3341281808,
				"z": 1.0537449375,
				"element": "O" 
			},
			{
				"x": -2.6470316479,
				"y": -0.1375928598,
				"z": 0.3318045952,
				"element": "C" 
			},
			{
				"x": -1.5725088617,
				"y": -1.0046375725,
				"z": 0.2705451536,
				"element": "C" 
			},
			{
				"x": -0.4416093208,
				"y": -0.6804600224,
				"z": -0.5259037619,
				"element": "C" 
			},
			{
				"x": -0.4036044942,
				"y": 0.5396487492,
				"z": -1.2684060067,
				"element": "C" 
			},
			{
				"x": 0.6399461219,
				"y": 0.9170883384,
				"z": -2.0497115424,
				"element": "N" 
			},
			{
				"x": 1.6740208432,
				"y": 0.1017696526,
				"z": -2.1199209387,
				"element": "C" 
			},
			{
				"x": 1.7507214572,
				"y": -1.1334263263,
				"z": -1.4297595762,
				"element": "C" 
			},
			{
				"x": 0.6961799157,
				"y": -1.5214684964,
				"z": -0.6363320747,
				"element": "C" 
			},
			{
				"x": -1.5390054232,
				"y": 1.3901537802,
				"z": -1.1648561751,
				"element": "C" 
			},
			{
				"x": -2.6284916003,
				"y": 1.083150883,
				"z": -0.4006726637,
				"element": "C" 
			},
			{
				"x": -1.5275562135,
				"y": 2.6576337461,
				"z": -1.9212835177,
				"element": "N" 
			},
			{
				"x": -1.988021072,
				"y": 2.6278684055,
				"z": -3.056506025,
				"element": "O" 
			},
			{
				"x": -1.0727221455,
				"y": 3.6399092151,
				"z": -1.3469233283,
				"element": "O" 
			},
			{
				"x": -4.8619372399,
				"y": -1.4799743341,
				"z": 2.3101128698,
				"element": "H" 
			},
			{
				"x": -3.1004110264,
				"y": -1.5898470399,
				"z": 2.5778830648,
				"element": "H" 
			},
			{
				"x": -3.8482726548,
				"y": -2.4176581977,
				"z": 1.1787522308,
				"element": "H" 
			},
			{
				"x": -1.5691073634,
				"y": -1.9380198555,
				"z": 0.8211966861,
				"element": "H" 
			},
			{
				"x": 2.500813228,
				"y": 0.4220790418,
				"z": -2.7515231492,
				"element": "H" 
			},
			{
				"x": 2.6340159873,
				"y": -1.7554024053,
				"z": -1.5337710184,
				"element": "H" 
			},
			{
				"x": 0.7197241034,
				"y": -2.4620239844,
				"z": -0.0921725202,
				"element": "H" 
			},
			{
				"x": -3.4844933774,
				"y": 1.7452276666,
				"z": -0.3349374266,
				"element": "H" 
			}
		],
		 "valence_orbital": [ 
			{
				"type": "occ",
				"energy": -0.29827,
				"method": "rhf"
			},
			{
				"type": "occ",
				"energy": -0.28897,
				"method": "rhf"
			},
			{
				"type": "occ",
				"energy": -0.26819,
				"method": "rhf"
			},
			{
				"type": "occ",
				"energy": -0.2581,
				"method": "rhf"
			},
			{
				"type": "occ",
				"energy": -0.23558,
				"method": "rhf"
			},
			{
				"type": "unocc",
				"energy": -0.0677,
				"method": "rhf"
			},
			{
				"type": "unocc",
				"energy": -0.06101,
				"method": "rhf"
			},
			{
				"type": "unocc",
				"energy": -0.02825,
				"method": "rhf"
			},
			{
				"type": "unocc",
				"energy": 0.00395,
				"method": "rhf"
			},
			{
				"type": "unocc",
				"energy": 0.07631,
				"method": "rhf"
			}
		],
		"cosmo_sigma_profile": { 
			"-0.025": 0.0,
			"-0.024": 0.0,
			"-0.023": 0.0,
			"-0.022": 0.0,
			"-0.021": 0.0,
			"-0.02": 0.0,
			"-0.019": 0.0,
			"-0.018": 0.0,
			"-0.017": 0.0,
			"-0.016": 0.0,
			"-0.015": 0.0,
			"-0.014": 0.0,
			"-0.013": 0.0,
			"-0.012": 0.0,
			"-0.011": 0.23511504395,
			"-0.01": 1.28261384086,
			"-0.009": 2.19349033961,
			"-0.008": 5.89980895746,
			"-0.007": 11.8519757792,
			"-0.006": 18.0920116497,
			"-0.005": 16.039557435,
			"-0.004": 14.7422740007,
			"-0.003": 12.118576404,
			"-0.002": 9.23107065441,
			"-0.001": 10.6979311729,
			"0.0": 22.0994475051,
			"0.001": 24.0159208428,
			"0.002": 14.932759032,
			"0.003": 7.10224542863,
			"0.004": 7.05163978054,
			"0.005": 7.18866037904,
			"0.006": 11.0619499716,
			"0.007": 15.5519893342,
			"0.008": 10.1123699288,
			"0.009": 5.20524806165,
			"0.01": 1.16392890463,
			"0.011": 1.27043003263,
			"0.012": 0.397578451709,
			"0.013": 0.248884958854,
			"0.014": 0.0,
			"0.015": 0.0,
			"0.016": 0.0,
			"0.017": 0.0,
			"0.018": 0.0,
			"0.019": 0.0,
			"0.02": 0.0,
			"0.021": 0.0,
			"0.022": 0.0,
			"0.023": 0.0,
			"0.024": 0.0,
			"0.025": 0.0
		}
	}
}
