{
	 "smiles": "ClC1=NC2=C(C=C1)C=C(C=C2)S(Cl)(=O)=O", 
	 "Tm": 412.15, 
	 "num_atms": 20, 
	 "gaussian": { 
		 "optdone": 1, 
		 "sigma_profile": "yes", 
		 "theory": "DFT", 
		 "functional": "B3LYP", 
		 "basiset": "6-31G**", 
		 "properties": { 
			 "R2extent": 6011.7897, 
			 "electric_dipole_moment_norm": 3.64260722697, 
			 "electric_quadrupole_moment_norm": 26.6676106888, 
			 "total_energy": -1869.68059446, 
			 "HOMO_LUMO_gap": 0.17208, 
			 "cosmo_polarized_energy": -11.82, 
			 "cosmo_cavitation_energy": 30.53, 
			 "cosmo_dispersion_energy": -23.07, 
			 "cosmo_repulsion_energy": 1.75, 
			 "cosmo_total_nonelectrostatic_energy": 9.21, 
			 "SMD_solvation_energy": 1.93 
		},
		"coords": [
			{
				"x": -4.0702148729,
				"y": 0.9340938603,
				"z": -2.4392279428,
				"element": "Cl" 
			},
			{
				"x": -2.5438409014,
				"y": 1.1005474372,
				"z": -1.5832049618,
				"element": "C" 
			},
			{
				"x": -1.944547807,
				"y": 0.0048786501,
				"z": -1.2170591931,
				"element": "N" 
			},
			{
				"x": -0.7586252479,
				"y": 0.1217633145,
				"z": -0.5507075626,
				"element": "C" 
			},
			{
				"x": -0.1768384319,
				"y": 1.3945395918,
				"z": -0.2539836437,
				"element": "C" 
			},
			{
				"x": -0.877577737,
				"y": 2.5549661667,
				"z": -0.682172069,
				"element": "C" 
			},
			{
				"x": -2.0676188267,
				"y": 2.4200637322,
				"z": -1.3498211183,
				"element": "C" 
			},
			{
				"x": 1.0540032674,
				"y": 1.4499620618,
				"z": 0.4417474562,
				"element": "C" 
			},
			{
				"x": 1.6603530941,
				"y": 0.2694365907,
				"z": 0.8111176454,
				"element": "C" 
			},
			{
				"x": 1.1063829151,
				"y": -1.0007750812,
				"z": 0.5240871097,
				"element": "C" 
			},
			{
				"x": -0.0914161812,
				"y": -1.065694752,
				"z": -0.1488826258,
				"element": "C" 
			},
			{
				"x": 3.226324424,
				"y": 0.3511750514,
				"z": 1.6680816443,
				"element": "S" 
			},
			{
				"x": 2.5967180292,
				"y": 0.1698283199,
				"z": 3.6976428444,
				"element": "Cl" 
			},
			{
				"x": 3.783925387,
				"y": 1.6908001302,
				"z": 1.5309504528,
				"element": "O" 
			},
			{
				"x": 3.9966807235,
				"y": -0.8502553607,
				"z": 1.3745578521,
				"element": "O" 
			},
			{
				"x": -0.4652083239,
				"y": 3.5386140181,
				"z": -0.4760847559,
				"element": "H" 
			},
			{
				"x": -2.6374255957,
				"y": 3.2741623716,
				"z": -1.6943714679,
				"element": "H" 
			},
			{
				"x": 1.5153860187,
				"y": 2.4040417808,
				"z": 0.6741146188,
				"element": "H" 
			},
			{
				"x": 1.6329318227,
				"y": -1.8990910555,
				"z": 0.8256645599,
				"element": "H" 
			},
			{
				"x": -0.5532917561,
				"y": -2.0154568279,
				"z": -0.3947488425,
				"element": "H" 
			}
		],
		 "valence_orbital": [ 
			{
				"type": "occ",
				"energy": -0.3308,
				"method": "rhf"
			},
			{
				"type": "occ",
				"energy": -0.31902,
				"method": "rhf"
			},
			{
				"type": "occ",
				"energy": -0.2994,
				"method": "rhf"
			},
			{
				"type": "occ",
				"energy": -0.28371,
				"method": "rhf"
			},
			{
				"type": "occ",
				"energy": -0.27469,
				"method": "rhf"
			},
			{
				"type": "unocc",
				"energy": -0.10261,
				"method": "rhf"
			},
			{
				"type": "unocc",
				"energy": -0.08419,
				"method": "rhf"
			},
			{
				"type": "unocc",
				"energy": -0.05762,
				"method": "rhf"
			},
			{
				"type": "unocc",
				"energy": -0.02209,
				"method": "rhf"
			},
			{
				"type": "unocc",
				"energy": 0.0146,
				"method": "rhf"
			}
		],
		"cosmo_sigma_profile": { 
			"-0.025": 0.0,
			"-0.024": 0.0,
			"-0.023": 0.0,
			"-0.022": 0.0,
			"-0.021": 0.0,
			"-0.02": 0.0,
			"-0.019": 0.0,
			"-0.018": 0.0,
			"-0.017": 0.0,
			"-0.016": 0.0,
			"-0.015": 0.0,
			"-0.014": 0.0,
			"-0.013": 0.0,
			"-0.012": 0.0,
			"-0.011": 0.565943139096,
			"-0.01": 2.50192119938,
			"-0.009": 5.27544389768,
			"-0.008": 7.88114036952,
			"-0.007": 9.40094032659,
			"-0.006": 9.59091761681,
			"-0.005": 8.05048779488,
			"-0.004": 8.75611184987,
			"-0.003": 12.9751215893,
			"-0.002": 25.8842928456,
			"-0.001": 29.1659764712,
			"0.0": 22.8904157232,
			"0.001": 17.204752838,
			"0.002": 15.3566936379,
			"0.003": 22.9050780333,
			"0.004": 16.2881836391,
			"0.005": 6.33794400942,
			"0.006": 4.78945452582,
			"0.007": 8.10012480764,
			"0.008": 10.5929143469,
			"0.009": 4.90782240988,
			"0.01": 0.339232830366,
			"0.011": 0.806687250807,
			"0.012": 1.09148907318,
			"0.013": 0.328777436558,
			"0.014": 0.0,
			"0.015": 0.0,
			"0.016": 0.0,
			"0.017": 0.0,
			"0.018": 0.0,
			"0.019": 0.0,
			"0.02": 0.0,
			"0.021": 0.0,
			"0.022": 0.0,
			"0.023": 0.0,
			"0.024": 0.0,
			"0.025": 0.0
		}
	}
}
