{
	 "smiles": "OC(=O)C(CC1=CC=CC=C1)CC1=CC=C(Cl)C=C1", 
	 "Tm": 353.15, 
	 "num_atms": 34, 
	 "gaussian": { 
		 "optdone": 1, 
		 "sigma_profile": "yes", 
		 "theory": "DFT", 
		 "functional": "B3LYP", 
		 "basiset": "6-31G**", 
		 "properties": { 
			 "R2extent": 8698.3672, 
			 "electric_dipole_moment_norm": 3.88214827641, 
			 "electric_quadrupole_moment_norm": 14.7672672519, 
			 "total_energy": -1229.40526994, 
			 "HOMO_LUMO_gap": 0.21451, 
			 "cosmo_polarized_energy": -14.95, 
			 "cosmo_cavitation_energy": 39.48, 
			 "cosmo_dispersion_energy": -27.04, 
			 "cosmo_repulsion_energy": 2.09, 
			 "cosmo_total_nonelectrostatic_energy": 14.53, 
			 "SMD_solvation_energy": 6.9 
		},
		"coords": [
			{
				"x": 2.5845822469,
				"y": 1.8125751843,
				"z": 1.9474295441,
				"element": "O" 
			},
			{
				"x": 2.127697259,
				"y": 1.7550169464,
				"z": 0.6709391044,
				"element": "C" 
			},
			{
				"x": 2.5951922978,
				"y": 2.486560301,
				"z": -0.1678325292,
				"element": "O" 
			},
			{
				"x": 1.0218574127,
				"y": 0.728417873,
				"z": 0.3950794874,
				"element": "C" 
			},
			{
				"x": 0.7198005527,
				"y": 0.6725750851,
				"z": -1.1197613288,
				"element": "C" 
			},
			{
				"x": -0.1507620034,
				"y": -0.5008413422,
				"z": -1.5166634075,
				"element": "C" 
			},
			{
				"x": -1.491500688,
				"y": -0.3227370781,
				"z": -1.8836898593,
				"element": "C" 
			},
			{
				"x": -2.29194432,
				"y": -1.4115359678,
				"z": -2.2382239323,
				"element": "C" 
			},
			{
				"x": -1.7617398838,
				"y": -2.7016714956,
				"z": -2.2315161867,
				"element": "C" 
			},
			{
				"x": -0.425261977,
				"y": -2.8948588869,
				"z": -1.8725861921,
				"element": "C" 
			},
			{
				"x": 0.3699467171,
				"y": -1.8045755768,
				"z": -1.5207751044,
				"element": "C" 
			},
			{
				"x": -0.2585721879,
				"y": 1.0233994446,
				"z": 1.233320124,
				"element": "C" 
			},
			{
				"x": -0.1754697556,
				"y": 0.6548431399,
				"z": 2.7014822622,
				"element": "C" 
			},
			{
				"x": -0.1771640074,
				"y": -0.694465145,
				"z": 3.094057966,
				"element": "C" 
			},
			{
				"x": -0.113665437,
				"y": -1.0597391167,
				"z": 4.4370259658,
				"element": "C" 
			},
			{
				"x": -0.0478265516,
				"y": -0.0618314911,
				"z": 5.4110603394,
				"element": "C" 
			},
			{
				"x": 0.029757546,
				"y": -0.5127547514,
				"z": 7.1063694067,
				"element": "Cl" 
			},
			{
				"x": -0.0437296136,
				"y": 1.2852663875,
				"z": 5.056097177,
				"element": "C" 
			},
			{
				"x": -0.1071382094,
				"y": 1.6329349277,
				"z": 3.7047917264,
				"element": "C" 
			},
			{
				"x": 2.0818150454,
				"y": 1.2123806693,
				"z": 2.5204541471,
				"element": "H" 
			},
			{
				"x": 1.4065463025,
				"y": -0.2525937658,
				"z": 0.7085928238,
				"element": "H" 
			},
			{
				"x": 1.6752309363,
				"y": 0.6307836866,
				"z": -1.6512500442,
				"element": "H" 
			},
			{
				"x": 0.2508066279,
				"y": 1.6147779024,
				"z": -1.4219382596,
				"element": "H" 
			},
			{
				"x": -1.909744317,
				"y": 0.6808652465,
				"z": -1.9011147654,
				"element": "H" 
			},
			{
				"x": -3.3277603246,
				"y": -1.2491144055,
				"z": -2.5227979351,
				"element": "H" 
			},
			{
				"x": -2.3810909018,
				"y": -3.5495511061,
				"z": -2.5092777623,
				"element": "H" 
			},
			{
				"x": -0.0002870669,
				"y": -3.8947921176,
				"z": -1.8746317962,
				"element": "H" 
			},
			{
				"x": 1.4134545214,
				"y": -1.9644252024,
				"z": -1.2576971433,
				"element": "H" 
			},
			{
				"x": -0.5193870845,
				"y": 2.08251679,
				"z": 1.1265916117,
				"element": "H" 
			},
			{
				"x": -1.0750315701,
				"y": 0.4528496689,
				"z": 0.7780208483,
				"element": "H" 
			},
			{
				"x": -0.2415440718,
				"y": -1.4719584959,
				"z": 2.3367106954,
				"element": "H" 
			},
			{
				"x": -0.1213737043,
				"y": -2.1040882828,
				"z": 4.7289642266,
				"element": "H" 
			},
			{
				"x": 0.0065812246,
				"y": 2.0508211007,
				"z": 5.822330033,
				"element": "H" 
			},
			{
				"x": -0.1053750145,
				"y": 2.6840498738,
				"z": 3.4294387571,
				"element": "H" 
			}
		],
		 "valence_orbital": [ 
			{
				"type": "occ",
				"energy": -0.27901,
				"method": "rhf"
			},
			{
				"type": "occ",
				"energy": -0.27054,
				"method": "rhf"
			},
			{
				"type": "occ",
				"energy": -0.25828,
				"method": "rhf"
			},
			{
				"type": "occ",
				"energy": -0.25442,
				"method": "rhf"
			},
			{
				"type": "occ",
				"energy": -0.24761,
				"method": "rhf"
			},
			{
				"type": "unocc",
				"energy": -0.0331,
				"method": "rhf"
			},
			{
				"type": "unocc",
				"energy": -0.02889,
				"method": "rhf"
			},
			{
				"type": "unocc",
				"energy": -0.01057,
				"method": "rhf"
			},
			{
				"type": "unocc",
				"energy": -0.00801,
				"method": "rhf"
			},
			{
				"type": "unocc",
				"energy": 0.0108,
				"method": "rhf"
			}
		],
		"cosmo_sigma_profile": { 
			"-0.025": 0.0,
			"-0.024": 0.0,
			"-0.023": 0.0,
			"-0.022": 0.0,
			"-0.021": 0.0,
			"-0.02": 0.0,
			"-0.019": 0.0,
			"-0.018": 0.0,
			"-0.017": 0.0,
			"-0.016": 0.0,
			"-0.015": 0.0,
			"-0.014": 0.0,
			"-0.013": 0.134922147735,
			"-0.012": 1.02657048579,
			"-0.011": 1.28262092838,
			"-0.01": 1.28975502492,
			"-0.009": 1.10464969352,
			"-0.008": 1.72946577261,
			"-0.007": 7.6809817077,
			"-0.006": 17.4158420062,
			"-0.005": 29.0772068217,
			"-0.004": 28.1100871915,
			"-0.003": 25.8645335043,
			"-0.002": 20.9360310682,
			"-0.001": 22.2674542424,
			"0.0": 19.4825311638,
			"0.001": 20.9278098398,
			"0.002": 23.4204654426,
			"0.003": 22.1314965038,
			"0.004": 20.9358362995,
			"0.005": 16.302169133,
			"0.006": 9.26343002097,
			"0.007": 2.73313072335,
			"0.008": 2.39902673725,
			"0.009": 3.78526700044,
			"0.01": 4.15822584967,
			"0.011": 5.52719590486,
			"0.012": 5.1464031163,
			"0.013": 2.02787169446,
			"0.014": 0.130396864161,
			"0.015": 0.0,
			"0.016": 0.0,
			"0.017": 0.0,
			"0.018": 0.0,
			"0.019": 0.0,
			"0.02": 0.0,
			"0.021": 0.0,
			"0.022": 0.0,
			"0.023": 0.0,
			"0.024": 0.0,
			"0.025": 0.0
		}
	}
}
