{
	 "smiles": "NC(=O)C1=CC(=CC(N)=C1)C(N)=O", 
	 "Tm": 520.15, 
	 "num_atms": 22, 
	 "gaussian": { 
		 "optdone": 1, 
		 "sigma_profile": "yes", 
		 "theory": "DFT", 
		 "functional": "B3LYP", 
		 "basiset": "6-31G**", 
		 "properties": { 
			 "R2extent": 2796.1157, 
			 "electric_dipole_moment_norm": 3.72118440957, 
			 "electric_quadrupole_moment_norm": 22.135466532, 
			 "total_energy": -625.020363008, 
			 "HOMO_LUMO_gap": 0.17077, 
			 "cosmo_polarized_energy": -24.97, 
			 "cosmo_cavitation_energy": 26.9, 
			 "cosmo_dispersion_energy": -19.82, 
			 "cosmo_repulsion_energy": 1.6, 
			 "cosmo_total_nonelectrostatic_energy": 8.68, 
			 "SMD_solvation_energy": 6.11 
		},
		"coords": [
			{
				"x": 0.0550396061,
				"y": 2.7213968013,
				"z": -1.3266249754,
				"element": "N" 
			},
			{
				"x": -0.9719199876,
				"y": 1.956432169,
				"z": -0.839610379,
				"element": "C" 
			},
			{
				"x": -2.1412051943,
				"y": 2.3162420349,
				"z": -0.9205370539,
				"element": "O" 
			},
			{
				"x": -0.5846472332,
				"y": 0.6560214931,
				"z": -0.1847466555,
				"element": "C" 
			},
			{
				"x": 0.7253061188,
				"y": 0.3438342294,
				"z": 0.1915817355,
				"element": "C" 
			},
			{
				"x": 0.9970195024,
				"y": -0.8882198648,
				"z": 0.7943872476,
				"element": "C" 
			},
			{
				"x": -0.0327672592,
				"y": -1.8116935658,
				"z": 1.0003052924,
				"element": "C" 
			},
			{
				"x": -1.3541818703,
				"y": -1.5063217069,
				"z": 0.6301032703,
				"element": "C" 
			},
			{
				"x": -2.3893049946,
				"y": -2.403744671,
				"z": 0.8828368902,
				"element": "N" 
			},
			{
				"x": -1.615107849,
				"y": -0.2576416341,
				"z": 0.046970231,
				"element": "C" 
			},
			{
				"x": 2.4237862924,
				"y": -1.1601922316,
				"z": 1.182594907,
				"element": "C" 
			},
			{
				"x": 2.6213088105,
				"y": -2.1470329557,
				"z": 2.120833092,
				"element": "N" 
			},
			{
				"x": 3.3602684253,
				"y": -0.5517468146,
				"z": 0.6788899425,
				"element": "O" 
			},
			{
				"x": -0.2138911884,
				"y": 3.5374597176,
				"z": -1.8557504363,
				"element": "H" 
			},
			{
				"x": 0.9656007137,
				"y": 2.327877907,
				"z": -1.5017710525,
				"element": "H" 
			},
			{
				"x": 1.5518734046,
				"y": 1.0324139879,
				"z": 0.0615655903,
				"element": "H" 
			},
			{
				"x": 0.1845252278,
				"y": -2.7896994469,
				"z": 1.4218174711,
				"element": "H" 
			},
			{
				"x": -3.2220984092,
				"y": -2.27183771,
				"z": 0.3262309597,
				"element": "H" 
			},
			{
				"x": -2.1214895415,
				"y": -3.3757899788,
				"z": 0.947379309,
				"element": "H" 
			},
			{
				"x": -2.6226940196,
				"y": 0.0254756088,
				"z": -0.2419668301,
				"element": "H" 
			},
			{
				"x": 1.8844551525,
				"y": -2.3779479592,
				"z": 2.7693623393,
				"element": "H" 
			},
			{
				"x": 3.5684242926,
				"y": -2.2279854098,
				"z": 2.4628491047,
				"element": "H" 
			}
		],
		 "valence_orbital": [ 
			{
				"type": "occ",
				"energy": -0.26793,
				"method": "rhf"
			},
			{
				"type": "occ",
				"energy": -0.26151,
				"method": "rhf"
			},
			{
				"type": "occ",
				"energy": -0.2526,
				"method": "rhf"
			},
			{
				"type": "occ",
				"energy": -0.24669,
				"method": "rhf"
			},
			{
				"type": "occ",
				"energy": -0.21563,
				"method": "rhf"
			},
			{
				"type": "unocc",
				"energy": -0.04486,
				"method": "rhf"
			},
			{
				"type": "unocc",
				"energy": -0.02123,
				"method": "rhf"
			},
			{
				"type": "unocc",
				"energy": 0.04447,
				"method": "rhf"
			},
			{
				"type": "unocc",
				"energy": 0.06675,
				"method": "rhf"
			},
			{
				"type": "unocc",
				"energy": 0.07921,
				"method": "rhf"
			}
		],
		"cosmo_sigma_profile": { 
			"-0.025": 0.0,
			"-0.024": 0.0,
			"-0.023": 0.0,
			"-0.022": 0.0,
			"-0.021": 0.0,
			"-0.02": 0.0,
			"-0.019": 0.0,
			"-0.018": 0.0,
			"-0.017": 0.0,
			"-0.016": 0.0,
			"-0.015": 0.237832100315,
			"-0.014": 3.03826535741,
			"-0.013": 6.41734729306,
			"-0.012": 7.52565772601,
			"-0.011": 6.86934074612,
			"-0.01": 8.55753354963,
			"-0.009": 9.16171777538,
			"-0.008": 6.59702761754,
			"-0.007": 6.55897392779,
			"-0.006": 6.58771384436,
			"-0.005": 5.89715658765,
			"-0.004": 5.13961692853,
			"-0.003": 5.64074577353,
			"-0.002": 6.93509748077,
			"-0.001": 9.35213466953,
			"0.0": 10.5619112105,
			"0.001": 12.057354804,
			"0.002": 10.5225331387,
			"0.003": 13.8956918482,
			"0.004": 16.9766029752,
			"0.005": 5.45260705406,
			"0.006": 6.2741456257,
			"0.007": 4.2118845417,
			"0.008": 4.4959631546,
			"0.009": 3.76040887562,
			"0.01": 4.13903297618,
			"0.011": 3.44181078519,
			"0.012": 4.91170424967,
			"0.013": 9.73770749069,
			"0.014": 7.74780165989,
			"0.015": 0.442577305568,
			"0.016": 0.0,
			"0.017": 0.0,
			"0.018": 0.0,
			"0.019": 0.0,
			"0.02": 0.0,
			"0.021": 0.0,
			"0.022": 0.0,
			"0.023": 0.0,
			"0.024": 0.0,
			"0.025": 0.0
		}
	}
}
