{
	 "smiles": "CC1=NOC2=C1C(=CC(=N2)C1=CC=CS1)C(O)=O", 
	 "Tm": 412.15, 
	 "num_atms": 26, 
	 "gaussian": { 
		 "optdone": 1, 
		 "sigma_profile": "yes", 
		 "theory": "DFT", 
		 "functional": "B3LYP", 
		 "basiset": "6-31G**", 
		 "properties": { 
			 "R2extent": 5869.658, 
			 "electric_dipole_moment_norm": 4.79668916024, 
			 "electric_quadrupole_moment_norm": 16.3489671894, 
			 "total_energy": -1195.41653423, 
			 "HOMO_LUMO_gap": 0.14206, 
			 "cosmo_polarized_energy": -18.24, 
			 "cosmo_cavitation_energy": 32.94, 
			 "cosmo_dispersion_energy": -24.73, 
			 "cosmo_repulsion_energy": 1.82, 
			 "cosmo_total_nonelectrostatic_energy": 10.03, 
			 "SMD_solvation_energy": 5.23 
		},
		"coords": [
			{
				"x": 2.6164314966,
				"y": 3.3835282759,
				"z": -2.1337628053,
				"element": "C" 
			},
			{
				"x": 1.527506033,
				"y": 2.3792108363,
				"z": -2.337749371,
				"element": "C" 
			},
			{
				"x": 1.1756116678,
				"y": 2.0589776495,
				"z": -3.5597261681,
				"element": "N" 
			},
			{
				"x": 0.1319800389,
				"y": 1.1094980364,
				"z": -3.4854327105,
				"element": "O" 
			},
			{
				"x": -0.1244613907,
				"y": 0.8758207495,
				"z": -2.1832357316,
				"element": "C" 
			},
			{
				"x": 0.7326012279,
				"y": 1.6499885414,
				"z": -1.380998576,
				"element": "C" 
			},
			{
				"x": 0.5628176021,
				"y": 1.5275856602,
				"z": 0.0100317969,
				"element": "C" 
			},
			{
				"x": -0.4186725193,
				"y": 0.6410712279,
				"z": 0.4504050225,
				"element": "C" 
			},
			{
				"x": -1.2093926296,
				"y": -0.0970210672,
				"z": -0.4696930472,
				"element": "C" 
			},
			{
				"x": -1.0631335274,
				"y": 0.0297984672,
				"z": -1.8012850525,
				"element": "N" 
			},
			{
				"x": -2.2342638199,
				"y": -1.0411438749,
				"z": -0.0254915137,
				"element": "C" 
			},
			{
				"x": -3.0460004706,
				"y": -1.8098569431,
				"z": -0.8313205987,
				"element": "C" 
			},
			{
				"x": -3.9479055025,
				"y": -2.6306988646,
				"z": -0.1024120413,
				"element": "C" 
			},
			{
				"x": -3.8209182664,
				"y": -2.4843777244,
				"z": 1.2540701893,
				"element": "C" 
			},
			{
				"x": -2.5917622713,
				"y": -1.3375868374,
				"z": 1.6643173028,
				"element": "S" 
			},
			{
				"x": 1.4352581146,
				"y": 2.2620223425,
				"z": 0.9894851892,
				"element": "C" 
			},
			{
				"x": 0.8425181867,
				"y": 2.6282442137,
				"z": 2.1523615196,
				"element": "O" 
			},
			{
				"x": 2.6005441248,
				"y": 2.5058733384,
				"z": 0.7911382692,
				"element": "O" 
			},
			{
				"x": 2.2450159946,
				"y": 4.2523355299,
				"z": -1.5814220253,
				"element": "H" 
			},
			{
				"x": 3.4286081663,
				"y": 2.955038326,
				"z": -1.5433186405,
				"element": "H" 
			},
			{
				"x": 2.990474379,
				"y": 3.7134306028,
				"z": -3.1047652526,
				"element": "H" 
			},
			{
				"x": -0.5534766235,
				"y": 0.4706711658,
				"z": 1.5138708946,
				"element": "H" 
			},
			{
				"x": -2.9773742908,
				"y": -1.7690609151,
				"z": -1.9109931586,
				"element": "H" 
			},
			{
				"x": -4.6615628252,
				"y": -3.3031120728,
				"z": -0.5639942938,
				"element": "H" 
			},
			{
				"x": -4.3733068077,
				"y": -2.9817251543,
				"z": 2.0393166419,
				"element": "H" 
			},
			{
				"x": -0.1135360876,
				"y": 2.4841884904,
				"z": 2.1011041605,
				"element": "H" 
			}
		],
		 "valence_orbital": [ 
			{
				"type": "occ",
				"energy": -0.29504,
				"method": "rhf"
			},
			{
				"type": "occ",
				"energy": -0.28804,
				"method": "rhf"
			},
			{
				"type": "occ",
				"energy": -0.27929,
				"method": "rhf"
			},
			{
				"type": "occ",
				"energy": -0.27021,
				"method": "rhf"
			},
			{
				"type": "occ",
				"energy": -0.23619,
				"method": "rhf"
			},
			{
				"type": "unocc",
				"energy": -0.09413,
				"method": "rhf"
			},
			{
				"type": "unocc",
				"energy": -0.05866,
				"method": "rhf"
			},
			{
				"type": "unocc",
				"energy": -0.0042,
				"method": "rhf"
			},
			{
				"type": "unocc",
				"energy": 0.00822,
				"method": "rhf"
			},
			{
				"type": "unocc",
				"energy": 0.01569,
				"method": "rhf"
			}
		],
		"cosmo_sigma_profile": { 
			"-0.025": 0.0,
			"-0.024": 0.0,
			"-0.023": 0.0,
			"-0.022": 0.0,
			"-0.021": 0.0,
			"-0.02": 0.0857959590677,
			"-0.019": 0.924002073879,
			"-0.018": 0.542490715155,
			"-0.017": 1.51786459471,
			"-0.016": 1.35138845409,
			"-0.015": 0.646893172495,
			"-0.014": 1.36922224236,
			"-0.013": 0.885044091375,
			"-0.012": 1.09490607369,
			"-0.011": 1.08778608377,
			"-0.01": 1.74460790748,
			"-0.009": 4.00263825154,
			"-0.008": 4.86838058992,
			"-0.007": 8.11365045174,
			"-0.006": 10.2425010386,
			"-0.005": 12.6517460464,
			"-0.004": 14.6321040478,
			"-0.003": 21.4449472251,
			"-0.002": 23.3060631957,
			"-0.001": 21.9924134257,
			"0.0": 14.536856946,
			"0.001": 14.3661973523,
			"0.002": 17.8665157218,
			"0.003": 21.011650562,
			"0.004": 13.1127347953,
			"0.005": 6.97621107724,
			"0.006": 7.41013960903,
			"0.007": 10.1307122843,
			"0.008": 8.94539701023,
			"0.009": 7.1684854188,
			"0.01": 6.31578575493,
			"0.011": 3.99793615343,
			"0.012": 2.66218111503,
			"0.013": 0.782065425,
			"0.014": 0.148446609829,
			"0.015": 0.0,
			"0.016": 0.0,
			"0.017": 0.0,
			"0.018": 0.0,
			"0.019": 0.0,
			"0.02": 0.0,
			"0.021": 0.0,
			"0.022": 0.0,
			"0.023": 0.0,
			"0.024": 0.0,
			"0.025": 0.0
		}
	}
}
