{
	 "smiles": "OC1=C(C=O)C=C(Br)C=C1OC(F)(F)F", 
	 "Tm": 319.15, 
	 "num_atms": 19, 
	 "gaussian": { 
		 "optdone": 1, 
		 "sigma_profile": "yes", 
		 "theory": "DFT", 
		 "functional": "B3LYP", 
		 "basiset": "6-31G**", 
		 "properties": { 
			 "R2extent": 5116.3923, 
			 "electric_dipole_moment_norm": 3.43692618629, 
			 "electric_quadrupole_moment_norm": 8.77748801879, 
			 "total_energy": -3403.84171109, 
			 "HOMO_LUMO_gap": 0.1654, 
			 "cosmo_polarized_energy": -9.16, 
			 "cosmo_cavitation_energy": 28.42, 
			 "cosmo_dispersion_energy": -20.63, 
			 "cosmo_repulsion_energy": 1.56, 
			 "cosmo_total_nonelectrostatic_energy": 9.35, 
			 "SMD_solvation_energy": 6.66 
		},
		"coords": [
			{
				"x": 1.7002465649,
				"y": -1.314185996,
				"z": -0.8076337643,
				"element": "O" 
			},
			{
				"x": 0.6736159162,
				"y": -0.645407733,
				"z": -0.2308973687,
				"element": "C" 
			},
			{
				"x": 0.0945423269,
				"y": -1.1271523386,
				"z": 0.9530043119,
				"element": "C" 
			},
			{
				"x": 0.589130696,
				"y": -2.3706481518,
				"z": 1.5960596283,
				"element": "C" 
			},
			{
				"x": 0.1150888208,
				"y": -2.8221060781,
				"z": 2.6222728086,
				"element": "O" 
			},
			{
				"x": -0.969635808,
				"y": -0.4274519753,
				"z": 1.5443272583,
				"element": "C" 
			},
			{
				"x": -1.4443726952,
				"y": 0.733392844,
				"z": 0.959824692,
				"element": "C" 
			},
			{
				"x": -2.890071245,
				"y": 1.6882662203,
				"z": 1.7588763682,
				"element": "Br" 
			},
			{
				"x": -0.8824889793,
				"y": 1.2339606259,
				"z": -0.2220414599,
				"element": "C" 
			},
			{
				"x": 0.1681853392,
				"y": 0.5374169269,
				"z": -0.8001990386,
				"element": "C" 
			},
			{
				"x": 0.8410601227,
				"y": 0.8949654525,
				"z": -1.9739434776,
				"element": "O" 
			},
			{
				"x": 0.5021026829,
				"y": 2.0125577077,
				"z": -2.6778372014,
				"element": "C" 
			},
			{
				"x": 1.3159186963,
				"y": 2.0740334356,
				"z": -3.7273671422,
				"element": "F" 
			},
			{
				"x": -0.7679266816,
				"y": 1.9689706619,
				"z": -3.1116093055,
				"element": "F" 
			},
			{
				"x": 0.6450827195,
				"y": 3.1304223331,
				"z": -1.9478170831,
				"element": "F" 
			},
			{
				"x": 1.9691216452,
				"y": -0.8395236211,
				"z": -1.6084115323,
				"element": "H" 
			},
			{
				"x": 1.4283447332,
				"y": -2.8730356773,
				"z": 1.0809326843,
				"element": "H" 
			},
			{
				"x": -1.3951163978,
				"y": -0.825350159,
				"z": 2.4580575232,
				"element": "H" 
			},
			{
				"x": -1.2666284567,
				"y": 2.1423755222,
				"z": -0.6642979011,
				"element": "H" 
			}
		],
		 "valence_orbital": [ 
			{
				"type": "occ",
				"energy": -0.30849,
				"method": "rhf"
			},
			{
				"type": "occ",
				"energy": -0.29951,
				"method": "rhf"
			},
			{
				"type": "occ",
				"energy": -0.27943,
				"method": "rhf"
			},
			{
				"type": "occ",
				"energy": -0.26328,
				"method": "rhf"
			},
			{
				"type": "occ",
				"energy": -0.24338,
				"method": "rhf"
			},
			{
				"type": "unocc",
				"energy": -0.07798,
				"method": "rhf"
			},
			{
				"type": "unocc",
				"energy": -0.02356,
				"method": "rhf"
			},
			{
				"type": "unocc",
				"energy": -0.0089,
				"method": "rhf"
			},
			{
				"type": "unocc",
				"energy": 0.02058,
				"method": "rhf"
			},
			{
				"type": "unocc",
				"energy": 0.05398,
				"method": "rhf"
			}
		],
		"cosmo_sigma_profile": { 
			"-0.025": 0.0,
			"-0.024": 0.0,
			"-0.023": 0.0,
			"-0.022": 0.0,
			"-0.021": 0.0,
			"-0.02": 0.0,
			"-0.019": 0.0,
			"-0.018": 0.0,
			"-0.017": 0.49754397904,
			"-0.016": 0.868595594587,
			"-0.015": 0.568870813047,
			"-0.014": 0.221861728566,
			"-0.013": 0.652997695728,
			"-0.012": 0.988023248885,
			"-0.011": 0.993537166736,
			"-0.01": 1.18656861105,
			"-0.009": 0.903343437881,
			"-0.008": 2.18818770753,
			"-0.007": 3.69908409086,
			"-0.006": 5.50003617119,
			"-0.005": 9.1734248957,
			"-0.004": 9.91128419983,
			"-0.003": 15.4637507758,
			"-0.002": 20.0046606522,
			"-0.001": 26.3190261599,
			"0.0": 28.5339202268,
			"0.001": 39.0198583138,
			"0.002": 18.1826674658,
			"0.003": 11.4850664389,
			"0.004": 12.5681279722,
			"0.005": 3.53617691983,
			"0.006": 3.70741716271,
			"0.007": 3.03331684865,
			"0.008": 2.15382052097,
			"0.009": 2.47859138334,
			"0.01": 2.71199841431,
			"0.011": 4.27841431536,
			"0.012": 1.55214168743,
			"0.013": 0.270892576513,
			"0.014": 0.0,
			"0.015": 0.0,
			"0.016": 0.0,
			"0.017": 0.0,
			"0.018": 0.0,
			"0.019": 0.0,
			"0.02": 0.0,
			"0.021": 0.0,
			"0.022": 0.0,
			"0.023": 0.0,
			"0.024": 0.0,
			"0.025": 0.0
		}
	}
}
