{
	 "smiles": "OC1=CC(NC(=O)C2=CC=CO2)=CC=C1", 
	 "Tm": 438.15, 
	 "num_atms": 24, 
	 "gaussian": { 
		 "optdone": 1, 
		 "sigma_profile": "yes", 
		 "theory": "DFT", 
		 "functional": "B3LYP", 
		 "basiset": "6-31G**", 
		 "properties": { 
			 "R2extent": 3693.5953, 
			 "electric_dipole_moment_norm": 2.19779064972, 
			 "electric_quadrupole_moment_norm": 22.0221177002, 
			 "total_energy": -704.993828662, 
			 "HOMO_LUMO_gap": 0.17871, 
			 "cosmo_polarized_energy": -16.65, 
			 "cosmo_cavitation_energy": 29.39, 
			 "cosmo_dispersion_energy": -20.96, 
			 "cosmo_repulsion_energy": 1.65, 
			 "cosmo_total_nonelectrostatic_energy": 10.07, 
			 "SMD_solvation_energy": 6.94 
		},
		"coords": [
			{
				"x": 3.1599494976,
				"y": -2.0257359348,
				"z": 1.3331320945,
				"element": "O" 
			},
			{
				"x": 2.2282341188,
				"y": -1.1210972986,
				"z": 0.9102043837,
				"element": "C" 
			},
			{
				"x": 0.8660130499,
				"y": -1.4251631146,
				"z": 0.8471942269,
				"element": "C" 
			},
			{
				"x": -0.0495481493,
				"y": -0.4596163452,
				"z": 0.409569093,
				"element": "C" 
			},
			{
				"x": -1.4281855369,
				"y": -0.7976865425,
				"z": 0.4258526485,
				"element": "N" 
			},
			{
				"x": -2.4724094992,
				"y": -0.3889586554,
				"z": -0.3845015259,
				"element": "C" 
			},
			{
				"x": -3.6292790238,
				"y": -0.4261889211,
				"z": 0.0259101552,
				"element": "O" 
			},
			{
				"x": -2.2040469081,
				"y": 0.0225232486,
				"z": -1.7740222599,
				"element": "C" 
			},
			{
				"x": -3.0469054901,
				"y": 0.6436755317,
				"z": -2.6573791135,
				"element": "C" 
			},
			{
				"x": -2.3332123083,
				"y": 0.7564058517,
				"z": -3.8867094966,
				"element": "C" 
			},
			{
				"x": -1.1120884509,
				"y": 0.1858389218,
				"z": -3.6664528064,
				"element": "C" 
			},
			{
				"x": -1.0153228895,
				"y": -0.2657899477,
				"z": -2.3910654232,
				"element": "O" 
			},
			{
				"x": 0.4005967992,
				"y": 0.8124421862,
				"z": 0.038887893,
				"element": "C" 
			},
			{
				"x": 1.76682909,
				"y": 1.0920987983,
				"z": 0.0854135365,
				"element": "C" 
			},
			{
				"x": 2.6871108408,
				"y": 0.1422233637,
				"z": 0.5208542599,
				"element": "C" 
			},
			{
				"x": 2.7192996931,
				"y": -2.8538090336,
				"z": 1.5635467764,
				"element": "H" 
			},
			{
				"x": 0.5089031007,
				"y": -2.4156333968,
				"z": 1.1207935869,
				"element": "H" 
			},
			{
				"x": -1.7814914417,
				"y": -1.1972038752,
				"z": 1.2873924061,
				"element": "H" 
			},
			{
				"x": -4.0525778668,
				"y": 0.9668486458,
				"z": -2.4349518414,
				"element": "H" 
			},
			{
				"x": -2.6797760536,
				"y": 1.195868137,
				"z": -4.8107241486,
				"element": "H" 
			},
			{
				"x": -0.2439224337,
				"y": 0.0269230406,
				"z": -4.2876829241,
				"element": "H" 
			},
			{
				"x": -0.3091394146,
				"y": 1.5720037009,
				"z": -0.267978084,
				"element": "H" 
			},
			{
				"x": 2.117415154,
				"y": 2.0782022571,
				"z": -0.2050888444,
				"element": "H" 
			},
			{
				"x": 3.7488541223,
				"y": 0.3568293823,
				"z": 0.5719054074,
				"element": "H" 
			}
		],
		 "valence_orbital": [ 
			{
				"type": "occ",
				"energy": -0.28671,
				"method": "rhf"
			},
			{
				"type": "occ",
				"energy": -0.25966,
				"method": "rhf"
			},
			{
				"type": "occ",
				"energy": -0.23971,
				"method": "rhf"
			},
			{
				"type": "occ",
				"energy": -0.23665,
				"method": "rhf"
			},
			{
				"type": "occ",
				"energy": -0.21865,
				"method": "rhf"
			},
			{
				"type": "unocc",
				"energy": -0.03994,
				"method": "rhf"
			},
			{
				"type": "unocc",
				"energy": -0.0046,
				"method": "rhf"
			},
			{
				"type": "unocc",
				"energy": 0.01009,
				"method": "rhf"
			},
			{
				"type": "unocc",
				"energy": 0.04513,
				"method": "rhf"
			},
			{
				"type": "unocc",
				"energy": 0.0659,
				"method": "rhf"
			}
		],
		"cosmo_sigma_profile": { 
			"-0.025": 0.0,
			"-0.024": 0.0,
			"-0.023": 0.0,
			"-0.022": 0.0,
			"-0.021": 0.0,
			"-0.02": 0.0,
			"-0.019": 0.0,
			"-0.018": 0.437675798519,
			"-0.017": 1.2970462969,
			"-0.016": 0.81542805737,
			"-0.015": 1.28859011902,
			"-0.014": 2.24884981353,
			"-0.013": 1.80307712438,
			"-0.012": 1.92267900958,
			"-0.011": 1.69910616271,
			"-0.01": 3.10226691499,
			"-0.009": 3.81657154276,
			"-0.008": 5.88688618649,
			"-0.007": 7.9033777237,
			"-0.006": 10.9189747976,
			"-0.005": 13.0171385647,
			"-0.004": 14.7634301372,
			"-0.003": 11.45745114,
			"-0.002": 10.9221093593,
			"-0.001": 11.4194174282,
			"0.0": 12.9238799065,
			"0.001": 16.4759365981,
			"0.002": 17.0609123627,
			"0.003": 18.1517588613,
			"0.004": 17.5039348873,
			"0.005": 11.4283229368,
			"0.006": 7.56034385088,
			"0.007": 5.76036360785,
			"0.008": 3.82987452526,
			"0.009": 2.30574504776,
			"0.01": 3.26353156296,
			"0.011": 3.84814751431,
			"0.012": 3.13112148555,
			"0.013": 5.86484320573,
			"0.014": 1.68923224701,
			"0.015": 0.0,
			"0.016": 0.0,
			"0.017": 0.0,
			"0.018": 0.0,
			"0.019": 0.0,
			"0.02": 0.0,
			"0.021": 0.0,
			"0.022": 0.0,
			"0.023": 0.0,
			"0.024": 0.0,
			"0.025": 0.0
		}
	}
}
