{
	 "smiles": "COC(=O)C(F)C1=NC2=C(C=CC=C2)C(=O)N1", 
	 "Tm": 427.15, 
	 "num_atms": 26, 
	 "gaussian": { 
		 "optdone": 1, 
		 "sigma_profile": "yes", 
		 "theory": "DFT", 
		 "functional": "B3LYP", 
		 "basiset": "6-31G**", 
		 "properties": { 
			 "R2extent": 4982.7964, 
			 "electric_dipole_moment_norm": 4.23750709734, 
			 "electric_quadrupole_moment_norm": 14.1748407286, 
			 "total_energy": -859.633494587, 
			 "HOMO_LUMO_gap": 0.18238, 
			 "cosmo_polarized_energy": -15.11, 
			 "cosmo_cavitation_energy": 32.13, 
			 "cosmo_dispersion_energy": -22.77, 
			 "cosmo_repulsion_energy": 1.76, 
			 "cosmo_total_nonelectrostatic_energy": 11.11, 
			 "SMD_solvation_energy": 6.45 
		},
		"coords": [
			{
				"x": -0.8826182803,
				"y": 2.9422752034,
				"z": 2.5276525751,
				"element": "C" 
			},
			{
				"x": -1.3663983056,
				"y": 2.3877484468,
				"z": 1.2870561542,
				"element": "O" 
			},
			{
				"x": -0.8244552718,
				"y": 2.9045926815,
				"z": 0.1776523252,
				"element": "C" 
			},
			{
				"x": -0.0154689967,
				"y": 3.799934427,
				"z": 0.1340580136,
				"element": "O" 
			},
			{
				"x": -1.3513716068,
				"y": 2.1752232156,
				"z": -1.067202138,
				"element": "C" 
			},
			{
				"x": -1.3311884006,
				"y": 3.0798005671,
				"z": -2.1168440151,
				"element": "F" 
			},
			{
				"x": -0.448738654,
				"y": 1.0032285906,
				"z": -1.4045164809,
				"element": "C" 
			},
			{
				"x": -0.7000498115,
				"y": -0.1600428472,
				"z": -0.9045059565,
				"element": "N" 
			},
			{
				"x": 0.1977100941,
				"y": -1.1788696551,
				"z": -1.2118270938,
				"element": "C" 
			},
			{
				"x": 1.3293082069,
				"y": -0.9726904968,
				"z": -2.0391675441,
				"element": "C" 
			},
			{
				"x": 2.2026630215,
				"y": -2.0329130488,
				"z": -2.3244826759,
				"element": "C" 
			},
			{
				"x": 1.9607558435,
				"y": -3.2914270597,
				"z": -1.7939994775,
				"element": "C" 
			},
			{
				"x": 0.839398939,
				"y": -3.5021578029,
				"z": -0.9720471926,
				"element": "C" 
			},
			{
				"x": -0.0327639564,
				"y": -2.4630223936,
				"z": -0.6830892272,
				"element": "C" 
			},
			{
				"x": 1.5835443282,
				"y": 0.3601499976,
				"z": -2.604228958,
				"element": "C" 
			},
			{
				"x": 2.5071563815,
				"y": 0.6776910596,
				"z": -3.3372399283,
				"element": "O" 
			},
			{
				"x": 0.6174608363,
				"y": 1.3005071692,
				"z": -2.2104282806,
				"element": "N" 
			},
			{
				"x": 0.1958907799,
				"y": 2.7926900601,
				"z": 2.6147027804,
				"element": "H" 
			},
			{
				"x": -1.1013160055,
				"y": 4.0113411507,
				"z": 2.5754662951,
				"element": "H" 
			},
			{
				"x": -1.4114034777,
				"y": 2.403882171,
				"z": 3.3127540318,
				"element": "H" 
			},
			{
				"x": -2.3666645255,
				"y": 1.8098586785,
				"z": -0.9000055489,
				"element": "H" 
			},
			{
				"x": 3.0573538713,
				"y": -1.835779088,
				"z": -2.9631703469,
				"element": "H" 
			},
			{
				"x": 2.6346995849,
				"y": -4.1140235032,
				"z": -2.0125318222,
				"element": "H" 
			},
			{
				"x": 0.6535137684,
				"y": -4.4895090355,
				"z": -0.5589964583,
				"element": "H" 
			},
			{
				"x": -0.9029479373,
				"y": -2.6078536928,
				"z": -0.0515284722,
				"element": "H" 
			},
			{
				"x": 0.713029574,
				"y": 2.2421652052,
				"z": -2.5747305585,
				"element": "H" 
			}
		],
		 "valence_orbital": [ 
			{
				"type": "occ",
				"energy": -0.29841,
				"method": "rhf"
			},
			{
				"type": "occ",
				"energy": -0.28675,
				"method": "rhf"
			},
			{
				"type": "occ",
				"energy": -0.26702,
				"method": "rhf"
			},
			{
				"type": "occ",
				"energy": -0.26526,
				"method": "rhf"
			},
			{
				"type": "occ",
				"energy": -0.236,
				"method": "rhf"
			},
			{
				"type": "unocc",
				"energy": -0.05362,
				"method": "rhf"
			},
			{
				"type": "unocc",
				"energy": -0.04541,
				"method": "rhf"
			},
			{
				"type": "unocc",
				"energy": -0.00803,
				"method": "rhf"
			},
			{
				"type": "unocc",
				"energy": 0.02455,
				"method": "rhf"
			},
			{
				"type": "unocc",
				"energy": 0.0681,
				"method": "rhf"
			}
		],
		"cosmo_sigma_profile": { 
			"-0.025": 0.0,
			"-0.024": 0.0,
			"-0.023": 0.0,
			"-0.022": 0.0,
			"-0.021": 0.0,
			"-0.02": 0.0,
			"-0.019": 0.0,
			"-0.018": 0.0,
			"-0.017": 0.0,
			"-0.016": 0.0,
			"-0.015": 0.35502049752,
			"-0.014": 0.539513212351,
			"-0.013": 0.982925735079,
			"-0.012": 0.496525713359,
			"-0.011": 0.587600273395,
			"-0.01": 2.32515445629,
			"-0.009": 2.29694564251,
			"-0.008": 2.80000937162,
			"-0.007": 10.1839124431,
			"-0.006": 18.815879168,
			"-0.005": 21.8075377822,
			"-0.004": 23.8069073913,
			"-0.003": 18.7148730357,
			"-0.002": 13.8785907441,
			"-0.001": 11.7489899938,
			"0.0": 13.8348760036,
			"0.001": 15.5182468722,
			"0.002": 18.8780598395,
			"0.003": 19.0789087024,
			"0.004": 12.1654564791,
			"0.005": 6.51834269608,
			"0.006": 6.65186764966,
			"0.007": 5.12975002388,
			"0.008": 3.84394275307,
			"0.009": 4.25487586831,
			"0.01": 6.82792498801,
			"0.011": 5.9594624484,
			"0.012": 5.79057740605,
			"0.013": 3.56366772783,
			"0.014": 0.199201449467,
			"0.015": 0.0,
			"0.016": 0.0,
			"0.017": 0.0,
			"0.018": 0.0,
			"0.019": 0.0,
			"0.02": 0.0,
			"0.021": 0.0,
			"0.022": 0.0,
			"0.023": 0.0,
			"0.024": 0.0,
			"0.025": 0.0
		}
	}
}
