{
	 "smiles": "CC(C)(C)OC(=O)N1CCN(CC1)C(N)=S", 
	 "Tm": 442.15, 
	 "num_atms": 35, 
	 "gaussian": { 
		 "optdone": 1, 
		 "sigma_profile": "yes", 
		 "theory": "DFT", 
		 "functional": "B3LYP", 
		 "basiset": "6-31G**", 
		 "properties": { 
			 "R2extent": 6870.8888, 
			 "electric_dipole_moment_norm": 3.45948597482, 
			 "electric_quadrupole_moment_norm": 38.9328713011, 
			 "total_energy": -1105.45339045, 
			 "HOMO_LUMO_gap": 0.19471, 
			 "cosmo_polarized_energy": -20.36, 
			 "cosmo_cavitation_energy": 37.21, 
			 "cosmo_dispersion_energy": -26.82, 
			 "cosmo_repulsion_energy": 2.07, 
			 "cosmo_total_nonelectrostatic_energy": 12.47, 
			 "SMD_solvation_energy": 5.51 
		},
		"coords": [
			{
				"x": 2.4473970157,
				"y": 0.6034040287,
				"z": -2.1449851127,
				"element": "C" 
			},
			{
				"x": 2.1396050473,
				"y": 1.4765397679,
				"z": -0.924250418,
				"element": "C" 
			},
			{
				"x": 3.3785869202,
				"y": 1.7255706556,
				"z": -0.0579686823,
				"element": "C" 
			},
			{
				"x": 1.4998294745,
				"y": 2.8004175897,
				"z": -1.3504569958,
				"element": "C" 
			},
			{
				"x": 1.0756030481,
				"y": 0.8563499721,
				"z": -0.1144419074,
				"element": "O" 
			},
			{
				"x": 1.252303828,
				"y": -0.3589428668,
				"z": 0.4516988834,
				"element": "C" 
			},
			{
				"x": 2.2643652621,
				"y": -1.0416505648,
				"z": 0.3753759797,
				"element": "O" 
			},
			{
				"x": 0.1232797975,
				"y": -0.7564034093,
				"z": 1.1307625935,
				"element": "N" 
			},
			{
				"x": -1.0611569002,
				"y": 0.0717621909,
				"z": 1.3482456287,
				"element": "C" 
			},
			{
				"x": -2.3381737416,
				"y": -0.7505011116,
				"z": 1.1475160365,
				"element": "C" 
			},
			{
				"x": -2.2967592647,
				"y": -1.9595037651,
				"z": 1.9726955697,
				"element": "N" 
			},
			{
				"x": -1.1200775721,
				"y": -2.7888423598,
				"z": 1.6825274831,
				"element": "C" 
			},
			{
				"x": 0.1678225578,
				"y": -1.9907243765,
				"z": 1.9023780955,
				"element": "C" 
			},
			{
				"x": -3.3696060235,
				"y": -2.3643391421,
				"z": 2.7127173934,
				"element": "C" 
			},
			{
				"x": -3.1851409818,
				"y": -3.4968198334,
				"z": 3.4738178947,
				"element": "N" 
			},
			{
				"x": -4.873247142,
				"y": -1.5994686151,
				"z": 2.7154110181,
				"element": "S" 
			},
			{
				"x": 1.5327161953,
				"y": 0.4106805195,
				"z": -2.7147094162,
				"element": "H" 
			},
			{
				"x": 3.1509553238,
				"y": 1.1263271921,
				"z": -2.8008816013,
				"element": "H" 
			},
			{
				"x": 2.8856415398,
				"y": -0.3483563113,
				"z": -1.8445132587,
				"element": "H" 
			},
			{
				"x": 3.1125590055,
				"y": 2.3168825459,
				"z": 0.8240215328,
				"element": "H" 
			},
			{
				"x": 3.8242086985,
				"y": 0.7851843438,
				"z": 0.266461977,
				"element": "H" 
			},
			{
				"x": 4.119989144,
				"y": 2.2896561505,
				"z": -0.6330950814,
				"element": "H" 
			},
			{
				"x": 0.5912564305,
				"y": 2.6218157622,
				"z": -1.9330434741,
				"element": "H" 
			},
			{
				"x": 1.2372471184,
				"y": 3.4026699738,
				"z": -0.4757996161,
				"element": "H" 
			},
			{
				"x": 2.1986999937,
				"y": 3.3729440684,
				"z": -1.9673047828,
				"element": "H" 
			},
			{
				"x": -1.0445871102,
				"y": 0.9063230764,
				"z": 0.6499883469,
				"element": "H" 
			},
			{
				"x": -1.0509617762,
				"y": 0.4771495333,
				"z": 2.3712831848,
				"element": "H" 
			},
			{
				"x": -2.4344412062,
				"y": -1.0374377283,
				"z": 0.0907474382,
				"element": "H" 
			},
			{
				"x": -3.2196827738,
				"y": -0.1749575379,
				"z": 1.4283737259,
				"element": "H" 
			},
			{
				"x": -1.1712502546,
				"y": -3.1080556252,
				"z": 0.6314192751,
				"element": "H" 
			},
			{
				"x": -1.1168351291,
				"y": -3.6913227444,
				"z": 2.2917607125,
				"element": "H" 
			},
			{
				"x": 1.0385942408,
				"y": -2.5611168565,
				"z": 1.5781901655,
				"element": "H" 
			},
			{
				"x": 0.2786827344,
				"y": -1.7643115356,
				"z": 2.9744826694,
				"element": "H" 
			},
			{
				"x": -3.9662660225,
				"y": -3.6869663957,
				"z": 4.0845853302,
				"element": "H" 
			},
			{
				"x": -2.2775574775,
				"y": -3.6719565912,
				"z": 3.8832894125,
				"element": "H" 
			}
		],
		 "valence_orbital": [ 
			{
				"type": "occ",
				"energy": -0.26983,
				"method": "rhf"
			},
			{
				"type": "occ",
				"energy": -0.2677,
				"method": "rhf"
			},
			{
				"type": "occ",
				"energy": -0.24673,
				"method": "rhf"
			},
			{
				"type": "occ",
				"energy": -0.21352,
				"method": "rhf"
			},
			{
				"type": "occ",
				"energy": -0.20179,
				"method": "rhf"
			},
			{
				"type": "unocc",
				"energy": -0.00708,
				"method": "rhf"
			},
			{
				"type": "unocc",
				"energy": 0.04102,
				"method": "rhf"
			},
			{
				"type": "unocc",
				"energy": 0.06508,
				"method": "rhf"
			},
			{
				"type": "unocc",
				"energy": 0.07983,
				"method": "rhf"
			},
			{
				"type": "unocc",
				"energy": 0.08889,
				"method": "rhf"
			}
		],
		"cosmo_sigma_profile": { 
			"-0.025": 0.0,
			"-0.024": 0.0,
			"-0.023": 0.0,
			"-0.022": 0.0,
			"-0.021": 0.0,
			"-0.02": 0.0,
			"-0.019": 0.0,
			"-0.018": 0.0,
			"-0.017": 0.0,
			"-0.016": 0.0566737155336,
			"-0.015": 1.09817876864,
			"-0.014": 1.61360963948,
			"-0.013": 3.03196509406,
			"-0.012": 1.92302625348,
			"-0.011": 2.4987462249,
			"-0.01": 2.5854127009,
			"-0.009": 2.18138160086,
			"-0.008": 2.4900247861,
			"-0.007": 2.8361022251,
			"-0.006": 7.00698153225,
			"-0.005": 18.2230490807,
			"-0.004": 30.5093072186,
			"-0.003": 29.3154363032,
			"-0.002": 23.5746736766,
			"-0.001": 24.7087863957,
			"0.0": 28.6792586525,
			"0.001": 25.4645863179,
			"0.002": 9.38736096576,
			"0.003": 7.86959649012,
			"0.004": 8.05310092266,
			"0.005": 7.88282848109,
			"0.006": 6.74165685741,
			"0.007": 6.33599063543,
			"0.008": 5.53868769731,
			"0.009": 6.57593567341,
			"0.01": 6.82988305875,
			"0.011": 8.94672673218,
			"0.012": 6.67557855884,
			"0.013": 3.69318275036,
			"0.014": 0.598486326112,
			"0.015": 0.0,
			"0.016": 0.0,
			"0.017": 0.0,
			"0.018": 0.0,
			"0.019": 0.0,
			"0.02": 0.0,
			"0.021": 0.0,
			"0.022": 0.0,
			"0.023": 0.0,
			"0.024": 0.0,
			"0.025": 0.0
		}
	}
}
