{
	 "smiles": "OC(=O)C1=CC(OC2=C(C=C(Cl)C=C2)C#N)=CC=C1", 
	 "Tm": 485.15, 
	 "num_atms": 27, 
	 "gaussian": { 
		 "optdone": 1, 
		 "sigma_profile": "yes", 
		 "theory": "DFT", 
		 "functional": "B3LYP", 
		 "basiset": "6-31G**", 
		 "properties": { 
			 "R2extent": 7185.0077, 
			 "electric_dipole_moment_norm": 2.89662588195, 
			 "electric_quadrupole_moment_norm": 27.1549162556, 
			 "total_energy": -1278.90394552, 
			 "HOMO_LUMO_gap": 0.17928, 
			 "cosmo_polarized_energy": -21.17, 
			 "cosmo_cavitation_energy": 36.34, 
			 "cosmo_dispersion_energy": -25.13, 
			 "cosmo_repulsion_energy": 1.95, 
			 "cosmo_total_nonelectrostatic_energy": 13.17, 
			 "SMD_solvation_energy": 8.61 
		},
		"coords": [
			{
				"x": 4.1084784825,
				"y": -1.2016724121,
				"z": -0.4530941712,
				"element": "O" 
			},
			{
				"x": 4.0145142062,
				"y": -0.8663903297,
				"z": 0.8602148625,
				"element": "C" 
			},
			{
				"x": 4.6563993377,
				"y": -1.4658822894,
				"z": 1.6888649527,
				"element": "O" 
			},
			{
				"x": 3.0829747534,
				"y": 0.2602363057,
				"z": 1.2060064678,
				"element": "C" 
			},
			{
				"x": 2.0015941437,
				"y": 0.6168266733,
				"z": 0.3903304765,
				"element": "C" 
			},
			{
				"x": 1.1627687263,
				"y": 1.6591779874,
				"z": 0.7849892986,
				"element": "C" 
			},
			{
				"x": 0.1248192146,
				"y": 2.0777114815,
				"z": -0.0363040539,
				"element": "O" 
			},
			{
				"x": -0.9412335757,
				"y": 1.2563891188,
				"z": -0.2795456219,
				"element": "C" 
			},
			{
				"x": -1.758504207,
				"y": 1.6097457366,
				"z": -1.37382403,
				"element": "C" 
			},
			{
				"x": -2.8985882633,
				"y": 0.8459312338,
				"z": -1.66887521,
				"element": "C" 
			},
			{
				"x": -3.2095162136,
				"y": -0.2572137986,
				"z": -0.8816637517,
				"element": "C" 
			},
			{
				"x": -4.6297333805,
				"y": -1.2136764506,
				"z": -1.2543059161,
				"element": "Cl" 
			},
			{
				"x": -2.4018776894,
				"y": -0.6087935168,
				"z": 0.2012158493,
				"element": "C" 
			},
			{
				"x": -1.2709833832,
				"y": 0.1476917468,
				"z": 0.50310922,
				"element": "C" 
			},
			{
				"x": -1.4269233451,
				"y": 2.7407718328,
				"z": -2.1863359033,
				"element": "C" 
			},
			{
				"x": -1.175922356,
				"y": 3.6513084727,
				"z": -2.8648071881,
				"element": "N" 
			},
			{
				"x": 1.3922164559,
				"y": 2.3621111226,
				"z": 1.9656579273,
				"element": "C" 
			},
			{
				"x": 2.4712072714,
				"y": 1.9989275119,
				"z": 2.7754271123,
				"element": "C" 
			},
			{
				"x": 3.3042965881,
				"y": 0.9450460895,
				"z": 2.4088411265,
				"element": "C" 
			},
			{
				"x": 3.6928886101,
				"y": -0.5257026933,
				"z": -1.0064137611,
				"element": "H" 
			},
			{
				"x": 1.7761976876,
				"y": 0.0825097744,
				"z": -0.5280505412,
				"element": "H" 
			},
			{
				"x": -3.524219203,
				"y": 1.1202128665,
				"z": -2.5097907068,
				"element": "H" 
			},
			{
				"x": -2.6581738296,
				"y": -1.4680589764,
				"z": 0.8108834711,
				"element": "H" 
			},
			{
				"x": -0.6505563586,
				"y": -0.1213701095,
				"z": 1.3496722934,
				"element": "H" 
			},
			{
				"x": 0.7299173792,
				"y": 3.1789545921,
				"z": 2.2317670644,
				"element": "H" 
			},
			{
				"x": 2.6546514161,
				"y": 2.5402210867,
				"z": 3.6982018002,
				"element": "H" 
			},
			{
				"x": 4.1353075322,
				"y": 0.6376869432,
				"z": 3.0336289325,
				"element": "H" 
			}
		],
		 "valence_orbital": [ 
			{
				"type": "occ",
				"energy": -0.29492,
				"method": "rhf"
			},
			{
				"type": "occ",
				"energy": -0.28951,
				"method": "rhf"
			},
			{
				"type": "occ",
				"energy": -0.28585,
				"method": "rhf"
			},
			{
				"type": "occ",
				"energy": -0.2779,
				"method": "rhf"
			},
			{
				"type": "occ",
				"energy": -0.2524,
				"method": "rhf"
			},
			{
				"type": "unocc",
				"energy": -0.07312,
				"method": "rhf"
			},
			{
				"type": "unocc",
				"energy": -0.0631,
				"method": "rhf"
			},
			{
				"type": "unocc",
				"energy": -0.0432,
				"method": "rhf"
			},
			{
				"type": "unocc",
				"energy": -0.03189,
				"method": "rhf"
			},
			{
				"type": "unocc",
				"energy": 0.00693,
				"method": "rhf"
			}
		],
		"cosmo_sigma_profile": { 
			"-0.025": 0.0,
			"-0.024": 0.0,
			"-0.023": 0.0,
			"-0.022": 0.0,
			"-0.021": 0.0,
			"-0.02": 0.0,
			"-0.019": 0.522821531607,
			"-0.018": 1.33413338443,
			"-0.017": 0.801589243023,
			"-0.016": 0.886879376096,
			"-0.015": 0.940433619268,
			"-0.014": 0.839337163619,
			"-0.013": 1.57672759233,
			"-0.012": 1.33075606728,
			"-0.011": 1.1416607101,
			"-0.01": 1.44681612814,
			"-0.009": 4.84669945805,
			"-0.008": 8.54889811139,
			"-0.007": 12.6458593343,
			"-0.006": 12.4110473967,
			"-0.005": 14.5718627844,
			"-0.004": 13.919041925,
			"-0.003": 16.9980432456,
			"-0.002": 20.830629856,
			"-0.001": 23.3694556773,
			"0.0": 26.9486151679,
			"0.001": 25.4706583446,
			"0.002": 18.2285450441,
			"0.003": 13.9438767267,
			"0.004": 14.6272299074,
			"0.005": 7.99973294978,
			"0.006": 6.45603623039,
			"0.007": 6.15481501742,
			"0.008": 6.87857516744,
			"0.009": 6.85787442171,
			"0.01": 8.08441928799,
			"0.011": 8.04265961923,
			"0.012": 6.08020922392,
			"0.013": 1.8483099747,
			"0.014": 0.0,
			"0.015": 0.0,
			"0.016": 0.0,
			"0.017": 0.0,
			"0.018": 0.0,
			"0.019": 0.0,
			"0.02": 0.0,
			"0.021": 0.0,
			"0.022": 0.0,
			"0.023": 0.0,
			"0.024": 0.0,
			"0.025": 0.0
		}
	}
}
