{
	 "smiles": "CC1CCC(C)(C(=O)N(C(=O)C2(C)CCC(C)C2(C)C)C2=CC=CC=C2)C1(C)C", 
	 "Tm": 485.15, 
	 "num_atms": 68, 
	 "gaussian": { 
		 "optdone": 1, 
		 "sigma_profile": "yes", 
		 "theory": "DFT", 
		 "functional": "B3LYP", 
		 "basiset": "6-31G**", 
		 "properties": { 
			 "R2extent": 11706.4373, 
			 "electric_dipole_moment_norm": 3.35297171029, 
			 "electric_quadrupole_moment_norm": 9.6459958278, 
			 "total_energy": -1219.48428594, 
			 "HOMO_LUMO_gap": 0.2134, 
			 "cosmo_polarized_energy": -9.98, 
			 "cosmo_cavitation_energy": 58.43, 
			 "cosmo_dispersion_energy": -37.62, 
			 "cosmo_repulsion_energy": 2.75, 
			 "cosmo_total_nonelectrostatic_energy": 23.56, 
			 "SMD_solvation_energy": 9.63 
		},
		"coords": [
			{
				"x": -1.9533844218,
				"y": 2.1124689649,
				"z": 2.6555504951,
				"element": "C" 
			},
			{
				"x": -2.8978016975,
				"y": 0.9191049193,
				"z": 2.4475741477,
				"element": "C" 
			},
			{
				"x": -3.9327228286,
				"y": 1.1844232169,
				"z": 1.3380348785,
				"element": "C" 
			},
			{
				"x": -3.2135931874,
				"y": 0.808335879,
				"z": 0.0332817996,
				"element": "C" 
			},
			{
				"x": -2.2327071252,
				"y": -0.3806798893,
				"z": 0.3728619738,
				"element": "C" 
			},
			{
				"x": -2.7453400439,
				"y": -1.6989378038,
				"z": -0.2382743175,
				"element": "C" 
			},
			{
				"x": -0.8505554557,
				"y": 0.0436649721,
				"z": -0.1927899895,
				"element": "C" 
			},
			{
				"x": -0.1459544621,
				"y": 0.8565748178,
				"z": 0.4031179947,
				"element": "O" 
			},
			{
				"x": -0.3397967766,
				"y": -0.459092799,
				"z": -1.4009201992,
				"element": "N" 
			},
			{
				"x": 0.9947865101,
				"y": 0.1359452209,
				"z": -1.7298079327,
				"element": "C" 
			},
			{
				"x": 1.0375572686,
				"y": 1.0306521904,
				"z": -2.5382475505,
				"element": "O" 
			},
			{
				"x": 2.2459575519,
				"y": -0.5859122243,
				"z": -1.217812082,
				"element": "C" 
			},
			{
				"x": 2.5896796207,
				"y": -1.5510527879,
				"z": -2.3920679285,
				"element": "C" 
			},
			{
				"x": 2.0768958893,
				"y": -1.420870584,
				"z": 0.0800666632,
				"element": "C" 
			},
			{
				"x": 3.4779405387,
				"y": -1.471751396,
				"z": 0.7444067524,
				"element": "C" 
			},
			{
				"x": 4.4070380052,
				"y": -0.5674176161,
				"z": -0.1009891131,
				"element": "C" 
			},
			{
				"x": 5.5188193648,
				"y": 0.0945898553,
				"z": 0.7181949072,
				"element": "C" 
			},
			{
				"x": 3.4526052623,
				"y": 0.3917100547,
				"z": -0.8840567115,
				"element": "C" 
			},
			{
				"x": 4.1509363858,
				"y": 0.9860607696,
				"z": -2.1189976437,
				"element": "C" 
			},
			{
				"x": 2.976650096,
				"y": 1.5550357169,
				"z": 0.0121034392,
				"element": "C" 
			},
			{
				"x": -1.1260428503,
				"y": -0.7168621474,
				"z": -2.5865491135,
				"element": "C" 
			},
			{
				"x": -1.0713547454,
				"y": -1.9802079748,
				"z": -3.1855082634,
				"element": "C" 
			},
			{
				"x": -1.7788667041,
				"y": -2.228514175,
				"z": -4.3611066394,
				"element": "C" 
			},
			{
				"x": -2.5405850767,
				"y": -1.2151400201,
				"z": -4.9478271868,
				"element": "C" 
			},
			{
				"x": -2.5835431644,
				"y": 0.0495923664,
				"z": -4.3587189754,
				"element": "C" 
			},
			{
				"x": -1.870344309,
				"y": 0.30473168,
				"z": -3.1862531785,
				"element": "C" 
			},
			{
				"x": -2.2390977075,
				"y": -0.4351728082,
				"z": 2.0034005186,
				"element": "C" 
			},
			{
				"x": -3.1744507009,
				"y": -1.5638085005,
				"z": 2.518091324,
				"element": "C" 
			},
			{
				"x": -0.8770700784,
				"y": -0.7121906829,
				"z": 2.6679619886,
				"element": "C" 
			},
			{
				"x": -1.2425903869,
				"y": 1.9216038836,
				"z": 3.4654700187,
				"element": "H" 
			},
			{
				"x": -2.5371584253,
				"y": 2.9969413613,
				"z": 2.9354664767,
				"element": "H" 
			},
			{
				"x": -1.3720547429,
				"y": 2.3444655729,
				"z": 1.7616048489,
				"element": "H" 
			},
			{
				"x": -3.412304601,
				"y": 0.7496222326,
				"z": 3.4024915533,
				"element": "H" 
			},
			{
				"x": -4.8179619239,
				"y": 0.554556205,
				"z": 1.4796105527,
				"element": "H" 
			},
			{
				"x": -4.2821545887,
				"y": 2.2224656568,
				"z": 1.329417865,
				"element": "H" 
			},
			{
				"x": -2.6449153361,
				"y": 1.6726546517,
				"z": -0.3227034886,
				"element": "H" 
			},
			{
				"x": -3.9042091167,
				"y": 0.5295962644,
				"z": -0.7685358399,
				"element": "H" 
			},
			{
				"x": -2.0679719111,
				"y": -2.5354683911,
				"z": -0.0366730194,
				"element": "H" 
			},
			{
				"x": -3.724433864,
				"y": -1.9538235047,
				"z": 0.1682064628,
				"element": "H" 
			},
			{
				"x": -2.8675310807,
				"y": -1.6218093014,
				"z": -1.3152705853,
				"element": "H" 
			},
			{
				"x": 1.7772507478,
				"y": -2.267345762,
				"z": -2.5446863736,
				"element": "H" 
			},
			{
				"x": 2.7450168348,
				"y": -1.0121358907,
				"z": -3.328688636,
				"element": "H" 
			},
			{
				"x": 3.4906825612,
				"y": -2.1267442068,
				"z": -2.1654007055,
				"element": "H" 
			},
			{
				"x": 1.3701053558,
				"y": -0.9387235546,
				"z": 0.7520465123,
				"element": "H" 
			},
			{
				"x": 1.6838133644,
				"y": -2.4176923651,
				"z": -0.1419526239,
				"element": "H" 
			},
			{
				"x": 3.4210083912,
				"y": -1.1008366808,
				"z": 1.7739163775,
				"element": "H" 
			},
			{
				"x": 3.8708815685,
				"y": -2.4919008677,
				"z": 0.8070407353,
				"element": "H" 
			},
			{
				"x": 4.9035205076,
				"y": -1.1959539973,
				"z": -0.8522095963,
				"element": "H" 
			},
			{
				"x": 6.1707893666,
				"y": -0.6686646026,
				"z": 1.1578623824,
				"element": "H" 
			},
			{
				"x": 5.116183824,
				"y": 0.6936372162,
				"z": 1.5410942942,
				"element": "H" 
			},
			{
				"x": 6.1485177013,
				"y": 0.7458757557,
				"z": 0.1023902202,
				"element": "H" 
			},
			{
				"x": 3.4514707349,
				"y": 1.57157989,
				"z": -2.719588874,
				"element": "H" 
			},
			{
				"x": 4.9643564027,
				"y": 1.6493651995,
				"z": -1.8048004698,
				"element": "H" 
			},
			{
				"x": 4.5918701681,
				"y": 0.2140870172,
				"z": -2.7573953946,
				"element": "H" 
			},
			{
				"x": 3.8247108924,
				"y": 2.1918217703,
				"z": 0.2818071003,
				"element": "H" 
			},
			{
				"x": 2.2481941413,
				"y": 2.1771721752,
				"z": -0.5111298786,
				"element": "H" 
			},
			{
				"x": 2.5037079256,
				"y": 1.2113997058,
				"z": 0.9354062323,
				"element": "H" 
			},
			{
				"x": -0.495475441,
				"y": -2.7671364889,
				"z": -2.7095576334,
				"element": "H" 
			},
			{
				"x": -1.7385241472,
				"y": -3.2139884091,
				"z": -4.8157353548,
				"element": "H" 
			},
			{
				"x": -3.0935081193,
				"y": -1.4094385813,
				"z": -5.8620993829,
				"element": "H" 
			},
			{
				"x": -3.1628410566,
				"y": 0.845302785,
				"z": -4.8178171467,
				"element": "H" 
			},
			{
				"x": -1.8736175939,
				"y": 1.2931074616,
				"z": -2.7414321417,
				"element": "H" 
			},
			{
				"x": -4.2092182597,
				"y": -1.4622446214,
				"z": 2.1799394483,
				"element": "H" 
			},
			{
				"x": -3.1882881035,
				"y": -1.5292662757,
				"z": 3.612008285,
				"element": "H" 
			},
			{
				"x": -2.8223961707,
				"y": -2.5584854974,
				"z": 2.231794915,
				"element": "H" 
			},
			{
				"x": -0.466421565,
				"y": -1.6693047185,
				"z": 2.3239094862,
				"element": "H" 
			},
			{
				"x": -0.1426336066,
				"y": 0.0640371213,
				"z": 2.4711261358,
				"element": "H" 
			},
			{
				"x": -1.0117256047,
				"y": -0.7950074234,
				"z": 3.7525471846,
				"element": "H" 
			}
		],
		 "valence_orbital": [ 
			{
				"type": "occ",
				"energy": -0.27778,
				"method": "rhf"
			},
			{
				"type": "occ",
				"energy": -0.26674,
				"method": "rhf"
			},
			{
				"type": "occ",
				"energy": -0.25914,
				"method": "rhf"
			},
			{
				"type": "occ",
				"energy": -0.24762,
				"method": "rhf"
			},
			{
				"type": "occ",
				"energy": -0.24191,
				"method": "rhf"
			},
			{
				"type": "unocc",
				"energy": -0.02851,
				"method": "rhf"
			},
			{
				"type": "unocc",
				"energy": -0.02055,
				"method": "rhf"
			},
			{
				"type": "unocc",
				"energy": -0.00677,
				"method": "rhf"
			},
			{
				"type": "unocc",
				"energy": 0.01511,
				"method": "rhf"
			},
			{
				"type": "unocc",
				"energy": 0.06789,
				"method": "rhf"
			}
		],
		"cosmo_sigma_profile": { 
			"-0.025": 0.0,
			"-0.024": 0.0,
			"-0.023": 0.0,
			"-0.022": 0.0,
			"-0.021": 0.0,
			"-0.02": 0.0,
			"-0.019": 0.0,
			"-0.018": 0.0,
			"-0.017": 0.0,
			"-0.016": 0.0,
			"-0.015": 0.0,
			"-0.014": 0.0,
			"-0.013": 0.0,
			"-0.012": 0.0,
			"-0.011": 0.0,
			"-0.01": 0.0,
			"-0.009": 0.0,
			"-0.008": 0.0,
			"-0.007": 0.777460823952,
			"-0.006": 9.85184962742,
			"-0.005": 12.6212836419,
			"-0.004": 17.903370691,
			"-0.003": 29.0917575238,
			"-0.002": 65.0926974452,
			"-0.001": 72.6596581954,
			"0.0": 73.866615382,
			"0.001": 64.774004554,
			"0.002": 43.9218707655,
			"0.003": 16.2205352758,
			"0.004": 12.452503394,
			"0.005": 7.6279059792,
			"0.006": 5.16646320272,
			"0.007": 3.79950249587,
			"0.008": 4.54067854046,
			"0.009": 4.29595931642,
			"0.01": 4.37027744743,
			"0.011": 2.33581829026,
			"0.012": 0.0239646566762,
			"0.013": 0.0,
			"0.014": 0.0,
			"0.015": 0.0,
			"0.016": 0.0,
			"0.017": 0.0,
			"0.018": 0.0,
			"0.019": 0.0,
			"0.02": 0.0,
			"0.021": 0.0,
			"0.022": 0.0,
			"0.023": 0.0,
			"0.024": 0.0,
			"0.025": 0.0
		}
	}
}
