{
	 "smiles": "OC1=C2C=CC=CC2=C(C=C1[N+]([O-])=O)[N+]([O-])=O", 
	 "Tm": 405.15, 
	 "num_atms": 23, 
	 "gaussian": { 
		 "optdone": 1, 
		 "sigma_profile": "yes", 
		 "theory": "DFT", 
		 "functional": "B3LYP", 
		 "basiset": "6-31G**", 
		 "properties": { 
			 "R2extent": 4358.1309, 
			 "electric_dipole_moment_norm": 5.0347352552, 
			 "electric_quadrupole_moment_norm": 9.0011876372, 
			 "total_energy": -870.11302976, 
			 "HOMO_LUMO_gap": 0.13681, 
			 "cosmo_polarized_energy": -11.32, 
			 "cosmo_cavitation_energy": 28.4, 
			 "cosmo_dispersion_energy": -21.51, 
			 "cosmo_repulsion_energy": 1.61, 
			 "cosmo_total_nonelectrostatic_energy": 8.51, 
			 "SMD_solvation_energy": 9.19 
		},
		"coords": [
			{
				"x": -1.9402829891,
				"y": -1.5362586435,
				"z": -0.7510565979,
				"element": "O" 
			},
			{
				"x": -1.1047446555,
				"y": -0.5203540311,
				"z": -0.900956469,
				"element": "C" 
			},
			{
				"x": -0.3364633784,
				"y": -0.1043332696,
				"z": 0.2384816242,
				"element": "C" 
			},
			{
				"x": -0.5230145224,
				"y": -0.7790185157,
				"z": 1.4691525209,
				"element": "C" 
			},
			{
				"x": 0.1827486587,
				"y": -0.3977963473,
				"z": 2.5894147287,
				"element": "C" 
			},
			{
				"x": 1.0922106223,
				"y": 0.6733490242,
				"z": 2.5039566964,
				"element": "C" 
			},
			{
				"x": 1.3014455764,
				"y": 1.346039288,
				"z": 1.3143903798,
				"element": "C" 
			},
			{
				"x": 0.598888852,
				"y": 0.9793528763,
				"z": 0.1393407825,
				"element": "C" 
			},
			{
				"x": 0.7171189556,
				"y": 1.628558289,
				"z": -1.1455245798,
				"element": "C" 
			},
			{
				"x": -0.0351452608,
				"y": 1.2408986838,
				"z": -2.2223945021,
				"element": "C" 
			},
			{
				"x": -0.9394251991,
				"y": 0.1688043114,
				"z": -2.1137478952,
				"element": "C" 
			},
			{
				"x": -1.6902995102,
				"y": -0.2088219065,
				"z": -3.2848986655,
				"element": "N" 
			},
			{
				"x": -1.5235915369,
				"y": 0.4053405339,
				"z": -4.3292373546,
				"element": "O" 
			},
			{
				"x": -2.4982579898,
				"y": -1.1681536236,
				"z": -3.1834646282,
				"element": "O" 
			},
			{
				"x": 1.6515924078,
				"y": 2.7361890313,
				"z": -1.4045976026,
				"element": "N" 
			},
			{
				"x": 1.4492263992,
				"y": 3.4284409993,
				"z": -2.4018503751,
				"element": "O" 
			},
			{
				"x": 2.5974747145,
				"y": 2.9040012143,
				"z": -0.6322568867,
				"element": "O" 
			},
			{
				"x": -2.3748741244,
				"y": -1.664128833,
				"z": -1.6402086166,
				"element": "H" 
			},
			{
				"x": -1.2350648227,
				"y": -1.5946876123,
				"z": 1.5072870552,
				"element": "H" 
			},
			{
				"x": 0.0355711473,
				"y": -0.9163854127,
				"z": 3.5313996676,
				"element": "H" 
			},
			{
				"x": 1.644888876,
				"y": 0.981240166,
				"z": 3.3866371651,
				"element": "H" 
			},
			{
				"x": 2.0105809074,
				"y": 2.1578625224,
				"z": 1.2697489663,
				"element": "H" 
			},
			{
				"x": 0.0649168721,
				"y": 1.7549612553,
				"z": -3.1683154131,
				"element": "H" 
			}
		],
		 "valence_orbital": [ 
			{
				"type": "occ",
				"energy": -0.3137,
				"method": "rhf"
			},
			{
				"type": "occ",
				"energy": -0.30652,
				"method": "rhf"
			},
			{
				"type": "occ",
				"energy": -0.29405,
				"method": "rhf"
			},
			{
				"type": "occ",
				"energy": -0.2885,
				"method": "rhf"
			},
			{
				"type": "occ",
				"energy": -0.25204,
				"method": "rhf"
			},
			{
				"type": "unocc",
				"energy": -0.11523,
				"method": "rhf"
			},
			{
				"type": "unocc",
				"energy": -0.10127,
				"method": "rhf"
			},
			{
				"type": "unocc",
				"energy": -0.05181,
				"method": "rhf"
			},
			{
				"type": "unocc",
				"energy": -0.03268,
				"method": "rhf"
			},
			{
				"type": "unocc",
				"energy": 0.01411,
				"method": "rhf"
			}
		],
		"cosmo_sigma_profile": { 
			"-0.025": 0.0,
			"-0.024": 0.0,
			"-0.023": 0.0,
			"-0.022": 0.0,
			"-0.021": 0.0,
			"-0.02": 0.0,
			"-0.019": 0.0,
			"-0.018": 0.0,
			"-0.017": 0.0,
			"-0.016": 0.0,
			"-0.015": 0.0,
			"-0.014": 0.0,
			"-0.013": 0.0,
			"-0.012": 0.0,
			"-0.011": 0.270795478719,
			"-0.01": 1.10730302416,
			"-0.009": 1.91332086049,
			"-0.008": 4.71064815246,
			"-0.007": 10.2323528825,
			"-0.006": 13.608326222,
			"-0.005": 16.4751952444,
			"-0.004": 16.5523556755,
			"-0.003": 16.2861933608,
			"-0.002": 17.6425696266,
			"-0.001": 15.6856398446,
			"0.0": 15.1957358719,
			"0.001": 15.9990051528,
			"0.002": 16.5961175008,
			"0.003": 9.85544396134,
			"0.004": 7.20764227348,
			"0.005": 7.54020970487,
			"0.006": 10.9919182762,
			"0.007": 12.7906494587,
			"0.008": 9.60867006978,
			"0.009": 7.12719741248,
			"0.01": 2.56973379688,
			"0.011": 0.0372427645482,
			"0.012": 0.0,
			"0.013": 0.0,
			"0.014": 0.0,
			"0.015": 0.0,
			"0.016": 0.0,
			"0.017": 0.0,
			"0.018": 0.0,
			"0.019": 0.0,
			"0.02": 0.0,
			"0.021": 0.0,
			"0.022": 0.0,
			"0.023": 0.0,
			"0.024": 0.0,
			"0.025": 0.0
		}
	}
}
