{
	 "smiles": "O=C1N(C(=O)C2=C1C=CC=C2)C1=NNC2=CC=CC=C12", 
	 "Tm": 513.15, 
	 "num_atms": 29, 
	 "gaussian": { 
		 "optdone": 1, 
		 "sigma_profile": "yes", 
		 "theory": "DFT", 
		 "functional": "B3LYP", 
		 "basiset": "6-31G**", 
		 "properties": { 
			 "R2extent": 6325.0036, 
			 "electric_dipole_moment_norm": 1.0751139521, 
			 "electric_quadrupole_moment_norm": 31.1097169939, 
			 "total_energy": -891.733303016, 
			 "HOMO_LUMO_gap": 0.13952, 
			 "cosmo_polarized_energy": -18.53, 
			 "cosmo_cavitation_energy": 34.9, 
			 "cosmo_dispersion_energy": -25.13, 
			 "cosmo_repulsion_energy": 1.89, 
			 "cosmo_total_nonelectrostatic_energy": 11.66, 
			 "SMD_solvation_energy": 5.91 
		},
		"coords": [
			{
				"x": -0.0036609501,
				"y": 1.535554872,
				"z": 0.9978961966,
				"element": "O" 
			},
			{
				"x": 0.0450265954,
				"y": 0.9131639471,
				"z": -0.0420706549,
				"element": "C" 
			},
			{
				"x": -1.012073127,
				"y": 0.1546348722,
				"z": -0.5991504559,
				"element": "N" 
			},
			{
				"x": -0.6263387138,
				"y": -0.4811759641,
				"z": -1.8130922576,
				"element": "C" 
			},
			{
				"x": -1.3156416149,
				"y": -1.2149027112,
				"z": -2.4827470704,
				"element": "O" 
			},
			{
				"x": 0.7863715738,
				"y": -0.0605936405,
				"z": -2.0417187807,
				"element": "C" 
			},
			{
				"x": 1.1865891934,
				"y": 0.7612626791,
				"z": -0.9879344159,
				"element": "C" 
			},
			{
				"x": 2.4652500051,
				"y": 1.2984404204,
				"z": -0.9303599667,
				"element": "C" 
			},
			{
				"x": 3.3433141482,
				"y": 0.9837049882,
				"z": -1.9751220237,
				"element": "C" 
			},
			{
				"x": 2.9420061643,
				"y": 0.1562703312,
				"z": -3.0328324544,
				"element": "C" 
			},
			{
				"x": 1.6496943907,
				"y": -0.3818107075,
				"z": -3.0799564119,
				"element": "C" 
			},
			{
				"x": -2.2936994972,
				"y": 0.0549986662,
				"z": -0.0230027059,
				"element": "C" 
			},
			{
				"x": -3.3646971367,
				"y": 0.3514252049,
				"z": -0.7369069506,
				"element": "N" 
			},
			{
				"x": -4.4191724567,
				"y": 0.1123394766,
				"z": 0.0773425517,
				"element": "N" 
			},
			{
				"x": -4.0451241092,
				"y": -0.3285494245,
				"z": 1.3191448489,
				"element": "C" 
			},
			{
				"x": -4.7909234978,
				"y": -0.6889675158,
				"z": 2.4527546712,
				"element": "C" 
			},
			{
				"x": -4.0764448667,
				"y": -1.1033808849,
				"z": 3.5655563171,
				"element": "C" 
			},
			{
				"x": -2.6618116227,
				"y": -1.157884824,
				"z": 3.5642358329,
				"element": "C" 
			},
			{
				"x": -1.9294629902,
				"y": -0.7982798986,
				"z": 2.4451800129,
				"element": "C" 
			},
			{
				"x": -2.6298042383,
				"y": -0.3814441514,
				"z": 1.2987146769,
				"element": "C" 
			},
			{
				"x": 2.7640990332,
				"y": 1.936596213,
				"z": -0.105111819,
				"element": "H" 
			},
			{
				"x": 4.3521257733,
				"y": 1.3855399605,
				"z": -1.9674441173,
				"element": "H" 
			},
			{
				"x": 3.6463418256,
				"y": -0.0696587113,
				"z": -3.8278908781,
				"element": "H" 
			},
			{
				"x": 1.3269828095,
				"y": -1.0242470698,
				"z": -3.8927715915,
				"element": "H" 
			},
			{
				"x": -5.3486874271,
				"y": 0.2499456149,
				"z": -0.2850182889,
				"element": "H" 
			},
			{
				"x": -5.8755582172,
				"y": -0.6443573848,
				"z": 2.4588916013,
				"element": "H" 
			},
			{
				"x": -4.6146311691,
				"y": -1.3903698977,
				"z": 4.4641999661,
				"element": "H" 
			},
			{
				"x": -2.146148519,
				"y": -1.4829542501,
				"z": 4.4625494926,
				"element": "H" 
			},
			{
				"x": -0.8454213587,
				"y": -0.8229002099,
				"z": 2.453164675,
				"element": "H" 
			}
		],
		 "valence_orbital": [ 
			{
				"type": "occ",
				"energy": -0.27702,
				"method": "rhf"
			},
			{
				"type": "occ",
				"energy": -0.26876,
				"method": "rhf"
			},
			{
				"type": "occ",
				"energy": -0.26504,
				"method": "rhf"
			},
			{
				"type": "occ",
				"energy": -0.24375,
				"method": "rhf"
			},
			{
				"type": "occ",
				"energy": -0.21944,
				"method": "rhf"
			},
			{
				"type": "unocc",
				"energy": -0.07992,
				"method": "rhf"
			},
			{
				"type": "unocc",
				"energy": -0.0441,
				"method": "rhf"
			},
			{
				"type": "unocc",
				"energy": -0.02896,
				"method": "rhf"
			},
			{
				"type": "unocc",
				"energy": 0.01674,
				"method": "rhf"
			},
			{
				"type": "unocc",
				"energy": 0.02989,
				"method": "rhf"
			}
		],
		"cosmo_sigma_profile": { 
			"-0.025": 0.0,
			"-0.024": 0.0,
			"-0.023": 0.0,
			"-0.022": 0.0,
			"-0.021": 0.0,
			"-0.02": 0.0,
			"-0.019": 0.0,
			"-0.018": 0.0,
			"-0.017": 0.885195718359,
			"-0.016": 1.89354013651,
			"-0.015": 0.988659600891,
			"-0.014": 1.18358501303,
			"-0.013": 0.944972490293,
			"-0.012": 1.02301493643,
			"-0.011": 1.39430942777,
			"-0.01": 1.01835023147,
			"-0.009": 0.643344673373,
			"-0.008": 4.59829658247,
			"-0.007": 12.6972468289,
			"-0.006": 17.7787836067,
			"-0.005": 19.6876290791,
			"-0.004": 18.7915551468,
			"-0.003": 16.2535703113,
			"-0.002": 15.5445765272,
			"-0.001": 18.595979013,
			"0.0": 17.726229445,
			"0.001": 25.6375297341,
			"0.002": 23.0325353342,
			"0.003": 13.8328634708,
			"0.004": 13.2498033813,
			"0.005": 11.9068575947,
			"0.006": 3.86791926037,
			"0.007": 4.2456389452,
			"0.008": 5.07453841913,
			"0.009": 5.4605929144,
			"0.01": 7.41193027219,
			"0.011": 10.6825335305,
			"0.012": 3.71345921465,
			"0.013": 1.79204940562,
			"0.014": 0.666939709241,
			"0.015": 0.0202531562761,
			"0.016": 0.0,
			"0.017": 0.0,
			"0.018": 0.0,
			"0.019": 0.0,
			"0.02": 0.0,
			"0.021": 0.0,
			"0.022": 0.0,
			"0.023": 0.0,
			"0.024": 0.0,
			"0.025": 0.0
		}
	}
}
