{
	 "smiles": "OC1=CC(NN=C(/C#N)C2=NC3=C(N2)C=CC=C3)=CC=C1", 
	 "Tm": 511.15, 
	 "num_atms": 32, 
	 "gaussian": { 
		 "optdone": 1, 
		 "sigma_profile": "yes", 
		 "theory": "DFT", 
		 "functional": "B3LYP", 
		 "basiset": "6-31G**", 
		 "properties": { 
			 "R2extent": 11151.1961, 
			 "electric_dipole_moment_norm": 1.96324493887, 
			 "electric_quadrupole_moment_norm": 24.824594954, 
			 "total_energy": -927.163127328, 
			 "HOMO_LUMO_gap": 0.12468, 
			 "cosmo_polarized_energy": -23.53, 
			 "cosmo_cavitation_energy": 39.19, 
			 "cosmo_dispersion_energy": -28.17, 
			 "cosmo_repulsion_energy": 2.13, 
			 "cosmo_total_nonelectrostatic_energy": 13.16, 
			 "SMD_solvation_energy": 5.18 
		},
		"coords": [
			{
				"x": 2.6492167043,
				"y": -0.3263997218,
				"z": -4.4490713082,
				"element": "O" 
			},
			{
				"x": 1.9158270465,
				"y": 0.1177181506,
				"z": -3.3874776933,
				"element": "C" 
			},
			{
				"x": 1.6711475049,
				"y": -0.7992607322,
				"z": -2.3626180713,
				"element": "C" 
			},
			{
				"x": 0.9254628798,
				"y": -0.4012152247,
				"z": -1.2494373799,
				"element": "C" 
			},
			{
				"x": 0.7020696935,
				"y": -1.3543526325,
				"z": -0.2408056172,
				"element": "N" 
			},
			{
				"x": 0.0118084532,
				"y": -1.0638342001,
				"z": 0.8385940471,
				"element": "N" 
			},
			{
				"x": -0.1837389567,
				"y": -1.9672466698,
				"z": 1.7646122986,
				"element": "C" 
			},
			{
				"x": 0.3434411259,
				"y": -3.2972213163,
				"z": 1.63656119,
				"element": "C" 
			},
			{
				"x": 0.7961903039,
				"y": -4.359671743,
				"z": 1.4763126323,
				"element": "N" 
			},
			{
				"x": -0.9527117956,
				"y": -1.6348070298,
				"z": 2.9621832574,
				"element": "C" 
			},
			{
				"x": -1.500910863,
				"y": -0.4716673997,
				"z": 3.2371933919,
				"element": "N" 
			},
			{
				"x": -2.1120606523,
				"y": -0.6488486308,
				"z": 4.4649373768,
				"element": "C" 
			},
			{
				"x": -1.9167512872,
				"y": -1.973145728,
				"z": 4.9357032121,
				"element": "C" 
			},
			{
				"x": -1.1676175232,
				"y": -2.5837438946,
				"z": 3.9482652313,
				"element": "N" 
			},
			{
				"x": -2.4292950987,
				"y": -2.4229378259,
				"z": 6.1541027889,
				"element": "C" 
			},
			{
				"x": -3.1546953237,
				"y": -1.5009253614,
				"z": 6.9040740943,
				"element": "C" 
			},
			{
				"x": -3.3599578967,
				"y": -0.1797030395,
				"z": 6.4534029716,
				"element": "C" 
			},
			{
				"x": -2.8466150832,
				"y": 0.261101121,
				"z": 5.2391826479,
				"element": "C" 
			},
			{
				"x": 0.4192075371,
				"y": 0.9020825013,
				"z": -1.1440157715,
				"element": "C" 
			},
			{
				"x": 0.6767448705,
				"y": 1.7964571463,
				"z": -2.1781462083,
				"element": "C" 
			},
			{
				"x": 1.4190603947,
				"y": 1.4227284225,
				"z": -3.3005004279,
				"element": "C" 
			},
			{
				"x": 2.7497931795,
				"y": 0.3916942791,
				"z": -5.0871751946,
				"element": "H" 
			},
			{
				"x": 2.066706336,
				"y": -1.8065614798,
				"z": -2.451980789,
				"element": "H" 
			},
			{
				"x": 1.0929706872,
				"y": -2.2882830917,
				"z": -0.3679973798,
				"element": "H" 
			},
			{
				"x": -0.8376055753,
				"y": -3.5374706368,
				"z": 3.939942322,
				"element": "H" 
			},
			{
				"x": -2.2732959847,
				"y": -3.4388501785,
				"z": 6.5040738185,
				"element": "H" 
			},
			{
				"x": -3.5723151176,
				"y": -1.806506262,
				"z": 7.8587574704,
				"element": "H" 
			},
			{
				"x": -3.9324876332,
				"y": 0.5044952434,
				"z": 7.0725479736,
				"element": "H" 
			},
			{
				"x": -3.0009486932,
				"y": 1.2757436267,
				"z": 4.8871253852,
				"element": "H" 
			},
			{
				"x": -0.1555599195,
				"y": 1.18716037,
				"z": -0.2722777346,
				"element": "H" 
			},
			{
				"x": 0.2911065102,
				"y": 2.80934607,
				"z": -2.1105074294,
				"element": "H" 
			},
			{
				"x": 1.6104141767,
				"y": 2.135425868,
				"z": -4.0989611048,
				"element": "H" 
			}
		],
		 "valence_orbital": [ 
			{
				"type": "occ",
				"energy": -0.27268,
				"method": "rhf"
			},
			{
				"type": "occ",
				"energy": -0.24831,
				"method": "rhf"
			},
			{
				"type": "occ",
				"energy": -0.23247,
				"method": "rhf"
			},
			{
				"type": "occ",
				"energy": -0.22815,
				"method": "rhf"
			},
			{
				"type": "occ",
				"energy": -0.20488,
				"method": "rhf"
			},
			{
				"type": "unocc",
				"energy": -0.0802,
				"method": "rhf"
			},
			{
				"type": "unocc",
				"energy": -0.00877,
				"method": "rhf"
			},
			{
				"type": "unocc",
				"energy": -0.00684,
				"method": "rhf"
			},
			{
				"type": "unocc",
				"energy": 0.00015,
				"method": "rhf"
			},
			{
				"type": "unocc",
				"energy": 0.01489,
				"method": "rhf"
			}
		],
		"cosmo_sigma_profile": { 
			"-0.025": 0.0,
			"-0.024": 0.0,
			"-0.023": 0.0,
			"-0.022": 0.0,
			"-0.021": 0.0,
			"-0.02": 0.0,
			"-0.019": 0.0,
			"-0.018": 0.582951129277,
			"-0.017": 1.54349587167,
			"-0.016": 1.98980401683,
			"-0.015": 2.94447506533,
			"-0.014": 3.75776277541,
			"-0.013": 2.73822244822,
			"-0.012": 2.7067463404,
			"-0.011": 3.88498078562,
			"-0.01": 4.89705221482,
			"-0.009": 3.80297918995,
			"-0.008": 4.69681077681,
			"-0.007": 7.22313520533,
			"-0.006": 12.4413888904,
			"-0.005": 17.7574295092,
			"-0.004": 20.7935813147,
			"-0.003": 17.8544470773,
			"-0.002": 15.5941671876,
			"-0.001": 15.0974325989,
			"0.0": 16.832381296,
			"0.001": 19.8722251877,
			"0.002": 19.7765737669,
			"0.003": 23.3367132784,
			"0.004": 26.3114157313,
			"0.005": 21.7619745781,
			"0.006": 10.8102723129,
			"0.007": 6.04379589789,
			"0.008": 6.29444883459,
			"0.009": 5.27647163441,
			"0.01": 5.4577066405,
			"0.011": 5.60729948464,
			"0.012": 2.80745782259,
			"0.013": 1.26673448165,
			"0.014": 1.02243632244,
			"0.015": 1.53168535602,
			"0.016": 0.89773684184,
			"0.017": 1.09623907247,
			"0.018": 0.12402985488,
			"0.019": 0.0,
			"0.02": 0.0,
			"0.021": 0.0,
			"0.022": 0.0,
			"0.023": 0.0,
			"0.024": 0.0,
			"0.025": 0.0
		}
	}
}
