{
	 "smiles": "BrC1=C(Br)C(Br)=C(OC2=C(Br)C(Br)=C(Br)C(Br)=C2Br)C(Br)=C1Br", 
	 "Tm": 579.15, 
	 "num_atms": 23, 
	 "gaussian": { 
		 "optdone": 1, 
		 "sigma_profile": "yes", 
		 "theory": "DFT", 
		 "functional": "B3LYP", 
		 "basiset": "6-31G**", 
		 "properties": { 
			 "R2extent": 30137.4291, 
			 "electric_dipole_moment_norm": 0.349027964496, 
			 "electric_quadrupole_moment_norm": 2.58272425938, 
			 "total_energy": -26246.4534012, 
			 "HOMO_LUMO_gap": 0.1714, 
			 "cosmo_polarized_energy": -5.63, 
			 "cosmo_cavitation_energy": 49.32, 
			 "cosmo_dispersion_energy": -36.66, 
			 "cosmo_repulsion_energy": 2.78, 
			 "cosmo_total_nonelectrostatic_energy": 15.43, 
			 "SMD_solvation_energy": -1.19 
		},
		"coords": [
			{
				"x": -4.7962976676,
				"y": 1.2726444647,
				"z": 2.206036369,
				"element": "Br" 
			},
			{
				"x": -2.9920444537,
				"y": 0.7192437129,
				"z": 2.0468538659,
				"element": "C" 
			},
			{
				"x": -2.6659964367,
				"y": -0.6465285298,
				"z": 2.1217288477,
				"element": "C" 
			},
			{
				"x": -4.0183508219,
				"y": -1.9405855678,
				"z": 2.3982898234,
				"element": "Br" 
			},
			{
				"x": -1.3347709646,
				"y": -1.0531326736,
				"z": 1.9803274493,
				"element": "C" 
			},
			{
				"x": -0.8375949723,
				"y": -2.8763881677,
				"z": 2.0509991057,
				"element": "Br" 
			},
			{
				"x": -0.3206342262,
				"y": -0.1038637182,
				"z": 1.7721228498,
				"element": "C" 
			},
			{
				"x": 0.9576555186,
				"y": -0.5970011987,
				"z": 1.7389760309,
				"element": "O" 
			},
			{
				"x": 1.9473651161,
				"y": -0.2812143556,
				"z": 0.8450723006,
				"element": "C" 
			},
			{
				"x": 3.2165525329,
				"y": -0.0460020079,
				"z": 1.3988987807,
				"element": "C" 
			},
			{
				"x": 3.3746951117,
				"y": -0.0589971019,
				"z": 3.2833748542,
				"element": "Br" 
			},
			{
				"x": 4.3166920668,
				"y": 0.1955155294,
				"z": 0.5689242017,
				"element": "C" 
			},
			{
				"x": 6.0175414701,
				"y": 0.5143798826,
				"z": 1.3340890315,
				"element": "Br" 
			},
			{
				"x": 4.1497900221,
				"y": 0.2107705013,
				"z": -0.8272017696,
				"element": "C" 
			},
			{
				"x": 5.6291628569,
				"y": 0.5687823619,
				"z": -1.9542871434,
				"element": "Br" 
			},
			{
				"x": 2.8866960201,
				"y": -0.0485769575,
				"z": -1.3821238401,
				"element": "C" 
			},
			{
				"x": 2.6565933278,
				"y": -0.0580978771,
				"z": -3.2615900155,
				"element": "Br" 
			},
			{
				"x": 1.7892274,
				"y": -0.3148635604,
				"z": -0.5465673718,
				"element": "C" 
			},
			{
				"x": 0.1019074817,
				"y": -0.760091768,
				"z": -1.2824751887,
				"element": "Br" 
			},
			{
				"x": -0.637516285,
				"y": 1.2605860938,
				"z": 1.7459820539,
				"element": "C" 
			},
			{
				"x": 0.7526776799,
				"y": 2.5377284083,
				"z": 1.5935179586,
				"element": "Br" 
			},
			{
				"x": -1.9761212478,
				"y": 1.6703931469,
				"z": 1.8629617021,
				"element": "C" 
			},
			{
				"x": -2.400729529,
				"y": 3.5141993823,
				"z": 1.7884901042,
				"element": "Br" 
			}
		],
		 "valence_orbital": [ 
			{
				"type": "occ",
				"energy": -0.2695,
				"method": "rhf"
			},
			{
				"type": "occ",
				"energy": -0.25813,
				"method": "rhf"
			},
			{
				"type": "occ",
				"energy": -0.25809,
				"method": "rhf"
			},
			{
				"type": "occ",
				"energy": -0.25755,
				"method": "rhf"
			},
			{
				"type": "occ",
				"energy": -0.25109,
				"method": "rhf"
			},
			{
				"type": "unocc",
				"energy": -0.07969,
				"method": "rhf"
			},
			{
				"type": "unocc",
				"energy": -0.07465,
				"method": "rhf"
			},
			{
				"type": "unocc",
				"energy": -0.05945,
				"method": "rhf"
			},
			{
				"type": "unocc",
				"energy": -0.05724,
				"method": "rhf"
			},
			{
				"type": "unocc",
				"energy": -0.0534,
				"method": "rhf"
			}
		],
		"cosmo_sigma_profile": { 
			"-0.025": 0.0,
			"-0.024": 0.0,
			"-0.023": 0.0,
			"-0.022": 0.0,
			"-0.021": 0.0,
			"-0.02": 0.0,
			"-0.019": 0.0,
			"-0.018": 0.0,
			"-0.017": 0.0,
			"-0.016": 0.0,
			"-0.015": 0.0,
			"-0.014": 0.0,
			"-0.013": 0.0,
			"-0.012": 0.0,
			"-0.011": 0.0,
			"-0.01": 0.0,
			"-0.009": 0.0,
			"-0.008": 0.0,
			"-0.007": 3.6439807554,
			"-0.006": 12.5082427724,
			"-0.005": 15.3354299557,
			"-0.004": 16.6489624932,
			"-0.003": 30.8898928103,
			"-0.002": 59.9669930483,
			"-0.001": 41.3356606554,
			"0.0": 38.5687249086,
			"0.001": 41.6400126784,
			"0.002": 60.3976625311,
			"0.003": 83.220477505,
			"0.004": 21.9698775157,
			"0.005": 2.32273941007,
			"0.006": 0.490132824404,
			"0.007": 0.0,
			"0.008": 0.0,
			"0.009": 0.0,
			"0.01": 0.0,
			"0.011": 0.0,
			"0.012": 0.0,
			"0.013": 0.0,
			"0.014": 0.0,
			"0.015": 0.0,
			"0.016": 0.0,
			"0.017": 0.0,
			"0.018": 0.0,
			"0.019": 0.0,
			"0.02": 0.0,
			"0.021": 0.0,
			"0.022": 0.0,
			"0.023": 0.0,
			"0.024": 0.0,
			"0.025": 0.0
		}
	}
}
