{
	 "smiles": "CCCCCCI", 
	 "Tm": 198.55, 
	 "num_atms": 20, 
	 "gaussian": { 
		 "optdone": 1, 
		 "sigma_profile": "yes", 
		 "theory": "DFT", 
		 "functional": "B3LYP", 
		 "basiset": "6-31G**", 
		 "properties": { 
			 "R2extent": 1666.6421, 
			 "electric_dipole_moment_norm": 2.34970680086, 
			 "electric_quadrupole_moment_norm": 9.61458176261, 
			 "total_energy": -247.883772075, 
			 "HOMO_LUMO_gap": 0.21493, 
			 "cosmo_polarized_energy": -3.6, 
			 "cosmo_cavitation_energy": 24.51, 
			 "cosmo_dispersion_energy": -18.99, 
			 "cosmo_repulsion_energy": 1.58, 
			 "cosmo_total_nonelectrostatic_energy": 7.1, 
			 "SMD_solvation_energy": 2.9 
		},
		"coords": [
			{
				"x": 2.207625493,
				"y": 1.0018778559,
				"z": -0.0590821982,
				"element": "C" 
			},
			{
				"x": 0.8211574417,
				"y": 1.6189025004,
				"z": -0.2717794757,
				"element": "C" 
			},
			{
				"x": -0.2799309722,
				"y": 0.9002512991,
				"z": 0.5211453471,
				"element": "C" 
			},
			{
				"x": -1.6762244149,
				"y": 1.5365597546,
				"z": 0.4163888162,
				"element": "C" 
			},
			{
				"x": -2.3035347633,
				"y": 1.5536805891,
				"z": -0.986732327,
				"element": "C" 
			},
			{
				"x": -2.5073760393,
				"y": 0.1997828089,
				"z": -1.654641052,
				"element": "C" 
			},
			{
				"x": -3.9480309148,
				"y": -1.0960328224,
				"z": -0.6165715364,
				"element": "I" 
			},
			{
				"x": 2.9747973554,
				"y": 1.531172251,
				"z": -0.6335477816,
				"element": "H" 
			},
			{
				"x": 2.2257325129,
				"y": -0.0490883817,
				"z": -0.3697490472,
				"element": "H" 
			},
			{
				"x": 2.4984322598,
				"y": 1.0372556507,
				"z": 0.9969426342,
				"element": "H" 
			},
			{
				"x": 0.5841166704,
				"y": 1.6059999951,
				"z": -1.3438000831,
				"element": "H" 
			},
			{
				"x": 0.8421311273,
				"y": 2.6779762528,
				"z": 0.0203218461,
				"element": "H" 
			},
			{
				"x": -0.3221142432,
				"y": -0.1538680023,
				"z": 0.2135785348,
				"element": "H" 
			},
			{
				"x": 0.0059378349,
				"y": 0.8819624157,
				"z": 1.5812585646,
				"element": "H" 
			},
			{
				"x": -2.3577238554,
				"y": 1.0142888713,
				"z": 1.098281731,
				"element": "H" 
			},
			{
				"x": -1.6229149087,
				"y": 2.5737419378,
				"z": 0.7725252959,
				"element": "H" 
			},
			{
				"x": -1.663152611,
				"y": 2.1301290531,
				"z": -1.6711001473,
				"element": "H" 
			},
			{
				"x": -3.2608166551,
				"y": 2.0851198211,
				"z": -0.9487404734,
				"element": "H" 
			},
			{
				"x": -2.9262921843,
				"y": 0.2981033587,
				"z": -2.655004055,
				"element": "H" 
			},
			{
				"x": -1.5980191331,
				"y": -0.3979152091,
				"z": -1.7018945929,
				"element": "H" 
			}
		],
		 "valence_orbital": [ 
			{
				"type": "occ",
				"energy": -0.32585,
				"method": "rhf"
			},
			{
				"type": "occ",
				"energy": -0.32487,
				"method": "rhf"
			},
			{
				"type": "occ",
				"energy": -0.31327,
				"method": "rhf"
			},
			{
				"type": "occ",
				"energy": -0.25546,
				"method": "rhf"
			},
			{
				"type": "occ",
				"energy": -0.25377,
				"method": "rhf"
			},
			{
				"type": "unocc",
				"energy": -0.03884,
				"method": "rhf"
			},
			{
				"type": "unocc",
				"energy": 0.04063,
				"method": "rhf"
			},
			{
				"type": "unocc",
				"energy": 0.0432,
				"method": "rhf"
			},
			{
				"type": "unocc",
				"energy": 0.05651,
				"method": "rhf"
			},
			{
				"type": "unocc",
				"energy": 0.08826,
				"method": "rhf"
			}
		],
		"cosmo_sigma_profile": { 
			"-0.025": 0.0,
			"-0.024": 0.0,
			"-0.023": 0.0,
			"-0.022": 0.0,
			"-0.021": 0.0,
			"-0.02": 0.0,
			"-0.019": 0.0,
			"-0.018": 0.0,
			"-0.017": 0.0,
			"-0.016": 0.0,
			"-0.015": 0.0,
			"-0.014": 0.0,
			"-0.013": 0.0,
			"-0.012": 0.0,
			"-0.011": 0.0,
			"-0.01": 0.0,
			"-0.009": 0.0,
			"-0.008": 0.0,
			"-0.007": 0.61414800638,
			"-0.006": 3.5817071735,
			"-0.005": 4.65325034498,
			"-0.004": 10.7632397759,
			"-0.003": 17.0312340223,
			"-0.002": 25.0285696912,
			"-0.001": 30.9242288099,
			"0.0": 28.3631178202,
			"0.001": 25.5888627259,
			"0.002": 15.1251290334,
			"0.003": 5.31016780973,
			"0.004": 5.58823887838,
			"0.005": 7.6703060327,
			"0.006": 11.2956424892,
			"0.007": 3.24109925834,
			"0.008": 0.0,
			"0.009": 0.0,
			"0.01": 0.0,
			"0.011": 0.0,
			"0.012": 0.0,
			"0.013": 0.0,
			"0.014": 0.0,
			"0.015": 0.0,
			"0.016": 0.0,
			"0.017": 0.0,
			"0.018": 0.0,
			"0.019": 0.0,
			"0.02": 0.0,
			"0.021": 0.0,
			"0.022": 0.0,
			"0.023": 0.0,
			"0.024": 0.0,
			"0.025": 0.0
		}
	}
}
