{
	 "smiles": "CC1=CC(C(O)=O)=C(C)N1C1=C(C)C=CC=C1", 
	 "Tm": 401.15, 
	 "num_atms": 32, 
	 "gaussian": { 
		 "optdone": 1, 
		 "sigma_profile": "yes", 
		 "theory": "DFT", 
		 "functional": "B3LYP", 
		 "basiset": "6-31G**", 
		 "properties": { 
			 "R2extent": 4411.4888, 
			 "electric_dipole_moment_norm": 4.69314100896, 
			 "electric_quadrupole_moment_norm": 12.187114183, 
			 "total_energy": -747.762207064, 
			 "HOMO_LUMO_gap": 0.18288, 
			 "cosmo_polarized_energy": -12.45, 
			 "cosmo_cavitation_energy": 35.34, 
			 "cosmo_dispersion_energy": -23.94, 
			 "cosmo_repulsion_energy": 1.86, 
			 "cosmo_total_nonelectrostatic_energy": 13.26, 
			 "SMD_solvation_energy": 7.63 
		},
		"coords": [
			{
				"x": 0.8340858222,
				"y": 2.9645296486,
				"z": -0.4392695304,
				"element": "C" 
			},
			{
				"x": 0.8293162885,
				"y": 1.5797241386,
				"z": -1.0022896896,
				"element": "C" 
			},
			{
				"x": 1.3625881869,
				"y": 1.0844071121,
				"z": -2.1613210749,
				"element": "C" 
			},
			{
				"x": 1.0920374992,
				"y": -0.3202782993,
				"z": -2.2123001587,
				"element": "C" 
			},
			{
				"x": 1.5338973949,
				"y": -1.1541046568,
				"z": -3.3274070979,
				"element": "C" 
			},
			{
				"x": 1.199855924,
				"y": -2.4754119642,
				"z": -3.2201856739,
				"element": "O" 
			},
			{
				"x": 2.1521366693,
				"y": -0.7468390245,
				"z": -4.2956451403,
				"element": "O" 
			},
			{
				"x": 0.3844981411,
				"y": -0.6580303934,
				"z": -1.0591716929,
				"element": "C" 
			},
			{
				"x": -0.1527634802,
				"y": -1.9604279006,
				"z": -0.5559205634,
				"element": "C" 
			},
			{
				"x": 0.2305239253,
				"y": 0.5057004361,
				"z": -0.3320549126,
				"element": "N" 
			},
			{
				"x": -0.4662592934,
				"y": 0.6097817681,
				"z": 0.9178294882,
				"element": "C" 
			},
			{
				"x": -1.8451030095,
				"y": 0.892830171,
				"z": 0.9299167014,
				"element": "C" 
			},
			{
				"x": -2.6184093516,
				"y": 1.0791509767,
				"z": -0.3529669404,
				"element": "C" 
			},
			{
				"x": -2.4762050762,
				"y": 0.9915018076,
				"z": 2.1765033422,
				"element": "C" 
			},
			{
				"x": -1.7707818057,
				"y": 0.8164846868,
				"z": 3.3678606593,
				"element": "C" 
			},
			{
				"x": -0.4047340778,
				"y": 0.5370739637,
				"z": 3.336453186,
				"element": "C" 
			},
			{
				"x": 0.2458167681,
				"y": 0.4349957517,
				"z": 2.1069452462,
				"element": "C" 
			},
			{
				"x": 1.3514822514,
				"y": 3.6326849601,
				"z": -1.131544589,
				"element": "H" 
			},
			{
				"x": 1.3484402876,
				"y": 3.0173954129,
				"z": 0.5277155344,
				"element": "H" 
			},
			{
				"x": -0.1775117782,
				"y": 3.359364479,
				"z": -0.2849874221,
				"element": "H" 
			},
			{
				"x": 1.9018107445,
				"y": 1.6404040089,
				"z": -2.9140348367,
				"element": "H" 
			},
			{
				"x": 1.5575663736,
				"y": -2.8863266728,
				"z": -4.0242369216,
				"element": "H" 
			},
			{
				"x": -1.234016738,
				"y": -1.9112865894,
				"z": -0.3799956981,
				"element": "H" 
			},
			{
				"x": 0.3107042402,
				"y": -2.2426728132,
				"z": 0.3969456497,
				"element": "H" 
			},
			{
				"x": 0.0451104048,
				"y": -2.7456825937,
				"z": -1.2825708212,
				"element": "H" 
			},
			{
				"x": -2.180270321,
				"y": 1.8640350106,
				"z": -0.9779057696,
				"element": "H" 
			},
			{
				"x": -2.6194867336,
				"y": 0.1655358642,
				"z": -0.957507659,
				"element": "H" 
			},
			{
				"x": -3.6570319445,
				"y": 1.3474901524,
				"z": -0.1445506462,
				"element": "H" 
			},
			{
				"x": -3.5403252146,
				"y": 1.2099776104,
				"z": 2.2094324775,
				"element": "H" 
			},
			{
				"x": -2.2892250802,
				"y": 0.8995619882,
				"z": 4.3186399403,
				"element": "H" 
			},
			{
				"x": 0.1516920432,
				"y": 0.400366815,
				"z": 4.2586430058,
				"element": "H" 
			},
			{
				"x": 1.3087609395,
				"y": 0.2198641451,
				"z": 2.0540816074,
				"element": "H" 
			}
		],
		 "valence_orbital": [ 
			{
				"type": "occ",
				"energy": -0.26484,
				"method": "rhf"
			},
			{
				"type": "occ",
				"energy": -0.25748,
				"method": "rhf"
			},
			{
				"type": "occ",
				"energy": -0.25464,
				"method": "rhf"
			},
			{
				"type": "occ",
				"energy": -0.23917,
				"method": "rhf"
			},
			{
				"type": "occ",
				"energy": -0.20318,
				"method": "rhf"
			},
			{
				"type": "unocc",
				"energy": -0.0203,
				"method": "rhf"
			},
			{
				"type": "unocc",
				"energy": -0.01443,
				"method": "rhf"
			},
			{
				"type": "unocc",
				"energy": -0.00519,
				"method": "rhf"
			},
			{
				"type": "unocc",
				"energy": 0.04594,
				"method": "rhf"
			},
			{
				"type": "unocc",
				"energy": 0.08219,
				"method": "rhf"
			}
		],
		"cosmo_sigma_profile": { 
			"-0.025": 0.0,
			"-0.024": 0.0,
			"-0.023": 0.0,
			"-0.022": 0.0,
			"-0.021": 0.0,
			"-0.02": 0.0,
			"-0.019": 0.0,
			"-0.018": 0.0668748791865,
			"-0.017": 0.724527755547,
			"-0.016": 0.837924096856,
			"-0.015": 0.69814928615,
			"-0.014": 0.866133977562,
			"-0.013": 0.466969845034,
			"-0.012": 0.712854966464,
			"-0.011": 1.10912846407,
			"-0.01": 0.648140420544,
			"-0.009": 0.406599563074,
			"-0.008": 0.395892102833,
			"-0.007": 1.16591899952,
			"-0.006": 7.78286279832,
			"-0.005": 16.5159352561,
			"-0.004": 28.4827531626,
			"-0.003": 25.007538002,
			"-0.002": 25.8435753036,
			"-0.001": 30.0756001344,
			"0.0": 28.7742686552,
			"0.001": 18.7059981195,
			"0.002": 15.3382692975,
			"0.003": 16.595972647,
			"0.004": 15.6199655112,
			"0.005": 15.3230127933,
			"0.006": 6.40007845131,
			"0.007": 5.29077418291,
			"0.008": 1.82714275816,
			"0.009": 1.49529072644,
			"0.01": 1.55614583336,
			"0.011": 2.15621489897,
			"0.012": 3.61882159238,
			"0.013": 5.12282382223,
			"0.014": 0.315566091657,
			"0.015": 0.0,
			"0.016": 0.0,
			"0.017": 0.0,
			"0.018": 0.0,
			"0.019": 0.0,
			"0.02": 0.0,
			"0.021": 0.0,
			"0.022": 0.0,
			"0.023": 0.0,
			"0.024": 0.0,
			"0.025": 0.0
		}
	}
}
