{
	 "smiles": "COC1=CC=C(CC(N)=O)C=C1", 
	 "Tm": 459.15, 
	 "num_atms": 23, 
	 "gaussian": { 
		 "optdone": 1, 
		 "sigma_profile": "yes", 
		 "theory": "DFT", 
		 "functional": "B3LYP", 
		 "basiset": "6-31G**", 
		 "properties": { 
			 "R2extent": 2830.4381, 
			 "electric_dipole_moment_norm": 4.80698374035, 
			 "electric_quadrupole_moment_norm": 13.8673053951, 
			 "total_energy": -554.795167327, 
			 "HOMO_LUMO_gap": 0.2066, 
			 "cosmo_polarized_energy": -14.25, 
			 "cosmo_cavitation_energy": 26.96, 
			 "cosmo_dispersion_energy": -19.51, 
			 "cosmo_repulsion_energy": 1.58, 
			 "cosmo_total_nonelectrostatic_energy": 9.04, 
			 "SMD_solvation_energy": 6.13 
		},
		"coords": [
			{
				"x": -3.5259307476,
				"y": 2.2753736101,
				"z": 0.1513715898,
				"element": "C" 
			},
			{
				"x": -2.48139279,
				"y": 1.9588538861,
				"z": -0.7551269728,
				"element": "O" 
			},
			{
				"x": -1.4389052514,
				"y": 1.2047272729,
				"z": -0.3013401022,
				"element": "C" 
			},
			{
				"x": -1.3229712424,
				"y": 0.702160445,
				"z": 0.9995569957,
				"element": "C" 
			},
			{
				"x": -0.2022510246,
				"y": -0.0584372347,
				"z": 1.347691839,
				"element": "C" 
			},
			{
				"x": 0.8163039627,
				"y": -0.3360774388,
				"z": 0.4299597476,
				"element": "C" 
			},
			{
				"x": 2.0117611481,
				"y": -1.1775772221,
				"z": 0.8113923484,
				"element": "C" 
			},
			{
				"x": 1.9461186547,
				"y": -2.6890207686,
				"z": 0.515554416,
				"element": "C" 
			},
			{
				"x": 0.7368721847,
				"y": -3.170290589,
				"z": 0.1108707719,
				"element": "N" 
			},
			{
				"x": 2.9282523688,
				"y": -3.40030951,
				"z": 0.6674637773,
				"element": "O" 
			},
			{
				"x": 0.677400979,
				"y": 0.1788346543,
				"z": -0.8717754433,
				"element": "C" 
			},
			{
				"x": -0.4276262558,
				"y": 0.9362132691,
				"z": -1.2369798935,
				"element": "C" 
			},
			{
				"x": -4.2399640942,
				"y": 2.8795506218,
				"z": -0.4102676573,
				"element": "H" 
			},
			{
				"x": -4.0300556429,
				"y": 1.3728495173,
				"z": 0.5208009592,
				"element": "H" 
			},
			{
				"x": -3.1577388504,
				"y": 2.8553001538,
				"z": 1.0074992759,
				"element": "H" 
			},
			{
				"x": -2.084669968,
				"y": 0.8979738006,
				"z": 1.7449476667,
				"element": "H" 
			},
			{
				"x": -0.1220914895,
				"y": -0.4372098502,
				"z": 2.3639057828,
				"element": "H" 
			},
			{
				"x": 2.9180944331,
				"y": -0.822895375,
				"z": 0.3102677919,
				"element": "H" 
			},
			{
				"x": 2.2125605763,
				"y": -1.0966115375,
				"z": 1.8857436974,
				"element": "H" 
			},
			{
				"x": 0.669188571,
				"y": -4.1514958217,
				"z": -0.1108167099,
				"element": "H" 
			},
			{
				"x": -0.0447663588,
				"y": -2.5604914046,
				"z": -0.0664422184,
				"element": "H" 
			},
			{
				"x": 1.4536279408,
				"y": -0.0153396144,
				"z": -1.6080295044,
				"element": "H" 
			},
			{
				"x": -0.5304171036,
				"y": 1.3378191356,
				"z": -2.2398481578,
				"element": "H" 
			}
		],
		 "valence_orbital": [ 
			{
				"type": "occ",
				"energy": -0.32358,
				"method": "rhf"
			},
			{
				"type": "occ",
				"energy": -0.26203,
				"method": "rhf"
			},
			{
				"type": "occ",
				"energy": -0.25599,
				"method": "rhf"
			},
			{
				"type": "occ",
				"energy": -0.24644,
				"method": "rhf"
			},
			{
				"type": "occ",
				"energy": -0.2174,
				"method": "rhf"
			},
			{
				"type": "unocc",
				"energy": -0.0108,
				"method": "rhf"
			},
			{
				"type": "unocc",
				"energy": 0.00166,
				"method": "rhf"
			},
			{
				"type": "unocc",
				"energy": 0.04065,
				"method": "rhf"
			},
			{
				"type": "unocc",
				"energy": 0.08453,
				"method": "rhf"
			},
			{
				"type": "unocc",
				"energy": 0.09399,
				"method": "rhf"
			}
		],
		"cosmo_sigma_profile": { 
			"-0.025": 0.0,
			"-0.024": 0.0,
			"-0.023": 0.0,
			"-0.022": 0.0,
			"-0.021": 0.0,
			"-0.02": 0.0,
			"-0.019": 0.0,
			"-0.018": 0.0,
			"-0.017": 0.0,
			"-0.016": 0.0,
			"-0.015": 0.0,
			"-0.014": 0.717582382805,
			"-0.013": 1.11695436771,
			"-0.012": 1.29421198502,
			"-0.011": 1.73486024949,
			"-0.01": 2.09725319572,
			"-0.009": 1.89621503151,
			"-0.008": 1.62891253125,
			"-0.007": 1.91736613662,
			"-0.006": 13.2419592617,
			"-0.005": 23.7740288629,
			"-0.004": 20.2867550365,
			"-0.003": 19.7555293611,
			"-0.002": 13.7728151181,
			"-0.001": 12.6887080485,
			"0.0": 10.3078439395,
			"0.001": 10.9229284391,
			"0.002": 9.13947135368,
			"0.003": 12.6889359818,
			"0.004": 13.6621533696,
			"0.005": 9.16252739286,
			"0.006": 5.44036850917,
			"0.007": 2.30748053707,
			"0.008": 2.39954491136,
			"0.009": 3.03412341612,
			"0.01": 2.73002023633,
			"0.011": 1.46896534472,
			"0.012": 1.86780311365,
			"0.013": 2.41142204593,
			"0.014": 6.1607868853,
			"0.015": 3.33725265702,
			"0.016": 0.231186074868,
			"0.017": 0.0,
			"0.018": 0.0,
			"0.019": 0.0,
			"0.02": 0.0,
			"0.021": 0.0,
			"0.022": 0.0,
			"0.023": 0.0,
			"0.024": 0.0,
			"0.025": 0.0
		}
	}
}
