{
	 "smiles": "NC(=O)CNCC(N)=O", 
	 "Tm": 403.15, 
	 "num_atms": 18, 
	 "gaussian": { 
		 "optdone": 1, 
		 "sigma_profile": "yes", 
		 "theory": "DFT", 
		 "functional": "B3LYP", 
		 "basiset": "6-31G**", 
		 "properties": { 
			 "R2extent": 1495.4128, 
			 "electric_dipole_moment_norm": 6.8267047783, 
			 "electric_quadrupole_moment_norm": 9.77755897093, 
			 "total_energy": -472.575137107, 
			 "HOMO_LUMO_gap": 0.22371, 
			 "cosmo_polarized_energy": -22.07, 
			 "cosmo_cavitation_energy": 21.74, 
			 "cosmo_dispersion_energy": -16.15, 
			 "cosmo_repulsion_energy": 1.38, 
			 "cosmo_total_nonelectrostatic_energy": 6.96, 
			 "SMD_solvation_energy": 4.4 
		},
		"coords": [
			{
				"x": -1.5506463609,
				"y": 0.7957064546,
				"z": -2.7318840428,
				"element": "N" 
			},
			{
				"x": -1.0735229508,
				"y": 0.9533120382,
				"z": -1.4650837451,
				"element": "C" 
			},
			{
				"x": -0.1521756836,
				"y": 1.7156416903,
				"z": -1.2045522856,
				"element": "O" 
			},
			{
				"x": -1.8187873261,
				"y": 0.1245649352,
				"z": -0.3996321123,
				"element": "C" 
			},
			{
				"x": -1.1183373461,
				"y": 0.1079958038,
				"z": 0.8582787136,
				"element": "N" 
			},
			{
				"x": -0.0299058876,
				"y": -0.8477840534,
				"z": 1.0321345829,
				"element": "C" 
			},
			{
				"x": 1.2883119366,
				"y": -0.2398973026,
				"z": 1.5473074329,
				"element": "C" 
			},
			{
				"x": 1.4494793999,
				"y": 1.0772571284,
				"z": 1.2708572208,
				"element": "N" 
			},
			{
				"x": 2.1059733557,
				"y": -0.9394646999,
				"z": 2.1342954643,
				"element": "O" 
			},
			{
				"x": -2.2632183641,
				"y": 0.1217243566,
				"z": -2.9609890172,
				"element": "H" 
			},
			{
				"x": -1.1149660074,
				"y": 1.317538816,
				"z": -3.476918372,
				"element": "H" 
			},
			{
				"x": -2.7936402546,
				"y": 0.6071828024,
				"z": -0.2563622403,
				"element": "H" 
			},
			{
				"x": -2.028520948,
				"y": -0.8782198849,
				"z": -0.8190044988,
				"element": "H" 
			},
			{
				"x": -1.7512330468,
				"y": 0.1095015096,
				"z": 1.6454260822,
				"element": "H" 
			},
			{
				"x": 0.2032279645,
				"y": -1.316510746,
				"z": 0.0670526463,
				"element": "H" 
			},
			{
				"x": -0.2801230104,
				"y": -1.6659434199,
				"z": 1.7183959249,
				"element": "H" 
			},
			{
				"x": 2.3559291443,
				"y": 1.4793528972,
				"z": 1.4548388567,
				"element": "H" 
			},
			{
				"x": 0.8079553851,
				"y": 1.5327416744,
				"z": 0.6273393895,
				"element": "H" 
			}
		],
		 "valence_orbital": [ 
			{
				"type": "occ",
				"energy": -0.28412,
				"method": "rhf"
			},
			{
				"type": "occ",
				"energy": -0.26898,
				"method": "rhf"
			},
			{
				"type": "occ",
				"energy": -0.24791,
				"method": "rhf"
			},
			{
				"type": "occ",
				"energy": -0.23902,
				"method": "rhf"
			},
			{
				"type": "occ",
				"energy": -0.21229,
				"method": "rhf"
			},
			{
				"type": "unocc",
				"energy": 0.01142,
				"method": "rhf"
			},
			{
				"type": "unocc",
				"energy": 0.04851,
				"method": "rhf"
			},
			{
				"type": "unocc",
				"energy": 0.05964,
				"method": "rhf"
			},
			{
				"type": "unocc",
				"energy": 0.07907,
				"method": "rhf"
			},
			{
				"type": "unocc",
				"energy": 0.11243,
				"method": "rhf"
			}
		],
		"cosmo_sigma_profile": { 
			"-0.025": 0.0,
			"-0.024": 0.0,
			"-0.023": 0.0,
			"-0.022": 0.0,
			"-0.021": 0.0,
			"-0.02": 0.0,
			"-0.019": 0.0,
			"-0.018": 0.0,
			"-0.017": 0.0,
			"-0.016": 0.0,
			"-0.015": 0.296096292967,
			"-0.014": 2.35984837149,
			"-0.013": 2.91440329313,
			"-0.012": 3.37834408586,
			"-0.011": 5.87007147495,
			"-0.01": 4.81967388833,
			"-0.009": 4.79176418117,
			"-0.008": 4.68591247948,
			"-0.007": 6.53993496163,
			"-0.006": 9.99440124145,
			"-0.005": 11.6192419934,
			"-0.004": 10.2018032332,
			"-0.003": 9.45154890652,
			"-0.002": 9.0427286437,
			"-0.001": 6.68687952573,
			"0.0": 5.44495867792,
			"0.001": 4.94110700335,
			"0.002": 5.10852467377,
			"0.003": 6.77567936206,
			"0.004": 4.76915843106,
			"0.005": 5.75505525395,
			"0.006": 3.94341975994,
			"0.007": 3.23807801014,
			"0.008": 4.55169560609,
			"0.009": 4.25290899688,
			"0.01": 4.07704219806,
			"0.011": 4.35036201356,
			"0.012": 3.92473253103,
			"0.013": 3.08379783282,
			"0.014": 6.8200682285,
			"0.015": 5.17639303886,
			"0.016": 0.856645623983,
			"0.017": 0.0,
			"0.018": 0.0,
			"0.019": 0.0,
			"0.02": 0.0,
			"0.021": 0.0,
			"0.022": 0.0,
			"0.023": 0.0,
			"0.024": 0.0,
			"0.025": 0.0
		}
	}
}
