{
	 "smiles": "OC(=O)CCN1C(=O)CCC1=O", 
	 "Tm": 405.15, 
	 "num_atms": 21, 
	 "gaussian": { 
		 "optdone": 1, 
		 "sigma_profile": "yes", 
		 "theory": "DFT", 
		 "functional": "B3LYP", 
		 "basiset": "6-31G**", 
		 "properties": { 
			 "R2extent": 2222.5029, 
			 "electric_dipole_moment_norm": 2.98920297571, 
			 "electric_quadrupole_moment_norm": 15.7031086537, 
			 "total_energy": -627.867574625, 
			 "HOMO_LUMO_gap": 0.24058, 
			 "cosmo_polarized_energy": -17.43, 
			 "cosmo_cavitation_energy": 25.3, 
			 "cosmo_dispersion_energy": -17.79, 
			 "cosmo_repulsion_energy": 1.45, 
			 "cosmo_total_nonelectrostatic_energy": 8.96, 
			 "SMD_solvation_energy": 6.59 
		},
		"coords": [
			{
				"x": 0.0641844375,
				"y": 0.7005268266,
				"z": 2.1105229207,
				"element": "O" 
			},
			{
				"x": -1.2653180377,
				"y": 0.452313973,
				"z": 2.24038532,
				"element": "C" 
			},
			{
				"x": -1.9284284452,
				"y": 0.9160585836,
				"z": 3.1394302784,
				"element": "O" 
			},
			{
				"x": -1.7838848798,
				"y": -0.4424847444,
				"z": 1.1353726072,
				"element": "C" 
			},
			{
				"x": -1.9834612828,
				"y": 0.2984258187,
				"z": -0.2040020556,
				"element": "C" 
			},
			{
				"x": -0.7349713392,
				"y": 0.7320256584,
				"z": -0.8141207141,
				"element": "N" 
			},
			{
				"x": 0.1289081407,
				"y": -0.1461861217,
				"z": -1.4656796467,
				"element": "C" 
			},
			{
				"x": -0.0837586616,
				"y": -1.3329930454,
				"z": -1.6093942265,
				"element": "O" 
			},
			{
				"x": 1.337564175,
				"y": 0.653443146,
				"z": -1.9424612661,
				"element": "C" 
			},
			{
				"x": 1.0860231819,
				"y": 2.0902867867,
				"z": -1.4565685192,
				"element": "C" 
			},
			{
				"x": -0.2642521787,
				"y": 2.0454478121,
				"z": -0.7474175757,
				"element": "C" 
			},
			{
				"x": -0.8552829314,
				"y": 2.9615734606,
				"z": -0.2167495985,
				"element": "O" 
			},
			{
				"x": 0.2902371196,
				"y": 1.3159115883,
				"z": 2.8287883858,
				"element": "H" 
			},
			{
				"x": -1.0991101046,
				"y": -1.2802381569,
				"z": 0.9767714083,
				"element": "H" 
			},
			{
				"x": -2.7503802068,
				"y": -0.8318982912,
				"z": 1.462480324,
				"element": "H" 
			},
			{
				"x": -2.478372399,
				"y": -0.3788843738,
				"z": -0.904296667,
				"element": "H" 
			},
			{
				"x": -2.5974704314,
				"y": 1.1911220841,
				"z": -0.0666648773,
				"element": "H" 
			},
			{
				"x": 2.2421230538,
				"y": 0.2025880468,
				"z": -1.5252979344,
				"element": "H" 
			},
			{
				"x": 1.4092214172,
				"y": 0.5671673246,
				"z": -3.0304910499,
				"element": "H" 
			},
			{
				"x": 1.8375778248,
				"y": 2.4453480137,
				"z": -0.7459819027,
				"element": "H" 
			},
			{
				"x": 1.0364515476,
				"y": 2.8251456103,
				"z": -2.2648252107,
				"element": "H" 
			}
		],
		 "valence_orbital": [ 
			{
				"type": "occ",
				"energy": -0.32237,
				"method": "rhf"
			},
			{
				"type": "occ",
				"energy": -0.29033,
				"method": "rhf"
			},
			{
				"type": "occ",
				"energy": -0.28259,
				"method": "rhf"
			},
			{
				"type": "occ",
				"energy": -0.27567,
				"method": "rhf"
			},
			{
				"type": "occ",
				"energy": -0.26335,
				"method": "rhf"
			},
			{
				"type": "unocc",
				"energy": -0.02277,
				"method": "rhf"
			},
			{
				"type": "unocc",
				"energy": 0.00168,
				"method": "rhf"
			},
			{
				"type": "unocc",
				"energy": 0.01901,
				"method": "rhf"
			},
			{
				"type": "unocc",
				"energy": 0.0722,
				"method": "rhf"
			},
			{
				"type": "unocc",
				"energy": 0.08404,
				"method": "rhf"
			}
		],
		"cosmo_sigma_profile": { 
			"-0.025": 0.0,
			"-0.024": 0.0,
			"-0.023": 0.0,
			"-0.022": 0.0,
			"-0.021": 0.0,
			"-0.02": 0.0,
			"-0.019": 0.0,
			"-0.018": 0.683756019179,
			"-0.017": 1.23502172411,
			"-0.016": 0.642659183934,
			"-0.015": 0.753583767807,
			"-0.014": 0.455182778052,
			"-0.013": 0.881181826736,
			"-0.012": 0.639351586503,
			"-0.011": 0.360078310942,
			"-0.01": 0.848207616125,
			"-0.009": 0.822690685245,
			"-0.008": 0.860379107495,
			"-0.007": 14.2199936087,
			"-0.006": 21.8334043897,
			"-0.005": 18.4578464241,
			"-0.004": 16.1159363299,
			"-0.003": 18.0902838057,
			"-0.002": 11.0365372564,
			"-0.001": 6.31228902547,
			"0.0": 6.20674477327,
			"0.001": 6.9835193614,
			"0.002": 6.23270280634,
			"0.003": 5.65595807272,
			"0.004": 5.49914427646,
			"0.005": 5.29197508004,
			"0.006": 4.24304943167,
			"0.007": 3.78845540864,
			"0.008": 4.97812544326,
			"0.009": 4.79472823862,
			"0.01": 6.05937854841,
			"0.011": 10.2867156209,
			"0.012": 12.2233025761,
			"0.013": 2.84739718363,
			"0.014": 0.0238957053301,
			"0.015": 0.0,
			"0.016": 0.0,
			"0.017": 0.0,
			"0.018": 0.0,
			"0.019": 0.0,
			"0.02": 0.0,
			"0.021": 0.0,
			"0.022": 0.0,
			"0.023": 0.0,
			"0.024": 0.0,
			"0.025": 0.0
		}
	}
}
