{
	 "smiles": "CCOC(=O)CC1SC2=CC=CC=C2NC1=O", 
	 "Tm": 400.15, 
	 "num_atms": 30, 
	 "gaussian": { 
		 "optdone": 1, 
		 "sigma_profile": "yes", 
		 "theory": "DFT", 
		 "functional": "B3LYP", 
		 "basiset": "6-31G**", 
		 "properties": { 
			 "R2extent": 4157.631, 
			 "electric_dipole_moment_norm": 3.07269427864, 
			 "electric_quadrupole_moment_norm": 10.8865207537, 
			 "total_energy": -1143.75408498, 
			 "HOMO_LUMO_gap": 0.18929, 
			 "cosmo_polarized_energy": -16.25, 
			 "cosmo_cavitation_energy": 34.94, 
			 "cosmo_dispersion_energy": -23.66, 
			 "cosmo_repulsion_energy": 1.8, 
			 "cosmo_total_nonelectrostatic_energy": 13.07, 
			 "SMD_solvation_energy": 6.43 
		},
		"coords": [
			{
				"x": 0.8493478165,
				"y": -1.0738005596,
				"z": 2.6943706362,
				"element": "C" 
			},
			{
				"x": 0.3359807708,
				"y": 0.1369844951,
				"z": 1.9395455458,
				"element": "C" 
			},
			{
				"x": 1.2316354381,
				"y": 0.3698484377,
				"z": 0.8247744651,
				"element": "O" 
			},
			{
				"x": 0.9847531189,
				"y": 1.4782526005,
				"z": 0.0932437503,
				"element": "C" 
			},
			{
				"x": 0.0993966631,
				"y": 2.2670541712,
				"z": 0.339187109,
				"element": "O" 
			},
			{
				"x": 1.9706681059,
				"y": 1.613157147,
				"z": -1.0532264087,
				"element": "C" 
			},
			{
				"x": 1.8252763727,
				"y": 0.5817499569,
				"z": -2.1999358246,
				"element": "C" 
			},
			{
				"x": 0.1978998994,
				"y": 0.5908416428,
				"z": -3.057359792,
				"element": "S" 
			},
			{
				"x": -0.7027767956,
				"y": -0.5557345499,
				"z": -2.0450707991,
				"element": "C" 
			},
			{
				"x": -2.0906170066,
				"y": -0.4384989689,
				"z": -1.9147801076,
				"element": "C" 
			},
			{
				"x": -2.8240744109,
				"y": -1.4015975547,
				"z": -1.2228740988,
				"element": "C" 
			},
			{
				"x": -2.1652502674,
				"y": -2.4830635902,
				"z": -0.6342229618,
				"element": "C" 
			},
			{
				"x": -0.7800308124,
				"y": -2.595196313,
				"z": -0.7341566875,
				"element": "C" 
			},
			{
				"x": -0.0399536749,
				"y": -1.6400925995,
				"z": -1.4428006988,
				"element": "C" 
			},
			{
				"x": 1.3511250566,
				"y": -1.7858001638,
				"z": -1.5568184544,
				"element": "N" 
			},
			{
				"x": 2.2986128037,
				"y": -0.819522661,
				"z": -1.8008425593,
				"element": "C" 
			},
			{
				"x": 3.4912352994,
				"y": -1.0635768423,
				"z": -1.706631756,
				"element": "O" 
			},
			{
				"x": 0.8526508512,
				"y": -1.9607368323,
				"z": 2.0546173063,
				"element": "H" 
			},
			{
				"x": 0.2032088479,
				"y": -1.2744555191,
				"z": 3.5547076735,
				"element": "H" 
			},
			{
				"x": 1.8668464559,
				"y": -0.906388992,
				"z": 3.0588621968,
				"element": "H" 
			},
			{
				"x": 0.315408053,
				"y": 1.0347653348,
				"z": 2.5642364034,
				"element": "H" 
			},
			{
				"x": -0.6734932121,
				"y": -0.0202166375,
				"z": 1.5474392362,
				"element": "H" 
			},
			{
				"x": 2.9895395806,
				"y": 1.5158356743,
				"z": -0.6614730397,
				"element": "H" 
			},
			{
				"x": 1.8425443131,
				"y": 2.615349419,
				"z": -1.465214338,
				"element": "H" 
			},
			{
				"x": 2.529481838,
				"y": 0.8872904139,
				"z": -2.9777144269,
				"element": "H" 
			},
			{
				"x": -2.5912473439,
				"y": 0.4130735811,
				"z": -2.3649863034,
				"element": "H" 
			},
			{
				"x": -3.9014282598,
				"y": -1.3017846258,
				"z": -1.1379870349,
				"element": "H" 
			},
			{
				"x": -2.7254626638,
				"y": -3.2366682307,
				"z": -0.0894497029,
				"element": "H" 
			},
			{
				"x": -0.2615663781,
				"y": -3.4304679822,
				"z": -0.269658932,
				"element": "H" 
			},
			{
				"x": 1.7569895407,
				"y": -2.6539002518,
				"z": -1.2293803961,
				"element": "H" 
			}
		],
		 "valence_orbital": [ 
			{
				"type": "occ",
				"energy": -0.29541,
				"method": "rhf"
			},
			{
				"type": "occ",
				"energy": -0.27116,
				"method": "rhf"
			},
			{
				"type": "occ",
				"energy": -0.26512,
				"method": "rhf"
			},
			{
				"type": "occ",
				"energy": -0.23977,
				"method": "rhf"
			},
			{
				"type": "occ",
				"energy": -0.21828,
				"method": "rhf"
			},
			{
				"type": "unocc",
				"energy": -0.02899,
				"method": "rhf"
			},
			{
				"type": "unocc",
				"energy": -0.02034,
				"method": "rhf"
			},
			{
				"type": "unocc",
				"energy": 0.00384,
				"method": "rhf"
			},
			{
				"type": "unocc",
				"energy": 0.02445,
				"method": "rhf"
			},
			{
				"type": "unocc",
				"energy": 0.03225,
				"method": "rhf"
			}
		],
		"cosmo_sigma_profile": { 
			"-0.025": 0.0,
			"-0.024": 0.0,
			"-0.023": 0.0,
			"-0.022": 0.0,
			"-0.021": 0.0,
			"-0.02": 0.0,
			"-0.019": 0.0,
			"-0.018": 0.0,
			"-0.017": 0.0,
			"-0.016": 0.0842909053615,
			"-0.015": 1.09682995373,
			"-0.014": 0.870578193273,
			"-0.013": 1.46861525832,
			"-0.012": 1.04641288781,
			"-0.011": 0.774162979268,
			"-0.01": 1.15305615198,
			"-0.009": 3.21290961174,
			"-0.008": 4.20090783026,
			"-0.007": 8.26526432422,
			"-0.006": 13.9484855114,
			"-0.005": 18.7499695405,
			"-0.004": 25.3458636313,
			"-0.003": 21.515636669,
			"-0.002": 19.2403777106,
			"-0.001": 18.1619197587,
			"0.0": 22.3851468038,
			"0.001": 18.4496081751,
			"0.002": 16.3092906053,
			"0.003": 16.9142534401,
			"0.004": 14.9445763828,
			"0.005": 9.34727377072,
			"0.006": 7.29643664075,
			"0.007": 5.13339244143,
			"0.008": 2.96853567042,
			"0.009": 3.37645492472,
			"0.01": 3.53654641896,
			"0.011": 5.49189802766,
			"0.012": 8.79586591519,
			"0.013": 4.07430710051,
			"0.014": 0.216243034125,
			"0.015": 0.0,
			"0.016": 0.0,
			"0.017": 0.0,
			"0.018": 0.0,
			"0.019": 0.0,
			"0.02": 0.0,
			"0.021": 0.0,
			"0.022": 0.0,
			"0.023": 0.0,
			"0.024": 0.0,
			"0.025": 0.0
		}
	}
}
