{
	 "smiles": "CCCCCCOCCOCCO", 
	 "Tm": 233.15, 
	 "num_atms": 35, 
	 "gaussian": { 
		 "optdone": 1, 
		 "sigma_profile": "yes", 
		 "theory": "DFT", 
		 "functional": "B3LYP", 
		 "basiset": "6-31G**", 
		 "properties": { 
			 "R2extent": 4604.2269, 
			 "electric_dipole_moment_norm": 2.22288207964, 
			 "electric_quadrupole_moment_norm": 5.45531472786, 
			 "total_energy": -619.9790747, 
			 "HOMO_LUMO_gap": 0.3064, 
			 "cosmo_polarized_energy": -8.51, 
			 "cosmo_cavitation_energy": 35.5, 
			 "cosmo_dispersion_energy": -24.69, 
			 "cosmo_repulsion_energy": 2.03, 
			 "cosmo_total_nonelectrostatic_energy": 12.84, 
			 "SMD_solvation_energy": 5.36 
		},
		"coords": [
			{
				"x": -4.7436064749,
				"y": -0.7564523951,
				"z": -0.4398862549,
				"element": "C" 
			},
			{
				"x": -4.1155409025,
				"y": 0.3788421263,
				"z": 0.3770379563,
				"element": "C" 
			},
			{
				"x": -3.6052146251,
				"y": 1.5605749049,
				"z": -0.466329937,
				"element": "C" 
			},
			{
				"x": -2.474792568,
				"y": 1.2385631222,
				"z": -1.4595688143,
				"element": "C" 
			},
			{
				"x": -1.175860161,
				"y": 0.7572910049,
				"z": -0.7985038905,
				"element": "C" 
			},
			{
				"x": -0.053033778,
				"y": 0.5528017571,
				"z": -1.8070701765,
				"element": "C" 
			},
			{
				"x": 1.0951046704,
				"y": 0.0636074731,
				"z": -1.124359542,
				"element": "O" 
			},
			{
				"x": 2.2301989543,
				"y": -0.134212937,
				"z": -1.9552159848,
				"element": "C" 
			},
			{
				"x": 3.322174549,
				"y": -0.8292898497,
				"z": -1.1585145005,
				"element": "C" 
			},
			{
				"x": 2.9779359117,
				"y": -2.1886946375,
				"z": -0.9392771073,
				"element": "O" 
			},
			{
				"x": 3.0247937891,
				"y": -2.6571345851,
				"z": 0.4052789863,
				"element": "C" 
			},
			{
				"x": 1.72467359,
				"y": -2.4074600212,
				"z": 1.1667744707,
				"element": "C" 
			},
			{
				"x": 1.4874006784,
				"y": -1.0412126186,
				"z": 1.4432706837,
				"element": "O" 
			},
			{
				"x": -5.1470709354,
				"y": -1.5354434631,
				"z": 0.2151810873,
				"element": "H" 
			},
			{
				"x": -4.0164211712,
				"y": -1.2349656993,
				"z": -1.1045053412,
				"element": "H" 
			},
			{
				"x": -5.56678889,
				"y": -0.3870159627,
				"z": -1.0628395672,
				"element": "H" 
			},
			{
				"x": -4.8607556144,
				"y": 0.7626750212,
				"z": 1.0852624071,
				"element": "H" 
			},
			{
				"x": -3.2997856589,
				"y": -0.0206499833,
				"z": 0.9926950132,
				"element": "H" 
			},
			{
				"x": -3.2621984341,
				"y": 2.355088248,
				"z": 0.2100973089,
				"element": "H" 
			},
			{
				"x": -4.4499817352,
				"y": 1.9828936819,
				"z": -1.0273892849,
				"element": "H" 
			},
			{
				"x": -2.26362061,
				"y": 2.1435808269,
				"z": -2.0454059716,
				"element": "H" 
			},
			{
				"x": -2.816713628,
				"y": 0.4868800388,
				"z": -2.1832992841,
				"element": "H" 
			},
			{
				"x": -0.8451762232,
				"y": 1.4851245876,
				"z": -0.0466301862,
				"element": "H" 
			},
			{
				"x": -1.3374492922,
				"y": -0.1883232845,
				"z": -0.2681012045,
				"element": "H" 
			},
			{
				"x": 0.1903121315,
				"y": 1.501850562,
				"z": -2.3128089384,
				"element": "H" 
			},
			{
				"x": -0.3555345704,
				"y": -0.1651958479,
				"z": -2.5870353138,
				"element": "H" 
			},
			{
				"x": 1.9637145519,
				"y": -0.7550511168,
				"z": -2.8239126848,
				"element": "H" 
			},
			{
				"x": 2.6011346848,
				"y": 0.8346060226,
				"z": -2.3286221165,
				"element": "H" 
			},
			{
				"x": 4.257192723,
				"y": -0.777764009,
				"z": -1.7379968037,
				"element": "H" 
			},
			{
				"x": 3.4777246756,
				"y": -0.2959731615,
				"z": -0.2133541785,
				"element": "H" 
			},
			{
				"x": 3.208708575,
				"y": -3.7371702141,
				"z": 0.343007785,
				"element": "H" 
			},
			{
				"x": 3.8645635795,
				"y": -2.2007783043,
				"z": 0.949503221,
				"element": "H" 
			},
			{
				"x": 1.7843188395,
				"y": -2.9262831677,
				"z": 2.1325442502,
				"element": "H" 
			},
			{
				"x": 0.8955676343,
				"y": -2.8606219298,
				"z": 0.6000334332,
				"element": "H" 
			},
			{
				"x": 1.2354257347,
				"y": -0.6132861895,
				"z": 0.6064404805,
				"element": "H" 
			}
		],
		 "valence_orbital": [ 
			{
				"type": "occ",
				"energy": -0.31463,
				"method": "rhf"
			},
			{
				"type": "occ",
				"energy": -0.29656,
				"method": "rhf"
			},
			{
				"type": "occ",
				"energy": -0.27096,
				"method": "rhf"
			},
			{
				"type": "occ",
				"energy": -0.26674,
				"method": "rhf"
			},
			{
				"type": "occ",
				"energy": -0.23007,
				"method": "rhf"
			},
			{
				"type": "unocc",
				"energy": 0.07633,
				"method": "rhf"
			},
			{
				"type": "unocc",
				"energy": 0.08674,
				"method": "rhf"
			},
			{
				"type": "unocc",
				"energy": 0.10631,
				"method": "rhf"
			},
			{
				"type": "unocc",
				"energy": 0.107,
				"method": "rhf"
			},
			{
				"type": "unocc",
				"energy": 0.11581,
				"method": "rhf"
			}
		],
		"cosmo_sigma_profile": { 
			"-0.025": 0.0,
			"-0.024": 0.0,
			"-0.023": 0.0,
			"-0.022": 0.0,
			"-0.021": 0.0,
			"-0.02": 0.0,
			"-0.019": 0.0,
			"-0.018": 0.0,
			"-0.017": 0.0,
			"-0.016": 0.0,
			"-0.015": 0.0,
			"-0.014": 0.0,
			"-0.013": 0.0,
			"-0.012": 0.0,
			"-0.011": 0.0,
			"-0.01": 0.0,
			"-0.009": 0.0,
			"-0.008": 0.0,
			"-0.007": 0.0,
			"-0.006": 0.0,
			"-0.005": 4.6259465416,
			"-0.004": 26.3941087421,
			"-0.003": 36.8841038801,
			"-0.002": 47.4765649776,
			"-0.001": 40.0818571225,
			"0.0": 36.882748735,
			"0.001": 28.8847144624,
			"0.002": 12.6341266445,
			"0.003": 5.52357297173,
			"0.004": 4.50668306251,
			"0.005": 3.11342380385,
			"0.006": 2.66337071288,
			"0.007": 3.67611398829,
			"0.008": 2.75774643574,
			"0.009": 1.81425925025,
			"0.01": 3.20704858015,
			"0.011": 2.32407544222,
			"0.012": 2.2307229246,
			"0.013": 2.71950678463,
			"0.014": 1.65603051838,
			"0.015": 2.43453935387,
			"0.016": 0.502892675111,
			"0.017": 0.0,
			"0.018": 0.0,
			"0.019": 0.0,
			"0.02": 0.0,
			"0.021": 0.0,
			"0.022": 0.0,
			"0.023": 0.0,
			"0.024": 0.0,
			"0.025": 0.0
		}
	}
}
