{
	 "smiles": "OC1=C(F)C=C(Cl)C=C1", 
	 "Tm": 293.15, 
	 "num_atms": 13, 
	 "gaussian": { 
		 "optdone": 1, 
		 "sigma_profile": "yes", 
		 "theory": "DFT", 
		 "functional": "B3LYP", 
		 "basiset": "6-31G**", 
		 "properties": { 
			 "R2extent": 2126.2525, 
			 "electric_dipole_moment_norm": 2.8600473615, 
			 "electric_quadrupole_moment_norm": 12.506726433, 
			 "total_energy": -866.287421944, 
			 "HOMO_LUMO_gap": 0.21073, 
			 "cosmo_polarized_energy": -9.16, 
			 "cosmo_cavitation_energy": 19.8, 
			 "cosmo_dispersion_energy": -14.89, 
			 "cosmo_repulsion_energy": 1.2, 
			 "cosmo_total_nonelectrostatic_energy": 6.11, 
			 "SMD_solvation_energy": 4.08 
		},
		"coords": [
			{
				"x": -1.8076896984,
				"y": 1.046200431,
				"z": -0.4789863298,
				"element": "O" 
			},
			{
				"x": -1.2767156945,
				"y": -0.1117827899,
				"z": -0.0000454646,
				"element": "C" 
			},
			{
				"x": -0.0429508501,
				"y": -0.5232322734,
				"z": -0.5250665335,
				"element": "C" 
			},
			{
				"x": 0.5425830018,
				"y": 0.2406687313,
				"z": -1.463496526,
				"element": "F" 
			},
			{
				"x": 0.5812595532,
				"y": -1.6866010025,
				"z": -0.1042652426,
				"element": "C" 
			},
			{
				"x": -0.0413170171,
				"y": -2.4680889857,
				"z": 0.8714744575,
				"element": "C" 
			},
			{
				"x": 0.7385006507,
				"y": -3.9456484094,
				"z": 1.4144809382,
				"element": "Cl" 
			},
			{
				"x": -1.2658851403,
				"y": -2.0903349097,
				"z": 1.4146007112,
				"element": "C" 
			},
			{
				"x": -1.8753716517,
				"y": -0.9131888637,
				"z": 0.9740983209,
				"element": "C" 
			},
			{
				"x": -2.6507393451,
				"y": 1.2126715577,
				"z": -0.0379371479,
				"element": "H" 
			},
			{
				"x": 1.5341208885,
				"y": -1.9655379049,
				"z": -0.537650066,
				"element": "H" 
			},
			{
				"x": -1.7409895325,
				"y": -2.7035774747,
				"z": 2.171315511,
				"element": "H" 
			},
			{
				"x": -2.8323051646,
				"y": -0.6137481061,
				"z": 1.3954773715,
				"element": "H" 
			}
		],
		 "valence_orbital": [ 
			{
				"type": "occ",
				"energy": -0.3672,
				"method": "rhf"
			},
			{
				"type": "occ",
				"energy": -0.31591,
				"method": "rhf"
			},
			{
				"type": "occ",
				"energy": -0.31588,
				"method": "rhf"
			},
			{
				"type": "occ",
				"energy": -0.26453,
				"method": "rhf"
			},
			{
				"type": "occ",
				"energy": -0.2286,
				"method": "rhf"
			},
			{
				"type": "unocc",
				"energy": -0.01787,
				"method": "rhf"
			},
			{
				"type": "unocc",
				"energy": -0.00539,
				"method": "rhf"
			},
			{
				"type": "unocc",
				"energy": 0.02284,
				"method": "rhf"
			},
			{
				"type": "unocc",
				"energy": 0.05429,
				"method": "rhf"
			},
			{
				"type": "unocc",
				"energy": 0.10204,
				"method": "rhf"
			}
		],
		"cosmo_sigma_profile": { 
			"-0.025": 0.0,
			"-0.024": 0.0,
			"-0.023": 0.0,
			"-0.022": 0.0,
			"-0.021": 0.0,
			"-0.02": 0.0,
			"-0.019": 0.254200123737,
			"-0.018": 1.23193293197,
			"-0.017": 1.35229448258,
			"-0.016": 0.845100160966,
			"-0.015": 1.31905763733,
			"-0.014": 1.06481118575,
			"-0.013": 0.778761144302,
			"-0.012": 0.756713915671,
			"-0.011": 0.850152762928,
			"-0.01": 1.44362765014,
			"-0.009": 1.44453329283,
			"-0.008": 3.75836716579,
			"-0.007": 5.3928672956,
			"-0.006": 5.33697054621,
			"-0.005": 5.47535323437,
			"-0.004": 4.12305300284,
			"-0.003": 5.12419428863,
			"-0.002": 4.89035557682,
			"-0.001": 7.57980774574,
			"0.0": 13.5067525111,
			"0.001": 16.3775769113,
			"0.002": 19.2237527328,
			"0.003": 18.8314008415,
			"0.004": 19.7850321325,
			"0.005": 9.91920516524,
			"0.006": 1.99832371864,
			"0.007": 1.39218732353,
			"0.008": 2.43831551949,
			"0.009": 2.04160107255,
			"0.01": 1.96902364504,
			"0.011": 0.790734390051,
			"0.012": 0.0,
			"0.013": 0.0,
			"0.014": 0.0,
			"0.015": 0.0,
			"0.016": 0.0,
			"0.017": 0.0,
			"0.018": 0.0,
			"0.019": 0.0,
			"0.02": 0.0,
			"0.021": 0.0,
			"0.022": 0.0,
			"0.023": 0.0,
			"0.024": 0.0,
			"0.025": 0.0
		}
	}
}
