{
	 "smiles": "BrCC1=CC=C(C=C1)N1C=CC=N1", 
	 "Tm": 355.15, 
	 "num_atms": 22, 
	 "gaussian": { 
		 "optdone": 1, 
		 "sigma_profile": "yes", 
		 "theory": "DFT", 
		 "functional": "B3LYP", 
		 "basiset": "6-31G**", 
		 "properties": { 
			 "R2extent": 5266.4716, 
			 "electric_dipole_moment_norm": 2.40056686847, 
			 "electric_quadrupole_moment_norm": 11.4382643203, 
			 "total_energy": -3067.37713349, 
			 "HOMO_LUMO_gap": 0.18033, 
			 "cosmo_polarized_energy": -10.41, 
			 "cosmo_cavitation_energy": 28.66, 
			 "cosmo_dispersion_energy": -21.32, 
			 "cosmo_repulsion_energy": 1.67, 
			 "cosmo_total_nonelectrostatic_energy": 9.01, 
			 "SMD_solvation_energy": 3.46 
		},
		"coords": [
			{
				"x": 0.2615242506,
				"y": 0.0359107451,
				"z": -4.3339416686,
				"element": "Br" 
			},
			{
				"x": 1.5750316669,
				"y": 0.9320115239,
				"z": -3.1001836192,
				"element": "C" 
			},
			{
				"x": 1.287340271,
				"y": 0.6535932915,
				"z": -1.6637983806,
				"element": "C" 
			},
			{
				"x": 1.8439437114,
				"y": -0.4611885725,
				"z": -1.0233583922,
				"element": "C" 
			},
			{
				"x": 1.5948580445,
				"y": -0.7166411476,
				"z": 0.3214592296,
				"element": "C" 
			},
			{
				"x": 0.7608665366,
				"y": 0.1413137323,
				"z": 1.0490083864,
				"element": "C" 
			},
			{
				"x": 0.1986180603,
				"y": 1.2623610366,
				"z": 0.4260667262,
				"element": "C" 
			},
			{
				"x": 0.465615145,
				"y": 1.5088593483,
				"z": -0.915550542,
				"element": "C" 
			},
			{
				"x": 0.4817613673,
				"y": -0.1093599167,
				"z": 2.4149523049,
				"element": "N" 
			},
			{
				"x": 0.6189886048,
				"y": -1.2830017409,
				"z": 3.1072395878,
				"element": "C" 
			},
			{
				"x": 0.2113782427,
				"y": -1.0370352189,
				"z": 4.3990480042,
				"element": "C" 
			},
			{
				"x": -0.1640315847,
				"y": 0.3274685782,
				"z": 4.3972638653,
				"element": "C" 
			},
			{
				"x": -0.0038081091,
				"y": 0.8862845722,
				"z": 3.2035803154,
				"element": "N" 
			},
			{
				"x": 1.4925394239,
				"y": 1.9878574962,
				"z": -3.3506175174,
				"element": "H" 
			},
			{
				"x": 2.5405601091,
				"y": 0.5458554198,
				"z": -3.4214451105,
				"element": "H" 
			},
			{
				"x": 2.4887894982,
				"y": -1.134793694,
				"z": -1.58109646,
				"element": "H" 
			},
			{
				"x": 2.0672013886,
				"y": -1.5662512589,
				"z": 0.8018432991,
				"element": "H" 
			},
			{
				"x": -0.4338031522,
				"y": 1.9219760298,
				"z": 1.0065717796,
				"element": "H" 
			},
			{
				"x": 0.020925962,
				"y": 2.3775853038,
				"z": -1.3935173022,
				"element": "H" 
			},
			{
				"x": 0.960890003,
				"y": -2.188995912,
				"z": 2.6323232921,
				"element": "H" 
			},
			{
				"x": 0.1805598435,
				"y": -1.739118262,
				"z": 5.2185437415,
				"element": "H" 
			},
			{
				"x": -0.5414492835,
				"y": 0.923408646,
				"z": 5.2176084605,
				"element": "H" 
			}
		],
		 "valence_orbital": [ 
			{
				"type": "occ",
				"energy": -0.27193,
				"method": "rhf"
			},
			{
				"type": "occ",
				"energy": -0.27026,
				"method": "rhf"
			},
			{
				"type": "occ",
				"energy": -0.26474,
				"method": "rhf"
			},
			{
				"type": "occ",
				"energy": -0.25476,
				"method": "rhf"
			},
			{
				"type": "occ",
				"energy": -0.22823,
				"method": "rhf"
			},
			{
				"type": "unocc",
				"energy": -0.0479,
				"method": "rhf"
			},
			{
				"type": "unocc",
				"energy": -0.01679,
				"method": "rhf"
			},
			{
				"type": "unocc",
				"energy": 0.00279,
				"method": "rhf"
			},
			{
				"type": "unocc",
				"energy": 0.04494,
				"method": "rhf"
			},
			{
				"type": "unocc",
				"energy": 0.06501,
				"method": "rhf"
			}
		],
		"cosmo_sigma_profile": { 
			"-0.025": 0.0,
			"-0.024": 0.0,
			"-0.023": 0.0,
			"-0.022": 0.0,
			"-0.021": 0.0,
			"-0.02": 0.0,
			"-0.019": 0.0,
			"-0.018": 0.0,
			"-0.017": 0.0,
			"-0.016": 0.0,
			"-0.015": 0.0,
			"-0.014": 0.0,
			"-0.013": 0.0,
			"-0.012": 0.0,
			"-0.011": 0.0835772019786,
			"-0.01": 1.55715427057,
			"-0.009": 2.22936456064,
			"-0.008": 5.88554527716,
			"-0.007": 14.6326431045,
			"-0.006": 14.7373212077,
			"-0.005": 15.4233333513,
			"-0.004": 13.8910021205,
			"-0.003": 11.8279980472,
			"-0.002": 12.1226444364,
			"-0.001": 11.6064878159,
			"0.0": 12.6544084393,
			"0.001": 15.4898944454,
			"0.002": 17.6601086648,
			"0.003": 20.496813474,
			"0.004": 21.6018255883,
			"0.005": 12.7445543634,
			"0.006": 13.7024691031,
			"0.007": 7.61951070412,
			"0.008": 1.82079095503,
			"0.009": 1.32255061892,
			"0.01": 1.07129536522,
			"0.011": 1.19876844065,
			"0.012": 1.10308866785,
			"0.013": 0.943657328653,
			"0.014": 0.13123354251,
			"0.015": 0.0,
			"0.016": 0.0,
			"0.017": 0.0,
			"0.018": 0.0,
			"0.019": 0.0,
			"0.02": 0.0,
			"0.021": 0.0,
			"0.022": 0.0,
			"0.023": 0.0,
			"0.024": 0.0,
			"0.025": 0.0
		}
	}
}
