{
	 "smiles": "CC1CN(CC(C)O1)C1=C(C=C(N)C=C1)C(F)(F)F", 
	 "Tm": 396.15, 
	 "num_atms": 36, 
	 "gaussian": { 
		 "optdone": 1, 
		 "sigma_profile": "yes", 
		 "theory": "DFT", 
		 "functional": "B3LYP", 
		 "basiset": "6-31G**", 
		 "properties": { 
			 "R2extent": 6177.3478, 
			 "electric_dipole_moment_norm": 4.0538682872, 
			 "electric_quadrupole_moment_norm": 12.2333214558, 
			 "total_energy": -989.876867485, 
			 "HOMO_LUMO_gap": 0.16874, 
			 "cosmo_polarized_energy": -11.96, 
			 "cosmo_cavitation_energy": 38.14, 
			 "cosmo_dispersion_energy": -26.48, 
			 "cosmo_repulsion_energy": 2.01, 
			 "cosmo_total_nonelectrostatic_energy": 13.67, 
			 "SMD_solvation_energy": 7.05 
		},
		"coords": [
			{
				"x": 2.1325747876,
				"y": -2.6304113813,
				"z": -2.8053223189,
				"element": "C" 
			},
			{
				"x": 1.1109315477,
				"y": -2.1363287098,
				"z": -1.7915464957,
				"element": "C" 
			},
			{
				"x": 0.2441964244,
				"y": -0.9908552177,
				"z": -2.3294193498,
				"element": "C" 
			},
			{
				"x": -0.8226640261,
				"y": -0.6181618457,
				"z": -1.3934389785,
				"element": "N" 
			},
			{
				"x": -1.5729912529,
				"y": -1.7765115306,
				"z": -0.9120159593,
				"element": "C" 
			},
			{
				"x": -0.6854918946,
				"y": -2.9450362589,
				"z": -0.448459697,
				"element": "C" 
			},
			{
				"x": -1.4822178826,
				"y": -4.215279349,
				"z": -0.1877715368,
				"element": "C" 
			},
			{
				"x": 0.280290637,
				"y": -3.2515970935,
				"z": -1.454252487,
				"element": "O" 
			},
			{
				"x": -0.6333173147,
				"y": 0.501153851,
				"z": -0.5398882284,
				"element": "C" 
			},
			{
				"x": -0.8824622886,
				"y": 1.808911622,
				"z": -1.0181662159,
				"element": "C" 
			},
			{
				"x": -0.6898367797,
				"y": 2.922906869,
				"z": -0.2018737031,
				"element": "C" 
			},
			{
				"x": -0.2769341911,
				"y": 2.7865406718,
				"z": 1.1321943847,
				"element": "C" 
			},
			{
				"x": -0.1504462869,
				"y": 3.9050204486,
				"z": 1.9573590513,
				"element": "N" 
			},
			{
				"x": -0.0679028287,
				"y": 1.490781576,
				"z": 1.6262516888,
				"element": "C" 
			},
			{
				"x": -0.2326368793,
				"y": 0.3829817142,
				"z": 0.8005184148,
				"element": "C" 
			},
			{
				"x": -1.430437535,
				"y": 2.0311781034,
				"z": -2.4086819291,
				"element": "C" 
			},
			{
				"x": -2.5920327306,
				"y": 1.3781819833,
				"z": -2.6093231697,
				"element": "F" 
			},
			{
				"x": -1.6762479228,
				"y": 3.3436306197,
				"z": -2.6466166059,
				"element": "F" 
			},
			{
				"x": -0.5747413607,
				"y": 1.629477573,
				"z": -3.3828398305,
				"element": "F" 
			},
			{
				"x": 2.694386032,
				"y": -3.4746581902,
				"z": -2.3964766238,
				"element": "H" 
			},
			{
				"x": 1.6322413432,
				"y": -2.9646250043,
				"z": -3.7198554777,
				"element": "H" 
			},
			{
				"x": 2.8377351908,
				"y": -1.8343860358,
				"z": -3.0649570896,
				"element": "H" 
			},
			{
				"x": 1.6284322783,
				"y": -1.7888924084,
				"z": -0.879112438,
				"element": "H" 
			},
			{
				"x": -0.2106003152,
				"y": -1.3186760465,
				"z": -3.2758812851,
				"element": "H" 
			},
			{
				"x": 0.8566809437,
				"y": -0.1136531589,
				"z": -2.5427937711,
				"element": "H" 
			},
			{
				"x": -2.1998178179,
				"y": -2.1456176985,
				"z": -1.739001597,
				"element": "H" 
			},
			{
				"x": -2.2431413944,
				"y": -1.4594961902,
				"z": -0.1076521994,
				"element": "H" 
			},
			{
				"x": -0.151397536,
				"y": -2.6530316882,
				"z": 0.4735204965,
				"element": "H" 
			},
			{
				"x": -2.2062394471,
				"y": -4.0615773815,
				"z": 0.6189756931,
				"element": "H" 
			},
			{
				"x": -0.811921199,
				"y": -5.0310048583,
				"z": 0.0962155103,
				"element": "H" 
			},
			{
				"x": -2.0240441192,
				"y": -4.5171054287,
				"z": -1.0897719639,
				"element": "H" 
			},
			{
				"x": -0.8942760744,
				"y": 3.9107735472,
				"z": -0.5994385336,
				"element": "H" 
			},
			{
				"x": 0.4594373642,
				"y": 3.7854518221,
				"z": 2.7542556543,
				"element": "H" 
			},
			{
				"x": 0.0231601484,
				"y": 4.7772642399,
				"z": 1.4774997337,
				"element": "H" 
			},
			{
				"x": 0.2390330962,
				"y": 1.3514334676,
				"z": 2.6600991899,
				"element": "H" 
			},
			{
				"x": -0.0366007161,
				"y": -0.604082633,
				"z": 1.2052676677,
				"element": "H" 
			}
		],
		 "valence_orbital": [ 
			{
				"type": "occ",
				"energy": -0.30339,
				"method": "rhf"
			},
			{
				"type": "occ",
				"energy": -0.26295,
				"method": "rhf"
			},
			{
				"type": "occ",
				"energy": -0.26068,
				"method": "rhf"
			},
			{
				"type": "occ",
				"energy": -0.22184,
				"method": "rhf"
			},
			{
				"type": "occ",
				"energy": -0.18731,
				"method": "rhf"
			},
			{
				"type": "unocc",
				"energy": -0.01857,
				"method": "rhf"
			},
			{
				"type": "unocc",
				"energy": 0.00433,
				"method": "rhf"
			},
			{
				"type": "unocc",
				"energy": 0.07298,
				"method": "rhf"
			},
			{
				"type": "unocc",
				"energy": 0.0838,
				"method": "rhf"
			},
			{
				"type": "unocc",
				"energy": 0.10296,
				"method": "rhf"
			}
		],
		"cosmo_sigma_profile": { 
			"-0.025": 0.0,
			"-0.024": 0.0,
			"-0.023": 0.0,
			"-0.022": 0.0,
			"-0.021": 0.0,
			"-0.02": 0.0,
			"-0.019": 0.0,
			"-0.018": 0.0,
			"-0.017": 0.0,
			"-0.016": 0.0,
			"-0.015": 0.0,
			"-0.014": 0.0,
			"-0.013": 0.525607168936,
			"-0.012": 2.97027553655,
			"-0.011": 2.38925274574,
			"-0.01": 3.98737308081,
			"-0.009": 3.06207738194,
			"-0.008": 3.75412292489,
			"-0.007": 2.51656911972,
			"-0.006": 5.79758788576,
			"-0.005": 8.01360465354,
			"-0.004": 19.7513548354,
			"-0.003": 29.9916212973,
			"-0.002": 27.5612902997,
			"-0.001": 29.8995959849,
			"0.0": 27.8288867317,
			"0.001": 23.9439228363,
			"0.002": 17.7000120626,
			"0.003": 31.0689558786,
			"0.004": 22.5258297845,
			"0.005": 13.3426272076,
			"0.006": 4.68983926855,
			"0.007": 3.90132741452,
			"0.008": 2.89616940335,
			"0.009": 2.36115925918,
			"0.01": 1.71629624901,
			"0.011": 1.81100059659,
			"0.012": 2.37946295126,
			"0.013": 1.75013330684,
			"0.014": 0.759963658814,
			"0.015": 0.109258440502,
			"0.016": 0.0,
			"0.017": 0.0,
			"0.018": 0.0,
			"0.019": 0.0,
			"0.02": 0.0,
			"0.021": 0.0,
			"0.022": 0.0,
			"0.023": 0.0,
			"0.024": 0.0,
			"0.025": 0.0
		}
	}
}
