{
	 "smiles": "FC1=C(C=O)C=CC(=C1)C1=CC=NC=C1", 
	 "Tm": 381.15, 
	 "num_atms": 23, 
	 "gaussian": { 
		 "optdone": 1, 
		 "sigma_profile": "yes", 
		 "theory": "DFT", 
		 "functional": "B3LYP", 
		 "basiset": "6-31G**", 
		 "properties": { 
			 "R2extent": 4392.7735, 
			 "electric_dipole_moment_norm": 1.37846448268, 
			 "electric_quadrupole_moment_norm": 22.4830478314, 
			 "total_energy": -691.897517522, 
			 "HOMO_LUMO_gap": 0.17515, 
			 "cosmo_polarized_energy": -10.84, 
			 "cosmo_cavitation_energy": 28.7, 
			 "cosmo_dispersion_energy": -20.7, 
			 "cosmo_repulsion_energy": 1.56, 
			 "cosmo_total_nonelectrostatic_energy": 9.55, 
			 "SMD_solvation_energy": 4.89 
		},
		"coords": [
			{
				"x": 2.2052760007,
				"y": -3.3966453702,
				"z": -0.4745263143,
				"element": "F" 
			},
			{
				"x": 1.4589292752,
				"y": -2.2731261911,
				"z": -0.4929504515,
				"element": "C" 
			},
			{
				"x": 1.1368002073,
				"y": -1.6905269028,
				"z": -1.723055678,
				"element": "C" 
			},
			{
				"x": 1.599847721,
				"y": -2.2656395116,
				"z": -3.0068634809,
				"element": "C" 
			},
			{
				"x": 1.3351881432,
				"y": -1.7787432063,
				"z": -4.0911871475,
				"element": "O" 
			},
			{
				"x": 0.3506024214,
				"y": -0.5271564981,
				"z": -1.7027229514,
				"element": "C" 
			},
			{
				"x": -0.0897462776,
				"y": 0.0176606897,
				"z": -0.5055105774,
				"element": "C" 
			},
			{
				"x": 0.2456813409,
				"y": -0.5843836975,
				"z": 0.7244298188,
				"element": "C" 
			},
			{
				"x": 1.0326759616,
				"y": -1.7462337514,
				"z": 0.717147014,
				"element": "C" 
			},
			{
				"x": -0.2212352173,
				"y": -0.0037355702,
				"z": 2.0071418922,
				"element": "C" 
			},
			{
				"x": -1.4847832639,
				"y": 0.5946919412,
				"z": 2.1238932803,
				"element": "C" 
			},
			{
				"x": -1.8769338042,
				"y": 1.124970029,
				"z": 3.3520235677,
				"element": "C" 
			},
			{
				"x": -1.1150584289,
				"y": 1.1054234868,
				"z": 4.4528807492,
				"element": "N" 
			},
			{
				"x": 0.0909291983,
				"y": 0.534980969,
				"z": 4.3388390161,
				"element": "C" 
			},
			{
				"x": 0.5784642581,
				"y": -0.026101068,
				"z": 3.1596354382,
				"element": "C" 
			},
			{
				"x": 2.2132725211,
				"y": -3.1827518042,
				"z": -2.9246297969,
				"element": "H" 
			},
			{
				"x": 0.1079856767,
				"y": -0.0687259283,
				"z": -2.6561486749,
				"element": "H" 
			},
			{
				"x": -0.6747482103,
				"y": 0.9312713772,
				"z": -0.5112608958,
				"element": "H" 
			},
			{
				"x": 1.2938470384,
				"y": -2.2600130587,
				"z": 1.635351576,
				"element": "H" 
			},
			{
				"x": -2.1659259035,
				"y": 0.624425307,
				"z": 1.279589221,
				"element": "H" 
			},
			{
				"x": -2.8579850485,
				"y": 1.5851254436,
				"z": 3.4560475704,
				"element": "H" 
			},
			{
				"x": 0.7055791261,
				"y": 0.5294180889,
				"z": 5.2372872062,
				"element": "H" 
			},
			{
				"x": 1.5775372643,
				"y": -0.4494847739,
				"z": 3.1349896186,
				"element": "H" 
			}
		],
		 "valence_orbital": [ 
			{
				"type": "occ",
				"energy": -0.2749,
				"method": "rhf"
			},
			{
				"type": "occ",
				"energy": -0.27363,
				"method": "rhf"
			},
			{
				"type": "occ",
				"energy": -0.26429,
				"method": "rhf"
			},
			{
				"type": "occ",
				"energy": -0.26273,
				"method": "rhf"
			},
			{
				"type": "occ",
				"energy": -0.26052,
				"method": "rhf"
			},
			{
				"type": "unocc",
				"energy": -0.08537,
				"method": "rhf"
			},
			{
				"type": "unocc",
				"energy": -0.03094,
				"method": "rhf"
			},
			{
				"type": "unocc",
				"energy": -0.02591,
				"method": "rhf"
			},
			{
				"type": "unocc",
				"energy": -0.02101,
				"method": "rhf"
			},
			{
				"type": "unocc",
				"energy": 0.03358,
				"method": "rhf"
			}
		],
		"cosmo_sigma_profile": { 
			"-0.025": 0.0,
			"-0.024": 0.0,
			"-0.023": 0.0,
			"-0.022": 0.0,
			"-0.021": 0.0,
			"-0.02": 0.0,
			"-0.019": 0.0,
			"-0.018": 0.0,
			"-0.017": 0.0,
			"-0.016": 0.0,
			"-0.015": 0.0,
			"-0.014": 0.0,
			"-0.013": 0.0,
			"-0.012": 0.0,
			"-0.011": 0.0,
			"-0.01": 0.0,
			"-0.009": 0.0779782133748,
			"-0.008": 3.08170265664,
			"-0.007": 11.8810965489,
			"-0.006": 17.0095335317,
			"-0.005": 16.8098265136,
			"-0.004": 14.4528919925,
			"-0.003": 13.5565184856,
			"-0.002": 14.6588745273,
			"-0.001": 18.1182494678,
			"0.0": 22.7626429653,
			"0.001": 24.1624425626,
			"0.002": 24.273958224,
			"0.003": 12.5128656749,
			"0.004": 6.9951982904,
			"0.005": 3.24704166642,
			"0.006": 2.59535769594,
			"0.007": 3.7161970548,
			"0.008": 2.38203042242,
			"0.009": 2.74063720872,
			"0.01": 4.61349020898,
			"0.011": 4.85628556936,
			"0.012": 3.10387804133,
			"0.013": 1.72061080401,
			"0.014": 0.863144588372,
			"0.015": 0.444923609185,
			"0.016": 1.17505132366,
			"0.017": 0.0982693171429,
			"0.018": 0.0,
			"0.019": 0.0,
			"0.02": 0.0,
			"0.021": 0.0,
			"0.022": 0.0,
			"0.023": 0.0,
			"0.024": 0.0,
			"0.025": 0.0
		}
	}
}
