{
	 "smiles": "OC(=O)C1=C2C=CC=CC2=NC(=C1)C1=CC=C(Br)C=C1", 
	 "Tm": 515.15, 
	 "num_atms": 30, 
	 "gaussian": { 
		 "optdone": 1, 
		 "sigma_profile": "yes", 
		 "theory": "DFT", 
		 "functional": "B3LYP", 
		 "basiset": "6-31G**", 
		 "properties": { 
			 "R2extent": 12121.5236, 
			 "electric_dipole_moment_norm": 2.18939231295, 
			 "electric_quadrupole_moment_norm": 21.3264048452, 
			 "total_energy": -3392.35450725, 
			 "HOMO_LUMO_gap": 0.14728, 
			 "cosmo_polarized_energy": -16.06, 
			 "cosmo_cavitation_energy": 37.36, 
			 "cosmo_dispersion_energy": -27.75, 
			 "cosmo_repulsion_energy": 2.09, 
			 "cosmo_total_nonelectrostatic_energy": 11.7, 
			 "SMD_solvation_energy": 4.81 
		},
		"coords": [
			{
				"x": -0.7408449021,
				"y": -3.7432349238,
				"z": 2.440331392,
				"element": "O" 
			},
			{
				"x": -0.378631634,
				"y": -2.4752930856,
				"z": 2.7682225233,
				"element": "C" 
			},
			{
				"x": 0.0993116781,
				"y": -2.24424765,
				"z": 3.852764138,
				"element": "O" 
			},
			{
				"x": -0.5909736174,
				"y": -1.441492592,
				"z": 1.6939431702,
				"element": "C" 
			},
			{
				"x": -0.9998444703,
				"y": -0.1080144626,
				"z": 2.009462428,
				"element": "C" 
			},
			{
				"x": -1.2616133971,
				"y": 0.370513341,
				"z": 3.3207408452,
				"element": "C" 
			},
			{
				"x": -1.6920228374,
				"y": 1.6654815261,
				"z": 3.5126561716,
				"element": "C" 
			},
			{
				"x": -1.8812992168,
				"y": 2.5388615812,
				"z": 2.4142770378,
				"element": "C" 
			},
			{
				"x": -1.6324641172,
				"y": 2.105512831,
				"z": 1.1327392361,
				"element": "C" 
			},
			{
				"x": -1.184869282,
				"y": 0.7780704673,
				"z": 0.8961408455,
				"element": "C" 
			},
			{
				"x": -0.9439536108,
				"y": 0.4151745938,
				"z": -0.3928262332,
				"element": "N" 
			},
			{
				"x": -0.5235234925,
				"y": -0.8117573339,
				"z": -0.6574495081,
				"element": "C" 
			},
			{
				"x": -0.3574490004,
				"y": -1.7783397135,
				"z": 0.3762538441,
				"element": "C" 
			},
			{
				"x": -0.2573700514,
				"y": -1.1470333986,
				"z": -2.0811299762,
				"element": "C" 
			},
			{
				"x": -0.8005349172,
				"y": -0.3391901972,
				"z": -3.0945565228,
				"element": "C" 
			},
			{
				"x": -0.5792383059,
				"y": -0.6238626175,
				"z": -4.4379434917,
				"element": "C" 
			},
			{
				"x": 0.2026586984,
				"y": -1.7272446038,
				"z": -4.7820922181,
				"element": "C" 
			},
			{
				"x": 0.5103145068,
				"y": -2.1270376044,
				"z": -6.6231507646,
				"element": "Br" 
			},
			{
				"x": 0.7658119594,
				"y": -2.5392685131,
				"z": -3.8000028898,
				"element": "C" 
			},
			{
				"x": 0.5321931427,
				"y": -2.2451737873,
				"z": -2.4576633017,
				"element": "C" 
			},
			{
				"x": -1.2323845937,
				"y": -3.7409942196,
				"z": 1.6064539905,
				"element": "H" 
			},
			{
				"x": -1.10072105,
				"y": -0.2887756309,
				"z": 4.1640458273,
				"element": "H" 
			},
			{
				"x": -1.8854999186,
				"y": 2.0221862285,
				"z": 4.5198918073,
				"element": "H" 
			},
			{
				"x": -2.221751624,
				"y": 3.5552639456,
				"z": 2.5888989999,
				"element": "H" 
			},
			{
				"x": -1.763419397,
				"y": 2.7505476335,
				"z": 0.2704317315,
				"element": "H" 
			},
			{
				"x": -0.0312479974,
				"y": -2.7813023332,
				"z": 0.1231585639,
				"element": "H" 
			},
			{
				"x": -1.3997364082,
				"y": 0.5174283607,
				"z": -2.8079924797,
				"element": "H" 
			},
			{
				"x": -1.0091681723,
				"y": 0.0017166404,
				"z": -5.2119226529,
				"element": "H" 
			},
			{
				"x": 1.3839379334,
				"y": -3.3849621776,
				"z": -4.078548022,
				"element": "H" 
			},
			{
				"x": 1.0019340947,
				"y": -2.8721323045,
				"z": -1.7065344914,
				"element": "H" 
			}
		],
		 "valence_orbital": [ 
			{
				"type": "occ",
				"energy": -0.27515,
				"method": "rhf"
			},
			{
				"type": "occ",
				"energy": -0.27238,
				"method": "rhf"
			},
			{
				"type": "occ",
				"energy": -0.26835,
				"method": "rhf"
			},
			{
				"type": "occ",
				"energy": -0.25192,
				"method": "rhf"
			},
			{
				"type": "occ",
				"energy": -0.23376,
				"method": "rhf"
			},
			{
				"type": "unocc",
				"energy": -0.08648,
				"method": "rhf"
			},
			{
				"type": "unocc",
				"energy": -0.05314,
				"method": "rhf"
			},
			{
				"type": "unocc",
				"energy": -0.02112,
				"method": "rhf"
			},
			{
				"type": "unocc",
				"energy": -0.01549,
				"method": "rhf"
			},
			{
				"type": "unocc",
				"energy": -0.0029,
				"method": "rhf"
			}
		],
		"cosmo_sigma_profile": { 
			"-0.025": 0.0,
			"-0.024": 0.0,
			"-0.023": 0.0,
			"-0.022": 0.0,
			"-0.021": 0.0,
			"-0.02": 0.0,
			"-0.019": 0.397280945812,
			"-0.018": 1.1543958694,
			"-0.017": 0.835536708834,
			"-0.016": 1.02392679938,
			"-0.015": 0.725954320693,
			"-0.014": 0.836705548202,
			"-0.013": 1.63815436473,
			"-0.012": 1.22335958828,
			"-0.011": 1.55557015636,
			"-0.01": 2.48179713953,
			"-0.009": 2.17580649781,
			"-0.008": 3.77093150054,
			"-0.007": 7.57987567524,
			"-0.006": 14.3442130009,
			"-0.005": 17.6432309813,
			"-0.004": 17.3624026173,
			"-0.003": 15.7857684488,
			"-0.002": 16.0344010274,
			"-0.001": 20.2989123456,
			"0.0": 22.98482266,
			"0.001": 26.0409581591,
			"0.002": 31.2787555467,
			"0.003": 35.2833558594,
			"0.004": 23.6200297514,
			"0.005": 8.58515832266,
			"0.006": 3.67370431074,
			"0.007": 4.19925965062,
			"0.008": 4.63822120724,
			"0.009": 5.27768477218,
			"0.01": 5.68141647702,
			"0.011": 4.94612800568,
			"0.012": 1.84210552955,
			"0.013": 0.157179891716,
			"0.014": 0.0,
			"0.015": 0.0,
			"0.016": 0.0,
			"0.017": 0.0,
			"0.018": 0.0,
			"0.019": 0.0,
			"0.02": 0.0,
			"0.021": 0.0,
			"0.022": 0.0,
			"0.023": 0.0,
			"0.024": 0.0,
			"0.0": 0.0
		}
	}
}
