{
	 "smiles": "NC1=C(C=CC=C1F)S(N)(=O)=O", 
	 "Tm": 410.15, 
	 "num_atms": 19, 
	 "gaussian": { 
		 "optdone": 1, 
		 "sigma_profile": "yes", 
		 "theory": "DFT", 
		 "functional": "B3LYP", 
		 "basiset": "6-31G**", 
		 "properties": { 
			 "R2extent": 3800.8136, 
			 "electric_dipole_moment_norm": 4.70511913664, 
			 "electric_quadrupole_moment_norm": 21.4323549798, 
			 "total_energy": -990.767036483, 
			 "HOMO_LUMO_gap": 0.19345, 
			 "cosmo_polarized_energy": -16.2, 
			 "cosmo_cavitation_energy": 24.28, 
			 "cosmo_dispersion_energy": -18.82, 
			 "cosmo_repulsion_energy": 1.42, 
			 "cosmo_total_nonelectrostatic_energy": 6.88, 
			 "SMD_solvation_energy": 4.22 
		},
		"coords": [
			{
				"x": 3.4977166978,
				"y": 1.1207608533,
				"z": 0.6633445409,
				"element": "N" 
			},
			{
				"x": 2.2225932723,
				"y": 0.6737214636,
				"z": 0.3362435083,
				"element": "C" 
			},
			{
				"x": 1.0635207024,
				"y": 1.4631992452,
				"z": 0.4860732491,
				"element": "C" 
			},
			{
				"x": -0.1999050893,
				"y": 0.9987268846,
				"z": 0.109573428,
				"element": "C" 
			},
			{
				"x": -0.336959263,
				"y": -0.2694597802,
				"z": -0.4486478358,
				"element": "C" 
			},
			{
				"x": 0.7958811316,
				"y": -1.0701687076,
				"z": -0.6308925151,
				"element": "C" 
			},
			{
				"x": 2.033490494,
				"y": -0.5911249189,
				"z": -0.2418868558,
				"element": "C" 
			},
			{
				"x": 3.1391523783,
				"y": -1.3621698193,
				"z": -0.4006494614,
				"element": "F" 
			},
			{
				"x": 1.2274039973,
				"y": 3.1220879529,
				"z": 1.1413953601,
				"element": "S" 
			},
			{
				"x": 2.0899480124,
				"y": 3.9882716834,
				"z": -0.0113400982,
				"element": "N" 
			},
			{
				"x": 2.1084423457,
				"y": 3.0437807146,
				"z": 2.3140121284,
				"element": "O" 
			},
			{
				"x": -0.1010975977,
				"y": 3.7244354529,
				"z": 1.2064027466,
				"element": "O" 
			},
			{
				"x": 3.531150665,
				"y": 1.6718952896,
				"z": 1.5165077425,
				"element": "H" 
			},
			{
				"x": 4.19593086,
				"y": 0.3897641263,
				"z": 0.6276115727,
				"element": "H" 
			},
			{
				"x": -1.0564640143,
				"y": 1.6456416693,
				"z": 0.2619298095,
				"element": "H" 
			},
			{
				"x": -1.3143470781,
				"y": -0.6365255589,
				"z": -0.7419629754,
				"element": "H" 
			},
			{
				"x": 0.7315718154,
				"y": -2.0638609525,
				"z": -1.0612830625,
				"element": "H" 
			},
			{
				"x": 2.9917474239,
				"y": 3.5542668763,
				"z": -0.2008297499,
				"element": "H" 
			},
			{
				"x": 1.5435232463,
				"y": 4.1300575254,
				"z": -0.8562015321,
				"element": "H" 
			}
		],
		 "valence_orbital": [ 
			{
				"type": "occ",
				"energy": -0.32208,
				"method": "rhf"
			},
			{
				"type": "occ",
				"energy": -0.31123,
				"method": "rhf"
			},
			{
				"type": "occ",
				"energy": -0.30417,
				"method": "rhf"
			},
			{
				"type": "occ",
				"energy": -0.2689,
				"method": "rhf"
			},
			{
				"type": "occ",
				"energy": -0.23328,
				"method": "rhf"
			},
			{
				"type": "unocc",
				"energy": -0.03983,
				"method": "rhf"
			},
			{
				"type": "unocc",
				"energy": -0.01086,
				"method": "rhf"
			},
			{
				"type": "unocc",
				"energy": 0.053,
				"method": "rhf"
			},
			{
				"type": "unocc",
				"energy": 0.05717,
				"method": "rhf"
			},
			{
				"type": "unocc",
				"energy": 0.08206,
				"method": "rhf"
			}
		],
		"cosmo_sigma_profile": { 
			"-0.025": 0.0,
			"-0.024": 0.0,
			"-0.023": 0.0,
			"-0.022": 0.0,
			"-0.021": 0.0,
			"-0.02": 0.0,
			"-0.019": 0.0,
			"-0.018": 0.0,
			"-0.017": 0.0,
			"-0.016": 0.341066154334,
			"-0.015": 1.12553753026,
			"-0.014": 1.68932171885,
			"-0.013": 2.10636512909,
			"-0.012": 3.50144038267,
			"-0.011": 3.20485236149,
			"-0.01": 4.15607660799,
			"-0.009": 3.45597763392,
			"-0.008": 4.8584049752,
			"-0.007": 7.21762677567,
			"-0.006": 9.00505412803,
			"-0.005": 9.4053677968,
			"-0.004": 8.14897497437,
			"-0.003": 8.52197325146,
			"-0.002": 8.28388247745,
			"-0.001": 11.0477584007,
			"0.0": 13.9046121211,
			"0.001": 14.6353209072,
			"0.002": 12.1693345727,
			"0.003": 13.9995705882,
			"0.004": 10.9853202316,
			"0.005": 3.81590592535,
			"0.006": 3.9069726255,
			"0.007": 5.66237880198,
			"0.008": 4.60578107794,
			"0.009": 5.33451813314,
			"0.01": 6.799988726,
			"0.011": 9.16048751385,
			"0.012": 2.72617838266,
			"0.013": 0.257274395477,
			"0.014": 0.0,
			"0.015": 0.0,
			"0.016": 0.0,
			"0.017": 0.0,
			"0.018": 0.0,
			"0.019": 0.0,
			"0.02": 0.0,
			"0.021": 0.0,
			"0.022": 0.0,
			"0.023": 0.0,
			"0.024": 0.0,
			"0.025": 0.0
		}
	}
}
