{
	 "smiles": "CC1=CC(N)=CC(C)=C1", 
	 "Tm": 283.05, 
	 "num_atms": 20, 
	 "gaussian": { 
		 "optdone": 1, 
		 "sigma_profile": "yes", 
		 "theory": "DFT", 
		 "functional": "B3LYP", 
		 "basiset": "6-31G**", 
		 "properties": { 
			 "R2extent": 1415.9903, 
			 "electric_dipole_moment_norm": 1.38467177699, 
			 "electric_quadrupole_moment_norm": 8.847441277, 
			 "total_energy": -366.249978554, 
			 "HOMO_LUMO_gap": 0.20608, 
			 "cosmo_polarized_energy": -7.51, 
			 "cosmo_cavitation_energy": 22.87, 
			 "cosmo_dispersion_energy": -16.9, 
			 "cosmo_repulsion_energy": 1.4, 
			 "cosmo_total_nonelectrostatic_energy": 7.36, 
			 "SMD_solvation_energy": 4.01 
		},
		"coords": [
			{
				"x": 1.0026575439,
				"y": -0.3926047134,
				"z": -2.0767131818,
				"element": "C" 
			},
			{
				"x": 0.2575620026,
				"y": -0.1321350512,
				"z": -0.7874850579,
				"element": "C" 
			},
			{
				"x": -1.122250306,
				"y": 0.0856517481,
				"z": -0.8026174498,
				"element": "C" 
			},
			{
				"x": -1.8317908548,
				"y": 0.30174431,
				"z": 0.3890901384,
				"element": "C" 
			},
			{
				"x": -3.221587811,
				"y": 0.465559533,
				"z": 0.3692365887,
				"element": "N" 
			},
			{
				"x": -1.1313828289,
				"y": 0.2997719497,
				"z": 1.6055351614,
				"element": "C" 
			},
			{
				"x": 0.2483601251,
				"y": 0.0836608884,
				"z": 1.6394512894,
				"element": "C" 
			},
			{
				"x": 0.983568785,
				"y": 0.0553212001,
				"z": 2.9599724947,
				"element": "C" 
			},
			{
				"x": 0.9354474146,
				"y": -0.1265278054,
				"z": 0.4376674406,
				"element": "C" 
			},
			{
				"x": 0.5309375136,
				"y": 0.1144843644,
				"z": -2.9241783291,
				"element": "H" 
			},
			{
				"x": 2.0412355007,
				"y": -0.0538724687,
				"z": -2.013613668,
				"element": "H" 
			},
			{
				"x": 1.0245722253,
				"y": -1.4644964512,
				"z": -2.3114988847,
				"element": "H" 
			},
			{
				"x": -1.6580667307,
				"y": 0.0890173921,
				"z": -1.7499477258,
				"element": "H" 
			},
			{
				"x": -3.5928510455,
				"y": 0.8192642306,
				"z": -0.5023071019,
				"element": "H" 
			},
			{
				"x": -3.5992199389,
				"y": 0.9671564527,
				"z": 1.161906896,
				"element": "H" 
			},
			{
				"x": -1.6743244349,
				"y": 0.4699210129,
				"z": 2.5333329015,
				"element": "H" 
			},
			{
				"x": 2.0227463156,
				"y": 0.3785337286,
				"z": 2.8459151026,
				"element": "H" 
			},
			{
				"x": 0.5056957678,
				"y": 0.7035261943,
				"z": 3.7011352861,
				"element": "H" 
			},
			{
				"x": 1.0032287143,
				"y": -0.9583315637,
				"z": 3.380307673,
				"element": "H" 
			},
			{
				"x": 2.0112620421,
				"y": -0.2846449513,
				"z": 0.4558104265,
				"element": "H" 
			}
		],
		 "valence_orbital": [ 
			{
				"type": "occ",
				"energy": -0.33664,
				"method": "rhf"
			},
			{
				"type": "occ",
				"energy": -0.32416,
				"method": "rhf"
			},
			{
				"type": "occ",
				"energy": -0.28686,
				"method": "rhf"
			},
			{
				"type": "occ",
				"energy": -0.22454,
				"method": "rhf"
			},
			{
				"type": "occ",
				"energy": -0.19299,
				"method": "rhf"
			},
			{
				"type": "unocc",
				"energy": 0.01309,
				"method": "rhf"
			},
			{
				"type": "unocc",
				"energy": 0.02615,
				"method": "rhf"
			},
			{
				"type": "unocc",
				"energy": 0.08559,
				"method": "rhf"
			},
			{
				"type": "unocc",
				"energy": 0.10962,
				"method": "rhf"
			},
			{
				"type": "unocc",
				"energy": 0.12672,
				"method": "rhf"
			}
		],
		"cosmo_sigma_profile": { 
			"-0.025": 0.0,
			"-0.024": 0.0,
			"-0.023": 0.0,
			"-0.022": 0.0,
			"-0.021": 0.0,
			"-0.02": 0.0,
			"-0.019": 0.0,
			"-0.018": 0.0,
			"-0.017": 0.0,
			"-0.016": 0.0,
			"-0.015": 0.0,
			"-0.014": 0.0,
			"-0.013": 0.0,
			"-0.012": 1.48106024321,
			"-0.011": 2.42437592099,
			"-0.01": 2.60567128937,
			"-0.009": 3.27100125011,
			"-0.008": 3.17137006146,
			"-0.007": 2.36068670108,
			"-0.006": 2.45736678417,
			"-0.005": 4.19689177946,
			"-0.004": 10.8712160878,
			"-0.003": 20.5390106753,
			"-0.002": 16.9465719948,
			"-0.001": 16.1712907972,
			"0.0": 21.7031128156,
			"0.001": 16.3950653898,
			"0.002": 7.22604049489,
			"0.003": 7.31821235821,
			"0.004": 5.50211268667,
			"0.005": 7.29110918424,
			"0.006": 6.60562214571,
			"0.007": 8.65649636345,
			"0.008": 6.72726880828,
			"0.009": 1.28948903618,
			"0.01": 0.838964022643,
			"0.011": 0.582313122892,
			"0.012": 0.584081259674,
			"0.013": 0.873920573944,
			"0.014": 0.728164110192,
			"0.015": 0.51272923427,
			"0.016": 0.0717024932954,
			"0.017": 0.0,
			"0.018": 0.0,
			"0.019": 0.0,
			"0.02": 0.0,
			"0.021": 0.0,
			"0.022": 0.0,
			"0.023": 0.0,
			"0.024": 0.0,
			"0.025": 0.0
		}
	}
}
