{
	 "smiles": "NC(CC(O)=O)C1=CC(Cl)=CC(Cl)=C1", 
	 "Tm": 479.15, 
	 "num_atms": 23, 
	 "gaussian": { 
		 "optdone": 1, 
		 "sigma_profile": "yes", 
		 "theory": "DFT", 
		 "functional": "B3LYP", 
		 "basiset": "6-31G**", 
		 "properties": { 
			 "R2extent": 5892.1262, 
			 "electric_dipole_moment_norm": 2.51409531442, 
			 "electric_quadrupole_moment_norm": 11.6068360663, 
			 "total_energy": -1473.97781005, 
			 "HOMO_LUMO_gap": 0.21587, 
			 "cosmo_polarized_energy": -14.7, 
			 "cosmo_cavitation_energy": 31.23, 
			 "cosmo_dispersion_energy": -22.47, 
			 "cosmo_repulsion_energy": 1.81, 
			 "cosmo_total_nonelectrostatic_energy": 10.57, 
			 "SMD_solvation_energy": 4.53 
		},
		"coords": [
			{
				"x": -1.0214580756,
				"y": 0.1984308209,
				"z": 1.1665835622,
				"element": "N" 
			},
			{
				"x": -0.0997699499,
				"y": 1.3249032847,
				"z": 1.00851509,
				"element": "C" 
			},
			{
				"x": 0.6476784399,
				"y": 1.7772843859,
				"z": 2.3076284826,
				"element": "C" 
			},
			{
				"x": -0.2861749577,
				"y": 2.4148347335,
				"z": 3.309226855,
				"element": "C" 
			},
			{
				"x": -1.0937757448,
				"y": 1.4980858852,
				"z": 3.914244528,
				"element": "O" 
			},
			{
				"x": -0.3639447738,
				"y": 3.5973506815,
				"z": 3.5528888699,
				"element": "O" 
			},
			{
				"x": 0.8911920881,
				"y": 1.0068261746,
				"z": -0.1051342566,
				"element": "C" 
			},
			{
				"x": 1.9519912159,
				"y": 0.1178301503,
				"z": 0.1089906624,
				"element": "C" 
			},
			{
				"x": 2.8227769487,
				"y": -0.18231799,
				"z": -0.9365521921,
				"element": "C" 
			},
			{
				"x": 4.1496033402,
				"y": -1.2980971789,
				"z": -0.6558335119,
				"element": "Cl" 
			},
			{
				"x": 2.6739126196,
				"y": 0.3826464976,
				"z": -2.2018977668,
				"element": "C" 
			},
			{
				"x": 1.612550603,
				"y": 1.2650337494,
				"z": -2.3955431282,
				"element": "C" 
			},
			{
				"x": 1.3949314937,
				"y": 1.9956740596,
				"z": -3.9762677749,
				"element": "Cl" 
			},
			{
				"x": 0.7238543542,
				"y": 1.5807181036,
				"z": -1.3693315238,
				"element": "C" 
			},
			{
				"x": -0.4990619263,
				"y": -0.6553419659,
				"z": 1.3504219595,
				"element": "H" 
			},
			{
				"x": -1.6210649561,
				"y": 0.3531232992,
				"z": 1.9737406511,
				"element": "H" 
			},
			{
				"x": -0.6960030509,
				"y": 2.1834672252,
				"z": 0.6757498513,
				"element": "H" 
			},
			{
				"x": 1.136081218,
				"y": 0.9133714288,
				"z": 2.770705873,
				"element": "H" 
			},
			{
				"x": 1.4062934927,
				"y": 2.523421906,
				"z": 2.0616627688,
				"element": "H" 
			},
			{
				"x": -1.6711804861,
				"y": 2.0033017157,
				"z": 4.5123670238,
				"element": "H" 
			},
			{
				"x": 2.1121215453,
				"y": -0.3419845076,
				"z": 1.078003789,
				"element": "H" 
			},
			{
				"x": 3.3594595613,
				"y": 0.1453405332,
				"z": -3.0055861668,
				"element": "H" 
			},
			{
				"x": -0.0960129994,
				"y": 2.2650970074,
				"z": -1.5566836453,
				"element": "H" 
			}
		],
		 "valence_orbital": [ 
			{
				"type": "occ",
				"energy": -0.3196,
				"method": "rhf"
			},
			{
				"type": "occ",
				"energy": -0.28737,
				"method": "rhf"
			},
			{
				"type": "occ",
				"energy": -0.26575,
				"method": "rhf"
			},
			{
				"type": "occ",
				"energy": -0.2575,
				"method": "rhf"
			},
			{
				"type": "occ",
				"energy": -0.24903,
				"method": "rhf"
			},
			{
				"type": "unocc",
				"energy": -0.03316,
				"method": "rhf"
			},
			{
				"type": "unocc",
				"energy": -0.02938,
				"method": "rhf"
			},
			{
				"type": "unocc",
				"energy": -0.00516,
				"method": "rhf"
			},
			{
				"type": "unocc",
				"energy": 0.00315,
				"method": "rhf"
			},
			{
				"type": "unocc",
				"energy": 0.04408,
				"method": "rhf"
			}
		],
		"cosmo_sigma_profile": { 
			"-0.025": 0.0,
			"-0.024": 0.0,
			"-0.023": 0.0,
			"-0.022": 0.0,
			"-0.021": 0.0,
			"-0.02": 0.0,
			"-0.019": 0.0212706578114,
			"-0.018": 0.573822894981,
			"-0.017": 1.2161014137,
			"-0.016": 0.959739105016,
			"-0.015": 0.944471522751,
			"-0.014": 0.0324090157417,
			"-0.013": 0.216335638994,
			"-0.012": 1.04141435786,
			"-0.011": 1.4782428347,
			"-0.01": 2.84760719689,
			"-0.009": 4.40780565243,
			"-0.008": 6.1893084811,
			"-0.007": 8.63319541017,
			"-0.006": 13.7659916151,
			"-0.005": 12.544273453,
			"-0.004": 13.7447014468,
			"-0.003": 12.9356911107,
			"-0.002": 14.3359352983,
			"-0.001": 13.3799376628,
			"0.0": 18.887674391,
			"0.001": 24.3767623093,
			"0.002": 24.3885702517,
			"0.003": 16.3190244469,
			"0.004": 22.8162072944,
			"0.005": 7.79212516686,
			"0.006": 2.52906201007,
			"0.007": 2.81351901303,
			"0.008": 2.95359585915,
			"0.009": 3.31223045736,
			"0.01": 2.99594007228,
			"0.011": 4.96402126562,
			"0.012": 4.64678331274,
			"0.013": 0.828984349881,
			"0.014": 0.417923216706,
			"0.015": 1.28289213889,
			"0.016": 0.465959323246,
			"0.017": 0.570998930773,
			"0.018": 0.3952396759,
			"0.019": 0.321240745327,
			"0.02": 0.0,
			"0.021": 0.0,
			"0.022": 0.0,
			"0.023": 0.0,
			"0.024": 0.0,
			"0.025": 0.0
		}
	}
}
