{
	 "smiles": "CCCC(C)=O", 
	 "Tm": 195.65, 
	 "num_atms": 16, 
	 "gaussian": { 
		 "optdone": 1, 
		 "sigma_profile": "yes", 
		 "theory": "DFT", 
		 "functional": "B3LYP", 
		 "basiset": "6-31G**", 
		 "properties": { 
			 "R2extent": 1059.4392, 
			 "electric_dipole_moment_norm": 2.72155401747, 
			 "electric_quadrupole_moment_norm": 6.44984174147, 
			 "total_energy": -271.790482522, 
			 "HOMO_LUMO_gap": 0.22688, 
			 "cosmo_polarized_energy": -6.71, 
			 "cosmo_cavitation_energy": 18.69, 
			 "cosmo_dispersion_energy": -13.44, 
			 "cosmo_repulsion_energy": 1.18, 
			 "cosmo_total_nonelectrostatic_energy": 6.43, 
			 "SMD_solvation_energy": 4.05 
		},
		"coords": [
			{
				"x": -1.6285065989,
				"y": -0.3448737566,
				"z": 1.4268628989,
				"element": "C" 
			},
			{
				"x": -0.639328629,
				"y": -1.3175527424,
				"z": 0.7774498082,
				"element": "C" 
			},
			{
				"x": 0.005769594,
				"y": -0.7759788112,
				"z": -0.5219043562,
				"element": "C" 
			},
			{
				"x": -1.0174405921,
				"y": -0.6135624137,
				"z": -1.6397316163,
				"element": "C" 
			},
			{
				"x": -1.2600712826,
				"y": -1.8205094035,
				"z": -2.5310003607,
				"element": "C" 
			},
			{
				"x": -1.6265479955,
				"y": 0.4288459393,
				"z": -1.7982182272,
				"element": "O" 
			},
			{
				"x": -1.1303008903,
				"y": 0.5888389633,
				"z": 1.7094563632,
				"element": "H" 
			},
			{
				"x": -2.0640909363,
				"y": -0.7804058543,
				"z": 2.331982903,
				"element": "H" 
			},
			{
				"x": -2.4444496567,
				"y": -0.0846161374,
				"z": 0.7468161013,
				"element": "H" 
			},
			{
				"x": 0.1672684093,
				"y": -1.5485602698,
				"z": 1.4834203668,
				"element": "H" 
			},
			{
				"x": -1.1383773483,
				"y": -2.2728795688,
				"z": 0.5669444493,
				"element": "H" 
			},
			{
				"x": 0.801929593,
				"y": -1.4591803192,
				"z": -0.84123473,
				"element": "H" 
			},
			{
				"x": 0.4485744924,
				"y": 0.2063072282,
				"z": -0.327444272,
				"element": "H" 
			},
			{
				"x": -0.3765338298,
				"y": -1.9965543267,
				"z": -3.1571793574,
				"element": "H" 
			},
			{
				"x": -2.1248402387,
				"y": -1.6433912938,
				"z": -3.171929116,
				"element": "H" 
			},
			{
				"x": -1.4120540904,
				"y": -2.7288272335,
				"z": -1.9371908548,
				"element": "H" 
			}
		],
		 "valence_orbital": [ 
			{
				"type": "occ",
				"energy": -0.35811,
				"method": "rhf"
			},
			{
				"type": "occ",
				"energy": -0.34938,
				"method": "rhf"
			},
			{
				"type": "occ",
				"energy": -0.34121,
				"method": "rhf"
			},
			{
				"type": "occ",
				"energy": -0.33049,
				"method": "rhf"
			},
			{
				"type": "occ",
				"energy": -0.23876,
				"method": "rhf"
			},
			{
				"type": "unocc",
				"energy": -0.01188,
				"method": "rhf"
			},
			{
				"type": "unocc",
				"energy": 0.08206,
				"method": "rhf"
			},
			{
				"type": "unocc",
				"energy": 0.12226,
				"method": "rhf"
			},
			{
				"type": "unocc",
				"energy": 0.13278,
				"method": "rhf"
			},
			{
				"type": "unocc",
				"energy": 0.14138,
				"method": "rhf"
			}
		],
		"cosmo_sigma_profile": { 
			"-0.025": 0.0,
			"-0.024": 0.0,
			"-0.023": 0.0,
			"-0.022": 0.0,
			"-0.021": 0.0,
			"-0.02": 0.0,
			"-0.019": 0.0,
			"-0.018": 0.0,
			"-0.017": 0.0,
			"-0.016": 0.0,
			"-0.015": 0.0,
			"-0.014": 0.0,
			"-0.013": 0.0,
			"-0.012": 0.0,
			"-0.011": 0.0,
			"-0.01": 0.0,
			"-0.009": 0.0,
			"-0.008": 0.0,
			"-0.007": 0.0290069564661,
			"-0.006": 2.98897928709,
			"-0.005": 9.42705691062,
			"-0.004": 13.0005267761,
			"-0.003": 17.8833836439,
			"-0.002": 22.0849491049,
			"-0.001": 23.7688755535,
			"0.0": 16.5676906362,
			"0.001": 10.3517737819,
			"0.002": 4.48104937475,
			"0.003": 2.04652931474,
			"0.004": 1.72728541926,
			"0.005": 1.71581775357,
			"0.006": 1.45819063057,
			"0.007": 2.2255034032,
			"0.008": 1.60383972125,
			"0.009": 1.23395954695,
			"0.01": 1.89365040574,
			"0.011": 2.55327010253,
			"0.012": 3.92638964971,
			"0.013": 3.35553084678,
			"0.014": 0.833895074207,
			"0.015": 0.0,
			"0.016": 0.0,
			"0.017": 0.0,
			"0.018": 0.0,
			"0.019": 0.0,
			"0.02": 0.0,
			"0.021": 0.0,
			"0.022": 0.0,
			"0.023": 0.0,
			"0.024": 0.0,
			"0.025": 0.0
		}
	}
}
