{
	 "smiles": "NC(=O)C1=C(N)C(Cl)=CC(Cl)=C1", 
	 "Tm": 435.15, 
	 "num_atms": 18, 
	 "gaussian": { 
		 "optdone": 1, 
		 "sigma_profile": "yes", 
		 "theory": "DFT", 
		 "functional": "B3LYP", 
		 "basiset": "6-31G**", 
		 "properties": { 
			 "R2extent": 3318.913, 
			 "electric_dipole_moment_norm": 4.1884989507, 
			 "electric_quadrupole_moment_norm": 15.2883320199, 
			 "total_energy": -1375.49641179, 
			 "HOMO_LUMO_gap": 0.17506, 
			 "cosmo_polarized_energy": -13.54, 
			 "cosmo_cavitation_energy": 25.67, 
			 "cosmo_dispersion_energy": -19.62, 
			 "cosmo_repulsion_energy": 1.57, 
			 "cosmo_total_nonelectrostatic_energy": 7.62, 
			 "SMD_solvation_energy": 4.67 
		},
		"coords": [
			{
				"x": -1.5478298908,
				"y": 2.5973968664,
				"z": -2.3870946716,
				"element": "N" 
			},
			{
				"x": -1.530145264,
				"y": 1.9351740386,
				"z": -1.175917172,
				"element": "C" 
			},
			{
				"x": -2.4163233782,
				"y": 2.1000290793,
				"z": -0.3487785858,
				"element": "O" 
			},
			{
				"x": -0.376410906,
				"y": 1.0001963674,
				"z": -0.9179789549,
				"element": "C" 
			},
			{
				"x": 0.4408201666,
				"y": 0.4206083683,
				"z": -1.9230879203,
				"element": "C" 
			},
			{
				"x": 0.2461675834,
				"y": 0.6612943058,
				"z": -3.2790497502,
				"element": "N" 
			},
			{
				"x": 1.5054058801,
				"y": -0.3973701659,
				"z": -1.4850085405,
				"element": "C" 
			},
			{
				"x": 2.5586399692,
				"y": -1.1480962859,
				"z": -2.6839753703,
				"element": "Cl" 
			},
			{
				"x": 1.7554187654,
				"y": -0.6531334547,
				"z": -0.1433301933,
				"element": "C" 
			},
			{
				"x": 0.9136678559,
				"y": -0.0927698613,
				"z": 0.8163858664,
				"element": "C" 
			},
			{
				"x": 1.2072789457,
				"y": -0.4203563622,
				"z": 2.515859478,
				"element": "Cl" 
			},
			{
				"x": -0.1447335072,
				"y": 0.7170680108,
				"z": 0.4336988859,
				"element": "C" 
			},
			{
				"x": -0.6767609845,
				"y": 2.7510289358,
				"z": -2.8788184616,
				"element": "H" 
			},
			{
				"x": -2.2329084999,
				"y": 3.3401616113,
				"z": -2.4340588866,
				"element": "H" 
			},
			{
				"x": -0.7192303274,
				"y": 0.7866711148,
				"z": -3.5557548219,
				"element": "H" 
			},
			{
				"x": 0.7555485025,
				"y": 0.0343448719,
				"z": -3.8880263945,
				"element": "H" 
			},
			{
				"x": 2.5845132089,
				"y": -1.2882405403,
				"z": 0.1438511737,
				"element": "H" 
			},
			{
				"x": -0.8143181197,
				"y": 1.1548930999,
				"z": 1.1640843196,
				"element": "H" 
			}
		],
		 "valence_orbital": [ 
			{
				"type": "occ",
				"energy": -0.30708,
				"method": "rhf"
			},
			{
				"type": "occ",
				"energy": -0.28667,
				"method": "rhf"
			},
			{
				"type": "occ",
				"energy": -0.27044,
				"method": "rhf"
			},
			{
				"type": "occ",
				"energy": -0.25984,
				"method": "rhf"
			},
			{
				"type": "occ",
				"energy": -0.22665,
				"method": "rhf"
			},
			{
				"type": "unocc",
				"energy": -0.05159,
				"method": "rhf"
			},
			{
				"type": "unocc",
				"energy": -0.01505,
				"method": "rhf"
			},
			{
				"type": "unocc",
				"energy": 0.00197,
				"method": "rhf"
			},
			{
				"type": "unocc",
				"energy": 0.03688,
				"method": "rhf"
			},
			{
				"type": "unocc",
				"energy": 0.04972,
				"method": "rhf"
			}
		],
		"cosmo_sigma_profile": { 
			"-0.025": 0.0,
			"-0.024": 0.0,
			"-0.023": 0.0,
			"-0.022": 0.0,
			"-0.021": 0.0,
			"-0.02": 0.0,
			"-0.019": 0.0,
			"-0.018": 0.0,
			"-0.017": 0.0,
			"-0.016": 0.0,
			"-0.015": 0.0,
			"-0.014": 0.489634957008,
			"-0.013": 1.84395508665,
			"-0.012": 3.01956689017,
			"-0.011": 4.7818051597,
			"-0.01": 4.74381924286,
			"-0.009": 3.83996225488,
			"-0.008": 6.38115143038,
			"-0.007": 5.10490258559,
			"-0.006": 5.9525315378,
			"-0.005": 6.27266747499,
			"-0.004": 7.02947655881,
			"-0.003": 8.41350866559,
			"-0.002": 10.6817242311,
			"-0.001": 14.0252870941,
			"0.0": 17.6730616237,
			"0.001": 25.5800195425,
			"0.002": 21.0794654212,
			"0.003": 16.1229090456,
			"0.004": 17.9968097768,
			"0.005": 8.85321105279,
			"0.006": 2.12940669761,
			"0.007": 1.65268470558,
			"0.008": 1.74990588982,
			"0.009": 2.2277018196,
			"0.01": 1.04470807166,
			"0.011": 1.79043572696,
			"0.012": 2.68731426339,
			"0.013": 5.1888435562,
			"0.014": 1.42335025891,
			"0.015": 0.0,
			"0.016": 0.0,
			"0.017": 0.0,
			"0.018": 0.0,
			"0.019": 0.0,
			"0.02": 0.0,
			"0.021": 0.0,
			"0.022": 0.0,
			"0.023": 0.0,
			"0.024": 0.0,
			"0.025": 0.0
		}
	}
}
