{
	 "smiles": "CCOP(=O)(OCC)OC1=CC=C(C=C1)[N+]([O-])=O", 
	 "Tm": 573.15, 
	 "num_atms": 32, 
	 "gaussian": { 
		 "optdone": 1, 
		 "sigma_profile": "yes", 
		 "theory": "DFT", 
		 "functional": "B3LYP", 
		 "basiset": "6-31G**", 
		 "properties": { 
			 "R2extent": 7369.6709, 
			 "electric_dipole_moment_norm": 4.84349864664, 
			 "electric_quadrupole_moment_norm": 36.1627318266, 
			 "total_energy": -1236.93131955, 
			 "HOMO_LUMO_gap": 0.17818, 
			 "cosmo_polarized_energy": -15.66, 
			 "cosmo_cavitation_energy": 39.0, 
			 "cosmo_dispersion_energy": -26.89, 
			 "cosmo_repulsion_energy": 2.14, 
			 "cosmo_total_nonelectrostatic_energy": 14.25, 
			 "SMD_solvation_energy": 11.14 
		},
		"coords": [
			{
				"x": 2.8289612812,
				"y": 0.9153665954,
				"z": -1.3753709408,
				"element": "C" 
			},
			{
				"x": 1.7215385737,
				"y": 0.0188201447,
				"z": -1.8924470002,
				"element": "C" 
			},
			{
				"x": 0.4927940593,
				"y": 0.3798836964,
				"z": -1.1976674178,
				"element": "O" 
			},
			{
				"x": -0.9200362623,
				"y": -0.14525102,
				"z": -1.7643635913,
				"element": "P" 
			},
			{
				"x": -1.045283479,
				"y": -0.2056141293,
				"z": -3.2313744703,
				"element": "O" 
			},
			{
				"x": -1.9536094451,
				"y": 0.7518129819,
				"z": -0.9371765259,
				"element": "O" 
			},
			{
				"x": -2.1976715859,
				"y": 2.124023378,
				"z": -1.3609276195,
				"element": "C" 
			},
			{
				"x": -3.372135167,
				"y": 2.6530589745,
				"z": -0.5626394633,
				"element": "C" 
			},
			{
				"x": -1.1599357997,
				"y": -1.6084372845,
				"z": -1.0928659011,
				"element": "O" 
			},
			{
				"x": -1.1026226872,
				"y": -1.9888317647,
				"z": 0.2301737661,
				"element": "C" 
			},
			{
				"x": -0.7569928034,
				"y": -1.1317983266,
				"z": 1.2819206946,
				"element": "C" 
			},
			{
				"x": -0.7242975823,
				"y": -1.6313469643,
				"z": 2.5800837749,
				"element": "C" 
			},
			{
				"x": -1.0341640289,
				"y": -2.9703660923,
				"z": 2.808953989,
				"element": "C" 
			},
			{
				"x": -1.3797324108,
				"y": -3.8303739675,
				"z": 1.7659172298,
				"element": "C" 
			},
			{
				"x": -1.4128591605,
				"y": -3.33330615,
				"z": 0.4704709159,
				"element": "C" 
			},
			{
				"x": -0.9960315374,
				"y": -3.4881832613,
				"z": 4.1799519382,
				"element": "N" 
			},
			{
				"x": -0.6874768792,
				"y": -2.7053706123,
				"z": 5.0794552785,
				"element": "O" 
			},
			{
				"x": -1.2742525725,
				"y": -4.6756418275,
				"z": 4.350501232,
				"element": "O" 
			},
			{
				"x": 3.7714751401,
				"y": 0.6590608752,
				"z": -1.8692757658,
				"element": "H" 
			},
			{
				"x": 2.9606643194,
				"y": 0.7923138051,
				"z": -0.2967355768,
				"element": "H" 
			},
			{
				"x": 2.6057213403,
				"y": 1.9659040854,
				"z": -1.5814225545,
				"element": "H" 
			},
			{
				"x": 1.5631170257,
				"y": 0.140799236,
				"z": -2.9674091504,
				"element": "H" 
			},
			{
				"x": 1.9350859643,
				"y": -1.0364193556,
				"z": -1.688534829,
				"element": "H" 
			},
			{
				"x": -2.4045720279,
				"y": 2.1244321318,
				"z": -2.4352562885,
				"element": "H" 
			},
			{
				"x": -1.289017493,
				"y": 2.7072345447,
				"z": -1.1758179747,
				"element": "H" 
			},
			{
				"x": -4.2681268181,
				"y": 2.0558301555,
				"z": -0.7513945295,
				"element": "H" 
			},
			{
				"x": -3.1577478343,
				"y": 2.6301173032,
				"z": 0.5094062928,
				"element": "H" 
			},
			{
				"x": -3.5775214906,
				"y": 3.6884106455,
				"z": -0.8522564293,
				"element": "H" 
			},
			{
				"x": -0.518788569,
				"y": -0.0939657936,
				"z": 1.0924999582,
				"element": "H" 
			},
			{
				"x": -0.4620767302,
				"y": -0.9976884973,
				"z": 3.4179960742,
				"element": "H" 
			},
			{
				"x": -1.6154347039,
				"y": -4.8645609439,
				"z": 1.982649922,
				"element": "H" 
			},
			{
				"x": -1.6773706358,
				"y": -3.9662125626,
				"z": -0.3690450372,
				"element": "H" 
			}
		],
		 "valence_orbital": [ 
			{
				"type": "occ",
				"energy": -0.30503,
				"method": "rhf"
			},
			{
				"type": "occ",
				"energy": -0.30294,
				"method": "rhf"
			},
			{
				"type": "occ",
				"energy": -0.28813,
				"method": "rhf"
			},
			{
				"type": "occ",
				"energy": -0.28211,
				"method": "rhf"
			},
			{
				"type": "occ",
				"energy": -0.26409,
				"method": "rhf"
			},
			{
				"type": "unocc",
				"energy": -0.08591,
				"method": "rhf"
			},
			{
				"type": "unocc",
				"energy": -0.03068,
				"method": "rhf"
			},
			{
				"type": "unocc",
				"energy": 0.00425,
				"method": "rhf"
			},
			{
				"type": "unocc",
				"energy": 0.04629,
				"method": "rhf"
			},
			{
				"type": "unocc",
				"energy": 0.0694,
				"method": "rhf"
			}
		],
		"cosmo_sigma_profile": { 
			"-0.025": 0.0,
			"-0.024": 0.0,
			"-0.023": 0.0,
			"-0.022": 0.0,
			"-0.021": 0.0,
			"-0.02": 0.0,
			"-0.019": 0.0,
			"-0.018": 0.0,
			"-0.017": 0.0,
			"-0.016": 0.0,
			"-0.015": 0.0,
			"-0.014": 0.0,
			"-0.013": 0.0,
			"-0.012": 0.0,
			"-0.011": 0.0,
			"-0.01": 0.0,
			"-0.009": 0.189340212034,
			"-0.008": 4.09923002862,
			"-0.007": 5.94271248739,
			"-0.006": 14.2550079879,
			"-0.005": 23.406637079,
			"-0.004": 33.4092068352,
			"-0.003": 27.6539559746,
			"-0.002": 25.9292472206,
			"-0.001": 30.6839424682,
			"0.0": 35.044430343,
			"0.001": 21.5653827335,
			"0.002": 13.6210784355,
			"0.003": 7.58820128337,
			"0.004": 7.15800710409,
			"0.005": 6.90405625363,
			"0.006": 7.28985853683,
			"0.007": 10.4326031316,
			"0.008": 9.98487591312,
			"0.009": 6.37842208652,
			"0.01": 3.9140314564,
			"0.011": 1.54365457782,
			"0.012": 1.64557463106,
			"0.013": 5.77063589787,
			"0.014": 3.00217334814,
			"0.015": 0.0,
			"0.016": 0.0,
			"0.017": 0.0,
			"0.018": 0.0,
			"0.019": 0.0,
			"0.02": 0.0,
			"0.021": 0.0,
			"0.022": 0.0,
			"0.023": 0.0,
			"0.024": 0.0,
			"0.025": 0.0
		}
	}
}
