{
	 "smiles": "OC1=C(Br)C=C(Br)C=N1", 
	 "Tm": 483.15, 
	 "num_atms": 12, 
	 "gaussian": { 
		 "optdone": 1, 
		 "sigma_profile": "yes", 
		 "theory": "DFT", 
		 "functional": "B3LYP", 
		 "basiset": "6-31G**", 
		 "properties": { 
			 "R2extent": 4625.4096, 
			 "electric_dipole_moment_norm": 0.802792040319, 
			 "electric_quadrupole_moment_norm": 3.90555666583, 
			 "total_energy": -5465.11791586, 
			 "HOMO_LUMO_gap": 0.19195, 
			 "cosmo_polarized_energy": -6.92, 
			 "cosmo_cavitation_energy": 21.49, 
			 "cosmo_dispersion_energy": -17.03, 
			 "cosmo_repulsion_energy": 1.4, 
			 "cosmo_total_nonelectrostatic_energy": 5.86, 
			 "SMD_solvation_energy": 0.68 
		},
		"coords": [
			{
				"x": -0.3692489593,
				"y": -0.8189402743,
				"z": 1.9512754402,
				"element": "O" 
			},
			{
				"x": -0.6464562832,
				"y": -0.1409684581,
				"z": 0.8238828588,
				"element": "C" 
			},
			{
				"x": -1.9847114431,
				"y": 0.0462975319,
				"z": 0.4315204407,
				"element": "C" 
			},
			{
				"x": -3.4098336939,
				"y": -0.6475948868,
				"z": 1.475061102,
				"element": "Br" 
			},
			{
				"x": -2.2424979855,
				"y": 0.7499350561,
				"z": -0.7365855546,
				"element": "C" 
			},
			{
				"x": -1.1611438473,
				"y": 1.2412597094,
				"z": -1.4713958664,
				"element": "C" 
			},
			{
				"x": -1.4500422593,
				"y": 2.2142580182,
				"z": -3.0824145262,
				"element": "Br" 
			},
			{
				"x": 0.1318916044,
				"y": 1.0115612627,
				"z": -1.0126184321,
				"element": "C" 
			},
			{
				"x": 0.3735772398,
				"y": 0.3326965584,
				"z": 0.1140189259,
				"element": "N" 
			},
			{
				"x": 0.5980428425,
				"y": -0.8287901495,
				"z": 2.0293654097,
				"element": "H" 
			},
			{
				"x": -3.2616970304,
				"y": 0.9110187222,
				"z": -1.0655927978,
				"element": "H" 
			},
			{
				"x": 0.9933198153,
				"y": 1.3805669099,
				"z": -1.5614170002,
				"element": "H" 
			}
		],
		 "valence_orbital": [ 
			{
				"type": "occ",
				"energy": -0.31267,
				"method": "rhf"
			},
			{
				"type": "occ",
				"energy": -0.29744,
				"method": "rhf"
			},
			{
				"type": "occ",
				"energy": -0.28587,
				"method": "rhf"
			},
			{
				"type": "occ",
				"energy": -0.27793,
				"method": "rhf"
			},
			{
				"type": "occ",
				"energy": -0.2408,
				"method": "rhf"
			},
			{
				"type": "unocc",
				"energy": -0.04885,
				"method": "rhf"
			},
			{
				"type": "unocc",
				"energy": -0.02265,
				"method": "rhf"
			},
			{
				"type": "unocc",
				"energy": -0.01943,
				"method": "rhf"
			},
			{
				"type": "unocc",
				"energy": 0.01641,
				"method": "rhf"
			},
			{
				"type": "unocc",
				"energy": 0.07725,
				"method": "rhf"
			}
		],
		"cosmo_sigma_profile": { 
			"-0.025": 0.0,
			"-0.024": 0.0,
			"-0.023": 0.0,
			"-0.022": 0.0,
			"-0.021": 0.0,
			"-0.02": 0.0,
			"-0.019": 0.00415070127578,
			"-0.018": 0.50210621682,
			"-0.017": 0.925899451247,
			"-0.016": 0.688171936239,
			"-0.015": 0.79252187377,
			"-0.014": 0.79442096433,
			"-0.013": 0.590084115317,
			"-0.012": 0.401552475264,
			"-0.011": 0.861856804162,
			"-0.01": 0.856306946754,
			"-0.009": 1.7820267372,
			"-0.008": 3.80708098939,
			"-0.007": 3.98132577841,
			"-0.006": 4.15902011915,
			"-0.005": 6.66385658564,
			"-0.004": 7.11492652626,
			"-0.003": 8.06759963551,
			"-0.002": 13.4296106627,
			"-0.001": 18.2814925195,
			"0.0": 21.8451584368,
			"0.001": 13.5507497855,
			"0.002": 13.2355326706,
			"0.003": 19.12894762,
			"0.004": 18.564003048,
			"0.005": 4.62460025861,
			"0.006": 3.72747503816,
			"0.007": 2.25531169895,
			"0.008": 2.5729213664,
			"0.009": 3.24589707502,
			"0.01": 2.04318029963,
			"0.011": 0.927737385224,
			"0.012": 0.304137712239,
			"0.013": 0.0,
			"0.014": 0.0,
			"0.015": 0.0,
			"0.016": 0.0,
			"0.017": 0.0,
			"0.018": 0.0,
			"0.019": 0.0,
			"0.02": 0.0,
			"0.021": 0.0,
			"0.022": 0.0,
			"0.023": 0.0,
			"0.024": 0.0,
			"0.025": 0.0
		}
	}
}
