{
	 "smiles": "FC(F)(F)C1=NNC=C1", 
	 "Tm": 319.15, 
	 "num_atms": 12, 
	 "gaussian": { 
		 "optdone": 1, 
		 "sigma_profile": "yes", 
		 "theory": "DFT", 
		 "functional": "B3LYP", 
		 "basiset": "6-31G**", 
		 "properties": { 
			 "R2extent": 1262.4479, 
			 "electric_dipole_moment_norm": 4.58769970029, 
			 "electric_quadrupole_moment_norm": 13.1152425948, 
			 "total_energy": -563.233284568, 
			 "HOMO_LUMO_gap": 0.26135, 
			 "cosmo_polarized_energy": -10.05, 
			 "cosmo_cavitation_energy": 18.1, 
			 "cosmo_dispersion_energy": -13.15, 
			 "cosmo_repulsion_energy": 1.04, 
			 "cosmo_total_nonelectrostatic_energy": 5.99, 
			 "SMD_solvation_energy": 3.93 
		},
		"coords": [
			{
				"x": -1.4903567735,
				"y": -0.1479240096,
				"z": 1.8633559597,
				"element": "F" 
			},
			{
				"x": -0.8161957482,
				"y": -0.1380319627,
				"z": 0.6953364374,
				"element": "C" 
			},
			{
				"x": -1.0508889866,
				"y": -1.3188542883,
				"z": 0.0780031805,
				"element": "F" 
			},
			{
				"x": -1.3579359524,
				"y": 0.8344353138,
				"z": -0.0660355221,
				"element": "F" 
			},
			{
				"x": 0.6551018433,
				"y": 0.0538779778,
				"z": 0.8939830674,
				"element": "C" 
			},
			{
				"x": 1.1128733123,
				"y": 1.155969115,
				"z": 1.4865632925,
				"element": "N" 
			},
			{
				"x": 2.4443633136,
				"y": 0.9862848046,
				"z": 1.4913641939,
				"element": "N" 
			},
			{
				"x": 2.8450761364,
				"y": -0.1830725755,
				"z": 0.9234278697,
				"element": "C" 
			},
			{
				"x": 1.6936665125,
				"y": -0.8264325691,
				"z": 0.5168183722,
				"element": "C" 
			},
			{
				"x": 3.0230392114,
				"y": 1.7059072776,
				"z": 1.8974708154,
				"element": "H" 
			},
			{
				"x": 3.8871258609,
				"y": -0.4577987567,
				"z": 0.8549604344,
				"element": "H" 
			},
			{
				"x": 1.6064312701,
				"y": -1.7816603269,
				"z": 0.024351899,
				"element": "H" 
			}
		],
		 "valence_orbital": [ 
			{
				"type": "occ",
				"energy": -0.38822,
				"method": "rhf"
			},
			{
				"type": "occ",
				"energy": -0.37686,
				"method": "rhf"
			},
			{
				"type": "occ",
				"energy": -0.31026,
				"method": "rhf"
			},
			{
				"type": "occ",
				"energy": -0.27906,
				"method": "rhf"
			},
			{
				"type": "occ",
				"energy": -0.26661,
				"method": "rhf"
			},
			{
				"type": "unocc",
				"energy": -0.00526,
				"method": "rhf"
			},
			{
				"type": "unocc",
				"energy": 0.04015,
				"method": "rhf"
			},
			{
				"type": "unocc",
				"energy": 0.06528,
				"method": "rhf"
			},
			{
				"type": "unocc",
				"energy": 0.11508,
				"method": "rhf"
			},
			{
				"type": "unocc",
				"energy": 0.14268,
				"method": "rhf"
			}
		],
		"cosmo_sigma_profile": { 
			"-0.025": 0.0,
			"-0.024": 0.0,
			"-0.023": 0.0,
			"-0.022": 0.0,
			"-0.021": 0.0,
			"-0.02": 0.0,
			"-0.019": 0.0,
			"-0.018": 0.324952245187,
			"-0.017": 2.10948042768,
			"-0.016": 1.21498489756,
			"-0.015": 1.12860609955,
			"-0.014": 1.06522934608,
			"-0.013": 1.05619585752,
			"-0.012": 1.26570388799,
			"-0.011": 0.984937108016,
			"-0.01": 2.50478767407,
			"-0.009": 2.81993991308,
			"-0.008": 2.95864822709,
			"-0.007": 3.65580552483,
			"-0.006": 3.40642848465,
			"-0.005": 4.06000980877,
			"-0.004": 4.00700494132,
			"-0.003": 2.44838923748,
			"-0.002": 5.36920771308,
			"-0.001": 7.43130904108,
			"0.0": 7.19416909315,
			"0.001": 9.53714740714,
			"0.002": 22.3565344622,
			"0.003": 36.5982072661,
			"0.004": 8.20633852417,
			"0.005": 2.95198461369,
			"0.006": 2.76080917727,
			"0.007": 1.31798093961,
			"0.008": 1.11353314649,
			"0.009": 0.756309804929,
			"0.01": 1.24038558618,
			"0.011": 1.10834862675,
			"0.012": 0.948164643381,
			"0.013": 0.91692506156,
			"0.014": 0.744218581681,
			"0.015": 0.0716146726669,
			"0.016": 0.0,
			"0.017": 0.0,
			"0.018": 0.0,
			"0.019": 0.0,
			"0.02": 0.0,
			"0.021": 0.0,
			"0.022": 0.0,
			"0.023": 0.0,
			"0.024": 0.0,
			"0.025": 0.0
		}
	}
}
