{
	 "smiles": "CCCCCCCCCCCCCC(C)O", 
	 "Tm": 308.15, 
	 "num_atms": 48, 
	 "gaussian": { 
		 "optdone": 1, 
		 "sigma_profile": "yes", 
		 "theory": "DFT", 
		 "functional": "B3LYP", 
		 "basiset": "6-31G**", 
		 "properties": { 
			 "R2extent": 8355.8379, 
			 "electric_dipole_moment_norm": 1.67007871371, 
			 "electric_quadrupole_moment_norm": 13.654415833, 
			 "total_energy": -666.141144221, 
			 "HOMO_LUMO_gap": 0.32757, 
			 "cosmo_polarized_energy": -6.23, 
			 "cosmo_cavitation_energy": 46.47, 
			 "cosmo_dispersion_energy": -30.86, 
			 "cosmo_repulsion_energy": 2.51, 
			 "cosmo_total_nonelectrostatic_energy": 18.12, 
			 "SMD_solvation_energy": 6.2 
		},
		"coords": [
			{
				"x": 1.8127831352,
				"y": 0.9751147199,
				"z": 3.702357141,
				"element": "C" 
			},
			{
				"x": 2.0460823162,
				"y": 2.4179616073,
				"z": 3.2388413077,
				"element": "C" 
			},
			{
				"x": 3.4354460316,
				"y": 2.6691777507,
				"z": 2.6261265001,
				"element": "C" 
			},
			{
				"x": 3.7356377971,
				"y": 1.9333441199,
				"z": 1.3074734033,
				"element": "C" 
			},
			{
				"x": 2.8587764363,
				"y": 2.3723503381,
				"z": 0.124717205,
				"element": "C" 
			},
			{
				"x": 3.3175514686,
				"y": 1.8315714303,
				"z": -1.241786502,
				"element": "C" 
			},
			{
				"x": 3.3124812223,
				"y": 0.3045891231,
				"z": -1.4570672344,
				"element": "C" 
			},
			{
				"x": 1.9303621364,
				"y": -0.3764657086,
				"z": -1.5554406117,
				"element": "C" 
			},
			{
				"x": 1.293825504,
				"y": -0.7927190408,
				"z": -0.2186736012,
				"element": "C" 
			},
			{
				"x": -0.0024717783,
				"y": -1.6103827564,
				"z": -0.3579932915,
				"element": "C" 
			},
			{
				"x": -1.1891333046,
				"y": -0.8280826872,
				"z": -0.9416415224,
				"element": "C" 
			},
			{
				"x": -2.4919496329,
				"y": -1.6381963474,
				"z": -1.0712459889,
				"element": "C" 
			},
			{
				"x": -3.1409388679,
				"y": -2.0204223743,
				"z": 0.2666485755,
				"element": "C" 
			},
			{
				"x": -4.4081544773,
				"y": -2.8818958643,
				"z": 0.1459920341,
				"element": "C" 
			},
			{
				"x": -5.5774975409,
				"y": -2.1672698751,
				"z": -0.5224860713,
				"element": "C" 
			},
			{
				"x": -4.8776374218,
				"y": -3.2683187849,
				"z": 1.4399411527,
				"element": "O" 
			},
			{
				"x": 0.8319000102,
				"y": 0.8669867558,
				"z": 4.1772197857,
				"element": "H" 
			},
			{
				"x": 1.8530439195,
				"y": 0.2654688106,
				"z": 2.8695308072,
				"element": "H" 
			},
			{
				"x": 2.5707804876,
				"y": 0.6690332482,
				"z": 4.4330897969,
				"element": "H" 
			},
			{
				"x": 1.2649472333,
				"y": 2.7043054494,
				"z": 2.5229196175,
				"element": "H" 
			},
			{
				"x": 1.9227247882,
				"y": 3.0902309021,
				"z": 4.0976714951,
				"element": "H" 
			},
			{
				"x": 4.1980791394,
				"y": 2.3906060906,
				"z": 3.3666257543,
				"element": "H" 
			},
			{
				"x": 3.5567071901,
				"y": 3.7483437712,
				"z": 2.4585354402,
				"element": "H" 
			},
			{
				"x": 3.649016317,
				"y": 0.8502755633,
				"z": 1.4588171472,
				"element": "H" 
			},
			{
				"x": 4.7879054542,
				"y": 2.1136543006,
				"z": 1.0465688679,
				"element": "H" 
			},
			{
				"x": 1.8126276054,
				"y": 2.0985453553,
				"z": 0.3048448598,
				"element": "H" 
			},
			{
				"x": 2.8714223356,
				"y": 3.4703573426,
				"z": 0.0720008173,
				"element": "H" 
			},
			{
				"x": 2.6988159042,
				"y": 2.2899760152,
				"z": -2.0257744968,
				"element": "H" 
			},
			{
				"x": 4.3402502362,
				"y": 2.1925725663,
				"z": -1.4203676566,
				"element": "H" 
			},
			{
				"x": 3.8456068864,
				"y": 0.1183609081,
				"z": -2.3981262306,
				"element": "H" 
			},
			{
				"x": 3.9103261894,
				"y": -0.1906029421,
				"z": -0.6800461437,
				"element": "H" 
			},
			{
				"x": 2.0356597407,
				"y": -1.2837555975,
				"z": -2.1666474502,
				"element": "H" 
			},
			{
				"x": 1.2494031278,
				"y": 0.2803397538,
				"z": -2.1129812814,
				"element": "H" 
			},
			{
				"x": 1.0912957817,
				"y": 0.0896088341,
				"z": 0.4007600967,
				"element": "H" 
			},
			{
				"x": 2.0260560675,
				"y": -1.3927153476,
				"z": 0.3390782314,
				"element": "H" 
			},
			{
				"x": -0.2720187984,
				"y": -1.9976428572,
				"z": 0.63249783,
				"element": "H" 
			},
			{
				"x": 0.1914001061,
				"y": -2.4919734486,
				"z": -0.9868079141,
				"element": "H" 
			},
			{
				"x": -1.3763078162,
				"y": 0.0606262088,
				"z": -0.3215184106,
				"element": "H" 
			},
			{
				"x": -0.9199645411,
				"y": -0.4518007451,
				"z": -1.9360009152,
				"element": "H" 
			},
			{
				"x": -2.2929032855,
				"y": -2.549215643,
				"z": -1.6545053245,
				"element": "H" 
			},
			{
				"x": -3.2061782713,
				"y": -1.0511447839,
				"z": -1.6612142006,
				"element": "H" 
			},
			{
				"x": -3.3911459023,
				"y": -1.1155607447,
				"z": 0.8368672995,
				"element": "H" 
			},
			{
				"x": -2.4165439511,
				"y": -2.5793493296,
				"z": 0.8763750946,
				"element": "H" 
			},
			{
				"x": -4.161531471,
				"y": -3.781713591,
				"z": -0.4459277506,
				"element": "H" 
			},
			{
				"x": -6.4613158949,
				"y": -2.8110053571,
				"z": -0.5101413229,
				"element": "H" 
			},
			{
				"x": -5.8190711573,
				"y": -1.2465835998,
				"z": 0.0193016309,
				"element": "H" 
			},
			{
				"x": -5.3500866817,
				"y": -1.9136719271,
				"z": -1.5615795826,
				"element": "H" 
			},
			{
				"x": -4.150063774,
				"y": -3.708611612,
				"z": 1.8982716122,
				"element": "H" 
			}
		],
		 "valence_orbital": [ 
			{
				"type": "occ",
				"energy": -0.30528,
				"method": "rhf"
			},
			{
				"type": "occ",
				"energy": -0.30146,
				"method": "rhf"
			},
			{
				"type": "occ",
				"energy": -0.29934,
				"method": "rhf"
			},
			{
				"type": "occ",
				"energy": -0.29755,
				"method": "rhf"
			},
			{
				"type": "occ",
				"energy": -0.25702,
				"method": "rhf"
			},
			{
				"type": "unocc",
				"energy": 0.07055,
				"method": "rhf"
			},
			{
				"type": "unocc",
				"energy": 0.07853,
				"method": "rhf"
			},
			{
				"type": "unocc",
				"energy": 0.09388,
				"method": "rhf"
			},
			{
				"type": "unocc",
				"energy": 0.09583,
				"method": "rhf"
			},
			{
				"type": "unocc",
				"energy": 0.0988,
				"method": "rhf"
			}
		],
		"cosmo_sigma_profile": { 
			"-0.025": 0.0,
			"-0.024": 0.0,
			"-0.023": 0.0,
			"-0.022": 0.0,
			"-0.021": 0.0,
			"-0.02": 0.0,
			"-0.019": 0.0,
			"-0.018": 0.0,
			"-0.017": 0.0,
			"-0.016": 0.0,
			"-0.015": 0.126836020564,
			"-0.014": 0.934478414742,
			"-0.013": 0.937504516631,
			"-0.012": 1.26219356393,
			"-0.011": 0.782850491413,
			"-0.01": 0.994123130969,
			"-0.009": 1.0475233593,
			"-0.008": 0.781804172779,
			"-0.007": 0.835672632799,
			"-0.006": 0.976128891116,
			"-0.005": 1.6506455342,
			"-0.004": 1.78174683493,
			"-0.003": 9.51646846228,
			"-0.002": 43.5251881698,
			"-0.001": 82.9155808365,
			"0.0": 87.3187829936,
			"0.001": 71.9148999382,
			"0.002": 27.9761408718,
			"0.003": 2.61992145242,
			"0.004": 1.07565854585,
			"0.005": 1.03713769524,
			"0.006": 1.74521781803,
			"0.007": 1.12803121019,
			"0.008": 1.50812609664,
			"0.009": 1.05690253981,
			"0.01": 1.1702006738,
			"0.011": 1.59167829764,
			"0.012": 1.32017442926,
			"0.013": 1.53038961584,
			"0.014": 1.91636659859,
			"0.015": 1.55408758807,
			"0.016": 0.0,
			"0.017": 0.0,
			"0.018": 0.0,
			"0.019": 0.0,
			"0.02": 0.0,
			"0.021": 0.0,
			"0.022": 0.0,
			"0.023": 0.0,
			"0.024": 0.0,
			"0.025": 0.0
		}
	}
}
