{
	 "smiles": "CCN1N=C(CC1=O)C(F)(F)F", 
	 "Tm": 443.15, 
	 "num_atms": 19, 
	 "gaussian": { 
		 "optdone": 1, 
		 "sigma_profile": "yes", 
		 "theory": "DFT", 
		 "functional": "B3LYP", 
		 "basiset": "6-31G**", 
		 "properties": { 
			 "R2extent": 2506.159, 
			 "electric_dipole_moment_norm": 0.832021093483, 
			 "electric_quadrupole_moment_norm": 10.5721257858, 
			 "total_energy": -717.089429079, 
			 "HOMO_LUMO_gap": 0.19654, 
			 "cosmo_polarized_energy": -8.98, 
			 "cosmo_cavitation_energy": 24.99, 
			 "cosmo_dispersion_energy": -17.47, 
			 "cosmo_repulsion_energy": 1.38, 
			 "cosmo_total_nonelectrostatic_energy": 8.9, 
			 "SMD_solvation_energy": 5.47 
		},
		"coords": [
			{
				"x": -3.3173267899,
				"y": -0.226674581,
				"z": -1.1079493262,
				"element": "C" 
			},
			{
				"x": -2.7689048704,
				"y": 1.0800335477,
				"z": -0.534035885,
				"element": "C" 
			},
			{
				"x": -1.6516911237,
				"y": 0.8721637354,
				"z": 0.3764790052,
				"element": "N" 
			},
			{
				"x": -0.4441660892,
				"y": 0.4153963943,
				"z": -0.0993927071,
				"element": "N" 
			},
			{
				"x": 0.3570486666,
				"y": 0.2950828419,
				"z": 0.9016597152,
				"element": "C" 
			},
			{
				"x": -0.2632438632,
				"y": 0.6741037483,
				"z": 2.2114377765,
				"element": "C" 
			},
			{
				"x": -1.6745459441,
				"y": 1.0602813652,
				"z": 1.7554679977,
				"element": "C" 
			},
			{
				"x": -2.6222026169,
				"y": 1.4483608938,
				"z": 2.4083851912,
				"element": "O" 
			},
			{
				"x": 1.7655652848,
				"y": -0.1774033685,
				"z": 0.7266794237,
				"element": "C" 
			},
			{
				"x": 2.6350327049,
				"y": 0.7611240212,
				"z": 1.1707875913,
				"element": "F" 
			},
			{
				"x": 2.0623778323,
				"y": -0.4560579042,
				"z": -0.5470875862,
				"element": "F" 
			},
			{
				"x": 1.982497646,
				"y": -1.2901084371,
				"z": 1.467754062,
				"element": "F" 
			},
			{
				"x": -4.139271003,
				"y": -0.0155180169,
				"z": -1.7989683708,
				"element": "H" 
			},
			{
				"x": -2.5387366104,
				"y": -0.7655122867,
				"z": -1.6550332858,
				"element": "H" 
			},
			{
				"x": -3.6958368573,
				"y": -0.8746391819,
				"z": -0.3118948581,
				"element": "H" 
			},
			{
				"x": -2.4374446944,
				"y": 1.7480766707,
				"z": -1.3358703,
				"element": "H" 
			},
			{
				"x": -3.5255078595,
				"y": 1.6026766919,
				"z": 0.0566146916,
				"element": "H" 
			},
			{
				"x": -0.2935850376,
				"y": -0.149667131,
				"z": 2.9325534532,
				"element": "H" 
			},
			{
				"x": 0.2358412249,
				"y": 1.5183809969,
				"z": 2.6992134115,
				"element": "H" 
			}
		],
		 "valence_orbital": [ 
			{
				"type": "occ",
				"energy": -0.3777,
				"method": "rhf"
			},
			{
				"type": "occ",
				"energy": -0.36472,
				"method": "rhf"
			},
			{
				"type": "occ",
				"energy": -0.33597,
				"method": "rhf"
			},
			{
				"type": "occ",
				"energy": -0.27052,
				"method": "rhf"
			},
			{
				"type": "occ",
				"energy": -0.25113,
				"method": "rhf"
			},
			{
				"type": "unocc",
				"energy": -0.05459,
				"method": "rhf"
			},
			{
				"type": "unocc",
				"energy": 0.01887,
				"method": "rhf"
			},
			{
				"type": "unocc",
				"energy": 0.09699,
				"method": "rhf"
			},
			{
				"type": "unocc",
				"energy": 0.10552,
				"method": "rhf"
			},
			{
				"type": "unocc",
				"energy": 0.10818,
				"method": "rhf"
			}
		],
		"cosmo_sigma_profile": { 
			"-0.025": 0.0,
			"-0.024": 0.0,
			"-0.023": 0.0,
			"-0.022": 0.0,
			"-0.021": 0.0,
			"-0.02": 0.0,
			"-0.019": 0.0,
			"-0.018": 0.0,
			"-0.017": 0.0,
			"-0.016": 0.0,
			"-0.015": 0.0,
			"-0.014": 0.0,
			"-0.013": 0.0,
			"-0.012": 0.0,
			"-0.011": 0.0,
			"-0.01": 0.602984538609,
			"-0.009": 4.4614584901,
			"-0.008": 4.74630034428,
			"-0.007": 5.18735081654,
			"-0.006": 7.56594842283,
			"-0.005": 10.0657479211,
			"-0.004": 13.6496661049,
			"-0.003": 18.5300565945,
			"-0.002": 17.5206498428,
			"-0.001": 14.5696224091,
			"0.0": 16.1607529519,
			"0.001": 10.9622932013,
			"0.002": 28.8423329728,
			"0.003": 15.965969087,
			"0.004": 3.14041071053,
			"0.005": 2.95976757434,
			"0.006": 2.74117254841,
			"0.007": 2.36709802538,
			"0.008": 2.53915888886,
			"0.009": 2.57736076339,
			"0.01": 2.68713704205,
			"0.011": 3.01235623233,
			"0.012": 5.99975123577,
			"0.013": 1.74841714082,
			"0.014": 0.0353409904335,
			"0.015": 0.0,
			"0.016": 0.0,
			"0.017": 0.0,
			"0.018": 0.0,
			"0.019": 0.0,
			"0.02": 0.0,
			"0.021": 0.0,
			"0.022": 0.0,
			"0.023": 0.0,
			"0.024": 0.0,
			"0.025": 0.0
		}
	}
}
