{
	 "smiles": "OC(=O)C1=C(F)C=CC(Cl)=C1", 
	 "Tm": 422.15, 
	 "num_atms": 15, 
	 "gaussian": { 
		 "optdone": 1, 
		 "sigma_profile": "yes", 
		 "theory": "DFT", 
		 "functional": "B3LYP", 
		 "basiset": "6-31G**", 
		 "properties": { 
			 "R2extent": 2922.571, 
			 "electric_dipole_moment_norm": 2.02716644359, 
			 "electric_quadrupole_moment_norm": 7.21192288298, 
			 "total_energy": -979.64203285, 
			 "HOMO_LUMO_gap": 0.19008, 
			 "cosmo_polarized_energy": -9.12, 
			 "cosmo_cavitation_energy": 22.44, 
			 "cosmo_dispersion_energy": -16.72, 
			 "cosmo_repulsion_energy": 1.33, 
			 "cosmo_total_nonelectrostatic_energy": 7.05, 
			 "SMD_solvation_energy": 5.36 
		},
		"coords": [
			{
				"x": -0.7429257823,
				"y": 0.6457178581,
				"z": -3.4997837652,
				"element": "O" 
			},
			{
				"x": -1.1754611992,
				"y": 1.170140368,
				"z": -2.3351779799,
				"element": "C" 
			},
			{
				"x": -1.4344010104,
				"y": 2.3509162298,
				"z": -2.2088328598,
				"element": "O" 
			},
			{
				"x": -1.3061639905,
				"y": 0.1798828507,
				"z": -1.2267295121,
				"element": "C" 
			},
			{
				"x": -1.0224638704,
				"y": -1.1898414232,
				"z": -1.3166228975,
				"element": "C" 
			},
			{
				"x": -0.5918187419,
				"y": -1.7345033623,
				"z": -2.4628978097,
				"element": "F" 
			},
			{
				"x": -1.1762419167,
				"y": -2.0373159418,
				"z": -0.2223277324,
				"element": "C" 
			},
			{
				"x": -1.620397687,
				"y": -1.5259804379,
				"z": 0.9930141072,
				"element": "C" 
			},
			{
				"x": -1.9068368236,
				"y": -0.1619144183,
				"z": 1.0967609207,
				"element": "C" 
			},
			{
				"x": -2.467453988,
				"y": 0.4876542029,
				"z": 2.627773872,
				"element": "Cl" 
			},
			{
				"x": -1.7537087952,
				"y": 0.682546648,
				"z": 0.006211154,
				"element": "C" 
			},
			{
				"x": -0.7055372024,
				"y": 1.3917398827,
				"z": -4.1221772001,
				"element": "H" 
			},
			{
				"x": -0.9442971391,
				"y": -3.0899492629,
				"z": -0.3404465064,
				"element": "H" 
			},
			{
				"x": -1.7437240582,
				"y": -2.1762822931,
				"z": 1.8517703708,
				"element": "H" 
			},
			{
				"x": -1.973167795,
				"y": 1.7412890996,
				"z": 0.0756658384,
				"element": "H" 
			}
		],
		 "valence_orbital": [ 
			{
				"type": "occ",
				"energy": -0.32676,
				"method": "rhf"
			},
			{
				"type": "occ",
				"energy": -0.32325,
				"method": "rhf"
			},
			{
				"type": "occ",
				"energy": -0.29017,
				"method": "rhf"
			},
			{
				"type": "occ",
				"energy": -0.28481,
				"method": "rhf"
			},
			{
				"type": "occ",
				"energy": -0.25551,
				"method": "rhf"
			},
			{
				"type": "unocc",
				"energy": -0.06543,
				"method": "rhf"
			},
			{
				"type": "unocc",
				"energy": -0.02438,
				"method": "rhf"
			},
			{
				"type": "unocc",
				"energy": 0.01895,
				"method": "rhf"
			},
			{
				"type": "unocc",
				"energy": 0.0388,
				"method": "rhf"
			},
			{
				"type": "unocc",
				"energy": 0.0758,
				"method": "rhf"
			}
		],
		"cosmo_sigma_profile": { 
			"-0.025": 0.0,
			"-0.024": 0.0,
			"-0.023": 0.0,
			"-0.022": 0.0,
			"-0.021": 0.0,
			"-0.02": 0.0,
			"-0.019": 0.217699468591,
			"-0.018": 0.828662235762,
			"-0.017": 0.846053297471,
			"-0.016": 1.49186474694,
			"-0.015": 0.614588530743,
			"-0.014": 0.346595856456,
			"-0.013": 0.149716179034,
			"-0.012": 0.880985411953,
			"-0.011": 1.40711943376,
			"-0.01": 0.416004902839,
			"-0.009": 2.14552129691,
			"-0.008": 4.54726342464,
			"-0.007": 5.63605990157,
			"-0.006": 5.34762749114,
			"-0.005": 5.18246125321,
			"-0.004": 7.52200118417,
			"-0.003": 9.12216559301,
			"-0.002": 12.0158077373,
			"-0.001": 18.1876828994,
			"0.0": 21.0774747947,
			"0.001": 19.0543710087,
			"0.002": 10.4847876714,
			"0.003": 13.2994611078,
			"0.004": 16.0642497859,
			"0.005": 5.18695732479,
			"0.006": 2.84993601884,
			"0.007": 3.0699606663,
			"0.008": 3.9604975429,
			"0.009": 2.54916258352,
			"0.01": 2.46859444971,
			"0.011": 4.68951637235,
			"0.012": 1.38812791918,
			"0.013": 0.0,
			"0.014": 0.0,
			"0.015": 0.0,
			"0.016": 0.0,
			"0.017": 0.0,
			"0.018": 0.0,
			"0.019": 0.0,
			"0.02": 0.0,
			"0.021": 0.0,
			"0.022": 0.0,
			"0.023": 0.0,
			"0.024": 0.0,
			"0.025": 0.0
		}
	}
}
