{
	 "smiles": "NCC1=CC(NC(=O)CN2C=CC=N2)=CC=C1", 
	 "Tm": 387.15, 
	 "num_atms": 31, 
	 "gaussian": { 
		 "optdone": 1, 
		 "sigma_profile": "yes", 
		 "theory": "DFT", 
		 "functional": "B3LYP", 
		 "basiset": "6-31G**", 
		 "properties": { 
			 "R2extent": 5652.9845, 
			 "electric_dipole_moment_norm": 4.27810638718, 
			 "electric_quadrupole_moment_norm": 13.507258425, 
			 "total_energy": -759.93657448, 
			 "HOMO_LUMO_gap": 0.20151, 
			 "cosmo_polarized_energy": -15.67, 
			 "cosmo_cavitation_energy": 35.32, 
			 "cosmo_dispersion_energy": -24.97, 
			 "cosmo_repulsion_energy": 1.94, 
			 "cosmo_total_nonelectrostatic_energy": 12.29, 
			 "SMD_solvation_energy": 4.74 
		},
		"coords": [
			{
				"x": 4.097104845,
				"y": 1.8225092554,
				"z": -1.063082228,
				"element": "N" 
			},
			{
				"x": 3.9161547267,
				"y": 0.3691187302,
				"z": -0.9096128949,
				"element": "C" 
			},
			{
				"x": 2.7272064997,
				"y": -0.0532712095,
				"z": -0.061459834,
				"element": "C" 
			},
			{
				"x": 1.4487947443,
				"y": -0.0961513702,
				"z": -0.6334873474,
				"element": "C" 
			},
			{
				"x": 0.3346295628,
				"y": -0.4244382643,
				"z": 0.1508774135,
				"element": "C" 
			},
			{
				"x": -0.9801646527,
				"y": -0.4913320675,
				"z": -0.358502334,
				"element": "N" 
			},
			{
				"x": -1.4176346729,
				"y": -0.2077205831,
				"z": -1.6179115967,
				"element": "C" 
			},
			{
				"x": -0.7271234589,
				"y": 0.138969325,
				"z": -2.5681244962,
				"element": "O" 
			},
			{
				"x": -2.930482398,
				"y": -0.4280317177,
				"z": -1.8381550726,
				"element": "C" 
			},
			{
				"x": -3.7999345197,
				"y": -0.0721416589,
				"z": -0.7279703467,
				"element": "N" 
			},
			{
				"x": -4.7098803502,
				"y": 0.935411322,
				"z": -0.6663409831,
				"element": "C" 
			},
			{
				"x": -5.2819980008,
				"y": 0.8860776421,
				"z": 0.5916745836,
				"element": "C" 
			},
			{
				"x": -4.6394461014,
				"y": -0.1943047972,
				"z": 1.2286173998,
				"element": "C" 
			},
			{
				"x": -3.744723905,
				"y": -0.7779188918,
				"z": 0.4279992042,
				"element": "N" 
			},
			{
				"x": 0.5061413076,
				"y": -0.7163031221,
				"z": 1.5143057468,
				"element": "C" 
			},
			{
				"x": 1.7771803472,
				"y": -0.679782346,
				"z": 2.0780050329,
				"element": "C" 
			},
			{
				"x": 2.8865335106,
				"y": -0.3498084342,
				"z": 1.2971949324,
				"element": "C" 
			},
			{
				"x": 4.1523154285,
				"y": 2.2493162068,
				"z": -0.1398638576,
				"element": "H" 
			},
			{
				"x": 3.2631888382,
				"y": 2.2166033183,
				"z": -1.4950554199,
				"element": "H" 
			},
			{
				"x": 3.82371388,
				"y": -0.0583543337,
				"z": -1.9143227884,
				"element": "H" 
			},
			{
				"x": 4.8372985095,
				"y": -0.0375119632,
				"z": -0.476723234,
				"element": "H" 
			},
			{
				"x": 1.3066242604,
				"y": 0.1184753014,
				"z": -1.6848511082,
				"element": "H" 
			},
			{
				"x": -1.7062408869,
				"y": -0.7814771901,
				"z": 0.295383938,
				"element": "H" 
			},
			{
				"x": -3.2077828388,
				"y": 0.1739990489,
				"z": -2.7029920683,
				"element": "H" 
			},
			{
				"x": -3.0922940176,
				"y": -1.4827196056,
				"z": -2.0875315284,
				"element": "H" 
			},
			{
				"x": -4.8812653222,
				"y": 1.5905179875,
				"z": -1.5079929867,
				"element": "H" 
			},
			{
				"x": -6.0506052736,
				"y": 1.5329707084,
				"z": 0.9862843675,
				"element": "H" 
			},
			{
				"x": -4.7895800886,
				"y": -0.5760481842,
				"z": 2.2295370839,
				"element": "H" 
			},
			{
				"x": -0.3567574073,
				"y": -0.9742556773,
				"z": 2.1231224135,
				"element": "H" 
			},
			{
				"x": 1.901705435,
				"y": -0.9140601771,
				"z": 3.1314804323,
				"element": "H" 
			},
			{
				"x": 3.8784219989,
				"y": -0.3282372521,
				"z": 1.7419975765,
				"element": "H" 
			}
		],
		 "valence_orbital": [ 
			{
				"type": "occ",
				"energy": -0.26465,
				"method": "rhf"
			},
			{
				"type": "occ",
				"energy": -0.25156,
				"method": "rhf"
			},
			{
				"type": "occ",
				"energy": -0.24719,
				"method": "rhf"
			},
			{
				"type": "occ",
				"energy": -0.22653,
				"method": "rhf"
			},
			{
				"type": "occ",
				"energy": -0.21717,
				"method": "rhf"
			},
			{
				"type": "unocc",
				"energy": -0.01566,
				"method": "rhf"
			},
			{
				"type": "unocc",
				"energy": -0.00135,
				"method": "rhf"
			},
			{
				"type": "unocc",
				"energy": -0.00123,
				"method": "rhf"
			},
			{
				"type": "unocc",
				"energy": 0.04058,
				"method": "rhf"
			},
			{
				"type": "unocc",
				"energy": 0.05607,
				"method": "rhf"
			}
		],
		"cosmo_sigma_profile": { 
			"-0.025": 0.0,
			"-0.024": 0.0,
			"-0.023": 0.0,
			"-0.022": 0.0,
			"-0.021": 0.0,
			"-0.02": 0.0,
			"-0.019": 0.0,
			"-0.018": 0.0,
			"-0.017": 0.0,
			"-0.016": 0.0,
			"-0.015": 0.0,
			"-0.014": 0.0,
			"-0.013": 0.0,
			"-0.012": 0.0,
			"-0.011": 0.0738151556037,
			"-0.01": 2.07583988109,
			"-0.009": 6.43512758754,
			"-0.008": 10.0606662643,
			"-0.007": 12.5064496817,
			"-0.006": 14.7321864209,
			"-0.005": 18.7487752196,
			"-0.004": 24.1639971936,
			"-0.003": 21.076539626,
			"-0.002": 17.251383438,
			"-0.001": 16.1605461535,
			"0.0": 16.1921031672,
			"0.001": 16.2310908244,
			"0.002": 15.9389009658,
			"0.003": 16.8292762881,
			"0.004": 17.1965794083,
			"0.005": 16.876119775,
			"0.006": 9.68442004834,
			"0.007": 3.46444739876,
			"0.008": 2.05461685332,
			"0.009": 3.36787941664,
			"0.01": 3.65725010417,
			"0.011": 3.25086843301,
			"0.012": 4.1350715151,
			"0.013": 4.1054323062,
			"0.014": 1.46594213119,
			"0.015": 0.374517522903,
			"0.016": 0.468480306121,
			"0.017": 1.04831820868,
			"0.018": 0.574870403976,
			"0.019": 0.577418153044,
			"0.02": 0.305371397916,
			"0.021": 0.0,
			"0.022": 0.0,
			"0.023": 0.0,
			"0.024": 0.0,
			"0.025": 0.0
		}
	}
}
