{
	 "smiles": "CC(C)(C)C1=CC2=C(C=C(C=C2C(=C1)[N+]([O-])=O)C(C)(C)C)[N+]([O-])=O", 
	 "Tm": 472.15, 
	 "num_atms": 46, 
	 "gaussian": { 
		 "optdone": 1, 
		 "sigma_profile": "yes", 
		 "theory": "DFT", 
		 "functional": "B3LYP", 
		 "basiset": "6-31G**", 
		 "properties": { 
			 "R2extent": 9392.8846, 
			 "electric_dipole_moment_norm": 0.348220461777, 
			 "electric_quadrupole_moment_norm": 34.8972969539, 
			 "total_energy": -1109.40341291, 
			 "HOMO_LUMO_gap": 0.14031, 
			 "cosmo_polarized_energy": -11.17, 
			 "cosmo_cavitation_energy": 47.26, 
			 "cosmo_dispersion_energy": -31.72, 
			 "cosmo_repulsion_energy": 2.38, 
			 "cosmo_total_nonelectrostatic_energy": 17.92, 
			 "SMD_solvation_energy": 12.31 
		},
		"coords": [
			{
				"x": 4.3315211403,
				"y": 0.5935934256,
				"z": -1.6073898351,
				"element": "C" 
			},
			{
				"x": 3.6601801987,
				"y": -0.8006594256,
				"z": -1.6114020284,
				"element": "C" 
			},
			{
				"x": 3.6277332017,
				"y": -1.3526521373,
				"z": -3.0568209651,
				"element": "C" 
			},
			{
				"x": 4.5106039225,
				"y": -1.7503024038,
				"z": -0.7464416579,
				"element": "C" 
			},
			{
				"x": 2.2180928543,
				"y": -0.6714067851,
				"z": -1.0866661753,
				"element": "C" 
			},
			{
				"x": 1.3120056459,
				"y": 0.1501450175,
				"z": -1.7381841993,
				"element": "C" 
			},
			{
				"x": -0.0260203277,
				"y": 0.3131082518,
				"z": -1.2999327359,
				"element": "C" 
			},
			{
				"x": -0.9737356616,
				"y": 1.1985826353,
				"z": -1.910851914,
				"element": "C" 
			},
			{
				"x": -2.2363813953,
				"y": 1.3926342973,
				"z": -1.4055365204,
				"element": "C" 
			},
			{
				"x": -2.6897127638,
				"y": 0.6978778515,
				"z": -0.2574805073,
				"element": "C" 
			},
			{
				"x": -1.8147309926,
				"y": -0.1842738633,
				"z": 0.3446770153,
				"element": "C" 
			},
			{
				"x": -0.4924316827,
				"y": -0.3975647762,
				"z": -0.1378112286,
				"element": "C" 
			},
			{
				"x": 0.4632468659,
				"y": -1.2522523792,
				"z": 0.4923537996,
				"element": "C" 
			},
			{
				"x": 1.7634959504,
				"y": -1.3728156292,
				"z": 0.0490496702,
				"element": "C" 
			},
			{
				"x": 0.1275799036,
				"y": -2.0779308548,
				"z": 1.6688981872,
				"element": "N" 
			},
			{
				"x": -1.0343966203,
				"y": -2.4663505384,
				"z": 1.808739937,
				"element": "O" 
			},
			{
				"x": 1.0445502702,
				"y": -2.3651604987,
				"z": 2.4379179469,
				"element": "O" 
			},
			{
				"x": -4.1175559718,
				"y": 0.9468237227,
				"z": 0.254196264,
				"element": "C" 
			},
			{
				"x": -4.4363535785,
				"y": 0.1171168834,
				"z": 1.5115303145,
				"element": "C" 
			},
			{
				"x": -5.1279308637,
				"y": 0.5633558424,
				"z": -0.8540861994,
				"element": "C" 
			},
			{
				"x": -4.2797739885,
				"y": 2.4461482826,
				"z": 0.6026230311,
				"element": "C" 
			},
			{
				"x": -0.6641354463,
				"y": 1.9638977895,
				"z": -3.1348062619,
				"element": "N" 
			},
			{
				"x": -1.2777205481,
				"y": 3.0152894298,
				"z": -3.3151624327,
				"element": "O" 
			},
			{
				"x": 0.1607177593,
				"y": 1.5045927206,
				"z": -3.9280159973,
				"element": "O" 
			},
			{
				"x": 4.3702537623,
				"y": 1.0094409944,
				"z": -0.5952430757,
				"element": "H" 
			},
			{
				"x": 3.7983020567,
				"y": 1.3056739923,
				"z": -2.2438444396,
				"element": "H" 
			},
			{
				"x": 5.3578780516,
				"y": 0.5175076316,
				"z": -1.9821590674,
				"element": "H" 
			},
			{
				"x": 4.6468423001,
				"y": -1.4419525143,
				"z": -3.4483440654,
				"element": "H" 
			},
			{
				"x": 3.1644443678,
				"y": -2.3442189459,
				"z": -3.0887953374,
				"element": "H" 
			},
			{
				"x": 3.0671134397,
				"y": -0.698885951,
				"z": -3.7311603479,
				"element": "H" 
			},
			{
				"x": 4.1059747858,
				"y": -2.7678077864,
				"z": -0.7344192236,
				"element": "H" 
			},
			{
				"x": 5.5239399641,
				"y": -1.8067798205,
				"z": -1.1554842994,
				"element": "H" 
			},
			{
				"x": 4.5934714198,
				"y": -1.4006414485,
				"z": 0.2880082912,
				"element": "H" 
			},
			{
				"x": 1.6215338744,
				"y": 0.6930708658,
				"z": -2.6181733183,
				"element": "H" 
			},
			{
				"x": -2.878629953,
				"y": 2.0961225305,
				"z": -1.919402509,
				"element": "H" 
			},
			{
				"x": -2.1251253882,
				"y": -0.7434954244,
				"z": 1.2119361744,
				"element": "H" 
			},
			{
				"x": 2.4200122724,
				"y": -2.0271948434,
				"z": 0.6046228382,
				"element": "H" 
			},
			{
				"x": -3.7692851499,
				"y": 0.3637215165,
				"z": 2.3438886061,
				"element": "H" 
			},
			{
				"x": -4.3640354429,
				"y": -0.9585456107,
				"z": 1.3221603092,
				"element": "H" 
			},
			{
				"x": -5.4598195963,
				"y": 0.3268840533,
				"z": 1.837250802,
				"element": "H" 
			},
			{
				"x": -4.9809236775,
				"y": 1.1499114368,
				"z": -1.766137484,
				"element": "H" 
			},
			{
				"x": -5.0397739873,
				"y": -0.4957318649,
				"z": -1.1168400101,
				"element": "H" 
			},
			{
				"x": -6.1512009177,
				"y": 0.7430641252,
				"z": -0.5074860962,
				"element": "H" 
			},
			{
				"x": -5.2966735341,
				"y": 2.6400674181,
				"z": 0.9601153475,
				"element": "H" 
			},
			{
				"x": -3.5808474997,
				"y": 2.744390471,
				"z": 1.3907660778,
				"element": "H" 
			},
			{
				"x": -4.1054990198,
				"y": 3.0926023161,
				"z": -0.2628566794,
				"element": "H" 
			}
		],
		 "valence_orbital": [ 
			{
				"type": "occ",
				"energy": -0.30791,
				"method": "rhf"
			},
			{
				"type": "occ",
				"energy": -0.29348,
				"method": "rhf"
			},
			{
				"type": "occ",
				"energy": -0.28967,
				"method": "rhf"
			},
			{
				"type": "occ",
				"energy": -0.26967,
				"method": "rhf"
			},
			{
				"type": "occ",
				"energy": -0.24643,
				"method": "rhf"
			},
			{
				"type": "unocc",
				"energy": -0.10612,
				"method": "rhf"
			},
			{
				"type": "unocc",
				"energy": -0.08483,
				"method": "rhf"
			},
			{
				"type": "unocc",
				"energy": -0.04239,
				"method": "rhf"
			},
			{
				"type": "unocc",
				"energy": -0.03694,
				"method": "rhf"
			},
			{
				"type": "unocc",
				"energy": 0.01944,
				"method": "rhf"
			}
		],
		"cosmo_sigma_profile": { 
			"-0.025": 0.0,
			"-0.024": 0.0,
			"-0.023": 0.0,
			"-0.022": 0.0,
			"-0.021": 0.0,
			"-0.02": 0.0,
			"-0.019": 0.0,
			"-0.018": 0.0,
			"-0.017": 0.0,
			"-0.016": 0.0,
			"-0.015": 0.0,
			"-0.014": 0.0,
			"-0.013": 0.0,
			"-0.012": 0.0,
			"-0.011": 0.0,
			"-0.01": 0.0,
			"-0.009": 0.00357928008883,
			"-0.008": 1.540599783,
			"-0.007": 4.41796859128,
			"-0.006": 7.81187129757,
			"-0.005": 11.5641720432,
			"-0.004": 21.799373738,
			"-0.003": 52.7173639666,
			"-0.002": 40.15698691,
			"-0.001": 47.0350665997,
			"0.0": 61.5590302816,
			"0.001": 47.0773265524,
			"0.002": 9.51095314906,
			"0.003": 5.75861248692,
			"0.004": 5.14700369771,
			"0.005": 7.24629609548,
			"0.006": 7.53973592857,
			"0.007": 13.9609516654,
			"0.008": 13.5679901823,
			"0.009": 8.56062945336,
			"0.01": 4.50474987888,
			"0.011": 0.143564294963,
			"0.012": 0.0,
			"0.013": 0.0,
			"0.014": 0.0,
			"0.015": 0.0,
			"0.016": 0.0,
			"0.017": 0.0,
			"0.018": 0.0,
			"0.019": 0.0,
			"0.02": 0.0,
			"0.021": 0.0,
			"0.022": 0.0,
			"0.023": 0.0,
			"0.024": 0.0,
			"0.025": 0.0
		}
	}
}
