{
	 "smiles": "BrC1=CC(=CC=C1)C(=O)CC#N", 
	 "Tm": 368.15, 
	 "num_atms": 18, 
	 "gaussian": { 
		 "optdone": 1, 
		 "sigma_profile": "yes", 
		 "theory": "DFT", 
		 "functional": "B3LYP", 
		 "basiset": "6-31G**", 
		 "properties": { 
			 "R2extent": 4463.1086, 
			 "electric_dipole_moment_norm": 5.38666171483, 
			 "electric_quadrupole_moment_norm": 22.0165594217, 
			 "total_energy": -3047.92770233, 
			 "HOMO_LUMO_gap": 0.18006, 
			 "cosmo_polarized_energy": -16.04, 
			 "cosmo_cavitation_energy": 26.48, 
			 "cosmo_dispersion_energy": -19.03, 
			 "cosmo_repulsion_energy": 1.52, 
			 "cosmo_total_nonelectrostatic_energy": 8.97, 
			 "SMD_solvation_energy": 5.38 
		},
		"coords": [
			{
				"x": -3.5778354205,
				"y": -1.40557496,
				"z": 1.0434343279,
				"element": "Br" 
			},
			{
				"x": -1.8517827984,
				"y": -0.6044025243,
				"z": 0.8875511193,
				"element": "C" 
			},
			{
				"x": -0.9230228359,
				"y": -1.1532486654,
				"z": 0.0069374091,
				"element": "C" 
			},
			{
				"x": 0.346230247,
				"y": -0.5666779834,
				"z": -0.1096931075,
				"element": "C" 
			},
			{
				"x": 0.6621703256,
				"y": 0.5630260082,
				"z": 0.6611144774,
				"element": "C" 
			},
			{
				"x": -0.2780691843,
				"y": 1.0977523239,
				"z": 1.5355817238,
				"element": "C" 
			},
			{
				"x": -1.5437653942,
				"y": 0.5176302354,
				"z": 1.6558043979,
				"element": "C" 
			},
			{
				"x": 1.4003632355,
				"y": -1.095094319,
				"z": -1.0323345568,
				"element": "C" 
			},
			{
				"x": 2.4936922958,
				"y": -0.5724920599,
				"z": -1.11837458,
				"element": "O" 
			},
			{
				"x": 1.0495124121,
				"y": -2.3362681083,
				"z": -1.8780681384,
				"element": "C" 
			},
			{
				"x": 2.1467206819,
				"y": -2.7666700752,
				"z": -2.7408421694,
				"element": "C" 
			},
			{
				"x": 2.9956610232,
				"y": -3.136571651,
				"z": -3.4383638994,
				"element": "N" 
			},
			{
				"x": -1.2008584083,
				"y": -2.0254220067,
				"z": -0.5722872807,
				"element": "H" 
			},
			{
				"x": 1.6489608976,
				"y": 0.9994287297,
				"z": 0.5544760855,
				"element": "H" 
			},
			{
				"x": -0.0329029265,
				"y": 1.9715351998,
				"z": 2.1313967596,
				"element": "H" 
			},
			{
				"x": -2.2811072433,
				"y": 0.9294542143,
				"z": 2.3354907802,
				"element": "H" 
			},
			{
				"x": 0.1690201071,
				"y": -2.1211130081,
				"z": -2.4962442374,
				"element": "H" 
			},
			{
				"x": 0.7677129857,
				"y": -3.16359135,
				"z": -1.2148791112,
				"element": "H" 
			}
		],
		 "valence_orbital": [ 
			{
				"type": "occ",
				"energy": -0.33059,
				"method": "rhf"
			},
			{
				"type": "occ",
				"energy": -0.30746,
				"method": "rhf"
			},
			{
				"type": "occ",
				"energy": -0.29074,
				"method": "rhf"
			},
			{
				"type": "occ",
				"energy": -0.28152,
				"method": "rhf"
			},
			{
				"type": "occ",
				"energy": -0.26567,
				"method": "rhf"
			},
			{
				"type": "unocc",
				"energy": -0.08561,
				"method": "rhf"
			},
			{
				"type": "unocc",
				"energy": -0.03885,
				"method": "rhf"
			},
			{
				"type": "unocc",
				"energy": -0.01322,
				"method": "rhf"
			},
			{
				"type": "unocc",
				"energy": 0.00852,
				"method": "rhf"
			},
			{
				"type": "unocc",
				"energy": 0.026,
				"method": "rhf"
			}
		],
		"cosmo_sigma_profile": { 
			"-0.025": 0.0,
			"-0.024": 0.0,
			"-0.023": 0.0,
			"-0.022": 0.0,
			"-0.021": 0.0,
			"-0.02": 0.0,
			"-0.019": 0.0,
			"-0.018": 0.0,
			"-0.017": 0.0,
			"-0.016": 0.0,
			"-0.015": 0.0,
			"-0.014": 0.0,
			"-0.013": 0.0,
			"-0.012": 0.086371839234,
			"-0.011": 6.09923288912,
			"-0.01": 8.33031556331,
			"-0.009": 4.97195925251,
			"-0.008": 6.29428444603,
			"-0.007": 8.70322084764,
			"-0.006": 9.83823417594,
			"-0.005": 10.2157909768,
			"-0.004": 9.39842754541,
			"-0.003": 9.00741366909,
			"-0.002": 8.48252520111,
			"-0.001": 12.9459180492,
			"0.0": 14.8190201369,
			"0.001": 22.9775010745,
			"0.002": 17.8525272033,
			"0.003": 10.8356643801,
			"0.004": 13.429661826,
			"0.005": 5.98798012945,
			"0.006": 3.88241649064,
			"0.007": 4.56259111236,
			"0.008": 6.7291126885,
			"0.009": 6.53168346346,
			"0.01": 6.91012280341,
			"0.011": 4.76755736352,
			"0.012": 2.35677162643,
			"0.013": 1.30250461394,
			"0.014": 0.0151195519726,
			"0.015": 0.0,
			"0.016": 0.0,
			"0.017": 0.0,
			"0.018": 0.0,
			"0.019": 0.0,
			"0.02": 0.0,
			"0.021": 0.0,
			"0.022": 0.0,
			"0.023": 0.0,
			"0.024": 0.0,
			"0.025": 0.0
		}
	}
}
