{
	 "smiles": "ClCC(=O)NCC(=O)C1=CC=CS1", 
	 "Tm": 407.15, 
	 "num_atms": 21, 
	 "gaussian": { 
		 "optdone": 1, 
		 "sigma_profile": "yes", 
		 "theory": "DFT", 
		 "functional": "B3LYP", 
		 "basiset": "6-31G**", 
		 "properties": { 
			 "R2extent": 3594.8857, 
			 "electric_dipole_moment_norm": 3.62233785006, 
			 "electric_quadrupole_moment_norm": 10.6838992507, 
			 "total_energy": -1373.24564203, 
			 "HOMO_LUMO_gap": 0.18181, 
			 "cosmo_polarized_energy": -16.62, 
			 "cosmo_cavitation_energy": 29.05, 
			 "cosmo_dispersion_energy": -20.94, 
			 "cosmo_repulsion_energy": 1.64, 
			 "cosmo_total_nonelectrostatic_energy": 9.75, 
			 "SMD_solvation_energy": 5.93 
		},
		"coords": [
			{
				"x": 4.112529114,
				"y": -1.5203949309,
				"z": -1.0056707925,
				"element": "Cl" 
			},
			{
				"x": 3.5829006411,
				"y": -0.5057777156,
				"z": 0.4048782777,
				"element": "C" 
			},
			{
				"x": 2.4558942086,
				"y": 0.4935627142,
				"z": 0.1434911998,
				"element": "C" 
			},
			{
				"x": 2.1719196405,
				"y": 1.2829149715,
				"z": 1.0326159616,
				"element": "O" 
			},
			{
				"x": 1.8044490226,
				"y": 0.4342715924,
				"z": -1.0480113957,
				"element": "N" 
			},
			{
				"x": 0.7715991635,
				"y": 1.4042433738,
				"z": -1.3636069844,
				"element": "C" 
			},
			{
				"x": -0.5740415953,
				"y": 1.2543729422,
				"z": -0.6329313958,
				"element": "C" 
			},
			{
				"x": -1.2395614788,
				"y": 2.2627792678,
				"z": -0.4544499769,
				"element": "O" 
			},
			{
				"x": -1.1068770123,
				"y": -0.0663340118,
				"z": -0.2394348127,
				"element": "C" 
			},
			{
				"x": -2.3546637884,
				"y": -0.2341785207,
				"z": 0.3264202885,
				"element": "C" 
			},
			{
				"x": -2.691458182,
				"y": -1.5895089205,
				"z": 0.5681999193,
				"element": "C" 
			},
			{
				"x": -1.6981449781,
				"y": -2.4532558017,
				"z": 0.1793784664,
				"element": "C" 
			},
			{
				"x": -0.3317199253,
				"y": -1.6214527237,
				"z": -0.4715188616,
				"element": "S" 
			},
			{
				"x": 4.4543479878,
				"y": 0.0471209572,
				"z": 0.7540222885,
				"element": "H" 
			},
			{
				"x": 3.2602485657,
				"y": -1.1927577694,
				"z": 1.188309006,
				"element": "H" 
			},
			{
				"x": 2.1422318254,
				"y": -0.2007424464,
				"z": -1.756682091,
				"element": "H" 
			},
			{
				"x": 0.5673053502,
				"y": 1.3431942008,
				"z": -2.4379630436,
				"element": "H" 
			},
			{
				"x": 1.1148230127,
				"y": 2.4177335411,
				"z": -1.1404238367,
				"element": "H" 
			},
			{
				"x": -2.9897117021,
				"y": 0.6162061114,
				"z": 0.5423496314,
				"element": "H" 
			},
			{
				"x": -3.6269467257,
				"y": -1.9139825979,
				"z": 1.0087418549,
				"element": "H" 
			},
			{
				"x": -1.6870231441,
				"y": -3.5327142339,
				"z": 0.251686297,
				"element": "H" 
			}
		],
		 "valence_orbital": [ 
			{
				"type": "occ",
				"energy": -0.28683,
				"method": "rhf"
			},
			{
				"type": "occ",
				"energy": -0.26896,
				"method": "rhf"
			},
			{
				"type": "occ",
				"energy": -0.26676,
				"method": "rhf"
			},
			{
				"type": "occ",
				"energy": -0.25119,
				"method": "rhf"
			},
			{
				"type": "occ",
				"energy": -0.24851,
				"method": "rhf"
			},
			{
				"type": "unocc",
				"energy": -0.0667,
				"method": "rhf"
			},
			{
				"type": "unocc",
				"energy": -0.00057,
				"method": "rhf"
			},
			{
				"type": "unocc",
				"energy": 0.00963,
				"method": "rhf"
			},
			{
				"type": "unocc",
				"energy": 0.01713,
				"method": "rhf"
			},
			{
				"type": "unocc",
				"energy": 0.02846,
				"method": "rhf"
			}
		],
		"cosmo_sigma_profile": { 
			"-0.025": 0.0,
			"-0.024": 0.0,
			"-0.023": 0.0,
			"-0.022": 0.0,
			"-0.021": 0.0,
			"-0.02": 0.0,
			"-0.019": 0.0,
			"-0.018": 0.0,
			"-0.017": 0.0,
			"-0.016": 0.0,
			"-0.015": 0.0184138168822,
			"-0.014": 0.756176893453,
			"-0.013": 0.746152592605,
			"-0.012": 0.807968368162,
			"-0.011": 1.78444121935,
			"-0.01": 1.43806864153,
			"-0.009": 9.04655465237,
			"-0.008": 8.67490837179,
			"-0.007": 11.361633968,
			"-0.006": 12.2283902115,
			"-0.005": 13.4343749332,
			"-0.004": 13.5486219338,
			"-0.003": 12.689450923,
			"-0.002": 10.8534607073,
			"-0.001": 13.4789329684,
			"0.0": 12.2271998117,
			"0.001": 14.7220750577,
			"0.002": 21.4758071371,
			"0.003": 19.599353672,
			"0.004": 11.1049209326,
			"0.005": 10.4059656641,
			"0.006": 5.41594898193,
			"0.007": 3.26426660611,
			"0.008": 2.72427769645,
			"0.009": 2.89220810986,
			"0.01": 3.92103454084,
			"0.011": 5.61768289218,
			"0.012": 7.3351742932,
			"0.013": 4.02063879994,
			"0.014": 0.348722085935,
			"0.015": 0.0,
			"0.016": 0.0,
			"0.017": 0.0,
			"0.018": 0.0,
			"0.019": 0.0,
			"0.02": 0.0,
			"0.021": 0.0,
			"0.022": 0.0,
			"0.023": 0.0,
			"0.024": 0.0,
			"0.025": 0.0
		}
	}
}
