{
	 "smiles": "CCCCC=C/CCCCCCCCOC(C)=O", 
	 "Tm": 274.45, 
	 "num_atms": 48, 
	 "gaussian": { 
		 "optdone": 1, 
		 "sigma_profile": "yes", 
		 "theory": "DFT", 
		 "functional": "B3LYP", 
		 "basiset": "6-31G**", 
		 "properties": { 
			 "R2extent": 9772.2241, 
			 "electric_dipole_moment_norm": 1.8273818457, 
			 "electric_quadrupole_moment_norm": 12.081307337, 
			 "total_energy": -778.256237322, 
			 "HOMO_LUMO_gap": 0.24891, 
			 "cosmo_polarized_energy": -7.32, 
			 "cosmo_cavitation_energy": 48.72, 
			 "cosmo_dispersion_energy": -31.38, 
			 "cosmo_repulsion_energy": 2.55, 
			 "cosmo_total_nonelectrostatic_energy": 19.89, 
			 "SMD_solvation_energy": 8.18 
		},
		"coords": [
			{
				"x": -1.8449728155,
				"y": -1.1715186261,
				"z": -2.5826459831,
				"element": "C" 
			},
			{
				"x": -3.3040674894,
				"y": -1.6272706825,
				"z": -2.4569702293,
				"element": "C" 
			},
			{
				"x": -3.5198606783,
				"y": -2.9509808417,
				"z": -1.7005508623,
				"element": "C" 
			},
			{
				"x": -3.4171673502,
				"y": -2.8832518423,
				"z": -0.1606566298,
				"element": "C" 
			},
			{
				"x": -2.0267010425,
				"y": -2.6855341085,
				"z": 0.3871620436,
				"element": "C" 
			},
			{
				"x": -1.63045212,
				"y": -1.8559022436,
				"z": 1.3625619203,
				"element": "C" 
			},
			{
				"x": -2.4782555036,
				"y": -0.8894461923,
				"z": 2.1503090055,
				"element": "C" 
			},
			{
				"x": -2.2575670625,
				"y": 0.61281515,
				"z": 1.8481642237,
				"element": "C" 
			},
			{
				"x": -0.8467175688,
				"y": 1.1664240466,
				"z": 2.1364175528,
				"element": "C" 
			},
			{
				"x": 0.1537544947,
				"y": 1.0479257451,
				"z": 0.9758730222,
				"element": "C" 
			},
			{
				"x": 1.5386912326,
				"y": 1.6129913298,
				"z": 1.3220061693,
				"element": "C" 
			},
			{
				"x": 2.5422776638,
				"y": 1.6178240331,
				"z": 0.157642344,
				"element": "C" 
			},
			{
				"x": 2.9437091067,
				"y": 0.221335481,
				"z": -0.3374695918,
				"element": "C" 
			},
			{
				"x": 4.0090799156,
				"y": 0.2393054701,
				"z": -1.4297485079,
				"element": "C" 
			},
			{
				"x": 5.2366838478,
				"y": 0.8637964455,
				"z": -0.9795228527,
				"element": "O" 
			},
			{
				"x": 6.1305806956,
				"y": 0.0614566247,
				"z": -0.3536802084,
				"element": "C" 
			},
			{
				"x": 7.3541005392,
				"y": 0.8471655074,
				"z": 0.0575476609,
				"element": "C" 
			},
			{
				"x": 5.9614286922,
				"y": -1.1231044386,
				"z": -0.1605974937,
				"element": "O" 
			},
			{
				"x": -1.7733650416,
				"y": -0.2499677243,
				"z": -3.1708742242,
				"element": "H" 
			},
			{
				"x": -1.3931325305,
				"y": -0.9837230946,
				"z": -1.6054084354,
				"element": "H" 
			},
			{
				"x": -1.239955988,
				"y": -1.9336823596,
				"z": -3.0880980343,
				"element": "H" 
			},
			{
				"x": -3.7224960309,
				"y": -1.7379668244,
				"z": -3.4659120695,
				"element": "H" 
			},
			{
				"x": -3.896428899,
				"y": -0.8381002189,
				"z": -1.9730172436,
				"element": "H" 
			},
			{
				"x": -2.8161805037,
				"y": -3.7063948953,
				"z": -2.0789817399,
				"element": "H" 
			},
			{
				"x": -4.5219275432,
				"y": -3.326374537,
				"z": -1.9438495685,
				"element": "H" 
			},
			{
				"x": -3.8020297267,
				"y": -3.836941178,
				"z": 0.2326857027,
				"element": "H" 
			},
			{
				"x": -4.097987197,
				"y": -2.1083444497,
				"z": 0.2093616138,
				"element": "H" 
			},
			{
				"x": -1.2695718178,
				"y": -3.3342073666,
				"z": -0.0568934466,
				"element": "H" 
			},
			{
				"x": -0.5778439852,
				"y": -1.8882293789,
				"z": 1.6425949991,
				"element": "H" 
			},
			{
				"x": -3.5402762221,
				"y": -1.1126344886,
				"z": 2.0036276714,
				"element": "H" 
			},
			{
				"x": -2.2810322047,
				"y": -1.0504380048,
				"z": 3.2203797004,
				"element": "H" 
			},
			{
				"x": -2.9831722259,
				"y": 1.1683116814,
				"z": 2.4558295333,
				"element": "H" 
			},
			{
				"x": -2.5217177193,
				"y": 0.8131917507,
				"z": 0.8013007448,
				"element": "H" 
			},
			{
				"x": -0.4361465427,
				"y": 0.6735970077,
				"z": 3.0298034526,
				"element": "H" 
			},
			{
				"x": -0.9326613046,
				"y": 2.2292112368,
				"z": 2.4000613655,
				"element": "H" 
			},
			{
				"x": -0.2484665548,
				"y": 1.5871102137,
				"z": 0.1057681476,
				"element": "H" 
			},
			{
				"x": 0.2413554723,
				"y": 0.000842299,
				"z": 0.6667188215,
				"element": "H" 
			},
			{
				"x": 1.4191709536,
				"y": 2.6429765081,
				"z": 1.6852187586,
				"element": "H" 
			},
			{
				"x": 1.9631932851,
				"y": 1.0447701717,
				"z": 2.1623233752,
				"element": "H" 
			},
			{
				"x": 2.1231464834,
				"y": 2.1925556914,
				"z": -0.6811385778,
				"element": "H" 
			},
			{
				"x": 3.4479482196,
				"y": 2.1515286691,
				"z": 0.4690574863,
				"element": "H" 
			},
			{
				"x": 2.0723519115,
				"y": -0.3057417201,
				"z": -0.7465655397,
				"element": "H" 
			},
			{
				"x": 3.3110554554,
				"y": -0.387585327,
				"z": 0.4975653424,
				"element": "H" 
			},
			{
				"x": 3.6920742074,
				"y": 0.8474863999,
				"z": -2.2819087211,
				"element": "H" 
			},
			{
				"x": 4.2353870179,
				"y": -0.7743691804,
				"z": -1.7683242336,
				"element": "H" 
			},
			{
				"x": 7.8110116947,
				"y": 1.3174434915,
				"z": -0.8180333107,
				"element": "H" 
			},
			{
				"x": 8.0684770982,
				"y": 0.1802295465,
				"z": 0.539062639,
				"element": "H" 
			},
			{
				"x": 7.0703756816,
				"y": 1.648815223,
				"z": 0.7460042076,
				"element": "H" 
			}
		],
		 "valence_orbital": [ 
			{
				"type": "occ",
				"energy": -0.30903,
				"method": "rhf"
			},
			{
				"type": "occ",
				"energy": -0.29826,
				"method": "rhf"
			},
			{
				"type": "occ",
				"energy": -0.29122,
				"method": "rhf"
			},
			{
				"type": "occ",
				"energy": -0.26652,
				"method": "rhf"
			},
			{
				"type": "occ",
				"energy": -0.23261,
				"method": "rhf"
			},
			{
				"type": "unocc",
				"energy": 0.0163,
				"method": "rhf"
			},
			{
				"type": "unocc",
				"energy": 0.02461,
				"method": "rhf"
			},
			{
				"type": "unocc",
				"energy": 0.08181,
				"method": "rhf"
			},
			{
				"type": "unocc",
				"energy": 0.0893,
				"method": "rhf"
			},
			{
				"type": "unocc",
				"energy": 0.09933,
				"method": "rhf"
			}
		],
		"cosmo_sigma_profile": { 
			"-0.025": 0.0,
			"-0.024": 0.0,
			"-0.023": 0.0,
			"-0.022": 0.0,
			"-0.021": 0.0,
			"-0.02": 0.0,
			"-0.019": 0.0,
			"-0.018": 0.0,
			"-0.017": 0.0,
			"-0.016": 0.0,
			"-0.015": 0.0,
			"-0.014": 0.0,
			"-0.013": 0.0,
			"-0.012": 0.0,
			"-0.011": 0.0,
			"-0.01": 0.0,
			"-0.009": 0.0,
			"-0.008": 0.0,
			"-0.007": 0.364346779745,
			"-0.006": 4.67598480567,
			"-0.005": 8.46840189811,
			"-0.004": 13.1209075944,
			"-0.003": 27.6274831268,
			"-0.002": 59.3863161849,
			"-0.001": 74.5399064961,
			"0.0": 64.8408462671,
			"0.001": 51.4303801011,
			"0.002": 25.8808167149,
			"0.003": 11.513881087,
			"0.004": 6.41596010489,
			"0.005": 4.23943331918,
			"0.006": 4.3058327293,
			"0.007": 3.01314287376,
			"0.008": 2.26992660453,
			"0.009": 2.8457618558,
			"0.01": 2.07884730296,
			"0.011": 2.15931206961,
			"0.012": 4.53860019103,
			"0.013": 1.97260548511,
			"0.014": 0.0955328300686,
			"0.015": 0.0,
			"0.016": 0.0,
			"0.017": 0.0,
			"0.018": 0.0,
			"0.019": 0.0,
			"0.02": 0.0,
			"0.021": 0.0,
			"0.022": 0.0,
			"0.023": 0.0,
			"0.024": 0.0,
			"0.025": 0.0
		}
	}
}
