{
	 "smiles": "OC(=O)C1CCCN(C1)C(=O)NC1=C(F)C=CC=C1", 
	 "Tm": 413.15, 
	 "num_atms": 34, 
	 "gaussian": { 
		 "optdone": 1, 
		 "sigma_profile": "yes", 
		 "theory": "DFT", 
		 "functional": "B3LYP", 
		 "basiset": "6-31G**", 
		 "properties": { 
			 "R2extent": 6679.3115, 
			 "electric_dipole_moment_norm": 2.51802285534, 
			 "electric_quadrupole_moment_norm": 16.7593013029, 
			 "total_energy": -939.476022693, 
			 "HOMO_LUMO_gap": 0.2102, 
			 "cosmo_polarized_energy": -16.46, 
			 "cosmo_cavitation_energy": 36.81, 
			 "cosmo_dispersion_energy": -26.26, 
			 "cosmo_repulsion_energy": 1.99, 
			 "cosmo_total_nonelectrostatic_energy": 12.54, 
			 "SMD_solvation_energy": 7.23 
		},
		"coords": [
			{
				"x": -1.5672185772,
				"y": 4.1813990868,
				"z": -0.7868050453,
				"element": "O" 
			},
			{
				"x": -0.2365292686,
				"y": 4.0708578727,
				"z": -0.9990676662,
				"element": "C" 
			},
			{
				"x": 0.2316139018,
				"y": 3.8216483263,
				"z": -2.0899484807,
				"element": "O" 
			},
			{
				"x": 0.5482931965,
				"y": 4.2615287318,
				"z": 0.2917372288,
				"element": "C" 
			},
			{
				"x": 2.0440931169,
				"y": 4.564565045,
				"z": 0.0143988294,
				"element": "C" 
			},
			{
				"x": 2.9499156512,
				"y": 3.3668893731,
				"z": 0.3529280504,
				"element": "C" 
			},
			{
				"x": 2.3423105554,
				"y": 2.0409210402,
				"z": -0.1132967555,
				"element": "C" 
			},
			{
				"x": 1.0227866591,
				"y": 1.8432609217,
				"z": 0.5035588027,
				"element": "N" 
			},
			{
				"x": 0.3887314124,
				"y": 2.9876939899,
				"z": 1.1549695121,
				"element": "C" 
			},
			{
				"x": 0.2823488671,
				"y": 0.6804537617,
				"z": 0.3799051755,
				"element": "C" 
			},
			{
				"x": -0.8212451098,
				"y": 0.5406267922,
				"z": 0.9037003954,
				"element": "O" 
			},
			{
				"x": 0.8967587376,
				"y": -0.3095007584,
				"z": -0.3727690085,
				"element": "N" 
			},
			{
				"x": 0.4100831063,
				"y": -1.5972719761,
				"z": -0.636773741,
				"element": "C" 
			},
			{
				"x": 1.2018214259,
				"y": -2.4029068157,
				"z": -1.4697056649,
				"element": "C" 
			},
			{
				"x": 2.3582412303,
				"y": -1.8567815097,
				"z": -1.9457705359,
				"element": "F" 
			},
			{
				"x": 0.863597533,
				"y": -3.69687017,
				"z": -1.8183321021,
				"element": "C" 
			},
			{
				"x": -0.3250177398,
				"y": -4.2355350937,
				"z": -1.3177498972,
				"element": "C" 
			},
			{
				"x": -1.1324790198,
				"y": -3.4589551505,
				"z": -0.4867699295,
				"element": "C" 
			},
			{
				"x": -0.7799873747,
				"y": -2.1517302037,
				"z": -0.1426335945,
				"element": "C" 
			},
			{
				"x": -2.0002245376,
				"y": 3.984805987,
				"z": -1.6345791879,
				"element": "H" 
			},
			{
				"x": 0.0735857579,
				"y": 5.0844353672,
				"z": 0.8367050702,
				"element": "H" 
			},
			{
				"x": 2.1613485643,
				"y": 4.8200490091,
				"z": -1.0420891268,
				"element": "H" 
			},
			{
				"x": 2.3605272453,
				"y": 5.4350902273,
				"z": 0.5974261184,
				"element": "H" 
			},
			{
				"x": 3.1292172165,
				"y": 3.3145397683,
				"z": 1.4330853717,
				"element": "H" 
			},
			{
				"x": 3.9298468526,
				"y": 3.489495234,
				"z": -0.1192926416,
				"element": "H" 
			},
			{
				"x": 2.2553372439,
				"y": 2.0522265282,
				"z": -1.2101102195,
				"element": "H" 
			},
			{
				"x": 3.0110864365,
				"y": 1.2178882079,
				"z": 0.1708889435,
				"element": "H" 
			},
			{
				"x": 0.8314111804,
				"y": 3.1727400884,
				"z": 2.1426317729,
				"element": "H" 
			},
			{
				"x": -0.6598507749,
				"y": 2.7346147806,
				"z": 1.3054012993,
				"element": "H" 
			},
			{
				"x": 1.7611831186,
				"y": -0.0976339318,
				"z": -0.8458247442,
				"element": "H" 
			},
			{
				"x": 1.5263759554,
				"y": -4.2583349879,
				"z": -2.467978043,
				"element": "H" 
			},
			{
				"x": -0.6109203645,
				"y": -5.249494658,
				"z": -1.5782207353,
				"element": "H" 
			},
			{
				"x": -2.0577055775,
				"y": -3.8704188527,
				"z": -0.0945493636,
				"element": "H" 
			},
			{
				"x": -1.4060366202,
				"y": -1.5465960311,
				"z": 0.4970299131,
				"element": "H" 
			}
		],
		 "valence_orbital": [ 
			{
				"type": "occ",
				"energy": -0.28061,
				"method": "rhf"
			},
			{
				"type": "occ",
				"energy": -0.25777,
				"method": "rhf"
			},
			{
				"type": "occ",
				"energy": -0.24483,
				"method": "rhf"
			},
			{
				"type": "occ",
				"energy": -0.23782,
				"method": "rhf"
			},
			{
				"type": "occ",
				"energy": -0.21161,
				"method": "rhf"
			},
			{
				"type": "unocc",
				"energy": -0.00141,
				"method": "rhf"
			},
			{
				"type": "unocc",
				"energy": 0.00103,
				"method": "rhf"
			},
			{
				"type": "unocc",
				"energy": 0.00804,
				"method": "rhf"
			},
			{
				"type": "unocc",
				"energy": 0.06665,
				"method": "rhf"
			},
			{
				"type": "unocc",
				"energy": 0.06866,
				"method": "rhf"
			}
		],
		"cosmo_sigma_profile": { 
			"-0.025": 0.0,
			"-0.024": 0.0,
			"-0.023": 0.0,
			"-0.022": 0.0,
			"-0.021": 0.0,
			"-0.02": 0.0,
			"-0.019": 0.0187058667629,
			"-0.018": 0.775145740024,
			"-0.017": 0.944144854225,
			"-0.016": 0.890433427951,
			"-0.015": 0.888895740249,
			"-0.014": 0.541071373788,
			"-0.013": 0.222389167682,
			"-0.012": 1.16414367556,
			"-0.011": 1.31182540027,
			"-0.01": 2.16887480109,
			"-0.009": 2.0055685582,
			"-0.008": 2.21191351161,
			"-0.007": 4.75623244383,
			"-0.006": 12.3167845749,
			"-0.005": 19.2028648587,
			"-0.004": 27.1866654644,
			"-0.003": 26.5970206419,
			"-0.002": 23.0561660524,
			"-0.001": 20.4267332279,
			"0.0": 18.6574598398,
			"0.001": 17.7880777161,
			"0.002": 18.2401980052,
			"0.003": 17.8051019716,
			"0.004": 20.6131201427,
			"0.005": 15.5585614055,
			"0.006": 5.12427592006,
			"0.007": 4.20739256388,
			"0.008": 4.34734590997,
			"0.009": 4.36429686924,
			"0.01": 3.4807405771,
			"0.011": 4.68872486632,
			"0.012": 4.45760837147,
			"0.013": 3.36642043067,
			"0.014": 1.718329307,
			"0.015": 0.0,
			"0.016": 0.0,
			"0.017": 0.0,
			"0.018": 0.0,
			"0.019": 0.0,
			"0.02": 0.0,
			"0.021": 0.0,
			"0.022": 0.0,
			"0.023": 0.0,
			"0.024": 0.0,
			"0.025": 0.0
		}
	}
}
