{
	 "smiles": "O=C1NCCN2CCCC12", 
	 "Tm": 347.15, 
	 "num_atms": 22, 
	 "gaussian": { 
		 "optdone": 1, 
		 "sigma_profile": "yes", 
		 "theory": "DFT", 
		 "functional": "B3LYP", 
		 "basiset": "6-31G**", 
		 "properties": { 
			 "R2extent": 2385.7778, 
			 "electric_dipole_moment_norm": 3.54135166427, 
			 "electric_quadrupole_moment_norm": 16.4498104071, 
			 "total_energy": -458.708478338, 
			 "HOMO_LUMO_gap": 0.23333, 
			 "cosmo_polarized_energy": -11.41, 
			 "cosmo_cavitation_energy": 22.63, 
			 "cosmo_dispersion_energy": -17.52, 
			 "cosmo_repulsion_energy": 1.43, 
			 "cosmo_total_nonelectrostatic_energy": 6.53, 
			 "SMD_solvation_energy": 0.58 
		},
		"coords": [
			{
				"x": -3.700406589,
				"y": 0.5801638489,
				"z": 0.4198313776,
				"element": "O" 
			},
			{
				"x": -2.6424095504,
				"y": 0.3730658775,
				"z": 1.0035228395,
				"element": "C" 
			},
			{
				"x": -1.789348537,
				"y": 1.3939123321,
				"z": 1.3286237794,
				"element": "N" 
			},
			{
				"x": -0.4321515357,
				"y": 1.253776621,
				"z": 1.8465323254,
				"element": "C" 
			},
			{
				"x": -0.3147707118,
				"y": -0.0691525285,
				"z": 2.6138184443,
				"element": "C" 
			},
			{
				"x": -0.8447054173,
				"y": -1.204462122,
				"z": 1.8772184153,
				"element": "N" 
			},
			{
				"x": -0.1188186788,
				"y": -1.6305969441,
				"z": 0.6782474839,
				"element": "C" 
			},
			{
				"x": -1.0687753886,
				"y": -2.6747910906,
				"z": 0.0799995922,
				"element": "C" 
			},
			{
				"x": -2.4768362641,
				"y": -2.0971204111,
				"z": 0.3690290147,
				"element": "C" 
			},
			{
				"x": -2.2521401306,
				"y": -1.0386558496,
				"z": 1.4825589509,
				"element": "C" 
			},
			{
				"x": -2.0825676437,
				"y": 2.2929120099,
				"z": 0.9664046699,
				"element": "H" 
			},
			{
				"x": -0.2114853116,
				"y": 2.0964804047,
				"z": 2.5124168729,
				"element": "H" 
			},
			{
				"x": 0.3026756536,
				"y": 1.2879036278,
				"z": 1.028492604,
				"element": "H" 
			},
			{
				"x": 0.7343166928,
				"y": -0.256248464,
				"z": 2.867894929,
				"element": "H" 
			},
			{
				"x": -0.8704721458,
				"y": 0.0135567741,
				"z": 3.5568342816,
				"element": "H" 
			},
			{
				"x": 0.0488657612,
				"y": -0.8126390101,
				"z": -0.0486972364,
				"element": "H" 
			},
			{
				"x": 0.8617860194,
				"y": -2.0360109004,
				"z": 0.9518286963,
				"element": "H" 
			},
			{
				"x": -0.8903426056,
				"y": -2.8414777017,
				"z": -0.9858946897,
				"element": "H" 
			},
			{
				"x": -0.9330747265,
				"y": -3.6288378363,
				"z": 0.5980421641,
				"element": "H" 
			},
			{
				"x": -3.1720012305,
				"y": -2.874254777,
				"z": 0.6944531528,
				"element": "H" 
			},
			{
				"x": -2.921009442,
				"y": -1.6178616137,
				"z": -0.5058581533,
				"element": "H" 
			},
			{
				"x": -2.897728218,
				"y": -1.2303622469,
				"z": 2.3511004855,
				"element": "H" 
			}
		],
		 "valence_orbital": [ 
			{
				"type": "occ",
				"energy": -0.33168,
				"method": "rhf"
			},
			{
				"type": "occ",
				"energy": -0.32393,
				"method": "rhf"
			},
			{
				"type": "occ",
				"energy": -0.26058,
				"method": "rhf"
			},
			{
				"type": "occ",
				"energy": -0.2446,
				"method": "rhf"
			},
			{
				"type": "occ",
				"energy": -0.20412,
				"method": "rhf"
			},
			{
				"type": "unocc",
				"energy": 0.02921,
				"method": "rhf"
			},
			{
				"type": "unocc",
				"energy": 0.07328,
				"method": "rhf"
			},
			{
				"type": "unocc",
				"energy": 0.0989,
				"method": "rhf"
			},
			{
				"type": "unocc",
				"energy": 0.11156,
				"method": "rhf"
			},
			{
				"type": "unocc",
				"energy": 0.11366,
				"method": "rhf"
			}
		],
		"cosmo_sigma_profile": { 
			"-0.025": 0.0,
			"-0.024": 0.0,
			"-0.023": 0.0,
			"-0.022": 0.0,
			"-0.021": 0.0,
			"-0.02": 0.0,
			"-0.019": 0.0,
			"-0.018": 0.0,
			"-0.017": 0.0,
			"-0.016": 0.0,
			"-0.015": 0.0,
			"-0.014": 0.10303968697,
			"-0.013": 0.847737698451,
			"-0.012": 1.10619347052,
			"-0.011": 0.827459807361,
			"-0.01": 1.55190623729,
			"-0.009": 0.771106175979,
			"-0.008": 0.592839101795,
			"-0.007": 1.26332773796,
			"-0.006": 1.86562508434,
			"-0.005": 8.72283890887,
			"-0.004": 20.3899491719,
			"-0.003": 28.4054281705,
			"-0.002": 25.2004087393,
			"-0.001": 19.3712586222,
			"0.0": 14.5410614829,
			"0.001": 9.37682617508,
			"0.002": 4.03028558492,
			"0.003": 3.49708333521,
			"0.004": 3.80606270223,
			"0.005": 2.30183684804,
			"0.006": 1.99509300946,
			"0.007": 2.45855566353,
			"0.008": 1.91391278208,
			"0.009": 1.9987216026,
			"0.01": 1.65286284757,
			"0.011": 1.89745746572,
			"0.012": 2.30161098606,
			"0.013": 2.83987909433,
			"0.014": 5.21020442336,
			"0.015": 4.31839424086,
			"0.016": 0.317516593588,
			"0.017": 0.0,
			"0.018": 0.0,
			"0.019": 0.0,
			"0.02": 0.0,
			"0.021": 0.0,
			"0.022": 0.0,
			"0.023": 0.0,
			"0.024": 0.0,
			"0.025": 0.0
		}
	}
}
