{
	 "smiles": "COC1CC23N(CC=C2C=C1)CCC1=C3CC(=O)OC1", 
	 "Tm": 372.65, 
	 "num_atms": 39, 
	 "gaussian": { 
		 "optdone": 1, 
		 "sigma_profile": "yes", 
		 "theory": "DFT", 
		 "functional": "B3LYP", 
		 "basiset": "6-31G**", 
		 "properties": { 
			 "R2extent": 4949.2807, 
			 "electric_dipole_moment_norm": 4.32586277868, 
			 "electric_quadrupole_moment_norm": 24.5463183366, 
			 "total_energy": -901.499904363, 
			 "HOMO_LUMO_gap": 0.17586, 
			 "cosmo_polarized_energy": -15.47, 
			 "cosmo_cavitation_energy": 38.05, 
			 "cosmo_dispersion_energy": -26.98, 
			 "cosmo_repulsion_energy": 2.09, 
			 "cosmo_total_nonelectrostatic_energy": 13.16, 
			 "SMD_solvation_energy": 5.46 
		},
		"coords": [
			{
				"x": -0.5416028492,
				"y": 4.1361045081,
				"z": 1.0189800881,
				"element": "C" 
			},
			{
				"x": -1.4441817115,
				"y": 3.3686764512,
				"z": 0.2475103205,
				"element": "O" 
			},
			{
				"x": -1.1793780286,
				"y": 1.9672526884,
				"z": 0.2464918415,
				"element": "C" 
			},
			{
				"x": 0.0029329582,
				"y": 1.6015186229,
				"z": -0.674739347,
				"element": "C" 
			},
			{
				"x": 0.0843513475,
				"y": 0.0675633786,
				"z": -0.9193209426,
				"element": "C" 
			},
			{
				"x": 1.0381323734,
				"y": -0.2728243804,
				"z": -2.0147768928,
				"element": "N" 
			},
			{
				"x": 0.3974978426,
				"y": -1.2341007929,
				"z": -2.925984973,
				"element": "C" 
			},
			{
				"x": -1.0632260885,
				"y": -1.1115630848,
				"z": -2.6078219142,
				"element": "C" 
			},
			{
				"x": -1.2499427939,
				"y": -0.3584949897,
				"z": -1.5152554705,
				"element": "C" 
			},
			{
				"x": -2.4806886106,
				"y": 0.2080239381,
				"z": -0.9839862402,
				"element": "C" 
			},
			{
				"x": -2.4562976043,
				"y": 1.286974387,
				"z": -0.1822513114,
				"element": "C" 
			},
			{
				"x": 2.4159547053,
				"y": -0.6145202757,
				"z": -1.668957821,
				"element": "C" 
			},
			{
				"x": 2.7920199883,
				"y": -0.1838374014,
				"z": -0.243604153,
				"element": "C" 
			},
			{
				"x": 1.7546283854,
				"y": -0.7182657846,
				"z": 0.712210514,
				"element": "C" 
			},
			{
				"x": 0.4584003336,
				"y": -0.6595671475,
				"z": 0.3856178751,
				"element": "C" 
			},
			{
				"x": -0.5663915735,
				"y": -1.3351357696,
				"z": 1.2586259695,
				"element": "C" 
			},
			{
				"x": -0.0997931945,
				"y": -1.7071115641,
				"z": 2.6578657886,
				"element": "C" 
			},
			{
				"x": -0.8756566086,
				"y": -2.0171481426,
				"z": 3.5296874508,
				"element": "O" 
			},
			{
				"x": 1.226639449,
				"y": -1.6821449545,
				"z": 2.9416221359,
				"element": "O" 
			},
			{
				"x": 2.2317147618,
				"y": -1.3978072391,
				"z": 1.9593646003,
				"element": "C" 
			},
			{
				"x": -0.9201496615,
				"y": 5.1611946181,
				"z": 1.0228765885,
				"element": "H" 
			},
			{
				"x": -0.4860685357,
				"y": 3.7749551655,
				"z": 2.0581450906,
				"element": "H" 
			},
			{
				"x": 0.4754865397,
				"y": 4.1436615677,
				"z": 0.601021481,
				"element": "H" 
			},
			{
				"x": -0.9426424487,
				"y": 1.6592230498,
				"z": 1.2829477052,
				"element": "H" 
			},
			{
				"x": -0.1519984151,
				"y": 2.0908224427,
				"z": -1.641586994,
				"element": "H" 
			},
			{
				"x": 0.9398927478,
				"y": 1.9768513453,
				"z": -0.2542572317,
				"element": "H" 
			},
			{
				"x": 0.7680593503,
				"y": -2.2690060579,
				"z": -2.775905369,
				"element": "H" 
			},
			{
				"x": 0.611146513,
				"y": -0.9863898477,
				"z": -3.9773282731,
				"element": "H" 
			},
			{
				"x": -1.8450280035,
				"y": -1.524330259,
				"z": -3.2369122233,
				"element": "H" 
			},
			{
				"x": -3.4278183855,
				"y": -0.2272607554,
				"z": -1.2944061025,
				"element": "H" 
			},
			{
				"x": -3.3752187537,
				"y": 1.7357036036,
				"z": 0.1848581926,
				"element": "H" 
			},
			{
				"x": 2.5660918335,
				"y": -1.7075819417,
				"z": -1.7288307609,
				"element": "H" 
			},
			{
				"x": 3.1072467366,
				"y": -0.1639668156,
				"z": -2.3945145752,
				"element": "H" 
			},
			{
				"x": 2.8664615238,
				"y": 0.9095780384,
				"z": -0.1805769171,
				"element": "H" 
			},
			{
				"x": 3.7886303936,
				"y": -0.5729432828,
				"z": -0.0046341493,
				"element": "H" 
			},
			{
				"x": -0.9174806104,
				"y": -2.2620345952,
				"z": 0.7813845092,
				"element": "H" 
			},
			{
				"x": -1.4701289414,
				"y": -0.7354999287,
				"z": 1.3925290916,
				"element": "H" 
			},
			{
				"x": 2.9733250394,
				"y": -0.7730930193,
				"z": 2.4731839034,
				"element": "H" 
			},
			{
				"x": 2.7374799959,
				"y": -2.3444757752,
				"z": 1.7135285154,
				"element": "H" 
			}
		],
		 "valence_orbital": [ 
			{
				"type": "occ",
				"energy": -0.26248,
				"method": "rhf"
			},
			{
				"type": "occ",
				"energy": -0.25857,
				"method": "rhf"
			},
			{
				"type": "occ",
				"energy": -0.24665,
				"method": "rhf"
			},
			{
				"type": "occ",
				"energy": -0.22802,
				"method": "rhf"
			},
			{
				"type": "occ",
				"energy": -0.20687,
				"method": "rhf"
			},
			{
				"type": "unocc",
				"energy": -0.03101,
				"method": "rhf"
			},
			{
				"type": "unocc",
				"energy": 0.00406,
				"method": "rhf"
			},
			{
				"type": "unocc",
				"energy": 0.01788,
				"method": "rhf"
			},
			{
				"type": "unocc",
				"energy": 0.0573,
				"method": "rhf"
			},
			{
				"type": "unocc",
				"energy": 0.07398,
				"method": "rhf"
			}
		],
		"cosmo_sigma_profile": { 
			"-0.025": 0.0,
			"-0.024": 0.0,
			"-0.023": 0.0,
			"-0.022": 0.0,
			"-0.021": 0.0,
			"-0.02": 0.0,
			"-0.019": 0.0,
			"-0.018": 0.0,
			"-0.017": 0.0,
			"-0.016": 0.0,
			"-0.015": 0.0,
			"-0.014": 0.0,
			"-0.013": 0.0,
			"-0.012": 0.0,
			"-0.011": 0.0,
			"-0.01": 0.0,
			"-0.009": 0.0,
			"-0.008": 0.0,
			"-0.007": 2.44742037218,
			"-0.006": 14.6545549174,
			"-0.005": 23.7174956794,
			"-0.004": 29.9006453159,
			"-0.003": 37.8007767018,
			"-0.002": 42.0698364664,
			"-0.001": 32.5891512013,
			"0.0": 20.5072451999,
			"0.001": 14.0769938571,
			"0.002": 11.785217112,
			"0.003": 9.39202696812,
			"0.004": 7.81688288037,
			"0.005": 7.29313138102,
			"0.006": 4.57069851945,
			"0.007": 4.328802485,
			"0.008": 5.19020883856,
			"0.009": 3.9665298225,
			"0.01": 4.94038894628,
			"0.011": 6.28487679352,
			"0.012": 7.58882958586,
			"0.013": 5.75414852961,
			"0.014": 1.4149918793,
			"0.015": 0.0,
			"0.016": 0.0,
			"0.017": 0.0,
			"0.018": 0.0,
			"0.019": 0.0,
			"0.02": 0.0,
			"0.021": 0.0,
			"0.022": 0.0,
			"0.023": 0.0,
			"0.024": 0.0,
			"0.025": 0.0
		}
	}
}
