{
	 "smiles": "CCC1=CC(O)=CC(C)=C1", 
	 "Tm": 324.75, 
	 "num_atms": 22, 
	 "gaussian": { 
		 "optdone": 1, 
		 "sigma_profile": "yes", 
		 "theory": "DFT", 
		 "functional": "B3LYP", 
		 "basiset": "6-31G**", 
		 "properties": { 
			 "R2extent": 2077.4683, 
			 "electric_dipole_moment_norm": 1.28378559736, 
			 "electric_quadrupole_moment_norm": 7.0562371162, 
			 "total_energy": -425.427888516, 
			 "HOMO_LUMO_gap": 0.21739, 
			 "cosmo_polarized_energy": -7.62, 
			 "cosmo_cavitation_energy": 24.99, 
			 "cosmo_dispersion_energy": -18.1, 
			 "cosmo_repulsion_energy": 1.49, 
			 "cosmo_total_nonelectrostatic_energy": 8.38, 
			 "SMD_solvation_energy": 4.64 
		},
		"coords": [
			{
				"x": -0.6651745747,
				"y": -2.636105659,
				"z": -2.2577223068,
				"element": "C" 
			},
			{
				"x": 0.4454331614,
				"y": -1.7872263531,
				"z": -1.6129890303,
				"element": "C" 
			},
			{
				"x": -0.0471335898,
				"y": -0.4354887291,
				"z": -1.1386432547,
				"element": "C" 
			},
			{
				"x": -0.5793134427,
				"y": -0.2884605301,
				"z": 0.1478049781,
				"element": "C" 
			},
			{
				"x": -1.0757422593,
				"y": 0.9487151744,
				"z": 0.5671314106,
				"element": "C" 
			},
			{
				"x": -1.6061695448,
				"y": 1.1420322101,
				"z": 1.8137579679,
				"element": "O" 
			},
			{
				"x": -1.0437425857,
				"y": 2.0499552271,
				"z": -0.2928095197,
				"element": "C" 
			},
			{
				"x": -0.5111578546,
				"y": 1.9213125253,
				"z": -1.5779856219,
				"element": "C" 
			},
			{
				"x": -0.438205962,
				"y": 3.1194782659,
				"z": -2.496523263,
				"element": "C" 
			},
			{
				"x": -0.0186812307,
				"y": 0.6749543408,
				"z": -1.9892624288,
				"element": "C" 
			},
			{
				"x": -0.2764444527,
				"y": -3.6044944677,
				"z": -2.5904282517,
				"element": "H" 
			},
			{
				"x": -1.4786994568,
				"y": -2.8217954051,
				"z": -1.5488610958,
				"element": "H" 
			},
			{
				"x": -1.0936510079,
				"y": -2.1248183301,
				"z": -3.1256724459,
				"element": "H" 
			},
			{
				"x": 1.2562633993,
				"y": -1.6451728942,
				"z": -2.3371383634,
				"element": "H" 
			},
			{
				"x": 0.8760792477,
				"y": -2.3385545345,
				"z": -0.7682090527,
				"element": "H" 
			},
			{
				"x": -0.6073298904,
				"y": -1.141706469,
				"z": 0.8245552467,
				"element": "H" 
			},
			{
				"x": -1.569190729,
				"y": 0.3093920172,
				"z": 2.3018194741,
				"element": "H" 
			},
			{
				"x": -1.435776665,
				"y": 2.9989223224,
				"z": 0.060453396,
				"element": "H" 
			},
			{
				"x": -1.2752934151,
				"y": 3.8040868219,
				"z": -2.329368048,
				"element": "H" 
			},
			{
				"x": 0.4851237924,
				"y": 3.688637016,
				"z": -2.3305428394,
				"element": "H" 
			},
			{
				"x": -0.450119244,
				"y": 2.8181608574,
				"z": -3.5481968166,
				"element": "H" 
			},
			{
				"x": 0.3959263043,
				"y": 0.5687765935,
				"z": -2.9892701349,
				"element": "H" 
			}
		],
		 "valence_orbital": [ 
			{
				"type": "occ",
				"energy": -0.33381,
				"method": "rhf"
			},
			{
				"type": "occ",
				"energy": -0.32064,
				"method": "rhf"
			},
			{
				"type": "occ",
				"energy": -0.31019,
				"method": "rhf"
			},
			{
				"type": "occ",
				"energy": -0.23229,
				"method": "rhf"
			},
			{
				"type": "occ",
				"energy": -0.21239,
				"method": "rhf"
			},
			{
				"type": "unocc",
				"energy": 0.005,
				"method": "rhf"
			},
			{
				"type": "unocc",
				"energy": 0.0199,
				"method": "rhf"
			},
			{
				"type": "unocc",
				"energy": 0.07533,
				"method": "rhf"
			},
			{
				"type": "unocc",
				"energy": 0.09766,
				"method": "rhf"
			},
			{
				"type": "unocc",
				"energy": 0.11762,
				"method": "rhf"
			}
		],
		"cosmo_sigma_profile": { 
			"-0.025": 0.0,
			"-0.024": 0.0,
			"-0.023": 0.0,
			"-0.022": 0.0,
			"-0.021": 0.0,
			"-0.02": 0.0,
			"-0.019": 0.0,
			"-0.018": 0.0581941714663,
			"-0.017": 0.964508751139,
			"-0.016": 1.07742292249,
			"-0.015": 0.889889428762,
			"-0.014": 1.22751830661,
			"-0.013": 0.887988627545,
			"-0.012": 0.631787844454,
			"-0.011": 0.47396176748,
			"-0.01": 1.20280747296,
			"-0.009": 1.44468624948,
			"-0.008": 1.05559259232,
			"-0.007": 0.660596240868,
			"-0.006": 1.63612259757,
			"-0.005": 3.51009912282,
			"-0.004": 11.2306867929,
			"-0.003": 21.335858338,
			"-0.002": 20.8271346359,
			"-0.001": 22.5639838583,
			"0.0": 25.034289725,
			"0.001": 19.4307881063,
			"0.002": 10.999426647,
			"0.003": 6.89285809157,
			"0.004": 7.87752484787,
			"0.005": 10.2826601503,
			"0.006": 10.2203556711,
			"0.007": 5.61236139487,
			"0.008": 1.25587567155,
			"0.009": 1.77045333263,
			"0.01": 1.21278937132,
			"0.011": 2.08182623544,
			"0.012": 1.56963307341,
			"0.013": 0.0038787297663,
			"0.014": 0.0,
			"0.015": 0.0,
			"0.016": 0.0,
			"0.017": 0.0,
			"0.018": 0.0,
			"0.019": 0.0,
			"0.02": 0.0,
			"0.021": 0.0,
			"0.022": 0.0,
			"0.023": 0.0,
			"0.024": 0.0,
			"0.025": 0.0
		}
	}
}
