{
	 "smiles": "FC(F)(F)C(F)(F)C(F)(F)C(=O)OC(=O)C(F)(F)C(F)(F)C(F)(F)F", 
	 "Tm": 230.15, 
	 "num_atms": 25, 
	 "gaussian": { 
		 "optdone": 1, 
		 "sigma_profile": "yes", 
		 "theory": "DFT", 
		 "functional": "B3LYP", 
		 "basiset": "6-31G**", 
		 "properties": { 
			 "R2extent": 7262.1064, 
			 "electric_dipole_moment_norm": 1.59753285099, 
			 "electric_quadrupole_moment_norm": 5.76101928915, 
			 "total_energy": -1928.22503171, 
			 "HOMO_LUMO_gap": 0.2205, 
			 "cosmo_polarized_energy": -5.59, 
			 "cosmo_cavitation_energy": 36.23, 
			 "cosmo_dispersion_energy": -22.88, 
			 "cosmo_repulsion_energy": 1.47, 
			 "cosmo_total_nonelectrostatic_energy": 14.82, 
			 "SMD_solvation_energy": 12.44 
		},
		"coords": [
			{
				"x": 0.5728518,
				"y": 3.7692358642,
				"z": 2.6524951411,
				"element": "F" 
			},
			{
				"x": -0.2499179156,
				"y": 2.8927348776,
				"z": 2.0733644901,
				"element": "C" 
			},
			{
				"x": -0.0562485397,
				"y": 1.6793971618,
				"z": 2.6245705275,
				"element": "F" 
			},
			{
				"x": -1.5134467136,
				"y": 3.2672054181,
				"z": 2.2899087867,
				"element": "F" 
			},
			{
				"x": 0.0111464665,
				"y": 2.8119008908,
				"z": 0.5521525024,
				"element": "C" 
			},
			{
				"x": -0.944322952,
				"y": 2.023213876,
				"z": 0.0078836902,
				"element": "F" 
			},
			{
				"x": -0.0989453656,
				"y": 4.0569498303,
				"z": 0.0413797499,
				"element": "F" 
			},
			{
				"x": 1.4069897163,
				"y": 2.2590968614,
				"z": 0.1496384533,
				"element": "C" 
			},
			{
				"x": 1.5028163703,
				"y": 2.3679051494,
				"z": -1.1981595344,
				"element": "F" 
			},
			{
				"x": 2.3497668213,
				"y": 3.029910515,
				"z": 0.7270645907,
				"element": "F" 
			},
			{
				"x": 1.6886111084,
				"y": 0.7875372215,
				"z": 0.5482874683,
				"element": "C" 
			},
			{
				"x": 2.4459523677,
				"y": 0.460940812,
				"z": 1.405857247,
				"element": "O" 
			},
			{
				"x": 0.9250174576,
				"y": -0.0320201167,
				"z": -0.2581693755,
				"element": "O" 
			},
			{
				"x": 0.9832427725,
				"y": -1.4087960007,
				"z": -0.1695983357,
				"element": "C" 
			},
			{
				"x": 1.814385187,
				"y": -2.0642622991,
				"z": 0.3744831108,
				"element": "O" 
			},
			{
				"x": -0.2215423992,
				"y": -2.0157510848,
				"z": -0.9345406106,
				"element": "C" 
			},
			{
				"x": 0.1995074951,
				"y": -3.1728508073,
				"z": -1.4885688111,
				"element": "F" 
			},
			{
				"x": -0.6434106762,
				"y": -1.1825911997,
				"z": -1.9120103191,
				"element": "F" 
			},
			{
				"x": -1.4316937382,
				"y": -2.3730204012,
				"z": -0.0265797455,
				"element": "C" 
			},
			{
				"x": -2.3550394779,
				"y": -2.9861382695,
				"z": -0.7975968345,
				"element": "F" 
			},
			{
				"x": -1.0017059567,
				"y": -3.228284964,
				"z": 0.928068662,
				"element": "F" 
			},
			{
				"x": -2.118819688,
				"y": -1.1844708023,
				"z": 0.6821877151,
				"element": "C" 
			},
			{
				"x": -1.2314883821,
				"y": -0.575112972,
				"z": 1.4949069457,
				"element": "F" 
			},
			{
				"x": -3.1360272673,
				"y": -1.6324804814,
				"z": 1.4204538248,
				"element": "F" 
			},
			{
				"x": -2.5760784906,
				"y": -0.2958490793,
				"z": -0.2032793391,
				"element": "F" 
			}
		],
		 "valence_orbital": [ 
			{
				"type": "occ",
				"energy": -0.38375,
				"method": "rhf"
			},
			{
				"type": "occ",
				"energy": -0.38077,
				"method": "rhf"
			},
			{
				"type": "occ",
				"energy": -0.37681,
				"method": "rhf"
			},
			{
				"type": "occ",
				"energy": -0.35257,
				"method": "rhf"
			},
			{
				"type": "occ",
				"energy": -0.31833,
				"method": "rhf"
			},
			{
				"type": "unocc",
				"energy": -0.09783,
				"method": "rhf"
			},
			{
				"type": "unocc",
				"energy": -0.04526,
				"method": "rhf"
			},
			{
				"type": "unocc",
				"energy": 0.0272,
				"method": "rhf"
			},
			{
				"type": "unocc",
				"energy": 0.03652,
				"method": "rhf"
			},
			{
				"type": "unocc",
				"energy": 0.05566,
				"method": "rhf"
			}
		],
		"cosmo_sigma_profile": { 
			"-0.025": -2.07940393776,
			"-0.024": -0.00627990615746,
			"-0.023": 0.0,
			"-0.022": 0.0,
			"-0.021": 0.0,
			"-0.02": 0.0,
			"-0.019": 0.0,
			"-0.018": 0.0,
			"-0.017": 0.0,
			"-0.016": 0.0,
			"-0.015": 0.0,
			"-0.014": 0.0,
			"-0.013": 0.0,
			"-0.012": 0.11930871219,
			"-0.011": 0.739442353423,
			"-0.01": 2.42923631468,
			"-0.009": 2.61268794184,
			"-0.008": 1.94296090352,
			"-0.007": 2.763023982,
			"-0.006": 2.53609256339,
			"-0.005": 4.41394865995,
			"-0.004": 5.78628497012,
			"-0.003": 12.7772946186,
			"-0.002": 22.3999897415,
			"-0.001": 34.6491280205,
			"0.0": 63.8360780725,
			"0.001": 95.9243156491,
			"0.002": 11.3004757827,
			"0.003": 3.82572516245,
			"0.004": 3.53575730162,
			"0.005": 3.96059506727,
			"0.006": 5.92498701298,
			"0.007": 6.96521730877,
			"0.008": 2.46846509324,
			"0.009": 1.4411053246,
			"0.01": 0.0815414440175,
			"0.011": 0.0,
			"0.012": 0.0,
			"0.013": 0.0,
			"0.014": 0.0,
			"0.015": 0.0,
			"0.016": 0.0,
			"0.017": 0.0,
			"0.018": 0.0,
			"0.019": 0.0,
			"0.02": 0.0,
			"0.021": 0.0,
			"0.022": 0.0,
			"0.023": 0.0,
			"0.024": 0.341745754167,
			"0.025": -0.280587347249
		}
	}
}
