{
	 "smiles": "NC1=CC=C(NCC2=NC=CC=C2)C=C1", 
	 "Tm": 363.15, 
	 "num_atms": 28, 
	 "gaussian": { 
		 "optdone": 1, 
		 "sigma_profile": "yes", 
		 "theory": "DFT", 
		 "functional": "B3LYP", 
		 "basiset": "6-31G**", 
		 "properties": { 
			 "R2extent": 4190.8625, 
			 "electric_dipole_moment_norm": 3.35142989931, 
			 "electric_quadrupole_moment_norm": 11.3638464412, 
			 "total_energy": -629.361078822, 
			 "HOMO_LUMO_gap": 0.13842, 
			 "cosmo_polarized_energy": -14.5, 
			 "cosmo_cavitation_energy": 31.85, 
			 "cosmo_dispersion_energy": -22.75, 
			 "cosmo_repulsion_energy": 1.8, 
			 "cosmo_total_nonelectrostatic_energy": 10.9, 
			 "SMD_solvation_energy": 2.85 
		},
		"coords": [
			{
				"x": -2.5307571951,
				"y": 3.6232971411,
				"z": 0.4814742667,
				"element": "N" 
			},
			{
				"x": -1.322548482,
				"y": 2.9179917582,
				"z": 0.3139801398,
				"element": "C" 
			},
			{
				"x": -0.698638038,
				"y": 2.8397060786,
				"z": -0.9414414471,
				"element": "C" 
			},
			{
				"x": 0.5242062305,
				"y": 2.1974273531,
				"z": -1.094999522,
				"element": "C" 
			},
			{
				"x": 1.1843754612,
				"y": 1.60185058,
				"z": -0.0056003285,
				"element": "C" 
			},
			{
				"x": 2.455970616,
				"y": 1.0266779453,
				"z": -0.2089156255,
				"element": "N" 
			},
			{
				"x": 2.9817162148,
				"y": 0.0410015882,
				"z": 0.7219132721,
				"element": "C" 
			},
			{
				"x": 2.2818404769,
				"y": -1.3127214341,
				"z": 0.6804172236,
				"element": "C" 
			},
			{
				"x": 2.1001972253,
				"y": -1.8258463038,
				"z": -0.5475814822,
				"element": "N" 
			},
			{
				"x": 1.5068013107,
				"y": -3.0190148277,
				"z": -0.6496794823,
				"element": "C" 
			},
			{
				"x": 1.0700324064,
				"y": -3.7626406254,
				"z": 0.4485863925,
				"element": "C" 
			},
			{
				"x": 1.2627294483,
				"y": -3.2287094651,
				"z": 1.7211779432,
				"element": "C" 
			},
			{
				"x": 1.8777688968,
				"y": -1.9826476924,
				"z": 1.8394734865,
				"element": "C" 
			},
			{
				"x": 0.5565086971,
				"y": 1.6752654902,
				"z": 1.2467860409,
				"element": "C" 
			},
			{
				"x": -0.669790852,
				"y": 2.3238058316,
				"z": 1.4005868452,
				"element": "C" 
			},
			{
				"x": -3.0771200275,
				"y": 3.3069128447,
				"z": 1.2727459849,
				"element": "H" 
			},
			{
				"x": -3.1052623483,
				"y": 3.6445944834,
				"z": -0.3517650258,
				"element": "H" 
			},
			{
				"x": -1.1768492354,
				"y": 3.2916570623,
				"z": -1.8076244943,
				"element": "H" 
			},
			{
				"x": 0.9847739556,
				"y": 2.1579983189,
				"z": -2.0796142063,
				"element": "H" 
			},
			{
				"x": 2.5623509553,
				"y": 0.6946383341,
				"z": -1.1606226374,
				"element": "H" 
			},
			{
				"x": 4.0372949823,
				"y": -0.1122457624,
				"z": 0.4652512499,
				"element": "H" 
			},
			{
				"x": 2.9698329918,
				"y": 0.4463734995,
				"z": 1.7377356742,
				"element": "H" 
			},
			{
				"x": 1.3746875543,
				"y": -3.4032663573,
				"z": -1.6600822891,
				"element": "H" 
			},
			{
				"x": 0.5934465038,
				"y": -4.7271113838,
				"z": 0.304948004,
				"element": "H" 
			},
			{
				"x": 0.9351214601,
				"y": -3.768497795,
				"z": 2.6053546971,
				"element": "H" 
			},
			{
				"x": 2.0408163545,
				"y": -1.5323151425,
				"z": 2.8144806473,
				"element": "H" 
			},
			{
				"x": 1.0135001085,
				"y": 1.2230541774,
				"z": 2.1202442249,
				"element": "H" 
			},
			{
				"x": -1.1268056718,
				"y": 2.364464303,
				"z": 2.3869704476,
				"element": "H" 
			}
		],
		 "valence_orbital": [ 
			{
				"type": "occ",
				"energy": -0.25917,
				"method": "rhf"
			},
			{
				"type": "occ",
				"energy": -0.25682,
				"method": "rhf"
			},
			{
				"type": "occ",
				"energy": -0.24447,
				"method": "rhf"
			},
			{
				"type": "occ",
				"energy": -0.23368,
				"method": "rhf"
			},
			{
				"type": "occ",
				"energy": -0.16517,
				"method": "rhf"
			},
			{
				"type": "unocc",
				"energy": -0.02675,
				"method": "rhf"
			},
			{
				"type": "unocc",
				"energy": -0.01081,
				"method": "rhf"
			},
			{
				"type": "unocc",
				"energy": 0.01438,
				"method": "rhf"
			},
			{
				"type": "unocc",
				"energy": 0.04172,
				"method": "rhf"
			},
			{
				"type": "unocc",
				"energy": 0.08712,
				"method": "rhf"
			}
		],
		"cosmo_sigma_profile": { 
			"-0.025": 0.0,
			"-0.024": 0.0,
			"-0.023": 0.0,
			"-0.022": 0.0,
			"-0.021": 0.0,
			"-0.02": 0.0,
			"-0.019": 0.0,
			"-0.018": 0.0,
			"-0.017": 0.0,
			"-0.016": 0.0,
			"-0.015": 0.0,
			"-0.014": 0.0,
			"-0.013": 0.0,
			"-0.012": 0.592864496055,
			"-0.011": 2.73288566694,
			"-0.01": 3.66284935132,
			"-0.009": 3.42079833345,
			"-0.008": 4.33708462146,
			"-0.007": 8.83136815685,
			"-0.006": 17.5380503113,
			"-0.005": 21.0991527188,
			"-0.004": 20.4481270963,
			"-0.003": 16.3500500574,
			"-0.002": 17.2355690626,
			"-0.001": 10.7070775463,
			"0.0": 12.8197619727,
			"0.001": 12.1259171895,
			"0.002": 14.7083844777,
			"0.003": 18.5140103458,
			"0.004": 12.3953442774,
			"0.005": 9.80370056267,
			"0.006": 10.0266484659,
			"0.007": 12.1834154205,
			"0.008": 8.80746884917,
			"0.009": 2.33026618352,
			"0.01": 3.37471759834,
			"0.011": 2.71535697661,
			"0.012": 1.33790865869,
			"0.013": 1.15354069365,
			"0.014": 2.51144906021,
			"0.015": 0.712287274319,
			"0.016": 0.491322065204,
			"0.017": 0.149978749162,
			"0.018": 0.0,
			"0.019": 0.0,
			"0.02": 0.0,
			"0.021": 0.0,
			"0.022": 0.0,
			"0.023": 0.0,
			"0.024": 0.0,
			"0.025": 0.0
		}
	}
}
