{
	 "smiles": "NC1=NC=NC2=C1N=CN2CC(O)CO", 
	 "Tm": 475.15, 
	 "num_atms": 26, 
	 "gaussian": { 
		 "optdone": 1, 
		 "sigma_profile": "yes", 
		 "theory": "DFT", 
		 "functional": "B3LYP", 
		 "basiset": "6-31G**", 
		 "properties": { 
			 "R2extent": 3725.2261, 
			 "electric_dipole_moment_norm": 2.34569781728, 
			 "electric_quadrupole_moment_norm": 7.61323282647, 
			 "total_energy": -735.691512648, 
			 "HOMO_LUMO_gap": 0.19924, 
			 "cosmo_polarized_energy": -19.96, 
			 "cosmo_cavitation_energy": 29.94, 
			 "cosmo_dispersion_energy": -21.83, 
			 "cosmo_repulsion_energy": 1.72, 
			 "cosmo_total_nonelectrostatic_energy": 9.83, 
			 "SMD_solvation_energy": 0.99 
		},
		"coords": [
			{
				"x": -1.9133984838,
				"y": -4.3774489952,
				"z": 0.7420512408,
				"element": "N" 
			},
			{
				"x": -1.6006901856,
				"y": -3.0857263565,
				"z": 1.0123200417,
				"element": "C" 
			},
			{
				"x": -1.4515723712,
				"y": -2.708804665,
				"z": 2.2953776679,
				"element": "N" 
			},
			{
				"x": -1.1120351712,
				"y": -1.434841333,
				"z": 2.5515392843,
				"element": "C" 
			},
			{
				"x": -0.8928554804,
				"y": -0.4367700894,
				"z": 1.6887728337,
				"element": "N" 
			},
			{
				"x": -1.0585427492,
				"y": -0.8433546181,
				"z": 0.4224578073,
				"element": "C" 
			},
			{
				"x": -1.4039869037,
				"y": -2.1293617242,
				"z": -0.0065161827,
				"element": "C" 
			},
			{
				"x": -1.4945633093,
				"y": -2.1914812263,
				"z": -1.3857119355,
				"element": "N" 
			},
			{
				"x": -1.2083789847,
				"y": -0.9704023603,
				"z": -1.7712361052,
				"element": "C" 
			},
			{
				"x": -0.9323848533,
				"y": -0.0984639815,
				"z": -0.7333100974,
				"element": "N" 
			},
			{
				"x": -0.5872476349,
				"y": 1.3135759941,
				"z": -0.828299509,
				"element": "C" 
			},
			{
				"x": 0.921554204,
				"y": 1.5772403232,
				"z": -0.933070427,
				"element": "C" 
			},
			{
				"x": 1.0566465182,
				"y": 2.9300921381,
				"z": -1.3255282071,
				"element": "O" 
			},
			{
				"x": 1.6885627333,
				"y": 1.3513755173,
				"z": 0.3753322855,
				"element": "C" 
			},
			{
				"x": 3.0138222946,
				"y": 1.8751689543,
				"z": 0.2421493793,
				"element": "O" 
			},
			{
				"x": -2.181620067,
				"y": -4.6306398003,
				"z": -0.1952093208,
				"element": "H" 
			},
			{
				"x": -2.1828142532,
				"y": -4.9684698366,
				"z": 1.5124206303,
				"element": "H" 
			},
			{
				"x": -1.0026849853,
				"y": -1.1856058153,
				"z": 3.6051930485,
				"element": "H" 
			},
			{
				"x": -1.1882498061,
				"y": -0.6301600421,
				"z": -2.7989963589,
				"element": "H" 
			},
			{
				"x": -1.0658739956,
				"y": 1.7297284627,
				"z": -1.7187342961,
				"element": "H" 
			},
			{
				"x": -0.9969514569,
				"y": 1.8246992053,
				"z": 0.0467024306,
				"element": "H" 
			},
			{
				"x": 1.3375079746,
				"y": 0.9038325688,
				"z": -1.7074506249,
				"element": "H" 
			},
			{
				"x": 1.9501985435,
				"y": 3.1862290021,
				"z": -1.0443955093,
				"element": "H" 
			},
			{
				"x": 1.6920720546,
				"y": 0.2958749772,
				"z": 0.6698004724,
				"element": "H" 
			},
			{
				"x": 1.2176684232,
				"y": 1.9225767166,
				"z": 1.1802382635,
				"element": "H" 
			},
			{
				"x": 3.5320179452,
				"y": 1.2516369841,
				"z": -0.2841968119,
				"element": "H" 
			}
		],
		 "valence_orbital": [ 
			{
				"type": "occ",
				"energy": -0.28175,
				"method": "rhf"
			},
			{
				"type": "occ",
				"energy": -0.26933,
				"method": "rhf"
			},
			{
				"type": "occ",
				"energy": -0.2612,
				"method": "rhf"
			},
			{
				"type": "occ",
				"energy": -0.2492,
				"method": "rhf"
			},
			{
				"type": "occ",
				"energy": -0.21953,
				"method": "rhf"
			},
			{
				"type": "unocc",
				"energy": -0.02029,
				"method": "rhf"
			},
			{
				"type": "unocc",
				"energy": 0.00665,
				"method": "rhf"
			},
			{
				"type": "unocc",
				"energy": 0.03827,
				"method": "rhf"
			},
			{
				"type": "unocc",
				"energy": 0.05463,
				"method": "rhf"
			},
			{
				"type": "unocc",
				"energy": 0.08651,
				"method": "rhf"
			}
		],
		"cosmo_sigma_profile": { 
			"-0.025": 0.0,
			"-0.024": 0.0,
			"-0.023": 0.0,
			"-0.022": 0.0,
			"-0.021": 0.0,
			"-0.02": 0.0,
			"-0.019": 0.0,
			"-0.018": 0.0,
			"-0.017": 0.0731574823392,
			"-0.016": 1.17689960427,
			"-0.015": 1.00707516993,
			"-0.014": 2.54868395299,
			"-0.013": 3.49985151126,
			"-0.012": 2.68378400338,
			"-0.011": 2.34223639907,
			"-0.01": 5.17642934301,
			"-0.009": 7.09767399184,
			"-0.008": 6.45709738067,
			"-0.007": 8.33150012344,
			"-0.006": 9.06434588752,
			"-0.005": 14.1117896253,
			"-0.004": 14.1336305989,
			"-0.003": 12.8527682099,
			"-0.002": 11.025709194,
			"-0.001": 13.1755774161,
			"0.0": 17.0481900158,
			"0.001": 15.432946495,
			"0.002": 10.5036964423,
			"0.003": 9.64999836913,
			"0.004": 9.2911613229,
			"0.005": 8.88472821221,
			"0.006": 6.12090326451,
			"0.007": 6.06964417024,
			"0.008": 7.54229900558,
			"0.009": 5.62073339565,
			"0.01": 3.9884872069,
			"0.011": 4.53116607207,
			"0.012": 5.46450756113,
			"0.013": 6.18740785682,
			"0.014": 2.86383834102,
			"0.015": 2.06172601199,
			"0.016": 0.467223901788,
			"0.017": 0.0,
			"0.018": 0.0,
			"0.019": 0.0,
			"0.02": 0.0,
			"0.021": 0.0,
			"0.022": 0.0,
			"0.023": 0.0,
			"0.024": 0.0,
			"0.025": 0.0
		}
	}
}
