{
	 "smiles": "COC1=CC=C(C=C1)C(O)(C1CC1)C1=CN=CN=C1", 
	 "Tm": 383.15, 
	 "num_atms": 35, 
	 "gaussian": { 
		 "optdone": 1, 
		 "sigma_profile": "yes", 
		 "theory": "DFT", 
		 "functional": "B3LYP", 
		 "basiset": "6-31G**", 
		 "properties": { 
			 "R2extent": 6404.1396, 
			 "electric_dipole_moment_norm": 3.9137282711, 
			 "electric_quadrupole_moment_norm": 18.0526515606, 
			 "total_energy": -841.125910731, 
			 "HOMO_LUMO_gap": 0.18024, 
			 "cosmo_polarized_energy": -14.55, 
			 "cosmo_cavitation_energy": 37.2, 
			 "cosmo_dispersion_energy": -26.23, 
			 "cosmo_repulsion_energy": 2.01, 
			 "cosmo_total_nonelectrostatic_energy": 12.98, 
			 "SMD_solvation_energy": 3.7 
		},
		"coords": [
			{
				"x": 4.6216979225,
				"y": 0.7065351906,
				"z": 0.1488839137,
				"element": "C" 
			},
			{
				"x": 3.4100432831,
				"y": 1.4348266341,
				"z": 0.0343885733,
				"element": "O" 
			},
			{
				"x": 2.2381198146,
				"y": 0.7367310201,
				"z": 0.0043772248,
				"element": "C" 
			},
			{
				"x": 1.0710415199,
				"y": 1.508212766,
				"z": -0.1157345905,
				"element": "C" 
			},
			{
				"x": -0.1720220745,
				"y": 0.8952294308,
				"z": -0.1576199421,
				"element": "C" 
			},
			{
				"x": -0.2938585449,
				"y": -0.5025378399,
				"z": -0.0756454504,
				"element": "C" 
			},
			{
				"x": 0.8725283997,
				"y": -1.2584021945,
				"z": 0.0475750543,
				"element": "C" 
			},
			{
				"x": 2.135098424,
				"y": -0.654628393,
				"z": 0.0864303891,
				"element": "C" 
			},
			{
				"x": -1.6835916361,
				"y": -1.143727811,
				"z": -0.1581196949,
				"element": "C" 
			},
			{
				"x": -2.5790839725,
				"y": -0.2500088639,
				"z": 0.5250758798,
				"element": "O" 
			},
			{
				"x": -1.7350952226,
				"y": -2.4846665578,
				"z": 0.5857263232,
				"element": "C" 
			},
			{
				"x": -1.5797587584,
				"y": -3.8482761105,
				"z": -0.0365417463,
				"element": "C" 
			},
			{
				"x": -2.9333229197,
				"y": -3.403333322,
				"z": 0.456851548,
				"element": "C" 
			},
			{
				"x": -2.1139475038,
				"y": -1.2615515466,
				"z": -1.6300688103,
				"element": "C" 
			},
			{
				"x": -1.2842380727,
				"y": -1.7867960162,
				"z": -2.6294555313,
				"element": "C" 
			},
			{
				"x": -1.6609168722,
				"y": -1.9050812002,
				"z": -3.9071170527,
				"element": "N" 
			},
			{
				"x": -2.8939519805,
				"y": -1.4733498798,
				"z": -4.1951313118,
				"element": "C" 
			},
			{
				"x": -3.7687439056,
				"y": -0.9260248449,
				"z": -3.3481454093,
				"element": "N" 
			},
			{
				"x": -3.3650420912,
				"y": -0.8236924689,
				"z": -2.0742671325,
				"element": "C" 
			},
			{
				"x": 4.663280417,
				"y": 0.1324934651,
				"z": 1.0837676073,
				"element": "H" 
			},
			{
				"x": 5.421430496,
				"y": 1.4487772141,
				"z": 0.1487541774,
				"element": "H" 
			},
			{
				"x": 4.76507476,
				"y": 0.0221968521,
				"z": -0.6974272791,
				"element": "H" 
			},
			{
				"x": 1.168315052,
				"y": 2.5875285718,
				"z": -0.1730733909,
				"element": "H" 
			},
			{
				"x": -1.0671150341,
				"y": 1.5015568357,
				"z": -0.241571724,
				"element": "H" 
			},
			{
				"x": 0.8133020599,
				"y": -2.339590487,
				"z": 0.121330224,
				"element": "H" 
			},
			{
				"x": 3.0164922502,
				"y": -1.277027922,
				"z": 0.1854126055,
				"element": "H" 
			},
			{
				"x": -3.3152027155,
				"y": -0.7858246777,
				"z": 0.8499003306,
				"element": "H" 
			},
			{
				"x": -1.3349703922,
				"y": -2.3805577138,
				"z": 1.5917007422,
				"element": "H" 
			},
			{
				"x": -1.0416297708,
				"y": -4.5998376424,
				"z": 0.5332890315,
				"element": "H" 
			},
			{
				"x": -1.4448558457,
				"y": -3.9239060749,
				"z": -1.1103099,
				"element": "H" 
			},
			{
				"x": -3.3344382482,
				"y": -3.8532835867,
				"z": 1.3596661438,
				"element": "H" 
			},
			{
				"x": -3.6792376604,
				"y": -3.1738107337,
				"z": -0.2994949539,
				"element": "H" 
			},
			{
				"x": -0.271044285,
				"y": -2.1073748452,
				"z": -2.3952066759,
				"element": "H" 
			},
			{
				"x": -3.2134894238,
				"y": -1.5712278574,
				"z": -5.2310144538,
				"element": "H" 
			},
			{
				"x": -4.0562674687,
				"y": -0.3521693906,
				"z": -1.3812847187,
				"element": "H" 
			}
		],
		 "valence_orbital": [ 
			{
				"type": "occ",
				"energy": -0.2787,
				"method": "rhf"
			},
			{
				"type": "occ",
				"energy": -0.27184,
				"method": "rhf"
			},
			{
				"type": "occ",
				"energy": -0.25154,
				"method": "rhf"
			},
			{
				"type": "occ",
				"energy": -0.24632,
				"method": "rhf"
			},
			{
				"type": "occ",
				"energy": -0.21823,
				"method": "rhf"
			},
			{
				"type": "unocc",
				"energy": -0.03799,
				"method": "rhf"
			},
			{
				"type": "unocc",
				"energy": -0.02675,
				"method": "rhf"
			},
			{
				"type": "unocc",
				"energy": -0.00246,
				"method": "rhf"
			},
			{
				"type": "unocc",
				"energy": 0.00938,
				"method": "rhf"
			},
			{
				"type": "unocc",
				"energy": 0.07667,
				"method": "rhf"
			}
		],
		"cosmo_sigma_profile": { 
			"-0.025": 0.0,
			"-0.024": 0.0,
			"-0.023": 0.0,
			"-0.022": 0.0,
			"-0.021": 0.0,
			"-0.02": 0.0,
			"-0.019": 0.0,
			"-0.018": 0.0,
			"-0.017": 0.0,
			"-0.016": 0.0,
			"-0.015": 0.0712157155038,
			"-0.014": 0.501533672424,
			"-0.013": 0.41221145293,
			"-0.012": 0.952502480664,
			"-0.011": 0.694365087488,
			"-0.01": 1.79851053409,
			"-0.009": 1.26207380791,
			"-0.008": 2.08939588465,
			"-0.007": 4.1681709909,
			"-0.006": 10.8783071379,
			"-0.005": 26.5537377943,
			"-0.004": 31.2245839946,
			"-0.003": 30.784466438,
			"-0.002": 24.7528135097,
			"-0.001": 23.3408541185,
			"0.0": 21.8914763855,
			"0.001": 16.2917768003,
			"0.002": 12.3039289055,
			"0.003": 15.8133447065,
			"0.004": 15.550600859,
			"0.005": 13.1836460038,
			"0.006": 9.75822476112,
			"0.007": 4.9413912563,
			"0.008": 3.95601802681,
			"0.009": 5.01666300829,
			"0.01": 5.12847275365,
			"0.011": 3.59992117063,
			"0.012": 2.95581486186,
			"0.013": 1.9014736811,
			"0.014": 1.53841296148,
			"0.015": 1.92637992751,
			"0.016": 0.430270365111,
			"0.017": 0.0,
			"0.018": 0.0,
			"0.019": 0.0,
			"0.02": 0.0,
			"0.021": 0.0,
			"0.022": 0.0,
			"0.023": 0.0,
			"0.024": 0.0,
			"0.025": 0.0
		}
	}
}
