{
	 "smiles": "O=S1CCCNC2=C1C=CC=C2", 
	 "Tm": 396.15, 
	 "num_atms": 23, 
	 "gaussian": { 
		 "optdone": 1, 
		 "sigma_profile": "yes", 
		 "theory": "DFT", 
		 "functional": "B3LYP", 
		 "basiset": "6-31G**", 
		 "properties": { 
			 "R2extent": 2328.3554, 
			 "electric_dipole_moment_norm": 4.212365694, 
			 "electric_quadrupole_moment_norm": 13.6944808091, 
			 "total_energy": -877.696718397, 
			 "HOMO_LUMO_gap": 0.18468, 
			 "cosmo_polarized_energy": -14.39, 
			 "cosmo_cavitation_energy": 25.68, 
			 "cosmo_dispersion_energy": -20.18, 
			 "cosmo_repulsion_energy": 1.54, 
			 "cosmo_total_nonelectrostatic_energy": 7.03, 
			 "SMD_solvation_energy": 2.74 
		},
		"coords": [
			{
				"x": -1.7090350127,
				"y": -1.0828096174,
				"z": -0.4082597135,
				"element": "O" 
			},
			{
				"x": -0.2529482066,
				"y": -0.8463067237,
				"z": -0.7751907831,
				"element": "S" 
			},
			{
				"x": 0.7136767127,
				"y": -2.2448510415,
				"z": -0.0379963965,
				"element": "C" 
			},
			{
				"x": 0.0873502764,
				"y": -2.7538785902,
				"z": 1.2612517879,
				"element": "C" 
			},
			{
				"x": -0.2492329994,
				"y": -1.6143514932,
				"z": 2.2316789163,
				"element": "C" 
			},
			{
				"x": 0.8331436203,
				"y": -0.6331779486,
				"z": 2.3573549148,
				"element": "N" 
			},
			{
				"x": 0.9326265128,
				"y": 0.4791287112,
				"z": 1.5375260839,
				"element": "C" 
			},
			{
				"x": 0.4922615385,
				"y": 0.5117402022,
				"z": 0.1880892147,
				"element": "C" 
			},
			{
				"x": 0.6518490395,
				"y": 1.6825750025,
				"z": -0.5679737957,
				"element": "C" 
			},
			{
				"x": 1.2541458597,
				"y": 2.820134589,
				"z": -0.043167123,
				"element": "C" 
			},
			{
				"x": 1.718806752,
				"y": 2.7809197135,
				"z": 1.2750943521,
				"element": "C" 
			},
			{
				"x": 1.5606751947,
				"y": 1.6383475135,
				"z": 2.0460943117,
				"element": "C" 
			},
			{
				"x": 1.7345640304,
				"y": -1.8824065124,
				"z": 0.1100351215,
				"element": "H" 
			},
			{
				"x": 0.7294722403,
				"y": -3.0276229636,
				"z": -0.8019530442,
				"element": "H" 
			},
			{
				"x": -0.8388696631,
				"y": -3.2918610189,
				"z": 1.0366537802,
				"element": "H" 
			},
			{
				"x": 0.7850791259,
				"y": -3.4661396027,
				"z": 1.7187811971,
				"element": "H" 
			},
			{
				"x": -1.1645344443,
				"y": -1.1241647307,
				"z": 1.8823724534,
				"element": "H" 
			},
			{
				"x": -0.4449007759,
				"y": -2.0225555765,
				"z": 3.2277439689,
				"element": "H" 
			},
			{
				"x": 1.1276906791,
				"y": -0.4524774298,
				"z": 3.3057077506,
				"element": "H" 
			},
			{
				"x": 0.3049706959,
				"y": 1.6802484081,
				"z": -1.5982086846,
				"element": "H" 
			},
			{
				"x": 1.3690227322,
				"y": 3.7130318582,
				"z": -0.6484706385,
				"element": "H" 
			},
			{
				"x": 2.2023344687,
				"y": 3.6511354035,
				"z": 1.7102481971,
				"element": "H" 
			},
			{
				"x": 1.9176516229,
				"y": 1.6269418477,
				"z": 3.0737881291,
				"element": "H" 
			}
		],
		 "valence_orbital": [ 
			{
				"type": "occ",
				"energy": -0.30131,
				"method": "rhf"
			},
			{
				"type": "occ",
				"energy": -0.26338,
				"method": "rhf"
			},
			{
				"type": "occ",
				"energy": -0.24986,
				"method": "rhf"
			},
			{
				"type": "occ",
				"energy": -0.21783,
				"method": "rhf"
			},
			{
				"type": "occ",
				"energy": -0.20482,
				"method": "rhf"
			},
			{
				"type": "unocc",
				"energy": -0.02014,
				"method": "rhf"
			},
			{
				"type": "unocc",
				"energy": 0.00191,
				"method": "rhf"
			},
			{
				"type": "unocc",
				"energy": 0.04687,
				"method": "rhf"
			},
			{
				"type": "unocc",
				"energy": 0.06009,
				"method": "rhf"
			},
			{
				"type": "unocc",
				"energy": 0.07311,
				"method": "rhf"
			}
		],
		"cosmo_sigma_profile": { 
			"-0.025": 0.0,
			"-0.024": 0.0,
			"-0.023": 0.0,
			"-0.022": 0.0,
			"-0.021": 0.0,
			"-0.02": 0.0,
			"-0.019": 0.0,
			"-0.018": 0.0,
			"-0.017": 0.0,
			"-0.016": 0.0,
			"-0.015": 0.0,
			"-0.014": 0.196079915421,
			"-0.013": 1.26221051645,
			"-0.012": 1.40244224117,
			"-0.011": 1.43850096816,
			"-0.01": 1.61945011254,
			"-0.009": 1.69450010234,
			"-0.008": 1.49583674108,
			"-0.007": 3.58447955366,
			"-0.006": 11.9220048359,
			"-0.005": 16.0558484101,
			"-0.004": 17.7369721223,
			"-0.003": 21.183200239,
			"-0.002": 18.3674470762,
			"-0.001": 15.1123209265,
			"0.0": 12.0184472824,
			"0.001": 8.58266959969,
			"0.002": 9.42694400308,
			"0.003": 11.4043829968,
			"0.004": 11.6114670843,
			"0.005": 11.7831347947,
			"0.006": 5.09510541776,
			"0.007": 2.13903408056,
			"0.008": 1.72856301354,
			"0.009": 1.38233034751,
			"0.01": 1.18370875196,
			"0.011": 1.67164870671,
			"0.012": 0.927339998907,
			"0.013": 1.50963897402,
			"0.014": 3.98034073827,
			"0.015": 3.14551711444,
			"0.016": 3.1296314099,
			"0.017": 0.224220527616,
			"0.018": 0.0,
			"0.019": 0.0,
			"0.02": 0.0,
			"0.021": 0.0,
			"0.022": 0.0,
			"0.023": 0.0,
			"0.024": 0.0,
			"0.025": 0.0
		}
	}
}
