{
	 "smiles": "NC1=C2N=CN(CC#C)C2=NC=N1", 
	 "Tm": 458.15, 
	 "num_atms": 20, 
	 "gaussian": { 
		 "optdone": 1, 
		 "sigma_profile": "yes", 
		 "theory": "DFT", 
		 "functional": "B3LYP", 
		 "basiset": "6-31G**", 
		 "properties": { 
			 "R2extent": 2636.314, 
			 "electric_dipole_moment_norm": 2.18327923317, 
			 "electric_quadrupole_moment_norm": 15.4417465942, 
			 "total_energy": -582.766285884, 
			 "HOMO_LUMO_gap": 0.19947, 
			 "cosmo_polarized_energy": -14.43, 
			 "cosmo_cavitation_energy": 25.9, 
			 "cosmo_dispersion_energy": -18.65, 
			 "cosmo_repulsion_energy": 1.46, 
			 "cosmo_total_nonelectrostatic_energy": 8.71, 
			 "SMD_solvation_energy": 1.46 
		},
		"coords": [
			{
				"x": 2.6886827451,
				"y": 0.9465358505,
				"z": 0.2707495116,
				"element": "N" 
			},
			{
				"x": 1.5851813116,
				"y": 0.1618303304,
				"z": 0.3421682138,
				"element": "C" 
			},
			{
				"x": 0.2848254006,
				"y": 0.669298914,
				"z": 0.1350722897,
				"element": "C" 
			},
			{
				"x": -0.1981816222,
				"y": 1.9243990627,
				"z": -0.1924371042,
				"element": "N" 
			},
			{
				"x": -1.4983461376,
				"y": 1.7573987777,
				"z": -0.2498898518,
				"element": "C" 
			},
			{
				"x": -1.9060596013,
				"y": 0.4629838824,
				"z": 0.0170719547,
				"element": "N" 
			},
			{
				"x": -3.263842338,
				"y": -0.0761601856,
				"z": 0.0844253076,
				"element": "C" 
			},
			{
				"x": -4.1030226363,
				"y": 0.3462729458,
				"z": -1.0366672717,
				"element": "C" 
			},
			{
				"x": -4.8156592997,
				"y": 0.7052318592,
				"z": -1.9416678648,
				"element": "C" 
			},
			{
				"x": -0.7552097732,
				"y": -0.255350893,
				"z": 0.2695461967,
				"element": "C" 
			},
			{
				"x": -0.645812292,
				"y": -1.5545733929,
				"z": 0.5723542287,
				"element": "N" 
			},
			{
				"x": 0.6339858128,
				"y": -1.9060973681,
				"z": 0.7371869512,
				"element": "C" 
			},
			{
				"x": 1.7342429747,
				"y": -1.1419604433,
				"z": 0.6406608416,
				"element": "N" 
			},
			{
				"x": 2.6049132564,
				"y": 1.8809058166,
				"z": -0.0954773179,
				"element": "H" 
			},
			{
				"x": 3.5906439839,
				"y": 0.4981537978,
				"z": 0.2919203525,
				"element": "H" 
			},
			{
				"x": -2.2183920872,
				"y": 2.5262263651,
				"z": -0.4960672333,
				"element": "H" 
			},
			{
				"x": -3.7333075967,
				"y": 0.2177529086,
				"z": 1.0323465315,
				"element": "H" 
			},
			{
				"x": -3.1550558698,
				"y": -1.1659553921,
				"z": 0.1046384101,
				"element": "H" 
			},
			{
				"x": -5.4376589348,
				"y": 1.0105907207,
				"z": -2.7514334477,
				"element": "H" 
			},
			{
				"x": 0.8132727036,
				"y": -2.9512835564,
				"z": 0.9812993016,
				"element": "H" 
			}
		],
		 "valence_orbital": [ 
			{
				"type": "occ",
				"energy": -0.28159,
				"method": "rhf"
			},
			{
				"type": "occ",
				"energy": -0.27812,
				"method": "rhf"
			},
			{
				"type": "occ",
				"energy": -0.25937,
				"method": "rhf"
			},
			{
				"type": "occ",
				"energy": -0.24767,
				"method": "rhf"
			},
			{
				"type": "occ",
				"energy": -0.21744,
				"method": "rhf"
			},
			{
				"type": "unocc",
				"energy": -0.01797,
				"method": "rhf"
			},
			{
				"type": "unocc",
				"energy": 0.00814,
				"method": "rhf"
			},
			{
				"type": "unocc",
				"energy": 0.02433,
				"method": "rhf"
			},
			{
				"type": "unocc",
				"energy": 0.03526,
				"method": "rhf"
			},
			{
				"type": "unocc",
				"energy": 0.04265,
				"method": "rhf"
			}
		],
		"cosmo_sigma_profile": { 
			"-0.025": 0.0,
			"-0.024": 0.0,
			"-0.023": 0.0,
			"-0.022": 0.0,
			"-0.021": 0.0,
			"-0.02": 0.0,
			"-0.019": 0.0,
			"-0.018": 0.0,
			"-0.017": 0.0,
			"-0.016": 0.0,
			"-0.015": 0.104394607577,
			"-0.014": 1.41755014534,
			"-0.013": 2.19119945493,
			"-0.012": 2.87301499616,
			"-0.011": 3.5042794816,
			"-0.01": 2.97107877451,
			"-0.009": 5.11073549271,
			"-0.008": 9.36143889898,
			"-0.007": 8.85539818084,
			"-0.006": 10.1015999883,
			"-0.005": 8.04238592686,
			"-0.004": 7.70540631526,
			"-0.003": 9.21967923585,
			"-0.002": 8.79922960829,
			"-0.001": 11.8256491641,
			"0.0": 16.1626585343,
			"0.001": 15.9796946081,
			"0.002": 14.1257935677,
			"0.003": 12.0918965586,
			"0.004": 10.9304945815,
			"0.005": 12.3456383183,
			"0.006": 7.53194584796,
			"0.007": 5.3388844454,
			"0.008": 3.92845268508,
			"0.009": 3.87855131638,
			"0.01": 3.0696283946,
			"0.011": 2.16903841333,
			"0.012": 2.05745154133,
			"0.013": 3.54677012586,
			"0.014": 2.08820968325,
			"0.015": 1.69696970793,
			"0.016": 0.362871795025,
			"0.017": 0.0,
			"0.018": 0.0,
			"0.019": 0.0,
			"0.02": 0.0,
			"0.021": 0.0,
			"0.022": 0.0,
			"0.023": 0.0,
			"0.024": 0.0,
			"0.025": 0.0
		}
	}
}
