{
	 "smiles": "NC1=CC=C(C=C1)C1=CN2C=CC=NC2=N1", 
	 "Tm": 525.15, 
	 "num_atms": 26, 
	 "gaussian": { 
		 "optdone": 1, 
		 "sigma_profile": "yes", 
		 "theory": "DFT", 
		 "functional": "B3LYP", 
		 "basiset": "6-31G**", 
		 "properties": { 
			 "R2extent": 5276.7477, 
			 "electric_dipole_moment_norm": 4.40719676098, 
			 "electric_quadrupole_moment_norm": 31.6405923132, 
			 "total_energy": -682.307170182, 
			 "HOMO_LUMO_gap": 0.13727, 
			 "cosmo_polarized_energy": -21.26, 
			 "cosmo_cavitation_energy": 30.57, 
			 "cosmo_dispersion_energy": -22.97, 
			 "cosmo_repulsion_energy": 1.74, 
			 "cosmo_total_nonelectrostatic_energy": 9.33, 
			 "SMD_solvation_energy": 2.59 
		},
		"coords": [
			{
				"x": 5.6613655297,
				"y": -1.0310951823,
				"z": -0.9693436848,
				"element": "N" 
			},
			{
				"x": 4.2895330418,
				"y": -1.0019168499,
				"z": -0.727817998,
				"element": "C" 
			},
			{
				"x": 3.4998194201,
				"y": -2.1520141373,
				"z": -0.9088077701,
				"element": "C" 
			},
			{
				"x": 2.1432651217,
				"y": -2.1353379113,
				"z": -0.615476449,
				"element": "C" 
			},
			{
				"x": 1.5169493878,
				"y": -0.9744739667,
				"z": -0.130207433,
				"element": "C" 
			},
			{
				"x": 2.3101151148,
				"y": 0.1711523147,
				"z": 0.048719034,
				"element": "C" 
			},
			{
				"x": 3.668061886,
				"y": 0.1633120414,
				"z": -0.242509509,
				"element": "C" 
			},
			{
				"x": 0.0825541418,
				"y": -0.9874144933,
				"z": 0.1686129513,
				"element": "C" 
			},
			{
				"x": -0.6939097163,
				"y": 0.0524557576,
				"z": 0.6745622179,
				"element": "C" 
			},
			{
				"x": -1.9666997145,
				"y": -0.4503057604,
				"z": 0.7796573295,
				"element": "N" 
			},
			{
				"x": -3.1467647542,
				"y": 0.0838954797,
				"z": 1.2060973728,
				"element": "C" 
			},
			{
				"x": -4.2621255815,
				"y": -0.7117162063,
				"z": 1.1820785188,
				"element": "C" 
			},
			{
				"x": -4.1360734885,
				"y": -2.0480585749,
				"z": 0.7163808736,
				"element": "C" 
			},
			{
				"x": -3.0023118965,
				"y": -2.5803719593,
				"z": 0.3006890299,
				"element": "N" 
			},
			{
				"x": -1.906270668,
				"y": -1.8026834145,
				"z": 0.3233000614,
				"element": "C" 
			},
			{
				"x": -0.6731591719,
				"y": -2.1119593024,
				"z": -0.0398369074,
				"element": "N" 
			},
			{
				"x": 6.0904516585,
				"y": -0.1358760634,
				"z": -1.1575201,
				"element": "H" 
			},
			{
				"x": 5.9744638662,
				"y": -1.7475118715,
				"z": -1.6094554661,
				"element": "H" 
			},
			{
				"x": 3.9617592996,
				"y": -3.063958098,
				"z": -1.2797658279,
				"element": "H" 
			},
			{
				"x": 1.5392404265,
				"y": -3.0245370112,
				"z": -0.7598616949,
				"element": "H" 
			},
			{
				"x": 1.8632564784,
				"y": 1.0903621568,
				"z": 0.4178423614,
				"element": "H" 
			},
			{
				"x": 4.2600086869,
				"y": 1.0629051603,
				"z": -0.0918423946,
				"element": "H" 
			},
			{
				"x": -0.4592264415,
				"y": 1.0655227733,
				"z": 0.9608522959,
				"element": "H" 
			},
			{
				"x": -3.1329057144,
				"y": 1.1148248419,
				"z": 1.5417734314,
				"element": "H" 
			},
			{
				"x": -5.2176645266,
				"y": -0.3235486184,
				"z": 1.5128867282,
				"element": "H" 
			},
			{
				"x": -5.0128323859,
				"y": -2.6924511049,
				"z": 0.6911930287,
				"element": "H" 
			}
		],
		 "valence_orbital": [ 
			{
				"type": "occ",
				"energy": -0.2598,
				"method": "rhf"
			},
			{
				"type": "occ",
				"energy": -0.25468,
				"method": "rhf"
			},
			{
				"type": "occ",
				"energy": -0.24419,
				"method": "rhf"
			},
			{
				"type": "occ",
				"energy": -0.22227,
				"method": "rhf"
			},
			{
				"type": "occ",
				"energy": -0.18729,
				"method": "rhf"
			},
			{
				"type": "unocc",
				"energy": -0.05002,
				"method": "rhf"
			},
			{
				"type": "unocc",
				"energy": -0.00936,
				"method": "rhf"
			},
			{
				"type": "unocc",
				"energy": 0.00836,
				"method": "rhf"
			},
			{
				"type": "unocc",
				"energy": 0.01644,
				"method": "rhf"
			},
			{
				"type": "unocc",
				"energy": 0.07845,
				"method": "rhf"
			}
		],
		"cosmo_sigma_profile": { 
			"-0.025": 0.0,
			"-0.024": 0.0,
			"-0.023": 0.0,
			"-0.022": 0.0,
			"-0.021": 0.0,
			"-0.02": 0.0,
			"-0.019": 0.0,
			"-0.018": 0.0,
			"-0.017": 0.0,
			"-0.016": 0.0,
			"-0.015": 0.0,
			"-0.014": 0.0,
			"-0.013": 0.599433469646,
			"-0.012": 2.67201086177,
			"-0.011": 3.89465128834,
			"-0.01": 5.59898213525,
			"-0.009": 8.6053990216,
			"-0.008": 8.57920581653,
			"-0.007": 11.6921720186,
			"-0.006": 13.4448031576,
			"-0.005": 10.7009999098,
			"-0.004": 12.1881931367,
			"-0.003": 12.9455471028,
			"-0.002": 14.8670713863,
			"-0.001": 13.2816120807,
			"0.0": 13.6274483908,
			"0.001": 14.9674370919,
			"0.002": 12.6772637805,
			"0.003": 11.3001124121,
			"0.004": 13.8726295562,
			"0.005": 14.6932513497,
			"0.006": 14.6737463712,
			"0.007": 5.24536598077,
			"0.008": 3.55997959272,
			"0.009": 3.26760294609,
			"0.01": 2.87044571707,
			"0.011": 2.78546635842,
			"0.012": 3.0585834612,
			"0.013": 2.52700401291,
			"0.014": 3.69162041861,
			"0.015": 2.79371441681,
			"0.016": 1.17107109033,
			"0.017": 0.000107515922659,
			"0.018": 0.0,
			"0.019": 0.0,
			"0.02": 0.0,
			"0.021": 0.0,
			"0.022": 0.0,
			"0.023": 0.0,
			"0.024": 0.0,
			"0.025": 0.0
		}
	}
}
