{
	 "smiles": "OC(=O)CCC(=O)C1=CC=CS1", 
	 "Tm": 395.15, 
	 "num_atms": 20, 
	 "gaussian": { 
		 "optdone": 1, 
		 "sigma_profile": "yes", 
		 "theory": "DFT", 
		 "functional": "B3LYP", 
		 "basiset": "6-31G**", 
		 "properties": { 
			 "R2extent": 3889.6979, 
			 "electric_dipole_moment_norm": 7.90885082487, 
			 "electric_quadrupole_moment_norm": 27.1663892177, 
			 "total_energy": -933.534574348, 
			 "HOMO_LUMO_gap": 0.15899, 
			 "cosmo_polarized_energy": -15.74, 
			 "cosmo_cavitation_energy": 25.96, 
			 "cosmo_dispersion_energy": -19.66, 
			 "cosmo_repulsion_energy": 1.52, 
			 "cosmo_total_nonelectrostatic_energy": 7.81, 
			 "SMD_solvation_energy": 5.9 
		},
		"coords": [
			{
				"x": 2.6519830967,
				"y": 1.6969254484,
				"z": -2.8711449375,
				"element": "O" 
			},
			{
				"x": 2.6759280668,
				"y": 0.4155900892,
				"z": -3.2729181972,
				"element": "C" 
			},
			{
				"x": 3.2035060028,
				"y": 0.0853591973,
				"z": -4.3101746334,
				"element": "O" 
			},
			{
				"x": 2.0068401763,
				"y": -0.5963730467,
				"z": -2.3353174876,
				"element": "C" 
			},
			{
				"x": 0.4884096457,
				"y": -0.4119955999,
				"z": -2.1414956379,
				"element": "C" 
			},
			{
				"x": 0.0947987365,
				"y": 0.6832765759,
				"z": -1.1608604556,
				"element": "C" 
			},
			{
				"x": 0.8912647521,
				"y": 1.5629211233,
				"z": -0.8215976519,
				"element": "O" 
			},
			{
				"x": -1.2674656093,
				"y": 0.6988690044,
				"z": -0.6166653201,
				"element": "C" 
			},
			{
				"x": -1.7789107341,
				"y": 1.6723948091,
				"z": 0.2197986832,
				"element": "C" 
			},
			{
				"x": -3.129821946,
				"y": 1.4476200591,
				"z": 0.5798704358,
				"element": "C" 
			},
			{
				"x": -3.640992911,
				"y": 0.3040755952,
				"z": 0.0142204413,
				"element": "C" 
			},
			{
				"x": -2.4815277647,
				"y": -0.5147473052,
				"z": -0.9643493532,
				"element": "S" 
			},
			{
				"x": 2.1582957778,
				"y": 1.7679188259,
				"z": -2.022801305,
				"element": "H" 
			},
			{
				"x": 2.5020804617,
				"y": -0.5599906402,
				"z": -1.3575510963,
				"element": "H" 
			},
			{
				"x": 2.1928661198,
				"y": -1.5792218346,
				"z": -2.7703598357,
				"element": "H" 
			},
			{
				"x": 0.0535557349,
				"y": -1.3580010889,
				"z": -1.7976210886,
				"element": "H" 
			},
			{
				"x": -0.0017800309,
				"y": -0.1963701843,
				"z": -3.1014510953,
				"element": "H" 
			},
			{
				"x": -1.177366781,
				"y": 2.5120295641,
				"z": 0.5460443975,
				"element": "H" 
			},
			{
				"x": -3.7038558082,
				"y": 2.0991222669,
				"z": 1.2279902992,
				"element": "H" 
			},
			{
				"x": -4.637706986,
				"y": -0.1029028591,
				"z": 0.1198838383,
				"element": "H" 
			}
		],
		 "valence_orbital": [ 
			{
				"type": "occ",
				"energy": -0.2915,
				"method": "rhf"
			},
			{
				"type": "occ",
				"energy": -0.28774,
				"method": "rhf"
			},
			{
				"type": "occ",
				"energy": -0.28423,
				"method": "rhf"
			},
			{
				"type": "occ",
				"energy": -0.26942,
				"method": "rhf"
			},
			{
				"type": "occ",
				"energy": -0.24936,
				"method": "rhf"
			},
			{
				"type": "unocc",
				"energy": -0.09037,
				"method": "rhf"
			},
			{
				"type": "unocc",
				"energy": -0.00285,
				"method": "rhf"
			},
			{
				"type": "unocc",
				"energy": 0.00067,
				"method": "rhf"
			},
			{
				"type": "unocc",
				"energy": 0.02637,
				"method": "rhf"
			},
			{
				"type": "unocc",
				"energy": 0.05603,
				"method": "rhf"
			}
		],
		"cosmo_sigma_profile": { 
			"-0.025": 0.0,
			"-0.024": 0.0,
			"-0.023": 0.0,
			"-0.022": 0.0,
			"-0.021": 0.0,
			"-0.02": 0.0,
			"-0.019": 0.0,
			"-0.018": 0.0,
			"-0.017": 0.0,
			"-0.016": 0.0,
			"-0.015": 0.0,
			"-0.014": 0.0,
			"-0.013": 0.0,
			"-0.012": 0.0,
			"-0.011": 0.0,
			"-0.01": 0.974713956782,
			"-0.009": 2.52271840409,
			"-0.008": 6.23147793384,
			"-0.007": 13.4508198128,
			"-0.006": 18.2019428432,
			"-0.005": 16.9164012654,
			"-0.004": 14.8340111746,
			"-0.003": 13.2277199368,
			"-0.002": 11.0538399439,
			"-0.001": 10.4570954119,
			"0.0": 10.5708461945,
			"0.001": 15.7540034679,
			"0.002": 18.6432327263,
			"0.003": 12.1419907785,
			"0.004": 3.10892262826,
			"0.005": 3.20879689264,
			"0.006": 4.42016827473,
			"0.007": 2.73994085446,
			"0.008": 4.2134220259,
			"0.009": 4.11192986361,
			"0.01": 4.76282667645,
			"0.011": 5.15279660097,
			"0.012": 6.70162243974,
			"0.013": 4.48535318567,
			"0.014": 1.49627138236,
			"0.015": 0.0309599875335,
			"0.016": 0.0,
			"0.017": 0.0,
			"0.018": 0.0,
			"0.019": 0.0,
			"0.02": 0.0,
			"0.021": 0.0,
			"0.022": 0.0,
			"0.023": 0.0,
			"0.024": 0.0,
			"0.025": 0.0
		}
	}
}
