{
	 "smiles": "CC(=O)C1=CC=C(CC(O)=O)C=C1", 
	 "Tm": 383.15, 
	 "num_atms": 23, 
	 "gaussian": { 
		 "optdone": 1, 
		 "sigma_profile": "yes", 
		 "theory": "DFT", 
		 "functional": "B3LYP", 
		 "basiset": "6-31G**", 
		 "properties": { 
			 "R2extent": 4076.1201, 
			 "electric_dipole_moment_norm": 2.24651290003, 
			 "electric_quadrupole_moment_norm": 14.6987884729, 
			 "total_energy": -612.784636906, 
			 "HOMO_LUMO_gap": 0.1904, 
			 "cosmo_polarized_energy": -13.99, 
			 "cosmo_cavitation_energy": 27.9, 
			 "cosmo_dispersion_energy": -19.95, 
			 "cosmo_repulsion_energy": 1.59, 
			 "cosmo_total_nonelectrostatic_energy": 9.53, 
			 "SMD_solvation_energy": 6.59 
		},
		"coords": [
			{
				"x": 0.7676820368,
				"y": -2.0832078128,
				"z": 1.3712171538,
				"element": "C" 
			},
			{
				"x": 0.3298842062,
				"y": -1.7801398368,
				"z": -0.0520615936,
				"element": "C" 
			},
			{
				"x": 0.3404347088,
				"y": -2.6556145208,
				"z": -0.9046440557,
				"element": "O" 
			},
			{
				"x": -0.1145975548,
				"y": -0.3890437284,
				"z": -0.3920227616,
				"element": "C" 
			},
			{
				"x": -0.1476901871,
				"y": 0.6540290167,
				"z": 0.5464346729,
				"element": "C" 
			},
			{
				"x": -0.5722460325,
				"y": 1.9279932035,
				"z": 0.1774396656,
				"element": "C" 
			},
			{
				"x": -0.9730034698,
				"y": 2.1888488847,
				"z": -1.1400699448,
				"element": "C" 
			},
			{
				"x": -1.4510673029,
				"y": 3.5754127969,
				"z": -1.5423021983,
				"element": "C" 
			},
			{
				"x": -0.3808305876,
				"y": 4.627309957,
				"z": -1.3039149101,
				"element": "C" 
			},
			{
				"x": 0.2157054437,
				"y": 5.0146622327,
				"z": -2.453551091,
				"element": "O" 
			},
			{
				"x": -0.0682585361,
				"y": 5.0685299549,
				"z": -0.2196600027,
				"element": "O" 
			},
			{
				"x": -0.9346853763,
				"y": 1.1494802642,
				"z": -2.079227853,
				"element": "C" 
			},
			{
				"x": -0.5132901237,
				"y": -0.1235629935,
				"z": -1.7101588371,
				"element": "C" 
			},
			{
				"x": -0.0416920895,
				"y": -1.884975645,
				"z": 2.0825796245,
				"element": "H" 
			},
			{
				"x": 1.6183792524,
				"y": -1.4573594443,
				"z": 1.6628232799,
				"element": "H" 
			},
			{
				"x": 1.0535166469,
				"y": -3.1335935906,
				"z": 1.4317289178,
				"element": "H" 
			},
			{
				"x": 0.1575347685,
				"y": 0.4783047078,
				"z": 1.5729648279,
				"element": "H" 
			},
			{
				"x": -0.5827489788,
				"y": 2.7328556509,
				"z": 0.9057542302,
				"element": "H" 
			},
			{
				"x": -2.3138760909,
				"y": 3.8626521316,
				"z": -0.9317779849,
				"element": "H" 
			},
			{
				"x": -1.7500161026,
				"y": 3.5848498625,
				"z": -2.5920338817,
				"element": "H" 
			},
			{
				"x": 0.8969691055,
				"y": 5.6619684926,
				"z": -2.2025091628,
				"element": "H" 
			},
			{
				"x": -1.2395362389,
				"y": 1.3412814399,
				"z": -3.1046426662,
				"element": "H" 
			},
			{
				"x": -0.4817674972,
				"y": -0.9358810236,
				"z": -2.4285654292,
				"element": "H" 
			}
		],
		 "valence_orbital": [ 
			{
				"type": "occ",
				"energy": -0.32678,
				"method": "rhf"
			},
			{
				"type": "occ",
				"energy": -0.28591,
				"method": "rhf"
			},
			{
				"type": "occ",
				"energy": -0.26269,
				"method": "rhf"
			},
			{
				"type": "occ",
				"energy": -0.25444,
				"method": "rhf"
			},
			{
				"type": "occ",
				"energy": -0.24778,
				"method": "rhf"
			},
			{
				"type": "unocc",
				"energy": -0.05738,
				"method": "rhf"
			},
			{
				"type": "unocc",
				"energy": -0.01281,
				"method": "rhf"
			},
			{
				"type": "unocc",
				"energy": -0.00091,
				"method": "rhf"
			},
			{
				"type": "unocc",
				"energy": 0.03953,
				"method": "rhf"
			},
			{
				"type": "unocc",
				"energy": 0.07196,
				"method": "rhf"
			}
		],
		"cosmo_sigma_profile": { 
			"-0.025": 0.0,
			"-0.024": 0.0,
			"-0.023": 0.0,
			"-0.022": 0.0,
			"-0.021": 0.0,
			"-0.02": 0.0,
			"-0.019": 0.00909151249686,
			"-0.018": 1.00131811224,
			"-0.017": 0.688941535973,
			"-0.016": 0.602376623977,
			"-0.015": 1.11876377828,
			"-0.014": 1.1136373025,
			"-0.013": 0.554361576303,
			"-0.012": 0.617374508679,
			"-0.011": 0.818527557875,
			"-0.01": 0.603190878828,
			"-0.009": 0.406758259256,
			"-0.008": 0.856494757271,
			"-0.007": 6.68913622431,
			"-0.006": 16.1703994595,
			"-0.005": 18.0468508982,
			"-0.004": 17.5451826122,
			"-0.003": 16.3770160767,
			"-0.002": 15.9467979589,
			"-0.001": 16.3969228428,
			"0.0": 12.5227573703,
			"0.001": 11.6123287282,
			"0.002": 12.8635605081,
			"0.003": 15.113487423,
			"0.004": 12.2827601491,
			"0.005": 4.01927485721,
			"0.006": 4.21909521823,
			"0.007": 4.56410087901,
			"0.008": 4.45437654836,
			"0.009": 4.17133927266,
			"0.01": 4.2963275398,
			"0.011": 6.73625771325,
			"0.012": 7.43803264645,
			"0.013": 1.49236321808,
			"0.014": 0.236303800948,
			"0.015": 0.0,
			"0.016": 0.0,
			"0.017": 0.0,
			"0.018": 0.0,
			"0.019": 0.0,
			"0.02": 0.0,
			"0.021": 0.0,
			"0.022": 0.0,
			"0.023": 0.0,
			"0.024": 0.0,
			"0.025": 0.0
		}
	}
}
