{
	 "smiles": "[O-][N+](=O)C1=CC(NC(=O)CCCl)=C(F)C=C1", 
	 "Tm": 358.15, 
	 "num_atms": 24, 
	 "gaussian": { 
		 "optdone": 1, 
		 "sigma_profile": "yes", 
		 "theory": "DFT", 
		 "functional": "B3LYP", 
		 "basiset": "6-31G**", 
		 "properties": { 
			 "R2extent": 6577.1508, 
			 "electric_dipole_moment_norm": 5.35836068775, 
			 "electric_quadrupole_moment_norm": 27.0185997792, 
			 "total_energy": -1242.90368559, 
			 "HOMO_LUMO_gap": 0.1636, 
			 "cosmo_polarized_energy": -16.78, 
			 "cosmo_cavitation_energy": 32.02, 
			 "cosmo_dispersion_energy": -23.3, 
			 "cosmo_repulsion_energy": 1.81, 
			 "cosmo_total_nonelectrostatic_energy": 10.53, 
			 "SMD_solvation_energy": 8.17 
		},
		"coords": [
			{
				"x": 4.0521400421,
				"y": -1.1345732116,
				"z": 0.5376961828,
				"element": "O" 
			},
			{
				"x": 4.1925560527,
				"y": -1.114801762,
				"z": -0.6829186106,
				"element": "N" 
			},
			{
				"x": 5.2675081161,
				"y": -1.2392941658,
				"z": -1.2696155024,
				"element": "O" 
			},
			{
				"x": 2.9862918319,
				"y": -0.9283571814,
				"z": -1.5095985046,
				"element": "C" 
			},
			{
				"x": 1.7605919715,
				"y": -0.7852482632,
				"z": -0.8605005254,
				"element": "C" 
			},
			{
				"x": 0.612121132,
				"y": -0.6081564594,
				"z": -1.6390704031,
				"element": "C" 
			},
			{
				"x": -0.6876837443,
				"y": -0.4506265525,
				"z": -1.1404956479,
				"element": "N" 
			},
			{
				"x": -1.0925198534,
				"y": -0.4384367889,
				"z": 0.1794047109,
				"element": "C" 
			},
			{
				"x": -0.330040257,
				"y": -0.5699139332,
				"z": 1.1242357142,
				"element": "O" 
			},
			{
				"x": -2.5978816773,
				"y": -0.2432285387,
				"z": 0.3543241312,
				"element": "C" 
			},
			{
				"x": -2.9743527844,
				"y": -0.2425331855,
				"z": 1.8298811082,
				"element": "C" 
			},
			{
				"x": -4.762201933,
				"y": -0.0093215939,
				"z": 2.0254026831,
				"element": "Cl" 
			},
			{
				"x": 0.7635037174,
				"y": -0.5848933359,
				"z": -3.0363146648,
				"element": "C" 
			},
			{
				"x": -0.3581927786,
				"y": -0.4124882148,
				"z": -3.7756672494,
				"element": "F" 
			},
			{
				"x": 1.9855750616,
				"y": -0.7279860694,
				"z": -3.6704804642,
				"element": "C" 
			},
			{
				"x": 3.1291964588,
				"y": -0.9044291219,
				"z": -2.8943280293,
				"element": "C" 
			},
			{
				"x": 1.6988484741,
				"y": -0.8105111882,
				"z": 0.2169355517,
				"element": "H" 
			},
			{
				"x": -1.3981677219,
				"y": -0.3337067565,
				"z": -1.8500146832,
				"element": "H" 
			},
			{
				"x": -2.902542678,
				"y": 0.7008635842,
				"z": -0.1133636074,
				"element": "H" 
			},
			{
				"x": -3.1354939228,
				"y": -1.0411892665,
				"z": -0.1720548747,
				"element": "H" 
			},
			{
				"x": -2.4838912334,
				"y": 0.5668559952,
				"z": 2.3686741827,
				"element": "H" 
			},
			{
				"x": -2.7191307728,
				"y": -1.1863466107,
				"z": 2.3095359143,
				"element": "H" 
			},
			{
				"x": 2.0270483218,
				"y": -0.6999362964,
				"z": -4.7533051245,
				"element": "H" 
			},
			{
				"x": 4.1092181769,
				"y": -1.0212410831,
				"z": -3.3372622878,
				"element": "H" 
			}
		],
		 "valence_orbital": [ 
			{
				"type": "occ",
				"energy": -0.3038,
				"method": "rhf"
			},
			{
				"type": "occ",
				"energy": -0.29387,
				"method": "rhf"
			},
			{
				"type": "occ",
				"energy": -0.28788,
				"method": "rhf"
			},
			{
				"type": "occ",
				"energy": -0.2827,
				"method": "rhf"
			},
			{
				"type": "occ",
				"energy": -0.25546,
				"method": "rhf"
			},
			{
				"type": "unocc",
				"energy": -0.09186,
				"method": "rhf"
			},
			{
				"type": "unocc",
				"energy": -0.047,
				"method": "rhf"
			},
			{
				"type": "unocc",
				"energy": -0.0108,
				"method": "rhf"
			},
			{
				"type": "unocc",
				"energy": 0.01563,
				"method": "rhf"
			},
			{
				"type": "unocc",
				"energy": 0.01658,
				"method": "rhf"
			}
		],
		"cosmo_sigma_profile": { 
			"-0.025": 0.0,
			"-0.024": 0.0,
			"-0.023": 0.0,
			"-0.022": 0.0,
			"-0.021": 0.0,
			"-0.02": 0.0,
			"-0.019": 0.0,
			"-0.018": 0.0,
			"-0.017": 0.0,
			"-0.016": 0.0,
			"-0.015": 0.597887373442,
			"-0.014": 0.984182273505,
			"-0.013": 1.63017129954,
			"-0.012": 1.24241946697,
			"-0.011": 1.19832930321,
			"-0.01": 1.56477883084,
			"-0.009": 3.8434975179,
			"-0.008": 6.03094387709,
			"-0.007": 14.4227013067,
			"-0.006": 14.4312817989,
			"-0.005": 12.0510229851,
			"-0.004": 11.3883987453,
			"-0.003": 13.107399134,
			"-0.002": 16.7047051976,
			"-0.001": 24.3161372825,
			"0.0": 24.0724648936,
			"0.001": 15.1721717279,
			"0.002": 13.5129584142,
			"0.003": 12.5617979155,
			"0.004": 8.86100798347,
			"0.005": 10.8094965804,
			"0.006": 15.1127037164,
			"0.007": 12.2634326798,
			"0.008": 8.36464319811,
			"0.009": 6.02025013587,
			"0.01": 4.31319889793,
			"0.011": 2.23604441135,
			"0.012": 1.76874851839,
			"0.013": 0.0492754524767,
			"0.014": 0.0,
			"0.015": 0.0,
			"0.016": 0.0,
			"0.017": 0.0,
			"0.018": 0.0,
			"0.019": 0.0,
			"0.02": 0.0,
			"0.021": 0.0,
			"0.022": 0.0,
			"0.023": 0.0,
			"0.024": 0.0,
			"0.025": 0.0
		}
	}
}
