{
	 "smiles": "CCS(=O)(=O)C1=C(OC2=CC=C(N)C=C2)C=CC=C1", 
	 "Tm": 398.15, 
	 "num_atms": 34, 
	 "gaussian": { 
		 "optdone": 1, 
		 "sigma_profile": "yes", 
		 "theory": "DFT", 
		 "functional": "B3LYP", 
		 "basiset": "6-31G**", 
		 "properties": { 
			 "R2extent": 6209.5074, 
			 "electric_dipole_moment_norm": 6.00188764057, 
			 "electric_quadrupole_moment_norm": 14.7335275338, 
			 "total_energy": -1221.07051499, 
			 "HOMO_LUMO_gap": 0.17112, 
			 "cosmo_polarized_energy": -19.99, 
			 "cosmo_cavitation_energy": 38.67, 
			 "cosmo_dispersion_energy": -27.33, 
			 "cosmo_repulsion_energy": 2.07, 
			 "cosmo_total_nonelectrostatic_energy": 13.42, 
			 "SMD_solvation_energy": 6.12 
		},
		"coords": [
			{
				"x": 1.8116688685,
				"y": -2.4302400088,
				"z": 2.5894919879,
				"element": "C" 
			},
			{
				"x": 0.681702082,
				"y": -3.3798636173,
				"z": 2.2126840489,
				"element": "C" 
			},
			{
				"x": -0.1074197563,
				"y": -3.0859733814,
				"z": 0.5902999535,
				"element": "S" 
			},
			{
				"x": -0.8946831175,
				"y": -4.3039827128,
				"z": 0.3195031643,
				"element": "O" 
			},
			{
				"x": 0.9150353499,
				"y": -2.6425488012,
				"z": -0.3724016653,
				"element": "O" 
			},
			{
				"x": -1.3229043334,
				"y": -1.7579445088,
				"z": 0.7998637894,
				"element": "C" 
			},
			{
				"x": -0.9586321511,
				"y": -0.405261337,
				"z": 0.8946721098,
				"element": "C" 
			},
			{
				"x": 0.3640837585,
				"y": -0.0935280961,
				"z": 1.0766933398,
				"element": "O" 
			},
			{
				"x": 0.8984245635,
				"y": 0.9914362076,
				"z": 0.373824545,
				"element": "C" 
			},
			{
				"x": 1.2583088935,
				"y": 2.1446479376,
				"z": 1.0653531943,
				"element": "C" 
			},
			{
				"x": 1.8527605158,
				"y": 3.2035702241,
				"z": 0.3806209896,
				"element": "C" 
			},
			{
				"x": 2.092497163,
				"y": 3.119823845,
				"z": -1.0015993957,
				"element": "C" 
			},
			{
				"x": 2.7377455293,
				"y": 4.1566784807,
				"z": -1.6790527017,
				"element": "N" 
			},
			{
				"x": 1.7282494599,
				"y": 1.9394719262,
				"z": -1.6764045913,
				"element": "C" 
			},
			{
				"x": 1.1403488414,
				"y": 0.8786772876,
				"z": -0.9951613273,
				"element": "C" 
			},
			{
				"x": -1.9528573004,
				"y": 0.5784762561,
				"z": 0.8715609946,
				"element": "C" 
			},
			{
				"x": -3.2935425313,
				"y": 0.2109551535,
				"z": 0.7793688929,
				"element": "C" 
			},
			{
				"x": -3.6600908111,
				"y": -1.1350881927,
				"z": 0.7085643194,
				"element": "C" 
			},
			{
				"x": -2.6717198636,
				"y": -2.1167580678,
				"z": 0.7114807154,
				"element": "C" 
			},
			{
				"x": 1.4500230156,
				"y": -1.418278316,
				"z": 2.7728005131,
				"element": "H" 
			},
			{
				"x": 2.5548973075,
				"y": -2.3853732092,
				"z": 1.7902697312,
				"element": "H" 
			},
			{
				"x": 2.2979981026,
				"y": -2.8004413846,
				"z": 3.4978485156,
				"element": "H" 
			},
			{
				"x": 1.03727319,
				"y": -4.4086726546,
				"z": 2.094620011,
				"element": "H" 
			},
			{
				"x": -0.1361118174,
				"y": -3.3922451667,
				"z": 2.9393088353,
				"element": "H" 
			},
			{
				"x": 1.0783819164,
				"y": 2.206670476,
				"z": 2.1340496656,
				"element": "H" 
			},
			{
				"x": 2.1395498488,
				"y": 4.1014375091,
				"z": 0.9220650675,
				"element": "H" 
			},
			{
				"x": 2.6526491998,
				"y": 5.0689516233,
				"z": -1.2527000367,
				"element": "H" 
			},
			{
				"x": 2.5691685566,
				"y": 4.1898893226,
				"z": -2.6749197099,
				"element": "H" 
			},
			{
				"x": 1.9252135611,
				"y": 1.8498685362,
				"z": -2.7417059356,
				"element": "H" 
			},
			{
				"x": 0.887536955,
				"y": -0.0458126538,
				"z": -1.5038982973,
				"element": "H" 
			},
			{
				"x": -1.6619855723,
				"y": 1.6214690047,
				"z": 0.9322403502,
				"element": "H" 
			},
			{
				"x": -4.0565497296,
				"y": 0.9840685009,
				"z": 0.7684295364,
				"element": "H" 
			},
			{
				"x": -4.7053718085,
				"y": -1.4177852516,
				"z": 0.6369517488,
				"element": "H" 
			},
			{
				"x": -2.9189478861,
				"y": -3.1681949307,
				"z": 0.6164776415,
				"element": "H" 
			}
		],
		 "valence_orbital": [ 
			{
				"type": "occ",
				"energy": -0.27732,
				"method": "rhf"
			},
			{
				"type": "occ",
				"energy": -0.26628,
				"method": "rhf"
			},
			{
				"type": "occ",
				"energy": -0.25583,
				"method": "rhf"
			},
			{
				"type": "occ",
				"energy": -0.24302,
				"method": "rhf"
			},
			{
				"type": "occ",
				"energy": -0.20386,
				"method": "rhf"
			},
			{
				"type": "unocc",
				"energy": -0.03274,
				"method": "rhf"
			},
			{
				"type": "unocc",
				"energy": -0.01137,
				"method": "rhf"
			},
			{
				"type": "unocc",
				"energy": -0.00471,
				"method": "rhf"
			},
			{
				"type": "unocc",
				"energy": 0.01378,
				"method": "rhf"
			},
			{
				"type": "unocc",
				"energy": 0.06148,
				"method": "rhf"
			}
		],
		"cosmo_sigma_profile": { 
			"-0.025": 0.0,
			"-0.024": 0.0,
			"-0.023": 0.0,
			"-0.022": 0.0,
			"-0.021": 0.0,
			"-0.02": 0.0,
			"-0.019": 0.0,
			"-0.018": 0.0,
			"-0.017": 0.0,
			"-0.016": 0.0,
			"-0.015": 0.0,
			"-0.014": 0.0,
			"-0.013": 0.483341005356,
			"-0.012": 2.39235803941,
			"-0.011": 3.05017853788,
			"-0.01": 2.7464342874,
			"-0.009": 3.36037391826,
			"-0.008": 5.43913601889,
			"-0.007": 12.3564715456,
			"-0.006": 17.9762866817,
			"-0.005": 21.5844204503,
			"-0.004": 23.4388534753,
			"-0.003": 21.0613535709,
			"-0.002": 19.229464084,
			"-0.001": 19.5713968588,
			"0.0": 19.96842384,
			"0.001": 17.5182399224,
			"0.002": 22.1099105629,
			"0.003": 21.1107655248,
			"0.004": 14.7537735416,
			"0.005": 14.70846173,
			"0.006": 7.62568215584,
			"0.007": 4.2146936769,
			"0.008": 4.07361674148,
			"0.009": 4.75336136301,
			"0.01": 6.15630010692,
			"0.011": 7.03757728293,
			"0.012": 7.55486641062,
			"0.013": 2.73387968459,
			"0.014": 0.667161490231,
			"0.015": 0.11176876099,
			"0.016": 0.0,
			"0.017": 0.0,
			"0.018": 0.0,
			"0.019": 0.0,
			"0.02": 0.0,
			"0.021": 0.0,
			"0.022": 0.0,
			"0.023": 0.0,
			"0.024": 0.0,
			"0.025": 0.0
		}
	}
}
