{
	 "smiles": "ClS(=O)(=O)CCC1=CC=CC=C1", 
	 "Tm": 304.15, 
	 "num_atms": 21, 
	 "gaussian": { 
		 "optdone": 1, 
		 "sigma_profile": "yes", 
		 "theory": "DFT", 
		 "functional": "B3LYP", 
		 "basiset": "6-31G**", 
		 "properties": { 
			 "R2extent": 4423.853, 
			 "electric_dipole_moment_norm": 4.30628308521, 
			 "electric_quadrupole_moment_norm": 16.8785193936, 
			 "total_energy": -1319.04269231, 
			 "HOMO_LUMO_gap": 0.16968, 
			 "cosmo_polarized_energy": -12.06, 
			 "cosmo_cavitation_energy": 27.92, 
			 "cosmo_dispersion_energy": -20.54, 
			 "cosmo_repulsion_energy": 1.6, 
			 "cosmo_total_nonelectrostatic_energy": 8.98, 
			 "SMD_solvation_energy": 3.18 
		},
		"coords": [
			{
				"x": 1.8437488659,
				"y": -2.9574956271,
				"z": 3.6394082804,
				"element": "Cl" 
			},
			{
				"x": 2.166741164,
				"y": -1.0477812764,
				"z": 2.7101010863,
				"element": "S" 
			},
			{
				"x": 1.1028045989,
				"y": -0.173634865,
				"z": 3.1850872802,
				"element": "O" 
			},
			{
				"x": 3.5749807553,
				"y": -0.7208733023,
				"z": 2.8933617019,
				"element": "O" 
			},
			{
				"x": 1.9099534899,
				"y": -1.5154884195,
				"z": 0.9658376506,
				"element": "C" 
			},
			{
				"x": 0.4628929021,
				"y": -1.8648008628,
				"z": 0.5836169261,
				"element": "C" 
			},
			{
				"x": -0.426728061,
				"y": -0.6748684963,
				"z": 0.2805934098,
				"element": "C" 
			},
			{
				"x": -1.4033252175,
				"y": -0.2461758913,
				"z": 1.1866445757,
				"element": "C" 
			},
			{
				"x": -2.217919179,
				"y": 0.8473498953,
				"z": 0.8881907044,
				"element": "C" 
			},
			{
				"x": -2.0660475473,
				"y": 1.5275139881,
				"z": -0.3206645782,
				"element": "C" 
			},
			{
				"x": -1.0962928334,
				"y": 1.1068380302,
				"z": -1.2331994495,
				"element": "C" 
			},
			{
				"x": -0.2862961407,
				"y": 0.0116825991,
				"z": -0.9338595508,
				"element": "C" 
			},
			{
				"x": 2.6019664602,
				"y": -2.3472171862,
				"z": 0.8160452371,
				"element": "H" 
			},
			{
				"x": 2.2843644888,
				"y": -0.642388063,
				"z": 0.4215955071,
				"element": "H" 
			},
			{
				"x": 0.0207944387,
				"y": -2.4971357452,
				"z": 1.3598458475,
				"element": "H" 
			},
			{
				"x": 0.54026696,
				"y": -2.4956269792,
				"z": -0.3103087149,
				"element": "H" 
			},
			{
				"x": -1.5185584571,
				"y": -0.7626884774,
				"z": 2.13464061,
				"element": "H" 
			},
			{
				"x": -2.9698128636,
				"y": 1.1680662131,
				"z": 1.603273845,
				"element": "H" 
			},
			{
				"x": -2.700480109,
				"y": 2.3780407802,
				"z": -0.5523447876,
				"element": "H" 
			},
			{
				"x": -0.975570867,
				"y": 1.6257310838,
				"z": -2.1798241662,
				"element": "H" 
			},
			{
				"x": 0.4571171519,
				"y": -0.3187473981,
				"z": -1.656841415,
				"element": "H" 
			}
		],
		 "valence_orbital": [ 
			{
				"type": "occ",
				"energy": -0.33667,
				"method": "rhf"
			},
			{
				"type": "occ",
				"energy": -0.32757,
				"method": "rhf"
			},
			{
				"type": "occ",
				"energy": -0.31606,
				"method": "rhf"
			},
			{
				"type": "occ",
				"energy": -0.25758,
				"method": "rhf"
			},
			{
				"type": "occ",
				"energy": -0.25361,
				"method": "rhf"
			},
			{
				"type": "unocc",
				"energy": -0.08393,
				"method": "rhf"
			},
			{
				"type": "unocc",
				"energy": -0.01475,
				"method": "rhf"
			},
			{
				"type": "unocc",
				"energy": -0.00914,
				"method": "rhf"
			},
			{
				"type": "unocc",
				"energy": 0.04162,
				"method": "rhf"
			},
			{
				"type": "unocc",
				"energy": 0.06227,
				"method": "rhf"
			}
		],
		"cosmo_sigma_profile": { 
			"-0.025": 0.0,
			"-0.024": 0.0,
			"-0.023": 0.0,
			"-0.022": 0.0,
			"-0.021": 0.0,
			"-0.02": 0.0,
			"-0.019": 0.0,
			"-0.018": 0.0,
			"-0.017": 0.0,
			"-0.016": 0.0,
			"-0.015": 0.0,
			"-0.014": 0.0,
			"-0.013": 0.0,
			"-0.012": 0.365519998696,
			"-0.011": 0.771360206254,
			"-0.01": 2.7560132399,
			"-0.009": 4.47593493778,
			"-0.008": 4.8459259722,
			"-0.007": 8.47025720165,
			"-0.006": 11.937292035,
			"-0.005": 16.5584607573,
			"-0.004": 16.1193342031,
			"-0.003": 16.6999402638,
			"-0.002": 10.9028514426,
			"-0.001": 11.6680202045,
			"0.0": 11.3951037222,
			"0.001": 12.3321299239,
			"0.002": 13.0088392841,
			"0.003": 18.527579741,
			"0.004": 18.1061648938,
			"0.005": 11.9133237361,
			"0.006": 9.75835573169,
			"0.007": 6.11854969652,
			"0.008": 10.7279428466,
			"0.009": 6.94042619907,
			"0.01": 0.366565163164,
			"0.011": 0.0,
			"0.012": 0.0,
			"0.013": 0.0,
			"0.014": 0.0,
			"0.015": 0.0,
			"0.016": 0.0,
			"0.017": 0.0,
			"0.018": 0.0,
			"0.019": 0.0,
			"0.02": 0.0,
			"0.021": 0.0,
			"0.022": 0.0,
			"0.023": 0.0,
			"0.024": 0.0,
			"0.025": 0.0
		}
	}
}
