{
	 "smiles": "CC1=CC(=CC(C)=C1O)C(N)C(O)=O", 
	 "Tm": 477.15, 
	 "num_atms": 27, 
	 "gaussian": { 
		 "optdone": 1, 
		 "sigma_profile": "yes", 
		 "theory": "DFT", 
		 "functional": "B3LYP", 
		 "basiset": "6-31G**", 
		 "properties": { 
			 "R2extent": 3457.6964, 
			 "electric_dipole_moment_norm": 4.96040149181, 
			 "electric_quadrupole_moment_norm": 25.7030235906, 
			 "total_energy": -669.343852996, 
			 "HOMO_LUMO_gap": 0.21444, 
			 "cosmo_polarized_energy": -19.67, 
			 "cosmo_cavitation_energy": 30.27, 
			 "cosmo_dispersion_energy": -21.76, 
			 "cosmo_repulsion_energy": 1.75, 
			 "cosmo_total_nonelectrostatic_energy": 10.26, 
			 "SMD_solvation_energy": 6.09 
		},
		"coords": [
			{
				"x": 2.7600570066,
				"y": -0.6510665424,
				"z": 0.9361028106,
				"element": "C" 
			},
			{
				"x": 1.3198141558,
				"y": -0.2825194309,
				"z": 0.6661284967,
				"element": "C" 
			},
			{
				"x": 0.9511732531,
				"y": 0.4079626019,
				"z": -0.491486141,
				"element": "C" 
			},
			{
				"x": -0.377732168,
				"y": 0.7652387715,
				"z": -0.7395647343,
				"element": "C" 
			},
			{
				"x": -1.3468968719,
				"y": 0.4175772684,
				"z": 0.209324706,
				"element": "C" 
			},
			{
				"x": -1.0276903617,
				"y": -0.2718189885,
				"z": 1.3796294784,
				"element": "C" 
			},
			{
				"x": -2.0690082362,
				"y": -0.6377618453,
				"z": 2.4058974299,
				"element": "C" 
			},
			{
				"x": 0.3170263515,
				"y": -0.6188440581,
				"z": 1.5911328526,
				"element": "C" 
			},
			{
				"x": 0.5954027118,
				"y": -1.2930994918,
				"z": 2.7508977899,
				"element": "O" 
			},
			{
				"x": -0.7988263595,
				"y": 1.4261244368,
				"z": -2.0365346429,
				"element": "C" 
			},
			{
				"x": -1.1129357203,
				"y": 0.4800374961,
				"z": -3.1399379085,
				"element": "N" 
			},
			{
				"x": 0.2115255527,
				"y": 2.4724675868,
				"z": -2.575355147,
				"element": "C" 
			},
			{
				"x": 0.2574559012,
				"y": 2.5122207133,
				"z": -3.9150150866,
				"element": "O" 
			},
			{
				"x": 0.8543201886,
				"y": 3.2099446244,
				"z": -1.866812535,
				"element": "O" 
			},
			{
				"x": 3.1375265687,
				"y": -0.1890571507,
				"z": 1.8588000068,
				"element": "H" 
			},
			{
				"x": 3.4067718857,
				"y": -0.3112739511,
				"z": 0.1241641082,
				"element": "H" 
			},
			{
				"x": 2.9000288092,
				"y": -1.7371494751,
				"z": 1.0281848698,
				"element": "H" 
			},
			{
				"x": 1.7288835701,
				"y": 0.6990629186,
				"z": -1.1917277296,
				"element": "H" 
			},
			{
				"x": -2.3855293253,
				"y": 0.6961669769,
				"z": 0.0395949778,
				"element": "H" 
			},
			{
				"x": -2.1142554877,
				"y": -1.7218494897,
				"z": 2.558585027,
				"element": "H" 
			},
			{
				"x": -3.0594573523,
				"y": -0.2912422528,
				"z": 2.0992843343,
				"element": "H" 
			},
			{
				"x": -1.8362166011,
				"y": -0.1967124725,
				"z": 3.3812976244,
				"element": "H" 
			},
			{
				"x": 1.5449514865,
				"y": -1.4561230272,
				"z": 2.8087208605,
				"element": "H" 
			},
			{
				"x": -1.715016148,
				"y": 2.0015636199,
				"z": -1.8523301277,
				"element": "H" 
			},
			{
				"x": -2.0568247347,
				"y": 0.1167137241,
				"z": -3.0436870483,
				"element": "H" 
			},
			{
				"x": -0.4877643054,
				"y": -0.3217302651,
				"z": -3.0835725304,
				"element": "H" 
			},
			{
				"x": -0.3353837695,
				"y": 1.7751677024,
				"z": -4.2036217416,
				"element": "H" 
			}
		],
		 "valence_orbital": [ 
			{
				"type": "occ",
				"energy": -0.29641,
				"method": "rhf"
			},
			{
				"type": "occ",
				"energy": -0.29346,
				"method": "rhf"
			},
			{
				"type": "occ",
				"energy": -0.25071,
				"method": "rhf"
			},
			{
				"type": "occ",
				"energy": -0.24277,
				"method": "rhf"
			},
			{
				"type": "occ",
				"energy": -0.21692,
				"method": "rhf"
			},
			{
				"type": "unocc",
				"energy": -0.00248,
				"method": "rhf"
			},
			{
				"type": "unocc",
				"energy": 0.00168,
				"method": "rhf"
			},
			{
				"type": "unocc",
				"energy": 0.0185,
				"method": "rhf"
			},
			{
				"type": "unocc",
				"energy": 0.06026,
				"method": "rhf"
			},
			{
				"type": "unocc",
				"energy": 0.07438,
				"method": "rhf"
			}
		],
		"cosmo_sigma_profile": { 
			"-0.025": 0.0,
			"-0.024": 0.0,
			"-0.023": 0.0,
			"-0.022": 0.0,
			"-0.021": 0.0,
			"-0.02": 0.0,
			"-0.019": 0.0,
			"-0.018": 0.0,
			"-0.017": 0.0,
			"-0.016": 0.202902986387,
			"-0.015": 0.977535936507,
			"-0.014": 0.537190133947,
			"-0.013": 1.14264102028,
			"-0.012": 2.47621572776,
			"-0.011": 2.98529041974,
			"-0.01": 4.54991783172,
			"-0.009": 6.18864564531,
			"-0.008": 7.63584371129,
			"-0.007": 7.70223785884,
			"-0.006": 9.65273590351,
			"-0.005": 13.3750781218,
			"-0.004": 17.1239857865,
			"-0.003": 14.4351085845,
			"-0.002": 14.7995576407,
			"-0.001": 16.5452407936,
			"0.0": 17.0839622424,
			"0.001": 13.1868249303,
			"0.002": 9.81636485247,
			"0.003": 10.3702015687,
			"0.004": 9.40054957705,
			"0.005": 9.50454826323,
			"0.006": 9.25698478238,
			"0.007": 5.71807400218,
			"0.008": 4.1458199843,
			"0.009": 4.79910057905,
			"0.01": 6.15286298518,
			"0.011": 6.795473355,
			"0.012": 5.60706277507,
			"0.013": 4.57984445739,
			"0.014": 0.982046716789,
			"0.015": 0.0,
			"0.016": 0.0,
			"0.017": 0.0,
			"0.018": 0.0,
			"0.019": 0.0,
			"0.02": 0.0,
			"0.021": 0.0,
			"0.022": 0.0,
			"0.023": 0.0,
			"0.024": 0.0,
			"0.025": 0.0
		}
	}
}
