{
	 "smiles": "OC(=O)C1CCC2=NN=CN2C1", 
	 "Tm": 553.15, 
	 "num_atms": 21, 
	 "gaussian": { 
		 "optdone": 1, 
		 "sigma_profile": "yes", 
		 "theory": "DFT", 
		 "functional": "B3LYP", 
		 "basiset": "6-31G**", 
		 "properties": { 
			 "R2extent": 2533.6578, 
			 "electric_dipole_moment_norm": 4.34676103553, 
			 "electric_quadrupole_moment_norm": 27.7747036996, 
			 "total_energy": -586.85807654, 
			 "HOMO_LUMO_gap": 0.2324, 
			 "cosmo_polarized_energy": -28.15, 
			 "cosmo_cavitation_energy": 24.35, 
			 "cosmo_dispersion_energy": -18.07, 
			 "cosmo_repulsion_energy": 1.42, 
			 "cosmo_total_nonelectrostatic_energy": 7.7, 
			 "SMD_solvation_energy": 2.99 
		},
		"coords": [
			{
				"x": 1.3174087026,
				"y": 2.0851574664,
				"z": 1.1680694522,
				"element": "O" 
			},
			{
				"x": 0.3388439734,
				"y": 1.2241868593,
				"z": 1.5452891774,
				"element": "C" 
			},
			{
				"x": -0.2303895376,
				"y": 1.3764368478,
				"z": 2.5974103509,
				"element": "O" 
			},
			{
				"x": 0.0220229583,
				"y": 0.1057855204,
				"z": 0.5517534867,
				"element": "C" 
			},
			{
				"x": -0.6415034779,
				"y": 0.6553153519,
				"z": -0.7363271,
				"element": "C" 
			},
			{
				"x": -0.8367123902,
				"y": -0.4678680187,
				"z": -1.7687220446,
				"element": "C" 
			},
			{
				"x": -1.4366444563,
				"y": -1.6813614552,
				"z": -1.1292152472,
				"element": "C" 
			},
			{
				"x": -2.0231434386,
				"y": -2.6985553147,
				"z": -1.7175753279,
				"element": "N" 
			},
			{
				"x": -2.3782926529,
				"y": -3.5989780394,
				"z": -0.7294067742,
				"element": "N" 
			},
			{
				"x": -1.9932933234,
				"y": -3.0912991001,
				"z": 0.415900949,
				"element": "C" 
			},
			{
				"x": -1.3826162355,
				"y": -1.8787223838,
				"z": 0.2288555304,
				"element": "N" 
			},
			{
				"x": -0.8873378477,
				"y": -0.9317655978,
				"z": 1.2247798563,
				"element": "C" 
			},
			{
				"x": 1.6993596979,
				"y": 1.8218480706,
				"z": 0.3186717864,
				"element": "H" 
			},
			{
				"x": 0.9698756349,
				"y": -0.3770761319,
				"z": 0.2696397008,
				"element": "H" 
			},
			{
				"x": -1.607859949,
				"y": 1.0999135069,
				"z": -0.469381807,
				"element": "H" 
			},
			{
				"x": -0.037044398,
				"y": 1.4582039321,
				"z": -1.1716990706,
				"element": "H" 
			},
			{
				"x": -1.4764311142,
				"y": -0.1383307273,
				"z": -2.5921552158,
				"element": "H" 
			},
			{
				"x": 0.1319823063,
				"y": -0.7335220795,
				"z": -2.2135400627,
				"element": "H" 
			},
			{
				"x": -2.127192954,
				"y": -3.5440621665,
				"z": 1.3883437593,
				"element": "H" 
			},
			{
				"x": -0.3437523859,
				"y": -1.4754095391,
				"z": 2.0021234957,
				"element": "H" 
			},
			{
				"x": -1.7225791122,
				"y": -0.4160970014,
				"z": 1.7083851051,
				"element": "H" 
			}
		],
		 "valence_orbital": [ 
			{
				"type": "occ",
				"energy": -0.30345,
				"method": "rhf"
			},
			{
				"type": "occ",
				"energy": -0.29706,
				"method": "rhf"
			},
			{
				"type": "occ",
				"energy": -0.28511,
				"method": "rhf"
			},
			{
				"type": "occ",
				"energy": -0.25415,
				"method": "rhf"
			},
			{
				"type": "occ",
				"energy": -0.24919,
				"method": "rhf"
			},
			{
				"type": "unocc",
				"energy": -0.01679,
				"method": "rhf"
			},
			{
				"type": "unocc",
				"energy": 0.01216,
				"method": "rhf"
			},
			{
				"type": "unocc",
				"energy": 0.02381,
				"method": "rhf"
			},
			{
				"type": "unocc",
				"energy": 0.0436,
				"method": "rhf"
			},
			{
				"type": "unocc",
				"energy": 0.07969,
				"method": "rhf"
			}
		],
		"cosmo_sigma_profile": { 
			"-0.025": 0.0,
			"-0.024": 0.0,
			"-0.023": 0.0,
			"-0.022": 0.0,
			"-0.021": 0.0,
			"-0.02": 0.051706281855,
			"-0.019": 0.842243339844,
			"-0.018": 1.29624150172,
			"-0.017": 1.01454503186,
			"-0.016": 1.36804207351,
			"-0.015": 1.43402983729,
			"-0.014": 0.693309205034,
			"-0.013": 0.719338354875,
			"-0.012": 1.59028028252,
			"-0.011": 1.53136035653,
			"-0.01": 2.85488737843,
			"-0.009": 4.75528247088,
			"-0.008": 8.27900028981,
			"-0.007": 12.2951473661,
			"-0.006": 16.3659861715,
			"-0.005": 15.684395327,
			"-0.004": 14.3046821735,
			"-0.003": 12.3576425481,
			"-0.002": 7.82788942199,
			"-0.001": 5.05317487705,
			"0.0": 5.31521414187,
			"0.001": 5.21252891237,
			"0.002": 4.5181691681,
			"0.003": 3.32236004872,
			"0.004": 4.5723647748,
			"0.005": 4.17836143494,
			"0.006": 3.55263032669,
			"0.007": 4.37579323521,
			"0.008": 4.68885194491,
			"0.009": 6.11444704746,
			"0.01": 7.56485371832,
			"0.011": 7.50667120711,
			"0.012": 5.25858871939,
			"0.013": 2.79070289537,
			"0.014": 4.1410530429,
			"0.015": 3.45516095099,
			"0.016": 2.69407662268,
			"0.017": 2.28134755415,
			"0.018": 0.576919877623,
			"0.019": 0.0,
			"0.02": 0.0,
			"0.021": 0.0,
			"0.022": 0.0,
			"0.023": 0.0,
			"0.024": 0.0,
			"0.025": 0.0
		}
	}
}
