{
	 "smiles": "COC1=CC2=C(NC(=C2)C(O)=O)C=C1", 
	 "Tm": 472.15, 
	 "num_atms": 23, 
	 "gaussian": { 
		 "optdone": 1, 
		 "sigma_profile": "yes", 
		 "theory": "DFT", 
		 "functional": "B3LYP", 
		 "basiset": "6-31G**", 
		 "properties": { 
			 "R2extent": 3687.4103, 
			 "electric_dipole_moment_norm": 1.68524569129, 
			 "electric_quadrupole_moment_norm": 20.5316844185, 
			 "total_energy": -666.921907789, 
			 "HOMO_LUMO_gap": 0.15737, 
			 "cosmo_polarized_energy": -13.98, 
			 "cosmo_cavitation_energy": 27.85, 
			 "cosmo_dispersion_energy": -20.77, 
			 "cosmo_repulsion_energy": 1.62, 
			 "cosmo_total_nonelectrostatic_energy": 8.71, 
			 "SMD_solvation_energy": 6.35 
		},
		"coords": [
			{
				"x": -2.0120844672,
				"y": -2.2581533026,
				"z": -3.9434468704,
				"element": "C" 
			},
			{
				"x": -2.8011258685,
				"y": -1.7541520179,
				"z": -2.8804497902,
				"element": "O" 
			},
			{
				"x": -2.1522200823,
				"y": -1.2273707744,
				"z": -1.7959874759,
				"element": "C" 
			},
			{
				"x": -0.773951739,
				"y": -1.1490329536,
				"z": -1.6585112155,
				"element": "C" 
			},
			{
				"x": -0.2484374091,
				"y": -0.5771708483,
				"z": -0.4772223757,
				"element": "C" 
			},
			{
				"x": -1.1338482082,
				"y": -0.1008630854,
				"z": 0.5312377468,
				"element": "C" 
			},
			{
				"x": -0.3688883732,
				"y": 0.3987003935,
				"z": 1.5577714885,
				"element": "N" 
			},
			{
				"x": 0.969724348,
				"y": 0.2547049703,
				"z": 1.2331023401,
				"element": "C" 
			},
			{
				"x": 1.0772720263,
				"y": -0.3406324458,
				"z": -0.0088664302,
				"element": "C" 
			},
			{
				"x": 2.0420389472,
				"y": 0.6910080802,
				"z": 2.1223001737,
				"element": "C" 
			},
			{
				"x": 1.5519204647,
				"y": 1.2386095777,
				"z": 3.2742817541,
				"element": "O" 
			},
			{
				"x": 3.2321354759,
				"y": 0.5938310851,
				"z": 1.8996192559,
				"element": "O" 
			},
			{
				"x": -2.5274274012,
				"y": -0.1836389597,
				"z": 0.3845403707,
				"element": "C" 
			},
			{
				"x": -3.0190119637,
				"y": -0.7460317203,
				"z": -0.7775846371,
				"element": "C" 
			},
			{
				"x": -1.3835455819,
				"y": -1.4752151925,
				"z": -4.3885480337,
				"element": "H" 
			},
			{
				"x": -2.7130601484,
				"y": -2.6257768064,
				"z": -4.6946592622,
				"element": "H" 
			},
			{
				"x": -1.3689294603,
				"y": -3.0852643249,
				"z": -3.6142097154,
				"element": "H" 
			},
			{
				"x": -0.1023226102,
				"y": -1.5120968766,
				"z": -2.426983879,
				"element": "H" 
			},
			{
				"x": -0.6973719551,
				"y": 0.8084682761,
				"z": 2.4173639096,
				"element": "H" 
			},
			{
				"x": 2.0095528575,
				"y": -0.5699731572,
				"z": -0.5037263944,
				"element": "H" 
			},
			{
				"x": 2.3289788305,
				"y": 1.4955679415,
				"z": 3.7966389921,
				"element": "H" 
			},
			{
				"x": -3.2019236893,
				"y": 0.1798500646,
				"z": 1.1540708346,
				"element": "H" 
			},
			{
				"x": -4.0870739928,
				"y": -0.8359679234,
				"z": -0.9450307863,
				"element": "H" 
			}
		],
		 "valence_orbital": [ 
			{
				"type": "occ",
				"energy": -0.29852,
				"method": "rhf"
			},
			{
				"type": "occ",
				"energy": -0.28419,
				"method": "rhf"
			},
			{
				"type": "occ",
				"energy": -0.27836,
				"method": "rhf"
			},
			{
				"type": "occ",
				"energy": -0.21629,
				"method": "rhf"
			},
			{
				"type": "occ",
				"energy": -0.20477,
				"method": "rhf"
			},
			{
				"type": "unocc",
				"energy": -0.0474,
				"method": "rhf"
			},
			{
				"type": "unocc",
				"energy": 0.01977,
				"method": "rhf"
			},
			{
				"type": "unocc",
				"energy": 0.03498,
				"method": "rhf"
			},
			{
				"type": "unocc",
				"energy": 0.07133,
				"method": "rhf"
			},
			{
				"type": "unocc",
				"energy": 0.09712,
				"method": "rhf"
			}
		],
		"cosmo_sigma_profile": { 
			"-0.025": 0.0,
			"-0.024": 0.0,
			"-0.023": 0.0,
			"-0.022": 0.0,
			"-0.021": 0.0,
			"-0.02": 0.0,
			"-0.019": 0.0690460352317,
			"-0.018": 0.733508881454,
			"-0.017": 1.12024793083,
			"-0.016": 0.795726683169,
			"-0.015": 1.59391009277,
			"-0.014": 1.81645665669,
			"-0.013": 1.41848609401,
			"-0.012": 1.46173800785,
			"-0.011": 1.98609197089,
			"-0.01": 1.6850294754,
			"-0.009": 1.42822690829,
			"-0.008": 2.04292950105,
			"-0.007": 4.24262707455,
			"-0.006": 10.4065848818,
			"-0.005": 14.6151788818,
			"-0.004": 16.8559108527,
			"-0.003": 16.0943212771,
			"-0.002": 14.3841766874,
			"-0.001": 10.9679631779,
			"0.0": 12.0696394231,
			"0.001": 10.0118416319,
			"0.002": 12.2593377305,
			"0.003": 17.4248107447,
			"0.004": 20.1080719943,
			"0.005": 18.2877406115,
			"0.006": 6.04685983298,
			"0.007": 3.52527265436,
			"0.008": 2.55007061989,
			"0.009": 3.18005851939,
			"0.01": 2.88088019708,
			"0.011": 4.43761557448,
			"0.012": 5.38116380995,
			"0.013": 0.520073408044,
			"0.014": 0.0,
			"0.015": 0.0,
			"0.016": 0.0,
			"0.017": 0.0,
			"0.018": 0.0,
			"0.019": 0.0,
			"0.02": 0.0,
			"0.021": 0.0,
			"0.022": 0.0,
			"0.023": 0.0,
			"0.024": 0.0,
			"0.025": 0.0
		}
	}
}
