{
	 "smiles": "CSC1=NC(Cl)=CC(N)=N1", 
	 "Tm": 405.15, 
	 "num_atms": 16, 
	 "gaussian": { 
		 "optdone": 1, 
		 "sigma_profile": "yes", 
		 "theory": "DFT", 
		 "functional": "B3LYP", 
		 "basiset": "6-31G**", 
		 "properties": { 
			 "R2extent": 2282.5647, 
			 "electric_dipole_moment_norm": 5.52712322461, 
			 "electric_quadrupole_moment_norm": 8.77019073396, 
			 "total_energy": -1216.79753259, 
			 "HOMO_LUMO_gap": 0.19662, 
			 "cosmo_polarized_energy": -13.53, 
			 "cosmo_cavitation_energy": 23.96, 
			 "cosmo_dispersion_energy": -18.52, 
			 "cosmo_repulsion_energy": 1.49, 
			 "cosmo_total_nonelectrostatic_energy": 6.93, 
			 "SMD_solvation_energy": 1.62 
		},
		"coords": [
			{
				"x": 2.9734616238,
				"y": 1.3264903409,
				"z": 0.2201788865,
				"element": "C" 
			},
			{
				"x": 1.3715320068,
				"y": 1.3902894214,
				"z": 1.0885158523,
				"element": "S" 
			},
			{
				"x": 0.4312552958,
				"y": 0.1888522742,
				"z": 0.1885812762,
				"element": "C" 
			},
			{
				"x": -0.8252970746,
				"y": 0.0494134071,
				"z": 0.643427708,
				"element": "N" 
			},
			{
				"x": -1.5536074465,
				"y": -0.8411639661,
				"z": -0.0086322116,
				"element": "C" 
			},
			{
				"x": -3.2059707285,
				"y": -1.0645843129,
				"z": 0.5496794486,
				"element": "Cl" 
			},
			{
				"x": -1.1088402062,
				"y": -1.5970342482,
				"z": -1.0828083642,
				"element": "C" 
			},
			{
				"x": 0.2265139611,
				"y": -1.3616372705,
				"z": -1.4656210546,
				"element": "C" 
			},
			{
				"x": 0.7982046157,
				"y": -2.0044425519,
				"z": -2.5231143346,
				"element": "N" 
			},
			{
				"x": 1.0000983093,
				"y": -0.4651413442,
				"z": -0.8217034925,
				"element": "N" 
			},
			{
				"x": 3.4171280581,
				"y": 0.333144414,
				"z": 0.2949612624,
				"element": "H" 
			},
			{
				"x": 2.8567576286,
				"y": 1.5961936875,
				"z": -0.8299282656,
				"element": "H" 
			},
			{
				"x": 3.6113173839,
				"y": 2.0569033569,
				"z": 0.7229171458,
				"element": "H" 
			},
			{
				"x": -1.744996547,
				"y": -2.3108765008,
				"z": -1.5896040837,
				"element": "H" 
			},
			{
				"x": 1.796027664,
				"y": -1.9043941743,
				"z": -2.6287346307,
				"element": "H" 
			},
			{
				"x": 0.3669154557,
				"y": -2.832112533,
				"z": -2.9008151422,
				"element": "H" 
			}
		],
		 "valence_orbital": [ 
			{
				"type": "occ",
				"energy": -0.30872,
				"method": "rhf"
			},
			{
				"type": "occ",
				"energy": -0.28511,
				"method": "rhf"
			},
			{
				"type": "occ",
				"energy": -0.26757,
				"method": "rhf"
			},
			{
				"type": "occ",
				"energy": -0.25778,
				"method": "rhf"
			},
			{
				"type": "occ",
				"energy": -0.22619,
				"method": "rhf"
			},
			{
				"type": "unocc",
				"energy": -0.02957,
				"method": "rhf"
			},
			{
				"type": "unocc",
				"energy": -0.01675,
				"method": "rhf"
			},
			{
				"type": "unocc",
				"energy": 0.02984,
				"method": "rhf"
			},
			{
				"type": "unocc",
				"energy": 0.04108,
				"method": "rhf"
			},
			{
				"type": "unocc",
				"energy": 0.06662,
				"method": "rhf"
			}
		],
		"cosmo_sigma_profile": { 
			"-0.025": 0.0,
			"-0.024": 0.0,
			"-0.023": 0.0,
			"-0.022": 0.0,
			"-0.021": 0.0,
			"-0.02": 0.0,
			"-0.019": 0.0,
			"-0.018": 0.0,
			"-0.017": 0.0,
			"-0.016": 0.0,
			"-0.015": 1.0029041263,
			"-0.014": 2.43046893666,
			"-0.013": 2.67998802087,
			"-0.012": 2.34277383071,
			"-0.011": 3.13699404795,
			"-0.01": 2.43272626339,
			"-0.009": 2.90254954326,
			"-0.008": 3.07350117988,
			"-0.007": 3.52192677144,
			"-0.006": 6.08215622741,
			"-0.005": 7.23292151813,
			"-0.004": 7.65022003312,
			"-0.003": 8.73006656794,
			"-0.002": 13.2614879213,
			"-0.001": 15.6905889243,
			"0.0": 16.7080602122,
			"0.001": 15.5446391695,
			"0.002": 11.92289937,
			"0.003": 12.6923115072,
			"0.004": 17.5735210739,
			"0.005": 11.7057242385,
			"0.006": 9.37763144589,
			"0.007": 7.1983969265,
			"0.008": 4.53104475961,
			"0.009": 1.74571627357,
			"0.01": 1.45470852067,
			"0.011": 0.784052840972,
			"0.012": 1.02984776072,
			"0.013": 1.03932653486,
			"0.014": 0.155434163239,
			"0.015": 0.0,
			"0.016": 0.0,
			"0.017": 0.0,
			"0.018": 0.0,
			"0.019": 0.0,
			"0.02": 0.0,
			"0.021": 0.0,
			"0.022": 0.0,
			"0.023": 0.0,
			"0.024": 0.0,
			"0.025": 0.0
		}
	}
}
