{
	 "smiles": "NC1=CC(N)=C(C=CC2=CC=CC=C2)C=C1", 
	 "Tm": 389.15, 
	 "num_atms": 30, 
	 "gaussian": { 
		 "optdone": 1, 
		 "sigma_profile": "yes", 
		 "theory": "DFT", 
		 "functional": "B3LYP", 
		 "basiset": "6-31G**", 
		 "properties": { 
			 "R2extent": 4519.257, 
			 "electric_dipole_moment_norm": 2.00265542468, 
			 "electric_quadrupole_moment_norm": 16.6337902407, 
			 "total_energy": -651.424088094, 
			 "HOMO_LUMO_gap": 0.14793, 
			 "cosmo_polarized_energy": -14.17, 
			 "cosmo_cavitation_energy": 33.38, 
			 "cosmo_dispersion_energy": -24.0, 
			 "cosmo_repulsion_energy": 1.89, 
			 "cosmo_total_nonelectrostatic_energy": 11.26, 
			 "SMD_solvation_energy": 5.29 
		},
		"coords": [
			{
				"x": -0.6313890717,
				"y": -3.0735854489,
				"z": 3.7554105822,
				"element": "N" 
			},
			{
				"x": -0.4155301602,
				"y": -2.453309813,
				"z": 2.523903402,
				"element": "C" 
			},
			{
				"x": -0.7059833669,
				"y": -3.1206990104,
				"z": 1.3295711829,
				"element": "C" 
			},
			{
				"x": -0.4406152513,
				"y": -2.534202845,
				"z": 0.0833939337,
				"element": "C" 
			},
			{
				"x": -0.8137256853,
				"y": -3.2105001574,
				"z": -1.0756694857,
				"element": "N" 
			},
			{
				"x": 0.1335724108,
				"y": -1.2372419738,
				"z": 0.0155194285,
				"element": "C" 
			},
			{
				"x": 0.533284356,
				"y": -0.6654555017,
				"z": -1.2800034097,
				"element": "C" 
			},
			{
				"x": 0.4517811418,
				"y": 0.5993601132,
				"z": -1.7490225715,
				"element": "C" 
			},
			{
				"x": -0.2118543292,
				"y": 1.7938054412,
				"z": -1.1996179038,
				"element": "C" 
			},
			{
				"x": 0.225006962,
				"y": 3.0604747866,
				"z": -1.6320433014,
				"element": "C" 
			},
			{
				"x": -0.3833590155,
				"y": 4.2308084053,
				"z": -1.1815682797,
				"element": "C" 
			},
			{
				"x": -1.4607739337,
				"y": 4.1627062465,
				"z": -0.2971100528,
				"element": "C" 
			},
			{
				"x": -1.92246854,
				"y": 2.9126320719,
				"z": 0.1253968015,
				"element": "C" 
			},
			{
				"x": -1.3089986628,
				"y": 1.7435012911,
				"z": -0.3172477525,
				"element": "C" 
			},
			{
				"x": 0.4144895068,
				"y": -0.5883445417,
				"z": 1.2309362788,
				"element": "C" 
			},
			{
				"x": 0.1504692024,
				"y": -1.1646267205,
				"z": 2.4638022298,
				"element": "C" 
			},
			{
				"x": -1.3310348792,
				"y": -3.8030319142,
				"z": 3.7539665229,
				"element": "H" 
			},
			{
				"x": -0.747973612,
				"y": -2.4418279458,
				"z": 4.535644207,
				"element": "H" 
			},
			{
				"x": -1.160716264,
				"y": -4.1088626624,
				"z": 1.36293247,
				"element": "H" 
			},
			{
				"x": -0.7992932574,
				"y": -4.2187534598,
				"z": -1.0239061573,
				"element": "H" 
			},
			{
				"x": -0.4482723365,
				"y": -2.8488593559,
				"z": -1.9438146306,
				"element": "H" 
			},
			{
				"x": 1.0316116729,
				"y": -1.3699537932,
				"z": -1.9518574813,
				"element": "H" 
			},
			{
				"x": 0.9497490323,
				"y": 0.7818596296,
				"z": -2.7011397275,
				"element": "H" 
			},
			{
				"x": 1.0578145361,
				"y": 3.1210958749,
				"z": -2.328680768,
				"element": "H" 
			},
			{
				"x": -0.0195444667,
				"y": 5.1949828251,
				"z": -1.526089759,
				"element": "H" 
			},
			{
				"x": -1.9415696789,
				"y": 5.0716879106,
				"z": 0.0530259858,
				"element": "H" 
			},
			{
				"x": -2.7713169861,
				"y": 2.8478883207,
				"z": 0.8008241533,
				"element": "H" 
			},
			{
				"x": -1.6848811784,
				"y": 0.7814841439,
				"z": 0.0112840632,
				"element": "H" 
			},
			{
				"x": 0.8747967763,
				"y": 0.3939385109,
				"z": 1.193568005,
				"element": "H" 
			},
			{
				"x": 0.4007250783,
				"y": -0.6389704276,
				"z": 3.3811920343,
				"element": "H" 
			}
		],
		 "valence_orbital": [ 
			{
				"type": "occ",
				"energy": -0.27307,
				"method": "rhf"
			},
			{
				"type": "occ",
				"energy": -0.24054,
				"method": "rhf"
			},
			{
				"type": "occ",
				"energy": -0.22434,
				"method": "rhf"
			},
			{
				"type": "occ",
				"energy": -0.20564,
				"method": "rhf"
			},
			{
				"type": "occ",
				"energy": -0.17743,
				"method": "rhf"
			},
			{
				"type": "unocc",
				"energy": -0.0295,
				"method": "rhf"
			},
			{
				"type": "unocc",
				"energy": 0.00728,
				"method": "rhf"
			},
			{
				"type": "unocc",
				"energy": 0.02168,
				"method": "rhf"
			},
			{
				"type": "unocc",
				"energy": 0.03213,
				"method": "rhf"
			},
			{
				"type": "unocc",
				"energy": 0.06956,
				"method": "rhf"
			}
		],
		"cosmo_sigma_profile": { 
			"-0.025": 0.0,
			"-0.024": 0.0,
			"-0.023": 0.0,
			"-0.022": 0.0,
			"-0.021": 0.0,
			"-0.02": 0.0,
			"-0.019": 0.0,
			"-0.018": 0.0,
			"-0.017": 0.0,
			"-0.016": 0.0,
			"-0.015": 0.0,
			"-0.014": 0.0,
			"-0.013": 0.171535426446,
			"-0.012": 3.53477340535,
			"-0.011": 4.67508360793,
			"-0.01": 5.00325060926,
			"-0.009": 6.99195902831,
			"-0.008": 5.6997048907,
			"-0.007": 5.49312066198,
			"-0.006": 7.34657240478,
			"-0.005": 16.6764268746,
			"-0.004": 20.3193277165,
			"-0.003": 20.0553665417,
			"-0.002": 14.9292753948,
			"-0.001": 12.4076177468,
			"0.0": 14.4917309249,
			"0.001": 13.3824785218,
			"0.002": 14.9835431349,
			"0.003": 15.936576782,
			"0.004": 19.2287855574,
			"0.005": 20.7242143997,
			"0.006": 18.258255428,
			"0.007": 12.326971345,
			"0.008": 3.15160047108,
			"0.009": 2.31184163917,
			"0.01": 1.21722344609,
			"0.011": 1.29732580132,
			"0.012": 2.032363299,
			"0.013": 1.07288373476,
			"0.014": 1.05810832579,
			"0.015": 0.324543304971,
			"0.016": 0.0,
			"0.017": 0.0,
			"0.018": 0.0,
			"0.019": 0.0,
			"0.02": 0.0,
			"0.021": 0.0,
			"0.022": 0.0,
			"0.023": 0.0,
			"0.024": 0.0,
			"0.025": 0.0
		}
	}
}
