{
	 "smiles": "COCC(C)NC(=O)CC#N", 
	 "Tm": 315.15, 
	 "num_atms": 23, 
	 "gaussian": { 
		 "optdone": 1, 
		 "sigma_profile": "yes", 
		 "theory": "DFT", 
		 "functional": "B3LYP", 
		 "basiset": "6-31G**", 
		 "properties": { 
			 "R2extent": 2627.2106, 
			 "electric_dipole_moment_norm": 5.96510197063, 
			 "electric_quadrupole_moment_norm": 19.3414543657, 
			 "total_energy": -533.899213434, 
			 "HOMO_LUMO_gap": 0.257, 
			 "cosmo_polarized_energy": -17.56, 
			 "cosmo_cavitation_energy": 27.09, 
			 "cosmo_dispersion_energy": -18.39, 
			 "cosmo_repulsion_energy": 1.52, 
			 "cosmo_total_nonelectrostatic_energy": 10.21, 
			 "SMD_solvation_energy": 6.85 
		},
		"coords": [
			{
				"x": -0.1324735339,
				"y": -2.1027408378,
				"z": -1.6799367171,
				"element": "C" 
			},
			{
				"x": -0.8999018014,
				"y": -1.2900170654,
				"z": -0.8146453559,
				"element": "O" 
			},
			{
				"x": -0.7787306872,
				"y": 0.087188633,
				"z": -1.0914552206,
				"element": "C" 
			},
			{
				"x": -1.6206973447,
				"y": 0.8537264995,
				"z": -0.0644091728,
				"element": "C" 
			},
			{
				"x": -1.7539136322,
				"y": 2.3412540685,
				"z": -0.4117101544,
				"element": "C" 
			},
			{
				"x": -1.2010306528,
				"y": 0.5689301582,
				"z": 1.3189786189,
				"element": "N" 
			},
			{
				"x": -0.0833953699,
				"y": 0.8982100949,
				"z": 2.0356886195,
				"element": "C" 
			},
			{
				"x": 0.1993655777,
				"y": 0.3328728728,
				"z": 3.080264743,
				"element": "O" 
			},
			{
				"x": 0.8251031295,
				"y": 2.0457584504,
				"z": 1.5341568441,
				"element": "C" 
			},
			{
				"x": 0.3159314446,
				"y": 3.3670017665,
				"z": 1.9027913155,
				"element": "C" 
			},
			{
				"x": -0.0935240732,
				"y": 4.4137765237,
				"z": 2.1923699051,
				"element": "N" 
			},
			{
				"x": -0.4384550286,
				"y": -1.983096098,
				"z": -2.7308951719,
				"element": "H" 
			},
			{
				"x": -0.2966083951,
				"y": -3.1398173877,
				"z": -1.3793714488,
				"element": "H" 
			},
			{
				"x": 0.9423634622,
				"y": -1.8762507575,
				"z": -1.6046454075,
				"element": "H" 
			},
			{
				"x": 0.2781206028,
				"y": 0.4049917448,
				"z": -1.0440763409,
				"element": "H" 
			},
			{
				"x": -1.1406197972,
				"y": 0.3199060391,
				"z": -2.1076785655,
				"element": "H" 
			},
			{
				"x": -2.6253993951,
				"y": 0.4212033823,
				"z": -0.1192004198,
				"element": "H" 
			},
			{
				"x": -2.2772173403,
				"y": 2.8765701225,
				"z": 0.3831446796,
				"element": "H" 
			},
			{
				"x": -2.3320727221,
				"y": 2.4451612969,
				"z": -1.3348076681,
				"element": "H" 
			},
			{
				"x": -0.7937151766,
				"y": 2.8368772367,
				"z": -0.5756341677,
				"element": "H" 
			},
			{
				"x": -1.6359301223,
				"y": -0.2517341725,
				"z": 1.7223556233,
				"element": "H" 
			},
			{
				"x": 1.7890573347,
				"y": 1.8895878487,
				"z": 2.0247510763,
				"element": "H" 
			},
			{
				"x": 0.9816435211,
				"y": 2.0121395805,
				"z": 0.4520643859,
				"element": "H" 
			}
		],
		 "valence_orbital": [ 
			{
				"type": "occ",
				"energy": -0.33565,
				"method": "rhf"
			},
			{
				"type": "occ",
				"energy": -0.32847,
				"method": "rhf"
			},
			{
				"type": "occ",
				"energy": -0.27519,
				"method": "rhf"
			},
			{
				"type": "occ",
				"energy": -0.26687,
				"method": "rhf"
			},
			{
				"type": "occ",
				"energy": -0.2594,
				"method": "rhf"
			},
			{
				"type": "unocc",
				"energy": -0.0024,
				"method": "rhf"
			},
			{
				"type": "unocc",
				"energy": 0.02937,
				"method": "rhf"
			},
			{
				"type": "unocc",
				"energy": 0.04129,
				"method": "rhf"
			},
			{
				"type": "unocc",
				"energy": 0.06006,
				"method": "rhf"
			},
			{
				"type": "unocc",
				"energy": 0.07925,
				"method": "rhf"
			}
		],
		"cosmo_sigma_profile": { 
			"-0.025": 0.0,
			"-0.024": 0.0,
			"-0.023": 0.0,
			"-0.022": 0.0,
			"-0.021": 0.0,
			"-0.02": 0.0,
			"-0.019": 0.0,
			"-0.018": 0.0,
			"-0.017": 0.0,
			"-0.016": 0.0,
			"-0.015": 0.0,
			"-0.014": 0.123975399912,
			"-0.013": 0.845822399685,
			"-0.012": 0.825875541227,
			"-0.011": 1.84377463807,
			"-0.01": 3.55517740967,
			"-0.009": 5.25536450868,
			"-0.008": 5.46611845644,
			"-0.007": 6.5108477889,
			"-0.006": 8.24562586088,
			"-0.005": 13.0525524566,
			"-0.004": 21.3666758738,
			"-0.003": 21.9044538119,
			"-0.002": 21.4001111382,
			"-0.001": 14.7851868801,
			"0.0": 10.9259174649,
			"0.001": 7.31348240273,
			"0.002": 7.31037649969,
			"0.003": 6.41485168401,
			"0.004": 5.21777068487,
			"0.005": 4.38931596061,
			"0.006": 4.14775184396,
			"0.007": 6.19269155,
			"0.008": 5.3337847915,
			"0.009": 5.93726640721,
			"0.01": 5.34881165849,
			"0.011": 4.77204813204,
			"0.012": 6.68341151883,
			"0.013": 6.65473290496,
			"0.014": 1.03831369121,
			"0.015": 0.0,
			"0.016": 0.0,
			"0.017": 0.0,
			"0.018": 0.0,
			"0.019": 0.0,
			"0.02": 0.0,
			"0.021": 0.0,
			"0.022": 0.0,
			"0.023": 0.0,
			"0.024": 0.0,
			"0.025": 0.0
		}
	}
}
