{
	 "smiles": "COC1=CC=C(Br)C(OC)=C1", 
	 "Tm": 298.65, 
	 "num_atms": 20, 
	 "gaussian": { 
		 "optdone": 1, 
		 "sigma_profile": "yes", 
		 "theory": "DFT", 
		 "functional": "B3LYP", 
		 "basiset": "6-31G**", 
		 "properties": { 
			 "R2extent": 4284.0936, 
			 "electric_dipole_moment_norm": 2.88862578227, 
			 "electric_quadrupole_moment_norm": 8.09280860023, 
			 "total_energy": -3032.09527826, 
			 "HOMO_LUMO_gap": 0.20847, 
			 "cosmo_polarized_energy": -7.34, 
			 "cosmo_cavitation_energy": 25.95, 
			 "cosmo_dispersion_energy": -19.36, 
			 "cosmo_repulsion_energy": 1.56, 
			 "cosmo_total_nonelectrostatic_energy": 8.15, 
			 "SMD_solvation_energy": 5.0 
		},
		"coords": [
			{
				"x": 1.4350848701,
				"y": -2.7167824769,
				"z": -0.2458979902,
				"element": "C" 
			},
			{
				"x": 2.2919537113,
				"y": -1.6831907906,
				"z": 0.2151165796,
				"element": "O" 
			},
			{
				"x": 1.7250206523,
				"y": -0.5443579703,
				"z": 0.7032570385,
				"element": "C" 
			},
			{
				"x": 2.6179771707,
				"y": 0.4382310058,
				"z": 1.1574941434,
				"element": "C" 
			},
			{
				"x": 2.1317532182,
				"y": 1.6291911867,
				"z": 1.6798422733,
				"element": "C" 
			},
			{
				"x": 0.7558984628,
				"y": 1.8608171163,
				"z": 1.7526558183,
				"element": "C" 
			},
			{
				"x": 0.1139174447,
				"y": 3.4936602087,
				"z": 2.5035580091,
				"element": "Br" 
			},
			{
				"x": -0.1418037127,
				"y": 0.8899209759,
				"z": 1.2981160416,
				"element": "C" 
			},
			{
				"x": -1.5005109183,
				"y": 1.0522592775,
				"z": 1.3961820665,
				"element": "O" 
			},
			{
				"x": -2.10224995,
				"y": 1.7657525288,
				"z": 0.3122316816,
				"element": "C" 
			},
			{
				"x": 0.3480651111,
				"y": -0.3129221738,
				"z": 0.7723734495,
				"element": "C" 
			},
			{
				"x": 0.7841760841,
				"y": -3.0896239249,
				"z": 0.5551183912,
				"element": "H" 
			},
			{
				"x": 2.0892420465,
				"y": -3.5226113714,
				"z": -0.581712213,
				"element": "H" 
			},
			{
				"x": 0.8138636831,
				"y": -2.3821889759,
				"z": -1.0866535242,
				"element": "H" 
			},
			{
				"x": 3.6835482306,
				"y": 0.2452247922,
				"z": 1.0995753272,
				"element": "H" 
			},
			{
				"x": 2.8191701927,
				"y": 2.3866542433,
				"z": 2.0393448732,
				"element": "H" 
			},
			{
				"x": -1.7149691865,
				"y": 2.7882188464,
				"z": 0.2428092069,
				"element": "H" 
			},
			{
				"x": -3.1724328381,
				"y": 1.7986996921,
				"z": 0.5247325194,
				"element": "H" 
			},
			{
				"x": -1.9353793225,
				"y": 1.2474346767,
				"z": -0.6409077227,
				"element": "H" 
			},
			{
				"x": -0.3786249503,
				"y": -1.0457868667,
				"z": 0.4446640311,
				"element": "H" 
			}
		],
		 "valence_orbital": [ 
			{
				"type": "occ",
				"energy": -0.28793,
				"method": "rhf"
			},
			{
				"type": "occ",
				"energy": -0.28066,
				"method": "rhf"
			},
			{
				"type": "occ",
				"energy": -0.27573,
				"method": "rhf"
			},
			{
				"type": "occ",
				"energy": -0.25279,
				"method": "rhf"
			},
			{
				"type": "occ",
				"energy": -0.21718,
				"method": "rhf"
			},
			{
				"type": "unocc",
				"energy": -0.00871,
				"method": "rhf"
			},
			{
				"type": "unocc",
				"energy": 0.00166,
				"method": "rhf"
			},
			{
				"type": "unocc",
				"energy": 0.013,
				"method": "rhf"
			},
			{
				"type": "unocc",
				"energy": 0.09606,
				"method": "rhf"
			},
			{
				"type": "unocc",
				"energy": 0.10554,
				"method": "rhf"
			}
		],
		"cosmo_sigma_profile": { 
			"-0.025": 0.0,
			"-0.024": 0.0,
			"-0.023": 0.0,
			"-0.022": 0.0,
			"-0.021": 0.0,
			"-0.02": 0.0,
			"-0.019": 0.0,
			"-0.018": 0.0,
			"-0.017": 0.0,
			"-0.016": 0.0,
			"-0.015": 0.0,
			"-0.014": 0.0,
			"-0.013": 0.0,
			"-0.012": 0.0,
			"-0.011": 0.0,
			"-0.01": 0.0,
			"-0.009": 0.0,
			"-0.008": 0.176667986323,
			"-0.007": 4.21035440168,
			"-0.006": 11.3692325332,
			"-0.005": 16.2525310798,
			"-0.004": 20.7408739317,
			"-0.003": 23.059226249,
			"-0.002": 15.7680348478,
			"-0.001": 12.5496325116,
			"0.0": 10.0645911818,
			"0.001": 11.6178768581,
			"0.002": 17.1659923086,
			"0.003": 23.7015879872,
			"0.004": 15.0785402217,
			"0.005": 10.3092737733,
			"0.006": 3.70823722272,
			"0.007": 2.83672816655,
			"0.008": 2.87127352849,
			"0.009": 3.23630001378,
			"0.01": 2.73721762498,
			"0.011": 1.73445469225,
			"0.012": 0.432655943418,
			"0.013": 0.0,
			"0.014": 0.0,
			"0.015": 0.0,
			"0.016": 0.0,
			"0.017": 0.0,
			"0.018": 0.0,
			"0.019": 0.0,
			"0.02": 0.0,
			"0.021": 0.0,
			"0.022": 0.0,
			"0.023": 0.0,
			"0.024": 0.0,
			"0.025": 0.0
		}
	}
}
