{
	 "smiles": "O=C(NC1=CC=CC=C1)C1CCCCC1=C/CC1=CC=CC=C1", 
	 "Tm": 372.95, 
	 "num_atms": 46, 
	 "gaussian": { 
		 "optdone": 1, 
		 "sigma_profile": "yes", 
		 "theory": "DFT", 
		 "functional": "B3LYP", 
		 "basiset": "6-31G**", 
		 "properties": { 
			 "R2extent": 9869.3963, 
			 "electric_dipole_moment_norm": 3.15153383609, 
			 "electric_quadrupole_moment_norm": 10.8826369759, 
			 "total_energy": -944.08803329, 
			 "HOMO_LUMO_gap": 0.21002, 
			 "cosmo_polarized_energy": -13.42, 
			 "cosmo_cavitation_energy": 47.24, 
			 "cosmo_dispersion_energy": -32.04, 
			 "cosmo_repulsion_energy": 2.47, 
			 "cosmo_total_nonelectrostatic_energy": 17.68, 
			 "SMD_solvation_energy": 7.36 
		},
		"coords": [
			{
				"x": -3.3994596927,
				"y": 0.2157050969,
				"z": -0.1315252647,
				"element": "O" 
			},
			{
				"x": -2.6249917603,
				"y": -0.7023666252,
				"z": -0.3734068268,
				"element": "C" 
			},
			{
				"x": -2.851457385,
				"y": -1.4927708417,
				"z": -1.4874530117,
				"element": "N" 
			},
			{
				"x": -2.1517993326,
				"y": -2.5934056031,
				"z": -2.0369949996,
				"element": "C" 
			},
			{
				"x": -2.8970492721,
				"y": -3.6672618619,
				"z": -2.5483012118,
				"element": "C" 
			},
			{
				"x": -2.2543858983,
				"y": -4.7536421187,
				"z": -3.1376503872,
				"element": "C" 
			},
			{
				"x": -0.8602362638,
				"y": -4.7932362506,
				"z": -3.2117453259,
				"element": "C" 
			},
			{
				"x": -0.1182446354,
				"y": -3.7237398544,
				"z": -2.708849942,
				"element": "C" 
			},
			{
				"x": -0.7533448,
				"y": -2.6194166771,
				"z": -2.139425046,
				"element": "C" 
			},
			{
				"x": -1.4548751311,
				"y": -1.0349986832,
				"z": 0.5477303072,
				"element": "C" 
			},
			{
				"x": -1.9297744402,
				"y": -0.9475020118,
				"z": 2.021607495,
				"element": "C" 
			},
			{
				"x": -0.7990205188,
				"y": -1.3010985696,
				"z": 2.9953775833,
				"element": "C" 
			},
			{
				"x": 0.4457162469,
				"y": -0.4378491801,
				"z": 2.7547758578,
				"element": "C" 
			},
			{
				"x": 0.9014941539,
				"y": -0.5106956733,
				"z": 1.282336051,
				"element": "C" 
			},
			{
				"x": -0.2276472011,
				"y": -0.1441973604,
				"z": 0.3412742696,
				"element": "C" 
			},
			{
				"x": -0.1989929693,
				"y": 0.8593597447,
				"z": -0.5513153225,
				"element": "C" 
			},
			{
				"x": 0.9368419151,
				"y": 1.8055077118,
				"z": -0.8489304259,
				"element": "C" 
			},
			{
				"x": 0.5665214913,
				"y": 3.2782536355,
				"z": -0.7240234661,
				"element": "C" 
			},
			{
				"x": 1.1304356017,
				"y": 4.2230981744,
				"z": -1.5916744679,
				"element": "C" 
			},
			{
				"x": 0.8341384354,
				"y": 5.5807903256,
				"z": -1.4655855782,
				"element": "C" 
			},
			{
				"x": -0.0404109534,
				"y": 6.0165527505,
				"z": -0.4684033524,
				"element": "C" 
			},
			{
				"x": -0.6139234184,
				"y": 5.0839806393,
				"z": 0.3974761383,
				"element": "C" 
			},
			{
				"x": -0.3126409743,
				"y": 3.7270113148,
				"z": 0.2701517399,
				"element": "C" 
			},
			{
				"x": -3.732360206,
				"y": -1.2539934855,
				"z": -1.9279809375,
				"element": "H" 
			},
			{
				"x": -3.9809279066,
				"y": -3.6471933018,
				"z": -2.4712464929,
				"element": "H" 
			},
			{
				"x": -2.8458049549,
				"y": -5.5758870599,
				"z": -3.5300321587,
				"element": "H" 
			},
			{
				"x": -0.3594269904,
				"y": -5.6438828529,
				"z": -3.6637013626,
				"element": "H" 
			},
			{
				"x": 0.9658380138,
				"y": -3.7338129367,
				"z": -2.7780448176,
				"element": "H" 
			},
			{
				"x": -0.173823838,
				"y": -1.7682888532,
				"z": -1.7991028589,
				"element": "H" 
			},
			{
				"x": -1.1403461064,
				"y": -2.0712663514,
				"z": 0.363275498,
				"element": "H" 
			},
			{
				"x": -2.7828708596,
				"y": -1.6198130903,
				"z": 2.1696672113,
				"element": "H" 
			},
			{
				"x": -2.2948337487,
				"y": 0.0688400916,
				"z": 2.2006220691,
				"element": "H" 
			},
			{
				"x": -0.5322763999,
				"y": -2.3610774549,
				"z": 2.8754118062,
				"element": "H" 
			},
			{
				"x": -1.148491282,
				"y": -1.1849470331,
				"z": 4.0281518752,
				"element": "H" 
			},
			{
				"x": 0.2205073404,
				"y": 0.6072730458,
				"z": 3.0044968242,
				"element": "H" 
			},
			{
				"x": 1.2643942603,
				"y": -0.7524024357,
				"z": 3.4129127718,
				"element": "H" 
			},
			{
				"x": 1.2251387204,
				"y": -1.5407668706,
				"z": 1.0671784615,
				"element": "H" 
			},
			{
				"x": 1.7755564897,
				"y": 0.1269144294,
				"z": 1.1291425969,
				"element": "H" 
			},
			{
				"x": -1.095769134,
				"y": 1.0515452509,
				"z": -1.1375877525,
				"element": "H" 
			},
			{
				"x": 1.2855676106,
				"y": 1.6285087948,
				"z": -1.8761929987,
				"element": "H" 
			},
			{
				"x": 1.799508435,
				"y": 1.5983810814,
				"z": -0.2050843867,
				"element": "H" 
			},
			{
				"x": 1.8087115097,
				"y": 3.8907457811,
				"z": -2.3745646089,
				"element": "H" 
			},
			{
				"x": 1.2812858816,
				"y": 6.2966842493,
				"z": -2.1499689792,
				"element": "H" 
			},
			{
				"x": -0.2769437984,
				"y": 7.0723236731,
				"z": -0.3709260939,
				"element": "H" 
			},
			{
				"x": -1.3016943192,
				"y": 5.4115597982,
				"z": 1.1722877785,
				"element": "H" 
			},
			{
				"x": -0.7721319148,
				"y": 3.005177448,
				"z": 0.9393417417,
				"element": "H" 
			}
		],
		 "valence_orbital": [ 
			{
				"type": "occ",
				"energy": -0.24857,
				"method": "rhf"
			},
			{
				"type": "occ",
				"energy": -0.24363,
				"method": "rhf"
			},
			{
				"type": "occ",
				"energy": -0.2406,
				"method": "rhf"
			},
			{
				"type": "occ",
				"energy": -0.22928,
				"method": "rhf"
			},
			{
				"type": "occ",
				"energy": -0.22517,
				"method": "rhf"
			},
			{
				"type": "unocc",
				"energy": -0.01515,
				"method": "rhf"
			},
			{
				"type": "unocc",
				"energy": -0.00971,
				"method": "rhf"
			},
			{
				"type": "unocc",
				"energy": 0.0049,
				"method": "rhf"
			},
			{
				"type": "unocc",
				"energy": 0.00765,
				"method": "rhf"
			},
			{
				"type": "unocc",
				"energy": 0.02113,
				"method": "rhf"
			}
		],
		"cosmo_sigma_profile": { 
			"-0.025": 0.0,
			"-0.024": 0.0,
			"-0.023": 0.0,
			"-0.022": 0.0,
			"-0.021": 0.0,
			"-0.02": 0.0,
			"-0.019": 0.0,
			"-0.018": 0.0,
			"-0.017": 0.0,
			"-0.016": 0.0,
			"-0.015": 0.0,
			"-0.014": 0.523104134805,
			"-0.013": 0.983168533095,
			"-0.012": 0.921194268335,
			"-0.011": 1.38746136019,
			"-0.01": 1.05450621535,
			"-0.009": 1.04371545562,
			"-0.008": 1.12495692468,
			"-0.007": 1.74047371674,
			"-0.006": 8.74286985226,
			"-0.005": 19.3237659352,
			"-0.004": 27.1237853417,
			"-0.003": 43.1259354196,
			"-0.002": 40.7574030691,
			"-0.001": 44.0894222701,
			"0.0": 40.7786580603,
			"0.001": 29.9654473456,
			"0.002": 19.8197960829,
			"0.003": 19.0068316226,
			"0.004": 17.4432612062,
			"0.005": 19.3521106151,
			"0.006": 13.2669714784,
			"0.007": 5.31065783815,
			"0.008": 1.93598119141,
			"0.009": 1.31023681978,
			"0.01": 1.49209202815,
			"0.011": 1.67406305604,
			"0.012": 1.8325781589,
			"0.013": 3.85553838009,
			"0.014": 3.93659784804,
			"0.015": 0.113924008623,
			"0.016": 0.0,
			"0.017": 0.0,
			"0.018": 0.0,
			"0.019": 0.0,
			"0.02": 0.0,
			"0.021": 0.0,
			"0.022": 0.0,
			"0.023": 0.0,
			"0.024": 0.0,
			"0.025": 0.0
		}
	}
}
