{
	 "smiles": "OC(=O)C1=C(N=CC=N1)C(=O)NC1=CC=C(Cl)C=C1", 
	 "Tm": 452.15, 
	 "num_atms": 27, 
	 "gaussian": { 
		 "optdone": 1, 
		 "sigma_profile": "yes", 
		 "theory": "DFT", 
		 "functional": "B3LYP", 
		 "basiset": "6-31G**", 
		 "properties": { 
			 "R2extent": 5923.299, 
			 "electric_dipole_moment_norm": 2.57459220849, 
			 "electric_quadrupole_moment_norm": 25.750578998, 
			 "total_energy": -1312.212482, 
			 "HOMO_LUMO_gap": 0.159, 
			 "cosmo_polarized_energy": -21.34, 
			 "cosmo_cavitation_energy": 35.51, 
			 "cosmo_dispersion_energy": -24.51, 
			 "cosmo_repulsion_energy": 1.92, 
			 "cosmo_total_nonelectrostatic_energy": 12.92, 
			 "SMD_solvation_energy": 5.58 
		},
		"coords": [
			{
				"x": 0.0062352999,
				"y": -0.1668501261,
				"z": 2.8930517057,
				"element": "O" 
			},
			{
				"x": 0.9051966123,
				"y": -1.1769139815,
				"z": 2.8159568985,
				"element": "C" 
			},
			{
				"x": 1.1226967175,
				"y": -1.9470261332,
				"z": 3.7185452388,
				"element": "O" 
			},
			{
				"x": 1.5716267141,
				"y": -1.2291875677,
				"z": 1.4664889937,
				"element": "C" 
			},
			{
				"x": 1.7839675723,
				"y": -0.094238147,
				"z": 0.6576079541,
				"element": "C" 
			},
			{
				"x": 2.367453146,
				"y": -0.2043036682,
				"z": -0.5436115123,
				"element": "N" 
			},
			{
				"x": 2.7464554006,
				"y": -1.4261161626,
				"z": -0.9272712401,
				"element": "C" 
			},
			{
				"x": 2.5564731425,
				"y": -2.5435559313,
				"z": -0.1120600938,
				"element": "C" 
			},
			{
				"x": 1.9646332328,
				"y": -2.4468199082,
				"z": 1.0781681788,
				"element": "N" 
			},
			{
				"x": 1.582050883,
				"y": 1.3159615541,
				"z": 1.1804737632,
				"element": "C" 
			},
			{
				"x": 2.3420243583,
				"y": 1.7281947127,
				"z": 2.0438367669,
				"element": "O" 
			},
			{
				"x": 0.5897528396,
				"y": 2.1029823648,
				"z": 0.6541172852,
				"element": "N" 
			},
			{
				"x": -0.5060136967,
				"y": 1.7551294388,
				"z": -0.1836326801,
				"element": "C" 
			},
			{
				"x": -0.3132927269,
				"y": 1.2082702553,
				"z": -1.4573010942,
				"element": "C" 
			},
			{
				"x": -1.4098210584,
				"y": 0.9071885746,
				"z": -2.2643891046,
				"element": "C" 
			},
			{
				"x": -2.6974935593,
				"y": 1.1856873938,
				"z": -1.8088322497,
				"element": "C" 
			},
			{
				"x": -4.0778039761,
				"y": 0.8224701378,
				"z": -2.8326424979,
				"element": "Cl" 
			},
			{
				"x": -2.9048786228,
				"y": 1.7556408365,
				"z": -0.5526603997,
				"element": "C" 
			},
			{
				"x": -1.8066955795,
				"y": 2.0305254486,
				"z": 0.2585531638,
				"element": "C" 
			},
			{
				"x": -0.334500248,
				"y": -0.1755114619,
				"z": 3.8033531027,
				"element": "H" 
			},
			{
				"x": 3.2142918038,
				"y": -1.5142482855,
				"z": -1.905126231,
				"element": "H" 
			},
			{
				"x": 2.8831192107,
				"y": -3.5323076856,
				"z": -0.4256011096,
				"element": "H" 
			},
			{
				"x": 0.5231109868,
				"y": 2.9863838169,
				"z": 1.1469857997,
				"element": "H" 
			},
			{
				"x": 0.6945197402,
				"y": 1.0259294234,
				"z": -1.8107928834,
				"element": "H" 
			},
			{
				"x": -1.2634237287,
				"y": 0.4795072285,
				"z": -3.2500185506,
				"element": "H" 
			},
			{
				"x": -3.9111445187,
				"y": 1.9696552987,
				"z": -0.2103861109,
				"element": "H" 
			},
			{
				"x": -1.9584399454,
				"y": 2.4534525743,
				"z": 1.2472869069,
				"element": "H" 
			}
		],
		 "valence_orbital": [ 
			{
				"type": "occ",
				"energy": -0.29021,
				"method": "rhf"
			},
			{
				"type": "occ",
				"energy": -0.28003,
				"method": "rhf"
			},
			{
				"type": "occ",
				"energy": -0.27606,
				"method": "rhf"
			},
			{
				"type": "occ",
				"energy": -0.26127,
				"method": "rhf"
			},
			{
				"type": "occ",
				"energy": -0.24009,
				"method": "rhf"
			},
			{
				"type": "unocc",
				"energy": -0.08109,
				"method": "rhf"
			},
			{
				"type": "unocc",
				"energy": -0.06428,
				"method": "rhf"
			},
			{
				"type": "unocc",
				"energy": -0.03102,
				"method": "rhf"
			},
			{
				"type": "unocc",
				"energy": -0.02558,
				"method": "rhf"
			},
			{
				"type": "unocc",
				"energy": 0.01231,
				"method": "rhf"
			}
		],
		"cosmo_sigma_profile": { 
			"-0.025": 0.0,
			"-0.024": 0.0,
			"-0.023": 0.0,
			"-0.022": 0.0,
			"-0.021": 0.0,
			"-0.02": 0.0105516175684,
			"-0.019": 0.584763794245,
			"-0.018": 1.25187948091,
			"-0.017": 0.830530650249,
			"-0.016": 0.412306992422,
			"-0.015": 1.90544366944,
			"-0.014": 1.86208452315,
			"-0.013": 1.65681462556,
			"-0.012": 2.51232749324,
			"-0.011": 1.44304622206,
			"-0.01": 1.59243502285,
			"-0.009": 6.25508963685,
			"-0.008": 9.55218945914,
			"-0.007": 12.1620684417,
			"-0.006": 9.60392776229,
			"-0.005": 13.0235089081,
			"-0.004": 12.5521549568,
			"-0.003": 17.3419096742,
			"-0.002": 20.0045310289,
			"-0.001": 16.5843624463,
			"0.0": 16.8189122117,
			"0.001": 20.7737692438,
			"0.002": 24.169468238,
			"0.003": 23.699048331,
			"0.004": 17.2928766217,
			"0.005": 11.3714559439,
			"0.006": 3.9526734505,
			"0.007": 3.58488919398,
			"0.008": 3.53238041705,
			"0.009": 5.48333829494,
			"0.01": 6.24616952333,
			"0.011": 8.29902758939,
			"0.012": 7.20743700999,
			"0.013": 2.97212830057,
			"0.014": 1.48734300564,
			"0.015": 0.19145383048,
			"0.016": 0.0,
			"0.017": 0.0,
			"0.018": 0.0,
			"0.019": 0.0,
			"0.02": 0.0,
			"0.021": 0.0,
			"0.022": 0.0,
			"0.023": 0.0,
			"0.024": 0.0,
			"0.025": 0.0
		}
	}
}
