{
	 "smiles": "NC1=NC=C2N=CN(COCCO)C2=N1", 
	 "Tm": 461.15, 
	 "num_atms": 26, 
	 "gaussian": { 
		 "optdone": 1, 
		 "sigma_profile": "yes", 
		 "theory": "DFT", 
		 "functional": "B3LYP", 
		 "basiset": "6-31G**", 
		 "properties": { 
			 "R2extent": 4146.8464, 
			 "electric_dipole_moment_norm": 2.47114812587, 
			 "electric_quadrupole_moment_norm": 16.8376121567, 
			 "total_energy": -735.678563084, 
			 "HOMO_LUMO_gap": 0.17996, 
			 "cosmo_polarized_energy": -18.25, 
			 "cosmo_cavitation_energy": 30.32, 
			 "cosmo_dispersion_energy": -21.89, 
			 "cosmo_repulsion_energy": 1.74, 
			 "cosmo_total_nonelectrostatic_energy": 10.17, 
			 "SMD_solvation_energy": 1.05 
		},
		"coords": [
			{
				"x": 0.854804958,
				"y": -2.7925653962,
				"z": 0.7163054799,
				"element": "N" 
			},
			{
				"x": 0.5322339274,
				"y": -2.2274809849,
				"z": -0.4876515099,
				"element": "C" 
			},
			{
				"x": 1.0496744875,
				"y": -2.8380085338,
				"z": -1.5838677504,
				"element": "N" 
			},
			{
				"x": 0.8038184806,
				"y": -2.2960088377,
				"z": -2.7769605097,
				"element": "C" 
			},
			{
				"x": 0.0339792053,
				"y": -1.1379788202,
				"z": -2.8871282822,
				"element": "C" 
			},
			{
				"x": -0.3874822818,
				"y": -0.3538819747,
				"z": -3.9549872399,
				"element": "N" 
			},
			{
				"x": -1.09335131,
				"y": 0.5913603919,
				"z": -3.3975423877,
				"element": "C" 
			},
			{
				"x": -1.1860249073,
				"y": 0.4952027094,
				"z": -2.0102925185,
				"element": "N" 
			},
			{
				"x": -1.8712003813,
				"y": 1.403883385,
				"z": -1.1059900773,
				"element": "C" 
			},
			{
				"x": -1.2091661251,
				"y": 2.6352678791,
				"z": -0.9519658128,
				"element": "O" 
			},
			{
				"x": -0.0542990746,
				"y": 2.6066520825,
				"z": -0.0890368267,
				"element": "C" 
			},
			{
				"x": -0.4745732026,
				"y": 2.9236251333,
				"z": 1.3403129598,
				"element": "C" 
			},
			{
				"x": -1.1311966402,
				"y": 4.1746846298,
				"z": 1.4182757141,
				"element": "O" 
			},
			{
				"x": -0.4492735362,
				"y": -0.6210060558,
				"z": -1.6683809927,
				"element": "C" 
			},
			{
				"x": -0.2333244614,
				"y": -1.1177276277,
				"z": -0.4548141562,
				"element": "N" 
			},
			{
				"x": 0.2997610432,
				"y": -2.5260854986,
				"z": 1.5137066857,
				"element": "H" 
			},
			{
				"x": 1.2245313378,
				"y": -3.7293408924,
				"z": 0.6860825325,
				"element": "H" 
			},
			{
				"x": 1.2238564996,
				"y": -2.7943322929,
				"z": -3.6487519574,
				"element": "H" 
			},
			{
				"x": -1.5823475574,
				"y": 1.4007338553,
				"z": -3.9247867765,
				"element": "H" 
			},
			{
				"x": -2.8541734928,
				"y": 1.6392508741,
				"z": -1.521441284,
				"element": "H" 
			},
			{
				"x": -1.9903702708,
				"y": 0.8651727519,
				"z": -0.1595533889,
				"element": "H" 
			},
			{
				"x": 0.6107019484,
				"y": 3.3894948566,
				"z": -0.4645291715,
				"element": "H" 
			},
			{
				"x": 0.4614925188,
				"y": 1.6414421048,
				"z": -0.1512934867,
				"element": "H" 
			},
			{
				"x": 0.4130097901,
				"y": 2.9789867283,
				"z": 1.9802902034,
				"element": "H" 
			},
			{
				"x": -1.1072810983,
				"y": 2.1087448012,
				"z": 1.7324946035,
				"element": "H" 
			},
			{
				"x": -1.779699857,
				"y": 4.1778147317,
				"z": 0.6995059502,
				"element": "H" 
			}
		],
		 "valence_orbital": [ 
			{
				"type": "occ",
				"energy": -0.28571,
				"method": "rhf"
			},
			{
				"type": "occ",
				"energy": -0.27109,
				"method": "rhf"
			},
			{
				"type": "occ",
				"energy": -0.26359,
				"method": "rhf"
			},
			{
				"type": "occ",
				"energy": -0.25015,
				"method": "rhf"
			},
			{
				"type": "occ",
				"energy": -0.2173,
				"method": "rhf"
			},
			{
				"type": "unocc",
				"energy": -0.03734,
				"method": "rhf"
			},
			{
				"type": "unocc",
				"energy": 0.00527,
				"method": "rhf"
			},
			{
				"type": "unocc",
				"energy": 0.03347,
				"method": "rhf"
			},
			{
				"type": "unocc",
				"energy": 0.07954,
				"method": "rhf"
			},
			{
				"type": "unocc",
				"energy": 0.09059,
				"method": "rhf"
			}
		],
		"cosmo_sigma_profile": { 
			"-0.025": 0.0,
			"-0.024": 0.0,
			"-0.023": 0.0,
			"-0.022": 0.0,
			"-0.021": 0.0,
			"-0.02": 0.0,
			"-0.019": 0.0,
			"-0.018": 0.0,
			"-0.017": 0.0,
			"-0.016": 0.0,
			"-0.015": 0.0,
			"-0.014": 0.366319849656,
			"-0.013": 2.05820729141,
			"-0.012": 2.97130804075,
			"-0.011": 2.72826455846,
			"-0.01": 4.8457986252,
			"-0.009": 5.37111903399,
			"-0.008": 7.35091585097,
			"-0.007": 8.38830172755,
			"-0.006": 11.015296655,
			"-0.005": 18.0555188041,
			"-0.004": 16.9151962907,
			"-0.003": 14.9405689721,
			"-0.002": 15.0679043516,
			"-0.001": 16.5887016428,
			"0.0": 14.2618416138,
			"0.001": 14.4574518999,
			"0.002": 11.176196973,
			"0.003": 8.33949311817,
			"0.004": 9.0325914888,
			"0.005": 6.38686904256,
			"0.006": 7.63955757197,
			"0.007": 6.59435547585,
			"0.008": 5.55376190288,
			"0.009": 5.36342033776,
			"0.01": 5.22799207525,
			"0.011": 4.63025337369,
			"0.012": 3.54733272885,
			"0.013": 3.8898919999,
			"0.014": 4.40226580114,
			"0.015": 2.07574064802,
			"0.016": 1.13390444223,
			"0.017": 0.223651972882,
			"0.018": 0.0,
			"0.019": 0.0,
			"0.02": 0.0,
			"0.021": 0.0,
			"0.022": 0.0,
			"0.023": 0.0,
			"0.024": 0.0,
			"0.025": 0.0
		}
	}
}
