{
	 "smiles": "O1C=NN=C1C1=CC=CC=C1", 
	 "Tm": 309.15, 
	 "num_atms": 17, 
	 "gaussian": { 
		 "optdone": 1, 
		 "sigma_profile": "yes", 
		 "theory": "DFT", 
		 "functional": "B3LYP", 
		 "basiset": "6-31G**", 
		 "properties": { 
			 "R2extent": 1829.1103, 
			 "electric_dipole_moment_norm": 3.51859311657, 
			 "electric_quadrupole_moment_norm": 12.5880941469, 
			 "total_energy": -493.1599405, 
			 "HOMO_LUMO_gap": 0.19213, 
			 "cosmo_polarized_energy": -10.27, 
			 "cosmo_cavitation_energy": 21.94, 
			 "cosmo_dispersion_energy": -16.49, 
			 "cosmo_repulsion_energy": 1.29, 
			 "cosmo_total_nonelectrostatic_energy": 6.75, 
			 "SMD_solvation_energy": 3.09 
		},
		"coords": [
			{
				"x": -1.6045609655,
				"y": 0.489640344,
				"z": 1.7376638046,
				"element": "O" 
			},
			{
				"x": -1.6797618384,
				"y": 1.5679714237,
				"z": 2.5605213411,
				"element": "C" 
			},
			{
				"x": -0.7919635384,
				"y": 2.4697521952,
				"z": 2.303258001,
				"element": "N" 
			},
			{
				"x": -0.050368938,
				"y": 1.9801411268,
				"z": 1.2273519663,
				"element": "N" 
			},
			{
				"x": -0.5543489208,
				"y": 0.8189492299,
				"z": 0.9229253718,
				"element": "C" 
			},
			{
				"x": -0.141735951,
				"y": -0.1052545331,
				"z": -0.1277227826,
				"element": "C" 
			},
			{
				"x": 0.9370276702,
				"y": 0.2432136373,
				"z": -0.9573255626,
				"element": "C" 
			},
			{
				"x": 1.3447678933,
				"y": -0.6256471411,
				"z": -1.9647905722,
				"element": "C" 
			},
			{
				"x": 0.6850986311,
				"y": -1.8436339205,
				"z": -2.1543873068,
				"element": "C" 
			},
			{
				"x": -0.3873583636,
				"y": -2.1913138896,
				"z": -1.3304911512,
				"element": "C" 
			},
			{
				"x": -0.803169667,
				"y": -1.3278924663,
				"z": -0.3187904776,
				"element": "C" 
			},
			{
				"x": -2.4437639859,
				"y": 1.5723645032,
				"z": 3.3225095599,
				"element": "H" 
			},
			{
				"x": 1.4386195051,
				"y": 1.1916297867,
				"z": -0.797675873,
				"element": "H" 
			},
			{
				"x": 2.1790191728,
				"y": -0.3532222204,
				"z": -2.6043061462,
				"element": "H" 
			},
			{
				"x": 1.0063974667,
				"y": -2.519008764,
				"z": -2.9418406985,
				"element": "H" 
			},
			{
				"x": -0.9016765517,
				"y": -3.1366661195,
				"z": -1.4753666801,
				"element": "H" 
			},
			{
				"x": -1.6360216191,
				"y": -1.5952231924,
				"z": 0.3228672063,
				"element": "H" 
			}
		],
		 "valence_orbital": [ 
			{
				"type": "occ",
				"energy": -0.32464,
				"method": "rhf"
			},
			{
				"type": "occ",
				"energy": -0.31066,
				"method": "rhf"
			},
			{
				"type": "occ",
				"energy": -0.27969,
				"method": "rhf"
			},
			{
				"type": "occ",
				"energy": -0.26525,
				"method": "rhf"
			},
			{
				"type": "occ",
				"energy": -0.24494,
				"method": "rhf"
			},
			{
				"type": "unocc",
				"energy": -0.05281,
				"method": "rhf"
			},
			{
				"type": "unocc",
				"energy": -0.01475,
				"method": "rhf"
			},
			{
				"type": "unocc",
				"energy": 0.00973,
				"method": "rhf"
			},
			{
				"type": "unocc",
				"energy": 0.05681,
				"method": "rhf"
			},
			{
				"type": "unocc",
				"energy": 0.08603,
				"method": "rhf"
			}
		],
		"cosmo_sigma_profile": { 
			"-0.025": 0.0,
			"-0.024": 0.0,
			"-0.023": 0.0,
			"-0.022": 0.0,
			"-0.021": 0.0,
			"-0.02": 0.0,
			"-0.019": 0.0,
			"-0.018": 0.0,
			"-0.017": 0.0,
			"-0.016": 0.0,
			"-0.015": 0.0,
			"-0.014": 0.0,
			"-0.013": 0.256942235531,
			"-0.012": 2.23098257052,
			"-0.011": 1.89844303214,
			"-0.01": 1.56494886005,
			"-0.009": 1.40513024615,
			"-0.008": 1.48927704016,
			"-0.007": 3.95606654975,
			"-0.006": 10.3942764772,
			"-0.005": 12.7478682729,
			"-0.004": 15.2015080448,
			"-0.003": 12.7164174916,
			"-0.002": 11.7295346798,
			"-0.001": 12.3072571109,
			"0.0": 11.9882772426,
			"0.001": 12.3673168099,
			"0.002": 13.2179126393,
			"0.003": 14.3054333837,
			"0.004": 13.2889690577,
			"0.005": 2.26680672898,
			"0.006": 1.75611133511,
			"0.007": 1.93729626756,
			"0.008": 2.08088168863,
			"0.009": 2.45189170575,
			"0.01": 2.98324047756,
			"0.011": 3.16901682557,
			"0.012": 3.133468451,
			"0.013": 2.26858421023,
			"0.014": 2.10923878811,
			"0.015": 0.566112113688,
			"0.016": 0.0,
			"0.017": 0.0,
			"0.018": 0.0,
			"0.019": 0.0,
			"0.02": 0.0,
			"0.021": 0.0,
			"0.022": 0.0,
			"0.023": 0.0,
			"0.024": 0.0,
			"0.025": 0.0
		}
	}
}
