{
	 "smiles": "NC1=CC(F)=C(F)C=C1C(O)=O", 
	 "Tm": 455.15, 
	 "num_atms": 17, 
	 "gaussian": { 
		 "optdone": 1, 
		 "sigma_profile": "yes", 
		 "theory": "DFT", 
		 "functional": "B3LYP", 
		 "basiset": "6-31G**", 
		 "properties": { 
			 "R2extent": 2667.1117, 
			 "electric_dipole_moment_norm": 4.4657657003, 
			 "electric_quadrupole_moment_norm": 10.1997983171, 
			 "total_energy": -674.641069735, 
			 "HOMO_LUMO_gap": 0.16695, 
			 "cosmo_polarized_energy": -12.03, 
			 "cosmo_cavitation_energy": 22.74, 
			 "cosmo_dispersion_energy": -16.9, 
			 "cosmo_repulsion_energy": 1.3, 
			 "cosmo_total_nonelectrostatic_energy": 7.14, 
			 "SMD_solvation_energy": 6.02 
		},
		"coords": [
			{
				"x": 1.4006296458,
				"y": 2.8502494882,
				"z": 0.3404077682,
				"element": "N" 
			},
			{
				"x": 0.7902052584,
				"y": 1.7998722916,
				"z": 0.9784878963,
				"element": "C" 
			},
			{
				"x": 0.5854874969,
				"y": 1.8906128883,
				"z": 2.3748691746,
				"element": "C" 
			},
			{
				"x": 0.0228192184,
				"y": 0.8463291238,
				"z": 3.0779390654,
				"element": "C" 
			},
			{
				"x": -0.1624551712,
				"y": 0.9548244104,
				"z": 4.401092045,
				"element": "F" 
			},
			{
				"x": -0.3616384268,
				"y": -0.3370578545,
				"z": 2.4351089738,
				"element": "C" 
			},
			{
				"x": -0.9063906892,
				"y": -1.3328363677,
				"z": 3.1599942901,
				"element": "F" 
			},
			{
				"x": -0.1774402422,
				"y": -0.4496314098,
				"z": 1.0782526502,
				"element": "C" 
			},
			{
				"x": 0.3893412872,
				"y": 0.5994288576,
				"z": 0.3234177175,
				"element": "C" 
			},
			{
				"x": 0.4979634698,
				"y": 0.3289897998,
				"z": -1.1239230901,
				"element": "C" 
			},
			{
				"x": 0.996247335,
				"y": 1.367725156,
				"z": -1.8647969318,
				"element": "O" 
			},
			{
				"x": 0.1770902814,
				"y": -0.7100282023,
				"z": -1.6685340491,
				"element": "O" 
			},
			{
				"x": 1.3855141904,
				"y": 2.8699044748,
				"z": -0.667027506,
				"element": "H" 
			},
			{
				"x": 1.429587648,
				"y": 3.7354993316,
				"z": 0.8196795908,
				"element": "H" 
			},
			{
				"x": 0.8784921438,
				"y": 2.783188995,
				"z": 2.9178872644,
				"element": "H" 
			},
			{
				"x": -0.4738749242,
				"y": -1.3554820524,
				"z": 0.5625766778,
				"element": "H" 
			},
			{
				"x": 1.0040214784,
				"y": 1.0467110696,
				"z": -2.7816315371,
				"element": "H" 
			}
		],
		 "valence_orbital": [ 
			{
				"type": "occ",
				"energy": -0.33137,
				"method": "rhf"
			},
			{
				"type": "occ",
				"energy": -0.30916,
				"method": "rhf"
			},
			{
				"type": "occ",
				"energy": -0.28375,
				"method": "rhf"
			},
			{
				"type": "occ",
				"energy": -0.26317,
				"method": "rhf"
			},
			{
				"type": "occ",
				"energy": -0.21511,
				"method": "rhf"
			},
			{
				"type": "unocc",
				"energy": -0.04816,
				"method": "rhf"
			},
			{
				"type": "unocc",
				"energy": -0.00013,
				"method": "rhf"
			},
			{
				"type": "unocc",
				"energy": 0.05841,
				"method": "rhf"
			},
			{
				"type": "unocc",
				"energy": 0.06096,
				"method": "rhf"
			},
			{
				"type": "unocc",
				"energy": 0.07935,
				"method": "rhf"
			}
		],
		"cosmo_sigma_profile": { 
			"-0.025": 0.0,
			"-0.024": 0.0,
			"-0.023": 0.0,
			"-0.022": 0.0,
			"-0.021": 0.0,
			"-0.02": 0.0,
			"-0.019": 0.173785764049,
			"-0.018": 0.676587989111,
			"-0.017": 1.12639046321,
			"-0.016": 0.492550681049,
			"-0.015": 0.707118435167,
			"-0.014": 1.37245532633,
			"-0.013": 1.8994440913,
			"-0.012": 3.05932974387,
			"-0.011": 2.40031576581,
			"-0.01": 2.92768909773,
			"-0.009": 2.98396233683,
			"-0.008": 3.71511066144,
			"-0.007": 4.71579273385,
			"-0.006": 3.89499321903,
			"-0.005": 4.95249054629,
			"-0.004": 4.04214212451,
			"-0.003": 4.12146950836,
			"-0.002": 9.28457698049,
			"-0.001": 14.1202216785,
			"0.0": 16.9520328171,
			"0.001": 19.3273946477,
			"0.002": 19.2728981944,
			"0.003": 18.9083007882,
			"0.004": 18.8624202111,
			"0.005": 4.20134153853,
			"0.006": 2.2289840598,
			"0.007": 1.4554234767,
			"0.008": 2.10243745813,
			"0.009": 2.2306083258,
			"0.01": 2.45663697521,
			"0.011": 3.36981425446,
			"0.012": 4.2617657512,
			"0.013": 0.132418002759,
			"0.014": 0.0,
			"0.015": 0.0,
			"0.016": 0.0,
			"0.017": 0.0,
			"0.018": 0.0,
			"0.019": 0.0,
			"0.02": 0.0,
			"0.021": 0.0,
			"0.022": 0.0,
			"0.023": 0.0,
			"0.024": 0.0,
			"0.025": 0.0
		}
	}
}
