{
	 "smiles": "NC1=CC2=CC=CC=C2C=N1", 
	 "Tm": 428.15, 
	 "num_atms": 19, 
	 "gaussian": { 
		 "optdone": 1, 
		 "sigma_profile": "yes", 
		 "theory": "DFT", 
		 "functional": "B3LYP", 
		 "basiset": "6-31G**", 
		 "properties": { 
			 "R2extent": 1880.1166, 
			 "electric_dipole_moment_norm": 1.61117063652, 
			 "electric_quadrupole_moment_norm": 12.2600346003, 
			 "total_energy": -457.297103267, 
			 "HOMO_LUMO_gap": 0.15305, 
			 "cosmo_polarized_energy": -9.45, 
			 "cosmo_cavitation_energy": 22.73, 
			 "cosmo_dispersion_energy": -17.29, 
			 "cosmo_repulsion_energy": 1.37, 
			 "cosmo_total_nonelectrostatic_energy": 6.81, 
			 "SMD_solvation_energy": 2.27 
		},
		"coords": [
			{
				"x": -3.0240611698,
				"y": -1.3420702688,
				"z": -2.641794763,
				"element": "N" 
			},
			{
				"x": -2.0771172468,
				"y": -1.0813994472,
				"z": -1.6665119078,
				"element": "C" 
			},
			{
				"x": -1.8739153705,
				"y": 0.1885367211,
				"z": -1.1403689048,
				"element": "C" 
			},
			{
				"x": -0.8529145452,
				"y": 0.3883325654,
				"z": -0.1864195701,
				"element": "C" 
			},
			{
				"x": -0.5643718494,
				"y": 1.6475219315,
				"z": 0.4124633109,
				"element": "C" 
			},
			{
				"x": 0.4492550042,
				"y": 1.7647570866,
				"z": 1.3361247873,
				"element": "C" 
			},
			{
				"x": 1.2291452344,
				"y": 0.6407626026,
				"z": 1.7149009719,
				"element": "C" 
			},
			{
				"x": 0.974248087,
				"y": -0.5898634367,
				"z": 1.1538836158,
				"element": "C" 
			},
			{
				"x": -0.0631176023,
				"y": -0.7413234256,
				"z": 0.1984806961,
				"element": "C" 
			},
			{
				"x": -0.3757631335,
				"y": -1.9832637311,
				"z": -0.4115472592,
				"element": "C" 
			},
			{
				"x": -1.3311720091,
				"y": -2.1640145565,
				"z": -1.2981057696,
				"element": "N" 
			},
			{
				"x": -3.8197247708,
				"y": -0.7231578851,
				"z": -2.6864295081,
				"element": "H" 
			},
			{
				"x": -3.2451074952,
				"y": -2.3229690878,
				"z": -2.7402395735,
				"element": "H" 
			},
			{
				"x": -2.4880873628,
				"y": 1.0252699368,
				"z": -1.4621467752,
				"element": "H" 
			},
			{
				"x": -1.1552492223,
				"y": 2.514431413,
				"z": 0.1287147805,
				"element": "H" 
			},
			{
				"x": 0.6589697733,
				"y": 2.7320162218,
				"z": 1.784731268,
				"element": "H" 
			},
			{
				"x": 2.0232862186,
				"y": 0.7586441017,
				"z": 2.4458159783,
				"element": "H" 
			},
			{
				"x": 1.5627120173,
				"y": -1.4604710739,
				"z": 1.4334851441,
				"element": "H" 
			},
			{
				"x": 0.2020854429,
				"y": -2.8671396677,
				"z": -0.1370365215,
				"element": "H" 
			}
		],
		 "valence_orbital": [ 
			{
				"type": "occ",
				"energy": -0.30689,
				"method": "rhf"
			},
			{
				"type": "occ",
				"energy": -0.27726,
				"method": "rhf"
			},
			{
				"type": "occ",
				"energy": -0.25588,
				"method": "rhf"
			},
			{
				"type": "occ",
				"energy": -0.2448,
				"method": "rhf"
			},
			{
				"type": "occ",
				"energy": -0.19605,
				"method": "rhf"
			},
			{
				"type": "unocc",
				"energy": -0.043,
				"method": "rhf"
			},
			{
				"type": "unocc",
				"energy": -0.00321,
				"method": "rhf"
			},
			{
				"type": "unocc",
				"energy": 0.03359,
				"method": "rhf"
			},
			{
				"type": "unocc",
				"energy": 0.08671,
				"method": "rhf"
			},
			{
				"type": "unocc",
				"energy": 0.1017,
				"method": "rhf"
			}
		],
		"cosmo_sigma_profile": { 
			"-0.025": 0.0,
			"-0.024": 0.0,
			"-0.023": 0.0,
			"-0.022": 0.0,
			"-0.021": 0.0,
			"-0.02": 0.0,
			"-0.019": 0.0,
			"-0.018": 0.0,
			"-0.017": 0.0,
			"-0.016": 0.0,
			"-0.015": 0.0,
			"-0.014": 0.0,
			"-0.013": 0.881163251201,
			"-0.012": 1.91936848441,
			"-0.011": 2.5723708966,
			"-0.01": 2.76039960998,
			"-0.009": 2.26190907348,
			"-0.008": 2.07369659726,
			"-0.007": 3.6459158449,
			"-0.006": 12.5794824286,
			"-0.005": 13.3359528015,
			"-0.004": 12.3569395288,
			"-0.003": 11.4805718268,
			"-0.002": 9.44104435812,
			"-0.001": 8.42524356243,
			"0.0": 6.93743060314,
			"0.001": 9.21050284423,
			"0.002": 15.187571183,
			"0.003": 16.1202608152,
			"0.004": 18.9641622639,
			"0.005": 13.0640230287,
			"0.006": 3.72869245184,
			"0.007": 2.66977505565,
			"0.008": 2.28817545375,
			"0.009": 1.8177820836,
			"0.01": 1.65039214234,
			"0.011": 1.57122093513,
			"0.012": 1.75311054091,
			"0.013": 1.42847361309,
			"0.014": 0.738974124796,
			"0.015": 0.810421590655,
			"0.016": 0.169100612008,
			"0.017": 0.0,
			"0.018": 0.0,
			"0.019": 0.0,
			"0.02": 0.0,
			"0.021": 0.0,
			"0.022": 0.0,
			"0.023": 0.0,
			"0.024": 0.0,
			"0.025": 0.0
		}
	}
}
