{
	 "smiles": "COCC(=O)C1=CC(F)=C(F)C=C1", 
	 "Tm": 313.15, 
	 "num_atms": 21, 
	 "gaussian": { 
		 "optdone": 1, 
		 "sigma_profile": "yes", 
		 "theory": "DFT", 
		 "functional": "B3LYP", 
		 "basiset": "6-31G**", 
		 "properties": { 
			 "R2extent": 3943.456, 
			 "electric_dipole_moment_norm": 2.0787435965, 
			 "electric_quadrupole_moment_norm": 15.9390848012, 
			 "total_energy": -697.86140313, 
			 "HOMO_LUMO_gap": 0.1927, 
			 "cosmo_polarized_energy": -12.27, 
			 "cosmo_cavitation_energy": 26.89, 
			 "cosmo_dispersion_energy": -19.28, 
			 "cosmo_repulsion_energy": 1.49, 
			 "cosmo_total_nonelectrostatic_energy": 9.1, 
			 "SMD_solvation_energy": 6.81 
		},
		"coords": [
			{
				"x": 3.159531983,
				"y": -1.8458747822,
				"z": -0.3603787838,
				"element": "C" 
			},
			{
				"x": 1.8840960277,
				"y": -1.5625021027,
				"z": 0.1765928043,
				"element": "O" 
			},
			{
				"x": 1.3134101534,
				"y": -0.4126418016,
				"z": -0.3744018348,
				"element": "C" 
			},
			{
				"x": -0.0601557704,
				"y": -0.1682904223,
				"z": 0.2508088706,
				"element": "C" 
			},
			{
				"x": -0.5107458205,
				"y": -0.9171751334,
				"z": 1.0966528607,
				"element": "O" 
			},
			{
				"x": -0.8342397604,
				"y": 1.0294404461,
				"z": -0.2159880378,
				"element": "C" 
			},
			{
				"x": -0.3506739429,
				"y": 1.9186955078,
				"z": -1.1904826313,
				"element": "C" 
			},
			{
				"x": -1.1230056528,
				"y": 3.004176714,
				"z": -1.5712986789,
				"element": "C" 
			},
			{
				"x": -0.6770760064,
				"y": 3.8648890604,
				"z": -2.5014516034,
				"element": "F" 
			},
			{
				"x": -2.3757839583,
				"y": 3.2203321572,
				"z": -0.9948084051,
				"element": "C" 
			},
			{
				"x": -3.0956428921,
				"y": 4.2804364535,
				"z": -1.3869895583,
				"element": "F" 
			},
			{
				"x": -2.8664197715,
				"y": 2.3485195431,
				"z": -0.0297124435,
				"element": "C" 
			},
			{
				"x": -2.0945238638,
				"y": 1.2565274085,
				"z": 0.3563431135,
				"element": "C" 
			},
			{
				"x": 3.1180907078,
				"y": -2.0200659193,
				"z": -1.447410753,
				"element": "H" 
			},
			{
				"x": 3.8759841226,
				"y": -1.031137793,
				"z": -0.1690884421,
				"element": "H" 
			},
			{
				"x": 3.5175358928,
				"y": -2.7537297561,
				"z": 0.1296915237,
				"element": "H" 
			},
			{
				"x": 1.9447519516,
				"y": 0.479356929,
				"z": -0.2027665021,
				"element": "H" 
			},
			{
				"x": 1.1933478938,
				"y": -0.5010870634,
				"z": -1.4705191386,
				"element": "H" 
			},
			{
				"x": 0.6150834964,
				"y": 1.7932403238,
				"z": -1.6667033278,
				"element": "H" 
			},
			{
				"x": -3.8430679378,
				"y": 2.5406241565,
				"z": 0.4014023287,
				"element": "H" 
			},
			{
				"x": -2.4490968522,
				"y": 0.5585660741,
				"z": 1.1063086388,
				"element": "H" 
			}
		],
		 "valence_orbital": [ 
			{
				"type": "occ",
				"energy": -0.33009,
				"method": "rhf"
			},
			{
				"type": "occ",
				"energy": -0.27955,
				"method": "rhf"
			},
			{
				"type": "occ",
				"energy": -0.26669,
				"method": "rhf"
			},
			{
				"type": "occ",
				"energy": -0.25817,
				"method": "rhf"
			},
			{
				"type": "occ",
				"energy": -0.25782,
				"method": "rhf"
			},
			{
				"type": "unocc",
				"energy": -0.06512,
				"method": "rhf"
			},
			{
				"type": "unocc",
				"energy": -0.024,
				"method": "rhf"
			},
			{
				"type": "unocc",
				"energy": 0.03333,
				"method": "rhf"
			},
			{
				"type": "unocc",
				"energy": 0.06065,
				"method": "rhf"
			},
			{
				"type": "unocc",
				"energy": 0.07776,
				"method": "rhf"
			}
		],
		"cosmo_sigma_profile": { 
			"-0.025": 0.0,
			"-0.024": 0.0,
			"-0.023": 0.0,
			"-0.022": 0.0,
			"-0.021": 0.0,
			"-0.02": 0.0,
			"-0.019": 0.0,
			"-0.018": 0.0,
			"-0.017": 0.0,
			"-0.016": 0.0,
			"-0.015": 0.0,
			"-0.014": 0.0,
			"-0.013": 0.0,
			"-0.012": 0.0,
			"-0.011": 0.0,
			"-0.01": 0.159345836875,
			"-0.009": 2.72406631076,
			"-0.008": 5.13200236969,
			"-0.007": 8.20366445302,
			"-0.006": 11.2981789412,
			"-0.005": 12.7120761367,
			"-0.004": 16.783288382,
			"-0.003": 16.2096219764,
			"-0.002": 19.4885530977,
			"-0.001": 17.1596071079,
			"0.0": 17.3558087602,
			"0.001": 15.89643215,
			"0.002": 12.9099417925,
			"0.003": 20.6869170294,
			"0.004": 9.98974505137,
			"0.005": 3.01848498982,
			"0.006": 1.54279645324,
			"0.007": 2.33014719227,
			"0.008": 2.38331376826,
			"0.009": 2.31749593711,
			"0.01": 3.46755743644,
			"0.011": 3.66525277204,
			"0.012": 2.89134439827,
			"0.013": 2.00902869501,
			"0.014": 1.90242374196,
			"0.015": 1.18526384101,
			"0.016": 1.26727606103,
			"0.017": 0.150298337715,
			"0.018": 0.0,
			"0.019": 0.0,
			"0.02": 0.0,
			"0.021": 0.0,
			"0.022": 0.0,
			"0.023": 0.0,
			"0.024": 0.0,
			"0.025": 0.0
		}
	}
}
