{
	 "smiles": "NNC(=O)C1=CC(Br)=CC=C1", 
	 "Tm": 430.15, 
	 "num_atms": 18, 
	 "gaussian": { 
		 "optdone": 1, 
		 "sigma_profile": "yes", 
		 "theory": "DFT", 
		 "functional": "B3LYP", 
		 "basiset": "6-31G**", 
		 "properties": { 
			 "R2extent": 3447.1768, 
			 "electric_dipole_moment_norm": 0.992413971083, 
			 "electric_quadrupole_moment_norm": 8.5366996843, 
			 "total_energy": -3027.07743565, 
			 "HOMO_LUMO_gap": 0.20074, 
			 "cosmo_polarized_energy": -11.81, 
			 "cosmo_cavitation_energy": 24.99, 
			 "cosmo_dispersion_energy": -18.87, 
			 "cosmo_repulsion_energy": 1.53, 
			 "cosmo_total_nonelectrostatic_energy": 7.65, 
			 "SMD_solvation_energy": 4.2 
		},
		"coords": [
			{
				"x": -2.7313861813,
				"y": -2.459619732,
				"z": 0.7398419257,
				"element": "N" 
			},
			{
				"x": -1.7968753407,
				"y": -1.4889673679,
				"z": 0.3127563688,
				"element": "N" 
			},
			{
				"x": -1.5928982768,
				"y": -0.3600885576,
				"z": 1.0711510093,
				"element": "C" 
			},
			{
				"x": -2.2935557676,
				"y": -0.1052364159,
				"z": 2.0461209198,
				"element": "O" 
			},
			{
				"x": -0.462515238,
				"y": 0.5290019021,
				"z": 0.6394529701,
				"element": "C" 
			},
			{
				"x": 0.046319167,
				"y": 0.522745891,
				"z": -0.6667706073,
				"element": "C" 
			},
			{
				"x": 1.094706381,
				"y": 1.3794998164,
				"z": -0.9930911416,
				"element": "C" 
			},
			{
				"x": 1.7822466153,
				"y": 1.37597464,
				"z": -2.7771548946,
				"element": "Br" 
			},
			{
				"x": 1.6448925779,
				"y": 2.245547385,
				"z": -0.0494062527,
				"element": "C" 
			},
			{
				"x": 1.1214053851,
				"y": 2.2551802189,
				"z": 1.2456153645,
				"element": "C" 
			},
			{
				"x": 0.0707736076,
				"y": 1.4083326388,
				"z": 1.5897890664,
				"element": "C" 
			},
			{
				"x": -3.6412944293,
				"y": -2.184429303,
				"z": 0.3711286107,
				"element": "H" 
			},
			{
				"x": -2.8095642416,
				"y": -2.3552223787,
				"z": 1.7533116201,
				"element": "H" 
			},
			{
				"x": -1.0195393208,
				"y": -1.8759178428,
				"z": -0.2038601807,
				"element": "H" 
			},
			{
				"x": -0.384437598,
				"y": -0.1125848572,
				"z": -1.4320786641,
				"element": "H" 
			},
			{
				"x": 2.4604959173,
				"y": 2.9042453397,
				"z": -0.3251400797,
				"element": "H" 
			},
			{
				"x": 1.5394778007,
				"y": 2.9320066113,
				"z": 1.9846396044,
				"element": "H" 
			},
			{
				"x": -0.3561510578,
				"y": 1.4112320117,
				"z": 2.5864943606,
				"element": "H" 
			}
		],
		 "valence_orbital": [ 
			{
				"type": "occ",
				"energy": -0.29568,
				"method": "rhf"
			},
			{
				"type": "occ",
				"energy": -0.27673,
				"method": "rhf"
			},
			{
				"type": "occ",
				"energy": -0.26706,
				"method": "rhf"
			},
			{
				"type": "occ",
				"energy": -0.25784,
				"method": "rhf"
			},
			{
				"type": "occ",
				"energy": -0.25186,
				"method": "rhf"
			},
			{
				"type": "unocc",
				"energy": -0.05112,
				"method": "rhf"
			},
			{
				"type": "unocc",
				"energy": -0.02548,
				"method": "rhf"
			},
			{
				"type": "unocc",
				"energy": -0.00167,
				"method": "rhf"
			},
			{
				"type": "unocc",
				"energy": 0.0432,
				"method": "rhf"
			},
			{
				"type": "unocc",
				"energy": 0.08767,
				"method": "rhf"
			}
		],
		"cosmo_sigma_profile": { 
			"-0.025": 0.0,
			"-0.024": 0.0,
			"-0.023": 0.0,
			"-0.022": 0.0,
			"-0.021": 0.0,
			"-0.02": 0.0,
			"-0.019": 0.0,
			"-0.018": 0.0,
			"-0.017": 0.0,
			"-0.016": 0.0,
			"-0.015": 0.246194206794,
			"-0.014": 1.06744744279,
			"-0.013": 1.23456471847,
			"-0.012": 1.52750574664,
			"-0.011": 2.80766783358,
			"-0.01": 3.61899439147,
			"-0.009": 4.113814983,
			"-0.008": 3.91264923009,
			"-0.007": 7.37368227294,
			"-0.006": 9.211148737,
			"-0.005": 10.2951348262,
			"-0.004": 10.3186324757,
			"-0.003": 9.74438929397,
			"-0.002": 10.47822787,
			"-0.001": 11.9233908652,
			"0.0": 14.5793472234,
			"0.001": 17.7068936376,
			"0.002": 23.0434770831,
			"0.003": 16.558548211,
			"0.004": 14.2484026836,
			"0.005": 4.98800376206,
			"0.006": 2.10784913249,
			"0.007": 2.28277331849,
			"0.008": 2.68016315016,
			"0.009": 1.47332495748,
			"0.01": 2.3688850472,
			"0.011": 1.86540529691,
			"0.012": 3.5500856903,
			"0.013": 5.02252181706,
			"0.014": 1.09310889679,
			"0.015": 0.637218613065,
			"0.016": 0.499416459576,
			"0.017": 0.224970111807,
			"0.018": 0.0,
			"0.019": 0.0,
			"0.02": 0.0,
			"0.021": 0.0,
			"0.022": 0.0,
			"0.023": 0.0,
			"0.024": 0.0,
			"0.025": 0.0
		}
	}
}
