{
	 "smiles": "COC1=CC=CC2=C1C=CN2C", 
	 "Tm": 363.15, 
	 "num_atms": 23, 
	 "gaussian": { 
		 "optdone": 1, 
		 "sigma_profile": "yes", 
		 "theory": "DFT", 
		 "functional": "B3LYP", 
		 "basiset": "6-31G**", 
		 "properties": { 
			 "R2extent": 2179.7382, 
			 "electric_dipole_moment_norm": 3.03884905022, 
			 "electric_quadrupole_moment_norm": 9.70137978228, 
			 "total_energy": -517.652446531, 
			 "HOMO_LUMO_gap": 0.19049, 
			 "cosmo_polarized_energy": -8.74, 
			 "cosmo_cavitation_energy": 26.16, 
			 "cosmo_dispersion_energy": -19.07, 
			 "cosmo_repulsion_energy": 1.5, 
			 "cosmo_total_nonelectrostatic_energy": 8.59, 
			 "SMD_solvation_energy": 5.36 
		},
		"coords": [
			{
				"x": -1.8713900195,
				"y": 2.3572378616,
				"z": -1.4477051264,
				"element": "C" 
			},
			{
				"x": -2.4451638971,
				"y": 1.2296300657,
				"z": -0.7905843539,
				"element": "O" 
			},
			{
				"x": -1.696083374,
				"y": 0.7386633364,
				"z": 0.2607756891,
				"element": "C" 
			},
			{
				"x": -2.0760954806,
				"y": 1.0133569924,
				"z": 1.568403018,
				"element": "C" 
			},
			{
				"x": -1.3494969788,
				"y": 0.4918405465,
				"z": 2.6579334,
				"element": "C" 
			},
			{
				"x": -0.2268744813,
				"y": -0.3049252058,
				"z": 2.4663031574,
				"element": "C" 
			},
			{
				"x": 0.147020315,
				"y": -0.5794526322,
				"z": 1.1436657446,
				"element": "C" 
			},
			{
				"x": -0.5704929487,
				"y": -0.0748686379,
				"z": 0.0234833374,
				"element": "C" 
			},
			{
				"x": 0.0784882577,
				"y": -0.5772437715,
				"z": -1.1534627689,
				"element": "C" 
			},
			{
				"x": 1.1344355935,
				"y": -1.3382427814,
				"z": -0.7252532489,
				"element": "C" 
			},
			{
				"x": 1.1902600495,
				"y": -1.3464215541,
				"z": 0.6584440125,
				"element": "N" 
			},
			{
				"x": 2.1567902124,
				"y": -2.0552311824,
				"z": 1.4707483399,
				"element": "C" 
			},
			{
				"x": -1.7881207598,
				"y": 3.2142814653,
				"z": -0.7658048124,
				"element": "H" 
			},
			{
				"x": -0.8758763834,
				"y": 2.1316002042,
				"z": -1.8504208746,
				"element": "H" 
			},
			{
				"x": -2.5426814528,
				"y": 2.6153511818,
				"z": -2.2700047598,
				"element": "H" 
			},
			{
				"x": -2.9517699542,
				"y": 1.6328183413,
				"z": 1.7338678026,
				"element": "H" 
			},
			{
				"x": -1.6747044705,
				"y": 0.722486441,
				"z": 3.6681779273,
				"element": "H" 
			},
			{
				"x": 0.329305934,
				"y": -0.7019348295,
				"z": 3.3097030889,
				"element": "H" 
			},
			{
				"x": -0.2120824206,
				"y": -0.4106290746,
				"z": -2.1799251019,
				"element": "H" 
			},
			{
				"x": 1.8672399729,
				"y": -1.8919942357,
				"z": -1.2959837511,
				"element": "H" 
			},
			{
				"x": 2.8630284294,
				"y": -2.5704277608,
				"z": 0.8172026198,
				"element": "H" 
			},
			{
				"x": 1.6669620581,
				"y": -2.7999887218,
				"z": 2.1085945783,
				"element": "H" 
			},
			{
				"x": 2.7171017988,
				"y": -1.3638060482,
				"z": 2.1103420823,
				"element": "H" 
			}
		],
		 "valence_orbital": [ 
			{
				"type": "occ",
				"energy": -0.31109,
				"method": "rhf"
			},
			{
				"type": "occ",
				"energy": -0.26755,
				"method": "rhf"
			},
			{
				"type": "occ",
				"energy": -0.25181,
				"method": "rhf"
			},
			{
				"type": "occ",
				"energy": -0.21518,
				"method": "rhf"
			},
			{
				"type": "occ",
				"energy": -0.19208,
				"method": "rhf"
			},
			{
				"type": "unocc",
				"energy": -0.00159,
				"method": "rhf"
			},
			{
				"type": "unocc",
				"energy": 0.0318,
				"method": "rhf"
			},
			{
				"type": "unocc",
				"energy": 0.07347,
				"method": "rhf"
			},
			{
				"type": "unocc",
				"energy": 0.08883,
				"method": "rhf"
			},
			{
				"type": "unocc",
				"energy": 0.11104,
				"method": "rhf"
			}
		],
		"cosmo_sigma_profile": { 
			"-0.025": 0.0,
			"-0.024": 0.0,
			"-0.023": 0.0,
			"-0.022": 0.0,
			"-0.021": 0.0,
			"-0.02": 0.0,
			"-0.019": 0.0,
			"-0.018": 0.0,
			"-0.017": 0.0,
			"-0.016": 0.0,
			"-0.015": 0.0,
			"-0.014": 0.0,
			"-0.013": 0.0,
			"-0.012": 0.0,
			"-0.011": 0.0,
			"-0.01": 0.0,
			"-0.009": 0.0480398528137,
			"-0.008": 2.62078944595,
			"-0.007": 3.58008797553,
			"-0.006": 6.43924547124,
			"-0.005": 18.5976583085,
			"-0.004": 22.020881579,
			"-0.003": 25.1813039785,
			"-0.002": 22.5521713683,
			"-0.001": 13.1634461995,
			"0.0": 11.4230015621,
			"0.001": 8.53127707318,
			"0.002": 8.90443391125,
			"0.003": 8.07949312153,
			"0.004": 11.2872508734,
			"0.005": 13.901663023,
			"0.006": 14.7591633043,
			"0.007": 9.2945367438,
			"0.008": 1.71488928805,
			"0.009": 0.834979964945,
			"0.01": 1.04348907501,
			"0.011": 1.8715037001,
			"0.012": 1.55820008083,
			"0.013": 0.638405945204,
			"0.014": 0.0,
			"0.015": 0.0,
			"0.016": 0.0,
			"0.017": 0.0,
			"0.018": 0.0,
			"0.019": 0.0,
			"0.02": 0.0,
			"0.021": 0.0,
			"0.022": 0.0,
			"0.023": 0.0,
			"0.024": 0.0,
			"0.025": 0.0
		}
	}
}
