{
	 "smiles": "CC1=CC=C(C=C1)S(=O)(=O)NC1=CC=C(Cl)C=C1", 
	 "Tm": 393.15, 
	 "num_atms": 30, 
	 "gaussian": { 
		 "optdone": 1, 
		 "sigma_profile": "yes", 
		 "theory": "DFT", 
		 "functional": "B3LYP", 
		 "basiset": "6-31G**", 
		 "properties": { 
			 "R2extent": 6437.3666, 
			 "electric_dipole_moment_norm": 5.29817531703, 
			 "electric_quadrupole_moment_norm": 19.765183325, 
			 "total_energy": -1566.13413804, 
			 "HOMO_LUMO_gap": 0.18856, 
			 "cosmo_polarized_energy": -15.85, 
			 "cosmo_cavitation_energy": 37.53, 
			 "cosmo_dispersion_energy": -26.64, 
			 "cosmo_repulsion_energy": 2.04, 
			 "cosmo_total_nonelectrostatic_energy": 12.92, 
			 "SMD_solvation_energy": 5.26 
		},
		"coords": [
			{
				"x": 0.3404270148,
				"y": 1.641026128,
				"z": -4.9664348115,
				"element": "C" 
			},
			{
				"x": 0.6502424992,
				"y": 1.6266199882,
				"z": -3.4892091193,
				"element": "C" 
			},
			{
				"x": -0.3320483503,
				"y": 1.9668925963,
				"z": -2.5475527422,
				"element": "C" 
			},
			{
				"x": -0.0648120721,
				"y": 1.9344635825,
				"z": -1.1807140984,
				"element": "C" 
			},
			{
				"x": 1.2072765078,
				"y": 1.5523658543,
				"z": -0.7474941775,
				"element": "C" 
			},
			{
				"x": 2.2080429297,
				"y": 1.2168794201,
				"z": -1.6623511122,
				"element": "C" 
			},
			{
				"x": 1.9219914929,
				"y": 1.2594376304,
				"z": -3.0251080093,
				"element": "C" 
			},
			{
				"x": 1.5619833461,
				"y": 1.4710469555,
				"z": 1.0066331675,
				"element": "S" 
			},
			{
				"x": 0.6721489699,
				"y": 2.4114479185,
				"z": 1.6861741795,
				"element": "O" 
			},
			{
				"x": 3.0141145567,
				"y": 1.4884796024,
				"z": 1.1816657731,
				"element": "O" 
			},
			{
				"x": 1.1166521767,
				"y": -0.0921932926,
				"z": 1.5216609462,
				"element": "N" 
			},
			{
				"x": -0.2073581594,
				"y": -0.5970540546,
				"z": 1.431661464,
				"element": "C" 
			},
			{
				"x": -1.2758372745,
				"y": 0.0791543154,
				"z": 2.0389203471,
				"element": "C" 
			},
			{
				"x": -2.5635385716,
				"y": -0.4476952746,
				"z": 1.9707023702,
				"element": "C" 
			},
			{
				"x": -2.7815812104,
				"y": -1.6646148329,
				"z": 1.3242796695,
				"element": "C" 
			},
			{
				"x": -4.4048520786,
				"y": -2.3352431587,
				"z": 1.2578789311,
				"element": "Cl" 
			},
			{
				"x": -1.7264284642,
				"y": -2.3583321905,
				"z": 0.7345027536,
				"element": "C" 
			},
			{
				"x": -0.4445406923,
				"y": -1.8137957935,
				"z": 0.7781372914,
				"element": "C" 
			},
			{
				"x": 1.2395317024,
				"y": 1.8196526317,
				"z": -5.5628069629,
				"element": "H" 
			},
			{
				"x": -0.0792665347,
				"y": 0.6793332127,
				"z": -5.2869814229,
				"element": "H" 
			},
			{
				"x": -0.3932220522,
				"y": 2.4136484179,
				"z": -5.2139144594,
				"element": "H" 
			},
			{
				"x": -1.3178633895,
				"y": 2.2708995132,
				"z": -2.8891476177,
				"element": "H" 
			},
			{
				"x": -0.820600572,
				"y": 2.221376169,
				"z": -0.4585945454,
				"element": "H" 
			},
			{
				"x": 3.1987910324,
				"y": 0.954958516,
				"z": -1.3066533359,
				"element": "H" 
			},
			{
				"x": 2.7017657484,
				"y": 1.0127719929,
				"z": -3.7407491484,
				"element": "H" 
			},
			{
				"x": 1.8462315386,
				"y": -0.748899184,
				"z": 1.263091379,
				"element": "H" 
			},
			{
				"x": -1.0894036712,
				"y": 1.0098093341,
				"z": 2.5606229231,
				"element": "H" 
			},
			{
				"x": -3.3917084958,
				"y": 0.0747465577,
				"z": 2.4366164492,
				"element": "H" 
			},
			{
				"x": -1.9056101331,
				"y": -3.3042475472,
				"z": 0.2357623482,
				"element": "H" 
			},
			{
				"x": 0.3775722065,
				"y": -2.3414350084,
				"z": 0.3017015704,
				"element": "H" 
			}
		],
		 "valence_orbital": [ 
			{
				"type": "occ",
				"energy": -0.30678,
				"method": "rhf"
			},
			{
				"type": "occ",
				"energy": -0.2741,
				"method": "rhf"
			},
			{
				"type": "occ",
				"energy": -0.27176,
				"method": "rhf"
			},
			{
				"type": "occ",
				"energy": -0.26661,
				"method": "rhf"
			},
			{
				"type": "occ",
				"energy": -0.23347,
				"method": "rhf"
			},
			{
				"type": "unocc",
				"energy": -0.04491,
				"method": "rhf"
			},
			{
				"type": "unocc",
				"energy": -0.02636,
				"method": "rhf"
			},
			{
				"type": "unocc",
				"energy": -0.02248,
				"method": "rhf"
			},
			{
				"type": "unocc",
				"energy": -0.01704,
				"method": "rhf"
			},
			{
				"type": "unocc",
				"energy": 0.02508,
				"method": "rhf"
			}
		],
		"cosmo_sigma_profile": { 
			"-0.025": 0.0,
			"-0.024": 0.0,
			"-0.023": 0.0,
			"-0.022": 0.0,
			"-0.021": 0.0,
			"-0.02": 0.0,
			"-0.019": 0.0,
			"-0.018": 0.0,
			"-0.017": 0.0,
			"-0.016": 0.492215839029,
			"-0.015": 1.25527338122,
			"-0.014": 1.02884091184,
			"-0.013": 1.31504000795,
			"-0.012": 1.49457207969,
			"-0.011": 1.31683647114,
			"-0.01": 1.37531969712,
			"-0.009": 1.29666888312,
			"-0.008": 2.71530418832,
			"-0.007": 8.98774225295,
			"-0.006": 16.0079022811,
			"-0.005": 20.243549441,
			"-0.004": 17.7528686784,
			"-0.003": 17.8035526168,
			"-0.002": 20.3534053118,
			"-0.001": 24.3958339741,
			"0.0": 21.2049195693,
			"0.001": 22.0078230959,
			"0.002": 29.1369955915,
			"0.003": 33.9003521337,
			"0.004": 16.5314115212,
			"0.005": 10.6859308535,
			"0.006": 3.50008864587,
			"0.007": 4.7461362751,
			"0.008": 3.82808010412,
			"0.009": 3.73632579744,
			"0.01": 7.03811772608,
			"0.011": 7.4865343567,
			"0.012": 0.974653925888,
			"0.013": 0.0,
			"0.014": 0.0,
			"0.015": 0.0,
			"0.016": 0.0,
			"0.017": 0.0,
			"0.018": 0.0,
			"0.019": 0.0,
			"0.02": 0.0,
			"0.021": 0.0,
			"0.022": 0.0,
			"0.023": 0.0,
			"0.024": 0.0,
			"0.025": 0.0
		}
	}
}
