{
	 "smiles": "COC1=CC2=C(C=NC=C2CC2=CC=CC=C2)C=C1O", 
	 "Tm": 480.15, 
	 "num_atms": 35, 
	 "gaussian": { 
		 "optdone": 1, 
		 "sigma_profile": "yes", 
		 "theory": "DFT", 
		 "functional": "B3LYP", 
		 "basiset": "6-31G**", 
		 "properties": { 
			 "R2extent": 5980.0883, 
			 "electric_dipole_moment_norm": 2.87595497531, 
			 "electric_quadrupole_moment_norm": 15.9303201763, 
			 "total_energy": -862.037179676, 
			 "HOMO_LUMO_gap": 0.17051, 
			 "cosmo_polarized_energy": -15.23, 
			 "cosmo_cavitation_energy": 38.55, 
			 "cosmo_dispersion_energy": -26.81, 
			 "cosmo_repulsion_energy": 2.05, 
			 "cosmo_total_nonelectrostatic_energy": 13.79, 
			 "SMD_solvation_energy": 5.69 
		},
		"coords": [
			{
				"x": 3.3965582999,
				"y": -0.4117247606,
				"z": 2.835542223,
				"element": "C" 
			},
			{
				"x": 2.225921178,
				"y": -1.1920069686,
				"z": 2.5652563871,
				"element": "O" 
			},
			{
				"x": 1.7693591588,
				"y": -1.1804786702,
				"z": 1.2757646234,
				"element": "C" 
			},
			{
				"x": 0.5258864455,
				"y": -0.6507086506,
				"z": 1.0122122858,
				"element": "C" 
			},
			{
				"x": -0.0300452846,
				"y": -0.6771845454,
				"z": -0.2943224993,
				"element": "C" 
			},
			{
				"x": 0.7452987396,
				"y": -1.2551888455,
				"z": -1.3446307332,
				"element": "C" 
			},
			{
				"x": 0.1919597147,
				"y": -1.2696124745,
				"z": -2.6528954348,
				"element": "C" 
			},
			{
				"x": -0.9943211998,
				"y": -0.7880270158,
				"z": -2.9575507038,
				"element": "N" 
			},
			{
				"x": -1.7253541735,
				"y": -0.2479001714,
				"z": -1.947027168,
				"element": "C" 
			},
			{
				"x": -1.3191478319,
				"y": -0.1585408496,
				"z": -0.6288263957,
				"element": "C" 
			},
			{
				"x": -2.233969591,
				"y": 0.4560632153,
				"z": 0.409638295,
				"element": "C" 
			},
			{
				"x": -1.7896463393,
				"y": 1.8047606295,
				"z": 0.9648680818,
				"element": "C" 
			},
			{
				"x": -1.9178516875,
				"y": 2.0840813717,
				"z": 2.3314545581,
				"element": "C" 
			},
			{
				"x": -1.5572695486,
				"y": 3.330943566,
				"z": 2.8465149017,
				"element": "C" 
			},
			{
				"x": -1.0599634233,
				"y": 4.3206275639,
				"z": 1.9980696191,
				"element": "C" 
			},
			{
				"x": -0.9269066645,
				"y": 4.0529776934,
				"z": 0.6336740241,
				"element": "C" 
			},
			{
				"x": -1.2879510488,
				"y": 2.8062392468,
				"z": 0.1226166901,
				"element": "C" 
			},
			{
				"x": 2.0235617886,
				"y": -1.7986228982,
				"z": -1.0597954307,
				"element": "C" 
			},
			{
				"x": 2.5314138021,
				"y": -1.7771367923,
				"z": 0.2195306093,
				"element": "C" 
			},
			{
				"x": 3.7397982004,
				"y": -2.3126891718,
				"z": 0.5621543721,
				"element": "O" 
			},
			{
				"x": 4.262857268,
				"y": -0.7773549874,
				"z": 2.2778411059,
				"element": "H" 
			},
			{
				"x": 3.5820707364,
				"y": -0.5121995437,
				"z": 3.9064766258,
				"element": "H" 
			},
			{
				"x": 3.2205738261,
				"y": 0.644628554,
				"z": 2.5966049691,
				"element": "H" 
			},
			{
				"x": -0.0125689167,
				"y": -0.2029906049,
				"z": 1.8388517552,
				"element": "H" 
			},
			{
				"x": 0.7723808159,
				"y": -1.7050238611,
				"z": -3.4678421211,
				"element": "H" 
			},
			{
				"x": -2.705976665,
				"y": 0.1298598264,
				"z": -2.2328743229,
				"element": "H" 
			},
			{
				"x": -2.366557371,
				"y": -0.2417511418,
				"z": 1.2455472265,
				"element": "H" 
			},
			{
				"x": -3.2274789186,
				"y": 0.5717251105,
				"z": -0.0425983348,
				"element": "H" 
			},
			{
				"x": -2.3063031322,
				"y": 1.3181371987,
				"z": 2.9991310395,
				"element": "H" 
			},
			{
				"x": -1.6630145407,
				"y": 3.5260291376,
				"z": 3.9101446621,
				"element": "H" 
			},
			{
				"x": -0.7768185353,
				"y": 5.2910439342,
				"z": 2.3956313149,
				"element": "H" 
			},
			{
				"x": -0.5394998249,
				"y": 4.816696545,
				"z": -0.0351539104,
				"element": "H" 
			},
			{
				"x": -1.1751093955,
				"y": 2.6038327521,
				"z": -0.9388716334,
				"element": "H" 
			},
			{
				"x": 2.5988881944,
				"y": -2.2500872236,
				"z": -1.8664757539,
				"element": "H" 
			},
			{
				"x": 4.1459259242,
				"y": -2.6977171682,
				"z": -0.2256609278,
				"element": "H" 
			}
		],
		 "valence_orbital": [ 
			{
				"type": "occ",
				"energy": -0.24826,
				"method": "rhf"
			},
			{
				"type": "occ",
				"energy": -0.24743,
				"method": "rhf"
			},
			{
				"type": "occ",
				"energy": -0.23965,
				"method": "rhf"
			},
			{
				"type": "occ",
				"energy": -0.23372,
				"method": "rhf"
			},
			{
				"type": "occ",
				"energy": -0.21635,
				"method": "rhf"
			},
			{
				"type": "unocc",
				"energy": -0.04584,
				"method": "rhf"
			},
			{
				"type": "unocc",
				"energy": -0.01337,
				"method": "rhf"
			},
			{
				"type": "unocc",
				"energy": -0.00084,
				"method": "rhf"
			},
			{
				"type": "unocc",
				"energy": 0.00212,
				"method": "rhf"
			},
			{
				"type": "unocc",
				"energy": 0.02936,
				"method": "rhf"
			}
		],
		"cosmo_sigma_profile": { 
			"-0.025": 0.0,
			"-0.024": 0.0,
			"-0.023": 0.0,
			"-0.022": 0.0,
			"-0.021": 0.0,
			"-0.02": 0.0,
			"-0.019": 0.0,
			"-0.018": 1.19820227087,
			"-0.017": 0.946368349547,
			"-0.016": 1.15272491389,
			"-0.015": 1.45287172096,
			"-0.014": 0.878015028951,
			"-0.013": 0.716822732334,
			"-0.012": 0.912631706214,
			"-0.011": 0.891458623865,
			"-0.01": 1.37986201699,
			"-0.009": 1.00777857318,
			"-0.008": 1.66366587342,
			"-0.007": 3.24219147594,
			"-0.006": 10.8218577308,
			"-0.005": 24.7013278972,
			"-0.004": 23.4169329519,
			"-0.003": 30.0180079185,
			"-0.002": 23.1876657721,
			"-0.001": 20.7690091008,
			"0.0": 16.4998673675,
			"0.001": 19.5832080862,
			"0.002": 30.0999489812,
			"0.003": 24.7507591153,
			"0.004": 17.6875496122,
			"0.005": 13.3638165295,
			"0.006": 12.0085579319,
			"0.007": 4.53076293193,
			"0.008": 4.31234746496,
			"0.009": 4.6500007544,
			"0.01": 3.54692150137,
			"0.011": 2.5074226345,
			"0.012": 1.22414021956,
			"0.013": 0.849100678215,
			"0.014": 1.32087748429,
			"0.015": 0.781702804469,
			"0.016": 0.833292748801,
			"0.017": 0.689559445417,
			"0.018": 0.0313299187854,
			"0.019": 0.0,
			"0.02": 0.0,
			"0.021": 0.0,
			"0.022": 0.0,
			"0.023": 0.0,
			"0.024": 0.0,
			"0.025": 0.0
		}
	}
}
