{
	 "smiles": "NCC1=CC(Br)=CN1", 
	 "Tm": 379.15, 
	 "num_atms": 15, 
	 "gaussian": { 
		 "optdone": 1, 
		 "sigma_profile": "yes", 
		 "theory": "DFT", 
		 "functional": "B3LYP", 
		 "basiset": "6-31G**", 
		 "properties": { 
			 "R2extent": 3574.6575, 
			 "electric_dipole_moment_norm": 2.74124397491, 
			 "electric_quadrupole_moment_norm": 14.5513894532, 
			 "total_energy": -2875.6376594, 
			 "HOMO_LUMO_gap": 0.23, 
			 "cosmo_polarized_energy": -12.19, 
			 "cosmo_cavitation_energy": 21.27, 
			 "cosmo_dispersion_energy": -16.12, 
			 "cosmo_repulsion_energy": 1.38, 
			 "cosmo_total_nonelectrostatic_energy": 6.53, 
			 "SMD_solvation_energy": 1.3 
		},
		"coords": [
			{
				"x": -0.5961598035,
				"y": -0.684497969,
				"z": 2.2937645614,
				"element": "N" 
			},
			{
				"x": 0.1955385951,
				"y": -0.5622263247,
				"z": 1.0563680657,
				"element": "C" 
			},
			{
				"x": -0.5569271273,
				"y": -0.2091370179,
				"z": -0.1966268552,
				"element": "C" 
			},
			{
				"x": -1.1195276332,
				"y": -1.0161119674,
				"z": -1.1689222501,
				"element": "C" 
			},
			{
				"x": -1.7855899022,
				"y": -0.1603805573,
				"z": -2.0862412503,
				"element": "C" 
			},
			{
				"x": -2.7336583076,
				"y": -0.7017855669,
				"z": -3.6302134931,
				"element": "Br" 
			},
			{
				"x": -1.6241394921,
				"y": 1.1418970036,
				"z": -1.6706602461,
				"element": "C" 
			},
			{
				"x": -0.8780979153,
				"y": 1.0945800691,
				"z": -0.5157598375,
				"element": "N" 
			},
			{
				"x": -1.0948363042,
				"y": 0.1864932156,
				"z": 2.4658219503,
				"element": "H" 
			},
			{
				"x": -1.3203984783,
				"y": -1.3860791747,
				"z": 2.1518276177,
				"element": "H" 
			},
			{
				"x": 0.7093792822,
				"y": -1.5150223817,
				"z": 0.895182549,
				"element": "H" 
			},
			{
				"x": 0.9823656424,
				"y": 0.1813649997,
				"z": 1.2394561456,
				"element": "H" 
			},
			{
				"x": -1.0608803515,
				"y": -2.0935265316,
				"z": -1.2198174492,
				"element": "H" 
			},
			{
				"x": -1.9663067306,
				"y": 2.0689692428,
				"z": -2.1022294129,
				"element": "H" 
			},
			{
				"x": -0.5657614738,
				"y": 1.9044629604,
				"z": -0.0028500952,
				"element": "H" 
			}
		],
		 "valence_orbital": [ 
			{
				"type": "occ",
				"energy": -0.31203,
				"method": "rhf"
			},
			{
				"type": "occ",
				"energy": -0.27768,
				"method": "rhf"
			},
			{
				"type": "occ",
				"energy": -0.25296,
				"method": "rhf"
			},
			{
				"type": "occ",
				"energy": -0.23689,
				"method": "rhf"
			},
			{
				"type": "occ",
				"energy": -0.20867,
				"method": "rhf"
			},
			{
				"type": "unocc",
				"energy": 0.02133,
				"method": "rhf"
			},
			{
				"type": "unocc",
				"energy": 0.02599,
				"method": "rhf"
			},
			{
				"type": "unocc",
				"energy": 0.06376,
				"method": "rhf"
			},
			{
				"type": "unocc",
				"energy": 0.07495,
				"method": "rhf"
			},
			{
				"type": "unocc",
				"energy": 0.10202,
				"method": "rhf"
			}
		],
		"cosmo_sigma_profile": { 
			"-0.025": 0.0,
			"-0.024": 0.0,
			"-0.023": 0.0,
			"-0.022": 0.0,
			"-0.021": 0.0,
			"-0.02": 0.0,
			"-0.019": 0.0,
			"-0.018": 0.0,
			"-0.017": 0.0,
			"-0.016": 0.664132200171,
			"-0.015": 1.48190007278,
			"-0.014": 1.31898987583,
			"-0.013": 1.33910447918,
			"-0.012": 1.25348676965,
			"-0.011": 1.66407083678,
			"-0.01": 2.4836868974,
			"-0.009": 4.47500609386,
			"-0.008": 5.89759422028,
			"-0.007": 5.86726118284,
			"-0.006": 6.17086698101,
			"-0.005": 7.78478078449,
			"-0.004": 10.2830095753,
			"-0.003": 10.6534572396,
			"-0.002": 8.47048316824,
			"-0.001": 9.16861470307,
			"0.0": 7.77803450763,
			"0.001": 7.40927806368,
			"0.002": 8.84856037178,
			"0.003": 9.17411700804,
			"0.004": 13.5855821318,
			"0.005": 21.4475935284,
			"0.006": 11.0911648028,
			"0.007": 4.35678197805,
			"0.008": 0.907831741663,
			"0.009": 1.08211068969,
			"0.01": 0.861160335614,
			"0.011": 0.490768326403,
			"0.012": 0.652345149403,
			"0.013": 0.722189136204,
			"0.014": 0.790068238565,
			"0.015": 0.389362299886,
			"0.016": 0.551573897416,
			"0.017": 1.03422394063,
			"0.018": 0.550774575002,
			"0.019": 0.599191721897,
			"0.02": 0.247148666928,
			"0.021": 0.0,
			"0.022": 0.0,
			"0.023": 0.0,
			"0.024": 0.0,
			"0.025": 0.0
		}
	}
}
