{
	 "smiles": "NCCCCCCCCCCC(O)=O", 
	 "Tm": 464.15, 
	 "num_atms": 37, 
	 "gaussian": { 
		 "optdone": 1, 
		 "sigma_profile": "yes", 
		 "theory": "DFT", 
		 "functional": "B3LYP", 
		 "basiset": "6-31G**", 
		 "properties": { 
			 "R2extent": 6541.3219, 
			 "electric_dipole_moment_norm": 5.56990909262, 
			 "electric_quadrupole_moment_norm": 29.5208844153, 
			 "total_energy": -638.256058455, 
			 "HOMO_LUMO_gap": 0.24635, 
			 "cosmo_polarized_energy": -16.55, 
			 "cosmo_cavitation_energy": 37.75, 
			 "cosmo_dispersion_energy": -26.21, 
			 "cosmo_repulsion_energy": 2.18, 
			 "cosmo_total_nonelectrostatic_energy": 13.72, 
			 "SMD_solvation_energy": 5.75 
		},
		"coords": [
			{
				"x": 2.7848872386,
				"y": 1.965826481,
				"z": 3.0839128712,
				"element": "N" 
			},
			{
				"x": 1.5968639292,
				"y": 2.3554679358,
				"z": 3.8542098375,
				"element": "C" 
			},
			{
				"x": 0.4695520159,
				"y": 1.3176701433,
				"z": 3.7684422063,
				"element": "C" 
			},
			{
				"x": -0.1695029447,
				"y": 1.1186205522,
				"z": 2.381330329,
				"element": "C" 
			},
			{
				"x": 0.6367078259,
				"y": 0.2557717006,
				"z": 1.3995895397,
				"element": "C" 
			},
			{
				"x": -0.0634638237,
				"y": 0.0688489753,
				"z": 0.0475062121,
				"element": "C" 
			},
			{
				"x": 0.7220354652,
				"y": -0.8320772832,
				"z": -0.9188638245,
				"element": "C" 
			},
			{
				"x": 0.0561547743,
				"y": -1.0857715836,
				"z": -2.28966977,
				"element": "C" 
			},
			{
				"x": 0.4287570477,
				"y": -0.1089275367,
				"z": -3.4221021288,
				"element": "C" 
			},
			{
				"x": 0.0266827983,
				"y": 1.3661887117,
				"z": -3.2501868824,
				"element": "C" 
			},
			{
				"x": -1.4839391017,
				"y": 1.619014506,
				"z": -3.1750325292,
				"element": "C" 
			},
			{
				"x": -2.2081227167,
				"y": 1.382487348,
				"z": -4.4962846637,
				"element": "C" 
			},
			{
				"x": -3.5687139609,
				"y": 1.4190924296,
				"z": -4.4258746777,
				"element": "O" 
			},
			{
				"x": -1.6696407707,
				"y": 1.1989337512,
				"z": -5.559276778,
				"element": "O" 
			},
			{
				"x": 3.1958567935,
				"y": 1.1282167988,
				"z": 3.4914295001,
				"element": "H" 
			},
			{
				"x": 3.4946431812,
				"y": 2.6914495532,
				"z": 3.1508135573,
				"element": "H" 
			},
			{
				"x": 1.8098283054,
				"y": 2.542004593,
				"z": 4.9226184613,
				"element": "H" 
			},
			{
				"x": 1.2342155491,
				"y": 3.3066756375,
				"z": 3.4426963038,
				"element": "H" 
			},
			{
				"x": 0.8366733219,
				"y": 0.3519201038,
				"z": 4.1474786798,
				"element": "H" 
			},
			{
				"x": -0.309236697,
				"y": 1.6351919095,
				"z": 4.4740643419,
				"element": "H" 
			},
			{
				"x": -1.1587341868,
				"y": 0.6596745411,
				"z": 2.5198289245,
				"element": "H" 
			},
			{
				"x": -0.3567284288,
				"y": 2.1047468043,
				"z": 1.9318338206,
				"element": "H" 
			},
			{
				"x": 1.6231599768,
				"y": 0.7080140187,
				"z": 1.2545793291,
				"element": "H" 
			},
			{
				"x": 0.8107282198,
				"y": -0.7318122887,
				"z": 1.8529393675,
				"element": "H" 
			},
			{
				"x": -0.2343012294,
				"y": 1.0550622838,
				"z": -0.4036014386,
				"element": "H" 
			},
			{
				"x": -1.0610240073,
				"y": -0.3675303954,
				"z": 0.2079892297,
				"element": "H" 
			},
			{
				"x": 0.8778740126,
				"y": -1.7975163635,
				"z": -0.4192086875,
				"element": "H" 
			},
			{
				"x": 1.7270327167,
				"y": -0.414099013,
				"z": -1.0730152476,
				"element": "H" 
			},
			{
				"x": 0.3402298597,
				"y": -2.0874323589,
				"z": -2.6353573318,
				"element": "H" 
			},
			{
				"x": -1.0350091524,
				"y": -1.127766263,
				"z": -2.1615761336,
				"element": "H" 
			},
			{
				"x": -0.004727513,
				"y": -0.4730196904,
				"z": -4.3602891395,
				"element": "H" 
			},
			{
				"x": 1.5177738198,
				"y": -0.1442714835,
				"z": -3.5589732278,
				"element": "H" 
			},
			{
				"x": 0.4950607647,
				"y": 1.7844396353,
				"z": -2.3525840922,
				"element": "H" 
			},
			{
				"x": 0.4191071073,
				"y": 1.9319319508,
				"z": -4.1017631041,
				"element": "H" 
			},
			{
				"x": -1.6780951896,
				"y": 2.6624340058,
				"z": -2.8878856736,
				"element": "H" 
			},
			{
				"x": -1.9522470172,
				"y": 1.0022320183,
				"z": -2.3967601338,
				"element": "H" 
			},
			{
				"x": -3.8490379834,
				"y": 1.5710078716,
				"z": -3.5121570472,
				"element": "H" 
			}
		],
		 "valence_orbital": [ 
			{
				"type": "occ",
				"energy": -0.31145,
				"method": "rhf"
			},
			{
				"type": "occ",
				"energy": -0.30357,
				"method": "rhf"
			},
			{
				"type": "occ",
				"energy": -0.29548,
				"method": "rhf"
			},
			{
				"type": "occ",
				"energy": -0.26647,
				"method": "rhf"
			},
			{
				"type": "occ",
				"energy": -0.23252,
				"method": "rhf"
			},
			{
				"type": "unocc",
				"energy": 0.01383,
				"method": "rhf"
			},
			{
				"type": "unocc",
				"energy": 0.05615,
				"method": "rhf"
			},
			{
				"type": "unocc",
				"energy": 0.07685,
				"method": "rhf"
			},
			{
				"type": "unocc",
				"energy": 0.08413,
				"method": "rhf"
			},
			{
				"type": "unocc",
				"energy": 0.10628,
				"method": "rhf"
			}
		],
		"cosmo_sigma_profile": { 
			"-0.025": 0.0,
			"-0.024": 0.0,
			"-0.023": 0.0,
			"-0.022": 0.0,
			"-0.021": 0.0,
			"-0.02": 0.0,
			"-0.019": 0.228623015906,
			"-0.018": 0.965139942889,
			"-0.017": 1.15213111576,
			"-0.016": 1.12557711247,
			"-0.015": 1.35403574008,
			"-0.014": 0.703096794678,
			"-0.013": 0.760953314579,
			"-0.012": 0.933731596711,
			"-0.011": 1.31995461618,
			"-0.01": 1.89219428562,
			"-0.009": 3.02463746053,
			"-0.008": 3.78696850323,
			"-0.007": 6.02447963993,
			"-0.006": 7.14351233692,
			"-0.005": 6.19630639317,
			"-0.004": 7.16546700327,
			"-0.003": 13.3056269023,
			"-0.002": 30.4648924069,
			"-0.001": 50.9935299058,
			"0.0": 49.7640101937,
			"0.001": 34.8142106443,
			"0.002": 14.7628451514,
			"0.003": 5.75551177509,
			"0.004": 3.30689234478,
			"0.005": 3.84436680841,
			"0.006": 4.41697003952,
			"0.007": 3.86879278937,
			"0.008": 3.12982194123,
			"0.009": 4.57032402162,
			"0.01": 4.63676615943,
			"0.011": 6.43170089201,
			"0.012": 6.26650657794,
			"0.013": 3.27180205091,
			"0.014": 0.990645951556,
			"0.015": 0.74519207994,
			"0.016": 0.382471196751,
			"0.017": 0.0,
			"0.018": 0.0,
			"0.019": 0.0,
			"0.02": 0.0,
			"0.021": 0.0,
			"0.022": 0.0,
			"0.023": 0.0,
			"0.024": 0.0,
			"0.025": 0.0
		}
	}
}
