{
	 "smiles": "FC(F)(F)COC(=O)NC1=CC(=CC=C1)C1=NN=CO1", 
	 "Tm": 444.15, 
	 "num_atms": 28, 
	 "gaussian": { 
		 "optdone": 1, 
		 "sigma_profile": "yes", 
		 "theory": "DFT", 
		 "functional": "B3LYP", 
		 "basiset": "6-31G**", 
		 "properties": { 
			 "R2extent": 6693.0622, 
			 "electric_dipole_moment_norm": 4.87643607669, 
			 "electric_quadrupole_moment_norm": 9.50649481723, 
			 "total_energy": -1113.42859059, 
			 "HOMO_LUMO_gap": 0.18015, 
			 "cosmo_polarized_energy": -18.79, 
			 "cosmo_cavitation_energy": 36.01, 
			 "cosmo_dispersion_energy": -24.69, 
			 "cosmo_repulsion_energy": 1.81, 
			 "cosmo_total_nonelectrostatic_energy": 13.12, 
			 "SMD_solvation_energy": 7.61 
		},
		"coords": [
			{
				"x": -3.4264584901,
				"y": 4.1835065549,
				"z": -0.2729136146,
				"element": "F" 
			},
			{
				"x": -2.586650007,
				"y": 3.217564582,
				"z": 0.152614045,
				"element": "C" 
			},
			{
				"x": -1.9907308915,
				"y": 3.6417345643,
				"z": 1.2829949008,
				"element": "F" 
			},
			{
				"x": -1.6298544504,
				"y": 3.0515694317,
				"z": -0.7782888642,
				"element": "F" 
			},
			{
				"x": -3.3672949593,
				"y": 1.9347975303,
				"z": 0.3855590532,
				"element": "C" 
			},
			{
				"x": -2.4640850565,
				"y": 0.9095780935,
				"z": 0.788075605,
				"element": "O" 
			},
			{
				"x": -2.441389281,
				"y": 0.614590888,
				"z": 2.1172365885,
				"element": "C" 
			},
			{
				"x": -3.2294112441,
				"y": 1.0414508983,
				"z": 2.936244724,
				"element": "O" 
			},
			{
				"x": -1.4332376086,
				"y": -0.2608047717,
				"z": 2.436782849,
				"element": "N" 
			},
			{
				"x": -0.4051828224,
				"y": -0.8652958635,
				"z": 1.6807995283,
				"element": "C" 
			},
			{
				"x": 0.0277970881,
				"y": -0.4041415685,
				"z": 0.4335644706,
				"element": "C" 
			},
			{
				"x": 1.0742396739,
				"y": -1.0692111221,
				"z": -0.2231330137,
				"element": "C" 
			},
			{
				"x": 1.7057096217,
				"y": -2.1763176356,
				"z": 0.3589248669,
				"element": "C" 
			},
			{
				"x": 1.2772234263,
				"y": -2.6173565848,
				"z": 1.6087969024,
				"element": "C" 
			},
			{
				"x": 0.2313647217,
				"y": -1.9755688323,
				"z": 2.2639011222,
				"element": "C" 
			},
			{
				"x": 1.4937297628,
				"y": -0.5732210974,
				"z": -1.5310679045,
				"element": "C" 
			},
			{
				"x": 0.9948930456,
				"y": 0.4053747614,
				"z": -2.2287100719,
				"element": "N" 
			},
			{
				"x": 1.7430373109,
				"y": 0.481293756,
				"z": -3.4042117633,
				"element": "N" 
			},
			{
				"x": 2.6277506913,
				"y": -0.4556926699,
				"z": -3.3215539395,
				"element": "C" 
			},
			{
				"x": 2.5446763856,
				"y": -1.1732846186,
				"z": -2.1711565262,
				"element": "O" 
			},
			{
				"x": -3.8238622948,
				"y": 1.6216931577,
				"z": -0.5547705857,
				"element": "H" 
			},
			{
				"x": -4.1266165181,
				"y": 2.1030299727,
				"z": 1.1504041331,
				"element": "H" 
			},
			{
				"x": -1.4899200479,
				"y": -0.5355586642,
				"z": 3.4074111804,
				"element": "H" 
			},
			{
				"x": -0.4247992953,
				"y": 0.4566225061,
				"z": -0.0362236071,
				"element": "H" 
			},
			{
				"x": 2.5145759172,
				"y": -2.6783035877,
				"z": -0.1591604873,
				"element": "H" 
			},
			{
				"x": 1.7559616083,
				"y": -3.4724386448,
				"z": 2.0757610867,
				"element": "H" 
			},
			{
				"x": -0.1024036998,
				"y": -2.3357128531,
				"z": 3.2337687687,
				"element": "H" 
			},
			{
				"x": 3.3945374135,
				"y": -0.7234981827,
				"z": -4.0319494468,
				"element": "H" 
			}
		],
		 "valence_orbital": [ 
			{
				"type": "occ",
				"energy": -0.30492,
				"method": "rhf"
			},
			{
				"type": "occ",
				"energy": -0.29828,
				"method": "rhf"
			},
			{
				"type": "occ",
				"energy": -0.28183,
				"method": "rhf"
			},
			{
				"type": "occ",
				"energy": -0.25376,
				"method": "rhf"
			},
			{
				"type": "occ",
				"energy": -0.23782,
				"method": "rhf"
			},
			{
				"type": "unocc",
				"energy": -0.05767,
				"method": "rhf"
			},
			{
				"type": "unocc",
				"energy": -0.02352,
				"method": "rhf"
			},
			{
				"type": "unocc",
				"energy": 0.00542,
				"method": "rhf"
			},
			{
				"type": "unocc",
				"energy": 0.03682,
				"method": "rhf"
			},
			{
				"type": "unocc",
				"energy": 0.05945,
				"method": "rhf"
			}
		],
		"cosmo_sigma_profile": { 
			"-0.025": 0.0,
			"-0.024": 0.0,
			"-0.023": 0.0,
			"-0.022": 0.0,
			"-0.021": 0.0,
			"-0.02": 0.0,
			"-0.019": 0.0,
			"-0.018": 0.0,
			"-0.017": 0.0,
			"-0.016": 0.619029763625,
			"-0.015": 1.13693036373,
			"-0.014": 1.23865518315,
			"-0.013": 1.37544963911,
			"-0.012": 3.62001603223,
			"-0.011": 2.99122755086,
			"-0.01": 4.04842104254,
			"-0.009": 5.48699007537,
			"-0.008": 6.4034410921,
			"-0.007": 9.38260381051,
			"-0.006": 11.8698430548,
			"-0.005": 11.8956540704,
			"-0.004": 13.4477850327,
			"-0.003": 14.7737343823,
			"-0.002": 17.853149967,
			"-0.001": 17.394648041,
			"0.0": 22.0931365704,
			"0.001": 22.0949234172,
			"0.002": 38.8224272776,
			"0.003": 32.0268727066,
			"0.004": 9.47861199276,
			"0.005": 5.19923261579,
			"0.006": 3.69811287658,
			"0.007": 3.06181234994,
			"0.008": 4.36927585742,
			"0.009": 4.44898442283,
			"0.01": 5.00796761285,
			"0.011": 7.30185194628,
			"0.012": 6.24904159825,
			"0.013": 1.34945150325,
			"0.014": 1.19433936799,
			"0.015": 0.405437253829,
			"0.016": 0.0,
			"0.017": 0.0,
			"0.018": 0.0,
			"0.019": 0.0,
			"0.02": 0.0,
			"0.021": 0.0,
			"0.022": 0.0,
			"0.023": 0.0,
			"0.024": 0.0,
			"0.025": 0.0
		}
	}
}
