{
	 "smiles": "CCOC(=O)C=C(/N)C(F)(F)F", 
	 "Tm": 298.15, 
	 "num_atms": 20, 
	 "gaussian": { 
		 "optdone": 1, 
		 "sigma_profile": "yes", 
		 "theory": "DFT", 
		 "functional": "B3LYP", 
		 "basiset": "6-31G**", 
		 "properties": { 
			 "R2extent": 5094.0247, 
			 "electric_dipole_moment_norm": 1.20976194766, 
			 "electric_quadrupole_moment_norm": 10.2901178395, 
			 "total_energy": -738.196403941, 
			 "HOMO_LUMO_gap": 0.19237, 
			 "cosmo_polarized_energy": -7.27, 
			 "cosmo_cavitation_energy": 25.66, 
			 "cosmo_dispersion_energy": -18.51, 
			 "cosmo_repulsion_energy": 1.45, 
			 "cosmo_total_nonelectrostatic_energy": 8.61, 
			 "SMD_solvation_energy": 6.76 
		},
		"coords": [
			{
				"x": 2.8024651744,
				"y": 0.513754392,
				"z": -0.2471103969,
				"element": "C" 
			},
			{
				"x": 2.5281800759,
				"y": 0.8036201194,
				"z": -1.7157550644,
				"element": "C" 
			},
			{
				"x": 1.2778315846,
				"y": 1.5072832293,
				"z": -1.8906552197,
				"element": "O" 
			},
			{
				"x": 0.1590398829,
				"y": 0.7503934698,
				"z": -1.9656972129,
				"element": "C" 
			},
			{
				"x": 0.178787706,
				"y": -0.4798405239,
				"z": -1.8958886888,
				"element": "O" 
			},
			{
				"x": -1.0350793716,
				"y": 1.5626597406,
				"z": -2.1308792558,
				"element": "C" 
			},
			{
				"x": -2.2666748399,
				"y": 0.9865168817,
				"z": -2.2137155799,
				"element": "C" 
			},
			{
				"x": -2.5237617125,
				"y": -0.3433912601,
				"z": -2.226384785,
				"element": "N" 
			},
			{
				"x": -3.4946191992,
				"y": 1.85599693,
				"z": -2.407915345,
				"element": "C" 
			},
			{
				"x": -4.5366673533,
				"y": 1.3685199623,
				"z": -1.688098814,
				"element": "F" 
			},
			{
				"x": -3.291607368,
				"y": 3.1259593438,
				"z": -2.0283048504,
				"element": "F" 
			},
			{
				"x": -3.8813359148,
				"y": 1.866549499,
				"z": -3.6988343276,
				"element": "F" 
			},
			{
				"x": 2.0562641116,
				"y": -0.1769630136,
				"z": 0.1528885897,
				"element": "H" 
			},
			{
				"x": 3.7905371946,
				"y": 0.0543601143,
				"z": -0.1365847227,
				"element": "H" 
			},
			{
				"x": 2.7843111351,
				"y": 1.4356574587,
				"z": 0.3416461747,
				"element": "H" 
			},
			{
				"x": 2.5014408679,
				"y": -0.119328858,
				"z": -2.2999557045,
				"element": "H" 
			},
			{
				"x": 3.2788672605,
				"y": 1.477386794,
				"z": -2.1361927168,
				"element": "H" 
			},
			{
				"x": -0.9346932625,
				"y": 2.6371293733,
				"z": -2.1743109556,
				"element": "H" 
			},
			{
				"x": -3.4565061477,
				"y": -0.6632068232,
				"z": -2.0200009281,
				"element": "H" 
			},
			{
				"x": -1.7228798239,
				"y": -0.9440568294,
				"z": -2.0519501963,
				"element": "H" 
			}
		],
		 "valence_orbital": [ 
			{
				"type": "occ",
				"energy": -0.35866,
				"method": "rhf"
			},
			{
				"type": "occ",
				"energy": -0.33706,
				"method": "rhf"
			},
			{
				"type": "occ",
				"energy": -0.29482,
				"method": "rhf"
			},
			{
				"type": "occ",
				"energy": -0.27474,
				"method": "rhf"
			},
			{
				"type": "occ",
				"energy": -0.233,
				"method": "rhf"
			},
			{
				"type": "unocc",
				"energy": -0.04063,
				"method": "rhf"
			},
			{
				"type": "unocc",
				"energy": 0.08404,
				"method": "rhf"
			},
			{
				"type": "unocc",
				"energy": 0.08741,
				"method": "rhf"
			},
			{
				"type": "unocc",
				"energy": 0.11199,
				"method": "rhf"
			},
			{
				"type": "unocc",
				"energy": 0.12795,
				"method": "rhf"
			}
		],
		"cosmo_sigma_profile": { 
			"-0.025": 0.0,
			"-0.024": 0.0,
			"-0.023": 0.0,
			"-0.022": 0.0,
			"-0.021": 0.0,
			"-0.02": 0.0,
			"-0.019": 0.0,
			"-0.018": 0.0,
			"-0.017": 0.0,
			"-0.016": 0.0,
			"-0.015": 0.228665202519,
			"-0.014": 1.13801221726,
			"-0.013": 0.756559956719,
			"-0.012": 1.08053839434,
			"-0.011": 1.16634625808,
			"-0.01": 2.36043982799,
			"-0.009": 1.52897595574,
			"-0.008": 1.92426878223,
			"-0.007": 1.76657948163,
			"-0.006": 3.08144899667,
			"-0.005": 6.02813253513,
			"-0.004": 14.102914824,
			"-0.003": 16.3907925808,
			"-0.002": 15.6726562421,
			"-0.001": 16.2568100348,
			"0.0": 21.5618021168,
			"0.001": 22.4479100464,
			"0.002": 37.4674357727,
			"0.003": 13.6676836864,
			"0.004": 4.98109800582,
			"0.005": 2.85818908889,
			"0.006": 2.91259377725,
			"0.007": 3.8617029381,
			"0.008": 2.41239661441,
			"0.009": 2.74669043262,
			"0.01": 1.55081586188,
			"0.011": 1.72202319012,
			"0.012": 1.56790882923,
			"0.013": 0.333063446332,
			"0.014": 0.0,
			"0.015": 0.0,
			"0.016": 0.0,
			"0.017": 0.0,
			"0.018": 0.0,
			"0.019": 0.0,
			"0.02": 0.0,
			"0.021": 0.0,
			"0.022": 0.0,
			"0.023": 0.0,
			"0.024": 0.0,
			"0.025": 0.0
		}
	}
}
