{
	 "smiles": "CCOC(=O)C1=C(Cl)C=C(C)C=C1N1CCCC1", 
	 "Tm": 351.65, 
	 "num_atms": 36, 
	 "gaussian": { 
		 "optdone": 1, 
		 "sigma_profile": "yes", 
		 "theory": "DFT", 
		 "functional": "B3LYP", 
		 "basiset": "6-31G**", 
		 "properties": { 
			 "R2extent": 5644.7138, 
			 "electric_dipole_moment_norm": 3.05703033351, 
			 "electric_quadrupole_moment_norm": 11.3453884927, 
			 "total_energy": -1209.74112769, 
			 "HOMO_LUMO_gap": 0.19271, 
			 "cosmo_polarized_energy": -9.1, 
			 "cosmo_cavitation_energy": 39.48, 
			 "cosmo_dispersion_energy": -26.92, 
			 "cosmo_repulsion_energy": 2.12, 
			 "cosmo_total_nonelectrostatic_energy": 14.68, 
			 "SMD_solvation_energy": 5.85 
		},
		"coords": [
			{
				"x": 0.8987541472,
				"y": -2.8500217792,
				"z": 2.9180559543,
				"element": "C" 
			},
			{
				"x": 2.1273958636,
				"y": -2.6323025733,
				"z": 2.0482685234,
				"element": "C" 
			},
			{
				"x": 1.9686215965,
				"y": -1.4658923154,
				"z": 1.2017352875,
				"element": "O" 
			},
			{
				"x": 1.3470931052,
				"y": -1.6563448752,
				"z": 0.0246996129,
				"element": "C" 
			},
			{
				"x": 0.9063363152,
				"y": -2.7231741033,
				"z": -0.3514541078,
				"element": "O" 
			},
			{
				"x": 1.2885633289,
				"y": -0.3680221019,
				"z": -0.75251045,
				"element": "C" 
			},
			{
				"x": 2.4200108864,
				"y": 0.1360414045,
				"z": -1.3939243864,
				"element": "C" 
			},
			{
				"x": 3.9142108812,
				"y": -0.7971697031,
				"z": -1.398812058,
				"element": "Cl" 
			},
			{
				"x": 2.4185419589,
				"y": 1.3724767861,
				"z": -2.0374952608,
				"element": "C" 
			},
			{
				"x": 1.2583680832,
				"y": 2.149535954,
				"z": -2.0320336685,
				"element": "C" 
			},
			{
				"x": 1.2459244382,
				"y": 3.5160977895,
				"z": -2.676187236,
				"element": "C" 
			},
			{
				"x": 0.1086544562,
				"y": 1.6448615257,
				"z": -1.4130477455,
				"element": "C" 
			},
			{
				"x": 0.0946333292,
				"y": 0.3914160332,
				"z": -0.7868503409,
				"element": "C" 
			},
			{
				"x": -1.0580416964,
				"y": -0.1257608293,
				"z": -0.1488980671,
				"element": "N" 
			},
			{
				"x": -1.8018735456,
				"y": -1.2048061991,
				"z": -0.8363721581,
				"element": "C" 
			},
			{
				"x": -2.9982431322,
				"y": -1.4586264904,
				"z": 0.101334502,
				"element": "C" 
			},
			{
				"x": -3.145502376,
				"y": -0.1441880798,
				"z": 0.921813922,
				"element": "C" 
			},
			{
				"x": -2.0912725122,
				"y": 0.8003772332,
				"z": 0.3187294252,
				"element": "C" 
			},
			{
				"x": 0.0275535935,
				"y": -3.0799121922,
				"z": 2.30007562,
				"element": "H" 
			},
			{
				"x": 0.6826929164,
				"y": -1.9599575824,
				"z": 3.5160119546,
				"element": "H" 
			},
			{
				"x": 1.0700411815,
				"y": -3.6904138592,
				"z": 3.599123734,
				"element": "H" 
			},
			{
				"x": 2.3261378249,
				"y": -3.5013030312,
				"z": 1.4169366846,
				"element": "H" 
			},
			{
				"x": 3.0116834381,
				"y": -2.4092368901,
				"z": 2.6495712237,
				"element": "H" 
			},
			{
				"x": 3.3214059832,
				"y": 1.7246407973,
				"z": -2.5242222769,
				"element": "H" 
			},
			{
				"x": 2.0268833352,
				"y": 3.607702974,
				"z": -3.4360760392,
				"element": "H" 
			},
			{
				"x": 0.2826556515,
				"y": 3.7246700621,
				"z": -3.1516243653,
				"element": "H" 
			},
			{
				"x": 1.4181660417,
				"y": 4.302381666,
				"z": -1.9308279903,
				"element": "H" 
			},
			{
				"x": -0.797762963,
				"y": 2.2404289542,
				"z": -1.4282968681,
				"element": "H" 
			},
			{
				"x": -2.1537545579,
				"y": -0.8538725716,
				"z": -1.8228479299,
				"element": "H" 
			},
			{
				"x": -1.166885625,
				"y": -2.0764227484,
				"z": -0.9898831434,
				"element": "H" 
			},
			{
				"x": -3.900495204,
				"y": -1.6976200197,
				"z": -0.4683840611,
				"element": "H" 
			},
			{
				"x": -2.7964071639,
				"y": -2.3051098498,
				"z": 0.7632948227,
				"element": "H" 
			},
			{
				"x": -2.9268708637,
				"y": -0.3265821342,
				"z": 1.9775138402,
				"element": "H" 
			},
			{
				"x": -4.1499072324,
				"y": 0.2840899717,
				"z": 0.8617015058,
				"element": "H" 
			},
			{
				"x": -2.5446177217,
				"y": 1.3761536604,
				"z": -0.5091358211,
				"element": "H" 
			},
			{
				"x": -1.6740937619,
				"y": 1.5136651172,
				"z": 1.0359173613,
				"element": "H" 
			}
		],
		 "valence_orbital": [ 
			{
				"type": "occ",
				"energy": -0.29338,
				"method": "rhf"
			},
			{
				"type": "occ",
				"energy": -0.27666,
				"method": "rhf"
			},
			{
				"type": "occ",
				"energy": -0.26277,
				"method": "rhf"
			},
			{
				"type": "occ",
				"energy": -0.24069,
				"method": "rhf"
			},
			{
				"type": "occ",
				"energy": -0.21059,
				"method": "rhf"
			},
			{
				"type": "unocc",
				"energy": -0.01788,
				"method": "rhf"
			},
			{
				"type": "unocc",
				"energy": -0.00723,
				"method": "rhf"
			},
			{
				"type": "unocc",
				"energy": 0.01361,
				"method": "rhf"
			},
			{
				"type": "unocc",
				"energy": 0.03467,
				"method": "rhf"
			},
			{
				"type": "unocc",
				"energy": 0.08158,
				"method": "rhf"
			}
		],
		"cosmo_sigma_profile": { 
			"-0.025": 0.0,
			"-0.024": 0.0,
			"-0.023": 0.0,
			"-0.022": 0.0,
			"-0.021": 0.0,
			"-0.02": 0.0,
			"-0.019": 0.0,
			"-0.018": 0.0,
			"-0.017": 0.0,
			"-0.016": 0.0,
			"-0.015": 0.0,
			"-0.014": 0.0,
			"-0.013": 0.0,
			"-0.012": 0.0,
			"-0.011": 0.0,
			"-0.01": 0.0,
			"-0.009": 0.0,
			"-0.008": 0.0,
			"-0.007": 0.719159981374,
			"-0.006": 5.63526078367,
			"-0.005": 13.9063390518,
			"-0.004": 23.6553154439,
			"-0.003": 33.6319567113,
			"-0.002": 43.3754252424,
			"-0.001": 40.9946872911,
			"0.0": 34.7060678984,
			"0.001": 24.5402050696,
			"0.002": 19.2093286723,
			"0.003": 23.1244935415,
			"0.004": 18.1663045857,
			"0.005": 8.52180073985,
			"0.006": 5.90825817709,
			"0.007": 4.0268100735,
			"0.008": 3.29154450305,
			"0.009": 2.86081829736,
			"0.01": 1.91390961235,
			"0.011": 3.36622847821,
			"0.012": 0.975784039633,
			"0.013": 0.0,
			"0.014": 0.0,
			"0.015": 0.0,
			"0.016": 0.0,
			"0.017": 0.0,
			"0.018": 0.0,
			"0.019": 0.0,
			"0.02": 0.0,
			"0.021": 0.0,
			"0.022": 0.0,
			"0.023": 0.0,
			"0.024": 0.0,
			"0.025": 0.0
		}
	}
}
