{
	 "smiles": "FC1=CC(F)=C(F)C(=C1F)C1=C(F)C(F)=CC(F)=C1F", 
	 "Tm": 358.15, 
	 "num_atms": 22, 
	 "gaussian": { 
		 "optdone": 1, 
		 "sigma_profile": "yes", 
		 "theory": "DFT", 
		 "functional": "B3LYP", 
		 "basiset": "6-31G**", 
		 "properties": { 
			 "R2extent": 6125.2391, 
			 "electric_dipole_moment_norm": 0.00022360679775, 
			 "electric_quadrupole_moment_norm": 11.555670968, 
			 "total_energy": -1257.11864572, 
			 "HOMO_LUMO_gap": 0.19381, 
			 "cosmo_polarized_energy": -4.86, 
			 "cosmo_cavitation_energy": 31.59, 
			 "cosmo_dispersion_energy": -21.52, 
			 "cosmo_repulsion_energy": 1.48, 
			 "cosmo_total_nonelectrostatic_energy": 11.55, 
			 "SMD_solvation_energy": 8.98 
		},
		"coords": [
			{
				"x": 1.4167066282,
				"y": 0.9938505002,
				"z": -5.2749371923,
				"element": "F" 
			},
			{
				"x": 0.5799054805,
				"y": 1.087941645,
				"z": -4.231586434,
				"element": "C" 
			},
			{
				"x": -0.5750570231,
				"y": 1.8531692291,
				"z": -4.3293828789,
				"element": "C" 
			},
			{
				"x": -1.4149641401,
				"y": 1.9316605811,
				"z": -3.2259943094,
				"element": "C" 
			},
			{
				"x": -2.5411665933,
				"y": 2.6567139507,
				"z": -3.2861654643,
				"element": "F" 
			},
			{
				"x": -1.109690058,
				"y": 1.2563698913,
				"z": -2.0470478412,
				"element": "C" 
			},
			{
				"x": -1.9575377257,
				"y": 1.3426914674,
				"z": -1.0132016163,
				"element": "F" 
			},
			{
				"x": 0.0527518643,
				"y": 0.4847110516,
				"z": -1.9357764572,
				"element": "C" 
			},
			{
				"x": 0.8929531702,
				"y": 0.4154478645,
				"z": -3.0530728882,
				"element": "C" 
			},
			{
				"x": 2.027314838,
				"y": -0.2951472575,
				"z": -2.9947181142,
				"element": "F" 
			},
			{
				"x": 0.3815347952,
				"y": -0.2316355363,
				"z": -0.6823034226,
				"element": "C" 
			},
			{
				"x": 0.4477442058,
				"y": 0.4423348139,
				"z": 0.5426392681,
				"element": "C" 
			},
			{
				"x": 0.2284218369,
				"y": 1.7631331081,
				"z": 0.5927968941,
				"element": "F" 
			},
			{
				"x": 0.7541690433,
				"y": -0.234242742,
				"z": 1.7205498191,
				"element": "C" 
			},
			{
				"x": 0.8084119593,
				"y": 0.4543357273,
				"z": 2.869716171,
				"element": "F" 
			},
			{
				"x": 1.0092794837,
				"y": -1.5994939761,
				"z": 1.7116702177,
				"element": "C" 
			},
			{
				"x": 0.9493516502,
				"y": -2.278308052,
				"z": 0.5014238682,
				"element": "C" 
			},
			{
				"x": 1.184462856,
				"y": -3.5975187859,
				"z": 0.4559708313,
				"element": "F" 
			},
			{
				"x": 0.6375047842,
				"y": -1.6076988621,
				"z": -0.678483231,
				"element": "C" 
			},
			{
				"x": 0.5702101877,
				"y": -2.3044222428,
				"z": -1.8209267428,
				"element": "F" 
			},
			{
				"x": -0.8155226734,
				"y": 2.3773656932,
				"z": -5.2462436611,
				"element": "H" 
			},
			{
				"x": 1.2497154303,
				"y": -2.1234580688,
				"z": 2.628673184,
				"element": "H" 
			}
		],
		 "valence_orbital": [ 
			{
				"type": "occ",
				"energy": -0.3572,
				"method": "rhf"
			},
			{
				"type": "occ",
				"energy": -0.30013,
				"method": "rhf"
			},
			{
				"type": "occ",
				"energy": -0.26605,
				"method": "rhf"
			},
			{
				"type": "occ",
				"energy": -0.25537,
				"method": "rhf"
			},
			{
				"type": "occ",
				"energy": -0.25405,
				"method": "rhf"
			},
			{
				"type": "unocc",
				"energy": -0.06024,
				"method": "rhf"
			},
			{
				"type": "unocc",
				"energy": -0.0175,
				"method": "rhf"
			},
			{
				"type": "unocc",
				"energy": -0.01576,
				"method": "rhf"
			},
			{
				"type": "unocc",
				"energy": -0.01268,
				"method": "rhf"
			},
			{
				"type": "unocc",
				"energy": 0.02831,
				"method": "rhf"
			}
		],
		"cosmo_sigma_profile": { 
			"-0.025": 0.0,
			"-0.024": 0.0,
			"-0.023": 0.0,
			"-0.022": 0.0,
			"-0.021": 0.0,
			"-0.02": 0.0,
			"-0.019": 0.0,
			"-0.018": 0.0,
			"-0.017": 0.0,
			"-0.016": 0.0,
			"-0.015": 0.0,
			"-0.014": 0.0,
			"-0.013": 0.0,
			"-0.012": 0.0,
			"-0.011": 0.344181024584,
			"-0.01": 3.33426300098,
			"-0.009": 2.52999688885,
			"-0.008": 3.16137610046,
			"-0.007": 3.1699308505,
			"-0.006": 2.39381823024,
			"-0.005": 3.2333428017,
			"-0.004": 4.39716029318,
			"-0.003": 24.2957405632,
			"-0.002": 35.7048177654,
			"-0.001": 28.0759946062,
			"0.0": 18.8388336531,
			"0.001": 16.3321214609,
			"0.002": 32.9759236818,
			"0.003": 69.6030282315,
			"0.004": 9.26812046141,
			"0.005": 0.0,
			"0.006": 0.0,
			"0.007": 0.0,
			"0.008": 0.0,
			"0.009": 0.0,
			"0.01": 0.0,
			"0.011": 0.0,
			"0.012": 0.0,
			"0.013": 0.0,
			"0.014": 0.0,
			"0.015": 0.0,
			"0.016": 0.0,
			"0.017": 0.0,
			"0.018": 0.0,
			"0.019": 0.0,
			"0.02": 0.0,
			"0.021": 0.0,
			"0.022": 0.0,
			"0.023": 0.0,
			"0.024": 0.0,
			"0.025": 0.0
		}
	}
}
