{
	 "smiles": "CCOC(=O)NNC(=O)NC1=CC=CC=C1", 
	 "Tm": 417.15, 
	 "num_atms": 29, 
	 "gaussian": { 
		 "optdone": 1, 
		 "sigma_profile": "yes", 
		 "theory": "DFT", 
		 "functional": "B3LYP", 
		 "basiset": "6-31G**", 
		 "properties": { 
			 "R2extent": 5291.5368, 
			 "electric_dipole_moment_norm": 1.36304536608, 
			 "electric_quadrupole_moment_norm": 18.3242303402, 
			 "total_energy": -778.835825678, 
			 "HOMO_LUMO_gap": 0.21308, 
			 "cosmo_polarized_energy": -16.65, 
			 "cosmo_cavitation_energy": 33.58, 
			 "cosmo_dispersion_energy": -23.11, 
			 "cosmo_repulsion_energy": 1.86, 
			 "cosmo_total_nonelectrostatic_energy": 12.34, 
			 "SMD_solvation_energy": 7.96 
		},
		"coords": [
			{
				"x": 2.4668393225,
				"y": 2.6361382703,
				"z": -0.8261504924,
				"element": "C" 
			},
			{
				"x": 1.0540936497,
				"y": 2.0792824907,
				"z": -0.9025480817,
				"element": "C" 
			},
			{
				"x": 0.5118719135,
				"y": 1.8352908855,
				"z": 0.417815536,
				"element": "O" 
			},
			{
				"x": 0.8292648852,
				"y": 0.6458717959,
				"z": 0.9698120143,
				"element": "C" 
			},
			{
				"x": 1.5170066166,
				"y": -0.2191526783,
				"z": 0.4643395637,
				"element": "O" 
			},
			{
				"x": 0.2977844678,
				"y": 0.5310946069,
				"z": 2.2407412421,
				"element": "N" 
			},
			{
				"x": -0.6580531609,
				"y": 1.3908346034,
				"z": 2.7663079117,
				"element": "N" 
			},
			{
				"x": -1.9197756072,
				"y": 1.5431812681,
				"z": 2.1657285205,
				"element": "C" 
			},
			{
				"x": -2.4773631821,
				"y": 2.6278616768,
				"z": 2.151148063,
				"element": "O" 
			},
			{
				"x": -2.4919879093,
				"y": 0.4095456437,
				"z": 1.6134041042,
				"element": "N" 
			},
			{
				"x": -2.3595060418,
				"y": -0.9548083141,
				"z": 1.9729726126,
				"element": "C" 
			},
			{
				"x": -1.9485078743,
				"y": -1.3635683772,
				"z": 3.2511726956,
				"element": "C" 
			},
			{
				"x": -1.8613018162,
				"y": -2.7235860907,
				"z": 3.551654122,
				"element": "C" 
			},
			{
				"x": -2.2064312332,
				"y": -3.6878372374,
				"z": 2.6034935409,
				"element": "C" 
			},
			{
				"x": -2.6376752652,
				"y": -3.2788699149,
				"z": 1.3401290388,
				"element": "C" 
			},
			{
				"x": -2.7064281377,
				"y": -1.9241651523,
				"z": 1.0214959985,
				"element": "C" 
			},
			{
				"x": 2.4949569517,
				"y": 3.5477291663,
				"z": -0.2219321614,
				"element": "H" 
			},
			{
				"x": 2.8241505077,
				"y": 2.8797880637,
				"z": -1.8323007034,
				"element": "H" 
			},
			{
				"x": 3.145114005,
				"y": 1.8982743857,
				"z": -0.3907816137,
				"element": "H" 
			},
			{
				"x": 0.3612444515,
				"y": 2.7971073875,
				"z": -1.3473226608,
				"element": "H" 
			},
			{
				"x": 1.027696731,
				"y": 1.1464139695,
				"z": -1.4704601213,
				"element": "H" 
			},
			{
				"x": 0.358507621,
				"y": -0.3897985302,
				"z": 2.6531252037,
				"element": "H" 
			},
			{
				"x": -0.288124444,
				"y": 2.2991219135,
				"z": 3.0236474576,
				"element": "H" 
			},
			{
				"x": -3.322135732,
				"y": 0.6510385854,
				"z": 1.0886453268,
				"element": "H" 
			},
			{
				"x": -1.714934779,
				"y": -0.6189331525,
				"z": 4.0050175261,
				"element": "H" 
			},
			{
				"x": -1.5382809531,
				"y": -3.0268299048,
				"z": 4.5435033512,
				"element": "H" 
			},
			{
				"x": -2.1428606709,
				"y": -4.7437915735,
				"z": 2.8465643024,
				"element": "H" 
			},
			{
				"x": -2.9105217525,
				"y": -4.0168170174,
				"z": 0.5914209245,
				"element": "H" 
			},
			{
				"x": -3.0195425636,
				"y": -1.6084167695,
				"z": 0.0301567785,
				"element": "H" 
			}
		],
		 "valence_orbital": [ 
			{
				"type": "occ",
				"energy": -0.28624,
				"method": "rhf"
			},
			{
				"type": "occ",
				"energy": -0.27149,
				"method": "rhf"
			},
			{
				"type": "occ",
				"energy": -0.26201,
				"method": "rhf"
			},
			{
				"type": "occ",
				"energy": -0.25398,
				"method": "rhf"
			},
			{
				"type": "occ",
				"energy": -0.2295,
				"method": "rhf"
			},
			{
				"type": "unocc",
				"energy": -0.01642,
				"method": "rhf"
			},
			{
				"type": "unocc",
				"energy": -0.0134,
				"method": "rhf"
			},
			{
				"type": "unocc",
				"energy": 0.03861,
				"method": "rhf"
			},
			{
				"type": "unocc",
				"energy": 0.04834,
				"method": "rhf"
			},
			{
				"type": "unocc",
				"energy": 0.08415,
				"method": "rhf"
			}
		],
		"cosmo_sigma_profile": { 
			"-0.025": 0.0,
			"-0.024": 0.0,
			"-0.023": 0.0,
			"-0.022": 0.0,
			"-0.021": 0.0,
			"-0.02": 0.0,
			"-0.019": 0.0,
			"-0.018": 0.0,
			"-0.017": 0.0,
			"-0.016": 0.0,
			"-0.015": 0.512714829726,
			"-0.014": 1.41765698199,
			"-0.013": 2.20826935626,
			"-0.012": 1.88834941143,
			"-0.011": 2.8850992693,
			"-0.01": 2.31972151862,
			"-0.009": 2.10852880614,
			"-0.008": 3.36468554632,
			"-0.007": 3.26507793713,
			"-0.006": 11.3767737004,
			"-0.005": 18.8761398349,
			"-0.004": 24.8397490097,
			"-0.003": 22.9156276064,
			"-0.002": 20.0232382671,
			"-0.001": 19.0955120471,
			"0.0": 22.1150926246,
			"0.001": 16.5379596522,
			"0.002": 14.236401523,
			"0.003": 13.0159606246,
			"0.004": 12.8772644155,
			"0.005": 11.1292474865,
			"0.006": 4.5521694193,
			"0.007": 4.83535360247,
			"0.008": 2.87455162945,
			"0.009": 2.73422094759,
			"0.01": 1.766895392,
			"0.011": 4.02716798431,
			"0.012": 7.6362859242,
			"0.013": 9.39083987693,
			"0.014": 1.00477064475,
			"0.015": 0.0,
			"0.016": 0.0,
			"0.017": 0.0,
			"0.018": 0.0,
			"0.019": 0.0,
			"0.02": 0.0,
			"0.021": 0.0,
			"0.022": 0.0,
			"0.023": 0.0,
			"0.024": 0.0,
			"0.025": 0.0
		}
	}
}
