{
	 "smiles": "[O-][N+](=O)C1=CC=CC=C1I", 
	 "Tm": 325.15, 
	 "num_atms": 14, 
	 "gaussian": { 
		 "optdone": 1, 
		 "sigma_profile": "no", 
		 "theory": "DFT", 
		 "functional": "B3LYP", 
		 "basiset": "6-31G**", 
		 "properties": { 
			 "R2extent": 1509.5219, 
			 "electric_dipole_moment_norm": 4.3957145062, 
			 "electric_quadrupole_moment_norm": 9.04514650793, 
			 "total_energy": -447.515006389, 
			 "HOMO_LUMO_gap": 0.17889, 
			 "cosmo_polarized_energy": -86647.45, 
			 "cosmo_cavitation_energy": 22.6, 
			 "cosmo_dispersion_energy": -17.45, 
			 "cosmo_repulsion_energy": 1.38, 
			 "cosmo_total_nonelectrostatic_energy": 6.53, 
			 "SMD_solvation_energy": 5.76 
		},
		"coords": [
			{
				"x": 2.5363795485,
				"y": 0.4246631035,
				"z": -1.8637450425,
				"element": "O" 
			},
			{
				"x": 1.9256069411,
				"y": 0.9818956238,
				"z": -0.9584572309,
				"element": "N" 
			},
			{
				"x": 2.3380599743,
				"y": 1.9035782951,
				"z": -0.2631307893,
				"element": "O" 
			},
			{
				"x": 0.5464613709,
				"y": 0.517690467,
				"z": -0.70045619,
				"element": "C" 
			},
			{
				"x": -0.4773782448,
				"y": 1.1442908027,
				"z": -1.40701688,
				"element": "C" 
			},
			{
				"x": -1.7940735501,
				"y": 0.7412857704,
				"z": -1.1979292925,
				"element": "C" 
			},
			{
				"x": -2.071168878,
				"y": -0.2801041922,
				"z": -0.2878960232,
				"element": "C" 
			},
			{
				"x": -1.038242871,
				"y": -0.9012556478,
				"z": 0.4147668545,
				"element": "C" 
			},
			{
				"x": 0.2872367215,
				"y": -0.5043856115,
				"z": 0.2124347339,
				"element": "C" 
			},
			{
				"x": 1.8313062174,
				"y": -1.4601437167,
				"z": 1.287800555,
				"element": "I" 
			},
			{
				"x": -0.2350076966,
				"y": 1.9356520446,
				"z": -2.1086762856,
				"element": "H" 
			},
			{
				"x": -2.5975225622,
				"y": 1.2242340594,
				"z": -1.7443318372,
				"element": "H" 
			},
			{
				"x": -3.094996769,
				"y": -0.5993489506,
				"z": -0.1198847637,
				"element": "H" 
			},
			{
				"x": -1.258060202,
				"y": -1.6941520477,
				"z": 1.1206221914,
				"element": "H" 
			}
		],
		 "valence_orbital": [ 
			{
				"type": "occ",
				"energy": -0.31103,
				"method": "rhf"
			},
			{
				"type": "occ",
				"energy": -0.31095,
				"method": "rhf"
			},
			{
				"type": "occ",
				"energy": -0.28264,
				"method": "rhf"
			},
			{
				"type": "occ",
				"energy": -0.27673,
				"method": "rhf"
			},
			{
				"type": "occ",
				"energy": -0.25787,
				"method": "rhf"
			},
			{
				"type": "unocc",
				"energy": -0.07898,
				"method": "rhf"
			},
			{
				"type": "unocc",
				"energy": -0.05451,
				"method": "rhf"
			},
			{
				"type": "unocc",
				"energy": -0.04147,
				"method": "rhf"
			},
			{
				"type": "unocc",
				"energy": -0.03906,
				"method": "rhf"
			},
			{
				"type": "unocc",
				"energy": 0.04762,
				"method": "rhf"
			}
		],
		"cosmo_sigma_profile": { 
			"0.0": 0.0,
			"0.0": 0.0,
			"0.0": 0.0,
			"0.0": 0.0,
			"0.0": 0.0,
			"0.0": 0.0,
			"0.0": 0.0,
			"0.0": 0.0,
			"0.0": 0.0,
			"0.0": 0.0,
			"0.0": 0.0,
			"0.0": 0.0,
			"0.0": 0.0,
			"0.0": 0.0,
			"0.0": 0.0,
			"0.0": 0.0,
			"0.0": 0.0,
			"0.0": 0.0,
			"0.0": 0.0,
			"0.0": 0.0,
			"0.0": 0.0,
			"0.0": 0.0,
			"0.0": 0.0,
			"0.0": 0.0,
			"0.0": 0.0,
			"0.0": 0.0,
			"0.0": 0.0,
			"0.0": 0.0,
			"0.0": 0.0,
			"0.0": 0.0,
			"0.0": 0.0,
			"0.0": 0.0,
			"0.0": 0.0,
			"0.0": 0.0,
			"0.0": 0.0,
			"0.0": 0.0,
			"0.0": 0.0,
			"0.0": 0.0,
			"0.0": 0.0,
			"0.0": 0.0,
			"0.0": 0.0,
			"0.0": 0.0,
			"0.0": 0.0,
			"0.0": 0.0,
			"0.0": 0.0,
			"0.0": 0.0,
			"0.0": 0.0,
			"0.0": 0.0,
			"0.0": 0.0,
			"0.0": 0.0,
			"0.0": 0.0
		}
	}
}
