{
	 "smiles": "COC(=O)C1NC2=C(C=CC=C2)S(=O)(=O)N1", 
	 "Tm": 445.15, 
	 "num_atms": 26, 
	 "gaussian": { 
		 "optdone": 1, 
		 "sigma_profile": "yes", 
		 "theory": "DFT", 
		 "functional": "B3LYP", 
		 "basiset": "6-31G**", 
		 "properties": { 
			 "R2extent": 4992.1452, 
			 "electric_dipole_moment_norm": 7.35872538759, 
			 "electric_quadrupole_moment_norm": 27.2980103387, 
			 "total_energy": -1157.49531118, 
			 "HOMO_LUMO_gap": 0.19281, 
			 "cosmo_polarized_energy": -20.79, 
			 "cosmo_cavitation_energy": 31.41, 
			 "cosmo_dispersion_energy": -23.53, 
			 "cosmo_repulsion_energy": 1.77, 
			 "cosmo_total_nonelectrostatic_energy": 9.65, 
			 "SMD_solvation_energy": 4.48 
		},
		"coords": [
			{
				"x": -3.4610668875,
				"y": 2.9507735835,
				"z": -1.1628819409,
				"element": "C" 
			},
			{
				"x": -2.7425994568,
				"y": 2.006790845,
				"z": -0.3403240563,
				"element": "O" 
			},
			{
				"x": -1.7356962173,
				"y": 2.5234171284,
				"z": 0.3875311462,
				"element": "C" 
			},
			{
				"x": -1.4097323987,
				"y": 3.6851559461,
				"z": 0.3970935416,
				"element": "O" 
			},
			{
				"x": -1.0342626676,
				"y": 1.4021624541,
				"z": 1.1633424795,
				"element": "C" 
			},
			{
				"x": -0.4231685485,
				"y": 0.5097420787,
				"z": 0.1719580594,
				"element": "N" 
			},
			{
				"x": 0.5806911013,
				"y": -0.3895009242,
				"z": 0.5142197155,
				"element": "C" 
			},
			{
				"x": 1.2849708204,
				"y": -0.3202159506,
				"z": 1.7366140722,
				"element": "C" 
			},
			{
				"x": 2.3524648955,
				"y": -1.1794782014,
				"z": 2.0111702649,
				"element": "C" 
			},
			{
				"x": 2.7322860248,
				"y": -2.1430494541,
				"z": 1.0843477166,
				"element": "C" 
			},
			{
				"x": 2.0320491495,
				"y": -2.2350923884,
				"z": -0.1245136015,
				"element": "C" 
			},
			{
				"x": 0.9822877898,
				"y": -1.3722340313,
				"z": -0.4117653344,
				"element": "C" 
			},
			{
				"x": 0.7666280862,
				"y": 0.8402757473,
				"z": 2.9855115075,
				"element": "S" 
			},
			{
				"x": -0.2404999727,
				"y": 0.2051665715,
				"z": 3.8354719517,
				"element": "O" 
			},
			{
				"x": 1.9320502219,
				"y": 1.5108866617,
				"z": 3.5571989985,
				"element": "O" 
			},
			{
				"x": -0.0526754423,
				"y": 1.985955887,
				"z": 2.0489122108,
				"element": "N" 
			},
			{
				"x": -4.2283971018,
				"y": 2.3696033372,
				"z": -1.6724536731,
				"element": "H" 
			},
			{
				"x": -3.9127576255,
				"y": 3.7251306317,
				"z": -0.5395301598,
				"element": "H" 
			},
			{
				"x": -2.7856276654,
				"y": 3.418490696,
				"z": -1.8826359526,
				"element": "H" 
			},
			{
				"x": -1.7689667269,
				"y": 0.8782468658,
				"z": 1.7908318149,
				"element": "H" 
			},
			{
				"x": -1.0490139239,
				"y": 0.2111473145,
				"z": -0.5637159296,
				"element": "H" 
			},
			{
				"x": 2.8793254407,
				"y": -1.0750946313,
				"z": 2.9543515431,
				"element": "H" 
			},
			{
				"x": 3.560116578,
				"y": -2.811038003,
				"z": 1.2961595577,
				"element": "H" 
			},
			{
				"x": 2.313493779,
				"y": -2.9851302835,
				"z": -0.8579665018,
				"element": "H" 
			},
			{
				"x": 0.4615348947,
				"y": -1.4420726596,
				"z": -1.3632566378,
				"element": "H" 
			},
			{
				"x": 0.5855658531,
				"y": 2.6325607788,
				"z": 1.5888292074,
				"element": "H" 
			}
		],
		 "valence_orbital": [ 
			{
				"type": "occ",
				"energy": -0.30531,
				"method": "rhf"
			},
			{
				"type": "occ",
				"energy": -0.30216,
				"method": "rhf"
			},
			{
				"type": "occ",
				"energy": -0.29041,
				"method": "rhf"
			},
			{
				"type": "occ",
				"energy": -0.26611,
				"method": "rhf"
			},
			{
				"type": "occ",
				"energy": -0.22528,
				"method": "rhf"
			},
			{
				"type": "unocc",
				"energy": -0.03247,
				"method": "rhf"
			},
			{
				"type": "unocc",
				"energy": -0.02179,
				"method": "rhf"
			},
			{
				"type": "unocc",
				"energy": -0.00842,
				"method": "rhf"
			},
			{
				"type": "unocc",
				"energy": 0.05912,
				"method": "rhf"
			},
			{
				"type": "unocc",
				"energy": 0.06564,
				"method": "rhf"
			}
		],
		"cosmo_sigma_profile": { 
			"-0.025": 0.0,
			"-0.024": 0.0,
			"-0.023": 0.0,
			"-0.022": 0.0,
			"-0.021": 0.0,
			"-0.02": 0.0,
			"-0.019": 0.0,
			"-0.018": 0.0,
			"-0.017": 0.0,
			"-0.016": 0.0,
			"-0.015": 0.768384325449,
			"-0.014": 1.14424450808,
			"-0.013": 2.3771695861,
			"-0.012": 2.12797757079,
			"-0.011": 1.46041618705,
			"-0.01": 2.40449725033,
			"-0.009": 2.91840032245,
			"-0.008": 4.68320176455,
			"-0.007": 12.4541533995,
			"-0.006": 19.5238600227,
			"-0.005": 20.474465947,
			"-0.004": 20.9112181807,
			"-0.003": 13.5545780477,
			"-0.002": 10.4816787364,
			"-0.001": 11.3886522167,
			"0.0": 10.3927703116,
			"0.001": 10.2496749267,
			"0.002": 13.4599862618,
			"0.003": 17.1443974243,
			"0.004": 14.3888672029,
			"0.005": 6.43657456146,
			"0.006": 5.28898211243,
			"0.007": 5.43810838322,
			"0.008": 7.22718529839,
			"0.009": 6.89167327098,
			"0.01": 15.023780905,
			"0.011": 10.5237553315,
			"0.012": 1.18019287015,
			"0.013": 0.0,
			"0.014": 0.0,
			"0.015": 0.0,
			"0.016": 0.0,
			"0.017": 0.0,
			"0.018": 0.0,
			"0.019": 0.0,
			"0.02": 0.0,
			"0.021": 0.0,
			"0.022": 0.0,
			"0.023": 0.0,
			"0.024": 0.0,
			"0.025": 0.0
		}
	}
}
