{
	 "smiles": "NC1=C(C#N)C2=C(CCCCCC2)S1", 
	 "Tm": 378.15, 
	 "num_atms": 28, 
	 "gaussian": { 
		 "optdone": 1, 
		 "sigma_profile": "yes", 
		 "theory": "DFT", 
		 "functional": "B3LYP", 
		 "basiset": "6-31G**", 
		 "properties": { 
			 "R2extent": 3286.5036, 
			 "electric_dipole_moment_norm": 3.93863458193, 
			 "electric_quadrupole_moment_norm": 21.8633644213, 
			 "total_energy": -935.28335213, 
			 "HOMO_LUMO_gap": 0.18289, 
			 "cosmo_polarized_energy": -12.16, 
			 "cosmo_cavitation_energy": 30.88, 
			 "cosmo_dispersion_energy": -22.65, 
			 "cosmo_repulsion_energy": 1.74, 
			 "cosmo_total_nonelectrostatic_energy": 9.98, 
			 "SMD_solvation_energy": 4.87 
		},
		"coords": [
			{
				"x": 3.7123726927,
				"y": 1.1932710172,
				"z": -0.6280377111,
				"element": "N" 
			},
			{
				"x": 2.4418276228,
				"y": 0.714146335,
				"z": -0.4126991156,
				"element": "C" 
			},
			{
				"x": 1.2490282772,
				"y": 1.2310049911,
				"z": -0.8903668261,
				"element": "C" 
			},
			{
				"x": 1.2278543491,
				"y": 2.4498702512,
				"z": -1.6166072149,
				"element": "C" 
			},
			{
				"x": 1.2621262255,
				"y": 3.4582370153,
				"z": -2.2032244066,
				"element": "N" 
			},
			{
				"x": 0.0802641708,
				"y": 0.4282551748,
				"z": -0.562558904,
				"element": "C" 
			},
			{
				"x": 0.4018064756,
				"y": -0.6762683519,
				"z": 0.1724763008,
				"element": "C" 
			},
			{
				"x": -0.4143317021,
				"y": -1.8027300041,
				"z": 0.7567735632,
				"element": "C" 
			},
			{
				"x": -1.9095534116,
				"y": -1.5334225888,
				"z": 1.0046975275,
				"element": "C" 
			},
			{
				"x": -2.2339457178,
				"y": -0.2748009388,
				"z": 1.8488840382,
				"element": "C" 
			},
			{
				"x": -2.9247262713,
				"y": 0.8613727687,
				"z": 1.0728371132,
				"element": "C" 
			},
			{
				"x": -2.0591316283,
				"y": 1.6875512035,
				"z": 0.108293733,
				"element": "C" 
			},
			{
				"x": -1.2966626968,
				"y": 0.8949839497,
				"z": -0.985245169,
				"element": "C" 
			},
			{
				"x": 2.1538735896,
				"y": -0.7667836779,
				"z": 0.452433335,
				"element": "S" 
			},
			{
				"x": 4.3990136265,
				"y": 1.0167398755,
				"z": 0.0914117271,
				"element": "H" 
			},
			{
				"x": 3.7529056489,
				"y": 2.1320484747,
				"z": -1.0052198593,
				"element": "H" 
			},
			{
				"x": -0.3231497417,
				"y": -2.6921922028,
				"z": 0.1165396375,
				"element": "H" 
			},
			{
				"x": 0.0413545586,
				"y": -2.0867606073,
				"z": 1.715343366,
				"element": "H" 
			},
			{
				"x": -2.3011649818,
				"y": -2.4242814285,
				"z": 1.5095458157,
				"element": "H" 
			},
			{
				"x": -2.4426533966,
				"y": -1.4893673288,
				"z": 0.049441686,
				"element": "H" 
			},
			{
				"x": -2.9002941341,
				"y": -0.5657707136,
				"z": 2.6691467752,
				"element": "H" 
			},
			{
				"x": -1.3204077794,
				"y": 0.1041438329,
				"z": 2.3248864452,
				"element": "H" 
			},
			{
				"x": -3.7707380883,
				"y": 0.4334498324,
				"z": 0.5157859063,
				"element": "H" 
			},
			{
				"x": -3.3672740857,
				"y": 1.5585495658,
				"z": 1.795899308,
				"element": "H" 
			},
			{
				"x": -2.7169466931,
				"y": 2.4113231781,
				"z": -0.3881170977,
				"element": "H" 
			},
			{
				"x": -1.3340098042,
				"y": 2.2812278291,
				"z": 0.6787863638,
				"element": "H" 
			},
			{
				"x": -1.1659386028,
				"y": 1.5494912835,
				"z": -1.8530381699,
				"element": "H" 
			},
			{
				"x": -1.9027985014,
				"y": 0.054711264,
				"z": -1.3359681674,
				"element": "H" 
			}
		],
		 "valence_orbital": [ 
			{
				"type": "occ",
				"energy": -0.31785,
				"method": "rhf"
			},
			{
				"type": "occ",
				"energy": -0.31069,
				"method": "rhf"
			},
			{
				"type": "occ",
				"energy": -0.30461,
				"method": "rhf"
			},
			{
				"type": "occ",
				"energy": -0.24807,
				"method": "rhf"
			},
			{
				"type": "occ",
				"energy": -0.20275,
				"method": "rhf"
			},
			{
				"type": "unocc",
				"energy": -0.01986,
				"method": "rhf"
			},
			{
				"type": "unocc",
				"energy": -0.00395,
				"method": "rhf"
			},
			{
				"type": "unocc",
				"energy": 0.01997,
				"method": "rhf"
			},
			{
				"type": "unocc",
				"energy": 0.04945,
				"method": "rhf"
			},
			{
				"type": "unocc",
				"energy": 0.06862,
				"method": "rhf"
			}
		],
		"cosmo_sigma_profile": { 
			"-0.025": 0.0,
			"-0.024": 0.0,
			"-0.023": 0.0,
			"-0.022": 0.0,
			"-0.021": 0.0,
			"-0.02": 0.0,
			"-0.019": 0.0,
			"-0.018": 0.0,
			"-0.017": 0.0,
			"-0.016": 0.0,
			"-0.015": 0.550910393537,
			"-0.014": 1.74539638528,
			"-0.013": 2.62502467487,
			"-0.012": 2.70548361238,
			"-0.011": 2.52687988761,
			"-0.01": 2.14156646829,
			"-0.009": 2.16659997193,
			"-0.008": 2.01441308157,
			"-0.007": 2.02818259386,
			"-0.006": 1.96132269772,
			"-0.005": 2.91901707557,
			"-0.004": 9.84303055975,
			"-0.003": 17.4383648459,
			"-0.002": 35.0098339331,
			"-0.001": 34.614089334,
			"0.0": 32.6945184184,
			"0.001": 22.3087951471,
			"0.002": 14.6808958254,
			"0.003": 14.0633964923,
			"0.004": 9.70860744594,
			"0.005": 4.59001717052,
			"0.006": 2.3402375675,
			"0.007": 3.2867754128,
			"0.008": 2.654272303,
			"0.009": 3.54260671877,
			"0.01": 3.76210488924,
			"0.011": 3.90484249731,
			"0.012": 2.85969527193,
			"0.013": 2.6185869282,
			"0.014": 1.44769900917,
			"0.015": 0.00371611311314,
			"0.016": 0.0,
			"0.017": 0.0,
			"0.018": 0.0,
			"0.019": 0.0,
			"0.02": 0.0,
			"0.021": 0.0,
			"0.022": 0.0,
			"0.023": 0.0,
			"0.024": 0.0,
			"0.025": 0.0
		}
	}
}
