{
	 "smiles": "ClC1=CC=C(C=C1)C1=C(C(=NO1)C(=O)C1=CC=CC2=C1C=CC=C2)S(=O)(=O)C1=CC=CC=C1", 
	 "Tm": 442.15, 
	 "num_atms": 49, 
	 "gaussian": { 
		 "optdone": 1, 
		 "sigma_profile": "yes", 
		 "theory": "DFT", 
		 "functional": "B3LYP", 
		 "basiset": "6-31G**", 
		 "properties": { 
			 "R2extent": 19612.1939, 
			 "electric_dipole_moment_norm": 1.71971542413, 
			 "electric_quadrupole_moment_norm": 33.0595834056, 
			 "total_energy": -2214.31666451, 
			 "HOMO_LUMO_gap": 0.14668, 
			 "cosmo_polarized_energy": -19.2, 
			 "cosmo_cavitation_energy": 56.71, 
			 "cosmo_dispersion_energy": -39.46, 
			 "cosmo_repulsion_energy": 2.86, 
			 "cosmo_total_nonelectrostatic_energy": 20.11, 
			 "SMD_solvation_energy": 8.18 
		},
		"coords": [
			{
				"x": -2.1604258921,
				"y": 2.3688488096,
				"z": -7.224769494,
				"element": "Cl" 
			},
			{
				"x": -2.0075972815,
				"y": 2.0254528201,
				"z": -5.5132207301,
				"element": "C" 
			},
			{
				"x": -3.0570817115,
				"y": 2.3490959781,
				"z": -4.6519435274,
				"element": "C" 
			},
			{
				"x": -2.9297304167,
				"y": 2.0744645077,
				"z": -3.2949300491,
				"element": "C" 
			},
			{
				"x": -1.7628618307,
				"y": 1.4724014324,
				"z": -2.7895407046,
				"element": "C" 
			},
			{
				"x": -0.7183149141,
				"y": 1.1628281682,
				"z": -3.6744544721,
				"element": "C" 
			},
			{
				"x": -0.8374207817,
				"y": 1.4367990776,
				"z": -5.0331217617,
				"element": "C" 
			},
			{
				"x": -1.658599868,
				"y": 1.2206100854,
				"z": -1.3521541533,
				"element": "C" 
			},
			{
				"x": -0.9646769443,
				"y": 0.3533871884,
				"z": -0.5298267612,
				"element": "C" 
			},
			{
				"x": -1.4096341389,
				"y": 0.6850213324,
				"z": 0.7915593625,
				"element": "C" 
			},
			{
				"x": -2.2843185455,
				"y": 1.6612843541,
				"z": 0.7736906843,
				"element": "N" 
			},
			{
				"x": -2.4339457619,
				"y": 2.0063842371,
				"z": -0.5737028014,
				"element": "O" 
			},
			{
				"x": -0.8888028025,
				"y": 0.1933608995,
				"z": 2.1340146748,
				"element": "C" 
			},
			{
				"x": 0.2913526231,
				"y": 0.4280157734,
				"z": 2.3645531675,
				"element": "O" 
			},
			{
				"x": -1.8309910356,
				"y": -0.4640978831,
				"z": 3.0644988762,
				"element": "C" 
			},
			{
				"x": -3.0590127527,
				"y": -0.8793616468,
				"z": 2.559915824,
				"element": "C" 
			},
			{
				"x": -4.0040952723,
				"y": -1.5490326581,
				"z": 3.3591303061,
				"element": "C" 
			},
			{
				"x": -3.7220488218,
				"y": -1.7951292212,
				"z": 4.6823679051,
				"element": "C" 
			},
			{
				"x": -2.488447981,
				"y": -1.3903653801,
				"z": 5.2571891665,
				"element": "C" 
			},
			{
				"x": -1.5070283381,
				"y": -0.7192750096,
				"z": 4.4499420787,
				"element": "C" 
			},
			{
				"x": -0.2883597453,
				"y": -0.3355965138,
				"z": 5.0733790432,
				"element": "C" 
			},
			{
				"x": -0.061395936,
				"y": -0.600518404,
				"z": 6.4085100866,
				"element": "C" 
			},
			{
				"x": -1.0281653269,
				"y": -1.2619097255,
				"z": 7.1974783,
				"element": "C" 
			},
			{
				"x": -2.2188833372,
				"y": -1.6479934939,
				"z": 6.6276003386,
				"element": "C" 
			},
			{
				"x": -0.0053074238,
				"y": -1.0972994536,
				"z": -0.932974601,
				"element": "S" 
			},
			{
				"x": -0.0547308828,
				"y": -1.9340900681,
				"z": 0.273194766,
				"element": "O" 
			},
			{
				"x": -0.4837666539,
				"y": -1.611989215,
				"z": -2.2246242162,
				"element": "O" 
			},
			{
				"x": 1.6809917599,
				"y": -0.5163831646,
				"z": -1.1807093455,
				"element": "C" 
			},
			{
				"x": 2.3426340232,
				"y": 0.1736651377,
				"z": -0.160811165,
				"element": "C" 
			},
			{
				"x": 3.6644964815,
				"y": 0.5656893434,
				"z": -0.371231343,
				"element": "C" 
			},
			{
				"x": 4.3113792458,
				"y": 0.2584524698,
				"z": -1.5716526254,
				"element": "C" 
			},
			{
				"x": 3.6398605488,
				"y": -0.4436244732,
				"z": -2.5742614482,
				"element": "C" 
			},
			{
				"x": 2.3140010869,
				"y": -0.8367641103,
				"z": -2.3839720026,
				"element": "C" 
			},
			{
				"x": -3.9596657458,
				"y": 2.8066101697,
				"z": -5.0406660956,
				"element": "H" 
			},
			{
				"x": -3.7409693017,
				"y": 2.3220585832,
				"z": -2.6198140792,
				"element": "H" 
			},
			{
				"x": 0.1973092393,
				"y": 0.7194663163,
				"z": -3.306602605,
				"element": "H" 
			},
			{
				"x": -0.0285082241,
				"y": 1.2002288929,
				"z": -5.7147487899,
				"element": "H" 
			},
			{
				"x": -3.2981294091,
				"y": -0.6940942579,
				"z": 1.5201242383,
				"element": "H" 
			},
			{
				"x": -4.9469982481,
				"y": -1.8656973166,
				"z": 2.9252714587,
				"element": "H" 
			},
			{
				"x": -4.4440487182,
				"y": -2.3084071384,
				"z": 5.3125069794,
				"element": "H" 
			},
			{
				"x": 0.4669211434,
				"y": 0.1604512552,
				"z": 4.4820483572,
				"element": "H" 
			},
			{
				"x": 0.8792685122,
				"y": -0.295803099,
				"z": 6.8583859935,
				"element": "H" 
			},
			{
				"x": -0.8299728055,
				"y": -1.4626329686,
				"z": 8.2461731046,
				"element": "H" 
			},
			{
				"x": -2.976283145,
				"y": -2.1570267025,
				"z": 7.2179162329,
				"element": "H" 
			},
			{
				"x": 1.8338508628,
				"y": 0.4018872347,
				"z": 0.7711244983,
				"element": "H" 
			},
			{
				"x": 4.1913225787,
				"y": 1.1085361461,
				"z": 0.4076327012,
				"element": "H" 
			},
			{
				"x": 5.3420011429,
				"y": 0.5653413781,
				"z": -1.7241903874,
				"element": "H" 
			},
			{
				"x": 4.1457889008,
				"y": -0.6882596459,
				"z": -3.5033238638,
				"element": "H" 
			},
			{
				"x": 1.771641845,
				"y": -1.3890900412,
				"z": -3.1437611215,
				"element": "H" 
			}
		],
		 "valence_orbital": [ 
			{
				"type": "occ",
				"energy": -0.27093,
				"method": "rhf"
			},
			{
				"type": "occ",
				"energy": -0.26694,
				"method": "rhf"
			},
			{
				"type": "occ",
				"energy": -0.25386,
				"method": "rhf"
			},
			{
				"type": "occ",
				"energy": -0.24948,
				"method": "rhf"
			},
			{
				"type": "occ",
				"energy": -0.22848,
				"method": "rhf"
			},
			{
				"type": "unocc",
				"energy": -0.0818,
				"method": "rhf"
			},
			{
				"type": "unocc",
				"energy": -0.07344,
				"method": "rhf"
			},
			{
				"type": "unocc",
				"energy": -0.04129,
				"method": "rhf"
			},
			{
				"type": "unocc",
				"energy": -0.02788,
				"method": "rhf"
			},
			{
				"type": "unocc",
				"energy": -0.02633,
				"method": "rhf"
			}
		],
		"cosmo_sigma_profile": { 
			"-0.025": 0.0,
			"-0.024": 0.0,
			"-0.023": 0.0,
			"-0.022": 0.0,
			"-0.021": 0.0,
			"-0.02": 0.0,
			"-0.019": 0.0,
			"-0.018": 0.0,
			"-0.017": 0.0,
			"-0.016": 0.0,
			"-0.015": 0.0,
			"-0.014": 0.0,
			"-0.013": 0.0,
			"-0.012": 0.0,
			"-0.011": 0.00205975124492,
			"-0.01": 0.0546700403475,
			"-0.009": 0.277255201553,
			"-0.008": 6.34515005369,
			"-0.007": 21.4545473468,
			"-0.006": 29.9882324573,
			"-0.005": 30.6074568551,
			"-0.004": 29.6853534977,
			"-0.003": 26.3341036589,
			"-0.002": 27.9364185387,
			"-0.001": 31.0849964683,
			"0.0": 34.3173119191,
			"0.001": 46.5387453884,
			"0.002": 50.8612046566,
			"0.003": 41.7335886461,
			"0.004": 28.4556005257,
			"0.005": 12.3088800177,
			"0.006": 7.31406307549,
			"0.007": 7.3962553886,
			"0.008": 7.0052071468,
			"0.009": 6.54682689522,
			"0.01": 6.58683359319,
			"0.011": 7.51684492391,
			"0.012": 1.3128992306,
			"0.013": 0.0,
			"0.014": 0.0,
			"0.015": 0.0,
			"0.016": 0.0,
			"0.017": 0.0,
			"0.018": 0.0,
			"0.019": 0.0,
			"0.02": 0.0,
			"0.021": 0.0,
			"0.022": 0.0,
			"0.023": 0.0,
			"0.024": 0.0,
			"0.025": 0.0
		}
	}
}
