{
	 "smiles": "CC(=O)OC1CCC2(C)C3CCC4(C)C(CC[C@@]4(O)C#CC4=CC=CC=C4)C3CC=C2C1", 
	 "Tm": 421.15, 
	 "num_atms": 68, 
	 "gaussian": { 
		 "optdone": 1, 
		 "sigma_profile": "yes", 
		 "theory": "DFT", 
		 "functional": "B3LYP", 
		 "basiset": "6-31G**", 
		 "properties": { 
			 "R2extent": 22906.43, 
			 "electric_dipole_moment_norm": 2.26606496156, 
			 "electric_quadrupole_moment_norm": 21.8058991789, 
			 "total_energy": -1352.41484956, 
			 "HOMO_LUMO_gap": 0.19457, 
			 "cosmo_polarized_energy": -14.47, 
			 "cosmo_cavitation_energy": 62.81, 
			 "cosmo_dispersion_energy": -42.28, 
			 "cosmo_repulsion_energy": 3.14, 
			 "cosmo_total_nonelectrostatic_energy": 23.67, 
			 "SMD_solvation_energy": 10.35 
		},
		"coords": [
			{
				"x": 6.8478010003,
				"y": 0.8801354259,
				"z": 2.9493335082,
				"element": "C" 
			},
			{
				"x": 6.1533717661,
				"y": -0.3191312377,
				"z": 2.3464895639,
				"element": "C" 
			},
			{
				"x": 6.7108144855,
				"y": -1.2949130755,
				"z": 1.8920532915,
				"element": "O" 
			},
			{
				"x": 4.8086143594,
				"y": -0.1596806798,
				"z": 2.3722791572,
				"element": "O" 
			},
			{
				"x": 4.0113041154,
				"y": -1.2519240947,
				"z": 1.8266815918,
				"element": "C" 
			},
			{
				"x": 2.6377725545,
				"y": -1.1788399488,
				"z": 2.4840310659,
				"element": "C" 
			},
			{
				"x": 1.7948277338,
				"y": 0.0510093349,
				"z": 2.0815031086,
				"element": "C" 
			},
			{
				"x": 1.9055131618,
				"y": 0.4456001891,
				"z": 0.561606456,
				"element": "C" 
			},
			{
				"x": 2.8728594868,
				"y": 1.6503516903,
				"z": 0.4159812518,
				"element": "C" 
			},
			{
				"x": 0.5287662095,
				"y": 0.8713322269,
				"z": -0.0641403946,
				"element": "C" 
			},
			{
				"x": -0.2673218436,
				"y": 1.8533343325,
				"z": 0.8224108101,
				"element": "C" 
			},
			{
				"x": -1.6047472573,
				"y": 2.2729039163,
				"z": 0.1957451692,
				"element": "C" 
			},
			{
				"x": -2.5157261875,
				"y": 1.0630306461,
				"z": -0.1283114484,
				"element": "C" 
			},
			{
				"x": -3.0591671492,
				"y": 0.4430674634,
				"z": 1.1666145637,
				"element": "C" 
			},
			{
				"x": -1.7354528881,
				"y": 0.0603105754,
				"z": -1.017911961,
				"element": "C" 
			},
			{
				"x": -1.7490929224,
				"y": 0.7060677858,
				"z": -2.4368994396,
				"element": "C" 
			},
			{
				"x": -2.9507243192,
				"y": 1.681789058,
				"z": -2.4671488925,
				"element": "C" 
			},
			{
				"x": -3.6681609964,
				"y": 1.5237556974,
				"z": -1.1006448779,
				"element": "C" 
			},
			{
				"x": -4.2393752105,
				"y": 2.7876065544,
				"z": -0.7473365492,
				"element": "O" 
			},
			{
				"x": -4.7362103739,
				"y": 0.5115720652,
				"z": -1.2008232501,
				"element": "C" 
			},
			{
				"x": -5.6420190378,
				"y": -0.2919703872,
				"z": -1.2944082567,
				"element": "C" 
			},
			{
				"x": -6.7109737341,
				"y": -1.2335395476,
				"z": -1.4147523198,
				"element": "C" 
			},
			{
				"x": -6.621880322,
				"y": -2.5036845955,
				"z": -0.8122430288,
				"element": "C" 
			},
			{
				"x": -7.666452037,
				"y": -3.4165843766,
				"z": -0.9350432008,
				"element": "C" 
			},
			{
				"x": -8.8153416836,
				"y": -3.0802448306,
				"z": -1.6551457483,
				"element": "C" 
			},
			{
				"x": -8.9142421916,
				"y": -1.8226614576,
				"z": -2.2555428932,
				"element": "C" 
			},
			{
				"x": -7.8730886388,
				"y": -0.9049642657,
				"z": -2.1401807537,
				"element": "C" 
			},
			{
				"x": -0.3435629169,
				"y": -0.3370410616,
				"z": -0.4695991485,
				"element": "C" 
			},
			{
				"x": 0.4070585839,
				"y": -1.2348728699,
				"z": -1.4673046995,
				"element": "C" 
			},
			{
				"x": 1.8249912102,
				"y": -1.4992467518,
				"z": -1.0486474536,
				"element": "C" 
			},
			{
				"x": 2.5024987119,
				"y": -0.7619420475,
				"z": -0.1608737878,
				"element": "C" 
			},
			{
				"x": 3.8969454803,
				"y": -1.1612121751,
				"z": 0.2793976007,
				"element": "C" 
			},
			{
				"x": 6.6991348683,
				"y": 1.7544592267,
				"z": 2.3073942442,
				"element": "H" 
			},
			{
				"x": 6.4218292359,
				"y": 1.1177068526,
				"z": 3.9277248301,
				"element": "H" 
			},
			{
				"x": 7.9138309073,
				"y": 0.6736355667,
				"z": 3.0399507736,
				"element": "H" 
			},
			{
				"x": 4.5224384572,
				"y": -2.1767196201,
				"z": 2.1024062913,
				"element": "H" 
			},
			{
				"x": 2.7457333548,
				"y": -1.2216551987,
				"z": 3.573206341,
				"element": "H" 
			},
			{
				"x": 2.1076969526,
				"y": -2.0900140514,
				"z": 2.1819983715,
				"element": "H" 
			},
			{
				"x": 2.0776949404,
				"y": 0.9097765787,
				"z": 2.6996852276,
				"element": "H" 
			},
			{
				"x": 0.7553404863,
				"y": -0.1807277444,
				"z": 2.3339814469,
				"element": "H" 
			},
			{
				"x": 2.4343740841,
				"y": 2.5512655632,
				"z": 0.8558846248,
				"element": "H" 
			},
			{
				"x": 3.8211304856,
				"y": 1.4738548211,
				"z": 0.9256759596,
				"element": "H" 
			},
			{
				"x": 3.0790215074,
				"y": 1.8577229898,
				"z": -0.6400033119,
				"element": "H" 
			},
			{
				"x": 0.781537616,
				"y": 1.4088300655,
				"z": -0.9913427711,
				"element": "H" 
			},
			{
				"x": -0.454590604,
				"y": 1.4045936383,
				"z": 1.8037335712,
				"element": "H" 
			},
			{
				"x": 0.3255289098,
				"y": 2.754500637,
				"z": 1.0145582986,
				"element": "H" 
			},
			{
				"x": -1.4027146256,
				"y": 2.8457957032,
				"z": -0.7156522572,
				"element": "H" 
			},
			{
				"x": -2.1345381333,
				"y": 2.9595997831,
				"z": 0.8638821381,
				"element": "H" 
			},
			{
				"x": -2.2548312041,
				"y": 0.1328859492,
				"z": 1.8390847307,
				"element": "H" 
			},
			{
				"x": -3.6749118146,
				"y": 1.1666594773,
				"z": 1.71557784,
				"element": "H" 
			},
			{
				"x": -3.678163166,
				"y": -0.4334836895,
				"z": 0.9582643913,
				"element": "H" 
			},
			{
				"x": -2.3308437197,
				"y": -0.8614167742,
				"z": -1.0748161836,
				"element": "H" 
			},
			{
				"x": -1.833552407,
				"y": -0.0604645658,
				"z": -3.2119689105,
				"element": "H" 
			},
			{
				"x": -0.8186777593,
				"y": 1.2470900537,
				"z": -2.6362192649,
				"element": "H" 
			},
			{
				"x": -2.6302314257,
				"y": 2.7238857745,
				"z": -2.5496571846,
				"element": "H" 
			},
			{
				"x": -3.6378067631,
				"y": 1.4910357844,
				"z": -3.2940064629,
				"element": "H" 
			},
			{
				"x": -4.8637278513,
				"y": 2.6345600077,
				"z": -0.025356385,
				"element": "H" 
			},
			{
				"x": -5.7285279995,
				"y": -2.7622878731,
				"z": -0.2527078309,
				"element": "H" 
			},
			{
				"x": -7.5843093518,
				"y": -4.3931367576,
				"z": -0.4665481915,
				"element": "H" 
			},
			{
				"x": -9.6286031672,
				"y": -3.7940537105,
				"z": -1.7481375197,
				"element": "H" 
			},
			{
				"x": -9.8050884003,
				"y": -1.5562918119,
				"z": -2.81705692,
				"element": "H" 
			},
			{
				"x": -7.9453597704,
				"y": 0.0720622787,
				"z": -2.6071209136,
				"element": "H" 
			},
			{
				"x": -0.5145240202,
				"y": -0.9359252631,
				"z": 0.4381221438,
				"element": "H" 
			},
			{
				"x": 0.4012964103,
				"y": -0.7757136551,
				"z": -2.4666115789,
				"element": "H" 
			},
			{
				"x": -0.1278748867,
				"y": -2.1877872901,
				"z": -1.5832505038,
				"element": "H" 
			},
			{
				"x": 2.3190006364,
				"y": -2.3586179298,
				"z": -1.5025635279,
				"element": "H" 
			},
			{
				"x": 4.1553218547,
				"y": -2.1297616048,
				"z": -0.1589641956,
				"element": "H" 
			},
			{
				"x": 4.6498672129,
				"y": -0.4519767693,
				"z": -0.081916345,
				"element": "H" 
			}
		],
		 "valence_orbital": [ 
			{
				"type": "occ",
				"energy": -0.26709,
				"method": "rhf"
			},
			{
				"type": "occ",
				"energy": -0.25681,
				"method": "rhf"
			},
			{
				"type": "occ",
				"energy": -0.25625,
				"method": "rhf"
			},
			{
				"type": "occ",
				"energy": -0.22831,
				"method": "rhf"
			},
			{
				"type": "occ",
				"energy": -0.22558,
				"method": "rhf"
			},
			{
				"type": "unocc",
				"energy": -0.03101,
				"method": "rhf"
			},
			{
				"type": "unocc",
				"energy": -0.00575,
				"method": "rhf"
			},
			{
				"type": "unocc",
				"energy": 0.01396,
				"method": "rhf"
			},
			{
				"type": "unocc",
				"energy": 0.03044,
				"method": "rhf"
			},
			{
				"type": "unocc",
				"energy": 0.04585,
				"method": "rhf"
			}
		],
		"cosmo_sigma_profile": { 
			"-0.025": 0.0,
			"-0.024": 0.0,
			"-0.023": 0.0,
			"-0.022": 0.0,
			"-0.021": 0.0,
			"-0.02": 0.0,
			"-0.019": 0.0,
			"-0.018": 0.0,
			"-0.017": 0.0,
			"-0.016": 0.0,
			"-0.015": 0.182244304014,
			"-0.014": 1.18819730838,
			"-0.013": 0.222945878248,
			"-0.012": 0.687580802528,
			"-0.011": 1.02101614541,
			"-0.01": 0.719349542847,
			"-0.009": 1.06372882602,
			"-0.008": 1.11482674922,
			"-0.007": 1.50113243755,
			"-0.006": 13.4523611566,
			"-0.005": 18.8418151584,
			"-0.004": 29.8790858937,
			"-0.003": 48.6861867952,
			"-0.002": 63.0604979695,
			"-0.001": 67.0809693597,
			"0.0": 59.099811372,
			"0.001": 45.2164849018,
			"0.002": 30.4499939618,
			"0.003": 26.1446957269,
			"0.004": 23.7379131845,
			"0.005": 20.4661230604,
			"0.006": 7.07470885472,
			"0.007": 5.42762699851,
			"0.008": 3.15945600554,
			"0.009": 2.69115619038,
			"0.01": 3.24055528279,
			"0.011": 3.58795101135,
			"0.012": 6.15919207089,
			"0.013": 3.52093248334,
			"0.014": 0.69324624779,
			"0.015": 0.0,
			"0.016": 0.0,
			"0.017": 0.0,
			"0.018": 0.0,
			"0.019": 0.0,
			"0.02": 0.0,
			"0.021": 0.0,
			"0.022": 0.0,
			"0.023": 0.0,
			"0.024": 0.0,
			"0.025": 0.0
		}
	}
}
