{
	 "smiles": "BrCC(=O)C1=CC=C(S1)C1=NC=CC=C1", 
	 "Tm": 397.15, 
	 "num_atms": 23, 
	 "gaussian": { 
		 "optdone": 1, 
		 "sigma_profile": "yes", 
		 "theory": "DFT", 
		 "functional": "B3LYP", 
		 "basiset": "6-31G**", 
		 "properties": { 
			 "R2extent": 6431.4197, 
			 "electric_dipole_moment_norm": 4.65840243968, 
			 "electric_quadrupole_moment_norm": 6.76222301614, 
			 "total_energy": -3523.54461401, 
			 "HOMO_LUMO_gap": 0.14394, 
			 "cosmo_polarized_energy": -11.3, 
			 "cosmo_cavitation_energy": 31.83, 
			 "cosmo_dispersion_energy": -23.91, 
			 "cosmo_repulsion_energy": 1.82, 
			 "cosmo_total_nonelectrostatic_energy": 9.74, 
			 "SMD_solvation_energy": 3.58 
		},
		"coords": [
			{
				"x": -2.7025245006,
				"y": 1.946020202,
				"z": -2.6481529127,
				"element": "Br" 
			},
			{
				"x": -3.552316637,
				"y": 0.303389314,
				"z": -1.9407155198,
				"element": "C" 
			},
			{
				"x": -2.6360501829,
				"y": -0.9036037177,
				"z": -2.1111545918,
				"element": "C" 
			},
			{
				"x": -2.9003701483,
				"y": -1.7379433554,
				"z": -2.9653189113,
				"element": "O" 
			},
			{
				"x": -1.4783779215,
				"y": -1.072950542,
				"z": -1.2194035737,
				"element": "C" 
			},
			{
				"x": -0.6293646327,
				"y": -2.1634997405,
				"z": -1.2393249563,
				"element": "C" 
			},
			{
				"x": 0.3752950261,
				"y": -2.1120803216,
				"z": -0.2516127636,
				"element": "C" 
			},
			{
				"x": 0.3055850782,
				"y": -0.9788184998,
				"z": 0.538021502,
				"element": "C" 
			},
			{
				"x": -1.0159581957,
				"y": 0.0443549649,
				"z": 0.0442259206,
				"element": "S" 
			},
			{
				"x": 1.207676343,
				"y": -0.6322646422,
				"z": 1.6451990085,
				"element": "C" 
			},
			{
				"x": 2.1721991567,
				"y": -1.5369886366,
				"z": 1.9084200545,
				"element": "N" 
			},
			{
				"x": 3.0226512378,
				"y": -1.2795607879,
				"z": 2.9025373542,
				"element": "C" 
			},
			{
				"x": 2.973458319,
				"y": -0.1258873618,
				"z": 3.6892541486,
				"element": "C" 
			},
			{
				"x": 1.9762605371,
				"y": 0.8092171753,
				"z": 3.4161497901,
				"element": "C" 
			},
			{
				"x": 1.0797593029,
				"y": 0.5573812552,
				"z": 2.3821075401,
				"element": "C" 
			},
			{
				"x": -4.45196154,
				"y": 0.1464206062,
				"z": -2.5304277241,
				"element": "H" 
			},
			{
				"x": -3.7931401239,
				"y": 0.5159283081,
				"z": -0.8986666428,
				"element": "H" 
			},
			{
				"x": -0.759498959,
				"y": -2.9655108332,
				"z": -1.9557578404,
				"element": "H" 
			},
			{
				"x": 1.1387441357,
				"y": -2.8629183445,
				"z": -0.0956913673,
				"element": "H" 
			},
			{
				"x": 3.7861177085,
				"y": -2.0346081324,
				"z": 3.0824742389,
				"element": "H" 
			},
			{
				"x": 3.6938299185,
				"y": 0.0291415633,
				"z": 4.4856268832,
				"element": "H" 
			},
			{
				"x": 1.8962451617,
				"y": 1.7226110336,
				"z": 3.9981338953,
				"element": "H" 
			},
			{
				"x": 0.2964409166,
				"y": 1.2719704932,
				"z": 2.1494764677,
				"element": "H" 
			}
		],
		 "valence_orbital": [ 
			{
				"type": "occ",
				"energy": -0.28395,
				"method": "rhf"
			},
			{
				"type": "occ",
				"energy": -0.27022,
				"method": "rhf"
			},
			{
				"type": "occ",
				"energy": -0.26546,
				"method": "rhf"
			},
			{
				"type": "occ",
				"energy": -0.25944,
				"method": "rhf"
			},
			{
				"type": "occ",
				"energy": -0.23204,
				"method": "rhf"
			},
			{
				"type": "unocc",
				"energy": -0.0881,
				"method": "rhf"
			},
			{
				"type": "unocc",
				"energy": -0.0416,
				"method": "rhf"
			},
			{
				"type": "unocc",
				"energy": -0.03084,
				"method": "rhf"
			},
			{
				"type": "unocc",
				"energy": 4e-05,
				"method": "rhf"
			},
			{
				"type": "unocc",
				"energy": 0.01378,
				"method": "rhf"
			}
		],
		"cosmo_sigma_profile": { 
			"-0.025": 0.0,
			"-0.024": 0.0,
			"-0.023": 0.0,
			"-0.022": 0.0,
			"-0.021": 0.0,
			"-0.02": 0.0,
			"-0.019": 0.0,
			"-0.018": 0.0,
			"-0.017": 0.0,
			"-0.016": 0.0,
			"-0.015": 0.0,
			"-0.014": 0.0,
			"-0.013": 0.0,
			"-0.012": 0.0,
			"-0.011": 0.0,
			"-0.01": 0.108892111493,
			"-0.009": 2.64627063696,
			"-0.008": 6.23639422724,
			"-0.007": 14.3203589226,
			"-0.006": 17.1476824632,
			"-0.005": 15.8550226238,
			"-0.004": 13.4672375943,
			"-0.003": 12.183044952,
			"-0.002": 12.8307817779,
			"-0.001": 14.5006100098,
			"0.0": 20.3015180858,
			"0.001": 31.3502333272,
			"0.002": 32.1913925232,
			"0.003": 16.3739971396,
			"0.004": 15.0601566998,
			"0.005": 13.1590687528,
			"0.006": 2.60018270957,
			"0.007": 3.58247022963,
			"0.008": 2.85842594662,
			"0.009": 2.90860712192,
			"0.01": 4.18909940981,
			"0.011": 5.22651357893,
			"0.012": 2.24167532639,
			"0.013": 0.0204604614879,
			"0.014": 0.0,
			"0.015": 0.0,
			"0.016": 0.0,
			"0.017": 0.0,
			"0.018": 0.0,
			"0.019": 0.0,
			"0.02": 0.0,
			"0.021": 0.0,
			"0.022": 0.0,
			"0.023": 0.0,
			"0.024": 0.0,
			"0.025": 0.0
		}
	}
}
