{
	 "smiles": "CC(=O)N1CCN(CC1)C(=O)CCl", 
	 "Tm": 363.15, 
	 "num_atms": 26, 
	 "gaussian": { 
		 "optdone": 1, 
		 "sigma_profile": "yes", 
		 "theory": "DFT", 
		 "functional": "B3LYP", 
		 "basiset": "6-31G**", 
		 "properties": { 
			 "R2extent": 4039.7298, 
			 "electric_dipole_moment_norm": 4.19174769875, 
			 "electric_quadrupole_moment_norm": 14.1753216563, 
			 "total_energy": -1032.84797565, 
			 "HOMO_LUMO_gap": 0.21668, 
			 "cosmo_polarized_energy": -18.45, 
			 "cosmo_cavitation_energy": 29.77, 
			 "cosmo_dispersion_energy": -21.57, 
			 "cosmo_repulsion_energy": 1.72, 
			 "cosmo_total_nonelectrostatic_energy": 9.92, 
			 "SMD_solvation_energy": 4.71 
		},
		"coords": [
			{
				"x": 3.3117699528,
				"y": 0.2494310291,
				"z": -2.2974289546,
				"element": "C" 
			},
			{
				"x": 2.9041442751,
				"y": 0.6019662551,
				"z": -0.87496619,
				"element": "C" 
			},
			{
				"x": 3.6552701692,
				"y": 1.2139457382,
				"z": -0.1232712225,
				"element": "O" 
			},
			{
				"x": 1.6452672338,
				"y": 0.2046123895,
				"z": -0.4785653603,
				"element": "N" 
			},
			{
				"x": 1.2222939456,
				"y": 0.4685460328,
				"z": 0.8982298248,
				"element": "C" 
			},
			{
				"x": 0.54437484,
				"y": -0.7527326122,
				"z": 1.5096859868,
				"element": "C" 
			},
			{
				"x": -0.5679688166,
				"y": -1.2084283566,
				"z": 0.65610875,
				"element": "N" 
			},
			{
				"x": -0.6577061256,
				"y": -0.6303930898,
				"z": -0.683263584,
				"element": "C" 
			},
			{
				"x": 0.7276020064,
				"y": -0.554990516,
				"z": -1.3308435741,
				"element": "C" 
			},
			{
				"x": -1.4112305418,
				"y": -2.1403290969,
				"z": 1.1908058761,
				"element": "C" 
			},
			{
				"x": -1.2674701674,
				"y": -2.5663878734,
				"z": 2.3316155166,
				"element": "O" 
			},
			{
				"x": -2.5887671297,
				"y": -2.6372393498,
				"z": 0.3481229765,
				"element": "C" 
			},
			{
				"x": -2.0694755452,
				"y": -3.7669746704,
				"z": -0.9816979984,
				"element": "Cl" 
			},
			{
				"x": 2.6893523298,
				"y": 0.7733098643,
				"z": -3.0315441385,
				"element": "H" 
			},
			{
				"x": 3.2246995779,
				"y": -0.8236430201,
				"z": -2.4970989459,
				"element": "H" 
			},
			{
				"x": 4.3479693864,
				"y": 0.5582036673,
				"z": -2.4303337258,
				"element": "H" 
			},
			{
				"x": 0.5497647368,
				"y": 1.3368715054,
				"z": 0.9355046951,
				"element": "H" 
			},
			{
				"x": 2.1170247806,
				"y": 0.7294376812,
				"z": 1.464334797,
				"element": "H" 
			},
			{
				"x": 1.2659518798,
				"y": -1.5693039683,
				"z": 1.6338677883,
				"element": "H" 
			},
			{
				"x": 0.1546220543,
				"y": -0.5174201334,
				"z": 2.5041830044,
				"element": "H" 
			},
			{
				"x": -1.1016361835,
				"y": 0.3742555277,
				"z": -0.6435581777,
				"element": "H" 
			},
			{
				"x": -1.2910937849,
				"y": -1.2515683626,
				"z": -1.3150672639,
				"element": "H" 
			},
			{
				"x": 0.6240247752,
				"y": -0.0764138127,
				"z": -2.3113248159,
				"element": "H" 
			},
			{
				"x": 1.0934331193,
				"y": -1.577747135,
				"z": -1.4982055601,
				"element": "H" 
			},
			{
				"x": -3.231622123,
				"y": -3.2107765077,
				"z": 1.0113473337,
				"element": "H" 
			},
			{
				"x": -3.1549946454,
				"y": -1.8324311856,
				"z": -0.1238370374,
				"element": "H" 
			}
		],
		 "valence_orbital": [ 
			{
				"type": "occ",
				"energy": -0.31365,
				"method": "rhf"
			},
			{
				"type": "occ",
				"energy": -0.26213,
				"method": "rhf"
			},
			{
				"type": "occ",
				"energy": -0.25692,
				"method": "rhf"
			},
			{
				"type": "occ",
				"energy": -0.24912,
				"method": "rhf"
			},
			{
				"type": "occ",
				"energy": -0.24402,
				"method": "rhf"
			},
			{
				"type": "unocc",
				"energy": -0.02734,
				"method": "rhf"
			},
			{
				"type": "unocc",
				"energy": 0.02331,
				"method": "rhf"
			},
			{
				"type": "unocc",
				"energy": 0.04553,
				"method": "rhf"
			},
			{
				"type": "unocc",
				"energy": 0.06313,
				"method": "rhf"
			},
			{
				"type": "unocc",
				"energy": 0.08911,
				"method": "rhf"
			}
		],
		"cosmo_sigma_profile": { 
			"-0.025": 0.0,
			"-0.024": 0.0,
			"-0.023": 0.0,
			"-0.022": 0.0,
			"-0.021": 0.0,
			"-0.02": 0.0,
			"-0.019": 0.0,
			"-0.018": 0.0,
			"-0.017": 0.0,
			"-0.016": 0.0,
			"-0.015": 0.0,
			"-0.014": 0.0,
			"-0.013": 0.0,
			"-0.012": 0.0,
			"-0.011": 0.0,
			"-0.01": 0.0066605607276,
			"-0.009": 2.86721715851,
			"-0.008": 4.74776759276,
			"-0.007": 6.4876673844,
			"-0.006": 19.0346984616,
			"-0.005": 29.6702498845,
			"-0.004": 25.3971358124,
			"-0.003": 19.1084140618,
			"-0.002": 15.7638983205,
			"-0.001": 15.3850808791,
			"0.0": 12.1601022878,
			"0.001": 8.97093957509,
			"0.002": 8.26074074354,
			"0.003": 8.05017692663,
			"0.004": 9.08854076412,
			"0.005": 9.79823931451,
			"0.006": 5.54783390916,
			"0.007": 2.91714571477,
			"0.008": 3.17787460823,
			"0.009": 2.64798645518,
			"0.01": 2.29900643483,
			"0.011": 2.77519728798,
			"0.012": 4.31509475443,
			"0.013": 7.80527289126,
			"0.014": 7.4550018713,
			"0.015": 1.75028156318,
			"0.016": 0.0910480396909,
			"0.017": 0.0,
			"0.018": 0.0,
			"0.019": 0.0,
			"0.02": 0.0,
			"0.021": 0.0,
			"0.022": 0.0,
			"0.023": 0.0,
			"0.024": 0.0,
			"0.025": 0.0
		}
	}
}
