{
	 "smiles": "COC(=O)CC1=CC=C(S1)[N+]([O-])=O", 
	 "Tm": 324.15, 
	 "num_atms": 20, 
	 "gaussian": { 
		 "optdone": 1, 
		 "sigma_profile": "yes", 
		 "theory": "DFT", 
		 "functional": "B3LYP", 
		 "basiset": "6-31G**", 
		 "properties": { 
			 "R2extent": 3764.8344, 
			 "electric_dipole_moment_norm": 7.34277202901, 
			 "electric_quadrupole_moment_norm": 13.5636414797, 
			 "total_energy": -1024.68405146, 
			 "HOMO_LUMO_gap": 0.16786, 
			 "cosmo_polarized_energy": -14.69, 
			 "cosmo_cavitation_energy": 27.35, 
			 "cosmo_dispersion_energy": -20.44, 
			 "cosmo_repulsion_energy": 1.59, 
			 "cosmo_total_nonelectrostatic_energy": 8.5, 
			 "SMD_solvation_energy": 8.46 
		},
		"coords": [
			{
				"x": 4.4322816272,
				"y": 0.1132822176,
				"z": 1.2601381021,
				"element": "C" 
			},
			{
				"x": 3.4187423167,
				"y": -0.5263194545,
				"z": 0.458691077,
				"element": "O" 
			},
			{
				"x": 2.167080102,
				"y": -0.0735380822,
				"z": 0.6437874831,
				"element": "C" 
			},
			{
				"x": 1.8708151787,
				"y": 0.8193620569,
				"z": 1.4076129062,
				"element": "O" 
			},
			{
				"x": 1.1751029768,
				"y": -0.8745485151,
				"z": -0.185081813,
				"element": "C" 
			},
			{
				"x": -0.0586417068,
				"y": -0.1282598951,
				"z": -0.6062447368,
				"element": "C" 
			},
			{
				"x": -0.715290359,
				"y": -0.2939374991,
				"z": -1.807898901,
				"element": "C" 
			},
			{
				"x": -1.9043708529,
				"y": 0.4686711731,
				"z": -1.9112152288,
				"element": "C" 
			},
			{
				"x": -2.1216293565,
				"y": 1.1947057052,
				"z": -0.7687176392,
				"element": "C" 
			},
			{
				"x": -0.888080293,
				"y": 0.9930577864,
				"z": 0.4381876533,
				"element": "S" 
			},
			{
				"x": -3.2155817268,
				"y": 2.0917404289,
				"z": -0.5343307436,
				"element": "N" 
			},
			{
				"x": -3.2367298797,
				"y": 2.6845167322,
				"z": 0.549358696,
				"element": "O" 
			},
			{
				"x": -4.0596100727,
				"y": 2.2049762003,
				"z": -1.4257933385,
				"element": "O" 
			},
			{
				"x": 4.2171929649,
				"y": -0.0173378563,
				"z": 2.323182053,
				"element": "H" 
			},
			{
				"x": 4.4775395953,
				"y": 1.1810744402,
				"z": 1.0348392787,
				"element": "H" 
			},
			{
				"x": 5.3676345024,
				"y": -0.3768646981,
				"z": 0.9927395193,
				"element": "H" 
			},
			{
				"x": 1.6787925359,
				"y": -1.2806404154,
				"z": -1.0658869863,
				"element": "H" 
			},
			{
				"x": 0.8973729819,
				"y": -1.7395408136,
				"z": 0.4362225277,
				"element": "H" 
			},
			{
				"x": -0.3519601787,
				"y": -0.951988955,
				"z": -2.589566882,
				"element": "H" 
			},
			{
				"x": -2.568260356,
				"y": 0.5001894436,
				"z": -2.764823027,
				"element": "H" 
			}
		],
		 "valence_orbital": [ 
			{
				"type": "occ",
				"energy": -0.30346,
				"method": "rhf"
			},
			{
				"type": "occ",
				"energy": -0.29672,
				"method": "rhf"
			},
			{
				"type": "occ",
				"energy": -0.28547,
				"method": "rhf"
			},
			{
				"type": "occ",
				"energy": -0.27287,
				"method": "rhf"
			},
			{
				"type": "occ",
				"energy": -0.2573,
				"method": "rhf"
			},
			{
				"type": "unocc",
				"energy": -0.08944,
				"method": "rhf"
			},
			{
				"type": "unocc",
				"energy": -0.01343,
				"method": "rhf"
			},
			{
				"type": "unocc",
				"energy": -0.00348,
				"method": "rhf"
			},
			{
				"type": "unocc",
				"energy": 0.02379,
				"method": "rhf"
			},
			{
				"type": "unocc",
				"energy": 0.05409,
				"method": "rhf"
			}
		],
		"cosmo_sigma_profile": { 
			"-0.025": 0.0,
			"-0.024": 0.0,
			"-0.023": 0.0,
			"-0.022": 0.0,
			"-0.021": 0.0,
			"-0.02": 0.0,
			"-0.019": 0.0,
			"-0.018": 0.0,
			"-0.017": 0.0,
			"-0.016": 0.0,
			"-0.015": 0.0,
			"-0.014": 0.0,
			"-0.013": 0.0,
			"-0.012": 0.0,
			"-0.011": 0.0,
			"-0.01": 0.18881449339,
			"-0.009": 4.52304309078,
			"-0.008": 8.35796966659,
			"-0.007": 10.2214385293,
			"-0.006": 13.286190191,
			"-0.005": 17.1148213558,
			"-0.004": 17.9031841359,
			"-0.003": 14.3571919246,
			"-0.002": 11.0325727086,
			"-0.001": 13.0283378805,
			"0.0": 16.5092380755,
			"0.001": 15.3390012072,
			"0.002": 13.1611609134,
			"0.003": 6.65786234681,
			"0.004": 7.01424237087,
			"0.005": 5.44397134922,
			"0.006": 6.41239655851,
			"0.007": 9.90884603894,
			"0.008": 13.1435975182,
			"0.009": 6.88062454563,
			"0.01": 6.14102857298,
			"0.011": 3.35761739409,
			"0.012": 0.413171077138,
			"0.013": 0.0,
			"0.014": 0.0,
			"0.015": 0.0,
			"0.016": 0.0,
			"0.017": 0.0,
			"0.018": 0.0,
			"0.019": 0.0,
			"0.02": 0.0,
			"0.021": 0.0,
			"0.022": 0.0,
			"0.023": 0.0,
			"0.024": 0.0,
			"0.025": 0.0
		}
	}
}
