{
	 "smiles": "CCOC(=O)C1=C(NC(=S)NCC=C)SC2=C1CCCC2", 
	 "Tm": 425.15, 
	 "num_atms": 41, 
	 "gaussian": { 
		 "optdone": 1, 
		 "sigma_profile": "yes", 
		 "theory": "DFT", 
		 "functional": "B3LYP", 
		 "basiset": "6-31G**", 
		 "properties": { 
			 "R2extent": 8841.0191, 
			 "electric_dipole_moment_norm": 3.89597861775, 
			 "electric_quadrupole_moment_norm": 20.3815168523, 
			 "total_energy": -1639.98921461, 
			 "HOMO_LUMO_gap": 0.14925, 
			 "cosmo_polarized_energy": -15.46, 
			 "cosmo_cavitation_energy": 45.99, 
			 "cosmo_dispersion_energy": -32.35, 
			 "cosmo_repulsion_energy": 2.46, 
			 "cosmo_total_nonelectrostatic_energy": 16.09, 
			 "SMD_solvation_energy": 7.08 
		},
		"coords": [
			{
				"x": 4.1771939261,
				"y": 0.6017606911,
				"z": -3.003146868,
				"element": "C" 
			},
			{
				"x": 4.0043278569,
				"y": -0.0057291356,
				"z": -1.6201105607,
				"element": "C" 
			},
			{
				"x": 2.6626919154,
				"y": 0.2131508141,
				"z": -1.1118087239,
				"element": "O" 
			},
			{
				"x": 1.7065790437,
				"y": -0.6914850344,
				"z": -1.4752552064,
				"element": "C" 
			},
			{
				"x": 1.9560509178,
				"y": -1.6380389868,
				"z": -2.1996688704,
				"element": "O" 
			},
			{
				"x": 0.3789478708,
				"y": -0.3841419193,
				"z": -0.9121063061,
				"element": "C" 
			},
			{
				"x": 0.0957886279,
				"y": 0.6416867912,
				"z": -0.0102389056,
				"element": "C" 
			},
			{
				"x": 0.9945086476,
				"y": 1.5730314444,
				"z": 0.4772667835,
				"element": "N" 
			},
			{
				"x": 0.9659097325,
				"y": 2.430662891,
				"z": 1.5623339112,
				"element": "C" 
			},
			{
				"x": 2.1753427513,
				"y": 3.5927366433,
				"z": 1.6913034373,
				"element": "S" 
			},
			{
				"x": -0.0485688475,
				"y": 2.2608667793,
				"z": 2.4441182647,
				"element": "N" 
			},
			{
				"x": -0.2611667279,
				"y": 3.0684865694,
				"z": 3.6346059319,
				"element": "C" 
			},
			{
				"x": 0.0192171935,
				"y": 2.3493257112,
				"z": 4.9304297989,
				"element": "C" 
			},
			{
				"x": 0.6031234155,
				"y": 1.1596677654,
				"z": 5.0631842329,
				"element": "C" 
			},
			{
				"x": -1.6219745558,
				"y": 0.7072451942,
				"z": 0.3388600848,
				"element": "S" 
			},
			{
				"x": -1.9410847104,
				"y": -0.6827329026,
				"z": -0.6808244873,
				"element": "C" 
			},
			{
				"x": -0.804040868,
				"y": -1.1455978412,
				"z": -1.2745367847,
				"element": "C" 
			},
			{
				"x": -0.8451252238,
				"y": -2.3381741195,
				"z": -2.2049539166,
				"element": "C" 
			},
			{
				"x": -2.1759615405,
				"y": -3.1026330585,
				"z": -2.0994291819,
				"element": "C" 
			},
			{
				"x": -3.3842212144,
				"y": -2.1580595907,
				"z": -2.0694263318,
				"element": "C" 
			},
			{
				"x": -3.3289127259,
				"y": -1.2423426541,
				"z": -0.833757206,
				"element": "C" 
			},
			{
				"x": 3.9388243332,
				"y": 1.6693417137,
				"z": -2.9934117726,
				"element": "H" 
			},
			{
				"x": 3.5323473625,
				"y": 0.0986338068,
				"z": -3.7275186678,
				"element": "H" 
			},
			{
				"x": 5.2162837752,
				"y": 0.485851155,
				"z": -3.328845684,
				"element": "H" 
			},
			{
				"x": 4.1984437767,
				"y": -1.0799750404,
				"z": -1.6299184535,
				"element": "H" 
			},
			{
				"x": 4.6503743552,
				"y": 0.4772772093,
				"z": -0.8837671767,
				"element": "H" 
			},
			{
				"x": 1.8713485574,
				"y": 1.5985674752,
				"z": -0.033836512,
				"element": "H" 
			},
			{
				"x": -0.6026262304,
				"y": 1.4155816534,
				"z": 2.3806164207,
				"element": "H" 
			},
			{
				"x": 0.3828338054,
				"y": 3.9492252254,
				"z": 3.5428819281,
				"element": "H" 
			},
			{
				"x": -1.3006535529,
				"y": 3.4254817784,
				"z": 3.6331355206,
				"element": "H" 
			},
			{
				"x": -0.299043719,
				"y": 2.896039723,
				"z": 5.8176748307,
				"element": "H" 
			},
			{
				"x": 0.7714335941,
				"y": 0.7219592154,
				"z": 6.041780162,
				"element": "H" 
			},
			{
				"x": 0.9472974788,
				"y": 0.5881157053,
				"z": 4.2060815243,
				"element": "H" 
			},
			{
				"x": -0.6862949528,
				"y": -1.9918224072,
				"z": -3.2352580617,
				"element": "H" 
			},
			{
				"x": -0.0022760003,
				"y": -3.0002907373,
				"z": -1.9962591881,
				"element": "H" 
			},
			{
				"x": -2.174962258,
				"y": -3.7092077082,
				"z": -1.1837169405,
				"element": "H" 
			},
			{
				"x": -2.2595762207,
				"y": -3.802868903,
				"z": -2.9376625855,
				"element": "H" 
			},
			{
				"x": -4.321215347,
				"y": -2.7256129377,
				"z": -2.0636358466,
				"element": "H" 
			},
			{
				"x": -3.3890904649,
				"y": -1.5410347652,
				"z": -2.977091576,
				"element": "H" 
			},
			{
				"x": -3.6076913163,
				"y": -1.8123938171,
				"z": 0.0646454549,
				"element": "H" 
			},
			{
				"x": -4.0660824612,
				"y": -0.4352543963,
				"z": -0.9253324721,
				"element": "H" 
			}
		],
		 "valence_orbital": [ 
			{
				"type": "occ",
				"energy": -0.26675,
				"method": "rhf"
			},
			{
				"type": "occ",
				"energy": -0.26123,
				"method": "rhf"
			},
			{
				"type": "occ",
				"energy": -0.22984,
				"method": "rhf"
			},
			{
				"type": "occ",
				"energy": -0.2105,
				"method": "rhf"
			},
			{
				"type": "occ",
				"energy": -0.20331,
				"method": "rhf"
			},
			{
				"type": "unocc",
				"energy": -0.05406,
				"method": "rhf"
			},
			{
				"type": "unocc",
				"energy": 0.00229,
				"method": "rhf"
			},
			{
				"type": "unocc",
				"energy": 0.00606,
				"method": "rhf"
			},
			{
				"type": "unocc",
				"energy": 0.01425,
				"method": "rhf"
			},
			{
				"type": "unocc",
				"energy": 0.01666,
				"method": "rhf"
			}
		],
		"cosmo_sigma_profile": { 
			"-0.025": 0.0,
			"-0.024": 0.0,
			"-0.023": 0.0,
			"-0.022": 0.0,
			"-0.021": 0.0,
			"-0.02": 0.0,
			"-0.019": 0.0,
			"-0.018": 0.0,
			"-0.017": 0.0,
			"-0.016": 0.0,
			"-0.015": 0.0,
			"-0.014": 0.0,
			"-0.013": 0.0,
			"-0.012": 0.00822691403413,
			"-0.011": 0.987596862385,
			"-0.01": 1.94235677742,
			"-0.009": 1.72208098479,
			"-0.008": 1.41898710672,
			"-0.007": 1.97652518039,
			"-0.006": 9.34237622909,
			"-0.005": 20.5228507852,
			"-0.004": 28.1473614893,
			"-0.003": 40.9414954566,
			"-0.002": 45.8076612974,
			"-0.001": 47.7729701219,
			"0.0": 42.3843929911,
			"0.001": 26.5626534888,
			"0.002": 18.6604805452,
			"0.003": 14.05124051,
			"0.004": 9.60552658433,
			"0.005": 7.8897189432,
			"0.006": 8.76983896128,
			"0.007": 7.03405227199,
			"0.008": 6.38160580205,
			"0.009": 6.92708805482,
			"0.01": 8.88966896032,
			"0.011": 6.98947897977,
			"0.012": 2.78011439849,
			"0.013": 0.144800916541,
			"0.014": 0.0,
			"0.015": 0.0,
			"0.016": 0.0,
			"0.017": 0.0,
			"0.018": 0.0,
			"0.019": 0.0,
			"0.02": 0.0,
			"0.021": 0.0,
			"0.022": 0.0,
			"0.023": 0.0,
			"0.024": 0.0,
			"0.025": 0.0
		}
	}
}
