{
	 "smiles": "COC1=C2OCC(=CC2=CC=C1)C(O)=O", 
	 "Tm": 513.15, 
	 "num_atms": 25, 
	 "gaussian": { 
		 "optdone": 1, 
		 "sigma_profile": "yes", 
		 "theory": "DFT", 
		 "functional": "B3LYP", 
		 "basiset": "6-31G**", 
		 "properties": { 
			 "R2extent": 4163.1581, 
			 "electric_dipole_moment_norm": 3.62475257638, 
			 "electric_quadrupole_moment_norm": 22.3239746354, 
			 "total_energy": -726.060631224, 
			 "HOMO_LUMO_gap": 0.14883, 
			 "cosmo_polarized_energy": -16.14, 
			 "cosmo_cavitation_energy": 29.11, 
			 "cosmo_dispersion_energy": -21.39, 
			 "cosmo_repulsion_energy": 1.66, 
			 "cosmo_total_nonelectrostatic_energy": 9.38, 
			 "SMD_solvation_energy": 6.93 
		},
		"coords": [
			{
				"x": -0.7661605523,
				"y": -1.3807120734,
				"z": 2.9042477334,
				"element": "C" 
			},
			{
				"x": -1.9127152606,
				"y": -1.0220189974,
				"z": 2.1264079008,
				"element": "O" 
			},
			{
				"x": -1.7282476704,
				"y": -0.4520891698,
				"z": 0.899671331,
				"element": "C" 
			},
			{
				"x": -0.8349139524,
				"y": 0.6028436499,
				"z": 0.6392634937,
				"element": "C" 
			},
			{
				"x": -0.1094033507,
				"y": 1.1318813769,
				"z": 1.6697132978,
				"element": "O" 
			},
			{
				"x": 1.1424583409,
				"y": 1.7471000757,
				"z": 1.3227960543,
				"element": "C" 
			},
			{
				"x": 1.008205627,
				"y": 2.6498055415,
				"z": 0.1191182935,
				"element": "C" 
			},
			{
				"x": 0.1159122379,
				"y": 2.3087346567,
				"z": -0.8336057704,
				"element": "C" 
			},
			{
				"x": -0.7662092306,
				"y": 1.1684463023,
				"z": -0.653091272,
				"element": "C" 
			},
			{
				"x": -1.588807884,
				"y": 0.6766841006,
				"z": -1.6779432667,
				"element": "C" 
			},
			{
				"x": -2.4726357777,
				"y": -0.3660163893,
				"z": -1.4215597741,
				"element": "C" 
			},
			{
				"x": -2.536014844,
				"y": -0.9219992549,
				"z": -0.1430543406,
				"element": "C" 
			},
			{
				"x": 1.9924363717,
				"y": 3.7535673792,
				"z": 0.0176023737,
				"element": "C" 
			},
			{
				"x": 1.7611886104,
				"y": 4.7297035403,
				"z": -0.9008926697,
				"element": "O" 
			},
			{
				"x": 2.9858921608,
				"y": 3.7927756342,
				"z": 0.7113727077,
				"element": "O" 
			},
			{
				"x": -1.1309423402,
				"y": -2.0790651476,
				"z": 3.6603593806,
				"element": "H" 
			},
			{
				"x": -0.3161502468,
				"y": -0.5111656281,
				"z": 3.3871314542,
				"element": "H" 
			},
			{
				"x": -0.0121479886,
				"y": -1.8826789323,
				"z": 2.2856768603,
				"element": "H" 
			},
			{
				"x": 1.4568643026,
				"y": 2.3075321636,
				"z": 2.203441242,
				"element": "H" 
			},
			{
				"x": 1.895865512,
				"y": 0.9656525188,
				"z": 1.1344359405,
				"element": "H" 
			},
			{
				"x": 0.0303944757,
				"y": 2.8622861049,
				"z": -1.767224535,
				"element": "H" 
			},
			{
				"x": -1.5292945048,
				"y": 1.123849235,
				"z": -2.666334655,
				"element": "H" 
			},
			{
				"x": -3.1086210198,
				"y": -0.7533624168,
				"z": -2.2109289072,
				"element": "H" 
			},
			{
				"x": -3.2123428704,
				"y": -1.7401523076,
				"z": 0.0822165916,
				"element": "H" 
			},
			{
				"x": 0.8578898544,
				"y": 4.6587980374,
				"z": -1.2392194642,
				"element": "H" 
			}
		],
		 "valence_orbital": [ 
			{
				"type": "occ",
				"energy": -0.31151,
				"method": "rhf"
			},
			{
				"type": "occ",
				"energy": -0.29175,
				"method": "rhf"
			},
			{
				"type": "occ",
				"energy": -0.27644,
				"method": "rhf"
			},
			{
				"type": "occ",
				"energy": -0.23494,
				"method": "rhf"
			},
			{
				"type": "occ",
				"energy": -0.2237,
				"method": "rhf"
			},
			{
				"type": "unocc",
				"energy": -0.07487,
				"method": "rhf"
			},
			{
				"type": "unocc",
				"energy": -0.00243,
				"method": "rhf"
			},
			{
				"type": "unocc",
				"energy": 0.01235,
				"method": "rhf"
			},
			{
				"type": "unocc",
				"energy": 0.05329,
				"method": "rhf"
			},
			{
				"type": "unocc",
				"energy": 0.065,
				"method": "rhf"
			}
		],
		"cosmo_sigma_profile": { 
			"-0.025": 0.0,
			"-0.024": 0.0,
			"-0.023": 0.0,
			"-0.022": 0.0,
			"-0.021": 0.0,
			"-0.02": 0.0,
			"-0.019": 0.364827662365,
			"-0.018": 0.986034301135,
			"-0.017": 1.25767467326,
			"-0.016": 0.733416329126,
			"-0.015": 0.765054197918,
			"-0.014": 1.29603690393,
			"-0.013": 1.1482992049,
			"-0.012": 0.940450965034,
			"-0.011": 1.27889520259,
			"-0.01": 1.51031667857,
			"-0.009": 1.76429770177,
			"-0.008": 2.88307711111,
			"-0.007": 4.04449344805,
			"-0.006": 10.6862776383,
			"-0.005": 16.4831116097,
			"-0.004": 19.0264289924,
			"-0.003": 19.9596649691,
			"-0.002": 18.3019141882,
			"-0.001": 12.7958038113,
			"0.0": 12.8549574021,
			"0.001": 14.4134064626,
			"0.002": 14.5865688179,
			"0.003": 14.4396504164,
			"0.004": 12.5437881978,
			"0.005": 8.81905887388,
			"0.006": 4.88353047897,
			"0.007": 4.26438864281,
			"0.008": 4.61954065764,
			"0.009": 5.56310352703,
			"0.01": 5.85231402564,
			"0.011": 6.30888398186,
			"0.012": 5.00758654464,
			"0.013": 1.75153106002,
			"0.014": 0.148066490019,
			"0.015": 0.0,
			"0.016": 0.0,
			"0.017": 0.0,
			"0.018": 0.0,
			"0.019": 0.0,
			"0.02": 0.0,
			"0.021": 0.0,
			"0.022": 0.0,
			"0.023": 0.0,
			"0.024": 0.0,
			"0.025": 0.0
		}
	}
}
