{
	 "smiles": "CC1=CC2=C(NC=C2CCC(O)=O)C=C1", 
	 "Tm": 400.15, 
	 "num_atms": 28, 
	 "gaussian": { 
		 "optdone": 1, 
		 "sigma_profile": "yes", 
		 "theory": "DFT", 
		 "functional": "B3LYP", 
		 "basiset": "6-31G**", 
		 "properties": { 
			 "R2extent": 3757.6193, 
			 "electric_dipole_moment_norm": 3.67639232536, 
			 "electric_quadrupole_moment_norm": 25.5568177231, 
			 "total_energy": -670.332882489, 
			 "HOMO_LUMO_gap": 0.19217, 
			 "cosmo_polarized_energy": -19.71, 
			 "cosmo_cavitation_energy": 31.68, 
			 "cosmo_dispersion_energy": -22.45, 
			 "cosmo_repulsion_energy": 1.77, 
			 "cosmo_total_nonelectrostatic_energy": 11.0, 
			 "SMD_solvation_energy": 5.97 
		},
		"coords": [
			{
				"x": 0.3479969254,
				"y": 1.4345803149,
				"z": 4.3323380466,
				"element": "C" 
			},
			{
				"x": 0.7299674583,
				"y": 1.3417011438,
				"z": 2.87221821,
				"element": "C" 
			},
			{
				"x": -0.2003334566,
				"y": 0.9615535762,
				"z": 1.9096924772,
				"element": "C" 
			},
			{
				"x": 0.177314507,
				"y": 0.8786358538,
				"z": 0.5566788861,
				"element": "C" 
			},
			{
				"x": 1.5155447172,
				"y": 1.1886355064,
				"z": 0.198203046,
				"element": "C" 
			},
			{
				"x": 1.6188808083,
				"y": 1.0365941109,
				"z": -1.1697930972,
				"element": "N" 
			},
			{
				"x": 0.3979701599,
				"y": 0.6394825923,
				"z": -1.6766288777,
				"element": "C" 
			},
			{
				"x": -0.5199625346,
				"y": 0.5331775187,
				"z": -0.6583383095,
				"element": "C" 
			},
			{
				"x": -1.9517857559,
				"y": 0.0917272724,
				"z": -0.7768482124,
				"element": "C" 
			},
			{
				"x": -2.1409121041,
				"y": -1.4443076915,
				"z": -0.7271535143,
				"element": "C" 
			},
			{
				"x": -1.4365332106,
				"y": -2.1993798197,
				"z": -1.8477260145,
				"element": "C" 
			},
			{
				"x": -1.6811623136,
				"y": -1.7435930331,
				"z": -3.1137516342,
				"element": "O" 
			},
			{
				"x": -0.7163121718,
				"y": -3.15023785,
				"z": -1.6862966876,
				"element": "O" 
			},
			{
				"x": 2.4654221042,
				"y": 1.5737947089,
				"z": 1.1504140443,
				"element": "C" 
			},
			{
				"x": 2.0565810299,
				"y": 1.6428809013,
				"z": 2.4749197735,
				"element": "C" 
			},
			{
				"x": -0.7066955967,
				"y": 1.1882908434,
				"z": 4.4847896215,
				"element": "H" 
			},
			{
				"x": 0.5143691815,
				"y": 2.4434466596,
				"z": 4.7285991582,
				"element": "H" 
			},
			{
				"x": 0.9413362608,
				"y": 0.7477337789,
				"z": 4.9478142516,
				"element": "H" 
			},
			{
				"x": -1.2193540635,
				"y": 0.7277532157,
				"z": 2.2098244645,
				"element": "H" 
			},
			{
				"x": 2.4577427097,
				"y": 1.1633039167,
				"z": -1.7115919875,
				"element": "H" 
			},
			{
				"x": 0.2776126451,
				"y": 0.4484068474,
				"z": -2.7338735763,
				"element": "H" 
			},
			{
				"x": -2.3957852161,
				"y": 0.4973696661,
				"z": -1.697634059,
				"element": "H" 
			},
			{
				"x": -2.5414877669,
				"y": 0.5298575995,
				"z": 0.0359865359,
				"element": "H" 
			},
			{
				"x": -1.7524935472,
				"y": -1.845824516,
				"z": 0.2104651055,
				"element": "H" 
			},
			{
				"x": -3.2123109782,
				"y": -1.6864272794,
				"z": -0.7743760547,
				"element": "H" 
			},
			{
				"x": -2.3029343704,
				"y": -1.0028031198,
				"z": -3.0844668272,
				"element": "H" 
			},
			{
				"x": 3.4877538538,
				"y": 1.809210272,
				"z": 0.8676044143,
				"element": "H" 
			},
			{
				"x": 2.7761707252,
				"y": 1.9378370107,
				"z": 3.2346308168,
				"element": "H" 
			}
		],
		 "valence_orbital": [ 
			{
				"type": "occ",
				"energy": -0.31049,
				"method": "rhf"
			},
			{
				"type": "occ",
				"energy": -0.27231,
				"method": "rhf"
			},
			{
				"type": "occ",
				"energy": -0.26193,
				"method": "rhf"
			},
			{
				"type": "occ",
				"energy": -0.21401,
				"method": "rhf"
			},
			{
				"type": "occ",
				"energy": -0.20134,
				"method": "rhf"
			},
			{
				"type": "unocc",
				"energy": -0.00917,
				"method": "rhf"
			},
			{
				"type": "unocc",
				"energy": 0.0143,
				"method": "rhf"
			},
			{
				"type": "unocc",
				"energy": 0.02819,
				"method": "rhf"
			},
			{
				"type": "unocc",
				"energy": 0.03959,
				"method": "rhf"
			},
			{
				"type": "unocc",
				"energy": 0.06958,
				"method": "rhf"
			}
		],
		"cosmo_sigma_profile": { 
			"-0.025": 0.0,
			"-0.024": 0.0,
			"-0.023": 0.0,
			"-0.022": 0.0,
			"-0.021": 0.0,
			"-0.02": 0.0,
			"-0.019": 0.0,
			"-0.018": 0.704689891054,
			"-0.017": 0.696010651732,
			"-0.016": 1.85127195369,
			"-0.015": 2.32060785849,
			"-0.014": 2.19225486542,
			"-0.013": 1.49237092973,
			"-0.012": 2.96439327042,
			"-0.011": 2.67298044912,
			"-0.01": 1.91353219983,
			"-0.009": 2.87460894651,
			"-0.008": 3.79420897116,
			"-0.007": 6.09387487018,
			"-0.006": 7.93431235067,
			"-0.005": 10.118291095,
			"-0.004": 18.8187409297,
			"-0.003": 21.3177872655,
			"-0.002": 21.2370839864,
			"-0.001": 16.1995932005,
			"0.0": 15.4413634414,
			"0.001": 13.9009724181,
			"0.002": 9.36719830483,
			"0.003": 11.0365580146,
			"0.004": 10.6732909321,
			"0.005": 14.5830788767,
			"0.006": 13.0703060361,
			"0.007": 10.7349084073,
			"0.008": 4.26261494538,
			"0.009": 3.25003471343,
			"0.01": 3.64291944057,
			"0.011": 6.19800192907,
			"0.012": 5.96784986745,
			"0.013": 2.90613483041,
			"0.014": 0.151635884409,
			"0.015": 0.0,
			"0.016": 0.0,
			"0.017": 0.0,
			"0.018": 0.0,
			"0.019": 0.0,
			"0.02": 0.0,
			"0.021": 0.0,
			"0.022": 0.0,
			"0.023": 0.0,
			"0.024": 0.0,
			"0.025": 0.0
		}
	}
}
