{
	 "smiles": "NC1=C2C(=O)C3=CC=CC=C3C(=O)C2=C(N)C(OC2=CC=CC=C2)=C1OC1=CC=CC=C1", 
	 "Tm": 468.15, 
	 "num_atms": 50, 
	 "gaussian": { 
		 "optdone": 1, 
		 "sigma_profile": "yes", 
		 "theory": "DFT", 
		 "functional": "B3LYP", 
		 "basiset": "6-31G**", 
		 "properties": { 
			 "R2extent": 14927.5924, 
			 "electric_dipole_moment_norm": 2.83121545277, 
			 "electric_quadrupole_moment_norm": 12.0252045093, 
			 "total_energy": -1412.03459329, 
			 "HOMO_LUMO_gap": 0.0962, 
			 "cosmo_polarized_energy": -15.59, 
			 "cosmo_cavitation_energy": 53.88, 
			 "cosmo_dispersion_energy": -36.89, 
			 "cosmo_repulsion_energy": 2.72, 
			 "cosmo_total_nonelectrostatic_energy": 19.71, 
			 "SMD_solvation_energy": 9.03 
		},
		"coords": [
			{
				"x": 0.1815203506,
				"y": -1.5827656544,
				"z": 3.041087131,
				"element": "N" 
			},
			{
				"x": 0.2122021731,
				"y": -0.616294848,
				"z": 2.0897579,
				"element": "C" 
			},
			{
				"x": 0.0617101367,
				"y": 0.7654133783,
				"z": 2.3593446571,
				"element": "C" 
			},
			{
				"x": -0.1051710975,
				"y": 1.2022006025,
				"z": 3.7477492584,
				"element": "C" 
			},
			{
				"x": -0.1055055195,
				"y": 0.4095234317,
				"z": 4.7094626152,
				"element": "O" 
			},
			{
				"x": -0.2819889166,
				"y": 2.6544410213,
				"z": 4.008729452,
				"element": "C" 
			},
			{
				"x": -0.4465329268,
				"y": 3.0965713584,
				"z": 5.3289254866,
				"element": "C" 
			},
			{
				"x": -0.6195932959,
				"y": 4.4502850003,
				"z": 5.5962142636,
				"element": "C" 
			},
			{
				"x": -0.6308475641,
				"y": 5.378197053,
				"z": 4.5458529,
				"element": "C" 
			},
			{
				"x": -0.4681042551,
				"y": 4.9478857463,
				"z": 3.2334937617,
				"element": "C" 
			},
			{
				"x": -0.2928741528,
				"y": 3.5850094866,
				"z": 2.955456649,
				"element": "C" 
			},
			{
				"x": -0.1144644314,
				"y": 3.1503161686,
				"z": 1.5456334769,
				"element": "C" 
			},
			{
				"x": -0.1265947069,
				"y": 4.0077602474,
				"z": 0.6412692569,
				"element": "O" 
			},
			{
				"x": 0.0702446738,
				"y": 1.7211477943,
				"z": 1.2818172801,
				"element": "C" 
			},
			{
				"x": 0.2611104772,
				"y": 1.2905459311,
				"z": -0.0533077102,
				"element": "C" 
			},
			{
				"x": 0.3166257375,
				"y": 2.1269834375,
				"z": -1.1197792975,
				"element": "N" 
			},
			{
				"x": 0.4330738865,
				"y": -0.1074060711,
				"z": -0.2935638521,
				"element": "C" 
			},
			{
				"x": 0.5549702843,
				"y": -0.5072968508,
				"z": -1.6054991244,
				"element": "O" 
			},
			{
				"x": 1.757182035,
				"y": -1.0412580974,
				"z": -2.0633925676,
				"element": "C" 
			},
			{
				"x": 1.685061303,
				"y": -1.7449087889,
				"z": -3.2664337866,
				"element": "C" 
			},
			{
				"x": 2.8520030574,
				"y": -2.2690912841,
				"z": -3.819773879,
				"element": "C" 
			},
			{
				"x": 4.0803485118,
				"y": -2.0979875392,
				"z": -3.1761684664,
				"element": "C" 
			},
			{
				"x": 4.1328644119,
				"y": -1.3937404788,
				"z": -1.9725791795,
				"element": "C" 
			},
			{
				"x": 2.9739463889,
				"y": -0.8575584859,
				"z": -1.4071968833,
				"element": "C" 
			},
			{
				"x": 0.3801424666,
				"y": -1.0244338636,
				"z": 0.7307415931,
				"element": "C" 
			},
			{
				"x": 0.5859368405,
				"y": -2.3662567367,
				"z": 0.5006508317,
				"element": "O" 
			},
			{
				"x": -0.3727052897,
				"y": -3.1125239346,
				"z": -0.1806733789,
				"element": "C" 
			},
			{
				"x": 0.0653821369,
				"y": -4.3353333348,
				"z": -0.6909580383,
				"element": "C" 
			},
			{
				"x": -0.8441589161,
				"y": -5.1662347045,
				"z": -1.3429477665,
				"element": "C" 
			},
			{
				"x": -2.1785427849,
				"y": -4.7787926966,
				"z": -1.4899582202,
				"element": "C" 
			},
			{
				"x": -2.5980547205,
				"y": -3.5513333035,
				"z": -0.9754200124,
				"element": "C" 
			},
			{
				"x": -1.700959189,
				"y": -2.7093115685,
				"z": -0.3148185569,
				"element": "C" 
			},
			{
				"x": 0.1374359037,
				"y": -1.2683085827,
				"z": 4.004596626,
				"element": "H" 
			},
			{
				"x": 0.4371493566,
				"y": -2.5203769205,
				"z": 2.7788380018,
				"element": "H" 
			},
			{
				"x": -0.4348660639,
				"y": 2.3565750295,
				"z": 6.1215420829,
				"element": "H" 
			},
			{
				"x": -0.7465007562,
				"y": 4.7885082572,
				"z": 6.6206677175,
				"element": "H" 
			},
			{
				"x": -0.7665542713,
				"y": 6.4351346287,
				"z": 4.7567375797,
				"element": "H" 
			},
			{
				"x": -0.471440508,
				"y": 5.643506377,
				"z": 2.4015863742,
				"element": "H" 
			},
			{
				"x": 0.1167563665,
				"y": 3.1049845693,
				"z": -0.9388188434,
				"element": "H" 
			},
			{
				"x": 0.3125849493,
				"y": 1.7257555764,
				"z": -2.0429512667,
				"element": "H" 
			},
			{
				"x": 0.7199138311,
				"y": -1.8727899066,
				"z": -3.7448807694,
				"element": "H" 
			},
			{
				"x": 2.797859942,
				"y": -2.817289899,
				"z": -4.7558539037,
				"element": "H" 
			},
			{
				"x": 4.9869224135,
				"y": -2.5096075863,
				"z": -3.608713076,
				"element": "H" 
			},
			{
				"x": 5.0826672681,
				"y": -1.2523329763,
				"z": -1.4649890969,
				"element": "H" 
			},
			{
				"x": 3.0168188812,
				"y": -0.3052674116,
				"z": -0.4750461641,
				"element": "H" 
			},
			{
				"x": 1.1074564117,
				"y": -4.6125969168,
				"z": -0.572738617,
				"element": "H" 
			},
			{
				"x": -0.5050797497,
				"y": -6.1181749131,
				"z": -1.7411099539,
				"element": "H" 
			},
			{
				"x": -2.8836898439,
				"y": -5.4272955077,
				"z": -2.0004637258,
				"element": "H" 
			},
			{
				"x": -3.6336076301,
				"y": -3.2412733491,
				"z": -1.0815155662,
				"element": "H" 
			},
			{
				"x": -2.0292536051,
				"y": -1.7585028845,
				"z": 0.0900968074,
				"element": "H" 
			}
		],
		 "valence_orbital": [ 
			{
				"type": "occ",
				"energy": -0.2527,
				"method": "rhf"
			},
			{
				"type": "occ",
				"energy": -0.24563,
				"method": "rhf"
			},
			{
				"type": "occ",
				"energy": -0.23299,
				"method": "rhf"
			},
			{
				"type": "occ",
				"energy": -0.23292,
				"method": "rhf"
			},
			{
				"type": "occ",
				"energy": -0.18554,
				"method": "rhf"
			},
			{
				"type": "unocc",
				"energy": -0.08934,
				"method": "rhf"
			},
			{
				"type": "unocc",
				"energy": -0.03713,
				"method": "rhf"
			},
			{
				"type": "unocc",
				"energy": -0.01532,
				"method": "rhf"
			},
			{
				"type": "unocc",
				"energy": -0.00946,
				"method": "rhf"
			},
			{
				"type": "unocc",
				"energy": -0.00733,
				"method": "rhf"
			}
		],
		"cosmo_sigma_profile": { 
			"-0.025": 0.0,
			"-0.024": 0.0,
			"-0.023": 0.0,
			"-0.022": 0.0,
			"-0.021": 0.0,
			"-0.02": 0.0,
			"-0.019": 0.0,
			"-0.018": 0.0,
			"-0.017": 0.0,
			"-0.016": 0.0,
			"-0.015": 0.0,
			"-0.014": 0.00131665605789,
			"-0.013": 0.70654869882,
			"-0.012": 1.6242708097,
			"-0.011": 1.39620033393,
			"-0.01": 1.44115821001,
			"-0.009": 2.52489845611,
			"-0.008": 3.98737096998,
			"-0.007": 6.94489850902,
			"-0.006": 25.075218235,
			"-0.005": 31.9986586919,
			"-0.004": 33.9632663772,
			"-0.003": 27.6359217523,
			"-0.002": 28.361825855,
			"-0.001": 29.7508833656,
			"0.0": 28.8043210197,
			"0.001": 36.0404271264,
			"0.002": 41.4471734792,
			"0.003": 40.2627850386,
			"0.004": 32.3186236724,
			"0.005": 24.7083743097,
			"0.006": 11.9213517871,
			"0.007": 6.23495265631,
			"0.008": 2.3713983308,
			"0.009": 3.81355114968,
			"0.01": 3.1258894082,
			"0.011": 3.89562625673,
			"0.012": 3.38968362603,
			"0.013": 0.189645645498,
			"0.014": 0.0,
			"0.015": 0.0,
			"0.016": 0.0,
			"0.017": 0.0,
			"0.018": 0.0,
			"0.019": 0.0,
			"0.02": 0.0,
			"0.021": 0.0,
			"0.022": 0.0,
			"0.023": 0.0,
			"0.024": 0.0,
			"0.025": 0.0
		}
	}
}
