{
	 "smiles": "CC1=CC2=NN=C(N)N2C=C1", 
	 "Tm": 561.15, 
	 "num_atms": 19, 
	 "gaussian": { 
		 "optdone": 1, 
		 "sigma_profile": "yes", 
		 "theory": "DFT", 
		 "functional": "B3LYP", 
		 "basiset": "6-31G**", 
		 "properties": { 
			 "R2extent": 2289.8065, 
			 "electric_dipole_moment_norm": 5.25324676177, 
			 "electric_quadrupole_moment_norm": 25.7224018908, 
			 "total_energy": -490.5479966, 
			 "HOMO_LUMO_gap": 0.16497, 
			 "cosmo_polarized_energy": -18.76, 
			 "cosmo_cavitation_energy": 23.07, 
			 "cosmo_dispersion_energy": -17.31, 
			 "cosmo_repulsion_energy": 1.38, 
			 "cosmo_total_nonelectrostatic_energy": 7.14, 
			 "SMD_solvation_energy": 2.34 
		},
		"coords": [
			{
				"x": -0.3980989354,
				"y": 0.5167112157,
				"z": 3.6742183443,
				"element": "C" 
			},
			{
				"x": -0.3265572069,
				"y": -0.1771762747,
				"z": 2.3378359113,
				"element": "C" 
			},
			{
				"x": -0.4898308835,
				"y": -1.5340365365,
				"z": 2.214749357,
				"element": "C" 
			},
			{
				"x": -0.417179418,
				"y": -2.1470548914,
				"z": 0.934768769,
				"element": "C" 
			},
			{
				"x": -0.5151753198,
				"y": -3.4100092358,
				"z": 0.5507084,
				"element": "N" 
			},
			{
				"x": -0.3930828195,
				"y": -3.4273009448,
				"z": -0.8190025906,
				"element": "N" 
			},
			{
				"x": -0.2074561189,
				"y": -2.1958966625,
				"z": -1.2450259825,
				"element": "C" 
			},
			{
				"x": 0.0401471645,
				"y": -1.7701432207,
				"z": -2.5515319031,
				"element": "N" 
			},
			{
				"x": -0.2021937843,
				"y": -1.3257829194,
				"z": -0.1797859557,
				"element": "N" 
			},
			{
				"x": -0.0106713814,
				"y": 0.0346121397,
				"z": -0.0771118953,
				"element": "C" 
			},
			{
				"x": -0.0721779374,
				"y": 0.6073824683,
				"z": 1.1547879908,
				"element": "C" 
			},
			{
				"x": -0.5785215897,
				"y": -0.1947718863,
				"z": 4.4836278336,
				"element": "H" 
			},
			{
				"x": -1.2036980419,
				"y": 1.2605623088,
				"z": 3.6915545865,
				"element": "H" 
			},
			{
				"x": 0.534554689,
				"y": 1.0501677749,
				"z": 3.8933254035,
				"element": "H" 
			},
			{
				"x": -0.6718681659,
				"y": -2.171234841,
				"z": 3.0731331868,
				"element": "H" 
			},
			{
				"x": 0.2063671802,
				"y": -2.5830414316,
				"z": -3.1360749723,
				"element": "H" 
			},
			{
				"x": -0.7343534749,
				"y": -1.2404288573,
				"z": -2.9454937578,
				"element": "H" 
			},
			{
				"x": 0.1967091871,
				"y": 0.5638370183,
				"z": -0.9989190731,
				"element": "H" 
			},
			{
				"x": 0.0822868567,
				"y": 1.6776047765,
				"z": 1.2433363476,
				"element": "H" 
			}
		],
		 "valence_orbital": [ 
			{
				"type": "occ",
				"energy": -0.30523,
				"method": "rhf"
			},
			{
				"type": "occ",
				"energy": -0.2917,
				"method": "rhf"
			},
			{
				"type": "occ",
				"energy": -0.25917,
				"method": "rhf"
			},
			{
				"type": "occ",
				"energy": -0.24336,
				"method": "rhf"
			},
			{
				"type": "occ",
				"energy": -0.20353,
				"method": "rhf"
			},
			{
				"type": "unocc",
				"energy": -0.03856,
				"method": "rhf"
			},
			{
				"type": "unocc",
				"energy": 0.00224,
				"method": "rhf"
			},
			{
				"type": "unocc",
				"energy": 0.06247,
				"method": "rhf"
			},
			{
				"type": "unocc",
				"energy": 0.06846,
				"method": "rhf"
			},
			{
				"type": "unocc",
				"energy": 0.09638,
				"method": "rhf"
			}
		],
		"cosmo_sigma_profile": { 
			"-0.025": 0.0,
			"-0.024": 0.0,
			"-0.023": 0.0,
			"-0.022": 0.0,
			"-0.021": 0.0,
			"-0.02": 0.0,
			"-0.019": 0.0,
			"-0.018": 0.0,
			"-0.017": 0.0,
			"-0.016": 0.0,
			"-0.015": 0.0,
			"-0.014": 0.529098778274,
			"-0.013": 2.58389574216,
			"-0.012": 3.03647715144,
			"-0.011": 3.44345530506,
			"-0.01": 2.82151576027,
			"-0.009": 2.93671341331,
			"-0.008": 4.5740079236,
			"-0.007": 7.06159992557,
			"-0.006": 7.91243682891,
			"-0.005": 10.2612445551,
			"-0.004": 13.4998281087,
			"-0.003": 11.2305274749,
			"-0.002": 12.9128595143,
			"-0.001": 16.5233597767,
			"0.0": 14.4767156514,
			"0.001": 10.6405563701,
			"0.002": 12.7458821473,
			"0.003": 8.21048846901,
			"0.004": 2.61470105828,
			"0.005": 3.00897088706,
			"0.006": 2.61649666403,
			"0.007": 2.14286094682,
			"0.008": 1.55949732084,
			"0.009": 2.43055102209,
			"0.01": 3.32326569717,
			"0.011": 1.9201217239,
			"0.012": 2.92383734481,
			"0.013": 2.87949167268,
			"0.014": 3.75310562442,
			"0.015": 3.88065090054,
			"0.016": 2.48640918912,
			"0.017": 2.14769408969,
			"0.018": 0.877783984212,
			"0.019": 0.0336999662089,
			"0.02": 0.0,
			"0.021": 0.0,
			"0.022": 0.0,
			"0.023": 0.0,
			"0.024": 0.0,
			"0.025": 0.0
		}
	}
}
