{
	 "smiles": "O=CC1=CC=C(S1)C=O", 
	 "Tm": 389.15, 
	 "num_atms": 13, 
	 "gaussian": { 
		 "optdone": 1, 
		 "sigma_profile": "yes", 
		 "theory": "DFT", 
		 "functional": "B3LYP", 
		 "basiset": "6-31G**", 
		 "properties": { 
			 "R2extent": 1797.8563, 
			 "electric_dipole_moment_norm": 1.46097607441, 
			 "electric_quadrupole_moment_norm": 17.2385759496, 
			 "total_energy": -779.644756565, 
			 "HOMO_LUMO_gap": 0.16278, 
			 "cosmo_polarized_energy": -10.25, 
			 "cosmo_cavitation_energy": 20.38, 
			 "cosmo_dispersion_energy": -15.12, 
			 "cosmo_repulsion_energy": 1.18, 
			 "cosmo_total_nonelectrostatic_energy": 6.44, 
			 "SMD_solvation_energy": 5.51 
		},
		"coords": [
			{
				"x": 2.4108922363,
				"y": -0.4417150616,
				"z": 2.5777419369,
				"element": "O" 
			},
			{
				"x": 2.0737268343,
				"y": -1.2120643223,
				"z": 1.6983118694,
				"element": "C" 
			},
			{
				"x": 1.1718771365,
				"y": -0.8298208867,
				"z": 0.6028913068,
				"element": "C" 
			},
			{
				"x": 0.5882851741,
				"y": 0.4099765007,
				"z": 0.4046421418,
				"element": "C" 
			},
			{
				"x": -0.2278860243,
				"y": 0.4530355893,
				"z": -0.7427394675,
				"element": "C" 
			},
			{
				"x": -0.267090004,
				"y": -0.7538858434,
				"z": -1.4200554899,
				"element": "C" 
			},
			{
				"x": 0.7123613262,
				"y": -1.9605172915,
				"z": -0.6373913799,
				"element": "S" 
			},
			{
				"x": -1.0182604871,
				"y": -1.0488983018,
				"z": -2.6481051523,
				"element": "C" 
			},
			{
				"x": -1.710136116,
				"y": -0.2241904994,
				"z": -3.2152758694,
				"element": "O" 
			},
			{
				"x": 2.4363171338,
				"y": -2.2613876716,
				"z": 1.6777877039,
				"element": "H" 
			},
			{
				"x": 0.7641298354,
				"y": 1.2368891908,
				"z": 1.0821172059,
				"element": "H" 
			},
			{
				"x": -0.7802125054,
				"y": 1.3183510304,
				"z": -1.0889155417,
				"element": "H" 
			},
			{
				"x": -0.9168045401,
				"y": -2.0843724328,
				"z": -3.0360092641,
				"element": "H" 
			}
		],
		 "valence_orbital": [ 
			{
				"type": "occ",
				"energy": -0.3768,
				"method": "rhf"
			},
			{
				"type": "occ",
				"energy": -0.2884,
				"method": "rhf"
			},
			{
				"type": "occ",
				"energy": -0.27888,
				"method": "rhf"
			},
			{
				"type": "occ",
				"energy": -0.27165,
				"method": "rhf"
			},
			{
				"type": "occ",
				"energy": -0.26888,
				"method": "rhf"
			},
			{
				"type": "unocc",
				"energy": -0.1061,
				"method": "rhf"
			},
			{
				"type": "unocc",
				"energy": -0.04095,
				"method": "rhf"
			},
			{
				"type": "unocc",
				"energy": -0.00811,
				"method": "rhf"
			},
			{
				"type": "unocc",
				"energy": 0.03333,
				"method": "rhf"
			},
			{
				"type": "unocc",
				"energy": 0.07137,
				"method": "rhf"
			}
		],
		"cosmo_sigma_profile": { 
			"-0.025": 0.0,
			"-0.024": 0.0,
			"-0.023": 0.0,
			"-0.022": 0.0,
			"-0.021": 0.0,
			"-0.02": 0.0,
			"-0.019": 0.0,
			"-0.018": 0.0,
			"-0.017": 0.0,
			"-0.016": 0.0,
			"-0.015": 0.0,
			"-0.014": 0.0,
			"-0.013": 0.0,
			"-0.012": 0.0,
			"-0.011": 0.0,
			"-0.01": 0.0155619338363,
			"-0.009": 4.36299822751,
			"-0.008": 9.05869465668,
			"-0.007": 9.54104168079,
			"-0.006": 9.60099827784,
			"-0.005": 8.48015384376,
			"-0.004": 8.51147796059,
			"-0.003": 9.86720310525,
			"-0.002": 9.26236452591,
			"-0.001": 14.0595114767,
			"0.0": 19.8829711941,
			"0.001": 16.0747786062,
			"0.002": 6.32983656041,
			"0.003": 2.84862697878,
			"0.004": 3.87274366545,
			"0.005": 2.62113017744,
			"0.006": 2.08163150353,
			"0.007": 4.23551375396,
			"0.008": 3.74571601336,
			"0.009": 3.73812975901,
			"0.01": 7.0900721735,
			"0.011": 8.12663429257,
			"0.012": 3.16913700952,
			"0.013": 0.185783739288,
			"0.014": 0.0,
			"0.015": 0.0,
			"0.016": 0.0,
			"0.017": 0.0,
			"0.018": 0.0,
			"0.019": 0.0,
			"0.02": 0.0,
			"0.021": 0.0,
			"0.022": 0.0,
			"0.023": 0.0,
			"0.024": 0.0,
			"0.025": 0.0
		}
	}
}
