{
	 "smiles": "CC(=O)NCC1=CC=C(C=C1)C(=O)CCl", 
	 "Tm": 413.15, 
	 "num_atms": 27, 
	 "gaussian": { 
		 "optdone": 1, 
		 "sigma_profile": "yes", 
		 "theory": "DFT", 
		 "functional": "B3LYP", 
		 "basiset": "6-31G**", 
		 "properties": { 
			 "R2extent": 5802.3243, 
			 "electric_dipole_moment_norm": 2.58453588484, 
			 "electric_quadrupole_moment_norm": 23.9351986773, 
			 "total_energy": -1091.80940566, 
			 "HOMO_LUMO_gap": 0.17437, 
			 "cosmo_polarized_energy": -18.19, 
			 "cosmo_cavitation_energy": 33.21, 
			 "cosmo_dispersion_energy": -23.43, 
			 "cosmo_repulsion_energy": 1.86, 
			 "cosmo_total_nonelectrostatic_energy": 11.64, 
			 "SMD_solvation_energy": 6.38 
		},
		"coords": [
			{
				"x": 1.6225747905,
				"y": -0.9946436679,
				"z": 3.0984737858,
				"element": "C" 
			},
			{
				"x": 2.2826125979,
				"y": 0.2306580073,
				"z": 2.4856355524,
				"element": "C" 
			},
			{
				"x": 2.7370142244,
				"y": 1.1406140375,
				"z": 3.1641495244,
				"element": "O" 
			},
			{
				"x": 2.3680509745,
				"y": 0.2704832326,
				"z": 1.1106255828,
				"element": "N" 
			},
			{
				"x": 1.7961639171,
				"y": -0.6547769964,
				"z": 0.1545033301,
				"element": "C" 
			},
			{
				"x": 0.3827876737,
				"y": -0.3390637265,
				"z": -0.3262500369,
				"element": "C" 
			},
			{
				"x": -0.3382629477,
				"y": 0.7604509533,
				"z": 0.1459477284,
				"element": "C" 
			},
			{
				"x": -1.6277519045,
				"y": 1.0180609715,
				"z": -0.3209930675,
				"element": "C" 
			},
			{
				"x": -2.2226283257,
				"y": 0.1754300264,
				"z": -1.2696627424,
				"element": "C" 
			},
			{
				"x": -1.495705157,
				"y": -0.9314060979,
				"z": -1.7435188812,
				"element": "C" 
			},
			{
				"x": -0.2127714044,
				"y": -1.1814337236,
				"z": -1.2796535442,
				"element": "C" 
			},
			{
				"x": -3.6058599437,
				"y": 0.371901424,
				"z": -1.7891854172,
				"element": "C" 
			},
			{
				"x": -4.1217929432,
				"y": -0.4215162828,
				"z": -2.5600740731,
				"element": "O" 
			},
			{
				"x": -4.4349322001,
				"y": 1.5739176627,
				"z": -1.3252881177,
				"element": "C" 
			},
			{
				"x": -3.7935784087,
				"y": 3.1349748727,
				"z": -1.9946494442,
				"element": "Cl" 
			},
			{
				"x": 2.2034400432,
				"y": -1.9006576099,
				"z": 2.8929809724,
				"element": "H" 
			},
			{
				"x": 0.6112126525,
				"y": -1.1497673302,
				"z": 2.7093009925,
				"element": "H" 
			},
			{
				"x": 1.5768186493,
				"y": -0.842651235,
				"z": 4.176235619,
				"element": "H" 
			},
			{
				"x": 2.7901587842,
				"y": 1.1216809631,
				"z": 0.7626460303,
				"element": "H" 
			},
			{
				"x": 2.4615450694,
				"y": -0.7000059663,
				"z": -0.7165895733,
				"element": "H" 
			},
			{
				"x": 1.8087109484,
				"y": -1.6625504766,
				"z": 0.5828374502,
				"element": "H" 
			},
			{
				"x": 0.1114982004,
				"y": 1.4221791373,
				"z": 0.8788576137,
				"element": "H" 
			},
			{
				"x": -2.1553658219,
				"y": 1.8891946948,
				"z": 0.0520115084,
				"element": "H" 
			},
			{
				"x": -1.9650418387,
				"y": -1.5797108087,
				"z": -2.4757281465,
				"element": "H" 
			},
			{
				"x": 0.3379747605,
				"y": -2.0399734118,
				"z": -1.6578269909,
				"element": "H" 
			},
			{
				"x": -4.4485235754,
				"y": 1.6737508193,
				"z": -0.2382730657,
				"element": "H" 
			},
			{
				"x": -5.4462488148,
				"y": 1.450560531,
				"z": -1.7077125895,
				"element": "H" 
			}
		],
		 "valence_orbital": [ 
			{
				"type": "occ",
				"energy": -0.27244,
				"method": "rhf"
			},
			{
				"type": "occ",
				"energy": -0.26738,
				"method": "rhf"
			},
			{
				"type": "occ",
				"energy": -0.26406,
				"method": "rhf"
			},
			{
				"type": "occ",
				"energy": -0.2601,
				"method": "rhf"
			},
			{
				"type": "occ",
				"energy": -0.25125,
				"method": "rhf"
			},
			{
				"type": "unocc",
				"energy": -0.07688,
				"method": "rhf"
			},
			{
				"type": "unocc",
				"energy": -0.02358,
				"method": "rhf"
			},
			{
				"type": "unocc",
				"energy": -0.00323,
				"method": "rhf"
			},
			{
				"type": "unocc",
				"energy": 0.02205,
				"method": "rhf"
			},
			{
				"type": "unocc",
				"energy": 0.04522,
				"method": "rhf"
			}
		],
		"cosmo_sigma_profile": { 
			"-0.025": 0.0,
			"-0.024": 0.0,
			"-0.023": 0.0,
			"-0.022": 0.0,
			"-0.021": 0.0,
			"-0.02": 0.0,
			"-0.019": 0.0,
			"-0.018": 0.0,
			"-0.017": 0.0,
			"-0.016": 0.0,
			"-0.015": 0.0,
			"-0.014": 0.179955753211,
			"-0.013": 1.30921633244,
			"-0.012": 1.00525840486,
			"-0.011": 1.19999321029,
			"-0.01": 0.887905665861,
			"-0.009": 4.84293737223,
			"-0.008": 5.7634339355,
			"-0.007": 11.0665683777,
			"-0.006": 19.9162532379,
			"-0.005": 20.6140915861,
			"-0.004": 20.40394562,
			"-0.003": 16.9896204036,
			"-0.002": 13.7528665013,
			"-0.001": 16.4947962645,
			"0.0": 17.4395783098,
			"0.001": 13.853871234,
			"0.002": 15.7744060708,
			"0.003": 20.0988971456,
			"0.004": 15.285398279,
			"0.005": 11.68607998,
			"0.006": 4.77595751826,
			"0.007": 2.84449409869,
			"0.008": 3.23515353055,
			"0.009": 2.53507090569,
			"0.01": 4.12740255334,
			"0.011": 5.17530850549,
			"0.012": 3.11077794691,
			"0.013": 3.39037316534,
			"0.014": 5.94780141574,
			"0.015": 2.02239183068,
			"0.016": 0.0583860668101,
			"0.017": 0.0,
			"0.018": 0.0,
			"0.019": 0.0,
			"0.02": 0.0,
			"0.021": 0.0,
			"0.022": 0.0,
			"0.023": 0.0,
			"0.024": 0.0,
			"0.025": 0.0
		}
	}
}
