{
	 "smiles": "OC(=O)CCN1CCCC1=O", 
	 "Tm": 383.15, 
	 "num_atms": 22, 
	 "gaussian": { 
		 "optdone": 1, 
		 "sigma_profile": "yes", 
		 "theory": "DFT", 
		 "functional": "B3LYP", 
		 "basiset": "6-31G**", 
		 "properties": { 
			 "R2extent": 2419.489, 
			 "electric_dipole_moment_norm": 2.5102195641, 
			 "electric_quadrupole_moment_norm": 15.8967095737, 
			 "total_energy": -553.836489838, 
			 "HOMO_LUMO_gap": 0.23915, 
			 "cosmo_polarized_energy": -13.94, 
			 "cosmo_cavitation_energy": 24.94, 
			 "cosmo_dispersion_energy": -18.14, 
			 "cosmo_repulsion_energy": 1.49, 
			 "cosmo_total_nonelectrostatic_energy": 8.3, 
			 "SMD_solvation_energy": 5.46 
		},
		"coords": [
			{
				"x": 1.2121809326,
				"y": 3.4309772463,
				"z": 1.8948512634,
				"element": "O" 
			},
			{
				"x": 0.3349776439,
				"y": 2.4875502323,
				"z": 1.4818370968,
				"element": "C" 
			},
			{
				"x": -0.1256305913,
				"y": 2.4795406948,
				"z": 0.3584348688,
				"element": "O" 
			},
			{
				"x": 0.0116096018,
				"y": 1.5079630315,
				"z": 2.5866911088,
				"element": "C" 
			},
			{
				"x": -0.8588008685,
				"y": 0.3357884077,
				"z": 2.1238130295,
				"element": "C" 
			},
			{
				"x": -0.1601825458,
				"y": -0.5641779947,
				"z": 1.2197356893,
				"element": "N" 
			},
			{
				"x": -0.4894670782,
				"y": -0.7265935452,
				"z": -0.1953233296,
				"element": "C" 
			},
			{
				"x": 0.6705985006,
				"y": -1.6015815309,
				"z": -0.7177820196,
				"element": "C" 
			},
			{
				"x": 1.1337984567,
				"y": -2.3855231652,
				"z": 0.521825506,
				"element": "C" 
			},
			{
				"x": 0.7213121955,
				"y": -1.498614027,
				"z": 1.6975871504,
				"element": "C" 
			},
			{
				"x": 1.0750562763,
				"y": -1.5928590224,
				"z": 2.8660076259,
				"element": "O" 
			},
			{
				"x": 1.3504906511,
				"y": 4.0243882621,
				"z": 1.1373436296,
				"element": "H" 
			},
			{
				"x": 0.9419628413,
				"y": 1.1300946829,
				"z": 3.0213202932,
				"element": "H" 
			},
			{
				"x": -0.4931509644,
				"y": 2.0654133188,
				"z": 3.3865025871,
				"element": "H" 
			},
			{
				"x": -1.1666469917,
				"y": -0.2310790293,
				"z": 3.0089653549,
				"element": "H" 
			},
			{
				"x": -1.7533265391,
				"y": 0.7056160112,
				"z": 1.6167686608,
				"element": "H" 
			},
			{
				"x": -0.5474182337,
				"y": 0.2476166959,
				"z": -0.6855763075,
				"element": "H" 
			},
			{
				"x": -1.4611585241,
				"y": -1.2313337184,
				"z": -0.3128637467,
				"element": "H" 
			},
			{
				"x": 0.3626175734,
				"y": -2.2395124915,
				"z": -1.5496601563,
				"element": "H" 
			},
			{
				"x": 1.4794806506,
				"y": -0.955734966,
				"z": -1.0740969478,
				"element": "H" 
			},
			{
				"x": 2.2053078563,
				"y": -2.5944749926,
				"z": 0.5532540598,
				"element": "H" 
			},
			{
				"x": 0.6111891566,
				"y": -3.3448641003,
				"z": 0.6247645832,
				"element": "H" 
			}
		],
		 "valence_orbital": [ 
			{
				"type": "occ",
				"energy": -0.32778,
				"method": "rhf"
			},
			{
				"type": "occ",
				"energy": -0.32387,
				"method": "rhf"
			},
			{
				"type": "occ",
				"energy": -0.28201,
				"method": "rhf"
			},
			{
				"type": "occ",
				"energy": -0.23957,
				"method": "rhf"
			},
			{
				"type": "occ",
				"energy": -0.23496,
				"method": "rhf"
			},
			{
				"type": "unocc",
				"energy": 0.00419,
				"method": "rhf"
			},
			{
				"type": "unocc",
				"energy": 0.0339,
				"method": "rhf"
			},
			{
				"type": "unocc",
				"energy": 0.07562,
				"method": "rhf"
			},
			{
				"type": "unocc",
				"energy": 0.09111,
				"method": "rhf"
			},
			{
				"type": "unocc",
				"energy": 0.10881,
				"method": "rhf"
			}
		],
		"cosmo_sigma_profile": { 
			"-0.025": 0.0,
			"-0.024": 0.0,
			"-0.023": 0.0,
			"-0.022": 0.0,
			"-0.021": 0.0,
			"-0.02": 0.0,
			"-0.019": 0.0,
			"-0.018": 0.586079402234,
			"-0.017": 1.04008566717,
			"-0.016": 0.801998487859,
			"-0.015": 0.822493644735,
			"-0.014": 0.729900069075,
			"-0.013": 1.0168737375,
			"-0.012": 0.346916130176,
			"-0.011": 0.841378661741,
			"-0.01": 0.689057953635,
			"-0.009": 0.440225656305,
			"-0.008": 0.298673909514,
			"-0.007": 3.47191301275,
			"-0.006": 5.67380463772,
			"-0.005": 12.2057690115,
			"-0.004": 22.9367663054,
			"-0.003": 28.3703191624,
			"-0.002": 22.5121848842,
			"-0.001": 18.4826276103,
			"0.0": 10.7816410358,
			"0.001": 6.11686270447,
			"0.002": 6.05320435414,
			"0.003": 3.96371537221,
			"0.004": 3.85657082979,
			"0.005": 5.05742007391,
			"0.006": 4.05882442869,
			"0.007": 3.23617559321,
			"0.008": 4.76378069506,
			"0.009": 4.96005382492,
			"0.01": 3.45650210269,
			"0.011": 3.98112944937,
			"0.012": 3.19276015141,
			"0.013": 2.72772430264,
			"0.014": 5.08717813012,
			"0.015": 2.24118762221,
			"0.016": 0.330822331178,
			"0.017": 0.0,
			"0.018": 0.0,
			"0.019": 0.0,
			"0.02": 0.0,
			"0.021": 0.0,
			"0.022": 0.0,
			"0.023": 0.0,
			"0.024": 0.0,
			"0.025": 0.0
		}
	}
}
