{
	 "smiles": "[O-][N+](=O)C1=CC=CC2=C1NC=C2", 
	 "Tm": 369.65, 
	 "num_atms": 18, 
	 "gaussian": { 
		 "optdone": 1, 
		 "sigma_profile": "yes", 
		 "theory": "DFT", 
		 "functional": "B3LYP", 
		 "basiset": "6-31G**", 
		 "properties": { 
			 "R2extent": 1884.9726, 
			 "electric_dipole_moment_norm": 3.94158037087, 
			 "electric_quadrupole_moment_norm": 10.4137077384, 
			 "total_energy": -568.326504291, 
			 "HOMO_LUMO_gap": 0.14048, 
			 "cosmo_polarized_energy": -9.02, 
			 "cosmo_cavitation_energy": 22.54, 
			 "cosmo_dispersion_energy": -17.18, 
			 "cosmo_repulsion_energy": 1.34, 
			 "cosmo_total_nonelectrostatic_energy": 6.7, 
			 "SMD_solvation_energy": 5.88 
		},
		"coords": [
			{
				"x": -3.1099463478,
				"y": -1.0778153862,
				"z": -1.4711453579,
				"element": "O" 
			},
			{
				"x": -1.9662015659,
				"y": -0.6262082265,
				"z": -1.47735995,
				"element": "N" 
			},
			{
				"x": -1.3094523515,
				"y": -0.4226603658,
				"z": -2.5130078902,
				"element": "O" 
			},
			{
				"x": -1.3317485032,
				"y": -0.3077503506,
				"z": -0.2138290054,
				"element": "C" 
			},
			{
				"x": -2.0198354138,
				"y": -0.5155300661,
				"z": 0.9803517841,
				"element": "C" 
			},
			{
				"x": -1.4131289433,
				"y": -0.2100269709,
				"z": 2.2049301827,
				"element": "C" 
			},
			{
				"x": -0.1177813288,
				"y": 0.3048115009,
				"z": 2.2593018044,
				"element": "C" 
			},
			{
				"x": 0.59298586,
				"y": 0.5218519821,
				"z": 1.0711536473,
				"element": "C" 
			},
			{
				"x": -0.0256874199,
				"y": 0.2102604455,
				"z": -0.1778811309,
				"element": "C" 
			},
			{
				"x": 0.8651213835,
				"y": 0.5089436713,
				"z": -1.1679187291,
				"element": "N" 
			},
			{
				"x": 2.0286014022,
				"y": 0.9990512096,
				"z": -0.6017394901,
				"element": "C" 
			},
			{
				"x": 1.9039152037,
				"y": 1.0231114108,
				"z": 0.7613403127,
				"element": "C" 
			},
			{
				"x": -3.0249702313,
				"y": -0.9152979432,
				"z": 0.9314569014,
				"element": "H" 
			},
			{
				"x": -1.9658571916,
				"y": -0.3791479419,
				"z": 3.1232139284,
				"element": "H" 
			},
			{
				"x": 0.3376797521,
				"y": 0.5362851589,
				"z": 3.2179712007,
				"element": "H" 
			},
			{
				"x": 0.6505820775,
				"y": 0.3715872405,
				"z": -2.1442743985,
				"element": "H" 
			},
			{
				"x": 2.8574419184,
				"y": 1.2927143829,
				"z": -1.2293526526,
				"element": "H" 
			},
			{
				"x": 2.6525816998,
				"y": 1.3567202488,
				"z": 1.4649888432,
				"element": "H" 
			}
		],
		 "valence_orbital": [ 
			{
				"type": "occ",
				"energy": -0.30603,
				"method": "rhf"
			},
			{
				"type": "occ",
				"energy": -0.30017,
				"method": "rhf"
			},
			{
				"type": "occ",
				"energy": -0.28996,
				"method": "rhf"
			},
			{
				"type": "occ",
				"energy": -0.24507,
				"method": "rhf"
			},
			{
				"type": "occ",
				"energy": -0.22831,
				"method": "rhf"
			},
			{
				"type": "unocc",
				"energy": -0.08783,
				"method": "rhf"
			},
			{
				"type": "unocc",
				"energy": -0.00821,
				"method": "rhf"
			},
			{
				"type": "unocc",
				"energy": 0.00595,
				"method": "rhf"
			},
			{
				"type": "unocc",
				"energy": 0.0596,
				"method": "rhf"
			},
			{
				"type": "unocc",
				"energy": 0.09297,
				"method": "rhf"
			}
		],
		"cosmo_sigma_profile": { 
			"-0.025": 0.0,
			"-0.024": 0.0,
			"-0.023": 0.0,
			"-0.022": 0.0,
			"-0.021": 0.0,
			"-0.02": 0.0,
			"-0.019": 0.0,
			"-0.018": 0.0,
			"-0.017": 0.0,
			"-0.016": 0.0,
			"-0.015": 0.180089918117,
			"-0.014": 0.516058133232,
			"-0.013": 0.630881460459,
			"-0.012": 1.00631409367,
			"-0.011": 0.720087824814,
			"-0.01": 1.41430597821,
			"-0.009": 2.27501825881,
			"-0.008": 2.86985083937,
			"-0.007": 6.11790815291,
			"-0.006": 11.201420472,
			"-0.005": 11.0012827727,
			"-0.004": 12.4736926344,
			"-0.003": 10.5317195183,
			"-0.002": 9.69397064344,
			"-0.001": 11.3627184159,
			"0.0": 12.8961358147,
			"0.001": 12.9947079943,
			"0.002": 15.556743162,
			"0.003": 16.2165708156,
			"0.004": 10.5165409305,
			"0.005": 6.41037669212,
			"0.006": 4.31624061673,
			"0.007": 4.32666457111,
			"0.008": 7.04082904694,
			"0.009": 4.28446186887,
			"0.01": 4.03030171468,
			"0.011": 1.24866413707,
			"0.012": 0.0,
			"0.013": 0.0,
			"0.014": 0.0,
			"0.015": 0.0,
			"0.016": 0.0,
			"0.017": 0.0,
			"0.018": 0.0,
			"0.019": 0.0,
			"0.02": 0.0,
			"0.021": 0.0,
			"0.022": 0.0,
			"0.023": 0.0,
			"0.024": 0.0,
			"0.025": 0.0
		}
	}
}
