{
	 "smiles": "CCOC(=O)C1=NN(C(C)=C1C(=O)C1=NOC(=C1S(=O)(=O)C1=CC=CC=C1)C1=CC=C(C=C1)[N+]([O-])=O)C1=CC=C(C)C=C1", 
	 "Tm": 462.15, 
	 "num_atms": 67, 
	 "gaussian": { 
		 "optdone": 1, 
		 "sigma_profile": "yes", 
		 "theory": "DFT", 
		 "functional": "B3LYP", 
		 "basiset": "6-31G**", 
		 "properties": { 
			 "R2extent": 32685.2875, 
			 "electric_dipole_moment_norm": 7.31092801086, 
			 "electric_quadrupole_moment_norm": 19.9966400915, 
			 "total_energy": -2376.4176034, 
			 "HOMO_LUMO_gap": 0.13691, 
			 "cosmo_polarized_energy": -29.04, 
			 "cosmo_cavitation_energy": 74.71, 
			 "cosmo_dispersion_energy": -48.12, 
			 "cosmo_repulsion_energy": 3.53, 
			 "cosmo_total_nonelectrostatic_energy": 30.12, 
			 "SMD_solvation_energy": 14.36 
		},
		"coords": [
			{
				"x": -1.7554669766,
				"y": 1.3854684853,
				"z": 3.8408660609,
				"element": "C" 
			},
			{
				"x": -1.6708019085,
				"y": -0.0963279043,
				"z": 3.5284276747,
				"element": "C" 
			},
			{
				"x": -0.4896172647,
				"y": -0.319274066,
				"z": 2.7137015372,
				"element": "O" 
			},
			{
				"x": -0.0357114144,
				"y": -1.5892361752,
				"z": 2.6736839368,
				"element": "C" 
			},
			{
				"x": -0.542027235,
				"y": -2.5221467334,
				"z": 3.2540786206,
				"element": "O" 
			},
			{
				"x": 1.2218545447,
				"y": -1.6900957259,
				"z": 1.8711062746,
				"element": "C" 
			},
			{
				"x": 2.1681528882,
				"y": -2.4768700859,
				"z": 2.3574755309,
				"element": "N" 
			},
			{
				"x": 3.2196535529,
				"y": -2.3517433793,
				"z": 1.5002239859,
				"element": "N" 
			},
			{
				"x": 2.9594636036,
				"y": -1.5087052509,
				"z": 0.4632436918,
				"element": "C" 
			},
			{
				"x": 3.8959748045,
				"y": -1.2592740827,
				"z": -0.672779801,
				"element": "C" 
			},
			{
				"x": 1.6528617058,
				"y": -1.0395526706,
				"z": 0.670549715,
				"element": "C" 
			},
			{
				"x": 0.9598038127,
				"y": -0.1672595041,
				"z": -0.2679859576,
				"element": "C" 
			},
			{
				"x": 1.5336779491,
				"y": 0.4317687391,
				"z": -1.1731346219,
				"element": "O" 
			},
			{
				"x": -0.5504890261,
				"y": -0.0970299744,
				"z": -0.2322323029,
				"element": "C" 
			},
			{
				"x": -1.2085944204,
				"y": -1.2250826349,
				"z": -0.3441797278,
				"element": "N" 
			},
			{
				"x": -2.5473655889,
				"y": -0.869003526,
				"z": -0.4827082956,
				"element": "O" 
			},
			{
				"x": -2.6862556377,
				"y": 0.47629463,
				"z": -0.4487842623,
				"element": "C" 
			},
			{
				"x": -1.4318108927,
				"y": 1.0320824188,
				"z": -0.2833491595,
				"element": "C" 
			},
			{
				"x": -0.9128478862,
				"y": 2.7363410314,
				"z": -0.0917743407,
				"element": "S" 
			},
			{
				"x": -1.9526076056,
				"y": 3.4411886215,
				"z": 0.6815742849,
				"element": "O" 
			},
			{
				"x": 0.4627567714,
				"y": 2.6901719758,
				"z": 0.408438636,
				"element": "O" 
			},
			{
				"x": -0.9282530512,
				"y": 3.4013275559,
				"z": -1.7595166479,
				"element": "C" 
			},
			{
				"x": -1.875783745,
				"y": 4.3719489735,
				"z": -2.0889159993,
				"element": "C" 
			},
			{
				"x": -1.8662740149,
				"y": 4.9077688493,
				"z": -3.3776345679,
				"element": "C" 
			},
			{
				"x": -0.9232583098,
				"y": 4.4705826067,
				"z": -4.3098795749,
				"element": "C" 
			},
			{
				"x": 0.0193669647,
				"y": 3.4988253943,
				"z": -3.9608328086,
				"element": "C" 
			},
			{
				"x": 0.0290562946,
				"y": 2.9560433983,
				"z": -2.6766181768,
				"element": "C" 
			},
			{
				"x": -4.0680098912,
				"y": 0.9364959812,
				"z": -0.6541046359,
				"element": "C" 
			},
			{
				"x": -4.5627833237,
				"y": 2.1287785071,
				"z": -0.097365292,
				"element": "C" 
			},
			{
				"x": -5.8848357605,
				"y": 2.5053397894,
				"z": -0.3160270941,
				"element": "C" 
			},
			{
				"x": -6.7044167937,
				"y": 1.6860149359,
				"z": -1.0869691893,
				"element": "C" 
			},
			{
				"x": -6.2443946864,
				"y": 0.4938725949,
				"z": -1.6428968014,
				"element": "C" 
			},
			{
				"x": -4.9251588918,
				"y": 0.1210748259,
				"z": -1.4215874313,
				"element": "C" 
			},
			{
				"x": -8.1024048591,
				"y": 2.0892781129,
				"z": -1.3214887888,
				"element": "N" 
			},
			{
				"x": -8.802841279,
				"y": 1.3411470478,
				"z": -2.0016352692,
				"element": "O" 
			},
			{
				"x": -8.4796406653,
				"y": 3.1487295135,
				"z": -0.8237790272,
				"element": "O" 
			},
			{
				"x": 4.3992381417,
				"y": -3.1115035428,
				"z": 1.7714725254,
				"element": "C" 
			},
			{
				"x": 4.264264496,
				"y": -4.4450674689,
				"z": 2.1690882162,
				"element": "C" 
			},
			{
				"x": 5.4022781011,
				"y": -5.1913378257,
				"z": 2.4566446432,
				"element": "C" 
			},
			{
				"x": 6.6872075486,
				"y": -4.6368048017,
				"z": 2.3502072113,
				"element": "C" 
			},
			{
				"x": 7.914182435,
				"y": -5.4693882286,
				"z": 2.6348417813,
				"element": "C" 
			},
			{
				"x": 6.794991739,
				"y": -3.2959186421,
				"z": 1.9630690271,
				"element": "C" 
			},
			{
				"x": 5.6643218608,
				"y": -2.5284483929,
				"z": 1.6825982097,
				"element": "C" 
			},
			{
				"x": -0.866198217,
				"y": 1.7166083248,
				"z": 4.3844649051,
				"element": "H" 
			},
			{
				"x": -1.8492820726,
				"y": 1.9906364201,
				"z": 2.9357617643,
				"element": "H" 
			},
			{
				"x": -2.6311806032,
				"y": 1.5726927558,
				"z": 4.4710809353,
				"element": "H" 
			},
			{
				"x": -1.5865554029,
				"y": -0.7058775915,
				"z": 4.4312348963,
				"element": "H" 
			},
			{
				"x": -2.5432777835,
				"y": -0.4527418678,
				"z": 2.969300544,
				"element": "H" 
			},
			{
				"x": 3.3241700222,
				"y": -1.1244902408,
				"z": -1.5917146431,
				"element": "H" 
			},
			{
				"x": 4.6046981247,
				"y": -2.0815480759,
				"z": -0.7897790684,
				"element": "H" 
			},
			{
				"x": 4.4609072267,
				"y": -0.3323341961,
				"z": -0.5233667554,
				"element": "H" 
			},
			{
				"x": -2.5902581673,
				"y": 4.7026483213,
				"z": -1.3439000524,
				"element": "H" 
			},
			{
				"x": -2.5930779106,
				"y": 5.6668828936,
				"z": -3.6500100305,
				"element": "H" 
			},
			{
				"x": -0.9207321375,
				"y": 4.8898550444,
				"z": -5.3117916267,
				"element": "H" 
			},
			{
				"x": 0.7523672993,
				"y": 3.1650965008,
				"z": -4.6889374092,
				"element": "H" 
			},
			{
				"x": 0.7512014628,
				"y": 2.1984340536,
				"z": -2.3874449133,
				"element": "H" 
			},
			{
				"x": -3.9155579387,
				"y": 2.7500749582,
				"z": 0.5075676762,
				"element": "H" 
			},
			{
				"x": -6.2882000025,
				"y": 3.4166665652,
				"z": 0.1071202286,
				"element": "H" 
			},
			{
				"x": -6.9156894593,
				"y": -0.11491603,
				"z": -2.2350743094,
				"element": "H" 
			},
			{
				"x": -4.5490247236,
				"y": -0.8018202471,
				"z": -1.8468445837,
				"element": "H" 
			},
			{
				"x": 3.2727014329,
				"y": -4.8731523877,
				"z": 2.2612449349,
				"element": "H" 
			},
			{
				"x": 5.2906566847,
				"y": -6.2263910141,
				"z": 2.7686934261,
				"element": "H" 
			},
			{
				"x": 7.7682107244,
				"y": -6.108938736,
				"z": 3.5110058123,
				"element": "H" 
			},
			{
				"x": 8.1491384779,
				"y": -6.1279963785,
				"z": 1.7895742639,
				"element": "H" 
			},
			{
				"x": 8.7910884823,
				"y": -4.8416782877,
				"z": 2.8155451044,
				"element": "H" 
			},
			{
				"x": 7.7766007315,
				"y": -2.8349184741,
				"z": 1.8951912927,
				"element": "H" 
			},
			{
				"x": 5.7671376634,
				"y": -1.4802656828,
				"z": 1.4243658188,
				"element": "H" 
			}
		],
		 "valence_orbital": [ 
			{
				"type": "occ",
				"energy": -0.27342,
				"method": "rhf"
			},
			{
				"type": "occ",
				"energy": -0.26835,
				"method": "rhf"
			},
			{
				"type": "occ",
				"energy": -0.2671,
				"method": "rhf"
			},
			{
				"type": "occ",
				"energy": -0.26098,
				"method": "rhf"
			},
			{
				"type": "occ",
				"energy": -0.24465,
				"method": "rhf"
			},
			{
				"type": "unocc",
				"energy": -0.10774,
				"method": "rhf"
			},
			{
				"type": "unocc",
				"energy": -0.07081,
				"method": "rhf"
			},
			{
				"type": "unocc",
				"energy": -0.05743,
				"method": "rhf"
			},
			{
				"type": "unocc",
				"energy": -0.04403,
				"method": "rhf"
			},
			{
				"type": "unocc",
				"energy": -0.03871,
				"method": "rhf"
			}
		],
		"cosmo_sigma_profile": { 
			"-0.025": 0.0,
			"-0.024": 0.0,
			"-0.023": 0.0,
			"-0.022": 0.0,
			"-0.021": 0.0,
			"-0.02": 0.0,
			"-0.019": 0.0,
			"-0.018": 0.0,
			"-0.017": 0.0,
			"-0.016": 0.0,
			"-0.015": 0.0,
			"-0.014": 0.0,
			"-0.013": 0.0,
			"-0.012": 0.0,
			"-0.011": 0.0,
			"-0.01": 0.0,
			"-0.009": 0.47114928798,
			"-0.008": 6.42850808878,
			"-0.007": 17.8090754598,
			"-0.006": 29.0159200825,
			"-0.005": 43.1957734884,
			"-0.004": 55.3308210879,
			"-0.003": 54.0287520597,
			"-0.002": 57.2735211878,
			"-0.001": 51.4134611582,
			"0.0": 52.9271698633,
			"0.001": 36.3336780212,
			"0.002": 35.5129589497,
			"0.003": 34.0285675938,
			"0.004": 24.0681208037,
			"0.005": 15.8037459173,
			"0.006": 13.2570880868,
			"0.007": 18.3432571019,
			"0.008": 14.334756086,
			"0.009": 13.2786707144,
			"0.01": 11.5678842611,
			"0.011": 10.2221283258,
			"0.012": 3.93223039405,
			"0.013": 1.57947271725,
			"0.014": 0.0302128235581,
			"0.015": 0.0,
			"0.016": 0.0,
			"0.017": 0.0,
			"0.018": 0.0,
			"0.019": 0.0,
			"0.02": 0.0,
			"0.021": 0.0,
			"0.022": 0.0,
			"0.023": 0.0,
			"0.024": 0.0,
			"0.025": 0.0
		}
	}
}
