{
	 "smiles": "CC1=C(Cl)C=CC(=C1Cl)[N+]([O-])=O", 
	 "Tm": 327.15, 
	 "num_atms": 17, 
	 "gaussian": { 
		 "optdone": 1, 
		 "sigma_profile": "yes", 
		 "theory": "DFT", 
		 "functional": "B3LYP", 
		 "basiset": "6-31G**", 
		 "properties": { 
			 "R2extent": 3218.9892, 
			 "electric_dipole_moment_norm": 3.5383805533, 
			 "electric_quadrupole_moment_norm": 8.31443194632, 
			 "total_energy": -1395.23289105, 
			 "HOMO_LUMO_gap": 0.17883, 
			 "cosmo_polarized_energy": -7.6, 
			 "cosmo_cavitation_energy": 25.09, 
			 "cosmo_dispersion_energy": -18.78, 
			 "cosmo_repulsion_energy": 1.48, 
			 "cosmo_total_nonelectrostatic_energy": 7.79, 
			 "SMD_solvation_energy": 6.17 
		},
		"coords": [
			{
				"x": -2.7857741706,
				"y": -1.5104633381,
				"z": 0.2549664671,
				"element": "C" 
			},
			{
				"x": -1.6521934282,
				"y": -0.7899337154,
				"z": 0.9381038474,
				"element": "C" 
			},
			{
				"x": -1.4664587606,
				"y": -0.8051866664,
				"z": 2.331506038,
				"element": "C" 
			},
			{
				"x": -2.558120679,
				"y": -1.7077916331,
				"z": 3.369123983,
				"element": "Cl" 
			},
			{
				"x": -0.4328490918,
				"y": -0.1101416923,
				"z": 2.9619656959,
				"element": "C" 
			},
			{
				"x": 0.4584142468,
				"y": 0.6233940359,
				"z": 2.1966188359,
				"element": "C" 
			},
			{
				"x": 0.3288217082,
				"y": 0.6386170897,
				"z": 0.8090703306,
				"element": "C" 
			},
			{
				"x": -0.7179103644,
				"y": -0.0501924002,
				"z": 0.1807589316,
				"element": "C" 
			},
			{
				"x": -0.9580497803,
				"y": 0.0385645713,
				"z": -1.5448670343,
				"element": "Cl" 
			},
			{
				"x": 1.3535180533,
				"y": 1.402488962,
				"z": 0.0745031003,
				"element": "N" 
			},
			{
				"x": 1.776291784,
				"y": 2.4190011848,
				"z": 0.6257308272,
				"element": "O" 
			},
			{
				"x": 1.7445373691,
				"y": 0.9655249084,
				"z": -1.0018598986,
				"element": "O" 
			},
			{
				"x": -3.4321018391,
				"y": -0.8004570933,
				"z": -0.2708380278,
				"element": "H" 
			},
			{
				"x": -3.3905815263,
				"y": -2.0649885805,
				"z": 0.9697255484,
				"element": "H" 
			},
			{
				"x": -2.4025161087,
				"y": -2.2085814804,
				"z": -0.4952589394,
				"element": "H" 
			},
			{
				"x": -0.3363894344,
				"y": -0.1468118465,
				"z": 4.0403319756,
				"element": "H" 
			},
			{
				"x": 1.263862022,
				"y": 1.1865576939,
				"z": 2.6512183192,
				"element": "H" 
			}
		],
		 "valence_orbital": [ 
			{
				"type": "occ",
				"energy": -0.31523,
				"method": "rhf"
			},
			{
				"type": "occ",
				"energy": -0.3119,
				"method": "rhf"
			},
			{
				"type": "occ",
				"energy": -0.29933,
				"method": "rhf"
			},
			{
				"type": "occ",
				"energy": -0.27639,
				"method": "rhf"
			},
			{
				"type": "occ",
				"energy": -0.27302,
				"method": "rhf"
			},
			{
				"type": "unocc",
				"energy": -0.09419,
				"method": "rhf"
			},
			{
				"type": "unocc",
				"energy": -0.04595,
				"method": "rhf"
			},
			{
				"type": "unocc",
				"energy": -0.02553,
				"method": "rhf"
			},
			{
				"type": "unocc",
				"energy": -0.00915,
				"method": "rhf"
			},
			{
				"type": "unocc",
				"energy": 0.03092,
				"method": "rhf"
			}
		],
		"cosmo_sigma_profile": { 
			"-0.025": 0.0,
			"-0.024": 0.0,
			"-0.023": 0.0,
			"-0.022": 0.0,
			"-0.021": 0.0,
			"-0.02": 0.0,
			"-0.019": 0.0,
			"-0.018": 0.0,
			"-0.017": 0.0,
			"-0.016": 0.0,
			"-0.015": 0.0,
			"-0.014": 0.0,
			"-0.013": 0.0,
			"-0.012": 0.0,
			"-0.011": 0.0,
			"-0.01": 0.019923263378,
			"-0.009": 2.09529713504,
			"-0.008": 5.08033273583,
			"-0.007": 4.50442531686,
			"-0.006": 6.0702434991,
			"-0.005": 8.40772169632,
			"-0.004": 11.2205852751,
			"-0.003": 14.8267306478,
			"-0.002": 25.4142030407,
			"-0.001": 27.5694539632,
			"0.0": 19.4456117917,
			"0.001": 15.9272481335,
			"0.002": 11.9654838011,
			"0.003": 14.6521447954,
			"0.004": 7.07108253507,
			"0.005": 3.97579344328,
			"0.006": 5.17083719732,
			"0.007": 10.4108352156,
			"0.008": 7.77371574239,
			"0.009": 3.51389728602,
			"0.01": 0.671704534241,
			"0.011": 0.0,
			"0.012": 0.0,
			"0.013": 0.0,
			"0.014": 0.0,
			"0.015": 0.0,
			"0.016": 0.0,
			"0.017": 0.0,
			"0.018": 0.0,
			"0.019": 0.0,
			"0.02": 0.0,
			"0.021": 0.0,
			"0.022": 0.0,
			"0.023": 0.0,
			"0.024": 0.0,
			"0.025": 0.0
		}
	}
}
