{
	 "smiles": "BrC1=CC=CC2=NSN=C12", 
	 "Tm": 353.65, 
	 "num_atms": 13, 
	 "gaussian": { 
		 "optdone": 1, 
		 "sigma_profile": "yes", 
		 "theory": "DFT", 
		 "functional": "B3LYP", 
		 "basiset": "6-31G**", 
		 "properties": { 
			 "R2extent": 3171.8762, 
			 "electric_dipole_moment_norm": 2.10606337986, 
			 "electric_quadrupole_moment_norm": 5.86722653815, 
			 "total_energy": -3309.51162077, 
			 "HOMO_LUMO_gap": 0.14585, 
			 "cosmo_polarized_energy": -6.33, 
			 "cosmo_cavitation_energy": 21.53, 
			 "cosmo_dispersion_energy": -17.42, 
			 "cosmo_repulsion_energy": 1.34, 
			 "cosmo_total_nonelectrostatic_energy": 5.45, 
			 "SMD_solvation_energy": -0.66 
		},
		"coords": [
			{
				"x": -0.7282314005,
				"y": 1.6090025355,
				"z": 3.1929837306,
				"element": "Br" 
			},
			{
				"x": -0.7815831286,
				"y": 0.7712448382,
				"z": 1.4925513896,
				"element": "C" 
			},
			{
				"x": -1.3946775041,
				"y": -0.4416216216,
				"z": 1.317793763,
				"element": "C" 
			},
			{
				"x": -1.4360885069,
				"y": -1.075456735,
				"z": 0.0351928384,
				"element": "C" 
			},
			{
				"x": -0.870175675,
				"y": -0.5088539549,
				"z": -1.0765692384,
				"element": "C" 
			},
			{
				"x": -0.2249105463,
				"y": 0.7522719277,
				"z": -0.9278291047,
				"element": "C" 
			},
			{
				"x": 0.3786736223,
				"y": 1.4502066961,
				"z": -1.898567315,
				"element": "N" 
			},
			{
				"x": 0.9521779275,
				"y": 2.8183565488,
				"z": -1.195011525,
				"element": "S" 
			},
			{
				"x": 0.4623462587,
				"y": 2.5836220343,
				"z": 0.3537605966,
				"element": "N" 
			},
			{
				"x": -0.174190888,
				"y": 1.4094108862,
				"z": 0.3686649997,
				"element": "C" 
			},
			{
				"x": -1.8581543119,
				"y": -0.932695848,
				"z": 2.1659984808,
				"element": "H" 
			},
			{
				"x": -1.9359938895,
				"y": -2.0360671376,
				"z": -0.0422872558,
				"element": "H" 
			},
			{
				"x": -0.8991919576,
				"y": -0.9852201697,
				"z": -2.0497813597,
				"element": "H" 
			}
		],
		 "valence_orbital": [ 
			{
				"type": "occ",
				"energy": -0.31221,
				"method": "rhf"
			},
			{
				"type": "occ",
				"energy": -0.30369,
				"method": "rhf"
			},
			{
				"type": "occ",
				"energy": -0.28899,
				"method": "rhf"
			},
			{
				"type": "occ",
				"energy": -0.27543,
				"method": "rhf"
			},
			{
				"type": "occ",
				"energy": -0.24152,
				"method": "rhf"
			},
			{
				"type": "unocc",
				"energy": -0.09567,
				"method": "rhf"
			},
			{
				"type": "unocc",
				"energy": -0.00364,
				"method": "rhf"
			},
			{
				"type": "unocc",
				"energy": -0.00269,
				"method": "rhf"
			},
			{
				"type": "unocc",
				"energy": -0.00062,
				"method": "rhf"
			},
			{
				"type": "unocc",
				"energy": 0.00746,
				"method": "rhf"
			}
		],
		"cosmo_sigma_profile": { 
			"-0.025": 0.0,
			"-0.024": 0.0,
			"-0.023": 0.0,
			"-0.022": 0.0,
			"-0.021": 0.0,
			"-0.02": 0.0,
			"-0.019": 0.0,
			"-0.018": 0.0,
			"-0.017": 0.0,
			"-0.016": 0.0,
			"-0.015": 0.0,
			"-0.014": 0.0,
			"-0.013": 0.0,
			"-0.012": 0.0,
			"-0.011": 0.0,
			"-0.01": 0.0,
			"-0.009": 0.0922358156076,
			"-0.008": 3.26015958321,
			"-0.007": 7.7978810523,
			"-0.006": 5.50034189871,
			"-0.005": 9.64774332797,
			"-0.004": 11.0461089338,
			"-0.003": 13.7400571422,
			"-0.002": 19.1914644604,
			"-0.001": 16.7613113651,
			"0.0": 17.1808398667,
			"0.001": 17.744402985,
			"0.002": 14.3005077535,
			"0.003": 10.8641253253,
			"0.004": 11.9150964876,
			"0.005": 3.28657837015,
			"0.006": 3.78894969311,
			"0.007": 2.26880762972,
			"0.008": 3.02798690374,
			"0.009": 2.12475260632,
			"0.01": 2.21176886888,
			"0.011": 2.43383920717,
			"0.012": 1.7803086492,
			"0.013": 0.542680920236,
			"0.014": 0.0,
			"0.015": 0.0,
			"0.016": 0.0,
			"0.017": 0.0,
			"0.018": 0.0,
			"0.019": 0.0,
			"0.02": 0.0,
			"0.021": 0.0,
			"0.022": 0.0,
			"0.023": 0.0,
			"0.024": 0.0,
			"0.025": 0.0
		}
	}
}
