{
	 "smiles": "CCOC(=O)C(=CNC1=CC=C(Br)C=C1)C#N", 
	 "Tm": 423.15, 
	 "num_atms": 28, 
	 "gaussian": { 
		 "optdone": 1, 
		 "sigma_profile": "yes", 
		 "theory": "DFT", 
		 "functional": "B3LYP", 
		 "basiset": "6-31G**", 
		 "properties": { 
			 "R2extent": 8619.7054, 
			 "electric_dipole_moment_norm": 7.27970397818, 
			 "electric_quadrupole_moment_norm": 35.4104758764, 
			 "total_energy": -3295.23576614, 
			 "HOMO_LUMO_gap": 0.16062, 
			 "cosmo_polarized_energy": -23.22, 
			 "cosmo_cavitation_energy": 36.41, 
			 "cosmo_dispersion_energy": -24.13, 
			 "cosmo_repulsion_energy": 1.91, 
			 "cosmo_total_nonelectrostatic_energy": 14.19, 
			 "SMD_solvation_energy": 7.39 
		},
		"coords": [
			{
				"x": -0.9610253231,
				"y": -0.9940662231,
				"z": -1.925253697,
				"element": "C" 
			},
			{
				"x": -1.0961479626,
				"y": 0.511094657,
				"z": -1.7995737726,
				"element": "C" 
			},
			{
				"x": -0.356789684,
				"y": 0.9191844288,
				"z": -0.6220257932,
				"element": "O" 
			},
			{
				"x": -0.280588403,
				"y": 2.2507676666,
				"z": -0.4130326805,
				"element": "C" 
			},
			{
				"x": -0.7472251356,
				"y": 3.0836684133,
				"z": -1.1627223981,
				"element": "O" 
			},
			{
				"x": 0.5046132836,
				"y": 2.5763540453,
				"z": 0.8084341691,
				"element": "C" 
			},
			{
				"x": 0.7336151635,
				"y": 1.7974834958,
				"z": 1.914841602,
				"element": "C" 
			},
			{
				"x": 0.1748434024,
				"y": 0.6286736236,
				"z": 2.3355538728,
				"element": "N" 
			},
			{
				"x": -1.0866152398,
				"y": 0.0475500782,
				"z": 2.0644361765,
				"element": "C" 
			},
			{
				"x": -2.2086414469,
				"y": 0.8185772606,
				"z": 1.733012099,
				"element": "C" 
			},
			{
				"x": -3.4468542993,
				"y": 0.2087945611,
				"z": 1.5517093482,
				"element": "C" 
			},
			{
				"x": -3.5708795794,
				"y": -1.171840513,
				"z": 1.7140126477,
				"element": "C" 
			},
			{
				"x": -5.270423905,
				"y": -2.0031244557,
				"z": 1.4663864832,
				"element": "Br" 
			},
			{
				"x": -2.4664742443,
				"y": -1.9482826876,
				"z": 2.0595377326,
				"element": "C" 
			},
			{
				"x": -1.2263813995,
				"y": -1.335406825,
				"z": 2.2307261453,
				"element": "C" 
			},
			{
				"x": 1.1529899117,
				"y": 3.8512044986,
				"z": 0.7933800205,
				"element": "C" 
			},
			{
				"x": 1.6988499641,
				"y": 4.8794949866,
				"z": 0.8101703419,
				"element": "N" 
			},
			{
				"x": -1.5063496161,
				"y": -1.3395937081,
				"z": -2.8089927406,
				"element": "H" 
			},
			{
				"x": 0.0881076483,
				"y": -1.2838345496,
				"z": -2.0344293087,
				"element": "H" 
			},
			{
				"x": -1.3718799459,
				"y": -1.500134075,
				"z": -1.0474214187,
				"element": "H" 
			},
			{
				"x": -2.1393386505,
				"y": 0.8214762717,
				"z": -1.6826444555,
				"element": "H" 
			},
			{
				"x": -0.688538872,
				"y": 1.0383294642,
				"z": -2.6665840352,
				"element": "H" 
			},
			{
				"x": 1.4864908465,
				"y": 2.1659512781,
				"z": 2.6080569319,
				"element": "H" 
			},
			{
				"x": 0.6783716949,
				"y": 0.177940674,
				"z": 3.0861905282,
				"element": "H" 
			},
			{
				"x": -2.122580808,
				"y": 1.8943009242,
				"z": 1.6285708389,
				"element": "H" 
			},
			{
				"x": -4.314008477,
				"y": 0.8075951221,
				"z": 1.2977675358,
				"element": "H" 
			},
			{
				"x": -2.5693880792,
				"y": -3.0194575365,
				"z": 2.1891343868,
				"element": "H" 
			},
			{
				"x": -0.3596508435,
				"y": -1.9389008761,
				"z": 2.4864594399,
				"element": "H" 
			}
		],
		 "valence_orbital": [ 
			{
				"type": "occ",
				"energy": -0.2998,
				"method": "rhf"
			},
			{
				"type": "occ",
				"energy": -0.2845,
				"method": "rhf"
			},
			{
				"type": "occ",
				"energy": -0.28002,
				"method": "rhf"
			},
			{
				"type": "occ",
				"energy": -0.2682,
				"method": "rhf"
			},
			{
				"type": "occ",
				"energy": -0.22764,
				"method": "rhf"
			},
			{
				"type": "unocc",
				"energy": -0.06702,
				"method": "rhf"
			},
			{
				"type": "unocc",
				"energy": -0.03554,
				"method": "rhf"
			},
			{
				"type": "unocc",
				"energy": -0.01453,
				"method": "rhf"
			},
			{
				"type": "unocc",
				"energy": -0.00622,
				"method": "rhf"
			},
			{
				"type": "unocc",
				"energy": 0.02228,
				"method": "rhf"
			}
		],
		"cosmo_sigma_profile": { 
			"-0.025": 0.0,
			"-0.024": 0.0,
			"-0.023": 0.0,
			"-0.022": 0.0,
			"-0.021": 0.0,
			"-0.02": 0.0,
			"-0.019": 0.0,
			"-0.018": 0.0527462456947,
			"-0.017": 1.64990541206,
			"-0.016": 1.88569558564,
			"-0.015": 1.10756114005,
			"-0.014": 1.83524753995,
			"-0.013": 1.35094070712,
			"-0.012": 1.744963339,
			"-0.011": 2.73098027382,
			"-0.01": 2.9158717849,
			"-0.009": 2.26488097483,
			"-0.008": 4.90330736885,
			"-0.007": 9.19560235057,
			"-0.006": 10.2180334648,
			"-0.005": 13.4567047998,
			"-0.004": 19.2814603306,
			"-0.003": 21.9604635296,
			"-0.002": 19.6945722592,
			"-0.001": 21.9685582615,
			"0.0": 28.35470638,
			"0.001": 23.0072338663,
			"0.002": 19.4576843909,
			"0.003": 14.6733320191,
			"0.004": 15.9309784907,
			"0.005": 10.0179758788,
			"0.006": 4.73694904137,
			"0.007": 5.99400436266,
			"0.008": 5.52853977493,
			"0.009": 5.07879042963,
			"0.01": 5.63898619662,
			"0.011": 6.71548465183,
			"0.012": 7.44380035807,
			"0.013": 2.75579214151,
			"0.014": 1.11264273559,
			"0.015": 0.0,
			"0.016": 0.0,
			"0.017": 0.0,
			"0.018": 0.0,
			"0.019": 0.0,
			"0.02": 0.0,
			"0.021": 0.0,
			"0.022": 0.0,
			"0.023": 0.0,
			"0.024": 0.0,
			"0.025": 0.0
		}
	}
}
