{
	 "smiles": "NC(=O)C(Br)(Br)C#N", 
	 "Tm": 397.15, 
	 "num_atms": 10, 
	 "gaussian": { 
		 "optdone": 1, 
		 "sigma_profile": "yes", 
		 "theory": "DFT", 
		 "functional": "B3LYP", 
		 "basiset": "6-31G**", 
		 "properties": { 
			 "R2extent": 4055.0355, 
			 "electric_dipole_moment_norm": 2.08333734186, 
			 "electric_quadrupole_moment_norm": 13.8689155218, 
			 "total_energy": -5443.02361968, 
			 "HOMO_LUMO_gap": 0.20616, 
			 "cosmo_polarized_energy": -12.86, 
			 "cosmo_cavitation_energy": 20.33, 
			 "cosmo_dispersion_energy": -15.0, 
			 "cosmo_repulsion_energy": 1.28, 
			 "cosmo_total_nonelectrostatic_energy": 6.6, 
			 "SMD_solvation_energy": 3.35 
		},
		"coords": [
			{
				"x": -0.3148963206,
				"y": -1.0792889672,
				"z": -1.4825419667,
				"element": "N" 
			},
			{
				"x": 0.895273272,
				"y": -0.7815130735,
				"z": -0.9526812077,
				"element": "C" 
			},
			{
				"x": 1.5246185702,
				"y": 0.2308216797,
				"z": -1.1643277586,
				"element": "O" 
			},
			{
				"x": 1.456422274,
				"y": -1.8741537338,
				"z": 0.0315723421,
				"element": "C" 
			},
			{
				"x": 3.3197819593,
				"y": -2.2549332191,
				"z": -0.4551825787,
				"element": "Br" 
			},
			{
				"x": 1.3454836017,
				"y": -1.1155402879,
				"z": 1.8560175318,
				"element": "Br" 
			},
			{
				"x": 0.7227267682,
				"y": -3.1266888786,
				"z": 0.0296370214,
				"element": "C" 
			},
			{
				"x": 0.0842536688,
				"y": -4.0968791847,
				"z": -0.0211852124,
				"element": "N" 
			},
			{
				"x": -0.8008619527,
				"y": -1.9450381206,
				"z": -1.3068180402,
				"element": "H" 
			},
			{
				"x": -0.7265018409,
				"y": -0.3990862142,
				"z": -2.1040901309,
				"element": "H" 
			}
		],
		 "valence_orbital": [ 
			{
				"type": "occ",
				"energy": -0.31553,
				"method": "rhf"
			},
			{
				"type": "occ",
				"energy": -0.31221,
				"method": "rhf"
			},
			{
				"type": "occ",
				"energy": -0.30047,
				"method": "rhf"
			},
			{
				"type": "occ",
				"energy": -0.29931,
				"method": "rhf"
			},
			{
				"type": "occ",
				"energy": -0.28996,
				"method": "rhf"
			},
			{
				"type": "unocc",
				"energy": -0.0838,
				"method": "rhf"
			},
			{
				"type": "unocc",
				"energy": -0.07553,
				"method": "rhf"
			},
			{
				"type": "unocc",
				"energy": 0.00054,
				"method": "rhf"
			},
			{
				"type": "unocc",
				"energy": 0.00454,
				"method": "rhf"
			},
			{
				"type": "unocc",
				"energy": 0.06184,
				"method": "rhf"
			}
		],
		"cosmo_sigma_profile": { 
			"-0.025": 0.0,
			"-0.024": 0.0,
			"-0.023": 0.0,
			"-0.022": 0.0,
			"-0.021": 0.0,
			"-0.02": 0.0,
			"-0.019": 0.0,
			"-0.018": 0.0,
			"-0.017": 0.0190412295934,
			"-0.016": 0.963362452905,
			"-0.015": 2.17734892359,
			"-0.014": 2.44354376881,
			"-0.013": 2.1773619916,
			"-0.012": 1.9247257921,
			"-0.011": 2.10175669129,
			"-0.01": 2.4995541753,
			"-0.009": 2.27686142367,
			"-0.008": 3.24012470908,
			"-0.007": 5.71842985707,
			"-0.006": 4.7541057475,
			"-0.005": 7.05313534356,
			"-0.004": 5.8027919035,
			"-0.003": 6.5417327097,
			"-0.002": 9.38986742187,
			"-0.001": 11.5892338315,
			"0.0": 13.5999514919,
			"0.001": 16.9259505434,
			"0.002": 21.4341165264,
			"0.003": 6.97770665138,
			"0.004": 4.4915240923,
			"0.005": 4.807118771,
			"0.006": 4.72881825113,
			"0.007": 5.02483795373,
			"0.008": 3.50929633154,
			"0.009": 4.17862341834,
			"0.01": 4.61492400915,
			"0.011": 5.5990431285,
			"0.012": 3.46152158482,
			"0.013": 0.0179435907748,
			"0.014": 0.0,
			"0.015": 0.0,
			"0.016": 0.0,
			"0.017": 0.0,
			"0.018": 0.0,
			"0.019": 0.0,
			"0.02": 0.0,
			"0.021": 0.0,
			"0.022": 0.0,
			"0.023": 0.0,
			"0.024": 0.0,
			"0.025": 0.0
		}
	}
}
