{
	 "smiles": "CC(C)(C)C(N)=S", 
	 "Tm": 388.15, 
	 "num_atms": 18, 
	 "gaussian": { 
		 "optdone": 1, 
		 "sigma_profile": "yes", 
		 "theory": "DFT", 
		 "functional": "B3LYP", 
		 "basiset": "6-31G**", 
		 "properties": { 
			 "R2extent": 1187.5447, 
			 "electric_dipole_moment_norm": 4.51036938288, 
			 "electric_quadrupole_moment_norm": 12.6174298801, 
			 "total_energy": -650.117844285, 
			 "HOMO_LUMO_gap": 0.17547, 
			 "cosmo_polarized_energy": -13.63, 
			 "cosmo_cavitation_energy": 21.34, 
			 "cosmo_dispersion_energy": -15.81, 
			 "cosmo_repulsion_energy": 1.28, 
			 "cosmo_total_nonelectrostatic_energy": 6.8, 
			 "SMD_solvation_energy": 3.06 
		},
		"coords": [
			{
				"x": 0.5155791667,
				"y": -0.788896345,
				"z": -1.3178716055,
				"element": "C" 
			},
			{
				"x": -0.3714553128,
				"y": 0.0228476952,
				"z": -0.341319347,
				"element": "C" 
			},
			{
				"x": -0.3905123046,
				"y": -0.6611578066,
				"z": 1.0483128094,
				"element": "C" 
			},
			{
				"x": -1.8057983331,
				"y": 0.0544704583,
				"z": -0.8922082037,
				"element": "C" 
			},
			{
				"x": 0.2161472905,
				"y": 1.4454336769,
				"z": -0.1933030147,
				"element": "C" 
			},
			{
				"x": 1.4762196609,
				"y": 1.4830389621,
				"z": 0.2879564321,
				"element": "N" 
			},
			{
				"x": -0.5801891037,
				"y": 2.8577919999,
				"z": -0.5757819447,
				"element": "S" 
			},
			{
				"x": 0.5646609237,
				"y": -0.3017387738,
				"z": -2.2964387751,
				"element": "H" 
			},
			{
				"x": 1.5405541901,
				"y": -0.9164955124,
				"z": -0.9538224051,
				"element": "H" 
			},
			{
				"x": 0.0917339847,
				"y": -1.7886048813,
				"z": -1.4571815071,
				"element": "H" 
			},
			{
				"x": -0.8348358504,
				"y": -1.6580149761,
				"z": 0.9628290469,
				"element": "H" 
			},
			{
				"x": -0.9885083574,
				"y": -0.0829017004,
				"z": 1.7591895055,
				"element": "H" 
			},
			{
				"x": 0.6108741679,
				"y": -0.7854376187,
				"z": 1.473921401,
				"element": "H" 
			},
			{
				"x": -2.4727747634,
				"y": 0.6153941068,
				"z": -0.2339702505,
				"element": "H" 
			},
			{
				"x": -1.8439215274,
				"y": 0.5259649617,
				"z": -1.8765880154,
				"element": "H" 
			},
			{
				"x": -2.1811839949,
				"y": -0.9709494557,
				"z": -0.9800613882,
				"element": "H" 
			},
			{
				"x": 1.9211219475,
				"y": 2.3808860902,
				"z": 0.4096169032,
				"element": "H" 
			},
			{
				"x": 1.9897882156,
				"y": 0.6495691189,
				"z": 0.5301203588,
				"element": "H" 
			}
		],
		 "valence_orbital": [ 
			{
				"type": "occ",
				"energy": -0.34619,
				"method": "rhf"
			},
			{
				"type": "occ",
				"energy": -0.33126,
				"method": "rhf"
			},
			{
				"type": "occ",
				"energy": -0.32635,
				"method": "rhf"
			},
			{
				"type": "occ",
				"energy": -0.22781,
				"method": "rhf"
			},
			{
				"type": "occ",
				"energy": -0.20246,
				"method": "rhf"
			},
			{
				"type": "unocc",
				"energy": -0.02699,
				"method": "rhf"
			},
			{
				"type": "unocc",
				"energy": 0.05013,
				"method": "rhf"
			},
			{
				"type": "unocc",
				"energy": 0.09071,
				"method": "rhf"
			},
			{
				"type": "unocc",
				"energy": 0.10136,
				"method": "rhf"
			},
			{
				"type": "unocc",
				"energy": 0.12496,
				"method": "rhf"
			}
		],
		"cosmo_sigma_profile": { 
			"-0.025": 0.0,
			"-0.024": 0.0,
			"-0.023": 0.0,
			"-0.022": 0.0,
			"-0.021": 0.0,
			"-0.02": 0.0,
			"-0.019": 0.0,
			"-0.018": 0.0,
			"-0.017": 0.0,
			"-0.016": 0.0,
			"-0.015": 0.880266822229,
			"-0.014": 2.66888115102,
			"-0.013": 2.77710099878,
			"-0.012": 2.33881752977,
			"-0.011": 2.92836885142,
			"-0.01": 1.81626911108,
			"-0.009": 1.98219209022,
			"-0.008": 2.05565870855,
			"-0.007": 1.6082777465,
			"-0.006": 1.86745035637,
			"-0.005": 2.55484188101,
			"-0.004": 7.37916859454,
			"-0.003": 16.0490122095,
			"-0.002": 17.6474860849,
			"-0.001": 17.5382857958,
			"0.0": 20.8311830174,
			"0.001": 15.4817008422,
			"0.002": 5.4835935931,
			"0.003": 3.91244294811,
			"0.004": 3.68560943054,
			"0.005": 4.15386515686,
			"0.006": 3.87499087242,
			"0.007": 3.83626000598,
			"0.008": 5.31175835127,
			"0.009": 6.44809071213,
			"0.01": 6.98913730914,
			"0.011": 3.84271339603,
			"0.012": 1.86877285325,
			"0.013": 0.36431812683,
			"0.014": 0.0,
			"0.015": 0.0,
			"0.016": 0.0,
			"0.017": 0.0,
			"0.018": 0.0,
			"0.019": 0.0,
			"0.02": 0.0,
			"0.021": 0.0,
			"0.022": 0.0,
			"0.023": 0.0,
			"0.024": 0.0,
			"0.025": 0.0
		}
	}
}
