{
	 "smiles": "SC1=NC(=N)SS1", 
	 "Tm": 467.15, 
	 "num_atms": 9, 
	 "gaussian": { 
		 "optdone": 1, 
		 "sigma_profile": "yes", 
		 "theory": "DFT", 
		 "functional": "B3LYP", 
		 "basiset": "6-31G**", 
		 "properties": { 
			 "R2extent": 1765.6934, 
			 "electric_dipole_moment_norm": 2.97219460164, 
			 "electric_quadrupole_moment_norm": 10.8835941761, 
			 "total_energy": -1381.45268669, 
			 "HOMO_LUMO_gap": 0.1576, 
			 "cosmo_polarized_energy": -8.33, 
			 "cosmo_cavitation_energy": 18.75, 
			 "cosmo_dispersion_energy": -15.77, 
			 "cosmo_repulsion_energy": 1.18, 
			 "cosmo_total_nonelectrostatic_energy": 4.16, 
			 "SMD_solvation_energy": -0.51 
		},
		"coords": [
			{
				"x": 0.5163786439,
				"y": -1.4839717729,
				"z": -0.1269286777,
				"element": "S" 
			},
			{
				"x": 0.0832021922,
				"y": 0.135541263,
				"z": -0.6838463923,
				"element": "C" 
			},
			{
				"x": 0.8974390395,
				"y": 1.1232379861,
				"z": -0.6712263608,
				"element": "N" 
			},
			{
				"x": 0.4321268714,
				"y": 2.3523274282,
				"z": -1.1385756173,
				"element": "C" 
			},
			{
				"x": 1.0538587121,
				"y": 3.4519542722,
				"z": -1.2176162614,
				"element": "N" 
			},
			{
				"x": -1.3115002,
				"y": 2.3440941913,
				"z": -1.7061173065,
				"element": "S" 
			},
			{
				"x": -1.5927395981,
				"y": 0.3052588006,
				"z": -1.2748955451,
				"element": "S" 
			},
			{
				"x": 1.7775735436,
				"y": -1.1361864247,
				"z": 0.1960002962,
				"element": "H" 
			},
			{
				"x": 2.0103607955,
				"y": 3.3414442561,
				"z": -0.876794135,
				"element": "H" 
			}
		],
		 "valence_orbital": [ 
			{
				"type": "occ",
				"energy": -0.32826,
				"method": "rhf"
			},
			{
				"type": "occ",
				"energy": -0.30754,
				"method": "rhf"
			},
			{
				"type": "occ",
				"energy": -0.29021,
				"method": "rhf"
			},
			{
				"type": "occ",
				"energy": -0.28071,
				"method": "rhf"
			},
			{
				"type": "occ",
				"energy": -0.23376,
				"method": "rhf"
			},
			{
				"type": "unocc",
				"energy": -0.07616,
				"method": "rhf"
			},
			{
				"type": "unocc",
				"energy": -0.06487,
				"method": "rhf"
			},
			{
				"type": "unocc",
				"energy": -0.02351,
				"method": "rhf"
			},
			{
				"type": "unocc",
				"energy": 0.00017,
				"method": "rhf"
			},
			{
				"type": "unocc",
				"energy": 0.03975,
				"method": "rhf"
			}
		],
		"cosmo_sigma_profile": { 
			"-0.025": 0.0,
			"-0.024": 0.0,
			"-0.023": 0.0,
			"-0.022": 0.0,
			"-0.021": 0.0,
			"-0.02": 0.0,
			"-0.019": 0.0,
			"-0.018": 0.0,
			"-0.017": 0.0,
			"-0.016": 0.0,
			"-0.015": 0.0,
			"-0.014": 0.148888909795,
			"-0.013": 1.75522284568,
			"-0.012": 1.84802241584,
			"-0.011": 2.70597906521,
			"-0.01": 2.39131109154,
			"-0.009": 2.18443136688,
			"-0.008": 2.03895614198,
			"-0.007": 3.32575340649,
			"-0.006": 5.02760915367,
			"-0.005": 5.67910799466,
			"-0.004": 7.28300981883,
			"-0.003": 9.07830111093,
			"-0.002": 12.3301073767,
			"-0.001": 13.713161452,
			"0.0": 15.3860796696,
			"0.001": 15.2470551908,
			"0.002": 13.0074098401,
			"0.003": 12.6938723338,
			"0.004": 9.86241024134,
			"0.005": 5.49833130504,
			"0.006": 3.13599478345,
			"0.007": 2.89152474714,
			"0.008": 1.8583136239,
			"0.009": 2.14237763207,
			"0.01": 1.57475867334,
			"0.011": 0.281436291422,
			"0.012": 1.42171081053,
			"0.013": 1.21177080358,
			"0.014": 1.10840476537,
			"0.015": 0.79894093435,
			"0.016": 0.534894157877,
			"0.017": 0.0,
			"0.018": 0.0,
			"0.019": 0.0,
			"0.02": 0.0,
			"0.021": 0.0,
			"0.022": 0.0,
			"0.023": 0.0,
			"0.024": 0.0,
			"0.025": 0.0
		}
	}
}
