{
	 "smiles": "ClC1=CC2=C(OC3=C(O2)C(Cl)=C(Cl)C(Cl)=C3)C(Cl)=C1Cl", 
	 "Tm": 558.15, 
	 "num_atms": 22, 
	 "gaussian": { 
		 "optdone": 1, 
		 "sigma_profile": "yes", 
		 "theory": "DFT", 
		 "functional": "B3LYP", 
		 "basiset": "6-31G**", 
		 "properties": { 
			 "R2extent": 12863.4047, 
			 "electric_dipole_moment_norm": 0.0, 
			 "electric_quadrupole_moment_norm": 11.2758367477, 
			 "total_energy": -3370.03633942, 
			 "HOMO_LUMO_gap": 0.17253, 
			 "cosmo_polarized_energy": -6.04, 
			 "cosmo_cavitation_energy": 37.98, 
			 "cosmo_dispersion_energy": -28.85, 
			 "cosmo_repulsion_energy": 2.19, 
			 "cosmo_total_nonelectrostatic_energy": 11.31, 
			 "SMD_solvation_energy": 5.37 
		},
		"coords": [
			{
				"x": 2.8799857654,
				"y": 4.1878332746,
				"z": 1.3368450759,
				"element": "Cl" 
			},
			{
				"x": 1.8951687604,
				"y": 2.754664011,
				"z": 1.4492552789,
				"element": "C" 
			},
			{
				"x": 0.6156001882,
				"y": 2.7914137112,
				"z": 0.8941297823,
				"element": "C" 
			},
			{
				"x": -0.1955319174,
				"y": 1.6707886364,
				"z": 0.9646701626,
				"element": "C" 
			},
			{
				"x": 0.2525645022,
				"y": 0.502532327,
				"z": 1.5857134727,
				"element": "C" 
			},
			{
				"x": -0.5339949808,
				"y": -0.6194135496,
				"z": 1.6670877249,
				"element": "O" 
			},
			{
				"x": -1.7893584942,
				"y": -0.5360529564,
				"z": 1.1050326514,
				"element": "C" 
			},
			{
				"x": -2.237455071,
				"y": 0.6322059404,
				"z": 0.4839896008,
				"element": "C" 
			},
			{
				"x": -1.4508860391,
				"y": 1.7541438852,
				"z": 0.4025924278,
				"element": "O" 
			},
			{
				"x": -3.5180063207,
				"y": 0.6717737287,
				"z": -0.0725427903,
				"element": "C" 
			},
			{
				"x": -4.0368943424,
				"y": 2.1416069535,
				"z": -0.8348385739,
				"element": "Cl" 
			},
			{
				"x": -4.3550541423,
				"y": -0.4602466129,
				"z": -0.0087786859,
				"element": "C" 
			},
			{
				"x": -5.9443676328,
				"y": -0.4081691803,
				"z": -0.7006469855,
				"element": "Cl" 
			},
			{
				"x": -3.8800749888,
				"y": -1.6199120769,
				"z": 0.6204877117,
				"element": "C" 
			},
			{
				"x": -4.8649004048,
				"y": -3.0530737443,
				"z": 0.7329217672,
				"element": "Cl" 
			},
			{
				"x": -2.6004982035,
				"y": -1.6566705146,
				"z": 1.1755951351,
				"element": "C" 
			},
			{
				"x": 1.5331070807,
				"y": 0.4629700865,
				"z": 2.1422643806,
				"element": "C" 
			},
			{
				"x": 2.0519958037,
				"y": -1.0068640493,
				"z": 2.9045614628,
				"element": "Cl" 
			},
			{
				"x": 2.370147492,
				"y": 1.594998529,
				"z": 2.0785215791,
				"element": "C" 
			},
			{
				"x": 3.9594503402,
				"y": 1.5429277056,
				"z": 2.7704149286,
				"element": "Cl" 
			},
			{
				"x": 0.246354908,
				"y": 3.685698983,
				"z": 0.4075940823,
				"element": "H" 
			},
			{
				"x": -2.2312523031,
				"y": -2.5509550877,
				"z": 1.6621298111,
				"element": "H" 
			}
		],
		 "valence_orbital": [ 
			{
				"type": "occ",
				"energy": -0.31728,
				"method": "rhf"
			},
			{
				"type": "occ",
				"energy": -0.27894,
				"method": "rhf"
			},
			{
				"type": "occ",
				"energy": -0.27574,
				"method": "rhf"
			},
			{
				"type": "occ",
				"energy": -0.26005,
				"method": "rhf"
			},
			{
				"type": "occ",
				"energy": -0.23055,
				"method": "rhf"
			},
			{
				"type": "unocc",
				"energy": -0.05802,
				"method": "rhf"
			},
			{
				"type": "unocc",
				"energy": -0.04779,
				"method": "rhf"
			},
			{
				"type": "unocc",
				"energy": -0.0462,
				"method": "rhf"
			},
			{
				"type": "unocc",
				"energy": -0.0371,
				"method": "rhf"
			},
			{
				"type": "unocc",
				"energy": -0.0296,
				"method": "rhf"
			}
		],
		"cosmo_sigma_profile": { 
			"-0.025": 0.0,
			"-0.024": 0.0,
			"-0.023": 0.0,
			"-0.022": 0.0,
			"-0.021": 0.0,
			"-0.02": 0.0,
			"-0.019": 0.0,
			"-0.018": 0.0,
			"-0.017": 0.0,
			"-0.016": 0.0,
			"-0.015": 0.0,
			"-0.014": 0.0,
			"-0.013": 0.0,
			"-0.012": 0.0,
			"-0.011": 0.0,
			"-0.01": 1.34233863798,
			"-0.009": 2.92321423566,
			"-0.008": 3.99485762051,
			"-0.007": 3.96447931135,
			"-0.006": 4.91261128753,
			"-0.005": 5.96649964678,
			"-0.004": 11.8180289861,
			"-0.003": 22.8719939782,
			"-0.002": 39.1502540488,
			"-0.001": 46.578045484,
			"0.0": 31.6312990252,
			"0.001": 24.7230951155,
			"0.002": 35.023734944,
			"0.003": 50.3347037258,
			"0.004": 28.0855070253,
			"0.005": 4.7177975179,
			"0.006": 3.24239664755,
			"0.007": 0.293383271889,
			"0.008": 0.0,
			"0.009": 0.0,
			"0.01": 0.0,
			"0.011": 0.0,
			"0.012": 0.0,
			"0.013": 0.0,
			"0.014": 0.0,
			"0.015": 0.0,
			"0.016": 0.0,
			"0.017": 0.0,
			"0.018": 0.0,
			"0.019": 0.0,
			"0.02": 0.0,
			"0.021": 0.0,
			"0.022": 0.0,
			"0.023": 0.0,
			"0.024": 0.0,
			"0.025": 0.0
		}
	}
}
