{
	 "smiles": "OCC1=CN=NS1", 
	 "Tm": 308.15, 
	 "num_atms": 11, 
	 "gaussian": { 
		 "optdone": 1, 
		 "sigma_profile": "yes", 
		 "theory": "DFT", 
		 "functional": "B3LYP", 
		 "basiset": "6-31G**", 
		 "properties": { 
			 "R2extent": 963.5643, 
			 "electric_dipole_moment_norm": 3.37606342061, 
			 "electric_quadrupole_moment_norm": 7.8498434099, 
			 "total_energy": -699.580088214, 
			 "HOMO_LUMO_gap": 0.20281, 
			 "cosmo_polarized_energy": -11.72, 
			 "cosmo_cavitation_energy": 17.1, 
			 "cosmo_dispersion_energy": -13.39, 
			 "cosmo_repulsion_energy": 1.08, 
			 "cosmo_total_nonelectrostatic_energy": 4.79, 
			 "SMD_solvation_energy": 1.25 
		},
		"coords": [
			{
				"x": 2.023696868,
				"y": -0.8574319526,
				"z": -1.3094020801,
				"element": "O" 
			},
			{
				"x": 0.7052211985,
				"y": -0.6924123145,
				"z": -1.7934440807,
				"element": "C" 
			},
			{
				"x": -0.200070926,
				"y": -0.0292234081,
				"z": -0.7840127741,
				"element": "C" 
			},
			{
				"x": 0.1976691061,
				"y": 0.6442038448,
				"z": 0.3456821601,
				"element": "C" 
			},
			{
				"x": -0.8305663561,
				"y": 1.1611404922,
				"z": 1.0903905023,
				"element": "N" 
			},
			{
				"x": -1.9977698024,
				"y": 0.955204475,
				"z": 0.6419019867,
				"element": "N" 
			},
			{
				"x": -1.9118995465,
				"y": 0.0192905148,
				"z": -0.8637544869,
				"element": "S" 
			},
			{
				"x": 2.0003343813,
				"y": -1.5098380925,
				"z": -0.5965097284,
				"element": "H" 
			},
			{
				"x": 0.2649472879,
				"y": -1.6442775905,
				"z": -2.1257888698,
				"element": "H" 
			},
			{
				"x": 0.7879929443,
				"y": -0.0551613931,
				"z": -2.6811337673,
				"element": "H" 
			},
			{
				"x": 1.2206448448,
				"y": 0.7899054244,
				"z": 0.6641711382,
				"element": "H" 
			}
		],
		 "valence_orbital": [ 
			{
				"type": "occ",
				"energy": -0.35604,
				"method": "rhf"
			},
			{
				"type": "occ",
				"energy": -0.31033,
				"method": "rhf"
			},
			{
				"type": "occ",
				"energy": -0.29918,
				"method": "rhf"
			},
			{
				"type": "occ",
				"energy": -0.27337,
				"method": "rhf"
			},
			{
				"type": "occ",
				"energy": -0.2636,
				"method": "rhf"
			},
			{
				"type": "unocc",
				"energy": -0.06079,
				"method": "rhf"
			},
			{
				"type": "unocc",
				"energy": -0.01906,
				"method": "rhf"
			},
			{
				"type": "unocc",
				"energy": 0.02918,
				"method": "rhf"
			},
			{
				"type": "unocc",
				"energy": 0.05349,
				"method": "rhf"
			},
			{
				"type": "unocc",
				"energy": 0.08292,
				"method": "rhf"
			}
		],
		"cosmo_sigma_profile": { 
			"-0.025": 0.0,
			"-0.024": 0.0,
			"-0.023": 0.0,
			"-0.022": 0.0,
			"-0.021": 0.0,
			"-0.02": 0.0,
			"-0.019": 0.0,
			"-0.018": 0.0,
			"-0.017": 0.170351780922,
			"-0.016": 1.23402181398,
			"-0.015": 0.971386769355,
			"-0.014": 0.922312490582,
			"-0.013": 0.959875981799,
			"-0.012": 1.37281583813,
			"-0.011": 0.51036017906,
			"-0.01": 1.12445045663,
			"-0.009": 1.03588050117,
			"-0.008": 4.9865130294,
			"-0.007": 9.99808509757,
			"-0.006": 8.7183388858,
			"-0.005": 5.25164385423,
			"-0.004": 5.77834838568,
			"-0.003": 5.6118039068,
			"-0.002": 7.62493725382,
			"-0.001": 11.1311715604,
			"0.0": 12.9056391938,
			"0.001": 11.316499645,
			"0.002": 5.86832613946,
			"0.003": 3.68488869746,
			"0.004": 4.21806659798,
			"0.005": 2.9939123645,
			"0.006": 3.06782367333,
			"0.007": 2.90579178605,
			"0.008": 4.39833382762,
			"0.009": 5.04039391311,
			"0.01": 4.19709465461,
			"0.011": 3.99987073033,
			"0.012": 3.97616087857,
			"0.013": 2.91105063348,
			"0.014": 0.059985937396,
			"0.015": 0.0,
			"0.016": 0.0,
			"0.017": 0.0,
			"0.018": 0.0,
			"0.019": 0.0,
			"0.02": 0.0,
			"0.021": 0.0,
			"0.022": 0.0,
			"0.023": 0.0,
			"0.024": 0.0,
			"0.025": 0.0
		}
	}
}
