{
	 "smiles": "CC(N)C1=CC2=C(NC(=O)N2)C=C1", 
	 "Tm": 668.15, 
	 "num_atms": 24, 
	 "gaussian": { 
		 "optdone": 1, 
		 "sigma_profile": "yes", 
		 "theory": "DFT", 
		 "functional": "B3LYP", 
		 "basiset": "6-31G**", 
		 "properties": { 
			 "R2extent": 3260.5526, 
			 "electric_dipole_moment_norm": 2.16959070794, 
			 "electric_quadrupole_moment_norm": 28.1598526097, 
			 "total_energy": -589.101437541, 
			 "HOMO_LUMO_gap": 0.1968, 
			 "cosmo_polarized_energy": -17.47, 
			 "cosmo_cavitation_energy": 27.54, 
			 "cosmo_dispersion_energy": -20.31, 
			 "cosmo_repulsion_energy": 1.62, 
			 "cosmo_total_nonelectrostatic_energy": 8.85, 
			 "SMD_solvation_energy": 4.09 
		},
		"coords": [
			{
				"x": 2.7791529346,
				"y": -0.438807578,
				"z": 1.6730007116,
				"element": "C" 
			},
			{
				"x": 1.2447597692,
				"y": -0.4095021151,
				"z": 1.751639874,
				"element": "C" 
			},
			{
				"x": 0.854044525,
				"y": 0.3445718402,
				"z": 2.9478170163,
				"element": "N" 
			},
			{
				"x": 0.6344975125,
				"y": 0.0654662484,
				"z": 0.4285178709,
				"element": "C" 
			},
			{
				"x": 0.275615869,
				"y": -0.8861958496,
				"z": -0.5419372008,
				"element": "C" 
			},
			{
				"x": -0.2369051942,
				"y": -0.4430414908,
				"z": -1.7530819927,
				"element": "C" 
			},
			{
				"x": -0.4036241767,
				"y": 0.9330290923,
				"z": -2.0172199285,
				"element": "C" 
			},
			{
				"x": -0.9404807327,
				"y": 1.0291279334,
				"z": -3.2975377137,
				"element": "N" 
			},
			{
				"x": -1.1252286427,
				"y": -0.2313573893,
				"z": -3.8682226412,
				"element": "C" 
			},
			{
				"x": -1.5705048802,
				"y": -0.4970254579,
				"z": -4.9694171651,
				"element": "O" 
			},
			{
				"x": -0.6813946122,
				"y": -1.1185877639,
				"z": -2.8848323451,
				"element": "N" 
			},
			{
				"x": -0.058243273,
				"y": 1.8833933552,
				"z": -1.0668143584,
				"element": "C" 
			},
			{
				"x": 0.46040847,
				"y": 1.4290940846,
				"z": 0.1525846802,
				"element": "C" 
			},
			{
				"x": 3.1735229379,
				"y": 0.5702582878,
				"z": 1.5026954504,
				"element": "H" 
			},
			{
				"x": 3.1969502767,
				"y": -0.8203992008,
				"z": 2.6091335107,
				"element": "H" 
			},
			{
				"x": 3.1187929804,
				"y": -1.0692348213,
				"z": 0.8465397079,
				"element": "H" 
			},
			{
				"x": 0.9012998179,
				"y": -1.4412404665,
				"z": 1.9090720364,
				"element": "H" 
			},
			{
				"x": 1.2736312717,
				"y": 1.2715571389,
				"z": 2.9333439752,
				"element": "H" 
			},
			{
				"x": -0.1537638086,
				"y": 0.4829998812,
				"z": 2.9619482206,
				"element": "H" 
			},
			{
				"x": 0.3965593467,
				"y": -1.9478295112,
				"z": -0.3420098527,
				"element": "H" 
			},
			{
				"x": -1.182249425,
				"y": 1.8706308463,
				"z": -3.7948227793,
				"element": "H" 
			},
			{
				"x": -0.6980380308,
				"y": -2.1147354963,
				"z": -3.031239683,
				"element": "H" 
			},
			{
				"x": -0.1878029115,
				"y": 2.9443294325,
				"z": -1.2573844842,
				"element": "H" 
			},
			{
				"x": 0.7252999759,
				"y": 2.1613989999,
				"z": 0.9095270905,
				"element": "H" 
			}
		],
		 "valence_orbital": [ 
			{
				"type": "occ",
				"energy": -0.30069,
				"method": "rhf"
			},
			{
				"type": "occ",
				"energy": -0.26797,
				"method": "rhf"
			},
			{
				"type": "occ",
				"energy": -0.24321,
				"method": "rhf"
			},
			{
				"type": "occ",
				"energy": -0.23688,
				"method": "rhf"
			},
			{
				"type": "occ",
				"energy": -0.20547,
				"method": "rhf"
			},
			{
				"type": "unocc",
				"energy": -0.00867,
				"method": "rhf"
			},
			{
				"type": "unocc",
				"energy": 0.0104,
				"method": "rhf"
			},
			{
				"type": "unocc",
				"energy": 0.06926,
				"method": "rhf"
			},
			{
				"type": "unocc",
				"energy": 0.07564,
				"method": "rhf"
			},
			{
				"type": "unocc",
				"energy": 0.07926,
				"method": "rhf"
			}
		],
		"cosmo_sigma_profile": { 
			"-0.025": 0.0,
			"-0.024": 0.0,
			"-0.023": 0.0,
			"-0.022": 0.0,
			"-0.021": 0.0,
			"-0.02": 0.0,
			"-0.019": 0.0,
			"-0.018": 0.0,
			"-0.017": 0.0,
			"-0.016": 1.4946413163,
			"-0.015": 2.815978729,
			"-0.014": 1.91229469402,
			"-0.013": 2.73432409006,
			"-0.012": 1.64266646715,
			"-0.011": 2.11005702258,
			"-0.01": 2.80567890642,
			"-0.009": 4.01878603664,
			"-0.008": 5.18765665118,
			"-0.007": 7.07697783945,
			"-0.006": 9.25676648096,
			"-0.005": 7.98999699938,
			"-0.004": 10.4957878486,
			"-0.003": 15.2354245659,
			"-0.002": 14.390388383,
			"-0.001": 13.3458610961,
			"0.0": 16.8289557527,
			"0.001": 20.745374912,
			"0.002": 13.8648571373,
			"0.003": 9.40826069307,
			"0.004": 9.63745409511,
			"0.005": 8.60588994176,
			"0.006": 7.01739103224,
			"0.007": 2.51162545107,
			"0.008": 2.24111139344,
			"0.009": 1.38093537028,
			"0.01": 1.7287344767,
			"0.011": 2.23686723776,
			"0.012": 2.32734701306,
			"0.013": 4.71861390846,
			"0.014": 7.42849958635,
			"0.015": 1.6349190445,
			"0.016": 0.437730258485,
			"0.017": 0.565954482292,
			"0.018": 0.725557071352,
			"0.019": 0.439731269124,
			"0.02": 0.166519354306,
			"0.021": 0.0,
			"0.022": 0.0,
			"0.023": 0.0,
			"0.024": 0.0,
			"0.025": 0.0
		}
	}
}
