{
	 "smiles": "C=CCC1(C(=O)NC(=O)NC1=O)C1=CC=CC=C1", 
	 "Tm": 429.15, 
	 "num_atms": 30, 
	 "gaussian": { 
		 "optdone": 1, 
		 "sigma_profile": "yes", 
		 "theory": "DFT", 
		 "functional": "B3LYP", 
		 "basiset": "6-31G**", 
		 "properties": { 
			 "R2extent": 4135.6128, 
			 "electric_dipole_moment_norm": 1.52754309268, 
			 "electric_quadrupole_moment_norm": 10.8254026382, 
			 "total_energy": -837.811853323, 
			 "HOMO_LUMO_gap": 0.19021, 
			 "cosmo_polarized_energy": -16.9, 
			 "cosmo_cavitation_energy": 33.93, 
			 "cosmo_dispersion_energy": -23.52, 
			 "cosmo_repulsion_energy": 1.82, 
			 "cosmo_total_nonelectrostatic_energy": 12.24, 
			 "SMD_solvation_energy": 8.25 
		},
		"coords": [
			{
				"x": 0.0242799406,
				"y": 3.3512409882,
				"z": -1.0517831395,
				"element": "C" 
			},
			{
				"x": -0.4169467543,
				"y": 2.1356689228,
				"z": -0.731353506,
				"element": "C" 
			},
			{
				"x": 0.1656332592,
				"y": 0.8587903562,
				"z": -1.2686423195,
				"element": "C" 
			},
			{
				"x": 0.3906579032,
				"y": -0.2973696823,
				"z": -0.2400885976,
				"element": "C" 
			},
			{
				"x": 0.7405121149,
				"y": -1.5690844914,
				"z": -1.0414266022,
				"element": "C" 
			},
			{
				"x": 0.2563523861,
				"y": -1.8278582671,
				"z": -2.1275157993,
				"element": "O" 
			},
			{
				"x": 1.6004135661,
				"y": -2.4710814431,
				"z": -0.4308069114,
				"element": "N" 
			},
			{
				"x": 2.4326121717,
				"y": -2.2406105762,
				"z": 0.6583045999,
				"element": "C" 
			},
			{
				"x": 3.2052408376,
				"y": -3.0714788067,
				"z": 1.0881239791,
				"element": "O" 
			},
			{
				"x": 2.3228379532,
				"y": -0.960287491,
				"z": 1.1838769074,
				"element": "N" 
			},
			{
				"x": 1.5008072805,
				"y": 0.0770241536,
				"z": 0.7516979748,
				"element": "C" 
			},
			{
				"x": 1.6461381225,
				"y": 1.193337204,
				"z": 1.2077022926,
				"element": "O" 
			},
			{
				"x": -0.9132852264,
				"y": -0.6072175355,
				"z": 0.5518043224,
				"element": "C" 
			},
			{
				"x": -1.9762671594,
				"y": -1.2577893334,
				"z": -0.0947977624,
				"element": "C" 
			},
			{
				"x": -3.1685743795,
				"y": -1.5146722375,
				"z": 0.5814878608,
				"element": "C" 
			},
			{
				"x": -3.3227222609,
				"y": -1.1286729098,
				"z": 1.9135144423,
				"element": "C" 
			},
			{
				"x": -2.2751272973,
				"y": -0.4748287414,
				"z": 2.5603658532,
				"element": "C" 
			},
			{
				"x": -1.0802841628,
				"y": -0.2126602367,
				"z": 1.8869510394,
				"element": "C" 
			},
			{
				"x": 0.8948442781,
				"y": 3.4974830113,
				"z": -1.6868558768,
				"element": "H" 
			},
			{
				"x": -0.4658270888,
				"y": 4.2476220397,
				"z": -0.6844231708,
				"element": "H" 
			},
			{
				"x": -1.2894396421,
				"y": 2.0356601571,
				"z": -0.0886256895,
				"element": "H" 
			},
			{
				"x": -0.5062591031,
				"y": 0.4399174161,
				"z": -2.0258849397,
				"element": "H" 
			},
			{
				"x": 1.1135545382,
				"y": 1.0661278225,
				"z": -1.7784538375,
				"element": "H" 
			},
			{
				"x": 1.7495362807,
				"y": -3.3495599022,
				"z": -0.9135208318,
				"element": "H" 
			},
			{
				"x": 2.9953467958,
				"y": -0.7279546792,
				"z": 1.9055514108,
				"element": "H" 
			},
			{
				"x": -1.8705816086,
				"y": -1.568512314,
				"z": -1.1283229501,
				"element": "H" 
			},
			{
				"x": -3.977137908,
				"y": -2.0206495027,
				"z": 0.0619395437,
				"element": "H" 
			},
			{
				"x": -4.2505185701,
				"y": -1.3322681725,
				"z": 2.4399060108,
				"element": "H" 
			},
			{
				"x": -2.3824241658,
				"y": -0.1600834381,
				"z": 3.5943161056,
				"element": "H" 
			},
			{
				"x": -0.2922721013,
				"y": 0.3215676892,
				"z": 2.4048595913,
				"element": "H" 
			}
		],
		 "valence_orbital": [ 
			{
				"type": "occ",
				"energy": -0.30286,
				"method": "rhf"
			},
			{
				"type": "occ",
				"energy": -0.27281,
				"method": "rhf"
			},
			{
				"type": "occ",
				"energy": -0.26222,
				"method": "rhf"
			},
			{
				"type": "occ",
				"energy": -0.25988,
				"method": "rhf"
			},
			{
				"type": "occ",
				"energy": -0.24525,
				"method": "rhf"
			},
			{
				"type": "unocc",
				"energy": -0.05504,
				"method": "rhf"
			},
			{
				"type": "unocc",
				"energy": -0.02092,
				"method": "rhf"
			},
			{
				"type": "unocc",
				"energy": -0.01658,
				"method": "rhf"
			},
			{
				"type": "unocc",
				"energy": -0.00175,
				"method": "rhf"
			},
			{
				"type": "unocc",
				"energy": 0.02394,
				"method": "rhf"
			}
		],
		"cosmo_sigma_profile": { 
			"-0.025": 0.0,
			"-0.024": 0.0,
			"-0.023": 0.0,
			"-0.022": 0.0,
			"-0.021": 0.0,
			"-0.02": 0.0,
			"-0.019": 0.0,
			"-0.018": 0.0,
			"-0.017": 0.766337693356,
			"-0.016": 1.73311627438,
			"-0.015": 2.16025449296,
			"-0.014": 1.62736321764,
			"-0.013": 1.32213272989,
			"-0.012": 1.66356434394,
			"-0.011": 2.50101191554,
			"-0.01": 2.16430966948,
			"-0.009": 1.88506584275,
			"-0.008": 3.24816143563,
			"-0.007": 4.34821145913,
			"-0.006": 10.8241617773,
			"-0.005": 19.0997334033,
			"-0.004": 24.2098020875,
			"-0.003": 21.6828519554,
			"-0.002": 21.3231732686,
			"-0.001": 18.0258220976,
			"0.0": 16.1412211051,
			"0.001": 14.8890681345,
			"0.002": 16.1873233135,
			"0.003": 12.3897941679,
			"0.004": 13.9444110747,
			"0.005": 10.9614131882,
			"0.006": 6.21181637193,
			"0.007": 5.39273226121,
			"0.008": 4.07962102693,
			"0.009": 5.19438505884,
			"0.01": 7.63668631625,
			"0.011": 13.4482839449,
			"0.012": 4.81344246854,
			"0.013": 0.509854811071,
			"0.014": 0.0,
			"0.015": 0.0,
			"0.016": 0.0,
			"0.017": 0.0,
			"0.018": 0.0,
			"0.019": 0.0,
			"0.02": 0.0,
			"0.021": 0.0,
			"0.022": 0.0,
			"0.023": 0.0,
			"0.024": 0.0,
			"0.025": 0.0
		}
	}
}
