{
	 "smiles": "CN1NC(=O)C2=C1NC(=O)C(CCC(O)=O)=C2C", 
	 "Tm": 578.15, 
	 "num_atms": 31, 
	 "gaussian": { 
		 "optdone": 1, 
		 "sigma_profile": "yes", 
		 "theory": "DFT", 
		 "functional": "B3LYP", 
		 "basiset": "6-31G**", 
		 "properties": { 
			 "R2extent": 5227.0621, 
			 "electric_dipole_moment_norm": 3.60104485393, 
			 "electric_quadrupole_moment_norm": 33.1519682806, 
			 "total_energy": -892.174904705, 
			 "HOMO_LUMO_gap": 0.17403, 
			 "cosmo_polarized_energy": -26.69, 
			 "cosmo_cavitation_energy": 34.55, 
			 "cosmo_dispersion_energy": -24.4, 
			 "cosmo_repulsion_energy": 1.89, 
			 "cosmo_total_nonelectrostatic_energy": 12.03, 
			 "SMD_solvation_energy": 7.3 
		},
		"coords": [
			{
				"x": 2.7212041861,
				"y": -3.6546656763,
				"z": 2.0680565035,
				"element": "C" 
			},
			{
				"x": 2.9612855283,
				"y": -2.2082768435,
				"z": 2.061342818,
				"element": "N" 
			},
			{
				"x": 2.663663276,
				"y": -1.5740410446,
				"z": 3.3063821425,
				"element": "N" 
			},
			{
				"x": 2.1410512724,
				"y": -0.2671038809,
				"z": 3.0699587059,
				"element": "C" 
			},
			{
				"x": 2.0121514295,
				"y": 0.5627184626,
				"z": 3.9571993402,
				"element": "O" 
			},
			{
				"x": 1.8651312407,
				"y": -0.2283013828,
				"z": 1.6372243777,
				"element": "C" 
			},
			{
				"x": 2.3483311895,
				"y": -1.4098856624,
				"z": 1.114401329,
				"element": "C" 
			},
			{
				"x": 2.2102140033,
				"y": -1.7104455434,
				"z": -0.1943530189,
				"element": "N" 
			},
			{
				"x": 1.6018230402,
				"y": -0.8138865032,
				"z": -1.1141081786,
				"element": "C" 
			},
			{
				"x": 1.5540546878,
				"y": -1.1432314559,
				"z": -2.2964289268,
				"element": "O" 
			},
			{
				"x": 1.0950709933,
				"y": 0.4381404191,
				"z": -0.5526445372,
				"element": "C" 
			},
			{
				"x": 0.4455305867,
				"y": 1.3570557106,
				"z": -1.5625116196,
				"element": "C" 
			},
			{
				"x": -0.8996742821,
				"y": 0.8239726697,
				"z": -2.115973524,
				"element": "C" 
			},
			{
				"x": -1.9748449477,
				"y": 0.6591257062,
				"z": -1.0669453948,
				"element": "C" 
			},
			{
				"x": -2.2615699051,
				"y": 1.8343908585,
				"z": -0.4379191736,
				"element": "O" 
			},
			{
				"x": -2.5509707201,
				"y": -0.3685139065,
				"z": -0.788482957,
				"element": "O" 
			},
			{
				"x": 1.2344568193,
				"y": 0.7376893062,
				"z": 0.7876928753,
				"element": "C" 
			},
			{
				"x": 0.7599511272,
				"y": 2.0364408396,
				"z": 1.3978514016,
				"element": "C" 
			},
			{
				"x": 1.6749974789,
				"y": -3.8960046734,
				"z": 2.2909456745,
				"element": "H" 
			},
			{
				"x": 3.3663087575,
				"y": -4.1134432947,
				"z": 2.8194980882,
				"element": "H" 
			},
			{
				"x": 2.9992647676,
				"y": -4.0681553065,
				"z": 1.0958139934,
				"element": "H" 
			},
			{
				"x": 3.4443217809,
				"y": -1.6041142608,
				"z": 3.9553792185,
				"element": "H" 
			},
			{
				"x": 2.5799725818,
				"y": -2.556256315,
				"z": -0.6094509041,
				"element": "H" 
			},
			{
				"x": 1.1184649725,
				"y": 1.4640690722,
				"z": -2.4202933307,
				"element": "H" 
			},
			{
				"x": 0.2962650333,
				"y": 2.3501956837,
				"z": -1.1353511906,
				"element": "H" 
			},
			{
				"x": -0.7482956699,
				"y": -0.1446132028,
				"z": -2.5920478088,
				"element": "H" 
			},
			{
				"x": -1.2720254853,
				"y": 1.5286869342,
				"z": -2.8694134425,
				"element": "H" 
			},
			{
				"x": -2.9582496896,
				"y": 1.6249482842,
				"z": 0.2069580364,
				"element": "H" 
			},
			{
				"x": 0.8490432749,
				"y": 2.0045028734,
				"z": 2.4841234749,
				"element": "H" 
			},
			{
				"x": 1.3724013268,
				"y": 2.8710143293,
				"z": 1.0357124493,
				"element": "H" 
			},
			{
				"x": -0.2750286545,
				"y": 2.2493878032,
				"z": 1.1193835782,
				"element": "H" 
			}
		],
		 "valence_orbital": [ 
			{
				"type": "occ",
				"energy": -0.26774,
				"method": "rhf"
			},
			{
				"type": "occ",
				"energy": -0.26344,
				"method": "rhf"
			},
			{
				"type": "occ",
				"energy": -0.25966,
				"method": "rhf"
			},
			{
				"type": "occ",
				"energy": -0.25334,
				"method": "rhf"
			},
			{
				"type": "occ",
				"energy": -0.21375,
				"method": "rhf"
			},
			{
				"type": "unocc",
				"energy": -0.03972,
				"method": "rhf"
			},
			{
				"type": "unocc",
				"energy": -0.02091,
				"method": "rhf"
			},
			{
				"type": "unocc",
				"energy": 0.01112,
				"method": "rhf"
			},
			{
				"type": "unocc",
				"energy": 0.04824,
				"method": "rhf"
			},
			{
				"type": "unocc",
				"energy": 0.05013,
				"method": "rhf"
			}
		],
		"cosmo_sigma_profile": { 
			"-0.025": 0.0,
			"-0.024": 0.0,
			"-0.023": 0.0,
			"-0.022": 0.0,
			"-0.021": 0.0,
			"-0.02": 0.0,
			"-0.019": 0.0,
			"-0.018": 0.325427144766,
			"-0.017": 1.21772295027,
			"-0.016": 2.16167102517,
			"-0.015": 3.56378402963,
			"-0.014": 3.37150642676,
			"-0.013": 3.61999371728,
			"-0.012": 2.19520451939,
			"-0.011": 2.87152532465,
			"-0.01": 3.3419561385,
			"-0.009": 3.17201063876,
			"-0.008": 3.27386727397,
			"-0.007": 5.92573197839,
			"-0.006": 11.3255884576,
			"-0.005": 14.3188154912,
			"-0.004": 17.5732281392,
			"-0.003": 21.2065324114,
			"-0.002": 22.0327860289,
			"-0.001": 22.2234244372,
			"0.0": 22.1690855039,
			"0.001": 16.6490175469,
			"0.002": 10.0000567083,
			"0.003": 7.40174553398,
			"0.004": 5.64558537831,
			"0.005": 7.89889014992,
			"0.006": 6.24595759524,
			"0.007": 6.04351648749,
			"0.008": 5.62454562983,
			"0.009": 5.6311554967,
			"0.01": 5.34992757546,
			"0.011": 6.19893305877,
			"0.012": 9.46169712664,
			"0.013": 10.3986433685,
			"0.014": 4.69174555768,
			"0.015": 0.0706880332792,
			"0.016": 0.0,
			"0.017": 0.0,
			"0.018": 0.0,
			"0.019": 0.0,
			"0.02": 0.0,
			"0.021": 0.0,
			"0.022": 0.0,
			"0.023": 0.0,
			"0.024": 0.0,
			"0.025": 0.0
		}
	}
}
