{
	 "smiles": "NC1=C(C=C(C=C1)N1CCCC1)C(O)=O", 
	 "Tm": 422.15, 
	 "num_atms": 29, 
	 "gaussian": { 
		 "optdone": 1, 
		 "sigma_profile": "yes", 
		 "theory": "DFT", 
		 "functional": "B3LYP", 
		 "basiset": "6-31G**", 
		 "properties": { 
			 "R2extent": 4566.4005, 
			 "electric_dipole_moment_norm": 2.21283696191, 
			 "electric_quadrupole_moment_norm": 15.8048807294, 
			 "total_energy": -687.581687418, 
			 "HOMO_LUMO_gap": 0.13365, 
			 "cosmo_polarized_energy": -13.09, 
			 "cosmo_cavitation_energy": 31.0, 
			 "cosmo_dispersion_energy": -23.33, 
			 "cosmo_repulsion_energy": 1.83, 
			 "cosmo_total_nonelectrostatic_energy": 9.49, 
			 "SMD_solvation_energy": 4.8 
		},
		"coords": [
			{
				"x": 1.4352952268,
				"y": 3.1055886755,
				"z": -3.3902903144,
				"element": "N" 
			},
			{
				"x": 0.8932856747,
				"y": 2.3567616805,
				"z": -2.3552613519,
				"element": "C" 
			},
			{
				"x": 1.644903904,
				"y": 1.5338661044,
				"z": -1.4764517114,
				"element": "C" 
			},
			{
				"x": 1.0097336176,
				"y": 0.8769811668,
				"z": -0.4025336661,
				"element": "C" 
			},
			{
				"x": -0.3629426951,
				"y": 0.9812063453,
				"z": -0.1623945166,
				"element": "C" 
			},
			{
				"x": -1.1057560782,
				"y": 1.7897227996,
				"z": -1.0561542408,
				"element": "C" 
			},
			{
				"x": -0.4914608892,
				"y": 2.4521710424,
				"z": -2.1041425782,
				"element": "C" 
			},
			{
				"x": -0.9779201208,
				"y": 0.3123604319,
				"z": 0.8848733552,
				"element": "N" 
			},
			{
				"x": -2.3300138589,
				"y": 0.6207410726,
				"z": 1.3442346182,
				"element": "C" 
			},
			{
				"x": -2.3844734096,
				"y": 0.0276387794,
				"z": 2.7632678363,
				"element": "C" 
			},
			{
				"x": -1.3438041886,
				"y": -1.1031473571,
				"z": 2.7210227401,
				"element": "C" 
			},
			{
				"x": -0.2413423883,
				"y": -0.5224685489,
				"z": 1.8260514243,
				"element": "C" 
			},
			{
				"x": 3.0965032325,
				"y": 1.2746613253,
				"z": -1.5802121543,
				"element": "C" 
			},
			{
				"x": 3.7093570144,
				"y": 1.8497261477,
				"z": -2.6629753021,
				"element": "O" 
			},
			{
				"x": 3.7518070358,
				"y": 0.6017956198,
				"z": -0.8049165897,
				"element": "O" 
			},
			{
				"x": 2.3525916824,
				"y": 2.8339588851,
				"z": -3.7093586928,
				"element": "H" 
			},
			{
				"x": 0.7889188212,
				"y": 3.3591199784,
				"z": -4.1225781648,
				"element": "H" 
			},
			{
				"x": 1.6445522319,
				"y": 0.2756237781,
				"z": 0.235468685,
				"element": "H" 
			},
			{
				"x": -2.1784998974,
				"y": 1.8929794097,
				"z": -0.9319645463,
				"element": "H" 
			},
			{
				"x": -1.0948736086,
				"y": 3.0744842879,
				"z": -2.7609754936,
				"element": "H" 
			},
			{
				"x": -2.515747225,
				"y": 1.7037258569,
				"z": 1.3489410198,
				"element": "H" 
			},
			{
				"x": -3.0903825175,
				"y": 0.1649301537,
				"z": 0.6895258351,
				"element": "H" 
			},
			{
				"x": -2.0815891215,
				"y": 0.7861659385,
				"z": 3.4938514382,
				"element": "H" 
			},
			{
				"x": -3.3866015783,
				"y": -0.314865915,
				"z": 3.0356265188,
				"element": "H" 
			},
			{
				"x": -1.7723581777,
				"y": -1.9961084755,
				"z": 2.2521443067,
				"element": "H" 
			},
			{
				"x": -0.9743996622,
				"y": -1.3871282402,
				"z": 3.7101576949,
				"element": "H" 
			},
			{
				"x": 0.3245948426,
				"y": -1.3026053051,
				"z": 1.3018412679,
				"element": "H" 
			},
			{
				"x": 0.4844203713,
				"y": 0.06505718,
				"z": 2.4148788593,
				"element": "H" 
			},
			{
				"x": 4.6413017616,
				"y": 1.5854571823,
				"z": -2.5923762767,
				"element": "H" 
			}
		],
		 "valence_orbital": [ 
			{
				"type": "occ",
				"energy": -0.30903,
				"method": "rhf"
			},
			{
				"type": "occ",
				"energy": -0.26688,
				"method": "rhf"
			},
			{
				"type": "occ",
				"energy": -0.24472,
				"method": "rhf"
			},
			{
				"type": "occ",
				"energy": -0.24063,
				"method": "rhf"
			},
			{
				"type": "occ",
				"energy": -0.16447,
				"method": "rhf"
			},
			{
				"type": "unocc",
				"energy": -0.03082,
				"method": "rhf"
			},
			{
				"type": "unocc",
				"energy": 0.0285,
				"method": "rhf"
			},
			{
				"type": "unocc",
				"energy": 0.07457,
				"method": "rhf"
			},
			{
				"type": "unocc",
				"energy": 0.08185,
				"method": "rhf"
			},
			{
				"type": "unocc",
				"energy": 0.08389,
				"method": "rhf"
			}
		],
		"cosmo_sigma_profile": { 
			"-0.025": 0.0,
			"-0.024": 0.0,
			"-0.023": 0.0,
			"-0.022": 0.0,
			"-0.021": 0.0,
			"-0.02": 0.0,
			"-0.019": 0.0250506367245,
			"-0.018": 0.511334845282,
			"-0.017": 0.681658972275,
			"-0.016": 1.23392138389,
			"-0.015": 0.55451883526,
			"-0.014": 0.268129240035,
			"-0.013": 0.538094600907,
			"-0.012": 2.76477631731,
			"-0.011": 2.1922411638,
			"-0.01": 1.80663289227,
			"-0.009": 2.38786483117,
			"-0.008": 3.28340522328,
			"-0.007": 3.38192121161,
			"-0.006": 3.93663847103,
			"-0.005": 6.0728263919,
			"-0.004": 13.723754983,
			"-0.003": 26.2267810051,
			"-0.002": 32.3556766913,
			"-0.001": 27.1975061082,
			"0.0": 21.6673203931,
			"0.001": 11.9906508126,
			"0.002": 9.10809295715,
			"0.003": 11.3210317612,
			"0.004": 12.2170958741,
			"0.005": 13.7010062187,
			"0.006": 12.5171688153,
			"0.007": 3.08652535563,
			"0.008": 3.03109889319,
			"0.009": 2.06251286104,
			"0.01": 2.53301445514,
			"0.011": 3.05118987304,
			"0.012": 5.76092848741,
			"0.013": 2.35188759809,
			"0.014": 0.24011934603,
			"0.015": 0.0,
			"0.016": 0.0,
			"0.017": 0.0,
			"0.018": 0.0,
			"0.019": 0.0,
			"0.02": 0.0,
			"0.021": 0.0,
			"0.022": 0.0,
			"0.023": 0.0,
			"0.024": 0.0,
			"0.025": 0.0
		}
	}
}
