{
	 "smiles": "SC1=NN=C(O1)C1=CC(Cl)=NC(Cl)=C1", 
	 "Tm": 479.15, 
	 "num_atms": 17, 
	 "gaussian": { 
		 "optdone": 1, 
		 "sigma_profile": "yes", 
		 "theory": "DFT", 
		 "functional": "B3LYP", 
		 "basiset": "6-31G**", 
		 "properties": { 
			 "R2extent": 5521.669, 
			 "electric_dipole_moment_norm": 4.0556080099, 
			 "electric_quadrupole_moment_norm": 16.7051576631, 
			 "total_energy": -1826.55663163, 
			 "HOMO_LUMO_gap": 0.17216, 
			 "cosmo_polarized_energy": -13.5, 
			 "cosmo_cavitation_energy": 29.03, 
			 "cosmo_dispersion_energy": -22.27, 
			 "cosmo_repulsion_energy": 1.72, 
			 "cosmo_total_nonelectrostatic_energy": 8.48, 
			 "SMD_solvation_energy": 1.06 
		},
		"coords": [
			{
				"x": 5.3172198559,
				"y": 0.6937351501,
				"z": -0.2867684162,
				"element": "S" 
			},
			{
				"x": 3.6731672515,
				"y": 1.0014043457,
				"z": 0.2345422716,
				"element": "C" 
			},
			{
				"x": 3.3114146795,
				"y": 1.65087593,
				"z": 1.2995400549,
				"element": "N" 
			},
			{
				"x": 1.9218322537,
				"y": 1.6393600867,
				"z": 1.296635,
				"element": "N" 
			},
			{
				"x": 1.5486204779,
				"y": 0.9885978187,
				"z": 0.2375481482,
				"element": "C" 
			},
			{
				"x": 2.6208908685,
				"y": 0.5455853878,
				"z": -0.4988485226,
				"element": "O" 
			},
			{
				"x": 0.1955597391,
				"y": 0.699615762,
				"z": -0.2192313804,
				"element": "C" 
			},
			{
				"x": -0.8942871944,
				"y": 1.1542126829,
				"z": 0.5367279672,
				"element": "C" 
			},
			{
				"x": -2.1656760083,
				"y": 0.852277038,
				"z": 0.0578280484,
				"element": "C" 
			},
			{
				"x": -3.561916374,
				"y": 1.3971341118,
				"z": 0.9650251965,
				"element": "Cl" 
			},
			{
				"x": -2.4115295595,
				"y": 0.1707417479,
				"z": -1.0537037231,
				"element": "N" 
			},
			{
				"x": -1.3665498183,
				"y": -0.2472095654,
				"z": -1.7492235812,
				"element": "C" 
			},
			{
				"x": -1.7066403583,
				"y": -1.1467590883,
				"z": -3.2161601589,
				"element": "Cl" 
			},
			{
				"x": -0.036777922,
				"y": -0.0220659171,
				"z": -1.3964900641,
				"element": "C" 
			},
			{
				"x": 4.953634538,
				"y": 0.0150063221,
				"z": -1.391950008,
				"element": "H" 
			},
			{
				"x": -0.7446163904,
				"y": 1.7141505297,
				"z": 1.4505546021,
				"element": "H" 
			},
			{
				"x": 0.774853961,
				"y": -0.3910623425,
				"z": -2.0091254343,
				"element": "H" 
			}
		],
		 "valence_orbital": [ 
			{
				"type": "occ",
				"energy": -0.31565,
				"method": "rhf"
			},
			{
				"type": "occ",
				"energy": -0.30927,
				"method": "rhf"
			},
			{
				"type": "occ",
				"energy": -0.30261,
				"method": "rhf"
			},
			{
				"type": "occ",
				"energy": -0.27446,
				"method": "rhf"
			},
			{
				"type": "occ",
				"energy": -0.2641,
				"method": "rhf"
			},
			{
				"type": "unocc",
				"energy": -0.09194,
				"method": "rhf"
			},
			{
				"type": "unocc",
				"energy": -0.0499,
				"method": "rhf"
			},
			{
				"type": "unocc",
				"energy": -0.0224,
				"method": "rhf"
			},
			{
				"type": "unocc",
				"energy": -0.01461,
				"method": "rhf"
			},
			{
				"type": "unocc",
				"energy": 0.00666,
				"method": "rhf"
			}
		],
		"cosmo_sigma_profile": { 
			"-0.025": 0.0,
			"-0.024": 0.0,
			"-0.023": 0.0,
			"-0.022": 0.0,
			"-0.021": 0.0,
			"-0.02": 0.0,
			"-0.019": 0.0,
			"-0.018": 0.0,
			"-0.017": 0.0,
			"-0.016": 0.0,
			"-0.015": 0.0,
			"-0.014": 0.820290497412,
			"-0.013": 2.24631758939,
			"-0.012": 1.48367456046,
			"-0.011": 1.83712207331,
			"-0.01": 1.14860026266,
			"-0.009": 3.20323150662,
			"-0.008": 4.4728338278,
			"-0.007": 4.76733310541,
			"-0.006": 7.32301184554,
			"-0.005": 10.994795812,
			"-0.004": 13.6784803982,
			"-0.003": 20.5152918674,
			"-0.002": 26.8383818528,
			"-0.001": 18.5225980402,
			"0.0": 18.1207170449,
			"0.001": 16.3788457618,
			"0.002": 16.3560211735,
			"0.003": 23.3419479023,
			"0.004": 15.9362075974,
			"0.005": 7.77957929057,
			"0.006": 4.36350432216,
			"0.007": 3.12822382917,
			"0.008": 3.90169373897,
			"0.009": 3.05692129006,
			"0.01": 5.24595164591,
			"0.011": 3.24457033336,
			"0.012": 2.53898441347,
			"0.013": 1.31552602822,
			"0.014": 0.499428882024,
			"0.015": 0.0,
			"0.016": 0.0,
			"0.017": 0.0,
			"0.018": 0.0,
			"0.019": 0.0,
			"0.02": 0.0,
			"0.021": 0.0,
			"0.022": 0.0,
			"0.023": 0.0,
			"0.024": 0.0,
			"0.025": 0.0
		}
	}
}
